/*--------------------------------*- C++ -*----------------------------------*\
| =========                 |                                                 |
| \\      /  F ield         | OpenFOAM: The Open Source CFD Toolbox           |
|  \\    /   O peration     | Version:  v2006                                 |
|   \\  /    A nd           | Website:  www.openfoam.com                      |
|    \\/     M anipulation  |                                                 |
\*---------------------------------------------------------------------------*/
FoamFile
{
    version     2.0;
    format      ascii;
    class       volScalarField;
    location    "97";
    object      nut;
}
// * * * * * * * * * * * * * * * * * * * * * * * * * * * * * * * * * * * * * //

dimensions      [0 2 -1 0 0 0 0];


internalField   nonuniform List<scalar> 
78750
(
4.67476e-09
5.19738e-07
8.57969e-07
1.17199e-06
1.46623e-06
1.73514e-06
1.97472e-06
2.18384e-06
2.36323e-06
2.51431e-06
2.63864e-06
2.7377e-06
2.81289e-06
2.86547e-06
2.89672e-06
2.90797e-06
2.89944e-06
2.87184e-06
2.82601e-06
2.76271e-06
2.68264e-06
2.5877e-06
2.47485e-06
2.34596e-06
2.20149e-06
2.04179e-06
1.86721e-06
1.67807e-06
1.47383e-06
1.25374e-06
1.01528e-06
7.56836e-07
4.9356e-07
2.75669e-07
6.26936e-09
3.05603e-09
2.08017e-06
4.23511e-06
6.64171e-06
9.30894e-06
1.1797e-05
1.37031e-05
1.4992e-05
1.5867e-05
1.65241e-05
1.70901e-05
1.7641e-05
1.82211e-05
1.88616e-05
1.96055e-05
2.04251e-05
2.03359e-05
1.99552e-05
1.94878e-05
1.89425e-05
1.83272e-05
1.76487e-05
1.69044e-05
1.61009e-05
1.52393e-05
1.4319e-05
1.33393e-05
1.23051e-05
1.02646e-05
8.04902e-06
5.67141e-06
3.61332e-06
2.60867e-06
1.84123e-06
2.54442e-08
4.09246e-09
2.04753e-06
4.02117e-06
6.24917e-06
8.89885e-06
1.19671e-05
1.51694e-05
1.80163e-05
2.01201e-05
2.13941e-05
2.19707e-05
2.20482e-05
2.18067e-05
2.13822e-05
2.08676e-05
2.03204e-05
1.97569e-05
1.91652e-05
1.8541e-05
1.78947e-05
1.72418e-05
1.66002e-05
1.5997e-05
1.54418e-05
1.48994e-05
1.42909e-05
1.34942e-05
1.23583e-05
1.07376e-05
8.5731e-06
6.19954e-06
4.52156e-06
4.42289e-06
2.11068e-06
4.12558e-08
7.67879e-09
1.78076e-06
3.78547e-06
6.39376e-06
9.76709e-06
1.37195e-05
1.75917e-05
2.06925e-05
2.27499e-05
2.38227e-05
2.40831e-05
2.37316e-05
2.29684e-05
2.19685e-05
2.08634e-05
1.97365e-05
1.8632e-05
1.75678e-05
1.65481e-05
1.55775e-05
1.46712e-05
1.38582e-05
1.31709e-05
1.26353e-05
1.22536e-05
1.1969e-05
1.16333e-05
1.10016e-05
9.81763e-06
8.04898e-06
6.19159e-06
5.18985e-06
6.17524e-06
2.03772e-06
5.378e-08
1.15086e-08
1.79423e-06
4.03235e-06
7.30543e-06
1.18804e-05
1.72325e-05
2.2019e-05
2.53062e-05
2.6982e-05
2.72842e-05
2.65579e-05
2.51854e-05
2.35168e-05
2.18094e-05
2.02093e-05
1.87709e-05
1.74922e-05
1.63439e-05
1.52898e-05
1.43005e-05
1.33651e-05
1.25037e-05
1.17594e-05
1.11698e-05
1.07504e-05
1.04697e-05
1.02032e-05
9.71418e-06
8.76053e-06
7.37812e-06
6.09487e-06
5.8127e-06
7.55054e-06
1.96885e-06
6.30727e-08
1.62e-08
1.80949e-06
4.23929e-06
8.12102e-06
1.38317e-05
2.02315e-05
2.51492e-05
2.78e-05
2.85113e-05
2.77828e-05
2.61246e-05
2.40278e-05
2.18852e-05
1.99229e-05
1.82256e-05
1.6797e-05
1.55967e-05
1.45688e-05
1.36588e-05
1.28237e-05
1.20413e-05
1.13138e-05
1.06646e-05
1.01197e-05
9.6908e-06
9.3566e-06
9.02682e-06
8.53198e-06
7.72399e-06
6.70177e-06
5.94818e-06
6.32998e-06
8.19773e-06
1.9239e-06
6.97772e-08
2.04259e-08
1.85445e-06
4.46125e-06
8.85091e-06
1.54565e-05
2.25024e-05
2.7317e-05
2.94223e-05
2.93826e-05
2.78321e-05
2.54362e-05
2.28066e-05
2.03531e-05
1.82592e-05
1.65532e-05
1.51864e-05
1.40865e-05
1.31815e-05
1.24078e-05
1.17162e-05
1.10802e-05
1.04974e-05
9.96765e-06
9.48636e-06
9.05063e-06
8.64185e-06
8.20062e-06
7.63425e-06
6.90175e-06
6.15361e-06
5.82222e-06
6.75576e-06
8.19289e-06
1.88084e-06
7.51044e-08
2.45712e-08
1.89581e-06
4.62495e-06
9.38315e-06
1.66588e-05
2.40999e-05
2.8665e-05
3.01908e-05
2.94615e-05
2.72601e-05
2.4377e-05
2.14655e-05
1.88991e-05
1.67951e-05
1.51271e-05
1.38192e-05
1.27911e-05
1.1972e-05
1.13045e-05
1.0748e-05
1.02806e-05
9.88345e-06
9.51355e-06
9.12508e-06
8.69089e-06
8.19829e-06
7.63224e-06
6.98043e-06
6.28673e-06
5.72718e-06
5.69487e-06
7.02805e-06
7.88496e-06
1.84326e-06
7.989e-08
2.81193e-08
1.92956e-06
4.73889e-06
9.73653e-06
1.74302e-05
2.50435e-05
2.93699e-05
3.04869e-05
2.93002e-05
2.66919e-05
2.35347e-05
2.04915e-05
1.78889e-05
1.57923e-05
1.41448e-05
1.28596e-05
1.18566e-05
1.1071e-05
1.04544e-05
9.98015e-06
9.64078e-06
9.40605e-06
9.19507e-06
8.91853e-06
8.51352e-06
7.96125e-06
7.28743e-06
6.55472e-06
5.87194e-06
5.42836e-06
5.59208e-06
7.18942e-06
7.48638e-06
1.80877e-06
8.48008e-08
3.1636e-08
1.96048e-06
4.83043e-06
1.00138e-05
1.80313e-05
2.57448e-05
2.98414e-05
3.06071e-05
2.90574e-05
2.61594e-05
2.28341e-05
1.97276e-05
1.712e-05
1.50367e-05
1.3399e-05
1.21171e-05
1.11164e-05
1.03391e-05
9.74819e-06
9.33328e-06
9.10136e-06
9.00733e-06
8.94307e-06
8.78193e-06
8.42335e-06
7.83723e-06
7.08124e-06
6.28093e-06
5.59561e-06
5.22185e-06
5.5116e-06
7.27344e-06
7.08918e-06
1.77712e-06
8.98855e-08
3.49165e-08
1.98558e-06
4.89627e-06
1.02053e-05
1.84308e-05
2.6169e-05
3.00735e-05
3.05893e-05
2.88036e-05
2.57369e-05
2.23299e-05
1.92047e-05
1.66041e-05
1.4529e-05
1.28917e-05
1.15984e-05
1.05775e-05
9.78149e-06
9.18442e-06
8.7914e-06
8.6242e-06
8.62901e-06
8.6836e-06
8.63326e-06
8.34083e-06
7.75659e-06
6.95632e-06
6.11031e-06
5.4172e-06
5.08384e-06
5.45514e-06
7.32179e-06
6.73504e-06
1.74978e-06
9.51009e-08
3.82705e-08
2.00978e-06
4.96028e-06
1.03934e-05
1.88153e-05
2.65587e-05
3.0274e-05
3.05603e-05
2.85717e-05
2.53743e-05
2.19163e-05
1.87903e-05
1.62045e-05
1.41395e-05
1.25009e-05
1.11957e-05
1.0155e-05
9.33542e-06
8.72281e-06
8.33735e-06
8.21092e-06
8.2838e-06
8.42792e-06
8.47073e-06
8.24635e-06
7.68502e-06
6.87038e-06
6.00257e-06
5.30699e-06
5.00113e-06
5.4318e-06
7.37301e-06
6.42141e-06
1.72632e-06
1.00262e-07
4.162e-08
2.03208e-06
5.01658e-06
1.05532e-05
1.9126e-05
2.68457e-05
3.03931e-05
3.05e-05
2.83706e-05
2.50985e-05
2.16257e-05
1.85142e-05
1.59453e-05
1.38864e-05
1.22398e-05
1.09146e-05
9.8457e-06
8.99529e-06
8.35455e-06
7.95587e-06
7.84121e-06
7.94896e-06
8.15103e-06
8.26686e-06
8.11061e-06
7.59251e-06
6.79331e-06
5.92807e-06
5.23996e-06
4.9581e-06
5.43804e-06
7.44019e-06
6.15821e-06
1.70813e-06
1.05297e-07
4.50222e-08
2.05401e-06
5.07521e-06
1.07237e-05
1.94535e-05
2.71417e-05
3.05192e-05
3.04523e-05
2.81939e-05
2.4862e-05
2.1387e-05
1.82985e-05
1.57516e-05
1.37021e-05
1.20502e-05
1.07069e-05
9.61107e-06
8.72949e-06
8.05957e-06
7.64207e-06
7.52598e-06
7.64957e-06
7.88655e-06
8.05372e-06
7.95394e-06
7.48309e-06
6.7158e-06
5.87184e-06
5.2036e-06
4.9495e-06
5.47824e-06
7.53679e-06
5.93558e-06
1.69466e-06
1.1012e-07
4.84937e-08
2.07577e-06
5.13268e-06
1.08865e-05
1.9753e-05
2.73946e-05
3.06158e-05
3.04064e-05
2.80571e-05
2.4698e-05
2.12394e-05
1.81799e-05
1.5654e-05
1.361e-05
1.1948e-05
1.05817e-05
9.45336e-06
8.5342e-06
7.82659e-06
7.37786e-06
7.24351e-06
7.36249e-06
7.61352e-06
7.81541e-06
7.76573e-06
7.34891e-06
6.62938e-06
5.82342e-06
5.18642e-06
4.96559e-06
5.54581e-06
7.65854e-06
5.75458e-06
1.68612e-06
1.14744e-07
5.1971e-08
2.09719e-06
5.19207e-06
1.10578e-05
2.00657e-05
2.76571e-05
3.07233e-05
3.03764e-05
2.79437e-05
2.4565e-05
2.11293e-05
1.8104e-05
1.56038e-05
1.35698e-05
1.19016e-05
1.05151e-05
9.35582e-06
8.39873e-06
7.65135e-06
7.16593e-06
7.00485e-06
7.10828e-06
7.358e-06
7.57778e-06
7.56567e-06
7.19978e-06
6.53448e-06
5.77757e-06
5.18216e-06
5.00242e-06
5.64052e-06
7.8069e-06
5.60806e-06
1.68201e-06
1.19157e-07
5.55265e-08
2.11899e-06
5.25235e-06
1.12287e-05
2.03679e-05
2.79007e-05
3.08231e-05
3.03615e-05
2.7871e-05
2.4492e-05
2.10884e-05
1.80988e-05
1.56225e-05
1.3596e-05
1.19193e-05
1.05099e-05
9.31599e-06
8.3165e-06
7.52297e-06
6.99089e-06
6.79076e-06
6.86603e-06
7.10256e-06
7.32977e-06
7.3492e-06
7.03499e-06
6.43041e-06
5.73142e-06
5.18575e-06
5.05362e-06
5.75539e-06
7.97356e-06
5.49254e-06
1.68176e-06
1.23395e-07
5.90578e-08
2.14048e-06
5.31382e-06
1.14051e-05
2.06778e-05
2.81514e-05
3.09344e-05
3.03631e-05
2.78194e-05
2.44436e-05
2.10751e-05
1.81252e-05
1.56778e-05
1.36645e-05
1.19845e-05
1.05563e-05
9.3302e-06
8.28836e-06
7.4458e-06
6.8616e-06
6.61393e-06
6.65082e-06
6.86246e-06
7.08531e-06
7.12696e-06
6.86033e-06
6.3182e-06
5.68264e-06
5.19337e-06
5.11544e-06
5.88747e-06
8.15563e-06
5.40274e-06
1.68489e-06
1.27467e-07
6.26538e-08
2.16232e-06
5.37657e-06
1.15841e-05
2.0986e-05
2.8396e-05
3.10487e-05
3.03835e-05
2.78021e-05
2.44392e-05
2.11088e-05
1.8198e-05
1.57786e-05
1.37782e-05
1.20953e-05
1.06487e-05
9.39028e-06
8.30449e-06
7.40925e-06
6.76651e-06
6.46213e-06
6.45121e-06
6.62877e-06
6.83925e-06
6.8979e-06
6.67751e-06
6.19986e-06
5.63151e-06
5.20345e-06
5.18499e-06
6.03272e-06
8.34767e-06
5.33512e-06
1.69086e-06
1.31398e-07
6.62104e-08
2.18373e-06
5.43972e-06
1.17664e-05
2.12994e-05
2.86476e-05
3.11756e-05
3.04206e-05
2.78028e-05
2.4453e-05
2.11616e-05
1.82933e-05
1.59073e-05
1.39261e-05
1.22468e-05
1.07873e-05
9.50006e-06
8.37125e-06
7.4213e-06
6.71489e-06
6.34548e-06
6.27741e-06
6.4109e-06
6.59919e-06
6.66683e-06
6.48814e-06
6.0744e-06
5.5758e-06
5.21244e-06
5.25783e-06
6.18623e-06
8.54471e-06
5.28493e-06
1.69903e-06
1.35198e-07
6.98125e-08
2.20513e-06
5.50362e-06
1.19526e-05
2.16176e-05
2.89031e-05
3.13127e-05
3.0476e-05
2.7828e-05
2.44932e-05
2.12406e-05
1.84141e-05
1.6062e-05
1.41022e-05
1.24294e-05
1.09606e-05
9.64736e-06
8.47683e-06
7.47136e-06
6.69807e-06
6.25677e-06
6.12415e-06
6.20615e-06
6.36528e-06
6.43629e-06
6.29593e-06
5.94511e-06
5.51733e-06
5.22159e-06
5.33436e-06
6.34729e-06
8.74502e-06
5.2501e-06
1.70916e-06
1.38885e-07
7.3376e-08
2.22587e-06
5.56697e-06
1.21408e-05
2.19424e-05
2.91716e-05
3.14678e-05
3.05483e-05
2.78667e-05
2.45448e-05
2.13315e-05
1.85503e-05
1.62376e-05
1.43058e-05
1.26465e-05
1.11744e-05
9.83976e-06
8.62945e-06
7.56751e-06
6.72358e-06
6.20265e-06
5.99731e-06
6.01938e-06
6.14097e-06
6.20796e-06
6.10069e-06
5.81022e-06
5.45298e-06
5.22646e-06
5.41002e-06
6.51131e-06
8.94461e-06
5.22737e-06
1.72074e-06
1.42466e-07
7.69706e-08
2.24621e-06
5.63005e-06
1.23312e-05
2.22712e-05
2.94382e-05
3.16242e-05
3.06293e-05
2.79145e-05
2.46051e-05
2.14312e-05
1.86961e-05
1.64248e-05
1.45247e-05
1.28841e-05
1.14148e-05
1.00642e-05
8.81796e-06
7.70081e-06
6.78466e-06
6.17895e-06
5.89513e-06
5.8512e-06
5.92901e-06
5.98592e-06
5.90673e-06
5.67347e-06
5.38568e-06
5.22888e-06
5.48495e-06
6.67706e-06
9.14139e-06
5.21357e-06
1.73332e-06
1.45942e-07
8.05378e-08
2.26594e-06
5.69202e-06
1.25192e-05
2.25913e-05
2.96892e-05
3.17681e-05
3.07049e-05
2.7963e-05
2.46696e-05
2.15377e-05
1.8852e-05
1.66269e-05
1.47643e-05
1.31491e-05
1.16893e-05
1.03287e-05
9.05032e-06
7.87865e-06
6.88764e-06
6.19093e-06
5.82171e-06
5.70465e-06
5.73141e-06
5.77111e-06
5.71378e-06
5.53338e-06
5.313e-06
5.22602e-06
5.55636e-06
6.8419e-06
9.33493e-06
5.20888e-06
1.74698e-06
1.49321e-07
8.41255e-08
2.28531e-06
5.7541e-06
1.27088e-05
2.29063e-05
2.99292e-05
3.19011e-05
3.07718e-05
2.80129e-05
2.47344e-05
2.16421e-05
1.90062e-05
1.68296e-05
1.5009e-05
1.34254e-05
1.19828e-05
1.062e-05
9.31616e-06
8.09387e-06
7.02841e-06
6.23757e-06
5.7781e-06
5.58259e-06
5.55235e-06
5.56831e-06
5.5264e-06
5.3937e-06
5.23761e-06
5.21931e-06
5.62417e-06
7.00396e-06
9.52241e-06
5.20905e-06
1.76096e-06
1.52596e-07
8.76973e-08
2.30407e-06
5.8158e-06
1.29e-05
2.321e-05
3.01534e-05
3.20195e-05
3.08258e-05
2.80525e-05
2.47936e-05
2.17463e-05
1.91647e-05
1.7041e-05
1.52671e-05
1.3721e-05
1.23021e-05
1.09441e-05
9.62071e-06
8.35129e-06
7.21144e-06
6.32298e-06
5.76776e-06
5.48763e-06
5.39362e-06
5.37845e-06
5.34463e-06
5.25355e-06
5.15794e-06
5.20692e-06
5.68705e-06
7.16388e-06
9.70899e-06
5.21566e-06
1.77548e-06
1.5578e-07
9.12671e-08
2.32187e-06
5.87534e-06
1.30881e-05
2.35049e-05
3.03634e-05
3.2123e-05
3.0866e-05
2.80805e-05
2.48442e-05
2.18426e-05
1.93155e-05
1.72466e-05
1.55235e-05
1.40207e-05
1.26333e-05
1.12889e-05
9.9545e-06
8.64465e-06
7.43391e-06
6.44799e-06
5.79363e-06
5.42417e-06
5.26045e-06
5.20698e-06
5.17336e-06
5.11678e-06
5.07661e-06
5.1902e-06
5.74482e-06
7.31942e-06
9.89126e-06
5.22908e-06
1.79051e-06
1.58872e-07
9.48317e-08
2.33925e-06
5.93398e-06
1.32736e-05
2.37897e-05
3.05586e-05
3.22122e-05
3.0893e-05
2.80976e-05
2.48918e-05
2.19371e-05
1.94657e-05
1.74546e-05
1.57863e-05
1.43319e-05
1.2982e-05
1.16582e-05
1.03201e-05
8.97607e-06
7.69832e-06
6.61576e-06
5.85856e-06
5.39465e-06
5.15503e-06
5.05571e-06
5.0139e-06
4.98403e-06
4.99353e-06
5.16864e-06
5.79785e-06
7.47434e-06
1.00704e-05
5.24864e-06
1.80616e-06
1.61881e-07
9.83836e-08
2.35581e-06
5.9909e-06
1.34562e-05
2.40654e-05
3.07385e-05
3.22838e-05
3.09011e-05
2.80951e-05
2.49209e-05
2.20145e-05
1.96016e-05
1.76519e-05
1.60429e-05
1.46424e-05
1.3337e-05
1.20419e-05
1.07092e-05
9.33962e-06
8.00166e-06
6.82685e-06
5.9651e-06
5.40306e-06
5.08223e-06
4.92989e-06
4.87126e-06
4.85947e-06
4.91186e-06
5.14455e-06
5.84754e-06
7.62768e-06
1.02463e-05
5.27242e-06
1.82224e-06
1.64804e-07
1.01942e-07
2.37211e-06
6.04735e-06
1.36374e-05
2.43326e-05
3.09047e-05
3.23413e-05
3.08958e-05
2.80806e-05
2.49401e-05
2.20848e-05
1.97331e-05
1.78475e-05
1.63009e-05
1.4958e-05
1.37018e-05
1.24418e-05
1.11219e-05
9.73429e-06
8.34285e-06
7.08068e-06
6.11318e-06
5.45001e-06
5.04332e-06
4.83125e-06
4.74728e-06
4.7447e-06
4.83264e-06
5.11828e-06
5.89316e-06
7.77719e-06
1.04188e-05
5.30032e-06
1.83872e-06
1.67648e-07
1.05485e-07
2.38779e-06
6.10259e-06
1.3816e-05
2.45901e-05
3.10544e-05
3.2379e-05
3.08685e-05
2.80433e-05
2.49369e-05
2.21351e-05
1.98476e-05
1.80296e-05
1.65493e-05
1.52689e-05
1.4068e-05
1.28502e-05
1.15512e-05
1.01542e-05
8.717e-06
7.37353e-06
6.3014e-06
5.53611e-06
5.04056e-06
4.76332e-06
4.6462e-06
4.644e-06
4.75962e-06
5.09268e-06
5.93664e-06
7.92395e-06
1.05878e-05
5.33094e-06
1.85542e-06
1.70408e-07
1.09052e-07
2.40354e-06
6.15842e-06
1.39948e-05
2.48406e-05
3.11908e-05
3.24016e-05
3.08259e-05
2.79918e-05
2.49216e-05
2.21757e-05
1.99546e-05
1.82061e-05
1.67943e-05
1.55792e-05
1.44373e-05
1.3267e-05
1.19954e-05
1.05962e-05
9.12026e-06
7.70115e-06
6.52643e-06
5.65912e-06
5.07286e-06
4.72616e-06
4.56904e-06
4.55888e-06
4.69437e-06
5.0691e-06
5.97874e-06
8.06762e-06
1.07537e-05
5.36425e-06
1.87228e-06
1.73088e-07
1.12608e-07
2.419e-06
6.21427e-06
1.41711e-05
2.50799e-05
3.13087e-05
3.24023e-05
3.07592e-05
2.79157e-05
2.48826e-05
2.21953e-05
2.00434e-05
1.83672e-05
1.70273e-05
1.58816e-05
1.48038e-05
1.36866e-05
1.24492e-05
1.1055e-05
9.54734e-06
8.0585e-06
6.78487e-06
5.81718e-06
5.13989e-06
4.72095e-06
4.51829e-06
4.49268e-06
4.64031e-06
5.05023e-06
6.02108e-06
8.21008e-06
1.09168e-05
5.39908e-06
1.88912e-06
1.75677e-07
1.16179e-07
2.43458e-06
6.27214e-06
1.43471e-05
2.53119e-05
3.14128e-05
3.23864e-05
3.06756e-05
2.78249e-05
2.48315e-05
2.22055e-05
2.01236e-05
1.85203e-05
1.72534e-05
1.6179e-05
1.5168e-05
1.4108e-05
1.29099e-05
1.15269e-05
9.99375e-06
8.44085e-06
7.07239e-06
6.00669e-06
5.23897e-06
4.74614e-06
4.49366e-06
4.44617e-06
4.59891e-06
5.03843e-06
6.0678e-06
8.35237e-06
1.10779e-05
5.43538e-06
1.9059e-06
1.78174e-07
1.19707e-07
2.44881e-06
6.32658e-06
1.45188e-05
2.55338e-05
3.14991e-05
3.23494e-05
3.05691e-05
2.77078e-05
2.4753e-05
2.21935e-05
2.01851e-05
1.86573e-05
1.7466e-05
1.64661e-05
1.55256e-05
1.45272e-05
1.33734e-05
1.20072e-05
1.04544e-05
8.843e-06
7.38467e-06
6.22426e-06
5.36778e-06
4.80069e-06
4.49552e-06
4.4211e-06
4.57301e-06
5.03709e-06
6.12179e-06
8.49836e-06
1.12381e-05
5.47238e-06
1.92249e-06
1.80565e-07
1.23265e-07
2.46313e-06
6.38238e-06
1.46942e-05
2.57518e-05
3.15743e-05
3.22989e-05
3.04489e-05
2.758e-05
2.46659e-05
2.21709e-05
2.0233e-05
1.87811e-05
1.76678e-05
1.67443e-05
1.58764e-05
1.49423e-05
1.38367e-05
1.2492e-05
1.0925e-05
9.26051e-06
7.71731e-06
6.46575e-06
5.52267e-06
4.88172e-06
4.52209e-06
4.41687e-06
4.56304e-06
5.04709e-06
6.18372e-06
8.6493e-06
1.13984e-05
5.51026e-06
1.93888e-06
1.82848e-07
1.26783e-07
2.47656e-06
6.43618e-06
1.48654e-05
2.59564e-05
3.16303e-05
3.22268e-05
3.03053e-05
2.74276e-05
2.45545e-05
2.21274e-05
2.02653e-05
1.88908e-05
1.7856e-05
1.70111e-05
1.62184e-05
1.53513e-05
1.42971e-05
1.29781e-05
1.14015e-05
9.68914e-06
8.06655e-06
6.72795e-06
5.70106e-06
4.98746e-06
4.5726e-06
4.43385e-06
4.57032e-06
5.07042e-06
6.25607e-06
8.80829e-06
1.15595e-05
5.54858e-06
1.95503e-06
1.85012e-07
1.30296e-07
2.48975e-06
6.48993e-06
1.50369e-05
2.61547e-05
3.16747e-05
3.21413e-05
3.01481e-05
2.72628e-05
2.44318e-05
2.20726e-05
2.02865e-05
1.89908e-05
1.80347e-05
1.72675e-05
1.65508e-05
1.57525e-05
1.47522e-05
1.34621e-05
1.18802e-05
1.01249e-05
8.42839e-06
7.00704e-06
5.89944e-06
5.11495e-06
4.64494e-06
4.47093e-06
4.59466e-06
5.10754e-06
6.33969e-06
8.97635e-06
1.17225e-05
5.58775e-06
1.97098e-06
1.87063e-07
1.33756e-07
2.50217e-06
6.5419e-06
1.52042e-05
2.63398e-05
3.1701e-05
3.20353e-05
2.99688e-05
2.70756e-05
2.42877e-05
2.19985e-05
2.0291e-05
1.90768e-05
1.8202e-05
1.75141e-05
1.68731e-05
1.61447e-05
1.52003e-05
1.39416e-05
1.23578e-05
1.05642e-05
8.7995e-06
7.30002e-06
6.11515e-06
5.26198e-06
4.73756e-06
4.52743e-06
4.63632e-06
5.1595e-06
6.43628e-06
9.15544e-06
1.18878e-05
5.6276e-06
1.98674e-06
1.89002e-07
1.3719e-07
2.51429e-06
6.59343e-06
1.53705e-05
2.65172e-05
3.17153e-05
3.19157e-05
2.97755e-05
2.68752e-05
2.41313e-05
2.19127e-05
2.02848e-05
1.91526e-05
1.83594e-05
1.77514e-05
1.71864e-05
1.65269e-05
1.56387e-05
1.44134e-05
1.28308e-05
1.10033e-05
9.17606e-06
7.60327e-06
6.34484e-06
5.42551e-06
4.84791e-06
4.60147e-06
4.69414e-06
5.22575e-06
6.54559e-06
9.34507e-06
1.20546e-05
5.6683e-06
2.00236e-06
1.9084e-07
1.40557e-07
2.52569e-06
6.64319e-06
1.55325e-05
2.66819e-05
3.17124e-05
3.17764e-05
2.95612e-05
2.66542e-05
2.39556e-05
2.18094e-05
2.02635e-05
1.92155e-05
1.85057e-05
1.79788e-05
1.7491e-05
1.69009e-05
1.60684e-05
1.48772e-05
1.32979e-05
1.14402e-05
9.55587e-06
7.91451e-06
6.58619e-06
5.60335e-06
4.97407e-06
4.69159e-06
4.76727e-06
5.30608e-06
6.66803e-06
9.54588e-06
1.22228e-05
5.70973e-06
2.01784e-06
1.9258e-07
1.43878e-07
2.53671e-06
6.69217e-06
1.56928e-05
2.68382e-05
3.16972e-05
3.16229e-05
2.93322e-05
2.64193e-05
2.37672e-05
2.16944e-05
2.02315e-05
1.92685e-05
1.86425e-05
1.81968e-05
1.77859e-05
1.72649e-05
1.64879e-05
1.53305e-05
1.37562e-05
1.18722e-05
9.93623e-06
8.23119e-06
6.8368e-06
5.79317e-06
5.11385e-06
4.79591e-06
4.85425e-06
5.39951e-06
6.80299e-06
9.75744e-06
1.23925e-05
5.75196e-06
2.0332e-06
1.9423e-07
1.4712e-07
2.54709e-06
6.73952e-06
1.58491e-05
2.69826e-05
3.16658e-05
3.14504e-05
2.90833e-05
2.61656e-05
2.35617e-05
2.1564e-05
2.01861e-05
1.93099e-05
1.87692e-05
1.84058e-05
1.80724e-05
1.76207e-05
1.68987e-05
1.57746e-05
1.42061e-05
1.22986e-05
1.0316e-05
8.552e-06
7.09523e-06
5.9935e-06
5.26585e-06
4.9132e-06
4.95417e-06
5.5055e-06
6.95026e-06
9.97958e-06
1.25637e-05
5.79501e-06
2.04845e-06
1.95794e-07
1.50301e-07
2.55707e-06
6.78594e-06
1.60032e-05
2.71181e-05
3.16218e-05
3.12633e-05
2.88194e-05
2.58983e-05
2.33439e-05
2.14223e-05
2.01305e-05
1.93416e-05
1.88864e-05
1.86053e-05
1.83491e-05
1.79659e-05
1.72982e-05
1.62071e-05
1.46449e-05
1.27176e-05
1.06937e-05
8.87533e-06
7.35989e-06
6.20276e-06
5.42853e-06
5.04202e-06
5.06578e-06
5.62301e-06
7.10899e-06
1.02115e-05
1.27361e-05
5.83887e-06
2.0636e-06
1.9728e-07
1.53396e-07
2.56647e-06
6.83083e-06
1.61534e-05
2.72421e-05
3.15622e-05
3.10582e-05
2.85374e-05
2.56144e-05
2.31116e-05
2.12677e-05
2.00634e-05
1.93632e-05
1.89946e-05
1.87966e-05
1.86178e-05
1.83027e-05
1.76884e-05
1.66295e-05
1.50737e-05
1.31277e-05
1.10677e-05
9.2001e-06
7.62979e-06
6.42e-06
5.60096e-06
5.18154e-06
5.18836e-06
5.75147e-06
7.27861e-06
1.04524e-05
1.29098e-05
5.88352e-06
2.07866e-06
1.98693e-07
1.5642e-07
2.57551e-06
6.87485e-06
1.63013e-05
2.73569e-05
3.14897e-05
3.08384e-05
2.82411e-05
2.53185e-05
2.28689e-05
2.11034e-05
1.9987e-05
1.93754e-05
1.90933e-05
1.8978e-05
1.88763e-05
1.86288e-05
1.8067e-05
1.70398e-05
1.54912e-05
1.35299e-05
1.14384e-05
9.52563e-06
7.90392e-06
6.64408e-06
5.78201e-06
5.3307e-06
5.321e-06
5.89012e-06
7.4585e-06
1.07017e-05
1.30844e-05
5.92901e-06
2.09365e-06
2.0004e-07
1.59354e-07
2.58401e-06
6.91744e-06
1.64454e-05
2.74603e-05
3.14022e-05
3.06019e-05
2.79294e-05
2.50098e-05
2.26155e-05
2.09296e-05
1.99019e-05
1.93794e-05
1.91838e-05
1.91514e-05
1.91264e-05
1.89457e-05
1.84353e-05
1.74387e-05
1.58977e-05
1.39235e-05
1.18051e-05
9.85149e-06
8.18163e-06
6.87418e-06
5.9708e-06
5.48865e-06
5.46294e-06
6.03828e-06
7.64791e-06
1.09582e-05
1.32598e-05
5.97537e-06
2.10858e-06
2.01333e-07
1.62212e-07
2.59216e-06
6.95916e-06
1.65871e-05
2.75539e-05
3.13013e-05
3.03512e-05
2.76053e-05
2.46917e-05
2.23546e-05
2.07485e-05
1.98092e-05
1.9375e-05
1.92652e-05
1.93149e-05
1.93661e-05
1.92514e-05
1.87916e-05
1.78252e-05
1.62924e-05
1.43082e-05
1.21679e-05
1.01772e-05
8.46252e-06
7.10981e-06
6.16667e-06
5.65461e-06
5.61335e-06
6.19522e-06
7.84607e-06
1.12212e-05
1.34358e-05
6.02264e-06
2.12347e-06
2.02578e-07
1.64973e-07
2.5998e-06
6.99942e-06
1.67246e-05
2.76359e-05
3.1186e-05
3.00857e-05
2.72689e-05
2.43649e-05
2.20873e-05
2.05619e-05
1.97109e-05
1.93643e-05
1.93393e-05
1.94702e-05
1.95964e-05
1.95465e-05
1.91359e-05
1.81987e-05
1.66748e-05
1.46837e-05
1.25264e-05
1.0503e-05
8.74644e-06
7.35055e-06
6.36905e-06
5.82802e-06
5.77213e-06
6.36171e-06
8.05254e-06
1.14896e-05
1.3612e-05
6.07082e-06
2.13836e-06
2.03783e-07
1.67648e-07
2.60702e-06
7.03854e-06
1.68589e-05
2.77074e-05
3.10577e-05
2.98071e-05
2.69225e-05
2.40319e-05
2.18158e-05
2.03713e-05
1.96077e-05
1.93473e-05
1.94056e-05
1.9616e-05
1.9816e-05
1.98296e-05
1.9467e-05
1.85583e-05
1.7044e-05
1.50491e-05
1.288e-05
1.08284e-05
9.03336e-06
7.59664e-06
6.57821e-06
6.00909e-06
5.93922e-06
6.53704e-06
8.26734e-06
1.17633e-05
1.37888e-05
6.12e-06
2.15325e-06
2.0495e-07
1.70219e-07
2.6137e-06
7.07603e-06
1.69884e-05
2.77671e-05
3.09157e-05
2.95155e-05
2.65669e-05
2.36941e-05
2.15421e-05
2.01789e-05
1.9502e-05
1.93262e-05
1.94657e-05
1.97537e-05
2.00253e-05
2.01005e-05
1.97841e-05
1.89031e-05
1.73993e-05
1.54036e-05
1.32277e-05
1.11522e-05
9.3222e-06
7.84708e-06
6.79342e-06
6.19733e-06
6.11419e-06
6.72066e-06
8.49006e-06
1.20417e-05
1.39661e-05
6.17021e-06
2.16819e-06
2.06085e-07
1.7269e-07
2.61986e-06
7.11196e-06
1.71135e-05
2.7816e-05
3.0761e-05
2.9212e-05
2.62034e-05
2.33526e-05
2.12671e-05
1.99858e-05
1.93947e-05
1.93016e-05
1.952e-05
1.98832e-05
2.02242e-05
2.03589e-05
2.0087e-05
1.92328e-05
1.77402e-05
1.57471e-05
1.35693e-05
1.14745e-05
9.61303e-06
8.10216e-06
7.01489e-06
6.39289e-06
6.29716e-06
6.91269e-06
8.72087e-06
1.23249e-05
1.41449e-05
6.22177e-06
2.18323e-06
2.07196e-07
1.75051e-07
2.62543e-06
7.14604e-06
1.72334e-05
2.78532e-05
3.05933e-05
2.88966e-05
2.58325e-05
2.30086e-05
2.09925e-05
1.97942e-05
1.92881e-05
1.92756e-05
1.95704e-05
2.00059e-05
2.04135e-05
2.0605e-05
2.03755e-05
1.9547e-05
1.80667e-05
1.60793e-05
1.39045e-05
1.17946e-05
9.90512e-06
8.36084e-06
7.24153e-06
6.59468e-06
6.48717e-06
7.11231e-06
8.9591e-06
1.26124e-05
1.43248e-05
6.27453e-06
2.19837e-06
2.08286e-07
1.77308e-07
2.63043e-06
7.17839e-06
1.73488e-05
2.78796e-05
3.04125e-05
2.8569e-05
2.54542e-05
2.26619e-05
2.07183e-05
1.96053e-05
1.91832e-05
1.92491e-05
1.96177e-05
2.01229e-05
2.05943e-05
2.08397e-05
2.06501e-05
1.9846e-05
1.83786e-05
1.64003e-05
1.4233e-05
1.21124e-05
1.01986e-05
8.62372e-06
7.47424e-06
6.80347e-06
6.68479e-06
7.31995e-06
9.20511e-06
1.29046e-05
1.45064e-05
6.32876e-06
2.21367e-06
2.09363e-07
1.79462e-07
2.63487e-06
7.20905e-06
1.74598e-05
2.78951e-05
3.02182e-05
2.8229e-05
2.50684e-05
2.23129e-05
2.04446e-05
1.94189e-05
1.90802e-05
1.92233e-05
1.96638e-05
2.02361e-05
2.0768e-05
2.10639e-05
2.09113e-05
2.01301e-05
1.86765e-05
1.67104e-05
1.45547e-05
1.24275e-05
1.04929e-05
8.89006e-06
7.71211e-06
7.01844e-06
6.88923e-06
7.53491e-06
9.45828e-06
1.32009e-05
1.46898e-05
6.38434e-06
2.22914e-06
2.10433e-07
1.81526e-07
2.63884e-06
7.23843e-06
1.75675e-05
2.79002e-05
3.00096e-05
2.78755e-05
2.46749e-05
2.19615e-05
2.01716e-05
1.92343e-05
1.89795e-05
1.91994e-05
1.97107e-05
2.03478e-05
2.0937e-05
2.12798e-05
2.11608e-05
2.04007e-05
1.89615e-05
1.70109e-05
1.48698e-05
1.27393e-05
1.07873e-05
9.15949e-06
7.95536e-06
7.24034e-06
7.10133e-06
7.75816e-06
9.71962e-06
1.35024e-05
1.4876e-05
6.44167e-06
2.24488e-06
2.11506e-07
1.83507e-07
2.64239e-06
7.26673e-06
1.76724e-05
2.78942e-05
2.97856e-05
2.75081e-05
2.42736e-05
2.1608e-05
1.98994e-05
1.9052e-05
1.88815e-05
1.91781e-05
1.97592e-05
2.04593e-05
2.1103e-05
2.14889e-05
2.14e-05
2.06591e-05
1.92354e-05
1.73041e-05
1.51794e-05
1.30481e-05
1.10818e-05
9.43171e-06
8.20344e-06
7.46846e-06
7.32067e-06
7.98924e-06
9.9886e-06
1.38084e-05
1.50651e-05
6.50078e-06
2.2609e-06
2.12592e-07
1.8542e-07
2.64559e-06
7.29428e-06
1.7775e-05
2.78767e-05
2.95454e-05
2.71266e-05
2.38652e-05
2.12529e-05
1.96284e-05
1.8872e-05
1.87862e-05
1.91595e-05
1.98103e-05
2.05722e-05
2.12679e-05
2.16935e-05
2.16311e-05
2.09073e-05
1.95001e-05
1.75917e-05
1.54836e-05
1.33531e-05
1.13749e-05
9.7055e-06
8.45559e-06
7.70252e-06
7.54719e-06
8.22811e-06
1.02659e-05
1.41198e-05
1.52566e-05
6.56145e-06
2.27721e-06
2.13694e-07
1.87266e-07
2.64849e-06
7.32113e-06
1.78751e-05
2.78466e-05
2.92884e-05
2.67317e-05
2.3451e-05
2.08976e-05
1.93594e-05
1.86945e-05
1.86934e-05
1.91435e-05
1.98636e-05
2.06866e-05
2.14324e-05
2.18946e-05
2.18553e-05
2.11464e-05
1.97564e-05
1.78743e-05
1.57829e-05
1.36542e-05
1.16664e-05
9.98014e-06
8.71097e-06
7.94176e-06
7.78054e-06
8.4752e-06
1.05506e-05
1.44351e-05
1.54495e-05
6.62362e-06
2.29383e-06
2.14811e-07
1.89046e-07
2.65101e-06
7.34704e-06
1.79718e-05
2.7803e-05
2.90144e-05
2.63241e-05
2.30323e-05
2.05432e-05
1.9093e-05
1.85195e-05
1.86026e-05
1.9129e-05
1.99183e-05
2.08017e-05
2.15963e-05
2.20928e-05
2.20735e-05
2.13772e-05
2.00041e-05
1.81499e-05
1.60754e-05
1.39498e-05
1.19546e-05
1.02543e-05
8.96853e-06
8.18541e-06
8.0201e-06
8.73005e-06
1.08442e-05
1.47561e-05
1.56444e-05
6.68711e-06
2.31076e-06
2.15949e-07
1.90746e-07
2.65303e-06
7.3714e-06
1.80634e-05
2.77449e-05
2.8724e-05
2.59056e-05
2.26112e-05
2.01917e-05
1.88311e-05
1.83486e-05
1.85146e-05
1.91161e-05
1.99735e-05
2.09166e-05
2.17589e-05
2.22877e-05
2.22861e-05
2.16005e-05
2.02439e-05
1.84184e-05
1.63611e-05
1.42398e-05
1.22393e-05
1.05273e-05
9.22728e-06
8.43245e-06
8.265e-06
8.99203e-06
1.11456e-05
1.50815e-05
1.58401e-05
6.75167e-06
2.3281e-06
2.17099e-07
1.9236e-07
2.65441e-06
7.3938e-06
1.81492e-05
2.76719e-05
2.84164e-05
2.54757e-05
2.21876e-05
1.98432e-05
1.85742e-05
1.81825e-05
1.84301e-05
1.9105e-05
2.00291e-05
2.10307e-05
2.19194e-05
2.24791e-05
2.24933e-05
2.18169e-05
2.04762e-05
1.86794e-05
1.66394e-05
1.45234e-05
1.25195e-05
1.07983e-05
9.4866e-06
8.68248e-06
8.51524e-06
9.26168e-06
1.14562e-05
1.54135e-05
1.60374e-05
6.81734e-06
2.34579e-06
2.18274e-07
1.93881e-07
2.65498e-06
7.41337e-06
1.82273e-05
2.75838e-05
2.80922e-05
2.50348e-05
2.1762e-05
1.94987e-05
1.83238e-05
1.80232e-05
1.83515e-05
1.90979e-05
2.00864e-05
2.11442e-05
2.20775e-05
2.26665e-05
2.26953e-05
2.20273e-05
2.07024e-05
1.8934e-05
1.69111e-05
1.48012e-05
1.27954e-05
1.10669e-05
9.74577e-06
8.93458e-06
8.76981e-06
9.53796e-06
1.17748e-05
1.57506e-05
1.62356e-05
6.88416e-06
2.36387e-06
2.19473e-07
1.95317e-07
2.65477e-06
7.43052e-06
1.82993e-05
2.74797e-05
2.77479e-05
2.45796e-05
2.13317e-05
1.91566e-05
1.80797e-05
1.78721e-05
1.82811e-05
1.90979e-05
2.01485e-05
2.12599e-05
2.2235e-05
2.28509e-05
2.28928e-05
2.22329e-05
2.09244e-05
1.91834e-05
1.7177e-05
1.50736e-05
1.30674e-05
1.13336e-05
1.00051e-05
9.18904e-06
9.02902e-06
9.82126e-06
1.21017e-05
1.60932e-05
1.64349e-05
6.95206e-06
2.38233e-06
2.20702e-07
1.96691e-07
2.65375e-06
7.44505e-06
1.83649e-05
2.73598e-05
2.73828e-05
2.41084e-05
2.08951e-05
1.88154e-05
1.78415e-05
1.773e-05
1.82213e-05
1.91082e-05
2.02193e-05
2.13813e-05
2.23949e-05
2.30347e-05
2.30878e-05
2.2436e-05
2.11449e-05
1.94294e-05
1.74382e-05
1.53413e-05
1.33355e-05
1.15979e-05
1.0264e-05
9.44521e-06
9.29226e-06
1.0111e-05
1.24365e-05
1.64407e-05
1.66342e-05
7.02041e-06
2.40103e-06
2.21948e-07
1.98025e-07
2.65219e-06
7.45813e-06
1.84267e-05
2.72224e-05
2.69925e-05
2.36177e-05
2.04493e-05
1.84733e-05
1.76084e-05
1.75974e-05
1.8174e-05
1.91326e-05
2.03037e-05
2.15139e-05
2.25622e-05
2.3222e-05
2.32838e-05
2.26397e-05
2.13675e-05
1.96743e-05
1.7696e-05
1.56051e-05
1.36005e-05
1.18606e-05
1.0523e-05
9.70356e-06
9.56004e-06
1.04079e-05
1.27797e-05
1.67932e-05
1.68337e-05
7.08963e-06
2.4201e-06
2.23211e-07
1.99343e-07
2.65011e-06
7.46989e-06
1.84853e-05
2.7067e-05
2.65754e-05
2.31055e-05
1.99919e-05
1.81274e-05
1.73788e-05
1.74725e-05
1.8138e-05
1.91713e-05
2.04038e-05
2.16613e-05
2.27411e-05
2.34166e-05
2.34838e-05
2.28466e-05
2.15941e-05
1.99194e-05
1.79515e-05
1.58659e-05
1.3863e-05
1.2122e-05
1.07824e-05
9.96397e-06
9.832e-06
1.07114e-05
1.31309e-05
1.71502e-05
1.70325e-05
7.15898e-06
2.43937e-06
2.24488e-07
2.00652e-07
2.64767e-06
7.48072e-06
1.85406e-05
2.68918e-05
2.61298e-05
2.25717e-05
1.9523e-05
1.77769e-05
1.71517e-05
1.73537e-05
1.81122e-05
1.92246e-05
2.05216e-05
2.18268e-05
2.29356e-05
2.36225e-05
2.36907e-05
2.30581e-05
2.18241e-05
2.01639e-05
1.8204e-05
1.6123e-05
1.41226e-05
1.23821e-05
1.10424e-05
1.02273e-05
1.01092e-05
1.10226e-05
1.34906e-05
1.75118e-05
1.72313e-05
7.22904e-06
2.45898e-06
2.25775e-07
2.01962e-07
2.64493e-06
7.49092e-06
1.85932e-05
2.66955e-05
2.56551e-05
2.20171e-05
1.90432e-05
1.74205e-05
1.69216e-05
1.72359e-05
1.80928e-05
1.92902e-05
2.06563e-05
2.20113e-05
2.31483e-05
2.38434e-05
2.39086e-05
2.32771e-05
2.20593e-05
2.04096e-05
1.8455e-05
1.63779e-05
1.43804e-05
1.26416e-05
1.13032e-05
1.04931e-05
1.03913e-05
1.13408e-05
1.38584e-05
1.78773e-05
1.7429e-05
7.29913e-06
2.47875e-06
2.27071e-07
2.03268e-07
2.64178e-06
7.49971e-06
1.86408e-05
2.64773e-05
2.51524e-05
2.14444e-05
1.85551e-05
1.70603e-05
1.66904e-05
1.71199e-05
1.8079e-05
1.93661e-05
2.08059e-05
2.22138e-05
2.33793e-05
2.408e-05
2.41383e-05
2.35044e-05
2.22986e-05
2.06553e-05
1.87036e-05
1.66296e-05
1.46356e-05
1.28998e-05
1.1565e-05
1.07628e-05
1.06808e-05
1.16673e-05
1.42349e-05
1.82471e-05
1.7626e-05
7.36965e-06
2.4988e-06
2.28374e-07
2.04569e-07
2.63833e-06
7.50765e-06