/*--------------------------------*- C++ -*----------------------------------*\
| =========                 |                                                 |
| \\      /  F ield         | OpenFOAM: The Open Source CFD Toolbox           |
|  \\    /   O peration     | Version:  v2006                                 |
|   \\  /    A nd           | Website:  www.openfoam.com                      |
|    \\/     M anipulation  |                                                 |
\*---------------------------------------------------------------------------*/
FoamFile
{
    version     2.0;
    format      ascii;
    class       volScalarField;
    location    "97";
    object      omega;
}
// * * * * * * * * * * * * * * * * * * * * * * * * * * * * * * * * * * * * * //

dimensions      [0 0 -1 0 0 0 0];


internalField   nonuniform List<scalar> 
78750
(
352.276
13.578
13.6186
13.6559
13.6907
13.7223
13.7505
13.775
13.7962
13.814
13.8288
13.8407
13.8498
13.8562
13.8603
13.862
13.8614
13.8586
13.8537
13.8468
13.838
13.8274
13.8148
13.8003
13.7841
13.7662
13.7466
13.7256
13.703
13.6793
13.6554
13.6343
13.6236
13.6349
356.645
516.912
4.17392
4.28526
4.38733
4.47723
4.55367
4.61731
4.66945
4.71128
4.74381
4.76794
4.78451
4.79424
4.79784
4.79595
4.78928
4.7785
4.76401
4.74622
4.72547
4.70211
4.67641
4.64833
4.61813
4.58592
4.5517
4.51553
4.47767
4.43788
4.39512
4.34787
4.29491
4.24111
4.20169
523.871
516.917
4.20848
4.3453
4.46819
4.57422
4.66181
4.73162
4.78589
4.82725
4.85798
4.87973
4.89369
4.90074
4.90161
4.89693
4.88734
4.87348
4.85598
4.8355
4.81264
4.78799
4.76204
4.73509
4.7072
4.67818
4.6476
4.61493
4.57954
4.5406
4.49661
4.44531
4.38592
4.32614
4.27968
524.358
516.933
4.26666
4.43875
4.58659
4.70677
4.79969
4.86927
4.9204
4.95716
4.98236
4.99784
5.00486
5.00429
4.99686
4.98327
4.96426
4.94064
4.91333
4.88333
4.85169
4.81957
4.78812
4.75828
4.73051
4.70452
4.67937
4.65367
4.62578
4.59379
4.55526
4.50737
4.44987
4.39191
4.34307
524.77
516.95
4.3214
4.52275
4.68854
4.81548
4.90736
4.97222
5.01759
5.04848
5.06784
5.07733
5.07791
5.07016
5.05467
5.03209
5.00331
4.96941
4.93164
4.89143
4.8503
4.81002
4.77247
4.73935
4.71153
4.68881
4.66998
4.65303
4.63537
4.61397
4.5853
4.54588
4.49547
4.44288
4.39344
525.143
516.971
4.37528
4.60089
4.77978
4.91018
5.00029
5.06208
5.10449
5.13249
5.14859
5.154
5.14931
5.1349
5.11131
5.07934
5.04016
4.99523
4.94624
4.89505
4.84371
4.79459
4.7503
4.71296
4.68351
4.66176
4.64659
4.63597
4.62697
4.6158
4.59801
4.56914
4.52814
4.48178
4.43212
525.479
516.989
4.41967
4.66388
4.85264
4.98579
5.07526
5.13555
5.1762
5.20204
5.21527
5.2168
5.20696
5.18601
5.15454
5.11361
5.06476
5.00986
4.95099
4.89048
4.83089
4.7752
4.72652
4.68674
4.65632
4.635
4.62191
4.61538
4.61265
4.60978
4.60168
4.58295
4.55128
4.51081
4.4615
525.801
517.007
4.46157
4.7227
4.92045
5.05636
5.1457
5.20505
5.24441
5.26843
5.27906
5.27692
5.26212
5.23492
5.19606
5.14691
5.08934
5.02559
4.95815
4.88975
4.82356
4.76324
4.71194
4.67062
4.63915
4.61717
4.60416
4.59903
4.59964
4.60233
4.60173
4.59152
4.56792
4.53264
4.48447
526.107
517.023
4.49649
4.77166
4.97736
5.1165
5.2068
5.26625
5.30512
5.32798
5.33656
5.3313
5.31219
5.27952
5.23421
5.17792
5.11285
5.04157
4.96694
4.89218
4.82109
4.75804
4.7057
4.66388
4.63189
4.60918
4.59541
4.59003
4.59164
4.59723
4.60154
4.59768
4.58051
4.54984
4.50395
526.395
517.039
4.53088
4.81969
5.03292
5.17498
5.26599
5.32531
5.3635
5.38503
5.39149
5.38311
5.35981
5.32191
5.27055
5.2076
5.13561
5.0575
4.97654
4.89643
4.82174
4.75749
4.70525
4.66384
4.632
4.60898
4.59444
4.58816
4.58941
4.59593
4.60293
4.60331
4.591
4.56439
4.52162
526.666
517.053
4.56218
4.86319
5.08337
5.22849
5.32068
5.38031
5.41819
5.43873
5.44336
5.43221
5.40513
5.3625
5.30562
5.23661
5.15828
5.0739
4.98717
4.90231
4.82471
4.75994
4.70837
4.66798
4.63699
4.6143
4.59944
4.59232
4.59265
4.59888
4.60687
4.60976
4.60094
4.57787
4.53865
526.916
517.068
4.59321
4.90584
5.13233
5.28
5.37299
5.43273
5.47018
5.48967
5.49251
5.47868
5.44798
5.40088
5.33878
5.26403
5.1797
5.08938
4.99718
4.90794
4.82786
4.76298
4.71249
4.67365
4.64417
4.62256
4.60812
4.60071
4.60027
4.60574
4.61368
4.61775
4.61127
4.59113
4.55539
527.148
517.083
4.62317
4.94663
5.17906
5.32923
5.42318
5.48318
5.52036
5.53898
5.5402
5.52392
5.48992
5.43868
5.37177
5.29169
5.20175
5.10583
5.00843
4.91488
4.83226
4.76703
4.71748
4.68026
4.65258
4.63253
4.61911
4.61202
4.61122
4.61595
4.62336
4.62775
4.62273
4.6049
4.5722
527.362
517.097
4.65237
4.98588
5.22358
5.37585
5.47057
5.53079
5.56774
5.58557
5.58533
5.5668
5.52974
5.47471
5.40335
5.31831
5.22309
5.12184
5.01943
4.92169
4.83651
4.77083
4.72219
4.6867
4.66107
4.64301
4.63117
4.62504
4.62445
4.62876
4.63555
4.63978
4.63554
4.61938
4.58906
527.562
517.113
4.68125
5.02436
5.26709
5.42141
5.51695
5.57748
5.61428
5.63143
5.62987
5.6093
5.56948
5.511
5.43559
5.34602
5.2459
5.13961
5.03229
4.93024
4.84203
4.7753
4.72709
4.69308
4.6695
4.65362
4.64374
4.63908
4.63926
4.64359
4.64992
4.65377
4.64984
4.63477
4.60611
527.749
517.128
4.70908
5.061
5.30824
5.46435
5.56065
5.62153
5.6583
5.67492
5.67223
5.64987
5.60759
5.54604
5.46701
5.37333
5.26871
5.15767
5.04561
4.93928
4.84783
4.77971
4.73168
4.69898
4.67742
4.66386
4.65626
4.6535
4.65498
4.65985
4.66602
4.6695
4.66559
4.6511
4.62332
527.926
517.143
4.73685
5.09731
5.34889
5.50676
5.60386
5.66514
5.70194
5.71811
5.71441
5.69044
5.64597
5.5817
5.49944
5.40207
5.29333
5.17781
5.0611
4.9503
4.85504
4.78479
4.73634
4.70457
4.68487
4.67365
4.66851
4.66801
4.67123
4.67709
4.68348
4.6867
4.68261
4.66826
4.64069
528.093
517.159
4.76353
5.13187
5.38744
5.54694
5.64487
5.70664
5.74356
5.75941
5.75488
5.72953
5.68317
5.61653
5.53147
5.43088
5.31847
5.19885
5.07775
4.96248
4.86313
4.79024
4.74088
4.70967
4.69163
4.68275
4.68023
4.68227
4.68764
4.69495
4.70194
4.70509
4.70074
4.6862
4.65821
528.253
517.174
4.79017
5.16621
5.42568
5.58684
5.68563
5.74793
5.785
5.80057
5.79526
5.76866
5.72061
5.65192
5.56444
5.46103
5.34535
5.22196
5.09665
4.97683
4.87294
4.79663
4.74563
4.71445
4.69776
4.69113
4.69132
4.69617
4.70401
4.71317
4.72114
4.72445
4.71982
4.70479
4.67585
528.406
517.19
4.81579
5.19902
5.46219
5.62503
5.7248
5.78771
5.825
5.84034
5.83435
5.80666
5.75719
5.68678
5.59731
5.49156
5.3731
5.24642
5.11724
4.993
4.88434
4.804
4.75071
4.71898
4.70325
4.69869
4.70162
4.70944
4.72009
4.73144
4.74073
4.74443
4.73955
4.72386
4.69353
528.554
517.205
4.84124
5.23149
5.49838
5.66304
5.76393
5.82748
5.86491
5.87992
5.87323
5.84452
5.7938
5.72194
5.63081
5.52311
5.4023
5.27273
5.13996
5.0114
4.89777
4.8127
4.75637
4.72344
4.7082
4.70548
4.71115
4.72209
4.73581
4.74972
4.76065
4.76496
4.7599
4.74338
4.71126
528.698
517.221
4.86573
5.26258
5.53313
5.69987
5.80228
5.86655
5.90389
5.91846
5.91107
5.88148
5.82974
5.75677
5.66439
5.55521
5.43256
5.30059
5.16466
5.03202
4.91336
4.82296
4.76285
4.72802
4.71272
4.7115
4.71978
4.73393
4.75091
4.76766
4.78056
4.78574
4.78058
4.76314
4.72895
528.836
517.236
4.88988
5.29308
5.56724
5.7363
5.84019
5.90522
5.94255
5.95646
5.94836
5.91798
5.86541
5.79157
5.69826
5.58799
5.46391
5.32998
5.19128
5.0548
4.93112
4.83487
4.77033
4.7329
4.71697
4.71688
4.72762
4.74502
4.76547
4.7853
4.80041
4.80664
4.80145
4.78303
4.74655
528.971
517.252
4.91323
5.32232
5.59988
5.77124
5.87638
5.94223
5.97991
5.99338
5.98472
5.95373
5.90055
5.82614
5.73227
5.62133
5.49632
5.36093
5.21993
5.07997
4.95136
4.84886
4.77921
4.73841
4.72114
4.72167
4.7346
4.75522
4.77925
4.8024
4.82002
4.82757
4.82251
4.80309
4.76409
529.103
517.267
4.93617
5.35095
5.63177
5.8052
5.91153
5.97824
6.0164
6.02983
6.02042
5.98881
5.93516
5.86038
5.76622
5.65496
5.52943
5.39305
5.25024
5.10722
4.97391
4.86496
4.78967
4.74482
4.72552
4.72612
4.74094
4.76466
4.79235
4.81897
4.83925
4.84824
4.84346
4.82301
4.78138
529.231
517.283
4.95842
5.3786
5.66284
5.83784
5.9452
6.01275
6.05145
6.06497
6.05505
6.0231
5.96922
5.89437
5.80023
5.68903
5.56341
5.42653
5.28244
5.13685
4.99915
4.88368
4.80225
4.7526
4.73046
4.73046
4.74668
4.77331
4.80465
4.83491
4.8581
4.86885
4.86472
4.84291
4.79851
529.357
517.298
4.98001
5.40517
5.69264
5.86912
5.97757
6.04604
6.0854
6.09917
6.08891
6.05666
6.00264
5.92784
5.83393
5.72306
5.59771
5.46078
5.31594
5.16835
5.02679
4.90505
4.81722
4.76218
4.73645
4.73509
4.75217
4.78138
4.81627
4.8502
4.87643
4.88908
4.88593
4.86302
4.81547
529.48
517.313
5.00105
5.43086
5.72133
5.89918
6.00867
6.07806
6.11814
6.13233
6.12209
6.08953
6.03547
5.96093
5.86753
5.75731
5.63261
5.49608
5.35101
5.20201
5.05718
4.9296
4.83515
4.77416
4.74401
4.74044
4.75768
4.78902
4.82726
4.86489
4.89436
4.90945
4.90718
4.88325
4.83231
529.6
517.328
5.02141
5.45548
5.74874
5.92788
6.03838
6.10871
6.14953
6.16419
6.15409
6.12129
6.06736
5.99325
5.90056
5.79124
5.6675
5.53176
5.38698
5.23722
5.08987
4.95721
4.85623
4.78894
4.75371
4.74709
4.76369
4.79657
4.83785
4.87909
4.91194
4.92975
4.92841
4.90348
4.84901
529.719
517.344
5.04135
5.47938
5.7752
5.95551
6.06698
6.13823
6.17983
6.19503
6.18516
6.15228
6.09862
6.02513
5.93335
5.82517
5.70266
5.56807
5.42402
5.2741
5.12496
4.98805
4.88072
4.80695
4.76605
4.75554
4.77063
4.80436
4.84823
4.89292
4.92921
4.9499
4.94955
4.92364
4.86555
529.836
517.359
5.06065
5.50227
5.80039
5.98176
6.09414
6.16631
6.20869
6.22445
6.2149
6.18204
6.12878
6.05604
5.96533
5.85847
5.73745
5.60432
5.46143
5.3119
5.16174
5.02149
4.90833
4.82822
4.78136
4.76631
4.77907
4.81288
4.85877
4.90659
4.94623
4.96984
4.97053
4.94366
4.88189
529.951
517.374
5.07969
5.52467
5.82482
6.00707
6.12029
6.19334
6.23652
6.25289
6.24371
6.21099
6.15823
6.08636
5.99685
5.89148
5.77213
5.64071
5.49932
5.35066
5.2001
5.05731
4.93892
4.85279
4.79987
4.77976
4.78941
4.82248
4.86977
4.92035
4.96317
4.98963
4.99135
4.96351
4.89801
530.066
517.389
5.09817
5.54626
5.84802
6.03097
6.14496
6.21886
6.26283
6.27983
6.2711
6.23861
6.18645
6.11552
6.02733
5.92358
5.80609
5.67662
5.53703
5.38968
5.23933
5.09481
4.97198
4.88041
4.82161
4.79617
4.80209
4.83366
4.88162
4.9344
4.98003
5.00924
5.01196
4.98314
4.91385
530.18
517.404
5.11639
5.56767
5.8705
6.05396
6.16864
6.24336
6.28811
6.30576
6.29753
6.26539
6.21384
6.14392
6.0571
5.95508
5.83956
5.7122
5.57466
5.42895
5.2793
5.13375
5.00726
4.91087
4.84653
4.81568
4.81738
4.84674
4.89465
4.94908
4.99735
5.02883
5.03238
5.00251
4.9294
530.293
517.42
5.13368
5.58769
5.89154
6.07547
6.1908
6.2663
6.3118
6.33009
6.32242
6.29085
6.23989
6.171
6.08565
5.98546
5.87205
5.74696
5.61167
5.4679
5.31942
5.17349
5.0442
4.94376
4.87439
4.83826
4.83547
4.86203
4.90923
4.96474
5.01528
5.04856
5.05267
5.02162
4.94462
530.406
517.435
5.15074
5.60729
5.91185
6.0961
6.21201
6.28827
6.33451
6.35343
6.34629
6.31522
6.2649
6.19716
6.11335
6.01506
5.90383
5.7811
5.6482
5.5066
5.35963
5.21389
5.08255
4.97879
4.90497
4.86382
4.85639
4.8797
4.92556
4.98156
5.03387
5.0685
5.07288
5.04049
4.95949
530.52
517.45
5.16698
5.62562
5.93071
6.11522
6.23169
6.30868
6.35565
6.37521
6.36864
6.33817
6.28857
6.22198
6.13979
6.04349
5.93451
5.81423
5.68385
5.54461
5.39948
5.25445
5.12184
5.01553
4.93792
4.89215
4.88012
4.89985
4.94382
4.99972
5.05325
5.08874
5.09304
5.0591
4.974
530.633
517.464
5.18279
5.64329
5.94875
6.13343
6.2504
6.32809
6.37575
6.39594
6.38993
6.36007
6.31126
6.2459
6.16532
6.071
5.96435
5.84657
5.71877
5.58203
5.43898
5.29507
5.16187
5.05371
4.97296
4.92302
4.90654
4.92248
4.9641
5.01931
5.07347
5.10933
5.1132
5.07747
4.98814
530.747
517.479
5.19777
5.65978
5.96543
6.1502
6.26764
6.346
6.39433
6.41513
6.4097
6.38049
6.33255
6.2685
6.18961
6.09731
5.99296
5.87776
5.75262
5.61849
5.47774
5.33536
5.20221
5.09292
5.00969
4.95612
4.93544
4.94751
4.98641
5.0404
5.09461
5.13031
5.13338
5.09563
5.00192
530.861
517.494
5.21227
5.67555
5.98126
6.16605
6.28389
6.36288
6.41186
6.43324
6.42837
6.39984
6.35282
6.29012
6.21295
6.12271
6.02068
5.908
5.78557
5.65411
5.5158
5.37524
5.2427
5.13287
5.04779
4.99111
4.96653
4.97475
5.01064
5.06291
5.11661
5.15167
5.15359
5.11356
5.01536
530.974
517.508
5.22596
5.69022
5.99583
6.18056
6.29876
6.37834
6.42793
6.44988
6.44558
6.41775
6.37173
6.31044
6.23506
6.14691
6.04723
5.93711
5.81736
5.68865
5.55292
5.41445
5.28302
5.17324
5.08689
5.02761
4.9995
5.00393
5.03663
5.08678
5.13945
5.1734
5.17382
5.13129
5.02846
531.087
517.522
5.23913
5.70418
6.00955
6.19416
6.31266
6.39277
6.44293
6.46541
6.46166
6.43455
6.38958
6.32974
6.25617
6.17013
6.07282
5.96524
5.84818
5.72221
5.58914
5.45297
5.32307
5.21382
5.12673
5.06535
5.03403
5.03481
5.06416
5.11184
5.16304
5.19544
5.19406
5.14881
5.04125
531.199
517.536
5.25155
5.71712
6.02212
6.20652
6.32527
6.40586
6.45655
6.47954
6.47633
6.44996
6.40611
6.34778
6.27607
6.19219
6.09726
5.99225
5.87789
5.75468
5.62435
5.49067
5.36269
5.25442
5.16705
5.10401
5.06986
5.06714
5.09306
5.13798
5.1873
5.21777
5.21429
5.16612
5.05374
531.31
517.549
5.26345
5.72936
6.03387
6.21797
6.33691
6.41794
6.46911
6.49255
6.48986
6.46424
6.42155
6.36477
6.29495
6.21322
6.12067
6.01823
5.90656
5.78611
5.65855
5.52756
5.4018
5.29488
5.20765
5.14338
5.10672
5.10067
5.12312
5.16503
5.2121
5.24031
5.23448
5.18322
5.06593
531.42
517.562
5.27465
5.74066
6.04454
6.22829
6.34735
6.42877
6.48037
6.50424
6.50205
6.47719
6.43573
6.38056
6.31265
6.23312
6.14299
6.04312
5.93415
5.81648
5.69172
5.56345
5.44028
5.33508
5.24837
5.18324
5.14439
5.13519
5.15415
5.19285
5.23737
5.26301
5.2546
5.2001
5.07784
531.528
517.575
5.28532
5.75127
6.05441
6.23773
6.35686
6.43861
6.49059
6.51484
6.51311
6.48901
6.44882
6.39526
6.3293
6.25197
6.16425
6.06696
5.96068
5.84581
5.72391
5.59853
5.47817
5.37496
5.28907
5.22342
5.18268
5.17051
5.18599
5.22132
5.263
5.2858
5.27463
5.21676
5.08949
531.635
517.587
5.29533
5.76102
6.0633
6.24612
6.36527
6.4473
6.49962
6.52421
6.52293
6.49961
6.46073
6.40883
6.34484
6.26973
6.18444
6.08974
5.98617
5.87411
5.75511
5.63271
5.51541
5.41443
5.32963
5.26374
5.22137
5.20642
5.21846
5.25029
5.28891
5.30863
5.29454
5.23319
5.10088
531.74
517.6
5.30484
5.7701
6.07142
6.25367
6.37279
6.45505
6.50766
6.53254
6.53169
6.50913
6.47157
6.42135
6.35933
6.28645
6.20359
6.11147
6.01061
5.90138
5.78534
5.66605
5.55203
5.45347
5.36998
5.3041
5.26034
5.24277
5.2514
5.27964
5.31498
5.33146
5.31431
5.2494
5.11204
531.844
517.611
5.31371
5.77835
6.07861
6.26025
6.3793
6.46176
6.51464
6.53979
6.53934
6.51756
6.48137
6.43283
6.37278
6.30212
6.22169
6.13215
6.03401
5.92762
5.81457
5.6985
5.58799
5.49204
5.41007
5.34439
5.29945
5.27942
5.28473
5.30947
5.34121
5.35424
5.33392
5.26539
5.12298
531.945
517.623
5.32205
5.78592
6.08502
6.266
6.38495
6.46758
6.52068
6.54607
6.54601
6.52501
6.4902
6.44334
6.38525
6.31679
6.23875
6.15179
6.05635
5.95282
5.84283
5.73008
5.62327
5.53013
5.44987
5.38461
5.33868
5.31634
5.31841
5.33963
5.36758
5.37699
5.35339
5.28119
5.13373
532.045
517.634
5.32975
5.79268
6.09055
6.27083
6.38966
6.47245
6.52576
6.5514
6.55173
6.53153
6.49812
6.45293
6.39677
6.33049
6.25482
6.17039
6.07766
5.97698
5.87006
5.76072
5.65779
5.56763
5.48925
5.4246
5.37789
5.35341
5.35234
5.37
5.39401
5.39966
5.3727
5.29678
5.1443
532.143
517.644
5.33688
5.79872
6.09528
6.27485
6.39354
6.47646
6.52998
6.55585
6.5566
6.53722
6.50523
6.46169
6.40743
6.34327
6.26994
6.18802
6.09796
6.00014
5.89633
5.79048
5.69159
5.60455
5.52822
5.46437
5.41706
5.39061
5.38649
5.40058
5.42054
5.42231
5.39191
5.31222
5.15473
532.24
517.654
5.34338
5.80398
6.09919
6.27801
6.39654
6.4796
6.53333
6.55946
6.56067
6.54217
6.5116
6.46968
6.41727
6.35519
6.28415
6.20469
6.11727
6.0223
5.92161
5.81935
5.72461
5.64081
5.56666
5.50376
5.45601
5.42775
5.42068
5.43122
5.44707
5.4449
5.41099
5.32752
5.16503
532.334
517.664
5.34931
5.80854
6.10233
6.28039
6.39876
6.48194
6.53587
6.56227
6.56401
6.54653
6.51732
6.47698
6.42637
6.36632
6.29751
6.22048
6.13567
6.04353
5.946
5.84738
5.75692
5.67647
5.60463
5.54284
5.49484
5.4649
5.45497
5.46197
5.47365
5.46747
5.43002
5.34273
5.17525
532.427
517.673
5.35467
5.81241
6.10472
6.28199
6.40018
6.48347
6.53759
6.56427
6.56658
6.55023
6.52235
6.48357
6.43475
6.3767
6.31008
6.23542
6.15318
6.06385
5.96949
5.87461
5.78849
5.71146
5.64205
5.58151
5.5334
5.50191
5.48921
5.4927
5.50019
5.48998
5.44896
5.35785
5.18541
532.518
517.682
5.35954
5.81566
6.10643
6.28287
6.40085
6.48423
6.53853
6.5655
6.5684
6.55324
6.52674
6.48955
6.44251
6.38643
6.32196
6.24964
6.16993
6.0834
5.99224
5.90118
5.8194
5.74583
5.67892
5.61977
5.57173
5.53888
5.5235
5.52352
5.52679
5.51251
5.46789
5.37295
5.19556
532.607
517.691
5.36396
5.81832
6.10744
6.28301
6.40076
6.48421
6.53869
6.56594
6.56947
6.55556
6.5305
6.49492
6.44967
6.39554
6.33319
6.26317
6.18596
6.10224
6.01435
5.92727
5.84976
5.77962
5.71524
5.65756
5.60973
5.57568
5.55777
5.55438
5.55345
5.53509
5.48686
5.38806
5.20573
532.695
517.699
5.36796
5.82041
6.1078
6.28244
6.39993
6.48344
6.53807
6.56561
6.5698
6.55721
6.53364
6.49971
6.45627
6.4041
6.34386
6.27611
6.2014
6.12051
6.03596
5.95305
5.87967
5.81287
5.751
5.69487
5.64739
5.6123
5.59202
5.58527
5.58019
5.55777
5.50592
5.40326
5.21598
532.781
517.707
5.37156
5.82193
6.10748
6.28115
6.39836
6.48191
6.53669
6.56453
6.56941
6.5582
6.53616
6.50392
6.46231
6.41211
6.35398
6.28849
6.21627
6.13822
6.0571
5.97853
5.90914
5.84558
5.78619
5.73164
5.6846
5.64864
5.62614
5.61619
5.60698
5.58054
5.52507
5.41854
5.2263
532.865
517.715
5.37472
5.82284
6.10646
6.27913
6.39605
6.47964
6.53458
6.56272
6.56832
6.55854
6.53807
6.50755
6.4678
6.41959
6.36357
6.30035
6.23062
6.15542
6.07777
6.00362
5.93812
5.87772
5.82076
5.76782
5.72134
5.68465
5.6601
5.64707
5.63385
5.60343
5.54439
5.43398
5.23675
532.949
517.723
5.37739
5.82308
6.1047
6.27636
6.39301
6.47666
6.53176
6.56024
6.56661
6.55829
6.53941
6.51062
6.47275
6.42654
6.37264
6.31169
6.24445
6.17211
6.09795
6.02826
5.96655
5.90924
5.85468
5.80336
5.7575
5.72022
5.69377
5.67783
5.66074
5.62641
5.56381
5.44955
5.24734
533.031
517.73
5.37953
5.82263
6.10219
6.27284
6.38923
6.47298
6.5283
6.55717
6.56436
6.55756
6.54028
6.51322
6.4772
6.43298
6.38122
6.32255
6.25781
6.18834
6.11769
6.05244
5.99444
5.94015
5.88795
5.83825
5.79308
5.75534
5.72717
5.70849
5.68769
5.64957
5.58345
5.46533
5.2581
533.112
517.737
5.38109
5.82145
6.09891
6.26857
6.38473
6.46863
6.52424
6.55358
6.56168
6.55646
6.54079
6.51542
6.48123
6.43898
6.38933
6.33294
6.27072
6.20415
6.13706
6.0762
6.02183
5.97048
5.92059
5.87248
5.82805
5.78994
5.76021
5.73898
5.71462
5.67283
5.60325
5.48126
5.26902
533.191
517.743
5.38212
5.81959
6.09489
6.26353
6.3795
6.4636
6.51957
6.5495
6.55864
6.5551
6.54107
6.51739
6.48498
6.44464
6.39705
6.34293
6.28323
6.21961
6.15612
6.0996
6.04877
6.00029
5.95264
5.90611
5.86243
5.82406
5.79292
5.76932
5.74157
5.69623
5.62327
5.49745
5.28015
533.27
517.749
5.38266
5.81708
6.09014
6.25775
6.37352
6.45786
6.51428
6.54495
6.55528
6.55356
6.54124
6.51924
6.48858
6.4501
6.40455
6.35266
6.2955
6.23486
6.1751
6.12278
6.07537
6.02965
5.98417
5.93918
5.89625
5.85767
5.82525
5.79944
5.76847
5.71972
5.64344
5.51381
5.29144
533.349
517.755
5.38284
5.81403
6.08472
6.25121
6.36676
6.45135
6.5083
6.53986
6.55161
6.55185
6.54133
6.52106
6.49214
6.45549
6.41192
6.36224
6.30762
6.25005
6.19416
6.14585
6.10172
6.05864
6.01525
5.97174
5.92957
5.89083
5.85725
5.82939
5.79536
5.74333
5.66382
5.5304
5.30292
533.426
517.761
5.38273
5.8105
6.07867
6.24393
6.3592
6.44402
6.50156
6.53419
6.54767
6.54997
6.54135
6.52289
6.49576
6.46096
6.41934
6.37186
6.31979
6.26536
6.21348
6.16897
6.12794
6.08738
6.04598
6.00388
5.96243
5.92356
5.88888
5.85911
5.82217
5.76699
5.68433
5.54716
5.31453
533.503
517.767
5.38238
5.80651
6.07196
6.23588
6.35076
6.43576
6.49389
6.52774
6.54333
6.54769
6.54109
6.5246
6.49938
6.46648
6.42685
6.38156
6.33205
6.2808
6.23301
6.19212
6.15403
6.11588
6.07639
6.03567
5.99495
5.95599
5.9203
5.88874
5.84901
5.79079
5.70505
5.56414
5.32633
533.58
517.773
5.38182
5.8021
6.06465
6.22706
6.34147
6.42656
6.48524
6.52032
6.53814
6.54479
6.54045
6.52612
6.50298
6.4721
6.43453
6.39145
6.34453
6.29647
6.25276
6.21533
6.18005
6.1442
6.10652
6.06712
6.02708
5.98802
5.95141
5.91814
5.87577
5.81464
5.72589
5.58127
5.33824
533.656
517.779
5.38101
5.79721
6.05665
6.21744
6.33127
6.41638
6.47558
6.51197
6.53216
6.54125
6.53933
6.52736
6.50645
6.47773
6.44232
6.40153
6.35723
6.31241
6.27274
6.23863
6.20604
6.17237
6.13644
6.09829
6.05893
6.01987
5.9826
5.94754
5.90259
5.83864
5.74695
5.59862
5.35034
533.733
517.785
5.37999
5.79189
6.04804
6.20705
6.32018
6.40521
6.46487
6.50259
6.52526
6.53693
6.5376
6.52815
6.50966
6.48326
6.45015
6.41177
6.37018
6.32865
6.29295
6.26202
6.23198
6.20039
6.16613
6.1292
6.09052
6.05151
6.0137
5.97688
5.9294
5.8627
5.76811
5.6161
5.36253
533.809
517.791
5.37874
5.78611
6.03878
6.19588
6.3082
6.39306
6.45314
6.49223
6.5175
6.53187
6.53526
6.52848
6.51257
6.48866
6.45801
6.42218
6.38344
6.34535
6.31348
6.28559
6.25798
6.22836
6.19567
6.15991
6.12191
6.08301
6.04474
6.00623
5.95629
5.88691
5.78947
5.63378
5.37487
533.885
517.797
5.37733
5.77992
6.02892
6.18394
6.29531
6.37988
6.44032
6.48082
6.50878
6.52596
6.5322
6.52821
6.51502
6.49377
6.46575
6.43267
6.39697
6.36251
6.33435
6.30934
6.28402
6.25626
6.22507
6.19042
6.15308
6.1143
6.07564
6.03549
5.98315
5.91116
5.8109
5.65154
5.38726
533.962
517.803
5.37582
5.77336
6.01847
6.17126
6.28155
6.36571
6.42646
6.46842
6.49917
6.51927
6.52846
6.5274
6.51706
6.4986
6.47338
6.44323
6.4108
6.38022
6.3556
6.33332
6.31015
6.28414
6.25436
6.22078
6.18409
6.14546
6.10646
6.06475
6.0101
5.93557
5.83252
5.66947
5.39978
534.039
517.809
5.37411
5.7664
6.00742
6.15781
6.26685
6.35045
6.41145
6.45489
6.48853
6.51165
6.5239
6.52588
6.51853
6.50301
6.48076
6.45373
6.42479
6.39829
6.37711
6.35746
6.33635
6.31199
6.28354
6.25097
6.2149
6.17643
6.13712
6.09392
6.03704
5.96002
5.8542
5.68747
5.41235
534.116
517.815
5.37231
5.7591
5.99582
6.14364
6.25125
6.33414
6.39534
6.44033
6.47688
6.50306
6.51848
6.52363
6.51939
6.50694
6.48781
6.46407
6.43881
6.41654
6.39875
6.38166
6.36254
6.33977
6.3126
6.28101
6.24555
6.20727
6.16771
6.12311
6.06407
5.98463
5.87607
5.70564
5.42504
534.194
517.821
5.3703
5.75137
5.98363
6.1287
6.23471
6.3167
6.37805
6.42478
6.46406
6.4933
6.51198
6.52043
6.51946
6.51026
6.49441
6.47414
6.45275
6.4348
6.42035
6.4058
6.38865
6.36743
6.3415
6.31085
6.276
6.23792
6.19817
6.15221
6.09109
6.00927
5.898
5.72386
5.43776
534.272
517.827
5.36802
5.74318
5.97085
6.11307
6.2173
6.29819
6.35957
6.40816
6.44992
6.4822
6.50423
6.51613
6.51861
6.51283
6.50045
6.48384
6.46653
6.45291
6.44178
6.42974
6.41453
6.39486
6.37016
6.34044
6.30621
6.26838
6.2285
6.18129
6.11817
6.03405
5.92009
5.74224
5.45061
534.35
517.833
5.36536
5.73445
5.95746
6.09674
6.19905
6.27864
6.33984
6.39012
6.43434
6.46968
6.49513
6.51062
6.51671
6.51455
6.50585
6.49316
6.48016
6.47085
6.46299
6.45343
6.44015
6.42202
6.39854
6.36976
6.33616
6.29861
6.25866
6.21025
6.1452
6.05883
5.94222
5.76064
5.46347
534.429
517.839
5.36225
5.72517
5.94347
6.07977
6.18006
6.25825
6.3192
6.37111
6.41766
6.45596
6.48479
6.50387
6.51367
6.51528
6.51048
6.50194
6.49355
6.48847
6.48381
6.47671
6.46537
6.44877
6.42652
6.39869
6.36575
6.32852
6.28859
6.23909
6.17223
6.0837
5.96446
5.77918
5.47644
534.508
517.844
5.35878
5.71541
5.92894
6.06214
6.16028
6.23692
6.29758
6.35108
6.39993
6.44112
6.47328
6.49597
6.50953
6.51502
6.5143
6.51017
6.50664
6.50572
6.50422
6.49956
6.49014
6.47509
6.45409
6.42724
6.395
6.35815
6.31828
6.26773
6.19912
6.1085
5.98668
5.7977
5.48941
534.587
517.849
5.35509
5.70532
5.91392
6.04387
6.1397
6.21472
6.27511
6.33031
6.38147
6.42551
6.4609
6.48711
6.50438
6.51379
6.51724
6.51769
6.5192
6.52238
6.52403
6.52183
6.51436
6.50088
6.48116
6.45531
6.42376
6.38731
6.34764
6.29619
6.22596
6.13333
6.00897
5.8163
5.50246
534.667
517.855
5.35141
5.69503
5.89845
6.02489
6.11815
6.19137
6.25153
6.3086
6.36225
6.40922
6.44787
6.47755
6.49849
6.5118
6.51948
6.52461
6.53119
6.53839
6.54317
6.54343
6.53793
6.52606
6.50762
6.48279
6.45202
6.41619
6.37659
6.32427
6.25252
6.15796
6.03112
5.83482
5.51546
534.746
517.861
5.34792
5.68468
5.88259
6.0052
6.09553
6.16669
6.22663
6.28579
6.34216
6.39226
6.43425
6.46742
6.49201
6.50921
6.52115
6.53105
6.5426
6.55373
6.56159
6.56432
6.56084
6.55063
6.53356
6.50985
6.48
6.44501
6.40536
6.35216
6.27893
6.18253
6.05326
5.85332
5.52845
534.826
517.867
5.34467
5.67425
5.86633
5.98472
6.07169
6.14043
6.20006
6.26146
6.32085
6.3744
6.41998
6.45677
6.48509
6.50623
6.52248
6.53724
6.55356
6.56844
6.57929
6.58446
6.583
6.57448
6.55884
6.53632
6.50748
6.47342
6.43371
6.37963
6.30498
6.20679
6.07514
5.87162
5.54128
534.905
517.873
5.34157
5.6637
5.84965
5.96349
6.04663
6.11251
6.17159
6.23518
6.2978
6.35513
6.40462
6.44529
6.47752
6.50275
6.52347
6.54323
6.56408
6.58253
6.59627
6.60385
6.60444
6.59767
6.58352
6.56228
6.53456
6.5015
6.46177
6.40685
6.33083
6.23091
6.09692
5.88983
5.55402
534.985
517.88
5.33841
5.65287
5.83254
5.94154
6.02042
6.08301
6.14131
6.20673
6.27262
6.334
6.38773
6.4326
6.46899
6.49852
6.52391
6.5488
6.57396
6.59584
6.61239
6.62234
6.62498
6.61999
6.60739
6.5875
6.56095
6.52896
6.48925
6.43354
6.35621
6.25461
6.11832
5.90772
5.56649
535.063
517.887
5.33494
5.64164
5.815
5.91897
5.99317
6.05203
6.1094
6.17595
6.24492
6.31046
6.36873
6.41814
6.45903
6.49316
6.52346
6.55359
6.58298
6.60822
6.62756
6.6399
6.64462
6.64148
6.63051
6.61206
6.58678
6.55594
6.51632
6.45987
6.3813
6.27809
6.13955
5.92544
5.5788
535.143
517.893
5.33103
5.62997
5.79704
5.89588
5.96508
6.01969
6.0755
6.14281
6.21464
6.28437
6.34734
6.40155
6.44722
6.48623
6.52171
6.55714
6.59072
6.61932
6.64146
6.65622
6.66309
6.66186
6.6526
6.63566
6.61172
6.58209
6.54261
6.48551
6.40578
6.30102
6.1603
5.94275
5.59077
535.22
517.898
5.32669
5.61788
5.77869
5.8723
5.9363
5.98644
6.04037
6.10797
6.18226
6.25595
6.32361
6.38275
6.43344
6.47762
6.51857
6.55928
6.59702
6.62901
6.65403
6.67132
6.68043
6.68121
6.67376
6.65844
6.63594
6.60762
6.56837
6.51069
6.42988
6.32367
6.18081
5.95985
5.60258
535.299
517.904
5.32207
5.60548
5.75994
5.84813
5.90667
5.95213
6.004
6.07161
6.14806
6.22547
6.2977
6.36178
6.4176
6.46716
6.51385
6.55972
6.60157
6.63697
6.66493
6.68483
6.69629
6.6992
6.69366
6.68004
6.65907
6.63212
6.59317
6.53501
6.45324
6.34565
6.20074
5.97647
5.61401
535.375
517.909
5.3175
5.59295
5.7408
5.82326
5.87603
5.91672
5.96661
6.03423
6.11269
6.19356
6.27014
6.33904
6.39999
6.45503
6.50762
6.55849
6.60439
6.64323
6.67422
6.69685
6.7108
6.71597
6.7125
6.70074
6.68141
6.65592
6.61735
6.5588
6.47615
6.36727
6.22038
5.99284
5.62527
535.453
517.915
5.31319
5.58037
5.72121
5.79743
5.84391
5.87963
5.9277
5.99563
6.07622
6.16049
6.24124
6.31477
6.38075
6.44124
6.49967
6.55535
6.60523
6.64751
6.68159
6.70703
6.72358
6.73113
6.7298
6.71996
6.70233
6.67846
6.64042
6.58162
6.49821
6.38814
6.23936
6.00866
5.6361
535.528
517.922
5.30936
5.56792
5.70127
5.77061
5.8101
5.8405
5.88685
5.9556
6.03874
6.12653
6.21138
6.28941
6.36027
6.42614
6.49023
6.55051
6.60425
6.64996
6.68717
6.71554
6.7348
6.74488
6.74589
6.73823
6.72272
6.70024
6.66273
6.60375
6.51969
6.40854
6.25795
6.02416
5.64666
535.604
517.929
5.30603
5.55561
5.68099
5.7428
5.77441
5.79892
5.84354
5.9135
5.99964
6.09129
6.18037
6.26291
6.33862
6.40981
6.47922
6.54385
6.60133
6.65041
6.69078
6.72212
6.7442
6.75694
6.76044
6.75513
6.74191
6.72083
6.68386
6.62479
6.54019
6.42806
6.27575
6.03897
5.65665
535.677
517.937
5.30313
5.54345
5.66044
5.71405
5.73694
5.75477
5.79739
5.86876
5.9584
6.05436
6.14798
6.23519
6.31583
6.3924
6.46677
6.53549
6.59657
6.649
6.69255
6.72694
6.75195
6.76749
6.77365
6.77085
6.76005
6.74042
6.70408
6.645
6.55997
6.44697
6.29305
6.05336
5.66625
535.751
517.945
5.30053
5.53148
5.63979
5.68457
5.69781
5.7081
5.74815
5.82084
5.91424
6.01493
6.11347
6.20563
6.29139
6.37342
6.45248
6.52511
6.5897
6.64544
6.69219
6.72969
6.75772
6.77616
6.7851
6.78494
6.77665
6.75854
6.72292
6.66396
6.57862
6.46486
6.30943
6.06694
5.67517
535.822
517.953
5.29827
5.51986
5.61928
5.65469
5.65742
5.65942
5.69607
5.76972
5.8669
5.97257
6.07634
6.17372
6.2648
6.35241
6.43604
6.51253
6.58065
6.63975
6.68978
6.7305
6.76167
6.78316
6.79503
6.79764
6.79197
6.77551
6.74072
6.68198
6.59645
6.48204
6.32522
6.08001
5.68362
535.895
517.962
5.29646
5.50872
5.59905
5.62452
5.61586
5.60867
5.64137
5.71549
5.81627
5.92697
6.03614
6.13894
6.23551
6.32875
6.41693
6.49733
6.56904
6.63158
6.68497
6.729
6.76343
6.78808
6.80298
6.80848
6.80554
6.79082
6.75697
6.69859
6.613
6.49807
6.33996
6.09214
5.69126
535.963
517.971
5.2954
5.49835
5.57933
5.59427
5.57333
5.55611
5.58434
5.65851
5.76264
5.87826
5.99286
6.10117
6.20336
6.30224
6.395
6.47939
6.55482
6.62095
6.67786
6.72535
6.76317
6.79113
6.80922
6.81775
6.81765
6.8048
6.77203
6.71415
6.62864
6.51332
6.35405
6.10374
5.69842
536.034
517.981
5.29532
5.48893
5.56025
5.56401
5.52988
5.50189
5.52507
5.59906
5.70625
5.82665
5.94662
6.06046
6.1683
6.27269
6.37001
6.45848
6.53773
6.60757
6.66811
6.71919
6.76054
6.79192
6.81331
6.82497
6.82779
6.81691
6.78534
6.72808
6.64278
6.5272
6.36689
6.1142
5.7046
536.101
517.992
5.29637
5.4806
5.54202
5.5339
5.48554
5.44598
5.46322
5.53673
5.64698
5.77219
5.89754
6.01691
6.13043
6.24015
6.34201
6.43462
6.51784
6.59154
6.6559
6.71073
6.75575
6.79072
6.81555
6.83047
6.83634
6.82758
6.79735
6.74089
6.65596
6.54027
6.37906
6.1241
5.71026
536.171
518.005
5.29847
5.47343
5.52488
5.50438
5.44069
5.38837
5.39869
5.47141
5.58481
5.7148
5.84551
5.97041
6.08959
6.20442
6.31078
6.40759
6.49488
6.57258
6.64088
6.69959
6.74842
6.78708
6.81545
6.83372
6.84268
6.8361
6.80732
6.75177
6.66733
6.55165
6.38965
6.13257
5.71468
536.235
518.017
5.30142
5.46742
5.5091
5.47599
5.39606
5.32942
5.33135
5.40244
5.51877
5.65372
5.78996
5.92047
6.04535
6.16527
6.27621
6.37739
6.46892
6.55081
6.62324
6.68603
6.73884
6.78136
6.81344
6.8352
6.84739
6.84316
6.816
6.76153
6.67776
6.56226
6.39963
6.14052
5.7186
536.304
518.031
5.30496
5.46249
5.49489
5.44936
5.35275
5.27037
5.26209
5.3302
5.44883
5.58859
5.73038
5.86657
5.99716
6.12219
6.23787
6.34359
6.43958
6.52585
6.60258
6.66959
6.72651
6.77299
6.80884
6.83414
6.84957
6.84774
6.82228
6.76901
6.68601
6.5708
6.40765
6.14669
5.72101
536.367
518.044
5.30892
5.45856
5.48234
5.42486
5.31145
5.21212
5.19159
5.2549
5.3748
5.519
5.66631
5.80823
5.9446
6.07493
6.19561