/*--------------------------------*- C++ -*----------------------------------*\
| =========                 |                                                 |
| \\      /  F ield         | OpenFOAM: The Open Source CFD Toolbox           |
|  \\    /   O peration     | Version:  v2006                                 |
|   \\  /    A nd           | Website:  www.openfoam.com                      |
|    \\/     M anipulation  |                                                 |
\*---------------------------------------------------------------------------*/
FoamFile
{
    version     2.0;
    format      ascii;
    class       volScalarField;
    location    "97";
    object      T;
}
// * * * * * * * * * * * * * * * * * * * * * * * * * * * * * * * * * * * * * //

dimensions      [0 0 0 1 0 0 0];


internalField   nonuniform List<scalar> 
78750
(
300.055
300.152
300.228
300.291
300.344
300.39
300.431
300.467
300.498
300.526
300.55
300.571
300.59
300.605
300.618
300.628
300.636
300.642
300.645
300.646
300.645
300.642
300.637
300.631
300.624
300.617
300.61
300.604
300.603
300.615
300.666
300.829
301.236
302.018
303.133
300.067
300.195
300.311
300.417
300.51
300.592
300.664
300.727
300.783
300.831
300.874
300.91
300.941
300.967
300.987
301.003
301.014
301.02
301.021
301.018
301.01
300.998
300.981
300.959
300.934
300.907
300.878
300.851
300.832
300.836
300.899
301.097
301.543
302.314
303.387
300.076
300.219
300.35
300.469
300.575
300.668
300.748
300.817
300.877
300.93
300.976
301.017
301.054
301.086
301.114
301.137
301.156
301.171
301.181
301.187
301.187
301.181
301.17
301.152
301.128
301.098
301.066
301.034
301.014
301.024
301.109
301.345
301.813
302.572
303.631
300.086
300.252
300.403
300.539
300.657
300.758
300.843
300.916
300.978
301.032
301.08
301.122
301.159
301.192
301.22
301.243
301.262
301.277
301.288
301.294
301.296
301.294
301.286
301.273
301.253
301.227
301.197
301.169
301.155
301.178
301.287
301.553
302.031
302.779
303.839
300.099
300.288
300.46
300.613
300.743
300.849
300.936
301.008
301.071
301.125
301.174
301.216
301.254
301.286
301.314
301.336
301.354
301.366
301.374
301.378
301.378
301.374
301.366
301.353
301.336
301.314
301.29
301.27
301.268
301.313
301.451
301.747
302.232
302.971
304.033
300.109
300.317
300.507
300.671
300.806
300.914
301.001
301.074
301.137
301.194
301.244
301.289
301.328
301.362
301.389
301.41
301.425
301.435
301.44
301.44
301.437
301.43
301.42
301.407
301.391
301.373
301.355
301.346
301.361
301.429
301.597
301.918
302.411
303.148
304.212
300.117
300.342
300.545
300.719
300.86
300.97
301.059
301.134
301.2
301.259
301.312
301.359
301.4
301.434
301.461
301.48
301.493
301.499
301.499
301.494
301.486
301.475
301.462
301.447
301.431
301.416
301.406
301.408
301.441
301.534
301.732
302.075
302.577
303.319
304.385
300.125
300.363
300.578
300.76
300.904
301.016
301.107
301.184
301.252
301.314
301.37
301.419
301.462
301.497
301.524
301.543
301.553
301.555
301.551
301.542
301.529
301.513
301.496
301.479
301.463
301.451
301.447
301.462
301.513
301.63
301.853
302.215
302.73
303.483
304.551
300.131
300.38
300.604
300.792
300.941
301.056
301.149
301.229
301.3
301.365
301.424
301.476
301.521
301.557
301.585
301.603
301.611
301.611
301.604
301.59
301.572
301.551
301.53
301.51
301.493
301.483
301.486
301.511
301.578
301.716
301.962
302.342
302.87
303.635
304.707
300.136
300.396
300.628
300.824
300.976
301.094
301.189
301.271
301.345
301.412
301.473
301.528
301.575
301.613
301.641
301.659
301.666
301.665
301.654
301.637
301.615
301.591
301.566
301.543
301.525
301.516
301.523
301.558
301.639
301.796
302.062
302.457
302.999
303.777
304.851
300.141
300.41
300.65
300.851
301.007
301.128
301.226
301.31
301.387
301.457
301.52
301.577
301.626
301.665
301.694
301.712
301.72
301.717
301.705
301.685
301.66
301.631
301.603
301.578
301.558
301.551
301.561
301.604
301.697
301.87
302.152
302.562
303.116
303.907
304.983
300.146
300.423
300.671
300.878
301.038
301.161
301.261
301.348
301.427
301.499
301.565
301.624
301.674
301.715
301.745
301.763
301.771
301.767
301.753
301.732
301.704
301.673
301.642
301.614
301.594
301.587
301.601
301.65
301.753
301.94
302.237
302.659
303.226
304.027
305.105
300.15
300.436
300.69
300.902
301.066
301.191
301.294
301.384
301.465
301.539
301.608
301.669
301.721
301.763
301.794
301.813
301.82
301.815
301.801
301.777
301.748
301.715
301.681
301.652
301.631
301.625
301.642
301.696
301.808
302.006
302.317
302.749
303.327
304.137
305.217
300.155
300.448
300.71
300.927
301.093
301.221
301.326
301.418
301.501
301.578
301.649
301.711
301.765
301.809
301.84
301.86
301.867
301.862
301.847
301.822
301.791
301.756
301.721
301.691
301.67
301.664
301.684
301.743
301.863
302.071
302.393
302.835
303.421
304.24
305.322
300.159
300.46
300.728
300.95
301.12
301.25
301.357
301.451
301.537
301.616
301.688
301.753
301.808
301.853
301.885
301.905
301.913
301.908
301.892
301.866
301.834
301.798
301.762
301.73
301.709
301.704
301.727
301.791
301.918
302.135
302.466
302.916
303.51
304.336
305.419
300.163
300.472
300.746
300.972
301.145
301.278
301.387
301.483
301.571
301.652
301.726
301.792
301.849
301.895
301.929
301.95
301.957
301.953
301.936
301.91
301.876
301.839
301.802
301.77
301.749
301.745
301.77
301.839
301.973
302.198
302.538
302.993
303.594
304.427
305.511
300.167
300.483
300.763
300.994
301.17
301.305
301.416
301.514
301.604
301.687
301.763
301.831
301.889
301.936
301.971
301.992
302.001
301.996
301.98
301.953
301.919
301.881
301.843
301.81
301.789
301.787
301.814
301.887
302.027
302.26
302.607
303.068
303.674
304.513
305.597
300.171
300.494
300.78
301.015
301.194
301.331
301.444
301.544
301.636
301.721
301.798
301.868
301.928
301.976
302.012
302.034
302.043
302.039
302.023
301.996
301.961
301.922
301.884
301.851
301.83
301.829
301.859
301.936
302.082
302.321
302.675
303.14
303.751
304.595
305.68
300.174
300.505
300.797
301.036
301.217
301.356
301.471
301.573
301.667
301.753
301.833
301.904
301.965
302.015
302.052
302.075
302.085
302.081
302.065
302.039
302.004
301.965
301.926
301.893
301.872
301.872
301.904
301.985
302.136
302.382
302.741
303.211
303.825
304.673
305.76
300.178
300.516
300.814
301.057
301.24
301.381
301.498
301.602
301.697
301.786
301.867
301.94
302.002
302.053
302.091
302.115
302.126
302.123
302.108
302.081
302.046
302.007
301.968
301.934
301.914
301.915
301.95
302.035
302.191
302.442
302.807
303.279
303.896
304.749
305.836
300.182
300.526
300.83
301.077
301.262
301.405
301.524
301.629
301.727
301.817
301.9
301.974
302.038
302.09
302.129
302.154
302.166
302.164
302.15
302.124
302.089
302.049
302.01
301.977
301.957
301.959
301.996
302.084
302.245
302.502
302.871
303.346
303.966
304.822
305.91
300.186
300.537
300.845
301.096
301.284
301.429
301.549
301.657
301.756
301.848
301.933
302.008
302.073
302.126
302.166
302.193
302.206
302.205
302.191
302.166
302.132
302.092
302.053
302.019
302
302.003
302.042
302.134
302.299
302.561
302.935
303.411
304.034
304.893
305.982
300.189
300.547
300.861
301.116
301.306
301.452
301.574
301.684
301.785
301.878
301.964
302.042
302.108
302.162
302.203
302.231
302.245
302.245
302.232
302.208
302.175
302.135
302.096
302.063
302.043
302.048
302.089
302.184
302.354
302.62
302.997
303.476
304.1
304.962
306.052
300.193
300.557
300.876
301.134
301.327
301.475
301.599
301.71
301.813
301.908
301.996
302.074
302.142
302.197
302.239
302.268
302.283
302.284
302.273
302.25
302.217
302.179
302.14
302.107
302.088
302.093
302.136
302.234
302.408
302.678
303.059
303.539
304.165
305.029
306.12
300.196
300.567
300.892
301.153
301.348
301.498
301.623
301.736
301.841
301.938
302.027
302.107
302.176
302.232
302.275
302.305
302.321
302.324
302.313
302.292
302.26
302.222
302.184
302.151
302.132
302.139
302.183
302.284
302.461
302.736
303.119
303.601
304.228
305.095
306.186
300.2
300.577
300.907
301.172
301.369
301.52
301.648
301.763
301.869
301.967
302.058
302.139
302.209
302.266
302.31
302.341
302.358
302.362
302.354
302.333
302.303
302.266
302.228
302.195
302.177
302.185
302.231
302.334
302.515
302.794
303.18
303.662
304.29
305.159
306.251
300.203
300.587
300.922
301.19
301.389
301.542
301.672
301.788
301.896
301.997
302.089
302.171
302.242
302.3
302.345
302.377
302.395
302.401
302.393
302.374
302.345
302.31
302.272
302.24
302.223
302.231
302.279
302.385
302.569
302.851
303.239
303.722
304.351
305.222
306.315
300.207
300.596
300.937
301.209
301.41
301.565
301.696
301.814
301.924
302.026
302.119
302.203
302.275
302.334
302.38
302.413
302.432
302.438
302.432
302.415
302.388
302.353
302.317
302.286
302.269
302.278
302.327
302.435
302.622
302.907
303.298
303.782
304.411
305.284
306.378
300.21
300.606
300.951
301.227
301.43
301.587
301.72
301.84
301.951
302.055
302.15
302.234
302.307
302.367
302.414
302.448
302.468
302.476
302.471
302.455
302.43
302.397
302.362
302.331
302.315
302.325
302.375
302.485
302.675
302.964
303.356
303.84
304.471
305.345
306.439
300.213
300.616
300.966
301.245
301.45
301.609
301.743
301.865
301.978
302.084
302.18
302.266
302.34
302.401
302.448
302.483
302.504
302.513
302.51
302.495
302.471
302.44
302.406
302.377
302.361
302.372
302.424
302.536
302.729
303.02
303.414
303.899
304.529
305.405
306.5
300.217
300.625
300.981
301.263
301.47
301.63
301.767
301.891
302.006
302.112
302.21
302.297
302.372
302.434
302.482
302.518
302.54
302.55
302.548
302.535
302.513
302.483
302.451
302.423
302.408
302.42
302.473
302.587
302.782
303.076
303.472
303.956
304.588
305.464
306.56
300.22
300.635
300.995
301.281
301.49
301.652
301.791
301.916
302.033
302.141
302.241
302.329
302.405
302.467
302.516
302.552
302.575
302.586
302.586
302.574
302.554
302.526
302.495
302.469
302.455
302.468
302.522
302.638
302.835
303.132
303.529
304.014
304.645
305.523
306.62
300.224
300.644
301.01
301.299
301.51
301.674
301.814
301.942
302.06
302.17
302.271
302.36
302.437
302.5
302.55
302.587
302.611
302.622
302.623
302.613
302.595
302.569
302.54
302.514
302.502
302.516
302.572
302.69
302.889
303.188
303.586
304.071
304.703
305.582
306.68
300.227
300.654
301.025
301.317
301.53
301.696
301.838
301.968
302.088
302.2
302.302
302.392
302.47
302.534
302.584
302.621
302.646
302.658
302.66
302.652
302.635
302.611
302.584
302.56
302.55
302.565
302.622
302.741
302.943
303.244
303.644
304.129
304.761
305.641
306.739
300.23
300.664
301.039
301.335
301.55
301.718
301.862
301.993
302.116
302.229
302.332
302.424
302.502
302.567
302.618
302.656
302.681
302.694
302.697
302.691
302.675
302.653
302.628
302.606
302.597
302.614
302.673
302.794
302.998
303.301
303.702
304.187
304.818
305.7
306.799
300.234
300.673
301.054
301.353
301.571
301.74
301.886
302.019
302.143
302.258
302.363
302.456
302.535
302.6
302.652
302.69
302.716
302.73
302.734
302.729
302.715
302.695
302.672
302.652
302.645
302.663
302.724
302.847
303.053
303.358
303.76
304.245
304.877
305.759
306.859
300.237
300.683
301.069
301.371
301.591
301.762
301.91
302.045
302.171
302.288
302.394
302.488
302.568
302.634
302.685
302.724
302.751
302.766
302.771
302.767
302.754
302.736
302.715
302.698
302.693
302.713
302.776
302.901
303.11
303.416
303.819
304.304
304.935
305.819
306.92
300.241
300.693
301.084
301.389
301.611
301.784
301.934
302.071
302.199
302.317
302.425
302.52
302.6
302.667
302.719
302.758
302.785
302.801
302.807
302.804
302.794
302.777
302.759
302.743
302.741
302.763
302.828
302.956
303.167
303.475
303.879
304.363
304.995
305.879
306.981
300.244
300.703
301.099
301.407
301.631
301.806
301.958
302.097
302.227
302.347
302.456
302.552
302.633
302.7
302.753
302.793
302.82
302.837
302.843
302.842
302.833
302.818
302.802
302.789
302.788
302.814
302.881
303.011
303.225
303.535
303.94
304.423
305.055
305.939
307.042
300.248
300.712
301.113
301.424
301.651
301.828
301.982
302.123
302.255
302.377
302.487
302.584
302.666
302.734
302.787
302.827
302.855
302.872
302.879
302.879
302.871
302.859
302.845
302.834
302.836
302.864
302.934
303.067
303.283
303.596
304.001
304.484
305.115
306
307.103
300.251
300.722
301.128
301.442
301.671
301.849
302.005
302.149
302.283
302.407
302.518
302.616
302.699
302.767
302.821
302.861
302.889
302.907
302.915
302.916
302.91
302.899
302.887
302.879
302.884
302.915
302.988
303.124
303.342
303.657
304.063
304.545
305.175
306.061
307.164
300.254
300.732
301.143
301.46
301.691
301.871
302.029
302.175
302.311
302.437
302.55
302.649
302.732
302.801
302.855
302.895
302.924
302.942
302.951
302.953
302.948
302.939
302.93
302.924
302.932
302.966
303.042
303.181
303.402
303.719
304.125
304.606
305.236
306.122
307.224
300.258
300.741
301.157
301.478
301.71
301.893
302.054
302.201
302.339
302.467
302.581
302.681
302.766
302.835
302.889
302.929
302.958
302.977
302.987
302.99
302.986
302.979
302.972
302.969
302.98
303.016
303.096
303.238
303.462
303.781
304.187
304.668
305.297
306.182
307.285
300.261
300.751
301.172
301.496
301.73
301.915
302.078
302.228
302.368
302.497
302.613
302.714
302.799
302.868
302.923
302.964
302.993
303.012
303.023
303.026
303.024
303.019
303.014
303.013
303.027
303.067
303.15
303.295
303.522
303.843
304.249
304.729
305.357
306.243
307.345
300.265
300.761
301.187
301.514
301.75
301.937
302.102
302.254
302.397
302.528
302.645
302.747
302.832
302.902
302.957
302.998
303.027
303.047
303.058
303.063
303.062
303.059
303.055
303.058
303.074
303.118
303.204
303.353
303.583
303.905
304.311
304.79
305.417
306.302
307.404
300.268
300.771
301.202
301.532
301.77
301.959
302.126
302.281
302.425
302.558
302.677
302.78
302.866
302.936
302.99
303.032
303.062
303.082
303.094
303.099
303.1
303.098
303.097
303.102
303.121
303.168
303.258
303.41
303.643
303.967
304.373
304.851
305.477
306.361
307.462
300.272
300.78
301.216
301.549
301.79
301.981
302.15
302.307
302.454
302.589
302.709
302.813
302.9
302.97
303.024
303.066
303.096
303.116
303.129
303.135
303.137
303.137
303.138
303.145
303.168
303.218
303.311
303.467
303.703
304.029
304.435
304.911
305.536
306.42
307.52
300.275
300.79
301.231
301.567
301.81
302.003
302.175
302.334
302.483
302.62
302.742
302.846
302.933
303.004
303.058
303.1
303.13
303.151
303.164
303.172
303.175
303.176
303.179
303.189
303.215
303.268
303.365
303.523
303.762
304.09
304.495
304.97
305.594
306.477
307.577
300.278
300.8
301.246
301.585
301.83
302.025
302.199
302.361
302.512
302.651
302.774
302.879
302.967
303.037
303.092
303.134
303.165
303.186
303.199
303.208
303.212
303.215
303.22
303.232
303.261
303.317
303.417
303.58
303.821
304.15
304.555
305.029
305.652
306.533
307.633
300.282
300.809
301.26
301.603
301.85
302.047
302.224
302.388
302.542
302.682
302.806
302.913
303.001
303.071
303.126
303.168
303.199
303.22
303.235
303.243
303.249
303.253
303.26
303.275
303.307
303.366
303.47
303.635
303.879
304.21
304.615
305.087
305.708
306.589
307.687
300.285
300.819
301.275
301.62
301.87
302.07
302.248
302.415
302.571
302.714
302.839
302.946
303.034
303.105
303.16
303.202
303.233
303.255
303.27
303.279
303.286
303.292
303.301
303.318
303.352
303.415
303.522
303.691
303.937
304.269
304.673
305.144
305.764
306.644
307.741
300.289
300.829
301.29
301.638
301.89
302.092
302.273
302.443
302.601
302.745
302.872
302.98
303.068
303.139
303.194
303.236
303.267
303.289
303.304
303.315
303.323
303.33
303.341
303.36
303.397
303.463
303.574
303.745
303.994
304.327
304.731
305.2
305.818
306.697
307.794
300.292
300.839
301.305
301.656
301.91
302.114
302.298
302.47
302.631
302.777
302.905
303.013
303.102
303.173
303.228
303.27
303.301
303.324
303.339
303.351
303.359
303.368
303.381
303.403
303.442
303.511
303.625
303.8
304.051
304.384
304.787
305.255
305.872
306.75
307.846
300.295
300.848
301.319
301.674
301.93
302.137
302.323
302.498
302.661
302.809
302.938
303.047
303.136
303.207
303.262
303.304
303.335
303.358
303.374
303.386
303.396
303.406
303.42
303.444
303.487
303.559
303.675
303.853
304.107
304.441
304.843
305.309
305.925
306.802
307.897
300.299
300.858
301.334
301.692
301.95
302.159
302.348
302.526
302.691
302.841
302.971
303.081
303.17
303.241
303.296
303.338
303.369
303.392
303.409
303.421
303.432
303.444
303.46
303.486
303.531
303.606
303.726
303.906
304.162
304.497
304.898
305.362
305.976
306.852
307.947
300.302
300.868
301.349
301.71
301.971
302.182
302.374
302.554
302.722
302.873
303.004
303.115
303.204
303.275
303.33
303.372
303.403
303.426
303.443
303.457
303.468
303.481
303.499
303.527
303.575
303.653
303.775
303.958
304.216
304.552
304.952
305.414
306.027
306.902
307.996
300.306
300.878
301.364
301.728
301.992
302.206
302.4
302.583
302.753
302.906
303.038
303.149
303.238
303.309
303.364
303.406
303.437
303.46
303.478
303.492
303.505
303.519
303.538
303.568
303.618
303.699
303.824
304.01
304.269
304.606
305.004
305.465
306.077
306.95
308.043
300.309
300.888
301.379
301.747
302.013
302.229
302.427
302.613
302.785
302.939
303.073
303.183
303.273
303.343
303.398
303.44
303.471
303.495
303.513
303.527
303.541
303.556
303.577
303.609
303.661
303.745
303.873
304.061
304.322
304.659
305.056
305.516
306.126
306.998
308.09
300.313
300.898
301.395
301.766
302.034
302.253
302.454
302.642
302.817
302.973
303.107
303.218
303.308
303.378
303.432
303.474
303.505
303.529
303.547
303.562
303.577
303.593
303.616
303.65
303.704
303.79
303.92
304.111
304.374
304.711
305.107
305.565
306.173
307.045
308.137
300.316
300.908
301.41
301.785
302.056
302.277
302.481
302.672
302.85
303.007
303.142
303.253
303.342
303.412
303.467
303.508
303.539
303.563
303.582
303.597
303.613
303.63
303.654
303.69
303.747
303.835
303.968
304.16
304.425
304.762
305.157
305.613
306.22
307.091
308.182
300.32
300.918
301.426
301.804
302.077
302.302
302.508
302.703
302.882
303.041
303.177
303.288
303.377
303.447
303.501
303.542
303.573
303.597
303.616
303.632
303.648
303.667
303.692
303.73
303.789
303.879
304.015
304.209
304.475
304.812
305.206
305.661
306.266
307.136
308.226
300.324
300.929
301.442
301.823
302.099
302.327
302.536
302.734
302.916
303.076
303.212
303.324
303.412
303.482
303.535
303.576
303.607
303.631
303.651
303.668
303.684
303.704
303.731
303.77
303.831
303.924
304.061
304.258
304.525
304.862
305.255
305.707
306.311
307.18
308.27
300.327
300.939
301.458
301.843
302.122
302.352
302.565
302.765
302.949
303.111
303.248
303.359
303.448
303.517
303.57
303.61
303.641
303.665
303.685
303.703
303.72
303.741
303.769
303.81
303.873
303.967
304.107
304.306
304.574
304.911
305.302
305.753
306.356
307.224
308.313
300.331
300.95
301.474
301.862
302.144
302.378
302.594
302.798
302.984
303.147
303.284
303.395
303.483
303.551
303.604
303.644
303.675
303.7
303.72
303.738
303.756
303.778
303.807
303.85
303.915
304.011
304.153
304.353
304.622
304.959
305.349
305.798
306.4
307.267
308.356
300.335
300.961
301.491
301.883
302.167
302.404
302.624
302.83
303.019
303.183
303.32
303.431
303.518
303.586
303.639
303.679
303.71
303.734
303.754
303.773
303.792
303.815
303.845
303.89
303.956
304.055
304.198
304.4
304.67
305.007
305.395
305.843
306.443
307.309
308.398
300.339
300.972
301.507
301.903
302.191
302.431
302.654
302.864
303.055
303.22
303.357
303.467
303.554
303.622
303.673
303.713
303.744
303.768
303.789
303.808
303.828
303.852
303.884
303.929
303.997
304.098
304.244
304.447
304.718
305.054
305.441
305.886
306.485
307.351
308.44
300.343
300.983
301.525
301.924
302.215
302.459
302.686
302.899
303.091
303.257
303.395
303.504
303.59
303.657
303.708
303.747
303.778
303.803
303.824
303.843
303.864
303.888
303.922
303.969
304.039
304.141
304.289
304.493
304.765
305.1
305.486
305.93
306.527
307.392
308.481
300.347
300.995
301.542
301.946
302.24
302.487
302.718
302.935
303.129
303.296
303.433
303.542
303.627
303.693
303.743
303.782
303.812
303.837
303.858
303.878
303.9
303.925
303.96
304.009
304.08
304.184
304.333
304.54
304.812
305.146
305.53
305.973
306.569
307.433
308.522
300.351
301.006
301.56
301.968
302.265
302.516
302.751
302.971
303.168
303.335
303.472
303.58
303.664
303.729
303.779
303.817
303.847
303.872
303.893
303.913
303.935
303.962
303.998
304.048
304.121
304.227
304.378
304.586
304.858
305.192
305.574
306.015
306.61
307.474
308.563
300.355
301.018
301.579
301.99
302.291
302.546
302.786
303.009
303.208
303.376
303.512
303.619
303.702
303.766
303.814
303.852
303.882
303.906
303.928
303.949
303.972
303.999
304.036
304.088
304.163
304.271
304.423
304.632
304.904
305.238
305.618
306.057
306.652
307.515
308.604
300.359
301.031
301.598
302.013
302.318
302.577
302.821
303.048
303.248
303.417
303.552
303.658
303.74
303.803
303.85
303.887
303.917
303.941
303.963
303.984
304.008
304.036
304.074
304.128
304.204
304.314
304.468
304.678
304.951
305.283
305.662
306.099
306.693
307.556
308.644
300.364
301.043
301.617
302.037
302.345
302.609
302.857
303.087
303.29
303.458
303.593
303.698
303.779
303.84
303.887
303.923
303.952
303.976
303.998
304.02
304.044
304.073
304.113
304.168
304.246
304.357
304.512
304.724
304.997
305.329
305.705
306.141
306.734
307.596
308.685
300.368
301.056
301.637
302.061
302.373
302.642
302.894
303.128
303.332
303.501
303.635
303.738
303.817
303.877
303.923
303.959
303.987
304.011
304.033
304.055
304.08
304.111
304.151
304.208
304.287
304.4
304.557
304.77
305.043
305.374
305.749
306.183
306.775
307.637
308.726
300.373
301.07
301.657
302.086
302.402
302.675
302.933
303.17
303.376
303.544
303.677
303.779
303.857
303.915
303.96
303.995
304.023
304.047
304.069
304.091
304.117
304.148
304.19
304.248
304.329
304.444
304.602
304.816
305.089
305.419
305.792
306.225
306.816
307.678
308.768
300.378
301.083
301.678
302.111
302.431
302.709
302.972
303.213
303.42
303.589
303.72
303.82
303.896
303.953
303.997
304.031
304.058
304.082
304.104
304.127
304.153
304.186
304.229
304.288
304.371
304.487
304.648
304.862
305.136
305.464
305.836
306.267
306.857
307.719
308.809
300.382
301.097
301.699
302.137
302.462
302.745
303.013
303.257
303.465
303.633
303.764
303.862
303.936
303.992
304.034
304.067
304.094
304.118
304.14
304.163
304.19
304.223
304.268
304.328
304.413
304.531
304.693
304.908
305.182
305.51
305.879
306.309
306.899
307.76
308.851
300.387
301.111
301.72
302.163
302.492
302.781
303.054
303.302
303.511
303.679
303.808
303.904
303.977
304.031
304.072
304.104
304.13
304.153
304.176
304.199
304.227
304.261
304.307
304.369
304.455
304.575
304.739
304.955
305.229
305.555
305.923
306.352
306.94
307.802
308.892
300.392
301.126
301.742
302.19
302.524
302.818
303.096
303.347
303.558
303.725
303.852
303.947
304.017
304.07
304.109
304.141
304.166
304.19
304.212
304.236
304.264
304.299
304.346
304.41
304.498
304.62
304.785
305.002
305.276
305.601
305.967
306.394
306.982
307.844
308.934
300.398
301.141
301.765
302.217
302.556
302.855
303.138
303.393
303.604
303.77
303.896
303.99
304.058
304.109
304.147
304.178
304.203
304.226
304.248
304.272
304.301
304.337
304.385
304.45
304.54
304.664
304.83
305.049
305.322
305.646
306.01
306.437
307.024
307.885
308.976
300.403
301.155
301.787
302.245
302.588
302.893
303.182
303.439
303.651
303.817
303.941
304.032
304.099
304.148
304.186
304.215
304.24
304.262
304.285
304.309
304.338
304.375
304.425
304.492
304.583
304.708
304.877
305.096
305.37
305.692
306.055
306.479
307.066
307.928
309.019
300.408
301.17
301.81
302.273
302.621
302.933
303.226
303.486
303.699
303.863
303.986
304.075
304.14
304.188
304.224
304.252
304.277
304.299
304.321
304.346
304.376
304.414
304.464
304.533
304.626
304.753
304.923
305.143
305.416
305.738
306.098
306.522
307.108
307.969
309.061
300.413
301.186
301.833
302.302
302.656
302.973
303.272
303.534
303.747
303.91
304.031
304.118
304.181
304.227
304.262
304.29
304.314
304.336
304.358
304.383
304.414
304.453
304.504
304.574
304.669
304.798
304.969
305.19
305.464
305.784
306.143
306.565
307.151
308.012
309.104
300.419
301.201
301.858
302.332
302.691
303.015
303.32
303.584
303.797
303.958
304.077
304.162
304.223
304.267
304.301
304.328
304.351
304.372
304.395
304.42
304.451
304.491
304.544
304.616
304.712
304.843
305.015
305.237
305.511
305.829
306.187
306.608
307.193
308.054
309.146
300.424
301.218
301.883
302.363
302.729
303.059
303.369
303.636
303.848
304.008
304.124
304.206
304.265
304.308
304.34
304.366
304.388
304.41
304.432
304.458
304.489
304.53
304.584
304.657
304.756
304.888
305.062
305.285
305.558
305.876
306.231
306.651
307.236
308.097
309.189
300.43
301.235
301.909
302.395
302.767
303.105
303.42
303.689
303.901
304.058
304.171
304.251
304.308
304.348
304.379
304.404
304.426
304.447
304.469
304.495
304.528
304.569
304.625
304.699
304.799
304.933
305.109
305.332
305.605
305.921
306.275
306.694
307.278
308.139
309.231
300.436
301.252
301.935
302.428
302.807
303.152
303.472
303.744
303.955
304.11
304.22
304.297
304.351
304.39
304.419
304.443
304.464
304.485
304.507
304.533
304.566
304.609
304.665
304.741
304.843
304.979
305.156
305.38
305.653
305.967
306.32
306.737
307.321
308.182
309.274
300.443
301.27
301.963
302.462
302.847
303.2
303.525
303.799
304.009
304.162
304.269
304.343
304.395
304.431
304.459
304.482
304.502
304.523
304.545
304.571
304.605
304.648
304.706
304.784
304.887
305.025
305.203
305.428
305.7
306.013
306.364
306.78
307.364
308.224
309.316
300.449
301.289
301.991
302.496
302.888
303.248
303.579
303.854
304.063
304.214
304.318
304.39
304.439
304.474
304.5
304.521
304.541
304.561
304.583
304.61
304.644
304.688
304.747
304.826
304.932
305.071
305.25
305.476
305.747
306.059
306.408
306.824
307.407
308.267
309.359
300.456
301.307
302.018
302.531
302.93
303.297
303.633
303.909
304.117
304.266
304.368
304.436
304.483
304.516
304.541
304.561
304.58
304.599
304.622
304.649
304.683
304.728
304.789
304.869
304.976
305.116
305.297
305.523
305.794
306.105
306.452
306.867
307.45
308.31
309.401
300.462
301.326
302.047
302.566
302.972
303.347
303.687
303.965
304.172
304.318
304.417
304.483
304.527
304.559
304.582
304.601
304.619
304.638
304.66
304.688
304.723
304.769
304.83
304.912
305.021
305.163
305.345
305.571
305.842
306.151
306.497
306.91
307.493
308.353
309.444
300.469
301.344
302.076
302.603
303.016
303.399
303.743
304.021
304.227
304.371
304.467
304.53
304.572
304.601
304.623
304.642
304.659
304.677
304.699
304.727
304.762
304.809
304.872
304.955
305.065
305.209
305.392
305.619
305.888
306.196
306.54
306.953
307.535
308.394
309.486
300.475
301.364
302.106
302.641
303.062
303.452
303.801
304.08
304.284
304.424
304.517
304.578
304.617
304.645
304.665
304.682
304.699
304.717
304.739
304.766
304.802
304.85
304.914
304.998
305.11
305.255
305.439
305.667
305.936
306.242
306.584
306.996
307.578
308.437
309.528
300.482
301.384
302.137
302.681
303.111
303.509
303.862
304.141
304.342
304.479
304.568
304.626
304.663
304.688
304.707
304.723
304.739
304.757
304.778
304.806
304.842
304.891
304.955
305.041
305.155
305.301
305.486
305.713
305.982
306.286
306.628
307.039
307.62
308.478
309.569
300.49
301.405
302.17
302.722
303.161
303.568
303.925
304.204
304.402
304.535
304.621
304.675
304.709
304.733
304.75
304.765
304.78
304.797
304.818
304.846
304.883
304.932
304.998
305.085
305.2
305.347
305.534
305.761
306.029
306.332
306.671
307.082
307.663
308.52
309.611
300.497
301.428
302.204
302.766
303.214
303.629
303.991
304.269
304.465
304.594
304.675
304.725
304.756
304.777
304.793
304.807
304.821
304.837
304.858
304.886
304.923
304.973
305.04
305.128
305.244
305.393
305.58
305.808
306.074
306.376
306.714
307.123
307.704
308.561
309.651
300.506
301.451
302.24
302.811
303.269
303.693
304.059
304.336
304.529
304.653
304.73
304.776
304.804
304.823
304.837
304.849
304.862
304.878
304.899
304.927
304.964
305.015
305.083
305.172
305.29
305.44
305.627
305.855
306.121
306.421
306.758
307.166
307.746
308.603
309.692
300.514
301.475
302.276
302.857
303.325
303.758
304.128
304.405
304.594
304.713
304.786
304.828
304.853
304.869
304.881
304.892
304.904
304.92
304.94
304.968
305.006
305.057
305.125
305.216
305.334
305.485
305.674
305.901
306.166
306.464
306.8
307.207
307.787
308.643
309.732
300.523
301.499
302.313
302.904
303.382
303.825
304.198
304.474
304.66
304.775
304.842
304.881
304.903
304.916
304.926
304.936
304.947
304.962
304.982
305.009
305.047
305.099
305.169
305.261
305.38
305.532
305.721
305.948
306.212
306.509
306.843
307.25
307.83
308.685
309.773
300.531
301.525
302.352
302.953
303.442
303.893
304.27
304.545
304.727
304.837
304.9
304.934
304.953
304.964
304.972
304.98
304.99
305.004
305.024
305.051
305.089
305.142
305.212
305.304
305.425
305.578
305.767
305.993
306.256
306.552
306.885
307.291
307.87
308.725
309.812
300.54
301.551
302.391
303.004
303.503
303.964
304.344
304.618
304.795
304.9
304.958
304.988
305.004
305.012
305.018
305.025
305.034
305.047
305.066
305.094
305.132
305.185
305.256
305.349
305.471
305.624
305.814
306.04
306.302
306.596
306.928
307.333
307.912
308.766
309.853
300.55
301.577
302.432
303.056
303.567
304.038
304.421
304.693
304.866
304.965
305.018
305.043
305.055
305.061
305.065
305.07
305.078
305.09
305.109
305.136
305.175
305.228
305.299
305.394
305.516
305.67
305.859
306.085
306.346
306.639
306.969
307.373
307.952
308.806
309.892
300.56
301.605
302.474
303.111
303.634
304.114
304.5
304.77
304.938
305.032
305.079
305.1
305.108
305.111
305.113
305.117
305.123
305.135
305.153
305.18
305.218
305.272
305.344
305.439
305.562
305.717
305.907
306.132
306.392
306.683
307.012
307.416
307.994
308.848
309.933
300.57
301.635
302.518
303.167
303.702
304.192
304.582
304.85
305.012
305.1
305.141
305.157
305.162
305.162
305.162
305.163
305.169
305.179
305.197
305.223
305.262
305.315
305.388
305.484
305.607
305.762
305.952
306.177
306.435
306.725
307.052
307.456
308.034
308.887
309.972
300.581
301.665
302.563
303.224
303.771
304.271
304.664
304.93
305.088
305.169
305.205
305.216
305.216
305.213
305.211
305.211
305.215
305.225
305.242
305.268
305.306
305.36
305.434
305.53
305.654
305.81
306
306.224
306.481
306.769
307.096
307.498
308.077
308.929
310.014
300.591
301.695
302.608
303.282
303.841
304.35
304.747
305.011
305.164
305.24
305.269
305.275
305.272
305.266
305.261
305.259
305.262
305.27
305.286
305.312
305.351
305.405
305.478
305.575
305.7
305.856
306.045
306.269
306.524
306.811
307.136
307.538
308.117
308.968
310.053
300.603
301.727
302.654
303.341
303.912
304.43
304.831
305.094
305.242
305.312
305.335
305.337
305.329
305.32
305.312
305.309
305.31
305.317
305.333
305.358
305.397
305.451
305.525