/*--------------------------------*- C++ -*----------------------------------*\
| =========                 |                                                 |
| \\      /  F ield         | OpenFOAM: The Open Source CFD Toolbox           |
|  \\    /   O peration     | Version:  v2006                                 |
|   \\  /    A nd           | Website:  www.openfoam.com                      |
|    \\/     M anipulation  |                                                 |
\*---------------------------------------------------------------------------*/
FoamFile
{
    version     2.0;
    format      ascii;
    class       volVectorField;
    location    "97";
    object      U;
}
// * * * * * * * * * * * * * * * * * * * * * * * * * * * * * * * * * * * * * //

dimensions      [0 1 -1 0 0 0 0];


internalField   nonuniform List<vector> 
78750
(
(-0.00247379 -0.000249699 0.00278715)
(-0.00272676 -0.002941 0.00493107)
(-0.00235562 -0.00483463 0.00585738)
(-0.00112054 -0.00631206 0.00623397)
(0.000139696 -0.00746147 0.00637818)
(0.00171219 -0.00830412 0.00642403)
(0.00352595 -0.00886409 0.00642251)
(0.0054961 -0.009166 0.00639594)
(0.00754981 -0.00923929 0.00635393)
(0.00962568 -0.00911438 0.00630015)
(0.0116709 -0.00881917 0.00623555)
(0.01364 -0.00837787 0.00615989)
(0.0154937 -0.00781132 0.00607253)
(0.0171988 -0.00713774 0.00597278)
(0.0187273 -0.00637346 0.00586002)
(0.0200567 -0.00553387 0.00573362)
(0.0211674 -0.00462728 0.00559523)
(0.0220452 -0.00366656 0.00544596)
(0.0226784 -0.00266679 0.00528696)
(0.0230591 -0.00164337 0.00511962)
(0.023184 -0.000611629 0.00494562)
(0.0230583 0.000412054 0.00476682)
(0.0226815 0.00140882 0.00458475)
(0.0220428 0.00236335 0.00440177)
(0.0211573 0.00326078 0.00422089)
(0.020046 0.00408479 0.00404491)
(0.0187286 0.00481889 0.00387644)
(0.0172264 0.0054471 0.00371786)
(0.0155609 0.00594809 0.00356817)
(0.0137535 0.00632355 0.00342294)
(0.0118044 0.00667992 0.00326463)
(0.00963505 0.00738825 0.00304431)
(0.00703363 0.00895625 0.00266546)
(0.00394662 0.0106225 0.00199504)
(0.000975089 0.00791746 0.000914241)
(-0.000104467 -0.000240504 0.00213359)
(0.000152675 -0.0056321 0.00407565)
(0.000529836 -0.0107105 0.00498437)
(0.00118737 -0.01523 0.00532094)
(0.00209034 -0.0189287 0.00536243)
(0.00320043 -0.0217282 0.00527387)
(0.00447689 -0.023669 0.0051441)
(0.00587487 -0.0248414 0.00501511)
(0.00734512 -0.0253414 0.00490438)
(0.00884126 -0.0252565 0.0048174)
(0.0103236 -0.0246646 0.00475362)
(0.0117579 -0.0236347 0.00470947)
(0.0131141 -0.0222285 0.00467992)
(0.0143657 -0.0205028 0.00465906)
(0.0154893 -0.0185128 0.00463925)
(0.0164602 -0.0163174 0.00460987)
(0.0172705 -0.0139532 0.00457252)
(0.0179116 -0.0114423 0.00453513)
(0.0183659 -0.00882222 0.00449736)
(0.0186249 -0.0061324 0.00445768)
(0.0186824 -0.00341227 0.00441473)
(0.0185292 -0.00070164 0.00436766)
(0.0181755 0.00195804 0.00431677)
(0.0176332 0.00452519 0.00426173)
(0.0169033 0.00696125 0.00420306)
(0.0159898 0.00923106 0.00414208)
(0.0148985 0.0113062 0.00407981)
(0.0136512 0.0131719 0.00401449)
(0.0122519 0.0148779 0.00395338)
(0.0106803 0.0165901 0.00390166)
(0.00891101 0.0187138 0.00383451)
(0.00686357 0.0219751 0.00367057)
(0.00452998 0.0264815 0.0032478)
(0.00218184 0.0289626 0.00240268)
(0.000260405 0.0196904 0.00104086)
(3.02608e-05 -0.00242015 0.00158163)
(0.000583016 -0.00911497 0.00316595)
(0.00137875 -0.0154046 0.00394489)
(0.00243193 -0.0210542 0.00426637)
(0.0036487 -0.0257935 0.00433686)
(0.00494728 -0.0294711 0.00428052)
(0.00626861 -0.0320757 0.00417033)
(0.00757687 -0.0336894 0.00404737)
(0.00885099 -0.0344275 0.00393324)
(0.0100753 -0.0343993 0.00383847)
(0.0112353 -0.0336967 0.00376741)
(0.0123168 -0.0323974 0.0037208)
(0.0133066 -0.0305705 0.00369723)
(0.0141919 -0.0282808 0.00369428)
(0.0149603 -0.0255914 0.00370922)
(0.0155998 -0.0225648 0.00373917)
(0.0161007 -0.0192636 0.00378063)
(0.0164548 -0.015743 0.00383135)
(0.0166571 -0.0120532 0.00388982)
(0.0167042 -0.00824188 0.00395369)
(0.0165935 -0.00435686 0.00401981)
(0.016323 -0.000448405 0.00408363)
(0.0158912 0.0034283 0.00413899)
(0.0152971 0.0072091 0.00417843)
(0.0145428 0.0108277 0.0041955)
(0.0136333 0.014226 0.0041875)
(0.0125755 0.0173699 0.00415735)
(0.0113775 0.0202752 0.00411336)
(0.0100454 0.0230533 0.00406709)
(0.00857202 0.02598 0.00402225)
(0.00692248 0.0295762 0.00395246)
(0.00504966 0.0343451 0.00376227)
(0.00312326 0.0392863 0.00330059)
(0.00137589 0.0399589 0.00241661)
(0.000136736 0.0249624 0.00101943)
(2.36184e-05 -0.00589305 0.0014188)
(0.000631838 -0.0171692 0.00281626)
(0.00160493 -0.0265778 0.00340727)
(0.00285074 -0.034058 0.00357838)
(0.00421483 -0.0395492 0.00355697)
(0.00558367 -0.0432095 0.00346362)
(0.0068964 -0.0453486 0.00335551)
(0.00813131 -0.0462838 0.00325497)
(0.00928227 -0.0462588 0.00316792)
(0.0103456 -0.0454398 0.00309426)
(0.0113178 -0.0439394 0.00303236)
(0.0121943 -0.0418385 0.00298086)
(0.0129695 -0.0392024 0.00293943)
(0.0136366 -0.0360907 0.00290923)
(0.0141884 -0.0325627 0.00289308)
(0.0146189 -0.0286789 0.00289548)
(0.0149237 -0.0244993 0.00292232)
(0.0151006 -0.0200811 0.00298007)
(0.0151493 -0.0154768 0.00307453)
(0.0150708 -0.0107327 0.00321102)
(0.0148667 -0.00589049 0.00339168)
(0.0145383 -0.000992257 0.00361311)
(0.0140857 0.0039133 0.00386518)
(0.0135057 0.00876598 0.00412799)
(0.0127961 0.0134898 0.00437426)
(0.0119554 0.0180021 0.00457437)
(0.0109838 0.0222417 0.00470525)
(0.0098836 0.0262177 0.0047579)
(0.00865587 0.0300738 0.00473696)
(0.00729124 0.0341542 0.00464773)
(0.00576305 0.0389708 0.00446969)
(0.00405705 0.0446371 0.00413149)
(0.00243108 0.0492602 0.00355382)
(0.00103189 0.0480267 0.00260054)
(8.52402e-05 0.0284219 0.00110625)
(5.46963e-05 -0.00844886 0.000981456)
(0.000657306 -0.0230404 0.00183815)
(0.00157684 -0.0343976 0.00212016)
(0.00267858 -0.0426931 0.00215063)
(0.00381916 -0.0481883 0.00208756)
(0.0049161 -0.0514266 0.00199765)
(0.00594662 -0.0530088 0.0019059)
(0.00691668 -0.0533826 0.00181734)
(0.00783282 -0.0528179 0.00172964)
(0.00869524 -0.0514683 0.00163911)
(0.00949945 -0.0494244 0.00154282)
(0.0102368 -0.0467472 0.00143935)
(0.0108954 -0.0434911 0.00132927)
(0.011462 -0.0397173 0.00121579)
(0.0119246 -0.0354989 0.00110511)
(0.0122744 -0.0309179 0.0010067)
(0.0125067 -0.0260587 0.000933092)
(0.0126209 -0.021 0.000899403)
(0.0126201 -0.0158084 0.000922946)
(0.0125098 -0.0105343 0.00102174)
(0.0122958 -0.00521216 0.0012128)
(0.0119815 0.000136051 0.0015094)
(0.0115742 0.0054884 0.00191664)
(0.0110791 0.0108142 0.0024233)
(0.0104927 0.0160676 0.00299828)
(0.00980881 0.0211887 0.0035905)
(0.00902004 0.0261302 0.00413789)
(0.00811865 0.0309143 0.00458363)
(0.00709482 0.035708 0.00488718)
(0.00593305 0.0408587 0.0050171)
(0.00461462 0.0467292 0.00492967)
(0.00315854 0.052919 0.00456664)
(0.00184005 0.0569289 0.00391782)
(0.000745419 0.0539327 0.00286966)
(4.02355e-05 0.0306949 0.00118996)
(4.71089e-05 -0.0110272 0.000669179)
(0.000563336 -0.0289037 0.0012612)
(0.00133855 -0.0420587 0.0014997)
(0.00225328 -0.0510265 0.00158671)
(0.00318678 -0.0564802 0.00160012)
(0.00407953 -0.0593771 0.00157379)
(0.00492755 -0.0605604 0.00152543)
(0.00574262 -0.0605401 0.00146012)
(0.00652733 -0.0595719 0.00137719)
(0.00727695 -0.0577802 0.00127452)
(0.00798323 -0.0552283 0.00114989)
(0.00863446 -0.0519591 0.0010018)
(0.00921593 -0.0480241 0.000830119)
(0.00971156 -0.0434994 0.000636893)
(0.010108 -0.0384833 0.000427119)
(0.0103982 -0.033092 0.000209412)
(0.01058 -0.0274457 -3.61867e-06)
(0.0106553 -0.0216551 -0.000194976)
(0.0106299 -0.0158112 -0.000344145)
(0.0105119 -0.00997931 -0.000426999)
(0.0103106 -0.00419796 -0.00041664)
(0.0100342 0.00151702 -0.000285587)
(0.00968752 0.00716557 -9.30469e-06)
(0.00927405 0.0127491 0.000427079)
(0.00879349 0.0182637 0.0010196)
(0.00823971 0.0237001 0.0017371)
(0.00760099 0.0290643 0.0025198)
(0.00686131 0.0344276 0.00328896)
(0.00600184 0.0399871 0.00396012)
(0.00500332 0.0460556 0.00444377)
(0.00385521 0.052777 0.0046365)
(0.00260692 0.0592516 0.00444465)
(0.00150652 0.0626736 0.00386614)
(0.000602912 0.0582235 0.00282253)
(3.34505e-05 0.0322273 0.0011062)
(5.2777e-05 -0.0129961 0.000424239)
(0.000495317 -0.0332321 0.000824252)
(0.00114321 -0.0475674 0.0010285)
(0.00189713 -0.0569077 0.00113804)
(0.00266011 -0.0622805 0.00118288)
(0.00339033 -0.064946 0.00118379)
(0.00409229 -0.0658775 0.00115649)
(0.00477653 -0.0655935 0.00110677)
(0.00544164 -0.0643256 0.00103548)
(0.00608078 -0.0621714 0.000941659)
(0.00668458 -0.0591703 0.000823509)
(0.00724022 -0.0553525 0.000679023)
(0.00773227 -0.0507737 0.000506632)
(0.00814625 -0.0455293 0.000306099)
(0.00847204 -0.0397549 7.96411e-05)
(0.00870369 -0.0336085 -0.00016718)
(0.00883979 -0.0272504 -0.000424497)
(0.00888327 -0.0208256 -0.000677536)
(0.00884065 -0.0144499 -0.00090624)
(0.00872094 -0.00820186 -0.00108605)
(0.00853407 -0.00212131 -0.00118886)
(0.00829051 0.00378598 -0.00118457)
(0.00799907 0.00953916 -0.00104356)
(0.00766362 0.0151741 -0.000740962)
(0.00728292 0.0207346 -0.000263187)
(0.00684911 0.0262706 0.00038343)
(0.00634638 0.0318545 0.00116561)
(0.00575286 0.0376179 0.00202132)
(0.00504413 0.0437821 0.00286108)
(0.00419946 0.0505898 0.0035644)
(0.00321452 0.0579271 0.00397915)
(0.00216076 0.0644677 0.00396716)
(0.001241 0.0673272 0.00350519)
(0.000487248 0.0616044 0.00254184)
(2.4934e-05 0.033432 0.000940916)
(3.7702e-05 -0.0147009 0.000283108)
(0.000386546 -0.0370469 0.000627419)
(0.000910662 -0.0525148 0.000876176)
(0.0015346 -0.0623034 0.00104854)
(0.00217517 -0.0677197 0.00114371)
(0.0027963 -0.0702745 0.00118003)
(0.00340296 -0.0710491 0.0011773)
(0.00400217 -0.0705711 0.00114462)
(0.00458898 -0.0690538 0.00108484)
(0.00515505 -0.0665722 0.000998116)
(0.00569054 -0.0631463 0.00088317)
(0.00618324 -0.0587972 0.000737767)
(0.00661998 -0.0535869 0.000559218)
(0.00698926 -0.0476349 0.000345328)
(0.00728243 -0.0411081 9.53596e-05)
(0.00749401 -0.0341999 -0.000188662)
(0.00762194 -0.0271068 -0.000500223)
(0.00766769 -0.0200081 -0.000826709)
(0.00763618 -0.0130497 -0.00114848)
(0.00753537 -0.00633432 -0.00143887)
(0.0073757 8.20759e-05 -0.00166552)
(0.0071675 0.00618981 -0.00179312)
(0.00691983 0.0120227 -0.00178678)
(0.00663885 0.0176513 -0.00161616)
(0.00632416 0.0231736 -0.00126007)
(0.00596693 0.0287088 -0.000712215)
(0.0055509 0.0344047 1.21052e-05)
(0.00505309 0.0404567 0.00086845)
(0.00444679 0.0471053 0.00177504)
(0.00371117 0.0545089 0.00260113)
(0.00284466 0.0623099 0.00316755)
(0.0019275 0.0688548 0.00330428)
(0.00112171 0.0712678 0.00296929)
(0.000448964 0.0644811 0.0021334)
(3.06411e-05 0.0345225 0.000745408)
(3.71344e-05 -0.0160318 0.00022355)
(0.000343238 -0.0400609 0.000569602)
(0.0008055 -0.0564757 0.000851214)
(0.0013575 -0.0666874 0.00105076)
(0.00192423 -0.0722084 0.00116289)
(0.00247423 -0.0747348 0.00121015)
(0.00301299 -0.0754244 0.00121553)
(0.00354545 -0.0748116 0.00119053)
(0.00406549 -0.0730981 0.00114)
(0.00456511 -0.0703435 0.00106575)
(0.00503556 -0.0665547 0.000967734)
(0.00546628 -0.0617489 0.000844213)
(0.00584654 -0.0559975 0.00069199)
(0.00616748 -0.0494376 0.000507067)
(0.00642291 -0.0422584 0.000285481)
(0.00660875 -0.0346782 2.45885e-05)
(0.0067227 -0.0269204 -0.000275197)
(0.00676513 -0.0191928 -0.000608141)
(0.00673926 -0.0116687 -0.000961061)
(0.00665137 -0.00447598 -0.00131183)
(0.00651033 0.00230782 -0.00162946)
(0.00632662 0.00865936 -0.00187632)
(0.00611034 0.0146156 -0.00201216)
(0.00586821 0.0202719 -0.00199883)
(0.00560057 0.0257708 -0.00180482)
(0.00529907 0.0312936 -0.00141022)
(0.00494616 0.0370599 -0.000813163)
(0.00451832 0.0433261 -3.98742e-05)
(0.00399065 0.0503496 0.000839743)
(0.00334271 0.058212 0.00169548)
(0.00257245 0.0663509 0.00233695)
(0.00176038 0.0728725 0.00257612)
(0.00103721 0.0749214 0.00235968)
(0.000420571 0.0672069 0.00167728)
(3.07421e-05 0.0356433 0.000551597)
(2.80841e-05 -0.017255 0.000210507)
(0.000292252 -0.0429033 0.000583736)
(0.00070251 -0.0602701 0.000899258)
(0.00120102 -0.0709294 0.00112435)
(0.00171678 -0.0765789 0.00125361)
(0.00221977 -0.0790933 0.00131311)
(0.00271486 -0.0797068 0.00132829)
(0.00320508 -0.0789646 0.00131215)
(0.00368313 -0.0770607 0.00127051)
(0.00414086 -0.0740423 0.00120604)
(0.00457001 -0.0699073 0.00111936)
(0.00496122 -0.0646718 0.00100914)
(0.00530563 -0.0584159 0.000872188)
(0.00559611 -0.0512924 0.000703961)
(0.00582752 -0.0435076 0.000499477)
(0.00599704 -0.0352958 0.000254482)
(0.00610346 -0.0269016 -3.30733e-05)
(0.00614617 -0.0185559 -0.000361029)
(0.00612682 -0.0104583 -0.000720608)
(0.0060498 -0.00276368 -0.00109443)
(0.0059226 0.00442349 -0.00145566)
(0.00575483 0.0110624 -0.00176948)
(0.00555659 0.0171899 -0.00199677)
(0.00533532 0.0229209 -0.00209823)
(0.00509278 0.0284367 -0.00203794)
(0.00482258 0.033972 -0.00178698)
(0.00450895 0.0398081 -0.00132966)
(0.00412828 0.0462556 -0.000675381)
(0.00365615 0.0535848 0.000121824)
(0.00307389 0.0618104 0.000941311)
(0.00237747 0.0702055 0.00159547)
(0.00164332 0.0766985 0.0018927)
(0.000978675 0.078437 0.0017761)
(0.000400458 0.0698732 0.0012502)
(3.01754e-05 0.0367817 0.000386378)
(2.75998e-05 -0.0183309 0.000224822)
(0.000276059 -0.0454439 0.000639004)
(0.000661256 -0.0637002 0.000979242)
(0.00112672 -0.0748041 0.00121342)
(0.0016051 -0.0806114 0.00134461)
(0.00206963 -0.0831494 0.00140476)
(0.00252597 -0.0837183 0.00142139)
(0.00297653 -0.0828753 0.00140869)
(0.00341396 -0.0808104 0.00137356)
(0.0038307 -0.0775636 0.0013198)
(0.00421927 -0.0731282 0.00124901)
(0.00457158 -0.0675222 0.00116047)
(0.00488042 -0.0608345 0.00105085)
(0.00514045 -0.0532291 0.000914595)
(0.00534803 -0.0449246 0.000744711)
(0.00550057 -0.036168 0.000534093)
(0.00559687 -0.0272128 0.000277191)
(0.00563703 -0.0183039 -2.80021e-05)
(0.00562216 -0.00966082 -0.000377397)
(0.00555488 -0.00146275 -0.000758121)
(0.00544078 0.00615856 -0.00114671)
(0.00528786 0.0131401 -0.00151014)
(0.00510514 0.019511 -0.00180971)
(0.00489989 0.0253965 -0.00200556)
(0.00467468 0.0310055 -0.00205983)
(0.00442511 0.036615 -0.00193888)
(0.00413829 0.0425562 -0.00161811)
(0.0037934 0.0491847 -0.00109398)
(0.00336599 0.0567858 -0.000405637)
(0.00283738 0.0653199 0.000340819)
(0.00220304 0.0739295 0.000969058)
(0.00153382 0.0804027 0.00129343)
(0.000918848 0.0818654 0.00125787)
(0.000375883 0.0724975 0.00087848)
(2.73617e-05 0.0379147 0.000251763)
(2.34505e-05 -0.0193816 0.000249723)
(0.000255989 -0.0479383 0.000697022)
(0.000618979 -0.0670611 0.00104966)
(0.00105828 -0.0785796 0.00128544)
(0.00150855 -0.0845185 0.00141573)
(0.00194479 -0.0870615 0.00147599)
(0.00237278 -0.0875727 0.00149438)
(0.00279414 -0.08662 0.00148535)
(0.00320126 -0.0843897 0.00145625)
(0.00358684 -0.0809158 0.00141147)
(0.00394402 -0.0761889 0.00135327)
(0.00426573 -0.0702312 0.00128139)
(0.00454612 -0.0631408 0.00119272)
(0.00478125 -0.0550925 0.00108155)
(0.00496867 -0.0463143 0.000940393)
(0.00510679 -0.037062 0.00076116)
(0.00519442 -0.027598 0.000536653)
(0.00523082 -0.018176 0.000262432)
(0.00521698 -0.00902734 -6.10463e-05)
(0.00515578 -0.000352695 -0.000425809)
(0.00505086 0.00769223 -0.000813634)
(0.00490829 0.0150244 -0.00119573)
(0.00473591 0.0216647 -0.00153607)
(0.00454045 0.0277448 -0.00179599)
(0.00432489 0.0334948 -0.00193733)
(0.00408643 0.0392249 -0.00192405)
(0.00381495 0.0453055 -0.00172576)
(0.0034932 0.0521264 -0.00132892)
(0.00309978 0.0599809 -0.000758852)
(0.00261547 0.0687845 -0.000105368)
(0.00203365 0.0775689 0.000472191)
(0.00142113 0.0840076 0.000800465)
(0.000852286 0.0851945 0.000826704)
(0.000345956 0.0750337 0.000574767)
(2.35213e-05 0.0389987 0.000148179)
(2.29656e-05 -0.0203871 0.000277156)
(0.000247244 -0.0503295 0.000756536)
(0.000593896 -0.0702848 0.00111767)
(0.00100985 -0.0822064 0.00134988)
(0.00143265 -0.0882822 0.00147435)
(0.0018401 -0.0908419 0.00153085)
(0.0022387 -0.0913078 0.00154818)
(0.0026298 -0.0902585 0.00154107)
(0.00300603 -0.0878786 0.00151743)
(0.00336061 -0.0841993 0.0014824)
(0.00368733 -0.079212 0.00143902)
(0.00398014 -0.0729446 0.00138751)
(0.00423438 -0.0655041 0.00132468)
(0.00444725 -0.057074 0.00124403)
(0.00461722 -0.0478885 0.00113666)
(0.00474341 -0.0382071 0.000992501)
(0.00482515 -0.0282955 0.00080217)
(0.00486187 -0.0184127 0.000558919)
(0.00485332 -0.00879884 0.000260838)
(0.00480043 0.000332293 -8.66963e-05)
(0.00470676 0.00880307 -0.000468573)
(0.00457722 0.0165103 -0.000859206)
(0.00441761 0.0234638 -0.00122525)
(0.00423346 0.0297958 -0.00153008)
(0.00402766 0.0357501 -0.00173685)
(0.00379847 0.0416615 -0.00180958)
(0.00353807 0.0479302 -0.00171539)
(0.00323262 0.054972 -0.00143418)
(0.00286418 0.0630847 -0.00097947)
(0.00241453 0.072144 -0.000424345)
(0.00187664 0.0810857 9.13619e-05)
(0.0013139 0.0874841 0.000409575)
(0.00078785 0.0883964 0.000481635)
(0.000317211 0.0774588 0.000335773)
(2.04835e-05 0.0400203 7.07727e-05)
(2.07935e-05 -0.0213739 0.000302507)
(0.000235883 -0.0526606 0.000801235)
(0.000567385 -0.0734005 0.00115943)
(0.000963601 -0.0856792 0.00138107)
(0.00136381 -0.091859 0.00149634)
(0.00174769 -0.094416 0.00154745)
(0.00212208 -0.0948252 0.00156275)
(0.00248794 -0.0936728 0.00155669)
(0.00283805 -0.0911414 0.0015374)
(0.00316606 -0.08726 0.00151056)
(0.00346645 -0.0820223 0.00147987)
(0.00373412 -0.0754637 0.00144618)
(0.00396552 -0.067701 0.00140665)
(0.00415884 -0.0589258 0.00135474)
(0.00431339 -0.0493776 0.00128095)
(0.00442883 -0.0393177 0.00117399)
(0.00450478 -0.0290128 0.0010225)
(0.00454071 -0.0187234 0.000817151)
(0.00453617 -0.0086949 0.000553095)
(0.00449116 0.000848122 0.000232554)
(0.00440725 0.00971214 -0.000132562)
(0.00428818 0.0177774 -0.000519748)
(0.0041389 0.0250439 -0.000898306)
(0.00396387 0.0316437 -0.0012334)
(0.00376559 0.0378311 -0.00148931)
(0.0035429 0.0439595 -0.00163058)
(0.00328968 0.0504514 -0.00162348)
(0.00299499 0.057739 -0.00144383)
(0.00264461 0.0661164 -0.00109588)
(0.00222345 0.0754167 -0.000637315)
(0.00172446 0.0844898 -0.000188251)
(0.00120688 0.0908251 0.00011027)
(0.000721862 0.0914491 0.000214098)
(0.000287484 0.0797441 0.000153177)
(1.73288e-05 0.0409667 1.4732e-05)
(1.99372e-05 -0.0223445 0.000325415)
(0.000227737 -0.0549453 0.000840869)
(0.000544844 -0.0764453 0.00119522)
(0.000920964 -0.0890669 0.00140573)
(0.00129806 -0.0953479 0.0015112)
(0.00165817 -0.0979049 0.00155636)
(0.00200847 -0.0982623 0.00156923)
(0.00234965 -0.0970137 0.00156403)
(0.00267471 -0.0943414 0.00154918)
(0.00297779 -0.0902744 0.00153092)
(0.00325396 -0.0848114 0.00151359)
(0.00349905 -0.0779961 0.00149853)
(0.00371048 -0.069954 0.00148304)
(0.00388739 -0.0608833 0.00146032)
(0.00402979 -0.0510256 0.00142006)
(0.00413789 -0.040641 0.00134963)
(0.00421157 -0.0299932 0.00123582)
(0.00425018 -0.0193405 0.00106708)
(0.00425283 -0.00893001 0.000836121)
(0.00421868 0.00100593 0.000542728)
(0.00414795 0.0102593 0.000196327)
(0.00404225 0.0186946 -0.000183077)
(0.00390522 0.0263003 -0.000567007)
(0.00374082 0.0332045 -0.000922562)
(0.0035509 0.0396675 -0.0012155)
(0.00333452 0.0460566 -0.00141145)
(0.00308688 0.0528107 -0.00147685)
(0.00279951 0.0603726 -0.00138517)
(0.00246158 0.0690277 -0.00113347)
(0.00206142 0.0785655 -0.000765657)
(0.00159354 0.0877557 -0.000382956)
(0.0011142 0.0940155 -0.000109517)
(0.00066532 0.0943478 1.48088e-05)
(0.000263098 0.0818963 1.95708e-05)
(1.55136e-05 0.0418462 -2.33692e-05)
(1.87115e-05 -0.0232876 0.000343196)
(0.000219323 -0.0571445 0.00086342)
(0.000523521 -0.0793495 0.00120448)
(0.000882366 -0.09227 0.00139805)
(0.00123979 -0.0986251 0.00149066)
(0.00157963 -0.101168 0.00152811)
(0.00190925 -0.101467 0.00153719)
(0.002229 -0.100119 0.00153156)
(0.00253213 -0.0973069 0.00151975)
(0.00281321 -0.0930601 0.00150847)
(0.00306794 -0.0873832 0.00150269)
(0.00329293 -0.0803296 0.00150444)
(0.00348649 -0.072035 0.00151161)
(0.00364849 -0.0627038 0.0015177)
(0.00377963 -0.0525797 0.00151221)
(0.00388061 -0.0419202 0.00148153)
(0.00395161 -0.0309836 0.00141058)
(0.00399201 -0.0200231 0.00128504)
(0.00400054 -0.00928311 0.00109431)
(0.0039756 0.00100046 0.000834733)
(0.00391632 0.010609 0.000512773)
(0.0038232 0.0193934 0.000146237)
(0.00369815 0.0273315 -0.000237911)
(0.00354372 0.0345476 -0.00060764)
(0.00336161 0.0413053 -0.000929491)
(0.00315107 0.0479817 -0.00116996)
(0.00290819 0.0550266 -0.00129603)
(0.00262642 0.0628866 -0.00127991)
(0.00229783 0.0718309 -0.00111325)
(0.00191426 0.0816015 -0.000828302)
(0.00147322 0.0908896 -0.000509119)
(0.00102815 0.0970558 -0.000263939)
(0.000612292 0.0970893 -0.000128461)
(0.000240154 0.0839126 -7.48233e-05)
(1.36585e-05 0.0426607 -4.78514e-05)
(1.75983e-05 -0.02422 0.000358457)
(0.000211154 -0.059311 0.00088163)
(0.000502762 -0.0822011 0.00121002)
(0.000844755 -0.0954067 0.00138791)
(0.00118328 -0.101831 0.00146865)
(0.00150397 -0.104359 0.00149893)
(0.00181437 -0.104601 0.00150451)
(0.00211453 -0.103159 0.00149856)
(0.0023979 -0.100216 0.00148967)
(0.00265946 -0.0958026 0.00148496)
(0.00289542 -0.0899326 0.00148987)
(0.00310307 -0.0826686 0.00150695)
(0.00328146 -0.0741552 0.00153455)
(0.00343116 -0.0646023 0.00156647)
(0.0035535 -0.0542536 0.00159228)
(0.0036497 -0.0433622 0.00159801)
(0.00372029 -0.0321785 0.00156742)
(0.0037647 -0.0209471 0.00148415)
(0.00378132 -0.00990715 0.0013346)
(0.0037677 0.000705665 0.00111152)
(0.00372168 0.0106643 0.000817789)
(0.00364226 0.0198053 0.000468422)
(0.00352994 0.0280938 8.87031e-05)
(0.00338617 0.0356469 -0.000290126)
(0.00321203 0.0427289 -0.000634974)
(0.00300691 0.0497235 -0.000912749)
(0.00276774 0.057088 -0.00109079)
(0.00248962 0.0652683 -0.00114046)
(0.00216717 0.0745131 -0.00104918)
(0.00179543 0.0845146 -0.000839317)
(0.00137508 0.0938888 -0.000579759)
(0.000957871 0.0999513 -0.000364242)
(0.000569633 0.0996873 -0.000224946)
(0.000222459 0.0858122 -0.00013661)
(1.2776e-05 0.0434223 -6.10107e-05)
(1.67208e-05 -0.0251202 0.00036802)
(0.000204127 -0.061384 0.000883903)
(0.000485042 -0.0849073 0.00119219)
(0.000812624 -0.098361 0.00134992)
(0.00113484 -0.104833 0.00141637)
(0.00143894 -0.107339 0.00143801)
(0.0017326 -0.10752 0.00143891)
(0.00201561 -0.105983 0.00143148)
(0.00228162 -0.10291 0.00142431)
(0.00252596 -0.0983366 0.00142482)
(0.00274525 -0.0922838 0.00143898)
(0.00293734 -0.0848254 0.00146998)
(0.00310182 -0.0761161 0.00151683)
(0.00323985 -0.0663721 0.00157397)
(0.00335331 -0.0558374 0.00163133)
(0.00344397 -0.0447601 0.00167476)
(0.00351282 -0.0333812 0.00168705)
(0.00355956 -0.0219337 0.00164979)
(0.00358246 -0.0106465 0.00154625)
(0.00357857 0.000249682 0.0013652)
(0.00354459 0.0105244 0.00110537)
(0.00347811 0.0200026 0.000778502)
(0.00337815 0.0286365 0.000408046)
(0.003245 0.0365342 2.47291e-05)
(0.00307913 0.0439574 -0.000338213)
(0.00287987 0.0512927 -0.000647532)
(0.00264475 0.0590006 -0.000870516)
(0.00237019 0.0675211 -0.000977736)
(0.00205301 0.0770777 -0.000953134)
(0.00169105 0.087309 -0.000810812)
(0.00128812 0.0967583 -0.000606527)
(0.000895005 0.102708 -0.000421114)
(0.00053118 0.102148 -0.000283921)
(0.000206304 0.0876007 -0.000172788)
(1.17798e-05 0.044135 -6.57078e-05)
(1.56152e-05 -0.0260092 0.000375442)
(0.000196492 -0.0634263 0.000882897)
(0.000466778 -0.0875652 0.00117228)
(0.000780784 -0.101254 0.00131162)
(0.00108817 -0.107769 0.00136512)
(0.00137751 -0.110249 0.00137887)
(0.0016565 -0.11037 0.00137542)
(0.00192463 -0.108741 0.0013665)
(0.00217571 -0.105545 0.00136061)
(0.00240536 -0.100823 0.00136537)
(0.00261056 -0.0946025 0.00138708)
(0.00278958 -0.0869695 0.0014294)
(0.00294252 -0.0780882 0.00149196)
(0.00307101 -0.0681801 0.0015699)
(0.00317744 -0.0574895 0.00165386)
(0.00326411 -0.0462585 0.00173017)
(0.00333243 -0.0347177 0.00178152)
(0.00338238 -0.0230869 0.00178829)
(0.00341223 -0.0115821 0.00173118)
(0.00341853 -0.000425062 0.00159502)
(0.00339694 0.0101533 0.00137377)
(0.00334359 0.019968 0.00107487)
(0.003256 0.0289571 0.00071904)
(0.00313328 0.037217 0.000336083)
(0.00297524 0.0450035 -4.0467e-05)
(0.00278122 0.0527028 -0.0003767)
(0.00254947 0.0607755 -0.000639312)
(0.00227747 0.0696529 -0.000797846)
(0.00196366 0.0795294 -0.000833027)
(0.00160851 0.0899887 -0.000751805)
(0.00121874 0.0995043 -0.000598622)
(0.000844589 0.105337 -0.000443094)
(0.000500593 0.104486 -0.00031249)
(0.000193986 0.0892944 -0.00018825)
(1.14107e-05 0.0448075 -6.3552e-05)
(1.50139e-05 -0.0268657 0.000377393)
(0.000190724 -0.0653795 0.000868017)
(0.000452459 -0.0900897 0.00113288)
(0.00075514 -0.103984 0.00125061)
(0.00104983 -0.110526 0.00128947)
(0.00132636 -0.112975 0.0012943)
(0.00159249 -0.113034 0.00128566)
(0.00184749 -0.111314 0.00127444)
(0.00208534 -0.107998 0.00126896)
(0.00230193 -0.103131 0.00127703)
(0.00249443 -0.0967513 0.00130529)
(0.00266145 -0.0889563 0.00135792)
(0.00280343 -0.079921 0.0014352)
(0.00292241 -0.0698734 0.00153305)
(0.00302125 -0.0590588 0.00164284)
(0.00310275 -0.0477136 0.00175146)
(0.0031689 -0.0360568 0.00184168)
(0.00322014 -0.0242926 0.0018931)
(0.00325495 -0.0126202 0.00188431)
(0.00326968 -0.00124758 0.00179646)
(0.00325922 0.00960015 0.00161865)
(0.00321835 0.0197314 0.00135334)
(0.00314305 0.0290705 0.00101778)
(0.0030311 0.0377 0.000640312)
(0.00288149 0.045866 0.000254712)
(0.00269332 0.0539502 -0.000104111)
(0.00246522 0.0624089 -0.00040173)
(0.00219608 0.0716601 -0.00060621)
(0.00188598 0.0818664 -0.000695315)
(0.00153711 0.0925551 -0.000669658)
(0.00115875 0.102132 -0.000563838)
(0.000800711 0.107845 -0.000437765)
(0.000473533 0.10671 -0.000317376)
(0.000182734 0.0909004 -0.000187979)
(1.08686e-05 0.0454434 -5.65697e-05)
(1.40569e-05 -0.0277103 0.000377384)
(0.000184353 -0.0673018 0.000850274)
(0.000437898 -0.0925671 0.0010918)
(0.00073039 -0.106655 0.0011896)
(0.001014 -0.113217 0.00121503)
(0.00127954 -0.115631 0.00121155)
(0.00153478 -0.115627 0.00119789)
(0.00177876 -0.113817 0.00118413)
(0.00200563 -0.110385 0.00117838)
(0.00221139 -0.105381 0.00118846)
(0.00239341 -0.0988523 0.00122124)
(0.00255052 -0.0909074 0.00128131)
(0.00268346 -0.0817325 0.00136958)
(0.00279462 -0.0715624 0.00148282)
(0.00288725 -0.0606433 0.00161341)
(0.00296462 -0.0492066 0.00174925)
(0.00302917 -0.0374598 0.00187383)
(0.00308179 -0.0255911 0.00196673)
(0.00312121 -0.0137811 0.00200516)
(0.00314373 -0.00222051 0.00196709)
(0.00314357 0.00887556 0.00183663)
(0.00311435 0.0193127 0.00161054)
(0.00305059 0.0290021 0.00130145)
(0.00294872 0.0380107 0.000935298)
(0.0028069 0.0465721 0.000545639)
(0.00262398 0.0550596 0.000168513)
(0.00239892 0.0639216 -0.000160066)
(0.00213153 0.0735596 -0.000406201)
(0.00182373 0.0841013 -0.000544437)
(0.00147971 0.0950169 -0.000569696)
(0.00111059 0.104649 -0.000507961)
(0.000765716 0.110243 -0.000410744)
(0.000452268 0.108831 -0.000303379)
(0.000174267 0.0924296 -0.000175273)
(1.08176e-05 0.046048 -4.58466e-05)
(1.37724e-05 -0.0285269 0.000372723)
(0.00018031 -0.0691477 0.000821396)
(0.00042771 -0.0949318 0.00103558)
(0.000711995 -0.109189 0.00111137)
(0.000986319 -0.11576 0.00112246)
(0.00124252 -0.118133 0.00111016)
(0.00148841 -0.118066 0.00109102)
(0.00172281 -0.116167 0.0010742)
(0.00193994 -0.112622 0.00106757)
(0.00213597 -0.107485 0.00107901)
(0.00230831 -0.100812 0.0011156)
(0.00245598 -0.0927267 0.00118231)
(0.00257997 -0.0834258 0.00128065)
(0.00268296 -0.0731521 0.00140811)
(0.00276859 -0.0621535 0.00155798)
(0.0028406 -0.0506564 0.00171916)
(0.00290198 -0.038857 0.00187604)
(0.00295418 -0.0269259 0.00200859)
(0.00299639 -0.0150226 0.00209333)
(0.00302506 -0.00331648 0.00210583)
(0.00303396 0.00799323 0.00202565)
(0.0030157 0.018714 0.00184366)
(0.00296331 0.0287455 0.001567)
(0.0028718 0.038138 0.0012182)
(0.00273831 0.0471086 0.000829866)
(0.00256128 0.056018 0.000438986)
(0.00233996 0.0653021 8.34145e-05)
(0.00207488 0.0753424 -0.000200582)
(0.00176923 0.086229 -0.000384094)
(0.00142914 0.097374 -0.000456506)
(0.00106812 0.107059 -0.000436123)
(0.0007348 0.112535 -0.000367239)
(0.000433249 0.110857 -0.000275167)
(0.000166508 0.093888 -0.000153548)
(1.06696e-05 0.0466241 -3.27755e-05)
(1.3117e-05 -0.0293323 0.000366361)
(0.000175614 -0.0709631 0.000789882)
(0.000417154 -0.0972492 0.00097755)
(0.000694302 -0.111663 0.00103268)
(0.000960949 -0.118234 0.00103048)
(0.00120978 -0.120564 0.0010099)
(0.00144849 -0.12043 0.000985319)
(0.00167543 -0.118443 0.000964997)
(0.00188481 -0.114786 0.000956614)
(0.00207294 -0.109518 0.000968024)
(0.00223739 -0.102706 0.00100644)
(0.00237735 -0.0944861 0.00107714)
(0.00249397 -0.0850665 0.00118215)
(0.00259015 -0.0746982 0.00131975)
(0.00266979 -0.0636315 0.0014843)
(0.00273697 -0.0520892 0.00166598)
(0.00279517 -0.040257 0.00185048)
(0.00284638 -0.0282888 0.0020187)
(0.0028903 -0.0163219 0.00214717)
(0.0029237 -0.00450161 0.00220975)
(0.00294014 0.00699339 0.00218195)
(0.00293147 0.0179775 0.00204862)
(0.00288937 0.0283417 0.0018106)
(0.00280747 0.0381193 0.00148582)
(0.00268181 0.0475089 0.00110499)
(0.00251037 0.0568543 0.000705559)
(0.00229255 0.0665751 0.000327292)
(0.00202964 0.0770286 9.16282e-06)
(0.00172589 0.0882653 -0.000216184)
(0.00138875 0.099639 -0.000332664)
(0.00103368 0.109375 -0.000351398)
(0.000709489 0.114735 -0.000310303)
(0.000417846 0.112797 -0.00023537)
(0.000160419 0.0952825 -0.0001246)
(1.07158e-05 0.0471737 -1.785e-05)
(1.30366e-05 -0.0301153 0.000356291)
(0.000172886 -0.0727161 0.000749919)
(0.00041021 -0.0994743 0.000908416)
(0.000681686 -0.114027 0.00094168)
(0.000942007 -0.12059 0.000925765)
(0.00118473 -0.122874 0.0008967)
(0.00141748 -0.122672 0.000866496)
(0.00163807 -0.120594 0.000842477)
(0.00184066 -0.116827 0.000832058)
(0.00202167 -0.111429 0.000843122)
(0.00217887 -0.104483 0.000882966)
(0.00231157 -0.0961345 0.000957056)
(0.00242102 -0.0866061 0.0010678)
(0.00251028 -0.0761565 0.00121411)
(0.00258349 -0.0650393 0.00139125)
(0.00264507 -0.0534742 0.00159061)
(0.00269898 -0.041637 0.00179928)
(0.00274779 -0.0296647 0.00199952)
(0.00279184 -0.0176715 0.00216854)
(0.00282838 -0.00577583 0.00227943)
(0.00285105 0.00586923 0.00230456)
(0.00285109 0.0170904 0.00222306)
(0.00281897 0.0277731 0.00202905)
(0.00274687 0.0379343 0.00173478)
(0.00262958 0.0477516 0.00136794)
(0.00246443 0.0575479 0.000965684)
(0.00225084 0.0677213 0.000569469)
(0.00199075 0.0786016 0.000221127)
(0.00168938 0.0901971 -4.27431e-05)