/*--------------------------------*- C++ -*----------------------------------*\
| =========                 |                                                 |
| \\      /  F ield         | OpenFOAM: The Open Source CFD Toolbox           |
|  \\    /   O peration     | Version:  v2006                                 |
|   \\  /    A nd           | Website:  www.openfoam.com                      |
|    \\/     M anipulation  |                                                 |
\*---------------------------------------------------------------------------*/
FoamFile
{
    version     2.0;
    format      ascii;
    class       volScalarField;
    location    "94";
    object      T;
}
// * * * * * * * * * * * * * * * * * * * * * * * * * * * * * * * * * * * * * //

dimensions      [0 0 0 1 0 0 0];


internalField   nonuniform List<scalar> 
78750
(
258.145
256.256
254.019
250.826
247.312
242.581
237.208
231.569
224.098
217.824
210.019
201.689
195.99
183.692
178.623
169.909
133.197
119.377
142.335
168.023
184.17
194.964
202.476
207.386
210.536
212.551
213.813
214.562
214.96
215.163
215.485
216.639
220.153
228.964
257.704
258.238
243.646
237.993
234.409
231.081
227.738
224.179
220.222
215.991
211.708
207.553
203.759
200.553
198.087
196.539
196.011
196.526
197.759
200.796
205.698
211.428
217.341
223.078
228.482
233.507
238.153
242.446
246.403
249.993
253.17
255.979
258.573
261.247
264.51
272.995
244.483
239.343
236.765
234.453
232.299
230.272
228.379
226.637
225.074
223.723
222.627
221.832
221.386
221.336
221.722
222.575
223.885
225.651
227.896
230.584
233.621
236.88
240.229
243.545
246.716
249.648
252.282
254.598
256.634
258.5
260.382
262.568
265.452
269.54
280.161
275.793
270.297
267.043
264.145
261.593
259.296
257.279
255.591
254.25
253.255
252.591
252.242
252.196
252.439
252.962
253.747
254.774
256.015
257.434
258.985
260.606
262.223
263.758
265.137
266.3
267.206
267.845
268.243
268.47
268.651
268.985
269.78
271.482
274.683
284.472
274.705
271.596
269.95
268.574
267.513
266.756
266.297
266.113
266.173
266.437
266.866
267.429
268.104
268.873
269.714
270.601
271.502
272.376
273.181
273.871
274.404
274.749
274.884
274.803
274.511
274.03
273.394
272.659
271.907
271.259
270.9
271.118
272.349
275.198
284.596
296.019
292.011
290.375
289.592
289.372
289.517
289.89
290.389
290.926
291.426
291.834
292.123
292.3
292.379
292.365
292.257
292.047
291.732
291.304
290.76
290.098
289.319
288.426
287.422
286.309
285.087
283.76
282.341
280.864
279.414
278.16
277.398
277.57
279.298
286.803
276.17
275.611
276.36
277.818
279.418
280.93
282.433
283.867
285.183
286.35
287.356
288.202
288.896
289.454
289.897
290.244
290.512
290.712
290.837
290.868
290.774
290.53
290.11
289.485
288.625
287.502
286.1
284.431
282.561
280.659
279.037
278.14
278.561
281.274
291.95
290.148
290.707
291.926
293.72
295.876
298.115
300.097
301.635
302.688
303.321
303.644
303.756
303.717
303.559
303.302
302.968
302.579
302.142
301.657
301.128
300.53
299.803
298.886
297.713
296.208
294.299
291.937
289.124
285.964
282.681
279.609
277.509
277.079
278.729
285.915
281.767
280.958
282.288
284.25
286.314
288.275
290.01
291.472
292.653
293.633
294.567
295.582
296.654
297.619
298.297
298.629
298.653
298.425
297.993
297.39
296.639
295.764
294.787
293.711
292.543
291.329
290.147
289.096
288.307
287.973
288.119
289.162
290.804
293.058
300.9
287.412
288.843
291.681
294.84
297.921
300.742
302.823
304.062
304.399
304.145
303.633
303.208
303.034
303.077
303.246
303.472
303.7
303.878
303.973
303.962
303.835
303.588
303.214
302.706
302.053
301.243
300.257
299.085
297.757
296.324
294.835
293.314
293.09
296.71
310.879
286.277
287.525
289.924
293.116
295.497
297.116
298.642
300
301.016
301.736
302.122
302.228
302.158
301.986
301.74
301.412
300.98
300.422
299.723
298.888
297.923
296.783
295.449
293.962
292.381
290.77
289.194
287.74
286.512
285.646
285.343
285.907
287.773
291.645
303.251
284.738
285.147
286.703
289.271
292.226
294.685
296.643
298.418
300.135
301.729
303.134
304.282
305.096
305.509
305.513
305.186
304.601
303.812
302.857
301.783
300.641
299.479
298.336
297.245
296.24
295.354
294.626
294.09
293.718
293.475
293.308
293.101
293.097
294.339
301.297
286.704
286.82
287.713
289.233
291.23
293.3
295.155
296.735
298.069
299.185
300.102
300.838
301.415
301.858
302.182
302.37
302.387
302.188
301.745
301.076
300.244
299.321
298.363
297.42
296.529
295.714
294.994
294.395
293.967
293.798
294.011
294.76
296.274
298.958
307.125
290.88
290.674
291.138
292.009
293.153
294.351
295.428
296.342
297.12
297.783
298.347
298.82
299.21
299.516
299.739
299.874
299.918
299.858
299.68
299.367
298.908
298.302
297.552
296.674
295.698
294.672
293.659
292.746
292.059
291.761
292.097
293.314
295.633
299.586
310.778
285.863
286.833
287.967
289.382
291.007
292.605
293.997
295.119
295.98
296.631
297.125
297.491
297.747
297.908
297.989
298.004
297.968
297.892
297.792
297.666
297.489
297.226
296.857
296.38
295.809
295.172
294.502
293.842
293.256
292.849
292.826
293.482
295.14
298.184
307.163
279.857
275.735
275.47
275.979
276.874
278.016
279.292
280.629
281.979
283.319
284.644
285.957
287.258
288.541
289.796
291.005
292.144
293.189
294.115
294.897
295.511
295.932
296.139
296.126
295.917
295.576
295.205
294.935
294.924
295.348
296.402
298.297
301.242
305.698
316.799
287.64
280.97
278.187
276.458
275.324
274.711
274.504
274.596
274.929
275.458
276.155
277.004
278.003
279.159
280.481
281.972
283.625
285.413
287.29
289.192
291.046
292.78
294.337
295.667
296.745
297.594
298.297
298.975
299.781
300.892
302.506
304.835
308.097
312.554
323.021
292.846
294.206
294.045
293.539
292.795
291.905
290.982
290.119
289.379
288.795
288.375
288.111
287.991
288
288.126
288.365
288.719
289.196
289.802
290.54
291.402
292.373
293.427
294.535
295.676
296.844
298.048
299.328
300.758
302.442
304.503
307.084
310.335
314.398
323.527
283.577
285.568
290.712
294.265
296.656
298.054
298.55
298.4
297.914
297.351
296.877
296.577
296.487
296.625
296.976
297.497
298.126
298.792
299.431
299.991
300.443
300.788
301.047
301.265
301.499
301.814
302.275
302.947
303.897
305.199
306.933
309.19
312.075
315.888
325.01
290.174
274.804
270.49
270.981
272.304
273.743
275.164
276.535
277.87
279.192
280.495
281.753
282.948
284.083
285.187
286.31
287.515
288.863
290.4
292.159
294.144
296.313
298.591
300.884
303.103
305.191
307.142
308.994
310.815
312.719
314.866
317.44
320.674
325.376
337.18
309.136
294.289
279.898
271.278
267.229
265.562
265.033
265.166
265.867
267.085
268.763
270.825
273.177
275.71
278.303
280.826
283.151
285.161
286.771
287.958
288.782
289.387
289.97
290.722
291.809
293.317
295.224
297.491
300.082
302.923
305.972
309.223
312.717
317.422
329.704
328.35
331.418
323.485
314.039
307.462
303.164
300.285
298.404
297.237
296.635
296.525
296.853
297.551
298.545
299.772
301.187
302.749
304.389
305.972
307.295
308.114
308.203
307.503
306.159
304.321
302.211
300.123
298.361
297.155
296.623
296.832
297.867
299.796
302.975
312.452
299.339
320.274
330.158
334.973
337.291
337.834
337.232
336.134
334.925
333.643
332.2
330.535
328.653
326.604
324.467
322.332
320.289
318.425
316.826
315.566
314.708
314.299
314.373
314.956
315.977
317.153
318.035
318.343
318.226
318.067
318.189
318.857
320.307
323.399
334.268
265.399
261.01
262.62
265.049
267.377
269.34
270.893
272.092
273.016
273.782
274.521
275.351
276.376
277.674
279.282
281.169
283.253
285.435
287.618
289.692
291.517
292.923
293.758
294.031
294.042
294.402
295.765
298.498
302.501
307.06
311.434
315.7
320.446
326.945
341.735
288.678
270.773
262.823
258.035
254.526
251.638
249.033
246.491
243.888
241.213
238.598
236.24
234.325
232.984
232.304
232.357
233.214
234.945
237.593
241.153
245.562
250.729
256.555
262.944
269.773
276.807
283.485
288.66
289.679
286.849
285.859
288.201
292.594
301.194
326.136
314.376
316.104
315.408
314.647
313.704
312.54
311.187
309.76
307.886
305.688
302.615
298.807
294.553
290.209
286.126
282.603
279.871
278.094
277.367
277.706
279.054
281.314
284.4
288.253
292.915
298.235
304.294
310.994
315.184
315.18
310.535
305.421
308.075
323.586
353.719
310.684
320.847
327.903
332.852
336.513
339.332
341.52
343.44
344.934
346.369
346.921
346.665
345.659
344.081
342.182
340.224
338.426
336.935
335.841
335.19
334.99
335.185
335.779
336.778
337.714
338.929
338.915
340.146
343.656
344.777
357.225
346.278
327.759
363.114
391.084
312.85
328.034
336.761
342.03
345.671
348.424
350.575
352.389
354.334
356.248
357.563
358.205
358.313
358.134
357.813
357.458
357.032
356.732
356.407
356.088
355.926
356.036
355.761
355.564
356.375
361.108
366.89
369.933
364.86
349.895
350.603
362.878
386.015
410.605
392.462
318.362
333.393
339.531
343.082
345.971
348.63
351.039
353.223
355.5
357.768
359.28
359.901
360.033
359.979
359.854
359.704
359.549
359.453
359.279
358.803
357.949
357.86
351.355
334.312
315.482
306.961
314.798
336.624
361.358
379.346
389.317
388.627
381.062
368.174
345.691
316.841
330.793
337.085
341.071
344.552
347.991
351.254
353.913
356.038
358.07
359.821
360.726
360.853
360.735
360.563
360.336
360.06
359.424
357.156
348.707
325.747
291.937
264.051
252.573
255.839
269.696
289.02
307.62
321.031
328.19
329.836
327.158
322.613
319.225
327.441
315.442
331.611
339.086
343.457
347.093
350.755
354.28
356.889
358.326
359.193
360.149
361.161
361.635
361.564
361.319
361.034
360.689
359.972
357.656
350.566
333.951
307.215
279.178
259.753
250.699
249.463
252.874
257.926
262.62
266.277
269.159
272.276
277.959
292.732
339.714
316.533
333.88
341.522
346.126
350.357
354.719
358.379
360.768
361.841
361.984
361.759
361.61
361.833
362.044
361.977
361.793
361.58
361.325
360.883
359.726
356.486
348.922
336.018
320.481
306.198
295.084
287.433
282.866
280.842
280.91
282.904
287.118
294.907
312.025
361.72
319.944
336.833
343.6
348.27
353.618
359.133
362.789
364.49
365.028
364.895
364.359
363.565
362.769
362.461
362.378
362.27
362.151
362.028
361.882
361.663
361.229
360.257
358.239
354.794
350.043
344.526
338.902
333.847
330.104
328.33
328.654
330.919
335.608
346.332
379.793
322.99
339.029
345.513
350.765
357.514
363.219
365.779
366.387
366.27
365.857
365.227
364.406
363.54
362.978
362.762
362.658
362.583
362.515
362.443
362.358
362.241
362.055
361.737
361.203
360.388
359.272
357.874
356.274
354.664
353.435
353.128
354.244
357.289
364.881
388.979
323.534
339.386
345.894
351.485
358.606
364.168
366.345
366.706
366.427
365.842
365.07
364.265
363.626
363.267
363.109
363.03
362.982
362.948
362.921
362.897
362.866
362.812
362.709
362.528
362.25
361.888
361.465
360.994
360.511
360.163
360.437
362.303
366.462
375.156
396.065
322.029
337.797
343.668
348.074
353.753
360.439
364.937
366.479
366.548
365.987
365.179
364.434
363.929
363.644
363.489
363.401
363.352
363.329
363.329
363.353
363.4
363.471
363.558
363.644
363.711
363.759
363.824
363.971
364.309
365.075
366.764
370.044
375.293
384.517
401.794
320.242
336.022
342.096
345.934
350.201
356.585
363.129
366.287
366.951
366.599
365.893
365.173
364.623
364.259
364.026
363.872
363.767
363.698
363.662
363.661
363.703
363.8
363.97
364.236
364.623
365.164
365.916
366.972
368.465
370.564
373.484
377.399
382.589
390.645
403.737
320.247
336.926
343.781
348.184
352.523
357.478
363.075
366.644
367.616
367.414
366.814
366.131
365.535
365.089
364.773
364.544
364.37
364.234
364.128
364.052
364.012
364.019
364.091
364.261
364.577
365.112
365.97
367.294
369.252
371.97
375.403
379.317
383.804
390.335
402.133
322.165
338.84
345.349
349.768
354.274
359.046
363.672
367.205
368.446
368.355
367.796
367.123
366.499
366
365.626
365.347
365.128
364.949
364.798
364.67
364.564
364.485
364.438
364.439
364.515
364.716
365.126
365.881
367.177
369.232
372.158
375.784
379.929
386.061
399.31
322.468
337.932
343.702
347.508
351.275
355.543
360.43
365.216
368.211
369.077
368.814
368.189
367.534
366.977
366.544
366.216
365.963
365.759
365.591
365.45
365.333
365.238
365.166
365.117
365.097
365.118
365.213
365.452
365.99
367.108
369.206
372.549
376.933
383.739
398.634
320.467
335.765
341.733
345.423
348.673
351.943
355.697
360.345
365.22
368.454
369.509
369.289
368.67
368.042
367.523
367.124
366.818
366.58
366.391
366.242
366.129
366.052
366.01
366.005
366.043
366.127
366.267
366.483
366.859
367.667
369.467
372.77
377.403
384.81
400.273
318.935
335.254
342.009
346.125
349.693
353.035
356.012
358.802
362.218
366.248
369.089
369.948
369.662
369.061
368.491
368.036
367.687
367.407
367.177
366.999
366.876
366.806
366.791
366.84
366.974
367.222
367.631
368.26
369.164
370.491
372.666
376.084
380.704
388.129
402.607
319.654
336.742
343.731
348.044
351.983
355.993
359.655
362.313
364.137
366.134
368.685
370.241
370.383
369.895
369.33
368.867
368.505
368.198
367.936
367.728
367.581
367.502
367.494
367.571
367.768
368.146
368.809
369.911
371.586
373.847
376.709
380.256
384.656
391.561
404.155
321.206
338.316
345.06
349.338
353.447
357.791
361.905
365.087
367.126
368.392
369.594
370.765
371.002
370.576
370.032
369.577
369.22
368.914
368.639
368.409
368.236
368.131
368.102
368.167
368.366
368.772
369.513
370.803
372.886
375.816
379.316
383.064
387.262
393.515
404.599
322.048
339.225
346.016
350.557
355.226
360.032
363.961
366.68
368.519
369.792
370.715
371.467
371.702
371.327
370.792
370.319
369.939
369.625
369.351
369.111
368.917
368.781
368.714
368.738
368.892
369.242
369.906
371.084
373.06
376.023
379.752
383.688
387.798
393.615
404.184
322.848
340.055
346.998
351.99
357.588
363.254
367.167
369.185
370.221
370.905
371.492
372.018
372.304
372.07
371.584
371.116
370.722
370.391
370.104
369.852
369.636
369.465
369.352
369.318
369.396
369.64
370.141
371.054
372.625
375.111
378.511
382.356
386.359
391.941
402.896
324.618
340.954
347.691
352.934
359.123
365.348
369.598
371.657
372.458
372.728
372.817
372.886
372.95
372.801
372.382
371.92
371.523
371.189
370.898
370.638
370.407
370.212
370.065
369.984
369.996
370.147
370.505
371.189
372.388
374.345
377.185
380.655
384.428
389.816
401.358
324.937
340.271
346.545
351.458
357.122
363.101
368.081
371.346
373.108
373.9
374.153
374.11
373.907
373.631
373.243
372.798
372.395
372.053
371.756
371.49
371.249
371.037
370.861
370.738
370.689
370.749
370.976
371.459
372.349
373.86
376.176
379.219
382.733
387.91
399.819
322.724
337.903
343.721
347.697
351.801
356.599
361.978
366.994
370.769
373.113
374.349
374.879
374.954
374.688
374.205
373.671
373.218
372.865
372.579
372.33
372.105
371.902
371.728
371.595
371.522
371.54
371.696
372.07
372.794
374.065
376.087
378.877
382.264
387.402
399.465
320.232
335.746
341.708
345.253
348.29
351.518
355.598
360.633
365.781
370.006
372.822
374.411
375.202
375.477
375.303
374.769
374.171
373.711
373.386
373.14
372.937
372.763
372.617
372.509
372.454
372.48
372.63
372.977
373.648
374.837
376.762
379.476
382.838
388.017
400.135
319.54
336.242
343.079
347.072
350.214
352.903
355.43
358.367
362.203
366.59
370.5
373.198
374.746
375.541
375.855
375.714
375.173
374.583
374.163
373.89
373.699
373.556
373.453
373.394
373.395
373.482
373.699
374.122
374.882
376.177
378.204
380.972
384.35
389.589
401.582
320.015
338.28
345.869
350.41
354.181
357.486
360.108
361.97
363.607
365.943
369.123
372.128
374.185
375.359
375.975
376.202
375.999
375.448
374.928
374.601
374.413
374.307
374.264
374.284
374.384
374.593
374.962
375.575
376.566
378.11
380.326
383.145
386.48
391.657
403.133
321.55
340.311
348.018
352.795
357.127
361.379
364.989
367.297
368.389
369.013
370.281
372.355
374.245
375.454
376.125
376.465
376.522
376.213
375.685
375.282
375.064
374.969
374.965
375.053
375.253
375.597
376.142
376.977
378.225
380.008
382.354
385.135
388.338
393.299
404.031
324.198
342.666
350.27
355.296
360.221
365.093
369.073
371.562
372.69
373.015
373.255
374.086
375.219
376.079
376.591
376.873
376.979
376.854
376.436
375.953
375.674
375.58
375.611
375.757
376.039
376.494
377.182
378.19
379.617
381.532
383.89
386.556
389.597
394.324
404.445
328.062
346.196
353.797
359.496
365.552
370.649
373.716
375.185
375.748
375.882
375.928
376.165
376.592
376.983
377.25
377.412
377.483
377.436
377.199
376.774
376.382
376.2
376.205
376.365
376.695
377.236
378.041
379.178
380.707
382.644
384.916
387.415
390.278
394.783
404.496
331.098
348.579
356.436
363.243
370.638
375.491
377.318
377.747
377.775
377.73
377.71
377.749
377.84
377.948
378.038
378.099
378.119
378.078
377.932
377.636
377.242
376.944
376.857
376.968
377.271
377.797
378.599
379.735
381.242
383.11
385.256
387.6
390.298
394.591
404.163
330.743
347.897
355.76
362.887
370.716
375.988
378.172
378.81
378.909
378.863
378.806
378.773
378.766
378.774
378.784
378.783
378.763
378.707
378.592
378.379
378.056
377.717
377.523
377.525
377.719
378.131
378.814
379.827
381.209
382.946
384.966
387.199
389.801
394.028
403.857
327.909
345.121
352.189
357.955
364.925
371.786
376.388
378.613
379.467
379.721
379.749
379.708
379.655
379.607
379.566
379.523
379.472
379.4
379.29
379.111
378.836
378.496
378.246
378.238
378.476
378.933
379.637
380.629
381.939
383.561
385.45
387.579
390.148
394.446
404.329
325.14
342.573
349.307
353.818
358.769
365.137
371.634
376.293
378.787
379.873
380.28
380.399
380.398
380.353
380.294
380.23
380.163
380.087
379.992
379.864
379.681
379.429
379.158
379.018
379.15
379.587
380.323
381.366
382.722
384.357
386.216
388.283
390.762
394.904
404.528
325.211
343.547
350.993
355.861
360.476
365.026
369.713
374.299
377.792
379.78
380.686
381.043
381.154
381.154
381.1
381.017
380.919
380.813
380.702
380.581
380.443
380.277
380.08
379.887
379.804
379.969
380.483
381.401
382.731
384.422
386.373
388.522
391.022
395.085
404.512
327.493
346.531
354.401
360.152
366.371
371.662
374.76
376.775
378.649
380.144
381.025
381.447
381.622
381.673
381.656
381.596
381.506
381.394
381.268
381.13
380.98
380.812
380.622
380.427
380.297
380.359
380.747
381.552
382.819
384.512
386.517
388.737
391.308
395.468
404.925
329.61
348.34
356.137
362.47
370.229
377.03
380.551
381.699
382.033
382.243
382.38
382.429
382.416
382.361
382.272
382.15
381.996
381.815
381.614
381.404
381.196
381.008
380.864
380.801
380.879
381.173
381.762
382.712
384.06
385.774
387.757
389.945
392.568
396.919
406.075
328.742
347.43
355.151
361.452
369.183
376.329
380.685
382.59
383.219
383.358
383.338
383.259
383.15
383.013
382.84
382.625
382.371
382.1
381.841
381.616
381.443
381.342
381.343
381.49
381.836
382.428
383.302
384.478
385.95
387.672
389.583
391.681
394.302
398.706
407.048
327.587
346.421
353.888
359.69
366.897
374.387
379.81
382.707
383.902
384.234
384.215
384.081
383.907
383.7
383.444
383.132
382.795
382.493
382.271
382.139
382.092
382.133
382.279
382.569
383.051
383.772
384.76
386.012
387.491
389.145
390.935
392.904
395.432
399.702
407.38
326.65
345.486
352.867
358.418
365.217
372.561
378.345
381.981
383.902
384.715
384.923
384.861
384.695
384.473
384.188
383.823
383.405
383.034
382.81
382.751
382.831
383.036
383.362
383.815
384.412
385.18
386.144
387.31
388.656
390.147
391.764
393.564
395.913
399.931
407.297
325.667
344.038
351.492
357.188
364.227
372.007
378.081
381.829
383.93
385.006
385.443
385.518
385.42
385.243
385.005
384.688
384.278
383.823
383.464
383.311
383.36
383.577
383.958
384.507
385.221
386.089
387.095
388.228
389.476
390.83
392.299
393.949
396.111
399.84
407.066
323.904
341.614
348.825
354.107
360.484
368.521
376.11
381.214
383.988
385.359
385.964
386.147
386.109
385.972
385.785
385.547
385.24
384.852
384.434
384.116
384.002
384.087
384.336
384.754
385.359
386.16
387.136
388.25
389.465
390.767
392.17
393.745
395.801
399.397
406.845
321.747
339.522
346.816
351.465
356.174
362.394
370.288
377.523
382.347
384.943
386.165
386.644
386.74
386.661
386.51
386.325
386.105
385.836
385.516
385.193
384.968
384.926
385.061
385.336
385.744
386.314
387.07
388.016
389.133
390.395
391.8
393.398
395.484
399.181
406.983
321.184
340.193
348.317
353.299
357.673
362.104
367.378
373.778
379.681
383.673
385.854
386.877
387.251
387.292
387.189
387.033
386.854
386.655
386.43
386.189
385.98
385.89
385.991
386.284
386.721
387.267
387.934
388.758
389.766
390.967
392.363
393.989
396.117
399.826
407.26
322.105
342.705
351.711
357.493
362.766
367.325
370.706
374.153
378.518
382.551
385.273
386.797
387.53
387.792
387.802
387.7
387.555
387.391
387.212
387.023
386.843
386.721
386.738
386.969
387.443
388.121
388.943
389.877
390.927
392.112
393.45
394.976
396.924
400.199
406.838
325.889
347.32
356.677
363.331
369.989
375.119
377.787
379.211
381.092
383.54
385.627
387.006
387.802
388.191
388.319
388.299
388.209
388.087
387.948
387.795
387.637
387.496
387.415
387.467
387.73
388.254
389.032
389.998
391.074
392.215
393.421
394.733
396.337
399.038
405.533
332.506
353.078
362.717
370.745
378.568
382.837
384.134
384.457
384.99
385.981
387.029
387.843
388.389
388.709
388.855
388.882
388.839
388.759
388.656
388.537
388.403
388.263
388.133
388.047
388.058
388.229
388.614
389.228
390.034
390.981
392.053
393.294
394.841
397.484
404.529
338.027
357.087
367.47
377.457
385.296
388.014
388.284
388.094
388.045
388.244
388.582
388.922
389.194
389.377
389.474
389.502
389.482
389.432
389.362
389.274
389.169
389.046
388.909
388.767
388.644
388.571
388.595
388.774
389.184
389.93
391.091
392.624
394.49
397.558
405.294
337.063
356.194
366.236
375.677
383.175
387.13
388.899
389.558
389.739
389.791
389.856
389.947
390.037
390.104
390.139
390.142
390.123
390.088
390.042
389.982
389.906
389.804
389.671
389.502
389.307
389.111
388.971
389.003
389.399
390.343
391.815
393.603
395.715
399.225
407.125
331.628
350.498
358.298
364.651
372.188
379.637
385.21
388.461
389.988
390.583
390.779
390.834
390.843
390.834
390.813
390.782
390.749
390.717
390.69
390.664
390.635
390.59
390.508
390.361
390.146
389.926
389.822
390.013
390.68
391.877
393.432
395.171
397.361
401.185
408.441
326.545
344.746
351.821
356.603
361.952
369.123
377.13
383.803
388.072
390.242
391.162
391.493
391.573
391.55
391.486
391.409
391.338
391.283
391.251
391.244
391.263
391.309
391.367
391.393
391.336
391.239
391.268
391.604
392.363
393.512
394.898
396.46
398.567
402.375
408.92
326.208
345.881
353.93
358.899
363.059
367.229
372.546
378.92
384.718
388.688
390.809
391.751
392.108
392.196
392.158
392.061
391.947
391.845
391.773
391.741
391.762
391.85
392.024
392.278
392.552
392.782
393.031
393.448
394.13
395.076
396.232
397.611
399.56
403.133
409.138
329.771
350.52
358.84
364.22
368.777
372.512
375.625
378.975
383.104
387.155
390.075
391.687
392.422
392.703
392.761
392.701
392.579
392.439
392.313
392.225
392.196
392.246
392.412
392.735
393.227
393.827
394.448
395.087
395.805
396.658
397.681
398.938
400.732
403.967
409.355
331.497
351.033
358.908
364.44
369.804
374.78
378.71
381.532
383.914
386.588
389.315
391.368
392.537
393.08
393.282
393.305
393.224
393.083
392.922
392.778
392.678
392.649
392.726
392.96
393.413
394.114
395.004
395.968
396.93
397.91
398.97
400.205
401.885
404.767
409.494
329.461
348.236
356.064
361.68
367.461
373.436
378.689
382.492
385.041
386.976
388.895
390.834
392.347
393.24
393.662
393.815
393.817
393.724
393.573
393.402
393.248
393.144
393.122
393.226
393.521
394.082
394.944
396.047
397.249
398.448
399.645
400.916
402.509
405.084
409.398
328.351
347.661
355.795
361.544
367.388
373.454
378.989
383.215
386.044
387.915
389.333
390.684
392.053
393.169
393.859
394.196
394.317
394.308
394.212
394.059
393.886
393.731
393.632
393.628
393.771
394.135
394.798
395.783
397.001
398.293
399.565
400.843
402.354
404.749
409.087
329.707
349.397
357.659
363.646
369.851
376.044
381.315
385.206
387.814
389.496
390.626
391.498
392.325
393.188
393.942
394.441
394.697
394.79
394.775
394.682
394.537
394.373
394.231
394.154
394.189
394.398
394.856
395.622
396.67
397.87
399.089
400.309
401.737
404.066
408.725
330.616
350.177
358.472
364.766
371.619
378.359
383.708
387.367
389.715
391.208
392.178
392.844
393.349
393.798
394.258
394.693
395.008
395.182
395.245
395.225
395.139
395.009
394.866
394.754
394.724
394.832
395.146
395.725
396.574
397.605
398.703
399.837
401.197
403.51
408.498
330.415
350.26
358.772
365.324
372.54
379.503
384.92
388.562
390.872
392.343
393.307
393.959
394.415
394.747
394.999
395.208
395.402
395.56
395.656
395.688
395.664
395.591
395.485
395.381
395.326
395.38
395.605
396.058
396.753
397.635
398.619
399.682
400.996
403.299
408.468
331.327
351.623
360.31
367.034
374.302
380.832
385.778
389.177
391.414
392.892
393.898
394.602
395.105
395.47
395.734
395.907
395.996
396.045
396.087
396.117
396.121
396.096
396.042
395.979
395.942
395.989
396.181
396.572
397.177
397.958
398.862
399.877
401.167
403.463
408.641
332.888
353.014
361.859
369.149
377.112
383.247
387.349
390.111
392.002
393.324
394.273
394.973
395.499
395.9
396.207
396.435
396.576
396.62
396.602
396.578
396.563
396.549
396.529
396.51
396.517
396.596
396.807
397.195
397.771
398.507
399.369
400.359
401.638
403.919
408.964
332.261
351.773
361.245
370.049
380.169
386.686
390.076
392.004
393.276
394.201
394.909
395.468
395.915
396.277
396.571
396.809
396.989
397.095
397.113
397.073
397.025
396.993
396.976
396.979
397.022
397.151
397.423
397.879
398.507
399.268
400.135
401.126
402.406
404.666
409.412
328.917
348.099
358.331
368.733
381.771
389.613
392.877
394.271
395.026
395.54
395.945
396.284
396.576
396.827
397.045
397.232
397.385
397.495
397.544
397.531
397.486
397.443
397.418
397.422
397.48
397.638
397.967
398.517
399.26
400.117
401.043
402.06
403.343
405.542
409.855
325.432
345.21
355.445
365.4
379.72
389.924
394.195
395.771
396.444
396.805
397.044
397.228
397.384
397.522
397.646
397.756
397.849
397.918
397.952
397.947
397.915
397.877
397.852
397.855
397.913
398.077
398.431
399.051
399.916
400.906
401.926
402.988
404.274
406.385
410.218
324.685
346.354
356.603
364.812
376.155
387.822
393.962
396.296
397.223
397.658
397.896
398.044
398.147
398.223
398.284
398.332
398.369
398.389
398.391
398.375
398.349
398.322
398.305
398.315
398.378
398.547
398.909
399.555
400.488
401.567
402.654
403.738
405.004
407.004
410.425
329.134
352.685
364.9
374.221
380.742
388.634
394.54
396.929
397.878
398.323
398.57
398.72
398.81
398.861
398.888
398.898
398.897
398.885
398.865
398.839
398.811
398.787
398.773
398.785
398.85
399.019
399.377
400.017
400.949
402.035
403.115
404.17
405.388
407.289
410.492
337.961
360.161
375.187
389.412
393.106
394.638
397.195
398.294
398.79
399.07
399.252
399.372
399.443
399.478
399.49
399.485
399.469
399.446
399.416
399.383
399.352
399.325
399.311
399.325
399.393
399.565
399.916
400.524
401.39
402.389
403.385
404.366
405.526
407.378
410.525
343.097
364.506
380.446
398.467
400.609
399.359
399.471
399.683
399.843
399.96
400.044
400.101
400.133
400.145
400.141
400.125
400.1
400.069
400.032
399.993
399.954
399.921
399.902
399.911
399.976
400.142
400.475
401.027
401.788
402.655
403.533
404.427
405.528
407.354
410.538
341.016
363.729
379.504
397.428
402.447
401.89
401.43
401.195
401.081
401.022
400.985
400.956
400.929
400.899
400.867
400.831
400.793
400.751
400.707
400.661
400.617
400.579
400.557
400.565
400.632
400.797
401.111
401.603
402.252
402.988
403.758
404.578
405.632
407.442
410.62
338.408
360.433
373.954
389.521
400.895
402.87
402.848
402.584
402.332
402.135
401.985
401.87
401.778
401.7
401.633
401.573
401.516
401.462
401.409
401.357
401.309
401.269
401.246
401.256
401.325
401.487
401.776
402.21
402.765
403.398
404.083
404.842
405.848
407.611
410.716
337.402
359.521
371.203
383.004
395.98
402.028
403.414
403.544
403.384
403.169
402.965
402.79
402.643
402.521
402.418
402.329
402.251
402.181
402.117
402.058
402.007
401.966
401.947
401.963
402.039
402.202
402.474
402.863
403.35
403.91
404.533
405.243
406.198
407.879
410.845
336.32
358.57
368.766
377.257
386.861
396.095
401.309
403.494
404.097
404.086
403.903
403.694
403.502
403.337
403.199
403.082
402.982
402.895
402.818
402.751
402.695
402.654
402.637
402.658
402.739
402.902
403.162
403.52
403.963
404.475
405.055
405.725
406.629
408.215
410.997
334.694
357.609
366.673
372.406
377.811
384.543
392.061
398.187
402.195
404.111
404.634
404.591
404.398
404.185
403.995
403.835
403.702
403.592
403.5
403.423
403.362
403.32
403.305
403.332
403.42
403.586
403.841
404.182
404.598
405.079
405.627
406.263
407.111
408.582
411.145
338.081
362.268
372.824
379.723
384.495
387.104
389.147
392.192
396.204
400.292
403.388
404.788
405.083
404.996
404.809
404.612
404.436
404.288
404.168
404.072
403.999
403.951
403.935
403.963
404.052
404.218
404.467
404.795
405.192
405.65
406.172
406.776
407.572
408.934
411.289
346.111
370.78
382.779
392.229
399.156
401.779
401.567
400.452
399.346
399.158
400.861
403.411
404.949
405.4
405.408
405.279
405.114
404.951
404.809
404.692
404.604
404.549
404.531
404.563
404.658
404.829
405.079
405.401
405.786
406.227
406.727
407.302
408.05
409.307
411.447
349.397
374.552
387.456
398.45
406.102
409.252
409.574
408.677
407.389
405.763
403.959
403.755
404.884
405.618
405.806
405.779
405.68
405.554
405.422
405.303
405.205
405.14
405.115
405.145
405.243
405.418
405.669
405.988
406.364
406.791
407.271
407.82
408.527
409.697
411.622
343.245
366.415
380.473
394.588
404.305
408.368
409.626
409.664
409.103
408.144
406.911
406.125
406.23
406.379
406.378
406.313
406.216
406.099
405.979
405.866
405.771
405.703
405.677
405.706
405.805
405.981
406.234
406.551
406.922
407.34
407.805
408.329
408.996
410.084
411.81
330.628
351.343
364.279
379.074
394.841
403.845
407.48
408.557
408.524
408.092
407.67
407.399
407.259
407.151
407.035
406.911
406.782
406.653
406.53
406.419
406.327
406.264
406.241
406.272
406.37
406.543
406.789
407.099
407.461
407.868
408.317
408.822
409.467
410.513
412.051
322.863
343.692
354.649
365.506
381.711
395.578
403.635
407.465
408.847
409.048
408.8
408.476
408.201
407.974
407.774
407.59
407.418
407.261
407.12
407
406.904
406.842
406.821
406.855
406.954
407.125
407.366
407.668
408.021
408.416
408.851
409.336
409.957
410.957
412.303
323.663
350.269
362.408
369.368
375.206
382.632
390.156
396.864
402.422
406.589
408.983
409.65
409.421
409.005
408.646
408.368
408.144
407.951
407.782
407.637
407.52
407.438
407.403
407.424
407.514
407.677
407.91
408.204
408.548
408.932
409.354
409.826
410.436
411.413
412.564
332.31
364.926
380.435
389.724
394.834
394.637
391.9
389.983
390.142
392.639
398.296
404.899
408.814
410.02
409.992
409.588
409.16
408.816
408.559