/*--------------------------------*- C++ -*----------------------------------*\
| =========                 |                                                 |
| \\      /  F ield         | OpenFOAM: The Open Source CFD Toolbox           |
|  \\    /   O peration     | Version:  v2006                                 |
|   \\  /    A nd           | Website:  www.openfoam.com                      |
|    \\/     M anipulation  |                                                 |
\*---------------------------------------------------------------------------*/
FoamFile
{
    version     2.0;
    format      ascii;
    class       volScalarField;
    location    "14";
    object      k;
}
// * * * * * * * * * * * * * * * * * * * * * * * * * * * * * * * * * * * * * //

dimensions      [0 2 -2 0 0 0 0];


internalField   nonuniform List<scalar> 
78750
(
0.000260792
5.39786e-05
0.000122868
0.000109725
0.00011695
0.000119825
0.000123517
0.000126994
0.000130334
0.000133379
0.000135896
0.000137726
0.000138835
0.000139252
0.000139011
0.000138141
0.000136644
0.000134508
0.000131692
0.000128161
0.000123873
0.000118773
0.000112817
0.000106005
9.83959e-05
9.01306e-05
8.14773e-05
7.29129e-05
6.48435e-05
5.74719e-05
5.07422e-05
4.43491e-05
3.67502e-05
2.47954e-05
7.70677e-06
4.73119e-05
0.000147955
0.000189061
0.000214083
0.000230446
0.000242176
0.000251141
0.000258875
0.000266169
0.000272879
0.00027842
0.000282479
0.000285
0.000286041
0.000285637
0.000283768
0.000280367
0.000275383
0.000268705
0.000260234
0.000249834
0.000237367
0.000222736
0.000205891
0.000186893
0.000166071
0.000144346
0.000123697
0.000107004
9.5786e-05
8.69077e-05
7.48515e-05
5.91234e-05
4.16223e-05
2.08654e-05
8.26942e-05
0.000167309
0.000200789
0.000208889
0.000213572
0.00021989
0.000227405
0.000236225
0.000246565
0.000257531
0.000267763
0.00027646
0.000283469
0.00028888
0.0002928
0.000295294
0.000296378
0.000296002
0.00029405
0.00029031
0.000284477
0.000276123
0.00026466
0.00024932
0.000229177
0.000203313
0.000171328
0.000134556
9.83084e-05
7.3152e-05
6.80534e-05
7.57799e-05
7.84372e-05
6.51707e-05
2.96597e-05
0.000135075
0.000160401
0.000164693
0.000161512
0.000160939
0.000160338
0.000161124
0.000169027
0.000188345
0.000215361
0.0002416
0.000262594
0.000278107
0.000289285
0.000297158
0.00030242
0.000305526
0.000306783
0.000306392
0.000304462
0.000301013
0.000296008
0.000289271
0.000280417
0.00026875
0.000253121
0.000231773
0.000202395
0.000163061
0.000116044
7.35313e-05
5.18239e-05
5.0252e-05
4.74634e-05
3.21557e-05
9.6715e-05
0.000132496
0.000139199
0.000132693
0.000113744
8.3888e-05
5.17146e-05
4.15094e-05
7.49731e-05
0.000135492
0.000194837
0.000239426
0.000269086
0.000288282
0.000300758
0.000308782
0.000313542
0.000315615
0.00031526
0.000312558
0.000307488
0.000299949
0.000289745
0.000276594
0.000260154
0.000240077
0.000216321
0.000189488
0.000160157
0.000126914
9.14543e-05
6.67521e-05
6.07701e-05
5.78423e-05
5.02289e-05
5.65204e-05
9.1733e-05
0.000100696
9.63108e-05
7.9975e-05
5.32163e-05
3.2609e-05
4.93045e-05
0.000107261
0.000175875
0.000230861
0.00026698
0.000289374
0.00030361
0.000313079
0.000319466
0.000323548
0.000325622
0.000325752
0.000323819
0.000319657
0.000313065
0.000303633
0.000290722
0.000273396
0.000250543
0.000221463
0.000187982
0.000155645
0.000125478
9.06895e-05
5.95716e-05
5.23809e-05
5.97327e-05
6.47769e-05
4.54874e-05
7.52222e-05
8.32902e-05
7.27366e-05
4.42177e-05
2.06968e-05
4.01736e-05
0.00010367
0.000174483
0.00022651
0.000258589
0.000278961
0.000293503
0.000304799
0.000313664
0.000320255
0.000324475
0.000326029
0.000324748
0.000320492
0.00031303
0.000301948
0.000286599
0.000265839
0.000237661
0.00019932
0.000148726
9.01128e-05
4.11037e-05
2.33092e-05
3.03158e-05
4.19094e-05
5.19178e-05
5.71348e-05
4.84317e-05
5.24473e-05
5.34468e-05
4.23772e-05
2.04778e-05
9.12246e-06
4.05706e-05
0.000109218
0.000179735
0.000230245
0.000262998
0.00028546
0.000301942
0.000314484
0.000324201
0.00033174
0.000337371
0.000341014
0.00034249
0.000341644
0.00033829
0.00033216
0.000322843
0.000309721
0.000291988
0.000267969
0.000234841
0.000188218
0.000126174
5.97296e-05
1.69395e-05
1.33046e-05
2.94703e-05
4.19652e-05
4.33076e-05
2.81619e-05
5.23864e-05
5.52347e-05
4.84425e-05
3.79465e-05
4.87851e-05
9.66415e-05
0.000158701
0.00020795
0.000240447
0.000261572
0.000276367
0.000288256
0.000299164
0.000309522
0.000318905
0.000326518
0.000331638
0.000333906
0.0003331
0.000329017
0.000321374
0.000309754
0.000293647
0.000272766
0.000247008
0.000217194
0.000184131
0.000145311
9.61555e-05
4.39979e-05
1.47013e-05
1.83747e-05
3.19653e-05
3.69289e-05
3.05858e-05
4.73583e-05
4.55257e-05
3.60417e-05
2.9631e-05
5.19479e-05
0.000104015
0.000162598
0.000209654
0.000242715
0.000265954
0.000284074
0.000300078
0.000315029
0.00032849
0.000339889
0.000348619
0.000354441
0.000357314
0.000357191
0.000353949
0.000347319
0.000336806
0.000321549
0.000300247
0.000271615
0.00023494
0.000192362
0.000149224
0.000108541
6.83555e-05
3.51571e-05
2.28406e-05
2.85107e-05
3.49774e-05
3.59369e-05
4.7226e-05
5.13235e-05
5.76045e-05
7.92543e-05
0.000127029
0.000184323
0.000227945
0.000252191
0.000263619
0.000270129
0.000277618
0.000288243
0.000300907
0.000313573
0.000324718
0.000333223
0.000338736
0.000341136
0.000340323
0.000336148
0.000328329
0.000316352
0.000299348
0.00027607
0.000245205
0.0002056
0.000158419
0.000109725
6.88071e-05
4.09427e-05
2.61731e-05
2.34333e-05
2.95982e-05
3.44983e-05
3.21963e-05
4.96537e-05
7.32022e-05
9.66926e-05
0.000130255
0.000171652
0.000204001
0.000222337
0.000231205
0.000238031
0.00024871
0.000265434
0.000286463
0.000308154
0.000327659
0.00034361
0.00035559
0.000363804
0.000368468
0.000369654
0.000367299
0.000361156
0.000350757
0.000335273
0.000313291
0.000282734
0.000241668
0.000189101
0.00012957
7.46012e-05
3.72254e-05
2.24527e-05
2.31306e-05
2.91799e-05
3.09246e-05
2.30506e-05
5.24945e-05
8.88428e-05
0.000118245
0.000148893
0.000180069
0.000202736
0.000216736
0.000225019
0.000230695
0.000238229
0.000251347
0.00027011
0.000291065
0.000310635
0.000326908
0.00033934
0.000348183
0.000353743
0.000356208
0.000355661
0.000352048
0.000345178
0.00033469
0.000319979
0.00029995
0.000272485
0.00023388
0.000181445
0.000119911
6.42102e-05
3.13271e-05
2.41458e-05
2.77692e-05
2.74911e-05
1.87519e-05
5.12182e-05
9.41012e-05
0.000125796
0.000155614
0.000183776
0.000201231
0.000207311
0.000205769
0.000202461
0.000206252
0.000223229
0.000251178
0.000282421
0.000310823
0.000333479
0.000350344
0.000362206
0.000369754
0.000373437
0.000373537
0.000370192
0.000363407
0.000353041
0.000338833
0.000320525
0.000298081
0.000270812
0.000235773
0.000189002
0.000132051
7.84173e-05
4.55992e-05
3.32972e-05
2.72936e-05
1.95032e-05
4.43584e-05
9.04386e-05
0.000120389
0.000145849
0.000169236
0.000181374
0.000180989
0.000173505
0.000168769
0.000175925
0.000199615
0.000234821
0.000271591
0.000303334
0.000327755
0.000345387
0.000357524
0.000365203
0.000369084
0.000369577
0.000366897
0.00036108
0.000351966
0.000339166
0.000322113
0.000300485
0.000274113
0.000243257
0.000208159
0.00016772
0.0001228
8.25453e-05
5.5243e-05
3.75218e-05
2.17107e-05
3.52732e-05
8.15532e-05
0.000110322
0.000132509
0.000151104
0.000159496
0.000156332
0.000147629
0.000145443
0.00016142
0.000197059
0.000241375
0.000282692
0.000315722
0.000339819
0.000356595
0.000367692
0.000374257
0.000377031
0.000376484
0.000372891
0.000366347
0.000356769
0.000343901
0.000327359
0.000306898
0.000282283
0.000252673
0.000217545
0.000177408
0.000134924
9.641e-05
6.68848e-05
4.51682e-05
2.46021e-05
2.7706e-05
6.94358e-05
9.64583e-05
0.000115276
0.000128188
0.000130074
0.000119834
0.000111094
0.00012453
0.000165032
0.000218698
0.000268489
0.000306876
0.000334174
0.00035284
0.000365218
0.000372879
0.000376769
0.000377424
0.000375126
0.000369945
0.00036177
0.000350301
0.000335049
0.000315496
0.000291721
0.000264247
0.000234365
0.000203623
0.000171813
0.000137915
0.000104411
7.51004e-05
5.13533e-05
2.67881e-05
2.50301e-05
6.08266e-05
8.31658e-05
9.53561e-05
9.76892e-05
8.97102e-05
8.68217e-05
0.000112645
0.000167672
0.000231186
0.00028325
0.000318498
0.000341553
0.000357111
0.000367982
0.000375442
0.000380012
0.000381889
0.000381151
0.000377781
0.000371667
0.000362567
0.000350047
0.000333453
0.000312068
0.000285747
0.000254463
0.000219113
0.000182439
0.000148014
0.000117963
9.35609e-05
7.1853e-05
5.11571e-05
2.75729e-05
2.71442e-05
5.37814e-05
6.87007e-05
7.32201e-05
7.17389e-05
8.03235e-05
0.000118566
0.000180166
0.000239316
0.000280488
0.000306394
0.000324798
0.000340259
0.000353873
0.000364984
0.000373106
0.000378146
0.00038015
0.000379174
0.000375215
0.000368156
0.000357708
0.000343358
0.000324395
0.000300261
0.000271498
0.000238879
0.000204083
0.000169316
0.000136817
0.000108932
8.70502e-05
6.81783e-05
4.96862e-05
2.80238e-05
3.20997e-05
5.01218e-05
6.14954e-05
6.93911e-05
8.69869e-05
0.000128805
0.00018792
0.000239547
0.000274962
0.000300252
0.000321343
0.000339963
0.000355898
0.000368369
0.000377377
0.000383269
0.000386344
0.000386758
0.000384519
0.000379501
0.000371411
0.000359741
0.000343684
0.000322168
0.000294268
0.000260344
0.000221602
0.000181651
0.000145523
0.000116589
9.54326e-05
7.84824e-05
6.29125e-05
4.67418e-05
2.7078e-05
3.69954e-05
5.33405e-05
6.79172e-05
8.66734e-05
0.000120882
0.000169953
0.000217216
0.000252213
0.000277322
0.000296443
0.000312419
0.000326911
0.000340635
0.000353197
0.000363672
0.00037164
0.000376966
0.000379596
0.000379444
0.000376349
0.000370019
0.000359956
0.000345385
0.000325227
0.000298314
0.000264143
0.00022287
0.000177561
0.000135026
0.000102496
8.25637e-05
6.90104e-05
5.66234e-05
4.27558e-05
2.48801e-05
4.03771e-05
6.17613e-05
8.24703e-05
0.000109531
0.000148512
0.000192182
0.000229182
0.000255274
0.000273577
0.000288798
0.000304529
0.00032171
0.000339146
0.000354747
0.000367223
0.000376391
0.000382431
0.000385528
0.000385757
0.000383072
0.000377267
0.000367942
0.000354455
0.000335911
0.000311231
0.000279463
0.000239664
0.000192502
0.000143557
0.000102568
7.67521e-05
6.25426e-05
5.16557e-05
3.93042e-05
2.30818e-05
4.08647e-05
6.94599e-05
9.41114e-05
0.000122683
0.000158828
0.00019443
0.000222632
0.000241227
0.000253484
0.000264523
0.000278423
0.000296035
0.000315386
0.000334027
0.000349641
0.000361667
0.000370261
0.000375686
0.000378098
0.000377525
0.000373838
0.000366744
0.000355759
0.000340232
0.000319411
0.000292487
0.000258153
0.000214939
0.000164842
0.000116144
8.01188e-05
6.038e-05
4.84529e-05
3.68189e-05
2.22806e-05
3.69989e-05
7.28182e-05
9.92922e-05
0.000126986
0.000160918
0.000190846
0.000211644
0.000223469
0.000230036
0.00023802
0.000253204
0.000275856
0.000301546
0.000325934
0.000345957
0.000361089
0.000371834
0.000378794
0.000382379
0.000382803
0.000380095
0.000374105
0.000364507
0.000350836
0.000332599
0.00030941
0.000280506
0.000243753
0.000198111
0.000147122
0.000101152
7.06784e-05
5.23667e-05
3.79304e-05
2.23288e-05
3.11688e-05
7.23354e-05
9.90288e-05
0.000124274
0.000154202
0.000178479
0.000192315
0.000197315
0.000199676
0.000208301
0.000228872
0.000258192
0.000288835
0.000315942
0.000337563
0.000353623
0.000364899
0.000372205
0.000376115
0.000376957
0.00037484
0.000369685
0.000361242
0.000349147
0.000333078
0.000312985
0.000288373
0.000257547
0.000218965
0.000172975
0.00012538
8.70598e-05
6.09442e-05
4.15841e-05
2.26025e-05
2.70763e-05
6.86807e-05
9.69188e-05
0.000121484
0.000146657
0.000165112
0.000172412
0.000171953
0.000175433
0.000193088
0.000224932
0.000261544
0.000294695
0.00032173
0.000342581
0.000357924
0.000368656
0.000375545
0.000379121
0.000379686
0.00037734
0.000372015
0.000363499
0.000351533
0.000336028
0.00031727
0.000295117
0.000268151
0.000234492
0.000193334
0.000147522
0.000105244
7.23301e-05
4.74512e-05
2.27466e-05
2.6951e-05
6.65951e-05
9.49019e-05
0.000117135
0.000136065
0.000146746
0.000147205
0.000146793
0.000162068
0.000195315
0.00023604
0.00027317
0.000302855
0.000325988
0.000343875
0.0003572
0.000366558
0.000372468
0.000375311
0.000375298
0.000372461
0.00036667
0.000357658
0.000345166
0.00032929
0.000310757
0.000289356
0.000264018
0.000233276
0.000196271
0.000154491
0.000113763
7.88421e-05
5.11509e-05
2.19435e-05
2.8596e-05
6.44516e-05
9.04169e-05
0.000108894
0.000121829
0.000126592
0.000126972
0.000137646
0.000168526
0.000209981
0.000249458
0.000281803
0.000307477
0.00032824
0.000344936
0.000357647
0.000366637
0.000372288
0.000374921
0.000374717
0.000371691
0.000365706
0.000356518
0.000343989
0.000328497
0.000311105
0.000291749
0.00026907
0.000240813
0.000205339
0.000164044
0.000122741
8.59109e-05
5.55277e-05
2.22143e-05
3.04409e-05
6.08959e-05
8.29233e-05
9.70906e-05
0.000105203
0.000108335
0.000115837
0.000140584
0.00018069
0.000222834
0.000259076
0.000288127
0.000311242
0.000329991
0.000345043
0.000356443
0.000364383
0.000369148
0.000370959
0.0003699
0.00036588
0.000358638
0.000347818
0.000333334
0.000316046
0.000297584
0.000278525
0.00025824
0.000234438
0.000204336
0.000167486
0.00012849
9.19813e-05
5.97553e-05
2.30275e-05
3.08725e-05
5.62132e-05
7.41238e-05
8.51357e-05
9.17982e-05
9.8776e-05
0.000116142
0.00015056
0.000192898
0.000232232
0.00026443
0.000289869
0.00031032
0.00032743
0.000341832
0.000353169
0.000361291
0.000366307
0.000368368
0.000367518
0.000363622
0.000356363
0.000345338
0.000330493
0.000312858
0.000293928
0.000274432
0.000254061
0.000231061
0.000203126
0.000169552
0.000132799
9.74009e-05
6.41078e-05
2.49098e-05
2.90534e-05
5.08879e-05
6.59026e-05
7.54038e-05
8.31457e-05
9.53752e-05
0.000119273
0.000156569
0.000197085
0.000233181
0.000262772
0.000286635
0.000306275
0.000322985
0.000337289
0.000348583
0.000356576
0.000361335
0.000363012
0.000361637
0.000357033
0.000348815
0.00033655
0.000320383
0.000301994
0.000283118
0.00026505
0.000247574
0.000228407
0.000204505
0.000174488
0.00013913
0.000104017
6.99357e-05
2.93498e-05
2.61014e-05
4.73635e-05
6.16004e-05
7.18327e-05
8.3123e-05
0.000101375
0.000130668
0.00016965
0.000208663
0.000242207
0.000269109
0.000290404
0.000307764
0.000322693
0.000335829
0.000346448
0.000354005
0.000358387
0.000359656
0.00035778
0.000352501
0.00034332
0.000329736
0.000312078
0.000292462
0.000272551
0.000254057
0.000237564
0.000221545
0.000202728
0.000177382
0.000144036
0.000109784
7.59254e-05
3.59345e-05
2.28486e-05
4.59031e-05
6.11961e-05
7.34681e-05
8.87188e-05
0.000111187
0.000142597
0.000179649
0.000214597
0.000243808
0.000267064
0.000285717
0.000301429
0.000315557
0.000328668
0.000339561
0.000347267
0.000351493
0.000352304
0.000349693
0.000343377
0.000332791
0.000317547
0.000298756
0.000279028
0.000260467
0.000244251
0.00023026
0.000217325
0.000202828
0.000181246
0.000149977
0.000116816
8.36605e-05
4.58563e-05
2.03361e-05
4.71874e-05
6.49516e-05
8.0407e-05
0.000100572
0.000127414
0.000161262
0.000197169
0.000229221
0.000255259
0.000275671
0.000291921
0.000305656
0.000318265
0.00033002
0.000339611
0.000345905
0.00034848
0.00034734
0.000342408
0.000333208
0.000318879
0.000299176
0.000276761
0.000255528
0.000238554
0.000226751
0.000218824
0.000212372
0.000202715
0.00018382
0.000153999
0.000122332
9.10462e-05
5.77075e-05
1.91943e-05
5.04769e-05
7.1321e-05
9.04153e-05
0.000115526
0.000145958
0.000180395
0.000213329
0.000240637
0.000261536
0.000277181
0.000289462
0.000300324
0.000311115
0.000322076
0.000331318
0.000337057
0.000338466
0.000335469
0.000327941
0.000315073
0.00029553
0.000269851
0.000243638
0.000222631
0.000209861
0.000204753
0.000204992
0.000206123
0.000200948
0.000184149
0.00015603
0.000125936
9.63108e-05
6.66004e-05
1.99548e-05
5.61359e-05
8.07246e-05
0.000104114
0.000134279
0.000167796
0.000201685
0.000231099
0.000253678
0.000269867
0.000281462
0.000290718
0.000299611
0.000309281
0.000319514
0.000327989
0.000332484
0.000331834
0.000325822
0.000314147
0.000295266
0.000267159
0.000232645
0.000201899
0.000183696
0.000179792
0.000185571
0.000195029
0.0002008
0.000196977
0.000180722
0.000154913
0.000125763
9.57958e-05
6.59591e-05
2.30278e-05
6.39501e-05
9.21569e-05
0.00011936
0.00015328
0.000187745
0.000218578
0.000242722
0.000259341
0.00026974
0.000276243
0.000281433
0.000287542
0.00029573
0.000305674
0.000314965
0.000320427
0.000319996
0.000312917
0.000298619
0.000274765
0.000238687
0.00019545
0.000159464
0.000143212
0.000148834
0.000166808
0.000183212
0.000190134
0.000185722
0.000170268
0.000147247
0.000118863
8.70919e-05
5.35809e-05
2.78258e-05
7.26567e-05
0.000103281
0.000132871
0.000169278
0.000203661
0.000231155
0.000250512
0.000262315
0.000268271
0.000270696
0.000272231
0.000275346
0.000281592
0.000291005
0.000302081
0.000311302
0.000315442
0.000312485
0.000301431
0.000280237
0.000244979
0.00019636
0.000147455
0.000115437
0.000111249
0.000131199
0.000155979
0.000168333
0.000165425
0.00015151
0.000130916
0.000104385
7.29758e-05
3.71696e-05
3.22337e-05
7.98331e-05
0.000111848
0.000142357
0.000179233
0.000212994
0.000238076
0.00025384
0.00026183
0.000264016
0.000262374
0.000259096
0.000256717
0.000257709
0.000263637
0.000274376
0.000287982
0.0003008
0.000308916
0.000309883
0.000301938
0.000281864
0.000244199
0.000189459
0.000131783
8.87767e-05
7.38887e-05
8.67604e-05
0.000111019
0.000126628
0.000125513
0.000111921
8.98403e-05
6.0749e-05
2.55998e-05
3.33658e-05
8.30568e-05
0.000117818
0.000149028
0.000183345
0.000215807
0.000240817
0.000257107
0.00026568
0.000268196
0.000266207
0.00026095
0.000253638
0.000246161
0.000241545
0.000243018
0.000252007
0.000267075
0.000284545
0.000300155
0.000311051
0.000315373
0.000309981
0.000287923
0.000242179
0.000179589
0.000116698
6.94895e-05
4.82447e-05
5.05121e-05
6.25715e-05
6.97471e-05
6.54235e-05
4.89854e-05
2.31488e-05
3.08422e-05
8.26206e-05
0.000121831
0.000154063
0.000184783
0.000214057
0.000238053
0.000255093
0.000265307
0.000269694
0.000269488
0.000265805
0.000259472
0.000251008
0.000241007
0.000231262
0.000225738
0.000228672
0.000240534
0.000257113
0.000273331
0.000287473
0.000299977
0.000310446
0.000314839
0.000304086
0.000268603
0.000209848
0.000143953
8.91545e-05
5.68718e-05
4.6597e-05
4.52119e-05
3.97522e-05
2.78771e-05
2.67087e-05
8.04845e-05
0.000123488
0.000156453
0.000184382
0.000209964
0.000231673
0.000248224
0.000259311
0.000265334
0.000267064
0.000265346
0.000260918
0.000254318
0.000246021
0.000236913
0.000229022
0.000225766
0.000230685
0.000244155
0.000260745
0.000274467
0.000283825
0.000289555
0.000292728
0.000295802
0.000299476
0.000297217
0.000277058
0.000231528
0.000170229
0.00011505
7.78246e-05
5.34697e-05
3.28758e-05
2.18042e-05
7.62894e-05
0.000120979
0.000154032
0.000179984
0.000202548
0.00022176
0.000236928
0.000247725
0.000254207
0.000256638
0.000255383
0.000250742
0.000242983
0.000232796
0.000222161
0.000214671
0.000214305
0.000223065
0.000239155
0.000257443
0.000273616
0.00028702
0.000298012
0.000305869
0.000308961
0.000306156
0.000298316
0.000287679
0.000272723
0.0002443
0.000195208
0.000135906
8.40522e-05
3.49571e-05
1.72883e-05
7.16518e-05
0.000115513
0.000146557
0.000169846
0.000189183
0.000205348
0.000218371
0.000227713
0.000232781
0.00023307
0.000228397
0.000219479
0.000208851
0.000200256
0.000197257
0.000202088
0.000215148
0.000234376
0.000255212
0.000273256
0.00028749
0.000298509
0.000306579
0.000311806
0.000314374
0.000314127
0.000309827
0.000299994
0.000283788
0.000259414
0.000220905
0.000164482
0.000105651
3.90351e-05
1.44074e-05
6.782e-05
0.000108229
0.000135882
0.000156599
0.000173505
0.000186674
0.000195113
0.000197135
0.000191923
0.000181771
0.000172535
0.000169127
0.000173537
0.000185998
0.000205185
0.000228424
0.000252439
0.000272734
0.000287213
0.000296728
0.000302553
0.000306015
0.000308757
0.000312191
0.000316388
0.000318898
0.000315676
0.000303774
0.000282931
0.000254145
0.000216332
0.000165695
0.000111134
4.47113e-05
1.46232e-05
6.98196e-05
0.000107527
0.000129901
0.000143172
0.000149664
0.000148387
0.000140062
0.000132225
0.000133162
0.000145072
0.000166597
0.000194187
0.000223581
0.000251751
0.000274898
0.000289537
0.00029616
0.000296416
0.000292479
0.000287114
0.000283354
0.0002841
0.000291394
0.000304809
0.000320198
0.000331054
0.000331192
0.000316813
0.000287502
0.000247201
0.000201877
0.000155957
0.000106155
4.22866e-05
1.84642e-05
7.1271e-05
0.000100508
0.000110571
0.000109629
0.000104748
0.000108351
0.00012813
0.000161291
0.000200498
0.000239202
0.000271833
0.000291969
0.00029824
0.00029437
0.000283042
0.000267446
0.000251977
0.000241309
0.000240087
0.000250861
0.000271231
0.000294641
0.000315234
0.000330838
0.000341269
0.000345723
0.000341394
0.000323555
0.000288865
0.000240475
0.000188907
0.000144292
9.85028e-05
3.85002e-05
2.54514e-05
7.00972e-05
9.20702e-05
0.00010155
0.000113723
0.000143455
0.000191365
0.00024303
0.000281492
0.000297282
0.000293495
0.000278015
0.000258149
0.000240571
0.000228474
0.000223054
0.000226338
0.00023879
0.000256783
0.000275307
0.000291024
0.000303517
0.00031387
0.000322818
0.000330202
0.000335043
0.00033554
0.000328978
0.000311528
0.000279596
0.00023383
0.000182873
0.000137086
9.22969e-05
3.8937e-05
3.40038e-05
8.16057e-05
0.000114122
0.00014504
0.000185895
0.000231024
0.000261369
0.000272376
0.000271914
0.000268302
0.000265076
0.00026153
0.000256841
0.000250576
0.000242312
0.000233388
0.000228308
0.000231148
0.00024213
0.000258353
0.000275947
0.000291872
0.000304776
0.000314466
0.000320865
0.00032349
0.000321305
0.000312663
0.000295288
0.000266947
0.00022738
0.000181011
0.000134372
8.8765e-05
4.02635e-05
4.18892e-05
0.000100643
0.000145337
0.000188558
0.000229828
0.000263017
0.000285426
0.000299492
0.000304552
0.000299085
0.000284373
0.000264885
0.000245667
0.000229552
0.000216417
0.000205558
0.00019878
0.000199296
0.000208276
0.000224501
0.000244939
0.000265614
0.000282747
0.00029441
0.000300427
0.000301094
0.000296399
0.000285983
0.000269222
0.000245338
0.000213895
0.000175708
0.000132121
8.59717e-05
3.9009e-05
4.56726e-05
0.000111377
0.000158703
0.00020121
0.000240308
0.000274631
0.000302541
0.00032225
0.000331207
0.000327897
0.000313922
0.000293054
0.000269054
0.000244847
0.000222437
0.000202682
0.000185052
0.000170493
0.000162751
0.000164136
0.000174217
0.000191623
0.000214061
0.000237985
0.000257904
0.000269095
0.000270214
0.000262012
0.000245336
0.00022124
0.000191327
0.00015723
0.000118924
7.73316e-05
3.40773e-05
4.63973e-05
0.000118639
0.00016954
0.000214729
0.000259036
0.000299424
0.000330977
0.000351283
0.000359807
0.000357068
0.00034484
0.000326126
0.000304217
0.000281044
0.000257106
0.000233498
0.000211045
0.000188973
0.00016675
0.000146182
0.000131294
0.000123496
0.000121731
0.000127102
0.000140313
0.000159708
0.000181273
0.000198659
0.000205609
0.000200457
0.000185135
0.000160184
0.000124847
7.97934e-05
2.81787e-05
5.22975e-05
0.000126742
0.000178935
0.000228173
0.000282815
0.0003297
0.000359497
0.000372741
0.000374135
0.000368045
0.000357553
0.00034431
0.000328826
0.000311695
0.000294829
0.000280942
0.000269635
0.000254205
0.000230899
0.000205728
0.000183806
0.000163641
0.000141222
0.000118249
0.000101135
9.09111e-05
8.69315e-05
8.92458e-05
9.60101e-05
0.000103696
0.000108432
0.000105869
9.22168e-05
6.46437e-05
2.53582e-05
4.9051e-05
0.00011326
0.000160187
0.000203534
0.000254319
0.000303661
0.000339655
0.000358638
0.000363586
0.000359346
0.000350001
0.000338359
0.00032618
0.000314344
0.000302811
0.00029097
0.000277109
0.000259314
0.000239385
0.000223637
0.000218405
0.000219183
0.000211636
0.000194035
0.000175729
0.00015977
0.000145762
0.000133152
0.000120914
0.000108257
9.43519e-05
7.95336e-05
6.37688e-05
4.51688e-05
2.15171e-05
3.41542e-05
8.71783e-05
0.00013846
0.000184693
0.000227351
0.000266765
0.000298683
0.000319936
0.000330405
0.000332026
0.000327511
0.000319451
0.000309808
0.000299723
0.000289694
0.000279825
0.000270006
0.000260024
0.000249429
0.00023746
0.000222632
0.000202429
0.000176448
0.000152172
0.000142391
0.000154686
0.00018275
0.000207459
0.000222377
0.000228228
0.000217449
0.000185647
0.000137171
7.99127e-05
1.42181e-05
1.72041e-05
5.06956e-05
8.60146e-05
0.00012183
0.000154454
0.000182157
0.000205329
0.000224478
0.000239978
0.000252244
0.000261623
0.000268188
0.000271709
0.000271929
0.000268862
0.000262805
0.00025402
0.000242602
0.000228625
0.000212831
0.000196469
0.000181149
0.000168954
0.000162343
0.000162222
0.000165708
0.000169593
0.000173703
0.000180621
0.000194372
0.000215899
0.000232292
0.000216978
0.000145868
1.4767e-05
7.65351e-06
3.81847e-05
6.87057e-05
0.000100462
0.000130859
0.000156846
0.000177503
0.000193035
0.000203775
0.000209876
0.000211445
0.000208753
0.000202383
0.0001932
0.000182104
0.000169947
0.000157915
0.00014727
0.000138767
0.000132975
0.000130064
0.000130182
0.000133616
0.000140822
0.000152385
0.000168671
0.000189649
0.00021417
0.000239086
0.000259965
0.000273394
0.000277479
0.000260507
0.000189878
2.76073e-05
1.13304e-05
4.09657e-05
6.43133e-05
8.09683e-05
9.17385e-05
9.81496e-05
0.00010177
0.000103747
0.000104672
0.000104794
0.00010439
0.000103804
0.000103447
0.000103853
0.000105759
0.000109976
0.00011752
0.000129372
0.000145152
0.000162469
0.000179322
0.000195796
0.000213033
0.000232591
0.00025707
0.000289213
0.000329013
0.00037136
0.000406949
0.00042438
0.00041257
0.000365583
0.000291123
0.000194686
5.25494e-05
2.35189e-05
5.08047e-05
7.00505e-05
8.48994e-05
9.83215e-05
0.000110854
0.000123124
0.000134873
0.00014571
0.000155528
0.00016482
0.000173574
0.000181661
0.000190318
0.000201486
0.000218101
0.000243737
0.000279048
0.000318966
0.000355389
0.000383019
0.000401576
0.000413664
0.000421902
0.000427176
0.000429139
0.000427588
0.000422639
0.000412633
0.000392489
0.000355329
0.000301206
0.000238756
0.000161305
4.35325e-05
1.66787e-05
5.56256e-05
9.25568e-05
0.000128503
0.000158573
0.000181985
0.000198719
0.00020834
0.000213758
0.000218435
0.000223659
0.000228071
0.000232982
0.000248223
0.000274602
0.000301198
0.000322975
0.000338449
0.000347727
0.000353907
0.00035946
0.000365371
0.000371897
0.000378794
0.000385944
0.000393185
0.000399996
0.000405461
0.000406463
0.000396361
0.000368112
0.000320267
0.000259921
0.000179853
4.80243e-05
8.37918e-06
8.81062e-05
0.00015619
0.000198927
0.000211396
0.000207604
0.000194378
0.000176103
0.000169558
0.000181782
0.000205036
0.000229081
0.000248992
0.000265211
0.00027983
0.000292802
0.000303237
0.000311323
0.000318048
0.000324373
0.000330834
0.000337805
0.000345372
0.00035353
0.000362314
0.000371767
0.000381655
0.000390988
0.000397256
0.000395386
0.000378127
0.000340509
0.000283902
0.000200618
6.54945e-05
1.27883e-05
0.000119205
0.000181192
0.000198095
0.000194051
0.000188436
0.000186896
0.000189019
0.000193174
0.000200179
0.000211521
0.000226872
0.000244233
0.000261253
0.00027628
0.000288776
0.000298993
0.000307511
0.000315003
0.000322052
0.000329115
0.000336661
0.000345063
0.000354473
0.000364698
0.000375417
0.000386506
0.000397145
0.000404474
0.000403047
0.000385713
0.000348763
0.000294919
0.000215351
8.26101e-05
1.89753e-05
0.000144405
0.000197215
0.000200537
0.000189628
0.000181589
0.000179051
0.000181495
0.000188246
0.000198633
0.000211709
0.000226088
0.000240822
0.000255744
0.000270802
0.00028551
0.000298924
0.000310498
0.000320301
0.000328317
0.00033466
0.000340207
0.000346479
0.000355353
0.000367857
0.000383199
0.00039899
0.000412275
0.00041926
0.000414771
0.000393831
0.000354943
0.000296844
0.000208539
7.92026e-05
2.47672e-05
0.000162074
0.000218821
0.000221359
0.000205953
0.000196167
0.000188325
0.000178543
0.000169697
0.000163826
0.000162189
0.000163703
0.000166557
0.000171028
0.000178523
0.000190905
0.000209882
0.000235992
0.000267673
0.000300885
0.000328873
0.000347098
0.000357874
0.000363179
0.000364708
0.000364218
0.000362724
0.000359718
0.000352775
0.000338527
0.000314154
0.000277877
0.000225576
0.000150294
5.60815e-05
3.32153e-05
0.000124255
0.000185114
0.000235139
0.000276768
0.000298478
0.00029294
0.000264168
0.000228453
0.000202097
0.000186346
0.000173661
0.000158814
0.000140596
0.000119631
9.99371e-05
8.88572e-05
9.01159e-05
0.000102913
0.000125686
0.000156571
0.000193028
0.000232513
0.000271389
0.000302157
0.000319088
0.000324303
0.000320248
0.000306846
0.000283807
0.000252234
0.000214338
0.000168715
0.000110227
4.07245e-05
2.41e-05
0.000104432
0.000154096
0.000192223
0.000225487
0.000250289
0.00026686
0.000279612
0.000291632
0.000301088
0.000304388
0.0002992
0.000283042
0.000253466
0.000212105
0.000167835
0.00013099
0.000105699
9.07537e-05
8.31131e-05
8.05103e-05
8.28265e-05
9.17349e-05
0.000109303
0.000135607
0.000167095
0.000198304
0.000222863
0.000235219
0.000234205
0.000219932
0.000192708
0.000152599
9.87726e-05
3.38362e-05
2.40079e-05
0.000100006
0.000147056
0.00017852
0.000203438
0.000222618
0.000235213
0.000241572
0.00024294
0.00024054
0.000235265
0.000227808
0.000218609
0.000208563
0.000200664
0.000198339
0.000200942
0.000203706
0.000200914
0.000190226
0.000174774
0.000156637
0.000134712
0.000113243
0.000100611
9.99905e-05
0.000109944
0.000126157
0.000142472
0.000152763
0.00015359
0.000144453
0.000124438
8.97836e-05
4.17844e-05
1.52442e-05
6.57809e-05
0.000106558
0.000136422
0.000159686
0.000178449
0.000192715
0.000202568
0.000208025
0.000209259
0.000206548
0.000200292
0.000191067
0.000179873
0.00016834
0.00015818
0.00015073
0.000146882
0.000147224
0.000153387
0.000167208
0.000187397
0.000207763
0.000219407
0.000218319
0.000206702
0.000189317
0.000173141
0.000163286
0.000158619
0.000152361
0.000137555
0.00011605
8.72553e-05
4.42693e-05
9.14933e-06
4.71972e-05
7.84205e-05
0.000101624
0.000117559
0.000127481
0.000132543
0.000133603
0.000131356
0.000126644
0.000120518
0.000114135
0.000108565
0.000104597
0.000102573
0.000102677
0.000105138
0.000110321
0.000118597
0.000130188
0.000145053
0.000162957
0.000183568
0.000206446
0.000231175
0.000256556
0.000278901
0.000291598
0.000289275
0.000273275
0.000248527
0.000218195
0.000176954
0.000126983
5.22245e-05
1.35321e-05
4.91856e-05
7.26354e-05
8.8034e-05
9.90862e-05
0.000106754
0.000111892
0.000115344
0.000117775
0.00011986
0.000122282
0.000125918
0.000131557
0.00013933
0.00014851
0.000158505
0.000169633
0.000182856
0.000199379
0.000220668
0.00024782
0.0002804
0.000315833
0.000350208
0.000380129
0.000403891
0.000420273
0.000427029
0.000419823
0.000393632
0.000345965
0.000284093
0.000223475