/*--------------------------------*- C++ -*----------------------------------*\
| =========                 |                                                 |
| \\      /  F ield         | OpenFOAM: The Open Source CFD Toolbox           |
|  \\    /   O peration     | Version:  v2006                                 |
|   \\  /    A nd           | Website:  www.openfoam.com                      |
|    \\/     M anipulation  |                                                 |
\*---------------------------------------------------------------------------*/
FoamFile
{
    version     2.0;
    format      ascii;
    class       volScalarField;
    location    "14";
    object      nut;
}
// * * * * * * * * * * * * * * * * * * * * * * * * * * * * * * * * * * * * * //

dimensions      [0 2 -1 0 0 0 0];


internalField   nonuniform List<scalar> 
78750
(
7.22095e-07
3.43083e-06
8.46255e-06
7.60855e-06
8.07981e-06
8.26629e-06
8.50508e-06
8.72918e-06
8.94363e-06
9.13854e-06
9.11447e-06
8.95732e-06
8.83042e-06
8.72522e-06
8.63269e-06
8.55223e-06
8.4841e-06
8.42556e-06
8.37205e-06
8.32078e-06
8.26521e-06
8.19385e-06
7.81132e-06
7.3656e-06
6.86403e-06
6.31482e-06
5.73478e-06
5.15553e-06
4.60498e-06
4.09794e-06
3.6316e-06
3.14918e-06
2.49873e-06
1.65922e-06
2.16721e-08
8.96772e-08
5.23917e-06
9.72436e-06
1.37021e-05
1.76464e-05
2.22355e-05
2.70021e-05
2.97651e-05
2.86161e-05
2.62552e-05
2.472e-05
2.39036e-05
2.333e-05
2.28164e-05
2.23351e-05
2.18818e-05
2.14487e-05
2.10231e-05
2.05812e-05
2.00927e-05
1.95117e-05
1.87764e-05
1.78173e-05
1.65727e-05
1.50187e-05
1.32229e-05
1.13891e-05
9.81253e-06
8.73035e-06
8.01719e-06
7.04636e-06
5.64411e-06
4.90366e-06
3.77255e-06
3.99398e-08
1.5666e-07
7.77084e-06
7.42495e-06
8.83589e-06
9.97685e-06
1.08179e-05
1.19694e-05
1.34538e-05
1.53275e-05
1.75714e-05
1.99239e-05
2.20082e-05
2.36041e-05
2.47065e-05
2.54147e-05
2.5828e-05
2.6005e-05
2.59567e-05
2.56506e-05
2.50135e-05
2.39421e-05
2.23298e-05
2.01181e-05
1.73427e-05
1.41766e-05
1.09175e-05
7.89845e-06
5.39549e-06
3.59664e-06
2.67966e-06
2.93399e-06
4.99513e-06
9.73294e-06
4.15477e-06
5.66982e-08
2.55706e-07
1.14292e-05
6.30493e-06
4.80554e-06
5.36128e-06
6.24924e-06
6.85193e-06
7.59924e-06
9.21231e-06
1.2259e-05
1.67769e-05
2.20371e-05
2.67018e-05
2.97328e-05
3.11494e-05
3.15391e-05
3.13783e-05
3.09087e-05
3.02274e-05
2.93597e-05
2.82742e-05
2.68855e-05
2.51019e-05
2.28572e-05
2.01054e-05
1.68444e-05
1.31945e-05
9.48142e-06
6.1833e-06
3.71675e-06
2.25045e-06
1.83218e-06
2.83652e-06
3.42296e-06
6.14387e-08
1.83186e-07
5.22335e-06
1.72776e-05
7.58401e-06
4.82045e-06
3.1116e-06
1.64637e-06
1.16262e-06
2.14166e-06
4.67687e-06
9.02217e-06
1.52149e-05
2.24933e-05
2.92185e-05
3.37991e-05
3.58347e-05
3.59121e-05
3.47718e-05
3.29209e-05
3.06284e-05
2.80171e-05
2.51467e-05
2.2075e-05
1.88894e-05
1.57099e-05
1.26692e-05
9.92982e-06
7.63637e-06
5.70487e-06
3.89299e-06
2.46584e-06
1.98013e-06
3.14781e-06
3.23582e-06
9.58939e-08
1.07115e-07
3.1793e-06
1.54195e-05
8.01146e-06
3.78413e-06
1.76482e-06
8.38685e-07
1.15543e-06
2.79629e-06
5.97969e-06
1.09729e-05
1.72222e-05
2.32705e-05
2.81644e-05
3.19338e-05
3.48153e-05
3.68516e-05
3.79579e-05
3.80759e-05
3.72086e-05
3.53911e-05
3.26687e-05
2.91134e-05
2.48898e-05
2.02733e-05
1.5623e-05
1.14016e-05
8.15599e-06
5.96179e-06
4.07863e-06
2.24298e-06
1.26507e-06
1.61791e-06
4.14028e-06
1.23658e-07
8.62192e-08
3.14908e-06
1.28436e-05
5.94882e-06
1.69943e-06
5.1136e-07
8.66981e-07
2.53714e-06
5.75646e-06
1.03664e-05
1.47847e-05
1.77978e-05
2.00147e-05
2.23958e-05
2.53502e-05
2.87457e-05
3.20837e-05
3.47419e-05
3.62198e-05
3.61767e-05
3.43832e-05
3.07703e-05
2.56542e-05
1.9827e-05
1.41421e-05
9.11683e-06
5.09187e-06
2.3658e-06
9.35551e-07
5.56825e-07
8.88055e-07
1.84645e-06
7.42668e-06
2.02192e-06
9.2352e-08
9.9401e-08
1.84331e-06
5.29387e-06
8.73426e-07
2.23861e-07
8.60744e-07
2.66813e-06
5.89187e-06
9.89093e-06
1.31609e-05
1.55063e-05
1.77666e-05
2.0531e-05
2.39072e-05
2.76311e-05
3.12464e-05
3.43312e-05
3.66011e-05
3.78413e-05
3.78054e-05
3.61947e-05
3.27824e-05
2.77412e-05
2.1894e-05
1.62015e-05
1.11253e-05
6.7905e-06
3.45759e-06
1.34497e-06
3.7523e-07
3.70248e-07
1.46921e-06
7.60628e-06
1.7464e-06
5.3663e-08
9.92856e-08
2.09276e-06
4.45156e-06
1.18864e-06
1.07411e-06
2.19962e-06
4.68019e-06
8.28437e-06
1.17533e-05
1.418e-05
1.59112e-05
1.7683e-05
2.00124e-05
2.30598e-05
2.66307e-05
3.02299e-05
3.32531e-05
3.52047e-05
3.57489e-05
3.46797e-05
3.1914e-05
2.7609e-05
2.23535e-05
1.71086e-05
1.26688e-05
9.30591e-06
6.77871e-06
4.57602e-06
2.52833e-06
1.02907e-06
3.8067e-07
7.90348e-07
4.83321e-06
1.55882e-06
5.82329e-08
8.97623e-08
1.59895e-06
3.26654e-06
9.13443e-07
1.20988e-06
2.66278e-06
5.27876e-06
8.29869e-06
1.05726e-05
1.20372e-05
1.3431e-05
1.54168e-05
1.83132e-05
2.20178e-05
2.60591e-05
2.98177e-05
3.28704e-05
3.50306e-05
3.61954e-05
3.62304e-05
3.49315e-05
3.20503e-05
2.74538e-05
2.15297e-05
1.54463e-05
1.0387e-05
6.78921e-06
4.43783e-06
2.84383e-06
1.63737e-06
8.63614e-07
7.75314e-07
2.82203e-06
1.57228e-06
6.83857e-08
8.95116e-08
2.43574e-06
3.1372e-06
2.09327e-06
3.1245e-06
5.60753e-06
8.86516e-06
1.11397e-05
1.19091e-05
1.22294e-05
1.30928e-05
1.49564e-05
1.78776e-05
2.15816e-05
2.55454e-05
2.92216e-05
3.22725e-05
3.44935e-05
3.56859e-05
3.55832e-05
3.38494e-05
3.02161e-05
2.48676e-05
1.87565e-05
1.31073e-05
8.59228e-06
5.30795e-06
3.10855e-06
1.76766e-06
1.03287e-06
7.32944e-07
9.7445e-07
4.0747e-06
1.41045e-06
6.12309e-08
9.41095e-08
4.73027e-06
5.78703e-06
4.40674e-06
5.75887e-06
7.8935e-06
9.15737e-06
9.24698e-06
9.09872e-06
9.46065e-06
1.07197e-05
1.30972e-05
1.66288e-05
2.0999e-05
2.5516e-05
2.94742e-05
3.25157e-05
3.45549e-05
3.55887e-05
3.55804e-05
3.44171e-05
3.18932e-05
2.77629e-05
2.20806e-05
1.57448e-05
1.01689e-05
6.05863e-06
3.34541e-06
1.70788e-06
8.5445e-07
6.05888e-07
9.83052e-07
3.80313e-06
1.40462e-06
4.37944e-08
9.94895e-08
5.13597e-06
9.57504e-06
6.20325e-06
6.50601e-06
7.50164e-06
8.23711e-06
8.48057e-06
8.46656e-06
8.7168e-06
9.77101e-06
1.20505e-05
1.57742e-05
2.0735e-05
2.61083e-05
3.08296e-05
3.42431e-05
3.61666e-05
3.66509e-05
3.58182e-05
3.38275e-05
3.08838e-05
2.72331e-05
2.30959e-05
1.85745e-05
1.38002e-05
9.22902e-06
5.51267e-06
2.96187e-06
1.4598e-06
7.92677e-07
9.13956e-07
2.79111e-06
1.66239e-06
3.55946e-08
9.70721e-08
4.84788e-06
1.34961e-05
7.39597e-06
6.97325e-06
7.65522e-06
8.02873e-06
7.61039e-06
6.91583e-06
6.78213e-06
7.75502e-06
1.01779e-05
1.42727e-05
1.9828e-05
2.57551e-05
3.0691e-05
3.39904e-05
3.57078e-05
3.60962e-05
3.53755e-05
3.36839e-05
3.10867e-05
2.76476e-05
2.35772e-05
1.93105e-05
1.53093e-05
1.17108e-05
8.3823e-06
5.42409e-06
3.18903e-06
1.83139e-06
1.3271e-06
1.91938e-06
2.51183e-06
3.70214e-08
8.40791e-08
3.9769e-06
2.02303e-05
1.08159e-05
8.41569e-06
7.71844e-06
6.87872e-06
5.79877e-06
5.05565e-06
5.0871e-06
6.20631e-06
8.73019e-06
1.29917e-05
1.90056e-05
2.57087e-05
3.1275e-05
3.47275e-05
3.62219e-05
3.62389e-05
3.51835e-05
3.33231e-05
3.08092e-05
2.7716e-05
2.40867e-05
2.00524e-05
1.60026e-05
1.23947e-05
9.41301e-06
6.92456e-06
4.79195e-06
3.16881e-06
2.29817e-06
2.48443e-06
5.26566e-06
4.12323e-08
6.68673e-08
3.47972e-06
1.79057e-05
1.16131e-05
7.86558e-06
6.39422e-06
5.32814e-06
4.3743e-06
3.90663e-06
4.33091e-06
5.97605e-06
9.18069e-06
1.41858e-05
2.05547e-05
2.68409e-05
3.17033e-05
3.4789e-05
3.63294e-05
3.66282e-05
3.59053e-05
3.42809e-05
3.18065e-05
2.85203e-05
2.45548e-05
2.02359e-05
1.6059e-05
1.24054e-05
9.37268e-06
6.90394e-06
4.93033e-06
3.47827e-06
2.69313e-06
3.00938e-06
7.54573e-06
4.67239e-08
5.25281e-08
2.99965e-06
1.40491e-05
1.23856e-05
7.75486e-06
5.39101e-06
3.73414e-06
2.82068e-06
2.94373e-06
4.23955e-06
6.92228e-06
1.11484e-05
1.6596e-05
2.23278e-05
2.74175e-05
3.14607e-05
3.43617e-05
3.61142e-05
3.6748e-05
3.62955e-05
3.47754e-05
3.21917e-05
2.85727e-05
2.40949e-05
1.9248e-05
1.47788e-05
1.12127e-05
8.60671e-06
6.69413e-06
5.12972e-06
3.82957e-06
3.07234e-06
3.53875e-06
9.67206e-06
5.08733e-08
4.74566e-08
2.82255e-06
1.2576e-05
9.16616e-06
4.69341e-06
2.70089e-06
2.00142e-06
2.4165e-06
4.01771e-06
7.08095e-06
1.16598e-05
1.69144e-05
2.16721e-05
2.56466e-05
2.91276e-05
3.22087e-05
3.47255e-05
3.64654e-05
3.72529e-05
3.69425e-05
3.54112e-05
3.25556e-05
2.83899e-05
2.32622e-05
1.794e-05
1.32647e-05
9.62577e-06
7.0027e-06
5.22333e-06
4.07143e-06
3.3724e-06
3.22858e-06
4.5363e-06
5.86333e-06
5.23272e-08
5.14632e-08
2.49369e-06
1.01882e-05
4.65274e-06
2.31451e-06
1.86317e-06
2.60061e-06
4.62378e-06
8.06669e-06
1.20969e-05
1.51954e-05
1.74567e-05
1.99528e-05
2.31682e-05
2.68489e-05
3.04612e-05
3.35333e-05
3.57561e-05
3.69413e-05
3.69162e-05
3.54765e-05
3.24309e-05
2.78074e-05
2.21955e-05
1.66699e-05
1.21276e-05
8.77297e-06
6.40957e-06
4.78278e-06
3.70799e-06
3.11537e-06
3.17064e-06
5.06368e-06
4.32387e-06
5.31309e-08
6.0854e-08
2.38999e-06
6.71793e-06
2.6325e-06
2.12121e-06
2.90137e-06
4.92783e-06
7.90481e-06
1.06282e-05
1.26156e-05
1.4775e-05
1.77988e-05
2.1645e-05
2.57205e-05
2.94172e-05
3.24789e-05
3.48693e-05
3.65499e-05
3.73787e-05
3.71041e-05
3.53943e-05
3.19452e-05
2.67987e-05
2.07424e-05
1.50219e-05
1.04998e-05
7.29295e-06
5.1768e-06
3.87376e-06
3.15069e-06
2.90748e-06
3.31125e-06
6.27787e-06
3.25918e-06
5.12764e-08
7.01299e-08
2.73824e-06
5.26507e-06
2.7437e-06
2.98777e-06
4.52877e-06
7.03964e-06
9.53944e-06
1.13945e-05
1.29653e-05
1.4748e-05
1.70244e-05
1.99426e-05
2.34342e-05
2.71739e-05
3.07412e-05
3.37611e-05
3.5956e-05
3.70996e-05
3.69589e-05
3.52805e-05
3.1883e-05
2.69161e-05
2.10947e-05
1.54367e-05
1.07227e-05
7.20787e-06
4.8188e-06
3.35347e-06
2.60551e-06
2.46669e-06
3.05604e-06
6.49037e-06
2.72982e-06
4.70653e-08
7.65363e-08
3.42584e-06
5.77381e-06
3.47811e-06
4.02127e-06
5.77618e-06
7.98254e-06
9.61193e-06
1.05108e-05
1.13538e-05
1.28397e-05
1.54001e-05
1.91312e-05
2.3638e-05
2.8154e-05
3.20068e-05
3.48759e-05
3.66705e-05
3.73319e-05
3.67547e-05
3.48043e-05
3.14273e-05
2.68454e-05
2.16327e-05
1.64649e-05
1.18612e-05
8.11383e-06
5.33588e-06
3.49835e-06
2.47009e-06
2.1424e-06
2.59148e-06
5.41923e-06
2.59668e-06
4.36411e-08
7.74598e-08
3.75542e-06
7.95841e-06
4.50911e-06
4.95093e-06
6.59126e-06
8.37978e-06
9.36859e-06
9.66687e-06
1.00376e-05
1.11001e-05
1.32158e-05
1.65528e-05
2.09813e-05
2.58804e-05
3.04209e-05
3.39598e-05
3.6207e-05
3.70787e-05
3.65438e-05
3.45833e-05
3.12669e-05
2.69122e-05
2.21153e-05
1.74545e-05
1.32126e-05
9.48769e-06
6.41174e-06
4.14904e-06
2.72496e-06
2.06353e-06
2.20113e-06
4.1263e-06
2.65383e-06
4.21178e-08
7.01358e-08
3.57179e-06
1.37934e-05
6.20288e-06
5.92017e-06
7.03468e-06
8.09203e-06
8.34007e-06
8.05384e-06
8.02979e-06
8.86917e-06
1.09287e-05
1.44248e-05
1.93123e-05
2.49196e-05
3.01302e-05
3.4026e-05
3.62961e-05
3.70142e-05
3.63306e-05
3.43605e-05
3.12203e-05
2.71702e-05
2.27243e-05
1.84546e-05
1.46449e-05
1.12344e-05
8.11221e-06
5.46208e-06
3.55292e-06
2.45967e-06
2.20427e-06
3.30842e-06
3.38947e-06
4.22119e-08
5.90892e-08
3.3623e-06
1.9793e-05
9.24098e-06
7.28715e-06
7.35634e-06
7.45452e-06
7.02394e-06
6.46146e-06
6.44921e-06
7.43504e-06
9.63207e-06
1.3114e-05
1.77785e-05
2.31875e-05
2.85248e-05
3.28648e-05
3.5647e-05
3.67679e-05
3.63366e-05
3.4489e-05
3.13736e-05
2.72844e-05
2.27929e-05
1.85683e-05
1.50002e-05
1.20234e-05
9.31141e-06
6.75344e-06
4.60469e-06
3.16376e-06
2.58126e-06
3.27299e-06
4.80622e-06
4.27393e-08
5.13337e-08
3.16417e-06
1.7889e-05
1.25584e-05
8.81051e-06
7.60501e-06
6.64226e-06
5.58091e-06
5.01322e-06
5.38281e-06
6.87201e-06
9.52321e-06
1.32381e-05
1.77821e-05
2.28187e-05
2.78544e-05
3.21968e-05
3.52344e-05
3.66965e-05
3.6567e-05
3.49049e-05
3.18134e-05
2.76007e-05
2.29503e-05
1.86728e-05
1.52021e-05
1.245e-05
1.00484e-05
7.71705e-06
5.55206e-06
3.91329e-06
3.09516e-06
3.60292e-06
7.58106e-06
4.30314e-08
5.10963e-08
2.98812e-06
1.55559e-05
1.45321e-05
9.22721e-06
6.68025e-06
5.02431e-06
4.10033e-06
4.19709e-06
5.38275e-06
7.66303e-06
1.08533e-05
1.45796e-05
1.86297e-05
2.30237e-05
2.7601e-05
3.17831e-05
3.48727e-05
3.64479e-05
3.63669e-05
3.46026e-05
3.12254e-05
2.66273e-05
2.16964e-05
1.73918e-05
1.4142e-05
1.17691e-05
9.84689e-06
7.99915e-06
6.14654e-06
4.56769e-06
3.70406e-06
4.31131e-06
1.02501e-05
4.15316e-08
5.42136e-08
2.74145e-06
1.33573e-05
1.33199e-05
7.72389e-06
5.05685e-06
3.77859e-06
3.56227e-06
4.42394e-06
6.27713e-06
8.88724e-06
1.18449e-05
1.4955e-05
1.84385e-05
2.25531e-05
2.71267e-05
3.14604e-05
3.4731e-05
3.64415e-05
3.64116e-05
3.45821e-05
3.10134e-05
2.61739e-05
2.11052e-05
1.68305e-05
1.3716e-05
1.15192e-05
9.79253e-06
8.14964e-06
6.47656e-06
5.01632e-06
4.23414e-06
5.0643e-06
1.11747e-05
4.20529e-08
5.77098e-08
2.37535e-06
1.10198e-05
1.06661e-05
5.67391e-06
3.68842e-06
3.10035e-06
3.54839e-06
4.95326e-06
7.14681e-06
9.81199e-06
1.26381e-05
1.56075e-05
1.89949e-05
2.30285e-05
2.75139e-05
3.17354e-05
3.48458e-05
3.6317e-05
3.5927e-05
3.35781e-05
2.93758e-05
2.40295e-05
1.88403e-05
1.48029e-05
1.20944e-05
1.03831e-05
9.21719e-06
8.1357e-06
6.86021e-06
5.57898e-06
4.9243e-06
6.13973e-06
9.44394e-06
4.35917e-08
5.85275e-08
2.06349e-06
9.52772e-06
7.91006e-06
4.13996e-06
2.99077e-06
2.99959e-06
3.95744e-06
5.77505e-06
8.21999e-06
1.08608e-05
1.33679e-05
1.58585e-05
1.88066e-05
2.26257e-05
2.71958e-05
3.167e-05
3.49364e-05
3.63265e-05
3.56452e-05
3.28872e-05
2.82966e-05
2.27591e-05
1.76185e-05
1.37274e-05
1.11189e-05
9.45236e-06
8.36445e-06
7.52504e-06
6.68912e-06
5.88452e-06
5.64554e-06
7.60584e-06
7.05523e-06
4.71411e-08
5.50802e-08
1.81593e-06
8.24021e-06
6.38637e-06
3.44873e-06
2.80473e-06
3.17422e-06
4.41292e-06
6.36128e-06
8.68425e-06
1.09743e-05
1.30976e-05
1.53268e-05
1.81679e-05
2.20531e-05
2.68703e-05
3.16434e-05
3.499e-05
3.61133e-05
3.4898e-05
3.1504e-05
2.64075e-05
2.07367e-05
1.58338e-05
1.23387e-05
1.0108e-05
8.76524e-06
7.9461e-06
7.32333e-06
6.68686e-06
6.12206e-06
6.20311e-06
8.97432e-06
5.78624e-06
5.55226e-08
4.94857e-08
1.77834e-06
8.36915e-06
5.45846e-06
3.23654e-06
2.97191e-06
3.63413e-06
5.11191e-06
7.19177e-06
9.50727e-06
1.16814e-05
1.36277e-05
1.5636e-05
1.82371e-05
2.19463e-05
2.67772e-05
3.17305e-05
3.51224e-05
3.59333e-05
3.41096e-05
3.00046e-05
2.43747e-05
1.86053e-05
1.39667e-05
1.08234e-05
8.86717e-06
7.73737e-06
7.16069e-06
6.88174e-06
6.66811e-06
6.50614e-06
7.03953e-06
1.10187e-05
4.7449e-06
6.79424e-08
4.33206e-08
1.94503e-06
9.52327e-06
5.40799e-06
3.5357e-06
3.50052e-06
4.38695e-06
6.01455e-06
8.06019e-06
1.00818e-05
1.17708e-05
1.31902e-05
1.47254e-05
1.69327e-05
2.03937e-05
2.53074e-05
3.0775e-05
3.4679e-05
3.54859e-05
3.31612e-05
2.83544e-05
2.22179e-05
1.64542e-05
1.22239e-05
9.55655e-06
7.981e-06
7.09104e-06
6.64275e-06
6.49499e-06
6.53517e-06
6.73861e-06
7.82142e-06
1.31286e-05
4.11387e-06
8.66444e-08
3.85584e-08
2.43424e-06
1.21598e-05
5.64457e-06
4.07937e-06
4.26585e-06
5.35411e-06
7.03754e-06
8.91786e-06
1.06098e-05
1.19646e-05
1.31464e-05
1.45318e-05
1.66179e-05
1.99345e-05
2.47524e-05
3.03228e-05
3.43985e-05
3.50245e-05
3.19967e-05
2.61254e-05
1.91988e-05
1.34676e-05
9.79306e-06
7.74458e-06
6.72521e-06
6.32754e-06
6.29205e-06
6.46531e-06
6.75216e-06
7.25882e-06
9.03581e-06
1.58825e-05
3.59254e-06
1.08952e-07
3.6394e-08
3.19567e-06
1.46528e-05
6.28682e-06
4.91057e-06
5.31e-06
6.58097e-06
8.27928e-06
9.92795e-06
1.11717e-05
1.19751e-05
1.26029e-05
1.3463e-05
1.50148e-05
1.77685e-05
2.21316e-05
2.78494e-05
3.29201e-05
3.44412e-05
3.11263e-05
2.37835e-05
1.58386e-05
1.03556e-05
7.39043e-06
5.98668e-06
5.48731e-06
5.54558e-06
5.9779e-06
6.62285e-06
7.34226e-06
8.4379e-06
1.15189e-05
1.74796e-05
3.12245e-06
1.25625e-07
3.78355e-08
4.10606e-06
1.57974e-05
7.06803e-06
5.87648e-06
6.477e-06
7.84768e-06
9.40899e-06
1.06545e-05
1.13565e-05
1.16549e-05
1.19027e-05
1.24862e-05
1.37805e-05
1.61781e-05
2.00492e-05
2.54729e-05
3.1182e-05
3.39153e-05
3.02974e-05
2.08111e-05
1.21718e-05
7.40041e-06
5.225e-06
4.4553e-06
4.52713e-06
5.13439e-06
6.06077e-06
7.11589e-06
8.33067e-06
1.03911e-05
1.53332e-05
1.37258e-05
2.64839e-06
1.24293e-07
4.36601e-08
4.61704e-06
1.68304e-05
8.27714e-06
7.13077e-06
7.89865e-06
9.34897e-06
1.07644e-05
1.15938e-05
1.17068e-05
1.1392e-05
1.10835e-05
1.11608e-05
1.19244e-05
1.36651e-05
1.67052e-05
2.13588e-05
2.73791e-05
3.2227e-05
2.9666e-05
1.84509e-05
9.60625e-06
5.39214e-06
3.62333e-06
3.15461e-06
3.61558e-06
4.8093e-06
6.32821e-06
7.84908e-06
9.68392e-06
1.28025e-05
1.73226e-05
8.95494e-06
2.2004e-06
1.00875e-07
5.27531e-08
4.53188e-06
1.94396e-05
1.02136e-05
8.75994e-06
9.58483e-06
1.10929e-05
1.23944e-05
1.28838e-05
1.24882e-05
1.1603e-05
1.07402e-05
1.02836e-05
1.0475e-05
1.15146e-05
1.36499e-05
1.71603e-05
2.22622e-05
2.82392e-05
3.06334e-05
2.19936e-05
1.12059e-05
5.66311e-06
3.22156e-06
2.27515e-06
2.32171e-06
3.3384e-06
5.25552e-06
7.50319e-06
9.73976e-06
1.26552e-05
1.45235e-05
6.55359e-06
1.89404e-06
6.99317e-08
6.11056e-08
4.1493e-06
2.27141e-05
1.39401e-05
1.13751e-05
1.19332e-05
1.351e-05
1.50008e-05
1.56085e-05
1.49969e-05
1.3445e-05
1.16113e-05
1.01127e-05
9.30114e-06
9.33682e-06
1.03607e-05
1.26014e-05
1.63243e-05
2.15568e-05
2.7288e-05
2.90966e-05
2.02033e-05
1.00713e-05
4.97891e-06
2.6429e-06
1.59825e-06
1.39148e-06
1.99439e-06
3.63271e-06
6.70977e-06
1.09432e-05
1.20187e-05
5.61133e-06
1.79419e-06
4.81462e-08
6.32505e-08
3.72244e-06
2.11157e-05
2.00923e-05
1.57107e-05
1.5171e-05
1.62989e-05
1.79561e-05
1.93993e-05
1.99905e-05
1.92193e-05
1.69703e-05
1.38525e-05
1.09401e-05
9.01764e-06
8.32073e-06
8.89989e-06
1.09743e-05
1.49127e-05
2.0546e-05
2.64221e-05
3.02136e-05
2.6574e-05
1.51751e-05
7.55403e-06
3.92391e-06
2.10495e-06
1.19672e-06
9.21086e-07
1.27428e-06
2.62362e-06
5.68676e-06
4.42857e-06
1.62446e-06
4.3527e-08
5.84687e-08
3.42054e-06
1.72357e-05
2.61494e-05
2.18061e-05
1.97323e-05
1.96209e-05
2.04568e-05
2.16402e-05
2.27591e-05
2.34347e-05
2.32242e-05
2.15947e-05
1.82865e-05
1.40462e-05
1.04098e-05
8.36392e-06
8.09463e-06
9.84566e-06
1.44783e-05
2.21603e-05
2.86028e-05
3.0583e-05
2.97301e-05
2.47998e-05
1.55999e-05
8.49277e-06
4.64979e-06
2.63468e-06
1.59302e-06
1.21229e-06
1.58243e-06
3.40861e-06
1.59273e-06
5.24324e-08
5.06358e-08
3.27175e-06
1.47705e-05
2.94546e-05
2.8265e-05
2.54145e-05
2.38762e-05
2.33841e-05
2.34992e-05
2.38603e-05
2.41304e-05
2.39308e-05
2.28107e-05
2.0423e-05
1.69743e-05
1.33972e-05
1.06657e-05
9.22666e-06
9.37653e-06
1.1912e-05
1.86037e-05
2.94684e-05
3.37164e-05
2.66344e-05
1.95417e-05
1.66443e-05
1.62475e-05
1.44227e-05
9.49021e-06
5.45899e-06
3.32195e-06
2.47252e-06
2.79715e-06
3.09402e-06
6.19554e-08
4.13406e-08
3.22456e-06
1.32709e-05
2.96171e-05
3.25823e-05
3.0335e-05
2.79506e-05
2.62156e-05
2.50629e-05
2.43526e-05
2.38772e-05
2.31564e-05
2.13751e-05
1.80588e-05
1.40571e-05
1.07803e-05
8.86237e-06
8.371e-06
9.55178e-06
1.3465e-05
2.20661e-05
3.25058e-05
3.32139e-05
2.73126e-05
2.18939e-05
1.7837e-05
1.46655e-05
1.2567e-05
1.14585e-05
9.94288e-06
7.00048e-06
4.64791e-06
3.9932e-06
6.61524e-06
6.60844e-08
3.27805e-08
3.33198e-06
1.26618e-05
2.8435e-05
3.20474e-05
3.15518e-05
2.78178e-05
2.48542e-05
2.32122e-05
2.21671e-05
2.0273e-05
1.67831e-05
1.28481e-05
9.8062e-06
7.97308e-06
7.19493e-06
7.37648e-06
8.74215e-06
1.21832e-05
1.93603e-05
2.83346e-05
2.95473e-05
2.4827e-05
2.01732e-05
1.70075e-05
1.5065e-05
1.39702e-05
1.33137e-05
1.25686e-05
1.11847e-05
8.82177e-06
6.35166e-06
5.62511e-06
1.2962e-05
7.39686e-08
2.73191e-08
3.70858e-06
1.37185e-05
2.67169e-05
3.00153e-05
3.07795e-05
2.81434e-05
2.37597e-05
1.72041e-05
1.15556e-05
8.0713e-06
6.23527e-06
5.45544e-06
5.40149e-06
6.01407e-06
7.46648e-06
1.02951e-05
1.58317e-05
2.367e-05
2.56774e-05
2.19768e-05
1.8178e-05
1.56804e-05
1.43602e-05
1.39269e-05
1.41187e-05
1.45905e-05
1.48709e-05
1.44229e-05
1.27414e-05
1.00056e-05
7.70364e-06
7.77628e-06
1.47759e-05
8.47558e-08
2.77283e-08
4.28813e-06
1.42841e-05
2.57348e-05
2.78927e-05
2.11419e-05
1.07666e-05
6.03989e-06
4.22342e-06
3.6847e-06
3.85362e-06
4.6088e-06
6.0559e-06
8.49488e-06
1.28717e-05
2.06433e-05
2.63923e-05
2.27383e-05
1.77136e-05
1.44012e-05
1.25682e-05
1.18721e-05
1.21971e-05
1.35795e-05
1.60392e-05
1.91822e-05
2.17668e-05
2.20956e-05
1.96057e-05
1.55005e-05
1.17286e-05
9.95095e-06
1.17507e-05
6.78698e-06
8.00711e-08
3.50093e-08
3.91376e-06
1.2026e-05
1.51525e-05
7.31599e-06
3.7703e-06
2.84303e-06
3.04342e-06
3.97857e-06
5.66264e-06
8.45213e-06
1.3612e-05
2.36778e-05
3.33091e-05
2.93205e-05
2.18363e-05
1.61896e-05
1.25906e-05
1.0745e-05
1.04299e-05
1.17381e-05
1.50922e-05
2.07514e-05
2.7545e-05
3.26983e-05
3.39805e-05
3.11822e-05
2.59906e-05
2.05022e-05
1.59578e-05
1.30158e-05
1.25061e-05
1.45996e-05
4.51312e-06
7.27969e-08
4.82525e-08
3.63193e-06
1.02065e-05
4.61671e-06
3.03167e-06
3.19669e-06
4.56388e-06
7.423e-06
1.27462e-05
2.15593e-05
3.08076e-05
3.40575e-05
3.36736e-05
3.28591e-05
2.70629e-05
1.73066e-05
1.18613e-05
1.057e-05
1.21691e-05
1.658e-05
2.32778e-05
2.95858e-05
3.30141e-05
3.35481e-05
3.22416e-05
2.98806e-05
2.68862e-05
2.35167e-05
2.00498e-05
1.6979e-05
1.5041e-05
1.50252e-05
1.34743e-05
3.48978e-06
7.35169e-08
6.44583e-08
5.05623e-06
6.34491e-06
4.01642e-06
4.45376e-06
6.97637e-06
1.16119e-05
1.4264e-05
1.32697e-05
1.32306e-05
1.65745e-05
2.56701e-05
3.79451e-05
3.49024e-05
2.25161e-05
1.49053e-05
1.18715e-05
1.1323e-05
1.23416e-05
1.48366e-05
1.88479e-05
2.36371e-05
2.76108e-05
2.97305e-05
3.00739e-05
2.91408e-05
2.73755e-05
2.50759e-05
2.25231e-05
2.01339e-05
1.84713e-05
1.76288e-05
1.21439e-05
3.04619e-06
7.59448e-08
7.93966e-08
8.86044e-06
6.36118e-06
5.11934e-06
6.73554e-06
1.04159e-05
1.38162e-05
1.53696e-05
1.59104e-05
1.58506e-05
1.59171e-05
1.75845e-05
2.25473e-05
3.0021e-05
2.79045e-05
1.68772e-05
1.09304e-05
8.98801e-06
9.02792e-06
1.04053e-05
1.31661e-05
1.75553e-05
2.30525e-05
2.73009e-05
2.81972e-05
2.66936e-05
2.4789e-05
2.3516e-05
2.29304e-05
2.26246e-05
2.20955e-05
2.00595e-05
1.11463e-05
2.82538e-06
7.35225e-08
8.65624e-08
8.9186e-06
8.48722e-06
6.47487e-06
8.27254e-06
1.2448e-05
1.63715e-05
1.76406e-05
1.69044e-05
1.54802e-05
1.41371e-05
1.33838e-05
1.37211e-05
1.57383e-05
1.97223e-05
2.27426e-05
1.72703e-05
1.04861e-05
7.53051e-06
6.65173e-06
6.80449e-06
7.74689e-06
9.56876e-06
1.26881e-05
1.7679e-05
2.40904e-05
2.83471e-05
2.74895e-05
2.42488e-05
2.17211e-05
2.04994e-05
1.86739e-05
1.01845e-05
2.64889e-06
6.41721e-08
8.79348e-08
7.72571e-06
1.03096e-05
8.25068e-06
1.09327e-05
1.7489e-05
2.54682e-05
3.05407e-05
3.07432e-05
2.67809e-05
2.08149e-05
1.53408e-05
1.17657e-05
1.00734e-05
9.77873e-06
1.07171e-05
1.3312e-05
1.74348e-05
1.56137e-05
9.29486e-06
6.16101e-06
4.8017e-06
4.17089e-06
4.13301e-06
4.71537e-06
6.00693e-06
8.43416e-06
1.31394e-05
2.15699e-05
2.97516e-05
2.906e-05
2.17431e-05
1.09211e-05
3.1296e-06
5.30507e-08
9.91087e-08
5.55331e-06
1.22641e-05
9.27122e-06
1.12351e-05
1.72353e-05
2.62944e-05
3.58256e-05
4.37279e-05
4.90196e-05
5.01764e-05
4.53508e-05
3.607e-05
2.63971e-05
1.75941e-05
1.1316e-05
8.54004e-06
8.01554e-06
8.72058e-06
1.0646e-05
1.50539e-05
1.63557e-05
8.43408e-06
4.63772e-06
3.19933e-06
2.57608e-06
2.39566e-06
2.6419e-06
3.35819e-06
4.77017e-06
7.44846e-06
1.02077e-05
6.82458e-06
2.37098e-06
4.76703e-08
9.29615e-08
3.5213e-06
1.57854e-05
1.37408e-05
1.26043e-05
1.45523e-05
1.83444e-05
2.32117e-05
2.84196e-05
3.33066e-05
3.77062e-05
4.20756e-05
4.69573e-05
5.13313e-05
4.99529e-05
4.62354e-05
3.21542e-05
2.2198e-05
1.61776e-05
1.04574e-05
7.36435e-06
7.1826e-06
9.46905e-06
1.47289e-05
1.51946e-05
8.69894e-06
5.45579e-06
4.10225e-06
3.35898e-06
2.89379e-06
2.72511e-06
2.97183e-06
3.81076e-06
2.24925e-06
4.04064e-08
6.47433e-08
2.26123e-06
8.28308e-06
2.00847e-05
2.1499e-05
2.15867e-05
2.29868e-05
2.52444e-05
2.77841e-05
3.01602e-05
3.21377e-05
3.37305e-05
3.50972e-05
3.63039e-05
3.72363e-05
3.79569e-05
3.83487e-05
3.76792e-05
3.55817e-05
3.29716e-05
2.77329e-05
1.94053e-05
1.41535e-05
1.2202e-05
1.08542e-05
1.02724e-05
1.43097e-05
2.80527e-05
2.30424e-05
1.10733e-05
6.73598e-06
5.01883e-06
4.23407e-06
3.8441e-06
2.68779e-08
3.26205e-08
1.40318e-06
3.70048e-06
8.70093e-06
1.58893e-05
2.07706e-05
2.25535e-05
2.28053e-05
2.27141e-05
2.30577e-05
2.43123e-05
2.68176e-05
3.07779e-05
3.59223e-05
4.09529e-05
4.3685e-05
4.24063e-05
3.74254e-05
3.10716e-05
2.5483e-05
2.13272e-05
1.85274e-05
1.71747e-05
1.84651e-05
2.49231e-05
3.14701e-05
2.90628e-05
1.89555e-05
1.42842e-05
1.33506e-05
1.46263e-05
1.38897e-05
9.51192e-06
5.77564e-06
2.80948e-08
1.45137e-08
1.69633e-06
3.95753e-06
7.98422e-06
1.38713e-05
1.99515e-05
2.45863e-05
2.70087e-05
2.7073e-05
2.52658e-05
2.25182e-05
1.97726e-05
1.74944e-05
1.56751e-05
1.40888e-05
1.27206e-05
1.17054e-05
1.10973e-05
1.10052e-05
1.15125e-05
1.25267e-05
1.39043e-05
1.55589e-05
1.74616e-05
1.93474e-05
2.02779e-05
1.92577e-05
1.72569e-05
1.56356e-05
1.4311e-05
1.25882e-05
1.02422e-05
8.42946e-06
7.5691e-06
5.25616e-08
2.14851e-08
1.69209e-06
3.61555e-06
6.42982e-06
8.92371e-06
8.52438e-06
6.94403e-06
5.83139e-06
5.20643e-06
4.85129e-06
4.67447e-06
4.6729e-06
4.83686e-06
5.10928e-06
5.43362e-06
5.86641e-06
6.59713e-06
7.93881e-06
1.02791e-05
1.32085e-05
1.45591e-05
1.39178e-05
1.30828e-05
1.28752e-05
1.32799e-05
1.38195e-05
1.39621e-05
1.41245e-05
1.48484e-05
1.56933e-05
1.58355e-05
1.53313e-05
1.49281e-05
9.76835e-06
9.9807e-08
4.45892e-08
2.11857e-06
6.75593e-06
5.22272e-06
4.2104e-06
4.00859e-06
4.1974e-06
4.69239e-06
5.45668e-06
6.48073e-06
8.0182e-06
1.08976e-05
1.60754e-05
1.89091e-05
1.56733e-05
1.34122e-05
1.29707e-05
1.30785e-05
1.27658e-05
1.30752e-05
1.56764e-05
2.13986e-05
2.80759e-05
3.09474e-05
3.07165e-05
3.14538e-05
3.52985e-05
4.15431e-05
4.27312e-05
3.46143e-05
2.793e-05
2.65282e-05
2.60772e-05
8.18422e-06
8.25387e-08
3.16242e-08
3.44082e-06
3.1912e-06
3.66805e-06
4.75258e-06
6.42056e-06
9.53576e-06
1.69077e-05
2.79783e-05
2.29626e-05
1.41495e-05
9.05953e-06
7.20192e-06
8.41711e-06
1.42533e-05
2.35657e-05
2.40737e-05
2.24518e-05
2.55815e-05
3.6614e-05
5.64989e-05
5.71551e-05
5.78746e-05
5.86276e-05
5.93989e-05
6.01695e-05
6.08813e-05
4.70583e-05
3.60751e-05
2.98488e-05
2.70963e-05
2.79011e-05
2.89685e-05
9.44219e-06
9.10282e-08
1.58896e-08
2.41016e-06
4.14989e-06
8.1244e-06
2.10319e-05
3.26392e-05
1.3982e-05
8.76049e-06
9.05283e-06
1.38939e-05
2.30198e-05
3.30731e-05
4.31819e-05
4.52727e-05
3.73428e-05
3.67438e-05
4.2478e-05
5.09465e-05
5.17421e-05
5.24821e-05
5.0891e-05
4.74638e-05
4.63136e-05
4.60336e-05
4.55869e-05
4.44812e-05
4.23006e-05
3.90189e-05
3.50848e-05
3.1319e-05
2.89637e-05
2.86892e-05
2.61389e-05
8.12474e-06
1.24009e-07
2.42489e-08
3.38784e-06
7.53707e-06
1.48328e-05
2.47645e-05
3.38698e-05
3.46516e-05
3.11618e-05
1.85656e-05
1.39451e-05
1.36059e-05
1.54769e-05
1.91429e-05
2.46297e-05
3.15696e-05
3.88964e-05
4.5482e-05
5.0482e-05
5.13705e-05
5.21984e-05
5.30198e-05
5.38876e-05
5.48419e-05
5.58958e-05
5.70245e-05
5.5893e-05
4.90884e-05
4.21266e-05
3.55259e-05
3.02572e-05
2.75814e-05
2.78865e-05
2.61204e-05
7.34637e-06
1.56316e-07
3.59774e-08
4.69918e-06
9.70633e-06
1.6677e-05
2.53709e-05
3.02907e-05
3.1329e-05
3.10926e-05
2.92715e-05
2.66774e-05
2.50749e-05
2.49133e-05
2.54686e-05
2.67587e-05
2.95354e-05
3.49507e-05
4.38728e-05
5.08113e-05
5.19686e-05
5.29053e-05
5.36426e-05
5.16515e-05
4.32778e-05
3.7989e-05
3.72512e-05
3.98148e-05
4.26619e-05
4.2697e-05
4.00416e-05
3.6925e-05
3.50277e-05
3.35115e-05
2.24192e-05
5.57058e-06
1.49701e-07
4.69545e-08
6.74697e-06
6.60063e-06
7.53886e-06
9.48169e-06
1.22364e-05
1.73679e-05
2.67477e-05
3.20982e-05
2.48644e-05
1.91141e-05
1.63112e-05
1.4223e-05
1.25341e-05
1.14632e-05
1.11942e-05
1.19311e-05
1.38891e-05
1.75949e-05
2.48615e-05
3.95387e-05
5.5059e-05
5.62589e-05
5.68475e-05
4.6638e-05
3.71886e-05
3.16535e-05
2.94072e-05
2.89643e-05
2.9107e-05
2.86737e-05
2.48388e-05
1.26739e-05
3.65087e-06
1.0548e-07
6.2963e-08
8.58827e-06
1.64712e-05
1.50137e-05
1.29549e-05
1.04784e-05
8.73506e-06
8.42299e-06
9.63669e-06
1.1195e-05
1.2144e-05
1.3703e-05
1.63183e-05
1.70116e-05
1.11715e-05
6.26535e-06
4.33179e-06
3.88323e-06
4.17412e-06
5.02045e-06
6.47772e-06
8.69826e-06
1.21616e-05
1.86191e-05
3.16123e-05
4.74859e-05
4.94118e-05
4.20422e-05
3.36276e-05
2.7494e-05
2.38874e-05
2.02384e-05
1.08e-05
3.18037e-06
7.64563e-08
4.569e-08
7.95577e-06
2.65201e-05
2.67916e-05
2.64926e-05
2.86236e-05
2.85776e-05
2.38639e-05
2.09416e-05
2.03327e-05
1.77015e-05
1.29815e-05
9.86559e-06
8.94278e-06
9.66313e-06
1.0773e-05
1.05929e-05
8.97031e-06
6.35746e-06
4.43649e-06
3.43642e-06
3.00418e-06
3.01528e-06
3.52274e-06
4.71522e-06
6.99225e-06
1.13433e-05
1.96236e-05
2.91762e-05
3.07157e-05
2.64883e-05
1.90733e-05
9.97291e-06
3.33013e-06
6.35398e-08
4.55155e-08
5.87738e-06
2.63236e-05
3.33778e-05
2.93776e-05
2.5782e-05
2.42572e-05
2.46794e-05
2.68467e-05
3.04952e-05
3.4976e-05
3.62707e-05
2.85767e-05
1.98829e-05
1.60895e-05
1.47566e-05
1.23507e-05
1.06826e-05
1.15515e-05
1.69638e-05
2.64401e-05
1.5187e-05
6.95107e-06
3.964e-06
2.94979e-06
2.76418e-06
3.07278e-06
3.83102e-06
5.09687e-06
7.08847e-06
1.02907e-05
1.23679e-05
7.11104e-06
2.37314e-06
7.80278e-08
2.89045e-08
3.61754e-06
1.36319e-05
2.68387e-05
3.05288e-05
3.3375e-05
3.42499e-05
3.46018e-05
3.47696e-05
3.44419e-05
3.34281e-05
3.17703e-05
2.95592e-05
2.69819e-05
2.45566e-05
2.37124e-05
2.60842e-05
2.85279e-05
2.37262e-05
1.86456e-05
1.68794e-05
1.76617e-05
2.10215e-05
2.61556e-05
2.6129e-05
1.78446e-05
1.07383e-05
7.00914e-06
5.27397e-06
4.55951e-06
4.54013e-06
5.71384e-06
1.13088e-05
3.26814e-06
8.29933e-08
1.73495e-08
3.00807e-06
8.09141e-06
1.45203e-05
1.94414e-05
2.15331e-05
2.07324e-05
1.8154e-05
1.53943e-05
1.32703e-05
1.18274e-05
1.09702e-05
1.06757e-05
1.09696e-05
1.19199e-05
1.35493e-05
1.57601e-05
1.84153e-05
2.12261e-05
2.31257e-05
2.30108e-05
2.14914e-05
1.98137e-05
1.85899e-05
1.80661e-05
1.83599e-05
1.94209e-05
2.07447e-05
2.04848e-05
1.63202e-05
1.07281e-05
7.96281e-06
9.56071e-06
1.53147e-05
9.87456e-08
2.56586e-08
2.93418e-06
9.52437e-06
9.86721e-06
7.93452e-06
6.96838e-06
6.56533e-06
6.48544e-06
6.69115e-06
7.18317e-06
7.95441e-06
9.147e-06
1.11873e-05
1.47181e-05
1.93304e-05
2.12984e-05
1.97182e-05
1.79669e-05
1.72174e-05
1.7175e-05
1.73821e-05
1.78693e-05
1.92477e-05
2.20846e-05
2.6277e-05
3.07673e-05
3.38891e-05
3.43296e-05
3.14167e-05
2.57811e-05
1.9888e-05
1.70984e-05
1.98312e-05
8.04924e-06
1.0309e-07