/*--------------------------------*- C++ -*----------------------------------*\
| =========                 |                                                 |
| \\      /  F ield         | OpenFOAM: The Open Source CFD Toolbox           |
|  \\    /   O peration     | Version:  v2006                                 |
|   \\  /    A nd           | Website:  www.openfoam.com                      |
|    \\/     M anipulation  |                                                 |
\*---------------------------------------------------------------------------*/
FoamFile
{
    version     2.0;
    format      ascii;
    class       volScalarField;
    location    "14";
    object      omega;
}
// * * * * * * * * * * * * * * * * * * * * * * * * * * * * * * * * * * * * * //

dimensions      [0 0 -1 0 0 0 0];


internalField   nonuniform List<scalar> 
78750
(
361.16
13.9862
14.519
14.4212
14.4744
14.4956
14.5227
14.5483
14.5728
14.5953
14.6138
14.6272
14.6353
14.6383
14.6365
14.63
14.619
14.6032
14.5825
14.5564
14.5248
14.487
14.4427
14.3919
14.335
14.2729
14.2076
14.1427
14.0812
14.0246
13.9724
13.923
13.8678
13.7889
355.608
527.58
5.13603
5.38398
5.5317
5.62769
5.69618
5.74827
5.79299
5.83495
5.87328
5.90468
5.92751
5.94159
5.94731
5.94488
5.93421
5.91488
5.88655
5.84844
5.7998
5.73969
5.66691
5.5804
5.47935
5.36344
5.23401
5.09637
4.96332
4.85456
4.78073
4.72008
4.63437
4.52071
4.39366
522.42
527.857
5.26445
5.46285
5.5091
5.53594
5.57315
5.61753
5.66916
5.72915
5.79221
5.85049
5.89959
5.93882
5.96889
5.99052
6.00417
6.00995
6.00764
5.99656
5.97548
5.94257
5.8952
5.82968
5.74095
5.6225
5.46701
5.26903
5.03302
4.79121
4.61944
4.58852
4.64671
4.66659
4.5737
523.115
528.245
5.21856
5.2319
5.20519
5.20161
5.19994
5.20597
5.25588
5.37616
5.54072
5.69634
5.81787
5.906
5.96863
6.01231
6.0413
6.05834
6.06524
6.06318
6.05276
6.03407
6.00679
5.96983
5.92078
5.85532
5.76616
5.64171
5.46552
5.22051
4.91288
4.61923
4.46455
4.45739
4.4425
523.379
527.96
5.04147
5.07351
5.02395
4.8945
4.68884
4.45674
4.3788
4.62369
5.03991
5.41836
5.68641
5.85763
5.96547
6.03423
6.0778
6.10327
6.11405
6.11166
6.09654
6.06853
6.02691
5.97034
5.89684
5.80387
5.68849
5.54903
5.38717
5.20405
4.98768
4.74661
4.5739
4.53536
4.52048
523.796
527.66
4.77304
4.82384
4.78631
4.66703
4.47135
4.31689
4.44575
4.86128
5.31008
5.64305
5.8506
5.97502
6.05237
6.10303
6.1368
6.15817
6.16884
6.16921
6.15862
6.13609
6.10036
6.0489
5.97773
5.8808
5.75038
5.58002
5.3773
5.17381
4.97509
4.73541
4.51396
4.46798
4.53172
523.84
527.578
4.66176
4.70878
4.62729
4.41392
4.23264
4.38361
4.84047
5.30232
5.61642
5.80095
5.91487
5.99479
6.05611
6.10377
6.13889
6.16116
6.16915
6.16199
6.13887
6.09835
6.0378
5.953
5.83627
5.67387
5.44486
5.1271
4.73335
4.37937
4.24642
4.30279
4.39336
4.47268
4.51821
524.425
527.633
4.50857
4.41649
4.24116
4.14594
4.38813
4.87831
5.33484
5.63892
5.82766
5.95366
6.04429
6.11209
6.16385
6.20355
6.23292
6.25172
6.25912
6.25436
6.23641
6.20372
6.15387
6.08303
5.98599
5.8518
5.66102
5.38028
4.98208
4.51882
4.19734
4.1735
4.304
4.40362
4.42025
524.792
527.633
4.52352
4.46495
4.38062
4.45955
4.80175
5.21136
5.51375
5.70375
5.82327
5.90489
5.9692
6.02755
6.08261
6.13223
6.1723
6.19906
6.21072
6.20611
6.18411
6.14298
6.08009
5.99203
5.87614
5.73033
5.55713
5.35822
5.11311
4.78296
4.40692
4.18486
4.22016
4.33135
4.37594
525.232
527.597
4.45526
4.37694
4.32387
4.48878
4.85434
5.23499
5.52151
5.71417
5.84568
5.94604
6.03323
6.11377
6.18559
6.24593
6.29185
6.32233
6.33735
6.33674
6.31981
6.28501
6.22937
6.14771
6.03187
5.8728
5.66304
5.41016
5.14164
4.87375
4.59203
4.34614
4.25486
4.30489
4.36208
525.503
527.596
4.50034
4.54096
4.69206
5.01354
5.37447
5.63361
5.77256
5.83642
5.87152
5.91138
5.9683
6.03624
6.10389
6.16309
6.20799
6.23697
6.24955
6.2453
6.22338
6.18212
6.11834
6.02661
5.89868
5.72449
5.49276
5.20315
4.8861
4.60205
4.39655
4.28297
4.26347
4.31613
4.36118
525.818
527.616
4.65873
4.81733
5.03804
5.29845
5.49314
5.59971
5.64943
5.68664
5.74571
5.83892
5.95543
6.07404
6.17908
6.2638
6.32668
6.36937
6.39339
6.39933
6.38694
6.35485
6.30034
6.2185
6.10068
5.93342
5.70153
5.39085
5.01652
4.64463
4.37356
4.26149
4.26831
4.31902
4.33921
526.335
527.639
4.76569
4.95892
5.15388
5.34583
5.48147
5.56381
5.61199
5.64481
5.68825
5.76332
5.86909
5.98503
6.09128
6.17825
6.24387
6.29011
6.31899
6.3317
6.32873
6.30977
6.27361
6.21799
6.13909
6.02998
5.87713
5.65587
5.34202
4.95036
4.56924
4.33104
4.28094
4.31355
4.31751
526.82
527.63
4.80067
5.00754
5.19579
5.36823
5.47267
5.50856
5.49901
5.4786
5.50032
5.59966
5.76031
5.93515
6.08996
6.21082
6.29934
6.3609
6.39976
6.41863
6.41913
6.40197
6.36703
6.3133
6.23889
6.14168
6.02033
5.86928
5.66902
5.39038
5.03166
4.6711
4.43941
4.35376
4.31519
526.808
527.579
4.77595
4.9726
5.13458
5.27909
5.35187
5.348
5.30106
5.27143
5.3159
5.46046
5.66835
5.87755
6.05233
6.18348
6.2765
6.33972
6.37936
6.39922
6.40158
6.38754
6.35717
6.3094
6.24174
6.15056
6.03311
5.88699
5.71167
5.50591
5.2594
4.97232
4.70234
4.51338
4.38974
526.546
527.51
4.71548
4.90658
5.04941
5.16601
5.21683
5.19553
5.13988
5.12571
5.22643
5.44476
5.70489
5.9374
6.11718
6.24524
6.33297
6.3904
6.42419
6.43848
6.43578
6.41749
6.38396
6.33452
6.26743
6.18006
6.07012
5.93494
5.76785
5.56306
5.32
5.05151
4.79766
4.59684
4.4462
526.543
527.452
4.63124
4.81401
4.93734
5.01983
5.03017
4.96143
4.90134
4.98777
5.24504
5.56962
5.85588
6.06813
6.21509
6.31378
6.37844
6.41814
6.4382
6.44157
6.42977
6.40307
6.36075
6.30094
6.22057
6.11609
5.98677
5.83403
5.66357
5.48278
5.28891
5.0742
4.85424
4.65639
4.49238
526.565
527.432
4.57003
4.7232
4.80407
4.81739
4.75993
4.7359
4.90705
5.25953
5.64198
5.93884
6.13244
6.25597
6.33777
6.3941
6.4323
6.4555
6.46491
6.46104
6.44377
6.41242
6.36551
6.30042
6.21307
6.09859
5.95452
5.77846
5.57297
5.35222
5.1376
4.94384
4.78222
4.63558
4.49324
526.932
527.449
4.51973
4.62232
4.65051
4.63543
4.69003
4.94537
5.33679
5.69021
5.92498
6.0681
6.16731
6.24907
6.3201
6.37754
6.41925
6.44505
6.45533
6.45043
6.43031
6.3942
6.34037
6.26568
6.16564
6.03597
5.87765
5.69248
5.4875
5.27441
5.06777
4.88525
4.73939
4.61205
4.48553
527.448
527.488
4.49292
4.56969
4.62039
4.73756
5.01447
5.38653
5.69367
5.89561
6.03548
6.14953
6.24856
6.33216
6.39684
6.44311
6.47313
6.48867
6.49064
6.47913
6.45343
6.41191
6.35164
6.2679
6.15406
6.00345
5.81532
5.59286
5.35366
5.12744
4.93889
4.79758
4.68365
4.57849
4.46824
528.078
527.527
4.51615
4.6146
4.74015
4.96678
5.27948
5.56595
5.76948
5.91138
6.01719
6.10402
6.18144
6.2536
6.31881
6.37261
6.41321
6.44017
6.45337
6.45243
6.43651
6.40399
6.35204
6.27611
6.16962
6.02468
5.83575
5.59938
5.32816
5.06055
4.84634
4.71166
4.6203
4.53699
4.44283
528.629
527.555
4.57657
4.7164
4.89593
5.1476
5.41812
5.63798
5.78811
5.89103
5.97513
6.06079
6.15304
6.24534
6.32683
6.39128
6.43823
6.46898
6.48467
6.48578
6.47209
6.44246
6.39462
6.32483
6.22767
6.09607
5.92257
5.69807
5.42044
5.11688
4.84872
4.67334
4.57664
4.50345
4.41963
528.901
527.56
4.63202
4.79765
4.98505
5.21516
5.43365
5.60105
5.70874
5.77873
5.84126
5.91909
6.01603
6.12057
6.21947
6.30103
6.3631
6.40704
6.43455
6.44665
6.44353
6.42452
6.38797
6.33108
6.24989
6.13946
5.99385
5.80311
5.55413
5.25133
4.94005
4.69793
4.56243
4.48138
4.40225
529.006
527.532
4.65652
4.83445
5.01539
5.23025
5.41333
5.53703
5.60599
5.64383
5.68976
5.77642
5.90345
6.04438
6.17532
6.28087
6.35952
6.41482
6.4504
6.46865
6.47079
6.45696
6.4263
6.37689
6.30589
6.20999
6.08605
5.9282
5.72156
5.45463
5.14095
4.8421
4.63567
4.50993
4.41044
528.969
527.487
4.65388
4.83429
4.99973
5.18997
5.33938
5.42219
5.45101
5.46401
5.51458
5.63504
5.80314
5.97414
6.12166
6.23689
6.32114
6.37964
6.41727
6.43733
6.44166
6.43085
6.40442
6.36089
6.29803
6.21354
6.10631
5.97249
5.80076
5.57881
5.30287
5.00258
4.74908
4.57099
4.43668
528.846
527.456
4.62808
4.82049
4.98225
5.14297
5.25739
5.30085
5.29585
5.31512
5.42127
5.60999
5.82039
6.005
6.15167
6.26249
6.34282
6.39841
6.43386
6.45222
6.45518
6.44328
6.4161
6.37238
6.31046
6.22936
6.12988
6.01039
5.86174
5.67082
5.42846
5.14604
4.87256
4.65108
4.47867
528.604
527.455
4.6132
4.80687
4.95378
5.07515
5.14124
5.14133
5.13551
5.22985
5.43363
5.67475
5.88653
6.05069
6.17564
6.27051
6.34024
6.38875
6.4192
6.43379
6.43373
6.41918
6.38937
6.34271
6.2775
6.19372
6.09463
5.97847
5.83827
5.66381
5.44664
5.19093
4.93004
4.69679
4.50506
528.356
527.468
4.59789
4.77593
4.89835
4.98126
5.00923
5.00833
5.07515
5.27009
5.52257
5.7532
5.93551
6.07632
6.18787
6.27615
6.34255
6.38911
6.41821
6.43174
6.43073
6.41525
6.38451
6.33702
6.2717
6.18999
6.09706
5.9921
5.86696
5.7074
5.50082
5.25067
4.98924
4.74585
4.53659
528.245
527.483
4.5724
4.72375
4.81773
4.86907
4.8865
4.93388
5.09466
5.34685
5.60009
5.80912
5.97143
6.09754
6.19806
6.27758
6.33712
6.37824
6.40277
6.41202
6.40651
6.38572
6.34817
6.2917
6.21537
6.12315
6.0234
5.91909
5.80647
5.67168
5.49637
5.27377
5.02825
4.78849
4.56774
528.255
527.488
4.53889
4.66216
4.73522
4.77746
4.8223
4.9379
5.16192
5.42499
5.65828
5.84215
5.98332
6.09442
6.18592
6.26189
6.32104
6.36305
6.38881
6.39927
6.39473
6.37444
6.3366
6.27877
6.2001
6.10543
6.00238
5.89486
5.78106
5.65049
5.48807
5.2864
5.05662
4.82593
4.59968
528.41
527.475
4.50104
4.6049
4.66851
4.71956
4.8021
4.96245
5.20364
5.45301
5.66548
5.83366
5.96583
6.07258
6.16221
6.238
6.29723
6.33879
6.36336
6.37192
6.36466
6.34061
6.29755
6.23279
6.14641
6.04672
5.9429
5.84228
5.74397
5.63483
5.49611
5.31701
5.09791
4.87128
4.64204
528.61
527.453
4.47633
4.57574
4.64553
4.7224
4.84662
5.04118
5.28869
5.52465
5.71935
5.8707
5.98785
6.08188
6.16188
6.23149
6.28717
6.32644
6.34902
6.35539
6.34542
6.31767
6.26925
6.19697
6.10169
5.99406
5.88304
5.77869
5.68508
5.5938
5.4852
5.33493
5.12978
4.91062
4.68532
528.896
527.429
4.46659
4.57446
4.65928
4.76392
4.9155
5.12071
5.35207
5.5608
5.729
5.85931
5.96186
6.04722
6.12338
6.19338
6.25096
6.29137
6.3134
6.31756
6.30385
6.27065
6.21462
6.13294
6.03046
5.92069
5.81541
5.72222
5.64164
5.56772
5.48484
5.35812
5.16762
4.95782
4.74019
529.247
527.41
4.47632
4.6021
4.70904
4.84613
5.02361
5.23917
5.45793
5.64552
5.79316
5.90634
5.99519
6.06975
6.13786
6.20081
6.2517
6.28489
6.2985
6.29266
6.26692
6.21851
6.14227
6.03558
5.9112
5.79023
5.69123
5.62141
5.57482
5.53828
5.48384
5.37373
5.19347
4.99494
4.79216
529.659
527.402
4.50029
4.64742
4.7785
4.94634
5.14279
5.35639
5.55257
5.70979
5.82713
5.91359
5.98095
6.04041
6.09932
6.15863
6.20824
6.23899
6.24689
6.2316
6.19231
6.12427
6.01919
5.87737
5.72744
5.60264
5.52401
5.49141
5.49254
5.50111
5.4735
5.37635
5.2073
5.01969
4.82942
530.154
527.409
4.54107
4.71286
4.8709
5.06799
5.27851
5.483
5.65432
5.78226
5.87233
5.93624
5.98721
6.0362
6.08928
6.145
6.19091
6.2156
6.21321
6.18252
6.12154
6.02121
5.86805
5.672
5.48804
5.37206
5.3424
5.37451
5.43191
5.46917
5.45031
5.35662
5.20153
5.02016
4.82836
530.672
527.434
4.59683
4.79103
4.97138
5.18807
5.39937
5.58145
5.71996
5.81338
5.87114
5.90718
5.93614
5.97032
6.01587
6.07079
6.12187
6.15236
6.15171
6.1158
6.04102
5.91348
5.71374
5.46027
5.23348
5.11945
5.14548
5.2554
5.35947
5.40618
5.38423
5.29429
5.15483
4.9774
4.7727
531.161
527.472
4.65836
4.86621
5.05924
5.28774
5.49484
5.6548
5.76464
5.83052
5.86337
5.87663
5.88516
5.90275
5.93785
5.99036
6.05171
6.10272
6.1266
6.11299
6.05627
5.9445
5.75223
5.47167
5.1667
4.94733
4.90412
5.02643
5.18763
5.27256
5.26162
5.17996
5.05336
4.88506
4.67887
531.513
527.508
4.70883
4.92417
5.12129
5.35015
5.55151
5.69628
5.7851
5.82919
5.84065
5.8308
5.812
5.79854
5.80445
5.83836
5.89901
5.97488
6.0455
6.0904
6.09733
6.0572
5.95212
5.74767
5.43168
5.07007
4.7741
4.6567
4.73659
4.90104
5.01057
5.01095
4.92848
4.78768
4.59436
531.71
527.518
4.73208
4.96504
5.16549
5.37734
5.57041
5.71452
5.80608
5.85314
5.86608
5.85385
5.82334
5.78133
5.73859
5.71268
5.72221
5.7747
5.8605
5.95761
6.04231
6.10065
6.12416
6.09721
5.9824
5.73367
5.36848
4.96877
4.64159
4.48317
4.49751
4.58657
4.64267
4.61924
4.51058
531.826
527.499
4.72983
4.99268
5.19896
5.38814
5.56241
5.70115
5.79732
5.85372
5.87707
5.87466
5.85273
5.8157
5.76631
5.70794
5.6515
5.62094
5.6411
5.71277
5.80893
5.89984
5.97655
6.04245
6.09633
6.11824
6.06165
5.87171
5.53961
5.13792
4.77746
4.55368
4.48366
4.47862
4.44452
531.677
527.467
4.7154
5.00433
5.21519
5.38726
5.54003
5.66627
5.76037
5.82215
5.85488
5.86335
5.85245
5.82618
5.78738
5.73851
5.68471
5.63832
5.62033
5.65168
5.73233
5.82833
5.90619
5.95896
5.99093
6.00738
6.02115
6.03673
6.02107
5.9097
5.65423
5.2923
4.94624
4.70158
4.53633
530.636
527.43
4.68641
4.98844
5.20077
5.3615
5.49725
5.61002
5.6972
5.75808
5.79382
5.80636
5.79791
5.77003
5.72389
5.66316
5.59958
5.55523
5.55463
5.60898
5.70486
5.81017
5.90086
5.97458
6.03381
6.07519
6.09083
6.0751
6.03206
5.97249
5.88726
5.72486
5.43822
5.07526
4.7381
528.977
527.395
4.65413
4.95299
5.15412
5.29984
5.41771
5.51407
5.59021
5.64381
5.6721
5.67242
5.64356
5.5892
5.52408
5.47106
5.45262
5.48274
5.56266
5.67731
5.79768
5.8991
5.97736
6.03678
6.07934
6.10627
6.11899
6.11676
6.09305
6.03906
5.94919
5.81171
5.5896
5.25142
4.87763
527.725
527.373
4.6273
4.90493
5.08599
5.21731
5.3221
5.40224
5.45265
5.46373
5.43036
5.36574
5.30581
5.28235
5.30863
5.38551
5.50268
5.64156
5.78117
5.89562
5.97512
6.02613
6.05633
6.07351
6.08693
6.10445
6.12664
6.14043
6.12393
6.06033
5.94617
5.78439
5.56586
5.26198
4.9155
527.531
527.376
4.64147
4.90037
5.0477
5.13297
5.17383
5.16437
5.10801
5.05274
5.05444
5.12846
5.26362
5.43373
5.6101
5.77438
5.90586
5.98697
6.02255
6.02269
5.99973
5.96889
5.94706
5.95043
5.99009
6.0631
6.14648
6.20546
6.20776
6.13263
5.97443
5.74883
5.48447
5.2052
4.88671
528.112
527.407
4.65264
4.85407
4.92057
4.91192
4.87413
4.89145
5.01674
5.2265
5.46732
5.69693
5.88465
5.99834
6.03357
6.01246
5.94994
5.86283
5.77501
5.71313
5.7044
5.7638
5.87712
6.00657
6.11932
6.20382
6.25991
6.28423
6.26276
6.17
5.9841
5.71368
5.41066
5.13584
4.84017
528.871
527.463
4.64435
4.79434
4.85383
4.92776
5.11483
5.41041
5.71624
5.93655
6.02739
6.00969
5.92565
5.81438
5.71391
5.64384
5.61111
5.62714
5.69538
5.79572
5.89972
5.98806
6.05778
6.11482
6.16356
6.2035
6.22972
6.23297
6.19904
6.10699
5.93452
5.67795
5.37786
5.09397
4.80248
529.633
527.532
4.72182
4.93655
5.13062
5.38006
5.6482
5.82484
5.88958
5.88914
5.87033
5.85307
5.83341
5.80658
5.77034
5.72225
5.66936
5.6377
5.65227
5.71472
5.80729
5.90691
5.99608
6.06748
6.12056
6.15549
6.17012
6.15916
6.11378
6.02097
5.86629
5.64324
5.37002
5.08042
4.78192
530.168
527.594
4.84941
5.13575
5.39856
5.64158
5.83241
5.9586
6.037
6.06618
6.03867
5.96044
5.85395
5.74593
5.6529
5.57558
5.51002
5.46669
5.46617
5.5169
5.61118
5.72977
5.84876
5.94654
6.01266
6.04686
6.05148
6.02674
5.97052
5.87867
5.74529
5.56508
5.33827
5.06705
4.76436
530.572
527.626
4.92187
5.22129
5.47697
5.70457
5.89877
6.05286
6.15988
6.20878
6.19299
6.12056
6.00983
5.87921
5.74357
5.61403
5.49666
5.38941
5.29766
5.24551
5.25031
5.30998
5.41475
5.54867
5.68979
5.80681
5.87367
5.88328
5.84002
5.74794
5.61099
5.43561
5.22839
4.9855
4.70858
531.031
527.633
4.97081
5.29018
5.55942
5.81377
6.03786
6.20772
6.31462
6.35899
6.34504
6.28203
6.18467
6.06925
5.94511
5.81347
5.67944
5.54848
5.41664
5.28011
5.14882
5.04967
4.99609
4.98205
5.01408
5.09666
5.21811
5.35267
5.46198
5.50923
5.48342
5.39519
5.24564
5.02451
4.72681
531.166
527.678
5.02123
5.34314
5.63193
5.94125
6.19742
6.3561
6.42588
6.43387
6.40312
6.34923
6.28037
6.19867
6.10647
6.01366
5.93642
5.8759
5.79522
5.66644
5.51923
5.38678
5.2643
5.12587
4.9768
4.85923
4.78616
4.75497
4.76796
4.814
4.86845
4.90471
4.8933
4.80765
4.62408
531.95
527.649
4.92976
5.22728
5.48745
5.77873
6.05199
6.24665
6.34915
6.3778
6.35814
6.31105
6.25091
6.1869
6.12383
6.06193
5.9981
5.92276
5.82372
5.70748
5.60976
5.5738
5.58278
5.55061
5.45329
5.34367
5.2446
5.155
5.07345
4.99451
4.91289
4.82257
4.72481
4.61899
4.49099
532.516
527.533
4.75269
5.08846
5.3748
5.62593
5.84862
6.02432
6.14001
6.19776
6.20872
6.18709
6.14614
6.09599
6.04263
5.98875
5.93492
5.88054
5.82449
5.76441
5.6961
5.61115
5.49426
5.33879
5.18381
5.11087
5.17689
5.34849
5.50534
5.60016
5.64116
5.58603
5.40146
5.10161
4.72118
528.99
527.402
4.49849
4.74412
4.98182
5.18962
5.36019
5.49937
5.61251
5.7032
5.77457
5.82898
5.86702
5.88754
5.88925
5.87228
5.83813
5.78796
5.72193
5.64007
5.54643
5.44803
5.35437
5.27878
5.23827
5.23998
5.26557
5.29383
5.32224
5.36539
5.44637
5.57148
5.66668
5.57806
5.14299
525.613
527.33
4.41235
4.63213
4.84997
5.04932
5.21319
5.3394
5.432
5.49466
5.5292
5.53685
5.51936
5.48017
5.4241
5.35611
5.28103
5.20626
5.13973
5.08636
5.05009
5.03233
5.03439
5.05832
5.10704
5.1837
5.28895
5.42012
5.56765
5.71223
5.83044
5.90579
5.92806
5.83062
5.41611
525.237
527.361
4.43426
4.60133
4.71534
4.78653
4.82767
4.85028
4.8623
4.86763
4.86786
4.86492
4.86105
4.85899
4.86238
4.87628
4.90606
4.95837
5.03855
5.14169
5.25084
5.35441
5.45438
5.55809
5.67504
5.82004
6.00533
6.2242
6.44397
6.61771
6.69496
6.62708
6.38262
5.98625
5.437
526.511
527.458
4.50535
4.64206
4.74503
4.83613
4.91981
5.0004
5.07623
5.14505
5.2067
5.2646
5.31848
5.368
5.42136
5.49049
5.59261
5.74614
5.94816
6.16456
6.35211
6.48902
6.57897
6.63731
6.67725
6.70282
6.71254
6.70597
6.68354
6.63597
6.53591
6.3447
6.05559
5.70599
5.24334
527.419
527.402
4.53854
4.79832
5.0376
5.22815
5.37114
5.46981
5.52457
5.55518
5.58217
5.61238
5.63722
5.66748
5.76151
5.91418
6.06073
6.17671
6.25625
6.30279
6.33388
6.36225
6.39263
6.42592
6.46102
6.4975
6.53463
6.5701
6.59943
6.60671
6.55846
6.41693
6.16722
5.83572
5.36522
527.576
527.337
4.7681
5.21464
5.47216
5.54085
5.51473
5.43178
5.32092
5.28627
5.36738
5.51049
5.65225
5.76613
5.85808
5.94012
6.01113
6.06741
6.11077
6.14678
6.18064
6.21519
6.25225
6.29202
6.33456
6.38012
6.42896
6.47989
6.52796
6.56069
6.55276
6.46679
6.27296
5.96878
5.49226
528.143
527.375
4.97869
5.36962
5.46863
5.44105
5.40476
5.39359
5.40442
5.42772
5.46947
5.53854
5.63135
5.73446
5.83343
5.919
5.98885
6.04509
6.09149
6.13198
6.16976
6.2074
6.24747
6.29196
6.34166
6.39546
6.45159
6.50935
6.56438
6.60215
6.59541
6.50783
6.31727
6.02983
5.58007
528.481
527.422
5.13944
5.46629
5.48371
5.41314
5.3599
5.34201
5.35618
5.39759
5.4616
5.54196
5.62948
5.71767
5.80514
5.89147
5.97402
6.04796
6.11081
6.16335
6.20575
6.2387
6.26696
6.29872
6.34389
6.4078
6.48599
6.56571
6.63188
6.66604
6.64323
6.53817
6.33923
6.03014
5.53021
529.073
527.473
5.25362
5.599
5.61257
5.5137
5.44957
5.40175
5.3419
5.2868
5.25022
5.2414
5.25382
5.27468
5.30486
5.35234
5.42738
5.53924
5.68973
5.86827
6.05189
6.20541
6.30411
6.36121
6.38865
6.39545
6.39067
6.37985
6.36101
6.32205
6.24539
6.11503
5.9181
5.62478
5.17833
531.679
527.537
5.00629
5.38647
5.68033
5.91677
6.04047
6.01554
5.8571
5.64629
5.48187
5.38369
5.30905
5.22241
5.11292
4.98123
4.84887
4.76572
4.76503
4.84459
4.99105
5.187
5.41115
5.64524
5.8694
6.04616
6.14495
6.17724
6.15864
6.08924
5.96567
5.79076
5.57345
5.30173
4.93498
532.65
527.468
4.87823
5.19961
5.43361
5.63043
5.77299
5.86507
5.93313
5.99659
6.04782
6.06771
6.04435
5.96475
5.81162
5.58165
5.31283
5.06845
4.88779
4.77591
4.71865
4.69941
4.71466
4.77396
4.88947
5.05945
5.25848
5.45113
5.60163
5.67976
5.67947
5.60149
5.44469
5.20333
4.86126
532.52
527.467
4.84468
5.15244
5.34848
5.4983
5.61097
5.6842
5.72128
5.72992
5.71728
5.68821
5.64631
5.59364
5.53389
5.48276
5.46277
5.4748
5.49284
5.48201
5.42392
5.33234
5.22295
5.08833
4.94774
4.85846
4.84969
4.91423
5.02199
5.131
5.20154
5.21266
5.16107
5.04034
4.82129
535.507
527.398
4.60757
4.88705
5.08306
5.23066
5.34678
5.43363
5.49301
5.52593
5.53387
5.51855
5.48203
5.42707
5.35875
5.28664
5.22197
5.1739
5.14871
5.14961
5.18518
5.26628
5.38657
5.51082
5.58717
5.58865
5.52591
5.42568
5.32834
5.26807
5.2413
5.20752
5.1205
4.98643
4.79845
533.408
527.352
4.47785
4.69925
4.85717
4.96244
5.02652
5.05847
5.06446
5.04911
5.01776
4.97707
4.93442
4.89683
4.86961
4.85523
4.85509
4.87084
4.90496
4.95979
5.03634
5.13342
5.24813
5.3769
5.51564
5.6613
5.80725
5.93431
6.00831
6.00049
5.91613
5.77993
5.60744
5.36127
5.04517
528.879
527.389
4.49466
4.66142
4.76735
4.84147
4.89159
4.9244
4.94593
4.96078
4.97351
4.98863
5.01187
5.04819
5.09794
5.15605
5.21876
5.2882
5.37025
5.4719
5.6009
5.76142
5.94762
6.14243
6.32446
6.478
6.59712
6.67802
6.71123
6.67619
6.54639
6.30277
5.97165
5.62838
5.2182
527.84
527.37
4.49743
4.72502
4.91913
5.07286
5.18386
5.25718
5.30038
5.32586
5.35016
5.38566
5.44165
5.52309
5.62556
5.74205
5.86791
5.99404
6.10917
6.21011
6.29935
6.37966
6.45333
6.52212
6.58794
6.65218
6.71072
6.75315
6.7673
6.73154
6.61242
6.38202
6.05751
5.70639
5.26552
527.14
527.327
4.67382
5.0586
5.29849
5.39544
5.40354
5.37507
5.32222
5.26591
5.25874
5.33032
5.45858
5.60274
5.73073
5.82907
5.90693
5.97431
6.03481
6.09153
6.14744
6.2053
6.26748
6.33545
6.40937
6.48787
6.56836
6.64618
6.70869
6.73238
6.6853
6.53637
6.27911
5.93253
5.43281
527.284
527.392
4.92971
5.28936
5.38111
5.35689
5.30732
5.27147
5.26857
5.29811
5.35291
5.43104
5.52746
5.62983
5.72643
5.81643
5.90152
5.98053
6.0533
6.1202
6.18216
6.24032
6.29591
6.34992
6.4027
6.45353
6.50102
6.54192
6.56608
6.55576
6.49145
6.35889
6.15511
5.86323
5.38748
528.255
527.445
5.13418
5.41761
5.3942
5.26409
5.15405
5.11625
5.1472
5.21096
5.27643
5.3379
5.39838
5.45968
5.52431
5.59526
5.67366
5.75977
5.85222
5.94794
6.04373
6.13683
6.2243
6.30353
6.37205
6.42693
6.46435
6.47946
6.46331
6.40248
6.28508
6.10484
5.86043
5.53578
5.07214
528.888
527.502
5.43813
5.808
5.78904
5.5681
5.37204
5.30126
5.31043
5.33159
5.3395
5.33365
5.31582
5.28713
5.25033
5.21127
5.17892
5.16389
5.17546
5.21839
5.28975
5.38051
5.48001
5.57982
5.67414
5.75908
5.83062
5.88084
5.89895
5.87399
5.79637
5.66078
5.46572
5.2031
4.84536
533.413
527.62
5.36969
5.81993
6.09832
6.27583
6.36651
6.39036
6.37381
6.3378
6.29186
6.23585
6.16436
6.07023
5.94823
5.79713
5.62185
5.43713
5.27096
5.15145
5.08925
5.0729
5.08222
5.10079
5.11808
5.12866
5.13206
5.12993
5.12073
5.09888
5.05754
4.99124
4.89577
4.76454
4.58105
532.58
527.709
5.46813
5.93874
6.23214
6.41381
6.50153
6.52926
6.52437
6.50281
6.47381
6.44343
6.41538
6.39139
6.36986
6.34481
6.30669
6.24594
6.15827
6.04836
5.92868
5.81356
5.71316
5.63178
5.56981
5.52014
5.471
5.41312
5.34216
5.25699
5.15693
5.03856
4.89458
4.71344
4.48488
527.359
527.711
5.42147
5.91767
6.21307
6.40544
6.51335
6.5509
6.54001
6.5015
6.45104
6.39989
6.3566
6.32625
6.30829
6.2995
6.29552
6.2914
6.28245
6.26468
6.23486
6.1904
6.12932
6.05125
5.9589
5.85798
5.75601
5.66012
5.57375
5.49502
5.4177
5.33256
5.22273
5.04317
4.70819
525.989
527.516
4.91723
5.34536
5.63229
5.83038
5.97242
6.07059
6.13284
6.16814
6.18633
6.19634
6.20423
6.21272
6.22087
6.22546
6.22321
6.21182
6.19034
6.15922
6.11981
6.07352
6.02092
5.96147
5.89413
5.8179
5.73299
5.6426
5.55316
5.47298
5.4073
5.34984
5.27987
5.15317
4.8622
525.715
527.398
4.57392
4.87474
5.12175
5.3245
5.4954
5.63602
5.74227
5.81866
5.87005
5.89774
5.90324
5.88812
5.85439
5.80438
5.74107
5.66951
5.59571
5.52474
5.46163
5.40961
5.37035
5.34542
5.33517
5.33808
5.35076
5.36833
5.38507
5.39523
5.39409
5.37843
5.34236
5.24006
4.94029
525.564
527.397
4.58063
4.83199
5.00685
5.1356
5.2347
5.30638
5.34795
5.35877
5.34118
5.29919
5.239
5.16857
5.0963
5.02983
4.97542
4.93699
4.91592
4.91248
4.92659
4.95568
4.99857
5.05732
5.1312
5.21833
5.31907
5.43186
5.5536
5.68233
5.81026
5.90613
5.90406
5.72581
5.29673
525.831
527.396
4.5152
4.71107
4.84086
4.92956
4.98532
5.01074
5.0096
4.98787
4.95275
4.91161
4.8714
4.83892
4.82179
4.82823
4.86296
4.92239
4.99846
5.08679
5.18722
5.29878
5.41754
5.53821
5.6571
5.77228
5.88312
5.98947
6.08938
6.1741
6.22422
6.21005
6.09887
5.8609
5.40715
527.066
527.332
4.41878
4.60955
4.73336
4.8026
4.83603
4.85205
4.8654
4.88522
4.91401
4.95208
5.00185
5.0657
5.14753
5.25045
5.37215
5.50458
5.63512
5.7517
5.84855
5.92702
5.99182
6.04846
6.10103
6.15043
6.19563
6.23443
6.26249
6.27264
6.25318
6.18995
6.06992
5.86545
5.4565
526.879
527.368
4.63148
4.82429
4.8661
4.88007
4.90846
4.9719
5.06683
5.16951
5.26664
5.35651
5.43879
5.51533
5.5894
5.66395
5.74046
5.81924
5.89946
5.97979
6.0589
6.13551
6.20817
6.27512
6.33393
6.38137
6.41356
6.42586
6.41299
6.36798
6.28058
6.14075
5.93657
5.63909
5.17024
527.49
527.372
4.61838
4.59906
4.53427
4.69967
4.90308
5.01828
5.08796
5.13715
5.17168
5.19618
5.21368
5.22742
5.24144
5.26029
5.28831
5.32849
5.38165
5.44618
5.51839
5.59386
5.66834
5.73861
5.80309
5.86122
5.91169
5.95069
5.97124
5.96329
5.91485
5.81495
5.65076
5.39921
5.00408
532.344
527.563
5.1329
5.42575
5.52244
5.55378
5.5791
5.60584
5.62801
5.63952
5.63467
5.61023
5.56462
5.49814
5.41531
5.32506
5.24073
5.17656
5.14071
5.13074
5.13643
5.14706
5.15494
5.15634
5.15222
5.14695
5.14373
5.14214
5.13935
5.13065
5.10934
5.06651
4.9903
4.86427
4.65796
531.542
527.764
5.39651
5.7731
5.96864
6.06805
6.11177
6.13174
6.14527
6.15945
6.17502
6.18899
6.19691
6.19463
6.17843
6.1441
6.08837
6.01148
5.91916
5.82154
5.72821
5.64422
5.57046
5.50645
5.44899
5.39231
5.33356
5.27207
5.20506
5.13063
5.04754
4.94939
4.82472
4.65924
4.44361
527.125
527.796
5.49767
5.97878
6.25395
6.41856
6.49821
6.51486
6.49173
6.4471
6.39378
6.34139
6.29753
6.26554
6.24294
6.22637
6.21189
6.19496
6.17125
6.13715
6.08993
6.028
5.95085
5.85952
5.75652
5.64661
5.53819
5.44193
5.36163
5.30067
5.25873
5.21594
5.14371
4.98802
4.66364
525.8
527.589
5.08766
5.57939
5.89957
6.10587
6.236
6.30847
6.33755
6.33689
6.31851
6.29204
6.26504
6.24279
6.22646
6.21286
6.19693
6.17365
6.13835
6.08817
6.02229
5.9415
5.84792
5.74421
5.63084
5.51278
5.40375
5.31903
5.2664
5.24362
5.24422
5.25267
5.24007
5.15438
4.86574
525.598
527.411
4.61522
4.95037
5.22245
5.43899
5.61408
5.75419
5.85994
5.93303
5.98093
6.01123
6.02804
6.03197
6.02201
5.99615
5.95211
5.88848
5.80652
5.71271
5.61518
5.52057
5.43469
5.36059
5.30119
5.25847
5.23266
5.2247
5.23641
5.26786
5.31502
5.36918
5.40264
5.33794
5.02458
525.277
527.407
4.62061
4.89841
5.10246
5.26065
5.38913
5.49076
5.56106
5.59817
5.60713
5.59424
5.56311
5.51639
5.45837
5.39494
5.33159
5.27243
5.22156
5.18294
5.15946
5.15223
5.16236
5.18815
5.22361
5.26133
5.29716
5.33049
5.36326
5.40516
5.47719
5.5901
5.68847
5.61965
5.24074
525.815
527.483
4.77564
5.03379
5.16886
5.25395
5.31179
5.34511
5.35607
5.34684
5.31982
5.28009
5.23423
5.18949
5.15285
5.12896
5.11967
5.12484
5.1432
5.17377
5.21781
5.27887
5.35826
5.45106
5.5485
5.64522
5.7432
5.84941
5.96087
6.05665
6.10253
6.06075
5.90802
5.64537
5.22167
526.78
527.446
4.62202
4.84688
4.99871
5.10273
5.1674
5.20049
5.20824
5.19882
5.18371
5.17479
5.1801
5.20088
5.23381
5.27599
5.32682
5.38782
5.46182
5.55032
5.65151
5.75965
5.86707
5.96617
6.05106
6.11852
6.16797
6.20011
6.21276
6.19839
6.14323
6.03217
5.86132
5.62628
5.23806
527.44
527.385
4.5808
4.85843
5.06222
5.17886
5.22653
5.23703
5.23744
5.24112
5.25346
5.27567
5.30731
5.35031
5.40847
5.48158
5.56397
5.64697
5.72416
5.79556
5.86537
5.93571
6.00596
6.0749
6.14058
6.20018
6.25009
6.28569
6.30013
6.28161
6.21678
6.09872
5.93169
5.70287
5.3098
527.392
527.371
4.69853
5.03242
5.22277
5.29771
5.30261
5.27316
5.23471
5.19931
5.17309
5.16232
5.17362
5.21706
5.29696
5.40921
5.54327
5.68095
5.80193
5.90045
5.98435
6.05963
6.12789
6.19075
6.24914
6.3026
6.34901
6.38385
6.40005
6.38674
6.33181
6.22727
6.06873
5.82836
5.39392
527.514
527.408
4.79575
5.13319
5.32198
5.37654
5.34097
5.26213
5.17927
5.11674
5.0764
5.05703
5.06046
5.09364
5.16483
5.27498
5.41984
5.59179
5.77466
5.94161
6.07275
6.17448
6.25312
6.30904
6.34596
6.36857
6.38039
6.38186
6.36861
6.33295
6.26681
6.16274
6.00972
5.76751
5.32397
528.587
527.493
4.87089
5.21001
5.43658
5.53901
5.51899
5.41614
5.29265
5.19278
5.11603
5.04533
4.97862
4.92526
4.90281
4.92682
4.99429
5.09701
5.23151
5.39414
5.57876
5.77492
5.97022
6.14464
6.27207
6.34702
6.37825
6.36932
6.3251
6.248
6.13702
5.99365
5.81476
5.56703
5.15642
529.433
527.544
4.9001
5.20575
5.41946
5.57737
5.66806
5.70218
5.68845
5.62808
5.52235
5.37825
5.21593
5.06916
4.96424
4.90218
4.86446
4.83655
4.82145
4.82922
4.86561
4.93386
5.03928
5.18648
5.3703
5.57816
5.79237
5.98049
6.09785
6.1303
6.08873
5.98024
5.80723
5.55004
5.13622
530.402
527.561
4.8978
5.19086
5.3908
5.55001
5.65685
5.70859
5.71799
5.70058
5.66693
5.62216
5.56883
5.50942
5.4476
5.38739
5.32459
5.24632
5.15199
5.06049
4.98069
4.90512
4.83779
4.79497
4.787
4.82275
4.91391
5.07127
5.2845
5.51577
5.69479
5.75853
5.7094
5.54368
5.19094
531.982
527.541
4.84381
5.15556
5.35158
5.49357
5.59618
5.65614
5.67715
5.66867
5.64148
5.60458
5.56352
5.51946
5.46991
5.40909
5.33059
5.23719
5.15171
5.10908
5.12599
5.18199
5.23965
5.27527
5.28136
5.25028
5.17653
5.07992
5.01324
5.04332
5.19019
5.3668
5.44896
5.39241
5.16684
532.629
527.489
4.71024
5.00796
5.19389
5.31887
5.41098
5.47725
5.52151
5.54788
5.55972
5.55823
5.54279
5.51116
5.45829
5.37761
5.27206
5.16712
5.0879
5.04919
5.05312
5.08953
5.14466
5.21475
5.30425
5.40679
5.49135
5.51474
5.45042
5.31878
5.22019
5.24294
5.30541
5.27061
5.09435
531.965
527.427
4.54922
4.80379
4.98677
5.12313
5.23473
5.32652
5.39788
5.44653
5.46939
5.46281
5.4205
5.34116
5.23724
5.13049
5.04435
4.9935
4.98344
5.01219
5.07126
5.14962
5.24274
5.35377
5.48296
5.61784
5.73116
5.78872
5.76094
5.63892
5.45826
5.31195
5.24443
5.16286
4.97472
530.918
527.412
4.5326
4.77342
4.953
5.08297
5.175
5.23326
5.2561
5.24014
5.1891
5.11671
5.04011
4.97559
4.93648
4.92875
4.95235
5.00421
5.07738
5.15933
5.24322
5.33365
5.44123
5.57335
5.72219
5.86038
5.95648
5.99484
5.96848
5.86531
5.6771
5.44431
5.24485
5.09445
4.88118
530.253
527.45
4.63904
4.88141
5.01434
5.08013
5.09985
5.08082
5.03581
4.98358
4.94234
4.9249
4.93496
4.97044
5.02799
5.10034
5.17621
5.25154
5.32948
5.41152
5.49888
5.59771
5.71088
5.82653
5.92841
6.00828
6.0642
6.09262
6.08132
6.00703
5.84573
5.60278
5.34104
5.13341
4.88511
529.846
527.462
4.60565
4.80207
4.9045
4.95295
4.96472
4.96341
4.97149
4.99954
5.04912
5.11426
5.17985
5.23492
5.28084
5.32144
5.36033
5.40712
5.47323
5.56011
5.65748
5.75349
5.84285
5.92594
6.0037
6.07415
6.13282
6.17129
6.1748
6.12169
5.98917
5.77344
5.52048
5.28803
4.995
529.44
527.425
4.47609
4.64243
4.76211
4.85972
4.94921
5.03694
5.11659
5.17716
5.21929
5.2499
5.27407
5.29695
5.32651
5.37003
5.43
5.50304
5.58369
5.66787