/*--------------------------------*- C++ -*----------------------------------*\
| =========                 |                                                 |
| \\      /  F ield         | OpenFOAM: The Open Source CFD Toolbox           |
|  \\    /   O peration     | Version:  v2006                                 |
|   \\  /    A nd           | Website:  www.openfoam.com                      |
|    \\/     M anipulation  |                                                 |
\*---------------------------------------------------------------------------*/
FoamFile
{
    version     2.0;
    format      ascii;
    class       volScalarField;
    location    "14";
    object      T;
}
// * * * * * * * * * * * * * * * * * * * * * * * * * * * * * * * * * * * * * //

dimensions      [0 0 0 1 0 0 0];


internalField   nonuniform List<scalar> 
78750
(
297.235
295.27
295.689
295.671
295.701
295.722
295.74
295.755
295.768
295.779
295.787
295.793
295.796
295.797
295.795
295.791
295.784
295.775
295.763
295.748
295.73
295.708
295.681
295.65
295.613
295.569
295.519
295.464
295.406
295.349
295.298
295.274
295.359
295.717
296.433
298.712
296.998
296.319
296.159
296.149
296.166
296.183
296.198
296.21
296.22
296.227
296.231
296.232
296.232
296.229
296.225
296.218
296.209
296.197
296.181
296.161
296.136
296.104
296.063
296.011
295.944
295.86
295.758
295.643
295.531
295.449
295.444
295.603
296.014
296.728
298.748
297.04
296.324
296.137
296.1
296.096
296.104
296.116
296.129
296.141
296.15
296.157
296.163
296.167
296.171
296.174
296.176
296.179
296.181
296.182
296.182
296.181
296.177
296.169
296.152
296.123
296.073
295.994
295.883
295.758
295.676
295.723
295.935
296.355
297.083
298.858
297.227
296.301
295.924
295.91
295.978
296.038
296.091
296.14
296.179
296.204
296.219
296.226
296.23
296.23
296.229
296.225
296.221
296.215
296.208
296.201
296.192
296.183
296.174
296.164
296.154
296.141
296.12
296.082
296.018
295.94
295.924
296.089
296.51
297.221
299.216
297.834
297.002
296.484
296.152
295.995
295.968
296.033
296.132
296.209
296.252
296.272
296.28
296.284
296.285
296.286
296.287
296.287
296.286
296.284
296.281
296.275
296.266
296.253
296.235
296.209
296.174
296.132
296.083
296.03
295.982
295.998
296.189
296.639
297.378
299.385
298.247
297.505
296.987
296.578
296.325
296.229
296.235
296.269
296.287
296.289
296.285
296.281
296.278
296.277
296.276
296.276
296.275
296.274
296.273
296.272
296.27
296.267
296.262
296.253
296.238
296.214
296.178
296.134
296.081
296.014
295.986
296.154
296.61
297.338
299.414
298.358
297.655
297.148
296.742
296.508
296.416
296.384
296.364
296.349
296.342
296.341
296.343
296.345
296.346
296.345
296.344
296.342
296.339
296.336
296.333
296.328
296.322
296.312
296.294
296.263
296.211
296.134
296.05
296.006
296.053
296.216
296.509
296.989
297.743
299.462
298.47
297.738
297.199
296.82
296.612
296.499
296.431
296.393
296.375
296.367
296.362
296.356
296.351
296.346
296.342
296.339
296.337
296.336
296.337
296.338
296.34
296.343
296.347
296.349
296.345
296.326
296.282
296.218
296.176
296.228
296.426
296.757
297.262
298.042
299.483
298.522
297.79
297.26
296.901
296.678
296.54
296.465
296.429
296.415
296.408
296.403
296.398
296.394
296.391
296.388
296.385
296.383
296.381
296.379
296.377
296.375
296.373
296.37
296.368
296.364
296.358
296.344
296.323
296.312
296.37
296.572
296.93
297.478
298.281
299.579
298.774
298.113
297.579
297.148
296.838
296.647
296.549
296.503
296.479
296.464
296.451
296.438
296.428
296.419
296.413
296.409
296.407
296.408
296.41
296.413
296.42
296.428
296.439
296.453
296.466
296.474
296.468
296.448
296.434
296.479
296.667
297.04
297.617
298.411
299.555
298.74
298.041
297.439
296.976
296.7
296.57
296.518
296.496
296.482
296.468
296.454
296.441
296.431
296.423
296.417
296.413
296.411
296.41
296.409
296.41
296.413
296.419
296.431
296.45
296.481
296.522
296.562
296.588
296.608
296.674
296.874
297.25
297.818
298.606
299.495
298.625
297.913
297.325
296.929
296.728
296.642
296.607
296.588
296.572
296.554
296.536
296.518
296.503
296.491
296.483
296.477
296.474
296.473
296.474
296.477
296.481
296.487
296.497
296.513
296.544
296.598
296.68
296.782
296.889
297.02
297.238
297.603
298.157
298.941
299.478
298.575
297.899
297.384
297.034
296.845
296.751
296.7
296.665
296.633
296.598
296.561
296.529
296.502
296.484
296.471
296.463
296.459
296.458
296.46
296.464
296.471
296.48
296.49
296.503
296.523
296.561
296.636
296.769
296.967
297.22
297.534
297.936
298.483
299.236
299.496
298.606
297.974
297.498
297.15
296.952
296.848
296.792
296.754
296.718
296.676
296.632
296.591
296.559
296.537
296.522
296.513
296.508
296.507
296.509
296.514
296.521
296.531
296.544
296.559
296.574
296.591
296.618
296.679
296.817
297.066
297.433
297.906
298.488
299.225
299.555
298.736
298.201
297.803
297.466
297.238
297.094
297.002
296.933
296.865
296.787
296.707
296.637
296.586
296.552
296.531
296.519
296.513
296.511
296.514
296.52
296.529
296.542
296.56
296.583
296.612
296.646
296.685
296.731
296.81
296.974
297.283
297.756
298.34
299.066
299.601
298.859
298.368
298.003
297.679
297.433
297.266
297.15
297.048
296.934
296.812
296.704
296.627
296.578
296.551
296.537
296.531
296.53
296.533
296.538
296.547
296.559
296.575
296.596
296.623
296.656
296.697
296.746
296.808
296.896
297.047
297.324
297.772
298.337
299.051
299.656
299.009
298.55
298.212
297.921
297.684
297.496
297.32
297.13
296.94
296.782
296.676
296.615
296.583
296.568
296.559
296.556
296.555
296.557
296.562
296.571
296.585
296.604
296.63
296.665
296.71
296.766
296.829
296.899
296.987
297.129
297.39
297.823
298.363
299.053
299.681
299.084
298.655
298.331
298.035
297.756
297.474
297.187
296.933
296.753
296.654
296.61
296.592
296.584
296.577
296.572
296.569
296.568
296.572
296.579
296.591
296.609
296.634
296.668
296.714
296.777
296.857
296.953
297.062
297.185
297.349
297.606
298.004
298.537
299.258
299.698
299.134
298.714
298.359
297.981
297.588
297.22
296.942
296.782
296.712
296.685
296.667
296.648
296.628
296.61
296.597
296.589
296.587
296.589
296.597
296.61
296.63
296.658
296.697
296.752
296.826
296.924
297.043
297.184
297.347
297.551
297.837
298.242
298.792
299.549
299.692
299.115
298.637
298.179
297.692
297.266
296.978
296.833
296.773
296.74
296.71
296.679
296.652
296.63
296.614
296.605
296.6
296.6
296.605
296.615
296.631
296.654
296.688
296.737
296.807
296.903
297.031
297.188
297.37
297.578
297.828
298.153
298.575
299.136
299.911
299.668
299.044
298.492
297.963
297.477
297.142
296.967
296.889
296.846
296.809
296.771
296.733
296.697
296.667
296.643
296.626
296.615
296.61
296.61
296.616
296.629
296.649
296.68
296.727
296.798
296.902
297.05
297.246
297.484
297.757
298.069
298.444
298.889
299.458
300.234
299.633
298.953
298.362
297.83
297.405
297.152
297.029
296.968
296.924
296.878
296.826
296.772
296.723
296.685
296.657
296.639
296.628
296.624
296.625
296.632
296.644
296.663
296.691
296.731
296.79
296.88
297.017
297.215
297.479
297.8
298.168
298.589
299.062
299.638
300.396
299.617
298.912
298.332
297.842
297.472
297.258
297.15
297.089
297.038
296.979
296.909
296.837
296.771
296.72
296.682
296.657
296.641
296.633
296.632
296.637
296.648
296.666
296.692
296.729
296.78
296.856
296.971
297.146
297.402
297.743
298.154
298.618
299.124
299.712
300.46
299.628
298.934
298.414
297.991
297.646
297.433
297.313
297.237
297.169
297.089
296.993
296.895
296.808
296.743
296.698
296.668
296.651
296.643
296.641
296.646
296.657
296.674
296.699
296.731
296.776
296.836
296.924
297.06
297.273
297.591
298.015
298.521
299.078
299.692
300.438
299.652
298.997
298.559
298.215
297.898
297.673
297.523
297.414
297.311
297.193
297.062
296.937
296.835
296.762
296.714
296.683
296.666
296.658
296.657
296.663
296.675
296.694
296.72
296.755
296.8
296.859
296.937
297.048
297.219
297.487
297.881
298.397
298.991
299.625
300.366
299.684
299.089
298.684
298.378
298.098
297.872
297.699
297.55
297.394
297.224
297.057
296.919
296.819
296.753
296.71
296.684
296.67
296.664
296.665
296.672
296.686
296.706
296.734
296.772
296.82
296.881
296.956
297.056
297.2
297.425
297.774
298.268
298.877
299.506
300.227
299.708
299.157
298.769
298.483
298.226
297.994
297.788
297.583
297.371
297.169
297.004
296.886
296.808
296.756
296.722
296.7
296.688
296.683
296.685
296.693
296.708
296.731
296.763
296.806
296.862
296.933
297.018
297.124
297.265
297.47
297.781
298.233
298.812
299.402
300.089
299.727
299.208
298.829
298.545
298.284
298.029
297.783
297.539
297.312
297.125
296.987
296.89
296.821
296.771
296.736
296.713
296.699
296.693
296.695
296.704
296.719
296.744
296.778
296.824
296.885
296.959
297.049
297.158
297.298
297.495
297.787
298.212
298.763
299.339
300.024
299.747
299.261
298.887
298.596
298.317
298.035
297.758
297.499
297.278
297.108
296.983
296.893
296.827
296.779
296.745
296.724
296.711
296.707
296.711
296.721
296.74
296.768
296.808
296.862
296.934
297.021
297.123
297.241
297.384
297.574
297.848
298.244
298.757
299.325
300.025
299.765
299.305
298.938
298.632
298.329
298.022
297.731
297.475
297.268
297.113
296.999
296.915
296.851
296.802
296.767
296.743
296.729
296.723
296.725
296.735
296.754
296.783
296.825
296.884
296.96
297.056
297.17
297.304
297.464
297.667
297.943
298.324
298.805
299.373
300.104
299.782
299.353
298.998
298.688
298.371
298.053
297.759
297.506
297.306
297.153
297.036
296.946
296.875
296.821
296.782
296.756
296.741
296.736
296.739
296.751
296.772
296.804
296.851
296.914
296.996
297.097
297.216
297.354
297.521
297.731
298.014
298.395
298.864
299.437
300.197
299.786
299.369
299.024
298.711
298.38
298.051
297.751
297.5
297.303
297.152
297.038
296.95
296.882
296.83
296.793
296.769
296.756
296.752
296.758
296.772
296.797
296.835
296.888
296.961
297.053
297.162
297.29
297.439
297.615
297.835
298.124
298.508
298.967
299.541
300.33
299.781
299.36
299.02
298.71
298.374
298.044
297.751
297.51
297.322
297.177
297.064
296.975
296.906
296.852
296.813
296.787
296.773
296.77
296.777
296.795
296.824
296.869
296.932
297.015
297.114
297.228
297.357
297.509
297.695
297.928
298.233
298.627
299.083
299.664
300.486
299.763
299.315
298.972
298.659
298.313
297.984
297.698
297.467
297.287
297.147
297.04
296.957
296.894
296.847
296.814
296.793
296.784
296.787
296.801
296.827
296.868
296.93
297.016
297.124
297.242
297.364
297.491
297.637
297.819
298.058
298.374
298.78
299.232
299.815
300.67
299.741
299.261
298.908
298.587
298.233
297.908
297.636
297.42
297.255
297.131
297.037
296.966
296.911
296.869
296.837
296.816
296.808
296.814
296.834
296.87
296.928
297.017
297.14
297.286
297.433
297.567
297.697
297.843
298.026
298.27
298.595
298.999
299.444
300.033
300.913
299.717
299.202
298.83
298.495
298.134
297.815
297.558
297.362
297.216
297.108
297.029
296.968
296.92
296.88
296.849
296.828
296.821
296.832
296.862
296.914
297
297.133
297.317
297.52
297.702
297.847
297.973
298.115
298.302
298.555
298.882
299.266
299.71
300.329
301.211
299.695
299.148
298.758
298.415
298.056
297.752
297.516
297.343
297.219
297.13
297.064
297.012
296.967
296.925
296.887
296.858
296.844
296.852
296.884
296.948
297.06
297.243
297.5
297.784
298.032
298.212
298.349
298.495
298.688
298.941
299.252
299.604
300.047
300.69
301.542
299.684
299.112
298.722
298.388
298.044
297.758
297.542
297.385
297.274
297.193
297.133
297.083
297.038
296.991
296.942
296.897
296.862
296.846
296.857
296.903
296.998
297.174
297.457
297.819
298.189
298.492
298.702
298.866
299.051
299.294
299.591
299.934
300.376
301.006
301.813
299.688
299.116
298.741
298.435
298.12
297.851
297.645
297.494
297.386
297.308
297.251
297.205
297.164
297.119
297.065
297.004
296.94
296.883
296.844
296.83
296.851
296.929
297.108
297.425
297.861
298.345
298.787
299.133
299.389
299.612
299.862
300.171
300.594
301.199
301.975
299.709
299.164
298.799
298.523
298.257
298.013
297.815
297.662
297.549
297.467
297.407
297.362
297.326
297.291
297.249
297.192
297.118
297.036
296.955
296.883
296.823
296.781
296.771
296.833
297.039
297.427
297.962
298.567
299.154
299.654
300.054
300.397
300.784
301.32
302.051
299.735
299.231
298.87
298.616
298.396
298.189
298.007
297.858
297.739
297.648
297.579
297.528
297.489
297.458
297.428
297.39
297.332
297.252
297.16
297.077
297.012
296.959
296.904
296.841
296.779
296.768
296.9
297.26
297.847
298.585
299.362
300.067
300.659
301.242
301.946
299.758
299.294
298.941
298.704
298.516
298.342
298.183
298.044
297.927
297.832
297.756
297.696
297.649
297.61
297.573
297.53
297.471
297.386
297.279
297.165
297.073
297.017
296.991
296.985
296.99
296.983
296.944
296.901
296.956
297.256
297.887
298.77
299.7
300.534
301.332
299.779
299.353
299.017
298.791
298.622
298.471
298.334
298.21
298.101
298.008
297.931
297.867
297.813
297.762
297.707
297.636
297.542
297.426
297.3
297.185
297.099
297.044
297.012
296.995
296.993
297.008
297.038
297.072
297.093
297.122
297.281
297.756
298.581
299.487
300.378
299.796
299.404
299.091
298.881
298.724
298.589
298.465
298.35
298.246
298.157
298.079
298.005
297.925
297.829
297.712
297.576
297.43
297.288
297.166
297.081
297.034
297.017
297.022
297.045
297.082
297.126
297.17
297.206
297.232
297.258
297.332
297.577
298.137
298.847
299.646
299.805
299.433
299.144
298.945
298.793
298.664
298.551
298.45
298.349
298.235
298.096
297.932
297.751
297.565
297.387
297.232
297.11
297.032
297
297.004
297.034
297.081
297.141
297.206
297.27
297.331
297.386
297.431
297.466
297.498
297.568
297.766
298.199
298.778
299.509
299.798
299.427
299.153
298.971
298.837
298.712
298.561
298.357
298.11
297.846
297.59
297.363
297.181
297.051
296.976
296.959
296.988
297.048
297.129
297.222
297.314
297.397
297.464
297.514
297.553
297.59
297.632
297.681
297.738
297.81
297.926
298.148
298.522
299.068
299.849
299.792
299.417
299.14
298.928
298.697
298.383
298.012
297.649
297.345
297.122
296.985
296.935
296.963
297.036
297.13
297.239
297.357
297.471
297.568
297.633
297.664
297.67
297.672
297.681
297.703
297.742
297.8
297.882
297.994
298.142
298.339
298.61
298.971
299.497
300.297
299.763
299.33
298.969
298.587
298.108
297.629
297.257
297.046
296.989
297.033
297.117
297.205
297.284
297.35
297.413
297.484
297.567
297.649
297.712
297.749
297.768
297.781
297.796
297.818
297.853
297.906
297.984
298.095
298.247
298.448
298.704
299.017
299.398
299.935
300.729
299.681
299.101
298.569
298.022
297.526
297.236
297.148
297.158
297.184
297.194
297.201
297.225
297.267
297.33
297.42
297.54
297.671
297.784
297.866
297.917
297.946
297.966
297.988
298.017
298.061
298.124
298.212
298.332
298.492
298.701
298.965
299.286
299.686
300.244
301.028
299.584
298.873
298.253
297.708
297.372
297.252
297.231
297.231
297.231
297.231
297.237
297.255
297.291
297.345
297.419
297.523
297.663
297.816
297.955
298.064
298.139
298.188
298.224
298.259
298.305
298.374
298.471
298.601
298.764
298.963
299.203
299.497
299.89
300.467
301.264
299.552
298.797
298.199
297.733
297.477
297.391
297.372
297.364
297.347
297.319
297.286
297.261
297.252
297.267
297.312
297.385
297.492
297.643
297.827
298.015
298.19
298.34
298.462
298.555
298.627
298.693
298.768
298.873
299.021
299.223
299.477
299.783
300.182
300.758
301.547
299.549
298.782
298.216
297.819
297.613
297.543
297.522
297.51
297.499
297.484
297.462
297.429
297.379
297.323
297.278
297.261
297.276
297.326
297.423
297.578
297.782
298.008
298.25
298.497
298.731
298.934
299.1
299.231
299.345
299.468
299.63
299.87
300.246
300.836
301.649
299.58
298.826
298.299
297.936
297.717
297.616
297.568
297.541
297.528
297.525
297.534
297.551
297.577
297.604
297.61
297.563
297.449
297.309
297.211
297.182
297.214
297.3
297.461
297.725
298.063
298.447
298.857
299.26
299.624
299.937
300.206
300.462
300.793
301.323
302.106
299.682
299.048
298.589
298.259
297.997
297.804
297.676
297.599
297.56
297.55
297.558
297.577
297.602
297.63
297.662
297.7
297.749
297.807
297.841
297.793
297.618
297.365
297.161
297.092
297.158
297.348
297.679
298.116
298.619
299.186
299.815
300.469
301.101
301.732
302.445
299.785
299.318
298.888
298.567
298.326
298.132
297.984
297.881
297.815
297.779
297.763
297.759
297.765
297.777
297.793
297.811
297.83
297.845
297.857
297.868
297.883
297.909
297.931
297.896
297.745
297.469
297.143
296.916
296.829
296.91
297.265
297.895
298.707
299.582
300.47
299.872
299.589
299.298
299.036
298.819
298.64
298.487
298.355
298.24
298.145
298.073
298.027
298.005
298.004
298.017
298.036
298.056
298.073
298.082
298.078
298.056
298.009
297.932
297.828
297.718
297.63
297.571
297.525
297.466
297.364
297.212
297.105
297.217
297.703
298.544
299.887
299.653
299.422
299.21
299.034
298.898
298.798
298.725
298.672
298.634
298.605
298.582
298.558
298.531
298.496
298.449
298.39
298.319
298.238
298.149
298.054
297.954
297.85
297.745
297.641
297.543
297.458
297.39
297.339
297.302
297.271
297.246
297.297
297.591
298.269
299.906
299.719
299.551
299.413
299.297
299.186
299.069
298.945
298.816
298.686
298.557
298.431
298.31
298.194
298.079
297.963
297.844
297.729
297.628
297.548
297.484
297.428
297.372
297.313
297.254
297.207
297.194
297.23
297.306
297.399
297.495
297.615
297.816
298.192
298.887
299.875
299.64
299.423
299.195
298.94
298.676
298.417
298.18
297.972
297.797
297.654
297.549
297.478
297.421
297.361
297.293
297.228
297.196
297.228
297.326
297.449
297.546
297.602
297.626
297.632
297.635
297.645
297.671
297.717
297.795
297.92
298.101
298.345
298.735
299.443
299.744
299.264
298.802
298.352
297.97
297.667
297.444
297.315
297.267
297.27
297.332
297.48
297.693
297.888
297.988
297.995
297.943
297.856
297.765
297.697
297.656
297.629
297.612
297.601
297.596
297.6
297.614
297.643
297.698
297.792
297.937
298.139
298.401
298.798
299.511
299.548
298.688
297.98
297.517
297.345
297.341
297.441
297.639
297.841
297.97
298.01
297.997
297.969
297.945
297.924
297.902
297.878
297.851
297.824
297.796
297.767
297.738
297.712
297.69
297.675
297.67
297.679
297.708
297.766
297.865
298.019
298.239
298.534
298.989
299.756
299.407
298.384
297.771
297.549
297.539
297.594
297.658
297.722
297.799
297.891
297.976
298.035
298.064
298.068
298.056
298.033
298.004
297.972
297.937
297.9
297.862
297.825
297.79
297.76
297.736
297.722
297.722
297.746
297.808
297.927
298.114
298.365
298.671
299.115
299.876
299.304
298.237
297.753
297.667
297.736
297.836
297.933
298.022
298.101
298.172
298.23
298.271
298.293
298.299
298.289
298.262
298.221
298.169
298.106
298.035
297.961
297.889
297.817
297.749
297.694
297.659
297.646
297.658
297.705
297.805
297.973
298.22
298.583
299.206
300.231
299.308
298.274
297.732
297.563
297.575
297.604
297.622
297.654
297.713
297.8
297.906
298.008
298.104
298.203
298.31
298.421
298.524
298.603
298.642
298.63
298.576
298.504
298.43
298.361
298.311
298.294
298.323
298.405
298.534
298.71
298.947
299.278
299.795
300.648
301.816
299.548
298.818
298.352
298.014
297.723
297.461
297.233
297.073
297.02
297.057
297.131
297.209
297.286
297.378
297.508
297.694
297.923
298.164
298.396
298.603
298.772
298.894
298.967
298.989
298.977
298.965
298.984
299.058
299.213
299.463
299.803
300.227
300.773
301.516
302.433
299.625
298.989
298.6
298.328
298.109
297.949
297.853
297.809
297.799
297.794
297.767
297.702
297.601
297.504
297.468
297.516
297.63
297.783
297.958
298.151
298.368
298.612
298.878
299.154
299.411
299.619
299.756
299.82
299.838
299.861
299.947
300.164
300.603
301.357
302.386
299.679
299.092
298.723
298.484
298.294
298.134
298.007
297.916
297.859
297.831
297.828
297.844
297.879
297.932
297.98
297.967
297.855
297.656
297.438
297.29
297.261
297.337
297.544
297.91
298.392
298.932
299.496
300.06
300.596
301.093
301.536
301.941
302.428
303.143
304.051
299.787
299.361
299.018
298.774
298.589
298.438
298.32
298.232
298.173
298.138
298.121
298.113
298.105
298.088
298.056
298.007
297.949
297.893
297.848
297.808
297.759
297.683
297.575
297.45
297.351
297.316
297.398
297.655
298.119
298.799
299.665
300.625
301.47
302.196
302.845
299.855
299.566
299.322
299.138
299.005
298.903
298.819
298.742
298.666
298.59
298.511
298.43
298.348
298.267
298.187
298.109
298.032
297.957
297.884
297.815
297.753
297.7
297.659
297.63
297.608
297.588
297.56
297.523
297.492
297.52
297.714
298.209
298.958
299.625
300.229
299.869
299.618
299.409
299.222
299.031
298.838
298.649
298.469
298.302
298.152
298.02
297.905
297.809
297.734
297.681
297.641
297.606
297.574
297.541
297.514
297.497
297.499
297.522
297.557
297.596
297.63
297.659
297.685
297.713
297.76
297.865
298.093
298.459
298.949
299.629
299.773
299.365
299.001
298.658
298.358
298.111
297.915
297.766
297.664
297.604
297.571
297.558
297.572
297.623
297.705
297.792
297.853
297.876
297.868
297.837
297.795
297.752
297.717
297.693
297.678
297.672
297.675
297.688
297.716
297.768
297.864
298.025
298.255
298.616
299.264
299.625
298.934
298.381
297.997
297.801
297.747
297.767
297.845
297.974
298.103
298.183
298.201
298.171
298.118
298.064
298.017
297.978
297.944
297.916
297.89
297.867
297.847
297.83
297.816
297.807
297.801
297.798
297.801
297.814
297.846
297.913
298.034
298.235
298.604
299.314
299.516
298.688
298.192
298.006
297.993
298.053
298.143
298.228
298.29
298.327
298.339
298.326
298.292
298.245
298.189
298.126
298.059
297.992
297.929
297.873
297.826
297.792
297.773
297.77
297.784
297.814
297.864
297.937
298.032
298.147
298.284
298.45
298.682
299.095
299.863
299.386
298.463
298.04
297.965
298.078
298.259
298.439
298.575
298.656
298.698
298.72
298.731
298.735
298.731
298.719
298.693
298.651
298.589
298.509
298.412
298.302
298.185
298.068
297.96
297.867
297.794
297.747
297.729
297.752
297.828
297.972
298.204
298.588
299.263
300.307
299.231
298.153
297.56
297.337
297.41
297.605
297.779
297.884
297.939
297.974
298.01
298.06
298.131
298.23
298.359
298.512
298.681
298.852
299.011
299.149
299.257
299.337
299.394
299.435
299.467
299.497
299.535
299.593
299.685
299.832
300.065
300.429
300.993
301.838
302.92
299.379
298.495
297.995
297.696
297.52
297.415
297.334
297.249
297.149
297.04
296.938
296.864
296.837
296.869
296.967
297.132
297.358
297.625
297.903
298.164
298.392
298.588
298.763
298.926
299.088
299.261
299.452
299.668
299.912
300.192
300.517
300.898
301.34
301.855
302.463
299.432
298.571
298.082
297.781
297.592
297.489
297.436
297.411
297.403
297.41
297.433
297.472
297.526
297.59
297.659
297.722
297.77
297.797
297.798
297.771
297.716
297.636
297.536
297.434
297.355
297.318
297.328
297.387
297.502
297.671
297.896
298.179
298.531
298.967
299.549
299.539
298.705
298.18
297.858
297.636
297.488
297.396
297.345
297.322
297.317
297.328
297.351
297.384
297.423
297.467
297.514
297.56
297.605
297.646
297.684
297.716
297.743
297.764
297.778
297.783
297.776
297.758
297.729
297.698
297.677
297.681
297.729
297.867
298.189
298.787
299.737
299.193
298.742
298.422
298.192
298.017
297.882
297.78
297.705
297.654
297.624
297.614
297.622
297.646
297.68
297.719
297.758
297.794
297.823
297.845
297.858
297.864
297.863
297.855
297.841
297.82
297.791
297.754
297.711
297.669
297.643
297.657
297.748
298.009
298.595
299.848
299.525
299.218
298.961
298.756
298.592
298.463
298.365
298.29
298.232
298.189
298.159
298.138
298.123
298.11
298.095
298.077
298.054
298.027
297.995
297.96
297.924
297.886
297.848
297.812
297.778
297.747
297.719
297.691
297.664
297.636
297.625
297.691
297.941
298.514
299.867
299.604
299.373
299.183
299.028
298.896
298.78
298.677
298.583
298.497
298.418
298.345
298.276
298.211
298.149
298.09
298.033
297.979
297.926
297.875
297.827
297.782
297.738
297.696
297.659
297.627
297.601
297.584
297.574
297.567
297.571
297.611
297.737
298.016
298.588
299.873
299.636
299.44
299.274
299.125
298.987
298.862
298.747
298.643
298.546
298.455
298.37
298.287
298.208
298.133
298.066
298.012
297.971
297.943
297.926
297.919
297.919
297.919
297.919
297.917
297.915
297.917
297.925
297.94
297.97
298.024
298.123
298.293
298.61
299.23
299.76
299.325
298.976
298.705
298.504
298.359
298.256
298.188
298.146
298.126
298.122
298.129
298.142
298.154
298.156
298.136
298.088
298.015
297.926
297.836
297.756
297.692
297.646
297.617
297.607
297.618
297.648
297.699
297.767
297.853
297.953
298.068
298.218
298.488
299.089
299.553
298.787
298.354
298.224
298.245
298.353
298.507
298.638
298.715
298.749
298.753
298.735
298.704
298.661
298.609
298.545
298.468
298.377
298.272
298.154
298.027
297.896
297.766
297.643
297.534
297.444
297.377
297.337
297.33
297.366
297.46
297.635
297.946
298.526
299.504
299.347
298.414
298.158
298.317
298.466
298.475
298.437
298.404
298.378
298.362
298.359
298.371
298.4
298.445
298.504
298.571
298.641
298.709
298.771
298.823
298.867
298.903
298.934
298.962
298.992
299.027
299.074
299.139
299.236
299.38
299.597
299.926
300.434
301.221
302.296
299.364
298.468
298.029
297.845
297.746
297.636
297.497
297.351
297.219
297.117
297.054
297.034
297.056
297.119
297.221
297.353
297.504
297.659
297.806
297.936
298.053
298.158
298.257
298.358
298.47
298.605
298.768
298.965
299.197
299.473
299.799
300.189
300.648
301.195
301.857
299.399
298.518
298.064
297.819
297.679
297.597
297.543
297.506
297.485
297.483
297.501
297.537
297.587
297.644
297.702
297.752
297.788
297.799
297.781
297.73
297.64
297.51
297.348
297.188
297.07
297.012
297.005
297.046
297.143
297.303
297.532
297.839
298.243
298.758
299.419
299.475
298.547
297.987
297.658
297.446
297.318
297.251
297.224
297.225
297.245
297.277
297.316
297.357
297.399
297.442
297.484
297.526
297.566
297.603
297.636
297.666
297.692
297.716
297.736
297.747
297.742
297.714
297.661
297.585
297.514
297.479
297.501
297.643
298.017
298.668
299.694
299.067
298.561
298.213
297.978
297.812
297.693
297.61
297.552
297.513
297.489
297.478
297.481
297.498
297.525
297.559
297.595
297.632
297.665
297.694
297.714
297.725
297.724
297.712
297.686
297.647
297.6
297.549
297.501
297.46
297.439
297.457
297.559
297.869
298.504
299.81
299.417
299.059
298.763
298.528
298.339
298.186
298.065
297.975
297.91
297.863
297.834
297.82
297.818
297.824
297.833
297.842
297.847
297.845
297.834
297.813
297.784
297.747
297.705
297.662
297.617
297.57
297.524
297.479
297.438
297.406
297.398
297.465
297.722
298.316
299.83
299.498
299.209
298.978
298.802
298.667
298.558
298.467
298.386
298.313
298.246
298.186
298.132
298.081
298.033
297.986
297.936
297.884
297.83
297.774
297.717
297.661
297.61
297.569
297.539
297.518
297.504
297.489
297.47
297.446
297.431
297.465
297.627
297.976
298.603
299.846
299.559
299.332
299.153
298.987
298.814
298.64
298.474
298.323
298.189
298.075
297.977
297.896
297.828
297.769
297.718
297.671
297.626
297.582
297.537
297.489
297.442
297.402
297.379
297.38
297.407
297.452
297.503
297.553
297.61
297.695
297.836
298.059
298.425
299.086
299.752
299.33
298.991
298.671
298.361
298.084
297.851
297.667
297.529
297.434
297.377
297.353
297.352
297.367
297.395
297.438
297.496
297.563
297.625
297.67
297.694
297.696
297.684
297.667
297.656
297.659
297.68
297.72
297.781
297.87
297.996
298.162
298.38
298.744
299.443
299.628
298.987
298.459
298.023
297.722
297.557
297.5
297.507
297.544
297.596
297.651
297.7
297.741
297.768
297.781
297.781
297.772
297.759
297.746
297.733
297.719
297.704
297.689
297.678
297.672
297.676
297.694
297.731
297.794
297.89
298.019
298.177
298.381
298.725
299.389
299.528
298.73
298.15
297.775
297.585
297.515
297.508
297.53
297.564
297.608
297.658
297.716
297.776
297.83
297.865
297.878
297.872
297.853
297.83
297.804
297.778
297.752
297.73
297.712
297.7
297.697
297.703
297.724
297.765
297.834
297.935
298.076
298.287
298.682
299.431
299.479
298.658
298.086
297.718
297.545
297.493
297.504
297.542
297.59
297.644
297.703
297.768
297.84
297.911
297.97
298.008
298.021
298.01
297.979
297.94
297.897
297.854
297.817
297.792
297.783
297.791
297.821
297.877
297.96
298.069
298.207
298.389
298.671
299.188
300.052
299.505
298.759
298.245
297.867
297.627
297.505
297.463
297.467
297.489
297.517
297.554
297.607
297.679
297.771
297.868
297.958
298.038
298.104
298.156
298.188
298.198
298.183
298.147
298.102
298.061
298.033
298.03
298.065
298.148
298.288
298.483
298.735
299.09
299.675
300.574
299.569
298.86
298.42
298.114
297.884
297.733
297.637
297.57
297.511
297.456
297.423
297.43
297.474
297.533
297.587
297.635
297.69
297.762
297.848
297.947
298.054
298.168
298.284
298.392
298.488
298.563
298.612
298.639
298.667
298.727
298.853
299.078
299.46
300.125
301.132
299.621
298.952
298.544
298.27
298.049
297.885
297.779
297.721
297.696
297.696
297.714
297.741
297.753
297.727
297.651
297.543
297.443
297.384
297.368
297.382
297.427
297.515
297.644
297.809
298.009
298.245
298.515
298.806
299.097
299.357
299.582
299.835
300.233
300.938
301.978
299.691
299.107
298.7
298.442
298.249
298.095
297.98
297.9
297.849
297.821
297.809
297.807
297.81
297.818
297.831
297.852
297.876
297.887
297.864
297.803
297.715
297.62
297.534
297.468
297.439
297.485
297.647
297.949
298.395
298.958
299.57
300.15
300.696
301.372
302.288
299.765
299.3
298.928
298.683
298.508
298.365
298.242
298.139
298.056
297.998
297.962
297.947
297.946
297.953
297.964
297.968
297.954
297.913
297.846
297.766
297.691
297.635
297.595
297.57
297.559
297.563
297.591
297.678
297.9
298.347
299.031
299.828
300.483
301.124
301.91
299.814
299.437
299.104
298.86
298.68
298.535
298.417
298.327
298.264
298.227
298.208
298.199
298.191
298.174
298.14
298.084
298.008
297.916
297.82
297.732
297.66
297.606
297.568
297.552
297.561
297.601
297.673
297.785
297.966
298.278
298.788
299.456
300.041
300.627
301.376
299.852
299.55
299.275
299.058
298.901
298.788
298.703
298.634
298.571
298.505
298.431
298.345
298.247
298.138
298.023
297.907
297.797
297.702
297.629
297.579
297.547
297.532
297.538
297.569
297.624
297.699
297.792
297.913
298.088
298.359
298.765
299.283
299.763
300.293
301.048
299.862
299.597
299.374
299.203
299.064
298.932
298.79
298.636
298.475
298.313
298.155
298.008
297.873
297.755
297.66
297.593
297.549
297.526
297.523
297.543
297.581
297.623
297.661
297.698
297.738
297.791
297.864
297.976
298.15
298.412
298.778
299.213
299.615
300.09
300.832
299.825
299.504
299.259
299.053
298.838
298.603
298.367
298.146
297.953
297.796
297.682
297.615
297.585
297.58
297.594
297.623
297.657
297.684
297.696
297.697
297.697
297.7
297.71
297.73
297.762
297.81
297.884
297.996
298.164
298.407
298.729
299.089
299.431
299.866
300.591
299.777
299.377
299.048
298.738
298.428
298.149
297.928
297.78
297.704
297.675
297.67
297.678
297.69
297.704
297.715
297.722
297.724