/*--------------------------------*- C++ -*----------------------------------*\
| =========                 |                                                 |
| \\      /  F ield         | OpenFOAM: The Open Source CFD Toolbox           |
|  \\    /   O peration     | Version:  v2006                                 |
|   \\  /    A nd           | Website:  www.openfoam.com                      |
|    \\/     M anipulation  |                                                 |
\*---------------------------------------------------------------------------*/
FoamFile
{
    version     2.0;
    format      ascii;
    class       volVectorField;
    location    "14";
    object      U;
}
// * * * * * * * * * * * * * * * * * * * * * * * * * * * * * * * * * * * * * //

dimensions      [0 1 -1 0 0 0 0];


internalField   nonuniform List<vector> 
78750
(
(-0.0422326 -0.0185145 0.0104176)
(-0.0340272 -0.0246008 0.020264)
(-0.0318269 -0.0230487 0.0170262)
(-0.0330831 -0.0229013 0.0175311)
(-0.0312339 -0.0220806 0.0174551)
(-0.0299718 -0.021838 0.0174031)
(-0.0280328 -0.0218075 0.0173824)
(-0.025884 -0.0220578 0.017375)
(-0.0234165 -0.0225523 0.0173794)
(-0.0206705 -0.0232267 0.0173834)
(-0.017619 -0.0239388 0.0173961)
(-0.0142615 -0.0245632 0.0174218)
(-0.0106548 -0.0250368 0.0174455)
(-0.00686733 -0.0253274 0.0174536)
(-0.0029513 -0.025419 0.0174397)
(0.00103902 -0.025301 0.0173977)
(0.00504305 -0.0249631 0.0173203)
(0.00899502 -0.0243904 0.0172001)
(0.0128315 -0.0235645 0.0170283)
(0.0164839 -0.0224643 0.0167938)
(0.0198768 -0.0210672 0.0164825)
(0.022932 -0.0193469 0.0160749)
(0.0255616 -0.017276 0.0155396)
(0.027664 -0.0148406 0.0148287)
(0.0291379 -0.0120475 0.0138794)
(0.0298864 -0.00893465 0.0126129)
(0.0298217 -0.00559412 0.0109367)
(0.028879 -0.00219033 0.00878941)
(0.0270558 0.00109176 0.00615786)
(0.0243779 0.00416386 0.00315369)
(0.0209476 0.00714275 -0.000103956)
(0.0168765 0.0102501 -0.00358593)
(0.0120402 0.0136556 -0.00641095)
(0.00649725 0.0158799 -0.0055576)
(0.00141937 0.0110137 -6.26086e-05)
(-0.00365473 0.022162 0.0188154)
(-0.00946347 0.00137137 0.0312068)
(-0.01563 -0.0106484 0.0301027)
(-0.0201957 -0.017194 0.0257479)
(-0.0238149 -0.0223603 0.0220411)
(-0.0264344 -0.0272115 0.0194919)
(-0.028121 -0.0316799 0.0179509)
(-0.028835 -0.035647 0.0171364)
(-0.0286382 -0.0393959 0.0167149)
(-0.0277112 -0.0432602 0.0164255)
(-0.0262378 -0.0471269 0.0161994)
(-0.0242966 -0.050617 0.01609)
(-0.0219436 -0.0534953 0.0161346)
(-0.0192602 -0.0557007 0.0163316)
(-0.0163298 -0.0572403 0.0166633)
(-0.0132225 -0.0581284 0.0171106)
(-0.00999564 -0.058368 0.0176589)
(-0.00669978 -0.0579452 0.0182971)
(-0.00338144 -0.0568304 0.019016)
(-8.64956e-05 -0.0549778 0.0198055)
(0.00313746 -0.0523267 0.0206516)
(0.00624067 -0.0488031 0.0215312)
(0.00916798 -0.0443234 0.0224045)
(0.0118529 -0.0388024 0.0232017)
(0.0142146 -0.032174 0.0238006)
(0.0161505 -0.0244214 0.0239915)
(0.0175206 -0.0156582 0.0234303)
(0.0181222 -0.0062922 0.0216349)
(0.0177303 0.00279061 0.018211)
(0.0162446 0.0105102 0.0135675)
(0.0137871 0.0168752 0.00905507)
(0.0105097 0.0233276 0.0059138)
(0.00676433 0.0301453 0.00451256)
(0.00326904 0.0332497 0.00466984)
(0.000430851 0.0226236 0.00442293)
(-0.00141705 0.0432728 0.0125855)
(-0.00771655 0.0426008 0.0166113)
(-0.015687 0.0313496 0.0109214)
(-0.0225946 0.0210214 0.00543527)
(-0.0273522 0.00938239 0.00248398)
(-0.0306818 -0.00344303 0.000882996)
(-0.0328921 -0.0162767 0.000145908)
(-0.0340693 -0.0285353 -0.000203242)
(-0.0342385 -0.039859 -0.000450735)
(-0.0335052 -0.0498633 -0.000668743)
(-0.0320508 -0.0583136 -0.000817411)
(-0.0300602 -0.0652201 -0.000845631)
(-0.0276941 -0.070722 -0.000733173)
(-0.0250831 -0.0749918 -0.000482075)
(-0.022328 -0.0781897 -0.000102942)
(-0.0195022 -0.0804417 0.00039488)
(-0.0166577 -0.0818323 0.00100844)
(-0.0138327 -0.0824057 0.00174273)
(-0.0110569 -0.082169 0.00261116)
(-0.00835384 -0.0810934 0.0036355)
(-0.00574302 -0.0791118 0.00484618)
(-0.00324063 -0.0761135 0.00628275)
(-0.000859984 -0.0719369 0.00799306)
(0.00137735 -0.0663558 0.0100262)
(0.00345052 -0.0590652 0.0124112)
(0.00533622 -0.049671 0.0151043)
(0.00699134 -0.0377152 0.0178805)
(0.00835484 -0.022829 0.0201132)
(0.0093345 -0.00518533 0.0204743)
(0.0096616 0.0136537 0.0170828)
(0.00893976 0.0301046 0.00949386)
(0.00701028 0.0405666 0.00152311)
(0.0047563 0.0447847 -0.00207904)
(0.00247758 0.0432834 -0.00113665)
(0.000328512 0.0265831 0.00200915)
(9.32433e-06 0.0609623 0.00697911)
(-0.00247124 0.0804643 0.0105925)
(-0.00678245 0.0711845 0.00682827)
(-0.0113781 0.0495023 8.22069e-05)
(-0.0149601 0.0269454 -0.00336726)
(-0.0181694 0.00780654 -0.00258167)
(-0.021043 -0.0093612 2.15039e-05)
(-0.0230746 -0.0260835 0.00248536)
(-0.0239621 -0.0425356 0.00394042)
(-0.0237836 -0.0574294 0.00430002)
(-0.0228118 -0.0696457 0.00407038)
(-0.0212881 -0.0790793 0.0037359)
(-0.0193956 -0.0861136 0.00350342)
(-0.0172558 -0.091201 0.0034105)
(-0.0149591 -0.0947262 0.00343209)
(-0.0125813 -0.0969787 0.00352865)
(-0.0101792 -0.0981612 0.00366359)
(-0.00779105 -0.0984062 0.00380875)
(-0.00544522 -0.0977951 0.00394482)
(-0.00316659 -0.0963714 0.00405971)
(-0.000984076 -0.094148 0.00414678)
(0.00106906 -0.0911004 0.0042081)
(0.00296813 -0.087173 0.00426569)
(0.00469488 -0.0822788 0.00437235)
(0.00622762 -0.0762796 0.00463134)
(0.00754778 -0.0689525 0.00522668)
(0.0086405 -0.0599307 0.00645736)
(0.00949204 -0.048636 0.00873183)
(0.0100953 -0.0342426 0.0123442)
(0.010437 -0.0159045 0.016718)
(0.0102904 0.00585186 0.019451)
(0.00891489 0.0270133 0.0176698)
(0.00619896 0.041739 0.0127049)
(0.00316906 0.0453314 0.00884041)
(0.000571939 0.0290441 0.00550256)
(0.00104649 0.0506151 0.00207314)
(0.00292614 0.0819144 0.00506418)
(0.00310637 0.0828659 0.00447594)
(0.0024064 0.0745697 0.00212993)
(0.000726683 0.0599794 -0.000509036)
(-0.00158422 0.0425044 -0.00136699)
(-0.0040153 0.0224586 0.000550529)
(-0.00582978 -0.00190492 0.0043778)
(-0.00637157 -0.0288761 0.00718677)
(-0.00615625 -0.0531356 0.0074752)
(-0.00567615 -0.0718562 0.00635546)
(-0.00503803 -0.085394 0.00508734)
(-0.00428694 -0.095074 0.00416733)
(-0.00342994 -0.102013 0.00363739)
(-0.00245266 -0.106942 0.00341063)
(-0.00134249 -0.110302 0.00340124)
(-0.000101907 -0.112344 0.00355143)
(0.00125284 -0.113205 0.00382799)
(0.0026975 -0.112949 0.00421288)
(0.00420259 -0.111589 0.00469485)
(0.0057344 -0.109095 0.00526261)
(0.00725514 -0.105395 0.00589757)
(0.00872123 -0.10037 0.00656652)
(0.0100813 -0.0938618 0.00721343)
(0.0112759 -0.0856681 0.00775215)
(0.0122279 -0.0755498 0.00806589)
(0.0128531 -0.0632416 0.00804024)
(0.0130633 -0.0485798 0.00770003)
(0.0128244 -0.0316452 0.00747173)
(0.0122375 -0.0121775 0.00824271)
(0.0115479 0.0111777 0.0104624)
(0.0103754 0.0370833 0.0123641)
(0.00772683 0.0559894 0.0118724)
(0.00399324 0.0599937 0.0100152)
(0.000639734 0.0375332 0.00584215)
(9.33492e-05 0.038035 0.00070976)
(0.00134162 0.0702906 0.0019968)
(0.00202877 0.0762463 0.00211239)
(0.00227493 0.072981 0.00137717)
(0.00215072 0.0624499 0.000112956)
(0.00175086 0.0455947 4.06144e-05)
(0.00197241 0.0222065 0.00247386)
(0.00321465 -0.0067862 0.00554286)
(0.00469158 -0.035775 0.00664162)
(0.00546582 -0.0592628 0.00587615)
(0.00561421 -0.0760304 0.00465408)
(0.00551835 -0.0877138 0.00376361)
(0.0054527 -0.0962492 0.00327308)
(0.00554231 -0.10286 0.00301157)
(0.00583486 -0.108117 0.002822)
(0.00633812 -0.112233 0.00261981)
(0.00703233 -0.115273 0.00238267)
(0.00788811 -0.11726 0.00212382)
(0.00887554 -0.118202 0.00186983)
(0.00996643 -0.118095 0.00164913)
(0.011133 -0.116905 0.00148779)
(0.0123449 -0.114559 0.00140813)
(0.0135652 -0.110932 0.00142731)
(0.0147443 -0.105841 0.0015549)
(0.0158138 -0.0990274 0.00178837)
(0.0166755 -0.0901395 0.0021017)
(0.0171831 -0.0787108 0.00242769)
(0.0171161 -0.0643541 0.0027091)
(0.016157 -0.0475816 0.00324557)
(0.0139594 -0.0293258 0.00496095)
(0.0106553 -0.00695579 0.00838668)
(0.00724559 0.0246416 0.011944)
(0.00408862 0.0569174 0.0127294)
(0.00139202 0.0682324 0.0103409)
(-5.78075e-05 0.0429503 0.00488621)
(-0.000211653 0.0345554 0.000872827)
(-0.000724526 0.0610506 0.000451535)
(-0.00126466 0.0659955 9.53453e-05)
(-0.00179039 0.0633788 0.000334855)
(-0.00210957 0.0525846 0.00210984)
(-0.00148395 0.0305463 0.00589867)
(0.000156258 2.60904e-05 0.00947567)
(0.00185972 -0.0303 0.010537)
(0.00277586 -0.0535975 0.00972358)
(0.00293196 -0.0694853 0.00871605)
(0.00273426 -0.080948 0.00814657)
(0.00249756 -0.0904382 0.0078911)
(0.00239336 -0.0989765 0.00772478)
(0.00248064 -0.106626 0.00752476)
(0.00274544 -0.113118 0.00728014)
(0.00314316 -0.118231 0.00703964)
(0.00363198 -0.121904 0.00685636)
(0.0041815 -0.124175 0.00676317)
(0.00476919 -0.125103 0.00677289)
(0.00537573 -0.124712 0.00688683)
(0.00598259 -0.122963 0.00710163)
(0.00657084 -0.119728 0.00741138)
(0.0071182 -0.11477 0.00780379)
(0.0075943 -0.10772 0.00824886)
(0.0079575 -0.0980665 0.00867943)
(0.00815154 -0.0850672 0.00894854)
(0.00811785 -0.0675275 0.00872824)
(0.00781799 -0.0439077 0.00745762)
(0.0070613 -0.0141424 0.00501671)
(0.00501214 0.0170993 0.0032563)
(0.00166672 0.0430748 0.0042604)
(-0.00134264 0.0624301 0.00639676)
(-0.00253782 0.0727615 0.00671798)
(-0.00227163 0.0688038 0.00492256)
(-0.000713594 0.0361773 0.00151759)
(-0.000222193 0.0391918 0.00202128)
(-0.00151036 0.0707759 0.00273268)
(-0.00304075 0.076785 0.00340327)
(-0.00425719 0.069002 0.00526285)
(-0.0045088 0.046713 0.00819501)
(-0.00337221 0.0147753 0.00979197)
(-0.00203443 -0.0161872 0.00848241)
(-0.00133004 -0.0393691 0.00578231)
(-0.00117224 -0.0558024 0.00357697)
(-0.00120982 -0.0689203 0.0022704)
(-0.00119751 -0.0806333 0.00159061)
(-0.00102066 -0.0913201 0.0012537)
(-0.000675409 -0.10072 0.00108414)
(-0.000220907 -0.108572 0.000994806)
(0.000287042 -0.11482 0.000952234)
(0.000813541 -0.119573 0.000948184)
(0.00133779 -0.122987 0.000984123)
(0.00184451 -0.125185 0.00106568)
(0.00231925 -0.126226 0.00120143)
(0.00274546 -0.126113 0.00140252)
(0.00310292 -0.124779 0.00168312)
(0.00336652 -0.122081 0.00206275)
(0.00350418 -0.117772 0.00257107)
(0.00347332 -0.111494 0.00325449)
(0.00322349 -0.102802 0.00418581)
(0.00270933 -0.0911249 0.00546454)
(0.00195771 -0.0754901 0.00711893)
(0.00119046 -0.0542606 0.00873686)
(0.000855889 -0.0262344 0.0091645)
(0.0010658 0.00586024 0.00772288)
(0.000972571 0.0345134 0.00579349)
(0.000374617 0.0535831 0.00463351)
(-1.62457e-06 0.0600587 0.00375578)
(-4.02987e-05 0.0540296 0.00257177)
(0.00014335 0.0269665 0.00104489)
(5.43161e-05 0.0388427 0.0022301)
(-0.000326743 0.0697327 0.00308704)
(-0.0010755 0.0728463 0.00358728)
(-0.00165703 0.0589294 0.00513788)
(-0.00161936 0.0302936 0.00678459)
(-0.00133137 -0.0024926 0.00612986)
(-0.00153386 -0.0290684 0.00419638)
(-0.00202387 -0.047995 0.00308144)
(-0.00248722 -0.0623726 0.00313961)
(-0.00277541 -0.0746408 0.00390194)
(-0.00283819 -0.0858704 0.0049095)
(-0.00267803 -0.096248 0.00582867)
(-0.00234072 -0.105529 0.00647042)
(-0.00187971 -0.113406 0.00680034)
(-0.00134037 -0.119709 0.00689195)
(-0.000755485 -0.124435 0.00685261)
(-0.000146355 -0.127673 0.00677381)
(0.000471894 -0.129521 0.00671682)
(0.00108665 -0.130036 0.00671749)
(0.00168656 -0.129218 0.0067938)
(0.00226122 -0.126991 0.00694971)
(0.00280176 -0.123179 0.00717261)
(0.00329973 -0.117479 0.00742076)
(0.00374166 -0.109476 0.00760066)
(0.00409761 -0.0987536 0.00755753)
(0.004312 -0.085102 0.00714518)
(0.00432009 -0.0686828 0.00645657)
(0.00409979 -0.0495945 0.00604942)
(0.00378557 -0.0268221 0.0065191)
(0.00371059 0.000870481 0.00729998)
(0.00379684 0.0301836 0.00699848)
(0.00338203 0.0522562 0.00558125)
(0.00254349 0.0603085 0.00419388)
(0.00148432 0.0550636 0.00306868)
(0.000325173 0.0293791 0.00157368)
(-5.60282e-05 0.0370045 0.00333604)
(-0.000283993 0.0692673 0.00587816)
(-0.000673051 0.0739107 0.00760782)
(-0.000795681 0.0595084 0.00934882)
(-0.000560562 0.0312088 0.00914715)
(-0.00058232 0.00215147 0.00652946)
(-0.00107649 -0.0207924 0.0038398)
(-0.00173189 -0.0386104 0.00228956)
(-0.00229592 -0.053966 0.00170658)
(-0.00263874 -0.0684319 0.00163521)
(-0.00270293 -0.0823036 0.00167845)
(-0.00250904 -0.0950817 0.00158741)
(-0.00213494 -0.106099 0.00131052)
(-0.00165648 -0.115025 0.000938112)
(-0.00112656 -0.121923 0.000584802)
(-0.000572897 -0.12706 0.000323211)
(-6.70127e-06 -0.130706 0.000183399)
(0.000567543 -0.133049 0.000175253)
(0.00114709 -0.13419 0.000305651)
(0.0017291 -0.134157 0.000587738)
(0.0023099 -0.132908 0.00104587)
(0.00288441 -0.13032 0.00171837)
(0.00344547 -0.126142 0.00265614)
(0.00398252 -0.119919 0.00390445)
(0.00447563 -0.110931 0.00543138)
(0.00488179 -0.0982957 0.0069804)
(0.00511843 -0.0813527 0.00798579)
(0.00505355 -0.0602492 0.00794229)
(0.00458709 -0.0358324 0.00717109)
(0.0038405 -0.00848564 0.00667211)
(0.00319445 0.0208987 0.00652623)
(0.00254531 0.0469242 0.00580039)
(0.00167868 0.0608151 0.00456246)
(0.000709983 0.0585932 0.00323977)
(1.76015e-05 0.0323243 0.00143877)
(-0.000429259 0.0365769 0.00515061)
(-0.00121917 0.0646245 0.00991724)
(-0.00179538 0.0628893 0.0106561)
(-0.0019469 0.0419214 0.00842757)
(-0.00209757 0.0130752 0.00387745)
(-0.00268172 -0.0115594 -0.000224443)
(-0.00360244 -0.0300112 -0.00214146)
(-0.00458944 -0.0450543 -0.00212509)
(-0.00542744 -0.0591261 -0.000935992)
(-0.0060016 -0.073181 0.000717635)
(-0.00628328 -0.0869135 0.00224529)
(-0.00631569 -0.0994445 0.00332121)
(-0.00617135 -0.110059 0.00392849)
(-0.00591516 -0.118536 0.00421073)
(-0.00559201 -0.125028 0.00431797)
(-0.00522925 -0.129818 0.00435045)
(-0.00484224 -0.133138 0.0043629)
(-0.00444006 -0.135129 0.00438268)
(-0.00402827 -0.135855 0.00442317)
(-0.00361001 -0.135308 0.00449203)
(-0.00318634 -0.133408 0.00459711)
(-0.00275604 -0.129979 0.0047521)
(-0.00231418 -0.124711 0.00498236)
(-0.00185254 -0.117119 0.0053276)
(-0.00136539 -0.106567 0.00582678)
(-0.000852749 -0.0923462 0.00645431)
(-0.000343773 -0.0738791 0.00700079)
(4.60765e-05 -0.0511264 0.00704177)
(0.000129417 -0.0250781 0.00635481)
(-0.00031673 0.0024811 0.0054639)
(-0.000944464 0.0292183 0.00498731)
(-0.00126052 0.0511677 0.00451448)
(-0.0012676 0.0615971 0.00372068)
(-0.000969359 0.0571284 0.00267551)
(-0.00030529 0.0299021 0.00111848)
(-0.000135256 0.0364525 0.00310967)
(-0.000561817 0.0593845 0.00587106)
(-0.00104048 0.0559251 0.00479304)
(-0.0017733 0.0383922 0.000949718)
(-0.003037 0.0173493 -0.00314449)
(-0.00458219 -0.000657121 -0.00497436)
(-0.00605707 -0.0165192 -0.00455353)
(-0.00728606 -0.0323607 -0.0028734)
(-0.00820478 -0.0491532 -0.000888024)
(-0.00878505 -0.0665689 0.000676801)
(-0.00903795 -0.083455 0.00148377)
(-0.00901288 -0.0985031 0.00161143)
(-0.00879118 -0.110905 0.00136402)
(-0.00845991 -0.120571 0.00103115)
(-0.00808684 -0.127869 0.000779378)
(-0.00771632 -0.13326 0.000674701)
(-0.0073745 -0.137104 0.000733863)
(-0.00707702 -0.139625 0.000956489)
(-0.00683567 -0.140941 0.00133901)
(-0.00665699 -0.141085 0.00188104)
(-0.00654076 -0.140026 0.00258863)
(-0.00648084 -0.137651 0.00347793)
(-0.00646024 -0.133715 0.00457862)
(-0.00644507 -0.127757 0.00592982)
(-0.00637812 -0.118974 0.00754718)
(-0.00616894 -0.106209 0.00933522)
(-0.00570583 -0.0882678 0.0109685)
(-0.00491832 -0.0645559 0.0118506)
(-0.00388628 -0.0359948 0.0113993)
(-0.00285693 -0.00554857 0.00975408)
(-0.00212288 0.0226144 0.00791762)
(-0.00160388 0.0438855 0.00647865)
(-0.0011111 0.0530672 0.00532798)
(-0.00055467 0.0484449 0.00412243)
(-4.26669e-06 0.0245853 0.00208276)
(-2.94516e-05 0.036884 0.000494743)
(-0.00056144 0.0605766 0.000599703)
(-0.00140773 0.0589899 -0.00112064)
(-0.00253143 0.04589 -0.00397022)
(-0.00384523 0.0274653 -0.00643575)
(-0.00493406 0.00884441 -0.00728276)
(-0.00578915 -0.00907714 -0.00680171)
(-0.00649986 -0.0268042 -0.00556326)
(-0.00710568 -0.0449155 -0.00397232)
(-0.00756312 -0.0634411 -0.00233937)
(-0.00780635 -0.0814773 -0.000973481)
(-0.00781804 -0.0975656 -8.1512e-05)
(-0.00763848 -0.11066 0.000357557)
(-0.00733376 -0.120607 0.0005077)
(-0.00696464 -0.127855 0.00052115)
(-0.00657542 -0.132968 0.000485195)
(-0.00619512 -0.136379 0.000439774)
(-0.00584429 -0.138355 0.000403178)
(-0.00553928 -0.13904 0.000388036)
(-0.0052925 -0.138492 0.000409142)
(-0.00511415 -0.136713 0.000488552)
(-0.00501276 -0.133658 0.000661955)
(-0.00499383 -0.129235 0.000989478)
(-0.00505362 -0.1233 0.00157314)
(-0.00517119 -0.115594 0.00257507)
(-0.00528661 -0.105567 0.00420851)
(-0.00527673 -0.0921635 0.00662102)
(-0.00494093 -0.0738611 0.00958816)
(-0.00408902 -0.0495868 0.0122128)
(-0.00275914 -0.0205533 0.013305)
(-0.00131922 0.00863223 0.0125736)
(-0.000173318 0.0314705 0.0109642)
(0.000386726 0.0424938 0.00937916)
(0.00047253 0.0406641 0.00757495)
(0.000254462 0.022033 0.00396595)
(0.000213852 0.035872 -0.00162502)
(0.000337386 0.0606549 -0.00346773)
(0.000220816 0.060663 -0.00528996)
(-0.000192064 0.0499353 -0.00739091)
(-0.000939744 0.0324129 -0.00917488)
(-0.00185542 0.014012 -0.00965399)
(-0.00289167 -0.0035631 -0.00872794)
(-0.00395573 -0.0212037 -0.00660435)
(-0.00490672 -0.0402403 -0.00367207)
(-0.00558747 -0.0608744 -0.000643622)
(-0.00591576 -0.0815571 0.0016317)
(-0.00593059 -0.100007 0.00275397)
(-0.00572081 -0.114789 0.00296415)
(-0.00537167 -0.125781 0.00273366)
(-0.00494855 -0.133644 0.00239726)
(-0.00449571 -0.139143 0.00210333)
(-0.00404118 -0.142834 0.00189689)
(-0.00360246 -0.145047 0.00178411)
(-0.00319049 -0.145956 0.00175974)
(-0.00281234 -0.145644 0.0018154)
(-0.0024725 -0.144125 0.001941)
(-0.00217375 -0.141347 0.00212393)
(-0.00191785 -0.137176 0.002348)
(-0.00170787 -0.131386 0.00259613)
(-0.0015541 -0.123672 0.00286764)
(-0.0014702 -0.113714 0.00322941)
(-0.0014538 -0.101204 0.00390563)
(-0.00144599 -0.0856197 0.00530877)
(-0.00128795 -0.0658589 0.0077612)
(-0.000764476 -0.0408058 0.0108103)
(0.000149181 -0.0117192 0.0130285)
(0.00104196 0.0156922 0.0133362)
(0.00134923 0.0335436 0.0120765)
(0.00102069 0.0373448 0.00972163)
(0.000333194 0.022668 0.00495831)
(0.000352957 0.0325881 -0.00263289)
(0.00124231 0.0588973 -0.00591146)
(0.00183262 0.0617353 -0.00777707)
(0.00211715 0.0563044 -0.00928083)
(0.00207566 0.0442812 -0.0104532)
(0.0016376 0.0290988 -0.0105273)
(0.0010668 0.0121976 -0.00924974)
(0.00058174 -0.00687921 -0.00670921)
(0.000332008 -0.0286912 -0.00336472)
(0.000389454 -0.0525827 -0.000158669)
(0.000707727 -0.0762526 0.00190747)
(0.00114387 -0.096941 0.00254424)
(0.00158078 -0.113133 0.00221122)
(0.00197077 -0.124849 0.00150885)
(0.00231497 -0.132944 0.000792278)
(0.00262706 -0.138374 0.000179775)
(0.00291637 -0.141836 -0.00031635)
(0.00318494 -0.143734 -0.000706672)
(0.00343331 -0.144288 -0.000998386)
(0.00366112 -0.143614 -0.00119076)
(0.0038666 -0.141755 -0.00127497)
(0.00404668 -0.138702 -0.0012349)
(0.00419708 -0.134382 -0.00104885)
(0.00431107 -0.128643 -0.000694134)
(0.00437354 -0.121204 -0.000157587)
(0.00436145 -0.111646 0.000545678)
(0.00424386 -0.0995551 0.00136856)
(0.00398484 -0.0847023 0.00231531)
(0.00357451 -0.0669948 0.00362926)
(0.00307413 -0.046034 0.00577997)
(0.0026236 -0.0213434 0.00874328)
(0.00225168 0.00507075 0.0112396)
(0.00170556 0.0263794 0.0117587)
(0.000990062 0.0342849 0.00995794)
(0.000273807 0.0232253 0.00509195)
(0.000212588 0.0282866 -0.00217337)
(0.00120772 0.0539946 -0.0057031)
(0.00203672 0.0584141 -0.00751927)
(0.00266869 0.0548406 -0.00853891)
(0.00318579 0.0445846 -0.00896837)
(0.00336971 0.0293927 -0.00831522)
(0.00339886 0.0110967 -0.0062895)
(0.00351961 -0.0100358 -0.00287642)
(0.00396172 -0.0342555 0.00126726)
(0.00475587 -0.0602833 0.00468732)
(0.00563186 -0.0848598 0.00626679)
(0.00629434 -0.105066 0.00615389)
(0.00666668 -0.120051 0.00519912)
(0.00683277 -0.130563 0.00409331)
(0.00689469 -0.137801 0.00312688)
(0.00692229 -0.142718 0.00234565)
(0.00695405 -0.145903 0.00171854)
(0.0070087 -0.147675 0.00120788)
(0.00709371 -0.148205 0.000784633)
(0.00720792 -0.147572 0.000428618)
(0.0073446 -0.145784 0.000126713)
(0.00749463 -0.14279 -0.000128838)
(0.00764262 -0.138465 -0.00034043)
(0.00776481 -0.13259 -0.00050271)
(0.00782694 -0.124843 -0.000596828)
(0.00778191 -0.114808 -0.000580839)
(0.00757047 -0.10209 -0.000380579)
(0.00713367 -0.0863605 0.000106433)
(0.00644323 -0.067406 0.00100709)
(0.00551794 -0.0451439 0.00250515)
(0.00443606 -0.0198957 0.00475003)
(0.00328954 0.00635277 0.0072658)
(0.00206067 0.0277819 0.00861911)
(0.00101314 0.0357169 0.00771659)
(0.000252854 0.0246231 0.00397642)
(6.06288e-05 0.0248739 -0.000571642)
(0.000742943 0.0491385 -0.003164)
(0.00143325 0.054957 -0.00475663)
(0.00198894 0.052968 -0.0054459)
(0.00248142 0.0452799 -0.0052983)
(0.00283368 0.0321793 -0.00377236)
(0.00329595 0.0140305 -0.000477549)
(0.00427831 -0.00978973 0.00400345)
(0.00585738 -0.0380011 0.00768736)
(0.00755204 -0.0661552 0.00887937)
(0.00881608 -0.0898455 0.00776568)
(0.00948061 -0.107573 0.00566517)
(0.00969366 -0.120205 0.00363507)
(0.00966655 -0.129203 0.00206085)
(0.0095535 -0.135683 0.000928967)
(0.00944043 -0.140296 0.000117872)
(0.00936695 -0.143389 -0.000479751)
(0.00934538 -0.145158 -0.000934273)
(0.00937359 -0.145705 -0.00128528)
(0.00944354 -0.145069 -0.0015517)
(0.00954452 -0.143237 -0.00174037)
(0.00966127 -0.140139 -0.00185161)
(0.0097726 -0.135627 -0.00188379)
(0.0098493 -0.129438 -0.00183835)
(0.00984971 -0.121169 -0.00172882)
(0.00971445 -0.11032 -0.00159453)
(0.00936858 -0.0965243 -0.00150249)
(0.00873207 -0.0798211 -0.00148246)
(0.00774381 -0.060674 -0.00135943)
(0.00640619 -0.0394739 -0.000664198)
(0.00483389 -0.016119 0.0010511)
(0.00323455 0.00849075 0.00348844)
(0.00174153 0.0291805 0.0052296)
(0.000699104 0.0365465 0.00494711)
(0.000125227 0.0254538 0.00248413)
(-0.000191319 0.0239865 0.00154678)
(-0.0004214 0.0466534 0.000891827)
(-0.000545041 0.0522253 8.66945e-05)
(-0.000622868 0.0501281 0.00012621)
(-0.000579347 0.0413119 0.00162035)
(-1.08514e-05 0.0241553 0.00504987)
(0.00146531 -0.00153889 0.00918006)
(0.0035971 -0.0327117 0.011478)
(0.00560168 -0.0630029 0.0105909)
(0.00682828 -0.08728 0.0075944)
(0.00722367 -0.104582 0.00443427)
(0.00712394 -0.116742 0.00216747)
(0.00685635 -0.125787 0.000824261)
(0.00659695 -0.132869 7.85791e-05)
(0.00642078 -0.138439 -0.000357334)
(0.00634593 -0.142653 -0.000654456)
(0.00636476 -0.145584 -0.000895626)
(0.00646044 -0.147293 -0.00111391)
(0.00661633 -0.147808 -0.00131791)
(0.00681954 -0.14713 -0.00150592)
(0.00705542 -0.145214 -0.00167099)
(0.00730565 -0.141947 -0.00180233)
(0.00754619 -0.137119 -0.00188533)
(0.00774498 -0.130382 -0.00190127)
(0.0078604 -0.121225 -0.00182957)
(0.00784166 -0.109039 -0.00166372)
(0.00763792 -0.0933098 -0.00145305)
(0.00720391 -0.0738603 -0.0013405)
(0.00648949 -0.0511901 -0.00146431)
(0.0054405 -0.0266738 -0.00164732)
(0.00406744 -0.00211695 -0.00129586)
(0.00255187 0.0203637 -9.70324e-05)
(0.0012459 0.0366004 0.00114679)
(0.000357049 0.0409638 0.00135199)
(-2.51397e-05 0.0262608 0.000475195)
(-0.000279561 0.0259799 0.00346335)
(-0.00120322 0.0489242 0.0054022)
(-0.00202376 0.0538839 0.00603938)
(-0.00253114 0.049742 0.00735009)
(-0.00243507 0.0350719 0.00994398)
(-0.0012298 0.00939711 0.0122034)
(0.000645191 -0.0218818 0.0116551)
(0.00221679 -0.0505874 0.00812731)
(0.00290845 -0.0721823 0.00390453)
(0.00293449 -0.0877256 0.000957309)
(0.00272883 -0.10018 -0.000475726)
(0.00255977 -0.111245 -0.00100017)
(0.00252564 -0.12113 -0.00117642)
(0.00262031 -0.129477 -0.00129443)
(0.00280398 -0.136088 -0.00143869)
(0.00304189 -0.14102 -0.00160334)
(0.003318 -0.144418 -0.0017643)
(0.00362695 -0.146424 -0.00190481)
(0.00396326 -0.147123 -0.00201698)
(0.00431843 -0.146538 -0.00209735)
(0.00468056 -0.144625 -0.00214301)
(0.00503344 -0.141255 -0.00214924)
(0.00535461 -0.13618 -0.00210878)
(0.00561208 -0.128995 -0.00201346)
(0.00576239 -0.119154 -0.00186078)
(0.00575022 -0.106085 -0.00167158)
(0.00551953 -0.0894541 -0.00150613)
(0.00503679 -0.0693137 -0.00145636)
(0.0043168 -0.0461803 -0.00159649)
(0.00342852 -0.0211273 -0.00187516)
(0.00246331 0.00401516 -0.00201345)
(0.00149076 0.0263372 -0.00172071)
(0.000684638 0.0410732 -0.00121774)
(0.00014516 0.0438307 -0.000967496)
(-5.26638e-05 0.0267402 -0.000752894)
(-0.000314012 0.0291675 0.00468009)
(-0.00151822 0.0529865 0.00902213)
(-0.00268932 0.0554081 0.0109553)
(-0.00334647 0.0447481 0.012306)
(-0.00317808 0.0207038 0.0123736)
(-0.00234322 -0.00993617 0.00945997)
(-0.00183773 -0.0379133 0.00454739)
(-0.00202188 -0.059411 0.000427209)
(-0.0025677 -0.0765316 -0.00171068)
(-0.00311035 -0.0918165 -0.00244973)
(-0.00346548 -0.10578 -0.00263739)
(-0.0036023 -0.117804 -0.00273508)
(-0.0035804 -0.127492 -0.00285161)
(-0.00345884 -0.134977 -0.00295168)
(-0.00326298 -0.14064 -0.00299957)
(-0.00300468 -0.144809 -0.0029867)
(-0.00269269 -0.147681 -0.00292081)
(-0.00233585 -0.149344 -0.00281427)
(-0.00194328 -0.14981 -0.00267755)
(-0.00152439 -0.149039 -0.00251608)
(-0.00108913 -0.146928 -0.00232826)
(-0.000647724 -0.14329 -0.00210374)
(-0.000209875 -0.137799 -0.00182194)
(0.000209317 -0.129949 -0.00145506)
(0.000596302 -0.119066 -0.000987178)
(0.000935506 -0.10444 -0.000467208)
(0.00118618 -0.08566 -6.60936e-05)
(0.00127768 -0.0629857 -5.28741e-05)
(0.00112023 -0.0376638 -0.000596761)
(0.00068883 -0.0116925 -0.00152052)
(0.000115379 0.0126999 -0.00235598)
(-0.000339556 0.0328247 -0.00273505)
(-0.000506999 0.0445987 -0.00268371)
(-0.000434993 0.0452073 -0.00237896)
(-0.000165453 0.0263437 -0.00140409)
(-0.000203756 0.0315308 0.00464528)
(-0.00111861 0.055726 0.00993728)
(-0.00212104 0.0555129 0.0118749)
(-0.00276794 0.0399347 0.0112902)
(-0.00305112 0.0134142 0.00761958)
(-0.00344851 -0.0136451 0.00212765)
(-0.00427007 -0.0356911 -0.00238005)
(-0.00524139 -0.0536959 -0.00481903)
(-0.00610832 -0.0697879 -0.00573846)
(-0.00676863 -0.0847781 -0.00582237)
(-0.0071912 -0.0985658 -0.00549336)
(-0.00738241 -0.110861 -0.00500768)
(-0.00736926 -0.121414 -0.00451179)
(-0.00719431 -0.130106 -0.00406935)
(-0.00690609 -0.136985 -0.00369008)
(-0.00654737 -0.142197 -0.00336045)
(-0.00615037 -0.145898 -0.00306395)
(-0.00573759 -0.148203 -0.0027882)
(-0.00532433 -0.149172 -0.00252457)
(-0.00492119 -0.148802 -0.00226509)
(-0.00453575 -0.147023 -0.00199817)
(-0.00417284 -0.143675 -0.00170328)
(-0.00383256 -0.138475 -0.00134398)
(-0.00350632 -0.130981 -0.000862779)
(-0.0031745 -0.120576 -0.000191445)
(-0.00280124 -0.106485 0.000695858)
(-0.00234859 -0.0879691 0.0016759)
(-0.00181282 -0.0647749 0.00237778)
(-0.00128374 -0.0379266 0.00230357)
(-0.000915245 -0.010065 0.00128956)
(-0.000764197 0.0153601 -0.000171973)
(-0.000699245 0.0350211 -0.00135122)
(-0.000577577 0.0453423 -0.00187113)
(-0.000352429 0.0447398 -0.00180323)
(-7.32321e-05 0.0253029 -0.000952488)
(-9.65745e-05 0.0326232 0.0033623)
(-0.000694164 0.0568036 0.00777601)
(-0.00153141 0.0552592 0.00859078)
(-0.00234475 0.0384915 0.0060424)
(-0.0032545 0.0135805 0.00076795)
(-0.00435005 -0.0101415 -0.00443509)
(-0.00553572 -0.0302103 -0.00762167)
(-0.00665216 -0.0480739 -0.00874797)
(-0.00762077 -0.065258 -0.00844034)
(-0.00837338 -0.0822021 -0.00737949)
(-0.00884886 -0.0983158 -0.0061878)
(-0.00903414 -0.11259 -0.00525147)
(-0.00897439 -0.124334 -0.00464191)
(-0.00874333 -0.133473 -0.00425637)
(-0.00840961 -0.140339 -0.0039783)
(-0.00802319 -0.145333 -0.0037351)
(-0.00761701 -0.148759 -0.00349266)
(-0.0072119 -0.150794 -0.00323901)
(-0.0068207 -0.151518 -0.00297238)
(-0.00645151 -0.150931 -0.00269332)
(-0.00610954 -0.148966 -0.00239869)
(-0.00579756 -0.145472 -0.00207535)
(-0.00551448 -0.140207 -0.00169174)
(-0.00525225 -0.132822 -0.00118728)
(-0.00499035 -0.122853 -0.000466473)
(-0.00468374 -0.109668 0.000579833)
(-0.00426069 -0.0924742 0.0019849)
(-0.0036424 -0.0705561 0.00352699)
(-0.00281951 -0.0440876 0.00460639)
(-0.00193581 -0.0152385 0.00455251)
(-0.00121432 0.0118732 0.00335708)
(-0.000728669 0.032793 0.00182734)
(-0.000419168 0.0436903 0.000789657)
(-0.000173677 0.0432528 0.000337191)
(-6.72194e-07 0.0245072 0.000221282)
(0.000114213 0.0322134 0.0012829)
(0.000110256 0.0567733 0.00381027)
(-0.000240734 0.0561586 0.00356961)
(-0.00087707 0.0418169 0.000403966)
(-0.00188051 0.0202676 -0.00473305)
(-0.00304409 -0.000600402 -0.00911305)
(-0.0042217 -0.0190511 -0.011409)
(-0.0053361 -0.0362945 -0.0117263)
(-0.00634941 -0.0536274 -0.0106613)
(-0.00719487 -0.0713491 -0.00894056)
(-0.00780088 -0.0887228 -0.00725347)
(-0.00813942 -0.104561 -0.00599278)
(-0.0082337 -0.117942 -0.00517727)
(-0.008138 -0.128563 -0.00464591)
(-0.0079142 -0.136637 -0.00425319)
(-0.00761556 -0.142558 -0.00391914)
(-0.00728187 -0.146684 -0.00360963)
(-0.00693979 -0.149255 -0.00331352)
(-0.00660584 -0.1504 -0.00302944)
(-0.00628973 -0.150158 -0.00275845)
(-0.00599663 -0.148485 -0.00249938)
(-0.00572832 -0.145258 -0.00224403)
(-0.00548347 -0.140265 -0.0019697)
(-0.00525719 -0.133224 -0.00162605)
(-0.00503811 -0.123815 -0.00111549)
(-0.0048006 -0.111651 -0.000279599)
(-0.00448678 -0.0961484 0.00106977)
(-0.00399501 -0.0764687 0.00300181)
(-0.00322802 -0.0519661 0.00518673)
(-0.00221051 -0.0235464 0.00676462)
(-0.00117549 0.00508815 0.00692497)
(-0.000402915 0.0283618 0.00584956)
(-1.26676e-05 0.0412644 0.00451527)
(0.000118433 0.0419242 0.00334302)
(8.72735e-05 0.0242118 0.00173316)
(0.000248319 0.0298114 -0.000904527)
(0.000838694 0.0548554 -0.000744319)
(0.00113115 0.0565483 -0.00174556)
(0.00106688 0.0471865 -0.00450817)
(0.000560971 0.0297647 -0.00879116)
(-0.000266371 0.0110873 -0.0122298)
(-0.00119716 -0.00674978 -0.0136574)
(-0.00209309 -0.0244213 -0.0130329)
(-0.00289467 -0.0430749 -0.0108634)
(-0.00352438 -0.0629993 -0.00803767)
(-0.00391958 -0.0831217 -0.00558281)
(-0.00409628 -0.101591 -0.00406953)
(-0.00411596 -0.116991 -0.00339132)
(-0.00402975 -0.128915 -0.00316032)
(-0.00387442 -0.137726 -0.00308381)
(-0.00367815 -0.144013 -0.00303125)
(-0.00346403 -0.148289 -0.00296422)
(-0.00325018 -0.150896 -0.00287813)
(-0.00304908 -0.152024 -0.00277818)
(-0.00286835 -0.15175 -0.0026714)
(-0.00271209 -0.150059 -0.00256384)
(-0.00258213 -0.146853 -0.00245872)
(-0.00247922 -0.14194 -0.00235298)
(-0.00240439 -0.135061 -0.00222796)
(-0.00236156 -0.125952 -0.00202776)
(-0.00235023 -0.114404 -0.00162437)
(-0.00234975 -0.100176 -0.000790846)
(-0.00229034 -0.0827344 0.000758853)