/*--------------------------------*- C++ -*----------------------------------*\
| =========                 |                                                 |
| \\      /  F ield         | OpenFOAM: The Open Source CFD Toolbox           |
|  \\    /   O peration     | Version:  v2006                                 |
|   \\  /    A nd           | Website:  www.openfoam.com                      |
|    \\/     M anipulation  |                                                 |
\*---------------------------------------------------------------------------*/
FoamFile
{
    version     2.0;
    format      ascii;
    class       volScalarField;
    location    "65";
    object      alphat;
}
// * * * * * * * * * * * * * * * * * * * * * * * * * * * * * * * * * * * * * //

dimensions      [1 -1 -1 0 0 0 0];


internalField   nonuniform List<scalar> 
78750
(
1.37796e-09
2.61155e-07
4.96701e-07
7.37493e-07
9.77463e-07
1.21183e-06
1.43695e-06
1.65003e-06
1.84892e-06
2.03207e-06
2.19833e-06
2.34688e-06
2.4764e-06
2.58669e-06
2.67761e-06
2.74906e-06
2.80097e-06
2.83319e-06
2.84554e-06
2.83775e-06
2.80963e-06
2.76024e-06
2.68845e-06
2.59363e-06
2.47504e-06
2.33222e-06
2.16536e-06
1.97527e-06
1.76344e-06
1.53202e-06
1.28166e-06
1.0118e-06
7.25799e-07
4.35312e-07
6.13436e-09
3.53606e-09
2.45697e-06
5.3251e-06
7.89879e-06
9.91525e-06
1.1561e-05
1.301e-05
1.43571e-05
1.56574e-05
1.69471e-05
1.82842e-05
1.96732e-05
2.01462e-05
2.04815e-05
2.06908e-05
2.07846e-05
2.07723e-05
2.06621e-05
2.04612e-05
2.01754e-05
1.98087e-05
1.93615e-05
1.88314e-05
1.82136e-05
1.74998e-05
1.6679e-05
1.57411e-05
1.43711e-05
1.2099e-05
9.705e-06
7.18827e-06
4.98358e-06
3.78805e-06
2.23069e-06
2.14455e-08
6.17459e-09
2.35906e-06
5.28843e-06
8.78889e-06
1.24293e-05
1.57549e-05
1.85371e-05
2.07731e-05
2.25597e-05
2.38512e-05
2.44707e-05
2.48774e-05
2.50956e-05
2.51459e-05
2.50469e-05
2.4816e-05
2.44699e-05
2.40251e-05
2.3498e-05
2.29052e-05
2.22628e-05
2.15858e-05
2.06085e-05
1.92918e-05
1.80153e-05
1.67992e-05
1.55615e-05
1.41463e-05
1.23647e-05
1.01208e-05
7.71547e-06
6.02502e-06
5.87363e-06
2.14925e-06
3.59162e-08
9.73696e-09
2.29636e-06
5.3196e-06
9.55268e-06
1.46999e-05
1.96378e-05
2.34665e-05
2.61158e-05
2.71291e-05
2.78382e-05
2.82807e-05
2.84874e-05
2.84849e-05
2.82031e-05
2.72257e-05
2.60287e-05
2.47039e-05
2.33026e-05
2.18687e-05
2.04425e-05
1.90657e-05
1.77835e-05
1.66389e-05
1.56634e-05
1.48642e-05
1.41939e-05
1.35154e-05
1.25931e-05
1.11827e-05
9.28446e-06
7.42682e-06
6.57798e-06
7.36928e-06
1.96424e-06
4.71251e-08
1.36836e-08
2.2508e-06
5.37339e-06
1.01919e-05
1.65355e-05
2.2638e-05
2.70331e-05
2.89954e-05
2.98868e-05
3.04537e-05
3.0737e-05
3.04015e-05
2.89973e-05
2.72981e-05
2.5489e-05
2.36716e-05
2.19113e-05
2.02399e-05
1.8666e-05
1.7192e-05
1.58306e-05
1.46132e-05
1.35815e-05
1.27687e-05
1.21821e-05
1.17725e-05
1.13934e-05
1.07948e-05
9.74989e-06
8.33944e-06
7.13724e-06
7.08866e-06
7.77865e-06
1.83911e-06
5.55464e-08
1.78861e-08
2.27619e-06
5.55969e-06
1.09717e-05
1.85059e-05
2.57489e-05
3.04677e-05
3.16865e-05
3.25114e-05
3.29948e-05
3.26601e-05
3.07614e-05
2.84967e-05
2.61604e-05
2.39214e-05
2.18716e-05
2.00373e-05
1.84021e-05
1.69307e-05
1.55892e-05
1.43633e-05
1.32672e-05
1.2327e-05
1.1561e-05
1.0971e-05
1.05153e-05
1.0072e-05
9.44783e-06
8.51206e-06
7.4232e-06
6.72693e-06
7.33213e-06
7.64787e-06
1.78256e-06
6.21784e-08
2.18649e-08
2.30297e-06
5.69926e-06
1.15214e-05
1.9876e-05
2.77936e-05
3.26481e-05
3.38221e-05
3.45871e-05
3.45463e-05
3.24976e-05
2.9854e-05
2.70483e-05
2.43595e-05
2.1945e-05
1.98532e-05
1.80621e-05
1.65195e-05
1.51697e-05
1.39709e-05
1.29095e-05
1.19983e-05
1.12406e-05
1.06199e-05
1.01093e-05
9.65667e-06
9.1622e-06
8.50237e-06
7.64654e-06
6.8037e-06
6.48166e-06
7.57136e-06
7.26597e-06
1.74659e-06
6.81893e-08
2.56007e-08
2.33533e-06
5.80475e-06
1.18873e-05
2.0827e-05
2.92945e-05
3.44321e-05
3.59334e-05
3.65314e-05
3.48885e-05
3.22248e-05
2.91163e-05
2.60059e-05
2.31743e-05
2.07346e-05
1.86865e-05
1.69763e-05
1.55345e-05
1.42943e-05
1.32072e-05
1.22566e-05
1.14507e-05
1.07745e-05
1.01891e-05
9.65239e-06
9.11228e-06
8.49997e-06
7.76089e-06
6.93996e-06
6.26393e-06
6.19883e-06
7.63118e-06
7.00295e-06
1.73839e-06
7.42529e-08
2.90301e-08
2.36159e-06
5.87308e-06
1.21168e-05
2.14352e-05
3.02193e-05
3.53387e-05
3.7233e-05
3.67762e-05
3.46692e-05
3.15979e-05
2.81887e-05
2.49098e-05
2.20151e-05
1.9575e-05
1.75575e-05
1.5893e-05
1.45091e-05
1.3343e-05
1.23542e-05
1.15357e-05
1.08915e-05
1.03751e-05
9.91046e-06
9.42237e-06
8.84696e-06
8.14406e-06
7.32812e-06
6.51315e-06
5.94241e-06
6.05808e-06
7.74548e-06
6.74814e-06
1.73703e-06
8.06633e-08
3.24451e-08
2.38464e-06
5.91541e-06
1.22453e-05
2.18066e-05
3.08322e-05
3.59645e-05
3.76863e-05
3.69571e-05
3.45521e-05
3.12297e-05
2.76601e-05
2.43089e-05
2.13992e-05
1.89709e-05
1.69725e-05
1.53264e-05
1.39588e-05
1.28103e-05
1.18471e-05
1.10713e-05
1.04914e-05
1.00495e-05
9.65053e-06
9.19399e-06
8.59974e-06
7.84133e-06
6.97966e-06
6.17516e-06
5.6812e-06
5.92791e-06
7.81231e-06
6.58408e-06
1.74591e-06
8.73607e-08
3.56934e-08
2.40298e-06
5.9458e-06
1.23404e-05
2.20835e-05
3.12652e-05
3.63573e-05
3.78927e-05
3.6907e-05
3.42465e-05
3.07302e-05
2.70529e-05
2.36659e-05
2.07606e-05
1.83505e-05
1.63706e-05
1.47398e-05
1.33863e-05
1.22559e-05
1.13237e-05
1.0603e-05
1.01031e-05
9.75103e-06
9.43347e-06
9.02771e-06
8.43864e-06
7.65062e-06
6.76221e-06
5.97024e-06
5.53821e-06
5.89653e-06
7.95421e-06
6.4223e-06
1.7562e-06
9.41867e-08
3.92089e-08
2.42238e-06
5.97737e-06
1.24317e-05
2.23256e-05
3.16119e-05
3.6649e-05
3.80336e-05
3.68658e-05
3.40461e-05
3.04278e-05
2.6709e-05
2.33202e-05
2.04273e-05
1.80271e-05
1.60476e-05
1.44072e-05
1.30371e-05
1.18881e-05
1.09422e-05
1.02215e-05
9.74256e-06
9.42869e-06
9.15753e-06
8.7922e-06
8.22493e-06
7.4419e-06
6.56097e-06
5.79926e-06
5.42772e-06
5.88524e-06
8.10016e-06
6.30441e-06
1.77053e-06
1.01029e-07
4.25871e-08
2.43811e-06
6.00438e-06
1.2515e-05
2.25401e-05
3.18995e-05
3.68608e-05
3.80831e-05
3.67284e-05
3.37532e-05
3.00454e-05
2.63022e-05
2.29285e-05
2.00627e-05
1.76846e-05
1.57163e-05
1.4076e-05
1.26979e-05
1.15377e-05
1.05847e-05
9.87003e-06
9.41456e-06
9.13611e-06
8.90563e-06
8.57673e-06
8.03451e-06
7.26877e-06
6.41082e-06
5.68941e-06
5.38102e-06
5.93913e-06
8.30464e-06
6.18713e-06
1.78508e-06
1.07758e-07
4.63439e-08
2.45758e-06
6.04334e-06
1.26293e-05
2.27949e-05
3.21886e-05
3.70408e-05
3.8108e-05
3.66091e-05
3.35393e-05
2.9798e-05
2.60666e-05
2.27225e-05
1.98826e-05
1.75168e-05
1.55451e-05
1.38881e-05
1.24836e-05
1.12919e-05
1.03075e-05
9.56817e-06
9.10317e-06
8.83009e-06
8.61767e-06
8.31538e-06
7.80419e-06
7.07379e-06
6.25908e-06
5.59134e-06
5.35054e-06
6.00858e-06
8.51704e-06
6.09605e-06
1.80156e-06
1.14359e-07
4.99472e-08
2.4741e-06
6.07905e-06
1.27374e-05
2.30294e-05
3.24434e-05
3.71837e-05
3.80938e-05
3.6448e-05
3.32832e-05
2.95131e-05
2.58018e-05
2.24975e-05
1.96943e-05
1.73512e-05
1.53857e-05
1.37201e-05
1.22958e-05
1.10774e-05
1.00652e-05
9.30372e-06
8.82881e-06
8.55672e-06
8.35487e-06
8.07166e-06
7.58835e-06
6.89674e-06
6.13267e-06
5.52535e-06
5.35697e-06
6.12044e-06
8.76376e-06
6.00892e-06
1.81807e-06
1.20766e-07
5.39267e-08
2.49464e-06
6.1272e-06
1.28787e-05
2.33135e-05
3.27184e-05
3.73184e-05
3.80757e-05
3.63144e-05
3.30975e-05
2.93348e-05
2.56638e-05
2.24046e-05
1.96341e-05
1.73051e-05
1.53353e-05
1.36498e-05
1.21938e-05
1.09358e-05
9.8803e-06
9.07659e-06
8.57077e-06
8.28111e-06
8.07587e-06
7.8051e-06
7.3518e-06
6.7076e-06
6.00406e-06
5.46417e-06
5.37174e-06
6.24221e-06
9.01139e-06
5.9409e-06
1.83562e-06
1.27005e-07
5.77483e-08
2.51289e-06
6.17286e-06
1.30143e-05
2.35792e-05
3.29675e-05
3.74328e-05
3.80425e-05
3.61682e-05
3.29005e-05
2.91472e-05
2.55206e-05
2.23126e-05
1.95822e-05
1.72754e-05
1.53089e-05
1.36097e-05
1.21259e-05
1.08307e-05
9.73278e-06
8.88635e-06
8.3469e-06
8.03469e-06
7.81949e-06
7.55484e-06
7.12796e-06
6.53147e-06
5.89127e-06
5.42206e-06
5.40916e-06
6.3916e-06
9.274e-06
5.87804e-06
1.853e-06
1.33028e-07
6.19045e-08
2.5346e-06
6.22896e-06
1.3178e-05
2.38871e-05
3.32374e-05
3.75503e-05
3.80198e-05
3.6058e-05
3.27694e-05
2.90476e-05
2.5475e-05
2.23185e-05
1.9624e-05
1.73331e-05
1.5363e-05
1.36424e-05
1.21229e-05
1.07818e-05
9.63084e-06
8.72775e-06
8.13966e-06
7.79217e-06
7.55784e-06
7.29489e-06
6.89495e-06
6.34991e-06
5.77732e-06
5.38207e-06
5.45109e-06
6.54743e-06
9.53196e-06
5.82953e-06
1.8709e-06
1.38856e-07
6.59152e-08
2.55457e-06
6.28338e-06
1.33379e-05
2.41812e-05
3.34893e-05
3.76588e-05
3.79961e-05
3.59507e-05
3.26422e-05
2.89517e-05
2.54347e-05
2.23338e-05
1.96815e-05
1.74141e-05
1.54474e-05
1.3711e-05
1.21591e-05
1.07726e-05
9.56757e-06
8.60515e-06
7.96355e-06
7.57504e-06
7.31563e-06
7.04934e-06
6.67325e-06
6.1786e-06
5.67386e-06
5.35357e-06
5.50674e-06
6.72068e-06
9.79156e-06
5.78554e-06
1.88838e-06
1.44443e-07
7.02108e-08
2.5773e-06
6.34624e-06
1.35211e-05
2.45108e-05
3.37622e-05
3.7779e-05
3.79925e-05
3.58826e-05
3.25728e-05
2.89251e-05
2.54667e-05
2.24198e-05
1.98064e-05
1.75591e-05
1.55927e-05
1.38374e-05
1.22492e-05
1.0812e-05
9.54579e-06
8.51452e-06
7.80746e-06
7.36792e-06
7.07633e-06
6.80283e-06
6.44961e-06
6.00598e-06
5.57011e-06
5.32593e-06
5.56492e-06
6.89842e-06
1.00434e-05
5.7524e-06
1.90604e-06
1.49797e-07
7.43789e-08
2.5986e-06
6.40791e-06
1.37027e-05
2.48326e-05
3.40261e-05
3.78994e-05
3.79968e-05
3.5825e-05
3.25127e-05
2.89056e-05
2.55061e-05
2.25167e-05
1.99485e-05
1.77291e-05
1.57707e-05
1.40027e-05
1.23818e-05
1.08943e-05
9.56445e-06
8.46083e-06
7.68209e-06
7.18528e-06
6.85597e-06
6.57091e-06
6.23742e-06
5.84255e-06
5.4739e-06
5.30503e-06
5.63063e-06
7.08563e-06
1.02872e-05
5.72232e-06
1.92305e-06
1.54882e-07
7.87805e-08
2.62183e-06
6.47607e-06
1.39042e-05
2.51867e-05
3.43131e-05
3.80389e-05
3.80271e-05
3.58047e-05
3.24987e-05
2.89358e-05
2.55948e-05
2.26611e-05
2.01368e-05
1.79451e-05
1.59954e-05
1.42157e-05
1.25619e-05
1.1022e-05
9.62428e-06
8.44169e-06
7.5813e-06
7.0188e-06
6.64564e-06
6.34512e-06
6.02906e-06
5.68139e-06
5.37871e-06
5.28469e-06
5.69783e-06
7.27626e-06
1.05229e-05
5.70166e-06
1.94018e-06
1.59706e-07
8.30714e-08
2.64365e-06
6.54283e-06
1.41053e-05
2.55392e-05
3.4602e-05
3.81895e-05
3.80728e-05
3.57976e-05
3.24931e-05
2.89711e-05
2.56889e-05
2.28148e-05
2.0341e-05
1.81848e-05
1.62522e-05
1.44677e-05
1.27857e-05
1.11946e-05
9.7269e-06
8.46084e-06
7.51216e-06
6.87759e-06
6.45529e-06
6.13516e-06
5.83315e-06
5.52957e-06
5.29011e-06
5.26898e-06
5.76901e-06
7.47043e-06
1.07438e-05
5.68267e-06
1.95657e-06
1.64239e-07
8.75434e-08
2.66653e-06
6.6137e-06
1.43216e-05
2.59216e-05
3.49227e-05
3.83713e-05
3.81495e-05
3.58203e-05
3.25176e-05
2.90367e-05
2.58128e-05
2.2998e-05
2.05752e-05
1.84566e-05
1.65445e-05
1.47595e-05
1.30527e-05
1.1412e-05
9.87256e-06
8.51822e-06
7.47299e-06
6.75867e-06
6.28111e-06
5.93672e-06
5.64504e-06
5.38226e-06
5.20321e-06
5.25319e-06
5.83995e-06
7.66576e-06
1.0958e-05
5.67112e-06
1.97283e-06
1.68498e-07
9.19153e-08
2.68801e-06
6.68229e-06
1.45338e-05
2.62921e-05
3.52165e-05
3.85315e-05
3.82183e-05
3.58411e-05
3.25419e-05
2.91032e-05
2.59397e-05
2.31881e-05
2.08221e-05
1.87485e-05
1.68648e-05
1.50869e-05
1.33615e-05
1.16742e-05
1.00627e-05
8.61662e-06
7.46886e-06
6.66869e-06
6.13038e-06
5.75689e-06
5.47104e-06
5.24484e-06
5.12256e-06
5.2412e-06
5.91407e-06
7.86561e-06
1.11671e-05
5.66362e-06
1.98859e-06
1.72475e-07
9.64167e-08
2.71016e-06
6.75342e-06
1.47537e-05
2.66697e-05
3.55092e-05
3.869e-05
3.82899e-05
3.58824e-05
3.2588e-05
2.91886e-05
2.60837e-05
2.33948e-05
2.10867e-05
1.90611e-05
1.72109e-05
1.54463e-05
1.37085e-05
1.19793e-05
1.02971e-05
8.75666e-06
7.5004e-06
6.6077e-06
6.00245e-06
5.59421e-06
5.30886e-06
5.11423e-06
5.0445e-06
5.22893e-06
5.98718e-06
8.06655e-06
1.13707e-05
5.66704e-06
2.00504e-06
1.76202e-07
1.00829e-07
2.73126e-06
6.82329e-06
1.49705e-05
2.70288e-05
3.5778e-05
3.88284e-05
3.83438e-05
3.59066e-05
3.26229e-05
2.92683e-05
2.62263e-05
2.36044e-05
2.13597e-05
1.93885e-05
1.75789e-05
1.58352e-05
1.40921e-05
1.23262e-05
1.05754e-05
8.93957e-06
7.57125e-06
6.58068e-06
5.90288e-06
5.45418e-06
5.16345e-06
4.99469e-06
4.9728e-06
5.22026e-06
6.06458e-06
8.27678e-06
1.15721e-05
5.67818e-06
2.02211e-06
1.79687e-07
1.05323e-07
2.75242e-06
6.89515e-06
1.51978e-05
2.73897e-05
3.60423e-05
3.89622e-05
3.83965e-05
3.59352e-05
3.26724e-05
2.93609e-05
2.63777e-05
2.38216e-05
2.16413e-05
1.9728e-05
1.79644e-05
1.62487e-05
1.45079e-05
1.27121e-05
1.08968e-05
9.16624e-06
7.68313e-06
6.58879e-06
5.83238e-06
5.33688e-06
5.03416e-06
4.88492e-06
4.9057e-06
5.21308e-06
6.14295e-06
8.48933e-06
1.17707e-05
5.69673e-06
2.0398e-06
1.8295e-07
1.09723e-07
2.77196e-06
6.96256e-06
1.54135e-05
2.77294e-05
3.62822e-05
3.90751e-05
3.84307e-05
3.59461e-05
3.27075e-05
2.94414e-05
2.65212e-05
2.40358e-05
2.19255e-05
2.00759e-05
1.83649e-05
1.66843e-05
1.49534e-05
1.31344e-05
1.12594e-05
9.43597e-06
7.83782e-06
6.63516e-06
5.79473e-06
5.2463e-06
4.92484e-06
4.78835e-06
4.84606e-06
5.20956e-06
6.22361e-06
8.70441e-06
1.19657e-05
5.72039e-06
2.05784e-06
1.86002e-07
1.1417e-07
2.79182e-06
7.03149e-06
1.56338e-05
2.80702e-05
3.65173e-05
3.91827e-05
3.84606e-05
3.59543e-05
3.27408e-05
2.95215e-05
2.66648e-05
2.42508e-05
2.22119e-05
2.04292e-05
1.87758e-05
1.71374e-05
1.54244e-05
1.35901e-05
1.16615e-05
9.74878e-06
8.0364e-06
6.72077e-06
5.79068e-06
5.18286e-06
4.8355e-06
4.70457e-06
4.79316e-06
5.20865e-06
6.30479e-06
8.91869e-06
1.21572e-05
5.74905e-06
2.07617e-06
1.8886e-07
1.18532e-07
2.81038e-06
7.09714e-06
1.58458e-05
2.83922e-05
3.67302e-05
3.92701e-05
3.84718e-05
3.59443e-05
3.27575e-05
2.95885e-05
2.67986e-05
2.44588e-05
2.24951e-05
2.0784e-05
1.91942e-05
1.76047e-05
1.59173e-05
1.40752e-05
1.20993e-05
1.01015e-05
8.27703e-06
6.84547e-06
5.82142e-06
5.14874e-06
4.76881e-06
4.63632e-06
4.74933e-06
5.21189e-06
6.38705e-06
9.13295e-06
1.23449e-05
5.78115e-06
2.09461e-06
1.91536e-07
1.22913e-07
2.82921e-06
7.16386e-06
1.60603e-05
2.87121e-05
3.69357e-05
3.93493e-05
3.84744e-05
3.59257e-05
3.27659e-05
2.96509e-05
2.69273e-05
2.46611e-05
2.27738e-05
2.11375e-05
1.96162e-05
1.80823e-05
1.64283e-05
1.45867e-05
1.25707e-05
1.04924e-05
8.55797e-06
7.00788e-06
5.88587e-06
5.14323e-06
4.72435e-06
4.58324e-06
4.71412e-06
5.21893e-06
6.47073e-06
9.34483e-06
1.25289e-05
5.81646e-06
2.11308e-06
1.94043e-07
1.27221e-07
2.84725e-06
7.22857e-06
1.62684e-05
2.90156e-05
3.71208e-05
3.94086e-05
3.84569e-05
3.58863e-05
3.27536e-05
2.96972e-05
2.70412e-05
2.48508e-05
2.30434e-05
2.14862e-05
2.00385e-05
1.85663e-05
1.69529e-05
1.51196e-05
1.30706e-05
1.09171e-05
8.87547e-06
7.20616e-06
5.98363e-06
5.16694e-06
4.70353e-06
4.54733e-06
4.68995e-06
5.23266e-06
6.55922e-06
9.55709e-06
1.27103e-05
5.85403e-06
2.13145e-06
1.96389e-07
1.3153e-07
2.86565e-06
7.29452e-06
1.64774e-05
2.93135e-05
3.72955e-05
3.94563e-05
3.84269e-05
3.58335e-05
3.27269e-05
2.97278e-05
2.71406e-05
2.50281e-05
2.33032e-05
2.18283e-05
2.04584e-05
1.90535e-05
1.74877e-05
1.56706e-05
1.35962e-05
1.13732e-05
9.22746e-06
7.43874e-06
6.1135e-06
5.21897e-06
4.70581e-06
4.52838e-06
4.67677e-06
5.25256e-06
6.6505e-06
9.76866e-06
1.28902e-05
5.89401e-06
2.14972e-06
1.98586e-07
1.35773e-07
2.88374e-06
7.36044e-06
1.66804e-05
2.95954e-05
3.74502e-05
3.94839e-05
3.83763e-05
3.57597e-05
3.26793e-05
2.97388e-05
2.72226e-05
2.51904e-05
2.35507e-05
2.21611e-05
2.08727e-05
1.95397e-05
1.80275e-05
1.62338e-05
1.41415e-05
1.18556e-05
9.60996e-06
7.70353e-06
6.2747e-06
5.29943e-06
4.73198e-06
4.52776e-06
4.67622e-06
5.28024e-06
6.74588e-06
9.98118e-06
1.30687e-05
5.93571e-06
2.16782e-06
2.00639e-07
1.39969e-07
2.90149e-06
7.42641e-06
1.68802e-05
2.98682e-05
3.75923e-05
3.94966e-05
3.8309e-05
3.56686e-05
3.26155e-05
2.97339e-05
2.72893e-05
2.53388e-05
2.3786e-05
2.24842e-05
2.12803e-05
2.00233e-05
1.85699e-05
1.68062e-05
1.47032e-05
1.23609e-05
1.00203e-05
7.99861e-06
6.4659e-06
5.40745e-06
4.78156e-06
4.54525e-06
4.68822e-06
5.31545e-06
6.84467e-06
1.01937e-05
1.32472e-05
5.97939e-06
2.18581e-06
2.0256e-07
1.44066e-07
2.9179e-06
7.48854e-06
1.70737e-05
3.01297e-05
3.77182e-05
3.94918e-05
3.82234e-05
3.55572e-05
3.25266e-05
2.97028e-05
2.73342e-05
2.54697e-05
2.40065e-05
2.27946e-05
2.16777e-05
2.04999e-05
1.911e-05
1.73819e-05
1.5275e-05
1.28831e-05
1.04535e-05
8.32084e-06
6.6855e-06
5.54251e-06
4.85489e-06
4.58187e-06
4.71417e-06
5.35973e-06
6.94832e-06
1.04075e-05
1.34253e-05
6.02452e-06
2.20361e-06
2.04354e-07
1.48127e-07
2.93405e-06
7.55075e-06
1.72676e-05
3.03845e-05
3.78325e-05
3.94735e-05
3.81225e-05
3.54305e-05
3.24253e-05
2.966e-05
2.73631e-05
2.55814e-05
2.42102e-05
2.30913e-05
2.20637e-05
2.09682e-05
1.96456e-05
1.79586e-05
1.58541e-05
1.34194e-05
1.09067e-05
8.66777e-06
6.93154e-06
5.70325e-06
4.95118e-06
4.63727e-06
4.754e-06
5.41298e-06
7.05652e-06
1.06219e-05
1.36041e-05
6.0715e-06
2.22133e-06
2.06036e-07
1.521e-07
2.94928e-06
7.61043e-06
1.74558e-05
3.06256e-05
3.79293e-05
3.94366e-05
3.80014e-05
3.52816e-05
3.23001e-05
2.95937e-05
2.73734e-05
2.56778e-05
2.43955e-05
2.33697e-05
2.24349e-05
2.14247e-05
2.0173e-05
1.85315e-05
1.64353e-05
1.39645e-05
1.13757e-05
9.03636e-06
7.2022e-06
5.88886e-06
5.07038e-06
4.71206e-06
4.80879e-06
5.47659e-06
7.17084e-06
1.08386e-05
1.3784e-05
6.1201e-06
2.23895e-06
2.07616e-07
1.56011e-07
2.96413e-06
7.66933e-06
1.76422e-05
3.08581e-05
3.80129e-05
3.93846e-05
3.78637e-05
3.5116e-05
3.21586e-05
2.9511e-05
2.7367e-05
2.57584e-05
2.45681e-05
2.36343e-05
2.27914e-05
2.18684e-05
2.06902e-05
1.9098e-05
1.70153e-05
1.4515e-05
1.1857e-05
9.42374e-06
7.49516e-06
6.09759e-06
5.2114e-06
4.80572e-06
4.87844e-06
5.55066e-06
7.29124e-06
1.10571e-05
1.3966e-05
6.17071e-06
2.25658e-06
2.09111e-07
1.59827e-07
2.97806e-06
7.72578e-06
1.78227e-05
3.10769e-05
3.80795e-05
3.93141e-05
3.77061e-05
3.49294e-05
3.19956e-05
2.94074e-05
2.7341e-05
2.58203e-05
2.47227e-05
2.38828e-05
2.31315e-05
2.22958e-05
2.11935e-05
1.9654e-05
1.75897e-05
1.50663e-05
1.23468e-05
9.82702e-06
7.80847e-06
6.32828e-06
5.37376e-06
4.91845e-06
4.96378e-06
5.6365e-06
7.41938e-06
1.12791e-05
1.41511e-05
6.2234e-06
2.27425e-06
2.10536e-07
1.63572e-07
2.9916e-06
7.78123e-06
1.80003e-05
3.12857e-05
3.81323e-05
3.9228e-05
3.75316e-05
3.47256e-05
3.18158e-05
2.92873e-05
2.72991e-05
2.58667e-05
2.48619e-05
2.41159e-05
2.34568e-05
2.27074e-05
2.16809e-05
2.01966e-05
1.81548e-05
1.56146e-05
1.28412e-05
1.02429e-05
8.13956e-06
6.57904e-06
5.5562e-06
5.04956e-06
5.06459e-06
5.73421e-06
7.55548e-06
1.15049e-05
1.43401e-05
6.27852e-06
2.29207e-06
2.1191e-07
1.67215e-07
3.00429e-06
7.83425e-06
1.8172e-05
3.1481e-05
3.81683e-05
3.91235e-05
3.73373e-05
3.45017e-05
3.16161e-05
2.9148e-05
2.7239e-05
2.58955e-05
2.49836e-05
2.43315e-05
2.37646e-05
2.31019e-05
2.21502e-05
2.07221e-05
1.87066e-05
1.61552e-05
1.33359e-05
1.0668e-05
8.4859e-06
6.8482e-06
5.75784e-06
5.19891e-06
5.18145e-06
5.84505e-06
7.70137e-06
1.17364e-05
1.45342e-05
6.3362e-06
2.31009e-06
2.13247e-07
1.70767e-07
3.01641e-06
7.88567e-06
1.83397e-05
3.16656e-05
3.81902e-05
3.90031e-05
3.71258e-05
3.42606e-05
3.14e-05
2.89929e-05
2.7164e-05
2.59095e-05
2.50902e-05
2.4531e-05
2.40553e-05
2.34783e-05
2.2601e-05
2.12277e-05
1.92416e-05
1.6685e-05
1.38274e-05
1.10989e-05
8.84454e-06
7.13347e-06
5.97704e-06
5.36547e-06
5.3139e-06
5.96906e-06
7.85756e-06
1.19743e-05
1.47344e-05
6.39676e-06
2.32841e-06
2.14567e-07
1.74211e-07
3.02772e-06
7.93473e-06
1.85015e-05
3.18369e-05
3.81956e-05
3.88642e-05
3.68949e-05
3.40002e-05
3.11656e-05
2.88204e-05
2.70726e-05
2.59076e-05
2.51807e-05
2.47139e-05
2.43282e-05
2.38357e-05
2.30317e-05
2.17128e-05
1.97542e-05
1.71973e-05
1.43109e-05
1.15318e-05
9.21263e-06
7.43279e-06
6.21255e-06
5.54881e-06
5.46227e-06
6.10735e-06
8.02585e-06
1.22209e-05
1.49411e-05
6.46024e-06
2.34708e-06
2.15882e-07
1.77562e-07
3.03844e-06
7.98214e-06
1.86591e-05
3.19972e-05
3.81864e-05
3.87088e-05
3.66465e-05
3.37233e-05
3.09158e-05
2.86336e-05
2.69678e-05
2.58925e-05
2.52573e-05
2.48816e-05
2.45843e-05
2.41741e-05
2.34413e-05
2.21758e-05
2.02459e-05
1.76905e-05
1.47819e-05
1.19624e-05
9.58662e-06
7.74343e-06
6.46235e-06
5.74755e-06
5.62592e-06
6.26e-06
8.20717e-06
1.24775e-05
1.51551e-05
6.52693e-06
2.36621e-06
2.1721e-07
1.8081e-07
3.04841e-06
8.0274e-06
1.88114e-05
3.21448e-05
3.81608e-05
3.85348e-05
3.63788e-05
3.34279e-05
3.06493e-05
2.84315e-05
2.68488e-05
2.58635e-05
2.53196e-05
2.5034e-05
2.48232e-05
2.4493e-05
2.38286e-05
2.2614e-05
2.07128e-05
1.81622e-05
1.52381e-05
1.23877e-05
9.96351e-06
8.063e-06
6.72483e-06
5.96086e-06
5.80464e-06
6.42754e-06
8.40286e-06
1.2746e-05
1.53764e-05
6.59666e-06
2.38581e-06
2.18558e-07
1.8397e-07
3.05783e-06
8.07116e-06
1.896e-05
3.22817e-05
3.81203e-05
3.83438e-05
3.60936e-05
3.31166e-05
3.03687e-05
2.82169e-05
2.67182e-05
2.5823e-05
2.53697e-05
2.51726e-05
2.50462e-05
2.4793e-05
2.41936e-05
2.30269e-05
2.11529e-05
1.86092e-05
1.56758e-05
1.28046e-05
1.03405e-05
8.38899e-06
6.99799e-06
6.1874e-06
5.99797e-06
6.61041e-06
8.61431e-06
1.30284e-05
1.56057e-05
6.66966e-06
2.40597e-06
2.19939e-07
1.87034e-07
3.06657e-06
8.11306e-06
1.9104e-05
3.24065e-05
3.80634e-05
3.81339e-05
3.57895e-05
3.27883e-05
3.00735e-05
2.79894e-05
2.65759e-05
2.57712e-05
2.54078e-05
2.52978e-05
2.52537e-05
2.50744e-05
2.45364e-05
2.34138e-05
2.15647e-05
1.90291e-05
1.60917e-05
1.32079e-05
1.07133e-05
8.71838e-06
7.27981e-06
6.42579e-06
6.20498e-06
6.8083e-06
8.84226e-06
1.33262e-05
1.58423e-05
6.7456e-06
2.42669e-06
2.21357e-07
1.90019e-07
3.07481e-06
8.1537e-06
1.9245e-05
3.2521e-05
3.79914e-05
3.79066e-05
3.54681e-05
3.2445e-05
2.97661e-05
2.77514e-05
2.64243e-05
2.57101e-05
2.54358e-05
2.54114e-05
2.5447e-05
2.53384e-05
2.48573e-05
2.37745e-05
2.19474e-05
1.94201e-05
1.64837e-05
1.35961e-05
1.10792e-05
9.04834e-06
7.56811e-06
6.6749e-06
6.42565e-06
7.02218e-06
9.08839e-06
1.36413e-05
1.60861e-05
6.8244e-06
2.44798e-06
2.22817e-07
1.92917e-07
3.08245e-06
8.19282e-06
1.93822e-05
3.26238e-05
3.79028e-05
3.76603e-05
3.51283e-05
3.20863e-05
2.94463e-05
2.75032e-05
2.62637e-05
2.56401e-05
2.54542e-05
2.55139e-05
2.56268e-05
2.55852e-05
2.51569e-05
2.41092e-05
2.23007e-05
1.97814e-05
1.685e-05
1.39665e-05
1.14353e-05
9.37603e-06
7.86032e-06
6.93255e-06
6.65826e-06
7.25102e-06
9.35328e-06
1.39753e-05
1.63366e-05
6.90574e-06
2.46985e-06
2.2432e-07
1.95743e-07
3.08963e-06
8.23092e-06
1.9517e-05
3.27163e-05
3.77986e-05
3.73963e-05
3.47719e-05
3.17145e-05
2.91166e-05
2.72472e-05
2.60965e-05
2.55636e-05
2.54652e-05
2.56071e-05
2.57946e-05
2.58165e-05
2.54362e-05
2.44186e-05
2.26248e-05
2.01127e-05
1.71896e-05
1.43168e-05
1.17791e-05
9.69884e-06
8.15432e-06
7.1974e-06
6.90233e-06
7.49538e-06
9.63733e-06
1.43285e-05
1.65925e-05
6.98929e-06
2.49226e-06
2.25864e-07
1.98489e-07
3.09627e-06
8.2678e-06
1.96488e-05
3.27974e-05
3.76775e-05
3.71132e-05
3.43981e-05
3.13292e-05
2.87772e-05
2.69839e-05
2.59232e-05
2.54811e-05
2.54694e-05
2.56918e-05
2.59514e-05
2.6033e-05
2.56961e-05
2.4704e-05
2.29212e-05
2.04152e-05
1.75031e-05
1.46467e-05
1.2109e-05
1.00145e-05
8.44758e-06
7.46722e-06
7.15668e-06
7.75563e-06
9.94172e-06
1.47022e-05
1.68528e-05
7.07473e-06
2.51519e-06
2.27449e-07
2.01166e-07
3.1025e-06
8.30386e-06
1.97785e-05
3.28679e-05
3.75403e-05
3.68123e-05
3.40088e-05
3.09329e-05
2.84307e-05
2.67158e-05
2.57463e-05
2.53949e-05
2.54689e-05
2.57699e-05
2.60985e-05
2.62359e-05
2.59377e-05
2.4966e-05
2.31906e-05
2.06899e-05
1.77915e-05
1.49562e-05
1.24243e-05
1.03221e-05
8.73908e-06
7.74117e-06
7.42053e-06
8.03082e-06
1.02662e-05
1.50959e-05
1.71166e-05
7.16173e-06
2.5386e-06
2.29074e-07
2.03766e-07
3.10822e-06
8.33888e-06
1.99056e-05
3.29268e-05
3.73857e-05
3.64924e-05
3.36032e-05
3.05253e-05
2.80772e-05
2.64434e-05
2.55663e-05
2.53059e-05
2.54646e-05
2.58424e-05
2.62373e-05
2.64267e-05
2.61626e-05
2.52069e-05
2.34357e-05
2.094e-05
1.8058e-05
1.5247e-05
1.27253e-05
1.06204e-05
9.02672e-06
8.01662e-06
7.69163e-06
8.3196e-06
1.06107e-05
1.55096e-05
1.73825e-05
7.24988e-06
2.56244e-06
2.30736e-07
2.06295e-07
3.11355e-06
8.3732e-06
2.00309e-05
3.29749e-05
3.72146e-05
3.61547e-05
3.31831e-05
3.01086e-05
2.77192e-05
2.6169e-05
2.53857e-05
2.52162e-05
2.54585e-05
2.5911e-05
2.6369e-05
2.66063e-05
2.63716e-05
2.54274e-05
2.36581e-05
2.1168e-05
1.83061e-05
1.55215e-05
1.30131e-05
1.09099e-05
9.31066e-06
8.29376e-06
7.96968e-06
8.62105e-06
1.09736e-05
1.59412e-05
1.76496e-05
7.33899e-06
2.58668e-06
2.32434e-07
2.08743e-07
3.11839e-06
8.40652e-06
2.01536e-05
3.30111e-05
3.70256e-05
3.57977e-05
3.27476e-05
2.96825e-05
2.73564e-05
2.58928e-05
2.52049e-05
2.51265e-05
2.54517e-05
2.59771e-05
2.64953e-05
2.67765e-05
2.65666e-05
2.56299e-05
2.38606e-05
2.13779e-05
1.85406e-05
1.57826e-05
1.32891e-05
1.11907e-05
9.58993e-06
8.57072e-06
8.25251e-06
8.93389e-06
1.13547e-05
1.639e-05
1.79163e-05
7.42847e-06
2.61123e-06
2.34163e-07
2.11117e-07
3.12284e-06
8.4392e-06
2.02746e-05
3.30361e-05
3.68194e-05
3.54225e-05
3.22981e-05
2.92488e-05
2.6991e-05
2.5617e-05
2.50258e-05
2.50388e-05
2.54459e-05
2.60421e-05
2.66174e-05
2.69382e-05
2.67483e-05
2.58152e-05
2.40446e-05
2.15718e-05
1.8764e-05
1.60331e-05
1.35557e-05
1.14642e-05
9.86523e-06
8.84788e-06
8.54054e-06
9.25715e-06
1.17516e-05
1.68528e-05
1.81823e-05
7.5184e-06
2.63609e-06
2.35926e-07
2.13405e-07
3.1268e-06
8.47089e-06
2.03931e-05
3.30486e-05
3.65944e-05
3.50275e-05
3.18338e-05
2.88069e-05
2.66227e-05
2.53414e-05
2.48488e-05
2.49538e-05
2.54423e-05
2.61076e-05
2.6737e-05
2.70934e-05
2.69188e-05
2.59854e-05
2.42118e-05
2.17505e-05
1.89761e-05
1.62733e-05
1.38131e-05
1.17307e-05
1.01365e-05
9.12469e-06
8.83263e-06
9.58995e-06
1.21642e-05
1.73289e-05
1.8446e-05
7.60803e-06
2.6611e-06
2.37713e-07
2.15617e-07
3.13039e-06
8.50196e-06
2.05099e-05
3.30494e-05
3.63511e-05
3.46135e-05
3.13557e-05
2.83583e-05
2.62531e-05
2.50678e-05
2.46755e-05
2.48729e-05
2.5442e-05
2.61747e-05
2.68553e-05
2.72433e-05
2.70795e-05
2.6142e-05
2.43639e-05
2.19155e-05
1.91777e-05
1.65044e-05
1.40629e-05
1.19916e-05
1.04044e-05
9.40128e-06
9.12865e-06
9.93205e-06
1.25899e-05
1.78146e-05
1.87072e-05
7.69757e-06
2.6863e-06
2.39534e-07
2.17743e-07
3.13348e-06
8.53204e-06
2.06242e-05
3.30369e-05
3.60878e-05
3.41789e-05
3.0863e-05
2.79026e-05
2.5882e-05
2.47962e-05
2.45062e-05
2.47966e-05
2.5446e-05
2.62446e-05
2.69738e-05
2.73895e-05
2.72322e-05
2.62865e-05
2.45022e-05
2.20674e-05
1.93684e-05
1.67261e-05
1.43051e-05
1.22468e-05
1.06693e-05
9.67773e-06
9.42832e-06
1.02829e-05
1.30289e-05
1.83087e-05
1.89649e-05
7.78649e-06
2.71157e-06
2.41381e-07
2.19791e-07
3.13618e-06
8.5614e-06
2.07365e-05
3.30116e-05
3.58047e-05
3.37243e-05
3.03567e-05
2.74408e-05
2.55105e-05
2.45279e-05
2.43421e-05
2.47258e-05
2.54549e-05
2.6318e-05
2.70932e-05
2.75331e-05
2.73779e-05
2.64208e-05
2.46286e-05
2.22082e-05
1.95493e-05
1.69392e-05
1.45403e-05
1.24971e-05
1.09314e-05
9.95419e-06
9.73157e-06
1.06419e-05
1.34801e-05
1.88093e-05
1.92179e-05
7.87404e-06
2.73675e-06
2.43237e-07
2.21755e-07
3.13836e-06
8.58967e-06
2.08458e-05
3.29718e-05
3.55001e-05
3.32485e-05
2.9836e-05
2.69725e-05
2.51385e-05
2.42638e-05
2.41836e-05
2.46608e-05
2.5469e-05
2.63953e-05
2.72144e-05
2.76751e-05
2.75184e-05
2.65465e-05
2.4745e-05
2.23396e-05
1.97213e-05
1.71443e-05
1.47689e-05
1.27426e-05
1.1191e-05
1.02307e-05
1.00384e-05
1.10091e-05
1.39431e-05
1.93161e-05
1.94663e-05
7.96049e-06
2.76184e-06
2.45115e-07
2.23641e-07
3.1401e-06
8.61702e-06
2.09524e-05
3.29177e-05
3.51741e-05
3.27521e-05
2.93023e-05
2.64985e-05
2.47662e-05
2.40063e-05
2.40317e-05
2.46011e-05
2.54879e-05
2.64765e-05
2.73376e-05
2.78162e-05
2.76543e-05
2.6665e-05
2.48536e-05
2.24642e-05
1.98858e-05
1.73416e-05
1.49907e-05
1.29831e-05
1.14479e-05
1.05075e-05
1.03488e-05
1.13844e-05
1.44175e-05
1.98276e-05
1.97089e-05
8.04545e-06
2.78681e-06
2.47012e-07
2.25441e-07
3.14128e-06
8.64301e-06
2.10551e-05
3.28476e-05
3.48253e-05
3.22345e-05
2.87555e-05
2.60188e-05
2.43922e-05
2.37484e-05
2.38813e-05
2.45448e-05
2.55112e-05
2.6562e-05
2.74635e-05
2.79573e-05
2.77874e-05
2.6779e-05
2.49581e-05
2.25866e-05
2.00453e-05
1.75324e-05
1.52062e-05
1.32187e-05
1.17021e-05
1.07843e-05
1.0663e-05
1.1768e-05
1.4903e-05
2.03428e-05
1.99459e-05
8.129e-06
2.81195e-06
2.48922e-07
2.27163e-07
3.14194e-06
8.66772e-06
2.11541e-05
3.27615e-05
3.44541e-05
3.16968e-05
2.81972e-05
2.55353e-05
2.40189e-05
2.34939e-05
2.37354e-05
2.44936e-05
2.55394e-05
2.66516e-05
2.75918e-05
2.80984e-05
2.79181e-05
2.68898e-05
2.50615e-05
2.2711e-05
2.02031e-05
1.77186e-05
1.54162e-05
1.34497e-05
1.19536e-05
1.10609e-05
1.09805e-05
1.21594e-05
1.53986e-05
2.08598e-05
2.0176e-05
8.21073e-06
2.83706e-06
2.50832e-07
2.28797e-07
3.14195e-06
8.69064e-06
2.12479e-05
3.26579e-05
3.40591e-05
3.11384e-05
2.76273e-05
2.50474e-05
2.3645e-05
2.32407e-05
2.35921e-05
2.44457e-05
2.55716e-05
2.6745e-05
2.77227e-05
2.82399e-05
2.80472e-05
2.69988e-05
2.51653e-05
2.2839e-05
2.03609e-05
1.79018e-05
1.56219e-05
1.36768e-05
1.22029e-05
1.13382e-05
1.13024e-05
1.25593e-05
1.59043e-05
2.13775e-05
2.03994e-05
8.29056e-06
2.86197e-06
2.52741e-07
2.30348e-07
3.14134e-06
8.71174e-06
2.13365e-05
3.2537e-05
3.36408e-05
3.05608e-05
2.70478e-05
2.4557e-05
2.32722e-05
2.29902e-05
2.34523e-05
2.44019e-05
2.56079e-05
2.6842e-05
2.78558e-05
2.83816e-05
2.8175e-05
2.71062e-05
2.52695e-05
2.29695e-05
2.05186e-05
1.80825e-05
1.5824e-05
1.39002e-05
1.24493e-05
1.16143e-05
1.16258e-05
1.29657e-05
1.64183e-05
2.18939e-05
2.06152e-05
8.36827e-06
2.88655e-06
2.54644e-07
2.31811e-07
3.13999e-06
8.73057e-06
2.14186e-05
3.23972e-05
3.31982e-05
2.99638e-05
2.64588e-05
2.40641e-05
2.29001e-05
2.27418e-05
2.33153e-05
2.43614e-05
2.56479e-05
2.69425e-05
2.79915e-05
2.85244e-05
2.83022e-05
2.7213e-05
2.53743e-05
2.31016e-05
2.0676e-05
1.82611e-05
1.6023e-05
1.41206e-05
1.26942e-05
1.18921e-05
1.19559e-05
1.33795e-05
1.69396e-05
2.24071e-05
2.08233e-05
8.44387e-06
2.91079e-06
2.56543e-07
2.33195e-07
3.13794e-06
8.74718e-06
2.14944e-05
3.22389e-05
3.27317e-05
2.93485e-05
2.58619e-05
2.35699e-05
2.25297e-05
2.24963e-05
2.31818e-05
2.43247e-05
2.56916e-05
2.70463e-05
2.81296e-05
2.86681e-05
2.84295e-05
2.73202e-05
2.54808e-05
2.32355e-05
2.08336e-05
1.84384e-05
1.62199e-05
1.43391e-05
1.29385e-05
1.2172e-05
1.22921e-05
1.38011e-05
1.74673e-05
2.29158e-05
2.10239e-05
8.51732e-06
2.93465e-06