/*--------------------------------*- C++ -*----------------------------------*\
| =========                 |                                                 |
| \\      /  F ield         | OpenFOAM: The Open Source CFD Toolbox           |
|  \\    /   O peration     | Version:  v2006                                 |
|   \\  /    A nd           | Website:  www.openfoam.com                      |
|    \\/     M anipulation  |                                                 |
\*---------------------------------------------------------------------------*/
FoamFile
{
    version     2.0;
    format      ascii;
    class       volScalarField;
    location    "65";
    object      k;
}
// * * * * * * * * * * * * * * * * * * * * * * * * * * * * * * * * * * * * * //

dimensions      [0 2 -2 0 0 0 0];


internalField   nonuniform List<scalar> 
78750
(
4.03292e-07
2.93909e-06
5.60127e-06
8.33351e-06
1.1067e-05
1.37469e-05
1.63303e-05
1.8784e-05
2.10818e-05
2.3204e-05
2.51361e-05
2.68667e-05
2.83794e-05
2.96703e-05
3.07367e-05
3.15766e-05
3.21883e-05
3.25697e-05
3.27181e-05
3.26303e-05
3.23039e-05
3.17282e-05
3.08905e-05
2.97841e-05
2.84012e-05
2.67377e-05
2.47975e-05
2.25919e-05
2.01404e-05
1.7471e-05
1.45952e-05
1.1511e-05
8.25851e-06
4.96304e-06
1.83169e-06
1.51871e-06
1.23268e-05
2.23774e-05
3.16221e-05
4.00504e-05
4.76457e-05
5.43865e-05
6.02708e-05
6.53175e-05
6.95588e-05
7.30327e-05
7.57773e-05
7.78633e-05
7.93537e-05
8.02921e-05
8.07201e-05
8.06772e-05
8.02003e-05
7.93222e-05
7.80714e-05
7.64699e-05
7.45235e-05
7.22278e-05
6.95701e-05
6.65232e-05
6.30516e-05
5.91286e-05
5.47386e-05
4.98169e-05
4.42458e-05
3.78865e-05
3.06377e-05
2.28554e-05
1.54526e-05
9.40858e-06
2.65212e-06
1.92897e-05
3.47566e-05
4.86251e-05
6.05612e-05
7.0543e-05
7.87343e-05
8.53422e-05
9.05535e-05
9.45286e-05
9.74142e-05
9.93282e-05
0.000100368
0.000100623
0.000100178
9.91167e-05
9.75206e-05
9.54728e-05
9.30566e-05
9.03543e-05
8.74458e-05
8.44033e-05
8.12697e-05
7.80356e-05
7.46511e-05
7.10371e-05
6.7088e-05
6.26839e-05
5.76871e-05
5.19187e-05
4.51714e-05
3.74289e-05
2.93857e-05
2.18135e-05
1.57792e-05
4.18253e-06
2.64947e-05
4.69174e-05
6.45667e-05
7.88677e-05
9.00131e-05
9.85768e-05
0.000105086
0.000109945
0.000113391
0.000115568
0.000116605
0.00011662
0.00011573
0.000114045
0.00011166
0.000108674
0.000105198
0.000101354
9.7275e-05
9.31072e-05
8.89928e-05
8.50386e-05
8.12792e-05
7.76598e-05
7.4046e-05
7.02505e-05
6.60631e-05
6.12627e-05
5.56111e-05
4.89138e-05
4.13171e-05
3.37272e-05
2.65973e-05
2.07302e-05
5.87817e-06
3.26461e-05
5.68148e-05
7.70618e-05
9.26972e-05
0.000104262
0.000112752
0.000118984
0.000123418
0.000126276
0.00012773
0.000127936
0.000127026
0.000125092
0.000122223
0.00011852
0.000114104
0.000109122
0.000103749
9.81908e-05
9.26928e-05
8.75183e-05
8.28771e-05
7.88473e-05
7.5361e-05
7.22264e-05
6.91603e-05
6.58315e-05
6.18974e-05
5.7031e-05
5.10281e-05
4.41295e-05
3.71915e-05
3.0437e-05
2.44661e-05
7.68395e-06
3.86284e-05
6.62419e-05
8.88341e-05
0.000105672
0.00011768
0.000126255
0.00013243
0.000136676
0.000139202
0.000140202
0.000139829
0.000138167
0.000135283
0.000131266
0.000126237
0.00012036
0.000113834
0.000106899
9.98365e-05
9.29806e-05
8.66992e-05
8.12648e-05
7.67538e-05
7.30874e-05
7.00676e-05
6.73919e-05
6.4681e-05
6.15178e-05
5.74976e-05
5.23632e-05
4.6328e-05
4.00604e-05
3.36009e-05
2.74185e-05
9.39375e-06
4.3753e-05
7.41184e-05
9.85268e-05
0.000116272
0.00012863
0.000137298
0.000143409
0.000147455
0.000149674
0.00015027
0.00014934
0.000146932
0.000143109
0.000137974
0.000131683
0.000124449
0.000116529
0.000108223
9.98909e-05
9.19674e-05
8.49204e-05
7.90133e-05
7.42624e-05
7.05614e-05
6.77133e-05
6.54255e-05
6.33118e-05
6.09166e-05
5.77702e-05
5.35406e-05
4.83566e-05
4.26762e-05
3.64334e-05
3.01031e-05
1.09993e-05
4.85305e-05
8.15138e-05
0.000107762
0.000126556
0.000139443
0.000148365
0.000154546
0.000158532
0.000160609
0.000160935
0.000159562
0.000156528
0.0001519
0.000145809
0.00013845
0.000130079
0.000120999
0.000111558
0.000102161
9.33061e-05
8.55168e-05
7.90218e-05
7.37948e-05
6.97303e-05
6.66684e-05
6.43716e-05
6.25009e-05
6.06101e-05
5.81834e-05
5.47825e-05
5.03802e-05
4.52379e-05
3.921e-05
3.28125e-05
1.24733e-05
5.28122e-05
8.80862e-05
0.000115917
0.000135596
0.00014892
0.000158051
0.000164271
0.000168189
0.000170089
0.000170088
0.000168225
0.000164535
0.000159099
0.000152075
0.0001437
0.000134277
0.000124159
0.000113747
0.000103518
9.40582e-05
8.59198e-05
7.92097e-05
7.382e-05
6.96152e-05
6.64489e-05
6.41354e-05
6.24055e-05
6.08663e-05
5.89991e-05
5.62845e-05
5.25443e-05
4.78651e-05
4.20453e-05
3.56794e-05
1.39412e-05
5.70412e-05
9.45874e-05
0.000124039
0.000144685
0.000158529
0.000167936
0.000174283
0.000178204
0.000179978
0.000179713
0.000177437
0.00017318
0.000167038
0.000159193
0.00014992
0.000139557
0.000128497
0.000117182
0.000106139
9.6027e-05
8.744e-05
8.0416e-05
7.47871e-05
7.03836e-05
6.70541e-05
6.4642e-05
6.29366e-05
6.16074e-05
6.01601e-05
5.8017e-05
5.48536e-05
5.05992e-05
4.4993e-05
3.86752e-05
1.53375e-05
6.09306e-05
0.000100523
0.000131412
0.000152893
0.000167174
0.000176797
0.000183223
0.000187102
0.000188711
0.000188144
0.00018542
0.000180571
0.000173709
0.00016505
0.000154901
0.000143645
0.000131717
0.000119607
0.000107908
9.73676e-05
8.85843e-05
8.1486e-05
7.58369e-05
7.1426e-05
6.8086e-05
6.56745e-05
6.40249e-05
6.28662e-05
6.1743e-05
6.00515e-05
5.73575e-05
5.34574e-05
4.80257e-05
4.17317e-05
1.68488e-05
6.50408e-05
0.000106735
0.000139079
0.000161401
0.000176128
0.000185984
0.000192506
0.000196363
0.000197828
0.000196983
0.00019384
0.000188435
0.000180897
0.000171465
0.00016048
0.000148358
0.000135572
0.00012265
0.00011024
9.91631e-05
9.00726e-05
8.28286e-05
7.71317e-05
7.27224e-05
6.94046e-05
6.70314e-05
6.54589e-05
6.44587e-05
6.36126e-05
6.23054e-05
6.00148e-05
5.64235e-05
5.11304e-05
4.47979e-05
1.83012e-05
6.87949e-05
0.000112356
0.000145987
0.000169046
0.000184163
0.000194222
0.000200822
0.000204646
0.000205958
0.00020483
0.000201267
0.000195312
0.000187113
0.000176935
0.000165152
0.000152213
0.000138628
0.000124967
0.000111939
0.000100453
9.11887e-05
8.39255e-05
7.83035e-05
7.4016e-05
7.0836e-05
6.86046e-05
6.71868e-05
6.63799e-05
6.57927e-05
6.48072e-05
6.28416e-05
5.94887e-05
5.4266e-05
4.78172e-05
1.99164e-05
7.28838e-05
0.000118407
0.000153341
0.000177114
0.0001926
0.000202851
0.000209524
0.00021331
0.000214468
0.000213058
0.000209083
0.000202594
0.000193754
0.000182854
0.000170292
0.000156548
0.000142161
0.000127734
0.000114025
0.000102013
9.2462e-05
8.51017e-05
7.95144e-05
7.53435e-05
7.23247e-05
7.02774e-05
6.90613e-05
6.84824e-05
6.81612e-05
6.74733e-05
6.57882e-05
6.26267e-05
5.74207e-05
5.07825e-05
2.14658e-05
7.65979e-05
0.000123842
0.000159924
0.000184334
0.000200162
0.000210601
0.000217355
0.000221118
0.00022214
0.000220469
0.000216107
0.000209115
0.000199674
0.000188097
0.000174809
0.000160315
0.000145182
0.000130046
0.000115716
0.00010325
9.34794e-05
8.60844e-05
8.05945e-05
7.66072e-05
7.38217e-05
7.20325e-05
7.10857e-05
7.07818e-05
7.07387e-05
7.03203e-05
6.88611e-05
6.58287e-05
6.05686e-05
5.36647e-05
2.31771e-05
8.06465e-05
0.000129714
0.000166964
0.000191989
0.000208133
0.000218745
0.000225568
0.000229299
0.000230177
0.000228244
0.0002235
0.000216018
0.000205995
0.000193765
0.000179771
0.00016454
0.000148658
0.000132786
0.000117773
0.000104735
9.46286e-05
8.71118e-05
8.16657e-05
7.78411e-05
7.52969e-05
7.37963e-05
7.31615e-05
7.31736e-05
7.34329e-05
7.32805e-05
7.20184e-05
6.90732e-05
6.37056e-05
5.64745e-05
2.48206e-05
8.43418e-05
0.00013501
0.000173293
0.000198877
0.00021533
0.000226125
0.000233038
0.000236762
0.000237525
0.000235361
0.000230273
0.000222343
0.000211788
0.000198959
0.000184317
0.000168403
0.000151823
0.000135267
0.000119614
0.000106043
9.56255e-05
8.80082e-05
8.26303e-05
7.90008e-05
7.67405e-05
7.55792e-05
7.53085e-05
7.5679e-05
7.62593e-05
7.63599e-05
7.52565e-05
7.23479e-05
6.68115e-05
5.9191e-05
2.66081e-05
8.83268e-05
0.000140685
0.000180025
0.000206153
0.000222898
0.000233865
0.000240858
0.000244566
0.000245208
0.000242812
0.000237385
0.000229024
0.000217958
0.000204555
0.000189286
0.000172703
0.000155424
0.00013816
0.000121812
0.000107599
9.6751e-05
8.89391e-05
8.35665e-05
8.0101e-05
7.81224e-05
7.7322e-05
7.74525e-05
7.8222e-05
7.91533e-05
7.95133e-05
7.85497e-05
7.56417e-05
6.98864e-05
6.18226e-05
2.83331e-05
9.20016e-05
0.000145861
0.000186148
0.000212785
0.000229824
0.000240981
0.000248077
0.000251795
0.000252344
0.000249748
0.000244022
0.000235274
0.00022375
0.000209829
0.000193994
0.000176798
0.000158873
0.000140944
0.000123936
0.0001091
9.78113e-05
8.97916e-05
8.44175e-05
8.11216e-05
7.94452e-05
7.90387e-05
7.96093e-05
8.08125e-05
8.21134e-05
8.27277e-05
8.18785e-05
7.89329e-05
7.29083e-05
6.43494e-05
3.01809e-05
9.59106e-05
0.000151344
0.000192603
0.000219744
0.00023707
0.00024841
0.000255602
0.00025932
0.000259768
0.00025697
0.000250951
0.000241832
0.000229874
0.000215465
0.000199088
0.000181302
0.000162741
0.000144133
0.000126422
0.000110878
9.90256e-05
9.06949e-05
8.52438e-05
8.20733e-05
8.06851e-05
8.06843e-05
8.17254e-05
8.34001e-05
8.51025e-05
8.59834e-05
8.52371e-05
8.22224e-05
7.588e-05
6.67743e-05
3.19739e-05
9.95528e-05
0.000156403
0.000198556
0.000226189
0.000243819
0.000255363
0.000262668
0.000266404
0.00026677
0.000263795
0.000257517
0.000248072
0.000235733
0.000220895
0.000204042
0.00018573
0.00016659
0.000147348
0.000128959
0.000112718
0.000100268
9.15851e-05
8.60226e-05
8.29578e-05
8.18562e-05
8.22756e-05
8.38107e-05
8.59805e-05
8.80971e-05
8.92404e-05
8.85801e-05
8.54714e-05
7.87752e-05
6.90807e-05
3.38676e-05
0.000103368
0.00016169
0.000204766
0.000232906
0.000250848
0.000262595
0.000270001
0.000273732
0.000273998
0.000270839
0.000264307
0.000254554
0.000241863
0.00022663
0.000209336
0.000190531
0.000170833
0.00015096
0.00013187
0.000114873
0.000101708
9.25655e-05
8.68057e-05
8.37889e-05
8.2946e-05
8.37843e-05
8.58325e-05
8.85275e-05
9.10894e-05
9.25151e-05
9.19395e-05
8.8707e-05
8.16072e-05
7.12718e-05
3.57137e-05
0.000106947
0.00016661
0.000210562
0.000239231
0.000257534
0.000269511
0.000277014
0.00028073
0.000280895
0.000277567
0.000270813
0.000260798
0.00024781
0.000232246
0.00021458
0.000195349
0.000175157
0.000154703
0.000134942
0.000117191
0.000103266
9.3605e-05
8.75921e-05
8.45819e-05
8.39767e-05
8.52322e-05
8.78039e-05
9.10363e-05
9.40462e-05
9.57408e-05
9.52284e-05
9.18664e-05
8.43437e-05
7.33341e-05
3.7638e-05
0.000110633
0.000171663
0.000216518
0.000245766
0.000264517
0.000276735
0.000284268
0.000287898
0.000287931
0.000284429
0.000277466
0.000267214
0.000253965
0.000238111
0.000220116
0.000200503
0.000179852
0.000158839
0.000138405
0.000119863
0.000105082
9.47972e-05
8.84352e-05
8.53577e-05
8.49444e-05
8.65987e-05
8.96972e-05
9.34832e-05
9.69614e-05
9.89451e-05
9.8523e-05
9.49843e-05
8.69964e-05
7.52745e-05
3.95193e-05
0.000114105
0.000176376
0.000222078
0.000251932
0.000271045
0.000283504
0.000291161
0.000294736
0.000294664
0.00029102
0.000283888
0.000273447
0.000259992
0.00024391
0.000225656
0.00020573
0.000184689
0.000163177
0.000142111
0.000122792
0.000107117
9.61442e-05
8.93607e-05
8.61516e-05
8.58853e-05
8.79164e-05
9.15378e-05
9.58825e-05
9.98352e-05
0.000102116
0.000101819
9.80353e-05
8.95506e-05
7.70901e-05
4.14565e-05
0.000117637
0.000181148
0.000227682
0.000258122
0.00027759
0.000290297
0.000298103
0.000301704
0.000301482
0.000297685
0.000290394
0.00027979
0.000266165
0.000249898
0.00023143
0.000211242
0.00018986
0.00016789
0.000146217
0.000126114
0.000109484
9.77338e-05
9.04297e-05
8.69983e-05
8.68103e-05
8.91769e-05
9.33043e-05
9.82084e-05
0.00010265
0.000105265
0.000105108
0.000101114
9.20483e-05
7.87937e-05
4.33557e-05
0.000120988
0.000185645
0.00023297
0.000263932
0.000283729
0.000296679
0.000304646
0.000308302
0.000307995
0.000304097
0.000296697
0.000285981
0.000272239
0.000255847
0.00023723
0.000216847
0.000195193
0.000172835
0.000150613
0.000129763
0.000112175
9.95928e-05
9.16893e-05
8.79517e-05
8.77703e-05
9.04232e-05
9.50318e-05
0.000100493
0.000105445
0.000108457
0.000108408
0.000104191
9.44933e-05
8.03897e-05
4.52897e-05
0.000124347
0.000190151
0.000238322
0.000269718
0.000289819
0.000303016
0.000311162
0.000314909
0.000314575
0.000310552
0.000303042
0.000292231
0.000278404
0.000261926
0.000243206
0.00022268
0.000200811
0.00017812
0.0001554
0.000133834
0.000115282
0.0001018
9.32061e-05
8.90615e-05
8.87963e-05
9.16696e-05
9.6724e-05
0.000102736
0.000108217
0.000111652
0.000111704
0.000107252
9.68854e-05
8.18865e-05
4.71838e-05
0.000127518
0.000194345
0.000243281
0.000275107
0.000295521
0.000308977
0.000317318
0.00032118
0.000320868
0.000316752
0.00030918
0.000298327
0.000284472
0.000267965
0.000249202
0.000228597
0.00020658
0.000183629
0.000160484
0.00013827
0.0001188
0.000104385
9.5031e-05
9.03882e-05
8.99467e-05
9.29648e-05
9.84154e-05
0.000104954
0.000110962
0.000114826
0.000114977
0.000110279
9.92191e-05
8.32889e-05
4.90982e-05
0.000130687
0.00019852
0.000248202
0.000280432
0.000301144
0.000314853
0.000323391
0.000327377
0.000327102
0.000322916
0.000315306
0.000304437
0.000290581
0.000274082
0.000255317
0.000234681
0.000212572
0.000189424
0.000165922
0.000143125
0.000122789
0.000107408
9.72256e-05
9.19871e-05
9.12651e-05
9.43384e-05
0.000100124
0.000107161
0.000113688
0.000117974
0.000118219
0.000113264
0.000101493
8.46048e-05
5.09764e-05
0.000133696
0.000202438
0.000252805
0.000285418
0.000306425
0.000320393
0.000329143
0.000333278
0.000333073
0.000328862
0.000321248
0.0003104
0.000296586
0.000280139
0.000261426
0.000240815
0.000218677
0.000195403
0.000171621
0.000148325
0.000127208
0.000110865
9.98154e-05
9.39061e-05
9.28072e-05
9.58413e-05
0.000101887
0.000109371
0.000116384
0.000121084
0.000121418
0.0001162
0.000103705
8.58389e-05
5.28625e-05
0.000136685
0.000206311
0.000257334
0.000290304
0.00031159
0.000325809
0.000334768
0.000339059
0.000338946
0.000334751
0.000327135
0.00031632
0.000302572
0.000286212
0.000267589
0.00024705
0.000224936
0.000201596
0.000177604
0.000153886
0.000132061
0.000114768
0.000102823
9.61766e-05
9.46066e-05
9.75015e-05
0.000103723
0.000111598
0.000119084
0.000124156
0.000124566
0.000119081
0.000105854
8.69975e-05
5.47177e-05
0.000139549
0.000209981
0.000261599
0.000294897
0.000316451
0.000330918
0.000340093
0.000344552
0.000344556
0.000340427
0.000332821
0.000322069
0.000308424
0.000292194
0.000273707
0.000253291
0.000231257
0.000207914
0.000183787
0.000159727
0.000137281
0.000119085
0.000106249
9.88238e-05
9.6704e-05
9.9365e-05
0.000105676
0.000113887
0.000121828
0.00012721
0.000127668
0.000121902
0.000107939
8.80842e-05
5.65734e-05
0.000142387
0.000213601
0.000265768
0.000299362
0.000321166
0.000335871
0.000345255
0.00034988
0.000350002
0.000345946
0.000338374
0.000327713
0.000314202
0.000298134
0.000279819
0.000259565
0.000237657
0.000214368
0.00019017
0.000165846
0.000142859
0.000123813
0.000110101
0.000101866
9.91241e-05
0.000101458
0.00010777
0.000116249
0.000124602
0.000130247
0.000130724
0.000124666
0.00010996
8.9104e-05
5.84008e-05
0.000145127
0.00021709
0.000269713
0.000303565
0.000325603
0.000340542
0.000350137
0.000354938
0.000355193
0.00035123
0.000343719
0.000333177
0.00031983
0.000303955
0.000285848
0.000265796
0.000244061
0.000220879
0.000196677
0.000172169
0.000148731
0.000128915
0.000114367
0.000105315
0.000101896
0.000103817
0.000110038
0.000118706
0.000127409
0.000133269
0.000133737
0.000127371
0.000111919
9.00595e-05
6.0208e-05
0.000147799
0.000220504
0.000273521
0.000307609
0.000329868
0.00034503
0.00035483
0.000359803
0.000360195
0.000356333
0.000348901
0.000338499
0.000325339
0.000309684
0.000291813
0.000271996
0.000250471
0.000227445
0.000203297
0.000178677
0.000154876
0.000134373
0.000119042
0.000109176
0.000105036
0.000106463
0.000112498
0.000121269
0.000130254
0.000136278
0.000136707
0.000130021
0.000113819
9.09557e-05
6.1973e-05
0.000150338
0.000223715
0.000277105
0.000311409
0.000333877
0.000349256
0.000359257
0.0003644
0.00036493
0.000361187
0.000353862
0.000343625
0.000330678
0.000315268
0.000297661
0.000278111
0.000256832
0.000234004
0.000209966
0.000185305
0.000161231
0.000140143
0.0001241
0.000113448
0.00010856
0.000109421
0.000115177
0.000123959
0.000133143
0.000139278
0.000139637
0.000132614
0.000115659
9.1795e-05
6.37223e-05
0.000152819
0.000226835
0.000280547
0.00031504
0.000337704
0.000353292
0.000363491
0.000368806
0.000369477
0.00036585
0.000358632
0.000348576
0.000335867
0.000320724
0.000303406
0.000284149
0.000263148
0.000240556
0.000216676
0.000192039
0.000167774
0.000146198
0.00012952
0.000118119
0.000112471
0.000112706
0.000118092
0.000126787
0.000136086
0.000142272
0.000142528
0.000135155
0.000117446
9.25838e-05
6.54341e-05
0.000155184
0.000229772
0.000283771
0.000318437
0.000341286
0.000357075
0.000367466
0.000372951
0.000373768
0.000370271
0.000363184
0.000353316
0.000340847
0.000326001
0.000308997
0.000290059
0.000269367
0.000247047
0.000223372
0.00019882
0.000174448
0.000152492
0.000135268
0.000123173
0.000116771
0.000116333
0.000121261
0.00012977
0.000139094
0.000145269
0.000145386
0.000137645
0.000119182
9.33269e-05
6.71193e-05
0.000157477
0.000232593
0.000286844
0.00032166
0.00034468
0.000360659
0.000371235
0.000376884
0.000377844
0.000374481
0.000367536
0.000357877
0.000345667
0.000331116
0.000314447
0.000295852
0.000275492
0.000253475
0.000230044
0.000205633
0.000181231
0.000158995
0.000141314
0.000128588
0.00012145
0.000120303
0.000124696
0.000132922
0.000142177
0.000148273
0.000148215
0.000140091
0.000120873
9.40319e-05
6.87635e-05
0.000159655
0.000235243
0.000289712
0.000324661
0.00034784
0.000364001
0.000374754
0.000380563
0.000381666
0.000378442
0.000371652
0.000362212
0.000350275
0.000336038
0.00031971
0.000301478
0.000281477
0.000259793
0.000236646
0.000212429
0.000188073
0.000165663
0.000147622
0.000134338
0.000126495
0.000124619
0.000128411
0.000136258
0.00014535
0.000151299
0.000151024
0.0001425
0.000122526
9.47053e-05
7.03773e-05
0.000161756
0.000237773
0.000292427
0.000327488
0.000350811
0.000367142
0.000378063
0.000384025
0.000385267
0.000382182
0.000375555
0.000366343
0.000354689
0.000340778
0.000324803
0.000306939
0.000287317
0.000265992
0.000243161
0.000219187
0.000194947
0.000172463
0.000154157
0.000140391
0.000131886
0.000129275
0.000132407
0.000139787
0.000148621
0.000154353
0.000153822
0.000144879
0.000124148
9.53554e-05
7.19472e-05
0.000163747
0.00024014
0.000294947
0.000330103
0.000353558
0.000370049
0.000381129
0.000387238
0.000388616
0.000385673
0.000379218
0.000370243
0.00035888
0.000345303
0.000329694
0.000312212
0.000292975
0.000272035
0.000249552
0.000225864
0.000201809
0.000179351
0.000160877
0.000146714
0.000137601
0.000134263
0.000136693
0.000143525
0.000152011
0.000157452
0.000156622
0.000147237
0.000125748
9.59891e-05
7.34781e-05
0.000165653
0.000242383
0.000297313
0.000332544
0.000356117
0.000372756
0.000383986
0.000390233
0.000391741
0.000388938
0.000382661
0.000373928
0.000362861
0.000349624
0.000334386
0.000317296
0.000298456
0.000277906
0.000255808
0.000232443
0.000208631
0.000186293
0.000167745
0.000153269
0.00014361
0.000139565
0.000141263
0.000147476
0.000155526
0.000160608
0.000159434
0.000149586
0.000127333
9.66148e-05
7.49628e-05
0.000167455
0.000244473
0.000299496
0.000334786
0.000358464
0.00037524
0.00038661
0.000392987
0.00039462
0.000391958
0.000385865
0.000377378
0.000366612
0.000353719
0.000338858
0.000322165
0.000303731
0.000283582
0.000261866
0.000238875
0.00021537
0.000193247
0.000174718
0.000160018
0.000149883
0.000145164
0.000146114
0.00015165
0.000159185
0.000163836
0.000162273
0.000151937
0.000128914
9.72386e-05
7.64076e-05
0.000169172
0.000246441
0.000301529
0.000336859
0.000360629
0.00037753
0.000389029
0.000395527
0.000397278
0.000394753
0.000388849
0.00038061
0.000370145
0.000357597
0.000343113
0.00032682
0.000308798
0.000289062
0.00026775
0.000245144
0.000221998
0.000200175
0.000181755
0.000166918
0.00015638
0.000151033
0.000151235
0.000156049
0.000162997
0.000167152
0.000165154
0.000154304
0.000130499
9.78678e-05
7.78078e-05
0.000170793
0.000248268
0.000303392
0.000338744
0.000362593
0.000379608
0.000391226
0.000397835
0.000399698
0.000397309
0.000391596
0.000383609
0.000373445
0.000361242
0.000347136
0.000331243
0.000313636
0.00029432
0.000273427
0.000251234
0.000228491
0.000207046
0.000188817
0.00017393
0.000163069
0.000157146
0.000156612
0.000160669
0.000166968
0.000170566
0.000168087
0.000156695
0.000132097
9.85066e-05
7.91703e-05
0.000172334
0.000249978
0.000305111
0.000340469
0.000364383
0.0003815
0.000393226
0.000399937
0.000401904
0.000399646
0.000394128
0.000386391
0.000376528
0.000364666
0.000350934
0.000335438
0.000318244
0.000299351
0.000278887
0.000257126
0.000234824
0.000213839
0.000195877
0.000181021
0.000169914
0.000163476
0.000162232
0.000165515
0.000171115
0.000174096
0.000171093
0.000159126
0.000133717
9.91605e-05
8.04915e-05
0.000173785
0.000251555
0.000306669
0.000342015
0.000365982
0.00038319
0.000395014
0.000401818
0.00040388
0.000401752
0.000396431
0.000388945
0.000379381
0.000367857
0.000354495
0.000339393
0.000322608
0.000304136
0.000284105
0.000262794
0.000240966
0.000220496
0.000202883
0.000188142
0.000176874
0.000169986
0.000168064
0.000170565
0.000175426
0.000177744
0.000174176
0.000161605
0.000135364
9.98315e-05
8.17787e-05
0.000175162
0.000253021
0.00030809
0.000343407
0.000367415
0.000384702
0.000396613
0.000403499
0.000405651
0.000403648
0.000398526
0.00039129
0.00038202
0.00037083
0.00035783
0.000343114
0.000326733
0.000308679
0.000289082
0.00026823
0.000246908
0.000227014
0.000209813
0.000195264
0.000183916
0.000176654
0.000174103
0.00017583
0.00017992
0.000181526
0.000177352
0.000164142
0.000137045
0.000100522
8.30286e-05
0.000176454
0.000254361
0.000309356
0.000344628
0.000368664
0.000386021
0.000398009
0.000404969
0.000407203
0.000405323
0.000400403
0.000393417
0.00038444
0.000373577
0.000360935
0.000346597
0.000330611
0.000312969
0.000293805
0.00027342
0.000252629
0.000233363
0.000216629
0.000202342
0.000190993
0.000183432
0.000180303
0.00018127
0.00018458
0.000185442
0.000180627
0.000166745
0.000138765
0.000101232
8.42474e-05
0.000177674
0.000255594
0.000310489
0.0003457
0.000369752
0.000387168
0.000399224
0.000406249
0.000408559
0.000406799
0.000402083
0.000395346
0.000386658
0.000376117
0.000363823
0.000349855
0.000334256
0.000317016
0.00029828
0.000278366
0.000258124
0.000239527
0.000223311
0.000209348
0.000198074
0.000190291
0.000186646
0.000186888
0.000189403
0.000189493
0.000184004
0.000169418
0.000140524
0.000101961
8.5432e-05
0.000178812
0.000256703
0.000311471
0.000346604
0.000370662
0.000388129
0.000400245
0.000407328
0.000409708
0.000408068
0.00040356
0.000397072
0.00038867
0.000378446
0.000366494
0.000352887
0.000337666
0.000320822
0.000302508
0.000283068
0.000263392
0.000245498
0.000229839
0.000216251
0.000205117
0.000197188
0.0001931
0.000192677
0.000194387
0.000193679
0.000187488
0.000172165
0.000142327
0.00010271
8.6587e-05
0.000179878
0.000257704
0.000312319
0.000347361
0.000371415
0.000388923
0.000401091
0.000408226
0.000410673
0.000409153
0.000404856
0.000398618
0.000390499
0.000380586
0.000368968
0.000355713
0.00034086
0.000324403
0.000306507
0.000287542
0.000268448
0.000251279
0.000236208
0.00022304
0.000212107
0.000204105
0.000199644
0.000198609
0.000199517
0.000197997
0.000191078
0.000174987
0.000144174
0.000103477
8.77084e-05
0.000180863
0.000258581
0.000313017
0.000347952
0.000371992
0.000389536
0.00040175
0.000408932
0.000411443
0.000410044
0.000405967
0.00039998
0.000392142
0.000382536
0.000371245
0.000358336
0.000343844
0.00032777
0.000310289
0.000291805
0.000273316
0.000256884
0.000242418
0.000229698
0.000219009
0.00021099
0.000206227
0.00020464
0.000204773
0.000202435
0.000194771
0.000177884
0.000146064
0.000104262
8.87998e-05
0.000181775
0.00025935
0.000313581
0.000348395
0.000372413
0.000389985
0.000402241
0.000409465
0.00041204
0.000410766
0.000406913
0.00040118
0.00039362
0.000384316
0.000373347
0.000360776
0.000346639
0.000330943
0.00031388
0.000295889
0.000278036
0.00026234
0.000248484
0.00023623
0.000225824
0.000217845
0.000212838
0.00021075
0.000210131
0.00020698
0.00019856
0.000180854
0.000147998
0.000105064
8.98561e-05
0.000182605
0.000259994
0.000313994
0.000348673
0.00037266
0.000390256
0.000402548
0.000409814
0.000412454
0.000411311
0.000407692
0.000402216
0.000394935
0.000385929
0.000375276
0.000363039
0.000349254
0.000333936
0.000317299
0.000299825
0.000282654
0.000267678
0.000254424
0.000242642
0.000232537
0.000224634
0.000219428
0.000216902
0.000215569
0.000211618
0.000202436
0.000183891
0.000149971
0.00010588
9.08806e-05
0.000183361
0.000260529
0.000314272
0.000348801
0.00037275
0.000390363
0.00040269
0.000409997
0.000412705
0.000411699
0.000408325
0.000403109
0.000396106
0.000387394
0.000377051
0.000365141
0.000351705
0.000336766
0.000320565
0.000303632
0.000287192
0.000272923
0.000260261
0.000248946
0.000239155
0.000231359
0.000226006
0.000223081
0.000221064
0.000216331
0.00020639
0.000186992
0.000151985
0.000106712
9.18685e-05
0.000184034
0.000260939
0.000314399
0.000348765
0.000372666
0.000390293
0.000402652
0.000410001
0.000412783
0.000411926
0.000408807
0.000403859
0.000397135
0.000388715
0.000378678
0.00036709
0.000353998
0.000339438
0.00032368
0.00030731
0.000291641
0.000278074
0.000265997
0.000255149
0.000245678
0.00023801
0.000232543
0.000229257
0.000226598
0.000221106
0.000210409
0.000190147
0.000154032
0.000107556
9.28233e-05
0.000184634
0.000261241
0.00031439
0.000348577
0.000372423
0.000390058
0.000402449
0.000409842
0.000412706
0.000412008
0.000409159
0.000404483
0.000398039
0.000389908
0.000380173
0.000368901
0.000356148
0.000341966
0.000326657
0.000310865
0.000295994
0.000283129
0.000271638
0.000261256
0.00025211
0.000244585
0.000239034
0.000235436
0.000232153
0.000225926
0.000214485
0.000193352
0.000156113
0.000108416
9.37411e-05
0.000185153
0.00026142
0.000314231
0.000348223
0.000372004
0.000389644
0.000402066
0.000409509
0.000412466
0.000411942
0.000409376
0.000404981
0.000398819
0.000390976
0.000381539
0.00037058
0.000358162
0.000344356
0.000329499
0.000314299
0.000300244
0.000288085
0.00027718
0.000267265
0.00025845
0.00025108
0.000245468
0.000241591
0.00023772
0.000230779
0.000218605
0.0001966
0.000158223
0.000109288
9.46256e-05
0.0001856
0.000261489
0.000313936
0.000347717
0.000371424
0.000389063
0.000401515
0.000409014
0.000412079
0.000411748
0.000409478
0.000405368
0.000399487
0.000391931
0.000382789
0.000372139
0.000360054
0.000346624
0.000332223
0.000317626
0.000304398
0.000292945
0.000282626
0.00027318
0.000264699
0.000257495
0.000251843
0.000247717
0.000243289
0.000235656
0.000222759
0.00019988
0.000160354
0.000110165
9.54735e-05
0.000185967
0.000261437
0.00031349
0.000347043
0.000370666
0.000388298
0.000400781
0.000408346
0.000411541
0.000411434
0.000409465
0.000405639
0.000400041
0.000392772
0.000383925
0.000373583
0.00036183
0.000348777
0.000334839
0.000320861
0.000308464
0.000297714
0.000287979
0.000279001
0.000270857
0.000263827
0.000258152
0.000253804
0.000248849
0.000240553
0.000226945
0.00020319
0.000162504
0.000111052
9.6288e-05
0.000186261
0.000261276
0.000312907
0.000346216
0.000369743
0.000387362
0.000399873
0.00040751
0.000410862
0.000411042
0.000409347
0.000405799
0.000400485
0.000393507
0.000384957
0.000374925
0.000363506
0.000350835
0.00033737
0.000324031
0.000312457
0.0003024
0.000293242
0.00028473
0.000276925
0.000270077
0.000264394
0.000259848
0.000254391
0.000245456
0.00023115
0.000206519
0.000164667
0.000111948
9.70659e-05
0.000186475
0.000260994
0.000312176
0.000345223
0.000368645
0.000386242
0.000398776
0.000406484
0.000409994
0.000410467
0.000409071
0.000405823
0.000400809
0.000394131
0.000385887
0.000376172
0.000365095
0.000352817
0.000339846
0.00032718
0.000316404
0.000307017
0.000298422
0.000290366
0.0002829
0.000276241
0.000270566
0.000265848
0.000259914
0.000250364
0.000235376
0.000209874
0.000166862
0.00011285
9.78095e-05
0.000186617
0.000260602
0.000311309
0.000344078
0.000367383
0.000384953
0.000397509
0.000405294
0.000408978
0.000409767
0.000408681
0.000405739
0.000401031
0.000394659
0.000386726
0.000377335
0.000366611
0.000354744
0.000342295
0.00033035
0.000320336
0.000311589
0.00030353
0.000295916
0.00028878
0.000282311
0.000276654
0.000271785
0.000265403
0.000255264
0.00023961
0.000213245
0.000169079
0.000113753
9.85156e-05
0.000186677
0.000260091
0.000310295
0.00034277
0.000365947
0.000383483
0.000396056
0.000403921
0.00040779
0.000408911
0.000408151
0.000405531
0.00040114
0.000395084
0.000387471
0.000378414
0.000368055
0.00035662
0.000344727
0.00033355
0.000324266
0.000316128
0.00030858
0.000301389
0.000294577
0.000288304
0.000282682
0.000277678
0.000270864
0.000260156
0.00024385
0.000216625
0.000171303
0.000114655
9.9186e-05
0.000186664
0.000259471
0.000309149
0.000341314
0.000364353
0.000381848
0.000394437
0.000402387
0.000406453
0.000407924
0.000407505
0.000405216
0.000401151
0.000395418
0.000388131
0.000379415
0.000369433
0.000358444
0.000347134
0.000336759
0.000328184
0.000320631
0.000313571
0.00030678
0.000300272
0.000294177
0.000288579
0.000283479
0.00027627
0.000265024
0.000248081
0.000220004
0.000173525
0.000115555
9.98187e-05
0.000186572
0.000258735
0.000307863
0.000339702
0.000362593
0.000380039
0.000392642
0.000400682
0.000404958
0.000406797
0.000406732
0.000404788
0.000401058
0.000395658
0.000388707
0.000380341
0.000370745
0.000360219
0.000349512
0.000339957
0.000332078
0.000325094
0.000318504
0.000312099
0.000305888
0.000299984
0.000294468
0.000289227
0.000281628
0.000269863
0.0002523
0.000223376
0.000175745
0.000116453
0.000100417
0.00018641
0.000257897
0.000306452
0.00033795
0.000360681
0.000378072
0.000390687
0.000398823
0.000403324
0.000405547
0.000405849
0.000404259
0.000400875
0.000395816
0.000389208
0.000381201
0.000372003
0.000361954
0.00035187
0.000343144
0.000335947
0.000329517
0.000323384
0.000317352
0.000311433
0.00030573
0.000300325
0.000294927
0.000286939
0.000274668
0.000256498
0.000226736
0.000177957
0.000117349
0.000100981
0.000186176