/*--------------------------------*- C++ -*----------------------------------*\
| =========                 |                                                 |
| \\      /  F ield         | OpenFOAM: The Open Source CFD Toolbox           |
|  \\    /   O peration     | Version:  v2006                                 |
|   \\  /    A nd           | Website:  www.openfoam.com                      |
|    \\/     M anipulation  |                                                 |
\*---------------------------------------------------------------------------*/
FoamFile
{
    version     2.0;
    format      ascii;
    class       surfaceScalarField;
    location    "65";
    object      phi;
}
// * * * * * * * * * * * * * * * * * * * * * * * * * * * * * * * * * * * * * //

dimensions      [1 0 -1 0 0 0 0];
oriented        oriented;


internalField   nonuniform List<scalar> 
228225
(
1.48878e-07
-2.03665e-07
9.8875e-09
5.78483e-07
-4.62075e-07
3.25239e-08
1.15805e-06
-6.34252e-07
5.45284e-08
1.84033e-06
-7.56924e-07
7.435e-08
2.5949e-06
-8.46209e-07
9.12777e-08
3.399e-06
-9.09729e-07
1.0524e-07
4.23353e-06
-9.51396e-07
1.16459e-07
5.08126e-06
-9.73396e-07
1.25246e-07
5.92619e-06
-9.77274e-07
1.31914e-07
6.75333e-06
-9.64329e-07
1.36731e-07
7.54875e-06
-9.358e-07
1.39909e-07
8.29974e-06
-8.93077e-07
1.41603e-07
8.99437e-06
-8.37075e-07
1.41948e-07
9.62156e-06
-7.68724e-07
1.4103e-07
1.01714e-05
-6.89261e-07
1.38913e-07
1.06351e-05
-5.99864e-07
1.35646e-07
1.10051e-05
-5.01708e-07
1.31274e-07
1.12747e-05
-3.96018e-07
1.25904e-07
1.14387e-05
-2.84109e-07
1.19612e-07
1.14933e-05
-1.67531e-07
1.12425e-07
1.14375e-05
-4.896e-08
1.04365e-07
1.1266e-05
7.55983e-08
9.545e-08
1.09772e-05
2.02606e-07
8.57137e-08
1.05747e-05
3.26919e-07
7.52174e-08
1.00629e-05
4.4745e-07
6.405e-08
9.44827e-06
5.61907e-07
5.23843e-08
8.74007e-06
6.67458e-07
4.0492e-08
7.94967e-06
7.6145e-07
2.87623e-08
7.08809e-06
8.43793e-07
1.76864e-08
6.15891e-06
9.21325e-07
7.83038e-09
5.14326e-06
1.01608e-06
-3.26324e-10
3.98129e-06
1.16908e-06
-6.81318e-09
2.59954e-06
1.39374e-06
-1.13722e-08
1.07366e-06
1.54012e-06
-1.30924e-08
1.08367e-06
-8.08574e-09
1.25444e-07
-3.52189e-07
2.28377e-08
4.78346e-07
-8.76465e-07
6.14744e-08
1.01358e-06
-1.26209e-06
9.25675e-08
1.68677e-06
-1.5473e-06
1.17114e-07
2.45811e-06
-1.75378e-06
1.36147e-07
3.29338e-06
-1.8959e-06
1.50811e-07
4.16371e-06
-1.98397e-06
1.62145e-07
5.04479e-06
-2.02558e-06
1.70993e-07
5.91597e-06
-2.02655e-06
1.77982e-07
6.75965e-06
-1.99166e-06
1.83534e-07
7.56069e-06
-1.92488e-06
1.87894e-07
8.30624e-06
-1.82988e-06
1.91093e-07
8.98571e-06
-1.70996e-06
1.93237e-07
9.58979e-06
-1.56747e-06
1.94471e-07
1.01101e-05
-1.40463e-06
1.94826e-07
1.05393e-05
-1.22359e-06
1.94316e-07
1.08708e-05
-1.02648e-06
1.92929e-07
1.10993e-05
-8.15407e-07
1.90639e-07
1.122e-05
-5.92523e-07
1.87408e-07
1.12291e-05
-3.60099e-07
1.83135e-07
1.1123e-05
-1.20985e-07
1.77708e-07
1.09043e-05
1.22985e-07
1.70985e-07
1.05743e-05
3.69403e-07
1.62765e-07
1.0134e-05
6.14076e-07
1.52808e-07
9.58584e-06
8.54301e-07
1.4087e-07
8.93462e-06
1.08602e-06
1.26742e-07
8.18649e-06
1.30497e-06
1.103e-07
7.34738e-06
1.50868e-06
9.16148e-08
6.41971e-06
1.70021e-06
7.10722e-08
5.39886e-06
1.89271e-06
4.93829e-08
4.27234e-06
2.11485e-06
2.78125e-08
3.03646e-06
2.39651e-06
8.67073e-09
1.75022e-06
2.68443e-06
-3.92582e-09
5.97383e-07
2.70122e-06
-7.25009e-09
1.68623e-06
-3.45119e-09
1.3114e-07
-5.14458e-07
3.11557e-08
4.9314e-07
-1.31539e-06
7.67137e-08
1.03919e-06
-1.91705e-06
1.08887e-07
1.71283e-06
-2.35228e-06
1.31382e-07
2.45981e-06
-2.64775e-06
1.47039e-07
3.2387e-06
-2.83296e-06
1.58199e-07
4.02148e-06
-2.93328e-06
1.6653e-07
4.78923e-06
-2.96644e-06
1.73096e-07
5.52834e-06
-2.94421e-06
1.78519e-07
6.22819e-06
-2.87464e-06
1.83093e-07
6.8801e-06
-2.76385e-06
1.87032e-07
7.47618e-06
-2.61646e-06
1.90478e-07
8.00923e-06
-2.43652e-06
1.93477e-07
8.47336e-06
-2.2277e-06
1.96066e-07
8.86332e-06
-1.99291e-06
1.98274e-07
9.17413e-06
-1.73456e-06
2.00104e-07
9.40145e-06
-1.4554e-06
2.01547e-07
9.54157e-06
-1.15819e-06
2.02583e-07
9.59147e-06
-8.45662e-07
2.03142e-07
9.54875e-06
-5.20617e-07
2.03127e-07
9.41153e-06
-1.8624e-07
2.02353e-07
9.17912e-06
1.54706e-07
2.0054e-07
8.85146e-06
4.99545e-07
1.97361e-07
8.42937e-06
8.43529e-07
1.92453e-07
7.91557e-06
1.18262e-06
1.85293e-07
7.31497e-06
1.51122e-06
1.75216e-07
6.63404e-06
1.82417e-06
1.61554e-07
5.87903e-06
2.11978e-06
1.43783e-07
5.05327e-06
2.40422e-06
1.21653e-07
4.15483e-06
2.69584e-06
9.52997e-08
3.18178e-06
3.02217e-06
6.58203e-08
2.15827e-06
3.38352e-06
3.67571e-08
1.17141e-06
3.65752e-06
1.42948e-08
3.63035e-07
3.50803e-06
2.49781e-09
2.05043e-06
4.48981e-10
1.4801e-07
-6.98548e-07
3.60798e-08
5.31308e-07
-1.78043e-06
8.16068e-08
1.07697e-06
-2.57274e-06
1.09932e-07
1.71409e-06
-3.11759e-06
1.28102e-07
2.38526e-06
-3.45931e-06
1.40317e-07
3.05535e-06
-3.65233e-06
1.49194e-07
3.70671e-06
-3.74091e-06
1.56178e-07
4.3306e-06
-3.7524e-06
1.61976e-07
4.92131e-06
-3.70196e-06
1.66945e-07
5.47367e-06
-3.59839e-06
1.71278e-07
5.98321e-06
-3.44857e-06
1.75065e-07
6.44613e-06
-3.25794e-06
1.78435e-07
6.85814e-06
-3.03015e-06
1.81497e-07
7.2143e-06
-2.76828e-06
1.84307e-07
7.50976e-06
-2.47547e-06
1.86975e-07
7.74e-06
-2.15456e-06
1.89627e-07
7.90116e-06
-1.809e-06
1.92316e-07
7.9902e-06
-1.44241e-06
1.95064e-07
8.00495e-06
-1.05836e-06
1.97831e-07
7.94385e-06
-6.60179e-07
2.00531e-07
7.8054e-06
-2.50898e-07
2.02992e-07
7.58839e-06
1.6666e-07
2.04929e-07
7.29237e-06
5.89507e-07
2.05932e-07
6.91717e-06
1.01317e-06
2.05437e-07
6.46489e-06
1.43207e-06
2.02711e-07
5.93984e-06
1.83928e-06
1.96886e-07
5.34802e-06
2.22883e-06
1.87066e-07
4.69533e-06
2.59994e-06
1.72468e-07
3.98496e-06
2.96209e-06
1.52486e-07
3.21763e-06
3.33652e-06
1.26692e-07
2.40132e-06
3.74305e-06
9.55647e-08
1.57477e-06
4.14763e-06
6.27233e-08
8.16545e-07
4.38079e-06
3.5445e-08
2.32622e-07
4.07444e-06
1.83794e-08
2.27654e-06
8.0052e-09
1.40765e-07
-8.73312e-07
3.39428e-08
4.91477e-07
-2.20433e-06
7.31919e-08
9.73467e-07
-3.15099e-06
9.61848e-08
1.51833e-06
-3.77324e-06
1.10692e-07
2.07817e-06
-4.13968e-06
1.20447e-07
2.62932e-06
-4.33081e-06
1.27262e-07
3.16312e-06
-4.4067e-06
1.31934e-07
3.67602e-06
-4.40025e-06
1.34894e-07
4.16443e-06
-4.32681e-06
1.36401e-07
4.62507e-06
-4.19591e-06
1.36836e-07
5.05482e-06
-4.01499e-06
1.36617e-07
5.44937e-06
-3.78869e-06
1.36149e-07
5.80259e-06
-3.51926e-06
1.35825e-07
6.10727e-06
-3.20904e-06
1.36014e-07
6.35632e-06
-2.86159e-06
1.37006e-07
6.54401e-06
-2.48139e-06
1.39068e-07
6.66626e-06
-2.07372e-06
1.424e-07
6.72088e-06
-1.64421e-06
1.47112e-07
6.7075e-06
-1.19828e-06
1.5322e-07
6.62726e-06
-7.4062e-07
1.60597e-07
6.48223e-06
-2.74896e-07
1.68951e-07
6.27489e-06
1.96128e-07
1.77787e-07
6.00787e-06
6.70055e-07
1.86384e-07
5.68319e-06
1.14399e-06
1.93773e-07
5.30263e-06
1.61378e-06
1.98765e-07
4.86779e-06
2.074e-06
2.00054e-07
4.37989e-06
2.52029e-06
1.96398e-07
3.83909e-06
2.95394e-06
1.86785e-07
3.24426e-06
3.38653e-06
1.70411e-07
2.59639e-06
3.83779e-06
1.46672e-07
1.91015e-06
4.3133e-06
1.16118e-07
1.23086e-06
4.74446e-06
8.27054e-08
6.23086e-07
4.93546e-06
5.3523e-08
1.71255e-07
4.49481e-06
3.22079e-08
2.43548e-06
1.36876e-08
1.28988e-07
-1.0297e-06
2.72829e-08
4.36508e-07
-2.57093e-06
5.90449e-08
8.46944e-07
-3.64015e-06
7.8682e-08
1.30203e-06
-4.32026e-06
9.18681e-08
1.76491e-06
-4.70332e-06
1.00679e-07
2.22018e-06
-4.89208e-06
1.05927e-07
2.66369e-06
-4.95833e-06
1.08043e-07
3.09376e-06
-4.93794e-06
1.07541e-07
3.508e-06
-4.8461e-06
1.04968e-07
3.90406e-06
-4.69295e-06
1.00912e-07
4.27792e-06
-4.48485e-06
9.59254e-08
4.62269e-06
-4.224e-06
9.04716e-08
4.93026e-06
-3.91194e-06
8.50295e-08
5.19278e-06
-3.55172e-06
8.0087e-08
5.40313e-06
-3.14814e-06
7.61253e-08
5.55583e-06
-2.70776e-06
7.35927e-08
5.64755e-06
-2.23843e-06
7.29108e-08
5.67718e-06
-1.74838e-06
7.44654e-08
5.64567e-06
-1.24539e-06
7.85477e-08
5.55564e-06
-7.35996e-07
8.53306e-08
5.41092e-06
-2.25056e-07
9.48102e-08
5.21622e-06
2.84022e-07
1.06735e-07
4.97651e-06
7.89184e-07
1.20512e-07
4.69616e-06
1.28915e-06
1.35127e-07
4.37812e-06
1.78265e-06
1.49107e-07
4.02294e-06
2.26853e-06
1.60613e-07
3.62819e-06
2.74733e-06
1.67677e-07
3.18867e-06
3.22497e-06
1.68479e-07
2.69846e-06
3.71533e-06
1.61441e-07
2.15697e-06
4.23402e-06
1.45332e-07
1.58073e-06
4.76933e-06
1.20332e-07
1.01407e-06
5.22119e-06
9.01578e-08
5.1008e-07
5.37846e-06
6.13663e-08
1.40691e-07
4.82759e-06
3.73013e-08
2.56329e-06
1.41956e-08
1.06102e-07
-1.15902e-06
2.30597e-08
3.59566e-07
-2.87609e-06
5.16207e-08
6.99239e-07
-4.05068e-06
7.08194e-08
1.07836e-06
-4.78386e-06
8.44582e-08
1.46752e-06
-5.18614e-06
9.36404e-08
1.85421e-06
-5.37772e-06
9.89014e-08
2.23447e-06
-5.43937e-06
1.00716e-07
2.60632e-06
-5.40954e-06
9.96862e-08
2.96807e-06
-5.30436e-06
9.64454e-08
3.31684e-06
-5.13335e-06
9.15406e-08
3.64686e-06
-4.90033e-06
8.53983e-08
3.95081e-06
-4.6064e-06
7.83724e-08
4.22135e-06
-4.2534e-06
7.08428e-08
4.45133e-06
-3.84507e-06
6.33042e-08
4.63461e-06
-3.3878e-06
5.63137e-08
4.76677e-06
-2.89038e-06
5.03872e-08
4.84551e-06
-2.36318e-06
4.59358e-08
4.8706e-06
-1.8169e-06
4.33529e-08
4.84358e-06
-1.26149e-06
4.30504e-08
4.76731e-06
-7.05213e-07
4.54074e-08
4.64558e-06
-1.54118e-07
5.07171e-08
4.48287e-06
3.87524e-07
5.9126e-08
4.28365e-06
9.178e-07
7.05369e-08
4.05173e-06
1.43654e-06
8.44626e-08
3.7892e-06
1.94524e-06
9.9881e-08
3.49532e-06
2.44717e-06
1.15183e-07
3.16581e-06
2.94853e-06
1.28275e-07
2.79342e-06
3.46059e-06
1.36765e-07
2.37095e-06
3.99965e-06
1.38158e-07
1.89813e-06
4.57657e-06
1.30312e-07
1.39232e-06
5.16271e-06
1.12527e-07
8.94862e-07
5.63137e-06
8.74533e-08
4.51616e-07
5.76112e-06
6.09122e-08
1.26925e-07
5.1164e-06
3.65127e-08
2.67874e-06
1.2719e-08
9.13655e-08
-1.26954e-06
1.90804e-08
3.09436e-07
-3.13923e-06
4.49908e-08
6.03437e-07
-4.40872e-06
6.3978e-08
9.3465e-07
-5.19327e-06
7.814e-08
1.27776e-06
-5.61714e-06
8.78419e-08
1.62136e-06
-5.81475e-06
9.33837e-08
1.9613e-06
-5.87461e-06
9.52359e-08
2.29544e-06
-5.8378e-06
9.40541e-08
2.62189e-06
-5.72144e-06
9.05651e-08
2.93669e-06
-5.53349e-06
8.52844e-08
3.23411e-06
-5.27635e-06
7.8531e-08
3.508e-06
-4.95096e-06
7.0608e-08
3.75181e-06
-4.55915e-06
6.18777e-08
3.95935e-06
-4.10548e-06
5.28218e-08
4.12543e-06
-3.5979e-06
4.39602e-08
4.24636e-06
-3.04718e-06
3.58115e-08
4.32005e-06
-2.46581e-06
2.88738e-08
4.3462e-06
-1.86668e-06
2.35709e-08
4.32621e-06
-1.26184e-06
2.02784e-08
4.26286e-06
-6.6135e-07
1.94128e-08
4.16014e-06
-7.28374e-08
2.13711e-08
4.0226e-06
4.98525e-07
2.64623e-08
3.85497e-06
1.05052e-06
3.48455e-08
3.66084e-06
1.58416e-06
4.64296e-08
3.44143e-06
2.10387e-06
6.07145e-08
3.19446e-06
2.61744e-06
7.66321e-08
2.91372e-06
3.13676e-06
9.2455e-08
2.59002e-06
3.67845e-06
1.05804e-07
2.21474e-06
4.26117e-06
1.13754e-07
1.78693e-06
4.8911e-06
1.13312e-07
1.32305e-06
5.52401e-06
1.02647e-07
8.6115e-07
6.01038e-06
8.30357e-08
4.43433e-07
6.11978e-06
5.93441e-08
1.29904e-07
5.39505e-06
3.54732e-08
2.79811e-06
1.17306e-08
7.868e-08
-1.366e-06
1.7752e-08
2.70751e-07
-3.37512e-06
4.37355e-08
5.33738e-07
-4.73532e-06
6.35301e-08
8.33493e-07
-5.5715e-06
7.83976e-08
1.14672e-06
-6.01904e-06
8.85892e-08
1.46225e-06
-6.2249e-06
9.45549e-08
1.77559e-06
-6.28493e-06
9.69136e-08
2.08414e-06
-6.24275e-06
9.63496e-08
2.38526e-06
-6.11616e-06
9.35432e-08
2.67491e-06
-5.91214e-06
8.89374e-08
2.94844e-06
-5.63274e-06
8.28004e-08
3.20052e-06
-5.27842e-06
7.53127e-08
3.4257e-06
-4.85114e-06
6.67442e-08
3.61896e-06
-4.35625e-06
5.74401e-08
3.77616e-06
-3.80296e-06
4.77901e-08
3.8942e-06
-3.20351e-06
3.82206e-08
3.9711e-06
-2.57197e-06
2.91963e-08
4.00601e-06
-1.92284e-06
2.11835e-08
3.99931e-06
-1.26979e-06
1.45755e-08
3.95259e-06
-6.24529e-07
9.83352e-09
3.86825e-06
3.95427e-09
7.47023e-09
3.7507e-06
6.08041e-07
7.96707e-09
3.60383e-06
1.18558e-06
1.17297e-08
3.43118e-06
1.73772e-06
1.90163e-08
3.23415e-06
2.27101e-06
2.98063e-08
3.01072e-06
2.7972e-06
4.36054e-08
2.75475e-06
3.3334e-06
5.92555e-08
2.45693e-06
3.90147e-06
7.47378e-08
2.10834e-06
4.52265e-06
8.70793e-08
1.70752e-06
5.19921e-06
9.26909e-08
1.26971e-06
5.8732e-06
8.86475e-08
8.30254e-07
6.37516e-06
7.47743e-08
4.29639e-07
6.46588e-06
5.47459e-08
1.2688e-07
5.66572e-06
3.26348e-08
2.91579e-06
1.03411e-08
7.2589e-08
-1.45571e-06
1.7044e-08
2.50989e-07
-3.59656e-06
4.2978e-08
4.96584e-07
-5.04403e-06
6.30479e-08
7.77615e-07
-5.93085e-06
7.82541e-08
1.0719e-06
-6.40223e-06
8.88419e-08
1.36853e-06
-6.61685e-06
9.52552e-08
1.66299e-06
-6.67759e-06
9.81287e-08
1.95249e-06
-6.63051e-06
9.81934e-08
2.23407e-06
-6.4939e-06
9.61034e-08
2.50404e-06
-6.27451e-06
9.23385e-08
2.75805e-06
-5.97394e-06
8.71392e-08
2.9914e-06
-5.59246e-06
8.06333e-08
3.19954e-06
-5.13235e-06
7.30229e-08
3.37845e-06
-4.59978e-06
6.45532e-08
3.52497e-06
-4.00503e-06
5.54959e-08
3.6368e-06
-3.36157e-06
4.61634e-08
3.71248e-06
-2.68463e-06
3.69156e-08
3.75131e-06
-1.98987e-06
2.81397e-08
3.75342e-06
-1.29215e-06
2.01762e-08
3.71983e-06
-6.04421e-07
1.34122e-08
3.65277e-06
6.26097e-08
8.33452e-09
3.55429e-06
7.01001e-07
5.44169e-09
3.42789e-06
1.30669e-06
5.21473e-09
3.27611e-06
1.88131e-06
8.10207e-09
3.09967e-06
2.4329e-06
1.44743e-08
2.89617e-06
2.97621e-06
2.43968e-08
2.6595e-06
3.53262e-06
3.73826e-08
2.38048e-06
4.12836e-06
5.20703e-08
2.05022e-06
4.78696e-06
6.58886e-08
1.66706e-06
5.50721e-06
7.51231e-08
1.24531e-06
6.21886e-06
7.60707e-08
8.18585e-07
6.73476e-06
6.71782e-08
4.26343e-07
6.80757e-06
5.07416e-08
1.27081e-07
5.93491e-06
3.05691e-08
3.03443e-06
9.54312e-09
6.93604e-08
-1.54203e-06
1.6834e-08
2.41136e-07
-3.81143e-06
4.30438e-08
4.77786e-07
-5.34414e-06
6.34105e-08
7.47998e-07
-6.27987e-06
7.8757e-08
1.03018e-06
-6.77386e-06
8.93986e-08
1.31392e-06
-6.99655e-06
9.58996e-08
1.59487e-06
-7.05758e-06
9.89898e-08
1.87023e-06
-7.00538e-06
9.94408e-08
2.13706e-06
-6.85871e-06
9.79023e-08
2.39183e-06
-6.62417e-06
9.48205e-08
2.63054e-06
-6.30313e-06
9.04145e-08
2.84907e-06
-5.89585e-06
8.47924e-08
3.0436e-06
-5.40504e-06
7.80987e-08
3.21091e-06
-4.83765e-06
7.04964e-08
3.34854e-06
-4.20488e-06
6.21667e-08
3.45466e-06
-3.52108e-06
5.33288e-08
3.52804e-06
-2.80231e-06
4.42449e-08
3.56795e-06
-2.06505e-06
3.52213e-08
3.57421e-06
-1.32502e-06
2.65568e-08
3.54732e-06
-5.96203e-07
1.86065e-08
3.4885e-06
1.09527e-07
1.18285e-08
3.39987e-06
7.82839e-07
6.71965e-09
3.28391e-06
1.41879e-06
3.77845e-09
3.14275e-06
2.01895e-06
3.43758e-09
2.97695e-06
2.59249e-06
6.13568e-09
2.78418e-06
3.15658e-06
1.23098e-08
2.55862e-06
3.73608e-06
2.20152e-08
2.29152e-06
4.36082e-06
3.45551e-08
1.97442e-06
5.056e-06
4.79985e-08
1.60572e-06
5.8169e-06
5.89424e-08
1.19926e-06
6.56191e-06
6.33681e-08
7.87301e-07
7.08804e-06
5.86719e-08
4.08335e-07
7.14089e-06
4.57832e-08
1.20629e-07
6.1951e-06
2.7968e-08
3.14747e-06
8.62875e-09
6.77498e-08
-1.62705e-06
1.71677e-08
2.34706e-07
-4.02239e-06
4.39273e-08
4.6371e-07
-5.63772e-06
6.45197e-08
7.23842e-07
-6.61998e-06
7.99285e-08
9.94229e-07
-7.13496e-06
9.06493e-08
1.26509e-06
-7.36478e-06
9.73104e-08
1.53238e-06
-7.42559e-06
1.00657e-07
1.79343e-06
-7.36797e-06
1.0148e-07
2.04537e-06
-7.21115e-06
1.00435e-07
2.28485e-06
-6.96168e-06
9.79733e-08
2.50817e-06
-6.62084e-06
9.43207e-08
2.71174e-06
-6.18907e-06
8.95871e-08
2.89241e-06
-5.66965e-06
8.3893e-08
3.04769e-06
-5.07035e-06
7.7352e-08
3.17585e-06
-4.40317e-06
7.00777e-08
3.27567e-06
-3.68315e-06
6.21923e-08
3.34635e-06
-2.92689e-06
5.38501e-08
3.38732e-06
-2.15133e-06
4.52498e-08
3.39832e-06
-1.37269e-06
3.66061e-08
3.37943e-06
-6.05576e-07
2.8203e-08
3.33122e-06
1.37227e-07
2.04381e-08
3.25487e-06
8.45344e-07
1.37737e-08
3.15194e-06
1.51293e-06
8.71409e-09
3.02363e-06
2.1414e-06
5.77703e-09
2.86983e-06
2.74074e-06
5.45046e-09
2.68808e-06
3.33003e-06
8.21285e-09
2.47278e-06
3.93683e-06
1.44504e-08
2.21581e-06
4.59368e-06
2.40244e-08
1.90943e-06
5.32659e-06
3.56777e-08
1.55269e-06
6.12697e-06
4.65737e-08
1.15946e-06
6.90226e-06
5.27881e-08
7.60938e-07
7.43544e-06
5.10794e-08
3.94132e-07
7.4666e-06
4.11905e-08
1.16118e-07
6.44787e-06
2.56411e-08
3.25667e-06
7.92564e-09
6.76624e-08
-1.71191e-06
1.71318e-08
2.33103e-07
-4.23166e-06
4.37413e-08
4.58202e-07
-5.92696e-06
6.4059e-08
7.11755e-07
-6.95276e-06
7.91528e-08
9.7346e-07
-7.48635e-06
8.96256e-08
1.23429e-06
-7.72185e-06
9.61779e-08
1.49057e-06
-7.78153e-06
9.95923e-08
1.73978e-06
-7.71789e-06
1.0066e-07
1.97913e-06
-7.55057e-06
1.00016e-07
2.20542e-06
-7.28611e-06
9.80866e-08
2.41527e-06
-6.92583e-06
9.50938e-08
2.60551e-06
-6.47052e-06
9.11453e-08
2.77356e-06
-5.9241e-06
8.63428e-08
2.91754e-06
-5.29515e-06
8.07712e-08
3.03623e-06
-4.59642e-06
7.44991e-08
3.12886e-06
-3.84343e-06
6.75921e-08
3.19489e-06
-3.05311e-06
6.01366e-08
3.2339e-06
-2.24265e-06
5.22553e-08
3.24556e-06
-1.4285e-06
4.40946e-08
3.22973e-06
-6.25677e-07
3.58667e-08
3.18659e-06
1.52409e-07
2.78899e-08
3.11684e-06
8.94467e-07
2.05577e-08
3.02145e-06
1.59392e-06
1.43241e-08
2.90105e-06
2.25202e-06
9.69207e-09
2.75507e-06
2.87944e-06
7.19272e-09
2.58084e-06
3.49682e-06
7.35381e-09
2.37299e-06
4.13391e-06
1.06672e-08
2.12404e-06
4.82518e-06
1.73463e-08
1.82717e-06
5.59662e-06
2.67146e-08
1.48237e-06
6.43507e-06
3.65779e-08
1.10387e-06
7.23725e-06
4.33839e-08
7.21811e-07
7.77377e-06
4.36503e-08
3.71445e-07
7.78078e-06
3.62245e-08
1.08252e-07
6.68856e-06
2.28666e-08
3.35886e-06
7.00757e-09
6.68008e-08
-1.79636e-06
1.75679e-08
2.2901e-07
-4.43856e-06
4.46162e-08
4.48069e-07
-6.21108e-06
6.49884e-08
6.92846e-07
-7.27755e-06
7.99481e-08
9.43842e-07
-7.82768e-06
9.02713e-08
1.19286e-06
-8.06767e-06
9.67375e-08
1.43667e-06
-8.12556e-06
1.00163e-07
1.67289e-06
-8.05553e-06
1.01363e-07
1.89886e-06
-7.87758e-06
1.00978e-07
2.11157e-06
-7.59832e-06
9.94383e-08
2.30794e-06
-7.21923e-06
9.69713e-08
2.48528e-06
-6.7416e-06
9.36905e-08
2.64157e-06
-6.17012e-06
8.96854e-08
2.7755e-06
-5.51416e-06
8.50167e-08
2.88639e-06
-4.78707e-06
7.97122e-08
2.97386e-06
-4.00473e-06
7.37826e-08
3.03763e-06
-3.18418e-06
6.72457e-08
3.07733e-06
-2.34256e-06
6.01495e-08
3.09251e-06
-1.49631e-06
5.25726e-08
3.08268e-06
-6.60568e-07
4.4663e-08
3.04748e-06
1.50867e-07
3.6674e-08
2.9869e-06
9.26035e-07
2.89452e-08
2.90117e-06
1.65768e-06
2.18894e-08
2.79028e-06
2.34686e-06
1.59798e-08
2.6531e-06
3.00478e-06
1.17434e-08
2.48672e-06
3.65336e-06
9.74787e-09
2.28593e-06
4.32403e-06
1.05478e-08
2.04395e-06
5.05253e-06
1.45181e-08
1.75513e-06
5.86391e-06
2.13876e-08
1.4207e-06
6.73979e-06
2.95605e-08
1.05555e-06
7.56623e-06
3.5996e-08
6.88732e-07
8.10318e-06
3.72739e-08
3.53364e-07
8.08449e-06
3.16601e-08
1.0261e-07
6.91941e-06
2.02162e-08
3.45624e-06
6.1464e-09
6.68134e-08
-1.88081e-06
1.75459e-08
2.27359e-07
-4.64334e-06
4.41795e-08
4.42078e-07
-6.48981e-06
6.39602e-08
6.79841e-07
-7.59372e-06
7.83527e-08
9.219e-07
-8.15807e-06
8.82707e-08
1.16084e-06
-8.40121e-06
9.4543e-08
1.39378e-06
-8.45654e-06
9.7979e-08
1.61851e-06
-8.37968e-06
9.93614e-08
1.83249e-06
-8.19092e-06
9.92986e-08
2.03289e-06
-7.89697e-06
9.81982e-08
2.21693e-06
-7.49963e-06
9.62882e-08
2.38235e-06
-7.00076e-06
9.36864e-08
2.52757e-06
-6.40588e-06
9.04756e-08
2.65179e-06
-5.72514e-06
8.67027e-08
2.75473e-06
-4.97244e-06
8.23751e-08
2.83635e-06
-4.16387e-06
7.74713e-08
2.89658e-06
-3.31642e-06
7.19624e-08
2.93515e-06
-2.44701e-06
6.58358e-08
2.95153e-06
-1.57184e-06
5.91048e-08
2.945e-06
-7.05942e-07
5.18455e-08
2.91482e-06
1.36754e-07
4.42339e-08
2.86046e-06
9.43779e-07
3.65431e-08
2.78162e-06
1.70732e-06
2.91361e-08
2.6777e-06
2.42824e-06
2.24521e-08
2.5472e-06
3.11818e-06
1.69977e-08
2.38699e-06
3.80012e-06
1.33452e-08
2.19202e-06
4.50679e-06
1.20954e-08
1.95617e-06
5.27452e-06
1.37276e-08
1.67499e-06
6.1267e-06
1.82286e-08
1.35106e-06
7.03905e-06
2.44857e-08
1.00004e-06
7.88706e-06
2.99956e-08
6.4983e-07
8.42162e-06
3.16007e-08
3.31385e-07
8.37563e-06
2.727e-08
9.53911e-08
7.13816e-06
1.75099e-08
3.54725e-06
5.24087e-09
6.5724e-08
-1.96452e-06
1.7889e-08
2.22759e-07
-4.84514e-06
4.46914e-08
4.31369e-07
-6.76279e-06
6.42998e-08
6.60606e-07
-7.90139e-06
7.83788e-08
8.92561e-07
-8.47808e-06
8.79928e-08
1.12058e-06
-8.72333e-06
9.40455e-08
1.34216e-06
-8.77556e-06
9.73835e-08
1.55521e-06
-8.6916e-06
9.88047e-08
1.75732e-06
-8.492e-06
9.89147e-08
1.94584e-06
-8.18367e-06
9.81153e-08
2.11832e-06
-7.7688e-06
9.66361e-08
2.27289e-06
-7.24997e-06
9.45961e-08
2.40844e-06
-6.63356e-06
9.20702e-08
2.52463e-06
-5.93047e-06
8.90892e-08
2.62155e-06
-5.15504e-06
8.56383e-08
2.69945e-06
-4.32349e-06
8.16647e-08
2.75844e-06
-3.45257e-06
7.70987e-08
2.79828e-06
-2.55877e-06
7.1877e-08
2.81828e-06
-1.65785e-06
6.59583e-08
2.81738e-06
-7.64463e-07
5.93578e-08
2.79434e-06
1.07553e-07
5.21841e-08
2.74796e-06
9.4545e-07
4.46484e-08
2.67723e-06
1.7409e-06
3.70654e-08
2.581e-06
2.49456e-06
2.98386e-08
2.4573e-06
3.21834e-06
2.34469e-08
2.30287e-06
3.93601e-06
1.84441e-08
2.11288e-06
4.6812e-06
1.54414e-08
1.88197e-06
5.49029e-06
1.4988e-08
1.60696e-06
6.38427e-06
1.72498e-08
1.29189e-06
7.33241e-06
2.14834e-08
9.5325e-07
8.19977e-06
2.56857e-08
6.17761e-07
8.72983e-06
2.70675e-08
3.14098e-07
8.65569e-06
2.35227e-08
9.01884e-08
7.34716e-06
1.51375e-08
3.63379e-06
4.47572e-09
6.54597e-08
-2.04793e-06
1.78598e-08
2.20108e-07
-5.04397e-06
4.41003e-08
4.23642e-07
-7.02934e-06
6.29459e-08
6.45421e-07
-8.19955e-06
7.63178e-08
8.68387e-07
-8.78654e-06
8.54379e-08
1.08659e-06
-9.03284e-06
9.12459e-08
1.29783e-06
-9.08142e-06
9.45555e-08
1.50016e-06
-8.99009e-06
9.61165e-08
1.69129e-06
-8.77968e-06
9.64959e-08
1.86878e-06
-8.45729e-06
9.60759e-08
2.03047e-06
-8.02563e-06
9.50864e-08
2.17482e-06
-7.48803e-06
9.36503e-08
2.30112e-06
-6.85175e-06
9.18396e-08
2.40935e-06
-6.12843e-06
8.9679e-08
2.49996e-06
-5.33284e-06
8.71411e-08
2.57346e-06
-4.48119e-06
8.41551e-08
2.63014e-06
-3.58992e-06
8.06207e-08
2.66984e-06
-2.67495e-06
7.64303e-08
2.69181e-06
-1.75136e-06
7.14879e-08
2.69479e-06
-8.33232e-07
6.57436e-08
2.67709e-06
6.59615e-08
5.92332e-08
2.63699e-06
9.33386e-07
5.20995e-08
2.57288e-06
1.76034e-06
4.46039e-08
2.48304e-06
2.54721e-06
3.7115e-08
2.36511e-06
3.30609e-06
3.00881e-08
2.21566e-06
4.06129e-06
2.4057e-08
2.03012e-06
4.84698e-06
1.9625e-08
1.80384e-06
5.69902e-06
1.73785e-08
1.53492e-06
6.63538e-06
1.76162e-08
1.22883e-06
7.61837e-06
1.98832e-08
9.0287e-07
8.50285e-06
2.26124e-08
5.82582e-07
9.02645e-06
2.34218e-08
2.94536e-07
8.92332e-06
2.02891e-08
8.39515e-08
7.54491e-06
1.30216e-08
3.71472e-06
3.80356e-09
6.41404e-08
-2.13024e-06
1.80871e-08
2.151e-07
-5.23921e-06
4.42048e-08
4.12666e-07
-7.2896e-06
6.26304e-08
6.26513e-07
-8.48897e-06
7.55102e-08
8.40377e-07
-9.08467e-06
8.42112e-08
1.04894e-06
-9.33119e-06
8.97354e-08
1.25025e-06
-9.3757e-06
9.29166e-08
1.44246e-06
-9.27686e-06
9.44995e-08
1.62339e-06
-9.0557e-06
9.50339e-08
1.7908e-06
-8.71964e-06
9.48893e-08
1.94278e-06
-8.27195e-06
9.42921e-08
2.07814e-06
-7.71681e-06
9.33642e-08
2.19651e-06
-7.06234e-06
9.21711e-08
2.2982e-06
-6.3209e-06
9.07291e-08
2.38394e-06
-5.50763e-06
8.89997e-08
2.45451e-06
-4.6387e-06
8.68958e-08
2.51036e-06
-3.73012e-06
8.4295e-08
2.55139e-06
-2.79708e-06
8.10579e-08
2.57673e-06
-1.8538e-06
7.70454e-08
2.58484e-06
-9.13543e-07
7.21522e-08
2.57365e-06
1.07504e-08
6.63465e-08
2.54062e-06
9.06658e-07
5.97006e-08
2.48354e-06
1.76493e-06
5.24164e-08
2.40011e-06
2.58574e-06
4.48207e-08
2.28758e-06
3.38117e-06
3.73412e-08
2.14243e-06
4.17584e-06
3.04904e-08
1.96039e-06
5.00402e-06
2.48536e-08
1.73763e-06
5.90057e-06
2.10284e-08
1.47353e-06
6.87985e-06
1.94074e-08
1.17501e-06
7.89685e-06
1.97713e-08
8.60111e-07
8.7965e-06
2.09306e-08
5.53193e-07
9.31217e-06
2.0906e-08
2.78751e-07
9.17974e-06
1.78562e-08
7.92423e-08
7.73316e-06
1.14127e-08
3.79138e-06
3.34026e-09
6.37158e-08
-2.21205e-06
1.80139e-08
2.12092e-07
-5.43107e-06
4.34221e-08
4.04584e-07
-7.5431e-06
6.09497e-08
6.11312e-07
-8.76878e-06
7.30235e-08
8.16851e-07
-9.37144e-06
8.11704e-08
1.01649e-06
-9.6173e-06
8.6412e-08
1.20852e-06
-9.65732e-06
8.95329e-08
1.3912e-06
-9.55082e-06
9.12215e-08
1.56251e-06
-9.31905e-06
9.19873e-08
1.72037e-06
-8.96974e-06
9.21797e-08
1.86312e-06
-8.50678e-06
9.20229e-08
1.98981e-06
-7.93518e-06
9.16409e-08
2.10032e-06
-7.264e-06
9.10963e-08
2.19525e-06
-6.50627e-06
9.04021e-08
2.27558e-06
-5.67752e-06
8.95148e-08
2.34233e-06
-4.79384e-06
8.83381e-08
2.39618e-06
-3.87075e-06
8.67322e-08
2.43715e-06
-2.92263e-06
8.4529e-08
2.46441e-06
-1.96265e-06
8.15496e-08
2.47623e-06
-1.00304e-06
7.76344e-08
2.47001e-06
-5.57689e-08
7.26836e-08
2.44298e-06
8.66929e-07
6.66962e-08
2.39212e-06
1.75591e-06
5.9809e-08
2.31452e-06
2.61095e-06
5.23028e-08
2.20704e-06
3.44398e-06
4.45782e-08
2.06602e-06
4.27961e-06
3.71299e-08
1.88748e-06
5.15188e-06
3.05281e-08
1.66837e-06
6.09411e-06
2.53689e-08
1.40933e-06
7.11654e-06
2.21058e-08
1.11864e-06
8.16653e-06
2.07068e-08
8.15047e-07
9.07944e-06
2.0309e-08
5.21738e-07
9.58585e-06
1.9312e-08
2.61367e-07
9.42382e-06
1.61084e-08
7.37524e-08
7.91066e-06
1.02393e-08
3.86283e-06
3.04326e-09
6.2339e-08
-2.29259e-06
1.81091e-08
2.07131e-07
-5.61904e-06
4.31068e-08
3.94125e-07
-7.79014e-06
5.99826e-08
5.93807e-07
-9.03993e-06
7.14084e-08
7.91448e-07
-9.64819e-06
7.90497e-08
9.82826e-07
-9.8927e-06
8.39694e-08
1.16641e-06
-9.92791e-06
8.69484e-08
1.34055e-06
-9.81367e-06
8.86508e-08
1.50329e-06
-9.57141e-06
8.95594e-08
1.65274e-06
-9.20925e-06
9.00064e-08
1.78742e-06
-8.73172e-06
9.02101e-08
1.90661e-06
-8.14471e-06
9.02918e-08
2.01042e-06
-7.45817e-06
9.03084e-08
2.09968e-06
-6.68585e-06
9.02676e-08
2.17561e-06
-5.84361e-06
9.01224e-08
2.23946e-06
-4.9475e-06
8.97719e-08
2.29211e-06
-4.01251e-06
8.90675e-08
2.3337e-06
-3.05209e-06
8.7824e-08
2.3634e-06
-2.07823e-06
8.58328e-08
2.3793e-06
-1.10188e-06
8.2888e-08
2.37853e-06
-1.33873e-07
7.88259e-08
2.35755e-06
8.1428e-07
7.35695e-08
2.31275e-06
1.73347e-06
6.71832e-08
2.24062e-06
2.62311e-06
5.98928e-08
2.13764e-06
3.4948e-06
5.20656e-08
2.00008e-06
4.37287e-06
4.4178e-08
1.82431e-06
5.29071e-06
3.67877e-08
1.60807e-06
6.27965e-06
3.04862e-08
1.35323e-06
7.34534e-06
2.57662e-08
1.06939e-06
8.4273e-06
2.27404e-08
7.7589e-07
9.35175e-06
2.08234e-08
4.94735e-07
9.8479e-06
1.87613e-08
2.46829e-07
9.6563e-06
1.52024e-08
6.93818e-08
8.07856e-06
9.64794e-09
3.92995e-06
2.98612e-09
6.18807e-08
-2.37251e-06
1.795e-08
2.04183e-07
-5.80349e-06
4.20715e-08
3.86518e-07
-8.03047e-06
5.79269e-08
5.79838e-07
-9.30178e-06
6.84712e-08
7.70156e-07
-9.91407e-06
7.5516e-08
9.53754e-07
-1.01565e-05
8.01234e-08
1.12931e-06
-1.01865e-05
8.30123e-08
1.29527e-06
-1.00645e-05
8.4787e-08
1.44981e-06
-9.8119e-06
8.58896e-08
1.59117e-06
-9.43728e-06
8.66314e-08
1.71801e-06
-8.94584e-06
8.72264e-08
1.82977e-06
-8.34432e-06
8.77964e-08
1.92674e-06
-7.64357e-06
8.83945e-08
2.00992e-06
-6.8581e-06
8.90263e-08
2.08075e-06
-6.00413e-06
8.9643e-08
2.14073e-06
-5.09766e-06
9.01412e-08
2.19097e-06
-4.15315e-06
9.03665e-08
2.23184e-06
-3.18312e-06
9.01204e-08
2.26261e-06
-2.19822e-06
8.91698e-08
2.28135e-06
-1.20793e-06
8.72678e-08
2.28488e-06
-2.2165e-07
8.41903e-08
2.26919e-06
7.50135e-07
7.9785e-08
2.22997e-06
1.69859e-06
7.4039e-08
2.16311e-06
2.62278e-06
6.71164e-08
2.06465e-06
3.53381e-06
5.93463e-08
1.93077e-06
4.45544e-06
5.11865e-08
1.75814e-06
5.41998e-06
4.31885e-08
1.54529e-06
6.45632e-06
3.59496e-08
1.29523e-06
7.56512e-06
2.9995e-08
1.01873e-06
8.6779e-06
2.55438e-08
7.35608e-07
9.61225e-06
2.22223e-08
4.66751e-07
1.00973e-05
1.9087e-08
2.31495e-07
9.87628e-06
1.50489e-08
6.45759e-08
8.23597e-06
9.6096e-09
3.99208e-06
3.16649e-09
6.05678e-08
-2.45106e-06
1.78946e-08
1.99589e-07
-5.98391e-06
4.13295e-08
3.77075e-07
-8.26435e-06
5.6326e-08
5.64336e-07
-9.5552e-06
6.60933e-08
7.47952e-07
-1.01703e-05
7.25692e-08
9.24571e-07
-1.041e-05
7.683e-08
1.09302e-06
-1.04346e-05
7.95659e-08
1.25183e-06
-1.03047e-05
8.13423e-08
1.39928e-06
-1.0042e-05
8.2569e-08
1.53368e-06
-9.65526e-06
8.35374e-08
1.6538e-06
-9.15046e-06
8.44545e-08
1.75921e-06
-8.53521e-06
8.54391e-08
1.85033e-06
-7.82128e-06
8.65395e-08
1.92835e-06
-7.02391e-06
8.77582e-08
1.99486e-06
-6.15973e-06
8.90462e-08
2.05157e-06
-5.24471e-06
9.03009e-08
2.09981e-06
-4.2928e-06
9.1368e-08
2.14015e-06
-3.31554e-06
9.20443e-08
2.17198e-06
-2.32218e-06
9.20816e-08
2.19335e-06
-1.32054e-06
9.12013e-08
2.20089e-06
-3.18362e-07
8.91256e-08
2.19008e-06
6.75264e-07
8.5628e-08
2.15598e-06
1.65201e-06
8.06119e-08
2.09388e-06
2.61064e-06
7.41686e-08
1.99941e-06
3.5616e-06
6.6578e-08
1.8687e-06
4.52776e-06
5.82743e-08
1.69875e-06
5.53995e-06
4.98029e-08
1.4889e-06
6.62418e-06
4.17698e-08
1.24323e-06
7.77576e-06
3.47375e-08
9.73568e-07
8.91817e-06
2.9029e-08
7.00032e-07
9.86092e-06
2.44557e-08
4.42361e-07
1.03343e-05
2.02977e-08
2.18467e-07
1.00842e-05
1.56985e-08
6.06905e-08
8.38366e-06
1.01792e-08
4.04985e-06
3.64027e-09
6.01376e-08
-2.52889e-06
1.76107e-08
1.96893e-07
-6.16072e-06
3.99737e-08
3.70285e-07
-8.49163e-06
5.38226e-08
5.52091e-07
-9.7997e-06
6.26421e-08
7.29474e-07
-1.04162e-05
6.84926e-08
8.99434e-07
-1.06524e-05
7.24214e-08
1.06103e-06
-1.06713e-05
7.50429e-08
1.21296e-06
-1.05335e-05
7.68596e-08
1.35358e-06
-1.02609e-05
7.82412e-08
1.48123e-06
-9.86241e-06
7.94573e-08
1.59474e-06
-9.34473e-06
8.071e-08
1.69377e-06
-8.7164e-06
8.2118e-08
1.77885e-06
-7.99013e-06
8.37265e-08
1.85129e-06
-7.18192e-06
8.5536e-08
1.91285e-06
-6.30884e-06
8.74972e-08
1.96544e-06
-5.38684e-06
8.95088e-08
2.01064e-06
-4.42945e-06
9.1418e-08
2.04925e-06
-3.44721e-06
9.30203e-08
2.08093e-06
-2.44795e-06
9.40589e-08
2.1038e-06
-1.43769e-06
9.42317e-08
2.1144e-06
-4.22221e-07
9.32151e-08
2.10781e-06
5.91082e-07
9.07125e-08
2.07849e-06
1.59473e-06
8.65406e-08
2.02108e-06
2.58727e-06
8.07093e-08
1.93076e-06
3.57838e-06
7.34405e-08
1.80354e-06
4.58971e-06
6.51385e-08
1.63676e-06
5.65022e-06
5.63429e-08
1.43048e-06
6.78256e-06
4.76721e-08
1.18981e-06
7.9764e-06
3.97261e-08
9.27476e-07
9.14721e-06
3.29187e-08
6.63774e-07
1.0097e-05
2.7215e-08
4.17381e-07
1.05582e-05
2.20809e-08
2.04912e-07
1.02796e-05
1.68339e-08
5.65017e-08
8.52115e-06
1.10268e-08
4.10292e-06
4.17299e-09
5.89351e-08
-2.60529e-06
1.73732e-08
1.92726e-07
-6.33334e-06
3.87672e-08
3.61863e-07
-8.7124e-06
5.15691e-08
5.38542e-07
-1.00359e-05
5.95098e-08
7.10385e-07
-1.06529e-05
6.47514e-08
8.74739e-07