/*--------------------------------*- C++ -*----------------------------------*\
| =========                 |                                                 |
| \\      /  F ield         | OpenFOAM: The Open Source CFD Toolbox           |
|  \\    /   O peration     | Version:  v2006                                 |
|   \\  /    A nd           | Website:  www.openfoam.com                      |
|    \\/     M anipulation  |                                                 |
\*---------------------------------------------------------------------------*/
FoamFile
{
    version     2.0;
    format      ascii;
    class       volVectorField;
    location    "65";
    object      U;
}
// * * * * * * * * * * * * * * * * * * * * * * * * * * * * * * * * * * * * * //

dimensions      [0 1 -1 0 0 0 0];


internalField   nonuniform List<vector> 
78750
(
(6.21253e-05 -0.00110301 0.000482493)
(0.000531482 -0.0024527 0.00137018)
(0.00137677 -0.00331356 0.00211127)
(0.00243588 -0.00389344 0.00270207)
(0.0036329 -0.00429755 0.00315933)
(0.00492573 -0.00457935 0.00350513)
(0.00628278 -0.00476576 0.00376044)
(0.00767539 -0.00486974 0.00394302)
(0.00907653 -0.00489725 0.00406708)
(0.0104608 -0.00485129 0.0041435)
(0.0118045 -0.00473392 0.0041803)
(0.0130856 -0.00454646 0.0041831)
(0.0142832 -0.00428541 0.00415706)
(0.015379 -0.00395381 0.00410536)
(0.0163555 -0.00355663 0.00403037)
(0.0171971 -0.00309978 0.00393398)
(0.0178902 -0.00258967 0.00381777)
(0.018423 -0.00203327 0.00368322)
(0.0187857 -0.00143811 0.00353177)
(0.0189706 -0.000812269 0.0033651)
(0.0189733 -0.000164672 0.00318518)
(0.018789 0.000494563 0.00299412)
(0.018413 0.00115437 0.00279472)
(0.017845 0.00180321 0.00259093)
(0.0170907 0.00242787 0.002388)
(0.0161594 0.00301274 0.00219301)
(0.0150643 0.00353952 0.0020153)
(0.0138225 0.00398585 0.00186636)
(0.0124543 0.00433176 0.00175944)
(0.0109789 0.00459826 0.0017077)
(0.00939089 0.00491981 0.0017084)
(0.00761496 0.00561801 0.00170712)
(0.00549356 0.00698417 0.00156227)
(0.0030405 0.00826156 0.00110756)
(0.00074522 0.00610267 0.000374567)
(1.60035e-05 -0.00313541 0.00074055)
(0.000435138 -0.00747748 0.00193796)
(0.00118042 -0.0105031 0.00280545)
(0.002187 -0.0127095 0.00341837)
(0.00338736 -0.014347 0.00385061)
(0.00472304 -0.0155312 0.00415719)
(0.00614031 -0.0163185 0.00437657)
(0.00759418 -0.0167451 0.00453529)
(0.00904772 -0.0168402 0.00465098)
(0.0104705 -0.0166302 0.00473456)
(0.0118372 -0.0161409 0.00479113)
(0.0131167 -0.0154048 0.00481766)
(0.0142947 -0.0144484 0.00481706)
(0.0153611 -0.0132883 0.0047957)
(0.0162952 -0.0119444 0.00475421)
(0.0170837 -0.0104359 0.00469279)
(0.017716 -0.00878194 0.00461127)
(0.0181823 -0.00700155 0.00450908)
(0.0184743 -0.00511404 0.00438533)
(0.0185847 -0.00313935 0.00423843)
(0.0185073 -0.00109842 0.00406651)
(0.0182411 0.000985843 0.00386743)
(0.0177886 0.00308741 0.00363892)
(0.0171525 0.00517666 0.00337945)
(0.0163359 0.00721954 0.00308967)
(0.015343 0.00917692 0.00277399)
(0.014183 0.0110049 0.00244182)
(0.0128738 0.0126708 0.00211016)
(0.0114185 0.0141958 0.00180735)
(0.00981354 0.015702 0.00156722)
(0.00805077 0.0175007 0.00141548)
(0.00608499 0.0200625 0.00134194)
(0.00395568 0.0232273 0.00124493)
(0.00188288 0.0243892 0.000950999)
(0.00022426 0.0160419 0.000382453)
(1.85443e-05 -0.00471353 0.000904985)
(0.000447186 -0.0119611 0.00225544)
(0.00121432 -0.017443 0.00315857)
(0.00224144 -0.0215352 0.00373986)
(0.00342781 -0.024464 0.00410626)
(0.00469601 -0.0264296 0.00433765)
(0.00599206 -0.0276005 0.00448747)
(0.00727873 -0.0281068 0.00458838)
(0.00852891 -0.028046 0.00465885)
(0.00972027 -0.0274985 0.00470594)
(0.0108399 -0.0265259 0.00473623)
(0.0118757 -0.025175 0.00475465)
(0.0128129 -0.0234901 0.00476198)
(0.0136405 -0.0215066 0.00475907)
(0.0143494 -0.0192549 0.00474706)
(0.0149316 -0.0167643 0.00472642)
(0.0153792 -0.014063 0.00469746)
(0.0156856 -0.011179 0.00466031)
(0.0158451 -0.00814043 0.00461439)
(0.0158532 -0.00497664 0.00455801)
(0.0157058 -0.00172053 0.0044875)
(0.0154013 0.0015866 0.00439585)
(0.0149403 0.00490647 0.00427629)
(0.0143219 0.0082127 0.00412419)
(0.0135476 0.0114688 0.00393165)
(0.0126244 0.0146219 0.00368865)
(0.0115622 0.0176199 0.00339001)
(0.0103733 0.0204375 0.0030414)
(0.00906974 0.0231186 0.00266244)
(0.00765369 0.0258351 0.00228395)
(0.00610731 0.0289156 0.00194021)
(0.00441076 0.0325629 0.00164636)
(0.00272419 0.0357775 0.00136205)
(0.00119904 0.0350496 0.000970315)
(0.000106627 0.0211135 0.000390789)
(2.83098e-05 -0.00670707 0.000956158)
(0.000498471 -0.0171728 0.00223111)
(0.00128725 -0.0249788 0.002994)
(0.00228986 -0.0305097 0.00343775)
(0.00338504 -0.0341224 0.00369289)
(0.00449667 -0.0362652 0.00384171)
(0.00558991 -0.037328 0.00393262)
(0.00664293 -0.0375717 0.00399137)
(0.00764831 -0.0371581 0.00403165)
(0.00859849 -0.0361824 0.00406004)
(0.00947965 -0.0347163 0.00407642)
(0.0102863 -0.0328155 0.00408155)
(0.0110124 -0.0305266 0.00407572)
(0.0116493 -0.0278967 0.00405681)
(0.0121901 -0.0249603 0.00402667)
(0.012628 -0.0217413 0.00398996)
(0.0129545 -0.0182718 0.00394957)
(0.0131636 -0.0145844 0.00390865)
(0.0132514 -0.0107115 0.00387025)
(0.0132148 -0.00668488 0.00383698)
(0.0130514 -0.00253574 0.00381002)
(0.0127589 0.00170301 0.00378806)
(0.012336 0.00599312 0.00376629)
(0.0117818 0.0102867 0.00373516)
(0.0110971 0.0145221 0.00367984)
(0.0102867 0.0186273 0.00358194)
(0.00935999 0.0225399 0.00342473)
(0.00832938 0.026248 0.00320003)
(0.00720572 0.0298443 0.00291302)
(0.00599036 0.0335639 0.00258142)
(0.00467146 0.037696 0.00222903)
(0.00325743 0.0420669 0.0018737)
(0.00194057 0.044988 0.00150993)
(0.000807071 0.042515 0.00105841)
(4.59929e-05 0.0242934 0.000432326)
(2.99635e-05 -0.00871628 0.000905682)
(0.00047094 -0.0221441 0.00202073)
(0.00117857 -0.0318533 0.00263802)
(0.00205113 -0.0383818 0.0029773)
(0.00297618 -0.0423428 0.00316409)
(0.00389448 -0.0444867 0.00326782)
(0.00478609 -0.0454009 0.00332667)
(0.00564998 -0.0454279 0.00336233)
(0.00648252 -0.0447403 0.00337983)
(0.00727208 -0.0434378 0.00338175)
(0.0080115 -0.0416008 0.00336875)
(0.00869347 -0.0392944 0.00334178)
(0.00931344 -0.0365541 0.00330351)
(0.00986154 -0.0333996 0.00325874)
(0.0103235 -0.0298647 0.00321086)
(0.0106879 -0.0259889 0.00316504)
(0.0109468 -0.0218167 0.00312747)
(0.0110948 -0.0173957 0.00310471)
(0.01113 -0.0127726 0.00310335)
(0.0110531 -0.00798922 0.00312889)
(0.0108669 -0.00308066 0.00318448)
(0.0105755 0.00192256 0.00326913)
(0.0101831 0.0069879 0.00337529)
(0.00969362 0.012071 0.00348676)
(0.00910987 0.0171075 0.00357821)
(0.00843437 0.0220158 0.00361857)
(0.00767 0.0267251 0.00357893)
(0.00681991 0.0312306 0.0034422)
(0.00588501 0.0356512 0.00320815)
(0.00486072 0.0402269 0.00289128)
(0.00374063 0.0451184 0.0025157)
(0.0025639 0.0497669 0.0021104)
(0.00149981 0.0521316 0.00168962)
(0.000603362 0.0479861 0.00118748)
(3.05708e-05 0.0264041 0.000488402)
(3.33109e-05 -0.0105539 0.000715178)
(0.000425654 -0.0265171 0.00156766)
(0.00103451 -0.0377342 0.00203505)
(0.0017716 -0.0449802 0.00229503)
(0.00254125 -0.0491443 0.00243541)
(0.00329802 -0.0512494 0.00250395)
(0.00403272 -0.0520348 0.00252868)
(0.00475449 -0.051885 0.00252638)
(0.00546024 -0.0509658 0.00250209)
(0.00613455 -0.0493875 0.00245754)
(0.00677069 -0.0472347 0.00239453)
(0.00736584 -0.044546 0.00231375)
(0.00791017 -0.0413338 0.00221749)
(0.00838609 -0.0376302 0.00210922)
(0.0087808 -0.0334806 0.00199416)
(0.00908401 -0.0289453 0.00187947)
(0.00928833 -0.0240964 0.00177453)
(0.00938998 -0.0190112 0.00169087)
(0.00938886 -0.0137636 0.00164167)
(0.00928803 -0.00841581 0.00164108)
(0.009093 -0.00301446 0.00170254)
(0.00881099 0.00240961 0.00183566)
(0.00845023 0.00783566 0.00204147)
(0.00801872 0.0132442 0.00230701)
(0.00752274 0.0186075 0.00260162)
(0.00696544 0.0238877 0.00287852)
(0.00634584 0.0290586 0.00308476)
(0.00565874 0.0341554 0.00317618)
(0.00489509 0.0393187 0.00312859)
(0.00404366 0.0447521 0.00293982)
(0.00309898 0.0504318 0.00262847)
(0.00211628 0.0554191 0.00223398)
(0.00123481 0.0574369 0.00178731)
(0.000492712 0.0520148 0.00123951)
(2.86323e-05 0.0279451 0.000484551)
(2.66516e-05 -0.0121133 0.000594451)
(0.000349019 -0.0301676 0.00133341)
(0.000850762 -0.0426041 0.0017748)
(0.00146476 -0.0504314 0.00204453)
(0.00210992 -0.0547769 0.00220062)
(0.00274822 -0.0568808 0.00228183)
(0.00337498 -0.0575895 0.0023152)
(0.00399812 -0.0573127 0.00231749)
(0.0046123 -0.0562216 0.00229712)
(0.00520037 -0.0544298 0.00225669)
(0.00576148 -0.0519931 0.00219585)
(0.00628991 -0.048921 0.00211496)
(0.0067692 -0.0452345 0.00201576)
(0.00718685 -0.0409702 0.00190053)
(0.00753184 -0.0361888 0.00177241)
(0.00779527 -0.0309757 0.00163577)
(0.00797145 -0.0254327 0.00149672)
(0.00805821 -0.0196655 0.00136378)
(0.0080567 -0.0137733 0.00124855)
(0.00797072 -0.00783903 0.00116601)
(0.00780589 -0.00192555 0.00113391)
(0.00756917 0.0039243 0.00117064)
(0.0072682 0.00968479 0.00129084)
(0.00691016 0.015345 0.00149865)
(0.00650029 0.0209055 0.00178047)
(0.00604013 0.0263784 0.00210092)
(0.00552611 0.0318032 0.00240673)
(0.00494934 0.0372784 0.00263898)
(0.00429718 0.0429749 0.00274708)
(0.00355667 0.0490443 0.00269873)
(0.00272443 0.0552676 0.00248925)
(0.00186656 0.0603909 0.00215137)
(0.00109456 0.0620248 0.00172142)
(0.000439072 0.0554396 0.00116989)
(2.98644e-05 0.0292857 0.000432462)
(2.36432e-05 -0.0134262 0.000471845)
(0.000298074 -0.0332786 0.00109091)
(0.000730739 -0.046823 0.00148772)
(0.00126672 -0.0552445 0.00174336)
(0.0018339 -0.0598366 0.00189452)
(0.00239843 -0.062007 0.00197283)
(0.00295811 -0.0626933 0.00200301)
(0.00351781 -0.0623374 0.00199953)
(0.00406761 -0.0611252 0.0019724)
(0.00459818 -0.0591532 0.00192312)
(0.00510745 -0.0564495 0.00185184)
(0.00558334 -0.0530285 0.00176093)
(0.006015 -0.0489104 0.00165256)
(0.00639164 -0.0441413 0.00152925)
(0.00670356 -0.0388016 0.00139425)
(0.00694319 -0.0330014 0.00125167)
(0.00710564 -0.0268688 0.00110685)
(0.00718892 -0.020536 0.000967149)
(0.00719395 -0.0141252 0.000842613)
(0.00712423 -0.00773672 0.000746221)
(0.00698547 -0.00144427 0.000693683)
(0.00678497 0.00470496 0.000702146)
(0.00653074 0.0106903 0.000787238)
(0.00623011 0.0165184 0.000958295)
(0.00588756 0.0222228 0.00121219)
(0.00550266 0.0278637 0.00152774)
(0.00506877 0.0335401 0.00186421)
(0.00457345 0.0394063 0.00216627)
(0.00400086 0.045658 0.00237359)
(0.00333608 0.052395 0.00243284)
(0.00257478 0.0592201 0.00231547)
(0.00178601 0.0646026 0.00203885)
(0.00106628 0.0660336 0.00163899)
(0.000440648 0.0585474 0.00109964)
(3.752e-05 0.0305903 0.000390967)
(1.85606e-05 -0.0145412 0.000415674)
(0.000256677 -0.0359642 0.00100796)
(0.000641296 -0.0505071 0.00141866)
(0.00112548 -0.0594812 0.00169486)
(0.00164195 -0.0643141 0.00186124)
(0.0021584 -0.0665589 0.00194963)
(0.00267478 -0.067234 0.00198754)
(0.00318998 -0.0668076 0.00198972)
(0.00369618 -0.0654729 0.00196592)
(0.00418708 -0.0633092 0.00191814)
(0.0046554 -0.0603414 0.00184948)
(0.00509308 -0.056576 0.00176183)
(0.00549097 -0.0520328 0.00165624)
(0.00584002 -0.0467665 0.00153341)
(0.00613238 -0.0408724 0.00139414)
(0.00636199 -0.0344797 0.00123985)
(0.00652463 -0.0277372 0.00107357)
(0.00661793 -0.0207995 0.000900862)
(0.00664153 -0.0138121 0.000730894)
(0.00659688 -0.00689836 0.000577121)
(0.00648735 -0.000154855 0.000457247)
(0.00631865 0.00635157 0.000391809)
(0.00609802 0.0125909 0.000400993)
(0.00583224 0.0185791 0.000500138)
(0.00552592 0.0243809 0.000694275)
(0.00517908 0.0301094 0.000972782)
(0.00478539 0.0359304 0.00130598)
(0.00433218 0.0420613 0.00164493)
(0.00380307 0.0487265 0.00192538)
(0.00318227 0.0559768 0.00207848)
(0.00246421 0.0632512 0.00205342)
(0.00172007 0.0687872 0.00184864)
(0.00103375 0.0699851 0.00149586)
(0.000429349 0.0616231 0.000991913)
(3.65912e-05 0.0319244 0.000339576)
(1.67355e-05 -0.0155769 0.000379568)
(0.000235914 -0.0385172 0.000943908)
(0.000594727 -0.054067 0.00134442)
(0.00104911 -0.0636317 0.0016147)
(0.00153452 -0.0687489 0.00177658)
(0.00201972 -0.0711038 0.00186156)
(0.00250476 -0.0717963 0.00189726)
(0.00298851 -0.0713238 0.00189905)
(0.00346305 -0.0698866 0.00187459)
(0.00392144 -0.0675605 0.00182878)
(0.00435734 -0.0643653 0.00176491)
(0.00476331 -0.0603045 0.00168516)
(0.00513137 -0.0554009 0.00159091)
(0.00545406 -0.0497182 0.00148278)
(0.00572528 -0.0433645 0.00136084)
(0.00594053 -0.0364828 0.00122507)
(0.00609674 -0.0292362 0.00107611)
(0.00619212 -0.0217924 0.000916318)
(0.00622624 -0.0143101 0.000750822)
(0.00619994 -0.00692616 0.000588694)
(0.00611583 0.000248629 0.000443801)
(0.00597757 0.00713317 0.000334567)
(0.00579003 0.0136878 0.000282046)
(0.00555869 0.0199292 0.000306124)
(0.00528691 0.0259379 0.000420409)
(0.00497382 0.0318617 0.000626782)
(0.00461275 0.0379161 0.000910245)
(0.00419112 0.0443719 0.0012345)
(0.0036927 0.0514832 0.00154)
(0.00310152 0.0592649 0.00175054)
(0.00241096 0.0670162 0.00179718)
(0.00169326 0.0727622 0.00165752)
(0.0010246 0.0737975 0.00135523)
(0.000428216 0.0646486 0.000895193)
(3.77776e-05 0.0332618 0.000300016)
(1.53998e-05 -0.0165192 0.000362551)
(0.000225583 -0.0408532 0.000922399)
(0.000571781 -0.0573304 0.00132948)
(0.00100993 -0.0674319 0.00160566)
(0.00147633 -0.0727992 0.00177014)
(0.00194074 -0.0752434 0.00185586)
(0.00240386 -0.0759385 0.00189159)
(0.00286472 -0.0754074 0.0018934)
(0.00331537 -0.0738549 0.00186954)
(0.00374905 -0.0713543 0.00182507)
(0.00415973 -0.0679208 0.00176341)
(0.00454069 -0.0635565 0.00168676)
(0.00488503 -0.058288 0.00159617)
(0.00518659 -0.0521881 0.0014916)
(0.00544059 -0.0453766 0.00137226)
(0.00564356 -0.0380087 0.00123723)
(0.00579304 -0.0302598 0.00108637)
(0.0058874 -0.0223103 0.000921271)
(0.00592592 -0.0143322 0.000746267)
(0.00590872 -0.00647681 0.000569305)
(0.00583715 0.00112899 0.000402589)
(0.00571401 0.00838801 0.000262474)
(0.00554336 0.0152509 0.000168266)
(0.00532956 0.0217368 0.000139716)
(0.00507543 0.0279436 0.000193352)
(0.00478007 0.0340514 0.000338131)
(0.00443708 0.0403204 0.000570153)
(0.00403444 0.0470665 0.000865731)
(0.00355661 0.0545657 0.00117445)
(0.00298799 0.0627938 0.00142023)
(0.00232171 0.0709192 0.00152304)
(0.0016316 0.0767836 0.0014427)
(0.000985762 0.0775997 0.0011933)
(0.000407881 0.0676308 0.000785545)
(3.38234e-05 0.0345714 0.000256846)
(1.50139e-05 -0.0174897 0.000361671)
(0.000219856 -0.0432742 0.000924752)
(0.000555971 -0.0607129 0.00133018)
(0.000979271 -0.0713645 0.00159983)
(0.00142726 -0.0769865 0.00175702)
(0.00187115 -0.0795234 0.00183713)
(0.00231235 -0.0802255 0.0018694)
(0.00275011 -0.079642 0.00186993)
(0.00317664 -0.0779838 0.00184721)
(0.00358537 -0.0753237 0.00180667)
(0.00397064 -0.071676 0.00175219)
(0.00432637 -0.0670438 0.00168633)
(0.00464661 -0.0614594 0.00161017)
(0.00492644 -0.0550038 0.00152317)
(0.00516236 -0.0478053 0.0014234)
(0.00535204 -0.0400269 0.00130815)
(0.00549391 -0.0318501 0.00117492)
(0.00558685 -0.0234608 0.00102269)
(0.00563023 -0.0150372 0.000853138)
(0.00562374 -0.00673874 0.00067194)
(0.00556784 0.00129676 0.000489541)
(0.00546397 0.00895891 0.000321187)
(0.00531459 0.016187 0.000185842)
(0.00512245 0.0229968 0.000104034)
(0.00488905 0.0294942 9.48909e-05)
(0.0046128 0.0358812 0.000172662)
(0.00428735 0.0424508 0.000341969)
(0.00390139 0.0495541 0.00059014)
(0.00344055 0.0574833 0.000877248)
(0.00289034 0.0661772 0.00113216)
(0.0022446 0.0746832 0.00126983)
(0.00157863 0.0806733 0.00123603)
(0.000953601 0.081283 0.00103514)
(0.000392344 0.0705203 0.000680465)
(3.22142e-05 0.0358317 0.000217642)
(1.53608e-05 -0.0183963 0.000358217)
(0.000219321 -0.0455148 0.000917617)
(0.000551268 -0.0638233 0.00131856)
(0.000965774 -0.0749602 0.00158224)
(0.0014008 -0.0807976 0.00173359)
(0.00182905 -0.0834045 0.00180928)
(0.00225284 -0.0840987 0.00183854)
(0.00267173 -0.0834511 0.00183737)
(0.00307807 -0.0816771 0.00181438)
(0.00346551 -0.0788485 0.00177525)
(0.00382872 -0.0749785 0.00172413)
(0.00416216 -0.0700732 0.00166383)
(0.00446074 -0.0641717 0.00159551)
(0.00472055 -0.0573645 0.0015185)
(0.00493909 -0.0497897 0.00143053)
(0.00511483 -0.0416178 0.00132828)
(0.0052468 -0.0330364 0.00120829)
(0.00533423 -0.0242362 0.00106818)
(0.00537652 -0.0154004 0.00090789)
(0.00537319 -0.00669476 0.000730969)
(0.00532415 0.00173415 0.000545538)
(0.00523011 0.00976519 0.000364613)
(0.00509262 0.0173298 0.000205454)
(0.00491343 0.0244435 8.79003e-05)
(0.00469318 0.0312226 3.20016e-05)
(0.00442966 0.0378894 5.52323e-05)
(0.00411652 0.044765 0.000168322)
(0.00374312 0.0522256 0.000367529)
(0.00329638 0.0605675 0.000623099)
(0.00276336 0.0696814 0.000871532)
(0.00213946 0.0784945 0.00102804)
(0.00150156 0.0845336 0.00102947)
(0.000903291 0.0848837 0.000872102)
(0.000366753 0.0732991 0.000570797)
(2.82694e-05 0.0370259 0.000176742)
(1.51329e-05 -0.0193606 0.00036648)
(0.000216424 -0.0478952 0.000934848)
(0.000540884 -0.067109 0.00133426)
(0.000942731 -0.0787317 0.00158975)
(0.00136111 -0.0847722 0.00173206)
(0.0017706 -0.0874396 0.00180097)
(0.00217441 -0.0881205 0.00182613)
(0.0025723 -0.0874068 0.00182345)
(0.00295684 -0.0855184 0.00180165)
(0.00332197 -0.082528 0.00176671)
(0.00366271 -0.0784507 0.00172312)
(0.00397416 -0.073297 0.00167392)
(0.0042521 -0.0671139 0.0016202)
(0.00449363 -0.0600002 0.00156083)
(0.0046972 -0.0521002 0.00149258)
(0.00486208 -0.0435884 0.00141072)
(0.00498784 -0.0346535 0.00131006)
(0.00507398 -0.025487 0.00118624)
(0.00511984 -0.0162726 0.00103722)
(0.00512455 -0.0071789 0.000864688)
(0.00508727 0.00164198 0.000675168)
(0.00500765 0.0100599 0.000480443)
(0.00488601 0.0179972 0.000297013)
(0.0047229 0.025466 0.000144529)
(0.00451792 0.0325879 4.37044e-05)
(0.00426821 0.0396 1.40547e-05)
(0.00396728 0.0468444 7.04323e-05)
(0.00360519 0.0547158 0.000215853)
(0.00317039 0.0635068 0.000429541)
(0.00265194 0.0730564 0.000656677)
(0.00204748 0.0821741 0.000816216)
(0.00143519 0.0882548 0.000840381)
(0.000861688 0.088345 0.000719167)
(0.000347197 0.0759574 0.000467831)
(2.64324e-05 0.0381578 0.000139482)
(1.56378e-05 -0.020263 0.00036757)
(0.000216168 -0.0500906 0.00093044)
(0.000535851 -0.070111 0.00131849)
(0.000927981 -0.0821536 0.00156116)
(0.00133267 -0.0883623 0.00169297)
(0.00172629 -0.0910729 0.00175475)
(0.00211286 -0.0917311 0.00177548)
(0.00249232 -0.0909453 0.00177059)
(0.00285745 -0.0889387 0.0017488)
(0.00320247 -0.0857843 0.00171631)
(0.00352277 -0.0814994 0.00167798)
(0.00381401 -0.0761005 0.00163719)
(0.00407274 -0.0696437 0.00159528)
(0.00429689 -0.0622372 0.0015512)
(0.00448569 -0.0540327 0.00150149)
(0.00463902 -0.0452086 0.00144084)
(0.00475694 -0.0359547 0.00136294)
(0.00483919 -0.0264616 0.00126172)
(0.00488514 -0.016912 0.00113289)
(0.00489368 -0.00747459 0.000975599)
(0.00486344 0.00169551 0.000793797)
(0.00479332 0.0104619 0.000597138)
(0.00468274 0.0187412 0.000400785)
(0.00453128 0.0265449 0.000223967)
(0.00433772 0.034001 8.79104e-05)
(0.00409865 0.0413607 1.37148e-05)
(0.00380752 0.048983 1.93085e-05)
(0.00345499 0.0572726 0.000112927)
(0.00303102 0.0665069 0.000281449)
(0.00252683 0.0764624 0.000478822)
(0.00194269 0.0858302 0.000630131)
(0.00135779 0.0918961 0.000666917)
(0.000811774 0.0916897 0.000575034)
(0.000323119 0.0784892 0.000369984)
(2.33381e-05 0.0392227 0.0001046)
(1.52021e-05 -0.0212188 0.000377045)
(0.000212639 -0.0524126 0.000946299)
(0.000524488 -0.0732699 0.00132928)
(0.000904053 -0.0857297 0.00156116)
(0.00129276 -0.0920923 0.0016825)
(0.00166887 -0.0948348 0.00173684)
(0.00203717 -0.0954631 0.00175314)
(0.00239765 -0.0946013 0.00174659)
(0.0027433 -0.092476 0.00172591)
(0.00306864 -0.0891622 0.00169755)
(0.00336944 -0.0846814 0.00166661)
(0.00364197 -0.0790576 0.00163668)
(0.00388352 -0.0723556 0.0016091)
(0.00409284 -0.0646917 0.00158255)
(0.00426985 -0.0562222 0.00155311)
(0.00441503 -0.0471264 0.00151466)
(0.0045288 -0.0375922 0.00145979)
(0.0046111 -0.0278062 0.00138096)
(0.00466118 -0.0179471 0.00127205)
(0.00467754 -0.00818103 0.00113003)
(0.0046581 0.00133632 0.000956596)
(0.00460076 0.0104637 0.000759379)
(0.00450375 0.0191109 0.000552155)
(0.00436557 0.0272859 0.000353605)
(0.0041841 0.0351202 0.000185227)
(0.00395543 0.0428744 6.92284e-05)
(0.00367302 0.0509201 2.57573e-05)
(0.00332833 0.0596667 6.70605e-05)
(0.00291295 0.0693705 0.000186509)
(0.0024204 0.0797409 0.000346526)
(0.00185385 0.0893525 0.000479707)
(0.00129311 0.0953961 0.000519716)
(0.000771404 0.0948944 0.000449869)
(0.000304855 0.0809033 0.000285378)
(2.18762e-05 0.040231 7.5878e-05)
(1.561e-05 -0.0221151 0.000379564)
(0.000211358 -0.0545564 0.000940828)
(0.000517137 -0.0761556 0.00130778)
(0.000885912 -0.0889719 0.00152268)
(0.00126046 -0.0954585 0.00163094)
(0.00162092 -0.0982201 0.00167676)
(0.00197269 -0.098813 0.00168797)
(0.00231582 -0.0978729 0.00167905)
(0.00264352 -0.0956289 0.00165867)
(0.00295062 -0.092158 0.00163346)
(0.00323328 -0.0874863 0.00160885)
(0.00348828 -0.0816459 0.00158878)
(0.00371355 -0.0747118 0.00157483)
(0.00390847 -0.0668091 0.00156586)
(0.00407355 -0.0580997 0.00155787)
(0.00420976 -0.0487642 0.00154438)
(0.00431791 -0.0389878 0.00151713)
(0.00439816 -0.0289519 0.00146712)
(0.0044498 -0.0188288 0.00138614)
(0.00447111 -0.00877956 0.00126855)
(0.00445948 0.00104297 0.00111317)
(0.004412 0.0104958 0.000924978)
(0.00432592 0.0194845 0.000715904)
(0.0041987 0.0280155 0.000503834)
(0.00402741 0.0362235 0.000310471)
(0.00380763 0.0443774 0.000159027)
(0.00353285 0.0528568 7.15169e-05)
(0.00319528 0.0620682 6.34589e-05)
(0.00278813 0.0722375 0.000133763)
(0.00230724 0.0829993 0.000252798)
(0.00175878 0.0928127 0.00036144)
(0.00122274 0.0987948 0.000397679)
(0.000726371 0.0979756 0.000343562)
(0.000283823 0.0831969 0.000213812)
(1.94875e-05 0.0411796 5.27618e-05)
(1.50063e-05 -0.0230529 0.00038774)
(0.000207162 -0.0567977 0.000949789)
(0.000505034 -0.0791612 0.00130647)
(0.000861869 -0.0923296 0.00150735)
(0.00122178 -0.0989276 0.00160365)
(0.00156665 -0.101699 0.00164141)
(0.00190241 -0.10225 0.00164787)
(0.00222905 -0.101229 0.00163705)
(0.00253994 -0.0988661 0.00161755)
(0.00283021 -0.0952427 0.00159612)
(0.0030964 -0.0903909 0.0015784)
(0.00333578 -0.0843515 0.00156847)
(0.00354688 -0.0772088 0.00156801)
(0.00372967 -0.0690954 0.00157587)
(0.00388519 -0.0601769 0.00158797)
(0.00401486 -0.0506332 0.00159762)
(0.00411985 -0.040645 0.00159603)
(0.00420051 -0.0303863 0.00157328)
(0.00425609 -0.020021 0.00151958)
(0.0042846 -0.0097028 0.00142709)
(0.00428283 0.000420538 0.00129188)
(0.00424686 0.0102059 0.00111605)
(0.00417273 0.0195544 0.00090919)
(0.00405685 0.0284685 0.000687888)
(0.00389544 0.0370834 0.000473647)
(0.00368364 0.0456727 0.000290376)
(0.0034151 0.0546201 0.000161615)
(0.00308292 0.0643246 0.000105651)
(0.00268202 0.0749768 0.000126275)
(0.00221059 0.0861328 0.000201322)
(0.00167778 0.0961395 0.000280266)
(0.00116339 0.102054 0.000306743)
(0.000689246 0.100921 0.000262219)
(0.000267312 0.085379 0.000160242)
(1.82975e-05 0.0420762 3.74646e-05)
(1.53235e-05 -0.0239372 0.000389699)
(0.000205366 -0.0588788 0.000939873)
(0.000496969 -0.0819214 0.00127641)
(0.000843284 -0.0953887 0.00145744)
(0.00118988 -0.102073 0.00153918)
(0.0015204 -0.104843 0.00156771)
(0.00184129 -0.10535 0.0015687)
(0.00215244 -0.104246 0.00155536)
(0.00244749 -0.101767 0.00153612)
(0.00272187 -0.0979948 0.00151786)
(0.00297242 -0.0929694 0.00150647)
(0.00319685 -0.0867408 0.00150628)
(0.00339415 -0.0794035 0.00151923)
(0.00356472 -0.0710985 0.0015444)
(0.00371005 -0.0619959 0.00157784)
(0.00383197 -0.0522756 0.0016128)
(0.00393205 -0.0421134 0.00164013)
(0.00401097 -0.0316744 0.00164898)
(0.00406812 -0.0211122 0.00162803)
(0.00410136 -0.0105696 0.00156713)
(0.00410698 -0.000185929 0.00145941)
(0.00408036 0.00989929 0.00130375)
(0.0040166 0.019585 0.00110698)
(0.00391094 0.0288709 0.000883954)
(0.00375867 0.0378919 0.000655694)
(0.00355444 0.0469235 0.000446631)
(0.003292 0.0563488 0.000281665)
(0.00296532 0.0665529 0.000181554)
(0.00257096 0.0776833 0.000154469)
(0.00210941 0.0892127 0.000185214)
(0.00159283 0.0993792 0.000231889)
(0.00110034 0.1052 0.000244604)
(0.000648903 0.103741 0.000204565)
(0.000248786 0.0874457 0.00012358)
(1.64087e-05 0.0429173 2.90642e-05)
(1.46845e-05 -0.0248518 0.000394993)
(0.000201003 -0.0610295 0.000938815)
(0.000485147 -0.0847648 0.00125949)
(0.000820688 -0.0985247 0.0014234)
(0.00115442 -0.105284 0.00149193)
(0.00147153 -0.108045 0.00151187)
(0.00177879 -0.108502 0.00150777)
(0.00207598 -0.107314 0.00149215)
(0.00235686 -0.104718 0.00147329)
(0.00261715 -0.100803 0.00145812)
(0.00285398 -0.0956136 0.0014526)
(0.00306542 -0.0892099 0.00146121)
(0.00325084 -0.0816961 0.00148603)
(0.00341107 -0.0732205 0.0015263)
(0.00354797 -0.0639568 0.00157833)
(0.00366376 -0.0540837 0.00163555)
(0.00376037 -0.0437712 0.00168882)
(0.00383876 -0.033175 0.00172694)
(0.00389844 -0.0224362 0.00173755)
(0.0039372 -0.0116853 0.00170862)
(0.00395091 -0.00105078 0.0016305)
(0.00393406 0.00933389 0.00149869)
(0.00388063 0.0193664 0.00131671)
(0.00378474 0.0290424 0.00109712)
(0.00364084 0.0384936 0.000859892)
(0.00344316 0.0479945 0.000629619)
(0.00318564 0.0579236 0.000432351)
(0.00286319 0.0686474 0.000291108)
(0.00247403 0.0802659 0.000218105)
(0.00202089 0.0921665 0.000204697)
(0.00151877 0.102482 0.00021743)
(0.0010458 0.108205 0.000213178)
(0.000614566 0.106424 0.000172885)
(0.000233624 0.0894017 0.000105696)
(1.54177e-05 0.0437071 2.83426e-05)
(1.49718e-05 -0.0257201 0.00039452)
(0.000199092 -0.0630411 0.000921202)
(0.000477378 -0.087396 0.00121798)
(0.000803404 -0.101403 0.00136019)
(0.00112531 -0.108216 0.00141349)
(0.00142988 -0.11096 0.00142392)
(0.00172424 -0.111363 0.00141415)
(0.00200809 -0.110091 0.00139579)
(0.00227542 -0.107382 0.00137686)
(0.0025222 -0.103327 0.00136431)
(0.00274577 -0.0979802 0.00136424)
(0.00294449 -0.0914105 0.00138131)
(0.003118 -0.0837327 0.00141784)
(0.00326743 -0.0751035 0.00147335)
(0.00339497 -0.0657009 0.00154444)
(0.00350323 -0.0557033 0.00162479)
(0.00359454 -0.0452749 0.00170538)
(0.00367026 -0.0345609 0.00177474)
(0.00373021 -0.0236882 0.00181969)
(0.00377225 -0.0127716 0.00182649)
(0.00379204 -0.00192507 0.00178285)
(0.00378338 0.00872769 0.00168076)
(0.00373924 0.0190862 0.00152014)
(0.00365259 0.0291424 0.00131074)
(0.00351693 0.0390238 0.00107107)
(0.00332601 0.0490002 0.000825611)
(0.00307393 0.0594408 0.000601408)
(0.00275647 0.0706875 0.000423609)
(0.00237343 0.0827874 0.000308217)
(0.00192961 0.0950397 0.000252721)
(0.00144274 0.105478 0.000231757)
(0.00098949 0.111085 0.000208874)
(0.00057863 0.108977 0.000164506)
(0.000217441 0.0912436 0.000104395)
(1.40199e-05 0.0444429 3.40008e-05)
(1.43912e-05 -0.0266094 0.000395569)
(0.000194932 -0.0650983 0.000908195)
(0.000466535 -0.0900785 0.00118412)
(0.000783204 -0.104324 0.00130692)
(0.00109412 -0.111179 0.00134627)
(0.00138733 -0.113899 0.00134781)
(0.00167023 -0.114245 0.00133266)
(0.00194237 -0.112886 0.00131159)
(0.00219792 -0.110065 0.00129237)
(0.00243303 -0.105875 0.00128188)
(0.00264523 -0.100378 0.00128625)
(0.00283305 -0.0936531 0.00131023)
(0.00299638 -0.085824 0.0013563)
(0.00313662 -0.0770556 0.00142429)
(0.00325623 -0.06753 0.00151118)
(0.00335812 -0.057425 0.00161112)
(0.00344499 -0.0468992 0.00171551)
(0.00351853 -0.0360868 0.0018131)
(0.00357888 -0.0251 0.00189035)
(0.003624 -0.0140367 0.00193232)
(0.00364943 -0.00299356 0.00192436)
(0.00364836 0.00791864 0.00185499)
(0.00361279 0.0186034 0.00172012)
(0.00353458 0.0290487 0.00152607)
(0.00340629 0.0393757 0.00128928)
(0.00322126 0.0498461 0.00103367)
(0.00297379 0.0608158 0.000787121)
(0.00266062 0.0725978 0.000576813)
(0.00228309 0.0851823 0.000422371)
(0.00184793 0.0977799 0.00032706)
(0.00137528 0.10833 0.000273145)
(0.000940058 0.113818 0.000230487)
(0.0005476 0.111391 0.00017868)
(0.000204005 0.0929748 0.000119151)
(1.33363e-05 0.045128 4.5801e-05)
(1.46899e-05 -0.027459 0.000391307)
(0.000193114 -0.0670368 0.000880972)
(0.000459501 -0.0925802 0.00112993)
(0.00076793 -0.107026 0.00123007)
(0.00106871 -0.113906 0.00125418)
(0.00135122 -0.116594 0.00124626)
(0.00162314 -0.116879 0.00122533)
(0.00188399 -0.115436 0.0012012)
(0.00212818 -0.112504 0.00118129)
(0.00235204 -0.108183 0.00117243)
(0.00255314 -0.102542 0.00118077)
(0.00273015 -0.095668 0.00121121)
(0.00288313 -0.0876977 0.00126645)
(0.00301367 -0.0788039 0.00134659)
(0.00312448 -0.0691737 0.00144898)
(0.00321878 -0.0589848 0.00156821)
(0.0032996 -0.0483903 0.00169615)
(0.00336909 -0.0375136 0.00182188)
(0.0034278 -0.0264506 0.00193183)
(0.00347401 -0.0152796 0.00201023)
(0.00350331 -0.00407719 0.00204046)
(0.00350847 0.00706334 0.00200772)
(0.00348065 0.0180529 0.00190375)
(0.00341056 0.0288763 0.00173093)
(0.00328975 0.039647 0.00150308)
(0.00311103 0.0506151 0.00124316)
(0.00286885 0.0621179 0.000979652)
(0.00256086 0.0744343 0.000741732)
(0.00218985 0.0874938 0.000552518)
(0.00176433 0.100418 0.000420716)
(0.00130665 0.111057 0.00033571)
(0.000889561 0.116416 0.000273149)
(0.000515528 0.113671 0.000211358)
(0.000189891 0.0945926 0.000146807)
(1.23204e-05 0.0457606 6.21754e-05)
(1.42388e-05 -0.0283215 0.000387345)
(0.000189276 -0.0689997 0.000855503)
(0.000449683 -0.0951053 0.00107957)
(0.000750057 -0.109741 0.00115896)
(0.00104163 -0.116635 0.00116907)
(0.00131492 -0.119282 0.00115236)
(0.00157772 -0.119503 0.00112586)
(0.00182924 -0.117974 0.00109847)
(0.00206392 -0.114935 0.00107734)
(0.00227826 -0.110486 0.00106919)
(0.00246995 -0.104704 0.00108021)
(0.00263778 -0.0976891 0.00111536)
(0.00278197 -0.0895858 0.00117751)
(0.00290425 -0.0805759 0.00126702)
(0.0030075 -0.0708512 0.00138164)
(0.00309515 -0.0605897 0.00151655)
(0.00317049 -0.0499399 0.00166428)
(0.00323603 -0.0390146 0.00181458)
(0.0032927 -0.0278941 0.00195426)
(0.00333916 -0.0166362 0.00206728)
(0.00337117 -0.0052951 0.00213552)
(0.0033813 0.00605706 0.0021412)
(0.00336002 0.0173421 0.00207171)
(0.003297 0.0285431 0.00192494)
(0.00318282 0.0397641 0.00171134)
(0.00300973 0.0512407 0.00145236)
(0.00277233 0.0632872 0.00117679)
(0.0024691 0.0761438 0.000915726)
(0.00210424 0.0896764 0.00069573)
(0.00168788 0.102917 0.000530698)
(0.00124443 0.113637 0.000416636)
(0.000844375 0.118865 0.000334316)
(0.000487387 0.115811 0.000260273)
(0.000178002 0.0961019 0.00018555)