/*--------------------------------*- C++ -*----------------------------------*\
| =========                 |                                                 |
| \\      /  F ield         | OpenFOAM: The Open Source CFD Toolbox           |
|  \\    /   O peration     | Version:  v2012                                 |
|   \\  /    A nd           | Website:  www.openfoam.com                      |
|    \\/     M anipulation  |                                                 |
\*---------------------------------------------------------------------------*/
FoamFile
{
    version     2.0;
    format      ascii;
    class       surfaceScalarField;
    location    "60";
    object      phi;
}
// * * * * * * * * * * * * * * * * * * * * * * * * * * * * * * * * * * * * * //

dimensions      [1 0 -1 0 0 0 0];
oriented        oriented;


internalField   nonuniform List<scalar> 
22800
(
-2.6883e-10
-2.69226e-10
-2.68931e-10
-1.51309e-10
-5.88656e-11
-5.89473e-11
-5.8868e-11
-4.6029e-11
-4.58691e-11
-3.23627e-11
-1.3047e-11
-1.31677e-11
-1.60263e-11
-8.33085e-12
-8.54421e-12
-9.768e-12
-3.26803e-12
-2.89172e-12
-5.81339e-12
-1.61599e-12
-2.01709e-12
-4.22776e-12
-9.76379e-13
-6.41383e-13
-2.4504e-12
-5.39292e-13
-2.91992e-13
-1.97477e-12
-7.77907e-13
-2.58193e-13
-1.64334e-12
-3.50406e-13
-3.18247e-13
-1.07428e-12
-1.80124e-13
-1.06253e-13
-9.9645e-13
-1.31218e-13
-1.46656e-13
-3.08225e-13
2.16957e-13
-1.52054e-13
-8.35492e-13
-3.2264e-13
-7.31445e-14
-2.15487e-13
-2.87606e-13
1.8328e-13
-4.73483e-13
2.35316e-14
-1.23506e-13
-1.60954e-14
-1.35077e-13
3.44747e-14
1.69007e-14
1.53211e-13
1.22229e-13
7.49091e-14
-4.23088e-13
-5.86798e-11
-1.51594e-10
-5.89475e-11
-4.53406e-11
-4.55159e-11
-2.66364e-11
-2.96867e-11
-3.75766e-11
-2.33306e-11
-2.02631e-11
-1.29834e-11
-9.99219e-12
-1.38852e-11
-8.98068e-12
-6.11645e-12
-9.68688e-12
-3.72529e-12
-2.83064e-12
-6.74083e-12
-2.61801e-12
-1.68361e-12
-4.90801e-12
-1.28379e-12
-8.65798e-13
-3.6852e-12
-9.93086e-13
-6.52001e-13
-2.67411e-12
-6.59093e-13
-2.10655e-13
-2.2862e-12
-7.233e-14
-2.60616e-13
-1.90673e-12
-5.34899e-13
1.84813e-13
-1.32593e-12
8.00779e-14
1.47217e-13
-1.47806e-12
-1.09133e-13
-2.65542e-13
-1.12509e-12
3.06205e-14
-4.42987e-14
-5.45531e-13
2.35929e-13
2.31052e-13
-7.28819e-13
-2.99107e-13
-1.11045e-14
-1.96158e-13
-3.13822e-13
7.0551e-14
1.82015e-14
-5.39807e-13
-3.18731e-13
2.08531e-13
3.07902e-13
-4.61902e-11
-5.97531e-11
-4.60921e-11
-3.78532e-11
-3.01107e-11
-2.33445e-11
-2.75711e-11
-2.7587e-11
-2.03759e-11
-1.93344e-11
-1.24709e-11
-8.82529e-12
-1.30782e-11
-8.88934e-12
-5.56651e-12
-9.47497e-12
-4.60034e-12
-2.43631e-12
-6.36603e-12
-3.01121e-12
-1.68107e-12
-4.97978e-12
-2.41518e-12
-8.75871e-13
-3.43376e-12
-1.42267e-12
-3.3237e-13
-2.74176e-12
-1.10499e-12
-1.23151e-13
-2.61741e-12
-8.49977e-13
-3.15863e-13
-1.65807e-12
-5.84447e-13
-4.91141e-14
-1.43378e-12
-2.31829e-13
-2.09231e-13
-1.28299e-12
-6.68401e-14
-3.95171e-13
-7.8992e-13
1.9665e-13
-3.69627e-13
-8.10383e-13
-8.16182e-14
8.39148e-14
-5.95954e-13
-5.95342e-14
-4.02346e-14
-7.30899e-13
-1.43493e-13
-1.17043e-13
3.19428e-13
2.76478e-13
7.14672e-13
-3.12285e-13
1.13503e-14
-1.3288e-11
-3.29037e-11
-1.31056e-11
-1.27771e-11
-2.05759e-11
-9.12214e-12
-1.24985e-11
-1.9304e-11
-8.63481e-12
-1.00053e-11
-1.00712e-11
-4.45422e-12
-8.37538e-12
-8.15245e-12
-3.21184e-12
-6.27959e-12
-4.40081e-12
-1.53831e-12
-5.53934e-12
-3.58758e-12
-1.5453e-12
-4.02631e-12
-2.29345e-12
-8.27713e-13
-3.38356e-12
-1.67853e-12
-3.77623e-13
-2.54476e-12
-1.38828e-12
1.0758e-13
-2.27438e-12
-1.07318e-12
-1.90883e-13
-1.37027e-12
-7.49779e-13
-1.6129e-13
-1.68482e-12
-7.16456e-13
-3.92768e-13
-1.14252e-12
1.06557e-13
-1.14058e-13
-9.72809e-13
-1.61792e-14
-6.24773e-13
-4.86381e-13
2.88568e-13
-3.9678e-13
-3.57088e-13
7.26078e-14
3.32705e-14
-3.1683e-13
-4.22692e-13
-3.53036e-14
-3.66823e-13
-1.63932e-13
2.40381e-13
-1.04267e-14
3.51184e-13
-8.14271e-12
-1.57281e-11
-8.6358e-12
-8.77458e-12
-1.38156e-11
-6.44493e-12
-8.85966e-12
-1.2818e-11
-5.80134e-12
-7.6447e-12
-7.58539e-12
-3.16769e-12
-6.24007e-12
-6.50015e-12
-2.18905e-12
-5.62134e-12
-4.912e-12
-1.18421e-12
-4.35084e-12
-3.3704e-12
-8.13045e-13
-3.38994e-12
-2.51069e-12
-1.23234e-13
-2.84298e-12
-1.95552e-12
-3.45295e-13
-2.25093e-12
-2.05048e-12
-1.04583e-13
-2.04524e-12
-1.48967e-12
2.19139e-14
-1.85032e-12
-1.06014e-12
-3.25216e-14
-1.185e-12
-1.74558e-13
2.37828e-13
-1.31989e-12
-3.71639e-13
-4.50981e-13
-8.79652e-13
-9.97906e-13
-1.05308e-13
-8.35346e-13
3.29067e-13
-1.80645e-13
-2.25109e-13
-1.05167e-13
-2.85781e-15
-3.75249e-13
-2.4648e-13
-7.9736e-14
-1.24121e-13
-2.09495e-13
4.31498e-13
-7.30879e-13
-1.92452e-13
-3.25164e-12
-9.73321e-12
-3.01405e-12
-3.77435e-12
-9.63788e-12
-3.04905e-12
-4.65219e-12
-9.41284e-12
-3.03198e-12
-4.94611e-12
-6.57582e-12
-2.10139e-12
-4.71334e-12
-5.75478e-12
-1.56735e-12
-3.47157e-12
-4.00389e-12
-4.83666e-13
-3.67638e-12
-3.3929e-12
-3.3225e-13
-2.9976e-12
-2.11779e-12
-5.02608e-13
-2.65317e-12
-1.79351e-12
-2.69143e-13
-1.93899e-12
-1.1866e-12
2.52232e-13
-1.64484e-12
-1.05533e-12
9.42553e-14
-1.17691e-12
-5.77317e-13
1.84002e-13
-1.27409e-12
-7.94288e-13
2.71256e-14
-1.43351e-12
-7.61322e-13
-2.89681e-14
-3.54399e-13
-5.15271e-13
5.12929e-14
-1.03853e-12
-2.30506e-13
-8.48653e-14
-5.8884e-13
-3.22238e-13
2.21478e-13
-3.96062e-13
-5.18096e-13
2.54134e-13
6.22906e-14
-2.12932e-13
2.53972e-13
-4.47559e-13
3.03553e-13
-2.06876e-12
-5.90223e-12
-1.68751e-12
-2.4818e-12
-6.65424e-12
-1.50318e-12
-3.0303e-12
-6.31201e-12
-1.92965e-12
-3.29887e-12
-4.94853e-12
-1.41407e-12
-3.0127e-12
-4.27672e-12
-9.94093e-13
-2.6103e-12
-3.40228e-12
-7.90254e-13
-2.23498e-12
-2.40101e-12
-8.30296e-13
-2.04443e-12
-2.17959e-12
-4.21032e-13
-1.88517e-12
-1.73404e-12
-3.8743e-13
-1.66715e-12
-9.78685e-13
-4.16882e-14
-1.05963e-12
-1.18372e-12
-3.25807e-13
-1.60463e-12
-1.35015e-12
-3.64304e-13
-1.18682e-12
-7.42413e-13
-5.97758e-13
-2.66788e-13
-3.87525e-13
5.0289e-14
-1.59705e-13
-6.08199e-13
-3.20079e-13
-1.83609e-13
-7.19852e-14
3.13854e-13
-6.33163e-13
-2.95573e-13
3.71624e-13
-4.54332e-13
-4.7862e-13
3.54426e-13
-3.64288e-14
-2.38495e-13
1.15951e-13
-5.28148e-13
-6.98677e-14
-9.98602e-13
-4.21609e-12
-1.10967e-12
-1.33301e-12
-4.73288e-12
-1.00556e-12
-2.58243e-12
-5.12439e-12
-1.3146e-12
-1.81985e-12
-3.63318e-12
-7.04819e-13
-2.58391e-12
-3.8694e-12
-7.60861e-13
-2.14601e-12
-2.74026e-12
-6.49431e-13
-2.55601e-12
-2.36711e-12
-5.42508e-13
-1.58944e-12
-1.53686e-12
-3.75874e-13
-1.59238e-12
-1.66483e-12
-1.53964e-13
-1.37331e-12
-1.49515e-12
-6.67912e-13
-1.05428e-12
-1.23277e-12
1.11215e-13
-1.27388e-12
-1.01264e-12
-1.37835e-13
-9.81102e-13
-5.86906e-13
1.45045e-13
-1.17353e-12
-8.47796e-14
-7.95406e-14
-5.67104e-13
-1.63687e-14
2.52707e-13
-3.64263e-13
-4.21158e-13
1.69458e-13
-3.29682e-13
-5.53126e-13
1.69521e-13
-3.74857e-13
-4.69763e-13
1.36686e-13
-5.35565e-13
-2.52877e-13
5.4391e-13
1.89209e-13
-1.98109e-13
-5.788e-13
-2.40693e-12
-2.48393e-14
-1.01235e-12
-3.89391e-12
-3.60475e-13
-1.1344e-12
-3.75021e-12
-5.99294e-13
-1.59212e-12
-3.48334e-12
-7.8913e-13
-1.79066e-12
-2.57948e-12
-6.70242e-13
-1.97787e-12
-2.60257e-12
-3.79603e-13
-1.7089e-12
-1.94074e-12
-4.12892e-13
-1.30187e-12
-1.73769e-12
-5.35731e-13
-1.36561e-12
-1.61515e-12
-2.07474e-13
-1.01272e-12
-1.22901e-12
3.85591e-13
-1.03118e-12
-1.03341e-12
2.09182e-13
-1.11356e-12
-7.35603e-13
-1.14829e-13
-3.53104e-13
-9.09008e-13
2.63641e-13
-6.47457e-13
-8.6353e-13
2.17847e-13
-6.77707e-13
-3.1447e-13
1.04592e-13
-2.6334e-13
-4.77689e-13
1.50855e-13
-9.60311e-14
-2.31562e-13
-1.30925e-13
-6.29943e-13
-1.05502e-13
1.70119e-15
-1.9147e-13
2.2364e-13
-1.70402e-13
-4.13963e-13
-5.57589e-16
-1.49277e-13
-2.22343e-12
-4.43235e-13
-3.05561e-13
-3.30302e-12
8.88789e-14
-1.06209e-12
-3.21319e-12
-2.87685e-13
-7.76296e-13
-2.52196e-12
-6.41351e-13
-1.4162e-12
-2.48794e-12
-6.96035e-13
-1.18962e-12
-2.34592e-12
-3.1186e-13
-1.57697e-12
-1.80321e-12
-3.13589e-13
-1.35973e-12
-1.58838e-12
-1.32384e-13
-1.27186e-12
-1.90012e-12
-2.78456e-13
-6.00386e-13
-1.29847e-12
2.91198e-13
-4.28144e-13
-1.16674e-12
-2.56001e-13
-1.12968e-12
-1.49821e-12
-2.80581e-13
-7.29701e-13
-9.68188e-13
1.18577e-13
-1.80882e-13
-3.70034e-13
1.52435e-13
-5.66059e-13
-4.93214e-13
-3.33768e-13
-1.96618e-13
-4.09893e-13
2.2737e-13
-4.18181e-14
-3.26611e-13
-2.26214e-13
-4.59885e-13
-3.40205e-13
-2.62389e-13
-5.14185e-13
7.43487e-14
-4.09351e-13
-2.09978e-13
-1.76418e-14
-4.75097e-13
-1.49053e-12
-9.21472e-15
-2.38245e-13
-2.07616e-12
2.78327e-14
-7.20006e-13
-2.07402e-12
-1.16747e-13
-8.378e-13
-2.01576e-12
-1.41206e-14
-9.95042e-13
-2.3591e-12
-3.19874e-13
-9.8385e-13
-1.98777e-12
-1.63685e-13
-1.488e-12
-2.02272e-12
-4.93955e-13
-1.49549e-12
-1.73025e-12
-5.89003e-14
-1.14398e-12
-1.11324e-12
1.23293e-13
-7.46806e-13
-1.13318e-12
1.4054e-13
-1.07924e-12
-1.17889e-12
-4.90352e-14
-7.94282e-13
-7.42927e-13
5.09202e-13
-4.52439e-13
-9.75532e-13
3.46406e-13
-7.2069e-13
-3.5061e-13
3.37319e-14
-5.29031e-13
-3.02263e-13
-2.07332e-13
-4.66048e-13
-7.11165e-13
3.80667e-13
-8.69612e-14
-2.5052e-13
5.86896e-14
1.61712e-13
-5.34309e-13
1.55629e-14
-2.68313e-13
-4.18284e-13
2.28935e-13
3.14087e-16
2.51466e-13
2.00403e-14
-1.23967e-12
8.8162e-14
-3.4078e-13
-1.95098e-12
-4.53512e-14
-5.77066e-13
-1.75676e-12
-6.14508e-13
-8.01839e-13
-1.24859e-12
2.463e-13
-7.60331e-13
-1.84345e-12
-1.26436e-13
-1.33719e-12
-1.36175e-12
-3.44181e-13
-1.03853e-12
-7.65648e-13
1.27696e-13
-8.52503e-13
-1.29164e-12
-2.14978e-13
-7.34443e-13
-1.43932e-12
-4.12881e-13
-8.6074e-13
-1.33818e-12
-4.32134e-13
-4.39774e-13
-1.01792e-12
1.97813e-13
-1.0901e-12
-9.10193e-13
-1.90723e-13
-4.43708e-14
-4.3154e-13
4.65036e-13
-8.01751e-13
-6.75346e-13
3.6975e-13
-6.73832e-13
-2.46422e-13
-1.67538e-14
-4.87634e-13
-6.56314e-13
2.06739e-14
-9.89452e-14
-4.97795e-14
-2.5964e-13
-3.4997e-13
-4.57082e-13
-4.34281e-13
-4.38006e-14
-9.11411e-14
2.14443e-13
-5.02732e-14
-2.34171e-14
-6.35364e-14
-1.42223e-12
-3.97752e-13
-2.03975e-13
-1.67972e-12
-2.53884e-13
-3.8755e-14
-1.52498e-12
-8.46603e-14
-9.96755e-13
-1.51695e-12
-1.94091e-13
-5.79731e-13
-1.34106e-12
8.7192e-14
-8.78173e-13
-1.07499e-12
-3.74688e-14
-1.02342e-12
-1.0681e-12
1.46787e-13
-1.12221e-12
-1.07412e-12
-1.228e-13
-6.13505e-13
-7.90916e-13
8.72624e-14
-5.88092e-13
-8.96436e-13
4.791e-13
-7.7419e-13
-8.06882e-13
1.52186e-13
-6.71626e-13
-4.72607e-13
-1.51483e-13
-3.45304e-13
-5.26735e-13
-3.94526e-13
-5.33328e-13
-6.73291e-13
9.45475e-14
-5.06488e-13
-1.76135e-13
1.5269e-13
-8.5078e-14
6.9074e-14
5.1426e-13
8.24533e-14
8.33599e-15
-3.04544e-13
1.62382e-14
-5.47044e-13
-6.56703e-13
2.38072e-13
-4.4687e-13
1.29532e-13
-3.84048e-13
2.49104e-13
-1.34509e-13
-5.73277e-13
-2.69934e-14
-5.68454e-13
-1.35239e-12
-2.58653e-13
-6.24916e-14
-9.71158e-13
5.32498e-14
-4.52931e-13
-9.69107e-13
8.80125e-14
-2.78526e-13
-9.63482e-13
1.23907e-13
-7.57385e-13
-1.16864e-12
-4.68493e-13
-1.0644e-12
-1.0498e-12
1.78536e-13
-7.32344e-13
-7.69737e-13
4.48872e-14
-6.27292e-13
-6.66354e-13
-3.10061e-13
-5.70231e-13
-6.19863e-13
-1.46681e-13
-5.04854e-13
-9.49221e-13
-2.6729e-13
-4.30894e-13
-1.52471e-13
-4.57049e-13
-2.38613e-13
-5.24821e-13
5.86809e-14
-3.03924e-13
-4.21965e-13
-7.91979e-14
1.27652e-13
-4.27405e-13
-4.83797e-14
-2.22915e-13
-2.83144e-13
-3.55922e-14
-7.82534e-14
-3.91767e-14
2.86422e-14
1.61168e-13
-1.4536e-13
9.90231e-14
2.89391e-14
-4.105e-14
-2.49893e-13
-2.54942e-13
1.24031e-13
-2.96987e-13
-7.32759e-13
-8.03747e-14
1.61497e-13
-7.70784e-13
-4.3336e-13
1.09274e-13
-8.09584e-13
-3.13026e-13
-3.93759e-13
-1.06628e-12
-3.13072e-13
-3.84349e-13
-8.66494e-13
4.21821e-14
-3.79164e-13
-1.05733e-12
-2.10854e-13
-5.63879e-13
-6.82249e-13
2.60192e-13
-9.45077e-13
-2.81596e-13
-4.15563e-13
-3.59749e-13
-1.87334e-13
-1.47454e-13
-1.08413e-12
-7.14642e-13
-9.07812e-14
-4.28103e-13
-6.77865e-13
5.86021e-13
-7.43182e-13
-5.8551e-13
-1.04945e-13
-4.93526e-13
-1.71922e-13
1.38679e-13
-3.94134e-13
-2.19827e-13
6.22383e-14
9.64688e-14
-2.10857e-13
-2.39599e-13
9.95177e-14
-3.35421e-13
-2.60038e-13
1.00966e-13
-3.03798e-14
-3.5947e-13
3.46645e-13
-3.24093e-13
-2.42658e-13
-1.06209e-14
-3.22434e-13
1.35214e-13
-3.52325e-15
5.87526e-13
-1.36255e-13
-6.7359e-13
5.32035e-14
-1.11549e-13
-7.24417e-13
-4.64959e-13
-2.17315e-13
-5.29815e-13
-3.90625e-13
-1.38724e-13
-5.51153e-13
2.99676e-13
-3.09106e-13
-6.80959e-13
2.366e-13
-8.26937e-14
-1.00565e-13
7.11412e-13
-3.90001e-13
-6.41634e-13
1.58533e-13
-5.02509e-13
2.51616e-14
-3.7832e-13
-2.16463e-13
-5.49639e-13
2.32078e-14
-7.62316e-13
-6.06071e-13
-2.09389e-13
-7.07261e-14
-4.02708e-13
6.87391e-14
-1.9856e-13
-3.14293e-13
-1.22369e-13
-3.21731e-13
-1.03998e-13
2.82649e-14
-3.19608e-13
2.10581e-14
1.02965e-13
-1.43624e-16
4.06729e-14
2.66256e-13
1.07955e-13
-1.61568e-13
-5.61078e-15
9.73005e-15
-1.38055e-13
2.15501e-13
-1.94054e-13
-2.9409e-13
-6.97507e-14
2.37582e-13
7.59147e-14
4.99654e-14
-9.08214e-14
3.43859e-13
3.51438e-13
-1.49123e-13
-4.60744e-14
-2.17552e-13
-6.54894e-13
-3.49333e-13
-6.74359e-13
-4.51711e-13
8.82953e-14
-6.05298e-13
-3.65417e-13
-2.03833e-13
-1.0559e-13
-1.52685e-14
2.14346e-13
-1.38238e-13
-4.89181e-13
-8.07591e-14
-3.66439e-13
-8.22637e-13
-2.35286e-13
-7.93784e-13
-5.6075e-13
-3.50058e-13
-4.51926e-13
-3.58491e-13
3.84238e-13
-5.91739e-13
-3.3009e-13
5.78489e-14
-2.04642e-13
1.39009e-14
-4.53217e-14
-2.46644e-13
-1.64105e-13
-2.90147e-14
-1.77167e-13
7.28198e-14
1.85307e-13
-3.68301e-13
-1.96211e-13
7.75653e-14
-2.69592e-13
-3.64426e-13
1.59701e-13
-6.26698e-13
-4.20817e-13
-2.85082e-13
-2.10261e-13
3.54319e-13
3.20164e-13
-2.54465e-13
-1.33687e-13
6.01772e-13
1.51354e-13
-2.9105e-14
1.02961e-13
2.83631e-13
2.2241e-13
1.76565e-13
-1.16723e-14
-1.98174e-13
1.10359e-13
-3.44002e-13
2.58872e-14
1.86724e-13
-2.02032e-13
3.52044e-13
3.73695e-13
-4.00436e-13
-3.21103e-13
-7.76463e-14
-7.77486e-14
2.52488e-13
2.24928e-13
-9.6837e-14
1.93349e-13
-4.10786e-13
-2.13257e-13
-3.33686e-13
-4.63341e-13
-9.08846e-14
3.88158e-13
-4.22587e-13
2.40203e-13
6.78625e-13
-1.38132e-13
-1.20663e-13
-2.55025e-13
-4.78858e-13
-5.23979e-13
-3.15516e-13
-3.12814e-13
-5.3268e-13
-4.87958e-13
-1.49943e-13
-2.35194e-13
-7.8638e-14
-3.42038e-13
-5.86409e-13
-2.73824e-13
-2.68646e-13
4.94261e-14
1.33245e-13
3.44155e-14
-2.08338e-13
1.34003e-13
-6.60094e-14
-1.90634e-13
-4.27112e-14
1.16947e-13
7.13107e-14
8.22764e-14
-4.71129e-14
-1.67892e-13
1.47839e-13
2.79094e-13
8.40553e-14
3.2434e-15
-3.96917e-14
-8.52379e-14
-1.89523e-13
-8.36378e-15
-2.01105e-13
-1.93843e-13
-7.82053e-14
-6.80265e-14
9.7197e-14
-3.97089e-13
-2.82457e-15
-1.24351e-13
6.11205e-14
4.31309e-14
-2.41425e-14
-4.35862e-14
-9.30975e-14
-7.98819e-13
-3.56602e-13
-3.2013e-13
-2.10569e-13
-7.42677e-14
3.76155e-13
-2.41441e-13
-2.82582e-14
3.41632e-13
-2.31052e-13
-1.66397e-13
-2.40817e-13
-4.77008e-13
-2.22892e-13
8.47288e-16
3.16334e-14
-3.80581e-14
3.74094e-13
-1.53795e-14
1.7004e-13
5.11353e-13
-7.1974e-14
-3.26752e-14
-1.07091e-15
-1.20933e-13
2.05198e-14
2.40093e-13
1.01492e-13
1.86206e-13
4.13292e-13
8.2926e-14
1.85525e-13
7.85729e-14
-3.32575e-13
-6.48028e-14
-5.90661e-14
2.07222e-13
-1.49288e-13
2.57372e-13
1.56595e-13
1.9924e-13
-1.15921e-13
-1.09708e-13
-5.19525e-13
1.23009e-13
-6.13926e-13
6.84786e-14
-3.95748e-13
1.99224e-13
-1.8003e-13
2.86015e-13
-7.11348e-13
-2.559e-13
-4.49988e-13
3.94301e-13
-6.72146e-13
-5.16608e-14
-1.18478e-13
2.37955e-13
1.04976e-13
6.51772e-14
-1.88733e-13
2.37908e-14
6.87044e-14
1.41319e-13
2.46923e-13
3.51646e-13
3.72024e-13
-1.68001e-13
-3.04929e-14
1.07194e-13
5.66815e-13
2.92927e-13
-1.90261e-13
-1.65193e-13
-1.55539e-13
-3.08786e-13
3.44105e-13
-1.96557e-13
-4.51848e-14
-5.86226e-11
-5.89351e-11
-1.50721e-10
-4.51157e-11
-2.67795e-11
-4.52605e-11
-2.99257e-11
-2.3535e-11
-3.78571e-11
-2.05299e-11
-9.70845e-12
-1.28249e-11
-1.36752e-11
-6.27558e-12
-8.75983e-12
-9.97578e-12
-2.96799e-12
-3.63833e-12
-6.87523e-12
-1.5326e-12
-2.61166e-12
-5.06883e-12
-9.11585e-13
-1.33232e-12
-3.54787e-12
-4.60635e-13
-4.64984e-13
-2.93517e-12
-3.79963e-13
-5.32737e-13
-2.47053e-12
-4.36951e-13
-3.99983e-13
-1.4934e-12
2.22071e-13
-3.87678e-13
-1.48369e-12
-2.78293e-13
-2.22729e-13
-9.59403e-13
8.42768e-14
1.64928e-13
-7.17356e-13
-8.59299e-14
-1.34373e-14
-8.7485e-13
-1.84557e-13
-2.33985e-13
-1.14576e-12
-6.3074e-14
-3.31228e-13
-2.91129e-13
1.92693e-13
5.37671e-13
-5.94346e-13
-5.14425e-13
2.79342e-14
1.97176e-13
6.27524e-14
-2.7009e-11
-4.56849e-11
-4.55445e-11
-2.667e-11
-2.69782e-11
-2.65923e-11
-2.504e-11
-2.4583e-11
-2.47294e-11
-1.9554e-11
-1.17787e-11
-1.12036e-11
-1.58088e-11
-8.91084e-12
-8.44367e-12
-1.22304e-11
-4.72179e-12
-4.76533e-12
-9.35007e-12
-3.50458e-12
-3.34004e-12
-7.44273e-12
-2.52471e-12
-1.93408e-12
-5.39055e-12
-1.34503e-12
-1.31364e-12
-4.53285e-12
-9.81886e-13
-9.80223e-13
-3.39493e-12
-7.00034e-13
-2.60583e-13
-2.8979e-12
-8.39951e-13
-6.67373e-13
-2.39375e-12
-4.81469e-13
-6.72037e-13
-1.80081e-12
-8.63534e-14
-2.73089e-13
-1.31664e-12
-6.98294e-14
1.59155e-13
-8.80575e-13
9.60252e-14
3.68897e-14
-7.12761e-13
-2.18363e-14
-3.9735e-13
-5.34278e-13
-4.0945e-13
2.7024e-13
1.62441e-13
2.77413e-13
1.4673e-13
-4.46584e-14
2.34299e-13
-2.36065e-11
-2.99455e-11
-3.77722e-11
-2.47172e-11
-2.52331e-11
-2.45394e-11
-2.37857e-11
-2.37821e-11
-2.22338e-11
-1.89877e-11
-1.3937e-11
-1.12099e-11
-1.47013e-11
-9.94988e-12
-7.95874e-12
-1.16627e-11
-6.22062e-12
-4.51516e-12
-9.22641e-12
-4.64887e-12
-3.17382e-12
-7.49022e-12
-3.62924e-12
-1.74535e-12
-5.49987e-12
-2.26823e-12
-1.10994e-12
-4.70935e-12
-1.69636e-12
-6.32188e-13
-3.68939e-12
-1.47954e-12
-4.09341e-13
-2.62702e-12
-1.03122e-12
-6.84934e-14
-2.32497e-12
-4.91479e-13
-7.07951e-13
-1.81311e-12
-2.79315e-13
-5.67407e-13
-1.34338e-12
-6.03907e-13
-2.0265e-13
-1.53577e-12
-3.29812e-13
-1.51283e-13
-9.22648e-13
-2.99115e-13
-2.02592e-13
-3.93121e-13
-3.91925e-13
1.69531e-13
-5.68675e-13
-3.65707e-13
1.96387e-13
-9.22895e-14
1.91546e-13
-9.5752e-12
-2.06298e-11
-1.29589e-11
-1.18338e-11
-2.01218e-11
-1.18862e-11
-1.36683e-11
-1.94074e-11
-1.11703e-11
-1.20886e-11
-1.24781e-11
-6.75287e-12
-1.0662e-11
-9.4351e-12
-5.6024e-12
-9.07878e-12
-6.14191e-12
-3.57045e-12
-7.88192e-12
-4.80185e-12
-2.35524e-12
-6.39506e-12
-3.13073e-12
-1.52496e-12
-4.85726e-12
-2.32461e-12
-8.75125e-13
-4.21878e-12
-1.85783e-12
-5.57115e-13
-3.4284e-12
-1.35257e-12
-2.53553e-13
-2.41782e-12
-8.14393e-13
-2.15022e-13
-2.34302e-12
-5.39124e-13
-7.03811e-13
-1.79684e-12
-5.77823e-13
-8.00584e-14
-1.37681e-12
-3.17447e-13
-1.96185e-14
-1.02497e-12
3.25259e-14
-1.56709e-13
-7.59746e-13
-3.13736e-13
1.36678e-13
-7.04448e-13
-1.60056e-13
3.82555e-14
-3.41232e-13
1.71582e-13
5.8773e-13
-5.8792e-15
-2.23851e-13
-6.1273e-12
-1.30723e-11
-9.07742e-12
-8.82123e-12
-1.57278e-11
-8.48746e-12
-1.03198e-11
-1.53199e-11
-8.10277e-12
-9.9413e-12
-1.1119e-11
-5.12677e-12
-8.69917e-12
-8.69134e-12
-4.41962e-12
-7.98839e-12
-6.38015e-12
-2.93137e-12
-6.36051e-12
-4.71512e-12
-2.28091e-12
-5.80413e-12
-3.74305e-12
-1.66932e-12
-4.66377e-12
-3.02081e-12
-7.29234e-13
-3.89523e-12
-1.96244e-12
-4.97316e-13
-3.13736e-12
-1.82887e-12
-5.71752e-13
-2.71433e-12
-1.4168e-12
-4.19116e-13
-2.28971e-12
-5.96967e-13
-9.03587e-13
-1.49749e-12
-7.48414e-13
-6.63166e-13
-1.24873e-12
-8.98814e-13
-2.6272e-13
-9.74355e-13
-3.44114e-13
9.55566e-15
-7.43523e-13
-3.99087e-13
-1.46767e-13
-8.45619e-13
-4.77683e-13
-4.11435e-13
-5.50535e-13
-4.83945e-13
-2.32115e-13
-1.36234e-13
-1.72017e-13
-2.5694e-12
-9.30384e-12
-3.75711e-12
-4.44599e-12
-1.22716e-11
-5.05457e-12
-6.14146e-12
-1.20852e-11
-4.68882e-12
-6.3768e-12
-9.09502e-12
-3.06493e-12
-6.01198e-12
-7.207e-12
-2.51331e-12
-5.25524e-12
-5.76839e-12
-2.14836e-12
-5.60129e-12
-5.13103e-12
-2.03806e-12
-4.43394e-12
-2.93731e-12
-1.33351e-12
-3.7196e-12
-2.69339e-12
-8.13277e-13
-3.51375e-12
-1.82345e-12
-5.64979e-13
-2.96843e-12
-1.6003e-12
-3.58832e-13
-2.41328e-12
-1.38091e-12
-6.98207e-13
-1.80536e-12
-1.45068e-12
-4.97189e-13
-1.70904e-12
-1.09375e-12
-2.47017e-13
-1.27951e-12
-7.40783e-13
-2.53396e-13
-7.55826e-13
-6.07333e-13
-1.7721e-14
-6.71149e-13
-4.13911e-13
-1.14705e-13
-8.68638e-13
-6.15564e-13
-2.82637e-13
-5.2795e-13
-3.84481e-13
1.82823e-13
-1.37599e-13
2.89704e-13
-1.60147e-12
-6.77616e-12
-2.68e-12
-3.51276e-12
-9.61313e-12
-3.35276e-12
-4.37424e-12
-9.40419e-12
-3.51263e-12
-4.65374e-12
-7.45354e-12
-2.50151e-12
-4.83192e-12
-6.0406e-12
-2.02456e-12
-5.07422e-12
-5.11633e-12
-1.83435e-12
-3.82296e-12
-3.7732e-12
-8.62799e-13
-3.9252e-12
-3.49153e-12
-1.03573e-12
-2.97398e-12
-2.45993e-12
-1.00695e-12
-3.0404e-12
-2.32604e-12
-6.31128e-13
-2.33049e-12
-1.44836e-12
-4.17051e-13
-2.42248e-12
-1.37212e-12
-5.58942e-13
-1.52055e-12
-6.94653e-13
-3.24708e-13
-1.51857e-12
-1.30933e-12
-3.77337e-13
-1.16781e-12
-3.92481e-13
-3.3417e-13
-4.60528e-13
-4.76058e-13
3.28929e-13
-1.1462e-12
-6.67923e-13
2.65957e-14
-8.55492e-13
-2.8272e-13
3.40265e-13
-3.01055e-13
-2.29245e-13
-2.02052e-13
-3.0593e-13
-2.94123e-13
-9.49676e-13
-4.6377e-12
-1.44832e-12
-1.99051e-12
-7.17047e-12
-1.91226e-12
-2.94364e-12
-7.49183e-12
-2.23564e-12
-2.99469e-12
-6.43726e-12
-2.20814e-12
-3.47499e-12
-5.47953e-12
-1.75539e-12
-3.22738e-12
-4.3355e-12
-1.03436e-12
-3.92404e-12
-3.62617e-12
-9.66895e-13
-2.80467e-12
-2.50449e-12
-4.25051e-13
-3.10064e-12
-2.67708e-12
-7.97908e-13
-2.05449e-12
-1.41561e-12
-3.92729e-13
-2.45093e-12
-1.98313e-12
-5.36149e-13
-1.72005e-12
-1.13951e-12
-3.96918e-13
-1.85575e-12
-1.07405e-12
-1.95775e-13
-1.0909e-12
-6.59442e-13
-2.44612e-13
-1.30974e-12
-9.74701e-13
-4.43965e-13
-1.2474e-12
-8.55994e-13
-4.08296e-13
-5.0642e-13
-1.03223e-12
1.32711e-14
-3.76166e-13
-3.59049e-13
-1.59934e-13
-5.50285e-13
-8.66309e-13
-1.45525e-13
1.15885e-13
-3.40019e-14
-7.9765e-13
-4.25265e-12
-1.47077e-12
-1.13772e-12
-5.48831e-12
-1.25407e-12
-1.9134e-12
-5.86143e-12
-1.63159e-12
-2.13346e-12
-5.38959e-12
-8.61462e-13
-2.44512e-12
-4.80279e-12
-1.43781e-12
-3.02582e-12
-4.00169e-12
-7.95118e-13
-3.08103e-12
-3.24289e-12
-1.09966e-12
-2.83717e-12
-2.64054e-12
-8.20286e-13
-2.10513e-12
-2.2753e-12
-1.19568e-13
-2.14999e-12
-1.85787e-12
-5.23268e-13
-1.67127e-12
-1.51233e-12
-1.46276e-13
-1.30081e-12
-1.45575e-12
4.43323e-14
-8.19815e-13
-1.43924e-12
1.49489e-13
-1.38699e-12
-1.19843e-12
-2.46846e-13
-9.86693e-13
-1.00356e-12
5.54076e-13
-9.63274e-13
-7.83739e-13
8.00344e-14
-2.49663e-13
-7.0732e-13
1.01676e-14
-4.49134e-13
-8.00394e-13
-2.12221e-13
2.46229e-13
-4.57864e-13
-1.75508e-13
-4.33705e-13
-7.06261e-13
-2.41873e-14
-3.06679e-12
-4.22127e-13
-6.21801e-13
-4.82991e-12
-9.77101e-13
-1.51023e-12
-4.50211e-12
-7.17024e-13
-1.90518e-12
-3.75141e-12
-5.67428e-13
-2.1736e-12
-3.40287e-12
-2.18137e-13
-2.50294e-12
-3.16952e-12
-4.70322e-13
-2.29986e-12
-2.94449e-12
-4.782e-13
-2.00293e-12
-2.50284e-12
-3.81525e-13
-1.73114e-12
-2.16204e-12
-1.52218e-13
-1.71974e-12
-1.60845e-12
-5.63397e-14
-1.73796e-12
-1.2612e-12
-2.60885e-13
-1.57802e-12
-1.16509e-12
-8.34976e-14
-8.79547e-13
-9.33804e-13
2.28859e-13
-9.42446e-13
-8.07202e-13
-3.87404e-14
-9.47924e-13
-1.07968e-12
-1.43009e-13
-1.096e-12
-8.31597e-13
-1.10195e-13
-5.75898e-13
-5.01966e-13
1.27333e-13
-5.21002e-13
-5.21394e-13
-1.8034e-13
-5.24405e-13
1.8204e-14
8.68546e-14
1.41674e-13
3.74972e-13
-4.16057e-13
-2.41118e-12
-5.28649e-13
-4.94901e-13
-3.89698e-12
-7.2756e-13
-1.11098e-12
-3.43173e-12
-3.58277e-13
-1.58322e-12
-3.28372e-12
-6.71619e-13
-2.10001e-12
-3.21036e-12
-6.90111e-13
-2.1025e-12
-2.5992e-12
-6.38945e-13
-2.05345e-12
-2.6461e-12
-5.57508e-13
-1.65657e-12
-2.19501e-12
-2.5527e-13
-1.60816e-12
-1.77574e-12
-4.09388e-13
-1.57778e-12
-1.81778e-12
-5.328e-13
-1.05121e-12
-1.16733e-12
-3.63374e-13
-1.18968e-12
-1.13022e-12
-9.33887e-14
-1.04389e-12
-7.81887e-13
-1.8891e-13
-9.06837e-13
-5.13272e-13
3.13506e-13
-6.59588e-13
-1.31593e-12
-1.47921e-13
-5.29904e-13
-1.14177e-12
-2.70677e-13
-7.15545e-13
-9.73295e-13
-4.35624e-13
-6.36393e-14
-8.08061e-13
5.23747e-13
-5.55818e-13
-4.96347e-13
-3.26391e-14
8.64748e-15
3.03517e-13
-2.77089e-13
-1.64232e-12
-1.30665e-13
-6.03872e-13
-2.69004e-12
-3.15907e-13
-3.18658e-13
-2.4757e-12
-7.25635e-13
-9.41093e-13
-2.67716e-12
-6.22935e-13
-9.5008e-13
-2.66867e-12
-4.24663e-13
-1.04074e-12
-2.45308e-12
-8.88276e-13
-1.5504e-12
-1.93759e-12
-6.79153e-13
-1.61975e-12
-1.90964e-12
-7.34417e-13
-1.72805e-12
-1.54948e-12
-2.33858e-13
-1.27779e-12
-1.41108e-12
-3.26531e-13
-1.30603e-12
-1.22737e-12
-1.58104e-15
-7.96332e-13
-9.49514e-13
-1.10225e-14
-1.00395e-12
-1.14879e-12
-2.91739e-13
-1.19969e-12
-8.47843e-13
-2.59096e-13
-8.36368e-13
-8.15853e-13
3.20162e-13
-3.51186e-13
-1.3847e-13
3.21599e-13
-6.24144e-13
-1.02261e-12
-2.53607e-13
-6.31943e-14
-4.52994e-13
1.18728e-13
-8.03095e-14
-3.28674e-13
2.29481e-13
9.19458e-14
1.7081e-13
-3.32406e-13
-1.63555e-12
-5.06407e-13
-3.23016e-13
-2.22878e-12
1.28115e-13
-4.91604e-13
-2.21039e-12
-1.8865e-13
-8.85748e-13
-2.15606e-12
-1.8608e-13
-1.45553e-12
-2.54534e-12
-3.8984e-13
-7.45928e-13
-2.31964e-12
-3.12906e-13
-1.33444e-12
-1.62874e-12
-7.55414e-13
-1.10624e-12
-1.22471e-12
-5.37173e-13
-1.2289e-12
-1.44208e-12
-4.59574e-13
-1.26081e-12
-1.39087e-12
-3.10347e-13
-1.4994e-12
-1.25309e-12
-2.81743e-13
-1.04417e-12
-9.0092e-13
-2.7776e-13
-5.54659e-13
-2.57357e-13
-1.37595e-13
-8.26814e-13
-8.67647e-13
2.91519e-13
-6.3865e-13
-9.149e-13
1.94292e-14
-1.0647e-12
-6.18572e-13
-4.82328e-13
-2.79347e-13
-4.59165e-13
2.04061e-13
-7.7702e-14
-7.90836e-13
-4.23148e-13
-1.73548e-14
-8.08232e-13
-7.31951e-14
-6.82908e-14
-1.14018e-13
-3.52392e-13
-1.26417e-12
-3.37099e-13
-2.78465e-13
-2.03341e-12
2.04683e-13
-4.17921e-13
-1.91124e-12
-5.56686e-13
-9.52642e-13
-1.9029e-12
-7.52967e-13
-1.2029e-12
-1.69624e-12
-6.05904e-13
-5.69034e-13
-1.44085e-12
1.41034e-13
-1.26441e-12
-1.37336e-12
1.04252e-13
-1.22311e-12
-9.46051e-13
-5.34544e-15
-7.7142e-13
-1.15977e-12
-4.68167e-14
-1.01277e-12
-9.65987e-13
-3.85605e-13
-9.21684e-13
-6.4621e-13
1.31968e-13
-5.30877e-13
-5.68897e-13
-1.06825e-13
-8.66818e-13
-5.72918e-13
-3.75874e-14
-2.98872e-13
-6.30045e-13
4.02572e-14
-5.7217e-13
-7.52205e-13
1.67384e-14
-4.44106e-13
-4.28653e-13
-2.11053e-16
-7.09714e-13
-7.03194e-13
-6.77349e-15
1.76906e-14
-5.08369e-13
1.93897e-13
1.6182e-13
-3.34333e-13
-1.32713e-13
1.8214e-13
-4.12264e-13
-2.69339e-13
-8.28321e-13
6.94106e-14
-2.31773e-13
-1.59249e-12
-4.59875e-14
-2.7802e-13
-1.14007e-12
-1.91998e-13
-2.22374e-13
-1.17754e-12
-1.25564e-13
-1.09315e-12
-1.65296e-12
-3.76692e-13
-1.01009e-12
-1.38142e-12
-9.7049e-14
-1.20827e-12
-7.02829e-13
2.38277e-13
-1.22048e-12
-4.29786e-13
-9.06273e-14
-7.96914e-13
-8.02341e-13
-1.64004e-13
-8.09667e-13
-8.4869e-13
2.36439e-13
-1.28438e-12
-1.10468e-12
6.99275e-14
-8.45881e-13
-7.61737e-13
-2.61616e-14
-5.768e-13
-2.39262e-13
-4.24071e-14
-3.15683e-13
-3.52175e-13
-1.59516e-13
-1.55788e-14
-6.86301e-13
-8.49565e-14
-1.31078e-13
-2.8209e-13
-3.22417e-13
-1.13678e-13
-3.75041e-13
-6.41919e-14
5.83827e-13
1.53446e-13
6.91548e-13
1.38107e-13
-5.28169e-13
-6.48399e-14
2.70178e-14
-1.94947e-14
-2.27527e-13
-7.62375e-13
3.10962e-13
-1.86881e-13
-1.4683e-12
-3.11251e-13
-1.60802e-13
-1.0625e-12
-7.47486e-13
-5.9714e-13
-1.0435e-12
7.9661e-14
-5.78246e-13
-8.68523e-13
-8.53751e-14
-8.76786e-13
-1.06677e-12
-1.79746e-13
-8.53561e-13
-9.13326e-13
-3.07848e-13
-6.82636e-13
-1.21265e-12
-4.5119e-13
-6.03779e-13
-1.0768e-12
2.21498e-14
-4.75214e-13
-7.32089e-13
-8.83506e-14
-6.51458e-13
-7.05346e-13
-1.32743e-13
-4.0156e-13
-4.01027e-13
2.78655e-13
-5.74291e-14
-1.89049e-13
2.2039e-13
-4.27414e-13
-5.92865e-13
-2.37065e-13
-1.19114e-13
-3.44449e-13
3.11217e-13
-1.13898e-13
-3.88155e-13
2.26851e-13
-4.4596e-13
-6.56716e-13
-1.14345e-13
-4.50871e-13
-1.11995e-13
2.76178e-13
-1.13075e-14
-1.52116e-13
-8.67775e-14
-4.43461e-14
-4.40777e-14
-1.36664e-13
-7.21133e-13
3.19381e-13
8.01648e-14
-8.98308e-13
7.65718e-14
-3.59645e-13
-6.25091e-13
1.25849e-13
-2.53938e-13
-6.79935e-13
-1.10702e-13
-9.29242e-13
-5.14054e-13
-1.12256e-13
-8.02581e-13
-5.91731e-13
-1.2787e-13
-9.00946e-13
-6.1585e-13
-2.20417e-13
-5.24009e-13
-5.03116e-13
2.54774e-13
-8.0458e-13
-9.62948e-13
4.04823e-13
-7.14086e-13
-6.87209e-13
4.1862e-14
-4.31949e-13
-3.51079e-13
-3.17576e-13
-4.26709e-13
-2.39046e-13
-2.64243e-13
-3.44623e-13
-2.48678e-13
9.79293e-14
-2.06097e-13
-6.90846e-13
2.81258e-14
-2.01217e-13
-3.73592e-13
-2.27228e-13
-4.93709e-14
-1.38473e-13
5.57759e-14
1.8971e-13
-5.00553e-13
3.74654e-13
-1.81413e-13
-3.76236e-13
1.94631e-13
-1.14559e-13
2.03191e-13
2.04616e-13
1.20361e-13
-6.86926e-14
-1.30875e-13
-6.58525e-13
-2.1183e-13
-2.70891e-13
-8.66165e-13
8.96762e-15
-3.95775e-13
-5.24958e-13
4.39649e-13
-1.58887e-13
-8.27211e-13
-4.11614e-13
-8.21491e-13
-5.54199e-13
-2.73418e-13
-4.79953e-13
-1.68458e-13
-1.3957e-13
-1.6694e-13
-2.13297e-13
-3.54856e-13
-2.92818e-13
-4.04368e-13
-7.63266e-14
-5.64189e-13
-7.33193e-13
-1.65788e-16
-5.29725e-13
-6.06863e-13
1.59459e-15
-4.54804e-13
-6.47726e-13
-5.00519e-13
-2.34921e-13
-3.7069e-13
-5.27528e-13
-7.13738e-13
-2.51386e-13
-4.37313e-13
-6.15964e-13
-3.95288e-13
2.19304e-13
-1.63554e-13
8.44332e-14
3.7348e-13
-8.02336e-13
-8.3616e-13
-7.77631e-13
-2.8171e-13
-2.92901e-13
2.58362e-13
-3.79072e-13
-6.36509e-14
-2.84371e-13
-3.75379e-13
3.42139e-13
4.53635e-14
3.49432e-13
2.54739e-14
2.44381e-13
1.98239e-13
-3.61289e-15
-2.62451e-13
-6.4508e-13
-3.63058e-13
-3.17293e-13
-1.53595e-13
-1.89801e-13
-1.10623e-13
-5.54953e-13
-2.5864e-13
-3.93944e-13
-1.53523e-13
-3.72315e-13
-1.52125e-13
1.18778e-13
1.05079e-13
-5.7788e-13
-3.83965e-13
-3.01479e-13
-4.30023e-13
-8.96549e-14
6.46539e-14
-5.74353e-13
-2.08064e-13
-3.75874e-13
-2.77355e-13
2.80768e-13
3.92579e-14
-9.6652e-15
-1.59132e-13
6.55086e-14
-2.32056e-13
-4.02602e-13
-7.68367e-15
-5.65079e-13
-6.2909e-14
3.91657e-14
-1.49678e-13
-1.93995e-13
1.82356e-13
-1.20915e-13
-1.87258e-13
-9.05264e-14
-3.64999e-13
-3.5135e-13
-1.20478e-13
-2.01489e-14
1.01653e-13
5.4517e-13
-1.30841e-13
-2.18727e-13
-6.50904e-14
-3.0303e-13
-3.87187e-14
1.91686e-13
5.14188e-14
-2.52158e-13
-4.93175e-14
-2.03847e-13
3.4668e-14
2.82899e-13
-4.86252e-13
-7.27669e-14