/*--------------------------------*- C++ -*----------------------------------*\
| =========                 |                                                 |
| \\      /  F ield         | OpenFOAM: The Open Source CFD Toolbox           |
|  \\    /   O peration     | Version:  v2012                                 |
|   \\  /    A nd           | Website:  www.openfoam.com                      |
|    \\/     M anipulation  |                                                 |
\*---------------------------------------------------------------------------*/
FoamFile
{
    version     2.0;
    format      ascii;
    class       volScalarField;
    location    "2000";
    object      epsilon;
}
// * * * * * * * * * * * * * * * * * * * * * * * * * * * * * * * * * * * * * //

dimensions      [0 2 -3 0 0 0 0];


internalField   nonuniform List<scalar> 
4000
(
2.14084e-07
1.32097e-07
5.80995e-08
2.19847e-08
1.44171e-08
1.18266e-08
8.14277e-09
7.37478e-09
7.34821e-09
7.64428e-09
7.75664e-09
7.68158e-09
7.80859e-09
9.33931e-09
1.25182e-08
1.59796e-08
2.09462e-08
6.47287e-08
1.7142e-07
2.70118e-07
3.65569e-07
3.25515e-07
2.742e-07
2.04538e-07
1.39854e-07
5.51813e-08
1.61915e-08
1.52965e-08
1.62955e-08
1.73536e-08
1.67187e-08
1.53331e-08
1.51232e-08
2.11904e-08
9.11795e-08
1.43081e-07
1.9277e-07
2.44427e-07
3.12648e-07
3.75504e-07
4.24674e-07
3.83602e-07
3.10792e-07
2.28989e-07
1.5885e-07
9.52802e-08
4.41539e-08
1.90103e-08
2.18347e-08
2.34881e-08
2.15504e-08
1.79152e-08
2.61158e-08
6.53066e-08
1.09553e-07
1.6227e-07
2.21524e-07
2.92e-07
3.67812e-07
4.30372e-07
4.56987e-07
4.29011e-07
3.5652e-07
2.60455e-07
1.73828e-07
1.14272e-07
7.15128e-08
4.11404e-08
2.43899e-08
3.07776e-08
2.79176e-08
2.50324e-08
4.19114e-08
7.21293e-08
1.07817e-07
1.58601e-07
2.37065e-07
3.31509e-07
4.14385e-07
4.61615e-07
4.78815e-07
4.70225e-07
4.20375e-07
3.54338e-07
2.89321e-07
2.37999e-07
1.97901e-07
1.62627e-07
1.34864e-07
1.19798e-07
1.30403e-07
1.50844e-07
1.73761e-07
2.00708e-07
2.33805e-07
2.77348e-07
3.35343e-07
4.0251e-07
4.61102e-07
4.83136e-07
4.97465e-07
5.13744e-07
5.01131e-07
4.76026e-07
4.47305e-07
4.18205e-07
3.90782e-07
3.63302e-07
3.36235e-07
3.12377e-07
3.17127e-07
3.38108e-07
3.6208e-07
3.86791e-07
4.12029e-07
4.38945e-07
4.67082e-07
4.9459e-07
5.12876e-07
5.0195e-07
5.17351e-07
5.61767e-07
5.86812e-07
5.9994e-07
6.05403e-07
6.01239e-07
5.88378e-07
5.67573e-07
5.39164e-07
5.05286e-07
5.05056e-07
5.30342e-07
5.56059e-07
5.76824e-07
5.91073e-07
5.98061e-07
5.96474e-07
5.87264e-07
5.66389e-07
5.2093e-07
5.41307e-07
6.16215e-07
6.78273e-07
7.26003e-07
7.62302e-07
7.84867e-07
7.91184e-07
7.79549e-07
7.49785e-07
7.02572e-07
6.97161e-07
7.29621e-07
7.57496e-07
7.72204e-07
7.70873e-07
7.54089e-07
7.23797e-07
6.81385e-07
6.23202e-07
5.43423e-07
5.74691e-07
6.88799e-07
7.90332e-07
8.73925e-07
9.42544e-07
9.93331e-07
1.02272e-06
1.02606e-06
9.96996e-07
9.3069e-07
9.19029e-07
9.63124e-07
9.92018e-07
9.95488e-07
9.7346e-07
9.29593e-07
8.68508e-07
7.91862e-07
6.94344e-07
5.74626e-07
6.26109e-07
7.87957e-07
9.39353e-07
1.06576e-06
1.17452e-06
1.26422e-06
1.33015e-06
1.36566e-06
1.35931e-06
1.29367e-06
1.26768e-06
1.30617e-06
1.31373e-06
1.28843e-06
1.23388e-06
1.15487e-06
1.05598e-06
9.37418e-07
7.90367e-07
6.22768e-07
1.32097e-07
9.67453e-08
5.94276e-08
3.75404e-08
3.02473e-08
2.84831e-08
1.60658e-08
1.23252e-08
1.18375e-08
1.227e-08
1.22431e-08
1.22234e-08
1.42884e-08
2.30091e-08
2.99416e-08
3.22405e-08
3.74368e-08
8.15461e-08
1.59418e-07
2.25706e-07
3.25515e-07
4.37643e-07
3.56961e-07
2.71122e-07
2.14161e-07
1.26553e-07
3.69687e-08
1.87076e-08
1.49321e-08
1.48112e-08
1.52854e-08
1.78117e-08
3.04121e-08
7.91119e-08
1.64875e-07
2.32384e-07
2.85974e-07
3.64717e-07
4.65876e-07
3.53258e-07
3.83602e-07
3.71097e-07
3.13142e-07
2.30753e-07
1.72887e-07
1.20067e-07
7.66752e-08
4.22993e-08
2.25688e-08
1.90624e-08
2.03234e-08
2.9064e-08
5.26219e-08
8.88186e-08
1.34037e-07
1.80057e-07
2.34079e-07
3.22804e-07
4.1515e-07
4.17526e-07
4.29011e-07
3.96887e-07
3.55065e-07
2.72276e-07
1.789e-07
1.20975e-07
8.13706e-08
5.38965e-08
3.80672e-08
3.15844e-08
3.09981e-08
3.70848e-08
5.50957e-08
8.28068e-08
1.16686e-07
1.58798e-07
2.3033e-07
3.27055e-07
4.06193e-07
4.59342e-07
4.70225e-07
4.32384e-07
4.0407e-07
3.39282e-07
2.39699e-07
1.74686e-07
1.29603e-07
9.46897e-08
7.17061e-08
6.48471e-08
6.84703e-08
7.69494e-08
9.62151e-08
1.27381e-07
1.6345e-07
2.09984e-07
2.94785e-07
3.82972e-07
4.38853e-07
4.93686e-07
5.13744e-07
4.71765e-07
4.5242e-07
4.18553e-07
3.56617e-07
2.75748e-07
2.23612e-07
1.83722e-07
1.59233e-07
1.48954e-07
1.51351e-07
1.61234e-07
1.80894e-07
2.12963e-07
2.55783e-07
3.17738e-07
3.8573e-07
4.40587e-07
4.75906e-07
5.27138e-07
5.61767e-07
5.12746e-07
4.93168e-07
4.78164e-07
4.63214e-07
4.09981e-07
3.3615e-07
2.84469e-07
2.50827e-07
2.31714e-07
2.31919e-07
2.45754e-07
2.71128e-07
3.11853e-07
3.74694e-07
4.33482e-07
4.63245e-07
4.84159e-07
5.11932e-07
5.65445e-07
6.16215e-07
5.76005e-07
5.61261e-07
5.59345e-07
5.79778e-07
5.89817e-07
5.7632e-07
5.35104e-07
4.77251e-07
4.14192e-07
4.14322e-07
4.61244e-07
5.09731e-07
5.46274e-07
5.61058e-07
5.59116e-07
5.48291e-07
5.51828e-07
5.73551e-07
6.12834e-07
6.88799e-07
7.23744e-07
7.64001e-07
8.00855e-07
8.47114e-07
8.91045e-07
9.17096e-07
9.09873e-07
8.52475e-07
7.39522e-07
7.3095e-07
8.1322e-07
8.69185e-07
8.82858e-07
8.6078e-07
8.19182e-07
7.79444e-07
7.50465e-07
7.19712e-07
6.78046e-07
7.87957e-07
9.8458e-07
1.17495e-06
1.34509e-06
1.50515e-06
1.65041e-06
1.76795e-06
1.84124e-06
1.84706e-06
1.76075e-06
1.70989e-06
1.75895e-06
1.75717e-06
1.70045e-06
1.59876e-06
1.46685e-06
1.31887e-06
1.15704e-06
9.69988e-07
7.66732e-07
5.80995e-08
5.94276e-08
4.95657e-08
4.26304e-08
4.504e-08
4.22114e-08
2.62779e-08
1.81263e-08
1.57632e-08
1.57442e-08
1.54177e-08
1.57813e-08
2.009e-08
3.29984e-08
4.55287e-08
5.0578e-08
5.29889e-08
6.91167e-08
1.2152e-07
1.54343e-07
2.742e-07
3.56961e-07
3.14796e-07
2.68368e-07
2.27082e-07
1.35931e-07
5.17375e-08
2.62781e-08
1.90473e-08
1.84318e-08
2.00758e-08
2.65599e-08
4.46149e-08
9.59508e-08
1.84731e-07
2.50652e-07
2.88808e-07
3.37979e-07
3.96436e-07
2.88165e-07
3.10792e-07
3.13142e-07
2.71672e-07
2.15398e-07
1.7385e-07
1.26863e-07
8.75205e-08
5.27847e-08
3.08584e-08
2.39254e-08
2.74282e-08
4.04317e-08
6.49686e-08
1.0138e-07
1.45827e-07
1.87193e-07
2.30626e-07
3.0149e-07
3.76387e-07
3.64729e-07
3.5652e-07
3.55065e-07
3.20392e-07
2.45321e-07
1.73537e-07
1.24323e-07
9.0071e-08
6.61224e-08
4.87586e-08
3.39473e-08
3.49582e-08
4.74746e-08
6.59783e-08
9.18773e-08
1.23144e-07
1.60442e-07
2.18169e-07
3.01484e-07
3.7565e-07
4.14359e-07
4.20375e-07
4.0407e-07
3.55335e-07
2.85393e-07
1.99562e-07
1.429e-07
1.0564e-07
7.71552e-08
5.64226e-08
4.34711e-08
4.28416e-08
5.65696e-08
7.72393e-08
1.02546e-07
1.31712e-07
1.74494e-07
2.52508e-07
3.43491e-07
4.20187e-07
4.67421e-07
5.01131e-07
4.5242e-07
3.88766e-07
3.23365e-07
2.46684e-07
1.81362e-07
1.38316e-07
1.0525e-07
8.19638e-08
7.10731e-08
7.15009e-08
7.98299e-08
9.94512e-08
1.27274e-07
1.6045e-07
2.12435e-07
2.95445e-07
3.83652e-07
4.66258e-07
5.27997e-07
5.86812e-07
4.93168e-07
4.15834e-07
3.38966e-07
2.81412e-07
2.26582e-07
1.79409e-07
1.44314e-07
1.19872e-07
1.07299e-07
1.07048e-07
1.1521e-07
1.33132e-07
1.60455e-07
1.97722e-07
2.46315e-07
3.16141e-07
4.11388e-07
5.09538e-07
5.95964e-07
6.78273e-07
5.61261e-07
4.8983e-07
3.8647e-07
3.23722e-07
2.98168e-07
2.70215e-07
2.41727e-07
2.12174e-07
1.84848e-07
1.80681e-07
2.00243e-07
2.26249e-07
2.5184e-07
2.75969e-07
3.0115e-07
3.64929e-07
4.7841e-07
5.79472e-07
6.73917e-07
7.90332e-07
7.64001e-07
8.07694e-07
8.58026e-07
8.93537e-07
9.26772e-07
9.70321e-07
9.63379e-07
8.6667e-07
7.01953e-07
6.86157e-07
8.28618e-07
9.36381e-07
9.56106e-07
9.11082e-07
8.60313e-07
8.41143e-07
8.05725e-07
7.72523e-07
7.76451e-07
9.39353e-07
1.17495e-06
1.40002e-06
1.60802e-06
1.81576e-06
2.01798e-06
2.19318e-06
2.3117e-06
2.3344e-06
2.22289e-06
2.1404e-06
2.2059e-06
2.193e-06
2.09909e-06
1.94401e-06
1.75751e-06
1.56561e-06
1.36754e-06
1.14645e-06
9.06466e-07
2.19847e-08
3.75404e-08
4.26304e-08
4.77338e-08
5.7123e-08
4.9572e-08
3.29546e-08
2.36537e-08
2.00988e-08
1.96868e-08
1.88915e-08
1.99266e-08
2.66671e-08
4.17673e-08
5.81366e-08
6.24698e-08
5.93168e-08
5.65998e-08
6.44574e-08
6.38529e-08
2.04538e-07
2.71122e-07
2.68368e-07
2.5183e-07
2.04712e-07
1.12437e-07
5.07225e-08
3.09486e-08
2.38618e-08
2.38093e-08
2.55745e-08
3.14601e-08
4.74605e-08
9.11507e-08
1.722e-07
2.37917e-07
2.69202e-07
2.91024e-07
3.04787e-07
2.34605e-07
2.28989e-07
2.30753e-07
2.15398e-07
1.90462e-07
1.5978e-07
1.20329e-07
8.49434e-08
5.32595e-08
3.5164e-08
2.94545e-08
3.29055e-08
4.47417e-08
6.79986e-08
1.02363e-07
1.4241e-07
1.79502e-07
2.10532e-07
2.52758e-07
2.98922e-07
2.97419e-07
2.60455e-07
2.72276e-07
2.45321e-07
1.9824e-07
1.53328e-07
1.18039e-07
9.16731e-08
7.0657e-08
5.20822e-08
3.82774e-08
4.04635e-08
5.2527e-08
7.05166e-08
9.42277e-08
1.22553e-07
1.55234e-07
1.99697e-07
2.62067e-07
3.20849e-07
3.43093e-07
3.54338e-07
3.39282e-07
2.85393e-07
2.25031e-07
1.66729e-07
1.25897e-07
9.75109e-08
7.49231e-08
5.65579e-08
4.28222e-08
4.26779e-08
5.65951e-08
7.47604e-08
9.58473e-08
1.21166e-07
1.587e-07
2.21517e-07
3.01256e-07
3.81892e-07
4.18062e-07
4.76026e-07
4.18553e-07
3.23365e-07
2.51542e-07
1.89292e-07
1.42485e-07
1.09516e-07
8.28938e-08
6.14158e-08
4.63249e-08
4.39421e-08
5.86814e-08
7.90772e-08
1.02233e-07
1.2933e-07
1.7214e-07
2.44254e-07
3.33743e-07
4.40617e-07
5.12027e-07
5.9994e-07
4.78164e-07
3.38966e-07
2.58029e-07
2.03815e-07
1.62332e-07
1.2967e-07
1.03053e-07
8.18114e-08
6.79672e-08
6.52824e-08
7.70503e-08
9.59218e-08
1.17555e-07
1.43017e-07
1.81421e-07
2.48489e-07
3.5091e-07
4.89513e-07
6.11779e-07
7.26003e-07
5.59345e-07
3.8647e-07
2.9443e-07
2.66102e-07
2.54326e-07
2.44533e-07
2.30204e-07
2.04431e-07
1.701e-07
1.62066e-07
1.96091e-07
2.29477e-07
2.42982e-07
2.44022e-07
2.48567e-07
2.8579e-07
4.15229e-07
5.70695e-07
7.21153e-07
8.73925e-07
8.00855e-07
8.58026e-07
9.17919e-07
1.07448e-06
1.26681e-06
1.42699e-06
1.49461e-06
1.40611e-06
1.16949e-06
1.11719e-06
1.33207e-06
1.47196e-06
1.42652e-06
1.25627e-06
1.04909e-06
9.34715e-07
8.89075e-07
8.15348e-07
8.57789e-07
1.06576e-06
1.34509e-06
1.60802e-06
1.85736e-06
2.12653e-06
2.40501e-06
2.65993e-06
2.84713e-06
2.91319e-06
2.81252e-06
2.67516e-06
2.72632e-06
2.68153e-06
2.52918e-06
2.30209e-06
2.04456e-06
1.79875e-06
1.5612e-06
1.30258e-06
1.02228e-06
1.44171e-08
3.02473e-08
4.504e-08
5.7123e-08
6.10302e-08
4.8855e-08
3.55896e-08
2.73419e-08
2.42418e-08
2.44468e-08
2.27352e-08
2.3904e-08
3.15304e-08
4.57946e-08
6.27099e-08
6.87971e-08
6.3962e-08
5.54765e-08
4.34516e-08
2.18487e-08
1.39854e-07
2.14161e-07
2.27082e-07
2.04712e-07
1.45779e-07
7.82145e-08
4.52747e-08
3.14031e-08
2.77992e-08
3.09048e-08
2.96524e-08
3.27466e-08
4.51621e-08
7.52944e-08
1.37428e-07
2.03481e-07
2.40935e-07
2.51951e-07
2.43382e-07
1.93209e-07
1.5885e-07
1.72887e-07
1.7385e-07
1.5978e-07
1.33948e-07
1.04797e-07
7.29656e-08
4.8113e-08
3.59351e-08
3.43669e-08
3.5228e-08
4.38145e-08
6.33741e-08
9.35589e-08
1.27638e-07
1.60817e-07
1.84412e-07
2.0341e-07
2.19347e-07
2.214e-07
1.73828e-07
1.789e-07
1.73537e-07
1.53328e-07
1.2879e-07
1.06357e-07
8.73549e-08
6.7798e-08
5.03637e-08
4.16832e-08
4.28807e-08
5.26524e-08
6.93303e-08
8.98408e-08
1.13636e-07
1.39487e-07
1.68542e-07
2.03988e-07
2.42171e-07
2.5787e-07
2.89321e-07
2.39698e-07
1.99562e-07
1.66729e-07
1.35408e-07
1.10314e-07
9.0407e-08
7.32556e-08
5.89584e-08
4.98075e-08
4.96191e-08
5.82474e-08
7.27178e-08
9.0175e-08
1.114e-07
1.40491e-07
1.84452e-07
2.44557e-07
3.21683e-07
3.62527e-07
4.47305e-07
3.56616e-07
2.46684e-07
1.89292e-07
1.48933e-07
1.18443e-07
9.47372e-08
7.47597e-08
5.88478e-08
5.03526e-08
4.96053e-08
5.78429e-08
7.35051e-08
9.20884e-08
1.14799e-07
1.48822e-07
2.04241e-07
2.84535e-07
4.05763e-07
4.8818e-07
6.05403e-07
4.63214e-07
2.81412e-07
2.03815e-07
1.61881e-07
1.32892e-07
1.09984e-07
9.09203e-08
7.61225e-08
6.95869e-08
7.06006e-08
7.69349e-08
8.99955e-08
1.05562e-07
1.24922e-07
1.55344e-07
2.09255e-07
3.0077e-07
4.73134e-07
6.1713e-07
7.62302e-07
5.79778e-07
3.23722e-07
2.66102e-07
2.59496e-07
2.65816e-07
2.72527e-07
2.71037e-07
2.47124e-07
2.05677e-07
1.98573e-07
2.462e-07
2.80974e-07
2.81641e-07
2.66058e-07
2.55899e-07
2.70614e-07
3.35385e-07
5.82066e-07
7.55047e-07
9.42544e-07
8.47114e-07
8.93537e-07
1.07448e-06
1.43188e-06
1.7867e-06
2.0471e-06
2.17595e-06
2.01516e-06
1.60127e-06
1.49506e-06
1.86039e-06
2.1073e-06
2.01951e-06
1.74468e-06
1.41128e-06
1.1188e-06
9.84807e-07
8.61629e-07
9.22222e-07
1.17452e-06
1.50515e-06
1.81576e-06
2.12653e-06
2.49048e-06
2.86527e-06
3.21278e-06
3.48297e-06
3.6071e-06
3.53263e-06
3.3183e-06
3.33949e-06
3.24705e-06
3.02339e-06
2.71398e-06
2.37333e-06
2.04484e-06
1.75018e-06
1.44571e-06
1.11977e-06
1.18266e-08
2.84831e-08
4.22114e-08
4.9572e-08
4.88551e-08
4.20404e-08
3.46473e-08
2.93081e-08
2.79623e-08
2.96415e-08
2.69827e-08
2.76773e-08
3.4467e-08
4.55254e-08
5.86459e-08
6.70492e-08
6.5358e-08
5.6182e-08
4.07505e-08
1.63139e-08
5.51813e-08
1.26553e-07
1.35931e-07
1.12437e-07
7.82145e-08
5.30627e-08
3.83548e-08
3.00743e-08
3.05359e-08
3.75845e-08
3.32577e-08
3.3191e-08
4.13391e-08
5.89603e-08
9.37358e-08
1.45458e-07
1.90894e-07
2.09994e-07
1.99242e-07
1.40407e-07
9.52802e-08
1.20067e-07
1.26863e-07
1.20329e-07
1.04797e-07
8.11561e-08
5.79388e-08
4.14988e-08
3.57078e-08
3.88653e-08
3.58084e-08
4.07203e-08
5.47454e-08
7.76994e-08
1.0579e-07
1.31956e-07
1.52652e-07
1.63197e-07
1.62493e-07
1.50807e-07
1.14272e-07
1.20975e-07
1.24323e-07
1.18039e-07
1.06357e-07
9.30193e-08
7.71915e-08
5.90839e-08
4.66597e-08
4.4971e-08
4.25416e-08
4.93566e-08
6.36455e-08
8.09312e-08
9.9193e-08
1.17722e-07
1.34873e-07
1.49925e-07
1.6241e-07
1.7602e-07
2.37999e-07
1.74686e-07
1.429e-07
1.25897e-07
1.10314e-07
9.55806e-08
8.18541e-08
6.88774e-08
5.85261e-08
5.63732e-08
5.26403e-08
5.71832e-08
6.83176e-08
8.2049e-08
9.82492e-08
1.17801e-07
1.42946e-07
1.77028e-07
2.33647e-07
3.08862e-07
4.18205e-07
2.75748e-07
1.81362e-07
1.42485e-07
1.18443e-07
9.93145e-08
8.30096e-08
6.90561e-08
5.94905e-08
6.13233e-08
5.91299e-08
5.89967e-08
6.91378e-08
8.32556e-08
1.01108e-07
1.25627e-07
1.627e-07
2.23312e-07
3.47807e-07
4.59605e-07
6.01239e-07
4.09981e-07
2.26582e-07
1.62332e-07
1.32892e-07
1.13741e-07
9.87903e-08
8.70786e-08
8.02163e-08
8.69628e-08
9.15371e-08
8.52073e-08
9.02128e-08
9.99831e-08
1.1442e-07
1.37391e-07
1.7731e-07
2.55072e-07
4.50285e-07
6.1207e-07
7.84867e-07
5.89817e-07
2.98168e-07
2.54326e-07
2.65816e-07
2.91476e-07
3.17384e-07
3.25518e-07
2.92757e-07
2.3829e-07
2.35495e-07
2.95093e-07
3.37158e-07
3.29637e-07
2.9855e-07
2.7301e-07
2.68731e-07
3.0826e-07
5.88625e-07
7.72416e-07
9.93331e-07
8.91045e-07
9.26772e-07
1.26681e-06
1.7867e-06
2.28734e-06
2.70317e-06
2.86257e-06
2.52041e-06
1.86099e-06
1.72857e-06
2.29869e-06
2.72249e-06
2.62074e-06
2.20466e-06
1.7278e-06
1.29115e-06
9.97571e-07
8.87139e-07
9.63732e-07
1.26422e-06
1.65041e-06
2.01798e-06
2.40501e-06
2.86527e-06
3.3447e-06
3.80314e-06
4.1785e-06
4.39597e-06
4.40803e-06
4.09183e-06
4.03282e-06
3.85661e-06
3.53982e-06
3.133e-06
2.70013e-06
2.28531e-06
1.92294e-06
1.56989e-06
1.19759e-06
8.14277e-09
1.60658e-08
2.62779e-08
3.29546e-08
3.55896e-08
3.46473e-08
3.22499e-08
3.04484e-08
3.20718e-08
3.69919e-08
3.28034e-08
3.15532e-08
3.57629e-08
4.20617e-08
4.85272e-08
5.30856e-08
5.36116e-08
4.74193e-08
3.29942e-08
1.29811e-08
1.61915e-08
3.69687e-08
5.17376e-08
5.07225e-08
4.52747e-08
3.83548e-08
3.203e-08
2.88805e-08
3.57897e-08
5.35065e-08
4.23837e-08
3.44593e-08
3.75159e-08
4.597e-08
5.96548e-08
8.09685e-08
1.09567e-07
1.2937e-07
1.21642e-07
6.39177e-08
4.41539e-08
7.66752e-08
8.75205e-08
8.49434e-08
7.29656e-08
5.79388e-08
4.48967e-08
3.59129e-08
3.88074e-08
5.38142e-08
4.16434e-08
3.8291e-08
4.58834e-08
5.96939e-08
7.88486e-08
9.86433e-08
1.12221e-07
1.16768e-07
1.09268e-07
8.89673e-08
7.15128e-08
8.13706e-08
9.0071e-08
9.16731e-08
8.73549e-08
7.71915e-08
6.29824e-08
4.9402e-08
4.77984e-08
6.59245e-08
5.02692e-08
4.58414e-08
5.54006e-08
6.94862e-08
8.33374e-08
9.50172e-08
1.03603e-07
1.08092e-07
1.10443e-07
1.21943e-07
1.979e-07
1.29603e-07
1.0564e-07
9.75109e-08
9.0407e-08
8.18541e-08
7.2231e-08
6.22508e-08
6.097e-08
9.13589e-08
6.81109e-08
5.55277e-08
6.25344e-08
7.28681e-08
8.43461e-08
9.6418e-08
1.09676e-07
1.28898e-07
1.74313e-07
2.65353e-07
3.90782e-07
2.23612e-07
1.38316e-07
1.09516e-07
9.47372e-08
8.30096e-08
7.24408e-08
6.37639e-08
6.51325e-08
1.13321e-07
8.8335e-08
6.06482e-08
6.40596e-08
7.39224e-08
8.67053e-08
1.02869e-07
1.25663e-07
1.67007e-07
2.71495e-07
4.29042e-07
5.88377e-07
3.36149e-07
1.79409e-07
1.2967e-07
1.09984e-07
9.87903e-08
9.10256e-08
8.64752e-08
9.24926e-08
1.56382e-07
1.42799e-07
9.48783e-08
9.04644e-08
9.49051e-08
1.03963e-07
1.19278e-07
1.4672e-07
2.09531e-07
4.01442e-07
5.9711e-07
7.91183e-07
5.76319e-07
2.70215e-07
2.44533e-07
2.72527e-07
3.17384e-07
3.59183e-07
3.66205e-07
3.1357e-07
2.92009e-07
2.84924e-07
3.18034e-07
3.75083e-07
3.68513e-07
3.25858e-07
2.84524e-07
2.61927e-07
2.80663e-07
5.75651e-07
7.73523e-07
1.02272e-06
9.17096e-07
9.7032e-07
1.42699e-06
2.0471e-06
2.70317e-06
3.24565e-06
3.35317e-06
2.67679e-06
2.2253e-06
2.04025e-06
2.5072e-06
3.18667e-06
3.1044e-06
2.57684e-06
1.97148e-06
1.40814e-06
9.93612e-07
8.92009e-07
9.83428e-07
1.33015e-06
1.76795e-06
2.19318e-06
2.65993e-06
3.21278e-06
3.80314e-06
4.38864e-06
4.91002e-06
5.31808e-06
5.62093e-06
5.14375e-06
4.83993e-06
4.49368e-06
4.04526e-06
3.52698e-06
2.99738e-06
2.49734e-06
2.0672e-06
1.66691e-06
1.25277e-06
7.37478e-09
1.23252e-08
1.81263e-08
2.36537e-08
2.73419e-08
2.93081e-08
3.04484e-08
3.23365e-08
3.79538e-08
4.65364e-08
4.04807e-08
3.62008e-08
3.63311e-08
3.73998e-08
3.82122e-08
3.78961e-08
3.57898e-08
3.05619e-08
1.95706e-08
8.37224e-09
1.52965e-08
1.87076e-08
2.62781e-08
3.09486e-08
3.14031e-08
3.00743e-08
2.88805e-08
3.21042e-08
5.01098e-08
8.54602e-08
6.27928e-08
4.10452e-08
3.62266e-08
3.72212e-08
4.06626e-08
4.53947e-08
5.12443e-08
5.45911e-08
4.47877e-08
1.69026e-08
1.90103e-08
4.22993e-08
5.27847e-08
5.32595e-08
4.8113e-08
4.14988e-08
3.59129e-08
3.54813e-08
5.76435e-08
1.63808e-07
1.07213e-07
4.49032e-08
4.05394e-08
4.53734e-08
5.43394e-08
6.57198e-08
7.55163e-08
7.72715e-08
6.67057e-08
4.57295e-08
4.11404e-08
5.38965e-08
6.61224e-08
7.0657e-08
6.7798e-08
5.90839e-08
4.9402e-08
4.58667e-08
8.03491e-08
3.17272e-07
1.99641e-07
5.77671e-08
4.89751e-08
5.65539e-08
6.71949e-08
7.54991e-08
7.84963e-08
7.68074e-08
7.43808e-08
8.4992e-08
1.62627e-07
9.46896e-08
7.71552e-08
7.49231e-08
7.32556e-08
6.88774e-08
6.22508e-08
6.00355e-08
1.18066e-07
5.72531e-07
3.60308e-07
7.89533e-08
5.87828e-08
6.43402e-08
7.17367e-08
7.83417e-08
8.44497e-08
9.57259e-08
1.3369e-07
2.29669e-07
3.63302e-07
1.83722e-07
1.0525e-07
8.28938e-08
7.47597e-08
6.90561e-08
6.37639e-08
6.51047e-08
1.50061e-07
8.70236e-07
5.54968e-07
9.89659e-08
6.23438e-08
6.56269e-08
7.3249e-08
8.25805e-08
9.62884e-08
1.2719e-07
2.21229e-07
3.98666e-07
5.67573e-07
2.84469e-07
1.44314e-07
1.03053e-07
9.09202e-08
8.70786e-08
8.64752e-08
9.47995e-08
2.07556e-07
1.12732e-06
7.68764e-07
1.55006e-07
9.4581e-08
9.07719e-08
9.36774e-08
1.01164e-07
1.18215e-07
1.66914e-07
3.30102e-07
5.73232e-07
7.79549e-07
5.35104e-07
2.41727e-07
2.30204e-07
2.71037e-07
3.25518e-07
3.66205e-07
3.53798e-07
3.72323e-07
1.15484e-06
8.5617e-07
3.41868e-07
3.66488e-07
3.75609e-07
3.34049e-07
2.82627e-07
2.44948e-07
2.46898e-07
5.44708e-07
7.58241e-07
1.02606e-06
9.09872e-07
9.63378e-07
1.49461e-06
2.17595e-06
2.86257e-06
3.35317e-06
3.11318e-06
2.74917e-06
4.06281e-06
3.46944e-06
2.51684e-06
3.08993e-06
3.2378e-06
2.73672e-06
2.07994e-06
1.44473e-06
9.55826e-07
8.69088e-07
9.79098e-07
1.36566e-06
1.84124e-06
2.3117e-06
2.84713e-06
3.48297e-06
4.1785e-06
4.91002e-06
5.6632e-06
6.52567e-06
7.58895e-06
6.80532e-06
5.85616e-06
5.13499e-06
4.48891e-06
3.84582e-06
3.22372e-06
2.64894e-06
2.16002e-06
1.72364e-06
1.28007e-06
7.34821e-09
1.18375e-08
1.57632e-08
2.00988e-08
2.42418e-08
2.79623e-08
3.20718e-08
3.79538e-08
4.5711e-08
5.52316e-08
4.7852e-08
4.20912e-08
3.82597e-08
3.41751e-08
3.08861e-08
2.79478e-08
2.47535e-08
2.02192e-08
1.28613e-08
6.89342e-09
1.62955e-08
1.49321e-08
1.90473e-08
2.38618e-08
2.77992e-08
3.05359e-08
3.57897e-08
5.01098e-08
8.57686e-08
5.94802e-07
4.30357e-07
6.77143e-08
4.60348e-08
3.67217e-08
3.30245e-08
3.16415e-08
3.08011e-08
2.75363e-08
1.92494e-08
1.52501e-08
2.18347e-08
2.25688e-08
3.08584e-08
3.5164e-08
3.59351e-08
3.57078e-08
3.88074e-08
5.76435e-08
2.2233e-07
2.43564e-06
1.81885e-06
1.56047e-07
5.12247e-08
4.05771e-08
3.98537e-08
4.25821e-08
4.60057e-08
4.63185e-08
3.72134e-08
1.93862e-08
2.43899e-08
3.80672e-08
4.87586e-08
5.20822e-08
5.03637e-08
4.66597e-08
4.77983e-08
8.03491e-08
4.79341e-07
4.79838e-06
3.62237e-06
3.16825e-07
6.62511e-08
4.88535e-08
5.03909e-08
5.51381e-08
5.70926e-08
5.4009e-08
4.93664e-08
5.69236e-08
1.34864e-07
7.17061e-08
5.64226e-08
5.65579e-08
5.89584e-08
5.85261e-08
6.097e-08
1.18066e-07
9.08207e-07
7.85641e-06
6.05746e-06
5.7766e-07
8.70005e-08
5.93537e-08
5.95527e-08
6.14449e-08
6.32754e-08
7.1516e-08
1.07077e-07
2.02529e-07
3.36235e-07
1.59233e-07
8.19637e-08
6.14158e-08
5.88478e-08
5.94905e-08
6.51325e-08
1.50061e-07
1.42299e-06
1.10045e-05
8.5447e-06
8.69801e-07
1.03955e-07
6.28995e-08
6.15292e-08
6.41425e-08
7.19021e-08
9.88402e-08
1.87551e-07
3.70174e-07
5.39164e-07
2.50827e-07
1.19872e-07
8.18114e-08
7.61224e-08
8.02163e-08
9.24925e-08
2.07556e-07
1.87467e-06
1.30279e-05
1.01049e-05
1.16327e-06
1.53839e-07
9.26862e-08
8.52531e-08
8.41209e-08
9.27681e-08
1.3274e-07
2.69642e-07
5.43103e-07
7.49785e-07
4.77251e-07
2.12174e-07
2.04431e-07
2.47124e-07
2.92757e-07
3.1357e-07
3.72323e-07
1.87152e-06
1.24673e-05
9.55685e-06
1.18574e-06
3.45506e-07
3.30157e-07
3.06529e-07
2.58939e-07
2.15082e-07
2.10611e-07
4.97608e-07
7.26572e-07
9.96996e-07
8.52475e-07
8.6667e-07
1.40611e-06
2.01516e-06
2.52041e-06
2.67679e-06
2.74918e-06
4.52754e-06
9.94518e-06
8.19637e-06
3.60848e-06
2.53554e-06
2.69775e-06
2.47647e-06
1.94466e-06
1.35086e-06
8.54517e-07
8.082e-07
9.47071e-07
1.35931e-06
1.84706e-06
2.3344e-06
2.91319e-06
3.6071e-06
4.39597e-06
5.31808e-06
6.52567e-06
8.29206e-06
1.04528e-05
9.30788e-06
7.26847e-06
5.79806e-06
4.80861e-06
4.02005e-06
3.32141e-06
2.69591e-06
2.17167e-06
1.72251e-06
1.27073e-06
7.64428e-09
1.227e-08
1.57442e-08
1.96868e-08
2.44468e-08
2.96415e-08
3.69919e-08
4.65363e-08
5.52316e-08
6.23833e-08
5.54097e-08
5.00842e-08
4.28402e-08
3.44685e-08
2.79463e-08
2.35199e-08
1.97587e-08
1.5811e-08
1.13037e-08
6.77151e-09
1.73536e-08
1.48112e-08
1.84318e-08
2.38093e-08
3.09048e-08
3.75845e-08
5.35065e-08
8.54602e-08
5.94802e-07
7.93702e-07
7.16766e-07
5.12946e-07
7.2703e-08
4.80643e-08
3.52684e-08
3.01605e-08
2.56129e-08
2.01949e-08
1.54639e-08
1.58576e-08
2.34881e-08
1.90624e-08
2.39254e-08
2.94545e-08
3.43669e-08
3.88653e-08
5.38142e-08
1.63808e-07
2.43565e-06
1.7935e-06
1.6516e-06
2.04783e-06
1.30687e-07
4.9318e-08
3.86562e-08
3.62762e-08
3.37686e-08
2.92376e-08
2.31844e-08
2.25111e-08
3.07776e-08
3.15844e-08
3.39473e-08
3.82774e-08
4.16832e-08
4.4971e-08
6.59246e-08
3.17272e-07
4.79838e-06
3.07439e-06
2.89825e-06
3.90473e-06
2.30302e-07
5.57828e-08
4.19128e-08
3.99224e-08
3.7816e-08
3.56311e-08
3.5817e-08
4.94627e-08
1.19798e-07
6.4847e-08
4.34711e-08
4.28222e-08
4.98076e-08
5.63733e-08
9.1359e-08
5.72531e-07
7.85641e-06
4.64764e-06
4.50043e-06
6.30643e-06
3.94319e-07
6.83417e-08
4.75311e-08
4.37132e-08
4.3537e-08
5.68332e-08
9.74778e-08
1.90977e-07
3.12377e-07
1.48954e-07
7.10731e-08
4.63249e-08
5.03526e-08
6.13233e-08
1.13321e-07
8.70236e-07
1.10045e-05
6.41721e-06
6.37457e-06
8.69177e-06
5.7363e-07
8.4311e-08
5.3825e-08
4.79696e-08
5.27001e-08
8.37459e-08
1.73052e-07
3.4793e-07
5.05286e-07
2.31714e-07
1.07299e-07
6.79672e-08
6.95869e-08
8.69627e-08
1.56382e-07
1.12732e-06
1.30279e-05
8.07146e-06
8.21667e-06
1.01203e-05
7.64401e-07
1.3337e-07
8.71412e-08
7.26357e-08
7.4329e-08
1.1478e-07
2.45022e-07
5.0876e-07
7.02572e-07
4.14192e-07
1.84848e-07
1.701e-07
2.05677e-07
2.3829e-07
2.92009e-07
1.15484e-06
1.24673e-05
8.98999e-06
9.38499e-06
9.22706e-06
8.05486e-07
2.92622e-07
2.58859e-07
2.20874e-07
1.78481e-07
1.78953e-07
4.36719e-07
6.77161e-07
9.3069e-07
7.39522e-07
7.01953e-07
1.16949e-06
1.60127e-06
1.86099e-06
2.22531e-06
4.06281e-06
9.94518e-06
9.30001e-06
9.61596e-06
7.86034e-06
3.30112e-06
2.03696e-06
1.87678e-06
1.59275e-06
1.14044e-06
7.03859e-07
7.00893e-07
8.8027e-07
1.29367e-06
1.76075e-06
2.22289e-06
2.81252e-06
3.53263e-06
4.40803e-06
5.62093e-06
7.58895e-06
1.04528e-05
1.03242e-05
1.02872e-05
9.08375e-06
6.56976e-06
4.97547e-06
3.9925e-06
3.24022e-06
2.59731e-06
2.06781e-06
1.63935e-06
1.20609e-06
7.75664e-09
1.22431e-08
1.54177e-08
1.88915e-08
2.27352e-08
2.69827e-08
3.28034e-08
4.04807e-08
4.7852e-08
5.54097e-08
6.00415e-08
5.36127e-08
4.50075e-08
3.61837e-08
2.93722e-08
2.4237e-08
1.97415e-08
1.52399e-08
1.1276e-08
6.9954e-09
1.67187e-08
1.52854e-08
2.00758e-08
2.55745e-08
2.96524e-08
3.32577e-08
4.23837e-08
6.27928e-08
4.30357e-07
7.16766e-07
6.65536e-07
3.94222e-07
6.01334e-08
4.40324e-08
3.70496e-08
3.45829e-08
3.21846e-08
2.54148e-08
1.74436e-08
1.57238e-08
2.15504e-08
2.03234e-08
2.74282e-08
3.29055e-08
3.5228e-08
3.58084e-08
4.16434e-08
1.07213e-07
1.81885e-06
1.6516e-06
1.53658e-06
1.58016e-06
9.8462e-08
4.89084e-08
4.65743e-08
4.79112e-08
4.77273e-08
4.21991e-08
3.11909e-08
2.17266e-08
2.79176e-08
3.0998e-08
3.49582e-08
4.04635e-08
4.28807e-08
4.25416e-08
5.02692e-08
1.99641e-07
3.62237e-06
2.89825e-06
2.73431e-06
2.86609e-06
1.48682e-07
5.26302e-08
4.84116e-08
4.77623e-08
4.42309e-08
3.68005e-08
3.50488e-08
5.42681e-08
1.30403e-07
6.84703e-08
4.28416e-08
4.26779e-08
4.96191e-08
5.26403e-08
6.8111e-08
3.60308e-07
6.05747e-06
4.50043e-06
4.34876e-06
4.54515e-06
2.34386e-07
5.87648e-08
4.97333e-08
4.57772e-08
4.21843e-08
5.47937e-08
9.94323e-08
1.98324e-07
3.17127e-07
1.51351e-07
7.15009e-08
4.39421e-08
4.96053e-08
5.91299e-08
8.8335e-08
5.54968e-07
8.5447e-06
6.37456e-06
6.3197e-06
6.24455e-06
3.39239e-07
6.94463e-08
5.2631e-08
4.60759e-08
4.8649e-08
8.24752e-08
1.75071e-07
3.53619e-07
5.05056e-07
2.31919e-07
1.07048e-07
6.52825e-08
7.06006e-08
9.15371e-08
1.42799e-07
7.68764e-07
1.01049e-05
8.21667e-06
8.34516e-06
7.30394e-06
4.96825e-07
1.21485e-07
8.87795e-08
7.15493e-08
6.96688e-08
1.12512e-07
2.44001e-07
5.11808e-07
6.97161e-07
4.14322e-07
1.80681e-07
1.62066e-07
1.98573e-07
2.35495e-07
2.84924e-07
8.5617e-07
9.55685e-06
9.38499e-06
9.84753e-06
6.49851e-06
5.95694e-07
2.91359e-07
2.60634e-07
2.17816e-07
1.70706e-07
1.71119e-07
4.36753e-07
6.774e-07
9.1903e-07
7.3095e-07
6.86157e-07
1.11719e-06
1.49506e-06
1.72857e-06
2.04025e-06
3.46944e-06
8.19637e-06
9.61596e-06
9.96818e-06
6.38976e-06
2.83885e-06
1.91593e-06
1.78172e-06
1.51762e-06
1.10721e-06
6.93716e-07
6.9882e-07
8.77205e-07
1.26768e-06
1.70989e-06
2.1404e-06
2.67516e-06
3.3183e-06
4.09184e-06
5.14375e-06
6.80532e-06
9.30788e-06
1.02872e-05
1.02633e-05
8.2137e-06
5.99163e-06
4.62785e-06
3.76228e-06
3.0873e-06
2.50438e-06
2.01707e-06
1.6109e-06
1.19461e-06
7.68158e-09
1.22234e-08
1.57813e-08
1.99267e-08
2.3904e-08
2.76773e-08
3.15532e-08
3.62008e-08
4.20912e-08
5.00841e-08
5.36127e-08
5.14053e-08
4.82462e-08
4.3757e-08
3.89841e-08
3.38195e-08
2.78533e-08
2.04222e-08
1.34042e-08
7.55395e-09
1.53332e-08
1.78117e-08
2.65599e-08
3.14601e-08
3.27466e-08
3.3191e-08
3.44593e-08
4.10452e-08
6.77143e-08
5.12946e-07
3.94222e-07
6.41336e-08
4.87138e-08
4.57618e-08
4.61604e-08
4.74858e-08
4.77225e-08
4.38952e-08
2.82995e-08
1.57522e-08
1.79152e-08
2.9064e-08
4.04316e-08
4.47417e-08
4.38145e-08
4.07203e-08
3.8291e-08
4.49032e-08
1.56047e-07
2.04783e-06
1.58016e-06
1.27657e-07
5.67727e-08
5.87912e-08
6.60911e-08
7.2971e-08
7.59607e-08
7.20227e-08
5.75298e-08
3.18606e-08
2.50324e-08
3.70848e-08
4.74746e-08
5.2527e-08
5.26524e-08
4.93566e-08
4.58413e-08
5.77671e-08
3.16825e-07
3.90473e-06
2.8661e-06
2.0672e-07
6.07978e-08
6.00657e-08
6.50558e-08
6.79022e-08
6.63857e-08
5.9657e-08
5.13057e-08
6.53898e-08
1.50844e-07
7.69494e-08
5.65696e-08
5.65951e-08
5.82474e-08
5.71832e-08
5.55277e-08
7.89533e-08
5.7766e-07
6.30643e-06
4.54515e-06
3.31594e-07
6.71048e-08
6.03521e-08
6.27505e-08
6.32236e-08
6.19942e-08
6.78924e-08
1.08479e-07
2.1499e-07
3.38108e-07
1.61234e-07
7.98299e-08
5.86814e-08
5.78429e-08
5.89967e-08
6.06482e-08
9.8966e-08
8.69802e-07
8.69177e-06
6.24455e-06
4.78557e-07
7.49105e-08
6.05352e-08
6.1024e-08
6.10065e-08
6.46463e-08
9.19608e-08
1.87467e-07
3.7478e-07
5.30342e-07
2.45754e-07
1.1521e-07
7.70503e-08
7.69349e-08
8.52073e-08
9.48783e-08
1.55006e-07
1.16327e-06
1.01203e-05
7.30394e-06
6.75022e-07
1.1943e-07
9.06566e-08
8.53533e-08
8.03634e-08
8.30065e-08
1.23927e-07
2.68963e-07
5.38789e-07
7.29621e-07
4.61244e-07
2.00243e-07
1.96091e-07
2.462e-07
2.95093e-07
3.18034e-07
3.41868e-07
1.18574e-06
9.22706e-06
6.49851e-06
7.54332e-07
3.38141e-07
3.38099e-07
3.11185e-07
2.60313e-07
2.07655e-07
1.91598e-07
4.77256e-07
7.12982e-07
9.63124e-07
8.1322e-07
8.28618e-07
1.33207e-06
1.86039e-06
2.29869e-06
2.5072e-06
2.51684e-06
3.60848e-06
7.86034e-06
6.38976e-06
2.93283e-06
2.49607e-06
2.66292e-06
2.37751e-06
1.86998e-06
1.32418e-06
8.40375e-07
7.83108e-07
9.25719e-07
1.30617e-06
1.75895e-06
2.2059e-06
2.72632e-06
3.33949e-06
4.03282e-06
4.83993e-06
5.85616e-06
7.26847e-06
9.08375e-06
8.2137e-06
6.51534e-06
5.33012e-06
4.48234e-06
3.77519e-06
3.1434e-06
2.57606e-06
2.09339e-06
1.66879e-06
1.23899e-06
7.80859e-09
1.42884e-08
2.009e-08
2.66671e-08
3.15304e-08
3.4467e-08
3.57629e-08
3.63311e-08
3.82597e-08
4.28402e-08
4.50075e-08
4.82462e-08
5.20494e-08
5.38624e-08
5.31927e-08
5.01614e-08
4.43842e-08
3.57245e-08
2.40166e-08
9.54883e-09
1.51232e-08
3.04121e-08
4.46149e-08
4.74605e-08
4.51621e-08
4.13391e-08
3.75159e-08
3.62266e-08
4.60348e-08
7.2703e-08
6.01334e-08
4.87138e-08
5.1256e-08
5.72435e-08
6.43314e-08
7.16267e-08
7.73169e-08
7.72856e-08
6.54303e-08
2.13806e-08
2.61157e-08
5.26219e-08
6.49686e-08
6.79986e-08
6.33741e-08
5.47454e-08
4.58834e-08
4.05394e-08
5.12247e-08
1.30687e-07
9.8462e-08
5.67728e-08