/*--------------------------------*- C++ -*----------------------------------*\
| =========                 |                                                 |
| \\      /  F ield         | OpenFOAM: The Open Source CFD Toolbox           |
|  \\    /   O peration     | Version:  v2012                                 |
|   \\  /    A nd           | Website:  www.openfoam.com                      |
|    \\/     M anipulation  |                                                 |
\*---------------------------------------------------------------------------*/
FoamFile
{
    version     2.0;
    format      ascii;
    class       volScalarField;
    location    "1000";
    object      nut;
}
// * * * * * * * * * * * * * * * * * * * * * * * * * * * * * * * * * * * * * //

dimensions      [0 2 -1 0 0 0 0];


internalField   nonuniform List<scalar> 
78750
(
9.09794e-08
4.53044e-06
9.86687e-06
1.16624e-05
1.25313e-05
1.32922e-05
1.38369e-05
1.41655e-05
1.44376e-05
1.50092e-05
1.58247e-05
1.71666e-05
1.77245e-05
1.77171e-05
1.90189e-05
1.94775e-05
1.90002e-05
1.98516e-05
2.12955e-05
2.2599e-05
2.36651e-05
2.38769e-05
2.46158e-05
2.48112e-05
2.41001e-05
2.32136e-05
2.24482e-05
2.13958e-05
1.93309e-05
1.78744e-05
1.57523e-05
1.32242e-05
1.12772e-05
9.86074e-06
4.03348e-07
5.83556e-08
4.83496e-06
8.82295e-06
1.22875e-05
1.62216e-05
2.07091e-05
2.54777e-05
3.04372e-05
3.51024e-05
3.98619e-05
4.1822e-05
4.37379e-05
5.5625e-05
6.60988e-05
7.1915e-05
7.76262e-05
8.11864e-05
8.28475e-05
8.22831e-05
8.0592e-05
7.87993e-05
7.69547e-05
7.51491e-05
7.1379e-05
7.19815e-05
6.61335e-05
4.7824e-05
3.87894e-05
3.24869e-05
2.57098e-05
2.02311e-05
1.78335e-05
1.97204e-05
1.39481e-05
3.7822e-07
9.58657e-08
5.15863e-06
1.00616e-05
1.57142e-05
2.36812e-05
3.49335e-05
4.7436e-05
5.48078e-05
5.64509e-05
5.52983e-05
5.30544e-05
4.79023e-05
4.60261e-05
4.85447e-05
4.78979e-05
4.65557e-05
4.50814e-05
4.37602e-05
4.24705e-05
4.14123e-05
3.97912e-05
3.77128e-05
3.90822e-05
4.55891e-05
4.47209e-05
3.62616e-05
2.94481e-05
2.34654e-05
1.92588e-05
1.68514e-05
1.55501e-05
1.65887e-05
2.51029e-05
1.1863e-05
3.38645e-07
9.10198e-08
4.90827e-06
9.90749e-06
1.67882e-05
2.67343e-05
3.9233e-05
5.00399e-05
5.5605e-05
5.64203e-05
5.42391e-05
5.01659e-05
4.51298e-05
4.05916e-05
3.7949e-05
3.54624e-05
3.12604e-05
2.77545e-05
2.53828e-05
2.37929e-05
2.26719e-05
2.20288e-05
2.2998e-05
2.61587e-05
2.78424e-05
2.56029e-05
2.79852e-05
3.02169e-05
2.5198e-05
2.00978e-05
1.46608e-05
1.18522e-05
1.34735e-05
2.35313e-05
8.75142e-06
3.37963e-07
9.44131e-08
4.15658e-06
8.83404e-06
1.51828e-05
2.40622e-05
3.54101e-05
4.76119e-05
5.77434e-05
6.31265e-05
6.47141e-05
6.076e-05
5.43314e-05
4.90253e-05
3.99768e-05
3.21746e-05
2.89383e-05
2.75066e-05
2.62724e-05
2.56994e-05
2.58956e-05
2.05142e-05
2.14606e-05
2.5589e-05
2.19799e-05
2.43686e-05
2.86543e-05
2.85778e-05
2.55533e-05
2.30419e-05
1.92465e-05
1.46085e-05
1.43475e-05
2.18326e-05
7.57867e-06
3.69042e-07
1.44746e-07
4.02172e-06
9.42982e-06
1.81401e-05
3.0204e-05
4.36134e-05
5.52054e-05
6.37931e-05
6.8508e-05
7.15955e-05
6.90221e-05
5.66191e-05
4.56391e-05
3.73224e-05
3.2216e-05
2.86835e-05
2.55623e-05
2.35566e-05
2.2635e-05
2.19219e-05
1.93457e-05
2.28625e-05
2.60476e-05
2.05789e-05
2.03939e-05
2.30869e-05
2.85495e-05
3.2033e-05
2.88398e-05
2.31724e-05
1.73393e-05
1.579e-05
2.22468e-05
6.8387e-06
4.23524e-07
1.93957e-07
4.05697e-06
1.00121e-05
2.02001e-05
3.4e-05
4.73956e-05
5.79049e-05
6.5895e-05
6.72695e-05
5.77076e-05
4.82745e-05
4.30326e-05
3.80754e-05
3.31421e-05
2.82397e-05
2.41474e-05
2.15576e-05
2.00491e-05
1.93745e-05
1.85319e-05
1.67265e-05
2.04663e-05
2.48539e-05
2.03604e-05
1.85925e-05
1.90847e-05
2.28873e-05
2.8603e-05
2.92905e-05
2.43926e-05
1.95963e-05
1.94675e-05
2.60156e-05
5.99282e-06
4.28801e-07
2.76965e-07
4.42238e-06
1.1811e-05
2.6217e-05
4.48209e-05
5.87145e-05
6.72341e-05
6.97082e-05
6.60029e-05
5.52051e-05
4.64503e-05
3.95124e-05
3.16347e-05
2.53526e-05
2.0861e-05
1.80226e-05
1.64462e-05
1.58905e-05
1.5592e-05
1.58482e-05
2.02877e-05
2.34003e-05
1.95083e-05
1.79533e-05
1.70824e-05
1.73625e-05
2.01944e-05
2.5419e-05
2.85234e-05
2.58071e-05
2.21897e-05
2.30169e-05
2.51125e-05
5.47341e-06
4.14023e-07
3.41648e-07
4.62346e-06
1.28202e-05
2.99801e-05
5.02988e-05
6.32023e-05
6.82599e-05
6.46647e-05
5.39842e-05
4.63995e-05
3.96836e-05
3.13207e-05
2.4694e-05
1.98971e-05
1.68992e-05
1.53736e-05
1.48991e-05
1.52439e-05
1.58471e-05
1.87283e-05
2.11463e-05
1.99625e-05
1.97816e-05
1.8453e-05
1.68161e-05
1.61837e-05
1.74672e-05
2.07659e-05
2.39319e-05
2.3597e-05
2.21484e-05
2.45745e-05
2.13706e-05
4.87621e-06
3.79883e-07
4.157e-07
4.84025e-06
1.3905e-05
3.37131e-05
5.55026e-05
6.46207e-05
6.38247e-05
5.74987e-05
5.10439e-05
4.14734e-05
3.10503e-05
2.34571e-05
1.82106e-05
1.49573e-05
1.34702e-05
1.34692e-05
1.47767e-05
1.66203e-05
1.87043e-05
2.1008e-05
2.18744e-05
2.1364e-05
1.9887e-05
1.81511e-05
1.68104e-05
1.6373e-05
1.71582e-05
1.90071e-05
2.08816e-05
2.18528e-05
2.33111e-05
2.69994e-05
1.81116e-05
4.46329e-06
3.46323e-07
4.67511e-07
5.20615e-06
1.51322e-05
3.58953e-05
5.69519e-05
6.48754e-05
6.29039e-05
5.43807e-05
4.19155e-05
3.12302e-05
2.45016e-05
1.98242e-05
1.63823e-05
1.42857e-05
1.36381e-05
1.44203e-05
1.73694e-05
2.00284e-05
2.04975e-05
2.16704e-05
2.19334e-05
2.14153e-05
1.99868e-05
1.80336e-05
1.63736e-05
1.57161e-05
1.61908e-05
1.76176e-05
1.91146e-05
2.01975e-05
2.22848e-05
2.57978e-05
1.61429e-05
4.15728e-06
3.10297e-07
4.69522e-07
5.23693e-06
1.52163e-05
3.60388e-05
5.6838e-05
6.23815e-05
5.58595e-05
4.53083e-05
3.62691e-05
3.00519e-05
2.48783e-05
1.99121e-05
1.64409e-05
1.45679e-05
1.37262e-05
1.42655e-05
1.68086e-05
1.96907e-05
2.17268e-05
2.39057e-05
2.40296e-05
2.24768e-05
2.07044e-05
1.91506e-05
1.74302e-05
1.61855e-05
1.60302e-05
1.66861e-05
1.7638e-05
1.89656e-05
2.17918e-05
2.58238e-05
1.43611e-05
4.00936e-06
2.84049e-07
4.57553e-07
5.23047e-06
1.53998e-05
3.67216e-05
5.56903e-05
5.97812e-05
5.45163e-05
4.6227e-05
3.81621e-05
3.10837e-05
2.49087e-05
2.12989e-05
1.90396e-05
1.66899e-05
1.47972e-05
1.37784e-05
1.42514e-05
1.647e-05
1.97128e-05
2.24779e-05
2.41305e-05
2.46885e-05
2.33647e-05
2.08444e-05
1.8949e-05
1.76419e-05
1.68261e-05
1.67943e-05
1.73603e-05
1.89323e-05
2.25322e-05
2.61361e-05
1.46129e-05
4.09649e-06
2.76551e-07
4.46555e-07
5.23228e-06
1.52906e-05
3.61123e-05
5.52314e-05
5.99674e-05
5.55106e-05
4.62845e-05
3.71765e-05
3.07431e-05
2.73367e-05
2.46976e-05
2.15733e-05
1.85581e-05
1.61562e-05
1.44368e-05
1.34679e-05
1.41615e-05
1.67768e-05
2.02807e-05
2.37289e-05
2.52242e-05
2.46108e-05
2.25671e-05
2.00316e-05
1.82675e-05
1.74671e-05
1.7329e-05
1.78048e-05
1.95887e-05
2.33378e-05
2.62646e-05
1.49195e-05
4.21949e-06
2.74701e-07
4.45156e-07
5.24392e-06
1.5502e-05
3.68331e-05
5.52674e-05
5.98449e-05
5.41849e-05
4.61879e-05
3.99304e-05
3.53373e-05
3.06521e-05
2.62148e-05
2.28457e-05
2.02216e-05
1.78446e-05
1.57325e-05
1.41674e-05
1.33753e-05
1.4995e-05
1.75147e-05
1.88509e-05
2.20833e-05
2.4265e-05
2.4139e-05
2.2315e-05
1.96237e-05
1.78468e-05
1.75009e-05
1.83498e-05
2.06231e-05
2.42079e-05
2.60887e-05
1.55822e-05
4.34425e-06
2.76974e-07
4.45017e-07
5.2565e-06
1.53152e-05
3.58603e-05
5.46041e-05
5.90218e-05
5.57805e-05
4.98876e-05
4.34934e-05
3.7216e-05
3.19303e-05
2.7873e-05
2.43685e-05
2.11415e-05
1.83654e-05
1.60272e-05
1.40902e-05
1.29152e-05
1.43683e-05
1.6075e-05
1.63659e-05
1.93188e-05
2.22314e-05
2.34689e-05
2.29298e-05
2.14992e-05
1.96689e-05
1.8253e-05
1.84252e-05
2.06064e-05
2.41938e-05
2.58021e-05
1.53818e-05
4.36233e-06
2.8464e-07
4.57595e-07
5.16286e-06
1.52494e-05
3.62979e-05
5.3855e-05
5.8838e-05
5.67628e-05
5.07227e-05
4.33465e-05
3.65813e-05
3.15667e-05
2.77903e-05
2.45043e-05
2.15914e-05
1.89942e-05
1.66617e-05
1.45665e-05
1.30104e-05
1.3829e-05
1.50645e-05
1.54557e-05
1.78806e-05
2.02064e-05
2.20222e-05
2.25601e-05
2.16565e-05
2.02817e-05
1.94491e-05
1.95387e-05
2.09819e-05
2.39804e-05
2.55297e-05
1.52791e-05
4.34418e-06
2.88206e-07
4.83688e-07
5.24848e-06
1.54608e-05
3.65466e-05
5.43962e-05
5.88161e-05
5.55188e-05
4.92364e-05
4.2843e-05
3.67841e-05
3.18208e-05
2.8066e-05
2.47236e-05
2.19149e-05
1.9438e-05
1.68888e-05
1.47787e-05
1.31828e-05
1.3086e-05
1.41877e-05
1.49794e-05
1.643e-05
1.85513e-05
2.03559e-05
2.11298e-05
2.10382e-05
2.02767e-05
1.94884e-05
1.95933e-05
2.12303e-05
2.40353e-05
2.52985e-05
1.5231e-05
4.27209e-06
2.8691e-07
5.06254e-07
5.31268e-06
1.59495e-05
3.77874e-05
5.45878e-05
5.84838e-05
5.54436e-05
4.90615e-05
4.1716e-05
3.58671e-05
3.16292e-05
2.79263e-05
2.49947e-05
2.23267e-05
1.99032e-05
1.7755e-05
1.55299e-05
1.37615e-05
1.27998e-05
1.36127e-05
1.46603e-05
1.5129e-05
1.69533e-05
1.88401e-05
2.00271e-05
2.01444e-05
1.95881e-05
1.90799e-05
1.92678e-05
2.07639e-05
2.35506e-05
2.50123e-05
1.47637e-05
4.14959e-06
2.84107e-07
5.25517e-07
5.33014e-06
1.60786e-05
3.83095e-05
5.44403e-05
5.74724e-05
5.3495e-05
4.67006e-05
4.06508e-05
3.58428e-05
3.17001e-05
2.82447e-05
2.50922e-05
2.23967e-05
2.01432e-05
1.804e-05
1.60176e-05
1.42455e-05
1.31817e-05
1.37037e-05
1.44756e-05
1.48122e-05
1.62898e-05
1.78505e-05
1.88527e-05
1.90875e-05
1.88055e-05
1.85496e-05
1.88906e-05
2.04564e-05
2.32865e-05
2.47423e-05
1.41541e-05
4.02848e-06
2.79916e-07
5.4836e-07
5.38397e-06
1.64201e-05
3.90643e-05
5.45402e-05
5.64843e-05
5.23948e-05
4.66004e-05
4.10199e-05
3.60518e-05
3.17369e-05
2.81582e-05
2.5351e-05
2.28566e-05
2.04491e-05
1.82787e-05
1.63013e-05
1.45986e-05
1.35246e-05
1.37155e-05
1.42994e-05
1.47038e-05
1.5829e-05
1.70292e-05
1.78728e-05
1.8177e-05
1.80591e-05
1.79492e-05
1.84958e-05
2.02521e-05
2.31437e-05
2.43544e-05
1.36769e-05
3.92572e-06
2.73799e-07
5.76705e-07
5.52037e-06
1.71069e-05
3.99253e-05
5.462e-05
5.65522e-05
5.27228e-05
4.67906e-05
4.05164e-05
3.51308e-05
3.11508e-05
2.82348e-05
2.59707e-05
2.3925e-05
2.16452e-05
1.91559e-05
1.69448e-05
1.51674e-05
1.40799e-05
1.37483e-05
1.40437e-05
1.46995e-05
1.54934e-05
1.63107e-05
1.69509e-05
1.72401e-05
1.72498e-05
1.73759e-05
1.8139e-05
1.99761e-05
2.28769e-05
2.40149e-05
1.3221e-05
3.83508e-06
2.66892e-07
5.81233e-07
5.55542e-06
1.71207e-05
3.99036e-05
5.44273e-05
5.61036e-05
5.14745e-05
4.49269e-05
3.93581e-05
3.54364e-05
3.25522e-05
2.99279e-05
2.72631e-05
2.4511e-05
2.23364e-05
2.06804e-05
1.86102e-05
1.64307e-05
1.52545e-05
1.43521e-05
1.38447e-05
1.43336e-05
1.49754e-05
1.55942e-05
1.6093e-05
1.63811e-05
1.65066e-05
1.67691e-05
1.76344e-05
1.95866e-05
2.26107e-05
2.38697e-05
1.30192e-05
3.77593e-06
2.61423e-07
5.79764e-07
5.57997e-06
1.73806e-05
4.03582e-05
5.38509e-05
5.45647e-05
5.01933e-05
4.50188e-05
4.05492e-05
3.66166e-05
3.30527e-05
3.03039e-05
2.82333e-05
2.65681e-05
2.48426e-05
2.27629e-05
2.05588e-05
1.83272e-05
1.64866e-05
1.52851e-05
1.43981e-05
1.40563e-05
1.43924e-05
1.48461e-05
1.5252e-05
1.55321e-05
1.57275e-05
1.60801e-05
1.70108e-05
1.90451e-05
2.22024e-05
2.36106e-05
1.28934e-05
3.7528e-06
2.58805e-07
5.63472e-07
5.5912e-06
1.74397e-05
4.03292e-05
5.37895e-05
5.50071e-05
5.10079e-05
4.56624e-05
4.10453e-05
3.73918e-05
3.47466e-05
3.25885e-05
3.0461e-05
2.82689e-05
2.60802e-05
2.40663e-05
2.21535e-05
2.0266e-05
1.84097e-05
1.65407e-05
1.54309e-05
1.47176e-05
1.4179e-05
1.43604e-05
1.46448e-05
1.48595e-05
1.50811e-05
1.55053e-05
1.65166e-05
1.85318e-05
2.16808e-05
2.34428e-05
1.29907e-05
3.7422e-06
2.61057e-07
5.55495e-07
5.57641e-06
1.73427e-05
4.01907e-05
5.38066e-05
5.52822e-05
5.21188e-05
4.78232e-05
4.3606e-05
3.95458e-05
3.60997e-05
3.35512e-05
3.13375e-05
2.91851e-05
2.69871e-05
2.4928e-05
2.30977e-05
2.12914e-05
1.95537e-05
1.77617e-05
1.69673e-05
1.594e-05
1.45995e-05
1.43727e-05
1.43992e-05
1.45188e-05
1.46631e-05
1.50172e-05
1.59198e-05
1.80282e-05
2.14091e-05
2.33353e-05
1.32977e-05
3.78563e-06
2.70876e-07
5.55885e-07
5.53973e-06
1.70987e-05
3.95175e-05
5.31685e-05
5.54809e-05
5.27926e-05
4.77669e-05
4.2532e-05
3.89132e-05
3.64262e-05
3.41577e-05
3.2356e-05
3.07889e-05
2.90716e-05
2.69219e-05
2.43788e-05
2.21102e-05
2.01414e-05
1.82839e-05
1.77169e-05
1.68186e-05
1.52347e-05
1.46606e-05
1.43205e-05
1.41888e-05
1.42589e-05
1.45707e-05
1.54876e-05
1.74814e-05
2.07354e-05
2.31029e-05
1.34979e-05
3.79979e-06
2.81024e-07
5.70758e-07
5.52707e-06
1.71693e-05
3.98809e-05
5.33271e-05
5.51091e-05
5.18007e-05
4.69846e-05
4.28009e-05
3.96228e-05
3.70548e-05
3.50502e-05
3.31922e-05
3.14789e-05
3.01018e-05
2.86338e-05
2.65918e-05
2.40213e-05
2.14577e-05
1.91749e-05
1.77567e-05
1.73603e-05
1.619e-05
1.47391e-05
1.41544e-05
1.3895e-05
1.38364e-05
1.40589e-05
1.4866e-05
1.67471e-05
2.00506e-05
2.29021e-05
1.36859e-05
3.79731e-06
2.88648e-07
5.88711e-07
5.56175e-06
1.74323e-05
4.05189e-05
5.35287e-05
5.47006e-05
5.13467e-05
4.69753e-05
4.30873e-05
3.9935e-05
3.74517e-05
3.53846e-05
3.36994e-05
3.22588e-05
3.08191e-05
2.95148e-05
2.80509e-05
2.59037e-05
2.32057e-05
2.05475e-05
1.83776e-05
1.77177e-05
1.66238e-05
1.48493e-05
1.40831e-05
1.36502e-05
1.34539e-05
1.35626e-05
1.42726e-05
1.611e-05
1.95017e-05
2.27708e-05
1.37003e-05
3.77698e-06
2.92148e-07
6.08822e-07
5.62163e-06
1.78952e-05
4.13225e-05
5.32594e-05
5.43141e-05
5.12654e-05
4.72426e-05
4.33964e-05
4.00438e-05
3.73514e-05
3.53074e-05
3.38268e-05
3.27561e-05
3.19048e-05
3.09941e-05
2.96291e-05
2.75453e-05
2.48026e-05
2.19069e-05
1.93581e-05
1.81799e-05
1.68113e-05
1.49983e-05
1.40518e-05
1.34507e-05
1.3121e-05
1.31272e-05
1.37467e-05
1.55088e-05
1.89824e-05
2.26726e-05
1.36388e-05
3.74278e-06
2.91805e-07
6.21231e-07
5.68614e-06
1.81158e-05
4.12217e-05
5.30432e-05
5.40308e-05
5.07661e-05
4.63905e-05
4.25301e-05
3.96565e-05
3.75753e-05
3.60172e-05
3.46163e-05
3.33366e-05
3.23606e-05
3.16943e-05
3.09085e-05
2.93447e-05
2.67344e-05
2.3496e-05
2.0485e-05
1.85988e-05
1.68864e-05
1.51084e-05
1.39885e-05
1.32179e-05
1.27572e-05
1.26704e-05
1.32098e-05
1.4942e-05
1.8507e-05
2.2584e-05
1.35406e-05
3.71059e-06
2.88827e-07
6.21978e-07
5.69341e-06
1.81711e-05
4.14271e-05
5.25649e-05
5.27105e-05
4.92342e-05
4.56318e-05
4.29404e-05
4.08832e-05
3.9019e-05
3.69831e-05
3.52441e-05
3.40567e-05
3.31378e-05
3.24663e-05
3.18509e-05
3.07512e-05
2.8594e-05
2.54682e-05
2.21182e-05
1.96106e-05
1.74121e-05
1.53921e-05
1.40088e-05
1.30064e-05
1.23847e-05
1.21963e-05
1.26546e-05
1.43233e-05
1.79401e-05
2.24604e-05
1.34851e-05
3.68772e-06
2.85993e-07
6.1781e-07
5.70695e-06
1.84332e-05
4.16833e-05
5.22859e-05
5.25878e-05
4.97489e-05
4.65901e-05
4.37281e-05
4.12787e-05
3.94238e-05
3.79444e-05
3.65876e-05
3.52728e-05
3.41572e-05
3.32994e-05
3.2629e-05
3.17357e-05
3.00747e-05
2.7424e-05
2.3991e-05
2.10537e-05
1.88877e-05
1.64159e-05
1.42773e-05
1.29629e-05
1.21435e-05
1.18202e-05
1.21804e-05
1.37457e-05
1.7396e-05
2.2259e-05
1.35066e-05
3.68631e-06
2.86668e-07
6.12852e-07
5.69458e-06
1.83319e-05
4.14709e-05
5.22057e-05
5.2761e-05
5.00586e-05
4.67504e-05
4.39723e-05
4.19446e-05
4.04819e-05
3.93326e-05
3.80396e-05
3.65133e-05
3.51768e-05
3.42734e-05
3.35665e-05
3.27503e-05
3.13352e-05
2.90174e-05
2.5864e-05
2.25501e-05
2.04492e-05
1.77914e-05
1.49167e-05
1.32177e-05
1.21129e-05
1.15886e-05
1.18124e-05
1.3293e-05
1.69309e-05
2.20193e-05
1.3633e-05
3.69164e-06
2.91089e-07
6.12803e-07
5.68828e-06
1.8292e-05
4.12591e-05
5.20532e-05
5.26987e-05
5.00722e-05
4.69921e-05
4.42713e-05
4.23578e-05
4.10547e-05
4.01363e-05
3.92361e-05
3.81478e-05
3.69916e-05
3.59431e-05
3.50132e-05
3.40172e-05
3.26603e-05
3.05127e-05
2.74325e-05
2.40802e-05
2.19838e-05
1.90354e-05
1.56764e-05
1.36143e-05
1.22134e-05
1.14664e-05
1.15281e-05
1.28801e-05
1.64679e-05
2.18337e-05
1.37538e-05
3.70146e-06
2.96183e-07
6.16306e-07
5.67392e-06
1.83538e-05
4.1399e-05
5.18472e-05
5.25207e-05
4.99077e-05
4.68313e-05
4.45236e-05
4.29886e-05
4.18566e-05
4.08078e-05
3.98772e-05
3.90922e-05
3.82539e-05
3.74237e-05
3.67726e-05
3.5879e-05
3.41718e-05
3.16916e-05
2.86352e-05
2.53541e-05
2.32708e-05
2.01236e-05
1.64205e-05
1.40465e-05
1.23748e-05
1.14138e-05
1.13189e-05
1.25478e-05
1.60651e-05
2.16509e-05
1.38644e-05
3.70796e-06
3.00892e-07
6.20928e-07
5.66811e-06
1.8372e-05
4.14304e-05
5.16511e-05
5.21505e-05
4.96027e-05
4.67373e-05
4.44454e-05
4.29758e-05
4.21752e-05
4.16993e-05
4.11134e-05
4.02444e-05
3.9347e-05
3.86513e-05
3.81438e-05
3.75637e-05
3.63403e-05
3.38901e-05
3.04098e-05
2.6823e-05
2.45367e-05
2.1147e-05
1.71577e-05
1.45152e-05
1.25947e-05
1.1422e-05
1.11571e-05
1.22781e-05
1.57506e-05
2.1495e-05
1.39604e-05
3.71363e-06
3.04848e-07
6.28704e-07
5.6733e-06
1.8467e-05
4.15727e-05
5.14489e-05
5.18473e-05
4.93961e-05
4.64436e-05
4.41865e-05
4.28277e-05
4.21586e-05
4.18933e-05
4.1723e-05
4.14111e-05
4.08843e-05
4.02945e-05
3.97818e-05
3.91452e-05
3.79517e-05
3.58382e-05
3.24527e-05
2.85257e-05
2.59033e-05
2.21941e-05
1.79244e-05
1.50138e-05
1.28529e-05
1.14774e-05
1.10626e-05
1.2067e-05
1.54653e-05
2.13538e-05
1.4037e-05
3.7163e-06
3.08651e-07
6.38302e-07
5.69194e-06
1.87176e-05
4.17691e-05
5.12014e-05
5.14884e-05
4.87506e-05
4.58828e-05
4.38545e-05
4.27635e-05
4.23445e-05
4.22761e-05
4.22579e-05
4.20974e-05
4.18174e-05
4.15819e-05
4.14757e-05
4.12128e-05
4.02236e-05
3.81247e-05
3.46689e-05
3.05014e-05
2.73138e-05
2.31626e-05
1.86595e-05
1.55036e-05
1.31295e-05
1.15758e-05
1.10212e-05
1.19014e-05
1.521e-05
2.12377e-05
1.40967e-05
3.71671e-06
3.1157e-07
6.43627e-07
5.71549e-06
1.87937e-05
4.16922e-05
5.08093e-05
5.06915e-05
4.79994e-05
4.53637e-05
4.3648e-05
4.27799e-05
4.25042e-05
4.2543e-05
4.26417e-05
4.26124e-05
4.24467e-05
4.23386e-05
4.24753e-05
4.26121e-05
4.21107e-05
4.04194e-05
3.70992e-05
3.26818e-05
2.88885e-05
2.41864e-05
1.93773e-05
1.59502e-05
1.33721e-05
1.16702e-05
1.10133e-05
1.17946e-05
1.50283e-05
2.11915e-05
1.41014e-05
3.71299e-06
3.12712e-07
6.45304e-07
5.71053e-06
1.88772e-05
4.18697e-05
5.04249e-05
5.02032e-05
4.76116e-05
4.50759e-05
4.34673e-05
4.27255e-05
4.25863e-05
4.2756e-05
4.2988e-05
4.31085e-05
4.30909e-05
4.31263e-05
4.34607e-05
4.39073e-05
4.38035e-05
4.2484e-05
3.93203e-05
3.48439e-05
3.07834e-05
2.55846e-05
2.02834e-05
1.64846e-05
1.36545e-05
1.17844e-05
1.10043e-05
1.17123e-05
1.49129e-05
2.11446e-05
1.41497e-05
3.71764e-06
3.14528e-07
6.46567e-07
5.71754e-06
1.89623e-05
4.17816e-05
5.00978e-05
4.97636e-05
4.71643e-05
4.47267e-05
4.32571e-05
4.26801e-05
4.27002e-05
4.30093e-05
4.33714e-05
4.36074e-05
4.36877e-05
4.38113e-05
4.42917e-05
4.50172e-05
4.53117e-05
4.43931e-05
4.14568e-05
3.69793e-05
3.27844e-05
2.72588e-05
2.14566e-05
1.72243e-05
1.40709e-05
1.19757e-05
1.10543e-05
1.16607e-05
1.47813e-05
2.10796e-05
1.42297e-05
3.72702e-06
3.176e-07
6.46483e-07
5.71259e-06
1.90286e-05
4.17649e-05
4.97098e-05
4.924e-05
4.66886e-05
4.44143e-05
4.31084e-05
4.27263e-05
4.29149e-05
4.33552e-05
4.38145e-05
4.41355e-05
4.43037e-05
4.4493e-05
4.50484e-05
4.59658e-05
4.65817e-05
4.60186e-05
4.33254e-05
3.89154e-05
3.46553e-05
2.88394e-05
2.26517e-05
1.8013e-05
1.45409e-05
1.22258e-05
1.11727e-05
1.16794e-05
1.47214e-05
2.10722e-05
1.43197e-05
3.74069e-06
3.20824e-07
6.45179e-07
5.70479e-06
1.90421e-05
4.16711e-05
4.93623e-05
4.8792e-05
4.625e-05
4.40611e-05
4.28812e-05
4.26863e-05
4.3062e-05
4.36681e-05
4.42555e-05
4.46683e-05
4.49001e-05
4.51077e-05
4.56735e-05
4.67043e-05
4.75699e-05
4.7318e-05
4.48736e-05
4.06049e-05
3.64549e-05
3.05804e-05
2.4003e-05
1.88728e-05
1.50731e-05
1.25645e-05
1.13313e-05
1.17121e-05
1.47057e-05
2.10922e-05
1.44384e-05
3.75949e-06
3.24842e-07
6.44839e-07
5.69459e-06
1.90733e-05
4.16273e-05
4.9032e-05
4.83138e-05
4.57234e-05
4.36138e-05
4.2605e-05
4.2607e-05
4.32229e-05
4.40635e-05
4.48427e-05
4.53862e-05
4.56789e-05
4.58617e-05
4.63649e-05
4.74163e-05
4.84387e-05
4.84395e-05
4.62444e-05
4.21607e-05
3.81832e-05
3.22606e-05
2.54759e-05
2.00394e-05
1.57579e-05
1.29048e-05
1.15004e-05
1.17775e-05
1.46948e-05
2.11066e-05
1.46015e-05
3.78433e-06
3.30332e-07
6.4512e-07
5.68346e-06
1.90877e-05
4.15593e-05
4.86699e-05
4.77761e-05
4.51222e-05
4.30732e-05
4.22159e-05
4.23963e-05
4.32869e-05
4.44053e-05
4.54307e-05
4.61716e-05
4.65702e-05
4.67394e-05
4.715e-05
4.81521e-05
4.9233e-05
4.93978e-05
4.74229e-05
4.35599e-05
3.9807e-05
3.39181e-05
2.69417e-05
2.12306e-05
1.66001e-05
1.33906e-05
1.17366e-05
1.18782e-05
1.4722e-05
2.11628e-05
1.47417e-05
3.80739e-06
3.36168e-07
6.45726e-07
5.67667e-06
1.91188e-05
4.14904e-05
4.82892e-05
4.72066e-05
4.44825e-05
4.24767e-05
4.17563e-05
4.21593e-05
4.32703e-05
4.46615e-05
4.5956e-05
4.69241e-05
4.74788e-05
4.76763e-05
4.80073e-05
4.89291e-05
4.99882e-05
5.02106e-05
4.83813e-05
4.47229e-05
4.11782e-05
3.53751e-05
2.83182e-05
2.2413e-05
1.74734e-05
1.39132e-05
1.20293e-05
1.2037e-05
1.48188e-05
2.12827e-05
1.48664e-05
3.83059e-06
3.41915e-07
6.46485e-07
5.66792e-06
1.91482e-05
4.14293e-05
4.78753e-05
4.65715e-05
4.37826e-05
4.18221e-05
4.12324e-05
4.18248e-05
4.31527e-05
4.48183e-05
4.63848e-05
4.75975e-05
4.83349e-05
4.86086e-05
4.8904e-05
4.97542e-05
5.07653e-05
5.09846e-05
4.92345e-05
4.57341e-05
4.23629e-05
3.66651e-05
2.95957e-05
2.35633e-05
1.83897e-05
1.45344e-05
1.23938e-05
1.22547e-05
1.49733e-05
2.14511e-05
1.49773e-05
3.85321e-06
3.47666e-07
6.47411e-07
5.66084e-06
1.91837e-05
4.13606e-05
4.74456e-05
4.59079e-05
4.30426e-05
4.11185e-05
4.06559e-05
4.1444e-05
4.30204e-05
4.49113e-05
4.67417e-05
4.81961e-05
4.91253e-05
4.94959e-05
4.97759e-05
5.05357e-05
5.13869e-05
5.13668e-05
4.96673e-05
4.75717e-05
4.37961e-05
3.72859e-05
3.0687e-05
2.46445e-05
1.93096e-05
1.52121e-05
1.28077e-05
1.25254e-05
1.51919e-05
2.16805e-05
1.50856e-05
3.87718e-06
3.53408e-07
6.48402e-07
5.65232e-06
1.92076e-05
4.12741e-05
4.69898e-05
4.52058e-05
4.22583e-05
4.03694e-05
4.00301e-05
4.10017e-05
4.28012e-05
4.49307e-05
4.70251e-05
4.87288e-05
4.98516e-05
5.03386e-05
5.06009e-05
5.12534e-05
5.20405e-05
5.21509e-05
5.07811e-05
4.87979e-05
4.43139e-05
3.78249e-05
3.17276e-05
2.57109e-05
2.02313e-05
1.59266e-05
1.33057e-05
1.28585e-05
1.5469e-05
2.19588e-05
1.51923e-05
3.90254e-06
3.59314e-07
6.49102e-07
5.64777e-06
1.9272e-05
4.11883e-05
4.65067e-05
4.44827e-05
4.14586e-05
3.96166e-05
3.93967e-05
4.05352e-05
4.25465e-05
4.49237e-05
4.72195e-05
4.91629e-05
5.0474e-05
5.10836e-05
5.13903e-05
5.20522e-05
5.28343e-05
5.29005e-05
5.14582e-05
4.93919e-05
4.48839e-05
3.85004e-05
3.25634e-05
2.66404e-05
2.11257e-05
1.66814e-05
1.38765e-05
1.32593e-05
1.58141e-05
2.23003e-05
1.53051e-05
3.9303e-06
3.65382e-07
6.48655e-07
5.63845e-06
1.92823e-05
4.1063e-05
4.60206e-05
4.37808e-05
4.06847e-05
3.88799e-05
3.8759e-05
4.00345e-05
4.22165e-05
4.47991e-05
4.73339e-05
4.95266e-05
5.10563e-05
5.18117e-05
5.21488e-05
5.27823e-05
5.3535e-05
5.35249e-05
5.19799e-05
4.98003e-05
4.52798e-05
3.90212e-05
3.32412e-05
2.74347e-05
2.19427e-05
1.74262e-05
1.44965e-05
1.37565e-05
1.62394e-05
2.27079e-05
1.54181e-05
3.96031e-06
3.71642e-07
6.48078e-07
5.62737e-06
1.93024e-05
4.09305e-05
4.55266e-05
4.30696e-05
3.99025e-05
3.81352e-05
3.81136e-05
3.95293e-05
4.18896e-05
4.46888e-05
4.7477e-05
4.99035e-05
5.16459e-05
5.25591e-05
5.29226e-05
5.34957e-05
5.41638e-05
5.40311e-05
5.23482e-05
5.00693e-05
4.55678e-05
3.9443e-05
3.38219e-05
2.8152e-05
2.27223e-05
1.81776e-05
1.51612e-05
1.43317e-05
1.67574e-05
2.3181e-05
1.55456e-05
3.99394e-06
3.78312e-07
6.4749e-07
5.61687e-06
1.93162e-05
4.07859e-05
4.50291e-05
4.23658e-05
3.91365e-05
3.74077e-05
3.74774e-05
3.90192e-05
4.15411e-05
4.45389e-05
4.75536e-05
5.02446e-05
5.22252e-05
5.33113e-05
5.3724e-05
5.42369e-05
5.47796e-05
5.44626e-05
5.25911e-05
5.01539e-05
4.56259e-05
3.96246e-05
3.4164e-05
2.86622e-05
2.3361e-05
1.88724e-05
1.58475e-05
1.49895e-05
1.74048e-05
2.37426e-05
1.56698e-05
4.02936e-06
3.84943e-07
6.46491e-07
5.60581e-06
1.93233e-05
4.06199e-05
4.45221e-05
4.16668e-05
3.83829e-05
3.66884e-05
3.68353e-05
3.84827e-05
4.11441e-05
4.43231e-05
4.75644e-05
5.05048e-05
5.27249e-05
5.40062e-05
5.45209e-05
5.51014e-05
5.56971e-05
5.48059e-05
5.23966e-05
5.00434e-05
4.56244e-05
3.97448e-05
3.44271e-05
2.90828e-05
2.39196e-05
1.9521e-05
1.65365e-05
1.57028e-05
1.81623e-05
2.44043e-05
1.5828e-05
4.07092e-06
3.91783e-07
6.45219e-07
5.59205e-06
1.93177e-05
4.04434e-05
4.40221e-05
4.09877e-05
3.76557e-05
3.59953e-05
3.62156e-05
3.79638e-05
4.07604e-05
4.41187e-05
4.75829e-05
5.07598e-05
5.32365e-05
5.47644e-05
5.54511e-05
5.60151e-05
5.62618e-05
5.49229e-05
5.31286e-05
5.01265e-05
4.48735e-05
3.95117e-05
3.44568e-05
2.93348e-05
2.43731e-05
2.01304e-05
1.7244e-05
1.64773e-05
1.90135e-05
2.51409e-05
1.60197e-05
4.1201e-06
3.9942e-07
6.44389e-07
5.58029e-06
1.93197e-05
4.02657e-05
4.35194e-05
4.03102e-05
3.69345e-05
3.53091e-05
3.55995e-05
3.74417e-05
4.03651e-05
4.38949e-05
4.75842e-05
5.09836e-05
5.36725e-05
5.53424e-05
5.6044e-05
5.65873e-05
5.69372e-05
5.57518e-05
5.37538e-05
4.97327e-05
4.42777e-05
3.9366e-05
3.44452e-05
2.94604e-05
2.46899e-05
2.06382e-05
1.79092e-05
1.72803e-05
1.99505e-05
2.59513e-05
1.62111e-05
4.1735e-06
4.06978e-07
6.42983e-07
5.56765e-06
1.93149e-05
4.00793e-05
4.30213e-05
3.96479e-05
3.62319e-05
3.4636e-05
3.49829e-05
3.68984e-05
3.9921e-05
4.35916e-05
4.74744e-05
5.1094e-05
5.4011e-05
5.58741e-05
5.66952e-05
5.72508e-05
5.74984e-05
5.61134e-05
5.38218e-05
4.95511e-05
4.40159e-05
3.91186e-05
3.42922e-05
2.94631e-05
2.48962e-05
2.10558e-05
1.85239e-05
1.80836e-05
2.09329e-05
2.67971e-05
1.6394e-05
4.22829e-06
4.1413e-07
6.41368e-07
5.55268e-06
1.92997e-05
3.98865e-05
4.25273e-05
3.89936e-05
3.55393e-05
3.39724e-05
3.43738e-05
3.6359e-05
3.94743e-05
4.3274e-05
4.73353e-05
5.11658e-05
5.42757e-05
5.63128e-05
5.72507e-05
5.78015e-05
5.79345e-05
5.63817e-05
5.38597e-05
4.94077e-05
4.38112e-05
3.89013e-05
3.413e-05
2.94262e-05
2.50463e-05
2.14182e-05
1.9104e-05
1.88853e-05
2.19383e-05
2.76374e-05
1.65745e-05
4.28591e-06
4.21354e-07
6.40107e-07
5.53911e-06
1.92932e-05
3.96984e-05
4.20325e-05
3.83409e-05
3.48544e-05
3.33221e-05
3.3782e-05
3.58388e-05
3.90462e-05
4.29684e-05
4.71891e-05
5.12005e-05
5.44896e-05
5.66927e-05
5.77324e-05
5.8275e-05
5.82954e-05
5.66059e-05
5.38884e-05
4.93093e-05
4.36929e-05
3.87599e-05
3.40129e-05
2.94004e-05
2.51794e-05
2.17474e-05
1.96519e-05
1.96673e-05
2.29295e-05
2.84405e-05
1.6749e-05
4.34442e-06
4.28772e-07
6.38581e-07
5.52474e-06
1.92819e-05
3.95018e-05
4.15384e-05
3.7699e-05
3.41863e-05
3.26869e-05
3.31967e-05
3.53135e-05
3.86026e-05
4.26449e-05
4.70181e-05
5.12067e-05
5.46798e-05
5.70226e-05
5.81627e-05
5.86962e-05
5.85908e-05
5.67434e-05
5.38519e-05
4.91819e-05
4.35638e-05
3.86203e-05
3.39047e-05
2.93834e-05
2.53081e-05
2.20596e-05
2.01768e-05
2.04299e-05
2.38992e-05
2.9204e-05
1.69112e-05
4.40259e-06
4.36223e-07
6.3684e-07
5.51012e-06
1.92697e-05
3.93027e-05
4.10506e-05
3.70728e-05
3.35396e-05
3.20726e-05
3.26267e-05
3.47936e-05
3.81502e-05
4.22953e-05
4.68031e-05
5.11518e-05
5.47963e-05
5.72986e-05
5.85192e-05
5.89518e-05
5.86434e-05
5.72438e-05
5.40516e-05
4.88439e-05
4.34082e-05
3.84895e-05
3.38042e-05
2.9373e-05
2.54356e-05
2.23626e-05
2.06854e-05
2.1175e-05
2.48422e-05
2.99196e-05
1.70562e-05
4.45895e-06
4.43543e-07
6.34759e-07
5.49438e-06
1.92523e-05
3.91029e-05
4.05734e-05
3.64656e-05
3.2915e-05
3.14779e-05
3.20695e-05
3.42775e-05
3.76916e-05
4.1929e-05
4.65631e-05
5.10671e-05
5.48773e-05
5.75165e-05
5.88213e-05
5.93317e-05
5.91623e-05
5.77067e-05
5.37268e-05
4.83684e-05
4.33031e-05
3.8412e-05
3.37373e-05
2.93766e-05
2.55638e-05
2.26587e-05
2.1183e-05
2.19059e-05
2.57579e-05
3.05878e-05
1.71863e-05
4.5135e-06
4.50687e-07
6.3224e-07
5.47732e-06
1.92291e-05
3.89021e-05
4.0108e-05
3.58822e-05
3.23201e-05
3.09105e-05
3.15309e-05
3.37655e-05
3.72195e-05
4.15315e-05
4.62795e-05
5.09392e-05
5.49394e-05
5.77758e-05
5.92262e-05
5.97335e-05
5.93948e-05
5.76904e-05
5.3569e-05
4.81945e-05
4.31337e-05
3.82692e-05
3.3646e-05
2.93769e-05
2.56918e-05
2.29512e-05
2.16724e-05
2.26218e-05
2.66401e-05
3.12049e-05
1.73055e-05
4.56596e-06
4.577e-07
6.29251e-07
5.45811e-06
1.91955e-05
3.8695e-05
3.96588e-05
3.53205e-05
3.17503e-05
3.03678e-05
3.10125e-05
3.32651e-05
3.67446e-05
4.11128e-05
4.59585e-05
5.07668e-05
5.49597e-05
5.79981e-05
5.96039e-05
6.01193e-05
5.96254e-05
5.77181e-05
5.34912e-05
4.80858e-05
4.30001e-05
3.81369e-05
3.35556e-05
2.93747e-05
2.58155e-05
2.32376e-05
2.21517e-05
2.33201e-05
2.74858e-05
3.17733e-05
1.74159e-05
4.61666e-06
4.64608e-07
6.26155e-07
5.43799e-06
1.91609e-05
3.84931e-05
3.92142e-05
3.47747e-05
3.12043e-05
2.98533e-05
3.05238e-05
3.27926e-05
3.62916e-05
4.0703e-05
4.56291e-05
5.0576e-05
5.49844e-05
5.83131e-05
6.02174e-05
6.08656e-05
5.99383e-05
5.75272e-05
5.32802e-05
4.79622e-05
4.29038e-05
3.80504e-05
3.35035e-05
2.93905e-05
2.59419e-05
2.35213e-05
2.26223e-05
2.39993e-05
2.82913e-05
3.22947e-05
1.75205e-05
4.6656e-06
4.71608e-07
6.23041e-07
5.41721e-06
1.91283e-05
3.82951e-05
3.87823e-05
3.42528e-05
3.06939e-05
2.93778e-05
3.00705e-05
3.23493e-05
3.58598e-05
4.03026e-05
4.52906e-05
5.03404e-05
5.48913e-05
5.83849e-05
6.04562e-05
6.11882e-05
6.02577e-05
5.77925e-05
5.34769e-05
4.80909e-05
4.29418e-05
3.80343e-05
3.34868e-05
2.94192e-05
2.60667e-05
2.3796e-05
2.30773e-05
2.46512e-05
2.90501e-05
3.27733e-05
1.76182e-05
4.71235e-06
4.78489e-07
6.19622e-07
5.39592e-06
1.90984e-05
3.80995e-05
3.83568e-05
3.37495e-05
3.02103e-05
2.89306e-05
2.96406e-05
3.19165e-05
3.54194e-05
3.98619e-05
4.48759e-05
4.99977e-05
5.46678e-05
5.83045e-05
6.05149e-05
6.14293e-05
6.09734e-05
5.81652e-05
5.34902e-05
4.83238e-05
4.3112e-05
3.8117e-05
3.35298e-05
2.94776e-05
2.62006e-05
2.40608e-05
2.35093e-05
2.52646e-05
2.97529e-05
3.32108e-05
1.77097e-05
4.75658e-06
4.85262e-07
6.15781e-07
5.37251e-06
1.90632e-05
3.78999e-05
3.79395e-05
3.32753e-05
2.97718e-05
2.85313e-05
2.92509e-05
3.15117e-05
3.49927e-05
3.94092e-05
4.44136e-05
4.95736e-05
5.43548e-05
5.81763e-05
6.05888e-05
6.15648e-05
6.10949e-05
5.82677e-05
5.36846e-05
4.86501e-05
4.34295e-05
3.83582e-05
3.37011e-05
2.96194e-05
2.63743e-05
2.43271e-05
2.39154e-05
2.58301e-05
3.03944e-05
3.36148e-05
1.78026e-05
4.79951e-06
4.92198e-07
6.11896e-07
5.34924e-06
1.90366e-05
3.76997e-05
3.75314e-05
3.28369e-05
2.93852e-05
2.81877e-05
2.8912e-05
3.11447e-05
3.45865e-05
3.89633e-05
4.39449e-05
4.91192e-05
5.39699e-05
5.79189e-05
6.0477e-05
6.14759e-05
6.09948e-05
5.83028e-05
5.38972e-05
4.89858e-05
4.38059e-05
3.8706e-05
3.39805e-05
2.98452e-05
2.66043e-05
2.46174e-05
2.4317e-05
2.63682e-05
3.09949e-05
3.39948e-05
1.78908e-05