/*--------------------------------*- C++ -*----------------------------------*\
| =========                 |                                                 |
| \\      /  F ield         | OpenFOAM: The Open Source CFD Toolbox           |
|  \\    /   O peration     | Version:  v2012                                 |
|   \\  /    A nd           | Website:  www.openfoam.com                      |
|    \\/     M anipulation  |                                                 |
\*---------------------------------------------------------------------------*/
FoamFile
{
    version     2.0;
    format      ascii;
    class       volScalarField;
    location    "1000";
    object      omega;
}
// * * * * * * * * * * * * * * * * * * * * * * * * * * * * * * * * * * * * * //

dimensions      [0 0 -1 0 0 0 0];


internalField   nonuniform List<scalar> 
78750
(
340.695
14.1137
14.6522
15.0788
15.44
15.7431
15.9919
16.1983
16.3766
16.5225
16.6731
16.803
16.914
16.9995
17.0585
17.1053
17.1368
17.1558
17.1486
17.1498
17.1356
17.1132
17.0848
17.0538
17.0203
16.9839
16.9433
16.8974
16.8444
16.7807
16.7042
16.6049
16.466
16.0886
354.532
499.194
5.08413
5.79331
6.35506
6.79785
7.13934
7.38668
7.5846
7.73829
7.84917
7.90569
7.92396
7.91941
7.89653
7.86323
7.81464
7.74884
7.66796
7.57977
7.48789
7.39232
7.29555
7.20203
7.11638
7.04318
6.98411
6.93849
6.90609
6.88738
6.87713
6.86318
6.81137
6.68947
6.34691
520.464
500.663
5.43343
6.18833
6.75768
7.18104
7.49397
7.71255
7.8406
7.91747
7.9611
7.98211
7.98382
7.96765
7.93784
7.89754
7.8386
7.75968
7.66673
7.55835
7.42874
7.27601
7.09938
6.91743
6.76616
6.6474
6.55593
6.49277
6.46139
6.46305
6.49893
6.56481
6.592
6.49775
6.17113
521.105
500.648
5.46375
6.24292
6.80537
7.2355
7.53695
7.75333
7.9174
8.04363
8.13799
8.20344
8.24062
8.24827
8.23194
8.1703
8.08919
7.99927
7.89999
7.79572
7.69384
7.59245
7.48999
7.37853
7.24174
7.07233
6.87788
6.69341
6.53994
6.45861
6.40524
6.39768
6.40554
6.34121
6.05982
521.832
500.488
5.46232
6.29718
6.91548
7.37808
7.70876
7.93973
8.0986
8.2062
8.27553
8.31812
8.3335
8.3185
8.25896
8.18372
8.09239
7.99354
7.88956
7.78341
7.68441
7.58845
7.49607
7.40671
7.31955
7.22386
7.11729
6.99695
6.84336
6.65059
6.48998
6.40261
6.34155
6.2434
5.99212
522.347
502.087
5.81744
6.74645
7.37721
7.79089
8.0545
8.22436
8.33348
8.40015
8.43184
8.42806
8.38925
8.32791
8.24831
8.13935
8.00755
7.86425
7.71724
7.57403
7.44311
7.32359
7.2295
7.16338
7.12782
7.1083
7.07598
6.9957
6.90475
6.7924
6.65454
6.49753
6.36479
6.23605
6.00745
522.813
503.361
6.07183
7.04096
7.63877
7.98918
8.20192
8.33646
8.41861
8.46002
8.46604
8.43674
8.36886
8.2639
8.12354
7.95558
7.77107
7.58421
7.40379
7.23765
7.09192
6.96942
6.88622
6.83882
6.83117
6.8433
6.87365
6.89881
6.87696
6.7971
6.68849
6.55666
6.40566
6.25065
6.02585
523.192
504.375
6.43005
7.37917
7.90592
8.1917
8.35699
8.45432
8.5039
8.51313
8.48188
8.41021
8.29314
8.13319
7.93628
7.71624
7.49294
7.27674
7.07508
6.89396
6.73977
6.62956
6.56759
6.54526
6.55572
6.60174
6.67254
6.73982
6.7691
6.75383
6.68425
6.56803
6.42841
6.26881
6.02811
523.594
505.541
6.67629
7.58501
8.05605
8.30088
8.43923
8.51641
8.54503
8.52765
8.47014
8.35582
8.18674
7.96904
7.72239
7.47552
7.24714
7.03456
6.84849
6.69353
6.56947
6.48014
6.42251
6.39986
6.4079
6.4502
6.52188
6.60248
6.66052
6.67706
6.65037
6.56825
6.44269
6.27783
6.01299
523.89
506.173
6.8573
7.71076
8.14456
8.36371
8.48438
8.5477
8.56064
8.52462
8.42006
8.24219
8.001
7.71943
7.43573
7.19198
6.99122
6.83254
6.69522
6.57088
6.47197
6.39644
6.34375
6.32004
6.32574
6.36632
6.43575
6.51755
6.58609
6.62236
6.61455
6.55236
6.43849
6.27733
5.97293
524.309
506.788
6.96267
7.7811
8.19309
8.4004
8.5131
8.5651
8.56192
8.49895
8.36965
8.17791
7.93065
7.64912
7.37566
7.14355
6.96483
6.82446
6.7061
6.59782
6.49955
6.41703
6.35541
6.31875
6.30717
6.32702
6.3847
6.45633
6.52412
6.57022
6.5773
6.53456
6.43686
6.26827
5.92533
524.728
506.915
6.97497
7.78909
8.19832
8.40708
8.519
8.5703
8.56684
8.49636
8.36762
8.18089
7.94463
7.66868
7.39379
7.14822
6.9632
6.83821
6.75197
6.67792
6.60149
6.5208
6.44184
6.37451
6.33793
6.33507
6.35931
6.41839
6.48081
6.53077
6.54708
6.51368
6.42094
6.24337
5.86729
525.25
506.886
6.97095
7.78565
8.19813
8.41497
8.53626
8.59976
8.60991
8.56648
8.46463
8.30465
8.0912
7.83772
7.55959
7.26881
6.99773
6.80185
6.69319
6.64571
6.61046
6.56901
6.51787
6.45888
6.40437
6.36734
6.35956
6.37825
6.43313
6.48489
6.50905
6.48421
6.39731
6.21983
5.83634
525.737
506.89
6.95573
7.78086
8.19881
8.41957
8.54414
8.61057
8.62477
8.58502
8.48978
8.34508
8.16529
7.95947
7.73041
7.47972
7.21022
6.93724
6.71341
6.59349
6.56652
6.56221
6.54156
6.51041
6.46992
6.4283
6.39149
6.38281
6.40732
6.44652
6.46897
6.44782
6.36494
6.1895
5.80855
526.292
506.934
6.96118
7.79715
8.2192
8.43822
8.56693
8.64046
8.66419
8.6372
8.55944
8.43421
8.26355
8.0588
7.83268
7.60421
7.36822
7.1295
6.89049
6.68798
6.56392
6.50709
6.50296
6.49918
6.47565
6.43686
6.40095
6.38076
6.39193
6.4167
6.43132
6.41
6.32948
6.15809
5.7889
526.804
506.986
6.97362
7.80448
8.22757
8.45066
8.58232
8.65833
8.68586
8.66501
8.59284
8.46959
8.29934
8.08745
7.85908
7.61979
7.3836
7.15227
6.93059
6.73692
6.59284
6.50279
6.45697
6.43962
6.43366
6.42441
6.40091
6.38386
6.38405
6.39572
6.40145
6.37741
6.29763
6.13021
5.77499
527.289
507.115
6.99926
7.83512
8.25808
8.48193
8.61518
8.69188
8.71932
8.69786
8.62083
8.48916
8.31002
8.09148
7.85615
7.61483
7.36904
7.12691
6.89953
6.70581
6.56853
6.48019
6.43027
6.40723
6.39867
6.39408
6.38767
6.38057
6.37956
6.38284
6.37944
6.347
6.26589
6.10185
5.76127
527.753
507.391
7.05779
7.87861
8.29196
8.50965
8.63835
8.71137
8.73446
8.70729
8.62581
8.49257
8.31161
8.08787
7.84409
7.59235
7.33992
7.08977
6.85078
6.64406
6.50102
6.41893
6.37776
6.3621
6.36018
6.36282
6.36593
6.36809
6.36975
6.37029
6.35984
6.32087
6.23657
6.07383
5.74332
528.167
507.667
7.10342
7.90879
8.31234
8.52781
8.6578
8.73281
8.75807
8.73269
8.65133
8.5179
8.33801
8.11753
7.86982
7.61288
7.34826
7.09257
6.85172
6.63694
6.47752
6.38373
6.33726
6.32144
6.32198
6.32961
6.33905
6.34765
6.35392
6.35505
6.34224
6.29909
6.21232
6.04995
5.72512
528.549
507.853
7.14466
7.94258
8.34059
8.55285
8.68103
8.75425
8.77633
8.74625
8.661
8.52505
8.34329
8.12336
7.87494
7.61343
7.34768
7.08713
6.84073
6.6236
6.45836
6.35964
6.30891
6.29033
6.29046
6.30007
6.31321
6.32623
6.33608
6.33887
6.32537
6.2797
6.19107
6.02825
5.70572
528.939
508.108
7.18389
7.96434
8.35458
8.56486
8.69362
8.7678
8.79026
8.75985
8.67449
8.53733
8.35348
8.13123
7.88069
7.61333
7.33602
7.06645
6.81296
6.59047
6.42415
6.32792
6.27997
6.26289
6.26393
6.2749
6.29026
6.30601
6.31832
6.3224
6.30794
6.26023
6.16971
6.00558
5.68377
529.35
508.376
7.21731
7.98301
8.3683
8.58118
8.71183
8.78702
8.80995
8.77905
8.69312
8.55501
8.37176
8.15259
7.90743
7.64653
7.37192
7.08975
6.81747
6.58018
6.4017
6.30038
6.25295
6.2379
6.24081
6.25332
6.27015
6.28744
6.30102
6.30556
6.29026
6.24113
6.14916
5.9835
5.66096
529.752
508.485
7.23012
7.99033
8.37417
8.58731
8.72075
8.80029
8.8279
8.80375
8.72785
8.6047
8.43997
8.2389
8.00707
7.75233
7.47938
7.19435
6.90758
6.64353
6.43465
6.30498
6.2417
6.21998
6.22185
6.23515
6.25292
6.27092
6.2848
6.28887
6.27245
6.22195
6.1289
5.96268
5.64077
530.148
508.492
7.22677
7.98866
8.37303
8.58959
8.73102
8.81952
8.85615
8.84428
8.78325
8.67589
8.52659
8.34301
8.13369
7.90649
7.65977
7.39168
7.10668
6.82023
6.56318
6.37198
6.26321
6.2199
6.20903
6.21829
6.23589
6.25416
6.26785
6.27107
6.25408
6.20289
6.10945
5.94337
5.62338
530.538
508.449
7.20654
7.97994
8.37145
8.59086
8.73638
8.83166
8.87882
8.88024
8.83427
8.74394
8.61515
8.4543
8.26724
8.06048
7.83672
7.59507
7.33543
7.06204
6.78921
6.54661
6.3691
6.25972
6.21549
6.20969
6.21983
6.23727
6.25144
6.25451
6.2378
6.1865
6.09337
5.92895
5.61391
530.907
508.42
7.19843
7.97381
8.36932
8.59814
8.74947
8.8516
8.90971
8.92258
8.8901
8.81253
8.69337
8.53856
8.35561
8.15263
7.9366
7.70833
7.46815
7.21758
6.96269
6.72149
6.52068
6.36902
6.27159
6.225
6.21741
6.22428
6.23515
6.23773
6.22249
6.17222
6.0806
5.92025
5.61695
531.272
508.485
7.20461
7.98392
8.38356
8.61273
8.76732
8.87383
8.93726
8.95559
8.92839
8.85454
8.73899
8.58713
8.40668
8.20601
7.99209
7.7648
7.52608
7.28041
7.03489
6.80478
6.61006
6.45419
6.33859
6.2652
6.22931
6.2225
6.22603
6.22624
6.21042
6.16164
6.07202
5.9164
5.6261
531.612
508.658
7.23242
8.00193
8.39635
8.62624
8.78413
8.89463
8.9611
8.98267
8.96068
8.89576
8.79147
8.64953
8.47354
8.27166
8.05545
7.82673
7.58757
7.34115
7.09549
6.86371
6.66689
6.51168
6.39171
6.30565
6.253
6.22825
6.22107
6.21686
6.1998
6.15225
6.06498
5.91469
5.63677
531.919
508.847
7.26023
8.01913
8.40929
8.63927
8.79965
8.91346
8.98301
9.00733
8.98751
8.92502
8.82486
8.6912
8.52606
8.3328
8.11476
7.87877
7.63549
7.38672
7.13922
6.90501
6.70503
6.54983
6.42988
6.33991
6.27838
6.24216
6.22416
6.21276
6.19297
6.1454
6.06
5.91433
5.64534
532.224
509.037
7.28812
8.03079
8.41175
8.64397
8.80759
8.92458
8.99698
9.0233
9.00441
8.94237
8.84221
8.70957
8.55027
8.36888
8.16612
7.93806
7.68657
7.42523
7.16923
6.9285
6.72242
6.56587
6.44835
6.36054
6.29741
6.25538
6.22957
6.21106
6.18771
6.13934
6.05498
5.91211
5.6468
532.509
509.184
7.29531
8.03306
8.41601
8.64531
8.8133
8.93578
9.01368
9.04443
9.02791
8.967
8.86658
8.73245
8.57098
8.38906
8.1902
7.97314
7.73623
7.4794
7.21433
6.9631
6.74336
6.57613
6.45503
6.36875
6.30778
6.26519
6.23555
6.21191
6.18468
6.13453
6.05044
5.90939
5.64665
532.797
509.21
7.29786
8.03104
8.4147
8.64684
8.81707
8.94506
9.03037
9.06997
9.06535
9.01808
8.93119
8.80833
8.65412
8.47482
8.27478
8.05539
7.81892
7.56734
7.30585
7.04999
6.81415
6.62252
6.48057
6.3813
6.31458
6.26969
6.23783
6.2109
6.18138
6.12996
6.04584
5.90553
5.64206
533.078
509.228
7.28519
8.01905
8.40415
8.64234
8.81926
8.95467
9.04867
9.09957
9.10624
9.07012
8.99372
8.88059
8.73514
8.56325
8.36978
8.15653
7.92657
7.68311
7.43245
7.18013
6.93524
6.72086
6.55157
6.42548
6.33816
6.2808
6.24256
6.21246
6.17985
6.12729
6.04293
5.90314
5.64093
533.35
509.232
7.27002
8.00562
8.39519
8.63823
8.82088
8.963
9.06541
9.12593
9.14374
9.12026
9.05765
8.9585
8.8255
8.66287
8.47598
8.26669
8.03919
7.79897
7.55336
7.30399
7.05736
6.83275
6.64559
6.49521
6.38258
6.30475
6.2535
6.21643
6.18029
6.12605
6.0416
5.90288
5.64378
533.627
509.259
7.26624
7.99899
8.39111
8.63843
8.8261
8.97469
9.08486
9.1547
9.18304
9.17119
9.12099
9.03514
8.91615
8.76698
8.59066
8.38794
8.16255
7.92053
7.67151
7.41963
7.17015
6.93969
6.74262
6.57626
6.44261
6.3432
6.27452
6.22609
6.1836
6.12761
6.04268
5.90491
5.65089
533.904
509.349
7.26484
7.99382
8.38697
8.63749
8.8289
8.98218
9.09792
9.17464
9.21147
9.20956
9.17057
9.0955
8.98724
8.84917
8.68416
8.49186
8.27441
8.03506
7.78051
7.52287
7.26819
7.03208
6.82817
6.65187
6.504
6.38748
6.3022
6.24101
6.19087
6.13097
6.04474
5.90839
5.65934
534.185
509.425
7.26669
7.99086
8.38402
8.63647
8.82938
8.98816
9.10898
9.19144
9.23558
9.24315
9.21733
9.15734
9.06485
8.941
8.78794
8.60521
8.39516
8.16109
7.90707
7.64104
7.37708
7.13089
6.91678
6.72937
6.5683
6.43657
6.33577
6.2614
6.20228
6.13755
6.04964
5.91388
5.66871
534.473
509.512
7.26937
7.9867
8.37892
8.63368
8.83074
8.98921
9.11566
9.20289
9.25147
9.26393
9.24408
9.19309
9.11341
9.00578
8.86965
8.70223
8.50402
8.2774
8.02697
7.75876
7.48468
7.22822
7.00406
6.80634
6.63362
6.48837
6.37312
6.28559
6.21673
6.14639
6.05612
5.92049
5.67855
534.761
509.647
7.27561
7.9841
8.37355
8.62977
8.83014
8.99301
9.12145
9.21212
9.26479
9.28221
9.26815
9.2246
9.15391
9.05739
8.93439
8.78199
8.59958
8.38764
8.14791
7.88388
7.60397
7.33131
7.09265
6.88248
6.69843
6.54142
6.41348
6.31352
6.23468
6.15819
6.06511
5.92917
5.68936
535.05
509.722
7.27523
7.97459
8.36241
8.62038
8.82501
8.99123
9.12314
9.21846
9.27515
9.29667
9.28701
9.24908
9.18541
9.09762
8.98453
8.8433
8.67339
8.47512
8.24954
7.99802
7.72458
7.44507
7.18711
6.95981
6.76153
6.59252
6.45352
6.34284
6.25457
6.17155
6.07506
5.93787
5.69794
535.349
509.773
7.26783
7.96162
8.34809
8.60763
8.81601
8.98806
9.1225
9.22375
9.28628
9.31372
9.31003
9.27856
9.22189
9.14216
9.03802
8.90686
8.7481
8.56196
8.34916
8.11002
7.84625
7.56959
7.30075
7.05222
6.83386
6.64763
6.49477
6.37301
6.276
6.18689
6.08692
5.94795
5.70709
535.64
509.838
7.25916
7.94692
8.33242
8.59366
8.8054
8.98208
9.12323
9.22808
9.29555
9.32827
9.33013
9.30512
9.25493
9.18254
9.08629
8.96378
8.81466
8.63939
8.43876
8.21267
7.96143
7.69351
7.42429
7.15959
6.92051
6.7142
6.54376
6.40791
6.30041
6.20433
6.10039
5.9594
5.71801
535.926
509.879
7.24902
7.93221
8.31626
8.57806
8.79323
8.97459
9.12114
9.22981
9.3049
9.34419
9.35218
9.33304
9.28918
9.22364
9.13453
9.01961
8.87863
8.71223
8.52136
8.30587
8.06551
7.80714
7.54268
7.27358
7.01379
6.78684
6.59747
6.44612
6.32732
6.22394
6.11586
5.97265
5.73032
536.215
509.918
7.23584
7.91516
8.29862
8.56133
8.77912
8.96523
9.11739
9.23334
9.31436
9.36028
9.3749
9.36218
9.32476
9.26582
9.18334
9.07537
8.94176
8.78331
8.60106
8.39484
8.16406
7.9146
7.65593
7.38608
7.11414
6.86707
6.65845
6.49023
6.35828
6.24605
6.13293
5.98703
5.74373
536.498
509.97
7.22602
7.90075
8.2826
8.54539
8.76487
8.95442
9.11214
9.23343
9.322
9.37545
9.39755
9.39208
9.36187
9.3098
9.23375
9.13214
9.00514
8.85388
8.67967
8.48243
8.26148
8.02196
7.77072
7.5029
7.2232
6.95399
6.72418
6.53796
6.39249
6.2712
6.15282
6.00419
5.76048
536.768
510.021
7.21576
7.88564
8.26601
8.52901
8.75004
8.94221
9.10419
9.23246
9.32491
9.38639
9.4163
9.41859
9.3968
9.35213
9.28274
9.18727
9.06619
8.92109
8.75382
8.56478
8.35356
8.12497
7.88351
7.62189
7.34054
7.05596
6.80221
6.5945
6.43234
6.29987
6.17524
6.02348
5.77924
537.035
510.077
7.20678
7.8711
8.24931
8.51213
8.73433
8.92861
9.09354
9.22609
9.32414
9.39121
9.43062
9.44154
9.42802
9.39156
9.32969
9.24098
9.12596
8.98654
8.82506
8.64255
8.43933
8.22039
7.98834
7.73434
7.45548
7.16265
6.8842
6.65478
6.47589
6.33194
6.20067
6.04533
5.79966
537.3
510.137
7.19758
7.85609
8.23187
8.49433
8.71766
8.91405
9.08185
9.2181
9.32178
9.39314
9.43981
9.45875
9.45346
9.42531
9.37143
9.29029
9.18225
9.04918
8.8937
8.7174
8.52143
8.3112
8.08771
7.84131
7.56696
7.27134
6.97728
6.72331
6.52495
6.36757
6.22867
6.06916
5.82133
537.565
510.195
7.18882
7.84102
8.21394
8.47569
8.69976
8.8979
9.06825
9.20784
9.31578
9.39314
9.44243
9.46968
9.47217
9.45221
9.40585
9.33222
9.23144
9.10518
8.95592
8.7856
8.59792
8.39826
8.18288
7.94293
7.67386
7.37848
7.07419
6.79524
6.57786
6.40704
6.26006
6.09568
5.84456
537.828
510.256
7.17966
7.82538
8.19528
8.45614
8.68077
8.88043
9.05307
9.19571
9.3075
9.38923
9.44326
9.47601
9.48537
9.47222
9.43372
9.36804
9.27483
9.15568
9.01345
8.85099
8.67241
8.48144
8.27273
8.03925
7.77611
7.4829
7.1729
6.87708
6.63646
6.45001
6.29405
6.12427
5.86912
538.087
510.315
7.1703
7.80907
8.17562
8.43539
8.6604
8.86137
9.03599
9.18126
9.29647
9.38268
9.44259
9.4775
9.49298
9.48524
9.45298
9.39525
9.31099
9.20016
9.06586
8.9113
8.74085
8.55822
8.35734
8.13133
7.87479
7.58559
7.27334
6.96485
6.70094
6.49764
6.33177
6.15569
5.89544
538.342
510.365
7.15862
7.79124
8.15475
8.41344
8.63876
8.84103
9.01773
9.16571
9.28417
9.37403
9.43792
9.4776
9.49845
9.49584
9.46881
9.41687
9.33988
9.23789
9.11186
8.96537
8.80311
8.62861
8.43542
8.21675
7.96683
7.6825
7.37064
7.05438
6.77357
6.54981
6.3727
6.18958
5.92327
538.591
510.415
7.14684
7.77311
8.1334
8.39088
8.61635
8.81979
8.99855
9.14945
9.27164
9.36585
9.4345
9.4796
9.50416
9.5053
9.48269
9.43497
9.36319
9.26813
9.15045
9.01224
8.85861
8.69271
8.50791
8.29743
8.05512
7.77693
7.46736
7.14618
6.85198
6.60891
6.41817
6.22663
5.9532
538.833
510.463
7.13481
7.75467
8.11171
8.36791
8.59339
8.79781
8.97839
9.13201
9.25783
9.35649
9.43016
9.48053
9.51
9.5151
9.49588
9.4516
9.38361
9.29331
9.1823
9.05165
8.90595
8.74776
8.57057
8.36775
8.13301
7.86195
7.55735
7.236
6.93317
6.67448
6.46836
6.2668
5.98476
539.071
510.511
7.12188
7.73532
8.08912
8.34398
8.56935
8.77461
8.95693
9.11323
9.24272
9.34593
9.42474
9.48015
9.51498
9.52448
9.50888
9.4679
9.40304
9.3163
9.20985
9.08567
8.94779
8.79752
8.62841
8.43369
8.20668
7.94262
7.64318
7.32332
7.01486
6.74415
6.52464
6.31116
6.01846
539.303
510.555
7.10844
7.71575
8.06634
8.31979
8.54491
8.75086
8.93482
9.09375
9.22691
9.33476
9.41907
9.48124
9.52065
9.53487
9.5234
9.48616
9.42445
9.34023
9.23586
9.11488
8.98239
8.8371
8.67303
8.48507
8.2665
8.01211
7.72178
7.40781
7.09712
6.81698
6.58549
6.35976
6.0554
539.529
510.602
7.09546
7.69617
8.0433
8.2951
8.51972
8.72608
8.91132
9.07253
9.209
9.32108
9.41032
9.47774
9.52132
9.54116
9.53451
9.50159
9.44363
9.36269
9.26159
9.14416
9.01483
8.87169
8.7107
8.52773
8.31581
8.06994
7.7892
7.4838
7.17578
6.89086
6.64967
6.41214
6.09497
539.749
510.647
7.08149
7.67598
8.01981
8.26994
8.49397
8.7006
8.88698
9.05025
9.18977
9.30581
9.39977
9.47264
9.52163
9.54522
9.54219
9.51281
9.45833
9.38076
9.28295
9.16885
9.04284
8.90248
8.74442
8.5652
8.35833
8.11946
7.84754
7.55149
7.24852
6.96239
6.71478
6.46663
6.1354
539.962
510.69
7.0673
7.65566
7.99615
8.24453
8.46787
8.67467
8.86208
9.02738
9.16991
9.28982
9.38828
9.46615
9.51957
9.54637
9.54773
9.52286
9.47189
9.39754
9.30286
9.192
9.06907
8.93117
8.77545
8.59904
8.39599
8.16283
7.89882
7.61217
7.31564
7.03082
6.77915
6.52215
6.17686
540.17
510.737
7.05352
7.6355
7.97259
8.21913
8.44167
8.64848
8.83674
9.00388
9.14931
9.273
9.37584
9.45845
9.51628
9.54757
9.55231
9.53083
9.48336
9.41247
9.32136
9.21436
9.09482
8.95957
8.80611
8.63193
8.43163
8.20271
7.94514
7.66721
7.37757
7.09562
6.84175
6.57758
6.21899
540.372
510.783
7.03905
7.61487
7.94872
8.19346
8.41516
8.62184
8.81074
8.97951
9.12771
9.25521
9.36265
9.44948
9.51126
9.54622
9.55419
9.53601
9.49191
9.42451
9.33714
9.23435
9.11842
8.98614
8.83523
8.66341
8.46573
8.24057
7.9888
7.71839
7.43541
7.15715
6.90242
6.63249
6.26145
540.566
510.83
7.02418
7.59406
7.92478
8.16775
8.38859
8.59504
8.78441
8.95457
9.10525
9.23627
9.34804
9.4389
9.5045
9.54306
9.55423
9.53947
9.49878
9.4347
9.35111
9.25279
9.14034
9.01078
8.86238
8.69296
8.4979
8.27641
8.03037
7.76648
7.48961
7.21533
6.96063
6.68603
6.30343
540.755
510.875
7.00855
7.57283
7.90067
8.14199
8.36199
8.56814
8.75782
8.92923
9.08228
9.21675
9.33275
9.42755
9.49687
9.53899
9.55368
9.54168
9.50404
9.44342
9.36392
9.26985
9.16051
9.03368
8.88799
8.72107
8.52864
8.31067
8.07004
7.81206
7.54088
7.27067
7.01655
6.7381
6.34468
540.936
510.92
6.99216
7.55126
7.87648
8.11631
8.33551
8.54126
8.73104
8.90342
9.0586
9.19638
9.31657
9.41534
9.48842
9.53403
9.55196
9.54298
9.50824
9.45075
9.37468
9.28432
9.17809
9.054
8.9109
8.74659
8.55703
8.3428
8.1076
7.85527
7.58946
7.32328
7.07005
6.78835
6.38489
541.111
510.963
6.9749
7.52921
7.85215
8.09075
8.30928
8.51469
8.7045
8.8777
9.03485
9.17585
9.30023
9.4031
9.4801
9.52925
9.55023
9.54428
9.51255
9.45807
9.3853
9.29825
9.19478
9.07312
8.93235
8.77046
8.5837
8.37313
8.14325
7.89637
7.63573
7.37352
7.12141
6.83692
6.42407
541.278
511.009
6.95739
7.507
7.82788
8.06545
8.28347
8.48846
8.67805
8.85173
9.01059
9.15472
9.2835
9.39105
9.47292
9.52687
9.55235
9.54974
9.52086
9.46899
9.39869
9.31355
9.21156
9.09133
8.95222
8.79244
8.60843
8.40162
8.17708
7.93553
7.67988
7.42155
7.17068
6.88381
6.46235
541.439
511.057
6.93924
7.4843
7.80344
8.04041
8.25816
8.46276
8.65184
8.82542
8.98525
9.13179
9.26434
9.37631
9.4632
9.52237
9.55288
9.55568
9.53174
9.48383
9.41707
9.33396
9.23272
9.11255
8.97352
8.81444
8.63222
8.42859
8.20918
7.97282
7.72204
7.46753
7.21802
6.92913
6.49972
541.593
511.106
6.92028
7.46098
7.77869
8.01542
8.2333
8.43768
8.62611
8.79912
8.95914
9.10718
9.24211
9.35753
9.44904
9.51374
9.55026
9.55868
9.54081
9.49901
9.43784
9.35801
9.25807
9.13785
8.99801
8.83828
8.65653
8.4553
8.24005
8.00844
7.76231
7.51149
7.26342
6.97284
6.53602
541.739
511.154
6.90006
7.43666
7.75338
7.9903
8.20879
8.41338
8.60125
8.77336
8.93306
9.08201
9.21825
9.33605
9.43126
9.50087
9.54328
9.55835
9.54741
9.51273
9.45828
9.38334
9.28629
9.16712
9.02686
8.8661
8.68392
8.48403
8.27146
8.04355
7.80144
7.55399
7.30733
7.01534
6.57178
541.88
511.204
6.87903
7.41151
7.72769
7.96545
8.1851
8.39019
8.57761
8.7486
8.90723
9.05611
9.19294
9.3125
9.41077
9.48469
9.5325
9.5539
9.55007
9.52322
9.47648
9.40774
9.3151
9.19842
9.05885
8.89756
8.71473
8.5154
8.30432
8.07898
7.84006
7.59543
7.35
7.0567
6.60689
542.014
511.254
6.85615
7.38473
7.70096
7.94036
8.16198
8.36828
8.55556
8.72535
8.88246
9.03031
9.16637
9.28642
9.38681
9.46433
9.51709
9.54469
9.54822
9.53004
9.49159
9.43002
9.34308
9.23033
9.09279
8.93193
8.74883
8.5497
8.3392
8.11536
7.87868
7.63624
7.39174
7.09716
6.64148
542.142
511.304
6.83173
7.35644
7.67316
7.91487
8.13926
8.34759
8.53538
8.70409
8.85914
9.00498
9.13908
9.25821
9.35926
9.43927
9.49625
9.5297
9.54069
9.53137
9.50184
9.44847
9.3686
9.26145
9.12768
8.96875
8.78623
8.58741
8.37684
8.15343
7.91794
7.67688
7.43284
7.13679
6.67545
542.265
511.353
6.80504
7.32608
7.64381
7.88857
8.11666
8.32811
8.51749
8.68587
8.83898
8.98212
9.11298
9.22955
9.32946
9.4101
9.46966
9.50774
9.52538
9.52456
9.50375
9.45923
9.38767
9.28782
9.15983
9.00481
8.82455
8.62708
8.41659
8.19305
7.95791
7.71751
7.47336
7.17534
6.70786
542.383
511.4
6.77616
7.29373
7.61276
7.86111
8.09371
8.30944
8.50178
8.67106
8.82298
8.96351
9.09058
9.20348
9.30072
9.38018
9.44036
9.48111
9.50363
9.50987
9.49701
9.45992
9.39706
9.30558
9.18505
9.0361
8.86035
8.66611
8.45676
8.2333
7.99817
7.7579
7.51308
7.21247
6.73809
542.498
511.446
6.74526
7.25928
7.57969
7.83198
8.06981
8.29102
8.48787
8.65964
8.81158
8.95007
9.07329
9.1819
9.27539
9.35222
9.41136
9.45305
9.47878
9.49029
9.48356
9.45411
9.3976
9.31451
9.20192
9.06019
8.89061
8.70163
8.49514
8.2728
8.03807
7.79785
7.55206
7.24841
6.76654
542.61
511.494
6.7131
7.22314
7.54457
7.8008
8.04431
8.27208
8.47511
8.65135
8.80517
8.94285
9.0627
9.1668
9.25616
9.32945
9.38644
9.42778
9.45533
9.47014
9.46743
9.44284
9.39318
9.31522
9.21075
9.07707
8.91538
8.73285
8.53064
8.31057
8.07688
7.83689
7.59002
7.28304
6.79341
542.72
511.546
6.68039
7.18552
7.50718
7.76695
8.01622
8.2513
8.462
8.64484
8.80294
8.94196
9.06023
9.16076
9.24493
9.31385
9.36792
9.4079
9.43611
9.45251
9.45207
9.43066
9.3853
9.31412
9.21512
9.08837
8.93459
8.75911
8.56235
8.34583
8.11413
7.87489
7.62726
7.31698
6.81974
542.827
511.606
6.64817
7.14704
7.46778
7.73032
7.98504
8.22774
8.44714
8.63833
8.80291
8.94592
9.06401
9.16172
9.24234
9.30725
9.35723
9.39484
9.42272
9.43942
9.43995
9.42038
9.37774
9.30991
9.21531
9.09603
8.9501
8.78173
8.59075
8.37838
8.14933
7.91136
7.66333
7.35001
6.84546
542.93
511.675
6.61679
7.10774
7.42625
7.69044
7.94991
8.20004
8.42873
8.6299
8.80366
8.9533
9.0741
9.17136
9.24901
9.30977
9.35608
9.3906
9.41675
9.43166
9.43049
9.40992
9.36778
9.30271
9.21397
9.10007
8.96133
8.8002
8.61566
8.40828
8.18261
7.94639
7.69838
7.38238
6.87097
543.03
511.756
6.58652
7.06782
7.38286
7.64725
7.91042
8.16714
8.40472
8.61624
8.80054
8.95704
9.08509
9.18543
9.26337
9.32235
9.36583
9.39779
9.42206
9.43494
9.43228
9.41087
9.36854
9.30393
9.21634
9.10549
8.97219
8.81686
8.6379
8.4354
8.21345
7.97953
7.73209
7.414
6.89626
543.124
511.847
6.55691
7.02686
7.33702
7.60056
7.86637
8.12849
8.37397
8.59543
8.79081
8.95706
9.09113
9.19888
9.2807
9.34119
9.38451
9.41546
9.43782
9.44758
9.44144
9.41689
9.37228
9.30665
9.21958
9.11105
8.98226
8.83223
8.65863
8.46085
8.24265
8.01118
7.76448
7.44461
6.92086
543.212
511.943
6.52705
6.98481
7.28914
7.55079
7.81787
8.08375
8.33552
8.56572
8.77159
8.94774
9.09103
9.20479
9.29378
9.35928
9.40593
9.43896
9.46134
9.4693
9.4603
9.43248
9.38482
9.31685
9.22859
9.12047
8.99427
8.84778
8.67835
8.4848
8.27026
8.04131
7.79555
7.47424
6.94466
543.295
512.035
6.49512
6.94093
7.23918
7.49831
7.76549
8.03345
8.28968
8.52692
8.7419
8.92712
9.07955
9.20217
9.29781
9.3702
9.42259
9.46007
9.48457
9.49261
9.4822
9.45206
9.40169
9.3312
9.24124
9.13294
9.00835
8.86449
8.69835
8.50827
8.29686
8.07016
7.82523
7.5024
6.96685
543.373
512.122
6.46118
6.89585
7.18809
7.44428
7.71064
7.97939
8.23857
8.48131
8.70386
8.89698
9.05781
9.18912
9.29339
9.37318
9.43261
9.47682
9.50577
9.51598
9.506
9.47495
9.42278
9.35008
9.25808
9.14882
9.02441
8.88189
8.71808
8.53091
8.32239
8.09788
7.85383
7.52962
6.98825
543.445
512.203
6.42505
6.84965
7.13632
7.38952
7.65451
7.92302
8.18381
8.43077
8.6589
8.85851
9.02649
9.16531
9.27729
9.36492
9.43222
9.48387
9.51862
9.53295
9.52578
9.49628
9.44457
9.37145
9.27861
9.16881
9.04409
8.90188
8.73915
8.55375
8.34729
8.12454
7.88114
7.55533
7.00799
543.515
512.281
6.38739
6.80284
7.08448
7.33498
7.59865
7.86664
8.12825
8.37835
8.61075
8.81622
8.99114
9.13744
9.25704
9.35215
9.4267
9.48506
9.52508
9.54344
9.53949
9.51247
9.46258
9.39067
9.29858
9.18949
9.06514
8.92333
8.76137
8.57721
8.37226
8.15077
7.90766
7.5802
7.02728
543.581
512.364
6.34953
6.75597
7.03289
7.28102
7.54368
7.81109
8.07272
8.32429
8.55899
8.76856
8.94944
9.10326
9.2314
9.33536
9.41854
9.48449
9.53057
9.55365
9.55318
9.52879
9.48089
9.41048
9.31954
9.2116
9.08786
8.94637
8.78483
8.6014
8.39746
8.17679
7.93355
7.60419
7.04571
543.646
512.452
6.31117
6.70877
6.98133
7.22768
7.49022
7.75806
8.02017
8.27262
8.50797
8.71931
8.9037
9.06295
9.19818
9.3105
9.40279
9.47713
9.53032
9.55951
9.56358
9.54274
9.49762
9.42941
9.34029
9.23415
9.11149
8.97056
8.80937
8.62639
8.42304
8.20274
7.95894
7.62738
7.06341
543.709
512.551
6.27325
6.66148
6.92955
7.17429
7.43733
7.70651
7.97
8.22373
8.45948
8.67177
8.85853
9.02196
9.16268
9.28181
9.38256
9.46521
9.52577
9.56099
9.57083
9.55445
9.51289
9.44753
9.3608
9.25691
9.13566
8.99546
8.83463
8.65194
8.44892
8.22867
7.98404
7.65014
7.08084
543.771
512.663
6.23591
6.614
6.87735
7.12068
7.38491
7.65652
7.92242
8.17786
8.41366
8.62586
8.81353
8.97952
9.12452
9.25002
9.35903
9.44935
9.5169
9.55896
9.57324
9.56253
9.52537
9.46369
9.3801
9.27921
9.15994
9.02083
8.86048
8.67801
8.47509
8.25459
8.00877
7.67211
7.09708
543.832
512.787
6.19878
6.56595
6.82401
7.06561
7.33115
7.60601
7.87565
8.13393
8.37047
8.5826
8.77062
8.93819
9.08642
9.21693
9.33236
9.42909
9.50301
9.55137
9.57228
9.56547
9.5341
9.47704
9.39766
9.30022
9.18343
9.04584
8.88626
8.70412
8.50125
8.28037
8.0332
7.6937
7.11302
543.891
512.922
6.16181
6.51745
6.7696
7.0089
7.27542
7.55382
7.8282
8.08966
8.32762
8.54022
8.7287
8.89745
9.04815
9.18273
9.30331
9.40541
9.48496
9.53914
9.56555
9.56474
9.53806
9.48713
9.413
9.31966
9.20588
9.07024
8.91174
8.73009
8.52731
8.30595
8.0573
7.71467
7.1279
543.949
513.058
6.12397
6.46816
6.71371
6.94973
7.21647
7.4984
7.77823
8.04351
8.2837
8.49747
8.68686
8.85678
9.00947
9.14735
9.27185
9.37816
9.46238
9.52187
9.55485
9.5608
9.53963
9.49392
9.42543
9.33672
9.22653
9.09336
8.93637
8.75551
8.55296
8.33118
8.08101
7.73517
7.14226
544.006
513.199
6.08632
6.41912
6.65714
6.88854
7.1544
7.43975
7.72572
7.99584
8.23908
8.4546
8.6453
8.81644
8.97095
9.11217
9.24056
9.35088
9.4393
9.5034
9.54146
9.55248
9.5371
9.49577
9.43479
9.35153
9.24547
9.11523
8.9601
8.78029
8.57815
8.35603
8.10442
7.7554
7.15622
544.061
513.344
6.04874
6.37084
6.60027
6.82523
7.08835
7.37641
7.66917
7.9454
8.19268
8.41025
8.60199
8.77322
8.92882
9.07415
9.20664
9.32017
9.41222
9.48069
9.52372
9.53999
9.53054
9.49649
9.44048
9.36288
9.26161
9.13495
8.98223
8.80387
8.6024
8.38012
8.12715
7.77481
7.16897
544.117
513.49
6.0129
6.32465
6.54433
6.76061
7.01831
7.30749
7.60746
7.89198
8.14609
8.36797
8.56186
8.73383
8.88986
9.03616
9.16961
9.28476
9.37955
9.452
9.5001
9.52206
9.51893
9.49122
9.44169
9.37045
9.27459
9.15211
9.00236
8.82594
8.62551
8.40333
8.14923
7.79378
7.18164
544.169
513.647
5.98014
6.28167
6.49065
6.69594
6.94472
7.23194
7.53785
7.83165
8.09537
8.32532
8.52515
8.70081
8.85866
9.00544
9.13855
9.25415
9.35023
9.42481
9.47617
9.50278
9.50499
9.48327
9.4397
9.37563
9.28528
9.16729
9.02093
8.84686
8.64784
8.42611
8.17121
7.81306
7.19521
544.223
513.81
5.94981
6.24241
6.441
6.63303
6.86877
7.14946
7.458
7.75982
8.03372
8.27367
8.48242
8.66534
8.82877
8.9795
9.1145
9.23094
9.32764
9.40322
9.45643
9.48641
9.49298
9.47733
9.441
9.38075
9.29505
9.1812
9.03817
8.86655
8.66909
8.44794
8.19231
7.83144
7.20772
544.276
513.977
5.92166
6.20683
6.39655
6.57401
6.79261
7.06138
7.36788
7.675
7.95778
8.20707
8.42456
8.61602
8.78831
8.94726
9.08884
9.20907
9.30802
9.38523
9.44015
9.47238
9.4818
9.46979
9.43669
9.38349
9.30326
9.19395
9.05452
8.8856
8.68992
8.46954
8.21339
7.85022
7.22128
544.326
514.15
5.89532
6.17406
6.35659
6.52223
6.72044
6.97135
7.26907
7.57677
7.86671
8.1262
8.35478
8.55725
8.74025
8.90871
9.05857
9.18633
9.28994
9.37022
9.42756
9.46237
9.47504
9.46761
9.43979
9.38883
9.31216
9.20645
9.07023
8.90386
8.70995
8.4904
8.23377
7.86822
7.23381
544.379
514.322
5.87024
6.14376
6.32045
6.47638
6.65586
6.88608
7.17001
7.47376
7.76758
8.03528
8.27372
8.48683
8.68155
8.86131
9.02124
9.15788
9.26956
9.35495
9.41571
9.45315
9.46828
9.464
9.4405
9.39383
9.32113
9.21901
9.08591
8.92209
8.73004
8.51141
8.25432
7.88641
7.24629
544.425
514.501
5.8466
6.11539
6.28713
6.4353
6.60024
6.80569
7.07063
7.366
7.66074
7.93518
8.18216
8.40588
8.6148
8.80718
8.97675
9.12223
9.24259
9.33636
9.40303
9.4446
9.46289
9.4615
9.44338
9.40012
9.33062
9.2315
9.10106
8.93944
8.74899
8.53114
8.27356
7.9033
7.25787
544.474
514.683
5.82412
6.08886
6.25637
6.39776
6.55006
6.73468
6.97525
7.2566
7.54778
7.82613
8.0815
8.31613
8.53758
8.74172
8.92197
9.0774
9.2072
9.30997
9.38528
9.43396
9.45817
9.46097
9.44423
9.40578
9.3397
9.24361
9.11583
8.95647
8.76778
8.55086
8.29278
7.9197
7.26762
544.526
514.866
5.80238
6.06355
6.22747
6.36338
6.50577
6.67355
6.88773
7.15021
7.43299
7.71134
7.97217
8.21576
8.44859
8.66426
8.85566
9.02183
9.16195
9.27452
9.35896
9.41593
9.44793
9.45883
9.44638
9.41103
9.34766
9.25442
9.12931
8.97224
8.78521
8.56907
8.31039
7.93474
7.27711
544.57
515.058
5.78231
6.0401
6.20078
6.33175
6.46543
6.61947
6.8133
7.05105
7.32078
7.59564
7.85925
8.10957
8.35194
8.57785
8.77967
8.95638
9.10705
9.23005
9.32454
9.3909
9.4315
9.44927
9.44363
9.41208
9.35632
9.26604
9.14312
8.98811
8.80286
8.58781
8.32888
7.95089
7.28758
544.626
515.254
5.76245
6.01744
6.1755
6.30242
6.42875
6.57064
6.74575
6.95854
7.21028
7.47829
7.74271
7.99857
8.24952
8.48485
8.69626
8.8827
9.04331