/*--------------------------------*- C++ -*----------------------------------*\
| =========                 |                                                 |
| \\      /  F ield         | OpenFOAM: The Open Source CFD Toolbox           |
|  \\    /   O peration     | Version:  v2012                                 |
|   \\  /    A nd           | Website:  www.openfoam.com                      |
|    \\/     M anipulation  |                                                 |
\*---------------------------------------------------------------------------*/
FoamFile
{
    version     2.0;
    format      ascii;
    class       volScalarField;
    location    "1000";
    object      T;
}
// * * * * * * * * * * * * * * * * * * * * * * * * * * * * * * * * * * * * * //

dimensions      [0 0 0 1 0 0 0];


internalField   nonuniform List<scalar> 
78750
(
280.015
281.788
282.967
283.785
284.399
284.874
285.251
285.557
285.812
286.035
286.23
286.415
286.585
286.728
286.848
286.94
287.014
287.077
287.118
287.142
287.141
287.137
287.128
287.116
287.103
287.091
287.08
287.07
287.062
287.054
287.047
287.046
287.066
287.331
288.535
279.712
281.529
282.897
283.976
284.84
285.518
286.046
286.461
286.795
287.065
287.291
287.472
287.609
287.704
287.76
287.774
287.756
287.7
287.621
287.531
287.436
287.345
287.268
287.212
287.173
287.146
287.128
287.117
287.11
287.105
287.098
287.1
287.163
287.548
288.722
280.445
282.295
283.675
284.711
285.482
286.048
286.46
286.772
287.022
287.23
287.406
287.554
287.676
287.768
287.817
287.828
287.801
287.728
287.608
287.425
287.198
286.948
286.717
286.559
286.477
286.469
286.526
286.654
286.822
286.98
287.084
287.202
287.409
287.899
289.163
280.445
282.295
283.676
284.712
285.475
286.023
286.423
286.732
286.983
287.194
287.376
287.531
287.672
287.805
287.926
288.038
288.137
288.218
288.269
288.285
288.264
288.156
287.938
287.6
287.192
286.825
286.618
286.548
286.557
286.676
286.901
287.19
287.547
288.169
289.574
280.352
282.189
283.556
284.579
285.345
285.916
286.346
286.68
286.951
287.18
287.381
287.564
287.73
287.88
288.013
288.127
288.215
288.28
288.327
288.361
288.384
288.394
288.385
288.31
288.131
287.842
287.459
287.057
286.785
286.715
286.821
287.119
287.56
288.291
289.799
281.132
282.979
284.345
285.317
285.995
286.479
286.844
287.137
287.386
287.604
287.8
287.983
288.161
288.326
288.471
288.582
288.655
288.695
288.693
288.671
288.617
288.549
288.49
288.435
288.354
288.191
287.939
287.639
287.337
287.087
286.982
287.136
287.576
288.369
289.945
281.736
283.588
284.954
285.904
286.544
286.992
287.33
287.599
287.824
288.028
288.223
288.409
288.576
288.716
288.826
288.904
288.95
288.954
288.931
288.884
288.831
288.773
288.713
288.648
288.567
288.431
288.215
287.943
287.656
287.394
287.245
287.328
287.722
288.516
290.144
282.125
283.962
285.291
286.165
286.729
287.13
287.446
287.713
287.951
288.172
288.381
288.568
288.728
288.855
288.943
288.988
288.992
288.971
288.911
288.842
288.78
288.732
288.687
288.637
288.572
288.472
288.302
288.074
287.826
287.602
287.477
287.561
287.935
288.738
290.397
282.638
284.488
285.817
286.642
287.143
287.49
287.769
288.015
288.248
288.471
288.677
288.858
289.007
289.114
289.175
289.17
289.126
289.038
288.94
288.848
288.774
288.714
288.666
288.623
288.571
288.498
288.377
288.201
287.995
287.8
287.691
287.772
288.13
288.954
290.63
282.84
284.698
286.042
286.879
287.394
287.762
288.067
288.341
288.593
288.824
289.032
289.209
289.333
289.382
289.341
289.252
289.144
289.032
288.927
288.838
288.762
288.7
288.649
288.606
288.564
288.506
288.411
288.272
288.106
287.954
287.893
288.005
288.377
289.24
290.932
283.07
284.918
286.221
287.005
287.494
287.856
288.163
288.439
288.697
288.936
289.145
289.302
289.39
289.402
289.344
289.236
289.118
289.009
288.915
288.836
288.77
288.716
288.67
288.63
288.589
288.536
288.456
288.342
288.205
288.093
288.078
288.227
288.631
289.535
291.245
283.136
284.992
286.302
287.091
287.57
287.922
288.228
288.513
288.781
289.018
289.215
289.365
289.459
289.48
289.434
289.329
289.199
289.073
288.965
288.877
288.805
288.744
288.692
288.648
288.606
288.557
288.49
288.395
288.294
288.233
288.274
288.471
288.912
289.869
291.596
283.141
284.997
286.307
287.097
287.591
287.958
288.273
288.56
288.827
289.072
289.285
289.458
289.58
289.637
289.632
289.559
289.429
289.276
289.131
289.008
288.907
288.824
288.754
288.695
288.643
288.592
288.534
288.462
288.399
288.388
288.475
288.708
289.173
290.149
291.884
283.166
285.018
286.319
287.105
287.597
287.963
288.277
288.564
288.832
289.077
289.292
289.468
289.602
289.693
289.731
289.711
289.628
289.492
289.332
289.18
289.049
288.941
288.85
288.772
288.705
288.646
288.592
288.542
288.516
288.548
288.683
288.953
289.45
290.454
292.2
283.194
285.044
286.349
287.137
287.631
288.001
288.318
288.611
288.881
289.121
289.327
289.5
289.639
289.741
289.804
289.822
289.791
289.7
289.561
289.403
289.245
289.102
288.983
288.883
288.797
288.725
288.668
288.631
288.632
288.697
288.868
289.169
289.697
290.723
292.481
283.223
285.066
286.367
287.163
287.667
288.045
288.368
288.658
288.921
289.159
289.371
289.552
289.7
289.814
289.891
289.929
289.923
289.867
289.76
289.619
289.456
289.294
289.15
289.026
288.922
288.835
288.769
288.734
288.747
288.839
289.036
289.363
289.917
290.968
292.735
283.271
285.112
286.411
287.201
287.704
288.083
288.406
288.695
288.962
289.207
289.428
289.619
289.775
289.894
289.975
290.016
290.015
289.977
289.888
289.765
289.614
289.453
289.298
289.16
289.042
288.946
288.876
288.845
288.869
288.979
289.2
289.552
290.133
291.207
292.985
283.373
285.212
286.508
287.294
287.793
288.171
288.498
288.796
289.072
289.322
289.543
289.73
289.881
289.994
290.068
290.103
290.098
290.054
289.971
289.856
289.72
289.57
289.417
289.276
289.152
289.051
288.98
288.952
288.984
289.109
289.348
289.722
290.328
291.427
293.217
283.482
285.319
286.606
287.383
287.88
288.262
288.591
288.89
289.166
289.417
289.638
289.823
289.973
290.085
290.159
290.193
290.187
290.141
290.057
289.944
289.812
289.668
289.519
289.378
289.254
289.151
289.08
289.056
289.096
289.234
289.491
289.884
290.512
291.635
293.435
283.547
285.384
286.673
287.447
287.943
288.327
288.661
288.967
289.248
289.5
289.72
289.906
290.056
290.169
290.244
290.279
290.274
290.229
290.144
290.03
289.897
289.752
289.605
289.466
289.343
289.243
289.176
289.161
289.215
289.371
289.648
290.061
290.709
291.853
293.661
283.645
285.483
286.771
287.541
288.036
288.422
288.761
289.07
289.352
289.604
289.825
290.009
290.156
290.264
290.333
290.364
290.356
290.309
290.224
290.111
289.978
289.834
289.688
289.549
289.428
289.332
289.275
289.272
289.345
289.523
289.821
290.252
290.922
292.087
293.903
283.737
285.578
286.861
287.626
288.121
288.509
288.851
289.161
289.445
289.7
289.92
290.103
290.247
290.351
290.416
290.442
290.429
290.379
290.294
290.182
290.052
289.913
289.771
289.637
289.519
289.429
289.38
289.39
289.483
289.68
289.997
290.446
291.133
292.318
294.141
283.786
285.627
286.902
287.662
288.159
288.549
288.89
289.201
289.482
289.729
289.944
290.126
290.275
290.388
290.462
290.494
290.486
290.44
290.358
290.249
290.123
289.988
289.853
289.725
289.614
289.531
289.493
289.517
289.626
289.842
290.176
290.64
291.343
292.543
294.373
283.791
285.635
286.907
287.666
288.162
288.554
288.898
289.207
289.485
289.731
289.945
290.127
290.277
290.395
290.478
290.525
290.533
290.502
290.433
290.332
290.21
290.078
289.945
289.821
289.716
289.641
289.612
289.648
289.772
290.004
290.354
290.832
291.548
292.761
294.597
283.798
285.634
286.908
287.666
288.165
288.558
288.9
289.207
289.484
289.731
289.945
290.126
290.277
290.398
290.491
290.552
290.581
290.574
290.529
290.447
290.334
290.202
290.066
289.939
289.832
289.76
289.737
289.781
289.917
290.161
290.524
291.013
291.737
292.956
294.798
283.799
285.632
286.903
287.664
288.165
288.559
288.902
289.21
289.487
289.734
289.951
290.137
290.292
290.419
290.518
290.59
290.634
290.647
290.626
290.567
290.473
290.352
290.217
290.082
289.968
289.89
289.866
289.91
290.052
290.306
290.681
291.18
291.912
293.136
294.981
283.835
285.667
286.936
287.699
288.201
288.598
288.945
289.258
289.543
289.799
290.021
290.21
290.366
290.492
290.59
290.661
290.707
290.726
290.716
290.673
290.597
290.493
290.369
290.236
290.117
290.03
289.998
290.038
290.181
290.441
290.823
291.332
292.07
293.298
295.149
283.904
285.735
287.007
287.771
288.275
288.677
289.03
289.351
289.642
289.899
290.121
290.309
290.465
290.589
290.685
290.753
290.797
290.815
290.808
290.773
290.708
290.617
290.506
290.383
290.264
290.172
290.132
290.166
290.305
290.567
290.957
291.475
292.219
293.45
295.303
283.973
285.807
287.08
287.842
288.348
288.753
289.111
289.434
289.723
289.979
290.202
290.39
290.546
290.672
290.769
290.839
290.884
290.904
290.9
290.871
290.814
290.732
290.631
290.517
290.403
290.311
290.268
290.297
290.434
290.699
291.098
291.625
292.375
293.61
295.465
284.04
285.875
287.144
287.902
288.408
288.816
289.176
289.5
289.791
290.05
290.274
290.465
290.622
290.749
290.846
290.917
290.963
290.986
290.985
290.961
290.911
290.837
290.745
290.64
290.533
290.445
290.402
290.43
290.567
290.835
291.24
291.774
292.529
293.767
295.624
284.095
285.931
287.196
287.952
288.46
288.87
289.233
289.561
289.857
290.117
290.342
290.532
290.689
290.816
290.916
290.988
291.036
291.061
291.064
291.044
291.001
290.935
290.851
290.755
290.657
290.576
290.537
290.568
290.706
290.979
291.391
291.931
292.691
293.933
295.79
284.107
285.944
287.209
287.966
288.475
288.889
289.256
289.584
289.875
290.131
290.353
290.545
290.709
290.844
290.951
291.033
291.089
291.122
291.133
291.122
291.088
291.031
290.956
290.87
290.781
290.707
290.673
290.707
290.847
291.123
291.541
292.086
292.849
294.093
295.953
284.123
285.96
287.219
287.97
288.478
288.893
289.259
289.586
289.876
290.132
290.355
290.547
290.71
290.849
290.963
291.054
291.121
291.167
291.19
291.191
291.171
291.128
291.065
290.989
290.908
290.84
290.809
290.843
290.984
291.261
291.684
292.232
292.997
294.242
296.103
284.136
285.971
287.23
287.981
288.489
288.902
289.266
289.593
289.885
290.143
290.367
290.56
290.724
290.863
290.98
291.075
291.15
291.204
291.238
291.251
291.244
291.215
291.166
291.103
291.033
290.971
290.942
290.977
291.118
291.397
291.823
292.376
293.141
294.386
296.248
284.151
285.984
287.245
288
288.511
288.927
289.295
289.626
289.921
290.181
290.405
290.598
290.761
290.899
291.014
291.11
291.186
291.244
291.285
291.306
291.31
291.295
291.26
291.21
291.151
291.098
291.074
291.11
291.251
291.531
291.962
292.518
293.285
294.529
296.392
284.195
286.027
287.286
288.04
288.552
288.972
289.343
289.677
289.974
290.234
290.458
290.649
290.81
290.947
291.061
291.155
291.231
291.291
291.334
291.362
291.373
291.368
291.345
291.309
291.263
291.22
291.204
291.244
291.387
291.67
292.105
292.666
293.434
294.676
296.538
284.228
286.061
287.321
288.077
288.591
289.013
289.386
289.722
290.022
290.285
290.511
290.703
290.865
291
291.113
291.206
291.282
291.342
291.387
291.418
291.435
291.437
291.426
291.401
291.368
291.338
291.331
291.376
291.524
291.812
292.252
292.818
293.587
294.828
296.69
284.261
286.094
287.353
288.109
288.626
289.052
289.431
289.771
290.076
290.342
290.571
290.765
290.927
291.062
291.174
291.265
291.34
291.399
291.444
291.476
291.497
291.505
291.501
291.487
291.467
291.449
291.452
291.507
291.661
291.953
292.398
292.969
293.74
294.98
296.842
284.317
286.15
287.406
288.159
288.676
289.104
289.485
289.83
290.137
290.405
290.635
290.829
290.992
291.128
291.24
291.331
291.405
291.463
291.507
291.54
291.562
291.574
291.576
291.57
291.56
291.554
291.568
291.635
291.797
292.095
292.547
293.122
293.896
295.135
296.996
284.348
286.181
287.437
288.191
288.711
289.142
289.527
289.873
290.181
290.45
290.681
290.877
291.042
291.18
291.295
291.389
291.465
291.525
291.572
291.606
291.63
291.645
291.651
291.652
291.65
291.654
291.682
291.762
291.934
292.242
292.702
293.283
294.06
295.299
297.16
284.373
286.206
287.461
288.214
288.734
289.169
289.556
289.905
290.214
290.484
290.716
290.914
291.081
291.221
291.338
291.436
291.515
291.579
291.629
291.667
291.695
291.714
291.726
291.732
291.738
291.752
291.791
291.883
292.066
292.383
292.851
293.437
294.217
295.457
297.318
284.406
286.239
287.491
288.243
288.764
289.201
289.59
289.941
290.252
290.523
290.756
290.954
291.121
291.262
291.381
291.481
291.563
291.63
291.683
291.725
291.757
291.781
291.798
291.811
291.825
291.848
291.897
291.999
292.193
292.519
292.994
293.587
294.369
295.609
297.471
284.428
286.262
287.514
288.266
288.789
289.228
289.62
289.973
290.286
290.558
290.791
290.989
291.158
291.301
291.421
291.523
291.608
291.678
291.734
291.78
291.816
291.844
291.867
291.887
291.909
291.941
292
292.114
292.318
292.654
293.139
293.738
294.523
295.763
297.625
284.452
286.286
287.536
288.287
288.811
289.253
289.648
290.003
290.317
290.59
290.824
291.023
291.192
291.335
291.458
291.562
291.649
291.722
291.782
291.831
291.872
291.905
291.934
291.96
291.99
292.031
292.1
292.223
292.439
292.785
293.277
293.882
294.67
295.912
297.774
284.481
286.314
287.564
288.315
288.84
289.284
289.682
290.04
290.356
290.63
290.864
291.062
291.23
291.373
291.495
291.6
291.69
291.765
291.828
291.881
291.925
291.963
291.997
292.029
292.066
292.116
292.194
292.327
292.551
292.906
293.407
294.018
294.809
296.05
297.913
284.509
286.343
287.592
288.344
288.871
289.318
289.719
290.081
290.4
290.675
290.909
291.107
291.274
291.416
291.537
291.642
291.732
291.809
291.874
291.929
291.977
292.019
292.058
292.096
292.14
292.198
292.284
292.427
292.661
293.025
293.534
294.15
294.944
296.185
298.049
284.539
286.373
287.621
288.373
288.902
289.352
289.757
290.122
290.444
290.721
290.956
291.154
291.32
291.461
291.581
291.685
291.775
291.853
291.92
291.977
292.028
292.074
292.117
292.161
292.212
292.278
292.374
292.526
292.77
293.144
293.661
294.283
295.079
296.321
298.185
284.571
286.404
287.652
288.404
288.934
289.387
289.797
290.165
290.49
290.769
291.004
291.202
291.367
291.508
291.627
291.731
291.821
291.899
291.967
292.026
292.079
292.128
292.176
292.225
292.282
292.355
292.46
292.622
292.877
293.261
293.787
294.414
295.214
296.456
298.32
284.601
286.435
287.683
288.434
288.967
289.423
289.837
290.209
290.537
290.817
291.053
291.25
291.415
291.555
291.674
291.777
291.867
291.946
292.015
292.076
292.131
292.183
292.234
292.288
292.35
292.431
292.545
292.717
292.982
293.377
293.911
294.544
295.346
296.59
298.454
284.633
286.467
287.714
288.467
289.001
289.461
289.879
290.255
290.586
290.868
291.104
291.301
291.466
291.604
291.722
291.824
291.914
291.993
292.063
292.126
292.183
292.237
292.291
292.35
292.418
292.506
292.628
292.809
293.085
293.49
294.033
294.671
295.476
296.721
298.586
284.664
286.498
287.745
288.498
289.034
289.498
289.92
290.3
290.633
290.917
291.154
291.352
291.516
291.654
291.771
291.873
291.962
292.042
292.112
292.176
292.235
292.292
292.349
292.412
292.485
292.579
292.709
292.9
293.185
293.6
294.152
294.795
295.602
296.85
298.715
284.692
286.527
287.773
288.525
289.064
289.531
289.956
290.34
290.676
290.961
291.2
291.397
291.562
291.7
291.818
291.92
292.01
292.09
292.161
292.226
292.287
292.346
292.407
292.473
292.552
292.652
292.79
292.989
293.285
293.709
294.268
294.915
295.724
296.974
298.841
284.72
286.556
287.801
288.554
289.095
289.565
289.994
290.381
290.719
291.006
291.245
291.443
291.607
291.745
291.863
291.965
292.055
292.136
292.209
292.276
292.339
292.401
292.464
292.535
292.619
292.725
292.87
293.078
293.382
293.815
294.38
295.031
295.842
297.095
298.962
284.748
286.584
287.829
288.583
289.126
289.599
290.032
290.422
290.763
291.051
291.291
291.489
291.653
291.79
291.908
292.01
292.101
292.182
292.256
292.324
292.39
292.455
292.522
292.597
292.686
292.799
292.951
293.168
293.48
293.921
294.491
295.144
295.957
297.212
299.08
284.776
286.612
287.857
288.611
289.155
289.632
290.068
290.462
290.804
291.094
291.334
291.532
291.697
291.834
291.952
292.054
292.145
292.227
292.302
292.372
292.44
292.507
292.579
292.658
292.753
292.873
293.033
293.258
293.58
294.027
294.602
295.255
296.069
297.327
299.195
284.803
286.639
287.884
288.638
289.185
289.665
290.105
290.501
290.846
291.137
291.377
291.575
291.739
291.877
291.994
292.096
292.188
292.27
292.346
292.418
292.488
292.558
292.633
292.718
292.819
292.945
293.113
293.347
293.678
294.132
294.709
295.362
296.176
297.436
299.305
284.83
286.667
287.911
288.666
289.215
289.698
290.142
290.541
290.888
291.18
291.421
291.619
291.783
291.92
292.038
292.14
292.232
292.315
292.392
292.465
292.537
292.61
292.689
292.778
292.884
293.018
293.194
293.437
293.776
294.237
294.816
295.467
296.28
297.542
299.411
284.858
286.694
287.938
288.694
289.244
289.731
290.177
290.579
290.928
291.221
291.463
291.661
291.825
291.962
292.08
292.183
292.275
292.359
292.437
292.512
292.586
292.662
292.744
292.838
292.951
293.091
293.276
293.528
293.876
294.343
294.922
295.57
296.382
297.646
299.516
284.884
286.721
287.965
288.722
289.274
289.763
290.213
290.618
290.969
291.262
291.504
291.702
291.866
292.003
292.12
292.223
292.316
292.401
292.48
292.557
292.633
292.712
292.798
292.898
293.016
293.164
293.357
293.619
293.976
294.448
295.027
295.672
296.481
297.746
299.616
284.913
286.75
287.994
288.751
289.305
289.798
290.251
290.659
291.011
291.305
291.547
291.745
291.908
292.044
292.161
292.264
292.357
292.443
292.524
292.602
292.68
292.762
292.852
292.955
293.079
293.234
293.437
293.708
294.073
294.551
295.129
295.77
296.577
297.843
299.713
284.941
286.779
288.022
288.78
289.336
289.832
290.289
290.699
291.052
291.347
291.589
291.787
291.949
292.085
292.202
292.305
292.399
292.485
292.567
292.646
292.727
292.811
292.905
293.013
293.142
293.304
293.514
293.794
294.168
294.65
295.227
295.864
296.669
297.936
299.806
284.97
286.808
288.051
288.81
289.368
289.867
290.327
290.739
291.093
291.389
291.631
291.828
291.99
292.126
292.243
292.346
292.439
292.526
292.609
292.69
292.773
292.86
292.957
293.07
293.205
293.373
293.591
293.879
294.26
294.746
295.322
295.955
296.758
298.026
299.895
284.999
286.838
288.081
288.84
289.4
289.902
290.364
290.779
291.135
291.431
291.672
291.869
292.031
292.166
292.283
292.386
292.479
292.567
292.651
292.733
292.818
292.908
293.009
293.126
293.266
293.441
293.666
293.962
294.35
294.839
295.413
296.043
296.844
298.112
299.982
285.028
286.867
288.11
288.87
289.432
289.937
290.402
290.818
291.175
291.471
291.713
291.909
292.071
292.206
292.322
292.425
292.519
292.607
292.692
292.775
292.862
292.955
293.06
293.181
293.326
293.508
293.74
294.043
294.437
294.929
295.501
296.127
296.927
298.196
300.064
285.058
286.898
288.141
288.901
289.465
289.972
290.44
290.858
291.215
291.512
291.753
291.949
292.11
292.245
292.36
292.463
292.557
292.645
292.731
292.816
292.905
293.001
293.109
293.235
293.385
293.573
293.812
294.122
294.521
295.015
295.585
296.207
297.006
298.275
300.143
285.089
286.929
288.172
288.933
289.499
290.009
290.479
290.899
291.257
291.553
291.794
291.989
292.149
292.284
292.399
292.501
292.594
292.683
292.768
292.855
292.946
293.045
293.156
293.286
293.442
293.635
293.881
294.198
294.602
295.097
295.664
296.284
297.08
298.35
300.218
285.122
286.962
288.205
288.967
289.535
290.047
290.52
290.941
291.3
291.595
291.836
292.03
292.19
292.323
292.438
292.539
292.633
292.721
292.807
292.894
292.986
293.087
293.202
293.336
293.496
293.696
293.948
294.271
294.679
295.176
295.74
296.357
297.152
298.422
300.29
285.155
286.996
288.24
289.002
289.571
290.087
290.562
290.984
291.342
291.638
291.877
292.072
292.231
292.364
292.478
292.579
292.672
292.76
292.846
292.934
293.026
293.129
293.246
293.383
293.548
293.753
294.011
294.34
294.752
295.25
295.812
296.426
297.22
298.49
300.357
285.189
287.031
288.275
289.038
289.609
290.127
290.604
291.027
291.385
291.68
291.919
292.112
292.271
292.403
292.517
292.618
292.711
292.799
292.885
292.973
293.067
293.17
293.289
293.429
293.598
293.807
294.07
294.404
294.821
295.319
295.879
296.49
297.284
298.554
300.421
285.224
287.067
288.311
289.075
289.648
290.168
290.647
291.07
291.428
291.722
291.96
292.153
292.311
292.443
292.557
292.658
292.75
292.838
292.925
293.013
293.107
293.212
293.331
293.473
293.645
293.858
294.126
294.464
294.884
295.384
295.942
296.551
297.344
298.615
300.481
285.26
287.103
288.348
289.113
289.688
290.21
290.689
291.112
291.47
291.763
292.001
292.194
292.351
292.484
292.597
292.698
292.79
292.878
292.965
293.054
293.149
293.254
293.374
293.517
293.69
293.906
294.178
294.52
294.943
295.444
296.001
296.609
297.4
298.672
300.538
285.296
287.141
288.386
289.152
289.728
290.251
290.732
291.154
291.511
291.804
292.041
292.233
292.391
292.523
292.637
292.738
292.831
292.92
293.007
293.096
293.191
293.297
293.418
293.562
293.736
293.954
294.228
294.573
294.999
295.5
296.056
296.663
297.454
298.726
300.591
285.333
287.178
288.423
289.19
289.768
290.292
290.773
291.194
291.55
291.842
292.079
292.272
292.43
292.563
292.677
292.779
292.872
292.961
293.049
293.139
293.236
293.343
293.465
293.609
293.785
294.004
294.28
294.627
295.054
295.556
296.111
296.716
297.507
298.779
300.644
285.37
287.216
288.462
289.229
289.808
290.334
290.814
291.234
291.588
291.878
292.115
292.308
292.467
292.6
292.715
292.818
292.912
293.002
293.091
293.183
293.281
293.39
293.514
293.66
293.837
294.058
294.335
294.685
295.113
295.614
296.167
296.769
297.56
298.833
300.698
285.408
287.255
288.501
289.27
289.85
290.376
290.855
291.274
291.625
291.915
292.15
292.343
292.503
292.637
292.753
292.856
292.951
293.042
293.133
293.226
293.326
293.437
293.563
293.711
293.891
294.114
294.394
294.745
295.174
295.673
296.223
296.823
297.613
298.887
300.751
285.448
287.296
288.542
289.312
289.894
290.421
290.9
291.316
291.665
291.952
292.186
292.378
292.538
292.673
292.79
292.894
292.991
293.083
293.174
293.269
293.371
293.483
293.612
293.763
293.946
294.172
294.455
294.807
295.236
295.733
296.279
296.876
297.666
298.94
300.804
285.491
287.339
288.586
289.357
289.941
290.47
290.949
291.364
291.709
291.992
292.223
292.413
292.572
292.707
292.825
292.93
293.028
293.121
293.214
293.31
293.413
293.528
293.659
293.813
293.999
294.229
294.515
294.869
295.297
295.791
296.333
296.928
297.716
298.992
300.854
285.538
287.386
288.634
289.407
289.993
290.525
291.005
291.418
291.76
292.037
292.263
292.45
292.607
292.741
292.859
292.964
293.063
293.157
293.252
293.349
293.454
293.571
293.704
293.862
294.051
294.285
294.573
294.928
295.356
295.847
296.385
296.978
297.765
299.041
300.903
285.588
287.438
288.687
289.461
290.05
290.587
291.07
291.482
291.819
292.091
292.311
292.492
292.645
292.777
292.893
292.999
293.097
293.192
293.288
293.386
293.493
293.611
293.747
293.907
294.1
294.337
294.628
294.985
295.412
295.9
296.435
297.025
297.812
299.087
300.95
285.643
287.493
288.743
289.519
290.114
290.656
291.142
291.553
291.887
292.152
292.366
292.541
292.688
292.816
292.93
293.034
293.132
293.228
293.323
293.423
293.53
293.65
293.788
293.95
294.146
294.386
294.68
295.038
295.464
295.95
296.481
297.069
297.855
299.131
300.993
285.702
287.553
288.803
289.582
290.181
290.73
291.22
291.632
291.961
292.221
292.428
292.596
292.738
292.861
292.972
293.074
293.17
293.264
293.359
293.459
293.567
293.687
293.827
293.991
294.19
294.432
294.729
295.088
295.513
295.997
296.525
297.111
297.897
299.173
301.034
285.763
287.615
288.865
289.646
290.251
290.807
291.301
291.712
292.038
292.293
292.494
292.657
292.793
292.912
293.019
293.117
293.211
293.303
293.397
293.496
293.604
293.725
293.865
294.031
294.231
294.476
294.774
295.134
295.559
296.04
296.566
297.15
297.935
299.212
301.073
285.823
287.676
288.926
289.709
290.319
290.882
291.379
291.789
292.112
292.363
292.559
292.717
292.85
292.964
293.067
293.163
293.253
293.344
293.437
293.535
293.642
293.763
293.904
294.071
294.272
294.518
294.818
295.179
295.603
296.082
296.605
297.187
297.972
299.249
301.11
285.883
287.737
288.986
289.771
290.386
290.953
291.453
291.862
292.183
292.43
292.623
292.777
292.906
293.017
293.117
293.208
293.297
293.386
293.477
293.575
293.681
293.802
293.942
294.11
294.312
294.559
294.86
295.221
295.644
296.121
296.642
297.222
298.007
299.284
301.145
285.942
287.796
289.045
289.831
290.451
291.022
291.522
291.93
292.248
292.492
292.682
292.834
292.96
293.068
293.165
293.254
293.341
293.429
293.519
293.616
293.722
293.842
293.983
294.15
294.353
294.6
294.901
295.263
295.685
296.16
296.678
297.256
298.041
299.319
301.179
286.001
287.856
289.104
289.893
290.515
291.089
291.59
291.995
292.31
292.551
292.738
292.887
293.01
293.116
293.21
293.298
293.383
293.469
293.56
293.656
293.762
293.882
294.023
294.19
294.393
294.641
294.942
295.304
295.724
296.197
296.712
297.289
298.072
299.351
301.211
286.064
287.92
289.167
289.957
290.583
291.159
291.659
292.061
292.371
292.609
292.793
292.939
293.06
293.163
293.255
293.341
293.425
293.51
293.6
293.696
293.802
293.923
294.063
294.231
294.434
294.682
294.983
295.344
295.763
296.233
296.745
297.32
298.103
299.382
301.242
286.131
287.986
289.233
290.025
290.654
291.232
291.73
292.127
292.433
292.666
292.846
292.99
293.108
293.209
293.3
293.384
293.466
293.551
293.641
293.737
293.843
293.964
294.104
294.272
294.475
294.723
295.025
295.385
295.802
296.269
296.778
297.351
298.133
299.412
301.271
286.202
288.058
289.305
290.099
290.73
291.311
291.806
292.198
292.497
292.725
292.9
293.04
293.156
293.255
293.344
293.427
293.509
293.593
293.682
293.778
293.884
294.005
294.146
294.314
294.517
294.765
295.066
295.425
295.841
296.305
296.81
297.381
298.163
299.442
301.301
286.28
288.136
289.383
290.178
290.814
291.396
291.888
292.274
292.565
292.786
292.956
293.092
293.205
293.302
293.388
293.47
293.551
293.635
293.723
293.819
293.926
294.047
294.188
294.356
294.56
294.808
295.108
295.466
295.879
296.34
296.842
297.411
298.192
299.471
301.33
286.364
288.22
289.467
290.265
290.904
291.488
291.977
292.355
292.638
292.851
293.014
293.145
293.254
293.348
293.433
293.514
293.594
293.677
293.765
293.861
293.967
294.089
294.231
294.399
294.603
294.851
295.151
295.507
295.918
296.375
296.874
297.441
298.221
299.5
301.359
286.453
288.309
289.555
290.355
290.999
291.584
292.068
292.439
292.714
292.919
293.075
293.201
293.305
293.396
293.479
293.558
293.637
293.719
293.807
293.903
294.01
294.132
294.274
294.443
294.648
294.895
295.194
295.549
295.956
296.41
296.906
297.471
298.251
299.53
301.388
286.543
288.4
289.646
290.448
291.094
291.679
292.159
292.522
292.789
292.987
293.137
293.257
293.357
293.444
293.524
293.602
293.679
293.761
293.849
293.945
294.052
294.175
294.318
294.487
294.692
294.939
295.237
295.59
295.995
296.445
296.937
297.5
298.279
299.559
301.417
286.637
288.494
289.739
290.543
291.192
291.776
292.251
292.606
292.865
293.055
293.199
293.314
293.41
293.494
293.571
293.647
293.723
293.804
293.891
293.987
294.095
294.218
294.361
294.531
294.736
294.983
295.28
295.63
296.032
296.479
296.968
297.529
298.308
299.588
301.446
286.734
288.592
289.836
290.641
291.291
291.874
292.343
292.69
292.94
293.122
293.26
293.37
293.462
293.543
293.619
293.694
293.769
293.849
293.935
294.031
294.139
294.263
294.406
294.577
294.782
295.029
295.324
295.672
296.071
296.514
297
297.558
298.338
299.619
301.476
286.833
288.69
289.935
290.741
291.392
291.973
292.435
292.774
293.015
293.189
293.32
293.424
293.512
293.59
293.664
293.737
293.811
293.891
293.977
294.074
294.182
294.306
294.451
294.622
294.827
295.073
295.368
295.713
296.109
296.548
297.03
297.587
298.365
299.646
301.503
286.937
288.794
290.037
290.844
291.496
292.075
292.531
292.862
293.094
293.259
293.382
293.481
293.563
293.638
293.708
293.779
293.852
293.931
294.018
294.115
294.224
294.348
294.494
294.665
294.87
295.116
295.409
295.753
296.145
296.58
297.06
297.615
298.393
299.675
301.531
287.043
288.9
290.143
290.949
291.601
292.177
292.627
292.949
293.173
293.331
293.447
293.54
293.617
293.687
293.755
293.823
293.895
293.973
294.059
294.155
294.265
294.39
294.536
294.708
294.914
295.159
295.451
295.792
296.181
296.612
297.088
297.641
298.42
299.702
301.558
287.15
289.008
290.25
291.056
291.706
292.279
292.722
293.037
293.253
293.403
293.513
293.6
293.673
293.739
293.803
293.868
293.938
294.014
294.1
294.196
294.305
294.431
294.577
294.75
294.955
295.2
295.491
295.83
296.215
296.643
297.116
297.668
298.445
299.728
301.584
287.26
289.118
290.359
291.164
291.813
292.38
292.817
293.125
293.334
293.477
293.581
293.662
293.73
293.792
293.853
293.915
293.983
294.057
294.141
294.236
294.345
294.471
294.617
294.79
294.995
295.239
295.528
295.865
296.247
296.672
297.142
297.693
298.471
299.755
301.611
287.37
289.227
290.468
291.273
291.918
292.48
292.909
293.21
293.412
293.55
293.648
293.725
293.788
293.847
293.905
293.965
294.03
294.103
294.185
294.279
294.387
294.512
294.658
294.831
295.036
295.279
295.567
295.901
296.28
296.701
297.169
297.717
298.495
299.779
301.636
287.482
289.34
290.58
291.384
292.027
292.582
293.004
293.297
293.492
293.624
293.717
293.788
293.848
293.903
293.959
294.016
294.079
294.15
294.231
294.324
294.431
294.555
294.701
294.873
295.077
295.319
295.605
295.937
296.313
296.731
297.196
297.743
298.522
299.806
301.662
287.596
289.454
290.693
291.496
292.135
292.684
293.098
293.383
293.572
293.697
293.785
293.851
293.908
293.96
294.013
294.068
294.129
294.198
294.277
294.369
294.476
294.601
294.746
294.918
295.122
295.363
295.647
295.976
296.349
296.763
297.225
297.77
298.549
299.836
301.692
287.711
289.568
290.807
291.609
292.245
292.787
293.193
293.47
293.652
293.771
293.853
293.915
293.968
294.017
294.067
294.12
294.179
294.247
294.324
294.415
294.521
294.645
294.79
294.962
295.165
295.406
295.689
296.015
296.385
296.796
297.254
297.797
298.575
299.861
301.717
287.829
289.686
290.926
291.726
292.359
292.894
293.292
293.561
293.734
293.846
293.922
293.979
294.028
294.074
294.122
294.174
294.231
294.297
294.374
294.463
294.568
294.69
294.834
295.005
295.207
295.446
295.727
296.051
296.419
296.827
297.283
297.826
298.606
299.894
301.749
287.948
289.806
291.046
291.845
292.474
293.004
293.393
293.653
293.818
293.922
293.992
294.044
294.089
294.132
294.177
294.227
294.283
294.348
294.425
294.514
294.619
294.742