/*--------------------------------*- C++ -*----------------------------------*\
| =========                 |                                                 |
| \\      /  F ield         | OpenFOAM: The Open Source CFD Toolbox           |
|  \\    /   O peration     | Version:  v2006                                 |
|   \\  /    A nd           | Website:  www.openfoam.com                      |
|    \\/     M anipulation  |                                                 |
\*---------------------------------------------------------------------------*/
FoamFile
{
    version     2.0;
    format      ascii;
    class       volScalarField;
    location    "12";
    object      k;
}
// * * * * * * * * * * * * * * * * * * * * * * * * * * * * * * * * * * * * * //

dimensions      [0 2 -2 0 0 0 0];


internalField   nonuniform List<scalar> 
78750
(
0.830088
0.288095
0.145884
0.0543659
0.00898987
0.00132347
0.00163888
0.000880589
0.00127178
0.000986731
0.00109409
0.00101349
0.00101057
0.000986591
0.000967024
0.000947325
0.000927926
0.000909097
0.000891153
0.000874105
0.00085789
0.000842276
0.000826602
0.000810697
0.000794533
0.000777915
0.000760438
0.000741529
0.000720451
0.000696348
0.000668075
0.000634138
0.00059344
0.000536844
0.000223094
0.0256646
0.000267749
0.00290476
0.000114583
0.00237344
0.00306863
0.00237888
0.00219745
0.00186691
0.00172639
0.00161627
0.00155501
0.00151194
0.00148076
0.00145663
0.00143596
0.00141587
0.00139544
0.00137446
0.0013527
0.00133072
0.00130976
0.00129049
0.00127298
0.00125676
0.00124099
0.0012244
0.00120544
0.00118242
0.00115345
0.00111568
0.00106253
0.000963474
0.000695942
0.00103999
0.000772267
0.00397385
0.00452679
0.00441554
0.00382733
0.00340101
0.00320772
0.00288212
0.00253643
0.00220617
0.00195577
0.00178813
0.00167218
0.00156705
0.00144527
0.00131506
0.0012002
0.00110346
0.00102352
0.000971378
0.000964283
0.000999416
0.00104954
0.00109364
0.00112725
0.0011536
0.00117639
0.00119783
0.00121832
0.00123679
0.00125135
0.00125862
0.00124741
0.00121885
0.0021852
0.00175118
0.00281759
0.00329442
0.00360723
0.00387662
0.00402982
0.00398667
0.0037708
0.00339969
0.00293482
0.00245947
0.00208031
0.00186136
0.00177335
0.00174398
0.001724
0.0016916
0.00163368
0.00154851
0.00145845
0.0013839
0.00132269
0.00126785
0.00121952
0.00118254
0.00116172
0.00115873
0.00116933
0.00118564
0.0012015
0.00121222
0.00120522
0.00113809
0.00118599
0.00296968
0.00142999
0.00376829
0.00436086
0.00449234
0.00445028
0.0043357
0.0041698
0.00394681
0.00368631
0.00338835
0.00300943
0.00253852
0.00204761
0.00167464
0.00147809
0.0013925
0.00134541
0.00131019
0.00127808
0.00124549
0.00121226
0.00118055
0.00115388
0.00113576
0.00112878
0.00113395
0.00115035
0.00117518
0.00120576
0.0012437
0.00129461
0.00135764
0.00141794
0.00169452
0.00397084
0.000971516
0.00279926
0.00377339
0.00420364
0.00435417
0.00435031
0.0042217
0.00399103
0.00377605
0.00369411
0.00366306
0.00352685
0.00317889
0.00269939
0.00228211
0.00199152
0.00180433
0.00166724
0.00154397
0.00144016
0.00136318
0.00130304
0.00125404
0.00121645
0.0011907
0.00117677
0.00117389
0.00118018
0.00119279
0.00121045
0.00123449
0.00126659
0.00133444
0.00182303
0.00470741
0.00298047
0.00457635
0.00492739
0.00484359
0.00460106
0.00419747
0.00360104
0.00286196
0.00228137
0.00217117
0.00234346
0.00250103
0.00243317
0.00208164
0.00171488
0.00154111
0.00146098
0.00141164
0.00137363
0.00133965
0.00130964
0.00128468
0.00126533
0.00125161
0.0012437
0.00124266
0.00124911
0.00126233
0.00128192
0.00131052
0.00135228
0.00140886
0.0015401
0.00226178
0.00552938
0.00524378
0.00545101
0.00526278
0.00500279
0.00464227
0.00413536
0.00347919
0.00276277
0.00221117
0.00203743
0.00210733
0.0021874
0.00211657
0.00186477
0.00159863
0.00144484
0.00136796
0.00132033
0.00128534
0.00125841
0.00123834
0.00122451
0.00121649
0.00121419
0.00121775
0.00122703
0.00124126
0.00125934
0.00128204
0.00131368
0.00136065
0.00144199
0.00168194
0.00259919
0.00610203
0.00399154
0.00451665
0.00480426
0.00492082
0.00492098
0.00478956
0.00447036
0.00389354
0.00308569
0.00226202
0.00168415
0.00143169
0.00137607
0.00136439
0.00133652
0.00129853
0.00126565
0.00124216
0.0012263
0.00121673
0.00121316
0.00121517
0.00122202
0.00123301
0.00124775
0.00126618
0.00128858
0.00131567
0.00134888
0.00139076
0.0014443
0.00153141
0.00188051
0.00307583
0.00656545
0.00186186
0.0042649
0.00522141
0.00565233
0.00591044
0.00607008
0.00611982
0.00597071
0.00549384
0.00468129
0.00367692
0.00269754
0.00192778
0.00143612
0.00119406
0.00111408
0.00110628
0.00111272
0.001119
0.00112644
0.00113694
0.00115105
0.00116871
0.00118978
0.00121423
0.00124203
0.0012738
0.00131073
0.0013553
0.00141258
0.00149028
0.00160321
0.0019079
0.00318309
0.00689224
0.00229386
0.00418914
0.00488454
0.00512057
0.00521897
0.00527382
0.00533168
0.00542352
0.00552982
0.00554806
0.00531695
0.00476255
0.00396539
0.00308547
0.00226678
0.0016133
0.00121264
0.00105643
0.00102477
0.00103489
0.00105554
0.00107801
0.00110249
0.00113003
0.00116072
0.0011949
0.00123385
0.00127963
0.00133588
0.00140735
0.00151392
0.00175687
0.00248499
0.00387715
0.00730456
0.00277993
0.00418098
0.00488704
0.00521267
0.00536835
0.00541546
0.00536446
0.00522148
0.00501707
0.0048288
0.00473007
0.00466766
0.0044924
0.00410159
0.00350013
0.00278663
0.00208436
0.00149999
0.00113606
0.000991127
0.000955471
0.000968894
0.00100248
0.00103919
0.00107571
0.0011137
0.00115539
0.0012049
0.00126836
0.00135108
0.00144942
0.00153457
0.0020547
0.00369377
0.00763555
0.00341292
0.0050641
0.00572838
0.00602467
0.00617538
0.00623429
0.0062046
0.00606838
0.0057881
0.00534512
0.00485397
0.00450336
0.00430554
0.00414027
0.00388574
0.00346328
0.00288949
0.00226458
0.00169405
0.00126065
0.00102869
0.000936212
0.000910801
0.000928795
0.000969247
0.00101365
0.00105715
0.00110556
0.00117332
0.00129397
0.00154101
0.00201628
0.00281156
0.00451504
0.00835389
0.00405187
0.00499067
0.00530611
0.00547844
0.005601
0.00568931
0.00574054
0.00574399
0.00567854
0.00550439
0.00518545
0.00478243
0.00441577
0.00412326
0.00386719
0.00357682
0.00318151
0.00267468
0.00212646
0.00162921
0.00124842
0.00102376
0.000921818
0.000882995
0.000884514
0.000915667
0.000960306
0.00101076
0.00107193
0.00116291
0.00134936
0.00195884
0.00345967
0.00500624
0.00803242
0.00388669
0.00496118
0.00542904
0.00569265
0.00586104
0.00596739
0.00602538
0.00604249
0.00602236
0.00596168
0.00583492
0.0055902
0.00521726
0.00478454
0.00436537
0.00398204
0.00359769
0.00314157
0.00258748
0.00201135
0.00152504
0.00117948
0.000973321
0.000866226
0.000814532
0.000798656
0.000812271
0.000849726
0.000912518
0.00101585
0.00115586
0.00125454
0.00284974
0.00501413
0.00889003
0.00340371
0.00504113
0.0057749
0.00612826
0.00632188
0.00643245
0.00648678
0.00649778
0.00647345
0.00642126
0.00634835
0.00624565
0.00606653
0.00575631
0.00531432
0.00480522
0.00430577
0.0038338
0.0033182
0.0026817
0.00199611
0.00142895
0.00106933
0.000874368
0.000764768
0.000701272
0.000673922
0.00067958
0.000722357
0.000852523
0.00133305
0.00226023
0.00295955
0.00500302
0.00878014
0.00289926
0.00473045
0.00562999
0.00600784
0.0061694
0.00623199
0.0062375
0.0062101
0.00616656
0.00611757
0.00607203
0.00603974
0.0060165
0.0059639
0.00581648
0.00551213
0.00505012
0.00452011
0.00401044
0.00348757
0.00283108
0.00203482
0.00130487
0.000875016
0.000691231
0.000593511
0.00053519
0.000523715
0.000553555
0.000677632
0.000957387
0.00208777
0.00498869
0.00651282
0.00915508
0.00389387
0.00567333
0.00631813
0.00646907
0.00645006
0.00634806
0.00620798
0.00606778
0.00593702
0.00581533
0.00570743
0.00562128
0.00556396
0.00553049
0.00549733
0.00542394
0.00524607
0.00490923
0.00446586
0.00403097
0.00361835
0.00311564
0.00240469
0.00159934
0.00104211
0.000782196
0.00063891
0.000535207
0.000538673
0.000251084
2.55295e-05
0.000407652
0.0016284
0.00467028
0.00992654
0.00622613
0.00692766
0.00684722
0.00664448
0.00638716
0.00611111
0.0059362
0.00587164
0.0058319
0.00576796
0.00567839
0.00557598
0.00547032
0.00536514
0.00525708
0.00513299
0.00496489
0.00470884
0.00435062
0.00396204
0.00360241
0.00322374
0.00269229
0.00184971
0.000766932
0.000273461
0.00010115
3.22813e-05
5.78847e-05
0.00147707
0.00318992
0.00437802
0.00445397
0.00674085
0.0112638
0.00821934
0.00711225
0.00653802
0.00609496
0.00561585
0.00527152
0.00523265
0.00534649
0.00544067
0.00547843
0.00546743
0.00541782
0.00533822
0.00523502
0.00511191
0.00496927
0.00480294
0.00460294
0.00435813
0.00407885
0.00379924
0.00352686
0.00321283
0.00275419
0.00208356
0.0014141
0.000965678
0.000598664
0.000265673
0.000448511
0.00152858
0.00333398
0.00642782
0.00780473
0.00993577
0.00699668
0.0063826
0.00617532
0.00592175
0.00558408
0.0053106
0.0051902
0.00515464
0.00515856
0.00517554
0.0051808
0.00515856
0.00510313
0.00501616
0.00490264
0.00476821
0.0046192
0.00446239
0.00430116
0.00413241
0.00395062
0.00375135
0.00352506
0.00324934
0.0028785
0.0023844
0.00178471
0.001181
0.000635805
0.000174788
0.000275421
0.000269581
0.00310771
0.00591925
0.0101524
0.00540654
0.00645999
0.00666615
0.00664191
0.00647367
0.00613236
0.00566136
0.00520827
0.00489765
0.00475252
0.00471508
0.0047116
0.00469597
0.00465222
0.0045827
0.00449517
0.00439549
0.00428611
0.00416741
0.00403826
0.00388854
0.00369186
0.00338985
0.00287707
0.0020679
0.0010957
0.000446991
0.000450638
0.000926308
0.0021372
0.00324485
0.00355139
0.00475528
0.00753225
0.0121088
0.00510435
0.00663807
0.0070066
0.00710356
0.00708588
0.00694187
0.00659441
0.00599737
0.00530554
0.00475316
0.00444848
0.00434608
0.00433823
0.00434361
0.00432681
0.00427871
0.00420231
0.00410515
0.0039983
0.00389694
0.00381682
0.00376462
0.00369698
0.00350506
0.00300636
0.00206169
0.000756031
0.000419395
5.79955e-05
0.000473544
0.00277705
0.00542375
0.00696914
0.00851946
0.0107803
0.0049745
0.00627793
0.00673133
0.00693395
0.00704332
0.00707945
0.00701354
0.00676082
0.00622205
0.00548457
0.00479066
0.00431078
0.00406488
0.00396884
0.00391992
0.00385124
0.00373144
0.00354616
0.00328585
0.0029471
0.00255331
0.00219148
0.00195858
0.00195396
0.00219263
0.00252349
0.00281907
0.00281715
0.00231005
0.00150122
0.00120131
0.00216149
0.00576013
0.00751972
0.00937778
0.00476811
0.00619046
0.00675969
0.00702312
0.00717544
0.00726855
0.00731652
0.00731261
0.00719682
0.00682616
0.00614375
0.00532727
0.00461317
0.00415132
0.00395188
0.00390336
0.00388137
0.00382278
0.00370751
0.00352377
0.00326163
0.00293303
0.00257953
0.00223658
0.0018915
0.00157364
0.0011407
0.00109647
0.00196905
0.00246316
0.00258341
0.00194698
0.00312027
0.00566132
0.0105985
0.00479717
0.00636208
0.00699155
0.00726822
0.00740517
0.0074627
0.00746198
0.00742089
0.00736489
0.00729706
0.00712643
0.00669105
0.00593611
0.00502063
0.00422698
0.00377968
0.00363192
0.00359279
0.00353927
0.00343184
0.00325686
0.00299666
0.00261872
0.00225128
0.00200392
0.00182505
0.00119643
0.000312893
0.000485512
0.00219436
0.0033033
0.00291827
0.00393921
0.00712606
0.0136825
0.00488874
0.00647425
0.00715782
0.00747795
0.00764534
0.00772121
0.00771783
0.00763278
0.00746511
0.00725261
0.0070637
0.00688852
0.00658618
0.00596433
0.00500728
0.00412804
0.00370229
0.00358125
0.00349625
0.00333885
0.00305969
0.00258981
0.0018198
0.00099938
0.00129071
0.00226987
0.00288789
0.00311058
0.00385077
0.00522457
0.00568453
0.00548779
0.00655497
0.00922631
0.0142966
0.00557833
0.00680454
0.00731784
0.0075545
0.00767535
0.00772534
0.00771359
0.00763893
0.00749416
0.00726663
0.00697397
0.00670383
0.00650313
0.00626252
0.00569702
0.00468645
0.00384358
0.00353325
0.00351721
0.00351924
0.00341883
0.00314682
0.00265388
0.00204328
0.00170898
0.00196828
0.00270189
0.00397122
0.00565806
0.0071631
0.00799173
0.00841724
0.00910181
0.0102605
0.0116558
0.00626432
0.00725272
0.0076408
0.00779562
0.00784763
0.00782753
0.00773963
0.0075843
0.00738464
0.00717363
0.00691889
0.00657084
0.0061765
0.00581955
0.0054726
0.00498149
0.00438777
0.00398825
0.00384624
0.00382944
0.00382683
0.00378703
0.00367385
0.00344922
0.00308155
0.00261957
0.00222986
0.00219796
0.00309591
0.00476028
0.00633418
0.00771759
0.00869796
0.00925054
0.00958314
0.00674919
0.00746556
0.0077293
0.00781899
0.00782266
0.00775223
0.00759963
0.00736047
0.00708513
0.00686372
0.00670668
0.00653109
0.00625123
0.00583354
0.00529836
0.00473069
0.00432484
0.00414254
0.00408327
0.00406108
0.00403759
0.00399562
0.00392099
0.00381549
0.00375961
0.00366203
0.0033476
0.00276839
0.00232235
0.0028072
0.00383478
0.00497609
0.00609468
0.0072436
0.0101
0.00700293
0.00762443
0.00782448
0.00786109
0.00781131
0.00767808
0.0074443
0.00711432
0.00678757
0.00656399
0.00642049
0.00627979
0.00608142
0.00580112
0.00546126
0.00508877
0.00475111
0.00455336
0.00445563
0.00437962
0.0042894
0.00416534
0.00398775
0.00376758
0.00368783
0.00384785
0.00394628
0.00371411
0.00336748
0.00343276
0.00378209
0.00420304
0.00526902
0.00725182
0.012103
0.00747949
0.00794053
0.0079963
0.00793874
0.00780829
0.0075847
0.00723172
0.0067641
0.00636747
0.00619554
0.00616912
0.00614158
0.00601906
0.00575485
0.00540685
0.0051599
0.00507729
0.00506766
0.00505594
0.00501118
0.00491759
0.00475198
0.00448201
0.00410906
0.00379826
0.00384708
0.0042878
0.00475866
0.0049952
0.00510368
0.00514228
0.00529108
0.00639707
0.00859435
0.0133319
0.00794339
0.00808982
0.00803385
0.00792037
0.00773888
0.00744606
0.00698585
0.0063791
0.00588209
0.00571034
0.00576181
0.00586016
0.00591192
0.00587791
0.00573709
0.00553781
0.00542039
0.0054208
0.00545247
0.00545723
0.00541563
0.00530825
0.00510235
0.00477501
0.00439825
0.00424083
0.00467742
0.00571682
0.00666187
0.00703759
0.00705199
0.00713691
0.00788859
0.00945942
0.0127626
0.00808285
0.00815664
0.00808091
0.00793861
0.0077124
0.00734555
0.00676156
0.00597986
0.00534515
0.00519969
0.00538351
0.0056118
0.00577626
0.00588459
0.00596874
0.00599332
0.00595139
0.00590315
0.00587021
0.00583426
0.00577189
0.0056597
0.00547052
0.00517972
0.00480351
0.00448001
0.00454181
0.00535683
0.00670116
0.00777233
0.00828963
0.00855697
0.00899291
0.00981393
0.0116364
0.00833586
0.00830774
0.00819362
0.00801386
0.00773875
0.00729507
0.00658038
0.00558753
0.00470276
0.00448318
0.00482721
0.00528513
0.00567411
0.00603462
0.00644895
0.00681508
0.00700317
0.00706592
0.00706477
0.00702441
0.00694789
0.00682547
0.00663646
0.00635215
0.0059521
0.00546839
0.00505972
0.00505714
0.00574114
0.00687022
0.00792605
0.00864964
0.00912485
0.00965575
0.0110953
0.00845858
0.00828838
0.00816797
0.00798047
0.00768294
0.00719158
0.00638714
0.0052429
0.00413137
0.00378824
0.00427701
0.00496941
0.00557307
0.00610994
0.00666276
0.00718702
0.00754329
0.00773817
0.00782922
0.00785244
0.00782295
0.00774519
0.00761667
0.00742688
0.00715615
0.00678281
0.00631195
0.00583835
0.00560318
0.005847
0.00653072
0.0073849
0.00812309
0.00896741
0.011544
0.00841633
0.00835
0.00826192
0.0080691
0.00775011
0.00722214
0.00635962
0.00511023
0.00373878
0.00306909
0.00361074
0.0045485
0.00544933
0.00636545
0.00728848
0.00801183
0.00843773
0.00867495
0.0088061
0.00886396
0.00885735
0.00878751
0.00865513
0.0084624
0.00821208
0.00790229
0.00751739
0.00703397
0.00649407
0.00608174
0.00600587
0.00643228
0.00735574
0.00880467
0.012842
0.00826352
0.00839469
0.00829189
0.00807982
0.0077511
0.00723288
0.00643681
0.0053157
0.00393556
0.00287456
0.00321093
0.00432769
0.00544265
0.00662459
0.00774631
0.00856823
0.00907581
0.00938715
0.00958406
0.00970037
0.00974404
0.00971262
0.00960071
0.00940385
0.00912265
0.0087683
0.0083657
0.00793315
0.00745202
0.00694096
0.00655665
0.00671856
0.0077239
0.00951948
0.0141179
0.00846583
0.00856089
0.00838198
0.00812558
0.00776283
0.00721598
0.00643733
0.00548696
0.00434934
0.00300997
0.00248534
0.0034829
0.00466562
0.00589284
0.00726064
0.00836598
0.00907836
0.00954544
0.0098734
0.010104
0.0102463
0.0102962
0.0102435
0.0100763
0.00978734
0.00939114
0.00895729
0.00860601
0.00833215
0.00800629
0.0077164
0.0078772
0.00875187
0.0103828
0.014549
0.00902428
0.00875398
0.00844416
0.0081166
0.0076851
0.00703535
0.00610687
0.00509906
0.00423583
0.00326961
0.00212551
0.00242486
0.00393741
0.00510477
0.0061557
0.00731509
0.00835022
0.00908674
0.00960409
0.00998895
0.0102729
0.0104533
0.0105119
0.0104211
0.0101537
0.00971746
0.00923641
0.00898738
0.0090555
0.00909998
0.00905571
0.0092258
0.00980726
0.0109935
0.0143471
0.00994381
0.00888461
0.00838825
0.00796895
0.0074244
0.00658539
0.00536373
0.00402904
0.00307042
0.00260273
0.00203676
0.00128634
0.00253167
0.00448535
0.00572516
0.00668254
0.00753335
0.00828665
0.00892875
0.00946972
0.0099182
0.0102663
0.0104902
0.0105529
0.0104068
0.0100232
0.00949388
0.00916001
0.00934515
0.00973289
0.0099787
0.0102032
0.0105671
0.0113346
0.013818
0.0100049
0.00866636
0.00822837
0.0078298
0.00723778
0.00625758
0.00480796
0.00316269
0.0018247
0.00140059
0.00199028
0.00252091
0.0029645
0.00436175
0.00558718
0.00647593
0.00722361
0.00789437
0.00849543
0.00903548
0.00952162
0.00994439
0.0102745
0.010467
0.0104673
0.0102296
0.00978806
0.00939052
0.00943549
0.0098796
0.0102882
0.0105687
0.0108301
0.0113284
0.013193
0.00947048
0.00857037
0.00829807
0.0079945
0.00750205
0.00664223
0.00524956
0.00344528
0.00170507
0.000696264
0.0012109
0.00285544
0.0043235
0.00538848
0.00609562
0.00666907
0.00724268
0.00784221
0.00843593
0.00898759
0.00948389
0.00991962
0.0102742
0.0105048
0.010557
0.0103869
0.0100029
0.00955206
0.0093566
0.00959224
0.00998579
0.0102971
0.0105573
0.011001
0.0126065
0.00903815
0.00849816
0.00833556
0.00813835
0.00781294
0.00722829
0.00616368
0.00450637
0.00258277
0.000979188
0.00049201
0.0015835
0.0031444
0.00456087
0.00558657
0.00625081
0.00678715
0.00731981
0.00789335
0.00849585
0.00909494
0.00965854
0.0101526
0.0105305
0.0107344
0.0107139
0.0104515
0.0100088
0.00958241
0.00942177
0.0095418
0.00975866
0.010014
0.0105083
0.0122449
0.00854338
0.00843494
0.00839874
0.00829307
0.00809314
0.0077258
0.00703877
0.00579577
0.00391803
0.00175225
3.97894e-05
0.00027912
0.00219341
0.00398378
0.00514733
0.00589974
0.00647075
0.00698929
0.00751035
0.00805023
0.00860534
0.00917507
0.00974101
0.0102541
0.0106355
0.0108094
0.0107381
0.0104353
0.00999158
0.00959555
0.00942277
0.009482
0.00971493
0.0102879
0.0122784
0.00831558
0.00845781
0.00845362
0.00837939
0.00824359
0.00801476
0.00762696
0.0069268
0.00568922
0.00389362
0.00179576
0.000308603
8.34905e-06
0.00244034
0.00464449
0.00572059
0.00628249
0.00671636
0.00717336
0.00770139
0.0082912
0.00890909
0.00952261
0.0101178
0.0106504
0.0110241
0.0111484
0.0109999
0.0106264
0.0101544
0.00978524
0.00967057
0.00981625
0.010347
0.0122856
0.00844206
0.00852323
0.00849837
0.00841261
0.00826055
0.00800768
0.00761174
0.00703457
0.00618359
0.0049455
0.00349494
0.00177844
0.000165346
0.000385148
0.000869322
0.00337008
0.0050338
0.00592479
0.00648146
0.0069439
0.00743833
0.00801927
0.00868321
0.00938832
0.0100743
0.0106855
0.0111161
0.0112716
0.0111404
0.0108021
0.0104241
0.0102051
0.0102353
0.0106436
0.0125157
0.00873764
0.00866114
0.0086049
0.00852228
0.00838723
0.00815802
0.00777588
0.00718357
0.00635021
0.00518774
0.00374043
0.00267654
0.00179113
0.000203912
0.000452833
0.00059511
0.00288546
0.0046265
0.0057877
0.00657524
0.00716685
0.00770881
0.00829166
0.00895342
0.00966519
0.0103599
0.0109594
0.0113559
0.0114718
0.0113286
0.0110501
0.0108235
0.0107924
0.0111331
0.0130604
0.00910597
0.0087192
0.0086031
0.00850338
0.00835731
0.00811466
0.00771715
0.00711963
0.00633239
0.00535625
0.00408659
0.00273527
0.00228709
0.00207428
0.00100597
0.000595975
0.00048983
0.00246217
0.00396044
0.00506232
0.00594047
0.00667378
0.0073568
0.00807925
0.00888737
0.00973487
0.0105245
0.0111595
0.0115449
0.0116446
0.0115374
0.0113915
0.0113813
0.0117498
0.013941
0.00923612
0.00872862
0.00862914
0.00853892
0.00839414
0.00814618
0.00773367
0.00709436
0.00618872
0.00505041
0.00386775
0.00285983
0.00244851
0.00249553
0.00217477
0.00118377
0.000745955
0.000780648
0.00266127
0.00407095
0.00511474
0.00596814
0.00670267
0.00741586
0.00821795
0.00915899
0.0101341
0.0109779
0.0115826
0.0118909
0.0119538
0.0119271
0.0119973
0.0124628
0.0149083
0.00906705
0.00872001
0.00864011
0.00854876
0.00840497
0.00817464
0.00782859
0.00735553
0.00670499
0.00573395
0.0044227
0.00317954
0.00286364
0.0033343
0.00345786
0.00302528
0.00203292
0.00102396
0.00139798
0.00270548
0.00397266
0.00504111
0.00596228
0.00679038
0.00763681
0.00864985
0.00982377
0.0108978
0.0116853
0.0121481
0.0123393
0.0124062
0.0125286
0.0130127
0.0153419
0.00927255
0.00882275
0.00868616
0.00855856
0.00837824
0.00809827
0.00768688
0.0071718
0.0065914
0.00587116
0.00486388
0.00354938
0.00256764
0.0030619
0.00378583
0.00393773
0.00352425
0.00264443
0.00187815
0.00205861
0.00297723
0.00404268
0.0050719
0.00604341
0.00699957
0.00809382
0.00945151
0.0108061
0.0117661
0.0123201
0.012587
0.0127045
0.0128249
0.013206
0.0149869
0.00926352
0.00883114
0.00868589
0.00855192
0.00837378
0.00811444
0.00776245
0.00735404
0.00689763
0.00632136
0.00548395
0.0042522
0.00266034
0.00195675
0.00306689
0.0039033
0.00413915
0.00388078
0.00320927
0.00260994
0.00267555
0.0033371
0.0042448
0.00523978
0.00628072
0.00744394
0.00891062
0.0105839
0.0118731
0.012542
0.0128294
0.0129341
0.0129847
0.0131409
0.0140495
0.00948532
0.00891429
0.00867562
0.00847395
0.0082277
0.00788816
0.00746475
0.00706263
0.00671636
0.00633904
0.00581698
0.00499826
0.00360116
0.00144687
0.00127488
0.00283015
0.00372007
0.00405067
0.00394795
0.00352138
0.00315132
0.00322559
0.00372649
0.0044843
0.00539797
0.00646221
0.00780993
0.0095405
0.0112567
0.0123464
0.0128214
0.0129798
0.0129947
0.0129745
0.0133731
0.00966057
0.00893755
0.00865171
0.00842388
0.00814944
0.00777323
0.00732088
0.00694325
0.00666713
0.00634768
0.00591027
0.00536095
0.00467305
0.00366149
0.00206817
0.00225709
0.00340145
0.00404938
0.00429898
0.00422577
0.00394021
0.00372926
0.0038353
0.0042582
0.00490075
0.00569556
0.00668436
0.00801022
0.00964208
0.0111102
0.011998
0.0124026
0.0125599
0.0126564
0.0134497
0.00981714
0.0089495
0.00861233
0.0083576
0.00805337
0.0076282
0.00710489
0.00670809
0.00657181
0.00648494
0.00622885
0.00571911
0.00495625
0.00403834
0.00299269
0.00187123
0.00264716
0.00367088
0.00425073
0.00450565
0.00450277
0.00434824
0.0042612
0.00441772
0.00483275
0.0054179
0.00610711
0.00695508
0.0080666
0.00936528
0.0105011
0.0112399
0.0117072
0.0122275
0.0140889
0.00986873
0.00887773
0.00856946
0.008342
0.00804969
0.00760814
0.00700029
0.00643198
0.00617982
0.00615619
0.00612348
0.00593769
0.00552719
0.00484893
0.00394062
0.00289771
0.0022645
0.00324204
0.00410027
0.00458534
0.00480929
0.00483396
0.00475951
0.00477215
0.00502815
0.00552723
0.00612562
0.00674481
0.00744007
0.00830064
0.00928901
0.0101938
0.0109502
0.0119348
0.01482
0.0095205
0.00879584
0.00860292
0.00844333
0.00821148
0.00782987
0.00723265
0.0065275
0.00609456
0.00602673
0.00605549
0.0059891
0.00576233
0.00535902
0.00476546
0.00398371
0.00309381
0.00287185
0.00370965
0.00443439
0.00487065
0.00508334
0.00513276
0.00512296
0.0052452
0.0056687
0.00631697
0.00696276
0.00754998
0.00815449
0.00889751
0.00977558
0.0106673
0.0119258
0.0154169
0.00932837
0.00880289
0.00868278
0.00857002
0.00838759
0.00806759
0.00751585
0.00669234
0.00591624
0.00564894
0.00576455
0.00590331
0.00588662
0.00567511
0.0052787
0.00470305
0.00395273
0.0031934
0.00335137
0.00409468
0.00469712
0.00507245
0.00526343
0.00532317
0.00537981
0.00568028
0.00636266
0.00713997
0.00781499
0.00841556
0.00908839
0.0099398
0.0108754
0.0122489
0.0160345
0.00913184
0.00881165
0.00874732
0.00866014
0.00850765
0.00824472
0.00780233
0.00708939
0.00615432
0.00548911
0.00540549
0.00560097
0.00575248
0.00573853
0.0055446
0.00518255
0.00464602
0.00396223
0.00356648
0.00406587
0.00468221
0.00510762
0.00535436
0.00545605
0.00548015
0.00565504
0.00634706
0.0073393
0.0081666
0.00885025
0.00957298
0.0104446
0.0113889
0.0127883
0.0165332
0.00924971
0.00892141
0.00880732
0.00868278
0.00849937
0.00821344
0.00778512
0.007186
0.0063733
0.00554759
0.00523136
0.00539304
0.00563994
0.00575542
0.00569318
0.00546606
0.00508142
0.00452913
0.00395647
0.00403961
0.0046417
0.00511
0.00538605
0.00550757
0.00551487
0.00560162
0.0063096
0.00768665
0.0087796
0.00953215
0.0102495
0.0110528
0.0119064
0.0131723
0.0163274
0.00960579
0.00902336
0.00881403
0.00863704
0.0084023
0.00804774
0.00754658
0.0069691
0.00634973
0.00564044
0.00518596
0.00525009
0.00553964
0.00576155
0.0058198
0.00571353
0.00545767
0.0050451
0.00449855
0.00417964
0.00458436
0.00511081
0.00542424
0.00555814
0.00555218
0.00556918
0.00621676
0.00798028
0.00961079
0.0104851
0.0111076
0.0117112
0.0123393
0.013254
0.0152884
0.00997298
0.00908494
0.00878956
0.00857571
0.00830403
0.00788531
0.00727769
0.00661965
0.0061067
0.00565924
0.00530276
0.00529992
0.00556668
0.00583656
0.00597703
0.00596474
0.00581168
0.00551932
0.00507544
0.00459043
0.00453979
0.00504351
0.00545976
0.00565518
0.00567666
0.00563828
0.00603274
0.00768883
0.00995588
0.0112759
0.0119125
0.0123481
0.0127329
0.0132223
0.014134
0.0101342
0.00900089
0.00868523
0.00847907
0.00821063
0.00777477
0.00710794
0.00634436
0.00579942
0.00551215
0.00535597
0.00539414
0.00564721
0.00594734
0.00615816
0.00623431
0.00617765
0.00599461
0.00567459
0.00522237
0.0048338
0.00495082
0.00544248
0.00578879
0.00592348
0.00591184
0.00601926
0.00696705
0.00910653
0.011086
0.0120835
0.0125731
0.0128748
0.0131394
0.0136083
0.00986175
0.0088287
0.00860752
0.00846607
0.00825342
0.00787107
0.00723153
0.0063859
0.00567393
0.00534507
0.00529389
0.00541493
0.00568673
0.00602148
0.00630462
0.00647416
0.00651812
0.00644266
0.00624825
0.00592069
0.00548393
0.00517213
0.00536092
0.00581743
0.00614817
0.006292
0.00633359
0.00662554
0.00778694
0.00969182
0.0112191
0.0120346
0.012498
0.012897
0.0138618
0.009357
0.00869583
0.00861515
0.00856185
0.00843993
0.00817375
0.00766336
0.00683329
0.00587302
0.00523191
0.00506017
0.00520374
0.00552534
0.0059265
0.0063048
0.00658687
0.00674616
0.00678515
0.00671326
0.00652799
0.00621434
0.00580645
0.00557066
0.00580186
0.00623461
0.00657737
0.00676425
0.00687391
0.00723171
0.00826961
0.00977558
0.0109614
0.0117423
0.012537
0.0145684
0.0089108
0.00865103
0.00867563
0.00868278
0.00863446
0.00848893
0.00817136
0.0075503
0.00655883
0.00551174
0.00491586
0.00486616
0.0051673
0.00563051
0.00611593
0.00652533
0.0068113
0.00696811
0.00701004
0.00694861
0.00677683
0.00647631
0.00611377
0.00599783
0.00629581
0.00673379
0.00709615
0.00731607
0.00745306
0.00779857
0.00874286
0.0100062
0.0110641
0.0122855
0.0153355
0.00872316
0.00866066
0.00870356
0.00870987
0.00866715
0.00855596
0.00834546
0.00797033
0.00728219
0.00620504
0.00516335
0.00468082
0.00478436
0.00523092
0.00579597
0.00632678
0.00673981
0.00701191
0.00715727
0.00719677
0.00713553
0.00695837
0.00666009
0.00638576
0.00645959
0.00686754
0.00734256
0.00771651
0.00793047
0.00807242
0.0085588
0.009648
0.0107988
0.0122652
0.0158719
0.0088582
0.00876034
0.00875001
0.00871249
0.00862248
0.00845674
0.00820483
0.00788982
0.00748431
0.00678117
0.00574476
0.00489691
0.00466321
0.0049578
0.00551413
0.00611362
0.0066239
0.00699334
0.00722653
0.00734641
0.00736703
0.00728369
0.00707923
0.00679847
0.00669994
0.00700531
0.00754941
0.00807024
0.00842657
0.00863043
0.00900043
0.00992195
0.0110064
0.0124829
0.0161302
0.00922618
0.00890983
0.00879625
0.00869936
0.00855379
0.00831028
0.00794204
0.00752439
0.00717734
0.00679208
0.0061236
0.00531152
0.00486603
0.00497085
0.00544127
0.00603482
0.00658142
0.0070031
0.0072916
0.00746669
0.00754631
0.00753295
0.00741195
0.00718509
0.00699991
0.00715624
0.00770547
0.00838283
0.00890703
0.00924122
0.00966584
0.0104903
0.0114411
0.0127784
0.0161137
0.00969802
0.00902504
0.00877873
0.00861521
0.00841371
0.00809536
0.00761389
0.00707495
0.00669918
0.00647203
0.00615104
0.00564658
0.00525423
0.00526297
0.00562966
0.00615846
0.00667717
0.00709619
0.00739759
0.0075959
0.00770948
0.00774548
0.00769564
0.00754683
0.00736052
0.00737967
0.00783244
0.00862573
0.00936597
0.00985297
0.0103291
0.0110326
0.0118175
0.0129593
0.0159004
0.0100482
0.00900634
0.00864732
0.00842173
0.00815474
0.00773982
0.00712675
0.0064791
0.00610256
0.00602549
0.00599433
0.00584503
0.00568298
0.00572965
0.00603406
0.00648037
0.00692814
0.00729677
0.00756781
0.00775306
0.0078704
0.00793144
0.00793823
0.00788025
0.0077671
0.00773314
0.00804049
0.00882806
0.00979206
0.0104919
0.0110107
0.0115672
0.0121666
0.0130969
0.0157148
0.0101663
0.00891268
0.00850476
0.0082397
0.00790994
0.00738469
0.00660776
0.00580273
0.00540001
0.00550334
0.0057852
0.00598756
0.00610703
0.00627354
0.00656425
0.0069371
0.00729908
0.0075908
0.00780031
0.00794007
0.00802836
0.00808346
0.00812564
0.00816659
0.00818583
0.00820527
0.00841484
0.00907646
0.0101382
0.0110679
0.0116694
0.0121212
0.0125576
0.0132836
0.0156776
0.0101048
0.00881181
0.00839785
0.0081117
0.00773694
0.00712416
0.00618946
0.00515796
0.00460859
0.00486976
0.00551287
0.00608556
0.00650248
0.0068395
0.00717079
0.00749983
0.00778104
0.00798497
0.00811228
0.00817884
0.00820387
0.00821483
0.00826489
0.00841553
0.00861265
0.00875703
0.00894673
0.00944048
0.0103871
0.0114212
0.0121278
0.0125608
0.0129123
0.0135242
0.0159505
0.0100563
0.00873361
0.00830302
0.00799199
0.00758013
0.00690735
0.00586074
0.00462018
0.00384845
0.00425308
0.00531232
0.00625556
0.0069406
0.00743924
0.00782721
0.00813146
0.00834284
0.00846073
0.00849899
0.00847558
0.00840806
0.00833364
0.00835845
0.00863662
0.00905706
0.00935827
0.00958703
0.00996423
0.0106806
0.0115885
0.0122889
0.0127219
0.0130703
0.0137102
0.0162916
0.0100405
0.00862789
0.00816173
0.00781201
0.00734688
0.0066039
0.0054789
0.00412913
0.00322983
0.00389309
0.00543041
0.00669059
0.00756271
0.00815379
0.00855957
0.00882111
0.00895793
0.00899073
0.00894004
0.00882002
0.00864165
0.00845012
0.00841618
0.00881697
0.00947922
0.00992517
0.010219
0.01061
0.0112383
0.011976
0.0125483
0.0129176
0.0132435
0.0138639
0.016056
0.00996645
0.00849605
0.00800342
0.00761272
0.00708225
0.00626159
0.00509782
0.00373619
0.00285472
0.00386906
0.0059367
0.00741095
0.00834468
0.00894166
0.00931686
0.00951993
0.00958506
0.00954088
0.00940611
0.00918697
0.0088863
0.00855568
0.00842519
0.00890494
0.00982729
0.0103942
0.010663
0.0110577
0.0117499
0.0124745
0.0129571