/*--------------------------------*- C++ -*----------------------------------*\
| =========                 |                                                 |
| \\      /  F ield         | OpenFOAM: The Open Source CFD Toolbox           |
|  \\    /   O peration     | Version:  v2006                                 |
|   \\  /    A nd           | Website:  www.openfoam.com                      |
|    \\/     M anipulation  |                                                 |
\*---------------------------------------------------------------------------*/
FoamFile
{
    version     2.0;
    format      ascii;
    class       volVectorField;
    location    "12";
    object      U;
}
// * * * * * * * * * * * * * * * * * * * * * * * * * * * * * * * * * * * * * //

dimensions      [0 1 -1 0 0 0 0];


internalField   nonuniform List<vector> 
78750
(
(-0.395817 -0.262988 -0.0606937)
(-0.340701 -0.25073 -0.0542737)
(-0.324804 -0.223967 -0.0427853)
(-0.262543 -0.19072 -0.0304193)
(-0.185639 -0.138437 -0.0226363)
(-0.154107 -0.0963356 -0.029943)
(-0.134841 -0.0806168 -0.0340597)
(-0.10798 -0.0592258 -0.0415797)
(-0.0886274 -0.0511196 -0.0452933)
(-0.0719208 -0.0416896 -0.049432)
(-0.0581778 -0.0360312 -0.0516101)
(-0.0470479 -0.0303638 -0.0531703)
(-0.0365632 -0.0252847 -0.0538644)
(-0.0275177 -0.0204398 -0.0540699)
(-0.0190621 -0.0158651 -0.0538038)
(-0.0113418 -0.0116173 -0.0531849)
(-0.00429779 -0.0077356 -0.0523132)
(0.0020906 -0.00425305 -0.0512886)
(0.0078077 -0.0012 -0.0502023)
(0.0128905 0.00139938 -0.0491244)
(0.0173976 0.00352354 -0.0481043)
(0.0213156 0.00519506 -0.0471731)
(0.0246742 0.00653483 -0.0463104)
(0.0274773 0.00767516 -0.0455112)
(0.0297159 0.00872277 -0.0448087)
(0.031421 0.00978015 -0.0442282)
(0.0326103 0.0109516 -0.0437983)
(0.033275 0.0123353 -0.0435627)
(0.0333761 0.0140098 -0.0435976)
(0.0328522 0.0160052 -0.0440222)
(0.0316246 0.0183052 -0.0450018)
(0.0296024 0.0208847 -0.0468049)
(0.0265684 0.0239185 -0.0499278)
(0.0246334 0.0314884 -0.0573214)
(0.0128528 0.081285 -0.0387893)
(0.0434856 -0.294821 0.0318266)
(-0.0487601 -0.317831 0.0465492)
(-0.00847087 -0.379052 0.0604731)
(-0.0212963 -0.438569 0.0780425)
(-0.0244171 -0.421395 0.0865785)
(-0.0223562 -0.338157 0.0861034)
(-0.014695 -0.254132 0.0806137)
(-0.00828289 -0.179158 0.0709887)
(-0.00230384 -0.119836 0.0576578)
(0.00108455 -0.0785475 0.0426337)
(0.00242867 -0.0522248 0.0275155)
(0.00221068 -0.0365249 0.013236)
(0.00100856 -0.027395 0.000182628)
(-0.000864086 -0.0219382 -0.011646)
(-0.00329854 -0.0184485 -0.0221868)
(-0.00595636 -0.0158255 -0.0310357)
(-0.008394 -0.0135899 -0.037932)
(-0.0103251 -0.0116767 -0.0430583)
(-0.0116517 -0.00990461 -0.0466594)
(-0.0123238 -0.00797165 -0.0489363)
(-0.012203 -0.00563764 -0.0501161)
(-0.0111277 -0.00284343 -0.0504994)
(-0.00902838 0.000338976 -0.0503642)
(-0.0060361 0.00380287 -0.0498976)
(-0.00243803 0.00741365 -0.0492059)
(0.00145613 0.0111173 -0.0483306)
(0.00539805 0.0149863 -0.0472775)
(0.00918076 0.0191569 -0.0460477)
(0.0126231 0.0237743 -0.0446379)
(0.0155388 0.0289949 -0.043029)
(0.0177006 0.0350683 -0.041146)
(0.0189154 0.0426269 -0.0387902)
(0.0188501 0.0546103 -0.0353223)
(0.0163658 0.0957982 -0.0304649)
(0.0049892 0.218262 -0.0159949)
(-0.0189001 -0.0482166 -0.0169221)
(-0.00952617 -0.195491 0.00366502)
(-0.0205688 -0.242141 0.00362931)
(-0.0195314 -0.257329 0.00256218)
(-0.0189 -0.270144 0.00544486)
(-0.0156178 -0.280049 0.012908)
(-0.00818318 -0.270468 0.0223351)
(0.00310706 -0.23196 0.0302455)
(0.0141368 -0.177998 0.0326753)
(0.0235372 -0.123989 0.0302081)
(0.0304328 -0.0773227 0.0251919)
(0.0345137 -0.0399056 0.020524)
(0.0364738 -0.00953874 0.0182237)
(0.0371481 0.0164783 0.0185442)
(0.0368625 0.0373951 0.0198632)
(0.0354797 0.0503798 0.0199496)
(0.0333361 0.0563938 0.0183031)
(0.0307534 0.0588857 0.0153928)
(0.0276302 0.0593661 0.0108975)
(0.0240392 0.0572011 0.00374189)
(0.0203693 0.0508678 -0.00672483)
(0.0171395 0.0407377 -0.018707)
(0.0145861 0.030067 -0.0290645)
(0.0126721 0.0217294 -0.0364221)
(0.0113695 0.016622 -0.0411461)
(0.0106469 0.0145731 -0.044018)
(0.0104817 0.0152711 -0.0456072)
(0.0108391 0.0184895 -0.0462693)
(0.0116313 0.0240078 -0.0462804)
(0.0126755 0.0317587 -0.0458772)
(0.0137308 0.0424558 -0.0451969)
(0.0145498 0.0591402 -0.0442695)
(0.0145684 0.0933858 -0.0430565)
(0.0123994 0.181004 -0.0386986)
(0.00285528 0.300014 -0.0174117)
(0.00345478 -0.195121 0.0455243)
(0.00274203 -0.344275 0.0555176)
(0.00557156 -0.417503 0.0542275)
(0.00806022 -0.444836 0.0526029)
(0.0119584 -0.447663 0.0515565)
(0.0163439 -0.432719 0.0511333)
(0.0210093 -0.401018 0.0513231)
(0.0260671 -0.354745 0.0523732)
(0.0322822 -0.295358 0.0538999)
(0.0389614 -0.227769 0.0532632)
(0.0444473 -0.161979 0.0467461)
(0.0471759 -0.109025 0.0332445)
(0.0466783 -0.073975 0.0171197)
(0.0440268 -0.0520224 0.00419754)
(0.0410998 -0.0347073 -0.0032899)
(0.0389811 -0.0179031 -0.00596653)
(0.0377731 -0.000998622 -0.00498745)
(0.037067 0.0155623 -0.00138366)
(0.0364175 0.0297509 0.00303153)
(0.0356197 0.0392356 0.00600297)
(0.0347132 0.0448184 0.0071165)
(0.033582 0.0486985 0.00717051)
(0.0319118 0.0518907 0.00653059)
(0.029662 0.0541956 0.00499799)
(0.0271479 0.0551944 0.0022871)
(0.0246866 0.0548012 -0.00165521)
(0.02249 0.0534382 -0.0064302)
(0.0207099 0.0521851 -0.0111229)
(0.0193769 0.0523035 -0.0149067)
(0.0183342 0.0547651 -0.0175242)
(0.0173507 0.0608184 -0.0190063)
(0.0160798 0.0738746 -0.0193917)
(0.0134458 0.109486 -0.0193954)
(0.00921841 0.224735 -0.0209655)
(0.00129628 0.348504 -0.00899939)
(-0.00807908 -0.127786 -0.00290945)
(-0.0122096 -0.260801 -0.0252244)
(-0.0114019 -0.331869 -0.0300264)
(-0.00846647 -0.365482 -0.0293929)
(-0.0049006 -0.379138 -0.0274388)
(-0.000655586 -0.380265 -0.0246813)
(0.00444541 -0.368185 -0.0206771)
(0.0103256 -0.337463 -0.0153232)
(0.0165333 -0.286312 -0.00896802)
(0.0233961 -0.220058 -0.000295647)
(0.0313014 -0.144279 0.0105946)
(0.0393675 -0.0644305 0.0194496)
(0.0455249 0.00819659 0.0212026)
(0.0478823 0.0563195 0.016545)
(0.0465798 0.0757292 0.0114558)
(0.0439697 0.0803042 0.00845604)
(0.0409935 0.0810937 0.00715094)
(0.0377155 0.080799 0.0070986)
(0.0345254 0.0800069 0.00767845)
(0.0314934 0.0790718 0.0082768)
(0.0286584 0.0780591 0.00840557)
(0.0260948 0.0768592 0.00774969)
(0.0238733 0.0753246 0.00613417)
(0.0220634 0.0733733 0.00351693)
(0.0206802 0.0710989 2.35168e-05)
(0.0196575 0.0688302 -0.00406193)
(0.0188721 0.067139 -0.0083315)
(0.0182068 0.0668124 -0.0123164)
(0.0175934 0.0687197 -0.0157314)
(0.0169225 0.0741469 -0.0186593)
(0.0160764 0.0861113 -0.0212168)
(0.0149457 0.112222 -0.0231943)
(0.0126226 0.176296 -0.0233172)
(0.00813571 0.304339 -0.0203938)
(0.000665844 0.396878 -0.00791506)
(0.00188012 -0.135013 0.0112641)
(0.0219079 -0.362622 0.022346)
(0.0375701 -0.482655 0.0272161)
(0.0489813 -0.52999 0.0288242)
(0.056514 -0.542662 0.0291822)
(0.061622 -0.537856 0.0284528)
(0.0643499 -0.518606 0.0255899)
(0.0637548 -0.483913 0.0178716)
(0.0596901 -0.435198 0.00355249)
(0.0540768 -0.379229 -0.00969386)
(0.0501592 -0.31862 -0.0116038)
(0.0495208 -0.248365 -2.71516e-05)
(0.0518775 -0.163791 0.0176142)
(0.0534017 -0.0815879 0.0261023)
(0.0509343 -0.0245177 0.0215785)
(0.0456316 0.01147 0.0118354)
(0.0402039 0.0357413 0.00383125)
(0.0356388 0.0556386 0.000572511)
(0.0316998 0.0723425 0.00172751)
(0.0287182 0.0827837 0.00412992)
(0.0267287 0.0880632 0.00580892)
(0.0252964 0.0905448 0.00677139)
(0.0242352 0.0911408 0.00704531)
(0.0234897 0.0904021 0.00652872)
(0.0229143 0.0888886 0.0052607)
(0.0223785 0.0871468 0.00340192)
(0.021796 0.0857733 0.00119283)
(0.0210932 0.0854557 -0.00108197)
(0.0202458 0.0869588 -0.00315099)
(0.0191765 0.0911844 -0.0049185)
(0.0177041 0.100193 -0.00654285)
(0.0155464 0.121207 -0.00857812)
(0.0122122 0.188983 -0.0119933)
(0.00803024 0.342513 -0.0131856)
(0.00104189 0.429514 -0.00457453)
(0.00994752 -0.28662 0.00700046)
(0.0290524 -0.473314 0.00684872)
(0.036968 -0.516253 0.00820582)
(0.0392503 -0.514954 0.0106467)
(0.0396584 -0.49767 0.013481)
(0.038596 -0.465315 0.0163308)
(0.0355627 -0.414105 0.0167479)
(0.0306335 -0.341086 0.00803914)
(0.0240801 -0.255243 -0.0174316)
(0.0162935 -0.185407 -0.04573)
(0.00959748 -0.140648 -0.0558707)
(0.00425832 -0.0988663 -0.0452918)
(0.000639283 -0.0338219 -0.0178904)
(-0.0021977 0.0551705 0.00464118)
(-0.00725408 0.117921 0.00555772)
(-0.0110347 0.137153 -0.00110662)
(-0.0131774 0.14084 -0.00618331)
(-0.0143188 0.13728 -0.00892028)
(-0.0139941 0.128661 -0.00889521)
(-0.0124693 0.118891 -0.00736796)
(-0.0103909 0.110514 -0.0058715)
(-0.0080819 0.104274 -0.00492019)
(-0.00566665 0.0999712 -0.00452475)
(-0.00324322 0.0971734 -0.00456421)
(-0.000849089 0.0954799 -0.00495058)
(0.00145754 0.0948034 -0.00564116)
(0.00358632 0.0954046 -0.00655226)
(0.00544094 0.0977411 -0.00754797)
(0.00699101 0.102502 -0.00851175)
(0.00829108 0.111244 -0.00936572)
(0.00921107 0.127588 -0.0101627)
(0.00933793 0.162163 -0.0111499)
(0.00711374 0.250356 -0.0124666)
(0.00380111 0.401962 -0.0111876)
(-0.000677203 0.459906 -0.00377417)
(0.00507142 -0.409701 0.029793)
(-0.000528108 -0.543327 0.0356002)
(-0.00798931 -0.564938 0.0402088)
(-0.0161393 -0.560464 0.0458036)
(-0.0235512 -0.540843 0.0527137)
(-0.0294471 -0.506093 0.0600266)
(-0.0331954 -0.45589 0.0641859)
(-0.0341918 -0.391386 0.0582058)
(-0.0327757 -0.319277 0.035858)
(-0.0318214 -0.25622 0.0062096)
(-0.0333623 -0.207772 -0.0116644)
(-0.0376147 -0.158786 -0.0132762)
(-0.0422482 -0.0937354 -0.000504082)
(-0.0422331 -0.0158059 0.0140416)
(-0.0381069 0.0446225 0.0170895)
(-0.0325631 0.0721227 0.014165)
(-0.0271792 0.0826875 0.0116675)
(-0.0222355 0.0871567 0.0100023)
(-0.0176447 0.0886592 0.00883508)
(-0.0137219 0.0886607 0.00789055)
(-0.0104224 0.0880628 0.00696544)
(-0.00754162 0.0873614 0.00598298)
(-0.00490126 0.0867978 0.00492822)
(-0.0023995 0.086514 0.00379792)
(-2.89153e-05 0.0867068 0.00259421)
(0.00219876 0.0876691 0.00132835)
(0.00423327 0.0897344 6.13973e-05)
(0.00597588 0.0933105 -0.00111135)
(0.00744595 0.0991991 -0.00211394)
(0.00862577 0.109126 -0.00296678)
(0.00929764 0.127064 -0.00384679)
(0.0091602 0.167187 -0.00529467)
(0.00724314 0.274487 -0.00820894)
(0.00422426 0.43685 -0.00886961)
(6.71675e-05 0.476692 -0.00295037)
(-0.014664 -0.330692 0.0198784)
(-0.033474 -0.430185 -0.00488503)
(-0.0438436 -0.452171 -0.00885671)
(-0.0513767 -0.455147 -0.00744159)
(-0.056554 -0.446278 -0.0027842)
(-0.0581729 -0.425117 0.00519953)
(-0.0556705 -0.388709 0.0169547)
(-0.0495395 -0.333768 0.0318361)
(-0.041345 -0.260273 0.0452108)
(-0.0331909 -0.174714 0.0483723)
(-0.027567 -0.091198 0.0398641)
(-0.0262473 -0.0267148 0.0282625)
(-0.0278989 0.00832423 0.0207857)
(-0.0285671 0.0244263 0.0179578)
(-0.0278771 0.0382512 0.0168145)
(-0.0265858 0.051122 0.0154422)
(-0.0246788 0.0602466 0.0138827)
(-0.0225214 0.0656083 0.0124364)
(-0.0202314 0.0685959 0.0111275)
(-0.0178174 0.0702906 0.00988591)
(-0.0152962 0.071329 0.00865933)
(-0.0127102 0.0721812 0.0074349)
(-0.0100954 0.0732474 0.00621553)
(-0.00749428 0.0748641 0.00500049)
(-0.00495293 0.0773182 0.00379016)
(-0.002511 0.0808924 0.00259265)
(-0.000207254 0.0859303 0.00142763)
(0.00189931 0.0929418 0.000337937)
(0.00375749 0.102861 -0.000611899)
(0.00528474 0.117625 -0.00144206)
(0.00635904 0.142223 -0.00220179)
(0.00654005 0.192905 -0.00295342)
(0.00469993 0.312556 -0.00355952)
(0.00258637 0.469475 -0.00294189)
(-0.000226131 0.489836 0.00110603)
(-0.0104307 -0.208536 0.00360931)
(-0.0148024 -0.434213 -0.000637562)
(-0.0185986 -0.517456 0.00254379)
(-0.0202026 -0.552204 0.00377753)
(-0.0215093 -0.569567 0.00478707)
(-0.0226455 -0.575241 0.00617847)
(-0.0231711 -0.567491 0.00926307)
(-0.0219963 -0.538697 0.0165275)
(-0.0175416 -0.481223 0.0300128)
(-0.00911544 -0.398565 0.0477847)
(0.0027528 -0.300124 0.0637123)
(0.0161716 -0.197449 0.0717807)
(0.0283824 -0.102586 0.0708466)
(0.0374451 -0.0282491 0.0639903)
(0.0424047 0.0175835 0.054808)
(0.0422636 0.0395519 0.046048)
(0.0387615 0.0486227 0.0394969)
(0.0338519 0.0532858 0.0349054)
(0.0289203 0.0558893 0.0314151)
(0.0247666 0.0569836 0.0285292)
(0.0214283 0.0574855 0.025997)
(0.0188026 0.0581751 0.0236625)
(0.0168049 0.0594927 0.0214375)
(0.0153467 0.06168 0.0192754)
(0.014349 0.064908 0.0171514)
(0.0137384 0.0693797 0.0150596)
(0.0134148 0.0754145 0.0130017)
(0.0132756 0.0835872 0.0109903)
(0.013227 0.0950098 0.00901096)
(0.0131507 0.112107 0.00697457)
(0.0128801 0.141359 0.0046657)
(0.0118704 0.202795 0.00168072)
(0.00790341 0.340108 -0.00108161)
(0.00406525 0.499653 -8.48768e-05)
(0.000670784 0.503217 0.00355937)
(0.00230892 -0.236382 0.00300144)
(0.00976321 -0.43417 0.00346785)
(0.0101474 -0.494112 -0.00119031)
(0.0088703 -0.507278 -0.00581679)
(0.00677576 -0.505191 -0.010895)
(0.00371099 -0.494141 -0.0173239)
(0.000398893 -0.47826 -0.0248041)
(-0.00207131 -0.461535 -0.031704)
(-0.00291606 -0.44254 -0.0357054)
(-0.00127284 -0.413188 -0.0333138)
(0.00387647 -0.365399 -0.0202692)
(0.0125344 -0.29977 0.00278799)
(0.0238069 -0.221761 0.0292451)
(0.0363354 -0.136279 0.0519914)
(0.0482087 -0.0503531 0.0666142)
(0.0570825 0.0248366 0.0708246)
(0.0607093 0.0739263 0.0662526)
(0.0592117 0.0927344 0.0586215)
(0.0548857 0.0953615 0.0517941)
(0.0486559 0.0924193 0.0463679)
(0.0419593 0.0880714 0.0420567)
(0.0360254 0.0841897 0.0385165)
(0.0309201 0.0815653 0.0354215)
(0.0266281 0.0804003 0.0325902)
(0.0230874 0.0808081 0.0299435)
(0.0201659 0.0830115 0.0274102)
(0.0177435 0.0874329 0.0248993)
(0.0157432 0.0948201 0.0223182)
(0.014099 0.1065 0.0195805)
(0.012728 0.125335 0.0166117)
(0.011516 0.159416 0.013221)
(0.0104317 0.233676 0.0091369)
(0.00799645 0.387443 0.0052838)
(0.00523102 0.528661 0.00505381)
(0.00191249 0.521069 0.0071582)
(0.00161266 -0.281429 0.00697467)
(0.0024753 -0.468366 0.0107009)
(0.00145948 -0.528434 0.0111658)
(0.000707528 -0.5489 0.011075)
(0.000527778 -0.555248 0.0107881)
(0.00103072 -0.553056 0.0103125)
(0.00214421 -0.542606 0.00897689)
(0.00360287 -0.52231 0.00528005)
(0.00496618 -0.490411 -0.00289186)
(0.005853 -0.447438 -0.0166206)
(0.0064602 -0.397856 -0.0319002)
(0.00781383 -0.34673 -0.0394142)
(0.0111021 -0.293851 -0.0328628)
(0.0171495 -0.235005 -0.0131396)
(0.0260832 -0.166803 0.0138254)
(0.0369247 -0.0901902 0.0403775)
(0.0477353 -0.0110817 0.0599232)
(0.0556317 0.057994 0.0686111)
(0.0577166 0.0997099 0.0675327)
(0.0555641 0.114117 0.0624222)
(0.0514506 0.115655 0.0568821)
(0.0456281 0.111162 0.0516433)
(0.039711 0.104455 0.0471567)
(0.0345747 0.0988795 0.043532)
(0.030217 0.0957814 0.0404716)
(0.0266316 0.0952679 0.0376933)
(0.0237338 0.0973366 0.0349906)
(0.0214017 0.102453 0.0321237)
(0.0195616 0.111942 0.0288043)
(0.0181114 0.128609 0.0247633)
(0.0166961 0.15949 0.0197344)
(0.0141048 0.229292 0.0135948)
(0.00920115 0.393979 0.00845004)
(0.00521879 0.551956 0.00811808)
(0.00158366 0.53696 0.00892319)
(0.00260498 -0.308021 0.00764922)
(0.00748903 -0.476868 0.00149477)
(0.00923063 -0.528961 -0.00443722)
(0.00930874 -0.548156 -0.00741701)
(0.00847158 -0.554905 -0.00870863)
(0.00699775 -0.553891 -0.00871275)
(0.00512835 -0.545993 -0.00750943)
(0.0031694 -0.53039 -0.00531223)
(0.00148048 -0.503881 -0.00313174)
(0.000485152 -0.461645 -0.0042946)
(0.000458627 -0.405398 -0.0135644)
(0.00122225 -0.348889 -0.0285792)
(0.00262432 -0.302097 -0.0399898)
(0.00496435 -0.261272 -0.042063)
(0.00901255 -0.21749 -0.0323754)
(0.0155116 -0.163638 -0.0110101)
(0.0241957 -0.0980337 0.016608)
(0.033771 -0.0251285 0.0420279)
(0.0421001 0.0447468 0.0588903)
(0.0461907 0.0957398 0.065452)
(0.0457233 0.119281 0.0649478)
(0.0431743 0.126156 0.0619174)
(0.0392614 0.12536 0.0581113)
(0.0342223 0.119653 0.0539142)
(0.0294204 0.112865 0.0500351)
(0.02524 0.108494 0.046803)
(0.0217159 0.107708 0.0440534)
(0.018801 0.110866 0.0413913)
(0.0163741 0.119651 0.0382413)
(0.0143846 0.139946 0.0336527)
(0.0129212 0.187755 0.0263145)
(0.0106505 0.295299 0.0162158)
(0.00355549 0.475705 0.00936168)
(0.000452019 0.59811 0.00896492)
(0.000236541 0.562573 0.00818826)
(0.00164562 -0.343407 0.00543916)
(0.00145134 -0.490854 -0.00679361)
(0.000519655 -0.527432 -0.0126311)
(-0.000944516 -0.53849 -0.0156614)
(-0.00281272 -0.540265 -0.0177991)
(-0.00490958 -0.535942 -0.0194528)
(-0.00712353 -0.526398 -0.0205956)
(-0.00933749 -0.511709 -0.020954)
(-0.011251 -0.491211 -0.0200533)
(-0.012241 -0.462574 -0.017638)
(-0.0113736 -0.422455 -0.0153268)
(-0.00842308 -0.373198 -0.0167391)
(-0.00454606 -0.324726 -0.0219058)
(-0.000825865 -0.282726 -0.0272293)
(0.00255785 -0.244751 -0.0293198)
(0.00630991 -0.20425 -0.0246408)
(0.0115112 -0.154448 -0.0100145)
(0.018481 -0.0925994 0.0128475)
(0.0264854 -0.0221942 0.0366891)
(0.0335645 0.0456264 0.0540539)
(0.0373207 0.0957388 0.0624721)
(0.0372672 0.121274 0.0642748)
(0.0350233 0.130238 0.0631036)
(0.0315891 0.131729 0.0608191)
(0.0270139 0.129143 0.057855)
(0.0220328 0.125098 0.0546403)
(0.0173469 0.122684 0.0516579)
(0.013112 0.12374 0.0489451)
(0.00928069 0.130016 0.0461182)
(0.00590676 0.146546 0.0423963)
(0.00347624 0.189962 0.0363028)
(0.00533613 0.30598 0.0250736)
(0.00573498 0.500231 0.0129162)
(0.00354613 0.590228 0.0106941)
(0.00216169 0.549743 0.00957924)
(-0.00326214 -0.321446 0.0036901)
(-0.00691667 -0.457514 -0.00876106)
(-0.00544844 -0.499411 -0.011371)
(-0.00262912 -0.517009 -0.0119709)
(0.000926178 -0.524394 -0.0122912)
(0.00470848 -0.524759 -0.0128479)
(0.00834045 -0.518799 -0.0139437)
(0.0115175 -0.506681 -0.0156901)
(0.0139765 -0.488846 -0.0178033)
(0.015679 -0.466312 -0.0194137)
(0.0169512 -0.439006 -0.0192508)
(0.0184722 -0.40417 -0.0168866)
(0.0206891 -0.360491 -0.0142409)
(0.0231473 -0.313044 -0.0134603)
(0.0250441 -0.268308 -0.0145963)
(0.0261046 -0.228144 -0.0159225)
(0.0268258 -0.188753 -0.0141365)
(0.0283881 -0.142778 -0.00459642)
(0.0318909 -0.0843041 0.0144027)
(0.0371481 -0.0148745 0.0369768)
(0.042015 0.0523953 0.054107)
(0.0439872 0.101249 0.0625431)
(0.0428076 0.126774 0.0648781)
(0.0398505 0.136839 0.064487)
(0.0359858 0.139583 0.0629509)
(0.0315745 0.138847 0.0607402)
(0.0271994 0.13728 0.058141)
(0.0233417 0.137466 0.0553781)
(0.0200633 0.141629 0.0523403)
(0.0172084 0.153456 0.0484643)
(0.0144552 0.182049 0.0431886)
(0.00955384 0.266243 0.0375041)
(0.00739607 0.511061 0.0225056)
(0.00570618 0.633968 0.0150384)
(0.00301433 0.584508 0.0121123)
(-0.00533101 -0.290519 -0.0138944)
(-0.00395038 -0.476863 -0.0297398)
(0.00289467 -0.547583 -0.0296029)
(0.0109728 -0.575974 -0.0285442)
(0.0193858 -0.586898 -0.0282115)
(0.0275395 -0.587057 -0.0288889)
(0.0347664 -0.577936 -0.0308805)
(0.0406107 -0.559842 -0.0341949)
(0.0447941 -0.53332 -0.038347)
(0.0471768 -0.500016 -0.0424333)
(0.0478123 -0.462895 -0.0452482)
(0.0470656 -0.424704 -0.0453111)
(0.0457098 -0.384955 -0.0414825)
(0.044685 -0.340484 -0.0343162)
(0.0444048 -0.290756 -0.0262521)
(0.0443783 -0.240179 -0.0199624)
(0.0438837 -0.19442 -0.0163915)
(0.0428035 -0.15451 -0.013618)
(0.0418916 -0.114312 -0.00662433)
(0.0426626 -0.0636691 0.0102529)
(0.0458356 0.000504548 0.0342825)
(0.049253 0.0649755 0.054124)
(0.0499549 0.110273 0.063632)
(0.0477041 0.13195 0.0662113)
(0.0439686 0.139374 0.0662096)
(0.0393706 0.139852 0.0650329)
(0.0342221 0.136932 0.0629617)
(0.0292956 0.134313 0.0603413)
(0.0250985 0.136053 0.0573008)
(0.0209522 0.150568 0.0525775)
(0.0177203 0.210873 0.0413652)
(0.0112826 0.340645 0.0260615)
(-0.000280831 0.517017 0.0309003)
(-0.00195052 0.619713 0.0303823)
(-0.000773886 0.574262 0.0225565)
(-0.000162191 -0.272828 -0.0294134)
(0.0110065 -0.492786 -0.0342776)
(0.0222817 -0.58397 -0.027284)
(0.0318863 -0.615201 -0.0244724)
(0.040062 -0.622411 -0.0250908)
(0.0471757 -0.615836 -0.0289032)
(0.0526169 -0.596929 -0.0365112)
(0.0557257 -0.56662 -0.0476453)
(0.0565321 -0.527652 -0.0606792)
(0.0555953 -0.483312 -0.0735167)
(0.05348 -0.436294 -0.0842619)
(0.0505129 -0.39009 -0.0911335)
(0.0470111 -0.348883 -0.0926283)
(0.0435217 -0.313207 -0.0881342)
(0.0407027 -0.278352 -0.0778982)
(0.0390816 -0.238038 -0.0632371)
(0.0384772 -0.190479 -0.0475597)
(0.0378327 -0.141868 -0.0350121)
(0.036433 -0.099548 -0.026422)
(0.0345754 -0.0620235 -0.0176414)
(0.0336148 -0.0187835 -0.00103746)
(0.0351375 0.0399537 0.0265792)
(0.037139 0.104226 0.0535457)
(0.0357714 0.149867 0.0669305)
(0.0310366 0.171746 0.0701485)
(0.0243344 0.18062 0.0710254)
(0.0163392 0.183989 0.071472)
(0.00776118 0.186041 0.0706788)
(-0.00123288 0.191303 0.0682914)
(-0.00918465 0.209016 0.0637997)
(-0.0119797 0.261744 0.0561462)
(0.00452932 0.424189 0.0363001)
(0.0145987 0.635957 0.00715973)
(0.0113561 0.673359 0.00329331)
(0.00696669 0.596837 0.004624)
(0.00604101 -0.33385 -0.0285568)
(0.0242975 -0.5705 -0.00663895)
(0.0364058 -0.653473 0.00652625)
(0.0435678 -0.673477 0.00935414)
(0.0481299 -0.670046 0.00636416)
(0.050925 -0.649782 -0.0029295)
(0.0508967 -0.612374 -0.0195084)
(0.0479396 -0.562747 -0.0407318)
(0.0434903 -0.508689 -0.0625039)
(0.0389832 -0.455445 -0.0824822)
(0.0352227 -0.404751 -0.0997252)
(0.032511 -0.356792 -0.113202)
(0.0307669 -0.313263 -0.121422)
(0.0297253 -0.27687 -0.123618)
(0.0292223 -0.247226 -0.120239)
(0.0293092 -0.220103 -0.111515)
(0.0302924 -0.189139 -0.096999)
(0.0322912 -0.149235 -0.0783619)
(0.03438 -0.104213 -0.0611365)
(0.0357186 -0.0638828 -0.0488344)
(0.0367052 -0.0304232 -0.0391804)
(0.0385199 0.00324858 -0.0261518)
(0.0428993 0.048487 -0.00201901)
(0.0490728 0.103948 0.0287908)
(0.0532372 0.146435 0.0483621)
(0.0546892 0.165967 0.0527392)
(0.0553779 0.173022 0.0511536)
(0.056068 0.175033 0.0496191)
(0.0571272 0.175032 0.0495556)
(0.0548886 0.156835 0.0550209)
(0.0469775 0.0877485 0.0643912)
(0.0218011 0.0956675 0.073755)
(0.0131372 0.465134 0.0595981)
(0.00918388 0.664061 0.0415331)
(0.00405248 0.633773 0.027192)
(0.0104901 -0.448744 0.00401412)
(0.0250237 -0.644568 0.0292585)
(0.031132 -0.683325 0.0316766)
(0.032416 -0.681537 0.0271059)
(0.0311182 -0.658226 0.0151706)
(0.0265829 -0.609414 -0.00880484)
(0.0185091 -0.543647 -0.0413501)
(0.00935466 -0.479124 -0.0712131)
(0.00173246 -0.424615 -0.0928423)
(-0.00344281 -0.379421 -0.107673)
(-0.00625047 -0.340737 -0.1184)
(-0.0069767 -0.306854 -0.126182)
(-0.00597834 -0.276902 -0.130919)
(-0.0038669 -0.250141 -0.132361)
(-0.00133031 -0.225489 -0.130504)
(0.00121073 -0.201141 -0.12514)
(0.0036853 -0.174305 -0.115344)
(0.00638224 -0.141449 -0.100321)
(0.0095256 -0.102021 -0.0826402)
(0.0124703 -0.063372 -0.0674466)
(0.014573 -0.0320727 -0.0558976)
(0.0156458 -0.00550545 -0.0446043)
(0.0166438 0.0240395 -0.0272325)
(0.0197112 0.0660595 0.0054064)
(0.0240117 0.115142 0.0487301)
(0.0259745 0.146908 0.0822825)
(0.0241862 0.146573 0.0941832)
(0.0215998 0.133098 0.0883072)
(0.0189726 0.160596 0.0652282)
(0.017511 0.289383 0.0239301)
(0.017648 0.479241 -0.0162293)
(-0.00213372 0.61777 -0.0248255)
(-0.0176199 0.679894 0.00400315)
(-0.0163934 0.727969 0.00951438)
(-0.00900405 0.644323 0.00276873)
(0.00484311 -0.549012 0.0415529)
(0.00183821 -0.672589 0.0499985)
(-0.00171652 -0.67579 0.0446875)
(-0.0065532 -0.652844 0.0339533)
(-0.0131125 -0.597792 0.00928575)
(-0.019527 -0.514198 -0.0320295)
(-0.0250242 -0.435513 -0.0740737)
(-0.0285365 -0.38221 -0.100907)
(-0.0299036 -0.348216 -0.113933)
(-0.0298182 -0.322867 -0.119938)
(-0.0287094 -0.300399 -0.12281)
(-0.0268322 -0.278499 -0.124216)
(-0.0244954 -0.256307 -0.124776)
(-0.0220372 -0.233401 -0.124493)
(-0.0197724 -0.209434 -0.122986)
(-0.017955 -0.18398 -0.119675)
(-0.0166835 -0.156356 -0.113874)
(-0.0157789 -0.125532 -0.104977)
(-0.0147569 -0.090682 -0.0932092)
(-0.0132117 -0.0532704 -0.0805799)
(-0.0112581 -0.0176421 -0.0692867)
(-0.00907954 0.0140293 -0.0590606)
(-0.0075718 0.0446841 -0.0471145)
(-0.00693539 0.0796926 -0.0287066)
(-0.00635708 0.123507 0.000395182)
(-0.00653261 0.169637 0.0339518)
(-0.0100876 0.203401 0.0580213)
(-0.0176997 0.223723 0.0708201)
(-0.0281854 0.237916 0.0787275)
(-0.0356859 0.245402 0.0848974)
(-0.0292738 0.281833 0.080123)
(-0.00216828 0.435489 0.0515202)
(0.0114897 0.674394 0.00303098)
(0.0085486 0.703735 -0.0056018)
(0.00576966 0.592007 -0.00597478)
(-0.00828789 -0.496245 0.0557247)
(-0.0212547 -0.60608 0.0594308)
(-0.0295039 -0.612159 0.0560662)
(-0.0362462 -0.589669 0.0478021)
(-0.0401575 -0.538041 0.0302367)
(-0.0362373 -0.471472 0.00435098)
(-0.0274839 -0.413638 -0.0214355)
(-0.0184536 -0.369934 -0.0421792)
(-0.0111954 -0.336615 -0.0585615)
(-0.00615531 -0.310305 -0.0713107)
(-0.00285726 -0.287907 -0.0809012)
(-0.000558198 -0.266927 -0.0878761)
(0.00133516 -0.245817 -0.0927797)
(0.00316397 -0.223855 -0.0960665)
(0.00510364 -0.200761 -0.0980464)
(0.00726343 -0.176462 -0.0988795)
(0.00975195 -0.151168 -0.0986329)
(0.0126921 -0.125404 -0.0973447)
(0.0162071 -0.099606 -0.0950151)
(0.0203653 -0.0737322 -0.0916448)
(0.0249975 -0.0476523 -0.0874015)
(0.029629 -0.0215975 -0.0824881)
(0.0338411 0.00426448 -0.0766781)
(0.0377108 0.0302513 -0.0692806)
(0.04117 0.0576366 -0.0585958)
(0.0441279 0.0873309 -0.0426939)
(0.0464378 0.117764 -0.0214742)
(0.0468181 0.143579 0.00272541)
(0.0463419 0.161417 0.0233087)
(0.0399165 0.18501 0.0408107)
(0.0331608 0.173744 0.0462151)
(0.0106845 0.189606 0.0576087)
(0.010712 0.554245 0.0475132)
(0.00971285 0.694543 0.0288106)
(0.00438915 0.630092 0.0188255)
(-0.0105329 -0.404139 0.0382317)
(-0.0205323 -0.56768 0.0351721)
(-0.0263467 -0.599224 0.0372888)
(-0.028359 -0.606636 0.0426216)
(-0.0271867 -0.601172 0.0508563)
(-0.0214258 -0.576314 0.0585848)
(-0.0112111 -0.525054 0.0592411)
(0.000539585 -0.454515 0.049486)
(0.0107954 -0.381957 0.031707)
(0.0174203 -0.321023 0.010666)
(0.0199614 -0.275226 -0.00931982)
(0.0195687 -0.241068 -0.026028)
(0.0176998 -0.21362 -0.0391036)
(0.0154615 -0.189488 -0.0490043)
(0.0135679 -0.166946 -0.0563735)
(0.0123822 -0.145094 -0.0618081)
(0.012027 -0.123238 -0.0657442)
(0.0124944 -0.100833 -0.0684167)
(0.0136736 -0.0776527 -0.0698795)
(0.0153722 -0.0536809 -0.0699998)
(0.0173581 -0.0285261 -0.0683678)
(0.0193986 -0.000695714 -0.0639514)
(0.0213481 0.0327464 -0.0543567)
(0.0230185 0.0754754 -0.0350835)
(0.0238229 0.127801 -0.00161712)
(0.0233685 0.178732 0.0392255)
(0.022324 0.212888 0.0634566)
(0.0237087 0.237095 0.0554246)
(0.0283541 0.281135 0.0263088)
(0.0343665 0.372922 -0.00772555)
(0.0361264 0.479815 -0.0285106)
(0.00651431 0.556865 -0.0124613)
(-0.00981529 0.700267 0.0217237)
(-0.00908002 0.762932 0.0201406)
(-0.00574384 0.676772 0.0109629)
(-0.00341104 -0.378004 0.0209099)
(-0.00552225 -0.569358 0.0125159)
(-0.00774694 -0.624473 0.0121462)
(-0.00874199 -0.646524 0.015511)
(-0.00925776 -0.655372 0.0217878)
(-0.00905945 -0.652242 0.0313622)
(-0.00679667 -0.629806 0.0445668)
(-0.000525191 -0.575033 0.057937)
(0.00947135 -0.489543 0.064065)
(0.0205345 -0.393554 0.0586568)
(0.0293661 -0.308506 0.0436312)
(0.0343528 -0.245095 0.0246476)
(0.0358882 -0.202243 0.00671938)
(0.0352138 -0.173233 -0.00799515)
(0.0335133 -0.151656 -0.0194764)
(0.0316101 -0.133338 -0.0284658)
(0.029896 -0.115852 -0.0357445)
(0.0284568 -0.0977296 -0.0419565)
(0.0271796 -0.0781071 -0.0476101)
(0.02582 -0.0566984 -0.0530976)
(0.0240945 -0.033793 -0.0586486)
(0.0217419 -0.00981111 -0.0640962)
(0.018667 0.0159252 -0.0674711)
(0.0151122 0.0445797 -0.0647026)
(0.0114031 0.0766701 -0.0495005)
(0.00729155 0.107433 -0.0163993)
(0.00126971 0.122163 0.0328244)
(-0.008738 0.114646 0.0879843)
(-0.0206908 0.125721 0.121838)
(-0.0268207 0.211362 0.110836)
(-0.0171224 0.383835 0.0630814)
(-0.00877989 0.588611 0.0267701)
(-0.00760482 0.70999 0.0150284)
(-0.00541835 0.728716 0.0119961)
(-0.00120203 0.605115 0.00752029)
(-0.00255224 -0.379155 0.0121698)
(-0.00501013 -0.571765 -0.00137633)
(-0.00771024 -0.622608 -0.0092395)
(-0.0102759 -0.6377 -0.0140424)
(-0.0130953 -0.639899 -0.0169881)
(-0.0160187 -0.634857 -0.0172337)
(-0.0184398 -0.62432 -0.0128516)
(-0.0191474 -0.603541 -0.00132709)
(-0.0155596 -0.558293 0.0170644)
(-0.00629572 -0.481475 0.0352034)
(0.00654711 -0.386224 0.0452142)
(0.0194082 -0.293055 0.0446926)
(0.0292479 -0.217119 0.0362932)
(0.0346019 -0.163343 0.0247995)
(0.0358557 -0.127543 0.0140107)
(0.0344268 -0.102072 0.00547313)
(0.0316555 -0.0806702 -0.000647085)
(0.028465 -0.0593702 -0.00449389)
(0.0253858 -0.0354637 -0.00614037)
(0.0224887 -0.00666351 -0.00553697)
(0.0197046 0.0281809 -0.00279784)
(0.0169523 0.0662012 0.000206029)
(0.0140727 0.10403 0.00074361)
(0.0111227 0.141574 -0.0039492)
(0.0085997 0.181255 -0.0138215)
(0.00704098 0.225483 -0.0251871)
(0.0059069 0.272753 -0.0346193)
(0.00093277 0.298226 -0.0332594)
(-0.00973509 0.29749 -0.0138291)
(-0.0226353 0.291634 0.0166301)
(-0.0289047 0.310939 0.0394246)
(-0.0153898 0.407302 0.0576482)
(0.000532435 0.644269 0.0455181)
(0.00491526 0.67836 0.0293143)
(0.00402315 0.57963 0.0216576)
(-0.00161664 -0.369382 0.00461883)
(-0.00252187 -0.568178 -0.00744281)
(-0.00235876 -0.624986 -0.0120073)
(-0.00159664 -0.643861 -0.0144097)
(-0.000424305 -0.648914 -0.0164621)
(0.000894855 -0.645496 -0.0187511)
(0.00195249 -0.635861 -0.021298)
(0.00251147 -0.622093 -0.023123)
(0.00285494 -0.603267 -0.0212613)
(0.00457379 -0.569458 -0.0114614)
(0.0101003 -0.507715 0.00592582)
(0.0197075 -0.419626 0.0239335)
(0.0314713 -0.3186 0.03569)
(0.0423204 -0.221902 0.0379383)
(0.0493175 -0.144794 0.0319116)
(0.0514723 -0.0928158 0.0221687)
(0.0500862 -0.0601967 0.0128938)
(0.0470571 -0.0379811 0.00568057)
(0.0438304 -0.019585 0.000583988)
(0.0415718 -0.000677022 -0.00256873)
(0.0405935 0.0221257 -0.00370051)
(0.040748 0.0508025 -0.00250851)
(0.0418519 0.0835051 0.000960081)
(0.0432436 0.115073 0.00611576)
(0.0452029 0.143242 0.0123714)
(0.0476545 0.16793 0.0196897)
(0.0524272 0.182063 0.0339349)
(0.0625785 0.232782 0.0352724)
(0.0715966 0.302852 0.00941893)
(0.0666445 0.34279 -0.00892642)
(0.0556955 0.35681 -0.0195573)
(0.0455487 0.346556 -0.0178767)
(0.0346235 0.558634 0.0366989)
(0.0283609 0.707773 0.0551172)
(0.0147351 0.651575 0.0481182)
(-0.00139489 -0.371675 -0.00539668)
(0.00102236 -0.585503 -0.0144121)
(0.00502831 -0.653816 -0.0152734)
(0.00952534 -0.67823 -0.0150043)
(0.0143499 -0.685448 -0.0149253)
(0.0194406 -0.681191 -0.0155355)
(0.0245666 -0.6661 -0.017403)
(0.0293855 -0.640406 -0.0212366)
(0.0332716 -0.607426 -0.0272754)
(0.035786 -0.573657 -0.0336918)
(0.0375494 -0.540665 -0.0359971)