/*--------------------------------*- C++ -*----------------------------------*\
| =========                 |                                                 |
| \\      /  F ield         | OpenFOAM: The Open Source CFD Toolbox           |
|  \\    /   O peration     | Version:  v2006                                 |
|   \\  /    A nd           | Website:  www.openfoam.com                      |
|    \\/     M anipulation  |                                                 |
\*---------------------------------------------------------------------------*/
FoamFile
{
    version     2.0;
    format      ascii;
    class       volScalarField;
    location    "30";
    object      alphat;
}
// * * * * * * * * * * * * * * * * * * * * * * * * * * * * * * * * * * * * * //

dimensions      [1 -1 -1 0 0 0 0];


internalField   nonuniform List<scalar> 
78750
(
0.000777693
0.00161326
0.00103569
0.000133534
2.77528e-05
0.000103054
4.47389e-05
8.67263e-05
6.59215e-05
8.0267e-05
8.0437e-05
8.4277e-05
8.77827e-05
9.08359e-05
9.37837e-05
9.64864e-05
9.89196e-05
0.000100998
0.000102627
0.000103782
0.000104453
0.000104642
0.000104393
0.00010378
0.000102865
0.000101688
0.000100225
9.82918e-05
9.54542e-05
9.07967e-05
8.24149e-05
6.63245e-05
4.41405e-05
3.01094e-05
2.82689e-06
8.2492e-05
1.07332e-05
8.2557e-06
7.76175e-05
0.000131874
0.000128842
0.000155572
0.00017007
0.000188464
0.000201654
0.000214096
0.000225516
0.000236004
0.000246048
0.000255817
0.000265477
0.000275305
0.000285432
0.000295303
0.000304183
0.000311243
0.000315389
0.000315626
0.000311191
0.000301583
0.000286756
0.00026712
0.000243494
0.000216769
0.000186689
0.000151391
0.000108974
6.33028e-05
3.12146e-05
2.14514e-06
3.58272e-06
7.2857e-05
0.000112846
0.000110522
0.000118069
0.000131462
0.000143894
0.000154398
0.000163307
0.000171529
0.000179713
0.000188557
0.000198893
0.000211642
0.000227833
0.000248443
0.000273851
0.000303383
0.000335852
0.000368951
0.000387626
0.000386746
0.000383946
0.000379355
0.000373262
0.00036608
0.000358278
0.000350322
0.000342613
0.000273999
0.00018033
0.000102708
5.49345e-05
3.40369e-05
3.33658e-06
1.65647e-06
6.38785e-05
0.00013648
0.000190309
0.000204821
0.000203001
0.000202534
0.000205214
0.000209626
0.000215612
0.000223737
0.000234763
0.000249553
0.000269068
0.000294003
0.000323281
0.000350423
0.00035583
0.000360734
0.000364841
0.000367907
0.000369749
0.000362817
0.00033237
0.000303172
0.000280076
0.000259623
0.000234803
0.000203908
0.000167999
0.000126008
7.90557e-05
4.40487e-05
3.18661e-05
3.76258e-06
1.53209e-06
6.00573e-05
0.000134557
0.000181321
0.00020915
0.000226988
0.000238933
0.000247505
0.00025458
0.000261585
0.000269615
0.000279573
0.000292216
0.000307692
0.000321391
0.000325476
0.000329889
0.000334573
0.000339433
0.000344317
0.000349026
0.000353323
0.000356936
0.00035956
0.000360873
0.000348536
0.000321425
0.000283072
0.000232826
0.000173199
0.000113254
6.60433e-05
3.97259e-05
3.86934e-05
4.54702e-06
1.41831e-06
6.71405e-05
0.000129461
0.000153333
0.000163985
0.000170853
0.00017588
0.000180535
0.00018623
0.000193858
0.000203538
0.000215193
0.000228431
0.000242448
0.000256096
0.000268277
0.00027811
0.000285083
0.000289286
0.000291301
0.000291755
0.000290631
0.000287019
0.00027984
0.000268978
0.0002555
0.000240509
0.000224123
0.000205228
0.000180444
0.000141887
8.83081e-05
4.94429e-05
4.31539e-05
5.10648e-06
2.24792e-06
8.97966e-05
0.000129761
0.000135479
0.000130251
0.000122349
0.000115218
0.000109421
0.000105086
0.000102456
0.00010153
0.000102315
0.000104818
0.000108858
0.00011424
0.00012098
0.000129318
0.000139775
0.000153423
0.000172024
0.000197425
0.000230004
0.000265795
0.000296378
0.000313435
0.00031143
0.000287936
0.000247498
0.000201146
0.0001563
0.000114919
7.80274e-05
5.58967e-05
6.50441e-05
6.39188e-06
2.4022e-06
5.7411e-05
6.61041e-05
6.20438e-05
6.2849e-05
6.57558e-05
6.84665e-05
6.97069e-05
6.94299e-05
6.84324e-05
6.77267e-05
6.78043e-05
6.90315e-05
7.15916e-05
7.53262e-05
7.98149e-05
8.42283e-05
8.77077e-05
8.9881e-05
9.10195e-05
9.18039e-05
9.29213e-05
9.48655e-05
9.77628e-05
0.000101526
0.000108802
0.000126797
0.000154704
0.000164903
0.000132745
8.17109e-05
4.77077e-05
4.04956e-05
7.74942e-05
6.88195e-06
1.29229e-06
2.76579e-05
4.27466e-05
5.85216e-05
7.51975e-05
8.91809e-05
9.78429e-05
0.000100904
9.95333e-05
9.54308e-05
9.04859e-05
8.63238e-05
8.41723e-05
8.44074e-05
8.67335e-05
9.04863e-05
9.51042e-05
0.000100538
0.000106272
0.000111077
0.000113848
0.000113994
0.000111323
0.000106561
0.000100655
9.33921e-05
8.75814e-05
9.2645e-05
0.00011546
0.000144308
0.000132779
8.74519e-05
6.97911e-05
9.4961e-05
6.98716e-06
2.27484e-06
2.77027e-05
6.2068e-05
0.000113812
0.000152931
0.000163311
0.000156942
0.000143003
0.000125856
0.00010842
9.34579e-05
8.30535e-05
7.79389e-05
7.80931e-05
8.56187e-05
0.000107973
0.00015358
0.00020779
0.000228879
0.000210758
0.000178023
0.000149598
0.000130346
0.000117914
0.000108988
0.000101589
9.27366e-05
8.4383e-05
8.55615e-05
9.43456e-05
9.13857e-05
6.94295e-05
6.19166e-05
9.3777e-05
7.69282e-06
1.69713e-06
1.8588e-05
5.11343e-05
0.000113757
0.000145139
0.000139876
0.000129369
0.00012044
0.000112754
0.000104207
9.30385e-05
8.0447e-05
7.04444e-05
6.55318e-05
6.51974e-05
6.79732e-05
7.32964e-05
8.38561e-05
0.000104159
0.000131199
0.000147844
0.000141719
0.000120849
9.91211e-05
8.27253e-05
7.33583e-05
7.23735e-05
7.45323e-05
7.41012e-05
8.26386e-05
9.74409e-05
9.27331e-05
8.70682e-05
9.90262e-05
8.62348e-06
8.35384e-06
4.62866e-05
0.000111096
8.8428e-05
8.0549e-05
8.42622e-05
9.15279e-05
9.77944e-05
0.000100999
0.000102878
0.000108214
0.000120204
0.000134028
0.000136583
0.000124229
0.000111369
0.000110332
0.000122872
0.000142155
0.000157263
0.000163591
0.000161176
0.000149796
0.000130718
0.00010752
8.51903e-05
6.92208e-05
6.12733e-05
5.80026e-05
5.774e-05
6.25313e-05
6.88571e-05
8.0827e-05
0.000101899
8.87547e-06
1.12391e-05
8.36557e-05
4.10424e-05
3.75922e-05
5.91587e-05
0.000100081
0.000129146
0.000132806
0.000124441
0.000114731
0.000109334
0.000110023
0.000114005
0.000114721
0.000109942
0.000107994
0.000119159
0.000143661
0.000166749
0.000178597
0.000183852
0.000184884
0.000176888
0.000155528
0.000122795
8.83496e-05
6.45768e-05
5.60878e-05
5.73749e-05
5.84213e-05
6.15428e-05
7.03204e-05
9.13718e-05
0.000100099
9.21244e-06
7.58392e-06
5.96431e-05
4.9846e-05
6.38649e-05
7.56713e-05
0.000103856
0.000164831
0.000189038
0.000164379
0.000135545
0.000115713
0.000103186
9.50824e-05
9.01403e-05
8.96155e-05
9.67448e-05
0.000112788
0.000131417
0.000143413
0.000149034
0.000153121
0.000156345
0.000154729
0.000143461
0.000120025
8.83036e-05
6.06046e-05
4.622e-05
4.53163e-05
5.22216e-05
6.22485e-05
7.80658e-05
0.00010613
9.09519e-05
9.29439e-06
6.75947e-06
3.5252e-05
9.40136e-05
6.09655e-05
1.89088e-05
1.36833e-05
2.73385e-05
6.5561e-05
0.000123121
0.000163284
0.000176246
0.000174076
0.000165273
0.000154673
0.000146593
0.000145472
0.000153387
0.000167399
0.000180411
0.000187012
0.00018692
0.000181888
0.000172142
0.000156415
0.000133542
0.000104335
7.42358e-05
5.22272e-05
4.39534e-05
4.87971e-05
6.29795e-05
8.5086e-05
0.00011413
8.26083e-05
9.05888e-06
7.75568e-06
3.59446e-05
8.62578e-05
8.07122e-05
3.15623e-05
8.14611e-06
5.22555e-06
1.98618e-05
6.31454e-05
0.000133675
0.000192627
0.00021929
0.000222717
0.000213621
0.000200297
0.000188436
0.000180544
0.000176457
0.000174642
0.00017341
0.000171369
0.000167298
0.000160112
0.000149156
0.000134129
0.000114882
9.18137e-05
6.75417e-05
4.90256e-05
4.32726e-05
5.21956e-05
7.57498e-05
0.000109153
8.2437e-05
9.01891e-06
8.07154e-06
5.21102e-05
0.000104911
0.000106588
8.16757e-05
3.64546e-05
6.88143e-06
8.31155e-07
1.05717e-05
4.09742e-05
8.98349e-05
0.000135413
0.000164077
0.000182314
0.000194815
0.00020061
0.000199911
0.000195893
0.000190727
0.000184588
0.000177051
0.000168109
0.000158018
0.000146924
0.000135044
0.000122127
0.000107028
8.83259e-05
6.60593e-05
4.73147e-05
4.27279e-05
5.65549e-05
9.01463e-05
8.56489e-05
9.148e-06
7.82999e-06
4.84204e-05
0.000146507
0.000167341
0.000154757
0.000159097
6.81744e-05
1.84368e-05
6.84169e-06
7.9967e-06
1.78393e-05
4.03677e-05
7.55066e-05
0.000104054
0.00011392
0.000124202
0.000141228
0.000156095
0.000161477
0.000160051
0.000156727
0.000152879
0.000147908
0.000141176
0.00013262
0.0001228
0.000111736
9.8009e-05
7.92213e-05
5.54955e-05
3.93183e-05
4.24072e-05
6.93095e-05
8.87452e-05
9.44146e-06
6.63347e-06
3.63218e-05
0.000103006
0.000160073
0.000180106
0.000180856
0.00017819
0.000128275
5.48461e-05
2.71244e-05
1.74177e-05
1.28808e-05
1.42305e-05
2.85985e-05
6.9051e-05
0.00011546
0.000135206
0.000131892
0.000132784
0.000141064
0.000147733
0.000148057
0.00014337
0.000136456
0.00012844
0.00011927
0.000108787
9.61356e-05
7.93479e-05
5.79501e-05
4.09815e-05
4.17603e-05
6.81382e-05
8.96611e-05
9.82328e-06
5.1839e-06
2.77305e-05
7.02204e-05
0.000133651
0.000171974
0.000162259
0.000127252
0.000109036
0.000116556
0.000120533
8.82224e-05
5.11324e-05
2.74243e-05
1.2619e-05
5.79294e-06
9.56318e-06
3.42078e-05
7.74399e-05
0.000122563
0.000157308
0.000173928
0.000175087
0.000165749
0.000150339
0.000133162
0.000117093
0.000102847
8.93862e-05
7.46009e-05
5.81254e-05
4.61771e-05
4.97672e-05
7.92266e-05
8.69609e-05
1.00206e-05
7.70313e-06
3.13655e-05
8.24731e-05
0.000134211
0.000146144
0.00013629
0.000118585
9.485e-05
6.67732e-05
4.88635e-05
4.66736e-05
5.94366e-05
8.67803e-05
0.000118782
6.91252e-05
2.84561e-05
1.99019e-05
3.12953e-05
5.78686e-05
8.38504e-05
0.000105618
0.000121955
0.000132598
0.000136638
0.000133126
0.000122885
0.000108474
9.27389e-05
7.69908e-05
6.2591e-05
5.47022e-05
6.22023e-05
9.37318e-05
8.21698e-05
1.00451e-05
9.17297e-06
3.35896e-05
8.63119e-05
0.000142911
0.000154015
0.000128885
9.57222e-05
7.67277e-05
7.40875e-05
8.23398e-05
8.88328e-05
7.28849e-05
4.86785e-05
4.15769e-05
5.15777e-05
3.13071e-05
1.18316e-05
1.14524e-05
3.8092e-05
7.27684e-05
0.000108704
0.000147921
0.000172783
0.000176939
0.00016511
0.000144331
0.000121521
0.000101056
8.43147e-05
7.2278e-05
6.88291e-05
8.12352e-05
0.000113112
7.67486e-05
1.01265e-05
1.05963e-05
4.22736e-05
0.00012917
0.000151964
0.000106572
6.43825e-05
4.52852e-05
3.90753e-05
3.65552e-05
3.55835e-05
4.26536e-05
6.78541e-05
0.000107779
0.000109708
7.39212e-05
4.36835e-05
2.64818e-05
2.59114e-05
5.38841e-05
9.65786e-05
0.000129729
0.00016046
0.000179462
0.00018013
0.000165877
0.000144053
0.000121827
0.00010345
9.01711e-05
8.28098e-05
8.4522e-05
0.000100572
0.000127236
7.00484e-05
1.011e-05
1.0965e-05
4.58541e-05
0.00015339
0.000141411
6.75553e-05
3.76099e-05
3.11873e-05
3.70572e-05
5.3204e-05
7.03993e-05
7.09622e-05
7.23684e-05
9.43195e-05
0.00011936
7.9251e-05
2.54379e-05
1.13211e-05
1.83799e-05
7.1317e-05
0.000120018
0.000143288
0.000165375
0.000181962
0.000185516
0.000174984
0.000154798
0.0001321
0.000112944
0.00010014
9.48853e-05
9.92779e-05
0.000115407
0.000133763
6.50669e-05
1.00332e-05
1.03388e-05
5.4085e-05
0.000155273
6.94244e-05
2.76179e-05
1.54939e-05
1.43318e-05
1.86216e-05
2.58422e-05
3.67902e-05
4.56036e-05
4.51608e-05
4.27608e-05
4.12428e-05
3.92274e-05
3.96267e-05
5.7274e-05
0.000119504
0.000158306
0.000166326
0.000176549
0.000185679
0.00018908
0.000185009
0.000173544
0.000156726
0.000138318
0.000122358
0.000111728
0.000108297
0.000113821
0.000128102
0.000137794
6.20394e-05
1.00166e-05
9.69866e-06
5.05858e-05
0.000131123
6.50341e-05
2.89449e-05
1.65924e-05
1.32332e-05
1.31528e-05
1.63924e-05
2.63943e-05
3.87169e-05
4.60973e-05
5.17872e-05
5.85288e-05
6.80784e-05
8.2797e-05
0.000105859
0.000129275
0.000144659
0.0001556
0.000163067
0.000166671
0.000166221
0.000161802
0.000153853
0.000143383
0.000132062
0.000122026
0.000115537
0.000114804
0.000121787
0.000135658
0.000141347
6.13217e-05
1.0008e-05
9.39263e-06
4.91833e-05
0.000129389
8.36081e-05
3.36482e-05
1.4442e-05
8.43454e-06
8.39997e-06
1.20711e-05
2.43714e-05
4.99298e-05
6.50956e-05
6.52683e-05
7.09373e-05
8.22211e-05
9.58806e-05
0.00011007
0.000122684
0.000132947
0.000141551
0.00014858
0.000153586
0.00015572
0.000154125
0.000148588
0.000140053
0.000130471
0.000122183
0.000117482
0.000118534
0.000127001
0.000140894
0.000143033
5.96981e-05
9.80976e-06
9.47088e-06
4.43445e-05
0.000135305
0.000132991
7.64953e-05
3.14934e-05
1.39659e-05
8.78595e-06
8.58791e-06
8.19867e-06
1.33648e-05
3.36223e-05
6.24488e-05
8.18345e-05
9.66846e-05
0.000108903
0.000117445
0.000122326
0.000125114
0.000127566
0.000130504
0.000134072
0.000137873
0.000140813
0.000141462
0.000138595
0.000132304
0.000124783
0.000119562
0.00012008
0.000128311
0.000141294
0.000140415
5.68587e-05
9.46411e-06
9.34609e-06
4.31512e-05
0.000133816
0.00013717
8.81815e-05
4.575e-05
2.08786e-05
9.19741e-06
5.29569e-06
5.48669e-06
6.16501e-06
1.49335e-05
5.02503e-05
0.000101646
0.000124212
0.000132655
0.000136665
0.000137347
0.00013506
0.00013099
0.000126676
0.000123417
0.00012194
0.00012218
0.000123432
0.000124664
0.00012465
0.000122831
0.000120684
0.000121639
0.000128569
0.000139166
0.000135969
5.47978e-05
9.17506e-06
9.59465e-06
4.15929e-05
0.000128157
0.000149
0.0001137
6.57038e-05
3.47232e-05
1.74035e-05
8.43624e-06
5.5762e-06
5.77793e-06
6.51329e-06
1.50971e-05
4.47092e-05
9.06503e-05
0.000120551
0.0001339
0.00013916
0.000139985
0.000137711
0.000132885
0.000126364
0.000119565
0.000113888
0.000110149
0.000108558
0.000108716
0.000110054
0.000112429
0.000116689
0.000124509
0.000134592
0.000132959
5.55024e-05
9.12515e-06
9.50095e-06
4.18994e-05
0.000127934
0.000154509
0.000121965
7.24921e-05
3.92029e-05
2.19229e-05
1.14176e-05
5.24648e-06
3.75114e-06
4.66819e-06
8.22881e-06
2.76886e-05
8.15399e-05
0.000133889
0.000153345
0.000155587
0.00015108
0.000145026
0.000139395
0.000133633
0.00012657
0.000118134
0.000109548
0.000102437
9.79784e-05
9.67112e-05
9.88518e-05
0.000104688
0.00011462
0.000126991
0.000129716
5.752e-05
9.25595e-06
9.65704e-06
4.16555e-05
0.000129218
0.000162169
0.000141413
9.60279e-05
5.40039e-05
3.01543e-05
1.73962e-05
9.04763e-06
4.35878e-06
3.56747e-06
4.99052e-06
1.22247e-05
3.91196e-05
9.41458e-05
0.000142503
0.000162495
0.00016272
0.000153633
0.000143054
0.000134797
0.000128627
0.00012213
0.000113559
0.000103597
9.459e-05
8.87611e-05
8.7546e-05
9.2e-05
0.000102827
0.000118136
0.000125779
5.91827e-05
9.4242e-06
9.5729e-06
4.17373e-05
0.000130711
0.000166204
0.000141394
9.51037e-05
5.73013e-05
3.50227e-05
2.20163e-05
1.30094e-05
6.25553e-06
2.93081e-06
3.17869e-06
7.42391e-06
2.30812e-05
6.25975e-05
0.000114697
0.000152314
0.000168907
0.000167209
0.000154621
0.000139847
0.000128179
0.000120109
0.000112935
0.000104077
9.40109e-05
8.57349e-05
8.21636e-05
8.52631e-05
9.62667e-05
0.000113389
0.000123718
6.01478e-05
9.54118e-06
9.92416e-06
4.34772e-05
0.000136262
0.000172922
0.000152875
0.000107868
6.54551e-05
4.08164e-05
2.74407e-05
1.82745e-05
1.06238e-05
5.11092e-06
3.00043e-06
4.92312e-06
1.3542e-05
3.58249e-05
7.33204e-05
0.00011118
0.000138652
0.000152362
0.00015183
0.000141104
0.000127328
0.000115843
0.000107612
0.000100366
9.21794e-05
8.44567e-05
8.06628e-05
8.36899e-05
9.51642e-05
0.000113278
0.000124654
6.06665e-05
9.56657e-06
1.00175e-05
4.52944e-05
0.000142122
0.000174829
0.000148045
9.96624e-05
6.03021e-05
3.89225e-05
2.82249e-05
2.10196e-05
1.39472e-05
7.6668e-06
3.86105e-06
4.0122e-06
1.11751e-05
2.9835e-05
5.88805e-05
8.72627e-05
0.000109468
0.000124882
0.000131914
0.000129441
0.000119926
0.000108742
0.000100003
9.4163e-05
8.92838e-05
8.4554e-05
8.22255e-05
8.58487e-05
9.77845e-05
0.000115966
0.000125877
5.82498e-05
9.38822e-06
1.0385e-05
4.90647e-05
0.00015247
0.000177931
0.000150125
0.000102071
6.20655e-05
3.99615e-05
2.94627e-05
2.35198e-05
1.75589e-05
1.13805e-05
6.83284e-06
5.46233e-06
1.00229e-05
2.47431e-05
4.89958e-05
7.2321e-05
8.88938e-05
0.000100281
0.000107695
0.000110005
0.000106102
9.80104e-05
9.01705e-05
8.56453e-05
8.43402e-05
8.45118e-05
8.58567e-05
9.077e-05
0.000101929
0.000117553
0.000122566
5.24615e-05
9.01887e-06
1.03547e-05
5.1259e-05
0.000156339
0.000174746
0.000141681
9.29219e-05
5.62032e-05
3.6498e-05
2.74006e-05
2.30293e-05
1.87985e-05
1.35758e-05
9.29472e-06
7.7124e-06
1.17499e-05
2.63366e-05
5.04102e-05
7.13755e-05
8.26479e-05
8.76412e-05
9.03698e-05
9.20825e-05
9.15491e-05
8.74758e-05
8.14979e-05
7.73927e-05
7.76403e-05
8.19834e-05
8.85387e-05
9.63077e-05
0.000105949
0.000116238
0.000114669
4.69269e-05
8.68576e-06
1.04856e-05
5.38109e-05
0.000162873
0.00017678
0.000144199
9.74788e-05
6.01466e-05
3.8658e-05
2.84593e-05
2.42475e-05
2.11794e-05
1.68792e-05
1.28287e-05
1.09244e-05
1.32048e-05
2.38532e-05
4.47689e-05
6.67242e-05
7.85649e-05
8.10558e-05
7.95554e-05
7.79912e-05
7.76749e-05
7.73666e-05
7.5234e-05
7.20883e-05
7.12758e-05
7.53912e-05
8.43756e-05
9.56012e-05
0.000105948
0.0001131
0.00010835
4.43812e-05
8.57701e-06
1.0358e-05
5.46177e-05
0.000163219
0.000173657
0.000139251
9.37564e-05
5.83351e-05
3.72721e-05
2.66714e-05
2.24731e-05
2.07277e-05
1.84003e-05
1.59145e-05
1.51692e-05
1.77612e-05
2.65846e-05
4.38404e-05
6.44198e-05
7.77651e-05
8.04395e-05
7.62662e-05
7.03196e-05
6.63147e-05
6.55921e-05
6.69301e-05
6.7805e-05
6.77675e-05
6.96312e-05
7.62582e-05
8.7814e-05
0.000101115
0.00011096
0.000107396
4.38757e-05
8.61147e-06
1.03952e-05
5.55946e-05
0.000166426
0.000176614
0.000144559
0.000101483
6.51489e-05
4.14317e-05
2.84409e-05
2.28274e-05
2.1018e-05
1.96923e-05
1.82955e-05
1.8469e-05
2.16629e-05
2.98023e-05
4.4487e-05
6.34183e-05
7.91447e-05
8.52977e-05
8.16865e-05
7.24466e-05
6.2868e-05
5.68929e-05
5.589e-05
5.86881e-05
6.24082e-05
6.55222e-05
7.03071e-05
8.01675e-05
9.56853e-05
0.00011116
0.000110276
4.28486e-05
8.55388e-06
1.02804e-05
5.5696e-05
0.000165765
0.00017452
0.000141813
0.000100405
6.61139e-05
4.24641e-05
2.81335e-05
2.11183e-05
1.89239e-05
1.87701e-05
1.9449e-05
2.19414e-05
2.74364e-05
3.70079e-05
5.0763e-05
6.6984e-05
8.22249e-05
9.18443e-05
9.21934e-05
8.33973e-05
6.97027e-05
5.71064e-05
4.97454e-05
4.86231e-05
5.24786e-05
5.87065e-05
6.58206e-05
7.61381e-05
9.29395e-05
0.000112506
0.000112765
4.09041e-05
8.37931e-06
1.02498e-05
5.54452e-05
0.000166803
0.00017658
0.000145838
0.000106808
7.32289e-05
4.81219e-05
3.11761e-05
2.15945e-05
1.74572e-05
1.65997e-05
1.79869e-05
2.20494e-05
2.97771e-05
4.22794e-05
5.84266e-05
7.43439e-05
8.73458e-05
9.67374e-05
0.000100687
9.66073e-05
8.42792e-05
6.78231e-05
5.35656e-05
4.54966e-05
4.42588e-05
4.88691e-05
5.7898e-05
7.09802e-05
8.96038e-05
0.000110798
0.000111538
3.93063e-05
8.22449e-06
1.01564e-05
5.46975e-05
0.000164408
0.000174574
0.000143683
0.000106297
7.55101e-05
5.18444e-05
3.40086e-05
2.2309e-05
1.59953e-05
1.35246e-05
1.48422e-05
2.06853e-05
3.09241e-05
4.53727e-05
6.25221e-05
7.85921e-05
9.06866e-05
9.89019e-05
0.000103746
0.000104002
9.75311e-05
8.39187e-05
6.67642e-05
5.20421e-05
4.36166e-05
4.23013e-05
4.7886e-05
6.0461e-05
8.0322e-05
0.000103668
0.000108775
3.91037e-05
8.21233e-06
1.00568e-05
5.29874e-05
0.00016293
0.000174214
0.000143687
0.000107574
7.91973e-05
5.73699e-05
3.91164e-05
2.52822e-05
1.6496e-05
1.1566e-05
1.07764e-05
1.64278e-05
2.93508e-05
4.8867e-05
7.04492e-05
8.7768e-05
9.84912e-05
0.000104492
0.000107849
0.000108938
0.000106496
9.85694e-05
8.4501e-05
6.71452e-05
5.20137e-05
4.32212e-05
4.22077e-05
4.97735e-05
6.73544e-05
9.31054e-05
0.000106301
3.99958e-05
8.30191e-06
9.9888e-06
5.08903e-05
0.000156979
0.000171906
0.00014202
0.00010652
8.06533e-05
6.23179e-05
4.56616e-05
3.02451e-05
1.87738e-05
1.12295e-05
7.57618e-06
1.10129e-05
2.42344e-05
4.70461e-05
7.31938e-05
9.33853e-05
0.000104539
0.000109412
0.000111336
0.000111915
0.000111036
0.000107284
9.86541e-05
8.42117e-05
6.6436e-05
5.10104e-05
4.27229e-05
4.37704e-05
5.6283e-05
8.20991e-05
0.000104439
4.1499e-05
8.42553e-06
9.8814e-06
4.8288e-05
0.000151404
0.000167592
0.000137271
0.000100942
7.63645e-05
6.2108e-05
5.07255e-05
3.75465e-05
2.45544e-05
1.44316e-05
7.0244e-06
5.25614e-06
1.54252e-05
4.01889e-05
7.58042e-05
0.000104609
0.000117786
0.000120558
0.000119068
0.000116516
0.000113962
0.000110957
0.000105738
9.58171e-05
8.00266e-05
6.16359e-05
4.76292e-05
4.31752e-05
5.1265e-05
7.55423e-05
0.000103457
4.26748e-05
8.49646e-06
9.84961e-06
4.58253e-05
0.000142273
0.000164663
0.000138939
0.0001029
7.69603e-05
6.28116e-05
5.35108e-05
4.28936e-05
3.05311e-05
1.96038e-05
1.05264e-05
3.83539e-06
6.12252e-06
2.48485e-05
6.25966e-05
0.00010319
0.000125188
0.000130162
0.000126825
0.000120651
0.000114337
0.000108928
0.000103922
9.70487e-05
8.53114e-05
6.86914e-05
5.31486e-05
4.60387e-05
5.19949e-05
7.54405e-05
0.000104502
4.28658e-05
8.46855e-06
9.74582e-06
4.37045e-05
0.000136077
0.000160543
0.000136023
9.88602e-05
7.18432e-05
5.88951e-05
5.38865e-05
4.89788e-05
3.88941e-05
2.6592e-05
1.61137e-05
6.84638e-06
1.39811e-06
9.78121e-06
3.9325e-05
9.05644e-05
0.000129547
0.000141606
0.00013825
0.000128464
0.000116863
0.000106081
9.7411e-05
9.03289e-05
8.21418e-05
7.04121e-05
5.7856e-05
5.14939e-05
5.76171e-05
8.0964e-05
0.000106655
4.18162e-05
8.32975e-06
9.82263e-06
4.32329e-05
0.000132974
0.000162146
0.00014364
0.000107988
7.66532e-05
5.92862e-05
5.22125e-05
4.89165e-05
4.33289e-05
3.35575e-05
2.3037e-05
1.33803e-05
4.13771e-06
1.36246e-06
1.67026e-05
5.73233e-05
0.000111582
0.00014068
0.0001443
0.000135169
0.000120469
0.000104592
9.07247e-05
8.06299e-05
7.3738e-05
6.74503e-05
6.08566e-05
5.81274e-05
6.59637e-05
8.85804e-05
0.000107733
4.03432e-05
8.15416e-06
9.7728e-06
4.32681e-05
0.000135028
0.000166189
0.000146881
0.000109859
7.73063e-05
5.91309e-05
5.23824e-05
5.11797e-05
4.88061e-05
4.09096e-05
3.00801e-05
2.0146e-05
1.04047e-05
1.82356e-06
3.32025e-06
2.63746e-05
7.67187e-05
0.000126079
0.000144814
0.000141848
0.000127856
0.000109034
9.03045e-05
7.55623e-05
6.66006e-05
6.2528e-05
6.13229e-05
6.36502e-05
7.40176e-05
9.47138e-05
0.000106602
3.9095e-05
8.01739e-06
1.00184e-05
4.566e-05
0.000144347
0.00017685
0.000156556
0.000119191
8.48949e-05
6.31793e-05
5.31661e-05
5.06325e-05
5.02058e-05
4.62681e-05
3.73935e-05
2.74091e-05
1.81147e-05
8.11004e-06
1.29139e-06
8.13446e-06
3.85975e-05
9.19454e-05
0.000130715
0.000141002
0.000133486
0.00011631
9.54924e-05
7.66236e-05
6.37228e-05
5.80672e-05
5.87277e-05
6.48566e-05
7.77825e-05
9.69756e-05
0.000104277
3.8398e-05
7.9607e-06
1.00886e-05
4.78003e-05
0.000157061
0.000185459
0.000152231
0.000111318
8.28739e-05
6.59505e-05
5.73707e-05
5.49687e-05
5.51116e-05
5.26123e-05
4.49026e-05
3.48069e-05
2.54672e-05
1.59567e-05
6.08232e-06
2.49249e-06
1.56992e-05
5.32289e-05
0.000103812
0.000132272
0.000136186
0.000125083
0.000105613
8.41511e-05
6.67505e-05
5.70208e-05
5.57477e-05
6.24865e-05
7.69071e-05
9.60242e-05
0.000101871
3.79079e-05
7.95013e-06
1.05146e-05
5.19351e-05
0.000174944
0.000188156
0.000137349
9.85502e-05
7.94331e-05
6.86432e-05
6.15953e-05
5.87376e-05
5.8896e-05
5.78385e-05
5.19617e-05
4.24869e-05
3.30099e-05
2.40553e-05
1.39065e-05
5.41112e-06
6.62009e-06
2.69988e-05
6.93986e-05
0.000111368
0.000129671
0.000128052
0.000113993
9.35208e-05
7.33685e-05
5.93644e-05
5.43299e-05
5.89746e-05
7.32661e-05
9.34281e-05
0.000100139
3.74202e-05
7.94252e-06
1.07741e-05
5.51283e-05
0.000187879
0.000164815
0.000100746
7.4362e-05
6.93505e-05
7.03255e-05
7.03405e-05
6.97132e-05
6.95052e-05
6.74554e-05
6.08708e-05
5.0874e-05
4.08033e-05
3.1776e-05
2.21535e-05
1.18706e-05
6.56283e-06
1.41457e-05
4.19069e-05
8.48183e-05
0.000116143
0.000125693
0.000119063
0.000102254
8.17062e-05
6.45478e-05
5.57202e-05
5.73243e-05
7.02805e-05
9.13323e-05
9.90918e-05
3.67704e-05
7.90105e-06
1.1316e-05
6.10388e-05
0.00019353
0.000123089
7.06617e-05
5.9587e-05
6.55734e-05
7.44689e-05
7.88858e-05
7.97468e-05
7.92056e-05
7.61638e-05
6.89139e-05
5.86777e-05
4.84116e-05
3.92335e-05
2.99956e-05
1.95232e-05
1.10945e-05
1.08476e-05
2.57629e-05
5.85295e-05
9.48512e-05
0.000114569
0.000116489
0.000105905
8.82927e-05
7.06254e-05
5.93927e-05
5.83289e-05
6.94288e-05
9.04889e-05
9.89625e-05
3.63633e-05
7.83981e-06
1.15467e-05
6.79564e-05
0.000168655
7.87885e-05
4.90327e-05
5.09522e-05
6.79277e-05
8.66166e-05
9.66084e-05
9.80573e-05
9.45767e-05
8.75719e-05
7.74593e-05
6.59274e-05
5.52198e-05
4.58996e-05
3.66719e-05
2.64e-05
1.68124e-05
1.24248e-05
1.85781e-05
4.03055e-05
7.36947e-05
0.000100154
0.000109926
0.000105837
9.27923e-05
7.6917e-05
6.50601e-05
6.22941e-05
7.16035e-05
9.14909e-05
9.94164e-05
3.62723e-05
7.77126e-06
1.16763e-05
7.44354e-05
0.000134332
6.12149e-05
4.38171e-05
5.28795e-05
7.53062e-05
9.48377e-05
0.000103525
0.000104104
9.99419e-05
9.22817e-05
8.2006e-05
7.08401e-05
6.05862e-05
5.16086e-05
4.27264e-05
3.27347e-05
2.27629e-05
1.61657e-05
1.68039e-05
2.90115e-05
5.39552e-05
8.18558e-05
9.84175e-05
0.000101186
9.39934e-05
8.19502e-05
7.132e-05
6.78666e-05
7.54295e-05
9.3107e-05
9.99495e-05
3.65229e-05
7.70888e-06
1.12758e-05
7.06118e-05
0.000124685
6.3844e-05
4.54432e-05
4.97261e-05
6.59053e-05
8.57018e-05
0.000101149
0.000107793
0.000106071
9.84875e-05
8.77259e-05
7.62736e-05
6.58775e-05
5.67097e-05
4.76673e-05
3.77369e-05
2.76623e-05
2.01639e-05
1.79804e-05
2.42241e-05
4.14644e-05
6.65076e-05
8.68199e-05
9.50215e-05
9.30462e-05
8.52629e-05
7.7043e-05
7.39486e-05
8.01216e-05
9.49517e-05
9.96363e-05
3.66683e-05
7.6476e-06
1.09186e-05
5.91063e-05
0.000144396
0.000106406
6.25213e-05
4.58086e-05
4.53765e-05
5.53141e-05
7.27644e-05
9.07911e-05
0.000101194
0.000101538
9.43672e-05
8.37846e-05
7.31255e-05
6.35211e-05
5.41138e-05
4.37045e-05
3.28586e-05
2.42722e-05
2.02134e-05
2.24693e-05
3.33636e-05
5.31249e-05
7.44444e-05
8.73191e-05
9.0076e-05
8.6329e-05
8.08202e-05
7.86381e-05
8.37955e-05
9.58833e-05
9.842e-05
3.65708e-05
7.5822e-06
1.04138e-05
4.97787e-05
0.000133176
0.000142344
0.000100002
5.59894e-05
3.7226e-05
3.42298e-05
4.31977e-05
6.38211e-05
8.92611e-05
0.000105656
0.000106826
9.76986e-05
8.54685e-05
7.3816e-05
6.26368e-05
5.05404e-05
3.79799e-05
2.79841e-05
2.28127e-05
2.30971e-05
3.01586e-05
4.53401e-05
6.52516e-05
8.0685e-05
8.70019e-05
8.64095e-05
8.32883e-05
8.22323e-05
8.68718e-05
9.67457e-05
9.68719e-05
3.6091e-05
7.51848e-06
1.04053e-05
4.85392e-05
0.000135984
0.000164248
0.000150167
9.92919e-05
5.02281e-05
3.02099e-05
2.79252e-05
3.87096e-05
6.2132e-05
9.13192e-05
0.000110427
0.000111515
0.00010087
8.72491e-05
7.38743e-05
5.9716e-05
4.4583e-05
3.19603e-05
2.50674e-05
2.40416e-05
2.87208e-05
4.02132e-05
5.75897e-05
7.413e-05
8.34218e-05
8.56368e-05
8.46138e-05
8.46883e-05
8.9167e-05
9.74718e-05
9.54689e-05
3.53543e-05
7.45523e-06
1.04959e-05
5.15957e-05
0.000154186
0.000182115
0.000167052
0.000134712
7.75318e-05
3.69293e-05
2.42822e-05
2.82439e-05
4.64724e-05
7.7803e-05
0.000108975
0.000121812
0.000115201
0.00010042
8.47646e-05
6.85241e-05
5.10171e-05
3.56926e-05
2.68896e-05
2.5069e-05
2.88621e-05
3.8182e-05
5.29752e-05
6.90066e-05
8.00368e-05
8.45619e-05
8.54648e-05
8.67408e-05
9.13613e-05
9.85293e-05
9.41784e-05
3.44026e-05
7.4032e-06
1.09544e-05
5.72086e-05
0.000167055
0.000180521
0.00015133
0.0001163
8.17651e-05
4.58127e-05
2.66793e-05
2.57439e-05
4.00755e-05
6.8725e-05
0.000101849
0.000121072
0.0001199
0.000107179
9.16888e-05
7.51414e-05
5.67402e-05
3.93971e-05
2.83795e-05
2.53474e-05
2.86847e-05
3.68647e-05
4.95414e-05
6.43909e-05
7.63282e-05
8.28027e-05
8.56025e-05
8.81523e-05
9.3045e-05
9.92673e-05
9.25169e-05
3.32914e-05
7.33847e-06
1.11238e-05
6.11111e-05
0.000164002
0.000164509
0.000128994
9.18503e-05
6.53048e-05
4.47459e-05
2.95874e-05
2.71563e-05
4.07132e-05
6.9876e-05
0.000103022
0.000122074
0.000121793
0.000110359
9.57772e-05
7.9786e-05
6.14239e-05
4.29837e-05
3.00138e-05
2.54279e-05
2.82937e-05
3.62068e-05
4.75451e-05
6.09459e-05
7.2983e-05
8.0877e-05
8.53758e-05
8.91953e-05
9.44556e-05
9.9886e-05
9.07247e-05
3.22814e-05
7.2745e-06
1.1198e-05
6.50502e-05
0.000165381
0.000160732
0.000126051
8.85796e-05
6.06721e-05
4.21568e-05
3.05347e-05
2.85669e-05
4.12141e-05
6.95103e-05
0.000101071
0.000119272
0.000120166
0.000110784
9.798e-05
8.34139e-05
6.59829e-05
4.71392e-05
3.2263e-05
2.54624e-05
2.70161e-05
3.47892e-05
4.57257e-05
5.80078e-05
6.97929e-05
7.8886e-05
8.51388e-05
9.03654e-05
9.61085e-05
0.000100784
8.91926e-05
3.14466e-05
7.1929e-06
1.09914e-05
6.8411e-05
0.000170841
0.000161789
0.000127529
9.21475e-05
6.38629e-05
4.38168e-05
3.19679e-05
2.96317e-05
4.08975e-05
6.81327e-05
9.92513e-05
0.000117521
0.000119389
0.000111592
0.00010045
8.74862e-05
7.13617e-05
5.25459e-05
3.58219e-05
2.62739e-05
2.54746e-05
3.2388e-05
4.36633e-05
5.57255e-05
6.72413e-05
7.70982e-05
8.48556e-05
9.14907e-05
9.79535e-05
0.000102294
8.87999e-05
3.10026e-05
7.12197e-06
1.08944e-05
7.03583e-05
0.000175972
0.000167181
0.000134718
0.000100605
7.14112e-05
4.87385e-05
3.41728e-05
2.9288e-05
3.69201e-05
6.04051e-05
9.14945e-05
0.000112782
0.0001178
0.000112246
0.000102813
9.16415e-05
7.74031e-05
5.93963e-05
4.11673e-05
2.84587e-05
2.42737e-05
2.87862e-05
3.99399e-05
5.28796e-05
6.46726e-05
7.51736e-05
8.44869e-05
9.29196e-05
0.000100513
0.000104692
8.91439e-05
3.06733e-05
7.03471e-06
1.06844e-05
7.02157e-05
0.000173489
0.000166783
0.000138277
0.000108317
8.1619e-05
5.80508e-05
3.98229e-05
3.05652e-05
3.30431e-05
5.04966e-05
7.98742e-05
0.00010513
0.000114929
0.000112436
0.000104929
9.56805e-05
8.38035e-05
6.76096e-05
4.87933e-05
3.29458e-05
2.46785e-05
2.53125e-05
3.44089e-05
4.84077e-05
6.17629e-05
7.31045e-05
8.32381e-05
9.28041e-05
0.00010158
0.000106471
9.044e-05
3.05729e-05
6.97075e-06
1.05684e-05
6.97468e-05
0.000175345
0.000172712
0.000147462
0.000119597
9.43237e-05
7.07351e-05
4.92932e-05
3.44215e-05
3.01317e-05
3.90147e-05
6.21205e-05
8.98563e-05
0.000106815
0.000109709
0.000105095
9.80175e-05
8.89055e-05
7.57596e-05
5.81484e-05
4.01372e-05
2.75957e-05
2.3491e-05
2.83468e-05
4.09879e-05
5.61297e-05
6.91221e-05
8.04152e-05
9.13601e-05
0.000101618
0.000107427
9.07841e-05
3.02112e-05
6.88372e-06
1.03607e-05
6.89036e-05
0.000180839
0.000181615
0.000157073
0.0001309
0.000109062
8.87874e-05
6.66153e-05
4.54875e-05
3.25254e-05
3.15697e-05
4.42879e-05
6.86194e-05
9.21174e-05
0.000103108
0.000103221
9.87295e-05
9.22715e-05
8.26817e-05
6.80925e-05
4.99319e-05
3.37625e-05
2.46307e-05
2.4181e-05
3.25456e-05
4.75251e-05
6.3099e-05
7.61294e-05
8.77214e-05
9.86253e-05
0.00010573
9.10123e-05
2.99562e-05
6.83884e-06
1.02632e-05
6.65202e-05
0.000185445
0.000188598