/*--------------------------------*- C++ -*----------------------------------*\
| =========                 |                                                 |
| \\      /  F ield         | OpenFOAM: The Open Source CFD Toolbox           |
|  \\    /   O peration     | Version:  v2006                                 |
|   \\  /    A nd           | Website:  www.openfoam.com                      |
|    \\/     M anipulation  |                                                 |
\*---------------------------------------------------------------------------*/
FoamFile
{
    version     2.0;
    format      ascii;
    class       volScalarField;
    location    "30";
    object      k;
}
// * * * * * * * * * * * * * * * * * * * * * * * * * * * * * * * * * * * * * //

dimensions      [0 2 -2 0 0 0 0];


internalField   nonuniform List<scalar> 
78750
(
0.849067
0.244123
0.101545
0.0155728
0.00201366
0.00653588
0.00329111
0.00536014
0.00410816
0.00455659
0.00431355
0.00426716
0.00417842
0.00408845
0.00399403
0.00389546
0.00379293
0.0036866
0.0035766
0.00346314
0.00334664
0.00322783
0.00310797
0.00298894
0.00287326
0.00276393
0.00266393
0.00257549
0.00249959
0.00243485
0.00237654
0.00231453
0.00221986
0.00199871
0.00129308
0.026457
0.00124218
0.000559524
0.00364488
0.00603099
0.00624303
0.00679219
0.00688101
0.00704774
0.00710399
0.00713319
0.00712058
0.0070734
0.00699444
0.00688645
0.00675193
0.00659333
0.00641343
0.00621441
0.00599885
0.00576994
0.00553091
0.00528536
0.00503728
0.00479054
0.00454846
0.00431327
0.00408584
0.00386534
0.0036482
0.00342699
0.00318272
0.00285903
0.00230348
0.00142923
0.00105422
0.00287786
0.00335408
0.00345471
0.00353367
0.00368325
0.00381896
0.00393888
0.00403794
0.00412278
0.0042009
0.00428146
0.0043742
0.00448777
0.00462682
0.00478866
0.00496181
0.00512861
0.00526921
0.00536844
0.00541919
0.00541759
0.00536155
0.00525457
0.0051056
0.00492763
0.00473549
0.00454372
0.00436491
0.00419482
0.0040108
0.00377689
0.00341847
0.00282975
0.00226993
0.000477343
0.00190671
0.00240048
0.00267167
0.00287359
0.00304687
0.00319679
0.00332397
0.00343258
0.00353007
0.00362525
0.00372659
0.00384057
0.00397017
0.00411379
0.0042654
0.00441721
0.00456527
0.0047049
0.00482774
0.00492614
0.00499345
0.00502388
0.00501013
0.00493839
0.00479352
0.00456897
0.00427716
0.00395087
0.00362389
0.00332123
0.00306324
0.00286546
0.00264146
0.00253663
0.000440241
0.00163305
0.00213351
0.00244494
0.00267771
0.00286254
0.00301293
0.00313734
0.00324249
0.00333444
0.00341895
0.00350126
0.00358573
0.0036752
0.00377109
0.00387539
0.00398968
0.00411319
0.00424406
0.00437887
0.00451263
0.00463892
0.0047499
0.00483641
0.00488846
0.00489701
0.00485384
0.00475086
0.00457969
0.00432577
0.00396116
0.00345484
0.00286457
0.00254444
0.00313191
0.000410239
0.00179948
0.00236179
0.00273929
0.00304731
0.00330347
0.00351292
0.00368226
0.00381957
0.0039324
0.00402698
0.00410806
0.00417883
0.00424109
0.00429563
0.00434259
0.00438142
0.00441128
0.00443144
0.00444194
0.00444452
0.00444298
0.00444213
0.00444573
0.00445514
0.00446906
0.0044839
0.0044938
0.00448964
0.00445532
0.00435831
0.00412384
0.00362164
0.00304129
0.00349356
0.000663758
0.00222318
0.00278707
0.00307522
0.00321656
0.00327363
0.0032955
0.00331245
0.00333984
0.0033848
0.00344682
0.00352693
0.00362528
0.00374247
0.00387856
0.00403441
0.00421191
0.00441335
0.00463948
0.00488512
0.00513349
0.0053552
0.00551907
0.00560729
0.00561755
0.00555653
0.00543555
0.00526842
0.00506658
0.00483797
0.00459211
0.00433105
0.00399879
0.00373104
0.0043584
0.000694114
0.00160794
0.00197973
0.00218254
0.00229368
0.0023544
0.00239269
0.00241989
0.00244037
0.00245633
0.00246633
0.00247328
0.00248059
0.00249319
0.0025137
0.00254496
0.00259067
0.00265497
0.00274321
0.00286213
0.00301962
0.00322352
0.00348001
0.00379225
0.00415891
0.00457203
0.00497353
0.00522867
0.00527201
0.00512804
0.00479273
0.00424797
0.00373527
0.00377427
0.00476164
0.000371794
0.0017928
0.00240874
0.00273736
0.00293311
0.00306058
0.00314697
0.00320375
0.00323526
0.00324164
0.00322222
0.00317962
0.00312173
0.00306006
0.00300252
0.00295283
0.00291146
0.00287802
0.00285293
0.00283778
0.00283562
0.00285213
0.00289703
0.00298659
0.00314609
0.00341213
0.00383468
0.00442564
0.00502393
0.00539777
0.00547485
0.0052259
0.00470525
0.00441667
0.00483897
0.000660761
0.00222723
0.00282746
0.00314151
0.00332841
0.00345308
0.00353806
0.00358716
0.00359696
0.00356129
0.00347571
0.00334439
0.003187
0.00303309
0.0029117
0.00283828
0.00280576
0.00279601
0.00279534
0.00279754
0.00280006
0.0028016
0.00280198
0.00280346
0.00281536
0.00286164
0.00299382
0.00327248
0.00367066
0.0040531
0.00433706
0.00447121
0.00441791
0.00446311
0.00524973
0.000482101
0.00191818
0.00271788
0.00316543
0.00343387
0.0036226
0.00376668
0.00387254
0.00393854
0.0039589
0.0039231
0.00381709
0.00363795
0.00340883
0.00317271
0.00296902
0.00282512
0.0027482
0.00272206
0.00272352
0.0027363
0.00275307
0.00277117
0.00278971
0.00280722
0.00282819
0.00289288
0.00310077
0.00353599
0.00408007
0.00447068
0.00465194
0.00473129
0.00496079
0.00594153
0.00270271
0.00379031
0.00398836
0.00402725
0.00407153
0.00411283
0.00412776
0.00411133
0.00407294
0.00403111
0.0040019
0.00397986
0.00394043
0.00386381
0.00373946
0.0035662
0.00337122
0.00319874
0.00307253
0.00298831
0.00293207
0.00289224
0.0028602
0.00282935
0.00279445
0.00275116
0.00271193
0.00272957
0.00291243
0.00335329
0.00391593
0.00437144
0.00469038
0.00506881
0.00619943
0.00458983
0.00435101
0.00404073
0.00395482
0.00411808
0.00424011
0.00425687
0.00419227
0.00407365
0.00393723
0.00382252
0.00374675
0.00369289
0.00362994
0.00353235
0.0033906
0.00323546
0.00311474
0.00304108
0.00300603
0.00299867
0.00300635
0.00301541
0.00301236
0.00298179
0.00290329
0.00277054
0.00268402
0.00284134
0.0032984
0.00390538
0.0044439
0.00489848
0.00545724
0.00687167
0.00235054
0.00296898
0.00320024
0.00357468
0.00386761
0.00422084
0.00449133
0.00457066
0.00447865
0.00425627
0.00397664
0.00370922
0.0034837
0.00329464
0.00313267
0.00299965
0.00290698
0.00285803
0.00284574
0.00286252
0.00290025
0.00294736
0.00299144
0.00302044
0.00301983
0.00296974
0.00285592
0.00275659
0.00295296
0.00352596
0.00420079
0.00477234
0.00525617
0.00581179
0.00698719
0.00211687
0.00402464
0.00399691
0.00342769
0.00251996
0.00228152
0.00327824
0.00425626
0.00469528
0.00478138
0.00467295
0.00446115
0.00420848
0.00395323
0.00371691
0.00351522
0.00336105
0.0032586
0.0032018
0.00318069
0.003185
0.00320374
0.00322445
0.00323303
0.00321167
0.00314198
0.00301645
0.00288545
0.00300734
0.00359889
0.00436606
0.00497042
0.00542136
0.00586325
0.0066185
0.00274301
0.00393879
0.00408229
0.00379873
0.00293635
0.00141517
0.000974555
0.00233466
0.00357047
0.00416097
0.0043898
0.0044339
0.00436884
0.0042363
0.00406713
0.0038877
0.00372082
0.00358319
0.00348379
0.00342518
0.00340452
0.0034139
0.00343981
0.00346314
0.00345818
0.00339603
0.00325738
0.0030549
0.0029284
0.00319265
0.00394205
0.00473839
0.00531665
0.00579184
0.00649393
0.00248184
0.0033985
0.00387965
0.00412163
0.00401551
0.00314063
0.00122594
0.000159158
0.00121973
0.00244848
0.00327009
0.00375337
0.00401109
0.00413046
0.00415649
0.00411797
0.0040375
0.00393575
0.00383163
0.00374113
0.00367601
0.00364325
0.00364319
0.00366575
0.00369063
0.003684
0.00360819
0.00344223
0.0031983
0.00304022
0.00333745
0.00414367
0.00497031
0.00565623
0.00668156
0.00245744
0.00403056
0.00430079
0.00438033
0.00444106
0.004444
0.00405295
0.00247431
0.00106898
0.00094993
0.00145903
0.00218663
0.00284868
0.0032995
0.00352987
0.00362539
0.00365238
0.0036415
0.00360585
0.00355644
0.00350809
0.00347724
0.00347682
0.00351079
0.00357013
0.00363224
0.00365702
0.00360008
0.00343065
0.00315034
0.00303883
0.00359051
0.00458841
0.00557531
0.0072488
0.00197824
0.00361562
0.00412438
0.00436013
0.00451907
0.00467353
0.00485952
0.00501018
0.0045403
0.0034015
0.00241605
0.0017605
0.00164726
0.00219177
0.00305308
0.00371109
0.00398171
0.0039893
0.00388883
0.0037714
0.0036673
0.00358559
0.00353577
0.00352909
0.00356891
0.00364447
0.00372411
0.00375381
0.00367522
0.00345466
0.00326612
0.00366403
0.00467545
0.00586093
0.00807959
0.00151706
0.00329073
0.00411077
0.00447277
0.00461859
0.00464939
0.00460934
0.00458394
0.00474342
0.00495655
0.00492196
0.00436935
0.00331977
0.00201103
0.00097023
0.00112569
0.00217276
0.00312407
0.00365427
0.00386078
0.00389621
0.00385635
0.00379735
0.00375514
0.00375418
0.00380405
0.00389272
0.00397599
0.0039861
0.00388585
0.00381505
0.00419274
0.00509926
0.00629054
0.00869558
0.00252879
0.00419331
0.00467983
0.00486252
0.00495014
0.00499076
0.00499131
0.00493702
0.00474712
0.00440961
0.00420419
0.00428301
0.00443832
0.00450097
0.00433313
0.00332627
0.00233207
0.00222699
0.00257939
0.00299175
0.00331789
0.00353924
0.00367895
0.00377253
0.00385629
0.00395846
0.00408761
0.00422449
0.00431754
0.00433954
0.00440951
0.00480179
0.00556179
0.00664004
0.00911866
0.00369654
0.00473189
0.00498277
0.00504279
0.00502909
0.00496572
0.00487568
0.00480645
0.00482054
0.00489983
0.00493137
0.00479131
0.00436584
0.00390417
0.00382042
0.00343339
0.00186759
0.00125467
0.00189811
0.0027221
0.00333487
0.00369805
0.00390746
0.0040458
0.00416417
0.00429551
0.00445463
0.00462922
0.00478179
0.00489443
0.00505927
0.00544157
0.00606763
0.00703921
0.0095577
0.00523431
0.00519723
0.00498272
0.00481478
0.00463307
0.00439195
0.00415674
0.00400495
0.00388732
0.00379626
0.0038625
0.00407183
0.00420038
0.00414828
0.00394933
0.0035704
0.002779
0.00221027
0.00259669
0.00327254
0.00380729
0.00415271
0.00436706
0.00451583
0.00464569
0.00478872
0.00496261
0.0051618
0.00535757
0.00552721
0.00572046
0.00604014
0.0065283
0.00735787
0.00964231
0.00633368
0.00533712
0.00495705
0.00470145
0.00436032
0.0039117
0.00365321
0.00371079
0.00392281
0.0040875
0.00414104
0.00420168
0.00436961
0.00452036
0.00446011
0.00360978
0.00207092
0.00189812
0.00262014
0.00330875
0.00387491
0.0042909
0.00458175
0.00479621
0.00497716
0.00515705
0.00535764
0.00558379
0.00581851
0.00603565
0.00624142
0.00649303
0.00685362
0.00752578
0.00953784
0.0062886
0.00490148
0.00445019
0.00401396
0.0032515
0.00236916
0.00192425
0.00193572
0.0022206
0.00266712
0.00306476
0.00328533
0.0033264
0.00324364
0.00308244
0.00291268
0.00291671
0.00327195
0.00371662
0.00414256
0.00451231
0.00480576
0.00503744
0.00523102
0.00540881
0.00558994
0.00578845
0.00600854
0.00623928
0.00645918
0.00665593
0.00685644
0.00713077
0.00768979
0.00943463
0.00571375
0.00495218
0.00463978
0.00418982
0.00337786
0.00240152
0.00174584
0.00157469
0.0018822
0.00249291
0.00285579
0.003001
0.00312634
0.00324095
0.00338412
0.00357771
0.00383992
0.0041585
0.00446937
0.00475368
0.0049997
0.00520768
0.0053875
0.00555239
0.00571559
0.00588855
0.00607903
0.00628802
0.00650648
0.00671784
0.00690902
0.00709379
0.00733162
0.00781072
0.00924897
0.00485251
0.00474731
0.0045368
0.00421273
0.0036083
0.00259515
0.00158708
0.00113425
0.00119912
0.00192536
0.00277356
0.00311673
0.00328287
0.00349447
0.003735
0.00399766
0.00428061
0.00457161
0.00485081
0.00510687
0.00533107
0.00552152
0.00568252
0.00582372
0.0059582
0.00609966
0.00625891
0.0064398
0.00663631
0.00683436
0.00702129
0.0072031
0.00742019
0.00781674
0.0088917
0.00477142
0.0050427
0.00494337
0.00475465
0.00441392
0.00370989
0.0025686
0.00161996
0.00121246
0.00098096
0.00132005
0.00218817
0.00278861
0.00317671
0.00351986
0.00384743
0.00416417
0.00447372
0.00477728
0.00507302
0.00535404
0.00561125
0.00583783
0.00603
0.00619038
0.00632864
0.00645894
0.00659544
0.00674614
0.00690876
0.00707453
0.00724107
0.00742746
0.00772851
0.0084584
0.0044255
0.00487447
0.00483281
0.00468413
0.0044316
0.00397898
0.00312822
0.00186906
0.00098157
0.000711568
0.000612532
0.00106505
0.00193177
0.00251556
0.00292725
0.00329034
0.00364087
0.00398363
0.00432058
0.00465485
0.00498831
0.00531951
0.00564259
0.00594737
0.00622057
0.00645299
0.00664282
0.00679703
0.00692919
0.00705354
0.00717777
0.00730362
0.00743836
0.00763575
0.00810685
0.00478321
0.00514318
0.00512263
0.00500587
0.00480198
0.00444533
0.00383614
0.00287424
0.00165947
0.000946189
0.000722025
0.000644783
0.00104318
0.00170726
0.00221644
0.00260426
0.00294249
0.00326885
0.00359613
0.00393004
0.00427367
0.00462901
0.0049964
0.00537256
0.00574845
0.00610896
0.00643548
0.00671002
0.00692644
0.00709204
0.0072241
0.00733904
0.00745173
0.00760759
0.00804149
0.00462815
0.00508125
0.00513885
0.00507633
0.00491813
0.00459599
0.00399741
0.00311848
0.00203362
0.000963442
0.000539337
0.000480273
0.0006211
0.00122947
0.00184417
0.00226728
0.00258756
0.00286309
0.00312505
0.00339051
0.00367101
0.00397434
0.00430497
0.00466432
0.00505012
0.00545451
0.00586264
0.00625244
0.00659815
0.00688016
0.0070992
0.00727495
0.0074343
0.00763929
0.00824032
0.00489119
0.00528997
0.00536583
0.00533742
0.00523749
0.00502733
0.00460175
0.00383128
0.00279999
0.00163889
0.000728683
0.000446831
0.000456452
0.000769564
0.00139324
0.00195097
0.00235955
0.0026696
0.00292266
0.0031479
0.00336582
0.00359443
0.00384985
0.00414364
0.00448079
0.00485976
0.00527315
0.00570782
0.0061426
0.0065463
0.00689048
0.00717303
0.00741994
0.00771425
0.00852702
0.00477892
0.00524037
0.00535615
0.00534913
0.00526027
0.00505528
0.00466356
0.00402125
0.00313298
0.00210921
0.00104438
0.00040914
0.000313842
0.000500123
0.000967063
0.0015503
0.00206164
0.00247446
0.00280192
0.00306747
0.00329313
0.00349862
0.00370477
0.00393427
0.00420703
0.00453439
0.00491769
0.00535207
0.00582712
0.00631566
0.00677009
0.00715258
0.00747129
0.007821
0.00872974
0.00518291
0.00549633
0.00557789
0.00556999
0.00549607
0.00532398
0.004983
0.00441462
0.00364101
0.00271177
0.00169171
0.000766502
0.000345084
0.000385295
0.000688981
0.00114849
0.00164022
0.00210552
0.00252238
0.00287658
0.00317597
0.00343367
0.00366532
0.00389
0.00413154
0.00441457
0.00475594
0.00516411
0.00564148
0.00616868
0.00669382
0.00714988
0.00751476
0.00788293
0.00879112
0.00525211
0.00542284
0.00547959
0.00546594
0.00538429
0.00519215
0.00481636
0.00423314
0.00353981
0.00278906
0.00195804
0.0010848
0.000460297
0.00033029
0.000574368
0.000958208
0.0013649
0.00177677
0.00219176
0.00259034
0.00295745
0.00329002
0.00359288
0.00387619
0.00415414
0.00444584
0.00477204
0.00515019
0.0055905
0.00608353
0.00659166
0.00705304
0.00742517
0.00778342
0.00861456
0.00569057
0.00564109
0.00563674
0.00560096
0.00550738
0.00530651
0.00492252
0.00432797
0.00364044
0.00296021
0.00225014
0.0014939
0.000816293
0.000489935
0.000584974
0.00090075
0.0012422
0.00157864
0.00192708
0.00229162
0.00266669
0.00304069
0.00340513
0.00376084
0.00411537
0.00447739
0.00485322
0.00524685
0.00565743
0.00607589
0.00648279
0.0068536
0.00716793
0.00747999
0.00820747
0.00561888
0.0054831
0.00547433
0.00543921
0.00533955
0.00511727
0.00469276
0.00406002
0.00337545
0.00277139
0.00220194
0.00160182
0.0010243
0.000664328
0.00067216
0.00094834
0.00126694
0.0015585
0.00183991
0.00213345
0.0024573
0.00281386
0.00319283
0.00358322
0.00398492
0.00440651
0.00485001
0.00529828
0.00572208
0.00609452
0.00639842
0.00663882
0.0068462
0.00709626
0.00779534
0.00575944
0.00558945
0.00556293
0.00552016
0.00541876
0.00520188
0.00479082
0.00416078
0.00346035
0.00287349
0.00237922
0.00188002
0.00137104
0.000972663
0.00083785
0.000993761
0.00127456
0.00154692
0.00178991
0.00202372
0.00227792
0.00257588
0.00292666
0.00331929
0.00373446
0.00416617
0.00462282
0.00509972
0.00555835
0.00594603
0.00622868
0.00640857
0.00654277
0.00677769
0.00763561
0.00555246
0.00540917
0.00539464
0.00535856
0.00526113
0.00504527
0.00463226
0.00399127
0.0032592
0.00266642
0.00224953
0.00189602
0.00154284
0.00123465
0.0010657
0.0011121
0.00131884
0.00156088
0.00177483
0.00196076
0.00214248
0.0023516
0.00262187
0.00297312
0.00339195
0.0038399
0.00429212
0.00475022
0.00520695
0.00562065
0.00594255
0.00615814
0.00631779
0.00661415
0.00770204
0.00556567
0.0054613
0.0054449
0.00540888
0.00531878
0.00512352
0.00474845
0.00413917
0.003383
0.00273413
0.00231262
0.00202283
0.00176439
0.00152675
0.00135058
0.00131288
0.00142775
0.00162494
0.0018238
0.00198984
0.00212596
0.00225458
0.00241388
0.00265391
0.00301267
0.00347636
0.00397901
0.00446454
0.00492111
0.00534193
0.00569771
0.00597025
0.00619632
0.00655629
0.00771102
0.0053908
0.00530535
0.00529559
0.00526569
0.00518403
0.00500162
0.00464631
0.0040524
0.00326544
0.00253523
0.00208501
0.00188179
0.00179134
0.00171868
0.00162907
0.00158073
0.00162971
0.00177092
0.00195313
0.00212369
0.0022561
0.00235127
0.00243217
0.00254581
0.002762
0.00313909
0.00366062
0.00422802
0.00474935
0.00519734
0.00557046
0.00587043
0.0061326
0.0065044
0.00754198
0.0053616
0.00531257
0.00530591
0.00527955
0.00520883
0.00505168
0.00474357
0.00421074
0.00343895
0.00261279
0.00201594
0.00174518
0.00172395
0.0018055
0.00185427
0.00186623
0.00189786
0.00198582
0.00212723
0.00229206
0.00244282
0.0025549
0.0026255
0.00267611
0.00275933
0.00295875
0.00334617
0.00390164
0.00450046
0.00502234
0.0054328
0.00575064
0.00602438
0.00638641
0.00732586
0.00523814
0.00519641
0.00519179
0.00517041
0.00511067
0.00497395
0.00470022
0.00421581
0.00347672
0.00259601
0.0018595
0.00146933
0.00147313
0.00172802
0.00195628
0.0020775
0.00214366
0.00221078
0.00230802
0.00243953
0.00258797
0.00272515
0.00282787
0.00288961
0.00292799
0.00299444
0.00317543
0.00354828
0.00409214
0.00466738
0.00514661
0.00551198
0.00581992
0.00622173
0.00725738
0.00518032
0.00516353
0.0051611
0.00514308
0.0050953
0.00498765
0.00477103
0.00437765
0.00373173
0.00284713
0.00194421
0.00131496
0.00116105
0.00151256
0.00196498
0.00225622
0.00240953
0.00249873
0.00257258
0.00265894
0.002768
0.00289211
0.00301088
0.00310292
0.00315822
0.00318865
0.00323994
0.00339686
0.00374122
0.0042485
0.00477045
0.00520392
0.00557647
0.00607072
0.00733557
0.00511917
0.0051103
0.00510465
0.00508636
0.00504469
0.00495558
0.00477936
0.00446116
0.00393045
0.00313467
0.00216525
0.00130035
0.000859637
0.00112563
0.00181449
0.00231532
0.00260185
0.00276096
0.0028577
0.00292951
0.0030016
0.00308826
0.00318924
0.00329019
0.00337121
0.00341945
0.00344207
0.00348223
0.00363081
0.0039742
0.00446259
0.00494853
0.00539196
0.00599021
0.00748609
0.00508818
0.00507181
0.0050633
0.00504322
0.00500291
0.00492373
0.00477662
0.00452449
0.00412003
0.00348716
0.00260212
0.00161564
0.000802638
0.00059889
0.00139361
0.00221572
0.0027022
0.00297519
0.00313185
0.00322572
0.00328734
0.00334114
0.00340543
0.00348591
0.00357213
0.00364387
0.0036856
0.00370372
0.0037527
0.00394641
0.00434522
0.00483605
0.00532107
0.00598556
0.00759363
0.00510732
0.00510933
0.00511041
0.0050946
0.00505693
0.00498199
0.00484738
0.0046267
0.00428606
0.00376752
0.00301808
0.00208311
0.00113518
0.000438801
0.0006613
0.00181403
0.00258659
0.00302177
0.00327755
0.00343143
0.00352018
0.00356996
0.00360729
0.00365669
0.00373032
0.00381865
0.00389653
0.00394626
0.00398679
0.00410948
0.00442133
0.00486995
0.00534597
0.00601147
0.00758539
0.00508006
0.00511088
0.00513795
0.00513353
0.00509715
0.00501354
0.00486548
0.00464908
0.00436405
0.00397421
0.00339311
0.00257508
0.00162486
0.00071338
0.000158886
0.000943256
0.0021848
0.00290333
0.00330356
0.00354162
0.00368363
0.00375726
0.00378747
0.00380581
0.00384699
0.00393202
0.00404911
0.00416103
0.004253
0.00437726
0.00463003
0.00500246
0.00541675
0.00601369
0.00743194
0.0052038
0.00528594
0.00535711
0.00537777
0.00535408
0.00526891
0.00509935
0.0048449
0.00453113
0.00415528
0.00366878
0.00300344
0.00216402
0.00126374
0.000426171
0.000149509
0.00137106
0.0025051
0.0031443
0.00351614
0.00373951
0.00386484
0.00391659
0.00392261
0.00392464
0.00397397
0.00410108
0.00428141
0.00446275
0.0046407
0.00487005
0.00516325
0.00549106
0.00598141
0.00721256
0.00517394
0.00534676
0.00548011
0.00553546
0.00553138
0.00544962
0.00526102
0.00496987
0.00463449
0.00428236
0.0038722
0.0033238
0.00259761
0.00176626
0.000924793
0.000186571
0.00033721
0.00177473
0.00278303
0.00336053
0.00371042
0.00391764
0.00402181
0.0040476
0.00402935
0.00402469
0.00410452
0.00429814
0.00455403
0.00480685
0.00504845
0.00529058
0.00554468
0.0059363
0.00702645
0.00543074
0.00563536
0.00579098
0.00586379
0.005876
0.00580607
0.00561346
0.00528458
0.00488367
0.00448154
0.00407417
0.003602
0.0029915
0.00224999
0.00147098
0.00070445
0.000131163
0.000740479
0.00213556
0.00301935
0.00354484
0.00387129
0.00406094
0.00414425
0.0041475
0.0041147
0.00412243
0.00425325
0.00451386
0.00481947
0.00509749
0.00533393
0.00555626
0.00589598
0.00693566
0.00547914
0.00569776
0.0058511
0.00592537
0.00594677
0.00589343
0.00572094
0.00541068
0.00501583
0.00461376
0.00422111
0.00379503
0.00327304
0.00262683
0.00191726
0.00120864
0.000531399
0.000244048
0.00123071
0.00247066
0.00325556
0.00374099
0.00404171
0.00421058
0.00427246
0.00425664
0.00421975
0.00425547
0.00443902
0.00473519
0.00503939
0.00529676
0.00552732
0.00586574
0.00691521
0.00593087
0.00601192
0.00607129
0.00609399
0.00608735
0.00602821
0.00586976
0.0055833
0.00519897
0.00478758
0.00438811
0.00398001
0.00351451
0.00294932
0.00230919
0.00166263
0.00103348
0.000483867
0.000600668
0.00176172
0.00280324
0.00348494
0.00392668
0.00419897
0.00434314
0.00438281
0.00435339
0.00432769
0.00440845
0.00463662
0.00493365
0.00521222
0.00546868
0.00583327
0.00690208
0.0061923
0.00604674
0.00598783
0.00593888
0.00588147
0.00581014
0.00568494
0.00547022
0.00517452
0.00483482
0.00448132
0.00411011
0.00369134
0.00319447
0.00262204
0.00202834
0.00146118
0.000916166
0.000589932
0.00113758
0.0022752
0.00315335
0.00374597
0.00413802
0.00437584
0.00448863
0.00450223
0.00446554
0.00447121
0.00460895
0.00486109
0.0051382
0.00541083
0.00579357
0.00683556
0.00688299
0.00631959
0.00607517
0.00590814
0.00576249
0.00567303
0.00557201
0.00539979
0.00515682
0.00486629
0.00454907
0.00420675
0.00382226
0.00337594
0.00286815
0.00232983
0.00181662
0.00132841
0.000909705
0.000932402
0.00176268
0.0027448
0.00348421
0.00399897
0.00433596
0.00453334
0.00461355
0.00460944
0.00459121
0.00465782
0.00484582
0.00509402
0.00536012
0.00573792
0.00671169
0.00719796
0.00619924
0.00579951
0.00552474
0.00532108
0.00527606
0.00524634
0.00515563
0.00500221
0.00479494
0.00454225
0.00424694
0.00390286
0.00350198
0.00304974
0.00256912
0.00209856
0.0016602
0.0012596
0.00105955
0.00146143
0.00236334
0.00319843
0.00382335
0.0042621
0.00454687
0.0047016
0.0047515
0.00474774
0.00477629
0.00490058
0.00509864
0.00533378
0.00568123
0.00656
0.00743134
0.00616201
0.00565723
0.00531042
0.00510032
0.00509691
0.00510523
0.00505614
0.00494721
0.00478235
0.00456633
0.00430167
0.00398679
0.00362046
0.00321156
0.00277994
0.0023545
0.00195315
0.00158394
0.00131653
0.00140528
0.00203904
0.00286569
0.00357783
0.00411423
0.00448774
0.00472436
0.0048447
0.00488418
0.0049082
0.0049849
0.00512675
0.00531685
0.00562136
0.00642019
0.00684358
0.00576873
0.00535296
0.00503762
0.00480113
0.00474363
0.00476471
0.00477992
0.00475068
0.00466186
0.0045101
0.00429633
0.00402243
0.00369291
0.0033209
0.0029263
0.002536
0.00217097
0.00183418
0.00156771
0.00151566
0.00188941
0.00259769
0.00333608
0.00394245
0.00439098
0.00470235
0.00489286
0.00498697
0.00503094
0.0050839
0.0051785
0.00532176
0.00558101
0.00632059
0.00631394
0.00582388
0.00561963
0.00539874
0.00507779
0.00476609
0.00459641
0.00456447
0.00458328
0.00456976
0.0044904
0.0043385
0.00411493
0.00382464
0.00348147
0.00310687
0.00273014
0.00237675
0.00205302
0.0017889
0.001672
0.00185358
0.00238871
0.00308399
0.00373003
0.00424234
0.00461722
0.00487185
0.00502236
0.00509993
0.00515123
0.00521683
0.0053224
0.00554301
0.00625926
0.00567823
0.00589537
0.00591157
0.00580739
0.00555276
0.00509253
0.00456012
0.00421552
0.00416282
0.00423466
0.0042733
0.00423033
0.00409901
0.00388203
0.00358945
0.00324372
0.00287814
0.00252588
0.00220429
0.00194524
0.00181835
0.00191451
0.00230629
0.00291818
0.00356056
0.00410538
0.00452443
0.00482558
0.00502207
0.00513446
0.00519775
0.00525179
0.00533294
0.0055249
0.00623628
0.0056793
0.00620393
0.00634792
0.00634635
0.00622296
0.00589196
0.00521941
0.00437776
0.00392229
0.00392327
0.00403877
0.00409225
0.00405282
0.00392095
0.00369708
0.00339438
0.0030461
0.00269114
0.00235569
0.00207671
0.00192992
0.00198833
0.00228937
0.00281303
0.00342453
0.00398034
0.00442694
0.00476035
0.00498981
0.00513038
0.00520872
0.00526077
0.00532697
0.00549791
0.00621823
0.00580938
0.00612828
0.00625381
0.00629205
0.00625588
0.00609465
0.00565882
0.00472935
0.00381601
0.0036026
0.00373863
0.00386566
0.00390023
0.0038415
0.00369067
0.00345089
0.00314518
0.00280857
0.00247195
0.00217684
0.00201022
0.00206172
0.00233539
0.00279584
0.00336018
0.00390491
0.00436173
0.0047151
0.00496647
0.00512689
0.00521777
0.00527124
0.00532851
0.00548392
0.00619939
0.00641274
0.00630082
0.00626871
0.00623027
0.0061524
0.00599009
0.00566274
0.00497208
0.00394703
0.00350337
0.00359399
0.00373979
0.0038037
0.00378082
0.00367591
0.00348821
0.00322875
0.00292124
0.00259388
0.00228584
0.00208554
0.00211378
0.00238505
0.00281548
0.00333698
0.00385976
0.00431539
0.00467925
0.00494618
0.00512121
0.00522097
0.00527435
0.00532215
0.00545817
0.00613343
0.006651
0.00625895
0.00614824
0.00605864
0.00592092
0.00568406
0.00530374
0.004734
0.00392982
0.00344169
0.00350506
0.00365199
0.00372576
0.00372173
0.00364534
0.00349517
0.00327577
0.00300172
0.0026944
0.00238715
0.00215999
0.0021516
0.00242331
0.00285359
0.00334565
0.00384107
0.00428617
0.0046528
0.00493099
0.00511993
0.00522997
0.00528578
0.00532657
0.00544092
0.00603622
0.00675124
0.00629553
0.00619976
0.00611863
0.00596534
0.00567332
0.00520166
0.00457981
0.00389484
0.00342904
0.0034592
0.00359795
0.00367666
0.00368661
0.00363261
0.00351294
0.0033284
0.00308714
0.0028037
0.00250322
0.0022497
0.00218002
0.00241905
0.00286491
0.00335149
0.00382644
0.00425787
0.0046224
0.00490783
0.0051091
0.00523063
0.00529074
0.00532432
0.00540953
0.00589581
0.00641753
0.00602966
0.00598817
0.00595206
0.00584189
0.00558606
0.00513193
0.00450749
0.00385244
0.00340321
0.00339308
0.00352858
0.00361813
0.00364577
0.00361569
0.00352617
0.00337571
0.00316782
0.00291235
0.00262658
0.00235547
0.0022145
0.00237233
0.0028177
0.00332469
0.00379415
0.00421327
0.00457114
0.00485856
0.00506938
0.00520351
0.00527315
0.00530737
0.00537234
0.00575962
0.00623432
0.00594621
0.00592905
0.00591195
0.00583136
0.00562153
0.00522027
0.00461703
0.00392383
0.0033996
0.00329213
0.00341794
0.00352883
0.00358325
0.00358368
0.00352913
0.00341694
0.00324713
0.00302524
0.00276247
0.00248619
0.00227842
0.00231049
0.00269445
0.00323764
0.00373234
0.00415498
0.00451092
0.00479847
0.00501397
0.00515656
0.00523419
0.00526972
0.00531457
0.00561546
0.00588302
0.00573938
0.00577588
0.00579759
0.00576214
0.00561391
0.00529561
0.00477273
0.00409287
0.00346503
0.00319286
0.00326846
0.00339874
0.00348501
0.00352084
0.00350601
0.00343724
0.00331131
0.00312998
0.00290034
0.00263722
0.00238824
0.00228591
0.00251966
0.00305273
0.00359936
0.00404802
0.00441124
0.00470035
0.00491804
0.0050659
0.0051513
0.00519423
0.00523954
0.00551841
0.00567232
0.00568587
0.0057801
0.00584189
0.00585291
0.00576477
0.00552254
0.00508186
0.00443957
0.00370627
0.00318346
0.00309645
0.00321619
0.00333631
0.00341309
0.00344327
0.00342389
0.00334901
0.00321634
0.00302987
0.0027977
0.00254255
0.00234248
0.00237916
0.00279019
0.00337843
0.0038889
0.00428629
0.00459235
0.00481935
0.00497428
0.00506699
0.00511662
0.00516051
0.0054203
0.00536439
0.00551438
0.00565645
0.00576102
0.00583444
0.00583849
0.00571929
0.00542393
0.00491498
0.00420148
0.0034506
0.00302564
0.00300949
0.00313456
0.00325165
0.00332998
0.00336413
0.00334645
0.00327056
0.00313689
0.00295045
0.00272118
0.00248313
0.00235441
0.00253704
0.00305435
0.00362625
0.00408488
0.00442782
0.00467568
0.00484321
0.00494572
0.00500654
0.00506893
0.00539452
0.00525354
0.00543689
0.00557336
0.00568093
0.00578073
0.00585032
0.00584224
0.00570024
0.00537693
0.0048337
0.00407127
0.00329854
0.00291115
0.00290895
0.00303378
0.00315596
0.00324422
0.00328731
0.0032753
0.00320376
0.00307504
0.00289484
0.00267441
0.00246861
0.00243316
0.00274252
0.00328937
0.00380725
0.00420707
0.00449774
0.00469749
0.00482576
0.00491042
0.00499912
0.00537081
0.00515999
0.00530722
0.00542242
0.00551836
0.00561992
0.00572001
0.00578561
0.00576449
0.00560975
0.00528669
0.00474786
0.00397371
0.00319951
0.00282388
0.00281778
0.00294086
0.00306953
0.00316693
0.00321756
0.00321134
0.0031457
0.00302375
0.00284916
0.00264171
0.00248495
0.00256028
0.00296354
0.00349512
0.00395177
0.00428871
0.00452088
0.00467317
0.00477984
0.00490335
0.00540898
0.0051951
0.00527338
0.00536045
0.00543666
0.00552099
0.00561503
0.00570072
0.00573554
0.0056746
0.00549158
0.0051626
0.00463346
0.00386759
0.00311386
0.00275528
0.00274754
0.00286921
0.00300148
0.0031047
0.00316151
0.00316279
0.00310703
0.00299521
0.00283275
0.00265174
0.00256479
0.00274155
0.00316628
0.00363218
0.00401667
0.00429991
0.00449983
0.00465508
0.0048477
0.00549526
0.00521702
0.00523726
0.00531283
0.00538054
0.00545334
0.00553637
0.00562274
0.00568036
0.0056665
0.0055537
0.00533228
0.00498393
0.0044523
0.00370604
0.00301059
0.00269955
0.00270509
0.00282511
0.00295427
0.00305486
0.00310984
0.00311081
0.00305574
0.00294752
0.00280107
0.00267783
0.00271943
0.00301802
0.00344331
0.00383358
0.00413473
0.00435553
0.00453462
0.00476354
0.00551897
0.00531692
0.00528862
0.00535525
0.00541427
0.00547157
0.00553222
0.00560013
0.00565966
0.00566894
0.00559424
0.0054271
0.00516514
0.00478628
0.00423633
0.00351387
0.002905
0.00266503
0.00269298
0.00281285
0.00293906
0.00303789
0.00309152
0.00309072
0.00303315
0.00292275
0.00278885
0.00273239
0.00289359
0.00324854
0.00363435
0.00395645
0.00420562
0.00442014
0.0047154
0.00564052
0.00546649
0.00540071
0.00546873
0.00552564
0.00556922
0.0055985
0.00562426
0.00565794
0.00566891
0.00561514
0.00547962
0.0052628
0.00495832
0.00453622
0.00395161
0.00326824
0.00278001
0.00263414
0.00268881
0.00280519
0.00292201
0.00301132
0.00305813
0.00305697
0.00300917
0.00292849
0.00287093
0.00295294
0.00322526
0.00357563
0.00389041
0.00414237
0.00436561
0.00467319
0.00557729
0.00572184
0.00560043
0.00566971
0.0057309
0.00576845
0.00576766
0.00573541
0.00571344
0.00569669
0.00564081