/*--------------------------------*- C++ -*----------------------------------*\
| =========                 |                                                 |
| \\      /  F ield         | OpenFOAM: The Open Source CFD Toolbox           |
|  \\    /   O peration     | Version:  v2006                                 |
|   \\  /    A nd           | Website:  www.openfoam.com                      |
|    \\/     M anipulation  |                                                 |
\*---------------------------------------------------------------------------*/
FoamFile
{
    version     2.0;
    format      ascii;
    class       volScalarField;
    location    "30";
    object      nut;
}
// * * * * * * * * * * * * * * * * * * * * * * * * * * * * * * * * * * * * * //

dimensions      [0 2 -1 0 0 0 0];


internalField   nonuniform List<scalar> 
78750
(
0.000547067
0.0011384
0.000732617
9.48336e-05
1.98059e-05
7.3643e-05
3.20857e-05
6.23251e-05
4.74998e-05
5.79712e-05
5.82275e-05
6.11453e-05
6.3829e-05
6.61918e-05
6.8485e-05
7.06061e-05
7.25364e-05
7.42128e-05
7.55648e-05
7.65736e-05
7.72335e-05
7.75454e-05
7.75447e-05
7.72871e-05
7.68228e-05
7.61855e-05
7.5361e-05
7.42185e-05
7.24354e-05
6.93206e-05
6.34083e-05
5.15697e-05
3.49076e-05
2.47419e-05
2.69556e-06
5.49628e-05
7.21915e-06
5.56487e-06
5.22812e-05
8.9028e-05
8.73108e-05
0.000105854
0.000116202
0.000129305
0.000138931
0.000148121
0.000156674
0.000164642
0.000172356
0.000179921
0.000187443
0.000195107
0.000202989
0.000210678
0.000217633
0.000223236
0.000226681
0.000227236
0.000224339
0.000217631
0.000207094
0.000193052
0.000176143
0.000157062
0.000135665
0.000110609
8.04304e-05
4.77476e-05
2.49259e-05
2.03315e-06
2.489e-06
5.14685e-05
8.00393e-05
7.85181e-05
8.38894e-05
9.33612e-05
0.000102141
0.000109575
0.000115913
0.000121805
0.000127718
0.000134154
0.000141711
0.000151059
0.000162944
0.000178085
0.000196768
0.00021852
0.000242487
0.000266992
0.000281109
0.000281035
0.000279511
0.000276607
0.000272524
0.000267571
0.000262125
0.000256576
0.000251294
0.000201459
0.000133245
7.67612e-05
4.223e-05
2.79724e-05
3.21226e-06
1.13699e-06
4.47684e-05
9.63514e-05
0.000134853
0.000145489
0.000144462
0.000144343
0.000146433
0.000149743
0.000154178
0.000160155
0.000168234
0.000179052
0.000193311
0.000211532
0.000232955
0.00025292
0.000257261
0.000261284
0.000264767
0.000267516
0.000269368
0.000264783
0.000242935
0.000221855
0.000205091
0.000190135
0.000171925
0.000149307
0.000123128
9.26243e-05
5.8573e-05
3.33919e-05
2.57689e-05
3.58404e-06
1.04932e-06
4.20078e-05
9.49073e-05
0.000128512
0.000148753
0.000161884
0.000170791
0.000177266
0.000182654
0.000187986
0.00019406
0.000201539
0.000210979
0.0002225
0.000232772
0.000236114
0.000239722
0.000243559
0.000247557
0.000251605
0.000255553
0.00025922
0.000262393
0.00026483
0.000266271
0.000257586
0.000237911
0.000209853
0.000172949
0.000129076
8.49549e-05
5.02878e-05
3.13265e-05
3.26744e-05
4.40968e-06
9.78318e-07
4.73867e-05
9.21583e-05
0.000109685
0.000117701
0.00012293
0.000126777
0.000130314
0.000134572
0.000140207
0.00014732
0.000155861
0.000165555
0.000175824
0.00018584
0.000194808
0.000202087
0.000207306
0.000210526
0.000212173
0.000212705
0.00021211
0.000209726
0.000204759
0.000197115
0.000187564
0.000176909
0.000165232
0.000151717
0.000133872
0.000105845
6.66091e-05
3.83882e-05
3.58548e-05
4.90851e-06
1.57567e-06
6.46111e-05
9.42062e-05
9.88271e-05
9.52904e-05
8.96795e-05
8.45679e-05
8.04018e-05
7.72883e-05
7.54164e-05
7.47894e-05
7.5417e-05
7.73098e-05
8.03375e-05
8.43629e-05
8.9402e-05
9.56395e-05
0.000103468
0.000113693
0.000127632
0.000146668
0.00017109
0.000197937
0.000220912
0.000233773
0.000232367
0.000214878
0.000184733
0.000150215
0.000116913
8.63315e-05
5.92779e-05
4.37716e-05
5.43328e-05
6.09402e-06
1.64712e-06
4.03044e-05
4.69212e-05
4.4391e-05
4.52509e-05
4.75832e-05
4.9752e-05
5.08305e-05
5.07759e-05
5.01651e-05
4.97397e-05
4.98645e-05
5.08133e-05
5.27267e-05
5.54893e-05
5.87931e-05
6.20318e-05
6.45783e-05
6.61648e-05
6.69971e-05
6.75817e-05
6.84305e-05
6.99153e-05
7.21423e-05
7.5071e-05
8.07057e-05
9.44821e-05
0.000115877
0.000124133
0.000100462
6.23706e-05
3.71473e-05
3.29937e-05
6.72261e-05
6.6439e-06
8.8726e-07
1.95546e-05
3.06699e-05
4.2416e-05
5.49234e-05
6.55395e-05
7.22762e-05
7.4866e-05
7.41303e-05
7.13061e-05
6.7795e-05
6.48182e-05
6.33077e-05
6.35605e-05
6.53604e-05
6.82085e-05
7.16808e-05
7.57385e-05
7.99944e-05
8.3524e-05
8.55023e-05
8.54918e-05
8.33599e-05
7.96645e-05
7.51308e-05
6.96271e-05
6.52891e-05
6.92332e-05
8.68435e-05
0.000109678
0.000102445
6.92072e-05
5.77933e-05
8.32964e-05
6.74943e-06
1.56853e-06
1.95865e-05
4.45018e-05
8.24221e-05
0.000111564
0.000119834
0.000115741
0.000105926
9.35794e-05
8.08697e-05
6.98801e-05
6.22045e-05
5.84279e-05
5.8563e-05
6.42101e-05
8.09882e-05
0.000115245
0.000156015
0.000171961
0.000158453
0.000133932
0.000112614
9.81621e-05
8.88098e-05
8.20642e-05
7.64393e-05
6.97138e-05
6.33975e-05
6.4331e-05
7.11532e-05
6.94355e-05
5.37339e-05
4.99809e-05
8.03342e-05
7.30551e-06
1.14859e-06
1.29554e-05
3.65575e-05
8.27639e-05
0.000106813
0.000103808
9.66528e-05
9.04575e-05
8.50246e-05
7.87997e-05
7.04722e-05
6.09736e-05
5.33764e-05
4.95995e-05
4.9262e-05
5.12498e-05
5.51359e-05
6.29496e-05
7.80831e-05
9.82946e-05
0.000110767
0.000106226
9.06564e-05
7.44378e-05
6.21979e-05
5.52095e-05
5.45014e-05
5.61608e-05
5.59433e-05
6.27265e-05
7.47813e-05
7.26681e-05
7.09319e-05
8.53474e-05
8.22308e-06
5.82603e-06
3.38134e-05
8.28925e-05
6.66984e-05
6.11275e-05
6.41494e-05
6.97844e-05
7.46005e-05
7.70404e-05
7.8437e-05
8.24323e-05
9.14528e-05
0.00010183
0.000103629
9.41296e-05
8.42725e-05
8.33711e-05
9.27187e-05
0.000107143
0.000118428
0.000123134
0.000121302
0.000112761
9.84497e-05
8.10382e-05
6.4262e-05
5.22503e-05
4.62602e-05
4.37942e-05
4.36749e-05
4.76344e-05
5.34152e-05
6.50477e-05
8.65462e-05
8.3594e-06
8.1482e-06
6.30767e-05
3.14073e-05
2.88965e-05
4.53644e-05
7.65249e-05
9.85777e-05
0.000101286
9.48734e-05
8.74501e-05
8.32937e-05
8.37358e-05
8.66416e-05
8.70336e-05
8.32394e-05
8.15758e-05
8.97904e-05
0.000108013
0.000125142
0.000133843
0.000137655
0.000138386
0.000132441
0.000116552
9.2157e-05
6.64438e-05
4.8689e-05
4.23923e-05
4.34635e-05
4.44308e-05
4.72742e-05
5.52225e-05
7.45072e-05
8.59917e-05
8.7397e-06
5.43073e-06
4.44851e-05
3.75505e-05
4.82798e-05
5.73572e-05
7.87808e-05
0.000124996
0.000143324
0.000124651
0.000102839
8.78413e-05
7.83475e-05
7.21668e-05
6.83454e-05
6.7836e-05
7.30756e-05
8.49905e-05
9.87976e-05
0.00010759
0.000111608
0.000114519
0.00011685
0.000115639
0.000107283
8.98706e-05
6.62525e-05
4.56061e-05
3.49235e-05
3.44341e-05
4.00376e-05
4.84704e-05
6.23729e-05
8.79105e-05
7.91194e-05
8.90619e-06
4.7341e-06
2.55624e-05
6.9256e-05
4.55035e-05
1.43223e-05
1.04599e-05
2.08987e-05
4.99787e-05
9.36416e-05
0.000123979
0.00013365
0.000131873
0.000125097
0.000116975
0.000110761
0.000109791
0.000115615
0.000126002
0.000135614
0.000140406
0.000140199
0.000136336
0.000129002
0.000117246
0.000100179
7.83808e-05
5.58999e-05
3.94813e-05
3.34563e-05
3.76044e-05
4.94962e-05
6.87098e-05
9.52976e-05
7.22117e-05
8.71653e-06
5.37401e-06
2.59448e-05
6.35667e-05
6.02537e-05
2.38562e-05
6.23778e-06
4.01867e-06
1.51955e-05
4.80743e-05
0.000101497
0.000145999
0.000165966
0.000168338
0.000161263
0.000151026
0.000141921
0.000135831
0.000132625
0.000131146
0.000130128
0.000128532
0.000125448
0.000120068
0.000111898
0.000100702
8.6348e-05
6.91183e-05
5.09707e-05
3.71685e-05
3.31375e-05
4.07649e-05
6.09018e-05
9.07996e-05
7.17597e-05
8.64499e-06
5.67443e-06
3.82198e-05
7.80926e-05
7.99621e-05
6.16778e-05
2.77755e-05
5.30876e-06
6.44223e-07
8.14024e-06
3.13366e-05
6.84072e-05
0.000102817
0.000124302
0.00013785
0.000147045
0.00015118
0.000150438
0.000147224
0.000143182
0.000138448
0.000132708
0.00012596
0.000118397
0.000110127
0.000101301
9.17183e-05
8.0497e-05
6.65525e-05
4.99081e-05
3.59426e-05
3.29097e-05
4.47866e-05
7.40993e-05
7.38709e-05
8.7096e-06
5.49242e-06
3.51157e-05
0.000107504
0.000123746
0.000115275
0.000119353
5.1607e-05
1.41508e-05
5.29015e-06
6.1773e-06
1.37213e-05
3.09025e-05
5.75846e-05
7.91348e-05
8.64295e-05
9.40025e-05
0.000106637
0.000117607
0.000121423
0.000120143
0.00011748
0.000114475
0.000110682
0.000105629
9.92633e-05
9.19936e-05
8.38127e-05
7.36311e-05
5.96235e-05
4.18768e-05
2.98903e-05
3.29776e-05
5.60857e-05
7.56679e-05
8.92e-06
4.59853e-06
2.61022e-05
7.5323e-05
0.000118228
0.00013397
0.000135279
0.000133878
9.68206e-05
4.17343e-05
2.08242e-05
1.3436e-05
9.94198e-06
1.09415e-05
2.18399e-05
5.24222e-05
8.73952e-05
0.000102224
9.96229e-05
0.000100157
0.000106219
0.000111044
0.000111105
0.000107443
0.000102168
9.61352e-05
8.93011e-05
8.15317e-05
7.2156e-05
5.96605e-05
4.36706e-05
3.10742e-05
3.23436e-05
5.49511e-05
7.63431e-05
9.28286e-06
3.55196e-06
1.96999e-05
5.09829e-05
9.82801e-05
0.000127541
0.000121182
9.56834e-05
8.25131e-05
8.86282e-05
9.20375e-05
6.77278e-05
3.95267e-05
2.13335e-05
9.84567e-06
4.50273e-06
7.35255e-06
2.60203e-05
5.85366e-05
9.23641e-05
0.000118366
0.000130741
0.000131507
0.000124403
0.00011277
9.98525e-05
8.78166e-05
7.71971e-05
6.72016e-05
5.62226e-05
4.39748e-05
3.52476e-05
3.88709e-05
6.43359e-05
7.44749e-05
9.52674e-06
5.3266e-06
2.25399e-05
6.04585e-05
9.95239e-05
0.000109262
0.000102588
8.97877e-05
7.21928e-05
5.10837e-05
3.75629e-05
3.5999e-05
4.59321e-05
6.71736e-05
9.21141e-05
5.37618e-05
2.21836e-05
1.54522e-05
2.41331e-05
4.43561e-05
6.39576e-05
8.02404e-05
9.23521e-05
0.000100157
0.000103016
0.000100249
9.24954e-05
8.16841e-05
6.99434e-05
5.82442e-05
4.76248e-05
4.21349e-05
4.91135e-05
7.67613e-05
7.08134e-05
9.61437e-06
6.32941e-06
2.41599e-05
6.35251e-05
0.000106598
0.000115985
9.78788e-05
7.32799e-05
5.91695e-05
5.74612e-05
6.41064e-05
6.93355e-05
5.70056e-05
3.815e-05
3.26233e-05
4.04922e-05
2.46077e-05
9.26006e-06
8.86019e-06
2.91941e-05
5.54728e-05
8.26071e-05
0.000112175
0.00013083
0.000133832
0.000124807
0.0001091
9.19409e-05
7.66307e-05
6.42196e-05
5.55124e-05
5.3691e-05
6.50303e-05
9.37096e-05
6.67946e-05
9.78381e-06
7.40876e-06
3.10049e-05
9.66617e-05
0.000114984
8.14003e-05
4.96676e-05
3.52566e-05
3.06203e-05
2.87641e-05
2.80771e-05
3.3701e-05
5.3603e-05
8.50786e-05
8.6544e-05
5.82749e-05
3.43731e-05
2.0706e-05
2.00543e-05
4.13312e-05
7.37084e-05
9.87615e-05
0.000122007
0.000136379
0.000136875
0.000126097
0.00010963
9.29204e-05
7.9212e-05
6.95003e-05
6.453e-05
6.70373e-05
8.18389e-05
0.000106916
6.17281e-05
9.87361e-06
7.70624e-06
3.37835e-05
0.000115167
0.000107424
5.19603e-05
2.93227e-05
2.45378e-05
2.92459e-05
4.19671e-05
5.54572e-05
5.58627e-05
5.69839e-05
7.43444e-05
9.42415e-05
6.27397e-05
2.02045e-05
8.93148e-06
1.42579e-05
5.47697e-05
9.17555e-05
0.00010931
0.000126058
0.00013871
0.000141518
0.000133662
0.000118505
0.000101482
8.7242e-05
7.80075e-05
7.48647e-05
7.9793e-05
9.5066e-05
0.000113544
5.78067e-05
9.8605e-06
7.34152e-06
4.03324e-05
0.000117805
5.33698e-05
2.16091e-05
1.23129e-05
1.14476e-05
1.4846e-05
2.05406e-05
2.91482e-05
3.59958e-05
3.55234e-05
3.35503e-05
3.22812e-05
3.06005e-05
3.07718e-05
4.42103e-05
9.174e-05
0.000121166
0.000127123
0.000134892
0.000141939
0.000144707
0.000141845
0.000133392
0.000120891
0.000107222
9.55194e-05
8.80946e-05
8.65847e-05
9.2712e-05
0.000106824
0.000118226
5.56245e-05
9.90167e-06
6.88151e-06
3.75943e-05
9.91059e-05
4.98221e-05
2.25415e-05
1.30866e-05
1.04497e-05
1.03243e-05
1.28165e-05
2.06105e-05
3.01802e-05
3.58557e-05
4.02102e-05
4.53386e-05
5.25759e-05
6.37414e-05
8.12658e-05
9.90456e-05
0.000110723
0.000119071
0.000124842
0.00012774
0.000127616
0.00012453
0.000118811
0.00011123
0.000103074
9.60264e-05
9.19259e-05
9.26809e-05
0.000100165
0.000114142
0.000122232
5.53349e-05
9.92855e-06
6.65514e-06
3.64704e-05
9.74924e-05
6.37507e-05
2.60619e-05
1.14072e-05
6.74263e-06
6.67719e-06
9.46097e-06
1.89079e-05
3.86007e-05
5.0275e-05
5.03575e-05
5.46722e-05
6.32955e-05
7.3733e-05
8.45793e-05
9.42377e-05
0.000102124
0.000108775
0.00011426
0.000118244
0.000120085
0.000119131
0.000115226
0.000109103
0.000102282
9.66166e-05
9.39824e-05
9.62649e-05
0.000105103
0.000119259
0.000124373
5.41334e-05
9.76938e-06
6.66483e-06
3.26098e-05
0.000101096
0.000100335
5.82989e-05
2.43473e-05
1.09989e-05
7.00681e-06
6.84151e-06
6.46454e-06
1.04071e-05
2.59911e-05
4.81535e-05
6.30052e-05
7.43621e-05
8.37193e-05
9.02927e-05
9.40999e-05
9.63425e-05
9.83661e-05
0.000100802
0.000103762
0.000106946
0.000109518
0.000110384
0.000108608
0.000104279
9.91425e-05
9.60538e-05
9.7913e-05
0.000106608
0.000120056
0.000122541
5.17382e-05
9.45623e-06
6.56864e-06
3.17134e-05
0.00010008
0.000103706
6.73798e-05
3.53864e-05
1.63794e-05
7.32272e-06
4.25008e-06
4.3877e-06
4.87003e-06
1.16218e-05
3.87674e-05
7.82092e-05
9.54695e-05
0.000101906
0.000104983
0.00010556
0.000103915
0.000100953
9.78527e-05
9.56124e-05
9.47967e-05
9.5368e-05
9.67926e-05
9.82853e-05
9.89102e-05
9.82591e-05
9.75691e-05
9.97256e-05
0.000107302
0.000118677
0.000118998
4.99588e-05
9.17586e-06
6.72454e-06
3.04242e-05
9.53506e-05
0.000111981
8.62513e-05
5.0394e-05
2.69955e-05
1.37231e-05
6.73014e-06
4.46863e-06
4.61368e-06
5.14729e-06
1.1772e-05
3.45599e-05
6.98161e-05
9.2689e-05
0.000102867
0.000106882
0.00010755
0.000105902
0.000102358
9.75701e-05
9.26245e-05
8.86055e-05
8.6158e-05
8.54693e-05
8.62669e-05
8.81508e-05
9.1083e-05
9.58687e-05
0.000104071
0.000114849
0.000116317
5.04989e-05
9.09807e-06
6.65883e-06
3.06713e-05
9.5323e-05
0.000116333
9.2695e-05
5.56873e-05
3.05152e-05
1.73124e-05
9.12533e-06
4.22132e-06
3.01645e-06
3.72817e-06
6.49053e-06
2.15424e-05
6.29528e-05
0.000103021
0.000117793
0.000119409
0.000115914
0.000111296
0.000107064
0.000102793
9.75839e-05
9.13782e-05
8.51183e-05
8.00724e-05
7.71888e-05
7.69542e-05
7.96415e-05
8.56328e-05
9.54713e-05
0.000108043
0.000113153
5.21587e-05
9.19669e-06
6.7561e-06
3.04175e-05
9.60472e-05
0.000121784
0.00010712
7.34051e-05
4.17372e-05
2.36201e-05
1.38136e-05
7.25657e-06
3.50832e-06
2.86299e-06
3.97321e-06
9.6135e-06
3.04066e-05
7.26743e-05
0.000109612
0.000124744
0.000124782
0.000117765
0.000109677
0.000103431
9.88461e-05
9.4071e-05
8.7761e-05
8.04416e-05
7.39349e-05
7.00163e-05
6.99167e-05
7.46615e-05
8.51026e-05
0.000100024
0.000109319
5.35166e-05
9.34449e-06
6.69297e-06
3.05162e-05
9.74089e-05
0.000125233
0.000107536
7.30391e-05
4.44921e-05
2.75163e-05
1.75021e-05
1.04455e-05
5.04993e-06
2.36363e-06
2.54764e-06
5.89078e-06
1.80977e-05
4.8609e-05
8.85265e-05
0.000117135
0.000129614
0.000128159
0.000118464
0.000107181
9.83443e-05
9.23248e-05
8.70535e-05
8.0549e-05
7.318e-05
6.72944e-05
6.52558e-05
6.88143e-05
7.92952e-05
9.56535e-05
0.000107246
5.4303e-05
9.45283e-06
6.93956e-06
3.181e-05
0.000101629
0.000130397
0.000116326
8.28275e-05
5.07706e-05
3.20076e-05
2.17467e-05
1.46218e-05
8.56147e-06
4.12756e-06
2.41416e-06
3.93026e-06
1.07035e-05
2.80399e-05
5.69485e-05
8.58903e-05
0.000106727
0.000117015
0.000116469
0.000108215
9.77137e-05
8.90368e-05
8.29164e-05
7.76143e-05
7.16599e-05
6.61675e-05
6.39132e-05
6.73627e-05
7.81679e-05
9.5314e-05
0.000107838
5.47185e-05
9.48512e-06
7.01478e-06
3.32568e-05
0.000106456
0.000132479
0.000113287
7.70414e-05
4.7143e-05
3.07773e-05
2.25306e-05
1.68979e-05
1.12706e-05
6.20906e-06
3.11873e-06
3.21776e-06
8.87825e-06
2.3488e-05
4.6008e-05
6.7786e-05
8.46539e-05
9.6265e-05
0.000101488
9.95103e-05
9.2234e-05
8.37626e-05
7.72383e-05
7.30059e-05
6.95893e-05
6.64023e-05
6.52879e-05
6.92254e-05
8.04481e-05
9.77306e-05
0.000109124
5.2731e-05
9.36116e-06
7.29547e-06
3.61583e-05
0.000114539
0.000135167
0.000115138
7.90535e-05
4.85901e-05
3.16333e-05
2.35436e-05
1.89212e-05
1.4189e-05
9.21757e-06
5.52775e-06
4.39535e-06
7.99855e-06
1.9578e-05
3.84954e-05
5.65022e-05
6.91299e-05
7.7699e-05
8.32304e-05
8.49102e-05
8.19149e-05
7.58038e-05
6.99796e-05
6.68009e-05
6.62139e-05
6.69121e-05
6.87547e-05
7.3815e-05
8.45447e-05
9.98574e-05
0.000107123
4.79248e-05
9.07014e-06
7.2951e-06
3.79245e-05
0.00011793
0.000133337
0.00010921
7.23937e-05
4.43033e-05
2.91072e-05
2.20569e-05
1.86461e-05
1.52633e-05
1.10294e-05
7.53692e-06
6.22217e-06
9.4065e-06
2.09111e-05
3.97572e-05
5.60003e-05
6.45687e-05
6.82251e-05
7.01555e-05
7.1372e-05
7.09576e-05
6.79299e-05
6.35495e-05
6.07429e-05
6.14742e-05
6.56154e-05
7.17812e-05
7.93144e-05
8.89419e-05
9.98423e-05
0.000101269
4.32813e-05
8.78698e-06
7.40692e-06
3.99178e-05
0.000123102
0.000135104
0.000111289
7.59894e-05
4.73945e-05
3.07959e-05
2.2885e-05
1.96229e-05
1.71972e-05
1.37189e-05
1.04139e-05
8.83439e-06
1.06115e-05
1.9025e-05
3.54674e-05
5.25859e-05
6.16616e-05
6.33958e-05
6.2044e-05
6.07013e-05
6.04123e-05
6.02418e-05
5.87888e-05
5.66927e-05
5.65923e-05
6.06133e-05
6.88498e-05
7.9331e-05
8.96119e-05
9.78021e-05
9.6233e-05
4.1098e-05
8.68545e-06
7.33261e-06
4.06344e-05
0.000123752
0.000133175
0.000107887
7.34117e-05
4.61947e-05
2.98477e-05
2.15609e-05
1.82781e-05
1.6902e-05
1.50022e-05
1.29472e-05
1.22917e-05
1.43116e-05
2.12799e-05
3.4868e-05
5.09667e-05
6.12717e-05
6.31664e-05
5.97219e-05
5.49449e-05
5.17498e-05
5.11951e-05
5.23565e-05
5.33011e-05
5.37068e-05
5.58382e-05
6.20924e-05
7.27966e-05
8.55257e-05
9.59964e-05
9.54198e-05
4.06275e-05
8.71986e-06
7.368e-06
4.14043e-05
0.000126269
0.000135493
0.000111997
7.94022e-05
5.14989e-05
3.30931e-05
2.29338e-05
1.85374e-05
1.71327e-05
1.60666e-05
1.49058e-05
1.49962e-05
1.7503e-05
2.39372e-05
3.55144e-05
5.03533e-05
6.25648e-05
6.71956e-05
6.41735e-05
5.67929e-05
4.92161e-05
4.45293e-05
4.38126e-05
4.61872e-05
4.94512e-05
5.24574e-05
5.71024e-05
6.63111e-05
8.08465e-05
9.61596e-05
9.801e-05
3.97112e-05
8.6796e-06
7.29933e-06
4.15786e-05
0.000126098
0.000134278
0.000110235
7.88604e-05
5.2483e-05
3.40643e-05
2.27808e-05
1.72187e-05
1.54828e-05
1.53617e-05
1.58855e-05
1.78556e-05
2.22205e-05
2.98082e-05
4.06522e-05
5.33471e-05
6.51713e-05
7.25143e-05
7.25738e-05
6.55077e-05
5.46791e-05
4.47915e-05
3.90821e-05
3.83592e-05
4.16983e-05
4.7136e-05
5.35976e-05
6.31272e-05
7.87226e-05
9.75742e-05
0.000100456
3.79917e-05
8.52071e-06
7.27951e-06
4.13837e-05
0.000126816
0.000135746
0.000113228
8.3745e-05
5.79916e-05
3.84878e-05
2.517e-05
1.75724e-05
1.4277e-05
1.35985e-05
1.47184e-05
1.79865e-05
2.41848e-05
3.41686e-05
4.69708e-05
5.94526e-05
6.94999e-05
7.66301e-05
7.94681e-05
7.60409e-05
6.6222e-05
5.32641e-05
4.2121e-05
3.59194e-05
3.52093e-05
3.93295e-05
4.73118e-05
5.9085e-05
7.61799e-05
9.63841e-05
9.95706e-05
3.65403e-05
8.3613e-06
7.21989e-06
4.08731e-05
0.000125164
0.000134419
0.000111777
8.35576e-05
5.99816e-05
4.1599e-05
2.75385e-05
1.82018e-05
1.31148e-05
1.11073e-05
1.21743e-05
1.69142e-05
2.51869e-05
3.67966e-05
5.04776e-05
6.31584e-05
7.25345e-05
7.87405e-05
8.22486e-05
8.21608e-05
7.68462e-05
6.60208e-05
5.25269e-05
4.10443e-05
3.46101e-05
3.39347e-05
3.90286e-05
5.02543e-05
6.82321e-05
9.01029e-05
9.69551e-05
3.62543e-05
8.32473e-06
7.14326e-06
3.95247e-05
0.000123745
0.00013377
0.000111436
8.4281e-05
6.26898e-05
4.58657e-05
3.15666e-05
2.05763e-05
1.35134e-05
9.5056e-06
8.85334e-06
1.34554e-05
2.3949e-05
3.97258e-05
5.70656e-05
7.08349e-05
7.91821e-05
8.3663e-05
8.59923e-05
8.652e-05
8.42938e-05
7.78193e-05
6.66189e-05
5.29552e-05
4.11553e-05
3.44672e-05
3.41297e-05
4.10498e-05
5.68549e-05
8.05212e-05
9.43286e-05
3.69148e-05
8.38717e-06
7.08843e-06
3.79125e-05
0.000119106
0.000131899
0.000110099
8.34717e-05
6.39021e-05
4.98875e-05
3.68873e-05
2.46271e-05
1.53869e-05
9.24121e-06
6.23789e-06
9.04032e-06
1.98097e-05
3.83185e-05
5.94337e-05
7.56105e-05
8.43865e-05
8.80307e-05
8.92602e-05
8.93929e-05
8.83712e-05
8.51133e-05
7.8076e-05
6.65622e-05
5.25492e-05
4.05177e-05
3.42761e-05
3.57401e-05
4.70711e-05
7.04973e-05
9.21565e-05
3.81265e-05
8.48904e-06
6.99894e-06
3.5844e-05
0.000114376
0.000127965
0.000105865
7.86913e-05
6.02222e-05
4.95295e-05
4.08526e-05
3.0495e-05
2.00868e-05
1.18699e-05
5.79145e-06
4.32602e-06
1.26336e-05
3.27768e-05
6.16395e-05
8.48582e-05
9.53265e-05
9.73288e-05
9.58593e-05
9.3518e-05
9.11709e-05
8.84825e-05
8.40801e-05
7.60314e-05
6.3454e-05
4.89593e-05
3.8086e-05
3.50334e-05
4.25796e-05
6.45155e-05
9.09341e-05
3.9111e-05
8.55515e-06
6.95937e-06
3.38985e-05
0.00010714
0.000125357
0.000106841
7.9996e-05
6.05546e-05
5.00185e-05
4.30633e-05
3.48195e-05
2.49611e-05
1.61186e-05
8.6861e-06
3.16572e-06
5.03245e-06
2.03105e-05
5.09784e-05
8.38337e-05
0.000101502
0.000105329
0.00010241
9.71944e-05
9.18661e-05
8.72757e-05
8.30385e-05
7.73701e-05
6.7928e-05
5.47395e-05
4.25674e-05
3.73431e-05
4.31201e-05
6.43396e-05
9.1787e-05
3.92999e-05
8.54108e-06
6.86562e-06
3.21891e-05
0.000102003
0.000121625
0.000104047
7.64268e-05
5.62234e-05
4.66886e-05
4.32214e-05
3.96628e-05
3.17386e-05
2.18349e-05
1.32919e-05
5.65969e-06
1.15382e-06
8.02335e-06
3.20861e-05
7.36698e-05
0.00010517
0.000114767
0.000111862
0.00010376
9.42084e-05
8.53391e-05
7.82009e-05
7.2388e-05
6.57722e-05
5.64447e-05
4.66176e-05
4.20005e-05
4.7999e-05
6.92922e-05
9.39745e-05
3.84715e-05
8.43079e-06
6.90536e-06
3.17878e-05
9.95989e-05
0.00012279
0.000109813
8.33814e-05
5.98605e-05
4.68836e-05
4.17978e-05
3.95668e-05
3.53333e-05
2.75385e-05
1.89961e-05
1.1067e-05
3.42404e-06
1.12323e-06
1.3676e-05
4.67213e-05
9.07145e-05
0.000114174
0.000116941
0.00010939
9.73608e-05
8.44146e-05
7.31343e-05
6.49474e-05
5.94133e-05
5.44765e-05
4.94574e-05
4.78341e-05
5.53868e-05
7.62843e-05
9.54256e-05
3.72959e-05
8.28155e-06
6.85703e-06
3.18019e-05
0.000101198
0.000125964
0.000112379
8.48476e-05
6.03284e-05
4.66806e-05
4.18437e-05
4.13165e-05
3.97394e-05
3.3536e-05
2.47882e-05
1.66629e-05
8.62071e-06
1.50918e-06
2.73261e-06
2.15621e-05
6.24796e-05
0.000102458
0.000117509
0.000114964
0.000103518
8.82077e-05
7.30246e-05
6.1122e-05
5.3964e-05
5.08694e-05
5.02771e-05
5.2873e-05
6.26742e-05
8.21096e-05
9.49372e-05
3.63032e-05
8.16066e-06
7.0364e-06
3.3705e-05
0.000108797
0.000134889
0.000120563
9.26217e-05
6.65702e-05
5.00147e-05
4.25141e-05
4.08851e-05
4.08801e-05
3.7925e-05
3.08103e-05
2.26705e-05
1.50175e-05
6.7257e-06
1.06798e-06
6.68294e-06
3.15246e-05
7.48574e-05
0.000106224
0.000114436
0.000108234
9.4251e-05
7.73772e-05
6.21428e-05
5.18134e-05
4.74654e-05
4.84439e-05
5.42411e-05
6.62698e-05
8.4479e-05
9.32164e-05
3.57503e-05
8.10854e-06
7.09412e-06
3.54379e-05
0.000118993
0.000142259
0.00011798
8.71167e-05
6.54379e-05
5.24932e-05
4.60229e-05
4.44475e-05
4.48932e-05
4.31274e-05
3.69965e-05
2.87919e-05
2.11216e-05
1.3248e-05
5.0446e-06
2.05821e-06
1.28763e-05
4.34464e-05
8.45106e-05
0.000107509
0.000110575
0.0001015
8.56995e-05
6.83507e-05
5.43655e-05
4.6705e-05
4.61109e-05
5.24343e-05
6.57429e-05
8.38815e-05
9.1259e-05
3.53423e-05
8.09946e-06
7.42538e-06
3.8768e-05
0.000133467
0.000145404
0.000107371
7.78973e-05
6.33552e-05
5.51152e-05
4.97375e-05
4.77051e-05
4.81105e-05
4.74932e-05
4.28565e-05
3.51673e-05
2.73931e-05
1.99886e-05
1.15532e-05
4.48441e-06
5.45605e-06
2.21163e-05
5.6633e-05
9.06896e-05
0.000105459
0.000104065
9.26269e-05
7.60508e-05
5.98068e-05
4.86469e-05
4.49505e-05
4.95126e-05
6.26844e-05
8.16915e-05
8.97794e-05
3.49061e-05
8.09312e-06
7.63636e-06
4.13355e-05
0.000143942
0.000128006
7.93333e-05
5.93352e-05
5.5853e-05
5.69562e-05
5.71929e-05
5.68991e-05
5.69606e-05
5.55036e-05
5.02704e-05
4.21473e-05
3.38856e-05
2.64258e-05
1.84269e-05
9.85978e-06
5.43024e-06
1.16354e-05
3.43002e-05
6.92256e-05
9.4642e-05
0.000102336
9.69171e-05
8.32888e-05
6.66929e-05
5.29379e-05
4.61115e-05
4.81277e-05
6.01461e-05
7.99031e-05
8.88969e-05
3.43217e-05
8.05527e-06
8.07298e-06
4.60572e-05
0.000149191
9.63406e-05
5.62667e-05
4.81374e-05
5.34039e-05
6.08905e-05
6.46605e-05
6.55152e-05
6.52338e-05
6.28942e-05
5.70543e-05
4.86938e-05
4.02509e-05
3.2659e-05
2.49759e-05
1.6241e-05
9.20487e-06
8.95707e-06
2.11602e-05
4.78999e-05
7.74723e-05
9.34849e-05
9.50282e-05
8.64491e-05
7.22177e-05
5.80225e-05
4.92066e-05
4.89995e-05
5.94415e-05
7.92023e-05
8.8823e-05
3.39566e-05
7.99634e-06
8.28649e-06
5.14815e-05
0.000130644
6.21318e-05
3.9486e-05
4.16022e-05
5.57919e-05
7.13146e-05
7.96559e-05
8.0962e-05
7.82115e-05
7.25465e-05
6.42866e-05
5.48115e-05
4.59765e-05
3.82525e-05
3.05691e-05
2.1991e-05
1.39765e-05
1.02904e-05
1.53111e-05
3.30815e-05
6.03445e-05
8.19235e-05
8.9903e-05
8.66286e-05
7.61156e-05
6.33723e-05
5.40389e-05
5.24312e-05
6.13864e-05
8.01633e-05
8.93112e-05
3.38987e-05
7.93129e-06
8.4275e-06
5.65764e-05
0.000104525
4.86173e-05
3.55872e-05
4.34891e-05
6.22306e-05
7.85182e-05
8.57962e-05
8.63477e-05
8.29701e-05
7.66908e-05
6.82296e-05
5.90079e-05
5.05179e-05
4.30612e-05
3.56553e-05
2.73017e-05
1.89551e-05
1.34222e-05
1.38935e-05
2.3886e-05
4.43009e-05
6.71268e-05
8.07019e-05
8.30555e-05
7.73372e-05
6.77367e-05
5.9421e-05
5.72652e-05
6.47814e-05
8.16846e-05
8.98882e-05
3.41652e-05
7.87242e-06
8.13702e-06
5.35432e-05
9.66658e-05
5.04726e-05
3.67075e-05
4.07633e-05
5.44466e-05
7.10759e-05
8.40556e-05
8.96818e-05
8.83258e-05
8.2075e-05
7.31644e-05
6.36624e-05
5.5022e-05
4.73849e-05
3.98301e-05
3.15151e-05
2.30703e-05
1.67757e-05
1.49058e-05
2.00025e-05
3.41363e-05
5.46777e-05
7.13763e-05
7.82148e-05
7.67966e-05
7.07134e-05
6.44088e-05
6.25869e-05
6.89739e-05
8.34574e-05
8.97596e-05
3.43581e-05
7.81791e-06
7.83699e-06
4.45256e-05
0.000110804
8.28146e-05
4.95076e-05
3.69429e-05
3.71287e-05
4.56882e-05
6.04203e-05
7.55975e-05
8.43863e-05
8.47545e-05
7.88276e-05
7.0033e-05
6.11567e-05
5.31431e-05
4.52744e-05
3.65497e-05
2.74492e-05
2.02352e-05
1.68e-05
1.8607e-05
2.75425e-05
4.37834e-05
6.13498e-05
7.20578e-05
7.4552e-05
7.18144e-05
6.77778e-05
6.675e-05
7.23124e-05
8.44485e-05
8.88358e-05
3.43312e-05
7.75975e-06
7.41174e-06
3.71734e-05
0.000101272
0.000109446
7.7752e-05
4.41877e-05
2.99034e-05
2.79453e-05
3.56788e-05
5.30671e-05
7.44759e-05
8.83122e-05
8.93797e-05
8.17961e-05
7.15885e-05
6.18442e-05
5.24782e-05
4.23277e-05
3.17784e-05
2.33738e-05
1.9003e-05
1.91761e-05
2.49616e-05
3.74581e-05
5.38991e-05
6.67435e-05
7.21947e-05
7.20833e-05
7.00531e-05
7e-05
7.51571e-05
8.53971e-05
8.76245e-05
3.39523e-05
7.70491e-06
7.37243e-06
3.62513e-05
0.000103817
0.000126922
0.000117074
7.8054e-05
3.99211e-05
2.43623e-05
2.28555e-05
3.20327e-05
5.17436e-05
7.63035e-05
9.24336e-05
9.34415e-05
8.45764e-05
7.31822e-05
6.19698e-05
5.00811e-05
3.73628e-05
2.67457e-05
2.09281e-05
2.00108e-05
2.38339e-05
3.33047e-05
4.7681e-05
6.14644e-05
6.93951e-05
7.16285e-05
7.13666e-05
7.22906e-05
7.73407e-05
8.62354e-05
8.65416e-05
3.33281e-05
7.65053e-06
7.44751e-06
3.88237e-05
0.000118963
0.000142553
0.000132203
0.000107526
6.23076e-05
2.98979e-05
1.98595e-05
2.33462e-05
3.86988e-05
6.50521e-05
9.13095e-05
0.000102187
9.67094e-05
8.43341e-05
7.1194e-05
5.75426e-05
4.28158e-05
2.99186e-05
2.24936e-05
2.09131e-05
2.40102e-05
3.17014e-05
4.39665e-05
5.73543e-05
6.6746e-05
7.0916e-05
7.22813e-05
7.42425e-05
7.94418e-05
8.73651e-05
8.5551e-05
3.24995e-05
7.60848e-06
7.82188e-06
4.33423e-05
0.00012962
0.000142116
0.000120646
9.37917e-05
6.65653e-05
3.75325e-05
2.19666e-05
2.13376e-05
3.34178e-05
5.75233e-05
8.54258e-05
0.000101671
0.00010076
9.01083e-05
7.70969e-05
6.3175e-05
4.76816e-05
3.30747e-05
2.37843e-05
2.11917e-05
2.39214e-05
3.06878e-05
4.12258e-05
5.36627e-05
6.3834e-05
6.96505e-05
7.26268e-05
7.5689e-05
8.11456e-05
8.82542e-05
8.42515e-05
3.15265e-05
7.55399e-06
7.98782e-06
4.64354e-05
0.000127418
0.000129623
0.000102983
7.43095e-05
5.34861e-05
3.69836e-05
2.45769e-05
2.26416e-05
3.4072e-05
5.86274e-05
8.65663e-05
0.000102667
0.000102489
9.28975e-05
8.06314e-05
6.71601e-05
5.16822e-05
3.61367e-05
2.51968e-05
2.1303e-05
2.3652e-05
3.02206e-05
3.96759e-05
5.09381e-05
6.12174e-05
6.82389e-05
7.26593e-05
7.68156e-05
8.2604e-05
8.90207e-05
8.28044e-05
3.06359e-05
7.49789e-06
8.07292e-06
4.95952e-05
0.000128875
0.000127008
0.000100891
7.18089e-05
4.97866e-05
3.49413e-05
2.54727e-05
2.39148e-05
3.45922e-05
5.8446e-05
8.50742e-05
0.000100461
0.000101257
9.33736e-05
8.25861e-05
7.02988e-05
5.5588e-05
3.96857e-05
2.71305e-05
2.1376e-05
2.26392e-05
2.91181e-05
3.82738e-05
4.8639e-05
5.87404e-05
6.67954e-05
7.27196e-05
7.80956e-05
8.43167e-05
9.00676e-05
8.16007e-05
2.99057e-05
7.42178e-06
7.94515e-06
5.23442e-05
0.000133622
0.000128346
0.000102496
7.49907e-05
5.25718e-05
3.64166e-05
2.67496e-05
2.48877e-05
3.44201e-05
5.74121e-05
8.36948e-05
9.91451e-05
0.000100748
9.41812e-05
8.47766e-05
7.38234e-05
6.01964e-05
4.4299e-05
3.01722e-05
2.21012e-05
2.13982e-05
2.71819e-05
3.66565e-05
4.68711e-05
5.67718e-05
6.54862e-05
7.26956e-05
7.92841e-05
8.61335e-05
9.15812e-05
8.13511e-05
2.95118e-05
7.35203e-06
7.88981e-06
5.38866e-05
0.000137662
0.0001326
0.000108236
8.18424e-05
5.87715e-05
4.05139e-05
2.86209e-05
2.46425e-05
3.1134e-05
5.09945e-05
7.72845e-05
9.52956e-05
9.95531e-05
9.48637e-05
8.6886e-05
7.74306e-05
6.53789e-05
5.01447e-05
3.47301e-05
2.39849e-05
2.0436e-05
2.4222e-05
3.36288e-05
4.46189e-05
5.47838e-05
6.40649e-05
7.26148e-05
8.07614e-05
8.86038e-05
9.39056e-05
8.17774e-05
2.92254e-05
7.26582e-06
7.73582e-06
5.36926e-05
0.000135443
0.00013199
0.000110836
8.79124e-05
6.70348e-05
4.81871e-05
3.33426e-05
2.57411e-05
2.79106e-05
4.27054e-05
6.75842e-05
8.89731e-05
9.72747e-05
9.51623e-05
8.8798e-05
8.09531e-05
7.08811e-05
5.7159e-05
4.12269e-05
2.78159e-05
2.08195e-05
2.13478e-05
2.90449e-05
4.09577e-05
5.24661e-05
6.247e-05
7.17177e-05
8.08304e-05
8.96904e-05
9.56044e-05
8.30066e-05
2.91282e-05
7.20021e-06
7.6426e-06
5.32446e-05
0.000136614
0.000136344
0.000117832
9.67042e-05
7.71468e-05
5.84794e-05
4.1146e-05
2.89525e-05
2.54647e-05
3.30408e-05
5.26465e-05
7.61691e-05
9.05473e-05
9.29936e-05
8.90669e-05
8.30479e-05
7.53022e-05
6.41408e-05
4.92054e-05
3.39437e-05
2.33234e-05
1.98505e-05
2.39773e-05
3.476e-05
4.78004e-05
5.92163e-05
6.94522e-05
7.97463e-05
8.98905e-05
9.66028e-05
8.34118e-05
2.88071e-05
7.11505e-06
7.48396e-06
5.25571e-05
0.000140757
0.000143189
0.0001253
0.000105608
8.89393e-05
7.31309e-05
5.53768e-05
3.81311e-05
2.74479e-05
2.67469e-05
3.75826e-05
5.82574e-05
7.82116e-05
8.75335e-05
8.76114e-05
8.37751e-05
7.82671e-05
7.01033e-05
5.77061e-05
4.22934e-05
2.8583e-05
2.08484e-05
2.04858e-05
2.76461e-05
4.05527e-05
5.41756e-05
6.58955e-05
7.67251e-05
8.73957e-05
9.52084e-05
8.36918e-05
2.85674e-05
7.06804e-06
7.40512e-06
5.06698e-05