/*--------------------------------*- C++ -*----------------------------------*\
| =========                 |                                                 |
| \\      /  F ield         | OpenFOAM: The Open Source CFD Toolbox           |
|  \\    /   O peration     | Version:  v2012                                 |
|   \\  /    A nd           | Website:  www.openfoam.com                      |
|    \\/     M anipulation  |                                                 |
\*---------------------------------------------------------------------------*/
FoamFile
{
    version     2.0;
    format      ascii;
    class       surfaceScalarField;
    location    "30";
    object      phi;
}
// * * * * * * * * * * * * * * * * * * * * * * * * * * * * * * * * * * * * * //

dimensions      [1 0 -1 0 0 0 0];
oriented        oriented;


internalField   nonuniform List<scalar> 
228225
(
-8.04951e-09
1.34064e-08
-5.06571e-09
-3.0356e-08
3.39275e-08
-1.16237e-08
-6.21161e-08
4.60512e-08
-1.42886e-08
-1.01513e-07
5.5101e-08
-1.57014e-08
-1.46232e-07
6.12617e-08
-1.65426e-08
-1.938e-07
6.46955e-08
-1.71304e-08
-2.4239e-07
6.62373e-08
-1.76459e-08
-2.90727e-07
6.65236e-08
-1.81887e-08
-3.38014e-07
6.60894e-08
-1.88027e-08
-3.83442e-07
6.49388e-08
-1.95061e-08
-4.26169e-07
6.29777e-08
-2.02547e-08
-4.65208e-07
6.00781e-08
-2.10368e-08
-4.99773e-07
5.65327e-08
-2.19684e-08
-5.29123e-07
5.24387e-08
-2.30875e-08
-5.52778e-07
4.79851e-08
-2.43317e-08
-5.70317e-07
4.32732e-08
-2.5735e-08
-5.81521e-07
3.84362e-08
-2.72293e-08
-5.86216e-07
3.35163e-08
-2.88215e-08
-5.84388e-07
2.86213e-08
-3.04532e-08
-5.76118e-07
2.38097e-08
-3.20755e-08
-5.61612e-07
1.91393e-08
-3.36486e-08
-5.41131e-07
1.46524e-08
-3.51316e-08
-5.15024e-07
1.03852e-08
-3.64917e-08
-4.83701e-07
6.36937e-09
-3.76944e-08
-4.47614e-07
2.62721e-09
-3.87114e-08
-4.07297e-07
-8.11301e-10
-3.95084e-08
-3.63283e-07
-3.95091e-09
-4.00593e-08
-3.16214e-07
-6.74454e-09
-4.03293e-08
-2.66752e-07
-9.17413e-09
-4.02862e-08
-2.15684e-07
-1.11892e-08
-3.9876e-08
-1.63938e-07
-1.27315e-08
-3.90164e-08
-1.1275e-07
-1.36807e-08
-3.75099e-08
-6.40785e-08
-1.38178e-08
-3.48506e-08
-2.16874e-08
-1.27914e-08
-2.96016e-08
-8.00829e-09
-1.36777e-08
-2.592e-08
6.14638e-08
-2.21367e-08
-7.76864e-08
1.08755e-07
-2.30601e-08
-1.38255e-07
1.30305e-07
-2.36852e-08
-2.0225e-07
1.44081e-07
-2.4987e-08
-2.65511e-07
1.5097e-07
-2.64447e-08
-3.25029e-07
1.52175e-07
-2.79631e-08
-3.78559e-07
1.49416e-07
-2.96485e-08
-4.24731e-07
1.442e-07
-3.15046e-08
-4.62841e-07
1.37597e-07
-3.33982e-08
-4.92778e-07
1.30022e-07
-3.51467e-08
-5.14771e-07
1.21619e-07
-3.66467e-08
-5.29355e-07
1.12521e-07
-3.78602e-08
-5.37101e-07
1.03111e-07
-3.88333e-08
-5.38585e-07
9.35292e-08
-3.96047e-08
-5.34382e-07
8.40014e-08
-4.02181e-08
-5.25107e-07
7.46927e-08
-4.06967e-08
-5.11323e-07
6.57192e-08
-4.10639e-08
-4.93637e-07
5.7162e-08
-4.1334e-08
-4.72612e-07
4.91127e-08
-4.15171e-08
-4.48786e-07
4.16079e-08
-4.16223e-08
-4.22658e-07
3.46658e-08
-4.16557e-08
-3.9467e-07
2.82912e-08
-4.16254e-08
-3.65229e-07
2.24772e-08
-4.15354e-08
-3.34675e-07
1.72088e-08
-4.13923e-08
-3.03317e-07
1.24642e-08
-4.11958e-08
-2.714e-07
8.21998e-09
-4.0946e-08
-2.39171e-07
4.45168e-09
-4.06329e-08
-2.0681e-07
1.13872e-09
-4.02444e-08
-1.74506e-07
-1.72557e-09
-3.97522e-08
-1.42435e-07
-4.13986e-09
-3.91207e-08
-1.10784e-07
-6.08313e-09
-3.83009e-08
-7.97456e-08
-7.48577e-09
-3.72299e-08
-4.97021e-08
-8.21126e-09
-3.56524e-08
-2.18594e-08
-7.83161e-09
-3.2801e-08
-3.65999e-09
-2.62084e-08
-3.13108e-08
8.75194e-08
5.25453e-09
-7.73174e-08
1.48345e-07
6.41689e-09
-1.26316e-07
1.72645e-07
6.65646e-09
-1.74198e-07
1.85915e-07
6.04761e-09
-2.18656e-07
1.90739e-07
4.69158e-09
-2.58526e-07
1.89498e-07
2.54844e-09
-2.93101e-07
1.84339e-07
-3.49566e-10
-3.2149e-07
1.76621e-07
-4.0316e-09
-3.42976e-07
1.67404e-07
-8.32113e-09
-3.57252e-07
1.57242e-07
-1.29423e-08
-3.64745e-07
1.46538e-07
-1.74269e-08
-3.66276e-07
1.35473e-07
-2.14211e-08
-3.6273e-07
1.24226e-07
-2.46622e-08
-3.5504e-07
1.1295e-07
-2.71082e-08
-3.44086e-07
1.01928e-07
-2.88827e-08
-3.30553e-07
9.13698e-08
-3.02077e-08
-3.15033e-07
8.14012e-08
-3.12038e-08
-2.98001e-07
7.209e-08
-3.19596e-08
-2.79892e-07
6.35156e-08
-3.25108e-08
-2.61044e-07
5.56568e-08
-3.28971e-08
-2.41742e-07
4.85083e-08
-3.31447e-08
-2.22237e-07
4.20612e-08
-3.32757e-08
-2.02737e-07
3.62868e-08
-3.3308e-08
-1.83413e-07
3.11375e-08
-3.3254e-08
-1.64393e-07
2.6571e-08
-3.31257e-08
-1.45778e-07
2.25322e-08
-3.29284e-08
-1.27626e-07
1.89686e-08
-3.26675e-08
-1.0998e-07
1.58294e-08
-3.23378e-08
-9.2851e-08
1.30772e-08
-3.19318e-08
-7.62381e-08
1.06759e-08
-3.14272e-08
-6.01364e-08
8.60741e-09
-3.07935e-08
-4.45292e-08
6.86641e-09
-2.9959e-08
-2.94439e-08
5.47182e-09
-2.87684e-08
-1.4907e-08
4.45723e-09
-2.68243e-08
3.75252e-09
-2.23207e-08
-3.08644e-08
8.45748e-08
3.38109e-08
-5.54961e-08
1.36717e-07
3.62567e-08
-7.72884e-08
1.57987e-07
3.64513e-08
-9.81271e-08
1.70296e-07
3.64575e-08
-1.18934e-07
1.7578e-07
3.57668e-08
-1.39893e-07
1.76402e-07
3.4053e-08
-1.60241e-07
1.73854e-07
3.08341e-08
-1.78908e-07
1.68963e-07
2.63234e-08
-1.94631e-07
1.62432e-07
2.06966e-08
-2.0651e-07
1.54576e-07
1.45448e-08
-2.13969e-07
1.45732e-07
8.26308e-09
-2.16928e-07
1.36099e-07
2.33271e-09
-2.15652e-07
1.25958e-07
-3.0077e-09
-2.10776e-07
1.15578e-07
-7.50438e-09
-2.03063e-07
1.05331e-07
-1.11173e-08
-1.93299e-07
9.55442e-08
-1.39371e-08
-1.82086e-07
8.6438e-08
-1.62507e-08
-1.69942e-07
7.81004e-08
-1.81545e-08
-1.5728e-07
7.05848e-08
-1.97313e-08
-1.44451e-07
6.38583e-08
-2.10306e-08
-1.31737e-07
5.78918e-08
-2.20968e-08
-1.19374e-07
5.26505e-08
-2.29533e-08
-1.07531e-07
4.80715e-08
-2.36268e-08
-9.63425e-08
4.40863e-08
-2.41373e-08
-8.58907e-08
4.06205e-08
-2.45013e-08
-7.622e-08
3.7597e-08
-2.47348e-08
-6.73252e-08
3.49268e-08
-2.48537e-08
-5.91531e-08
3.25289e-08
-2.48714e-08
-5.15867e-08
3.03058e-08
-2.47944e-08
-4.44532e-08
2.81707e-08
-2.46282e-08
-3.74921e-08
2.60124e-08
-2.43664e-08
-3.03206e-08
2.37242e-08
-2.40289e-08
-2.22743e-08
2.11444e-08
-2.37194e-08
-1.26047e-08
1.82231e-08
-2.34346e-08
1.27759e-08
-2.16282e-08
-1.8258e-08
6.39197e-08
3.89154e-08
-1.97861e-08
9.70344e-08
4.12081e-08
-1.56524e-08
1.12474e-07
4.138e-08
-1.03666e-08
1.23646e-07
4.13627e-08
-6.26388e-09
1.30957e-07
4.0722e-08
-4.21446e-09
1.35053e-07
3.93002e-08
-4.04824e-09
1.36552e-07
3.71359e-08
-5.23022e-09
1.35922e-07
3.42216e-08
-6.96706e-09
1.33553e-07
3.06172e-08
-8.56225e-09
1.29757e-07
2.64139e-08
-9.46126e-09
1.24794e-07
2.18362e-08
-9.42364e-09
1.18917e-07
1.71447e-08
-8.46664e-09
1.12376e-07
1.26264e-08
-6.79958e-09
1.05459e-07
8.44981e-09
-4.6512e-09
9.84514e-08
4.73286e-09
-2.24831e-09
9.16365e-08
1.50534e-09
1.89279e-10
8.52396e-08
-1.23985e-09
2.45442e-09
7.93986e-08
-3.56315e-09
4.38889e-09
7.41738e-08
-5.5239e-09
5.85069e-09
6.95717e-08
-7.17574e-09
6.74041e-09
6.55635e-08
-8.5595e-09
7.00451e-09
6.2097e-08
-9.71079e-09
6.62086e-09
5.91104e-08
-1.06572e-08
5.60151e-09
5.65287e-08
-1.14224e-08
3.97647e-09
5.42745e-08
-1.20286e-08
1.81946e-09
5.2252e-08
-1.24977e-08
-7.76089e-10
5.03702e-08
-1.2847e-08
-3.66731e-09
4.85181e-08
-1.30998e-08
-6.65185e-09
4.6578e-08
-1.32853e-08
-9.46399e-09
4.44134e-08
-1.34317e-08
-1.17658e-08
4.18667e-08
-1.35538e-08
-1.3084e-08
3.87418e-08
-1.36984e-08
-1.26122e-08
3.47897e-08
-1.41174e-08
-9.1157e-09
2.97447e-08
-1.50178e-08
1.90639e-08
-1.54033e-08
-7.10508e-09
4.41319e-08
2.68915e-08
-4.02626e-09
6.56515e-08
2.83059e-08
3.84941e-09
7.64292e-08
2.81679e-08
1.45925e-08
8.48629e-08
2.80424e-08
2.68811e-08
9.11052e-08
2.75617e-08
3.98322e-08
9.54607e-08
2.66433e-08
5.2757e-08
9.8304e-08
2.53209e-08
6.51663e-08
9.98468e-08
2.36666e-08
7.66712e-08
1.0032e-07
2.17274e-08
8.69815e-08
9.98719e-08
1.95754e-08
9.58405e-08
9.86592e-08
1.72761e-08
1.03043e-07
9.68043e-08
1.49093e-08
1.08425e-07
9.4453e-08
1.25414e-08
1.11891e-07
9.17518e-08
1.02418e-08
1.13418e-07
8.88633e-08
8.06222e-09
1.13074e-07
8.59362e-08
6.04224e-09
1.11023e-07
8.30926e-08
4.19907e-09
1.07446e-07
8.04183e-08
2.55642e-09
1.02548e-07
7.79606e-08
1.11101e-09
9.653e-08
7.57414e-08
-1.50604e-10
8.95649e-08
7.37486e-08
-1.22146e-09
8.18338e-08
7.19605e-08
-2.13147e-09
7.35052e-08
7.03315e-08
-2.89253e-09
6.47367e-08
6.88166e-08
-3.51931e-09
5.56871e-08
6.73504e-08
-4.0285e-09
4.65101e-08
6.58704e-08
-4.43897e-09
3.73644e-08
6.42887e-08
-4.77235e-09
2.84216e-08
6.2514e-08
-5.0548e-09
1.98951e-08
6.04231e-08
-5.31711e-09
1.20174e-08
5.78796e-08
-5.58977e-09
5.08092e-09
5.4698e-08
-5.89442e-09
-5.50253e-10
5.06586e-08
-6.28633e-09
-4.20241e-09
4.54631e-08
-7.01974e-09
-4.84604e-09
3.86917e-08
-8.30282e-09
2.37901e-08
-9.5738e-09
-1.92846e-09
3.19755e-08
1.40839e-08
1.15255e-09
4.89823e-08
1.35885e-08
7.46169e-09
5.73678e-08
1.27538e-08
1.59038e-08
6.41059e-08
1.23139e-08
2.56877e-08
6.94393e-08
1.18824e-08
3.62044e-08
7.364e-08
1.13041e-08
4.69492e-08
7.69503e-08
1.06077e-08
5.74762e-08
7.95172e-08
9.80457e-09
6.74244e-08
8.1461e-08
8.90917e-09
7.65143e-08
8.28634e-08
7.91878e-09
8.45242e-08
8.37961e-08
6.85541e-09
9.12686e-08
8.43192e-08
5.7398e-09
9.66037e-08
8.45047e-08
4.61318e-09
1.00424e-07
8.44237e-08
3.50668e-09
1.02683e-07
8.41539e-08
2.45162e-09
1.03395e-07
8.37575e-08
1.46517e-09
1.02635e-07
8.32919e-08
5.61315e-10
1.00517e-07
8.27877e-08
-2.50145e-10
9.71491e-08
8.22774e-08
-9.50931e-10
9.26847e-08
8.17622e-08
-1.55477e-09
8.72532e-08
8.1242e-08
-2.06192e-09
8.09972e-08
8.06929e-08
-2.47737e-09
7.40439e-08
8.00954e-08
-2.80871e-09
6.65189e-08
7.94056e-08
-3.06638e-09
5.85465e-08
7.85855e-08
-3.26179e-09
5.02555e-08
7.75693e-08
-3.40859e-09
4.17739e-08
7.62921e-08
-3.52175e-09
3.32568e-08
7.46511e-08
-3.61957e-09
2.48724e-08
7.25314e-08
-3.72411e-09
1.68487e-08
6.97608e-08
-3.85814e-09
9.4565e-09
6.61271e-08
-4.03461e-09
3.08411e-09
6.13345e-08
-4.30581e-09
-1.54925e-09
5.50013e-08
-4.90487e-09
-3.36046e-09
4.65418e-08
-6.03521e-09
2.75932e-08
-7.16634e-09
-1.15139e-09
2.58074e-08
7.31766e-09
-2.39109e-09
4.39803e-08
6.2438e-09
-2.69946e-09
5.24329e-08
5.24318e-09
-2.19713e-09
5.89764e-08
4.62678e-09
-1.01728e-09
6.41212e-08
4.13835e-09
7.95161e-10
6.81987e-08
3.62792e-09
3.22851e-09
7.14554e-08
3.06292e-09
6.20871e-09
7.40761e-08
2.46067e-09
9.64151e-09
7.61963e-08
1.83202e-09
1.33876e-08
7.79216e-08
1.19512e-09
1.72948e-08
7.93295e-08
5.58183e-10
2.11947e-08
8.0484e-08
-6.29064e-11
2.49237e-08
8.14325e-08
-6.56061e-10
2.83451e-08
8.22194e-08
-1.22007e-09
3.13732e-08
8.28777e-08
-1.74819e-09
3.39162e-08
8.34407e-08
-2.22791e-09
3.59322e-08
8.39276e-08
-2.65195e-09
3.73724e-08
8.43587e-08
-3.01205e-09
3.82207e-08
8.474e-08
-3.30913e-09
3.8447e-08
8.50713e-08
-3.53537e-09
3.80429e-08
8.53371e-08
-3.69232e-09
3.69953e-08
8.55233e-08
-3.78242e-09
3.53074e-08
8.55962e-08
-3.81332e-09
3.29839e-08
8.55216e-08
-3.7922e-09
3.00567e-08
8.52436e-08
-3.73095e-09
2.65653e-08
8.47017e-08
-3.64035e-09
2.25874e-08
8.38054e-08
-3.53572e-09
1.82211e-08
8.24489e-08
-3.43144e-09
1.36201e-08
8.04793e-08
-3.34576e-09
8.9639e-09
7.77077e-08
-3.29291e-09
4.51902e-09
7.38636e-08
-3.28983e-09
6.35196e-10
6.8603e-08
-3.38318e-09
-2.07303e-09
6.14343e-08
-3.72945e-09
-2.78909e-09
5.17108e-08
-4.44927e-09
2.99145e-08
-5.11159e-09
-2.04607e-09
2.34313e-08
4.42386e-09
-4.46965e-09
4.23872e-08
4.01483e-09
-6.74293e-09
5.11218e-08
3.58388e-09
-8.85908e-09
5.78155e-08
3.27984e-09
-1.0715e-08
6.29894e-08
2.98577e-09
-1.21835e-08
6.70249e-08
2.64118e-09
-1.31698e-08
7.01979e-08
2.2452e-09
-1.36199e-08
7.27183e-08
1.80683e-09
-1.35087e-08
7.47426e-08
1.3441e-09
-1.28467e-08
7.63912e-08
8.6731e-10
-1.16685e-08
7.77567e-08
3.93982e-10
-1.00304e-08
7.8911e-08
-6.4683e-11
-8.02361e-09
7.99113e-08
-4.85849e-10
-5.73561e-09
8.08012e-08
-8.68484e-10
-3.27779e-09
8.16151e-08
-1.1974e-09
-7.44412e-10
8.23766e-08
-1.46866e-09
1.75469e-09
8.31019e-08
-1.67322e-09
4.12921e-09
8.37969e-08
-1.81247e-09
6.28827e-09
8.44622e-08
-1.88315e-09
8.16465e-09
8.50878e-08
-1.89139e-09
9.68077e-09
8.56581e-08
-1.83769e-09
1.07906e-08
8.61464e-08
-1.73249e-09
1.1448e-08
8.65193e-08
-1.58028e-09
1.16344e-08
8.67306e-08
-1.39501e-09
1.13381e-08
8.67235e-08
-1.18417e-09
1.05821e-08
8.64233e-08
-9.64194e-10
9.39245e-09
8.57363e-08
-7.44932e-10
7.84956e-09
8.45398e-08
-5.45037e-10
6.02866e-09
8.26746e-08
-3.75817e-10
4.06347e-09
7.99309e-08
-2.55659e-10
2.08974e-09
7.60284e-08
-1.93777e-10
3.25698e-10
7.05968e-08
-2.27581e-10
-9.25347e-10
6.31309e-08
-4.47111e-10
-1.23529e-09
5.29553e-08
-9.34717e-10
3.016e-08
-1.48074e-09
-3.18359e-09
2.22757e-08
4.33833e-09
-6.65997e-09
4.12024e-08
4.66202e-09
-1.01141e-08
4.98652e-08
4.71069e-09
-1.34261e-08
5.64424e-08
4.68508e-09
-1.64673e-08
6.14693e-08
4.56132e-09
-1.91289e-08
6.53328e-08
4.35547e-09
-2.1333e-08
6.83206e-08
4.07824e-09
-2.30121e-08
7.06477e-08
3.75152e-09
-2.41367e-08
7.24791e-08
3.38753e-09
-2.46915e-08
7.39384e-08
3.0079e-09
-2.46849e-08
7.51251e-08
2.62429e-09
-2.41413e-08
7.61127e-08
2.25699e-09
-2.3111e-08
7.69636e-08
1.915e-09
-2.16463e-08
7.77218e-08
1.61545e-09
-1.98195e-08
7.84255e-08
1.36329e-09
-1.77111e-08
7.9097e-08
1.17139e-09
-1.54043e-08
7.97558e-08
1.03951e-09
-1.29896e-08
8.04059e-08
9.75537e-10
-1.05511e-08
8.10483e-08
9.7518e-10
-8.17372e-09
8.16694e-08
1.04149e-09
-5.93433e-09
8.2254e-08
1.16374e-09
-3.89795e-09
8.2771e-08
1.34057e-09
-2.12231e-09
8.31864e-08
1.557e-09
-6.48002e-10
8.34483e-08
1.80775e-09
5.02196e-10
8.34989e-08
2.07431e-09
1.31872e-09
8.32578e-08
2.34857e-09
1.81375e-09
8.26319e-08
2.60936e-09
2.01266e-09
8.14945e-08
2.84683e-09
1.95748e-09
7.96911e-08
3.03847e-09
1.70078e-09
7.70125e-08
3.17509e-09
1.30262e-09
7.31922e-08
3.23426e-09
8.34061e-10
6.7869e-08
3.19571e-09
4.08531e-10
6.05684e-08
2.98783e-09
1.66399e-10
5.0636e-08
2.56263e-09
2.84669e-08
1.85898e-09
-4.07011e-09
2.15586e-08
4.78662e-09
-8.18703e-09
3.96842e-08
5.6363e-09
-1.22627e-08
4.79476e-08
5.99202e-09
-1.61461e-08
5.41871e-08
6.13972e-09
-1.971e-08
5.89058e-08
6.12758e-09
-2.28544e-08
6.24789e-08
5.99833e-09
-2.55016e-08
6.51836e-08
5.78308e-09
-2.75873e-08
6.72345e-08
5.49787e-09
-2.90629e-08
6.879e-08
5.16671e-09
-2.9908e-08
6.9979e-08
4.80426e-09
-3.01144e-08
7.08966e-08
4.4343e-09
-2.96977e-08
7.16254e-08
4.06996e-09
-2.8691e-08
7.22246e-08
3.73303e-09
-2.71515e-08
7.2749e-08
3.43295e-09
-2.51456e-08
7.32337e-08
3.18724e-09
-2.27617e-08
7.37121e-08
2.99988e-09
-2.00888e-08
7.41987e-08
2.88291e-09
-1.72243e-08
7.47075e-08
2.83422e-09
-1.42692e-08
7.52331e-08
2.86016e-09
-1.13228e-08
7.57705e-08
2.95257e-09
-8.4755e-09
7.62948e-08
3.11227e-09
-5.8107e-09
7.67814e-08
3.32537e-09
-3.39675e-09
7.7185e-08
3.5875e-09
-1.28764e-09
7.74599e-08
3.87973e-09
4.77554e-10
7.75372e-08
4.19345e-09
1.88624e-09
7.73453e-08
4.50601e-09
2.92917e-09
7.67825e-08
4.8063e-09
3.61724e-09
7.57362e-08
5.07013e-09
3.97158e-09
7.40503e-08
5.28581e-09
4.01694e-09
7.15385e-08
5.42965e-09
3.7722e-09
6.79457e-08
5.48966e-09
3.2619e-09
6.29482e-08
5.43272e-09
2.51409e-09
5.6107e-08
5.20818e-09
1.56368e-09
4.68393e-08
4.74599e-09
2.62213e-08
3.81028e-09
-3.95117e-09
2.09343e-08
4.57612e-09
-8.10468e-09
3.81571e-08
5.6795e-09
-1.2302e-08
4.59706e-08
6.1749e-09
-1.63345e-08
5.18177e-08
6.40167e-09
-2.00443e-08
5.61831e-08
6.43255e-09
-2.33169e-08
5.94169e-08
6.33492e-09
-2.60624e-08
6.17921e-08
6.13554e-09
-2.81983e-08
6.35113e-08
5.8596e-09
-2.96666e-08
6.47367e-08
5.52239e-09
-3.04279e-08
6.5592e-08
5.14773e-09
-3.0464e-08
6.6181e-08
4.75124e-09
-2.97799e-08
6.65846e-08
4.35778e-09
-2.84151e-08
6.68748e-08
3.98423e-09
-2.64275e-08
6.71066e-08
3.65453e-09
-2.39021e-08
6.73288e-08
3.38019e-09
-2.09422e-08
6.75735e-08
3.17775e-09
-1.7662e-08
6.78676e-08
3.05041e-09
-1.41818e-08
6.82205e-08
3.00713e-09
-1.06293e-08
6.86371e-08
3.04438e-09
-7.12762e-09
6.91037e-08
3.16495e-09
-3.79658e-09
6.96033e-08
3.35876e-09
-7.34848e-10
7.00993e-08
3.622e-09
1.96078e-09
7.05519e-08
3.93669e-09
4.22754e-09
7.09014e-08
4.29138e-09
6.02098e-09
7.10849e-08
4.66131e-09
7.31531e-09
7.1017e-08
5.03112e-09
8.11617e-09
7.06069e-08
5.37562e-09
8.43771e-09
6.97333e-08
5.68137e-09
8.30639e-09
6.82578e-08
5.92436e-09
7.75788e-09
6.5994e-08
6.0923e-09
6.82762e-09
6.27163e-08
6.1603e-09
5.55218e-09
5.81158e-08
6.10583e-09
3.99441e-09
5.18043e-08
5.86364e-09
2.23176e-09
4.32388e-08
5.36175e-09
2.41855e-08
4.26817e-09
-3.3903e-09
2.09968e-08
3.32582e-09
-7.40845e-09
3.77588e-08
4.41848e-09
-1.1682e-08
4.53148e-08
4.92943e-09
-1.59093e-08
5.09e-08
5.14536e-09
-1.98663e-08
5.49804e-08
5.15893e-09
-2.33883e-08
5.79027e-08
5.03638e-09
-2.63426e-08
5.99357e-08
4.81065e-09
-2.86182e-08
6.12886e-08
4.4988e-09
-3.0129e-08
6.21259e-08
4.12089e-09
-3.08087e-08
6.25829e-08
3.69045e-09
-3.06264e-08
6.27686e-08
3.22894e-09
-2.95806e-08
6.27784e-08
2.75977e-09
-2.77126e-08
6.26906e-08
2.31661e-09
-2.51032e-08
6.25754e-08
1.92372e-09
-2.18677e-08
6.24871e-08
1.60425e-09
-1.81339e-08
6.24726e-08
1.36751e-09
-1.4051e-08
6.256e-08
1.22444e-09
-9.77562e-09
6.27692e-08
1.17609e-09
-5.46774e-09
6.31015e-08
1.22767e-09
-1.28731e-09
6.35495e-08
1.37394e-09
2.61436e-09
6.4087e-08
1.61407e-09
6.09686e-09
6.46796e-08
1.93669e-09
9.04451e-09
6.52735e-08
2.33216e-09
1.1362e-08
6.58085e-08
2.77585e-09
1.29955e-08
6.62058e-08
3.24341e-09
1.39332e-08
6.63806e-08
3.70029e-09
1.41889e-08
6.62271e-08
4.12372e-09
1.38011e-08
6.56278e-08
4.49228e-09
1.28316e-08
6.44335e-08
4.79419e-09
1.13483e-08
6.24674e-08
5.00984e-09
9.44007e-09
5.95011e-08
5.12428e-09
7.20407e-09
5.52459e-08
5.1066e-09
4.78089e-09
4.93264e-08
4.89894e-09
2.36369e-09
4.1243e-08
4.41305e-09
2.31966e-08
3.35345e-09
-2.55562e-09
2.21375e-08
1.41529e-09
-6.39322e-09
3.92869e-08
2.30951e-09
-1.07713e-08
4.69526e-08
2.73987e-09
-1.52738e-08
5.25206e-08
2.88121e-09
-1.95878e-08
5.64742e-08
2.82046e-09
-2.34839e-08
5.91735e-08
2.62623e-09
-2.67785e-08
6.09055e-08
2.32339e-09
-2.93122e-08
6.18928e-08
1.9303e-09
-3.0964e-08
6.232e-08
1.45704e-09
-3.16381e-08
6.23358e-08
9.22044e-10
-3.12898e-08
6.20705e-08
3.48411e-10
-2.99186e-08
6.16328e-08
-2.24587e-10
-2.75888e-08
6.11216e-08
-7.61538e-10
-2.4402e-08
6.06178e-08
-1.229e-09
-2.04999e-08
6.01933e-08
-1.60891e-09
-1.60418e-08
5.99009e-08
-1.88581e-09
-1.12095e-08
5.97828e-08
-2.05472e-09
-6.19056e-09
5.98597e-08
-2.10856e-09
-1.18225e-09
6.01406e-08
-2.04845e-09
3.62805e-09
6.06124e-08
-1.87288e-09
8.0536e-09
6.12501e-08
-1.58851e-09
1.1926e-08
6.20073e-08
-1.20015e-09
1.50963e-08
6.2827e-08
-7.23185e-10
1.74477e-08
6.36326e-08
-1.75839e-10
1.89068e-08
6.43384e-08
4.07367e-10
1.94592e-08
6.48396e-08
9.90557e-10
1.91296e-08
6.50217e-08
1.53347e-09
1.79994e-08
6.47474e-08
2.01196e-09
1.6163e-08
6.38606e-08
2.40819e-09
1.37514e-08
6.21669e-08
2.71318e-09
1.091e-08
5.94337e-08
2.90934e-09
7.82077e-09
5.53598e-08
2.97489e-09
4.7282e-09
4.95696e-08
2.84935e-09
1.95975e-09
4.15579e-08
2.45397e-09
2.35588e-08
1.59758e-09
-1.82908e-09
2.44907e-08
-5.22667e-10
-5.4502e-09
4.2834e-08
7.29914e-11
-9.84026e-09
5.09707e-08
3.70269e-10
-1.45057e-08
5.67848e-08
4.02747e-10
-1.90733e-08
6.07944e-08
2.46269e-10
-2.32561e-08
6.33989e-08
-4.24202e-11
-2.68181e-08
6.49109e-08
-4.43503e-10
-2.95646e-08
6.55853e-08
-9.44653e-10
-3.13383e-08
6.5628e-08
-1.53548e-09
-3.20206e-08
6.52166e-08
-2.19876e-09
-3.15533e-08
6.45e-08
-2.89708e-09
-2.99469e-08
6.36136e-08
-3.58606e-09
-2.72775e-08
6.26718e-08
-4.21972e-09
-2.36726e-08
6.17785e-08
-4.76663e-09
-1.929e-08
6.10162e-08
-5.20411e-09
-1.43221e-08
6.0455e-08
-5.52269e-09
-8.96809e-09
6.01418e-08
-5.71417e-09
-3.43842e-09
6.01083e-08
-5.7775e-09
2.0513e-09
6.03612e-08
-5.70947e-09
7.28301e-09
6.08913e-08
-5.5127e-09
1.20584e-08
6.16644e-08
-5.18781e-09
1.61763e-08
6.26311e-08
-4.7425e-09
1.94711e-08
6.37187e-08
-4.18603e-09
2.18033e-08
6.48414e-08
-3.54113e-09
2.30871e-08
6.58924e-08
-2.83967e-09
2.33046e-08
6.67537e-08
-2.12838e-09
2.24906e-08
6.72858e-08
-1.45267e-09
2.07542e-08
6.73355e-08
-8.50857e-10
1.82358e-08
6.67205e-08
-3.40845e-10
1.51051e-08
6.52294e-08
6.75316e-11
1.15742e-08
6.26011e-08
3.6266e-10
7.89194e-09
5.85154e-08
5.27692e-10
4.38334e-09
5.2564e-08
5.13037e-10
1.47581e-09
4.42169e-08
2.49502e-10
2.53404e-08
-3.06217e-10
-1.31218e-09
2.77711e-08
-1.96933e-09
-4.67266e-09
4.78424e-08
-1.64583e-09
-8.92222e-09
5.67039e-08
-1.48468e-09
-1.35368e-08
6.29574e-08
-1.55742e-09
-1.81153e-08
6.71771e-08
-1.80418e-09
-2.23444e-08
6.98052e-08
-2.17787e-09
-2.59623e-08
7.11952e-08
-2.66514e-09
-2.87516e-08
7.16326e-08
-3.25952e-09
-3.05257e-08
7.13572e-08
-3.95377e-09
-3.11583e-08
7.0571e-08
-4.722e-09
-3.05901e-08
6.94526e-08
-5.52154e-09
-2.88365e-08
6.81575e-08
-6.29733e-09
-2.59866e-08
6.68256e-08
-7.00271e-09
-2.21812e-08
6.55752e-08
-7.60273e-09
-1.75942e-08
6.4509e-08
-8.07999e-09
-1.24197e-08
6.3706e-08
-8.42394e-09
-6.87423e-09
6.32266e-08
-8.63174e-09
-1.16869e-09
6.31046e-08
-8.70016e-09
4.46803e-09
6.3353e-08
-8.62999e-09
9.82351e-09
6.39574e-08
-8.41997e-09
1.46765e-08
6.48829e-08
-8.07285e-09
1.88309e-08
6.60677e-08
-7.59105e-09
2.21046e-08
6.74313e-08
-6.98473e-09
2.43474e-08
6.88693e-08
-6.27122e-09
2.54649e-08
7.02611e-08
-5.48551e-09
2.54269e-08
7.1465e-08
-4.67491e-09
2.42851e-08
7.23228e-08
-3.89532e-09
2.21601e-08
7.26532e-08
-3.19052e-09
1.92146e-08
7.22513e-08
-2.58724e-09
1.56633e-08
7.08742e-08
-2.09247e-09
1.17436e-08
6.82328e-08
-1.71196e-09
7.74745e-09
6.39693e-08
-1.45742e-09
4.04445e-09
5.76372e-08
-1.37053e-09
1.1115e-09
4.86558e-08
-1.50548e-09
2.82543e-08
-1.80272e-09
-1.11456e-09
3.16014e-08
-2.71378e-09
-4.2929e-09
5.35978e-08
-2.57951e-09
-8.35628e-09
6.32854e-08
-2.51625e-09
-1.28092e-08
7.00694e-08
-2.65994e-09
-1.72476e-08
7.4578e-08
-2.96255e-09
-2.13574e-08
7.73037e-08
-3.38848e-09
-2.48732e-08
7.86373e-08
-3.92754e-09
-2.75622e-08
7.89027e-08
-4.57931e-09
-2.92372e-08
7.83674e-08
-5.33477e-09
-2.97678e-08
7.7265e-08
-6.1647e-09
-2.90962e-08
7.57974e-08
-7.01769e-09
-2.72464e-08
7.41465e-08
-7.83635e-09
-2.43219e-08
7.247e-08
-8.57048e-09
-2.0466e-08
7.09079e-08
-9.18927e-09
-1.58554e-08
6.95752e-08
-9.67607e-09
-1.06905e-08
6.85663e-08
-1.00255e-08
-5.17473e-09
6.79475e-08
-1.02349e-08
4.72553e-10
6.77611e-08
-1.03051e-08
6.04205e-09
6.80191e-08
-1.02356e-08
1.13174e-08
6.87089e-08
-1.00264e-08
1.60891e-08
6.97879e-08
-9.67665e-09
2.01563e-08
7.11889e-08
-9.1884e-09
2.33378e-08
7.28169e-08
-8.56681e-09
2.54788e-08
7.45557e-08
-7.8283e-09
2.64803e-08
7.62642e-08
-7.00375e-09
2.63053e-08
7.77834e-08
-6.14367e-09
2.50042e-08
7.89297e-08
-5.30611e-09
2.27013e-08
7.94994e-08
-4.5432e-09
1.95799e-08
7.92573e-08
-3.88483e-09
1.58621e-08
7.79335e-08
-3.34002e-09
1.18003e-08
7.52024e-08
-2.9089e-09
7.69946e-09
7.06704e-08
-2.60054e-09
3.94235e-09
6.38426e-08
-2.44745e-09
1.00411e-09
5.40874e-08
-2.49411e-09
3.18714e-08
-2.61217e-09
-1.14988e-09
3.55824e-08
-2.83177e-09
-4.28039e-09
5.9494e-08
-2.76515e-09
-8.26311e-09
7.00092e-08
-2.74152e-09
-1.26123e-08
7.73301e-08
-2.91074e-09
-1.69419e-08
8.21413e-08
-3.23314e-09
-2.09414e-08
8.49801e-08
-3.67688e-09
-2.43475e-08
8.62782e-08
-4.23593e-09
-2.69263e-08
8.63915e-08
-4.9094e-09
-2.84899e-08
8.562e-08
-5.68833e-09
-2.89096e-08
8.42232e-08
-6.53879e-09
-2.8137e-08
8.24305e-08
-7.40683e-09
-2.6203e-08
8.04451e-08
-8.23123e-09
-2.32162e-08
7.84476e-08
-8.96363e-09
-1.93295e-08
7.65935e-08
-9.57436e-09
-1.47172e-08
7.50156e-08
-1.00514e-08
-9.57783e-09
7.38181e-08
-1.0391e-08
-4.1141e-09
7.3078e-08
-1.05946e-08
1.46966e-09
7.28398e-08
-1.06628e-08
6.96491e-09
7.31199e-08
-1.05965e-08
1.21677e-08
7.39018e-08
-1.03946e-08
1.68698e-08
7.51409e-08
-1.00562e-08
2.08795e-08
7.67598e-08
-9.57968e-09
2.40111e-08
7.86541e-08
-8.96857e-09
2.61119e-08
8.06904e-08
-8.23475e-09
2.70701e-08
8.27122e-08
-7.40783e-09
2.68523e-08
8.45383e-08
-6.53638e-09
2.55001e-08
8.59643e-08
-5.682e-09
2.31382e-08
8.67595e-08
-4.89908e-09
1.99544e-08
8.66632e-08
-4.22181e-09
1.61737e-08
8.5374e-08
-3.6593e-09
1.20537e-08
8.25346e-08
-3.21224e-09
7.89839e-09
7.77117e-08
-2.88607e-09
4.08549e-09
7.03662e-08
-2.71075e-09
1.0856e-09
5.98118e-08
-2.72406e-09
3.57364e-08
-2.7801e-09
-1.36606e-09
3.94039e-08
-2.45639e-09
-4.59126e-09
6.50684e-08
-2.34882e-09
-8.60709e-09
7.63372e-08
-2.31109e-09
-1.29524e-08
8.41428e-08
-2.46856e-09
-1.72463e-08
8.92184e-08
-2.78095e-09
-2.11959e-08
9.21442e-08
-3.21726e-09
-2.45331e-08
9.33861e-08
-3.77089e-09
-2.70338e-08
9.33333e-08
-4.44134e-09
-2.85081e-08
9.23126e-08
-5.21727e-09
-2.88335e-08
9.06117e-08
-6.06349e-09
-2.79642e-08
8.84836e-08
-6.92272e-09
-2.5941e-08
8.61561e-08
-7.73361e-09
-2.28748e-08
8.38293e-08
-8.4481e-09
-1.8921e-08
8.1679e-08
-9.04011e-09
-1.42566e-08
7.98519e-08
-9.49967e-09
-9.07972e-09
7.84665e-08
-9.82647e-09
-3.58577e-09
7.76062e-08
-1.00221e-08
2.01965e-09
7.73229e-08
-1.00882e-08
7.53112e-09
7.76323e-08
-1.00244e-08
1.27467e-08
7.85187e-08
-9.83095e-09
1.74624e-08
7.99304e-08
-9.50604e-09
2.14859e-08
8.17839e-08
-9.04792e-09
2.46371e-08
8.39605e-08
-8.45683e-09
2.67561e-08
8.63133e-08
-7.74264e-09
2.77351e-08
8.86657e-08
-6.9314e-09
2.75267e-08
9.08172e-08
-6.07125e-09
2.61763e-08
9.2539e-08
-5.22371e-09
2.38032e-08
9.35774e-08
-4.44626e-09
2.05982e-08
9.36436e-08
-3.77422e-09
1.67816e-08
9.24098e-08
-3.21894e-09
1.26114e-08
8.94858e-08
-2.78079e-09
8.3845e-09
8.44047e-08
-2.46593e-09
4.46851e-09
7.65852e-08
-2.30417e-09
1.32343e-09
6.52928e-08
-2.33455e-09
3.94933e-08
-2.43364e-09
-1.70398e-09
4.28417e-08
-1.73257e-09
-5.12009e-09
6.99891e-08
-1.50685e-09
-9.25138e-09
8.18886e-08
-1.41858e-09
-1.36588e-08
9.00878e-08
-1.53836e-09
-1.79809e-08
9.53615e-08
-1.82149e-09
-2.19241e-08
9.83237e-08
-2.23337e-09
-2.52441e-08
9.94698e-08
-2.76618e-09
-2.77091e-08
9.92156e-08
-3.41835e-09
-2.91309e-08
9.79134e-08
-4.17693e-09
-2.93893e-08
9.58753e-08
-5.00516e-09
-2.84403e-08
9.3379e-08
-5.84479e-09
-2.6326e-08
9.06759e-08
-6.63425e-09
-2.31587e-08
8.79884e-08
-7.32727e-09
-1.90926e-08
8.55132e-08
-7.89961e-09
-1.43109e-08
8.34138e-08
-8.34342e-09
-9.008e-09
8.18224e-08
-8.65907e-09
-3.38475e-09
8.0833e-08
-8.8485e-09
2.34474e-09
8.0503e-08
-8.9124e-09
7.97884e-09
8.08499e-08
-8.85073e-09
1.33064e-08
8.18563e-08
-8.66343e-09
1.81201e-08
8.34652e-08
-8.34975e-09
2.2229e-08
8.55824e-08
-7.90764e-09
2.54508e-08
8.8076e-08
-7.33668e-09
2.76273e-08
9.07818e-08
-6.6447e-09
2.86454e-08
9.35029e-08
-5.85593e-09
2.84624e-08
9.60163e-08
-5.01663e-09
2.71207e-08
9.80701e-08
-4.18845e-09
2.47419e-08
9.93858e-08
-3.42969e-09
2.15121e-08
9.96506e-08
-2.77715e-09
1.76552e-08
9.85116e-08
-2.24374e-09
1.3418e-08
9.55522e-08
-1.83089e-09
9.09384e-09
9.02764e-08
-1.5461e-09
5.03174e-09
8.20695e-08
-1.42302e-09
1.67237e-09
7.01561e-08
-1.50539e-09
4.28911e-08
-1.7237e-09
-2.09634e-09
4.57806e-08
-8.43397e-10
-5.73071e-09
7.40886e-08
-4.64069e-10
-1.00095e-08
8.64737e-08
-3.08318e-10
-1.45061e-08
9.49637e-08
-3.77948e-10
-1.8886e-08
1.00364e-07
-6.22014e-10
-2.28714e-08
1.03311e-07
-1.00136e-09
-2.62196e-08
1.04322e-07
-1.50629e-09
-2.86994e-08
1.03832e-07
-2.1338e-09
-3.01291e-08
1.02212e-07
-2.87004e-09
-3.03701e-08
9.97951e-08
-3.67742e-09
-2.93789e-08
9.68835e-08
-4.49755e-09
-2.7186e-08
9.37531e-08
-5.26932e-09
-2.39013e-08
9.06528e-08
-5.94757e-09
-1.96841e-08
8.78037e-08
-6.5087e-09
-1.47166e-08
8.53913e-08
-6.94496e-09
-9.20251e-09
8.35647e-08
-7.25605e-09
-3.35677e-09
8.24291e-08
-7.44302e-09
2.60605e-09
8.20474e-08
-7.50584e-09
8.46028e-09
8.24401e-08
-7.445e-09
1.39907e-08
8.35869e-08
-7.25996e-09
1.89783e-08
8.54253e-08
-6.95065e-09
2.32283e-08
8.78503e-08
-6.51598e-09
2.65474e-08
9.07125e-08
-5.95623e-09
2.87816e-08
9.38264e-08
-5.27913e-09
2.9823e-08
9.69703e-08
-4.50831e-09
2.96332e-08
9.98948e-08
-3.68891e-09
2.82629e-08
1.02323e-07
-2.88208e-09
2.58412e-08
1.03953e-07
-2.14622e-09
2.25582e-08
1.04452e-07
-1.51889e-09
1.86381e-08
1.03446e-07
-1.01389e-09
1.43225e-08
1.00502e-07
-6.34109e-10
9.88388e-09
9.5102e-08
-3.8891e-10
5.66481e-09
8.66086e-08
-3.1673e-10
2.0706e-09
7.42163e-08
-4.67739e-10
4.58027e-08
-8.41049e-10
-2.42406e-09
4.81846e-08
2.13974e-11
-6.22847e-09
7.73478e-08
5.44693e-10
-1.06074e-08
9.00836e-08
7.6737e-10
-1.5167e-08
9.87768e-08
7.48546e-10
-1.95997e-08
1.0425e-07
5.45735e-10
-2.36444e-08
1.07154e-07
2.01491e-10
-2.70661e-08
1.08017e-07
-2.73565e-10
-2.96367e-08
1.0728e-07
-8.75982e-10
-3.11615e-08
1.05326e-07
-1.59198e-09
-3.14816e-08
1.02501e-07
-2.38445e-09
-3.05268e-08
9.91238e-08
-3.19548e-09
-2.83086e-08
9.54998e-08
-3.96413e-09
-2.49257e-08
9.19131e-08
-4.64413e-09
-2.05365e-08
8.86242e-08
-5.20995e-09
-1.53392e-08
8.5847e-08
-5.65268e-09
-9.55322e-09
8.37494e-08
-5.97016e-09
-3.4104e-09
8.24471e-08
-6.16213e-09
2.85805e-09
8.20074e-08
-6.2271e-09
9.00765e-09
8.24543e-08
-6.164e-09
1.48027e-08
8.37642e-08
-5.97381e-09
2.00179e-08
8.587e-08
-5.65793e-09
2.44285e-08
8.86564e-08
-5.21656e-09
2.78368e-08
9.19552e-08
-4.65187e-09
3.00846e-08
9.55523e-08
-3.97277e-09
3.10706e-08
9.91867e-08
-3.20488e-09
3.07879e-08
1.02574e-07
-2.39451e-09
2.93056e-08
1.05407e-07
-1.60263e-09
2.67783e-08
1.07368e-07
-8.87151e-10
2.34041e-08
1.08111e-07
-2.8514e-10
1.94085e-08
1.07253e-07
1.89733e-10
1.5026e-08
1.04351e-07
5.34112e-10
1.05103e-08
9.88792e-08
7.37598e-10
6.17654e-09
9.01854e-08
7.58277e-10
2.40583e-09
7.74475e-08
5.39275e-10
4.81879e-08
2.03231e-11
-2.58131e-09
5.00606e-08
7.03865e-10
-6.42845e-09
7.98447e-08
1.35252e-09
-1.08075e-08
9.28327e-08
1.6285e-09
-1.53523e-08
1.01668e-07
1.65525e-09
-1.97838e-08
1.07186e-07
1.49369e-09
-2.38618e-08
1.10045e-07
1.18742e-09
-2.73683e-08
1.10776e-07
7.47044e-10
-3.00906e-08
1.09827e-07
1.74114e-10
-3.18181e-08
1.07577e-07
-5.21525e-10
-3.23851e-08
1.04375e-07
-1.30799e-09
-3.1676e-08
1.00551e-07
-2.13615e-09
-2.96009e-08
9.63704e-08
-2.94348e-09
-2.61919e-08
9.21672e-08
-3.66575e-09
-2.16198e-08
8.83149e-08
-4.26107e-09
-1.61481e-08
8.50941e-08
-4.71944e-09
-1.00282e-08
8.26735e-08
-5.04422e-09
-3.52143e-09
8.11795e-08
-5.23852e-09
3.11499e-09
8.06748e-08
-5.30387e-09
9.62675e-09
8.11843e-08
-5.24031e-09
1.57515e-08
8.26835e-08
-5.04775e-09
2.12388e-08
8.51102e-08
-4.72456e-09
2.58239e-08
8.83382e-08
-4.26752e-09
2.9253e-08
9.2199e-08
-3.67308e-09
3.13462e-08
9.6411e-08
-2.95122e-09
3.20768e-08
1.00599e-07
-2.1441e-09
3.1538e-08
1.0443e-07
-1.31635e-09