/*--------------------------------*- C++ -*----------------------------------*\
| =========                 |                                                 |
| \\      /  F ield         | OpenFOAM: The Open Source CFD Toolbox           |
|  \\    /   O peration     | Version:  v2006                                 |
|   \\  /    A nd           | Website:  www.openfoam.com                      |
|    \\/     M anipulation  |                                                 |
\*---------------------------------------------------------------------------*/
FoamFile
{
    version     2.0;
    format      ascii;
    class       volScalarField;
    location    "30";
    object      T;
}
// * * * * * * * * * * * * * * * * * * * * * * * * * * * * * * * * * * * * * //

dimensions      [0 0 0 1 0 0 0];


internalField   nonuniform List<scalar> 
78750
(
316.614
317.605
318.381
319.644
321.208
321.636
322.793
323.452
324.312
325.068
325.815
326.552
327.271
327.978
328.675
329.362
330.044
330.722
331.402
332.091
332.8
333.541
334.332
335.191
336.141
337.21
338.432
339.854
341.55
343.63
346.288
349.96
355.943
369.853
429.179
299.885
302.73
303.388
303.168
303.854
305.006
306.247
307.527
308.805
310.092
311.39
312.692
313.993
315.284
316.555
317.791
318.974
320.085
321.107
322.023
322.821
323.494
324.042
324.471
324.797
325.051
325.286
325.593
326.116
327.074
328.841
332.197
339.489
359.41
426.591
312.686
317.956
319.237
319.754
319.793
319.641
319.488
319.424
319.465
319.613
319.868
320.226
320.688
321.248
321.899
322.624
323.398
324.188
324.965
325.707
326.406
327.063
327.662
328.181
328.615
328.973
329.294
329.644
330.122
330.928
332.568
336.382
345.998
369.894
433.317
308.936
315.437
317.749
318.932
319.707
320.297
320.77
321.164
321.512
321.843
322.179
322.539
322.932
323.364
323.833
324.331
324.852
325.407
326.003
326.63
327.27
327.896
328.472
328.975
329.365
329.585
329.621
329.557
329.566
329.871
330.844
333.473
341.196
363.967
428.728
308.261
314.818
317.459
319
320.113
320.994
321.725
322.357
322.923
323.45
323.957
324.457
324.96
325.468
325.982
326.512
327.066
327.649
328.259
328.893
329.548
330.211
330.87
331.506
332.097
332.636
333.142
333.667
334.335
335.424
337.62
342.711
354.923
380.072
436.491
310.458
317.663
320.397
321.965
323.049
323.839
324.429
324.881
325.235
325.524
325.769
325.989
326.198
326.403
326.611
326.826
327.052
327.291
327.547
327.826
328.135
328.484
328.879
329.327
329.835
330.41
331.064
331.82
332.73
333.92
335.755
339.49
349.453
373.957
432.636
315.484
323.848
326.76
328.321
329.277
329.902
330.355
330.718
331.028
331.302
331.543
331.761
331.965
332.165
332.373
332.603
332.867
333.174
333.531
333.936
334.371
334.799
335.178
335.479
335.693
335.821
335.885
335.943
336.121
336.666
338.12
341.932
352.452
375.965
429.11
308.609
315.973
319.473
322.025
324.057
325.696
327.059
328.203
329.158
329.939
330.549
331
331.302
331.483
331.556
331.54
331.474
331.392
331.324
331.295
331.331
331.458
331.709
332.131
332.802
333.857
335.378
337.123
338.807
340.624
343.553
350.455
366.705
390.447
434.515
309.019
318.216
322.926
326.217
328.736
330.768
332.474
333.942
335.212
336.303
337.217
337.955
338.517
338.921
339.172
339.272
339.231
339.063
338.792
338.439
338.021
337.548
337.028
336.479
335.951
335.553
335.522
336.345
338.532
342.076
347.259
356.184
372.709
394.797
434.769
310.337
318.22
322.702
325.949
328.338
330.262
331.925
333.387
334.655
335.713
336.534
337.097
337.41
337.522
337.541
337.596
337.737
337.936
338.156
338.383
338.609
338.811
338.953
338.992
338.895
338.659
338.345
338.15
338.403
339.441
341.976
348.334
363.32
385.564
427.422
304.608
313.698
321.777
327.456
331.229
334.024
336.26
338.039
339.394
340.345
340.915
341.132
341.031
340.656
340.074
339.348
338.566
337.87
337.404
337.202
337.206
337.359
337.634
338.001
338.398
338.732
338.937
339.141
339.792
341.632
345.416
352.695
366.668
387.91
429.184
313.89
328.795
335.822
339.481
341.559
342.649
343.159
343.335
343.315
343.152
342.849
342.428
341.955
341.487
341.032
340.573
340.098
339.63
339.228
338.937
338.773
338.733
338.805
338.976
339.226
339.512
339.737
339.802
339.828
340.444
342.858
349.146
362.215
382.27
423.91
326.302
339.362
344.419
345.969
345.133
344.143
343.549
343.259
343.139
343.058
342.885
342.545
342.053
341.454
340.765
339.979
339.152
338.398
337.777
337.296
336.987
336.884
336.988
337.287
337.782
338.485
339.347
340.179
340.951
342.297
345.73
353.447
367.008
386.65
426.984
322.295
335.694
339.059
340.245
341.15
341.411
341.309
341.239
341.3
341.478
341.668
341.738
341.607
341.255
340.695
339.965
339.153
338.365
337.654
337.053
336.613
336.382
336.373
336.578
337.003
337.686
338.693
340.077
341.998
345.07
350.459
359.604
372.813
391.526
431.281
315.219
326.367
331.555
335.931
340.906
344.054
344.06
343.106
342.315
341.737
341.302
340.961
340.669
340.384
340.064
339.683
339.244
338.778
338.323
337.912
337.581
337.362
337.286
337.371
337.635
338.117
338.911
340.238
342.589
346.842
353.721
363.454
375.81
393.434
433.07
311.865
324.867
331.68
335.994
340.19
344.642
346.129
344.336
342.657
341.737
341.129
340.634
340.187
339.766
339.363
338.977
338.613
338.277
337.982
337.742
337.572
337.491
337.514
337.653
337.91
338.289
338.823
339.654
341.224
344.664
351.512
361.856
374.4
391.784
431.418
316.412
330.105
335.025
337.647
339.878
342.923
347.217
348.852
346.561
344.214
342.724
341.736
340.972
340.31
339.716
339.179
338.693
338.257
337.881
337.575
337.354
337.232
337.227
337.355
337.62
338.011
338.508
339.128
340.036
341.901
346.657
356.422
369.959
388.185
428.508
315.71
326.407
330.257
332.825
335.254
337.642
340.701
345.447
348.01
347.676
346.181
344.545
343.248
342.292
341.467
340.641
339.839
339.1
338.436
337.854
337.373
337.015
336.801
336.751
336.874
337.168
337.601
338.128
338.737
339.627
342.154
349.998
364.205
383.754
425.218
312.007
323.441
329.118
332.421
334.785
336.654
338.151
339.711
342.478
345.536
347.189
347.388
346.054
343.71
341.689
340.678
340.283
339.959
339.484
338.901
338.301
337.747
337.292
336.986
336.875
336.986
337.315
337.811
338.405
339.172
341.269
348.587
362.971
383.223
425.315
308.387
319.736
326.773
330.962
333.79
336.134
338.421
340.596
342.234
343.671
345.52
347.92
350.115
351.161
349.834
346.036
342.351
340.211
339.18
338.656
338.321
338.049
337.805
337.603
337.493
337.544
337.826
338.372
339.197
340.505
343.548
351.533
365.483
385.453
427.892
311.22
323.432
329.936
333.751
336.491
338.78
340.778
342.563
344.322
345.986
347.139
347.814
348.387
349.028
350.043
350.866
349.446
347.071
344.981
343.298
341.931
340.826
339.961
339.327
338.924
338.771
338.919
339.445
340.485
342.457
346.674
355.368
368.587
387.871
430.776
310.554
323.724
331.252
335.712
338.939
341.799
344.553
347.08
349.071
350.409
351.29
352.017
352.728
353.15
353.34
353.763
352.254
348.2
344.942
343.1
342.024
341.31
340.793
340.423
340.212
340.213
340.52
341.289
342.806
345.675
351.085
360.293
372.871
391.701
434.844
314.683
330.099
336.803
340.549
343.769
347.207
350.402
352.688
354.148
355.129
355.607
355.547
355.279
355.042
354.81
354.148
351.91
348.338
345.223
343.494
342.638
342.216
342.025
341.995
342.138
342.524
343.281
344.621
346.899
350.722
356.968
366.239
378.195
396.614
439.548
316.312
331.595
337.918
341.9
346.174
350.9
354.112
355.202
355.015
354.546
354.305
354.393
354.755
355.358
356.303
357.477
355.072
349.134
345.645
344.087
343.348
343.071
343.091
343.329
343.79
344.549
345.756
347.652
350.6
355.108
361.738
370.745
382.042
399.853
442.328
319.592
335.628
341.467
345.991
352.15
357.669
359.498
358.818
357.738
356.583
355.25
354.026
353.128
352.276
351.092
349.5
347.415
345.508
344.482
343.99
343.876
344.049
344.449
345.067
345.941
347.164
348.889
351.352
354.871
359.836
366.603
375.313
386.157
403.534
444.907
319.34
334.483
340.174
344.796
350.503
354.975
355.403
353.285
351.892
351.447
350.835
350.077
349.458
348.642
347.583
346.488
345.51
344.828
344.489
344.412
344.568
344.943
345.542
346.395
347.562
349.142
351.28
354.176
358.096
363.34
370.166
378.686
389.208
406.13
446.5
318.897
333.736
339.119
343.176
348.597
355.493
359.789
357.764
352.752
349.175
347.949
347.601
347.25
346.875
346.473
346.108
345.841
345.714
345.724
345.856
346.111
346.505
347.075
347.882
349.018
350.61
352.831
355.894
360.043
365.515
372.469
380.96
391.355
408.118
448.218
316.722
330.971
336.278
339.552
343.009
347.946
354.456
358.932
358.546
354.874
350.467
347.919
347.043
346.513
346.158
345.993
346.019
346.218
346.57
347.05
347.638
348.323
349.113
350.045
351.194
352.691
354.733
357.589
361.578
366.986
373.941
382.418
392.777
409.538
449.695
316.319
330.773
336.602
340.271
343.9
348.117
353.082
358.333
361.205
359.92
355.531
350.26
347.222
346.297
345.924
345.746
345.734
345.907
346.281
346.866
347.663
348.673
349.887
351.303
352.935
354.837
357.13
360.033
363.867
368.988
375.623
383.805
393.895
410.326
450.109
315.437
329.214
334.857
338.25
341.416
345.197
349.905
354.891
359.049
360.674
359.381
355.678
350.941
347.9
346.629
346.047
345.759
345.675
345.787
346.112
346.676
347.513
348.66
350.157
352.04
354.347
357.132
360.496
364.619
369.764
376.191
384.051
393.734
409.495
448.733
315.434
329.459
335.344
338.867
342.058
345.735
350.329
355.417
359.71
362.125
361.918
359.439
354.994
350.163
347.475
346.306
345.722
345.415
345.307
345.391
345.679
346.2
346.997
348.134
349.701
351.806
354.57
358.125
362.605
368.146
374.88
382.911
392.6
408.119
447.186
314.868
328.647
334.533
337.987
340.925
344.038
347.837
352.541
357.38
360.972
362.253
361.191
358.322
353.934
349.825
347.422
346.186
345.507
345.135
344.991
345.057
345.341
345.863
346.665
347.824
349.47
351.789
355.021
359.436
365.247
372.49
381.064
391.17
406.978
446.261
314.668
329.066
335.4
339.12
342.296
345.649
349.458
353.604
357.784
361.368
363.327
362.968
360.717
357.122
352.893
349.491
347.376
346.117
345.368
344.96
344.823
344.938
345.309
345.956
346.925
348.324
350.341
353.263
357.451
363.241
370.722
379.669
390.144
406.332
445.899
314.713
329.29
335.674
339.386
342.465
345.587
349.096
352.935
356.677
360.108
362.697
363.472
362.126
359.3
355.728
352.264
349.57
347.692
346.438
345.655
345.247
345.164
345.388
345.921
346.781
348.041
349.88
352.603
356.61
362.262
369.685
378.695
389.353
405.939
446.234
315.159
330.455
337.121
341.043
344.398
347.912
351.853
355.882
359.266
361.812
363.692
364.491
363.536
360.95
357.563
354.32
351.672
349.612
348.045
346.933
346.257
345.998
346.14
346.681
347.611
348.942
350.788
353.447
357.357
362.917
370.272
379.295
390.166
407.425
448.768
316.169
331.675
338.1
341.895
345.177
348.574
352.349
356.27
359.647
362.068
363.689
364.528
364.101
362.152
359.163
356.113
353.61
351.622
350.001
348.717
347.825
347.393
347.469
348.092
349.287
351.038
353.338
356.339
360.416
365.997
373.303
382.317
393.359
411.145
452.623
317.08
332.985
339.493
343.414
346.918
350.637
354.772
358.926
362.292
364.403
365.427
365.644
364.949
363.101
360.304
357.348
354.953
353.115
351.613
350.357
349.392
348.839
348.834
349.5
350.946
353.24
356.353
360.209
364.882
370.651
377.818
386.582
397.47
415.1
455.309
317.919
333.865
340.165
343.96
347.346
350.846
354.643
358.531
361.91
364.224
365.44
365.796
365.347
363.96
361.675
358.965
356.555
354.698
353.232
352.006
350.997
350.288
350.04
350.444
351.686
353.945
357.346
361.844
367.248
373.468
380.668
389.19
399.732
416.769
455.754
318.609
334.837
341.236
345.145
348.695
352.401
356.398
360.412
363.826
366.052
366.995
366.948
366.147
364.689
362.652
360.257
357.952
356.074
354.608
353.419
352.431
351.661
351.215
351.277
352.065
353.792
356.682
360.911
366.459
373.096
380.677
389.37
399.874
416.744
455.728
318.998
335.186
341.466
345.275
348.685
352.137
355.765
359.482
362.915
365.481
366.866
367.198
366.677
365.437
363.638
361.491
359.289
357.343
355.779
354.549
353.572
352.816
352.331
352.258
352.808
354.196
356.622
360.322
365.534
372.272
380.267
389.329
400.003
417.108
456.677
319.555
335.984
342.363
346.282
349.847
353.487
357.271
361.035
364.432
366.956
368.222
368.336
367.599
366.254
364.501
362.504
360.42
358.436
356.718
355.34
354.285
353.519
353.056
353.007
353.588
355.058
357.609
361.359
366.484
373.152
381.216
390.33
400.935
418.016
457.657
319.638
335.921
342.17
345.984
349.424
352.88
356.413
359.958
363.357
366.235
368.073
368.691
368.277
367.13
365.538
363.722
361.817
359.913
358.108
356.514
355.216
354.249
353.633
353.45
353.903
355.321
358.038
362.205
367.771
374.638
382.636
391.514
401.77
418.39
457.548
319.934
336.311
342.633
346.538
350.123
353.782
357.506
361.121
364.437
367.201
369.012
369.621
369.161
368.011
366.563
364.993
363.36
361.679
359.975
358.314
356.804
355.545
354.609
354.073
354.087
354.952
357.127
361.045
366.813
374.084
382.318
391.168
401.155
417.266
456.22
319.673
335.711
341.821
345.579
349.043
352.607
356.252
359.811
363.195
366.288
368.687
369.884
369.746
368.628
367.229
365.871
364.56
363.23
361.826
360.347
358.852
357.443
356.231
355.316
354.818
354.947
356.105
358.905
363.924
371.179
379.902
389.229
399.372
415.391
454.682
319.379
335.287
341.478
345.317
348.901
352.679
356.585
360.287
363.576
366.461
368.866
370.372
370.559
369.446
367.888
366.568
365.45
364.396
363.301
362.11
360.822
359.487
358.194
357.053
356.182
355.734
355.986
357.483
361.077
367.489
376.397
386.459
397.13
413.484
453.452
318.774
334.077
339.988
343.643
347.092
350.853
354.923
358.91
362.463
365.535
368.171
370.17
371.063
370.417
368.61
367.054
365.961
365.084
364.242
363.34
362.334
361.225
360.052
358.897
357.874
357.124
356.857
357.495
359.883
365.188
373.809
384.364
395.582
412.474
453.168
317.994
332.923
338.919
342.627
346.083
349.881
354.119
358.393
362.189
365.341
367.952
370.048
371.374
371.476
369.928
367.865
366.526
365.636
364.907
364.192
363.42
362.559
361.606
360.597
359.616
358.8
358.353
358.647
360.458
365.053
373.239
383.833
395.297
412.619
453.913
317.051
331.475
337.361
340.957
344.26
347.93
352.208
356.779
360.983
364.455
367.26
369.546
371.244
372.049
371.42
369.174
367.212
366.1
365.37
364.757
364.154
363.512
362.811
362.058
361.303
360.668
360.368
360.782
362.635
367.085
374.929
385.177
396.548
414.06
455.516
316.392
330.912
337.098
340.819
344.071
347.504
351.462
355.905
360.285
364.035
367.006
369.332
371.113
372.246
372.432
371.034
368.504
366.819
365.889
365.26
364.729
364.226
363.727
363.236
362.796
362.521
362.626
363.49
365.755
370.36
377.893
387.583
398.641
416.062
457.088
315.78
330.79
337.3
341.124
344.339
347.592
351.215
355.295
359.511
363.322
366.45
368.937
370.879
372.244
372.889
372.468
370.403
367.936
366.525
365.739
365.197
364.758
364.386
364.093
363.937
364.049
364.664
366.142
368.99
373.853
381.084
390.164
400.81
417.917
458.099
316.097
332.219
339.216
343.272
346.586
349.732
352.911
356.278
359.885
363.415
366.458
368.902
370.822
372.249
373.106
373.234
372.194
369.747
367.585
366.413
365.732
365.262
364.917
364.701
364.678
365.002
365.943
367.885
371.246
376.392
383.442
392.06
402.319
419.023
458.414
316.47
333.659
340.971
345.222
348.797
352.211
355.367
358.22
361.035
363.913
366.609
368.92
370.812
372.282
373.26
373.655
373.269
371.639
369.129
367.343
366.377
365.799
365.419
365.201
365.197
365.552
366.551
368.634
372.256
377.655
384.723
393.143
403.173
419.596
458.508
317.826
335.952
343.353
347.795
351.825
355.738
358.96
361.359
363.413
365.522
367.637
369.555
371.191
372.519
373.475
373.969
373.895
372.978
370.919
368.665
367.269
366.49
366.019
365.749
365.698
365.983
366.865
368.802
372.358
377.847
385.054
393.518
403.497
419.817
458.588
318.986
337.453
344.805
349.541
354.398
359.109
362.461
364.496
365.932
367.329
368.826
370.313
371.679
372.854
373.753
374.278
374.349
373.817
372.385
370.187
368.363
367.318
366.736
366.422
366.343
366.581
367.358
369.105
372.444
377.851
385.156
393.734
403.751
420.082
458.839
321.073
339.59
346.943
352.253
358.37
363.575
366.529
367.992
368.896
369.737
370.664
371.643
372.603
373.478
374.188
374.636
374.737
374.392
373.4
371.618
369.649
368.319
367.593
367.229
367.14
367.374
368.114
369.742
372.867
378.069
385.313
393.919
403.942
420.266
459.039
322.979
340.945
348.623
354.907
362.427
367.465
369.647
370.544
371.079
371.591
372.177
372.833
373.517
374.17
374.717
375.072
375.156
374.89
374.138
372.743
370.909
369.388
368.523
368.131
368.076
368.371
369.169
370.8
373.814
378.797
385.835
394.331
404.307
420.602
459.32
324.829
342.073
350.189
357.434
365.521
370.131
371.908
372.608
372.98
373.288
373.626
374.016
374.447
374.881
375.262
375.515
375.57
375.356
374.766
373.671
372.103
370.542
369.523
369.071
369.04
369.41
370.3
371.995
374.966
379.75
386.52
394.839
404.748
420.999
459.599
324.773
341.263
348.916
355.794
363.537
368.933
371.803
373.246
373.996
374.436
374.759
375.052
375.348
375.639
375.891
376.049
376.056
375.85
375.342
374.428
373.093
371.619
370.512
370
369.996
370.45
371.454
373.254
376.248
380.904
387.433
395.571
405.439
421.696
460.074
323.032
339.029
345.353
350.268
356.374
362.949
368.248
371.732
373.702
374.736
375.301
375.662
375.941
376.184
376.389
376.522
376.536
376.375
375.96
375.198
374.051
372.691
371.527
370.914
370.888
371.393
372.488
374.383
377.424
382.014
388.377
396.379
406.225
422.489
460.589
320.311
336.085
342.236
346.035
349.915
355.186
361.522
367.422
371.716
374.216
375.504
376.172
376.551
376.795
376.962
377.059
377.06
376.918
376.565
375.905
374.893
373.649
372.497
371.812
371.751
372.286
373.454
375.435
378.533
383.104
389.361
397.258
407.088
423.38
461.21
318.872
336.118
343.593
347.775
350.87
353.787
357.698
362.935
368.344
372.422
374.802
376.048
376.718
377.11
377.351
377.489
377.526
377.436
377.164
376.62
375.734
374.593
373.473
372.733
372.615
373.156
374.378
376.431
379.59
384.166
390.359
398.169
407.966
424.257
461.839
319.339
338.645
347.237
352.282
356.163
359.224
361.677
364.359
368.079
372.007
374.768
376.292
377.094
377.544
377.81
377.956
377.997
377.925
377.701
377.245
376.474
375.44
374.394
373.663
373.516
374.055
375.314
377.423
380.626
385.202
391.333
399.054
408.821
425.152
462.528
321.353
340.965
349.199
354.303
358.795
362.949
366.386
368.706
370.552
373.018
375.282
376.694
377.477
377.929
378.207
378.367
378.425
378.377
378.198
377.826
377.176
376.264
375.314
374.639
374.506
375.065
376.38
378.564
381.83
386.419
392.492
400.118
409.841
426.19
463.265
323.171
341.969
349.657
354.61
359.299
364.101
368.6
371.975
373.833
375.227
376.636
377.6
378.163
378.502
378.716
378.839
378.879
378.829
378.671
378.358
377.818
377.041
376.216
375.64
375.56
376.146
377.496
379.722
383.014
387.584
393.579
401.093
410.758
427.106
463.868
324.45
343.123
350.704
355.62
360.217
364.84
369.302
373.018
375.438
376.757
377.738
378.411
378.816
379.068
379.228
379.318
379.339
379.286
379.147
378.887
378.452
377.82
377.135
376.684
376.704
377.361
378.777
381.07
384.399
388.94
394.83
402.192
411.74
427.995
464.368
325.317
344.35
352
357.019
361.704
366.253
370.478
374.039
376.583
377.996
378.768
379.233
379.507
379.676
379.779
379.829
379.825
379.762
379.632
379.413
379.067
378.573
378.032
377.705
377.826
378.538
379.974
382.264
385.554
390.002
395.739
402.914
412.295
428.405
464.585
325.926
344.685
352.068
356.954
361.578
366.114
370.388
374.102
376.93
378.663
379.515
379.933
380.149
380.27
380.334
380.354
380.329
380.257
380.134
379.947
379.673
379.299
378.894
378.69
378.933
379.741
381.231
383.541
386.806
391.159
396.724
403.678
412.856
428.801
464.831
325.848
344.141
351.353
356.16
360.734
365.267
369.629
373.576
376.811
379.014
380.141
380.607
380.798
380.882
380.912
380.904
380.858
380.773
380.649
380.481
380.257
379.97
379.671
379.554
379.887
380.783
382.302
384.577
387.758
391.98
397.37
404.112
413.055
428.779
464.86
325.451
343.564
350.637
355.277
359.617
363.898
368.089
372.069
375.662
378.541
380.338
381.134
381.409
381.493
381.504
381.475
381.41
381.313
381.184
381.024
380.83
380.599
380.37
380.3
380.673
381.662
383.261
385.549
388.691
392.835
398.106
404.699
413.498
429.127
465.169
325.086
343.277
350.294
354.823
359.008
363.088
367.008
370.685
374.119
377.261
379.788
381.293
381.906
382.085
382.107
382.067
381.988
381.877
381.739
381.579
381.397
381.197
381.003
380.935
381.27
382.294
384.019
386.399
389.545
393.629
398.802
405.258
413.845
429.179
465.127
324.717
342.808
349.667
354.054
358.156
362.238
366.159
369.7
372.833
375.716
378.431
380.672
382.004
382.537
382.673
382.659
382.582
382.464
382.317
382.15
381.968
381.776
381.59
381.484
381.683
382.545
384.243
386.676
389.859
393.956
399.132
405.572
414.123
429.423
465.314
324.061
341.813
348.585
352.935
357.099
361.421
365.686
369.462
372.545
375.079
377.362
379.579
381.481
382.636
383.1
383.205
383.164
383.057
382.91
382.739
382.556
382.371
382.196
382.081
382.186
382.867
384.495
387.071
390.439
394.633
399.813
406.189
414.575
429.556
465.143
322.97
340.182
346.864
351.16
355.337
359.888
364.659
369.033
372.545
375.185
377.226
379.008
380.757
382.293
383.241
383.621
383.691
383.625
383.492
383.322
383.131
382.933
382.739
382.573
382.528
382.875
384.068
386.385
389.727
394.005
399.288
405.733
414.106
429.035
464.883
321.624
338.424
345.122
349.404
353.558
358.221
363.374
368.331
372.414
375.444
377.618
379.251
380.643
381.988
383.154
383.857
384.122
384.144
384.053
383.907
383.733
383.555
383.392
383.268
383.247
383.521
384.491
386.602
389.937
394.334
399.722
406.217
414.612
429.558
465.227
320.361
337.09
343.953
348.28
352.403
357.064
362.37
367.662
372.152
375.537
377.95
379.672
380.977
382.086
383.118
383.961
384.433
384.582
384.55
384.426
384.252
384.057
383.862
383.688
383.584
383.694
384.365
386.115
389.228
393.604
399.079
405.642
413.972
428.767
464.804
319.572
336.783
344.047
348.57
352.786
357.476
362.775
368.062
372.58
376.013
378.466
380.209
381.493
382.509
383.386
384.158
384.72
384.988
385.036
384.967
384.841
384.694
384.554
384.446
384.41
384.544
385.115
386.625
389.556
393.949
399.553
406.253
414.793
429.973
465.945
319.601
337.798
345.55
350.351
354.776
359.571
364.768
369.762
373.944
377.096
379.344
380.94
382.113
383.028
383.793
384.457
384.995
385.322
385.425
385.38
385.257
385.101
384.949
384.84
384.832
385.036
385.686
387.199
390.044
394.391
400.021
406.731
415.19
430.179
465.952
320.774
340.107
348.154
353.178
357.879
362.882
367.992
372.561
376.182
378.822
380.678
381.996
382.972
383.74
384.382
384.939
385.406
385.737
385.893
385.909
385.84
385.729
385.609
385.513
385.492
385.66
386.266
387.752
390.602
394.992
400.68
407.426
415.96
431.129
466.788
322.879
342.823
350.795
355.869
360.771
365.96
371.012
375.239
378.382
380.566
382.06
383.111
383.887
384.495
385
385.438
385.811
386.088
386.23
386.245
386.186
386.105
386.045
386.049
386.175
386.518
387.281
388.852
391.731
396.158
401.884
408.631
417.183
432.386
467.552
325.022
344.944
352.636
357.644
362.637
367.936
372.989
377.105
380.052
382.01
383.299
384.181
384.82
385.312
385.714
386.057
386.351
386.584
386.731
386.777
386.74
386.659
386.584
386.571
386.702
387.113
388.026
389.779
392.772
397.214
402.888
409.523
417.916
432.877
467.711
326.202
345.941
353.45
358.409
363.451
368.776
373.786
377.905
380.903
382.891
384.166
385.005
385.587
386.013
386.341
386.604
386.816
386.975
387.072
387.108
387.103
387.089
387.101
387.182
387.399
387.878
388.852
390.682
393.749
398.21
403.843
410.416
418.788
433.789
468.446
326.437
346.15
353.674
358.755
364.069
369.56
374.471
378.459
381.454
383.506
384.833
385.694
386.275
386.688
386.994
387.228
387.407
387.532
387.598
387.606
387.572
387.538
387.559
387.698
388.035
388.686
389.834
391.783
394.895
399.347
404.94
411.463
419.799
434.73
468.924
326.133
345.86
353.59
359.052
365.049
370.946
375.707
379.336
382.089
384.062
385.385
386.251
386.831
387.233
387.52
387.728
387.876
387.97
388.009
388.007
387.99
387.984
388.027
388.187
388.569
389.323
390.65
392.794
396.002
400.397
405.844
412.218
420.399
435.094
469.006
325.869
345.561
353.704
359.894
367.064
373.459
377.958
381.037
383.287
384.947
386.112
386.904
387.446
387.826
388.101
388.299
388.437
388.517
388.533
388.489
388.426
388.403
388.464
388.657
389.065
389.826
391.158
393.337
396.603
401.025
406.461
412.823
421.02
435.746
469.459
325.963
345.521
354.443
361.861
370.437
376.886
380.773
383.173
384.843
386.08
386.981
387.619
388.071
388.395
388.632
388.804
388.924
388.995
389.012
388.969
388.889
388.839
388.898
389.135
389.641
390.54
392.011
394.289
397.608
402.044
407.455
413.773
421.906
436.459
469.659
326.796
345.962
356.105
365.455
375.146
380.904
383.793
385.421
386.525
387.354
387.982
388.448
388.791
389.045
389.233
389.37
389.463
389.513
389.515
389.462
389.365
389.279
389.29
389.472
389.917
390.766
392.206
394.455
397.716
402.077
407.423
413.667
421.64
435.908
469.192
327.921
346.534
357.876
369.486
379.658
384.408
386.361
387.368
388.045
388.562
388.969
389.285
389.529
389.715
389.855
389.955
390.02
390.049
390.038
389.982
389.883
389.787
389.794
389.997
390.474
391.346
392.803
395.071
398.345
402.702
408.046
414.302
422.292
436.534
469.59
328.072
346.48
358.013
370.55
381.379
386.215
388.011
388.801
389.268
389.608
389.876
390.09
390.259
390.389
390.485
390.55
390.586
390.592
390.564
390.496
390.387
390.262
390.212
390.367
390.812
391.621
392.954
395.053
398.156
402.381
407.654
413.883
421.764
435.756
468.989
326.37
344.916
354.995
365.541
377.571
384.991
388.272
389.601
390.19
390.507
390.713
390.864
390.979
391.066
391.127
391.165
391.179
391.168
391.129
391.055
390.94
390.793
390.68
390.751
391.171
392.02
393.362
395.371
398.308
402.377
407.571
413.792
421.673
435.643
468.994
323.693
342.477
350.24
356.893
367.416
378.377
385.527
388.954
390.402
391.033
391.34
391.509
391.613
391.679
391.719
391.737
391.736
391.713
391.667
391.591
391.477
391.321
391.153
391.087
391.331
392.076
393.423
395.448
398.314
402.24
407.315
413.493
421.299
435.075
468.508
322.345
342.078
349.647
354.29
359.923
369.468
379.633
386.428
389.733
391.146
391.764
392.054
392.197
392.269
392.3
392.304
392.289
392.255
392.201
392.122
392.01
391.858
391.681
391.564
391.683
392.252
393.471
395.479
398.362
402.241
407.225
413.37
421.245
435.193
468.78
323.06
344.784
353.882
358.919
362.905
367.709
375.441
383.409
388.474
390.878
391.931
392.414
392.648
392.762
392.813
392.824
392.806
392.769
392.714
392.64
392.543
392.418
392.284
392.221
392.38
392.904
393.963
395.794
398.598
402.476
407.479
413.677
421.748
436.134
469.865
325.12
347.704
357.227
363.408
369.148
373.988
377.972
383.435
388.381
391.11
392.341
392.899
393.167
393.301
393.359
393.367
393.339
393.288
393.221
393.14
393.046
392.947
392.872
392.921
393.276
394.07
395.324
397.17
399.89
403.718
408.725
414.957
423.174
437.822
471.062
326.388
348.152
357.299
363.889
371.347
378.636
382.898
385.849
389.363
391.723
392.871
393.413
393.687
393.832
393.9
393.913
393.885
393.828
393.751
393.66
393.562
393.468
393.413
393.491
393.906
394.901
396.548
398.783
401.682
405.482
410.365
416.449
424.509
438.835
471.194
327.221
348.955
358.246
365.213
373.459
381.511
386.547
388.873
391.049
392.706
393.57
394.005
394.24
394.371
394.435
394.447
394.419
394.359
394.276
394.177
394.069
393.965
393.891
393.911
394.181
394.976
396.57
399.033
402.257
406.21
411.008
416.863
424.569
438.273
470.16
328.201
350.202
359.783
367.364
376.408
384.452
389.103
391.212
392.705
393.82
394.411
394.719
394.893
394.992
395.038
395.04
395.005
394.94
394.853
394.748
394.634
394.519
394.419
394.37
394.46
394.874
395.923
397.92
400.973
404.965
409.797
415.589
423.065
436.362
468.65
328.692
349.838
359.254
367.149
376.99
385.904
390.874
392.814
393.863
394.672
395.124
395.366
395.504
395.58
395.611
395.602
395.558
395.487
395.395
395.288
395.172
395.052
394.938
394.851
394.835
394.991
395.535
396.813
399.194
402.84
407.678
413.641
421.206
434.55
467.638
327.821
348.067
357.047
364.497
373.944
383.948
390.916
393.939
394.951
395.538
395.872
396.049
396.146
396.195
396.206
396.182
396.126
396.044
395.942
395.828
395.707
395.584
395.466
395.366
395.311
395.364
395.666
396.502
398.317
401.538
406.321
412.506
420.279
433.844
467.595
326.585
346.915
355.594
362.062
369.663
378.98
387.83
393.348
395.451
396.151
396.473
396.636
396.719
396.756
396.756
396.723
396.657
396.564
396.452
396.329
396.204
396.083
395.974
395.887
395.849
395.914
396.204
396.973
398.65
401.737
406.503
412.783
420.689
434.483
468.491
326.684
347.918
356.551
362.232
367.994
375
383.358
390.849
395.178
396.671
397.108
397.265
397.329
397.35
397.342
397.305
397.238
397.144
397.03
396.908
396.791
396.693
396.628
396.612
396.678
396.888
397.37
398.362
400.239
403.433
408.178
414.353
422.22
436.067
469.766
328.435
350.968
360.022
365.694
370.735
375.754
381.503
388.07
393.694
396.593
397.458
397.705
397.796
397.829
397.83
397.802
397.747
397.664
397.561
397.451
397.352
397.289
397.287
397.377
397.601
398.032
398.799
400.112
402.274
405.602
410.265
416.231
423.944
437.638
470.664
331.827
355.11
364.506
370.672
376.241
381.049
385.019
389.047
393.413
396.764
398.067
398.336
398.387
398.391
398.377
398.346
398.295
398.223
398.135
398.043
397.967
397.936
397.99
398.174
398.543
399.176
400.189
401.76
404.117
407.495
412.034
417.8
425.364
438.871
471.236
334.978
358.246
367.82
374.454
380.715
385.982
389.613
392.131
394.609
397.097
398.559
398.796
398.787
398.778
398.767
398.746
398.711
398.66
398.597
398.532
398.487
398.495
398.606
398.876
399.374
400.183
401.406
403.181
405.678
409.071
413.499
419.099
426.501
439.744
471.445
338.043
360.977
370.618
377.752
384.778
390.587
394.359
396.488
397.849
398.998
399.766
399.73
399.42
399.286
399.225
399.183
399.143
399.098
399.047
398.997
398.965
398.982
399.093
399.36
399.86
400.681
401.926
403.715
406.194
409.517
413.834
419.325
426.62
439.68
471.191
339.682
362.602
372.469
380.018
387.34
392.987
396.516
398.555
399.766
400.555
400.97
400.789
400.121
399.744
399.618
399.557
399.513
399.474
399.439
399.413
399.41
399.456
399.591
399.868
400.361
401.154
402.347
404.059
406.432
409.632
413.836
419.259
426.546
439.67
471.331
341.246
363.791
373.851
382.069
390.188
396.093
399.474
401.24
402.136
402.548
402.618
402.274
401.383
400.367
399.943
399.827
399.777
399.745
399.723