/*--------------------------------*- C++ -*----------------------------------*\
| =========                 |                                                 |
| \\      /  F ield         | OpenFOAM: The Open Source CFD Toolbox           |
|  \\    /   O peration     | Version:  v2012                                 |
|   \\  /    A nd           | Website:  www.openfoam.com                      |
|    \\/     M anipulation  |                                                 |
\*---------------------------------------------------------------------------*/
FoamFile
{
    version     2.0;
    format      ascii;
    class       volVectorField;
    location    "30";
    object      U;
}
// * * * * * * * * * * * * * * * * * * * * * * * * * * * * * * * * * * * * * //

dimensions      [0 1 -1 0 0 0 0];


internalField   nonuniform List<vector> 
78750
(
(-6.68307e-06 -8.91625e-05 1.58894e-05)
(-2.77518e-05 -7.7503e-05 3.44763e-05)
(-7.25161e-05 -4.03762e-05 5.60283e-05)
(-0.000133813 6.47638e-06 8.54739e-05)
(-0.000205345 5.35867e-05 0.000122225)
(-0.000283209 9.77683e-05 0.000164738)
(-0.000364057 0.000137983 0.000209667)
(-0.000445385 0.000173901 0.000254141)
(-0.00052549 0.000205036 0.000294686)
(-0.000603246 0.00023156 0.000327864)
(-0.000677201 0.000252494 0.000350286)
(-0.000745823 0.000267158 0.000359499)
(-0.000807528 0.000274717 0.000354138)
(-0.000861103 0.000275364 0.000334115)
(-0.000905503 0.00026934 0.000299909)
(-0.000940197 0.000257415 0.000252909)
(-0.000963972 0.000240704 0.00019632)
(-0.000977415 0.000219256 0.000129458)
(-0.000979787 0.00019438 5.62785e-05)
(-0.000971277 0.000166937 -2.0646e-05)
(-0.000952165 0.000137702 -9.88809e-05)
(-0.000922824 0.000107415 -0.000175991)
(-0.000883784 7.67599e-05 -0.000249716)
(-0.000835661 4.63475e-05 -0.000317922)
(-0.000779189 1.67839e-05 -0.000378594)
(-0.000715194 -1.14193e-05 -0.000429839)
(-0.00064456 -3.76744e-05 -0.00046987)
(-0.000568268 -6.14359e-05 -0.000497)
(-0.000487426 -8.19504e-05 -0.000509484)
(-0.000403263 -9.83599e-05 -0.000505632)
(-0.00031684 -0.000109426 -0.000483699)
(-0.000228924 -0.000113559 -0.000442136)
(-0.000142282 -0.000108421 -0.000379412)
(-7.3023e-05 -9.1159e-05 -0.000294761)
(-2.38091e-05 -4.9464e-05 -0.000146625)
(-3.07258e-05 0.000469316 -0.000410068)
(-9.31926e-05 0.000890761 -0.000523721)
(-0.000173813 0.00110801 -0.000547831)
(-0.000281931 0.00125836 -0.000576346)
(-0.000391686 0.00134503 -0.000605812)
(-0.00049525 0.00137407 -0.000630555)
(-0.000590031 0.00136517 -0.000651318)
(-0.000673572 0.00133275 -0.000671419)
(-0.000744061 0.00128898 -0.000692337)
(-0.000801555 0.00123342 -0.000714842)
(-0.000845092 0.0011651 -0.000734488)
(-0.000874438 0.00108258 -0.000746065)
(-0.00089286 0.000993642 -0.000750458)
(-0.000900238 0.00090004 -0.000749989)
(-0.000897842 0.000805526 -0.00074583)
(-0.000886302 0.000711462 -0.000739717)
(-0.000866824 0.000619754 -0.000732542)
(-0.0008403 0.000531201 -0.000725161)
(-0.000807758 0.000446854 -0.000717799)
(-0.000770107 0.00036714 -0.000710759)
(-0.000728213 0.000292542 -0.000704041)
(-0.000682862 0.000223243 -0.000697687)
(-0.000634761 0.00015934 -0.000691621)
(-0.000584553 0.0001009 -0.000685648)
(-0.000532775 4.77647e-05 -0.000679522)
(-0.000479868 -2.76283e-08 -0.000672661)
(-0.000426237 -4.27501e-05 -0.000664412)
(-0.00037225 -8.0323e-05 -0.000653559)
(-0.000318244 -0.000112979 -0.000638665)
(-0.000264537 -0.00014042 -0.000617371)
(-0.000211174 -0.000162514 -0.000586851)
(-0.000157536 -0.000178086 -0.000541159)
(-0.000104003 -0.000184862 -0.00046588)
(-6.22221e-05 -0.000176063 -0.00034186)
(-3.12004e-05 -0.000104821 -9.47329e-05)
(-4.07884e-05 0.000887672 9.17214e-05)
(-9.83646e-05 0.00153185 0.000153035)
(-0.000164895 0.00180038 0.000185599)
(-0.000249972 0.0019603 0.000199218)
(-0.000330043 0.00202964 0.000189689)
(-0.000400848 0.00202919 0.000161227)
(-0.000463207 0.00197758 0.00011125)
(-0.000515864 0.00189427 4.28784e-05)
(-0.000557554 0.00179131 -4.44449e-05)
(-0.000587444 0.00167863 -0.000145229)
(-0.000605338 0.00156024 -0.000253952)
(-0.000612688 0.00143994 -0.00035954)
(-0.000611001 0.00131828 -0.000450678)
(-0.000600851 0.00119703 -0.000516183)
(-0.00058457 0.00107783 -0.000556432)
(-0.000564063 0.000962978 -0.000578338)
(-0.000539574 0.000853104 -0.000588279)
(-0.000512201 0.00074934 -0.000590307)
(-0.000482687 0.000652697 -0.000586915)
(-0.000451732 0.000563583 -0.000579609)
(-0.000419757 0.000481923 -0.000569858)
(-0.000387276 0.000407652 -0.000558311)
(-0.000354636 0.000340533 -0.00054572)
(-0.00032217 0.000280183 -0.000532328)
(-0.000290117 0.000226291 -0.00051841)
(-0.00025867 0.000178301 -0.000503928)
(-0.000227969 0.00013595 -0.000488721)
(-0.000198077 9.87396e-05 -0.000472299)
(-0.00016907 6.66234e-05 -0.000453797)
(-0.000140961 3.93557e-05 -0.000431851)
(-0.000113669 1.72989e-05 -0.000404133)
(-8.66985e-05 7.66422e-07 -0.000366384)
(-5.97293e-05 -9.21156e-06 -0.000310782)
(-3.72163e-05 -1.10825e-05 -0.000228838)
(-2.12269e-05 5.84482e-06 -5.31786e-05)
(-4.06313e-05 0.00107879 0.00047274)
(-7.76343e-05 0.00179065 0.000664068)
(-0.0001078 0.00206404 0.000715978)
(-0.000146563 0.00219952 0.000749705)
(-0.000182279 0.00223604 0.000776856)
(-0.000216855 0.00220678 0.000784931)
(-0.00025131 0.00214154 0.000769034)
(-0.000284125 0.00205122 0.000723043)
(-0.000313261 0.00194733 0.000649625)
(-0.000336588 0.00183219 0.000549759)
(-0.000352931 0.00171087 0.000429836)
(-0.000361572 0.00158379 0.000295777)
(-0.000363061 0.0014544 0.000157917)
(-0.000357459 0.00132403 2.84552e-05)
(-0.000346803 0.00119717 -8.01683e-05)
(-0.000331195 0.00107649 -0.000160637)
(-0.000313736 0.000964191 -0.000219677)
(-0.000294084 0.000860446 -0.000263313)
(-0.000273287 0.000765994 -0.00029518)
(-0.000251844 0.000679975 -0.000318537)
(-0.000230363 0.000602385 -0.000335061)
(-0.000209356 0.000533088 -0.000346172)
(-0.000189095 0.000471665 -0.00035268)
(-0.000169833 0.000417422 -0.000355547)
(-0.000151744 0.000369724 -0.000355132)
(-0.000134928 0.000327903 -0.000352014)
(-0.000119444 0.00029105 -0.000346617)
(-0.000105251 0.00025852 -0.000339296)
(-9.21738e-05 0.000229517 -0.000329977)
(-8.00558e-05 0.000203485 -0.000318678)
(-6.84448e-05 0.000179675 -0.000305122)
(-5.64931e-05 0.000157672 -0.000290378)
(-4.28255e-05 0.00013675 -0.000276744)
(-2.95655e-05 0.000116766 -0.000257455)
(-1.84353e-05 8.67719e-05 -0.000153432)
(-2.45661e-05 0.00080879 0.000519689)
(-3.29918e-05 0.00126502 0.000714327)
(-2.9741e-05 0.00146834 0.000757135)
(-2.20161e-05 0.00160907 0.000790608)
(-1.38261e-05 0.00169633 0.000820221)
(-8.32707e-06 0.00174054 0.000837428)
(-6.55134e-06 0.00174945 0.000841436)
(-7.54299e-06 0.00173059 0.000830449)
(-1.03297e-05 0.00168826 0.000803675)
(-1.33191e-05 0.00162729 0.000759439)
(-1.56061e-05 0.00155029 0.000698888)
(-1.64141e-05 0.00146132 0.00062403)
(-1.53836e-05 0.00136336 0.0005398)
(-1.31019e-05 0.00126117 0.000450702)
(-9.81697e-06 0.0011585 0.000363588)
(-5.84346e-06 0.00105979 0.000284107)
(-1.63026e-06 0.000967849 0.000216005)
(2.38854e-06 0.000884639 0.000159758)
(5.92782e-06 0.000810604 0.000114634)
(8.81578e-06 0.000745822 7.91345e-05)
(1.07996e-05 0.000689606 5.16889e-05)
(1.1794e-05 0.000641316 3.09638e-05)
(1.16936e-05 0.000599984 1.57208e-05)
(1.05368e-05 0.000564778 5.08788e-06)
(8.30404e-06 0.000534663 -1.92578e-06)
(5.08866e-06 0.000508565 -6.07029e-06)
(1.06897e-06 0.000485399 -8.0817e-06)
(-3.58087e-06 0.000464015 -8.71899e-06)
(-8.57405e-06 0.000443036 -9.26165e-06)
(-1.35527e-05 0.000421082 -1.05517e-05)
(-1.80563e-05 0.000396395 -1.37958e-05)
(-2.13765e-05 0.000366994 -2.27048e-05)
(-2.1644e-05 0.000330077 -4.74655e-05)
(-1.81448e-05 0.000283634 -8.39308e-05)
(-1.26294e-05 0.000187926 -7.13943e-05)
(-1.12827e-05 0.000592642 0.00045373)
(-9.36957e-06 0.000885586 0.000596636)
(-1.38392e-06 0.00102972 0.000622696)
(1.4276e-05 0.00113876 0.000642353)
(3.39794e-05 0.00121556 0.000659209)
(5.5452e-05 0.00126396 0.000668545)
(7.72927e-05 0.00128984 0.00066945)
(9.86262e-05 0.0012961 0.000663145)
(0.000118701 0.00128695 0.000649675)
(0.000136978 0.00126456 0.000629578)
(0.00015309 0.00123199 0.000603057)
(0.000166556 0.00119083 0.000571126)
(0.000177153 0.00114361 0.000534692)
(0.000184582 0.00109208 0.000495348)
(0.000188819 0.00103889 0.000454733)
(0.00018981 0.000985991 0.000414758)
(0.000187706 0.00093558 0.000376996)
(0.000182952 0.000888719 0.000343176)
(0.000175833 0.000846363 0.000313905)
(0.000166635 0.000808613 0.000289033)
(0.000155738 0.00077553 0.000268453)
(0.000143397 0.000746587 0.000251733)
(0.000129932 0.000721367 0.000238507)
(0.00011559 0.00069902 0.000228104)
(0.000100655 0.000678863 0.000220045)
(8.53724e-05 0.000659845 0.000213517)
(7.00101e-05 0.00064103 0.000207832)
(5.48267e-05 0.000621077 0.000201815)
(4.01597e-05 0.000598728 0.000194364)
(2.63593e-05 0.000572316 0.000184161)
(1.37919e-05 0.00054008 0.000169931)
(2.92333e-06 0.000499619 0.000147344)
(-4.76029e-06 0.000448131 0.000106294)
(-7.39286e-06 0.000381823 4.89642e-05)
(-6.19138e-06 0.000239251 1.28184e-05)
(-4.34441e-06 0.000389864 0.000343516)
(-3.90266e-07 0.000579344 0.000398027)
(6.03472e-06 0.000676226 0.000386264)
(1.85587e-05 0.000755191 0.000378537)
(3.42023e-05 0.000817324 0.000375845)
(5.14663e-05 0.000865697 0.000372342)
(6.93848e-05 0.000902882 0.000366985)
(8.72814e-05 0.000930716 0.000360017)
(0.000104464 0.000950161 0.00035137)
(0.000120452 0.000962372 0.000340643)
(0.000134792 0.000967783 0.000327615)
(0.000147185 0.000967514 0.000312316)
(0.000157332 0.000962287 0.000295022)
(0.00016505 0.000953622 0.00027646)
(0.000170139 0.000942445 0.00025738)
(0.000172641 0.000930127 0.00023875)
(0.000172571 0.000917221 0.000221157)
(0.000170103 0.00090456 0.000205033)
(0.000165502 0.000892216 0.000190869)
(0.000158931 0.000880599 0.000178985)
(0.0001506 0.000869366 0.000169134)
(0.000140806 0.000858559 0.000161404)
(0.000129722 0.000847578 0.000155329)
(0.000117592 0.000836272 0.000150789)
(0.000104602 0.000823857 0.00014718)
(9.09718e-05 0.000809983 0.000144262)
(7.69111e-05 0.000793618 0.000141268)
(6.26457e-05 0.000774064 0.000137741)
(4.84693e-05 0.00074983 0.000132598)
(3.46656e-05 0.000719542 0.000125208)
(2.15979e-05 0.000680808 0.000114291)
(9.69779e-06 0.000631134 9.61424e-05)
(4.72215e-07 0.000566676 6.14867e-05)
(-3.86354e-06 0.000481583 1.27703e-05)
(-4.52527e-06 0.000290316 -1.27093e-05)
(-3.29768e-06 0.000316672 0.000241221)
(-2.72213e-06 0.000510051 0.000247817)
(-4.34487e-06 0.000601263 0.000220281)
(-4.41516e-06 0.000672834 0.000196753)
(-3.01732e-06 0.000729845 0.000180749)
(-4.87517e-07 0.000775272 0.000166892)
(3.07999e-06 0.000812003 0.000153126)
(7.62196e-06 0.000841521 0.000139037)
(1.3024e-05 0.000865574 0.00012505)
(1.90585e-05 0.000884821 0.000111234)
(2.55231e-05 0.000900419 9.79846e-05)
(3.21018e-05 0.000912589 8.52055e-05)
(3.85525e-05 0.000922206 7.30839e-05)
(4.45705e-05 0.000929325 6.14288e-05)
(5.00202e-05 0.000934762 5.05373e-05)
(5.46848e-05 0.000938524 4.03725e-05)
(5.85347e-05 0.00094134 3.14497e-05)
(6.14675e-05 0.000943075 2.37187e-05)
(6.33731e-05 0.000944362 1.73553e-05)
(6.42717e-05 0.000944789 1.24875e-05)
(6.41567e-05 0.000944708 9.43668e-06)
(6.2942e-05 0.000943544 7.83992e-06)
(6.0669e-05 0.000941452 7.81261e-06)
(5.73083e-05 0.000937607 8.86382e-06)
(5.29186e-05 0.000931942 1.09549e-05)
(4.75294e-05 0.000923332 1.3437e-05)
(4.12612e-05 0.00091136 1.61328e-05)
(3.42371e-05 0.000894419 1.82112e-05)
(2.66844e-05 0.000871441 1.93525e-05)
(1.88505e-05 0.00083994 1.85936e-05)
(1.10843e-05 0.000797578 1.51859e-05)
(3.89103e-06 0.000740241 6.05382e-06)
(-1.68099e-06 0.000663195 -1.37451e-05)
(-4.09001e-06 0.000559246 -4.19617e-05)
(-4.11601e-06 0.000327198 -4.8762e-05)
(-3.78614e-06 0.000272196 0.000143674)
(-5.44104e-06 0.000480345 0.000154407)
(-9.09821e-06 0.00057678 0.00014395)
(-1.30566e-05 0.000651448 0.000132735)
(-1.6523e-05 0.00070938 0.000122651)
(-1.93311e-05 0.00075503 0.00011211)
(-2.14186e-05 0.000791004 0.00010026)
(-2.26253e-05 0.000819945 8.75017e-05)
(-2.29244e-05 0.000843137 7.40224e-05)
(-2.22603e-05 0.000862282 6.04544e-05)
(-2.07132e-05 0.000877962 4.70032e-05)
(-1.83189e-05 0.00089139 3.4288e-05)
(-1.5243e-05 0.000902753 2.2454e-05)
(-1.16012e-05 0.000912989 1.20449e-05)
(-7.59752e-06 0.000922021 3.09243e-06)
(-3.36704e-06 0.000930591 -3.99526e-06)
(8.74724e-07 0.000938397 -9.32529e-06)
(4.9944e-06 0.000946013 -1.26156e-05)
(8.81134e-06 0.000952967 -1.41773e-05)
(1.22304e-05 0.000959672 -1.38448e-05)
(1.50875e-05 0.000965428 -1.19925e-05)
(1.73083e-05 0.000970495 -8.57376e-06)
(1.87995e-05 0.000973965 -4.0882e-06)
(1.95153e-05 0.000975901 1.41891e-06)
(1.94218e-05 0.000975124 7.3408e-06)
(1.85328e-05 0.000971407 1.35516e-05)
(1.68854e-05 0.000963143 1.93412e-05)
(1.45685e-05 0.000949581 2.44825e-05)
(1.17145e-05 0.000928372 2.81711e-05)
(8.48931e-06 0.000897781 3.01045e-05)
(5.10668e-06 0.000854095 2.92028e-05)
(1.84662e-06 0.000793739 2.38936e-05)
(-7.54683e-07 0.000710461 1.06165e-05)
(-1.88032e-06 0.000597204 -8.93171e-06)
(-1.89389e-06 0.000342733 -2.02555e-05)
(-4.91879e-06 0.000256217 9.89242e-05)
(-8.52902e-06 0.000469732 0.000127143)
(-1.35463e-05 0.000567978 0.000134217)
(-1.96153e-05 0.000642919 0.000135477)
(-2.51219e-05 0.000700609 0.000132957)
(-2.9936e-05 0.000745114 0.000127253)
(-3.40183e-05 0.000779992 0.000119176)
(-3.72839e-05 0.000807298 0.000109202)
(-3.96376e-05 0.000829246 9.8126e-05)
(-4.10418e-05 0.000846824 8.63443e-05)
(-4.14878e-05 0.000861528 7.45862e-05)
(-4.10104e-05 0.000873758 6.31585e-05)
(-3.96689e-05 0.000884611 5.26888e-05)
(-3.75536e-05 0.000894128 4.33533e-05)
(-3.47653e-05 0.00090316 3.56432e-05)
(-3.1441e-05 0.000911491 2.95808e-05)
(-2.77102e-05 0.00091979 2.54954e-05)
(-2.37175e-05 0.000927621 2.32492e-05)
(-1.96211e-05 0.000935467 2.30778e-05)
(-1.5564e-05 0.000942682 2.46948e-05)
(-1.167e-05 0.000949617 2.81442e-05)
(-8.07005e-06 0.000955414 3.29924e-05)
(-4.86189e-06 0.000960238 3.91747e-05)
(-2.1319e-06 0.000962987 4.61218e-05)
(6.81752e-08 0.000963573 5.36653e-05)
(1.71023e-06 0.000960555 6.11241e-05)
(2.79499e-06 0.000953443 6.82326e-05)
(3.35506e-06 0.000940244 7.42149e-05)
(3.44909e-06 0.000919749 7.87228e-05)
(3.16176e-06 0.000889001 8.09165e-05)
(2.5781e-06 0.000845455 8.0231e-05)
(1.7828e-06 0.000784404 7.50382e-05)
(9.04085e-07 0.000700811 6.31348e-05)
(3.47601e-07 0.000586729 4.43655e-05)
(2.50669e-07 0.000332083 1.83319e-05)
(-5.89364e-06 0.000245319 7.39714e-05)
(-1.06613e-05 0.000453285 0.000116926)
(-1.6526e-05 0.000548252 0.000135369)
(-2.36696e-05 0.000620323 0.000144942)
(-3.01124e-05 0.000674985 0.000147471)
(-3.57747e-05 0.000716826 0.000145193)
(-4.06212e-05 0.00074872 0.000139351)
(-4.46081e-05 0.000773411 0.000130995)
(-4.75941e-05 0.00079238 0.000120783)
(-4.9548e-05 0.000807396 0.000109532)
(-5.0414e-05 0.000819189 9.77816e-05)
(-5.023e-05 0.000829004 8.62561e-05)
(-4.90097e-05 0.000837139 7.5393e-05)
(-4.68573e-05 0.000844534 6.5791e-05)
(-4.3851e-05 0.000851191 5.7724e-05)
(-4.01465e-05 0.000857827 5.16092e-05)
(-3.587e-05 0.000864205 4.75237e-05)
(-3.12013e-05 0.000870854 4.56961e-05)
(-2.62877e-05 0.000877308 4.60115e-05)
(-2.13164e-05 0.000883916 4.85224e-05)
(-1.64313e-05 0.000889989 5.29318e-05)
(-1.17943e-05 0.000895687 5.91231e-05)
(-7.51964e-06 0.000900087 6.66246e-05)
(-3.72211e-06 0.000903136 7.51627e-05)
(-4.70965e-07 0.000903628 8.41139e-05)
(2.18306e-06 0.000901214 9.30864e-05)
(4.22437e-06 0.000894296 0.000101359)
(5.65684e-06 0.000882041 0.00010847)
(6.50695e-06 0.0008622 0.000113625)
(6.83231e-06 0.00083306 0.000116287)
(6.64953e-06 0.000791204 0.000115432)
(5.94986e-06 0.000733275 0.000109811)
(4.67592e-06 0.000653705 9.69479e-05)
(3.33877e-06 0.000546051 7.59801e-05)
(2.26474e-06 0.00030613 3.66978e-05)
(-5.61331e-06 0.000236682 5.24584e-05)
(-1.04479e-05 0.000433707 0.000100824)
(-1.6479e-05 0.000523393 0.000124308)
(-2.38411e-05 0.000590764 0.000137605)
(-3.05598e-05 0.000641557 0.000142544)
(-3.6441e-05 0.00067957 0.000141777)
(-4.15003e-05 0.000708124 0.000137002)
(-4.56007e-05 0.00072927 0.00012916)
(-4.86477e-05 0.000745063 0.000119111)
(-5.05161e-05 0.000756613 0.000107498)
(-5.11953e-05 0.000765314 9.50797e-05)
(-5.0638e-05 0.000771766 8.25031e-05)
(-4.89085e-05 0.000777001 7.05615e-05)
(-4.6058e-05 0.000781306 5.98469e-05)
(-4.22473e-05 0.000785467 5.09563e-05)
(-3.76048e-05 0.00078951 4.42128e-05)
(-3.23431e-05 0.000793998 3.99301e-05)
(-2.66305e-05 0.00079871 3.81752e-05)
(-2.07043e-05 0.000803996 3.90511e-05)
(-1.47484e-05 0.000809394 4.24262e-05)
(-8.9934e-06 0.000815035 4.82036e-05)
(-3.59948e-06 0.000820215 5.60344e-05)
(1.24632e-06 0.000824839 6.5562e-05)
(5.42265e-06 0.000827947 7.6168e-05)
(8.82185e-06 0.000829193 8.72618e-05)
(1.14029e-05 0.000827324 9.80803e-05)
(1.31419e-05 0.000821667 0.000108022)
(1.406e-05 0.000810537 0.000116382)
(1.41984e-05 0.0007927 0.000122567)
(1.36144e-05 0.000765705 0.000125803)
(1.23618e-05 0.000727271 0.000125235)
(1.04009e-05 0.000673523 0.000119314)
(7.7405e-06 0.000600222 0.00010559)
(5.20497e-06 0.000500815 8.26243e-05)
(3.20369e-06 0.000280114 3.71046e-05)
(-4.66972e-06 0.000231281 2.36129e-05)
(-9.32807e-06 0.000419095 6.6679e-05)
(-1.5372e-05 0.000504007 8.96174e-05)
(-2.29483e-05 0.000567295 0.000102792)
(-3.00388e-05 0.000614053 0.000107352)
(-3.63661e-05 0.000648305 0.000106152)
(-4.18159e-05 0.000672832 0.000100744)
(-4.62342e-05 0.000690112 9.21119e-05)
(-4.94313e-05 0.000701713 8.08541e-05)
(-5.12868e-05 0.000709288 6.75799e-05)
(-5.17051e-05 0.000713762 5.29166e-05)
(-5.06766e-05 0.00071634 3.78669e-05)
(-4.82129e-05 0.000717596 2.34828e-05)
(-4.44334e-05 0.000718469 1.07717e-05)
(-3.94817e-05 0.000719271 3.47931e-07)
(-3.35919e-05 0.000720697 -7.36545e-06)
(-2.69848e-05 0.000722786 -1.21929e-05)
(-1.99365e-05 0.000725966 -1.39713e-05)
(-1.26897e-05 0.000729999 -1.26886e-05)
(-5.52857e-06 0.000735044 -8.34913e-06)
(1.3021e-06 0.000740584 -1.10271e-06)
(7.5306e-06 0.000746508 8.86924e-06)
(1.29522e-05 0.000752016 2.11338e-05)
(1.73737e-05 0.000756729 3.50249e-05)
(2.06898e-05 0.000759586 4.9524e-05)
(2.28331e-05 0.000759939 6.35465e-05)
(2.38167e-05 0.000756433 7.61207e-05)
(2.36745e-05 0.000748042 8.66397e-05)
(2.2505e-05 0.000732911 9.45658e-05)
(2.04232e-05 0.000709323 9.93454e-05)
(1.75431e-05 0.00067452 0.000100105)
(1.39163e-05 0.000625472 9.54377e-05)
(9.67834e-06 0.000557741 8.28146e-05)
(6.03713e-06 0.000465814 6.11607e-05)
(3.26462e-06 0.00026098 1.96432e-05)
(-3.31866e-06 0.000237444 -8.68937e-06)
(-7.72378e-06 0.000424407 2.15152e-05)
(-1.37578e-05 0.000508391 3.99492e-05)
(-2.16133e-05 0.000569893 4.99559e-05)
(-2.92584e-05 0.000614297 5.19339e-05)
(-3.62172e-05 0.000645324 4.83521e-05)
(-4.2296e-05 0.000666201 4.06377e-05)
(-4.72302e-05 0.000679128 2.94471e-05)
(-5.07852e-05 0.000686207 1.52247e-05)
(-5.27503e-05 0.000688817 -1.5443e-06)
(-5.30282e-05 0.000688469 -1.99405e-05)
(-5.15736e-05 0.000686093 -3.86427e-05)
(-4.84501e-05 0.000682863 -5.62073e-05)
(-4.37852e-05 0.000679411 -7.15361e-05)
(-3.77941e-05 0.000676635 -8.39009e-05)
(-3.07282e-05 0.00067488 -9.29492e-05)
(-2.28807e-05 0.000674743 -9.84896e-05)
(-1.45591e-05 0.000676241 -0.000100454)
(-6.09378e-06 0.000679642 -9.87925e-05)
(2.19868e-06 0.000684622 -9.35273e-05)
(9.99569e-06 0.000691105 -8.4702e-05)
(1.70014e-05 0.000698436 -7.24924e-05)
(2.29414e-05 0.000706215 -5.72512e-05)
(2.75934e-05 0.000713478 -3.97092e-05)
(3.07966e-05 0.00071953 -2.10098e-05)
(3.24787e-05 0.000723118 -2.61162e-06)
(3.26462e-05 0.000723233 1.41188e-05)
(3.13784e-05 0.00071827 2.82375e-05)
(2.88402e-05 0.00070675 3.92845e-05)
(2.52283e-05 0.000686433 4.68927e-05)
(2.07607e-05 0.000654979 5.04598e-05)
(1.55915e-05 0.000608963 4.87559e-05)
(1.00708e-05 0.000544435 3.95901e-05)
(5.68183e-06 0.00045571 2.25565e-05)
(2.52716e-06 0.000257159 -6.92607e-06)
(-2.08254e-06 0.000257388 -3.72723e-05)
(-6.32308e-06 0.000453622 -2.25024e-05)
(-1.21928e-05 0.000540922 -1.04738e-05)
(-2.01617e-05 0.000603828 -5.03828e-06)
(-2.81585e-05 0.000647752 -6.6957e-06)
(-3.56007e-05 0.000677018 -1.34757e-05)
(-4.21672e-05 0.000694815 -2.43573e-05)
(-4.753e-05 0.000703918 -3.89596e-05)
(-5.13645e-05 0.000706349 -5.70578e-05)
(-5.34423e-05 0.000704062 -7.80856e-05)
(-5.3621e-05 0.000698452 -0.000100799)
(-5.18684e-05 0.000691023 -0.000123469)
(-4.82534e-05 0.000682809 -0.000144418)
(-4.29489e-05 0.000674988 -0.000162402)
(-3.61957e-05 0.000668267 -0.000176715)
(-2.82936e-05 0.000663484 -0.000187053)
(-1.95754e-05 0.00066098 -0.000193313)
(-1.03834e-05 0.000661201 -0.000195481)
(-1.07825e-06 0.000664081 -0.000193541)
(7.9758e-06 0.00066965 -0.000187478)
(1.64279e-05 0.000677426 -0.000177281)
(2.39397e-05 0.00068703 -0.00016303)
(3.01989e-05 0.00069759 -0.00014501)
(3.49461e-05 0.000708352 -0.000123936)
(3.79913e-05 0.000718098 -0.00010106)
(3.92504e-05 0.000725742 -7.81012e-05)
(3.87315e-05 0.000729729 -5.68213e-05)
(3.6548e-05 0.000728597 -3.85112e-05)
(3.29069e-05 0.000720335 -2.37439e-05)
(2.80981e-05 0.000702836 -1.27214e-05)
(2.24166e-05 0.000673242 -5.73844e-06)
(1.61506e-05 0.000628246 -3.67295e-06)
(9.79074e-06 0.000563403 -8.21135e-06)
(5.03642e-06 0.000473121 -1.89333e-05)
(1.63341e-06 0.000269512 -3.33684e-05)
(-1.17776e-06 0.000290271 -5.48065e-05)
(-5.28017e-06 0.000503829 -5.32189e-05)
(-1.07973e-05 0.00059832 -4.75256e-05)
(-1.85629e-05 0.000665339 -4.66973e-05)
(-2.65305e-05 0.00071101 -5.18551e-05)
(-3.40344e-05 0.000739937 -6.16382e-05)
(-4.07111e-05 0.000755918 -7.54389e-05)
(-4.61631e-05 0.000761873 -9.31847e-05)
(-5.0036e-05 0.000760384 -0.000114768)
(-5.20664e-05 0.000753468 -0.000139469)
(-5.21202e-05 0.000743054 -0.000165708)
(-5.01546e-05 0.000730667 -0.000191438)
(-4.62621e-05 0.00071783 -0.00021481)
(-4.06322e-05 0.000705681 -0.00023456)
(-3.35374e-05 0.000695362 -0.000250077)
(-2.5288e-05 0.000687601 -0.000261162)
(-1.62329e-05 0.000683106 -0.000267825)
(-6.73302e-06 0.000682136 -0.000270101)
(2.84476e-06 0.000684911 -0.000268016)
(1.21277e-05 0.000691193 -0.000261522)
(2.07521e-05 0.0007007 -0.000250558)
(2.83625e-05 0.000712707 -0.000235091)
(3.46409e-05 0.000726462 -0.000215307)
(3.92987e-05 0.000740799 -0.000191808)
(4.21357e-05 0.00075455 -0.00016586)
(4.30401e-05 0.000766165 -0.000139339)
(4.20392e-05 0.000774082 -0.000114332)
(3.92534e-05 0.000776339 -9.24569e-05)
(3.49235e-05 0.000770873 -7.44743e-05)
(2.93778e-05 0.000755064 -6.04572e-05)
(2.30012e-05 0.000725934 -5.04381e-05)
(1.61275e-05 0.000679634 -4.49125e-05)
(9.36495e-06 0.000611486 -4.50544e-05)
(4.52769e-06 0.000515283 -4.98093e-05)
(9.35656e-07 0.000297224 -5.12681e-05)
(-7.82413e-07 0.000331035 -6.08507e-05)
(-4.87534e-06 0.000565753 -6.70359e-05)
(-1.00309e-05 0.000669227 -6.55183e-05)
(-1.7482e-05 0.000741963 -6.77601e-05)
(-2.51852e-05 0.000790598 -7.51715e-05)
(-3.24866e-05 0.000820407 -8.686e-05)
(-3.89841e-05 0.000835494 -0.000102502)
(-4.427e-05 0.000839321 -0.000122254)
(-4.79668e-05 0.000834665 -0.000146058)
(-4.98295e-05 0.000824018 -0.000173018)
(-4.97074e-05 0.000809448 -0.000201243)
(-4.75758e-05 0.000792902 -0.000228507)
(-4.35347e-05 0.00077598 -0.000252862)
(-3.78001e-05 0.000760192 -0.00027315)
(-3.0641e-05 0.000746689 -0.000288867)
(-2.23808e-05 0.000736508 -0.000299977)
(-1.33599e-05 0.000730293 -0.000306583)
(-3.93689e-06 0.000728537 -0.000308827)
(5.53185e-06 0.000731313 -0.000306742)
(1.46904e-05 0.000738538 -0.000300278)
(2.31783e-05 0.000749712 -0.000289277)
(3.06501e-05 0.000764179 -0.000273621)
(3.67775e-05 0.000780893 -0.000253329)
(4.1279e-05 0.000798684 -0.000228896)
(4.39313e-05 0.00081603 -0.000201483)
(4.46286e-05 0.00083131 -0.00017305)
(4.33773e-05 0.000842556 -0.000145853)
(4.03186e-05 0.000847676 -0.000121815)
(3.56879e-05 0.000844155 -0.000101853)
(2.98503e-05 0.000829185 -8.60239e-05)
(2.3196e-05 0.000799281 -7.41409e-05)
(1.61161e-05 0.000750298 -6.64628e-05)
(9.23169e-06 0.000676935 -6.37709e-05)
(4.45881e-06 0.000572501 -6.47068e-05)
(6.54066e-07 0.000334921 -5.84596e-05)
(-7.98264e-07 0.00037556 -5.77214e-05)
(-4.96955e-06 0.000632261 -6.57289e-05)
(-9.95938e-06 0.000745244 -6.55958e-05)
(-1.72379e-05 0.000824123 -6.89217e-05)
(-2.47687e-05 0.000876251 -7.71437e-05)
(-3.1888e-05 0.000907364 -8.95528e-05)
(-3.82065e-05 0.000922092 -0.000105993)
(-4.32974e-05 0.000924209 -0.000126671)
(-4.68078e-05 0.000916917 -0.000151506)
(-4.84809e-05 0.000902943 -0.000179421)
(-4.81842e-05 0.000884729 -0.000208359)
(-4.5893e-05 0.000864396 -0.000235945)
(-4.17299e-05 0.000843864 -0.000260268)
(-3.59144e-05 0.000824754 -0.000280244)
(-2.87288e-05 0.000808482 -0.000295543)
(-2.04868e-05 0.000796125 -0.000306237)
(-1.15342e-05 0.000788519 -0.000312565)
(-2.21434e-06 0.000786114 -0.00031469)
(7.13281e-06 0.000789102 -0.000312689)
(1.61647e-05 0.000797288 -0.000306476)
(2.45356e-05 0.00081022 -0.000295876)
(3.18994e-05 0.000827057 -0.00028064)
(3.79403e-05 0.000846716 -0.000260688)
(4.23642e-05 0.000867772 -0.00023634)
(4.49518e-05 0.000888596 -0.00020868)
(4.5573e-05 0.000907254 -0.000179628)
(4.4247e-05 0.000921611 -0.000151577)
(4.10957e-05 0.000929211 -0.0001266)
(3.63735e-05 0.000927308 -0.000105788)
(3.04255e-05 0.000912684 -8.92216e-05)
(2.36668e-05 0.000881545 -7.66793e-05)
(1.64811e-05 0.00082924 -6.82792e-05)
(9.51535e-06 0.000750011 -6.4665e-05)
(4.73945e-06 0.000636482 -6.44332e-05)
(7.24978e-07 0.000377751 -5.63359e-05)
(-1.13563e-06 0.000419805 -4.79991e-05)
(-5.47586e-06 0.000697401 -5.27978e-05)
(-1.05036e-05 0.000819393 -5.15919e-05)
(-1.78157e-05 0.000904124 -5.43126e-05)
(-2.53129e-05 0.000959522 -6.21461e-05)
(-3.23665e-05 0.000991856 -7.43664e-05)
(-3.85775e-05 0.00100615 -9.07804e-05)
(-4.35424e-05 0.00100657 -0.000111601)
(-4.69072e-05 0.000996634 -0.000136637)
(-4.84305e-05 0.000979402 -0.000164706)
(-4.7972e-05 0.000957565 -0.000193593)
(-4.55265e-05 0.000933539 -0.000220888)
(-4.12197e-05 0.000909439 -0.00024469)
(-3.52822e-05 0.000887123 -0.000264056)
(-2.79946e-05 0.000868141 -0.000278758)
(-1.96793e-05 0.000853742 -0.000289002)
(-1.06718e-05 0.000844812 -0.000295041)
(-1.31127e-06 0.000841897 -0.000297076)
(8.0642e-06 0.000845167 -0.00029514)
(1.71189e-05 0.000854452 -0.000289194)
(2.55096e-05 0.000869207 -0.000279031)
(3.28989e-05 0.000888545 -0.000264392)
(3.8966e-05 0.000911211 -0.000245065)
(4.34249e-05 0.000935653 -0.000221275)
(4.60423e-05 0.000960006 -0.000193964)
(4.6691e-05 0.000982146 -0.000165036)
(4.53696e-05 0.000999647 -0.00013691)
(4.22162e-05 0.00100981 -0.000111809)
(3.7469e-05 0.00100955 -9.09215e-05)
(3.14808e-05 0.000995356 -7.44372e-05)
(2.46431e-05 0.000963035 -6.21329e-05)
(1.7353e-05 0.00090755 -5.41758e-05)
(1.02297e-05 0.000822621 -5.12499e-05)
(5.33366e-06 0.000700301 -5.21868e-05)
(1.08646e-06 0.000421083 -4.7243e-05)
(-1.69607e-06 0.000460799 -3.3781e-05)
(-6.24973e-06 0.000756739 -3.17951e-05)
(-1.14724e-05 0.00088658 -2.78414e-05)
(-1.89467e-05 0.000976292 -2.87955e-05)
(-2.65282e-05 0.00103433 -3.54623e-05)
(-3.35958e-05 0.00106738 -4.68838e-05)
(-3.97823e-05 0.00108085 -6.27676e-05)
(-4.46975e-05 0.00107926 -8.32482e-05)
(-4.79904e-05 0.00106639 -0.000108026)
(-4.94151e-05 0.00104562 -0.000135799)
(-4.88372e-05 0.0010199 -0.000164289)
(-4.62494e-05 0.000991922 -0.000191049)
(-4.17825e-05 0.000964029 -0.000214257)
(-3.56658e-05 0.000938297 -0.000233039)
(-2.81845e-05 0.000916455 -0.000247268)
(-1.96651e-05 0.000899897 -0.000257173)
(-1.04439e-05 0.000889605 -0.000263029)
(-8.70815e-07 0.000886188 -0.000264991)
(8.71218e-06 0.000889833 -0.000263109)
(1.79626e-05 0.000900354 -0.000257331)
(2.653e-05 0.000917145 -0.000247495)
(3.40738e-05 0.000939224 -0.000233324)
(4.02724e-05 0.000965195 -0.000214587)
(4.48367e-05 0.000993326 -0.00019141)
(4.75345e-05 0.00102154 -0.000164664)
(4.82337e-05 0.00104747 -0.000136174)
(4.6939e-05 0.00106845 -0.000108389)
(4.37859e-05 0.00108148 -8.35902e-05)
(3.90184e-05 0.00108321 -6.30825e-05)
(3.29801e-05 0.00106983 -4.71627e-05)
(2.60567e-05 0.0010368 -3.56869e-05)
(1.86191e-05 0.00097873 -2.89284e-05)
(1.12769e-05 0.000888904 -2.78117e-05)
(6.1498e-06 0.000758865 -3.15413e-05)
(1.65855e-06 0.000461534 -3.33567e-05)
(-2.36048e-06 0.000496566 -1.75704e-05)
(-7.11764e-06 0.000807329 -7.12866e-06)
(-1.25971e-05 0.000943425 3.37977e-07)
(-2.02892e-05 0.00103695 1.66864e-06)
(-2.79993e-05 0.00109678 -3.46217e-06)
(-3.51442e-05 0.00112992 -1.38223e-05)
(-4.13845e-05 0.00114207 -2.89636e-05)
(-4.63331e-05 0.00113799 -4.89187e-05)
(-4.96501e-05 0.00112176 -7.32915e-05)
(-5.10732e-05 0.00109699 -0.0001007)
(-5.04521e-05 0.00106692 -0.000128828)
(-4.77667e-05 0.00103449 -0.000155232)
(-4.3139e-05 0.00100233 -0.000178132)
(-3.67963e-05 0.000972752 -0.000196686)
(-2.90304e-05 0.000947683 -0.000210779)
(-2.01741e-05 0.000928678 -0.000220618)
(-1.05873e-05 0.000916862 -0.000226441)
(-6.28151e-07 0.000912904 -0.000228381)
(9.33749e-06 0.000917011 -0.000226509)
(1.89455e-05 0.000928979 -0.000220751)
(2.78323e-05 0.000948141 -0.000210972)
(3.56425e-05 0.000973375 -0.00019693)
(4.20417e-05 0.00100312 -0.000178419)
(4.67328e-05 0.00103546 -0.000155551)
(4.94946e-05 0.00106805 -0.000129169)
(5.02005e-05 0.00109829 -0.000101055)
(4.88699e-05 0.00112321 -7.36516e-05)
(4.56514e-05 0.00113957 -4.92778e-05)
(4.08062e-05 0.00114376 -2.93149e-05)
(3.46755e-05 0.00113168 -1.41557e-05)
(2.76394e-05 0.00109857 -3.76073e-06)
(2.00343e-05 0.00103873 1.4392e-06)
(1.24441e-05 0.000945148 2.3857e-07)
(7.04305e-06 0.000808942 -7.04037e-06)
(2.32933e-06 0.000496942 -1.73286e-05)
(-2.94715e-06 0.00052637 -2.04957e-06)
(-7.80721e-06 0.000848295 1.65861e-05)
(-1.34961e-05 0.000989002 2.74631e-05)
(-2.13393e-05 0.00108521 3.10548e-05)
(-2.9143e-05 0.00114607 2.74962e-05)
(-3.63723e-05 0.0011788 1.82499e-05)
(-4.27197e-05 0.00118926 3.87875e-06)
(-4.78039e-05 0.00118238 -1.55802e-05)
(-5.12876e-05 0.00116241 -3.96876e-05)
(-5.28695e-05 0.00113318 -6.7023e-05)
(-5.23613e-05 0.00109818 -9.52595e-05)
(-4.96951e-05 0.00106065 -0.000121932)
(-4.49709e-05 0.00102353 -0.000145207)
(-3.83957e-05 0.000989437 -0.000164176)
(-3.02881e-05 0.00096059 -0.00017869)
(-2.10013e-05 0.000938767 -0.000188896)
(-1.09322e-05 0.000925199 -0.000194993)
(-4.62614e-07 0.000920623 -0.00019705)