/*--------------------------------*- C++ -*----------------------------------*\
| =========                 |                                                 |
| \\      /  F ield         | OpenFOAM: The Open Source CFD Toolbox           |
|  \\    /   O peration     | Version:  v2012                                 |
|   \\  /    A nd           | Website:  www.openfoam.com                      |
|    \\/     M anipulation  |                                                 |
\*---------------------------------------------------------------------------*/
FoamFile
{
    version     2.0;
    format      ascii;
    class       surfaceScalarField;
    location    "88";
    object      phi;
}
// * * * * * * * * * * * * * * * * * * * * * * * * * * * * * * * * * * * * * //

dimensions      [1 0 -1 0 0 0 0];
oriented        oriented;


internalField   nonuniform List<scalar> 
228225
(
-8.44505e-10
-4.56993e-10
1.05502e-09
-1.93429e-09
2.45967e-09
-1.37278e-09
-4.70343e-09
4.59259e-09
-1.81797e-09
-9.41052e-09
6.56921e-09
-1.86346e-09
-1.58835e-08
8.37505e-09
-1.90269e-09
-2.38052e-08
9.95014e-09
-2.02975e-09
-3.28333e-08
1.12789e-08
-2.24951e-09
-4.26173e-08
1.23408e-08
-2.55748e-09
-5.2836e-08
1.31494e-08
-2.92983e-09
-6.31846e-08
1.37026e-08
-3.35601e-09
-7.33896e-08
1.40231e-08
-3.81518e-09
-8.3208e-08
1.41159e-08
-4.3003e-09
-9.24198e-08
1.40083e-08
-4.79507e-09
-1.00827e-07
1.37056e-08
-5.29536e-09
-1.08277e-07
1.32363e-08
-5.78796e-09
-1.14618e-07
1.26087e-08
-6.27045e-09
-1.19732e-07
1.18487e-08
-6.73158e-09
-1.23526e-07
1.09644e-08
-7.17056e-09
-1.25931e-07
9.97983e-09
-7.5758e-09
-1.26888e-07
8.90265e-09
-7.94516e-09
-1.26371e-07
7.75454e-09
-8.27257e-09
-1.24357e-07
6.54356e-09
-8.55742e-09
-1.20855e-07
5.28904e-09
-8.79185e-09
-1.15874e-07
3.9979e-09
-8.97679e-09
-1.09459e-07
2.69153e-09
-9.1076e-09
-1.01652e-07
1.38243e-09
-9.18759e-09
-9.25431e-08
1.05806e-10
-9.21578e-09
-8.2189e-08
-1.15608e-09
-9.19904e-09
-7.0709e-08
-2.33776e-09
-9.13978e-09
-5.82471e-08
-3.41976e-09
-9.0449e-09
-4.49835e-08
-4.35385e-09
-8.90568e-09
-3.12271e-08
-5.07917e-09
-8.67916e-09
-1.75666e-08
-5.47579e-09
-8.18646e-09
-5.39282e-09
-5.36794e-09
-6.80274e-09
-3.73362e-09
-1.66135e-09
-2.39884e-09
1.35015e-08
-1.15613e-08
-1.11466e-08
2.43346e-08
-1.31246e-08
-2.22088e-08
2.95374e-08
-1.38837e-08
-3.45123e-08
3.34843e-08
-1.46118e-08
-4.72632e-08
3.63612e-08
-1.52359e-08
-5.99102e-08
3.83628e-08
-1.57654e-08
-7.20347e-08
3.96416e-08
-1.62379e-08
-8.33532e-08
4.03262e-08
-1.66681e-08
-9.36467e-08
4.05125e-08
-1.70682e-08
-1.02787e-07
4.02803e-08
-1.74387e-08
-1.1067e-07
3.96921e-08
-1.77858e-08
-1.17248e-07
3.8801e-08
-1.81067e-08
-1.22487e-07
3.76518e-08
-1.84049e-08
-1.26386e-07
3.62816e-08
-1.86767e-08
-1.2895e-07
3.47248e-08
-1.89248e-08
-1.30209e-07
3.3013e-08
-1.91447e-08
-1.30196e-07
3.11735e-08
-1.93386e-08
-1.28965e-07
2.92359e-08
-1.95026e-08
-1.2657e-07
2.72242e-08
-1.96386e-08
-1.23088e-07
2.51618e-08
-1.97424e-08
-1.18587e-07
2.30704e-08
-1.98159e-08
-1.1316e-07
2.09702e-08
-1.98551e-08
-1.06884e-07
1.88762e-08
-1.98617e-08
-9.98614e-08
1.68064e-08
-1.98317e-08
-9.21827e-08
1.47773e-08
-1.97653e-08
-8.3948e-08
1.2804e-08
-1.96569e-08
-7.52366e-08
1.08997e-08
-1.95041e-08
-6.61708e-08
9.07566e-09
-1.92985e-08
-5.68204e-08
7.34185e-09
-1.90295e-08
-4.72709e-08
5.70679e-09
-1.86768e-08
-3.75837e-08
4.17883e-09
-1.82188e-08
-2.78208e-08
2.77267e-09
-1.7616e-08
-1.80545e-08
1.51719e-09
-1.67589e-08
-8.59342e-09
5.25551e-10
-1.53544e-08
-9.5936e-11
-1.22311e-08
-7.47644e-10
2.36117e-08
-9.36265e-09
-4.69237e-09
3.94368e-08
-1.11574e-08
-9.69842e-09
4.64615e-08
-1.1918e-08
-1.52136e-08
5.14882e-08
-1.24881e-08
-2.0873e-08
5.49602e-08
-1.29415e-08
-2.64115e-08
5.7232e-08
-1.33291e-08
-3.16554e-08
5.85578e-08
-1.36729e-08
-3.64717e-08
5.91363e-08
-1.39935e-08
-4.07793e-08
5.91141e-08
-1.42954e-08
-4.45161e-08
5.86066e-08
-1.45882e-08
-4.76581e-08
5.77017e-08
-1.48695e-08
-5.01841e-08
5.64711e-08
-1.51439e-08
-5.20972e-08
5.49719e-08
-1.54061e-08
-5.34086e-08
5.32523e-08
-1.56591e-08
-5.4141e-08
5.1353e-08
-1.58971e-08
-5.43152e-08
4.93096e-08
-1.6122e-08
-5.39651e-08
4.71536e-08
-1.63284e-08
-5.31299e-08
4.4916e-08
-1.65171e-08
-5.18446e-08
4.26223e-08
-1.66826e-08
-5.01537e-08
4.0296e-08
-1.68269e-08
-4.80963e-08
3.79586e-08
-1.69446e-08
-4.57181e-08
3.563e-08
-1.70377e-08
-4.30696e-08
3.33301e-08
-1.71019e-08
-4.02022e-08
3.10748e-08
-1.71379e-08
-3.71588e-08
2.88752e-08
-1.71407e-08
-3.39778e-08
2.6734e-08
-1.71098e-08
-3.06946e-08
2.46542e-08
-1.70386e-08
-2.73294e-08
2.26334e-08
-1.6923e-08
-2.38997e-08
2.06622e-08
-1.6751e-08
-2.04049e-08
1.87225e-08
-1.651e-08
-1.68336e-08
1.67833e-08
-1.61758e-08
-1.31509e-08
1.48002e-08
-1.57103e-08
-9.31227e-09
1.27039e-08
-1.50259e-08
-5.24332e-09
1.03957e-08
-1.39381e-08
6.0609e-09
-1.14012e-08
-2.59148e-10
2.83527e-08
-4.48265e-09
-9.97261e-10
4.62822e-08
-6.10671e-09
-1.91661e-09
5.43119e-08
-6.9297e-09
-3.0491e-09
6.00976e-08
-7.47834e-09
-4.35455e-09
6.41605e-08
-7.89543e-09
-5.75522e-09
6.68915e-08
-8.25734e-09
-7.17971e-09
6.85812e-08
-8.60013e-09
-8.56351e-09
6.94518e-08
-8.93146e-09
-9.85816e-09
6.96726e-08
-9.26334e-09
-1.10308e-08
6.93732e-08
-9.59512e-09
-1.2052e-08
6.86561e-08
-9.93283e-09
-1.29095e-08
6.76006e-08
-1.02714e-08
-1.35974e-08
6.62722e-08
-1.06136e-08
-1.41151e-08
6.47227e-08
-1.09526e-08
-1.44693e-08
6.2997e-08
-1.12899e-08
-1.46722e-08
6.11317e-08
-1.16182e-08
-1.4742e-08
5.91598e-08
-1.19384e-08
-1.46897e-08
5.71087e-08
-1.22434e-08
-1.45368e-08
5.50031e-08
-1.25338e-08
-1.43022e-08
5.28638e-08
-1.28031e-08
-1.4002e-08
5.07096e-08
-1.30518e-08
-1.36574e-08
4.85587e-08
-1.32736e-08
-1.32889e-08
4.64288e-08
-1.34674e-08
-1.29136e-08
4.43273e-08
-1.36277e-08
-1.25396e-08
4.22563e-08
-1.37543e-08
-1.21716e-08
4.02076e-08
-1.38427e-08
-1.17966e-08
3.81701e-08
-1.38911e-08
-1.13921e-08
3.61226e-08
-1.38925e-08
-1.09183e-08
3.403e-08
-1.38417e-08
-1.03107e-08
3.18409e-08
-1.37262e-08
-9.47443e-09
2.94786e-08
-1.3532e-08
-8.27425e-09
2.68383e-08
-1.3238e-08
-6.51119e-09
2.37666e-08
-1.28254e-08
-3.98432e-09
2.00706e-08
-1.22014e-08
1.25204e-08
-1.04446e-08
-1.09058e-09
3.04389e-08
-9.94827e-10
-9.91248e-10
4.84257e-08
-2.24429e-09
-2.98136e-10
5.65983e-08
-2.97895e-09
6.48499e-10
6.26055e-08
-3.454e-09
1.67639e-09
6.69358e-08
-3.80522e-09
2.72302e-09
6.9971e-08
-4.12385e-09
3.74241e-09
7.1995e-08
-4.43353e-09
4.71317e-09
7.32273e-08
-4.74731e-09
5.61916e-09
7.38321e-08
-5.06532e-09
6.44743e-09
7.39388e-08
-5.39473e-09
7.19049e-09
7.36451e-08
-5.7319e-09
7.84208e-09
7.30307e-08
-6.08011e-09
8.39099e-09
7.21565e-08
-6.43318e-09
8.83048e-09
7.10743e-08
-6.79244e-09
9.15488e-09
6.98242e-08
-7.15089e-09
9.3532e-09
6.84419e-08
-7.50901e-09
9.41655e-09
6.69553e-08
-7.85969e-09
9.33929e-09
6.53899e-08
-8.20298e-09
9.10903e-09
6.37651e-08
-8.53207e-09
8.72064e-09
6.20989e-08
-8.84686e-09
8.1665e-09
6.0405e-08
-9.14086e-09
7.44344e-09
5.86949e-08
-9.41372e-09
6.55765e-09
5.69736e-08
-9.65964e-09
5.52246e-09
5.52419e-08
-9.87846e-09
4.35007e-09
5.3493e-08
-1.00649e-08
3.06344e-09
5.17127e-08
-1.02186e-08
1.692e-09
4.98751e-08
-1.03343e-08
2.84021e-10
4.79408e-08
-1.04109e-08
-1.0932e-09
4.58506e-08
-1.04417e-08
-2.35202e-09
4.35217e-08
-1.04217e-08
-3.37341e-09
4.08366e-08
-1.03385e-08
-3.98299e-09
3.76363e-08
-1.01886e-08
-3.92569e-09
3.36971e-08
-9.98639e-09
-2.8851e-09
2.87248e-08
-9.69594e-09
1.81866e-08
-8.55021e-09
-1.19437e-09
3.07496e-08
8.83895e-10
-9.50889e-10
4.82337e-08
-5.19223e-11
4.26851e-11
5.62587e-08
-6.53287e-10
1.43265e-09
6.22497e-08
-1.03589e-09
3.01545e-09
6.6678e-08
-1.32407e-09
4.67672e-09
6.98995e-08
-1.59011e-09
6.34498e-09
7.21869e-08
-1.86063e-09
7.96414e-09
7.3743e-08
-2.13687e-09
9.49855e-09
7.47253e-08
-2.42535e-09
1.09109e-08
7.52513e-08
-2.72386e-09
1.21752e-08
7.54147e-08
-3.03573e-09
1.32769e-08
7.52855e-08
-3.356e-09
1.41986e-08
7.49216e-08
-3.68641e-09
1.49259e-08
7.43664e-08
-4.02086e-09
1.54509e-08
7.36575e-08
-4.35984e-09
1.57689e-08
7.28232e-08
-4.69699e-09
1.58688e-08
7.18884e-08
-5.03225e-09
1.57444e-08
7.08717e-08
-5.35942e-09
1.53986e-08
6.97896e-08
-5.67823e-09
1.48273e-08
6.8653e-08
-5.98283e-09
1.40353e-08
6.74707e-08
-6.27295e-09
1.30265e-08
6.62454e-08
-6.54318e-09
1.18169e-08
6.49766e-08
-6.79332e-09
1.04207e-08
6.36567e-08
-7.01845e-09
8.86099e-09
6.22713e-08
-7.21838e-09
7.16675e-09
6.07952e-08
-7.38866e-09
5.38122e-09
5.91908e-08
-7.52908e-09
3.55438e-09
5.74024e-08
-7.63547e-09
1.76085e-09
5.53517e-08
-7.7069e-09
8.66688e-11
5.29305e-08
-7.73686e-09
-1.34407e-09
4.99891e-08
-7.72013e-09
-2.37889e-09
4.63263e-08
-7.65615e-09
-2.76849e-09
4.16638e-08
-7.57688e-09
-2.21876e-09
3.5642e-08
-7.46767e-09
2.2686e-08
-6.71854e-09
-9.35912e-10
3.01983e-08
1.48853e-09
-6.5734e-10
4.71792e-08
7.72659e-10
2.82845e-10
5.50301e-08
2.91112e-10
1.57832e-09
6.0965e-08
-1.17509e-11
3.0556e-09
6.54349e-08
-2.34799e-10
4.61974e-09
6.87825e-08
-4.46121e-10
6.20246e-09
7.12654e-08
-6.60927e-10
7.75127e-09
7.30785e-08
-8.84812e-10
9.22547e-09
7.43677e-08
-1.11571e-09
1.05879e-08
7.52455e-08
-1.3576e-09
1.18148e-08
7.5796e-08
-1.6081e-09
1.28852e-08
7.60856e-08
-1.86913e-09
1.37774e-08
7.61636e-08
-2.1356e-09
1.44817e-08
7.60704e-08
-2.40851e-09
1.49876e-08
7.58358e-08
-2.6827e-09
1.52831e-08
7.54849e-08
-2.95841e-09
1.53673e-08
7.50358e-08
-3.23051e-09
1.52335e-08
7.45037e-08
-3.49895e-09
1.48839e-08
7.38983e-08
-3.75881e-09
1.43204e-08
7.32271e-08
-4.00997e-09
1.35459e-08
7.24918e-08
-4.24784e-09
1.25737e-08
7.16912e-08
-4.47238e-09
1.14127e-08
7.08174e-08
-4.6794e-09
1.00805e-08
6.98569e-08
-4.86901e-09
8.60319e-09
6.87866e-08
-5.03742e-09
7.00975e-09
6.75733e-08
-5.18485e-09
5.34028e-09
6.61681e-08
-5.30791e-09
3.64646e-09
6.45039e-08
-5.40691e-09
1.99018e-09
6.24868e-08
-5.47834e-09
4.51292e-10
5.99898e-08
-5.52075e-09
-8.71659e-10
5.68386e-08
-5.52784e-09
-1.83963e-09
5.28006e-08
-5.50463e-09
-2.25281e-09
4.75564e-08
-5.48058e-09
-1.84546e-09
4.06883e-08
-5.45284e-09
2.57895e-08
-4.94877e-09
-5.6867e-10
2.93282e-08
1.43743e-09
-3.79491e-10
4.60784e-08
9.13753e-10
2.41152e-10
5.38521e-08
5.56992e-10
1.09721e-09
5.97702e-08
3.3904e-10
2.07627e-09
6.42824e-08
1.72907e-10
3.11858e-09
6.77238e-08
1.62628e-11
4.17973e-09
7.0348e-08
-1.44037e-10
5.22211e-09
7.23425e-08
-3.067e-10
6.21716e-09
7.38506e-08
-4.78288e-10
7.14167e-09
7.49777e-08
-6.55849e-10
7.97255e-09
7.5805e-08
-8.40931e-10
8.69712e-09
7.6393e-08
-1.03094e-09
9.29804e-09
7.67892e-08
-1.22689e-09
9.7656e-09
7.70279e-08
-1.4248e-09
1.00893e-08
7.71365e-08
-1.62531e-09
1.0265e-08
7.71344e-08
-1.82447e-09
1.02863e-08
7.70373e-08
-2.0227e-09
1.01519e-08
7.6855e-08
-2.21612e-09
9.85974e-09
7.65944e-08
-2.40502e-09
9.41502e-09
7.62575e-08
-2.58573e-09
8.82149e-09
7.58431e-08
-2.75858e-09
8.08867e-09
7.53444e-08
-2.92018e-09
7.22788e-09
7.47498e-08
-3.07095e-09
6.25185e-09
7.40397e-08
-3.20782e-09
5.18412e-09
7.31864e-08
-3.33131e-09
4.04661e-09
7.21496e-08
-3.43866e-09
2.87157e-09
7.08738e-08
-3.53051e-09
1.69672e-09
6.92829e-08
-3.60437e-09
5.71327e-10
6.72726e-08
-3.66073e-09
-4.4462e-10
6.47031e-08
-3.69599e-09
-1.28169e-09
6.13835e-08
-3.70861e-09
-1.84161e-09
5.70601e-08
-3.70028e-09
-1.97415e-09
5.13864e-08
-3.69708e-09
-1.4999e-09
4.39073e-08
-3.69238e-09
2.76336e-08
-3.34517e-09
-4.18702e-10
2.84187e-08
1.32969e-09
-4.39593e-10
4.5096e-08
1.00013e-09
-2.0569e-10
5.28467e-08
7.74396e-10
1.58166e-10
5.8768e-08
6.37294e-10
5.98802e-10
6.331e-08
5.32268e-10
1.08261e-09
6.68096e-08
4.29483e-10
1.59176e-09
6.95162e-08
3.23977e-10
2.10181e-09
7.1618e-08
2.12992e-10
2.60348e-09
7.32537e-08
9.76852e-11
3.07312e-09
7.45287e-08
-2.14512e-11
3.50023e-09
7.55205e-08
-1.43323e-10
3.87332e-09
7.62882e-08
-2.68247e-10
4.18505e-09
7.68748e-08
-3.95934e-10
4.42563e-09
7.73139e-08
-5.26657e-10
4.5884e-09
7.76292e-08
-6.57239e-10
4.67344e-09
7.78396e-08
-7.88059e-10
4.66923e-09
7.79562e-08
-9.16132e-10
4.57954e-09
7.79872e-08
-1.04217e-09
4.4013e-09
7.79356e-08
-1.16336e-09
4.138e-09
7.78016e-08
-1.28045e-09
3.79211e-09
7.75799e-08
-1.39076e-09
3.37093e-09
7.72618e-08
-1.49511e-09
2.87949e-09
7.68315e-08
-1.59101e-09
2.33166e-09
7.62673e-08
-1.6794e-09
1.73885e-09
7.55369e-08
-1.758e-09
1.11832e-09
7.45972e-08
-1.82783e-09
4.92913e-10
7.33878e-08
-1.88685e-09
-1.17134e-10
7.1828e-08
-1.93623e-09
-6.77175e-10
6.98078e-08
-1.97399e-09
-1.15389e-09
6.71803e-08
-2.00063e-09
-1.5038e-09
6.37461e-08
-2.01309e-09
-1.66881e-09
5.9241e-08
-2.01575e-09
-1.56175e-09
5.33042e-08
-2.02455e-09
-1.07897e-09
4.54595e-08
-2.03459e-09
2.83802e-08
-1.82518e-09
-5.23582e-10
2.75585e-08
1.3821e-09
-8.11074e-10
4.41309e-08
1.25498e-09
-9.54792e-10
5.18356e-08
1.15316e-09
-1.00998e-09
5.77294e-08
1.09504e-09
-1.00775e-09
6.22626e-08
1.04451e-09
-9.60079e-10
6.57699e-08
9.91245e-10
-8.75183e-10
6.85007e-08
9.31655e-10
-7.66026e-10
7.06404e-08
8.68269e-10
-6.41063e-10
7.23278e-08
8.00233e-10
-5.06178e-10
7.36656e-08
7.29704e-10
-3.75218e-10
7.47314e-08
6.55566e-10
-2.46979e-10
7.55816e-08
5.79984e-10
-1.33442e-10
7.6259e-08
5.02635e-10
-4.07181e-11
7.6794e-08
4.25792e-10
3.13808e-11
7.72101e-08
3.48602e-10
7.59773e-11
7.75226e-08
2.72468e-10
9.32563e-11
7.77427e-08
1.96583e-10
8.14505e-11
7.7876e-08
1.23027e-10
4.14255e-11
7.79249e-08
5.11477e-11
-2.81032e-11
7.78868e-08
-1.61618e-11
-1.2333e-10
7.77562e-08
-8.07314e-11
-2.4403e-10
7.75215e-08
-1.39761e-10
-3.8249e-10
7.71665e-08
-1.9542e-10
-5.36425e-10
7.66669e-08
-2.45903e-10
-6.97575e-10
7.59899e-08
-2.92338e-10
-8.56983e-10
7.509e-08
-3.33065e-10
-1.00471e-09
7.3906e-08
-3.69512e-10
-1.1324e-09
7.23553e-08
-4.00334e-10
-1.22492e-09
7.0327e-08
-4.27172e-10
-1.26798e-09
6.76723e-08
-4.48661e-10
-1.24653e-09
6.41913e-08
-4.66264e-10
-1.14223e-09
5.96173e-08
-4.81731e-10
-9.18269e-10
5.35895e-08
-5.09242e-10
-5.42277e-10
4.56281e-08
-5.42429e-10
2.83144e-08
-4.78842e-10
-7.16595e-10
2.67306e-08
1.54384e-09
-1.23853e-09
4.30593e-08
1.59483e-09
-1.65037e-09
5.06499e-08
1.5972e-09
-1.98456e-09
5.64596e-08
1.60249e-09
-2.24964e-09
6.09316e-08
1.59812e-09
-2.46159e-09
6.43968e-08
1.58271e-09
-2.61841e-09
6.71001e-08
1.55989e-09
-2.73487e-09
6.92251e-08
1.53041e-09
-2.81131e-09
7.09076e-08
1.49736e-09
-2.85675e-09
7.22496e-08
1.46036e-09
-2.87325e-09
7.3326e-08
1.42174e-09
-2.86433e-09
7.41933e-08
1.38075e-09
-2.83784e-09
7.48923e-08
1.33941e-09
-2.79484e-09
7.54537e-08
1.29676e-09
-2.73785e-09
7.58986e-08
1.25486e-09
-2.67075e-09
7.62419e-08
1.213e-09
-2.59345e-09
7.64931e-08
1.1729e-09
-2.50882e-09
7.66579e-08
1.13344e-09
-2.41782e-09
7.67369e-08
1.09633e-09
-2.31933e-09
7.67282e-08
1.06037e-09
-2.21474e-09
7.66241e-08
1.02714e-09
-2.10286e-09
7.64139e-08
9.95352e-10
-1.98106e-09
7.60797e-08
9.66476e-10
-1.85355e-09
7.55979e-08
9.39073e-10
-1.71019e-09
7.49349e-08
9.14467e-10
-1.5589e-09
7.4046e-08
8.91039e-10
-1.39322e-09
7.28702e-08
8.69851e-10
-1.2132e-09
7.13268e-08
8.48957e-10
-1.02027e-09
6.93059e-08
8.28931e-10
-8.18506e-10
6.66625e-08
8.07364e-10
-6.11249e-10
6.32e-08
7.84137e-10
-4.06047e-10
5.86581e-08
7.53848e-10
-2.06649e-10
5.2684e-08
7.06983e-10
-3.24624e-11
4.48083e-08
6.42935e-10
2.77106e-08
5.72527e-10
-8.38633e-10
2.59604e-08
1.60892e-09
-1.48239e-09
4.19233e-08
1.77899e-09
-2.02195e-09
4.93445e-08
1.84652e-09
-2.4818e-09
5.50256e-08
1.89287e-09
-2.86626e-09
5.93999e-08
1.91652e-09
-3.18516e-09
6.27891e-08
1.92617e-09
-3.44549e-09
6.54337e-08
1.92521e-09
-3.64814e-09
6.75121e-08
1.91791e-09
-3.80446e-09
6.91581e-08
1.90517e-09
-3.91501e-09
7.04702e-08
1.88972e-09
-3.98322e-09
7.15229e-08
1.87141e-09
-4.0109e-09
7.23701e-08
1.85227e-09
-4.00474e-09
7.30528e-08
1.8317e-09
-3.96114e-09
7.35998e-08
1.81147e-09
-3.88633e-09
7.40327e-08
1.7907e-09
-3.77993e-09
7.43656e-08
1.77102e-09
-3.64771e-09
7.46082e-08
1.7514e-09
-3.48841e-09
7.47649e-08
1.73332e-09
-3.30182e-09
7.48372e-08
1.71565e-09
-3.09712e-09
7.48214e-08
1.69972e-09
-2.86818e-09
7.47114e-08
1.68428e-09
-2.62039e-09
7.44949e-08
1.67053e-09
-2.35175e-09
7.41557e-08
1.65709e-09
-2.06795e-09
7.36693e-08
1.64501e-09
-1.77082e-09
7.30041e-08
1.63274e-09
-1.46102e-09
7.21155e-08
1.62111e-09
-1.1435e-09
7.09455e-08
1.60828e-09
-8.27892e-10
6.94147e-08
1.59462e-09
-5.17851e-10
6.74186e-08
1.5777e-09
-2.27716e-10
6.48156e-08
1.55703e-09
2.69915e-11
6.14177e-08
1.52893e-09
2.2171e-10
5.69725e-08
1.48993e-09
3.3415e-10
5.11421e-08
1.42864e-09
3.27903e-10
4.3474e-08
1.34288e-09
2.68589e-08
1.17843e-09
-7.7587e-10
2.5305e-08
1.43103e-09
-1.38691e-09
4.08994e-08
1.63606e-09
-1.91766e-09
4.81489e-08
1.72599e-09
-2.37639e-09
5.36993e-08
1.78387e-09
-2.76466e-09
5.79716e-08
1.81717e-09
-3.08998e-09
6.12802e-08
1.83483e-09
-3.35932e-09
6.38588e-08
1.84315e-09
-3.57286e-09
6.58828e-08
1.84417e-09
-3.74008e-09
6.74817e-08
1.84113e-09
-3.85531e-09
6.87532e-08
1.83452e-09
-3.92953e-09
6.97689e-08
1.8265e-09
-3.95728e-09
7.05829e-08
1.81682e-09
-3.94616e-09
7.12342e-08
1.80717e-09
-3.89617e-09
7.17524e-08
1.79694e-09
-3.80701e-09
7.21576e-08
1.78757e-09
-3.6864e-09
7.24647e-08
1.77826e-09
-3.53019e-09
7.26824e-08
1.7703e-09
-3.34387e-09
7.28161e-08
1.76272e-09
-3.12854e-09
7.28661e-08
1.75667e-09
-2.88926e-09
7.28302e-08
1.75106e-09
-2.62605e-09
7.2701e-08
1.74689e-09
-2.34124e-09
7.2468e-08
1.74293e-09
-2.03943e-09
7.2114e-08
1.74003e-09
-1.72479e-09
7.16167e-08
1.73683e-09
-1.39823e-09
7.0944e-08
1.73401e-09
-1.06665e-09
7.00543e-08
1.72997e-09
-7.37206e-10
6.88901e-08
1.72509e-09
-4.14246e-10
6.73764e-08
1.71734e-09
-1.13977e-10
6.54106e-08
1.70647e-09
1.54374e-10
6.28583e-08
1.68955e-09
3.69373e-10
5.95371e-08
1.66496e-09
5.10365e-10
5.52052e-08
1.62707e-09
5.45207e-10
4.95374e-08
1.56806e-09
4.39603e-10
4.20992e-08
1.48133e-09
2.60066e-08
1.29215e-09
-5.39918e-10
2.48686e-08
9.779e-10
-1.00389e-09
4.02207e-08
1.14035e-09
-1.42457e-09
4.73576e-08
1.21249e-09
-1.80205e-09
5.282e-08
1.25778e-09
-2.13654e-09
5.70224e-08
1.28215e-09
-2.42438e-09
6.02729e-08
1.29509e-09
-2.668e-09
6.28025e-08
1.3e-09
-2.8673e-09
6.47827e-08
1.30019e-09
-3.02649e-09
6.63425e-08
1.29654e-09
-3.13915e-09
6.75771e-08
1.29118e-09
-3.21573e-09
6.85585e-08
1.28422e-09
-3.24725e-09
6.93392e-08
1.27721e-09
-3.24493e-09
6.9959e-08
1.26985e-09
-3.19998e-09
7.04463e-08
1.26343e-09
-3.12326e-09
7.08223e-08
1.25741e-09
-3.01117e-09
7.11008e-08
1.25293e-09
-2.87122e-09
7.12918e-08
1.24928e-09
-2.7009e-09
7.13996e-08
1.24744e-09
-2.50809e-09
7.1426e-08
1.24655e-09
-2.29416e-09
7.13677e-08
1.24746e-09
-2.05994e-09
7.12188e-08
1.24915e-09
-1.81187e-09
7.09678e-08
1.25233e-09
-1.55398e-09
7.05992e-08
1.25585e-09
-1.28733e-09
7.009e-08
1.26025e-09
-1.01757e-09
6.94101e-08
1.26426e-09
-7.49895e-10
6.85177e-08
1.26822e-09
-4.8762e-10
6.7358e-08
1.27062e-09
-2.39382e-10
6.58563e-08
1.27147e-09
-1.19073e-11
6.39148e-08
1.2688e-09
1.82135e-10
6.14007e-08
1.26192e-09
3.3321e-10
5.81384e-08
1.24782e-09
4.24767e-10
5.38912e-08
1.22391e-09
4.34057e-10
4.83445e-08
1.18305e-09
3.35386e-10
4.10754e-08
1.12181e-09
2.53662e-08
9.76265e-10
-2.11505e-10
2.47265e-08
3.53634e-10
-4.61454e-10
4.00502e-08
4.21051e-10
-7.25631e-10
4.71715e-08
4.515e-10
-9.93551e-10
5.26187e-08
4.67336e-10
-1.24728e-09
5.68045e-08
4.72359e-10
-1.48349e-09
6.00376e-08
4.70873e-10
-1.69276e-09
6.25478e-08
4.65828e-10
-1.87711e-09
6.45075e-08
4.57899e-10
-2.02716e-09
6.60449e-08
4.48735e-10
-2.14607e-09
6.72565e-08
4.38492e-10
-2.2291e-09
6.82133e-08
4.28488e-10
-2.27842e-09
6.89695e-08
4.18594e-10
-2.29283e-09
6.95641e-08
4.09923e-10
-2.27562e-09
7.00269e-08
4.02181e-10
-2.22919e-09
7.03784e-08
3.9635e-10
-2.15273e-09
7.06338e-08
3.9203e-10
-2.05455e-09
7.08019e-08
3.90072e-10
-1.93209e-09
7.08888e-08
3.90047e-10
-1.79445e-09
7.08948e-08
3.92699e-10
-1.64208e-09
7.08184e-08
3.96853e-10
-1.47772e-09
7.06525e-08
4.03066e-10
-1.30865e-09
7.0387e-08
4.10614e-10
-1.13469e-09
7.00054e-08
4.19879e-10
-9.60267e-10
6.94861e-08
4.29895e-10
-7.88653e-10
6.87978e-08
4.40946e-10
-6.23219e-10
6.79004e-08
4.51927e-10
-4.67753e-10
6.67383e-08
4.62985e-10
-3.22171e-10
6.52388e-08
4.72879e-10
-1.9246e-10
6.33032e-08
4.81538e-10
-7.94928e-11
6.08016e-08
4.87433e-10
8.19562e-12
5.75587e-08
4.90056e-10
7.22779e-11
5.33415e-08
4.87167e-10
1.02997e-10
4.78372e-08
4.76796e-10
9.14534e-11
4.0628e-08
4.5773e-10
2.50548e-08
4.03894e-10
1.07085e-10
2.49032e-08
-2.81626e-10
5.56944e-11
4.04186e-08
-3.20542e-10
-5.91061e-11
4.76262e-08
-3.3817e-10
-2.19525e-10
5.31336e-08
-3.54496e-10
-4.04112e-10
5.73599e-08
-3.71881e-10
-5.9453e-10
6.0618e-08
-3.89159e-10
-7.821e-10
6.31417e-08
-4.06666e-10
-9.56289e-10
6.51055e-08
-4.23792e-10
-1.11043e-09
6.66404e-08
-4.40808e-10
-1.23959e-09
6.78437e-08
-4.56911e-10
-1.34446e-09
6.8789e-08
-4.72248e-10
-1.41853e-09
6.95303e-08
-4.85978e-10
-1.46454e-09
7.01087e-08
-4.98283e-10
-1.48225e-09
7.05537e-08
-5.08376e-10
-1.47644e-09
7.08874e-08
-5.16447e-10
-1.4447e-09
7.11247e-08
-5.21797e-10
-1.39352e-09
7.12759e-08
-5.24748e-10
-1.32543e-09
7.13461e-08
-5.2484e-10
-1.24541e-09
7.13373e-08
-5.22529e-10
-1.15797e-09
7.12467e-08
-5.17001e-10
-1.0638e-09
7.10686e-08
-5.08892e-10
-9.70289e-10
7.07915e-08
-4.98055e-10
-8.79949e-10
7.03999e-08
-4.85216e-10
-7.94826e-10
6.98708e-08
-4.70219e-10
-7.17134e-10
6.91738e-08
-4.539e-10
-6.4591e-10
6.82671e-08
-4.36126e-10
-5.85786e-10
6.70956e-08
-4.17743e-10
-5.33917e-10
6.55847e-08
-3.98569e-10
-4.86131e-10
6.3636e-08
-3.7934e-10
-4.42269e-10
6.11172e-08
-3.5973e-10
-3.96062e-10
5.78522e-08
-3.40234e-10
-3.38776e-10
5.36054e-08
-3.19993e-10
-2.65472e-10
4.80616e-08
-2.98297e-10
-1.66087e-10
4.07988e-08
-2.70622e-10
2.51102e-08
-2.20757e-10
3.27994e-10
2.53473e-08
-7.7254e-10
4.27675e-10
4.12178e-08
-8.98739e-10
4.23482e-10
4.85866e-08
-9.55632e-10
3.44443e-10
5.42113e-08
-9.99055e-10
2.18342e-10
5.85208e-08
-1.03478e-09
6.49169e-11
6.18372e-08
-1.06594e-09
-9.97871e-11
6.43994e-08
-1.0938e-09
-2.62053e-10
6.63875e-08
-1.11951e-09
-4.14217e-10
6.79352e-08
-1.14316e-09
-5.4932e-10
6.91435e-08
-1.16516e-09
-6.60485e-10
7.00872e-08
-1.18508e-09
-7.52547e-10
7.0823e-08
-1.20301e-09
-8.1662e-10
7.13924e-08
-1.21831e-09
-8.58387e-10
7.18267e-08
-1.23105e-09
-8.78865e-10
7.21483e-08
-1.24065e-09
-8.81455e-10
7.23734e-08
-1.24724e-09
-8.67357e-10
7.25122e-08
-1.25037e-09
-8.42001e-10
7.2571e-08
-1.2503e-09
-8.08427e-10
7.25511e-08
-1.24673e-09
-7.7266e-10
7.24508e-08
-1.24003e-09
-7.38502e-10
7.22631e-08
-1.22995e-09
-7.05958e-10
7.19775e-08
-1.21702e-09
-6.83162e-10
7.15771e-08
-1.20115e-09
-6.68599e-10
7.10391e-08
-1.18293e-09
-6.64903e-10
7.03316e-08
-1.16233e-09
-6.68599e-10
6.94125e-08
-1.13996e-09
-6.82721e-10
6.82245e-08
-1.1157e-09
-6.99723e-10
6.66922e-08
-1.08996e-09
-7.16395e-10
6.47137e-08
-1.06231e-09
-7.21939e-10
6.21549e-08
-1.03261e-09
-7.03409e-10
5.88347e-08
-9.99682e-10
-6.50344e-10
5.4513e-08
-9.61905e-10
-5.40272e-10
4.88667e-08
-9.14784e-10
-3.54605e-10
4.14653e-08
-8.50988e-10
2.54722e-08
-7.18125e-10
4.1629e-10
2.59573e-08
-1.02713e-09
5.84439e-10
4.22486e-08
-1.19732e-09
6.35364e-10
4.98098e-08
-1.27484e-09
6.02189e-10
5.55758e-08
-1.3323e-09
5.14107e-10
5.99878e-08
-1.37794e-09
3.90404e-10
6.3377e-08
-1.41623e-09
2.48862e-10
6.59901e-08
-1.44989e-09
1.0505e-10
6.80119e-08
-1.48004e-09
-3.35065e-11
6.9581e-08
-1.50762e-09
-1.57178e-10
7.08009e-08
-1.5327e-09
-2.64017e-10
7.17497e-08
-1.55555e-09
-3.51721e-10
7.24853e-08
-1.57578e-09
-4.17585e-10
7.30516e-08
-1.5934e-09
-4.6232e-10
7.34804e-08
-1.60792e-09
-4.91396e-10
7.37955e-08
-1.61932e-09
-5.03333e-10
7.40133e-08
-1.62715e-09
-5.05358e-10
7.4145e-08
-1.63148e-09
-4.98619e-10
7.41966e-08
-1.63198e-09
-4.88723e-10
7.41702e-08
-1.62884e-09
-4.79661e-10
7.40634e-08
-1.6219e-09
-4.73953e-10
7.38698e-08
-1.61151e-09
-4.76092e-10
7.35778e-08
-1.59762e-09
-4.9069e-10
7.31708e-08
-1.5807e-09
-5.12829e-10
7.26246e-08
-1.56078e-09
-5.5252e-10
7.19069e-08
-1.53838e-09
-5.99503e-10
7.09737e-08
-1.51349e-09
-6.54276e-10
6.97666e-08
-1.48649e-09
-7.14198e-10
6.82073e-08
-1.45712e-09
-7.64771e-10
6.61916e-08
-1.42528e-09
-8.00635e-10
6.35809e-08
-1.39003e-09
-8.06703e-10
6.01895e-08
-1.35022e-09
-7.60523e-10
5.57706e-08
-1.30291e-09
-6.42792e-10
4.99921e-08
-1.24268e-09
-4.30044e-10
4.2412e-08
-1.16022e-09
2.60282e-08
-9.85282e-10
3.77475e-10
2.66053e-08
-1.02665e-09
5.31979e-10
4.32865e-08
-1.19274e-09
5.86173e-10
5.10265e-08
-1.26933e-09
5.63637e-10
5.69248e-08
-1.32684e-09
4.90493e-10
6.14329e-08
-1.3723e-09
3.86225e-10
6.48916e-08
-1.41067e-09
2.67739e-10
6.75532e-08
-1.44433e-09
1.47013e-10
6.96083e-08
-1.4747e-09
3.14058e-11
7.11987e-08
-1.50239e-09
-7.26241e-11
7.24316e-08
-1.52782e-09
-1.57566e-10
7.33867e-08
-1.55087e-09
-2.25009e-10
7.41244e-08
-1.57153e-09
-2.72134e-10
7.46893e-08
-1.58943e-09
-3.03459e-10
7.51151e-08
-1.60444e-09
-3.17872e-10
7.54257e-08
-1.61616e-09
-3.17467e-10
7.56388e-08
-1.62451e-09
-3.10267e-10
7.57656e-08
-1.62917e-09
-2.94376e-10
7.58126e-08
-1.63018e-09
-2.78833e-10
7.57818e-08
-1.62737e-09
-2.66027e-10
7.56712e-08
-1.62092e-09
-2.58068e-10
7.54737e-08
-1.61082e-09
-2.62855e-10
7.5178e-08
-1.59738e-09
-2.76076e-10
7.47663e-08
-1.5807e-09
-3.04522e-10
7.42143e-08
-1.56119e-09
-3.46877e-10
7.34882e-08
-1.539e-09
-4.02761e-10
7.25432e-08
-1.51448e-09
-4.65722e-10
7.13188e-08
-1.48768e-09
-5.3717e-10
6.97347e-08
-1.45867e-09
-6.00805e-10
6.7684e-08
-1.42705e-09
-6.5248e-10
6.50243e-08
-1.39221e-09
-6.74125e-10
6.1565e-08
-1.3527e-09
-6.51619e-10
5.70533e-08
-1.30599e-09
-5.60147e-10
5.11484e-08
-1.24649e-09
-3.82525e-10
4.33983e-08
-1.16645e-09
2.66434e-08
-9.97006e-10
2.49807e-10
2.71742e-08
-8.17641e-10
3.35867e-10
4.41386e-08
-9.38756e-10
3.49211e-10
5.20093e-08
-9.96643e-10
3.11199e-10
5.80044e-08
-1.04211e-09
2.40852e-10
6.25831e-08
-1.07919e-09
1.50976e-10
6.60923e-08
-1.11126e-09
5.49073e-11
6.87892e-08
-1.14017e-09
-3.80362e-11
7.08679e-08
-1.16674e-09
-1.20327e-10
7.24734e-08
-1.19148e-09
-1.89546e-10
7.37147e-08
-1.21444e-09
-2.42578e-10
7.46737e-08
-1.23558e-09
-2.74181e-10
7.54118e-08
-1.25462e-09
-2.88241e-10
7.59752e-08
-1.27134e-09
-2.86987e-10
7.63978e-08
-1.28538e-09
-2.68501e-10
7.6705e-08
-1.29653e-09
-2.39123e-10
7.69143e-08
-1.30449e-09
-2.03656e-10
7.70375e-08
-1.30915e-09
-1.63542e-10
7.70814e-08
-1.31031e-09
-1.19632e-10
7.70482e-08
-1.30802e-09
-8.20306e-11
7.69355e-08
-1.30225e-09
-5.25439e-11
7.67366e-08
-1.29319e-09
-3.23747e-11
7.64394e-08
-1.28096e-09
-2.60531e-11
7.60259e-08
-1.26586e-09
-3.55874e-11
7.54711e-08
-1.24811e-09
-5.99659e-11
7.47407e-08
-1.22808e-09
-9.87285e-11
7.37885e-08
-1.20598e-09
-1.51645e-10
7.25529e-08
-1.1821e-09
-2.11145e-10
7.09519e-08
-1.15647e-09
-2.75754e-10
6.88764e-08
-1.12904e-09
-3.33345e-10
6.61812e-08
-1.09929e-09
-3.75079e-10
6.26724e-08
-1.06639e-09
-3.85032e-10
5.80924e-08
-1.0284e-09
-3.48905e-10
5.20944e-08
-9.81483e-10
-2.48966e-10
4.4219e-08
-9.21121e-10
2.71917e-08
-7.9755e-10
7.41894e-11
2.75793e-08
-4.8045e-10
6.44476e-11
4.46807e-08
-5.31152e-10
1.81479e-11
5.26152e-08
-5.59049e-10
-5.16443e-11
5.86575e-08
-5.85002e-10
-1.2842e-10
6.327e-08
-6.08279e-10
-2.10487e-10
6.68026e-08
-6.30076e-10
-2.8362e-10
6.95147e-08
-6.50977e-10
-3.47211e-10
7.16025e-08
-6.71223e-10
-3.95309e-10
7.32123e-08
-6.90789e-10
-4.26104e-10
7.44545e-08
-7.09522e-10
-4.36364e-10
7.54119e-08
-7.27115e-10
-4.29506e-10
7.6147e-08
-7.43267e-10
-4.02751e-10
7.67063e-08
-7.57603e-10
-3.5809e-10
7.71246e-08
-7.69812e-10
-3.02022e-10
7.74275e-08
-7.79579e-10
-2.3473e-10
7.76329e-08
-7.86665e-10
-1.58993e-10
7.77531e-08
-7.90862e-10
-8.03839e-11
7.77948e-08
-7.92076e-10
-1.80758e-12
7.77602e-08
-7.90248e-10
7.20384e-11
7.76472e-08
-7.8544e-10
1.39311e-10
7.74486e-08
-7.77749e-10
1.90337e-10
7.71523e-08
-7.67388e-10
2.33466e-10
7.67403e-08
-7.5458e-10
2.56338e-10
7.61867e-08
-7.39657e-10
2.63531e-10
7.5457e-08
-7.22932e-10
2.53137e-10
7.45042e-08
-7.04771e-10
2.24514e-10
7.3266e-08
-6.85481e-10
1.83487e-10
7.16595e-08
-6.65355e-10
1.29196e-10
6.95743e-08
-6.44547e-10
7.06526e-11
6.68639e-08
-6.23068e-10
1.05251e-11
6.33323e-08
-6.00686e-10
-3.99594e-11
5.87199e-08
-5.76722e-10
-7.27716e-11
5.2677e-08
-5.49682e-10
-7.47004e-11
4.47413e-08
-5.19929e-10
2.75841e-08
-4.67347e-10
-9.71418e-11
2.7778e-08
-1.02851e-10
-2.04594e-10
4.48653e-08
-7.51769e-11
-3.16179e-10
5.27943e-08
-6.92521e-11
-4.16043e-10
5.88319e-08
-7.29308e-11
-5.05305e-10
6.34395e-08
-8.04224e-11
-5.80938e-10
6.69665e-08
-9.03271e-11
-6.34003e-10
6.96725e-08
-1.01935e-10
-6.71042e-10
7.17533e-08
-1.14725e-10
-6.86922e-10
7.33557e-08
-1.28184e-10
-6.79536e-10
7.45902e-08
-1.41822e-10
-6.52615e-10
7.55398e-08
-1.55159e-10
-6.05125e-10
7.62673e-08
-1.67748e-10
-5.39787e-10
7.68194e-08
-1.79169e-10
-4.56456e-10
7.72314e-08
-1.89045e-10
-3.61108e-10
7.75287e-08
-1.97052e-10
-2.54297e-10
7.77298e-08
-2.0293e-10
-1.42505e-10
7.78467e-08
-2.06482e-10
-2.49399e-11
7.78866e-08
-2.07586e-10
8.89852e-11
7.78516e-08
-2.06206e-10
1.98729e-10
7.77394e-08
-2.02378e-10
3.01311e-10
7.7543e-08
-1.96224e-10
3.91691e-10
7.72501e-08
-1.87935e-10
4.66862e-10
7.68424e-08
-1.77774e-10
5.26759e-10
7.62943e-08
-1.66067e-10
5.665e-10
7.55704e-08
-1.53183e-10
5.85753e-10
7.46241e-08
-1.39549e-10
5.84297e-10
7.33925e-08
-1.25594e-10
5.64891e-10
7.17927e-08
-1.11801e-10
5.22205e-10
6.97139e-08
-9.86586e-11
4.63729e-10
6.70097e-08
-8.66604e-11
3.88936e-10
6.34841e-08
-7.63342e-11
2.98545e-10
5.88775e-08
-6.83239e-11
1.99587e-10
5.28408e-08
-6.37538e-11
9.57794e-11
4.49127e-08
-6.81739e-11
2.77745e-08
-9.44367e-11
-2.37438e-10
2.77714e-08
2.43546e-10
-4.30982e-10
4.47148e-08
3.44109e-10
-5.9677e-10
5.25783e-08
3.80838e-10
-7.27668e-10
5.8566e-08
3.97364e-10
-8.25928e-10
6.31347e-08
4.0431e-10
-8.97295e-10
6.66305e-08
4.05371e-10
-9.37352e-10
6.9311e-08
4.02415e-10
-9.50297e-10
7.13705e-08
3.96665e-10
-9.4066e-10
7.29546e-08
3.89032e-10
-9.0311e-10
7.41733e-08
3.80322e-10
-8.43487e-10
7.51092e-08
3.71149e-10
-7.63157e-10
7.58247e-08
3.62088e-10
-6.63737e-10
7.63667e-08
3.53587e-10
-5.49578e-10
7.677e-08
3.46076e-10
-4.20576e-10
7.70605e-08
3.39868e-10
-2.82447e-10
7.72563e-08
3.3526e-10
-1.3771e-10
7.73698e-08
3.3242e-10
9.33198e-12
7.74079e-08
3.31488e-10
1.54209e-10
7.7373e-08
3.32492e-10
2.96026e-10
7.72627e-08
3.35406e-10
4.29443e-10
7.707e-08
3.40098e-10
5.49577e-10
7.67825e-08
3.4639e-10
6.574e-10