/*--------------------------------*- C++ -*----------------------------------*\
| =========                 |                                                 |
| \\      /  F ield         | OpenFOAM: The Open Source CFD Toolbox           |
|  \\    /   O peration     | Version:  v2006                                 |
|   \\  /    A nd           | Website:  www.openfoam.com                      |
|    \\/     M anipulation  |                                                 |
\*---------------------------------------------------------------------------*/
FoamFile
{
    version     2.0;
    format      ascii;
    class       volScalarField;
    location    "62";
    object      alphat;
}
// * * * * * * * * * * * * * * * * * * * * * * * * * * * * * * * * * * * * * //

dimensions      [1 -1 -1 0 0 0 0];


internalField   nonuniform List<scalar> 
78750
(
0.000684745
0.00157521
0.00112328
0.000444065
2.13612e-05
3.21055e-05
4.83672e-05
2.58156e-05
4.49285e-05
3.92369e-05
4.75092e-05
5.03076e-05
5.42866e-05
5.90709e-05
6.35391e-05
6.83211e-05
7.04937e-05
6.8596e-05
6.68023e-05
6.51676e-05
6.36348e-05
6.2172e-05
6.07848e-05
5.94949e-05
5.83313e-05
5.73458e-05
5.65804e-05
5.60427e-05
5.56939e-05
5.32994e-05
4.98009e-05
4.59396e-05
3.67567e-05
1.38068e-05
5.88464e-07
2.7203e-05
7.27131e-05
0.000143814
2.54481e-05
2.75896e-05
3.49416e-05
3.84062e-05
5.49006e-05
7.09354e-05
8.57565e-05
9.54468e-05
0.000105087
0.000116522
0.000128546
0.00014019
0.000151027
0.000160973
0.000169302
0.000169405
0.000164248
0.000159216
0.000154356
0.000149699
0.000145256
0.000132083
0.000113128
9.79441e-05
8.51965e-05
7.49482e-05
6.71109e-05
6.00467e-05
4.72121e-05
1.66371e-05
4.4357e-06
1.40158e-06
2.40392e-06
9.85727e-05
0.000243828
0.000135645
0.000119889
8.9515e-05
6.83083e-05
7.33645e-05
9.94355e-05
0.000132927
0.000156445
0.000162111
0.000157501
0.000152414
0.000148835
0.000145097
0.00014092
0.000137317
0.000135076
0.000134098
0.000133821
0.000133743
0.000133549
0.000133121
0.000132255
0.000130294
0.000126325
0.00011931
0.000107884
9.03274e-05
6.47386e-05
3.20415e-05
9.72479e-06
5.8098e-06
2.74159e-06
4.10925e-06
2.43883e-05
7.50694e-05
0.000104483
6.94993e-05
5.021e-05
4.58177e-05
4.95387e-05
5.71311e-05
6.45232e-05
6.93194e-05
7.65143e-05
9.60764e-05
0.000132506
0.000162553
0.000167396
0.000162973
0.000160043
0.000160545
0.000162963
0.00016493
0.000165117
0.000163427
0.000160317
0.000156268
0.000151564
0.000146204
0.000139821
0.000131394
0.000117509
8.92993e-05
4.11258e-05
9.55387e-06
5.45109e-06
3.63947e-06
7.68009e-06
0.00011068
0.0001132
5.43511e-05
3.46142e-05
3.45351e-05
5.5234e-05
0.000116238
0.000193757
0.000185231
0.000155494
0.000153373
0.000186277
0.000228389
0.000226829
0.000224978
0.000223045
0.000221155
0.000219383
0.000217776
0.000212601
0.000201423
0.000193055
0.000186704
0.000181557
0.000176682
0.000170791
0.000162041
0.000147773
0.000124023
8.48514e-05
3.5563e-05
1.14003e-05
8.97765e-06
4.75793e-06
7.77152e-06
4.47579e-05
0.000106202
6.54224e-05
3.75486e-05
3.12943e-05
3.4302e-05
4.11894e-05
5.04868e-05
6.2564e-05
7.49531e-05
8.25924e-05
8.60141e-05
9.2549e-05
0.00011077
0.000146835
0.000190468
0.00021798
0.000222615
0.000220842
0.000219239
0.000217824
0.000216586
0.000215489
0.000208561
0.000200405
0.000190824
0.000178401
0.000161084
0.000135681
9.51844e-05
3.93989e-05
1.15532e-05
9.96308e-06
5.47984e-06
6.6044e-06
7.99006e-05
0.00016475
0.00010426
6.23998e-05
4.25117e-05
3.43821e-05
3.56051e-05
4.40059e-05
5.70702e-05
7.31764e-05
9.11865e-05
0.000112736
0.000142262
0.000180107
0.00021667
0.000219606
0.000219736
0.000219715
0.000219625
0.000219537
0.000219492
0.000219502
0.000219548
0.000216424
0.000206031
0.000192267
0.000173922
0.000149385
0.000116528
7.30956e-05
3.0073e-05
1.19436e-05
1.4265e-05
6.34118e-06
6.07657e-06
3.42347e-05
9.46845e-05
0.000141046
0.000156721
0.000107438
5.77973e-05
3.84202e-05
3.28932e-05
3.36496e-05
3.89619e-05
4.85832e-05
6.03501e-05
6.83233e-05
6.98427e-05
7.076e-05
7.917e-05
0.000101415
0.000137201
0.000171567
0.000192265
0.000201783
0.000204727
0.00020346
0.000199092
0.000191929
0.000181553
0.000166912
0.000146661
0.000118555
7.76881e-05
3.17027e-05
1.25879e-05
1.57896e-05
6.89807e-06
4.95821e-06
5.78775e-05
0.00014382
0.000188601
0.000207786
0.000214456
0.00018832
0.000113292
6.46447e-05
4.52407e-05
3.77037e-05
3.55891e-05
3.83443e-05
4.85068e-05
7.02469e-05
0.000101786
0.00013144
0.000155897
0.000178836
0.000194162
0.000196485
0.000191279
0.000185537
0.000181071
0.000176814
0.000171209
0.00016273
0.000149923
0.000131255
0.000104011
6.47138e-05
2.65787e-05
1.27484e-05
2.00392e-05
7.59817e-06
4.46605e-06
2.79943e-05
8.05211e-05
0.000128068
0.000141351
0.000138291
0.000130829
0.000125332
0.000118173
0.000101289
7.86723e-05
6.07825e-05
4.90099e-05
4.15987e-05
3.78225e-05
3.86008e-05
4.77265e-05
6.80585e-05
8.52367e-05
9.08313e-05
9.68857e-05
0.000109496
0.000125882
0.000139729
0.00014758
0.000149692
0.000146847
0.000138799
0.00012429
0.000100028
6.11595e-05
2.44601e-05
1.34638e-05
2.44699e-05
8.24612e-06
4.66369e-06
3.16822e-05
8.76492e-05
0.000145543
0.000139367
0.000105681
8.17402e-05
7.3535e-05
7.92241e-05
0.000100582
0.000138401
0.000177072
0.000173876
0.000120269
7.58732e-05
5.24158e-05
4.03943e-05
3.73342e-05
4.94804e-05
8.74756e-05
9.86486e-05
9.83863e-05
0.000107839
0.000120037
0.000129495
0.000135132
0.000135925
0.000130212
0.000116253
9.07647e-05
5.15138e-05
2.05389e-05
1.35912e-05
3.09824e-05
8.8501e-06
8.02464e-06
3.73382e-05
0.00010846
0.000150725
0.000116598
8.15711e-05
7.06936e-05
7.65695e-05
8.79369e-05
9.5081e-05
9.97854e-05
0.000110462
0.000132557
0.000159149
0.000159751
0.000118734
7.76842e-05
5.52774e-05
4.52756e-05
4.46913e-05
5.87997e-05
9.15793e-05
0.00010596
0.000103447
0.00010511
0.000111533
0.000117198
0.000117945
0.000110839
8.9991e-05
4.9984e-05
1.95141e-05
1.42445e-05
3.80555e-05
8.94807e-06
1.02773e-05
7.31827e-05
0.000158827
0.000108952
6.15121e-05
4.31972e-05
4.41243e-05
6.19795e-05
0.000102919
0.000161473
0.000197202
0.000197366
0.000189898
0.000192171
0.000197145
0.000184617
0.000145121
9.73508e-05
6.37896e-05
4.7162e-05
4.46581e-05
6.07316e-05
0.000104794
0.000127303
0.000119613
0.000114121
0.000113542
0.000112934
0.00010683
8.7725e-05
4.86164e-05
1.9345e-05
1.5658e-05
4.65435e-05
9.07437e-06
9.12739e-06
4.74379e-05
0.000141368
0.000127536
8.63689e-05
6.35616e-05
5.09223e-05
4.50798e-05
5.111e-05
7.57876e-05
0.000122953
0.000174613
0.000199445
0.000196186
0.000184348
0.000173671
0.000158571
0.000130519
9.38306e-05
6.42462e-05
4.9922e-05
4.95533e-05
6.29931e-05
8.90989e-05
0.000111801
0.000117516
0.000115134
0.000110582
0.00010284
8.65655e-05
5.16022e-05
1.98919e-05
1.60441e-05
4.95916e-05
9.23198e-06
9.21563e-06
4.81317e-05
0.000152099
0.000103888
6.99943e-05
6.13047e-05
4.95696e-05
3.78087e-05
3.4227e-05
4.54431e-05
8.35946e-05
0.000170215
0.000286286
0.000340287
0.000334817
0.00031296
0.000243642
0.000171596
0.000110979
6.87431e-05
4.71466e-05
4.30338e-05
5.80644e-05
9.40076e-05
0.000115916
0.000117123
0.000113555
0.000108122
9.87772e-05
8.12905e-05
4.95209e-05
2.07048e-05
1.75637e-05
5.65976e-05
9.45528e-06
1.14343e-05
0.000101561
8.69987e-05
4.09919e-05
3.14474e-05
4.17995e-05
5.37956e-05
5.80298e-05
6.53486e-05
8.72118e-05
0.000130682
0.000177659
0.00020973
0.000227078
0.000233226
0.000229768
0.000217456
0.000195368
0.000161314
0.000118025
7.92754e-05
5.736e-05
5.23184e-05
6.28385e-05
8.61266e-05
0.000104651
0.000107719
0.000102865
9.40522e-05
7.82715e-05
4.58958e-05
1.87805e-05
1.79548e-05
6.37042e-05
9.64706e-06
1.02153e-05
9.09107e-05
5.91175e-05
4.6304e-05
5.35782e-05
6.27034e-05
7.55168e-05
9.93335e-05
0.00011996
0.000130745
0.000142178
0.000158366
0.00017592
0.000191077
0.0002018
0.000206485
0.000202597
0.000186516
0.000156202
0.000117203
8.29733e-05
6.28804e-05
5.78881e-05
6.73657e-05
8.73639e-05
0.000102816
0.000105453
0.000100124
9.0109e-05
7.2372e-05
3.87804e-05
1.76678e-05
2.05105e-05
7.98753e-05
9.83134e-06
7.27226e-06
4.15903e-05
0.000110945
0.000150188
0.000118502
6.52152e-05
4.37214e-05
3.80552e-05
4.0285e-05
5.11268e-05
7.22499e-05
9.99218e-05
0.000127104
0.00014897
0.000162452
0.000166207
0.00016085
0.000147688
0.000128838
0.000108216
9.09461e-05
8.16454e-05
8.30567e-05
9.42117e-05
0.000106819
0.000111417
0.000107673
9.8479e-05
8.37892e-05
5.8407e-05
2.75854e-05
1.62603e-05
2.55195e-05
0.000101312
1.00929e-05
6.61961e-06
3.60469e-05
0.000106324
0.000138635
0.000133784
0.000123829
9.62413e-05
6.40741e-05
4.40264e-05
3.41147e-05
3.36747e-05
4.68805e-05
7.52464e-05
0.000108242
0.00013742
0.000158348
0.000166035
0.000160159
0.000146492
0.000131912
0.000121524
0.000118376
0.000122561
0.000129481
0.000132169
0.00012777
0.000117313
0.000101118
7.63179e-05
4.34351e-05
2.18952e-05
1.77562e-05
3.32967e-05
0.000104667
1.01404e-05
9.16433e-06
5.15406e-05
0.000109424
8.23295e-05
6.79506e-05
7.63349e-05
0.000108171
0.000137923
0.000121954
7.96093e-05
4.83921e-05
3.38881e-05
3.65441e-05
6.74407e-05
0.00010786
0.00012816
0.000135027
0.000139025
0.000144561
0.000150646
0.00015605
0.000160904
0.000164472
0.000164371
0.000158836
0.000147962
0.000132247
0.000110299
7.70517e-05
3.83487e-05
1.91345e-05
1.85462e-05
4.00134e-05
9.36247e-05
1.01093e-05
1.15539e-05
7.25557e-05
9.27265e-05
7.42665e-05
7.08886e-05
6.66523e-05
6.26123e-05
7.54522e-05
0.000122468
0.000184753
0.00016926
8.75279e-05
4.421e-05
3.35231e-05
5.17522e-05
0.00010655
0.000166218
0.000209994
0.000236356
0.0002437
0.000237254
0.000224896
0.000211071
0.000196569
0.000180661
0.000162388
0.000140389
0.000111826
7.35488e-05
3.65904e-05
1.93652e-05
2.06901e-05
4.74358e-05
7.7843e-05
9.86712e-06
1.18414e-05
6.15945e-05
3.68566e-05
4.10986e-05
6.97173e-05
9.99427e-05
0.000104562
9.64804e-05
0.000105906
0.000143495
0.00016877
0.000126891
7.0973e-05
4.70159e-05
5.97842e-05
0.000161971
0.000280357
0.000284537
0.000288412
0.000291421
0.000282436
0.000261297
0.000240677
0.000220737
0.000200874
0.000180183
0.000157194
0.000128767
8.92308e-05
4.4975e-05
2.11946e-05
1.97643e-05
4.44602e-05
7.64508e-05
9.8481e-06
9.38591e-06
4.7268e-05
3.16027e-05
4.07328e-05
6.36222e-05
8.95069e-05
0.000105758
0.0001128
0.000103969
8.47244e-05
7.09907e-05
7.30237e-05
0.000100849
0.000151351
0.000181004
0.000198868
0.000217387
0.000235603
0.000246876
0.000249699
0.000245658
0.00023628
0.00022305
0.000207124
0.000189053
0.000168815
0.000145818
0.000118662
8.55109e-05
4.99517e-05
2.62171e-05
2.24311e-05
4.6337e-05
7.57759e-05
9.76971e-06
8.48651e-06
8.26251e-05
9.99064e-05
3.67889e-05
2.28268e-05
2.48412e-05
2.83682e-05
3.88151e-05
6.15737e-05
8.89467e-05
0.000101546
0.00010398
0.000112545
0.00012865
0.000144303
0.0001574
0.000169102
0.000178969
0.000186201
0.000190433
0.000191492
0.00018939
0.00018439
0.000176893
0.000167323
0.000156055
0.000143079
0.000126877
0.000102519
6.52921e-05
3.16144e-05
2.19724e-05
3.9817e-05
9.00482e-05
1.0001e-05
1.00899e-05
6.59188e-05
0.000114143
6.98947e-05
4.30536e-05
3.2869e-05
2.46665e-05
1.99881e-05
2.11635e-05
2.97752e-05
4.69689e-05
6.84381e-05
8.78722e-05
0.000105522
0.000123542
0.0001416
0.000157674
0.000169976
0.000178042
0.000182205
0.000182639
0.00017938
0.000172888
0.000163747
0.000152502
0.000139619
0.000125381
0.000109694
9.1619e-05
6.8018e-05
3.83975e-05
2.39971e-05
3.89015e-05
0.000102423
1.02039e-05
9.77854e-06
4.57744e-05
9.55856e-05
0.000121799
0.000142324
0.000113965
6.555e-05
3.76278e-05
2.19758e-05
1.2887e-05
8.68259e-06
1.0671e-05
2.43057e-05
5.40422e-05
8.49911e-05
0.000105425
0.000123595
0.000142857
0.000159358
0.000169379
0.00017321
0.000172512
0.000168139
0.000160547
0.000150264
0.000137849
0.000123793
0.000108001
8.84668e-05
6.18107e-05
3.74821e-05
2.76001e-05
4.2578e-05
0.000108168
1.05142e-05
7.27377e-06
3.74173e-05
9.72096e-05
0.000149469
0.000172461
0.000183103
0.000182428
0.000150066
9.62088e-05
5.74403e-05
3.4304e-05
1.90125e-05
8.4506e-06
2.37048e-06
4.37333e-06
2.93671e-05
8.36796e-05
0.000110806
0.000129685
0.000154689
0.000177584
0.000188921
0.000188772
0.000180314
0.000165474
0.000145454
0.000121081
9.32036e-05
6.71434e-05
4.86784e-05
3.06518e-05
2.42074e-05
4.30186e-05
0.000119456
1.10452e-05
6.69841e-06
3.34034e-05
8.83636e-05
0.000140239
0.000144124
0.000124385
0.000107199
0.000107634
0.000130156
0.000161307
0.000160128
0.000113996
6.77971e-05
3.77949e-05
1.79322e-05
3.04272e-06
1.54371e-06
4.52577e-06
4.99042e-05
8.11208e-05
9.69194e-05
0.000108758
0.000120019
0.000128688
0.000132476
0.000128733
0.000114689
8.71004e-05
5.25898e-05
3.45164e-05
3.33104e-05
4.24292e-05
7.78764e-05
9.703e-05
1.099e-05
7.46237e-06
3.26265e-05
8.11555e-05
0.000135228
0.000151442
0.000133082
9.47112e-05
6.67207e-05
5.77209e-05
6.70864e-05
0.000104398
0.000183641
0.000271785
0.000282167
0.000168571
7.93512e-05
3.47474e-05
1.31994e-05
1.57066e-06
8.52723e-06
2.99493e-05
6.65333e-05
9.94433e-05
0.00012234
0.000132895
0.000127903
0.000103457
6.9277e-05
3.79025e-05
2.13581e-05
2.09293e-05
3.25132e-05
7.18284e-05
9.09756e-05
1.08438e-05
9.69689e-06
4.00613e-05
0.000107931
0.000151913
0.000131567
9.21117e-05
6.56174e-05
6.28818e-05
7.70145e-05
9.28665e-05
0.000108486
0.000143809
0.000221074
0.000339117
0.000430197
0.000399966
0.00019682
6.79253e-05
1.78502e-05
4.85166e-06
1.79775e-06
2.00074e-05
5.15705e-05
7.2272e-05
8.43144e-05
9.45213e-05
9.69118e-05
8.27606e-05
5.18424e-05
2.78882e-05
2.37016e-05
3.87412e-05
8.88369e-05
7.55614e-05
1.08559e-05
1.13828e-05
5.22379e-05
0.000141651
0.000132141
9.13314e-05
6.04394e-05
4.25549e-05
4.44662e-05
7.78754e-05
0.000159455
0.000236924
0.000256593
0.00025809
0.00028029
0.000332474
0.000397755
0.000404927
0.000266067
0.000100657
3.33991e-05
6.76382e-06
9.77261e-07
2.19861e-05
6.78223e-05
9.83677e-05
0.000111327
0.000101644
7.52587e-05
4.41195e-05
2.41701e-05
2.00569e-05
3.2052e-05
8.0657e-05
7.04581e-05
1.09065e-05
1.12301e-05
5.08117e-05
0.000136044
0.000101169
7.84295e-05
7.23894e-05
5.86365e-05
4.45993e-05
5.26949e-05
0.000103672
0.000219233
0.000345167
0.000414442
0.000427327
0.000413639
0.000404384
0.000403391
0.000376845
0.000269955
0.000112462
4.01981e-05
1.40388e-05
7.25366e-06
1.02174e-05
3.1025e-05
5.36468e-05
6.44675e-05
5.96656e-05
3.94444e-05
2.20709e-05
1.84824e-05
3.08346e-05
8.34845e-05
6.48639e-05
1.08465e-05
1.19312e-05
6.19523e-05
0.000117965
5.94995e-05
5.47747e-05
7.04555e-05
6.83535e-05
6.20163e-05
6.71742e-05
0.000113458
0.000228395
0.000355302
0.000446835
0.000509124
0.000512681
0.00050838
0.000499804
0.000467513
0.000300695
0.000125714
3.88453e-05
5.21151e-06
1.82601e-07
1.18824e-05
4.80019e-05
7.27946e-05
7.93025e-05
7.08316e-05
4.95976e-05
2.67637e-05
1.80361e-05
2.73229e-05
7.48188e-05
6.58178e-05
1.09633e-05
1.41236e-05
0.000141128
4.79073e-05
3.36387e-05
4.76525e-05
7.52593e-05
9.88019e-05
0.000128473
0.00017856
0.000245018
0.00029728
0.000333921
0.000367214
0.000399309
0.000426177
0.000442725
0.00044064
0.000404915
0.000321818
0.000201949
9.45686e-05
3.95222e-05
1.51903e-05
6.23993e-06
2.76963e-05
5.58596e-05
7.15585e-05
7.27333e-05
5.98748e-05
3.7174e-05
2.11369e-05
2.44017e-05
6.10756e-05
7.62333e-05
1.13155e-05
1.37068e-05
3.9688e-05
2.83961e-05
6.76e-05
0.000203037
0.000192211
0.000201505
0.000225453
0.000237204
0.000244328
0.000260126
0.000284469
0.000311058
0.000334857
0.000353792
0.00036834
0.000382165
0.000398382
0.000403481
0.000355101
0.000230495
0.000108876
5.21158e-05
2.85882e-05
2.28596e-05
3.44005e-05
4.94177e-05
5.57947e-05
4.90245e-05
3.47398e-05
2.39856e-05
2.66328e-05
6.21535e-05
8.51569e-05
1.1553e-05
9.30018e-06
7.02941e-05
0.00014566
0.000126814
9.01795e-05
6.31602e-05
6.26246e-05
8.32956e-05
0.000123158
0.000172968
0.00022064
0.000264645
0.000305951
0.000341129
0.00036162
0.000354898
0.000310743
0.000235315
0.000156615
0.000103943
8.44098e-05
8.58756e-05
7.91397e-05
6.76118e-05
6.68832e-05
7.22914e-05
7.23951e-05
6.42858e-05
4.68085e-05
3.08099e-05
2.56987e-05
3.41173e-05
8.12661e-05
8.51348e-05
1.16387e-05
9.48717e-06
4.08008e-05
9.26444e-05
0.000138412
9.85624e-05
4.89066e-05
2.85329e-05
2.43371e-05
3.27728e-05
5.86839e-05
0.000110972
0.000187783
0.000264214
0.000324691
0.000367712
0.000386519
0.000366969
0.000297151
0.000195577
0.000111016
6.3887e-05
4.48975e-05
4.81148e-05
6.11339e-05
7.28153e-05
7.91184e-05
7.86319e-05
7.01563e-05
5.20864e-05
3.23524e-05
2.58777e-05
3.75327e-05
9.25894e-05
8.39005e-05
1.15668e-05
1.07761e-05
4.63144e-05
9.84324e-05
0.00013129
0.000133452
0.000106983
6.59988e-05
4.04859e-05
2.96789e-05
2.82869e-05
3.65981e-05
6.11492e-05
0.000113878
0.000190874
0.000261173
0.000309406
0.000334752
0.000333839
0.000300018
0.000234543
0.000164197
0.000117497
9.74179e-05
9.33749e-05
9.12616e-05
8.55576e-05
7.93201e-05
7.07955e-05
5.63989e-05
3.7315e-05
2.68443e-05
3.56616e-05
8.5417e-05
8.91976e-05
1.15919e-05
9.91608e-06
4.05627e-05
9.63953e-05
0.000129385
0.000123327
0.000127496
0.000136135
0.000111747
7.67071e-05
5.51644e-05
4.03831e-05
3.01235e-05
3.14393e-05
5.62309e-05
0.000116164
0.000200611
0.000277805
0.000328449
0.000346588
0.000331462
0.000289371
0.000237513
0.000194227
0.000165518
0.00014624
0.000126768
0.000103182
7.88789e-05
5.5452e-05
3.68121e-05
2.8792e-05
3.87273e-05
8.97581e-05
9.05078e-05
1.16857e-05
1.21641e-05
3.85779e-05
9.15168e-05
0.000113241
7.89194e-05
5.8376e-05
5.14911e-05
5.84645e-05
8.70166e-05
0.000133918
0.000135448
7.64439e-05
4.1783e-05
3.3291e-05
5.10106e-05
0.000111107
0.000221942
0.000346383
0.000424619
0.000440504
0.000410701
0.000358345
0.000301975
0.000252331
0.000211709
0.000176216
0.000140729
0.000102506
6.35167e-05
3.65598e-05
2.94048e-05
4.27538e-05
9.95206e-05
8.72889e-05
1.1722e-05
1.56553e-05
7.71996e-05
6.64971e-05
3.56672e-05
3.51782e-05
5.45069e-05
6.89141e-05
5.98438e-05
6.55256e-05
0.00010905
0.000149034
0.000106385
6.31126e-05
5.69682e-05
0.000110228
0.000283133
0.000462918
0.000479223
0.000493176
0.000503459
0.000509291
0.000471148
0.000390669
0.000322258
0.000267251
0.000220426
0.000176729
0.000131933
8.3703e-05
4.41913e-05
3.12511e-05
4.30184e-05
9.79583e-05
8.82227e-05
1.1917e-05
1.37823e-05
4.31666e-05
1.5672e-05
1.39679e-05
3.13955e-05
8.10028e-05
0.000111571
0.000108043
9.13641e-05
7.01036e-05
6.82806e-05
0.000127651
0.000287498
0.000348426
0.000310951
0.000309011
0.000334446
0.000362605
0.000380624
0.000384989
0.000375505
0.00035374
0.000323979
0.000290781
0.000256647
0.000222151
0.000186359
0.000146058
9.66438e-05
4.98762e-05
3.15362e-05
4.13745e-05
9.76897e-05
8.99246e-05
1.24071e-05
7.57322e-06
6.07214e-05
4.85008e-05
3.66718e-05
3.96192e-05
8.38954e-05
0.000103238
8.67978e-05
8.42543e-05
0.000118015
0.000187495
0.000232985
0.00025182
0.000256795
0.000265118
0.00028133
0.000298386
0.000312088
0.000321427
0.000324943
0.000320894
0.000308764
0.000289434
0.00026427
0.000234228
0.000199527
0.000160201
0.000117819
7.75409e-05
4.76525e-05
3.65121e-05
5.22135e-05
0.000122116
8.37847e-05
1.26643e-05
1.09833e-05
7.3601e-05
0.000146774
3.3763e-05
1.43946e-05
2.15483e-05
3.33898e-05
6.17305e-05
0.000109389
0.000135248
0.000150437
0.000180126
0.000220124
0.00025289
0.000274527
0.000292002
0.000308355
0.00032261
0.000333029
0.000338243
0.000336995
0.000328232
0.000311281
0.000285747
0.000251226
0.000207343
0.000155557
0.000103588
6.46488e-05
4.48505e-05
4.31958e-05
6.92312e-05
0.000143482
7.29042e-05
1.22586e-05
1.41852e-05
6.68395e-05
0.000107944
9.18564e-05
6.94767e-05
4.75066e-05
3.05971e-05
2.33555e-05
2.93198e-05
5.37349e-05
0.0001003
0.000148774
0.000179766
0.000207067
0.000238228
0.000267424
0.000288158
0.000299991
0.000306349
0.000308976
0.000308439
0.000303763
0.000293295
0.000275328
0.000247879
0.000208748
0.000157906
0.00010363
6.2684e-05
4.41645e-05
4.76735e-05
8.28945e-05
0.00014949
6.66886e-05
1.18172e-05
9.34e-06
3.13114e-05
5.24871e-05
8.42666e-05
0.000128463
9.20033e-05
5.70608e-05
3.50154e-05
2.00938e-05
1.26941e-05
1.12519e-05
1.83787e-05
4.27039e-05
9.05575e-05
0.000133639
0.000164432
0.000205998
0.000259417
0.000308123
0.000336746
0.000341412
0.000331916
0.000315346
0.00029302
0.000264032
0.000226577
0.000178458
0.000122261
7.34361e-05
4.828e-05
4.94573e-05
8.55746e-05
0.000150425
6.5802e-05
1.1522e-05
9.42401e-06
5.05731e-05
9.68037e-05
0.000142084
0.000157741
0.00018322
0.000208678
0.000179853
0.00011709
7.10866e-05
4.35763e-05
2.51656e-05
1.32959e-05
1.00535e-05
2.63034e-05
9.66531e-05
0.000151097
0.000159427
0.000150038
0.000151144
0.000174724
0.000211977
0.000242329
0.000249892
0.000236015
0.000207979
0.000169325
0.000123023
7.98279e-05
5.51115e-05
5.59431e-05
9.16388e-05
0.000152811
6.62475e-05
1.13893e-05
1.03238e-05
3.40692e-05
7.02897e-05
0.000125545
0.00012871
8.53945e-05
5.83763e-05
5.14968e-05
6.25557e-05
9.47818e-05
0.000133662
0.000117845
7.32049e-05
4.54159e-05
2.64306e-05
9.27742e-06
8.53437e-07
1.30847e-05
7.55556e-05
0.000136244
0.000179855
0.000259359
0.000333094
0.000314093
0.00025738
0.000206599
0.000159306
0.000112654
7.44813e-05
5.51671e-05
6.1124e-05
0.000103722
0.000155786
6.37699e-05
1.11641e-05
1.55888e-05
4.42666e-05
9.73493e-05
8.45885e-05
5.31069e-05
4.74295e-05
5.42774e-05
6.7787e-05
7.33754e-05
6.64722e-05
6.39652e-05
8.10848e-05
0.000127959
0.000179913
0.000178835
0.000125291
9.07879e-05
8.64815e-05
7.68943e-05
5.07825e-05
4.52432e-05
7.19373e-05
0.000125857
0.000176579
0.000209041
0.00022234
0.000208609
0.000163031
0.000105143
6.87741e-05
6.46241e-05
9.74206e-05
0.000155705
6.8189e-05
1.10816e-05
1.64574e-05
0.000123078
4.40373e-05
1.64214e-05
1.4474e-05
1.85671e-05
2.96916e-05
6.96439e-05
0.000154137
0.000178771
0.00015632
0.000118012
9.94228e-05
0.000127114
0.000216613
0.00022621
0.00010642
5.33962e-05
5.09546e-05
8.42618e-05
0.000150955
0.000250223
0.000332567
0.000366317
0.000366366
0.000339586
0.000286231
0.000211106
0.000135604
8.87753e-05
7.906e-05
0.000108078
0.000163283
7.37048e-05
1.16049e-05
1.23134e-05
2.87069e-05
6.53568e-06
8.48315e-06
5.43578e-05
7.53544e-05
7.91779e-05
0.000136352
0.000236676
0.000262939
0.000242574
0.000199243
0.000139525
8.31964e-05
5.4235e-05
6.3547e-05
0.000138373
0.000205
0.000265984
0.000325079
0.000355708
0.000371614
0.000378886
0.000374373
0.000354606
0.000317877
0.00026387
0.000196981
0.00013396
9.5258e-05
8.8757e-05
0.000119153
0.000171789
7.93907e-05
1.24618e-05
1.05133e-05
7.60258e-05
9.32871e-05
2.66443e-05
1.73705e-05
2.59565e-05
3.22587e-05
3.60215e-05
5.77393e-05
9.14893e-05
9.55e-05
9.17368e-05
0.000105374
0.00013151
0.000168445
0.000245059
0.00030904
0.000308159
0.000304118
0.000314339
0.000325811
0.000333504
0.000335043
0.000326963
0.000306262
0.000271089
0.000222668
0.000169295
0.000125284
0.000102186
0.000106976
0.000145401
0.000184531
7.74203e-05
1.28838e-05
1.39627e-05
5.71145e-05
7.16588e-05
1.98203e-05
6.60338e-06
1.17941e-05
3.53362e-05
7.65316e-05
9.50754e-05
9.41696e-05
9.70705e-05
0.000106472
0.000132791
0.000172849
0.00021467
0.000261798
0.00029891
0.000308848
0.000307857
0.000308036
0.00030915
0.000309672
0.000307544
0.000298999
0.000279645
0.000247047
0.000204294
0.000161331
0.00012997
0.000118635
0.000133887
0.00017472
0.000192301
7.42718e-05
1.27692e-05
1.36471e-05
6.12465e-05
7.25232e-05
4.12786e-05
1.75109e-05
1.61649e-06
1.09103e-06
1.02977e-05
3.90506e-05
5.30704e-05
7.32467e-05
0.00011275
0.000140618
0.000166242
0.000211438
0.000274852
0.000325298
0.000347949
0.00035125
0.000341859
0.000324711
0.000304523
0.000284888
0.00026683
0.00024857
0.000226836
0.000200061
0.00017192
0.000151008
0.000146497
0.000163961
0.000195079
0.000195904
7.50394e-05
1.25433e-05
1.33912e-05
0.000117094
0.000104535
7.95838e-05
0.000102756
3.6117e-05
6.4595e-06
2.34118e-06
2.91734e-06
3.95238e-05
0.000235002
0.000177089
0.000108335
0.000127035
0.000206008
0.000286947
0.000320216
0.000328593
0.000334076
0.000339866
0.000340079
0.000328113
0.000303586
0.000272415
0.000241672
0.000215288
0.000193901
0.000177699
0.000169174
0.000172616
0.000189029
0.000207588
0.000195222
7.42011e-05
1.22796e-05
1.30885e-05
4.50925e-05
0.000104665
0.000104615
3.94149e-05
2.63093e-05
2.9874e-05
8.5818e-06
1.33959e-06
1.98773e-06
2.32254e-06
2.49261e-05
0.000130304
0.000224302
0.000235379
0.000248804
0.000269356
0.000284417
0.00029186
0.000293697
0.000292659
0.000291926
0.000290276
0.000282601
0.000265358
0.000241312
0.000217596
0.000200558
0.000193815
0.000198506
0.00021144
0.000222138
0.00020269
7.57841e-05
1.21264e-05
1.39224e-05
8.27442e-05
0.000157465
0.000149224
0.00010864
8.05831e-05
3.26321e-05
1.79812e-05
8.99587e-06
1.29624e-06
1.54952e-06
2.07039e-06
1.17607e-05
7.26181e-05
0.000169668
0.00021204
0.000233051
0.000253582
0.00027042
0.000278946
0.000277064
0.000266867
0.000255442
0.000248595
0.000246292
0.000244853
0.000241144
0.000235721
0.000231857
0.000231724
0.000233546
0.00023111
0.000202581
7.75443e-05
1.20421e-05
1.30681e-05
5.52607e-05
0.000155083
0.000125346
8.09096e-05
8.51792e-05
8.56143e-05
3.89567e-05
1.46523e-05
1.6105e-06
1.29571e-06
8.61247e-07
1.52895e-06
1.49148e-05
7.39639e-05
0.000170042
0.000229273
0.000252161
0.000260132
0.000266845
0.000276629
0.00028042
0.000271369
0.00025483
0.000239693
0.000231128
0.000229202
0.000231237
0.000234188
0.000235544
0.000233065
0.000223309
0.000185884
6.90642e-05
1.14995e-05
1.26083e-05
5.5844e-05
0.000126234
0.000155861
0.000166418
0.000136247
7.28764e-05
4.52868e-05
2.60053e-05
6.06509e-06
1.21058e-06
1.38317e-06
1.01599e-06
4.03039e-06
5.20681e-05
0.000124082
0.000165455
0.000204729
0.000238697
0.000245778
0.000241033
0.000250367
0.000273664
0.000290032
0.000288388
0.000275235
0.000260352
0.000249455
0.000243106
0.000238391
0.000231435
0.000217568
0.000172985
6.03178e-05
1.09515e-05
1.27407e-05
6.15098e-05
0.000167138
0.000134956
0.000106013
0.000108727
0.000117425
8.18171e-05
3.79302e-05
1.33139e-05
2.0441e-06
7.22835e-08
1.12811e-06
1.96427e-06
2.73522e-05
0.000228231
0.000130503
0.000116624
0.000148819
0.000213826
0.000252148
0.000240636
0.000224798
0.000231295
0.000255098
0.000279457
0.000292268
0.000292642
0.000284191
0.000270238
0.000252451
0.000229576
0.00018079
6.51706e-05
1.13251e-05
1.22529e-05
5.326e-05
0.000133604
0.000172469
0.000164293
0.000111126
7.87593e-05
7.23253e-05
6.03021e-05
2.94638e-05
5.94109e-06
1.93838e-06
5.85058e-07
7.09268e-08
2.29914e-06
4.06115e-05
0.000223882
0.000140057
9.53579e-05
0.000100519
0.000153776
0.000239245
0.000263812
0.000237737
0.000214451
0.000209475
0.000217206
0.000228369
0.000235599
0.000235371
0.000226988
0.000209592
0.0001684
6.59106e-05
1.16185e-05
1.26394e-05
6.12522e-05
0.000165448
0.000154954
0.000116621
9.33451e-05
8.76523e-05
9.00829e-05
8.54759e-05
5.75113e-05
2.36362e-05
1.05657e-06
1.50891e-06
1.48076e-06
4.08668e-07
1.41063e-06
2.33378e-05
0.000179227
0.000211868
0.000114203
8.14417e-05
9.65485e-05
0.00016726
0.000242169
0.000255802
0.000245615
0.000229547
0.000215445
0.000206407
0.000201167
0.000195918
0.000185604
0.00015089
5.68048e-05
1.10799e-05
1.25991e-05
5.82986e-05
0.000152971
0.000172882
0.000138447
9.20868e-05
7.01976e-05
7.04049e-05
8.26744e-05
8.43984e-05
5.40079e-05
2.07773e-05
5.56122e-06
2.7995e-06
2.94527e-07
1.36826e-06
6.74955e-07
1.34449e-05
0.000106006
0.000259873
0.000138765
7.69329e-05
7.21567e-05
0.000110493
0.000182932
0.00023645
0.000255403
0.000259717
0.000257128
0.00024806
0.000232102
0.000207217
0.000151406
5.31887e-05
1.05906e-05
1.26459e-05
6.22876e-05
0.000162579
0.000158145
0.000112628
8.16524e-05
7.50501e-05
8.23838e-05
9.26731e-05
9.83593e-05
8.61044e-05
5.0703e-05
1.86949e-05
4.73053e-06
2.66561e-06
2.26056e-06
3.98966e-07
3.07216e-07
1.17424e-05
6.80309e-05
0.000212902
0.000163852
0.000110352
9.48196e-05
0.000107022
0.000136445
0.000173217
0.000205738
0.000223282
0.000225385
0.000215327
0.000190926
0.000132874
4.59477e-05
9.65175e-06
1.2761e-05
6.16197e-05
0.000157459
0.000158844
0.000110402
7.157e-05
6.21207e-05
7.35983e-05
9.33022e-05
0.00010583
0.000105328
8.73705e-05
5.38102e-05
2.20179e-05
8.91693e-07
1.08011e-06
1.56104e-06
1.31417e-06
1.64026e-06
5.04777e-06
3.10064e-05
9.85389e-05
0.000193033
0.000208039
0.000200038
0.000188416
0.000173143
0.000160047
0.000156796
0.000160803
0.000161721
0.000148928
9.84111e-05
3.2094e-05
7.79234e-06
1.28563e-05
6.29885e-05
0.000157464
0.000154797
0.000104872
6.69626e-05
5.7018e-05
6.84927e-05
9.33493e-05
0.000114599
0.000120677
0.000113548
9.51204e-05
6.71575e-05
3.8019e-05
1.28554e-05
6.62715e-06
7.64925e-07
5.62647e-07
3.4291e-07
3.41303e-06
1.38742e-05
3.77148e-05
8.54419e-05
0.000165434
0.000226647
0.000222956
0.000206354
0.000195546
0.000187535
0.000176384
0.000147976
7.49047e-05
2.42495e-05
6.86599e-06
1.31312e-05
6.1712e-05
0.000156104
0.000157582
0.000107608
6.49389e-05
4.9876e-05
5.47413e-05
7.38383e-05
9.94471e-05
0.000120315
0.000128992
0.000125283
0.000111859
9.12462e-05
6.78147e-05
4.42197e-05
2.00811e-05
2.17508e-06
3.91935e-07
3.28273e-06
9.35613e-07
5.07122e-06
1.14113e-05
2.75211e-05
5.20312e-05
8.98806e-05
0.000144386
0.000181809
0.000173632
0.000154175
0.000125119
8.2197e-05
3.48696e-05
8.70338e-06
1.3435e-05
6.07072e-05
0.000153347
0.000157342
0.000108177
6.36096e-05
4.54832e-05
4.64374e-05
6.07503e-05
8.27426e-05
0.000104993
0.000122371
0.000133023
0.000136266
0.000131679
0.000120117
0.000104215
8.60619e-05
6.5698e-05
4.3052e-05
2.11814e-05
5.77146e-06
4.22568e-06
5.9482e-06
4.50051e-06
3.79919e-06
1.31682e-05
2.27117e-05
3.80028e-05
6.99077e-05
0.000111699
0.000112777
8.85736e-05
4.32819e-05
9.5599e-06
1.37695e-05
5.96358e-05
0.000150931
0.000154908
0.000106328
6.15264e-05
4.14923e-05
3.90961e-05
4.88047e-05
6.68745e-05
8.86018e-05
0.000109867
0.000128568
0.000143667
0.00015394
0.00015802
0.000155431
0.000147186
0.000134673
0.000119374
0.000101511
8.03644e-05
5.75655e-05
3.66482e-05
2.13418e-05
1.00786e-05
5.66262e-06
2.09491e-06
1.94178e-06
5.02766e-06
1.31932e-05
3.98097e-05
7.90829e-05
4.07468e-05
8.77104e-06
1.39996e-05
6.05757e-05
0.000150832
0.000148408
9.75577e-05
5.52244e-05
3.66369e-05
3.38677e-05
4.19987e-05
5.76237e-05
7.7798e-05
0.000101157
0.000126898
0.000153604
0.000178813
0.000199389
0.000212552
0.000216944
0.000212717
0.000201691
0.000185797
0.000165899
0.000142127
0.000115839
9.32438e-05
6.03889e-05
2.25885e-05
3.1025e-06
2.04364e-06
3.11939e-06
1.04248e-06
2.12168e-06
1.75762e-05
3.5369e-05
1.10695e-05