/*--------------------------------*- C++ -*----------------------------------*\
| =========                 |                                                 |
| \\      /  F ield         | OpenFOAM: The Open Source CFD Toolbox           |
|  \\    /   O peration     | Version:  v2006                                 |
|   \\  /    A nd           | Website:  www.openfoam.com                      |
|    \\/     M anipulation  |                                                 |
\*---------------------------------------------------------------------------*/
FoamFile
{
    version     2.0;
    format      ascii;
    class       volScalarField;
    location    "62";
    object      k;
}
// * * * * * * * * * * * * * * * * * * * * * * * * * * * * * * * * * * * * * //

dimensions      [0 2 -2 0 0 0 0];


internalField   nonuniform List<scalar> 
78750
(
0.662523
0.233839
0.120063
0.047031
0.0019227
0.00152525
0.00185187
0.000986329
0.00138239
0.00109138
0.00113637
0.00105518
0.00101363
0.000970456
0.000930296
0.000892657
0.000857188
0.000823339
0.000791698
0.000763058
0.000736417
0.000711216
0.000687498
0.000665543
0.000645722
0.00062873
0.000615104
0.000604876
0.000597428
0.00059139
0.000584896
0.000575744
0.000561008
0.000523283
0.000266303
0.00935604
0.00249215
0.00312358
0.000563882
0.00184626
0.00300923
0.00252596
0.00240279
0.00216464
0.00200761
0.00185691
0.00172449
0.00160463
0.00149707
0.00140036
0.00131302
0.00123387
0.00116193
0.00109547
0.00103274
0.000973511
0.000918182
0.000866872
0.00081947
0.000774575
0.000730934
0.000689736
0.000652296
0.0006192
0.000590615
0.000566024
0.000543191
0.000510694
0.000428576
0.000992227
0.000660662
0.00250036
0.00281544
0.00280628
0.00236875
0.00202906
0.00202621
0.00203626
0.00201687
0.0019675
0.00190646
0.00184186
0.00177862
0.00172032
0.00166797
0.00161976
0.00157311
0.00152595
0.00147717
0.0014264
0.00137364
0.00131908
0.00126294
0.00120553
0.00114728
0.00108801
0.00102757
0.000965919
0.000903065
0.000839045
0.000773463
0.00070442
0.000640922
0.000739313
0.00199596
0.00109438
0.00177923
0.00210853
0.00223258
0.00229575
0.00234013
0.00236852
0.00240536
0.00242938
0.00242241
0.00237328
0.00227582
0.00214663
0.00202276
0.00192311
0.0018441
0.00178055
0.00173006
0.00169009
0.00165719
0.00162805
0.00160004
0.00157122
0.00153998
0.00150481
0.00146422
0.00141667
0.00136066
0.00129492
0.00121844
0.00112715
0.00100178
0.000794966
0.000816855
0.0027034
0.00216489
0.00305798
0.00319715
0.00305185
0.00263101
0.00218574
0.00194471
0.0018916
0.00190544
0.00193237
0.00196117
0.00197863
0.00197335
0.00195256
0.00192455
0.00189238
0.00185915
0.00182671
0.00179614
0.00176814
0.00174259
0.0017187
0.00169584
0.00167356
0.00165121
0.00162788
0.0016024
0.00157335
0.00153882
0.00149593
0.00143799
0.00134391
0.00117609
0.00132415
0.00360477
0.00229166
0.00263642
0.00249922
0.00223498
0.00194728
0.00182617
0.00184218
0.00191114
0.00198079
0.00203196
0.0020643
0.00208045
0.00207917
0.00205717
0.00201628
0.00196842
0.00192547
0.00188885
0.00185584
0.00182518
0.00179724
0.0017722
0.00174982
0.00172958
0.0017105
0.00169129
0.00167051
0.00164638
0.00161656
0.0015776
0.001523
0.00143154
0.00127101
0.0015267
0.00417486
0.00182658
0.00291988
0.00313427
0.00308266
0.00278081
0.00237495
0.00202646
0.00181851
0.00172913
0.0017047
0.00171646
0.00174558
0.0017779
0.00180418
0.00182023
0.00182742
0.00182894
0.00182694
0.00182272
0.00181746
0.00181221
0.00180759
0.00180381
0.00180067
0.00179765
0.0017939
0.00178821
0.00177891
0.00176341
0.00173757
0.00169166
0.00160043
0.00148327
0.00198805
0.00490201
0.00163322
0.00283555
0.00331994
0.00354744
0.00363485
0.0035617
0.00325542
0.00281652
0.00243788
0.00217169
0.00199853
0.00189544
0.00184213
0.00181964
0.0018114
0.00180586
0.00179769
0.00178822
0.00178142
0.00177846
0.0017787
0.00178149
0.0017864
0.00179292
0.00180035
0.00180773
0.00181388
0.00181725
0.001816
0.00180711
0.0017834
0.00172398
0.00163767
0.0022072
0.00533049
0.001351
0.00247201
0.00294876
0.00324566
0.00344617
0.00356395
0.0036038
0.00352028
0.00324709
0.00286571
0.00248499
0.00215059
0.00189441
0.00173498
0.0016705
0.00166768
0.00169021
0.00171374
0.00173095
0.00174437
0.00175781
0.0017732
0.00179048
0.00180859
0.00182653
0.00184331
0.00185789
0.00186894
0.00187438
0.00187024
0.00184759
0.00178603
0.00176476
0.0025448
0.00590975
0.00119318
0.00260788
0.00331612
0.00366607
0.00388304
0.00403955
0.00416067
0.00425808
0.00431221
0.00425483
0.00403352
0.0036746
0.00324318
0.00278813
0.00235285
0.00198125
0.00173187
0.00163211
0.00163324
0.00166504
0.00168933
0.00170027
0.00170805
0.00172156
0.00174263
0.0017693
0.00179869
0.00182822
0.0018556
0.00187804
0.0018911
0.00188809
0.00199014
0.00290243
0.00643016
0.00125096
0.00318594
0.00395099
0.00421617
0.0042991
0.00430633
0.0042951
0.00428711
0.00427555
0.00426356
0.0042447
0.00419821
0.00409904
0.00390271
0.00355875
0.00308388
0.00254236
0.00201467
0.00164165
0.00150152
0.00151161
0.00158849
0.00167207
0.0017312
0.00176531
0.00178494
0.00179949
0.00181317
0.00182609
0.00183603
0.00184045
0.00185663
0.00213767
0.0033209
0.00696724
0.00273071
0.00412784
0.00448611
0.00453401
0.00448506
0.00443912
0.00452312
0.00470939
0.00483719
0.00482244
0.00467649
0.00446163
0.00425234
0.00408068
0.00392386
0.0037315
0.00344066
0.00303516
0.00257517
0.0021336
0.00180208
0.00163875
0.00158905
0.00160226
0.00164857
0.00170265
0.00175102
0.00179216
0.0018266
0.00185359
0.00187278
0.00191149
0.00230186
0.00367084
0.00735348
0.0038931
0.00434027
0.00423715
0.00405099
0.00379584
0.00360988
0.00372399
0.00410429
0.00447996
0.00467275
0.00468463
0.00455547
0.00433018
0.00407958
0.00385883
0.0036739
0.00350077
0.00329859
0.00301736
0.00263336
0.00220478
0.001869
0.00170158
0.00164325
0.00164136
0.00167258
0.00171844
0.00176621
0.00181048
0.00184957
0.00188853
0.0019806
0.00251539
0.00401898
0.00761485
0.00337472
0.00419086
0.00429403
0.00422904
0.00408267
0.00390726
0.00373636
0.00369469
0.00397362
0.00439253
0.00463617
0.00467291
0.00456765
0.00436545
0.00410959
0.00384967
0.00361502
0.00340398
0.00319186
0.00293711
0.00261226
0.00227194
0.00200971
0.00185353
0.00177967
0.00175676
0.00176471
0.00179015
0.00182272
0.00185428
0.00188286
0.0019565
0.00252214
0.00413055
0.00777827
0.00346128
0.00429653
0.00429329
0.00407608
0.00381854
0.00369749
0.00357631
0.00331959
0.00325927
0.00372057
0.00423226
0.00445628
0.00447927
0.0044044
0.00426742
0.00408422
0.00386386
0.00360764
0.00331704
0.00298062
0.00258559
0.00218412
0.00190841
0.00178921
0.00175284
0.0017555
0.00178211
0.00182354
0.00187216
0.00192251
0.0019754
0.00207401
0.00266624
0.00434055
0.00808347
0.00556789
0.00486819
0.00426842
0.00356862
0.00310922
0.00323649
0.00351212
0.00369688
0.00391187
0.00425334
0.00451935
0.00463965
0.0046641
0.00461831
0.00451593
0.00436874
0.00418827
0.00398212
0.00375085
0.00348294
0.00315637
0.00276338
0.00237256
0.00208734
0.00193205
0.00186501
0.00184821
0.00186204
0.00189403
0.00193382
0.0019781
0.00208445
0.00281658
0.00458454
0.00841554
0.00385052
0.00375888
0.00355178
0.00321767
0.00320472
0.00334447
0.00355135
0.00382532
0.00409135
0.00432811
0.0045362
0.00469466
0.00478903
0.00481806
0.00478702
0.00470384
0.00457626
0.00440724
0.00418942
0.00390225
0.00352089
0.00305861
0.00260596
0.00227284
0.00208117
0.0019856
0.00194696
0.00194596
0.00197183
0.00201666
0.00208196
0.00226701
0.00322939
0.00507633
0.00893894
0.00211058
0.00403805
0.00464462
0.00485643
0.00476887
0.004381
0.00383603
0.00337595
0.00313335
0.00317588
0.003448
0.00379306
0.00409099
0.00429595
0.00440116
0.00441309
0.00434131
0.00419381
0.00397445
0.00368587
0.0033379
0.00296443
0.00262714
0.00237629
0.0022123
0.00210958
0.00204788
0.00201658
0.00201056
0.00203108
0.00211476
0.00252293
0.00396888
0.0059112
0.00965653
0.00179476
0.00341027
0.00398137
0.00430151
0.00459299
0.00486009
0.0049184
0.00456877
0.00388041
0.00312148
0.00263019
0.00261974
0.00294924
0.00331988
0.00358567
0.00373353
0.00377971
0.00374047
0.00362556
0.00344655
0.00322311
0.00298659
0.00277228
0.00260095
0.00247221
0.00237666
0.00230643
0.00225754
0.00223086
0.00224444
0.00240744
0.00308851
0.00473123
0.00664921
0.0102744
0.00300263
0.00382597
0.00385489
0.00381548
0.00388046
0.00413298
0.00454874
0.00497628
0.00520198
0.00497191
0.004194
0.00317533
0.00252165
0.00257349
0.00290769
0.00320504
0.00339006
0.00345723
0.0034302
0.00334183
0.00321924
0.0030836
0.00295094
0.00282998
0.00272224
0.00262566
0.00253799
0.00245887
0.00239295
0.00237302
0.00259064
0.00356638
0.00540729
0.00726315
0.0106562
0.00486632
0.00495933
0.00465554
0.00447258
0.00448326
0.00450765
0.00450822
0.00465378
0.00497473
0.00526739
0.0053911
0.00513382
0.00413835
0.00295517
0.0026094
0.00280741
0.00305181
0.00322016
0.00330859
0.00333593
0.00332053
0.0032769
0.00321646
0.00314697
0.00307217
0.00299259
0.00290728
0.00281593
0.00272365
0.00267177
0.00289181
0.00398933
0.00580192
0.00749591
0.0105664
0.0059745
0.00434054
0.00366066
0.00369995
0.00427911
0.00479385
0.00508179
0.00518474
0.00524785
0.00532963
0.00535017
0.00522113
0.00471291
0.00368099
0.00300067
0.00296906
0.00304521
0.00312365
0.00319763
0.00325511
0.0032928
0.00331201
0.00331476
0.00330257
0.00327632
0.00323554
0.00317818
0.00310151
0.00300526
0.0029126
0.00300781
0.00396226
0.00589543
0.00757073
0.0104527
0.00415454
0.00309319
0.00299588
0.00306007
0.00332266
0.00376794
0.00425446
0.00464898
0.00483078
0.00476406
0.00446433
0.00404595
0.00373818
0.00358527
0.00349783
0.00347462
0.003481
0.00349866
0.00351904
0.0035384
0.00355425
0.00356479
0.00356863
0.00356465
0.00355158
0.00352749
0.00348938
0.00343356
0.00335805
0.00327786
0.00331773
0.00401118
0.00575177
0.00734387
0.0099938
0.00342024
0.00495973
0.00459066
0.00350985
0.0024613
0.00218143
0.0022334
0.00255555
0.00299186
0.00336385
0.00360206
0.0037228
0.00378348
0.00382602
0.00386003
0.00388381
0.00389858
0.00390535
0.00390563
0.00390228
0.00389678
0.00388974
0.00388096
0.00386967
0.00385432
0.00383211
0.00379815
0.00374531
0.00366644
0.00356397
0.0035129
0.00395718
0.00559339
0.00721837
0.00994432
0.00401428
0.00559121
0.00538502
0.00478535
0.00377264
0.00290336
0.00220269
0.00175873
0.0016544
0.0018699
0.0022784
0.00272589
0.00311481
0.00341139
0.00362786
0.00378272
0.00389202
0.00396709
0.00401548
0.00404439
0.00406233
0.00407304
0.00407931
0.0040834
0.00408686
0.0040899
0.00409025
0.00408088
0.00404523
0.00394914
0.00375865
0.00382792
0.00529269
0.00702674
0.00987015
0.00327749
0.00457223
0.00539175
0.00589511
0.00604865
0.00572505
0.00491153
0.00377066
0.0025422
0.00149072
0.000867226
0.000794636
0.00120619
0.00184115
0.00245161
0.00293267
0.00327899
0.00352291
0.0036959
0.0038194
0.00390619
0.00396455
0.00400125
0.00402227
0.00403303
0.00403889
0.00404893
0.00407193
0.00411803
0.00420271
0.0043456
0.00464674
0.00585854
0.00749618
0.0107652
0.00201091
0.00339896
0.00428104
0.0049001
0.00542332
0.0058763
0.00617097
0.00617759
0.00573034
0.00478881
0.00353268
0.00216403
0.000948886
0.000222135
0.00026627
0.000914016
0.00165804
0.0023143
0.00280775
0.00315581
0.00340847
0.00360231
0.00375195
0.00386257
0.00393782
0.00398221
0.00400093
0.0039932
0.00396395
0.00392408
0.00385822
0.00428269
0.00602268
0.00808404
0.0118695
0.00195557
0.00414707
0.00506531
0.00539946
0.00552376
0.00558788
0.00570447
0.00598814
0.00643414
0.00683852
0.00692993
0.00645899
0.00535039
0.00379661
0.0020732
0.000352876
0.000135775
0.000193217
0.00104788
0.00193432
0.00259378
0.00302408
0.00331196
0.00352187
0.00368571
0.00382105
0.00394457
0.00408182
0.00429516
0.00477164
0.00554642
0.00620932
0.00740371
0.00907026
0.0126583
0.00255876
0.00527576
0.00629959
0.00661037
0.00662883
0.0064867
0.00623627
0.00600894
0.00597647
0.00626867
0.00682794
0.00734917
0.00761454
0.00755465
0.00701122
0.00569142
0.00362048
0.0016886
0.000172735
0.000449514
0.000755155
0.00156612
0.00213868
0.00250402
0.00272127
0.00283769
0.00288579
0.00288371
0.00287966
0.00315929
0.00440096
0.00607856
0.00764056
0.0092893
0.0130351
0.0043422
0.00612423
0.00643033
0.00637911
0.00622616
0.00603725
0.00595309
0.00631346
0.00693765
0.00736211
0.00760338
0.00778017
0.00787097
0.00784743
0.00771708
0.00744906
0.00684289
0.005338
0.00235118
0.000636803
0.00011723
0.000473537
0.00127532
0.00200168
0.00263404
0.00316453
0.00356601
0.00383673
0.00398643
0.00411393
0.00488542
0.00659575
0.00813419
0.00978648
0.0137986
0.00602644
0.00656647
0.00634104
0.00604588
0.00571004
0.00535863
0.00514539
0.00572134
0.0071625
0.00830292
0.00890599
0.00916257
0.00917324
0.00899578
0.00870025
0.00834767
0.00794469
0.00737913
0.00626662
0.00399977
0.000929072
8.00469e-05
0.000604801
0.00157231
0.00226457
0.00269028
0.00294889
0.00314217
0.00337966
0.00380356
0.00475038
0.00651315
0.00821587
0.0100302
0.0142551
0.00607642
0.00650165
0.00636885
0.00612781
0.00593842
0.00586827
0.00568733
0.00552927
0.00655201
0.00809318
0.00911445
0.00967888
0.00996539
0.0100365
0.00989911
0.00956882
0.00909784
0.00852822
0.00779917
0.00662864
0.00423214
0.00155584
0.00054833
0.000447759
0.000893675
0.00143867
0.00190039
0.00227676
0.00264781
0.00322755
0.00450754
0.00668336
0.00847079
0.0103049
0.0143764
0.00684314
0.00702416
0.00652786
0.00593398
0.00570822
0.00592932
0.00615678
0.00627007
0.00700221
0.00840145
0.00941104
0.0100078
0.0103599
0.0105288
0.0105278
0.0103516
0.0100032
0.00948624
0.00870607
0.00733562
0.00461365
0.000694781
1.35754e-05
0.000408971
0.00126598
0.0018944
0.00235307
0.00268541
0.0029144
0.00317824
0.00402377
0.00623864
0.00833571
0.0103265
0.014461
0.0102122
0.00792889
0.00659354
0.00571261
0.00591153
0.00652161
0.00727947
0.00820189
0.00913251
0.00985629
0.0103737
0.0107782
0.0110826
0.01127
0.0113254
0.0112396
0.011006
0.010609
0.00999541
0.00900164
0.00726514
0.00435331
0.00146188
0.000320374
0.000876173
0.0017326
0.00245879
0.00302662
0.00344413
0.00371489
0.00405523
0.00557195
0.00795879
0.0103075
0.0146538
0.00884945
0.00555221
0.00513457
0.00601654
0.00704453
0.00767033
0.00834819
0.00898447
0.00953678
0.0100482
0.0105262
0.0109416
0.0112722
0.0115059
0.0116351
0.0116556
0.0115688
0.0113831
0.0111072
0.0107156
0.0100354
0.00850439
0.00560599
0.00260623
0.00119857
0.00113097
0.00159892
0.002223
0.00289969
0.00361754
0.00435669
0.00565817
0.00800548
0.0104693
0.0147959
0.00381577
0.00571021
0.0066292
0.00678129
0.0064369
0.00611715
0.00620298
0.00675272
0.00757813
0.00846169
0.0092608
0.00991178
0.0103871
0.0106752
0.0107703
0.0106613
0.0103148
0.00965094
0.00853843
0.00701813
0.00574332
0.00524743
0.00454346
0.00347725
0.00267712
0.00234037
0.00232324
0.00251242
0.00290031
0.00361388
0.00480806
0.0064503
0.0085881
0.0108216
0.0146391
0.00422589
0.00803588
0.00809807
0.00745642
0.00657219
0.00531395
0.00410986
0.0036001
0.00406124
0.00524361
0.00667301
0.00800136
0.00908347
0.00989819
0.0104353
0.0106868
0.0106331
0.0102033
0.00919615
0.00735568
0.00485601
0.00288479
0.0022803
0.00238753
0.00267078
0.0029635
0.00320516
0.00338653
0.00355894
0.00390586
0.00491247
0.00680234
0.00885017
0.0108647
0.0142558
0.00460157
0.00658092
0.00724556
0.00758938
0.00765507
0.00731888
0.00642808
0.00519828
0.00415397
0.00371358
0.00404235
0.00508282
0.00655476
0.00801774
0.00923567
0.0101638
0.0107828
0.0110594
0.0109307
0.0102666
0.00886581
0.006878
0.00503197
0.00380518
0.00322077
0.00312352
0.00333037
0.00365798
0.00398596
0.00430675
0.00495274
0.00665209
0.00875141
0.0108005
0.0143815
0.00397217
0.00633243
0.00679578
0.00686875
0.00699987
0.00733299
0.00778059
0.0079913
0.00762897
0.00673533
0.00559207
0.00440341
0.00396112
0.0048546
0.00642387
0.00796406
0.00920671
0.0101199
0.0107023
0.010921
0.0107006
0.00995934
0.00873479
0.00726597
0.00590002
0.0048625
0.00423292
0.00401455
0.00414626
0.0045636
0.00535112
0.00697421
0.009024
0.011103
0.0149291
0.00622896
0.00822008
0.00797928
0.00727173
0.00665799
0.00624221
0.00611953
0.00645831
0.00741231
0.00846591
0.00904899
0.00849102
0.00643775
0.00469076
0.00466384
0.00584538
0.00728048
0.0085047
0.00943593
0.0100885
0.0104394
0.01043
0.0100066
0.00918167
0.00807552
0.0068853
0.00581315
0.00502115
0.00462422
0.00475834
0.0056842
0.00747548
0.00943025
0.0114217
0.0153753
0.0129658
0.00941723
0.00714994
0.00561668
0.00539312
0.00608222
0.00654043
0.00640085
0.00660449
0.00755512
0.00841812
0.00864244
0.00752473
0.0063749
0.00696564
0.0079971
0.0087618
0.00939904
0.00995647
0.0103712
0.0106019
0.0106249
0.0104071
0.00991011
0.00914854
0.00820144
0.00719138
0.00625995
0.00554993
0.00525983
0.0058715
0.00766
0.00961508
0.0116257
0.0159472
0.0136324
0.00589163
0.00389768
0.00340629
0.00487485
0.00649903
0.00724883
0.00749762
0.00746093
0.00716524
0.00692366
0.00767834
0.00879862
0.00922109
0.00960407
0.0100104
0.0103598
0.0106375
0.0108411
0.0109639
0.0109912
0.0109033
0.0106767
0.0102917
0.00974494
0.00905626
0.0082691
0.00744478
0.00665261
0.0060295
0.0061402
0.0077531
0.00983216
0.0121216
0.0170482
0.00475568
0.00473699
0.00565835
0.00524343
0.00519479
0.00609551
0.00662214
0.00691905
0.00720121
0.00779894
0.00861905
0.00931244
0.00986381
0.0102942
0.0106507
0.0109408
0.0111575
0.0113018
0.0113727
0.0113704
0.0112916
0.0111303
0.0108778
0.0105256
0.0100687
0.00950885
0.00885688
0.00814246
0.00744745
0.00697356
0.00717797
0.00870773
0.0106544
0.0129258
0.0174909
0.00700919
0.0115968
0.00933555
0.00637652
0.00331892
0.00347471
0.00412272
0.00526597
0.00642252
0.00732524
0.00815921
0.00898236
0.00970307
0.0102852
0.010757
0.0111366
0.0114252
0.0116257
0.0117401
0.0117707
0.0117163
0.0115742
0.0113416
0.0110157
0.0105929
0.0100693
0.00944117
0.00872537
0.008048
0.00778289
0.00834786
0.00982824
0.0114137
0.0132609
0.0166354
0.00821539
0.00839519
0.00853505
0.00798165
0.00671508
0.00538416
0.00434294
0.00372845
0.00394669
0.00481014
0.00584834
0.00687888
0.00788067
0.00882976
0.00968634
0.0104188
0.0110155
0.0114675
0.0117941
0.0120014
0.0120922
0.0120679
0.0119284
0.0116733
0.0113014
0.0108096
0.0101899
0.00944381
0.00867999
0.00835186
0.0090409
0.0104414
0.0117366
0.0132186
0.015811
0.00348575
0.00565951
0.00818053
0.00926543
0.00924797
0.00837525
0.00696771
0.00536266
0.00364195
0.00234654
0.00183641
0.00229234
0.00355494
0.00512439
0.00662555
0.00791246
0.00895489
0.00979174
0.0104701
0.0110231
0.011453
0.0117638
0.0119452
0.0119845
0.0118708
0.0115946
0.0111452
0.0105095
0.00972642
0.00914589
0.00952464
0.0107208
0.0118434
0.0131307
0.0155981
0.00269743
0.00658397
0.00758504
0.00797326
0.00849943
0.00921293
0.00979563
0.0101014
0.00986141
0.00873215
0.00687163
0.00464372
0.00253156
0.00155807
0.00238288
0.00423611
0.00633901
0.00833271
0.00985868
0.0108044
0.0113368
0.0116479
0.0118259
0.0118932
0.0118433
0.0116615
0.0113291
0.0108319
0.0102083
0.00974691
0.0100668
0.0110752
0.0120424
0.0132063
0.015789
0.00416937
0.00922206
0.0101668
0.00985533
0.00918432
0.00834356
0.00758864
0.00732581
0.00783865
0.00897436
0.0101182
0.010619
0.00967994
0.00738228
0.00478499
0.00189141
0.000160343
0.00153226
0.00447024
0.00730225
0.00961411
0.011121
0.0119488
0.0123704
0.0125067
0.0123993
0.012073
0.011533
0.0108248
0.0102722
0.0105338
0.0114312
0.0122854
0.0133194
0.0156268
0.00937948
0.0101986
0.00894715
0.00738466
0.00634722
0.00602888
0.00640543
0.00719682
0.00775228
0.00787697
0.00800537
0.00871724
0.00990275
0.0108409
0.0111346
0.0104797
0.00889627
0.00752238
0.00626745
0.00479437
0.00437406
0.00556075
0.00742055
0.00918068
0.0105132
0.0113476
0.0117398
0.0117542
0.0114275
0.0109217
0.0108609
0.0114841
0.0122061
0.0131034
0.0159793
0.0182056
0.0115317
0.00746521
0.00442642
0.00369644
0.00413147
0.0055402
0.00796585
0.0100618
0.0112823
0.0117393
0.0115824
0.0113777
0.0118262
0.0126768
0.0133163
0.0121981
0.00827828
0.00581522
0.00578672
0.00679288
0.0080771
0.00932796
0.0104343
0.0113224
0.0119464
0.0122953
0.012367
0.0121537
0.0117322
0.0115147
0.0118154
0.0123305
0.0132721
0.0174071
0.0115266
0.00415103
0.00202304
0.00197889
0.00464096
0.00587901
0.0070848
0.00885908
0.010404
0.0116354
0.0125721
0.0130402
0.012823
0.0117308
0.0097912
0.00842523
0.00888769
0.00883895
0.00899982
0.00949177
0.0101388
0.0108259
0.0114849
0.0120739
0.0125579
0.0129063
0.0130937
0.0130929
0.0128776
0.0124995
0.0122489
0.0123997
0.0128644
0.014017
0.0188357
0.00811068
0.00982244
0.00870291
0.00603797
0.00435908
0.00453205
0.00467415
0.00509442
0.00624681
0.00760609
0.00848126
0.0090336
0.00955554
0.00998379
0.0103423
0.0108587
0.0115488
0.0121012
0.0126249
0.0131021
0.0134972
0.0138085
0.0140408
0.0141973
0.0142735
0.0142574
0.0141308
0.013876
0.0135022
0.0131106
0.0129293
0.0131007
0.0135871
0.0147829
0.0190268
0.0121239
0.0110042
0.00870845
0.00586105
0.00276663
0.00357812
0.00534311
0.00619544
0.00667735
0.00730018
0.00809784
0.00892821
0.00975088
0.010556
0.0113217
0.0120861
0.0128108
0.0134427
0.0140055
0.0145041
0.0149334
0.0152867
0.0155491
0.0157016
0.015726
0.0156077
0.0153362
0.0149155
0.0143983
0.0139299
0.0137048
0.013789
0.0141524
0.0150877
0.0180506
0.00968744
0.00716734
0.00658934
0.00599105
0.00386558
0.000509796
0.000348293
0.00245475
0.00563092
0.00712597
0.00790895
0.00849276
0.00914882
0.0100166
0.0110565
0.0120279
0.0128624
0.0135712
0.0141787
0.0146842
0.015098
0.0154426
0.0157361
0.0159771
0.0161428
0.0161973
0.0161033
0.0158423
0.0154459
0.0150249
0.0147299
0.0146352
0.014758
0.0152981
0.0171805
0.00986267
0.00916687
0.00831322
0.00747206
0.00703421
0.00573708
0.00183009
0.000896176
0.000945278
0.00577636
0.00754307
0.00829498
0.00900681
0.0100617
0.0109429
0.011692
0.0124527
0.0132627
0.0140646
0.0147769
0.0153431
0.0157404
0.0159843
0.0161136
0.016167
0.0161635
0.0161003
0.0159601
0.0157403
0.0154801
0.0152489
0.0151004
0.01508
0.0153546
0.0167176
0.00965836
0.00937298
0.00887448
0.00793373
0.0062105
0.00478408
0.00405533
0.00170456
0.000368899
0.000670307
0.000736991
0.00464845
0.00775514
0.00924528
0.0103274
0.0112541
0.0120433
0.0127881
0.0135642
0.0143814
0.0151925
0.0159303
0.0165043
0.016847
0.016953
0.0168673
0.0166507
0.0163594
0.0160368
0.0157188
0.0154365
0.0152157
0.0150964
0.0152369
0.0165346
0.00877797
0.00826292
0.00821564
0.00842919
0.00857033
0.00766158
0.00538491
0.00326562
0.00119287
0.000245731
0.000506812
0.000724095
0.00245036
0.00575421
0.00780206
0.00935004
0.0106778
0.0117662
0.0126775
0.0134992
0.014285
0.0150677
0.0158489
0.0165742
0.0171416
0.0174687
0.0175375
0.0173873
0.0170875
0.0167088
0.0163096
0.0159361
0.0156406
0.0155676
0.0166036
0.0101914
0.00924511
0.00883101
0.008308
0.00760936
0.00723926
0.00689998
0.00538488
0.00280987
0.000275989
0.000248903
0.000313109
0.000551961
0.00267855
0.00551813
0.00767885
0.0094509
0.01094
0.012131
0.0131242
0.0139756
0.0146697
0.0152228
0.0157112
0.0161786
0.0166043
0.0169307
0.0171068
0.0171142
0.0169649
0.0166891
0.0163279
0.0159304
0.0155734
0.0160268
0.00859836
0.00848641
0.00873022
0.00895527
0.00900963
0.00860119
0.00751906
0.00588956
0.00372682
0.00102339
0.000240119
0.000454514
0.000409593
0.000990648
0.00407762
0.00585975
0.00782131
0.00998584
0.0118353
0.0131495
0.0141758
0.0151036
0.0158512
0.0163014
0.0164841
0.0164951
0.0164142
0.0162862
0.0161256
0.0159248
0.0156679
0.0153456
0.0149631
0.0145674
0.0150655
0.00989134
0.00889034
0.00850532
0.00814753
0.00781258
0.00764358
0.00748111
0.00677772
0.00491995
0.00221005
0.000396711
2.05454e-05
0.000490762
0.000669912
0.00307203
0.00494967
0.00590045
0.00778215
0.010384
0.0128157
0.0143779
0.0152969
0.0160896
0.0168944
0.0175649
0.0179597
0.0180468
0.0178706
0.0175035
0.0170164
0.0164609
0.015873
0.0152823
0.0147458
0.0151934
0.00897791
0.0087533
0.00893641
0.00902151
0.00898138
0.00875451
0.00831778
0.0076674
0.0065104
0.00422586
0.00104176
0.000411766
0.000198589
3.05391e-05
0.000653437
0.00355661
0.00553616
0.00601
0.00707274
0.0091344
0.01179
0.0139986
0.0151483
0.0157697
0.0163122
0.0168891
0.0174337
0.0178258
0.017968
0.0178229
0.0174171
0.0168212
0.0161325
0.0154838
0.0158003
0.00941546
0.00886541
0.00861734
0.00838014
0.00812992
0.00791819
0.00777413
0.00757186
0.00705917
0.00585676
0.00342275
0.000177885
0.000299777
0.000469255
0.00015519
0.000384515
0.00280222
0.0059626
0.00665042
0.00706071
0.00801763
0.00994675
0.0125354
0.0143449
0.0151277
0.015335
0.0153041
0.0152382
0.0152009
0.0151501
0.0150053
0.0147373
0.0144129
0.014264
0.0152198
0.00958471
0.00899476
0.00891362
0.0088298
0.008689
0.00846156
0.00816846
0.0078543
0.00745619
0.00677008
0.00541635
0.00293243
0.00086086
0.00049034
7.91767e-05
0.000455573
0.000186382
0.00214547
0.00612643
0.0077201
0.00807802
0.00828517
0.00939968
0.0118513
0.0144337
0.0161909
0.0170102
0.0170585
0.016597
0.0159175
0.0152351
0.0146602
0.0142351
0.0140487
0.0139719
0.00942738
0.00884225
0.00859362
0.00836923
0.00813314
0.00794353
0.00789436
0.00786301
0.0076576
0.00720239
0.00636087
0.00483099
0.00235285
0.00062808
0.000405231
0.000519675
0.000117354
8.48736e-05
0.00231319
0.0066053
0.00956323
0.010458
0.0104061
0.0106189
0.0117551
0.0135737
0.0155355
0.0172174
0.018307
0.0186764
0.0183899
0.017669
0.0167061
0.0154314
0.0126138
0.00968032
0.00904983
0.00877403
0.00851503
0.00820121
0.00786809
0.00774268
0.00785261
0.00789272
0.00770083
0.00721778
0.00631348
0.00475126
0.00236506
0.000101184
0.000143085
0.000303408
0.000340548
0.000454698
0.00121985
0.00529178
0.00967648
0.012498
0.0135544
0.0136113
0.013216
0.0128849
0.0128568
0.0132292
0.0138856
0.0144973
0.0146836
0.0142131
0.0127243
0.00958879
0.00934767
0.00888649
0.00858721
0.00829372
0.00793003
0.00751311
0.00731089
0.00750165
0.00779879
0.00794738
0.00785222
0.00745155
0.00664343
0.00529203
0.0033526
0.00120491
0.000726444
0.000117292
0.00012029
8.84375e-05
0.000906507
0.0033144
0.00711077
0.0111773
0.0142028
0.0161448
0.0168463
0.0165226
0.0154773
0.014163
0.0129687
0.0121054
0.0111948
0.00958494
0.00726871
0.00943886
0.00905798
0.00871131
0.00837678
0.00795566
0.00740255
0.00695651
0.00697769
0.00733624
0.00774882
0.00805708
0.00817495
0.00802856
0.00753461
0.00659824
0.00520363
0.00349577
0.00171
0.000232037
5.75198e-05
0.000631212
0.000210637
0.00119464
0.00263497
0.00581254
0.00913449
0.0122636
0.0151937
0.0173792
0.0184229
0.0183826
0.017129
0.0152462
0.0129479
0.00883953
0.00941733
0.00903116
0.00863981
0.00827807
0.00782566
0.00718444
0.00652689
0.00632887
0.00661075
0.00710845
0.00763977
0.0081097
0.00844868
0.00858952
0.00846211
0.00801443
0.0072261
0.0061286
0.00480688
0.00337599
0.00194228
0.000659747
0.000592964
0.000993622
0.000849834
0.000762794
0.00269223
0.00449485
0.00683831
0.00980654
0.0126343
0.0150725
0.0160949
0.0167974
0.0114524
0.00981012
0.00918783
0.00870132
0.00828757
0.00777796
0.00701855
0.00611095
0.0056134
0.0057176
0.00621324
0.00688645
0.00760371
0.00827348
0.0088198
0.00918232
0.00932174
0.0092172
0.00886792
0.00827086
0.00745879
0.00647951
0.00537558
0.00421218
0.00306496
0.00203165
0.00112332
0.000780842
0.000338337
0.000349902
0.00101451
0.0026289
0.00556512
0.00965678
0.0121657
0.0123523
0.0103236
0.00919455
0.00859504
0.0081293
0.00754634
0.00663678
0.00549501
0.0047694
0.00477042
0.00533455
0.0062116
0.00720788
0.00818819
0.00905138
0.00972832
0.010182
0.0104004
0.0103861
0.0101459
0.00969883
0.00906974
0.00828673
0.0073711
0.00632112
0.00523285
0.00392536
0.00222343
0.000444147
0.000331244
0.000572936
0.000221284
0.000427134
0.00304453
0.0058452
0.0191073
0.0107799
0.00913028
0.0084769
0.00798371
0.00732196
0.00622409
0.00478626
0.00377834
0.00378507
0.00474389
0.00617073
0.00766188
0.00900996
0.0101167
0.0109584
0.0115383
0.0118687
0.0119621
0.011828
0.0114796
0.0109349
0.0102175
0.00934681
0.00832386
0.00717685
0.00576246
0.00319026
0.00122241
0.000577247
9.0194e-05
9.66485e-05
0.000838189
0.00196602
0.00881765
0.0276923
0.0106953
0.0089086
0.00832369
0.00785614
0.00716177
0.00594595
0.0042631
0.0029707
0.00322139
0.00517105
0.00761658
0.0096893
0.0112307
0.0123182
0.0130831
0.0135987
0.0138968
0.0139861
0.0138659
0.0135344
0.012993
0.012248
0.0113047
0.0101479
0.00872974
0.00685508
0.00366141
0.00146987
0.000626494
8.71707e-06
9.91446e-05
0.000761284
0.00536184
0.0134472
0.027835
0.010236
0.00875808
0.00828402
0.00787241
0.0072407
0.00610285
0.00435756
0.0028136
0.00331351
0.00647465
0.00999302
0.0122547
0.0135474
0.0143844
0.0149919
0.0154319
0.0157103
0.0158149
0.0157288
0.0154362
0.014923
0.0141759
0.0131752
0.0118748
0.010169
0.00786732
0.00454208
0.00121436
0.00084715
0.000637745
0.000918351
0.0037533
0.0087169
0.0149163
0.0224391
0.00999545
0.00875041
0.00828715
0.00791802
0.00743036
0.00661086
0.00518904
0.00330224
0.00235633
0.00421187
0.00786358
0.0109658
0.0126852
0.0137599
0.0145745
0.0152318
0.0157402
0.0160813
0.0162301
0.0161631
0.0158584
0.0152943
0.0144441
0.0132617
0.0116442
0.00945598
0.00640056
0.00236419
0.000456113
0.000607066
0.00189371
0.00585612
0.0101974
0.0145755
0.0181872
0.0101028
0.00873741
0.00820466
0.00779897
0.00731158
0.00666386
0.00574385
0.00416294
0.00181709
0.000514951
0.00164983
0.00573425
0.00979807
0.0119872
0.0133445
0.0143231
0.015083
0.0156641
0.0160583
0.0162394
0.0161834
0.0158614
0.0152396
0.0142746
0.0128865
0.0109206
0.00812305
0.00420454
0.000645194
0.00168238
0.00410367
0.00734095
0.0107028
0.0139984
0.0160973
0.010227
0.00865234
0.00806584
0.0076083
0.00702022
0.00622086
0.00531437
0.00430968
0.00309814
0.00147477
3.60207e-05
0.00206201
0.00780074
0.0108593
0.0124613
0.0135226
0.0143856
0.0151199
0.0156942
0.0160765
0.0162346
0.016139
0.0157516
0.0150207
0.013877
0.0121767
0.00969343
0.00608265
0.00166499
0.00070621
0.00524756
0.00876226
0.0114821
0.0139653
0.0149037
0.0101695
0.00851495
0.00792528
0.0074758
0.00691229
0.00617267
0.00530933
0.00424507
0.00297756
0.00173662
0.000657721
0.000532048
0.00460559
0.00928864
0.0114341
0.0126908
0.0136387
0.0144601
0.0151715
0.0157369
0.0161202
0.01628
0.0161655
0.0157251
0.0149013
0.0135985
0.0116072
0.00859422
0.00436467
0.000716535
0.003086
0.0086867
0.0114913
0.0133766
0.0143203
0.00996352
0.00832496
0.00777026
0.00733476
0.00676752
0.0060411
0.00534174
0.00462194
0.00366685
0.00248944
0.00121382
0.000140106
0.000857579
0.00579248
0.00980601
0.0115809
0.0126932
0.0135932
0.0143999
0.0151171
0.0157093
0.0161247
0.0163073
0.0162043
0.015764