/*--------------------------------*- C++ -*----------------------------------*\
| =========                 |                                                 |
| \\      /  F ield         | OpenFOAM: The Open Source CFD Toolbox           |
|  \\    /   O peration     | Version:  v2006                                 |
|   \\  /    A nd           | Website:  www.openfoam.com                      |
|    \\/     M anipulation  |                                                 |
\*---------------------------------------------------------------------------*/
FoamFile
{
    version     2.0;
    format      ascii;
    class       volScalarField;
    location    "62";
    object      nut;
}
// * * * * * * * * * * * * * * * * * * * * * * * * * * * * * * * * * * * * * //

dimensions      [0 2 -1 0 0 0 0];


internalField   nonuniform List<scalar> 
78750
(
0.000478692
0.00110663
0.000791634
0.000314124
1.51681e-05
2.27847e-05
3.4291e-05
1.82816e-05
3.17797e-05
2.77208e-05
3.35242e-05
3.54559e-05
3.82129e-05
4.15291e-05
4.46144e-05
4.7911e-05
4.93697e-05
4.7974e-05
4.66499e-05
4.54361e-05
4.42931e-05
4.31987e-05
4.21568e-05
4.11825e-05
4.02962e-05
3.95337e-05
3.89246e-05
3.84742e-05
3.81557e-05
3.64397e-05
3.39779e-05
3.12872e-05
2.50293e-05
9.54382e-06
5.3403e-07
1.80906e-05
4.96481e-05
9.96753e-05
1.78783e-05
1.96604e-05
2.5125e-05
2.7718e-05
3.96495e-05
5.11824e-05
6.17679e-05
6.85998e-05
7.53465e-05
8.33329e-05
9.16951e-05
9.9744e-05
0.000107181
0.000113955
0.00011956
0.000119343
0.000115429
0.000111617
0.000107945
0.000104435
0.000101094
9.17059e-05
7.83509e-05
6.76648e-05
5.87154e-05
5.15369e-05
4.60616e-05
4.11673e-05
3.2389e-05
1.15e-05
3.25371e-06
1.34418e-06
1.63441e-06
6.88857e-05
0.000171533
9.57707e-05
8.48504e-05
6.34945e-05
4.85703e-05
5.22655e-05
7.09113e-05
9.48299e-05
0.000111598
0.00011559
0.000112224
0.000108498
0.000105834
0.00010305
9.99524e-05
9.72625e-05
9.55361e-05
9.47021e-05
9.43618e-05
9.41601e-05
9.38755e-05
9.34278e-05
9.2674e-05
9.11571e-05
8.82424e-05
8.32141e-05
7.51339e-05
6.28251e-05
4.49898e-05
2.22866e-05
6.84153e-06
4.42723e-06
2.68783e-06
2.69239e-06
1.65792e-05
5.22144e-05
7.36786e-05
4.95249e-05
3.60677e-05
3.30449e-05
3.57595e-05
4.12236e-05
4.65299e-05
4.99667e-05
5.51332e-05
6.91847e-05
9.531e-05
0.000116749
0.000120016
0.000116612
0.000114275
0.000114397
0.000115895
0.000117084
0.000117022
0.000115643
0.000113272
0.000110252
0.000106784
0.000102871
9.82589e-05
9.22384e-05
8.24266e-05
6.2627e-05
2.88921e-05
6.80617e-06
4.24788e-06
3.62632e-06
5.23284e-06
7.79037e-05
8.07461e-05
3.92163e-05
2.52661e-05
2.53361e-05
4.04304e-05
8.4707e-05
0.000140698
0.000134125
0.000112307
0.000110542
0.000134058
0.000164203
0.000162948
0.000161487
0.00015996
0.000158453
0.000157019
0.000155695
0.000151815
0.000143652
0.000137501
0.000132794
0.000128955
0.000125323
0.000120993
0.000114671
0.000104495
8.76806e-05
6.00484e-05
2.52983e-05
8.32857e-06
7.26698e-06
4.81243e-06
5.17536e-06
3.0795e-05
7.41348e-05
4.62224e-05
2.69137e-05
2.2716e-05
2.50854e-05
3.01929e-05
3.69662e-05
4.56847e-05
5.45663e-05
5.99579e-05
6.22816e-05
6.68609e-05
7.98712e-05
0.000105716
0.000136972
0.000156607
0.000159789
0.000158365
0.000157056
0.000155875
0.000154813
0.000153849
0.000148724
0.000142734
0.000135746
0.000126765
0.000114348
9.62543e-05
6.75412e-05
2.80565e-05
8.42659e-06
8.08919e-06
5.55735e-06
4.43729e-06
5.51956e-05
0.000115045
7.34125e-05
4.43263e-05
3.046e-05
2.48311e-05
2.58544e-05
3.20342e-05
4.15585e-05
5.3239e-05
6.6245e-05
8.17658e-05
0.000103018
0.000130241
0.000156493
0.000158444
0.000158372
0.000158193
0.000157963
0.000157731
0.000157527
0.000157362
0.000157228
0.000154832
0.000147255
0.000137297
0.000124108
0.000106553
8.3132e-05
5.22419e-05
2.1666e-05
8.93182e-06
1.19483e-05
6.50167e-06
3.98063e-06
2.32499e-05
6.54188e-05
9.83929e-05
0.000110116
7.60493e-05
4.12922e-05
2.77086e-05
2.38937e-05
2.45487e-05
2.84716e-05
3.54923e-05
4.40266e-05
4.97501e-05
5.07575e-05
5.13296e-05
5.73361e-05
7.33444e-05
9.91106e-05
0.000123815
0.000138628
0.000145362
0.000147351
0.000146307
0.000143039
0.000137775
0.000130225
0.000119649
0.000105093
8.49661e-05
5.57579e-05
2.29002e-05
9.40427e-06
1.32036e-05
7.0552e-06
3.30789e-06
4.00393e-05
0.000100961
0.00013353
0.000147994
0.000153389
0.000135121
8.15666e-05
4.67589e-05
3.2879e-05
2.75003e-05
2.60103e-05
2.80337e-05
3.54258e-05
5.12075e-05
7.4047e-05
9.54436e-05
0.000113029
0.0001295
0.000140452
0.000142
0.000138114
0.000133847
0.000130508
0.00012733
0.000123195
0.000117015
0.000107756
9.43321e-05
7.48055e-05
4.66671e-05
1.93554e-05
9.6774e-06
1.70155e-05
7.79992e-06
2.92988e-06
1.90382e-05
5.58319e-05
8.98142e-05
9.99556e-05
9.84845e-05
9.3742e-05
9.02456e-05
8.54023e-05
7.34176e-05
5.71846e-05
4.43002e-05
3.58017e-05
3.04359e-05
2.76915e-05
2.82479e-05
3.48682e-05
4.96069e-05
6.19831e-05
6.59159e-05
7.0189e-05
7.92159e-05
9.0967e-05
0.000100873
0.000106443
0.000107878
0.000105758
9.99232e-05
8.94867e-05
7.20938e-05
4.42308e-05
1.79069e-05
1.03455e-05
2.09958e-05
8.46582e-06
3.06956e-06
2.16745e-05
6.12948e-05
0.000103108
9.96633e-05
7.61992e-05
5.93637e-05
5.36978e-05
5.80522e-05
7.38177e-05
0.000101596
0.000129934
0.00012753
8.81892e-05
5.56412e-05
3.84507e-05
2.96337e-05
2.73663e-05
3.61944e-05
6.38254e-05
7.18038e-05
7.14535e-05
7.81719e-05
8.68873e-05
9.36242e-05
9.76038e-05
9.80949e-05
9.39155e-05
8.38381e-05
6.55181e-05
3.73316e-05
1.51197e-05
1.06087e-05
2.70387e-05
9.12031e-06
5.31872e-06
2.58865e-05
7.69093e-05
0.000108286
8.466e-05
5.98254e-05
5.22517e-05
5.68232e-05
6.53457e-05
7.06603e-05
7.41123e-05
8.19395e-05
9.81547e-05
0.00011762
0.000117851
8.74411e-05
5.71189e-05
4.05885e-05
3.32031e-05
3.27281e-05
4.2981e-05
6.68084e-05
7.71474e-05
7.51672e-05
7.62289e-05
8.07534e-05
8.47449e-05
8.52103e-05
8.00573e-05
6.50617e-05
3.62928e-05
1.44239e-05
1.12484e-05
3.36393e-05
9.24366e-06
6.97757e-06
5.17398e-05
0.000113851
7.88289e-05
4.49645e-05
3.19049e-05
3.28232e-05
4.62487e-05
7.6838e-05
0.000120494
0.00014704
0.000147029
0.000141314
0.000142825
0.000146318
0.000136817
0.00010737
7.18863e-05
4.69995e-05
3.46707e-05
3.27575e-05
4.44451e-05
7.65299e-05
9.27952e-05
8.70321e-05
8.28907e-05
8.2348e-05
8.18233e-05
7.73767e-05
6.36031e-05
3.54125e-05
1.4366e-05
1.24722e-05
4.14335e-05
9.36096e-06
6.13676e-06
3.31272e-05
0.000100334
9.14984e-05
6.25662e-05
4.63927e-05
3.73589e-05
3.32097e-05
3.77883e-05
5.61679e-05
9.12244e-05
0.000129605
0.000148046
0.0001456
0.000136755
0.000128746
0.000117442
9.65521e-05
6.93066e-05
4.73644e-05
3.67256e-05
3.63764e-05
4.61471e-05
6.51467e-05
8.16022e-05
8.56334e-05
8.37715e-05
8.03608e-05
7.46813e-05
6.28842e-05
3.76094e-05
1.47354e-05
1.27176e-05
4.39508e-05
9.4848e-06
6.15616e-06
3.36869e-05
0.000108847
7.54612e-05
5.14797e-05
4.53862e-05
3.67308e-05
2.79765e-05
2.53253e-05
3.36804e-05
6.2034e-05
0.000126361
0.000212522
0.000252568
0.000248445
0.000232141
0.000180631
0.000127119
8.21171e-05
5.07764e-05
3.47415e-05
3.16264e-05
4.25716e-05
6.8803e-05
8.47192e-05
8.54935e-05
8.27942e-05
7.87645e-05
7.19348e-05
5.92464e-05
3.62253e-05
1.53861e-05
1.39312e-05
5.00117e-05
9.66894e-06
7.85506e-06
7.26547e-05
6.3453e-05
3.041e-05
2.36502e-05
3.1515e-05
4.0375e-05
4.33142e-05
4.86133e-05
6.48038e-05
9.70614e-05
0.000131907
0.000155668
0.000168488
0.000172988
0.000170358
0.000161161
0.000144718
0.000119415
8.72914e-05
5.85542e-05
4.22853e-05
3.84777e-05
4.6107e-05
6.30701e-05
7.65124e-05
7.865e-05
7.50267e-05
6.85634e-05
5.70876e-05
3.35805e-05
1.39573e-05
1.42731e-05
5.61762e-05
9.80632e-06
7.07578e-06
6.51015e-05
4.29518e-05
3.40523e-05
3.96604e-05
4.66029e-05
5.62773e-05
7.40992e-05
8.94672e-05
9.74401e-05
0.000105878
0.00011785
0.00013083
0.00014202
0.000149908
0.000153308
0.000150342
0.000138331
0.000115773
8.67917e-05
6.1366e-05
4.64218e-05
4.26419e-05
4.9515e-05
6.40972e-05
7.53259e-05
7.71709e-05
7.32183e-05
6.58911e-05
5.29855e-05
2.85257e-05
1.3274e-05
1.6597e-05
7.10451e-05
9.94178e-06
4.87225e-06
2.89347e-05
7.82924e-05
0.000106972
8.523e-05
4.74508e-05
3.2158e-05
2.81907e-05
2.99541e-05
3.80644e-05
5.3785e-05
7.43384e-05
9.44931e-05
0.00011067
0.000120599
0.000123295
0.000119227
0.000109378
9.53282e-05
7.99831e-05
6.71327e-05
6.01767e-05
6.1118e-05
6.92208e-05
7.83819e-05
8.16691e-05
7.88655e-05
7.21118e-05
6.13942e-05
4.2906e-05
2.04417e-05
1.24492e-05
2.12404e-05
9.16505e-05
1.01947e-05
4.36368e-06
2.48709e-05
7.53424e-05
9.97802e-05
9.72834e-05
9.06604e-05
7.08419e-05
4.74187e-05
3.27336e-05
2.54371e-05
2.51239e-05
3.49333e-05
5.5973e-05
8.04028e-05
0.000101964
0.000117381
0.000122969
0.000118506
0.000108284
9.74e-05
8.96229e-05
8.7195e-05
9.01712e-05
9.51629e-05
9.7057e-05
9.3775e-05
8.60936e-05
7.42671e-05
5.61932e-05
3.21997e-05
1.65479e-05
1.40741e-05
2.8658e-05
9.69939e-05
1.03696e-05
6.15759e-06
3.66776e-05
7.98998e-05
6.09972e-05
5.08274e-05
5.73555e-05
8.13028e-05
0.000103503
9.13841e-05
5.96315e-05
3.62645e-05
2.53865e-05
2.73076e-05
5.02257e-05
8.01269e-05
9.50433e-05
0.000100003
0.000102848
0.000106833
0.000111219
0.000115094
0.000118558
0.000121073
0.000120896
0.00011674
0.000108695
9.71487e-05
8.11017e-05
5.68321e-05
2.85467e-05
1.46392e-05
1.50911e-05
3.53717e-05
8.86223e-05
1.04862e-05
8.00983e-06
5.32125e-05
6.95317e-05
5.62295e-05
5.38417e-05
5.06721e-05
4.76214e-05
5.73341e-05
9.28427e-05
0.000139717
0.00012773
6.59324e-05
3.3249e-05
2.513e-05
3.86048e-05
7.91732e-05
0.000123202
0.000155389
0.000174688
0.000179948
0.000175052
0.000165821
0.000155534
0.000144775
0.000133012
0.00011955
0.000103405
8.25031e-05
5.4506e-05
2.74542e-05
1.50395e-05
1.72704e-05
4.29119e-05
7.50754e-05
1.03781e-05
8.38249e-06
4.60466e-05
2.80822e-05
3.14639e-05
5.32349e-05
7.60827e-05
7.94618e-05
7.32637e-05
8.03563e-05
0.000108738
0.000127713
9.58737e-05
5.35115e-05
3.5331e-05
4.4707e-05
0.000120664
0.00020842
0.000211193
0.000213769
0.000215739
0.000208873
0.00019307
0.000177698
0.000162874
0.000148148
0.000132856
0.000115923
9.50522e-05
6.60687e-05
3.36135e-05
1.63155e-05
1.63679e-05
4.02974e-05
7.3911e-05
1.03517e-05
6.61076e-06
3.50256e-05
2.36818e-05
3.07156e-05
4.81692e-05
6.78221e-05
8.01285e-05
8.54306e-05
7.86893e-05
6.40405e-05
5.35354e-05
5.48946e-05
7.55856e-05
0.000113191
0.000135117
0.000148194
0.000161745
0.000175063
0.000183223
0.000185126
0.000181965
0.000174886
0.000164995
0.00015315
0.000139766
0.000124829
0.000107906
8.79698e-05
6.36512e-05
3.75515e-05
2.02431e-05
1.8493e-05
4.17913e-05
7.29262e-05
1.02281e-05
5.83324e-06
5.85024e-05
7.19383e-05
2.70096e-05
1.70449e-05
1.865e-05
2.13293e-05
2.91767e-05
4.62404e-05
6.67357e-05
7.61188e-05
7.78542e-05
8.41578e-05
9.60806e-05
0.000107647
0.000117287
0.000125874
0.000133087
0.000138338
0.000141365
0.000142044
0.000140392
0.000136607
0.000130992
0.000123864
0.000115501
0.000105903
9.39574e-05
7.604e-05
4.86671e-05
2.39644e-05
1.75795e-05
3.5043e-05
8.4926e-05
1.03002e-05
6.77297e-06
4.57467e-05
8.06122e-05
5.01326e-05
3.14219e-05
2.42711e-05
1.83579e-05
1.49515e-05
1.58672e-05
2.23293e-05
3.51969e-05
5.12358e-05
6.57244e-05
7.88576e-05
9.22483e-05
0.000105648
0.000117552
0.000126632
0.000132552
0.000135568
0.000135817
0.000133336
0.000128471
0.000121663
0.000113318
0.000103783
9.32679e-05
8.17021e-05
6.8384e-05
5.09681e-05
2.90692e-05
1.88767e-05
3.34828e-05
9.4811e-05
1.0368e-05
6.50998e-06
3.17207e-05
6.74173e-05
8.67176e-05
0.00010204
8.23834e-05
4.7846e-05
2.77236e-05
1.63192e-05
9.62415e-06
6.50473e-06
8.00222e-06
1.82199e-05
4.04751e-05
6.35979e-05
7.88264e-05
9.23481e-05
0.000106672
0.000118924
0.000126334
0.000129128
0.000128554
0.000125256
0.000119582
0.000111929
0.000102719
9.23182e-05
8.06516e-05
6.6213e-05
4.64629e-05
2.85225e-05
2.18116e-05
3.64078e-05
9.92544e-05
1.06265e-05
4.85594e-06
2.61844e-05
6.95319e-05
0.000108206
0.000125818
0.000134263
0.000134266
0.000110837
7.13391e-05
4.27647e-05
2.56277e-05
1.42396e-05
6.33838e-06
1.77862e-06
3.2797e-06
2.20048e-05
6.26545e-05
8.29115e-05
9.69801e-05
0.000115618
0.000132675
0.000141103
0.00014097
0.000134662
0.000123624
0.000108756
9.06714e-05
6.99795e-05
5.06319e-05
3.69068e-05
2.33689e-05
1.90662e-05
3.67444e-05
0.000109588
1.1132e-05
4.45998e-06
2.32102e-05
6.27485e-05
0.000100929
0.000104816
9.13358e-05
7.94247e-05
8.03389e-05
9.7634e-05
0.000121337
0.000120617
8.59219e-05
5.11075e-05
2.84817e-05
1.35022e-05
2.28792e-06
1.15874e-06
3.39233e-06
3.73835e-05
6.07557e-05
7.25711e-05
8.14132e-05
8.98241e-05
9.63112e-05
9.91849e-05
9.64901e-05
8.617e-05
6.57617e-05
4.01238e-05
2.69244e-05
2.68041e-05
3.54767e-05
6.88274e-05
9.10421e-05
1.13409e-05
4.94081e-06
2.25503e-05
5.75662e-05
9.74576e-05
0.000110377
9.79155e-05
7.03183e-05
4.99757e-05
4.35668e-05
5.09215e-05
7.94929e-05
0.000139985
0.000207167
0.000214943
0.000128253
6.02515e-05
2.63131e-05
9.964e-06
1.18121e-06
6.39507e-06
2.24378e-05
4.98206e-05
7.44342e-05
9.15568e-05
9.94658e-05
9.57661e-05
7.75284e-05
5.20216e-05
2.86337e-05
1.64394e-05
1.67649e-05
2.7432e-05
6.41408e-05
8.61233e-05
1.12864e-05
6.48525e-06
2.82521e-05
7.81663e-05
0.000111716
9.78963e-05
6.92985e-05
4.98886e-05
4.8178e-05
5.92067e-05
7.14561e-05
8.34787e-05
0.000110613
0.000169912
0.000260399
0.000330017
0.00030647
0.000150543
5.17835e-05
1.3541e-05
3.65813e-06
1.34893e-06
1.4993e-05
3.86595e-05
5.42011e-05
6.32669e-05
7.10133e-05
7.29892e-05
6.26174e-05
3.95959e-05
2.17882e-05
1.9416e-05
3.36834e-05
8.13506e-05
7.30309e-05
1.14932e-05
7.75393e-06
3.73114e-05
0.000103091
9.73278e-05
6.80121e-05
4.54762e-05
3.23431e-05
3.41193e-05
6.01104e-05
0.000123287
0.000183166
0.00019824
0.000199212
0.000216118
0.000256081
0.000306052
0.000311247
0.00020423
7.70609e-05
2.54375e-05
5.11517e-06
7.34106e-07
1.64643e-05
5.07805e-05
7.37129e-05
8.35295e-05
7.64152e-05
5.67913e-05
3.35804e-05
1.88054e-05
1.63932e-05
2.80216e-05
7.45728e-05
6.87573e-05
1.162e-05
7.61833e-06
3.61283e-05
9.91138e-05
7.49545e-05
5.88524e-05
5.46221e-05
4.42878e-05
3.37906e-05
4.02489e-05
7.96757e-05
0.000168941
0.000266266
0.000319829
0.000329778
0.000319126
0.000311824
0.00031084
0.000290137
0.000207605
8.63122e-05
3.07108e-05
1.06624e-05
5.48436e-06
7.69657e-06
2.33174e-05
4.02884e-05
4.84367e-05
4.49324e-05
2.99208e-05
1.71185e-05
1.51497e-05
2.73345e-05
7.82339e-05
6.40134e-05
1.16334e-05
8.09417e-06
4.47478e-05
8.80531e-05
4.5402e-05
4.23487e-05
5.45185e-05
5.25851e-05
4.74241e-05
5.14164e-05
8.72081e-05
0.000175962
0.000274022
0.000344782
0.000392914
0.00039564
0.000392223
0.000385431
0.000360286
0.000231477
9.65618e-05
2.96783e-05
3.94377e-06
1.37358e-07
8.93324e-06
3.61114e-05
5.47967e-05
5.97403e-05
5.3438e-05
3.75793e-05
2.05805e-05
1.45249e-05
2.4001e-05
7.01596e-05
6.51048e-05
1.1732e-05
9.99644e-06
0.000105677
3.69414e-05
2.64142e-05
3.74586e-05
5.87979e-05
7.668e-05
9.93114e-05
0.000137914
0.000189308
0.000229765
0.000258148
0.000283925
0.000308748
0.000329496
0.000342225
0.000340507
0.000312751
0.000248379
0.000155648
7.2668e-05
3.01672e-05
1.14896e-05
4.6931e-06
2.08162e-05
4.20502e-05
5.39949e-05
5.50405e-05
4.54969e-05
2.8495e-05
1.6665e-05
2.07579e-05
5.62765e-05
7.45515e-05
1.19685e-05
9.94988e-06
3.05254e-05
2.22076e-05
5.28577e-05
0.000157815
0.00014935
0.000156668
0.000175317
0.000184379
0.000189801
0.00020196
0.000220752
0.000241281
0.000259634
0.000274206
0.00028537
0.000295968
0.000308417
0.000312259
0.000274712
0.000178187
8.39842e-05
3.99558e-05
2.1729e-05
1.72683e-05
2.59301e-05
3.72751e-05
4.22102e-05
3.73097e-05
2.675e-05
1.89541e-05
2.23873e-05
5.64855e-05
8.23059e-05
1.21142e-05
6.49831e-06
5.11441e-05
0.000107089
9.41517e-05
6.77787e-05
4.81179e-05
4.82519e-05
6.46209e-05
9.58595e-05
0.000134781
0.000171929
0.00020611
0.000238093
0.000265223
0.000280862
0.000275312
0.000240712
0.000181941
0.00012078
7.98884e-05
6.46641e-05
6.56471e-05
6.03505e-05
5.13763e-05
5.0653e-05
5.4639e-05
5.46916e-05
4.86476e-05
3.56412e-05
2.38587e-05
2.06494e-05
2.91341e-05
7.41054e-05
8.21839e-05
1.22015e-05
6.35014e-06
2.81777e-05
6.5263e-05
9.89687e-05
7.15035e-05
3.61198e-05
2.14672e-05
1.85951e-05
2.53112e-05
4.56098e-05
8.65148e-05
0.000146569
0.000206257
0.000253366
0.000286712
0.000301048
0.000285411
0.000230653
0.000151359
8.55133e-05
4.88887e-05
3.41491e-05
3.64823e-05
4.63094e-05
5.51597e-05
5.99705e-05
5.96664e-05
5.33383e-05
3.97809e-05
2.50487e-05
2.08164e-05
3.22622e-05
8.4573e-05
8.08926e-05
1.21257e-05
7.24439e-06
3.26046e-05
7.10181e-05
9.60693e-05
9.85692e-05
7.96235e-05
4.95367e-05
3.06668e-05
2.26754e-05
2.17761e-05
2.83501e-05
4.75849e-05
8.88641e-05
0.000149144
0.000204157
0.000241816
0.000261455
0.000260445
0.000233649
0.000182163
0.000126996
9.03648e-05
7.44988e-05
7.11167e-05
6.93637e-05
6.50112e-05
6.0354e-05
5.40277e-05
4.32583e-05
2.89131e-05
2.14071e-05
3.03042e-05
7.73547e-05
8.54275e-05
1.20957e-05
6.69559e-06
2.8704e-05
7.01482e-05
9.59268e-05
9.26547e-05
9.66173e-05
0.000103622
8.52301e-05
5.85765e-05
4.21959e-05
3.09772e-05
2.32014e-05
2.43348e-05
4.37209e-05
9.05869e-05
0.000156678
0.000217096
0.000256665
0.000270683
0.000258561
0.000225276
0.000184345
0.000150145
0.000127386
0.000112104
9.69081e-05
7.88004e-05
6.03394e-05
4.26679e-05
2.87124e-05
2.31344e-05
3.29933e-05
8.12745e-05
8.66724e-05
1.22071e-05
8.15059e-06
2.72334e-05
6.69144e-05
8.47053e-05
5.99661e-05
4.48823e-05
3.99323e-05
4.55557e-05
6.77988e-05
0.000104041
0.000104883
5.90365e-05
3.22394e-05
2.57378e-05
3.95751e-05
8.64604e-05
0.000173035
0.000270317
0.000331485
0.00034382
0.000320313
0.000279075
0.000234654
0.000195507
0.000163497
0.000135666
0.000108111
7.8735e-05
4.89932e-05
2.86172e-05
2.38587e-05
3.68096e-05
9.0605e-05
8.38259e-05
1.22835e-05
1.09015e-05
5.74955e-05
5.13397e-05
2.81748e-05
2.80721e-05
4.347e-05
5.47792e-05
4.7484e-05
5.18797e-05
8.60116e-05
0.000117078
8.32113e-05
4.91414e-05
4.42836e-05
8.57831e-05
0.000220603
0.000360915
0.00037376
0.00038468
0.00039262
0.000396957
0.000366901
0.000303825
0.000250168
0.000207019
0.000170373
0.000136358
0.000101747
6.47241e-05
3.45664e-05
2.52997e-05
3.70094e-05
8.9169e-05
8.47047e-05
1.24809e-05
1.00301e-05
3.351e-05
1.25006e-05
1.129e-05
2.52776e-05
6.45912e-05
8.83832e-05
8.52321e-05
7.18745e-05
5.50147e-05
5.34154e-05
9.95601e-05
0.000224067
0.000271588
0.000242436
0.000240986
0.000260863
0.000282835
0.000296852
0.000300169
0.000292632
0.000275477
0.000252064
0.000225972
0.000199183
0.00017218
0.000144276
0.000113021
7.48921e-05
3.89784e-05
2.54374e-05
3.55572e-05
8.90657e-05
8.65538e-05
1.3011e-05
5.30368e-06
4.46331e-05
3.64473e-05
2.82415e-05
3.10414e-05
6.57239e-05
8.07738e-05
6.78203e-05
6.57458e-05
9.20086e-05
0.000146136
0.000181591
0.000196301
0.000200229
0.000206773
0.000219468
0.000232812
0.000243524
0.000250814
0.000253539
0.000250342
0.000240828
0.0002257
0.000206041
0.00018262
0.000155625
0.000125092
9.22319e-05
6.10338e-05
3.79976e-05
3.00972e-05
4.5677e-05
0.000112605
8.1351e-05
1.33966e-05
7.3564e-06
5.12418e-05
0.000105447
2.50994e-05
1.11391e-05
1.67896e-05
2.60548e-05
4.81667e-05
8.52794e-05
0.00010539
0.000117201
0.000140338
0.00017154
0.00019713
0.000214055
0.000227735
0.000240533
0.000251685
0.000259834
0.000263916
0.000262956
0.000256146
0.000242976
0.000223157
0.000196392
0.00016239
0.000122255
8.19492e-05
5.17861e-05
3.67333e-05
3.67137e-05
6.19661e-05
0.000134188
7.15034e-05
1.31036e-05
9.59308e-06
4.77305e-05
7.87408e-05
6.77675e-05
5.18913e-05
3.59735e-05
2.34319e-05
1.80517e-05
2.27818e-05
4.18298e-05
7.81219e-05
0.000115925
0.000140164
0.000161593
0.000186087
0.000209078
0.000225454
0.000234839
0.000239899
0.000241995
0.000241577
0.000237895
0.000229681
0.000215639
0.000194257
0.00016385
0.000124384
8.2262e-05
5.0579e-05
3.67414e-05
4.14457e-05
7.55632e-05
0.000141518
6.59341e-05
1.26987e-05
6.30714e-06
2.25394e-05
3.83781e-05
6.18035e-05
9.4677e-05
6.84005e-05
4.28788e-05
2.65817e-05
1.54043e-05
9.80662e-06
8.73577e-06
1.43055e-05
3.32693e-05
7.0562e-05
0.000104149
0.000128217
0.000160787
0.000202737
0.000241139
0.000263927
0.000267979
0.000260894
0.000248187
0.000230879
0.000208271
0.000178981
0.000141323
9.73547e-05
5.92561e-05
4.01376e-05
4.31724e-05
7.84904e-05
0.000143111
6.52233e-05
1.23898e-05
6.46474e-06
3.60056e-05
6.99777e-05
0.000104131
0.000116872
0.000136808
0.000156739
0.00013579
8.88657e-05
5.42475e-05
3.3427e-05
1.93918e-05
1.02809e-05
7.79206e-06
2.04259e-05
7.52059e-05
0.000117837
0.000124661
0.000117627
0.000118753
0.000137531
0.000167157
0.000191479
0.000197917
0.000187436
0.000165703
0.000135466
9.90491e-05
6.50606e-05
4.60999e-05
4.89391e-05
8.4082e-05
0.00014537
6.56523e-05
1.22507e-05
6.87354e-06
2.33511e-05
4.9627e-05
9.08614e-05
9.49746e-05
6.40988e-05
4.45e-05
3.97268e-05
4.85902e-05
7.37871e-05
0.000104015
9.15929e-05
5.68341e-05
3.52354e-05
2.05009e-05
7.19678e-06
6.62763e-07
1.0182e-05
5.8915e-05
0.000106452
0.000140857
0.000203668
0.000262344
0.000248232
0.000204281
0.000164863
0.000128042
9.15062e-05
6.15599e-05
4.69905e-05
5.44155e-05
9.635e-05
0.000149507
6.36089e-05
1.2052e-05
1.04562e-05
3.15586e-05
7.25868e-05
6.51168e-05
4.17572e-05
3.77676e-05
4.34479e-05
5.42702e-05
5.86666e-05
5.31062e-05
5.10686e-05
6.46191e-05
0.000101606
0.000142198
0.000140658
9.80486e-05
7.07265e-05
6.71995e-05
5.96991e-05
3.94311e-05
3.51879e-05
5.61371e-05
9.86135e-05
0.000138933
0.000165202
0.000176606
0.000166771
0.000131538
8.61271e-05
5.79022e-05
5.68256e-05
8.96204e-05
0.00014821
6.74047e-05
1.18671e-05
1.17397e-05
9.38827e-05
3.48577e-05
1.33502e-05
1.1861e-05
1.5239e-05
2.43858e-05
5.69519e-05
0.000125257
0.000144622
0.000126128
9.5137e-05
8.01035e-05
0.000102143
0.000173465
0.000180534
8.44143e-05
4.1911e-05
3.97862e-05
6.58491e-05
0.000118287
0.000196646
0.000262125
0.000289627
0.000290695
0.000270617
0.000229423
0.000170673
0.000111227
7.47144e-05
6.92699e-05
9.88858e-05
0.000154581
7.25112e-05
1.23686e-05
8.8663e-06
2.19488e-05
5.16894e-06
6.83758e-06
4.34323e-05
6.0106e-05
6.32671e-05
0.000109004
0.000189298
0.000210524
0.00019449
0.000159962
0.000112046
6.66412e-05
4.31319e-05
5.00531e-05
0.000108536
0.000160682
0.000208589
0.000255339
0.000279995
0.00029322
0.000299737
0.000297019
0.00028227
0.000254077
0.000212097
0.000159701
0.000110219
8.04293e-05
7.78934e-05
0.000108939
0.000162382
7.80032e-05
1.32486e-05
7.32782e-06
5.57016e-05
7.03708e-05
2.07673e-05
1.3837e-05
2.07272e-05
2.57221e-05
2.86629e-05
4.58823e-05
7.26689e-05
7.58082e-05
7.27821e-05
8.35476e-05
0.000104185
0.000133323
0.000193848
0.000244591
0.000244192
0.000241347
0.000249858
0.000259401
0.000265977
0.000267705
0.000261827
0.000245947
0.000218561
0.000180598
0.000138657
0.000104331
8.74009e-05
9.48125e-05
0.00013352
0.000174699
7.61606e-05
1.37256e-05
9.5648e-06
4.09771e-05
5.30558e-05
1.51926e-05
5.24847e-06
9.41999e-06
2.80914e-05
6.06933e-05
7.5308e-05
7.45382e-05
7.68488e-05
8.43421e-05
0.000105231
0.000137023
0.000170312
0.000208015
0.00023802
0.000246595
0.00024656
0.000247522
0.000249262
0.000250526
0.00024963
0.000243513
0.000228608
0.000202933
0.00016899
0.000134923
0.000110595
0.000103512
0.000120402
0.000161805
0.000183052
7.33999e-05
1.36645e-05
9.41414e-06
4.4723e-05
5.45903e-05
3.17656e-05
1.38028e-05
1.30704e-06
8.86852e-07
8.30895e-06
3.13343e-05
4.24842e-05
5.83322e-05
8.94069e-05
0.000111268
0.000131603
0.000167787
0.000218719
0.000259549
0.000278345
0.000281761
0.000275084
0.000262249
0.000247036
0.000232324
0.000218922
0.00020535
0.000188885
0.000168206
0.000146385
0.000130806
0.000129752
0.000148942
0.000181731
0.000187208
7.43617e-05
1.34452e-05
9.46933e-06
8.61977e-05
7.81131e-05
6.01855e-05
7.86044e-05
2.81339e-05
5.18305e-06
1.911e-06
2.3696e-06
3.16448e-05
0.000187534
0.00014136
8.65985e-05
0.000101537
0.000164592
0.000229434
0.00025654
0.000264045
0.000269433
0.000275152
0.000276367
0.000267686
0.000248791
0.000224517
0.00020066
0.000180464
0.000164484
0.000152959
0.000148215
0.000154358
0.000172808
0.000194088
0.000186962
7.36265e-05
1.31764e-05
8.91511e-06
3.23497e-05
7.68388e-05
7.82215e-05
3.0131e-05
2.05108e-05
2.35639e-05
6.86216e-06
1.08502e-06
1.61594e-06
1.88712e-06
2.00263e-05
0.000104571
0.000180325
0.000189551
0.000200631
0.000217455
0.000230021
0.000236765
0.000239338
0.000239854
0.000240768
0.000240951
0.000236106
0.000223271
0.000204777
0.000186666
0.000174418
0.000171354
0.000178811
0.000194307
0.000208435
0.000194605
7.53206e-05
1.30239e-05
9.58302e-06
5.99289e-05
0.000116511
0.000111787
8.21826e-05
6.17739e-05
2.55607e-05
1.43801e-05
7.26772e-06
1.05245e-06
1.26224e-06
1.68489e-06
9.47513e-06
5.8406e-05
0.000136872
0.0001717
0.000189348
0.000206543
0.000220733
0.000228338
0.000227796
0.00022083
0.000213163
0.000209484
0.000209698
0.000210686
0.000209817
0.000207652
0.000207152
0.000210362
0.000215789
0.000217726
0.000195211
7.73768e-05
1.29862e-05
9.02832e-06
4.02263e-05
0.000115046
9.42255e-05
6.16448e-05
6.55177e-05
6.62549e-05
3.04789e-05
1.16812e-05
1.30608e-06
1.05795e-06
7.05147e-07
1.24793e-06
1.20339e-05
5.96798e-05
0.000137825
0.00018689
0.000206612
0.000214023
0.000220286
0.000229116
0.000233215
0.000227038
0.000215023
0.000204495
0.000199745
0.000200848
0.000205568
0.000211313
0.000215895
0.000217275
0.000212164
0.000180702
6.96269e-05
1.25335e-05
8.58619e-06
4.00667e-05
9.28542e-05
0.000116476
0.000126008
0.00010455
5.67777e-05
3.57817e-05
2.07672e-05
4.8974e-06
9.88044e-07
1.13526e-06
8.35434e-07
3.26895e-06
4.19418e-05
0.000100447
0.000135037
0.000168822
0.000198617
0.000205901
0.000203102
0.000212149
0.000233162
0.00024857
0.000248989
0.000239927
0.000229685
0.00022316
0.000220846
0.000220157
0.000217531
0.000208487
0.000169632
6.13292e-05
1.19994e-05
8.76567e-06
4.47882e-05
0.000124375
0.000101934
8.12635e-05
8.437e-05
9.18775e-05
6.44714e-05
3.01901e-05
1.073e-05
1.66551e-06
5.93808e-08
9.31309e-07
1.61338e-06
2.20558e-05
0.000183884
0.000105828
9.57505e-05
0.000124266
0.000181267
0.000215982
0.000207847
0.000195859
0.000203334
0.00022616
0.000249735
0.000263357
0.000266183
0.000261344
0.000251695
0.000238599
0.000220696
0.00017747
6.61316e-05
1.23375e-05
8.36836e-06
3.83839e-05
9.8608e-05
0.000129204
0.000124732
8.56481e-05
6.16866e-05
5.72989e-05
4.80595e-05
2.3629e-05
4.8123e-06
1.58512e-06
4.81979e-07
5.8742e-08
1.89065e-06
3.28979e-05
0.000180746
0.000113614
7.819e-05
8.38687e-05
0.00013084
0.00020658
0.000230139
0.000209491
0.000191127
0.000188914
0.000198104
0.000210464
0.000219311
0.000221396
0.000216045
0.000202352
0.000165657
6.69127e-05
1.26639e-05
8.63903e-06
4.43382e-05
0.000122698
0.000116782
8.92873e-05
7.26077e-05
6.91252e-05
7.17588e-05
6.85036e-05
4.62483e-05
1.90854e-05
8.5956e-07
1.23653e-06
1.22146e-06
3.39139e-07
1.16726e-06
1.91064e-05
0.000145649
0.000172319
9.3392e-05
6.74233e-05
8.14668e-05
0.000143747
0.000210739
0.000224893
0.000218334
0.000206619
0.000196593
0.000191073
0.000189021
0.000187008
0.000180271
0.000149699
5.83046e-05
1.22027e-05
8.64591e-06
4.23703e-05
0.000113843
0.000130586
0.000106031
7.1624e-05
5.54879e-05
5.63537e-05
6.66386e-05
6.82342e-05
4.37203e-05
1.686e-05
4.53768e-06
2.29707e-06
2.43145e-07
1.13754e-06
5.62065e-07
1.11304e-05
8.70719e-05
0.000213006
0.00011404
6.38909e-05
6.11909e-05
9.58843e-05
0.00016159
0.000211637
0.00023122
0.000237849
0.000238487
0.000233407
0.00022199
0.000201949
0.000151044
5.50392e-05
1.17481e-05
8.67233e-06
4.52159e-05
0.000120896
0.000119526
8.65391e-05
6.38707e-05
5.96461e-05
6.61998e-05
7.49827e-05
7.98914e-05
7.00581e-05
4.12771e-05
1.52393e-05
3.87004e-06
2.19015e-06
1.86867e-06
3.32517e-07
2.57435e-07
9.83473e-06
5.6761e-05
0.000177395
0.000137097
9.34722e-05
8.19784e-05
9.46698e-05
0.000123228
0.000159222
0.000191947
0.000210998
0.000215544
0.000208541
0.00018772
0.000133377
4.78307e-05
1.07956e-05
8.78468e-06
4.49435e-05
0.000117576
0.000120442
8.50127e-05
5.61016e-05
4.95386e-05
5.93693e-05
7.57374e-05
8.62143e-05
8.59827e-05
7.13938e-05
4.39823e-05
1.8007e-05
7.30715e-07
8.88036e-07
1.2911e-06
1.09706e-06
1.38242e-06
4.28384e-06
2.64295e-05
8.43982e-05
0.000166595
0.000181363
0.000176477
0.000168499
0.000157189
0.00014771
0.000147299
0.000153878
0.000157697
0.000148149
0.00010037
3.40667e-05
8.8344e-06
8.84759e-06
4.58935e-05
0.0001175
0.00011736
8.07956e-05
5.25431e-05
4.55401e-05
5.53821e-05
7.5983e-05
9.35991e-05
9.87553e-05
9.30305e-05
7.79791e-05
5.50633e-05
3.11761e-05
1.05491e-05
5.44866e-06
6.31856e-07
4.6891e-07
2.89347e-07
2.91998e-06
1.20388e-05
3.32057e-05
7.63301e-05
0.000149849
0.00020777
0.00020656
0.00019319
0.000185252
0.000180294
0.000172717
0.00014819
7.7213e-05
2.60541e-05
7.80171e-06
9.04675e-06
4.50395e-05
0.000116684
0.000119615
8.29177e-05
5.09017e-05
3.97788e-05
4.42385e-05
6.01512e-05
8.13691e-05
9.86764e-05
0.000105929
0.000102955
9.19529e-05
7.50117e-05
5.57438e-05
3.63484e-05
1.6514e-05
1.79209e-06
3.24585e-07
2.74513e-06
7.93563e-07
4.3778e-06
1.0049e-05
2.47751e-05
4.79075e-05
8.46164e-05
0.000138934
0.000178467
0.000173309
0.000155985
0.000128095
8.54845e-05
3.73212e-05
9.78779e-06
9.24992e-06
4.42685e-05
0.00011462
0.000119487
8.34056e-05
4.98876e-05
3.62981e-05
3.75597e-05
4.95447e-05
6.7799e-05
8.62639e-05
0.000100702
0.000109568
0.000112293
0.000108533
9.90019e-05
8.58825e-05
7.0907e-05
5.41193e-05
3.54698e-05
1.74711e-05
4.77602e-06
3.51946e-06
5.00479e-06
3.84242e-06
3.30246e-06
1.1695e-05
2.06744e-05
3.559e-05
6.75548e-05
0.000111233
0.000115019
9.22504e-05
4.6276e-05
1.06541e-05
9.48295e-06
4.35367e-05
0.000113023
0.000117903
8.2187e-05
4.83854e-05
3.32081e-05
3.17154e-05
3.99217e-05
5.49583e-05
7.30042e-05
9.06611e-05
0.000106185
0.000118712
0.000127229
0.000130607
0.000128458
0.000121623
0.000111255
9.85872e-05
8.38097e-05
6.63405e-05
4.7531e-05
3.02901e-05
1.76829e-05
8.38205e-06
4.73932e-06
1.76979e-06
1.66501e-06
4.40734e-06
1.19662e-05
3.80012e-05
7.8745e-05
4.1897e-05
9.51088e-06
9.65616e-06
4.43252e-05
0.000113258
0.000113333
7.57445e-05
4.36928e-05
2.95362e-05
2.76768e-05
3.45795e-05
4.76192e-05
6.44052e-05
8.3815e-05
0.000105186
0.000127343
0.000148245
0.00016529
0.000176177
0.000179782
0.000176235
0.00016705
0.000153833
0.000137305
0.000117582
9.57949e-05
7.7087e-05
4.98953e-05
1.86602e-05
2.56991e-06
1.70224e-06
2.61457e-06
8.85888e-07
1.86089e-06
1.62071e-05
3.43102e-05
1.16313e-05
9.63826e-06
4.56441e-05
0.000114255