/*--------------------------------*- C++ -*----------------------------------*\
| =========                 |                                                 |
| \\      /  F ield         | OpenFOAM: The Open Source CFD Toolbox           |
|  \\    /   O peration     | Version:  v2006                                 |
|   \\  /    A nd           | Website:  www.openfoam.com                      |
|    \\/     M anipulation  |                                                 |
\*---------------------------------------------------------------------------*/
FoamFile
{
    version     2.0;
    format      ascii;
    class       volScalarField;
    location    "62";
    object      omega;
}
// * * * * * * * * * * * * * * * * * * * * * * * * * * * * * * * * * * * * * //

dimensions      [0 0 -1 0 0 0 0];


internalField   nonuniform List<scalar> 
78750
(
1384.03
211.307
151.665
95.5628
26.8361
20.7152
22.4792
18.1468
20.1263
18.6785
18.9028
18.4758
18.2488
18.0101
17.7842
17.5689
17.3626
17.1622
16.971
16.7941
16.626
16.4638
16.3081
16.1608
16.0244
15.9037
15.8025
15.7216
15.6576
15.602
15.5433
15.4697
15.3742
15.26
498.667
517.178
19.1059
18.87
9.73364
11.48
14.5652
13.3906
13.0862
12.468
12.0435
11.621
11.2362
10.8755
10.5409
10.2302
9.94099
9.67105
9.41868
9.17916
8.94702
8.72189
8.50601
8.3006
8.10603
7.91695
7.72838
7.54594
7.37605
7.22245
7.0873
6.96977
6.86157
6.71542
6.40794
738.166
404.222
13.3461
14.1583
14.0471
12.9785
12.0866
12.0821
12.1104
12.0571
11.9197
11.7479
11.5639
11.3813
11.2104
11.0545
10.9087
10.7654
10.6181
10.4634
10.2999
10.127
9.94515
9.75461
9.55594
9.35022
9.13627
8.91292
8.67924
8.43449
8.17801
7.90756
7.61554
7.35433
7.91549
742.591
406.472
11.2983
12.2516
12.6034
12.7882
12.921
13.0055
13.1027
13.162
13.141
13.0133
12.7601
12.4178
12.0803
11.8016
11.5761
11.3915
11.2426
11.1231
11.0234
10.9342
10.8475
10.7576
10.6593
10.5478
10.4179
10.264
10.0802
9.86068
9.59972
9.2799
8.82479
8.03425
8.26485
745.494
413.712
14.6191
14.9498
14.6436
13.6815
12.5663
11.9047
11.7429
11.7746
11.8457
11.9227
11.9687
11.9516
11.8912
11.8108
11.7184
11.6226
11.5284
11.439
11.3564
11.2805
11.2089
11.1398
11.0719
11.0034
10.9314
10.8526
10.7623
10.6545
10.52
10.3373
10.0381
9.50564
10.1519
749.054
414.666
13.6348
13.3069
12.638
11.872
11.5514
11.6146
11.8133
12.0013
12.1343
12.2165
12.2565
12.2502
12.1877
12.0727
11.9371
11.8145
11.7096
11.6143
11.5251
11.4433
11.3694
11.3028
11.2421
11.1845
11.1261
11.0627
10.9889
10.8975
10.7775
10.6086
10.3234
9.82554
10.791
751.232
411.643
14.2913
14.7717
14.6441
13.9369
12.9511
12.0557
11.4993
11.2566
11.1919
11.2279
11.3122
11.4044
11.4781
11.522
11.5406
11.5432
11.5357
11.5221
11.5056
11.4893
11.4748
11.4628
11.4526
11.4429
11.431
11.4136
11.3858
11.3401
11.2645
11.1307
10.8651
10.5464
12.1604
753.962
410.291
14.1033
15.201
15.6855
15.8629
15.6991
15.0285
14.0369
13.1361
12.4706
12.0192
11.7417
11.5943
11.5297
11.5036
11.4847
11.4581
11.4283
11.4068
11.3968
11.3963
11.4033
11.4165
11.4344
11.4548
11.4751
11.4918
11.5007
11.4965
11.4709
11.4038
11.2373
11.0178
12.7359
755.541
408.417
13.2337
14.383
15.0537
15.4872
15.7319
15.8058
15.6121
15.0069
14.1445
13.239
12.3951
11.7124
11.271
11.0906
11.0847
11.1496
11.2157
11.2635
11.3009
11.3387
11.3822
11.4308
11.4816
11.5318
11.5786
11.6192
11.6499
11.665
11.6537
11.5919
11.4258
11.4135
13.6078
757.668
407.247
13.4945
15.1371
15.8959
16.3546
16.6804
16.9289
17.1245
17.2275
17.1056
16.6575
15.9223
15.0016
13.9701
12.9113
11.9412
11.2527
10.9715
10.9791
11.0714
11.1388
11.1681
11.19
11.2295
11.2908
11.3677
11.4517
11.5356
11.6131
11.6772
11.7171
11.7226
12.0697
14.4751
759.544
407.535
14.8435
16.4826
17.0208
17.1914
17.2137
17.1975
17.1852
17.1679
17.1522
17.1217
17.0334
16.8356
16.4329
15.71
14.6685
13.3933
12.0325
10.984
10.5722
10.6117
10.8491
11.0963
11.2655
11.3608
11.4149
11.4553
11.4937
11.5302
11.5589
11.5745
11.6363
12.4748
15.4117
761.44
417.155
16.8323
17.5682
17.6811
17.6044
17.5278
17.6839
18.0166
18.2363
18.2004
17.9294
17.5311
17.1386
16.8109
16.5028
16.1111
15.4967
14.6014
13.5188
12.39
11.4694
10.9874
10.8366
10.8773
11.017
11.177
11.3178
11.4365
11.5356
11.6139
11.673
11.8003
12.9123
16.1483
762.783
424.616
17.3035
17.1149
16.7569
16.2529
15.8784
16.1246
16.8898
17.6026
17.9523
17.9667
17.7204
17.2899
16.8035
16.3668
15.9934
15.6352
15.2037
14.5785
13.6764
12.5936
11.6759
11.189
11.0126
11.0043
11.0948
11.2277
11.3654
11.4922
11.6045
11.7181
11.9877
13.4306
16.8262
763.697
421.564
16.998
17.2024
17.0817
16.7983
16.4521
16.1191
16.0562
16.6311
17.4366
17.8832
17.945
17.745
17.3588
16.8605
16.3425
15.863
15.4199
14.9602
14.3852
13.6136
12.7557
12.0551
11.6195
11.4082
11.3418
11.3646
11.4379
11.5314
11.6224
11.706
11.9194
13.4319
17.0289
764.314
421.65
17.1739
17.2145
16.8223
16.3262
16.0715
15.8013
15.2346
15.0903
16.0681
17.0969
17.5333
17.5797
17.4385
17.1766
16.819
16.3783
15.8523
15.2356
14.4888
13.5563
12.5356
11.7834
11.4422
11.335
11.3413
11.4173
11.5355
11.6736
11.8163
11.967
12.2458
13.7903
17.44
765.446
434.518
18.3037
17.2127
15.8363
14.8198
15.0641
15.6386
15.9955
16.4075
17.0938
17.6253
17.8615
17.9121
17.8307
17.6425
17.3668
17.0217
16.6183
16.1537
15.5978
14.8906
13.9887
13.0269
12.2766
11.848
11.6575
11.608
11.6457
11.7352
11.8469
11.9731
12.2803
14.1815
17.9297
766.658
424.995
16.2224
15.7302
14.9333
14.8767
15.223
15.7083
16.3035
16.8482
17.3067
17.6941
17.9817
18.1496
18.1991
18.1404
17.9868
17.7501
17.4316
17.0115
16.4395
15.6471
14.6335
13.5755
12.7471
12.2472
11.99
11.884
11.8811
11.9525
12.0771
12.2624
12.7943
15.1869
18.8748
768.517
413.622
16.6824
17.8364
18.2233
18.0552
17.3142
16.2496
15.3254
14.8455
14.9784
15.5768
16.2814
16.8593
17.2415
17.4295
17.4418
17.2966
17.0051
16.5669
15.976
15.2374
14.4085
13.6228
13.0114
12.5962
12.3282
12.1636
12.0787
12.0624
12.1219
12.3693
13.4928
16.7794
20.3226
770.979
411.296
15.4488
16.668
17.3031
17.844
18.3066
18.3648
17.6706
16.3112
14.7193
13.6356
13.6626
14.4495
15.264
15.8161
16.1106
16.1955
16.1074
15.864
15.4833
14.9992
14.473
13.9819
13.5778
13.266
13.0293
12.852
12.727
12.6596
12.7038
13.1587
14.8664
18.2492
21.4978
773.002
418.822
16.206
16.3068
16.2576
16.4142
16.9344
17.7355
18.5087
18.88
18.4234
16.9385
14.8343
13.3592
13.5274
14.3287
14.9959
15.3911
15.5275
15.4654
15.2741
15.0077
14.7088
14.4112
14.1344
13.8829
13.6528
13.44
13.2446
13.0807
13.0384
13.6119
15.8899
19.426
22.4014
774.151
430.178
18.4375
17.9124
17.5723
17.5731
17.6014
17.5969
17.8757
18.4716
18.9982
19.2137
18.7429
16.86
14.3629
13.5784
14.0685
14.6363
15.0129
15.2067
15.2668
15.2351
15.1427
15.0133
14.8629
14.6989
14.522
14.3294
14.1198
13.9055
13.7874
14.3165
16.7041
20.0563
22.7184
773.766
437.18
17.4094
16.0679
16.1252
17.2473
18.1872
18.6802
18.8392
18.9405
19.0895
19.1355
18.9234
18.0248
16.0127
14.5154
14.4339
14.6109
14.7905
14.9584
15.0882
15.1738
15.2188
15.2282
15.2051
15.1516
15.0664
14.9444
14.7785
14.5669
14.3597
14.5715
16.5906
20.154
22.7884
773.346
426.59
14.6543
14.4406
14.6823
15.3428
16.2914
17.2398
17.9625
18.2825
18.1596
17.6014
16.7703
16.1153
15.788
15.6045
15.5557
15.5709
15.6109
15.657
15.7008
15.7372
15.7622
15.7733
15.7682
15.7444
15.6979
15.6225
15.5102
15.3559
15.1896
15.2717
16.6817
19.8878
22.4396
771.849
421.383
18.2989
17.6875
15.6126
13.3175
12.6702
12.828
13.6163
14.6079
15.4032
15.8861
16.1182
16.2277
16.3057
16.3711
16.4169
16.4455
16.4587
16.4594
16.4534
16.4435
16.4309
16.4152
16.395
16.3671
16.3263
16.2626
16.1612
16.0061
15.7982
15.6835
16.5637
19.6003
22.2464
771.778
425.229
19.5555
19.1578
18.0365
16.0332
14.1727
12.5237
11.412
11.2062
11.8727
12.9604
14.0293
14.8844
15.5028
15.9393
16.2444
16.4562
16.5996
16.69
16.7442
16.7778
16.7976
16.8093
16.8173
16.8248
16.8323
16.836
16.8231
16.7626
16.587
16.2207
16.3746
19.1455
22.0081
771.708
421.149
17.8083
19.2431
20.0512
20.2574
19.6633
18.1933
15.9787
13.2393
10.4193
8.43106
8.34843
9.92472
11.8388
13.3932
14.4908
15.2296
15.7308
16.0771
16.3196
16.4871
16.598
16.6664
16.7043
16.7219
16.7312
16.7498
16.7948
16.8873
17.0607
17.3551
17.9721
20.1587
22.7634
774.892
412.959
15.3833
17.1963
18.3745
19.309
20.0645
20.5102
20.4575
19.6365
17.9174
15.4055
12.1622
8.41492
5.28822
5.97392
8.93038
11.3177
13.0476
14.2021
14.9629
15.4958
15.8935
16.1929
16.4091
16.5529
16.6354
16.6682
16.6502
16.5961
16.5418
16.4719
17.3806
20.4829
23.6298
778.545
412.337
16.7876
18.5041
19.1092
19.3525
19.504
19.7522
20.262
20.9812
21.5727
21.6398
20.8058
18.8812
15.901
11.8215
5.61539
5.0119
5.59197
9.41286
12.0959
13.7068
14.6654
15.2765
15.7098
16.04
16.307
16.5468
16.8118
17.225
18.1391
19.5938
20.7902
22.641
24.9682
781.002
416.082
18.9115
20.6517
21.157
21.1919
20.9704
20.5714
20.2085
20.1829
20.6983
21.5931
22.3691
22.7371
22.6095
21.7113
19.4788
15.5052
10.7573
4.79112
6.85663
8.1131
10.9709
12.5397
13.4406
13.9486
14.215
14.3225
14.3126
14.2974
14.9225
17.4844
20.5132
22.9367
25.2213
782.161
426.893
20.3743
20.9322
20.8857
20.6627
20.3706
20.2352
20.7862
21.7002
22.3003
22.6501
22.9203
23.0682
23.0496
22.8711
22.473
21.5067
18.93
12.6077
7.34263
4.84556
6.89296
10.0497
12.2102
13.8128
15.0193
15.8682
16.4174
16.7183
16.9769
18.4172
21.3158
23.6216
25.8629
784.664
436.994
21.1139
20.777
20.3096
19.7582
19.156
18.7918
19.8107
22.0784
23.7034
24.5158
24.8485
24.8548
24.6155
24.2193
23.7403
23.1781
22.3515
20.5898
16.4849
8.43635
4.60902
7.48348
10.9179
12.8108
13.8359
14.4177
14.8425
15.3646
16.2727
18.1332
21.1692
23.7266
26.1684
786.089
437.382
20.994
20.8049
20.4344
20.1196
19.9755
19.6453
19.382
21.0954
23.3992
24.8031
25.5449
25.9118
25.9987
25.8166
25.3822
24.7555
23.9789
22.9426
21.1532
16.9007
10.4937
6.94015
6.57478
8.58757
10.492
11.8599
12.8626
13.77
15.0721
17.6421
21.3978
24.0612
26.4985
786.438
440.887
21.7284
21.0368
20.1304
19.7479
20.0834
20.4066
20.5045
21.6268
23.7188
25.1349
25.9319
26.3884
26.6062
26.6096
26.3921
25.9531
25.2834
24.231
22.2598
17.6904
7.52933
4.12092
6.46357
9.9412
11.8715
13.1048
13.9311
14.4655
15.0254
16.6911
20.5778
23.8024
26.4937
786.785
459.885
23.2042
21.236
19.765
19.993
20.925
22.0404
23.3583
24.6842
25.6966
26.3793
26.8932
27.2729
27.5057
27.5779
27.4802
27.2027
26.7203
25.9534
24.657
22.2041
17.3467
10.5926
6.13133
8.53583
11.3425
13.2915
14.65
15.5868
16.1766
16.8432
19.53
23.288
26.489
787.508
454.645
19.729
18.7185
20.0521
21.8124
22.8085
23.81
24.6985
25.4235
26.0656
26.652
27.1528
27.5453
27.8188
27.9672
27.9874
27.8812
27.6578
27.3253
26.847
25.9884
23.9221
19.4699
13.5379
9.66878
9.4798
10.9745
12.7009
14.3565
15.9574
17.4881
19.8171
23.43
26.7144
787.903
424.92
19.4401
21.0357
21.4232
20.9876
20.5985
20.8481
21.7433
22.9434
24.1407
25.1686
25.9739
26.5422
26.8743
26.9701
26.8158
26.3619
25.4831
23.9458
21.6861
19.6167
18.8027
17.5673
15.5218
13.8227
13.058
13.0309
13.4931
14.392
15.9356
18.2864
21.1101
24.2446
27.134
787.328
426.495
23.3137
23.3826
22.4046
20.9978
18.8946
16.7786
15.9646
17.0714
19.2908
21.5859
23.4904
24.9297
25.9581
26.6087
26.8979
26.8117
26.2532
24.9188
22.2966
18.1761
14.1752
12.75
13.0674
13.8016
14.5169
15.082
15.4914
15.8602
16.5527
18.4358
21.5957
24.5688
27.1799
786.192
429.102
21.2968
22.2869
22.7435
22.7654
22.1498
20.6469
18.5382
16.6801
15.9918
16.86
18.9085
21.3457
23.4739
25.1015
26.2742
27.0256
27.349
27.1813
26.3483
24.5146
21.6684
18.6597
16.362
15.1389
14.9168
15.3586
16.0456
16.7148
17.35
18.542
21.3761
24.4507
27.1296
786.728
425.029
20.6774
21.4533
21.6331
21.8914
22.4108
23.0177
23.1855
22.4914
21.0402
19.1658
17.1473
16.5963
18.4826
21.1227
23.3763
25.0405
26.1978
26.9085
27.1644
26.8841
25.9473
24.3346
22.2568
20.1353
18.3584
17.1885
16.7607
17.0172
17.8254
19.275
21.9262
24.8552
27.5168
788.487
437.08
23.435
23.1962
22.2189
21.293
20.6286
20.4773
21.0936
22.5361
23.9477
24.6139
23.6421
20.4855
17.6976
17.9234
20.0611
22.2988
24.0399
25.2874
26.1249
26.559
26.5367
25.9928
24.915
23.4027
21.6648
19.9745
18.6311
17.9233
18.1754
19.8172
22.6611
25.3834
27.8849
789.9
473.14
25.2045
22.1857
19.832
19.3562
20.3537
20.9917
20.7082
21.0439
22.5404
23.8108
24.1109
22.4424
20.6436
21.5909
23.1761
24.2766
25.1473
25.8825
26.4155
26.708
26.74
26.4717
25.847
24.8613
23.581
22.1366
20.7173
19.5666
19.0687
20.0882
22.8756
25.597
28.1272
791.899
480.041
20.548
16.7303
15.4013
18.0805
20.8892
22.1241
22.5028
22.4694
22.0259
21.4836
22.4272
24.1673
24.7908
25.3151
25.8557
26.3145
26.6754
26.9391
27.1003
27.1435
27.0453
26.7754
26.3047
25.6187
24.7268
23.6661
22.5015
21.3249
20.3609
20.5637
23.0515
25.9094
28.7378
795.52
431.239
17.2404
19.1325
18.7671
18.9126
20.4836
21.3622
21.7906
22.1089
22.8565
23.9918
24.9569
25.6923
26.2453
26.6943
27.0564
27.3253
27.5048
27.5957
27.599
27.511
27.3233
27.0228
26.5953
26.0281
25.3143
24.4557
23.4798
22.5027
21.8558
22.2469
24.4625
26.9789
29.6527
796.728
441.063
27.8047
25.0238
20.7833
15.2693
15.6654
17.0028
19.0903
21.0105
22.3814
23.5612
24.6715
25.6048
26.3293
26.9043
27.3587
27.7003
27.9362
28.071
28.1084
28.0469
27.8826
27.6102
27.2225
26.7102
26.0602
25.2568
24.3082
23.3819
23.0476
23.9243
25.9306
27.8812
29.9964
793.824
450.23
24.2208
24.1595
23.1627
21.1167
19.0183
17.2787
16.2343
16.8145
18.4913
20.2531
21.8407
23.278
24.56
25.6588
26.5602
27.2712
27.7979
28.1733
28.409
28.5118
28.484
28.3248
28.0311
27.5967
27.0109
26.2535
25.3105
24.3055
23.8667
24.8326
26.66
28.2313
29.9351
791.271
423.11
19.6676
23.523
25.0091
24.9328
23.6168
21.4572
18.781
15.5062
12.6866
11.6775
13.2348
16.2034
19.1194
21.5002
23.3406
24.7358
25.8075
26.6473
27.3121
27.8148
28.1708
28.374
28.4136
28.278
27.9534
27.4208
26.6531
25.683
24.9536
25.4804
27.0105
28.3663
29.8559
790.629
417.252
21.0029
22.5635
23.1935
24.0023
25.0047
25.7331
26.0268
25.5391
23.8467
21.0147
17.1941
12.8856
10.9362
13.6576
17.6324
21.1465
23.9675
25.899
27.0341
27.6697
28.0408
28.2507
28.3284
28.2688
28.0542
27.6593
27.0602
26.2959
25.7322
26.1742
27.4436
28.6009
29.9362
791.075
425.998
24.9258
26.1673
25.7946
24.9286
23.7886
22.755
22.4577
23.2773
24.8208
26.1909
26.5973
25.1256
21.7991
17.4716
11.0214
5.54258
11.7274
18.1368
22.5501
25.5634
27.3529
28.3213
28.8213
28.9915
28.884
28.525
27.9111
27.0807
26.4159
26.7525
27.854
28.8651
30.0428
790.499
453.78
26.0459
24.6394
22.6103
21.0989
20.5515
21.0094
22.0376
22.7
22.8143
23.0534
24.1522
25.7626
26.9269
27.26
26.4182
24.4089
22.4971
20.3595
17.729
17.2763
19.6825
22.666
25.0907
26.7526
27.7357
28.1845
28.1995
27.8249
27.238
27.173
27.9193
28.7641
29.7888
791.728
500.538
28.0719
22.8737
17.9669
16.2379
16.8381
19.1926
22.8887
25.7475
27.2627
27.7741
27.541
27.2909
27.8642
28.883
29.6291
28.1902
23.0691
19.6483
19.9444
21.6848
23.5932
25.2781
26.6672
27.7251
28.4425
28.8356
28.9165
28.6808
28.2099
27.9665
28.3189
28.9179
29.9955
796.461
470.104
17.3832
12.0285
11.3833
17.6022
19.8681
21.7595
24.3392
26.3881
27.8834
28.9442
29.4418
29.1916
27.9438
25.4798
23.435
24.1651
24.2453
24.5907
25.3322
26.2129
27.0869
27.8853
28.5741
29.125
29.5139
29.7196
29.7175
29.4823
29.0731
28.8125
29.0044
29.5467
30.8367
801.03
447.738
25.0817
23.6976
19.9825
17.5575
17.8929
18.0812
18.733
20.5539
22.6386
23.8968
24.5938
25.2265
25.7499
26.1823
26.829
27.7191
28.4199
29.0642
29.6358
30.0987
30.4588
30.7267
30.9081
30.9998
30.9891
30.8566
30.5836
30.1807
29.7623
29.582
29.7912
30.34
31.6327
801.491
469.712
27.4808
24.6092
20.3589
14.3402
15.9398
19.1828
20.5842
21.3156
22.2299
23.3656
24.4928
25.5619
26.5793
27.5105
28.4139
29.2497
29.9573
30.5729
31.1111
31.5728
31.9558
32.2471
32.4279
32.4791
32.3841
32.1297
31.7157
31.1916
30.7077
30.4745
30.5685
30.9601
31.9484
798.396
458.135
22.197
21.2467
20.2213
16.3176
6.99782
6.65324
13.3644
19.6498
22.0333
23.1813
23.979
24.8332
25.9382
27.2311
28.3937
29.3567
30.1499
30.811
31.3466
31.7739
32.1236
32.4203
32.6678
32.8462
32.9209
32.8539
32.6235
32.2548
31.8517
31.5637
31.4728
31.6064
32.1784
795.737
458.28
24.6748
23.4914
22.3421
21.7666
19.688
11.5236
4.02676
8.95304
19.945
22.6365
23.7047
24.6992
26.0839
27.1637
28.0436
28.9154
29.824
30.7053
31.4747
32.0785
32.4969
32.7484
32.876
32.9231
32.9139
32.8498
32.7164
32.51
32.2653
32.0473
31.9103
31.906
32.2184
794.293
457.749
25.1983
24.5134
23.1572
20.4753
18.0359
16.6748
11.2049
6.84121
4.27247
8.43536
17.9833
22.9314
24.9751
26.3819
27.5323
28.4641
29.3067
30.158
31.0327
31.8868
32.6574
33.2605
33.6307
33.7611
33.6945
33.4906
33.2057
32.8853
32.5669
32.2833
32.0632
31.9519
32.1236
793.716
452.602
23.6112
23.5501
23.8477
24.0187
22.6653
18.9927
14.9025
9.53134
6.07569
4.18962
8.48803
13.2231
19.8211
22.9622
25.1125
26.8315
28.1515
29.199
30.1051
30.9402
31.7459
32.5346
33.2652
33.8455
34.1985
34.3044
34.1961
33.9351
33.5866
33.2068
32.8432
32.5517
32.4836
793.765
460.183
24.9208
24.3614
23.6353
22.633
22.0792
21.5173
18.9699
13.8177
5.7676
6.23041
6.86287
7.82391
13.8022
19.4224
22.7664
25.2366
27.1701
28.6133
29.7477
30.6853
31.4245
31.9844
32.4521
32.8883
33.2867
33.6
33.7809
33.8089
33.6897
33.4462
33.113
32.7349
32.3884
791.603
451.562
23.9397
24.2959
24.6108
24.6855
24.1255
22.5743
20.0116
16.0262
8.98717
6.15909
4.71769
7.309
8.86304
16.7235
19.8144
22.7917
25.797
28.1841
29.7663
30.9076
31.8991
32.6982
33.1833
33.378
33.3803
33.2768
33.121
32.9355
32.7174
32.4514
32.1257
31.7416
31.3487
788.624
458.232
24.4354
23.9342
23.4556
23.002
22.7716
22.5292
21.4415
18.3173
12.5771
6.93715
5.14594
4.23094
7.93395
14.2265
18.3713
19.8828
22.5897
26.0611
29.1021
30.9755
31.9986
32.81
33.6233
34.321
34.7626
34.9063
34.7848
34.4603
33.9985
33.4506
32.8551
32.2463
31.6907
789.463
453.538
24.2699
24.5301
24.6535
24.6124
24.3277
23.7559
22.8518
21.1055
17.1603
9.30429
7.27257
6.39675
5.33339
7.33357
15.2195
19.4219
20.1705
21.6152
24.3366
27.6578
30.3476
31.7168
32.3899
32.9178
33.4634
33.9917
34.3939
34.5742
34.4858
34.1412
33.5981
32.9489
32.3426
791.349
455.619
24.4121
24.1152
23.8146
23.4893
23.2106
23.0202
22.7416
21.993
20.0965
15.5978
5.69083
6.74666
4.58375
6.11787
6.16148
13.4724
20.1524
21.3723
21.898
23.0728
25.4662
28.6488
30.8636
31.8373
32.1116
32.0711
31.9537
31.8581
31.7679
31.6103
31.3515
31.0553
30.9763
789.116
456.675
24.6048
24.5183
24.4177
24.2383
23.9405
23.5489
23.1236
22.5706
21.5625
19.3772
14.4899
8.93602
7.7198
5.87426
4.71012
5.51844
11.9068
20.3354
23.1357
23.6906
23.8532
25.1132
28.0163
30.9696
32.9493
33.9233
34.0972
33.7185
33.0619
32.3525
31.7283
31.2514
31.0113
784.967
455.82
24.4025
24.0979
23.8147
23.513
23.2694
23.2057
23.1569
22.8669
22.219
20.9602
18.4223
13.2919
8.14701
7.46077
4.80069
6.13042
5.13432
12.3983
20.7428
25.4691
26.8891
26.898
27.0109
28.1113
29.9674
31.9693
33.6924
34.8483
35.3231
35.1591
34.5352
33.6143
32.2912
780.138
457.252
24.6867
24.3352
23.9974
23.5835
23.1434
22.9896
23.1524
23.2078
22.9377
22.25
20.9032
18.3341
13.4932
5.71053
5.98307
7.04296
7.31927
7.24313
8.89234
18.2354
25.0494
28.924
30.4403
30.6623
30.2153
29.694
29.4191
29.5907
30.1559
30.7771
31.0173
30.5777
28.9937
769.794
455.609
24.4812
24.0919
23.7026
23.2114
22.6388
22.3701
22.6605
23.0878
23.2971
23.1655
22.6043
21.4315
19.3047
15.756
10.3252
8.81999
6.26151
6.27135
5.78519
8.2721
14.3365
21.0803
26.7119
30.4404
32.8153
33.7944
33.7131
32.8154
31.4637
30.0588
28.9306
27.7411
25.7003
762.603
456.145
24.7062
24.2521
23.8059
23.2326
22.4618
21.8366
21.8925
22.426
23.0162
23.4478
23.6138
23.4201
22.7442
21.4032
19.2292
16.1826
12.1585
7.00292
6.11758
5.43763
6.00788
9.19354
12.5198
18.8956
23.7679
27.8321
31.2629
33.7368
35.0266
35.2732
34.2655
32.4946
30.2101
769.007
456.101
24.6754
24.1582
23.6705
23.0456
22.1316
21.1683
20.8923
21.3414
22.0883
22.8544
23.5117
23.9774
24.1753
24.0207
23.4329
22.3528
20.7582
18.6509
16.0431
12.8894
8.97353
8.72072
4.66899
8.66915
7.2411
12.9426
16.4144
20.3072
24.5607
28.176
31.2272
32.6486
33.6933
777.334
458.168
24.878
24.2383
23.6798
22.9721
21.8749
20.4987
19.7244
19.9121
20.7055
21.7322
22.7784
23.7187
24.4637
24.9505
25.1419
25.0177
24.5735
23.7957
22.6915
21.2872
19.5823
17.5626
15.35
12.9099
10.3912
8.92049
6.4498
6.08072
8.50888
12.8644
18.5476
24.903
27.9306
780.928
460.892
24.8941
24.1019
23.4672
22.6467
21.3026
19.4919
18.2612
18.2611
19.2175
20.6318
22.145
23.5517
24.7324
25.6251
26.2089
26.4878
26.4746
26.1777
25.6125
24.7946
23.7372
22.4383
20.8565
19.0763
16.5898
12.5742
6.9316
7.37124
8.29592
6.16602
6.42177
14.1905
20.213
804.912
463.351
24.8135
23.9397
23.2588
22.3126
20.6479
18.2478
16.3656
16.3378
18.0754
20.4534
22.709
24.5922
26.0489
27.11
27.8198
28.2177
28.331
28.1742
27.7581
27.0936
26.1921
25.0547
23.6451
21.9494
19.547
14.2965
9.40875
7.41027
5.09028
5.77203
4.52296
13.2468
25.5209
829.492
462.985
24.5188
23.7246
23.071
22.0628
20.1744
17.2356
14.5889
15.0359
18.6832
22.5475
25.4145
27.3733
28.6817
29.5676
30.1502
30.4827
30.5841
30.456
30.0932
29.4879
28.6309
27.5028
26.0401
24.1133
21.2634
15.3884
10.1754
7.41506
4.48799
5.85922
9.86149
20.2729
30.5714
826.84
460.518
24.3059
23.6639
23.0895
22.1706
20.4028
17.3539
14.1393
15.1667
20.8439
25.8567
28.6563
30.1356
31.0484
31.6904
32.1455
32.4292
32.5341
32.4445
32.1421
31.6051
30.8057
29.6984
28.1898
26.0792
22.9348
17.4886
9.52871
8.36418
7.81047
9.3699
17.036
24.825
31.7677
810.005
459.121
24.2905
23.6722
23.1643
22.467
21.2236
18.8595
15.2265
13.1462
17.2245
23.1923
27.2657
29.2569
30.4324
31.2953
31.9756
32.4923
32.8337
32.9796
32.9085
32.5963
32.0126
31.1133
29.8184
27.9526
25.2202
20.8453
13.0618
6.55709
7.81743
12.5677
20.5038
26.4852
31.3189
797.605
459.597
24.2734
23.5634
23.0072
22.3196
21.3609
19.8802
17.0149
11.6247
7.48236
11.4815
19.8431
25.7596
28.4296
29.9644
31.0264
31.8273
32.4253
32.8246
33.0069
32.9503
32.6231
31.9822
30.962
29.435
27.1321
23.49
17.1837
7.67996
11.2482
17.4917
22.7529
27.1015
30.7777
791.529
460.258
24.1681
23.3771
22.7397
21.8938
20.6872
19.2118
17.3877
14.8721
10.7039
4.41257
12.0084
22.9034
27.0261
28.9481
30.1477
31.0841
31.8597
32.4559
32.8502
33.0171
32.9289
32.5428
31.7955
30.588
28.7041
25.7206
20.6531
11.7009
7.44905
18.7287
24.5852
28.0324
30.7521
787.986
460.047
23.9928
23.1843
22.549
21.7274
20.5983
19.1906
17.2803
14.6622
11.5228
7.79376
6.90102
17.5755
24.9866
27.7276
29.2056
30.2666
31.1551
31.9079
32.4987
32.9009
33.0773
32.979
32.552
31.7248
30.3678
28.1775
24.5196
18.1534
8.90521
13.8207
24.0832
27.7536
29.9205
786.355
459.076
23.7362
22.9583
22.3303
21.4877
20.364
19.224
17.9558
16.1021
13.4812
9.91309
5.21163
8.21627
19.6743
25.6863
27.9091
29.2049
30.2098
31.0847
31.8467
32.4681
32.9044
33.1069
33.0272
32.6115
31.7852
30.4024
28.1094
24.1832
17.7036
12.4543
20.8782
25.1626
27.9039
786.944
456.599
23.469
22.8673
22.3632
21.6472
20.5834
19.3944
18.3374
17.0588
15.2713
12.8115
9.35955
7.83626
10.1139
21.1573
26.0742
27.9989
29.1774
30.1367
31.0004
31.7666
32.3955
32.8368
33.0413
32.9627
32.5484
31.7159
30.2822
27.8032
23.4887
17.5114
18.4431
22.8512
26.5704
787.631
453.92
23.3386
22.8899
22.4955
21.9479
21.1166
20.038
19.0485
18.1137
16.8436
15.0592
12.5739
8.6758
5.11786
10.1467
21.246
25.8744
27.7704
28.9608
29.9358
30.8088
31.5752
32.195
32.6165
32.7868
32.652
32.1418
31.1177
29.246
25.9316
21.048
19.0772
22.5966
26.2753
785.673
452.661
23.3233
22.8736
22.467
21.9648
21.3403
20.5257
19.6209
18.9022
18.1063
16.8878
15.102
12.4675
8.13855
6.76368
11.5056
22.4264
26.1337
27.7602
28.8664
29.8167
30.6613
31.3744
31.9193
32.2552
32.3281
32.0611
31.3269
29.8733
27.2872
23.6266
21.647
23.5669
26.1681
781.717
453.551
23.4115
22.7417
22.1441
21.5003
21.0556
20.7499
20.1703
19.57
19.0249
18.2384
16.9903
15.152
12.3262
7.40361
6.87225
14.1973
23.5862
26.406
27.7437
28.7631
29.6982
30.5238
31.1648
31.5769
31.7417
31.6221
31.13
30.1062
28.3581
26.0738
24.736
25.2579
26.4722
778.586
456.699
23.5331
22.4492
21.4655
20.4335
20.181
20.5848
20.6539
20.3577
19.989
19.4486
18.5717
17.2269
15.2568
12.1505
7.04739
9.03141
16.5085
24.3198
26.6123
27.6983
28.597
29.495
30.3241
30.9282
31.203
31.1331
30.7142
29.9114
28.72
27.3777
26.5366
26.4282
26.727
776.336
460.102
23.4675
21.9584
20.4972
19.0065
19.2926
20.5691
21.2423
21.3432
21.1628
20.7591
20.0891
19.0696
17.5752
15.3957
11.9184
6.58526
9.11548
18.4443
24.8027
26.8116
27.651
28.3561
29.132
29.9371
30.5641
30.7896
30.5454
29.8807
28.9155
27.9145
27.2113
26.8594
26.7527
775.322
460.625
23.0743
21.3527
19.5055
17.7183
18.7886
20.8766
21.9589
22.4081
22.4786
22.2632
21.7829
21.0146
19.8791
18.2424
15.833
11.9217
5.84163
8.78174
19.1862
25.5728
27.8201
28.3552
28.6027
28.9361
29.4424
29.9867
30.2502
30.0371
29.4253
28.6465
27.9386
27.3886
26.9521
774.238
457.71
22.6962
21.1466
19.2817
17.1639
18.101
20.769
22.3188
23.1714
23.6026
23.704
23.5186
23.0574
22.294
21.1635
19.5244
17.1259
13.3297
7.30906
6.54104
15.7893
23.9128
28.3122
29.6117
29.6361
29.3449
29.156
29.2337
29.3973
29.3619
29.0751
28.6376
28.1137
27.4106
772.441
454.587
22.724
21.5177
19.9696
17.4647
16.4979
19.4079
21.8164
23.2699
24.1764
24.7121
24.9343
24.871
24.5279
23.89
22.9116
21.4766
19.3998
16.2734
11.4315
6.23101
10.2395
18.4637
25.2629
29.2956
30.4476
30.1608
29.4426
28.8409
28.5173
28.3303
28.0965
27.704
26.946
769.72
453.689
22.8847
21.795
20.488
18.1908
15.322
17.1344
20.6151
22.8258
24.2259
25.1718
25.7958
26.1372
26.213
26.0294
25.5723
24.8154
23.6935
22.064
19.7104
16.2527
11.4498
7.63638
11.1932
18.7344
25.1902
29.0599
30.0751
29.5879
28.719
27.9356
27.3125
26.7739
26.0592
768.335
454.204
22.8312
21.6782
20.3874
18.2691
15.2289
15.1511
19.4014
22.4027
24.2266
25.4557
26.3455
26.9758
27.3702
27.5344
27.4687
27.1686
26.6135
25.7612
24.5342
22.7742
20.2605
16.7034
12.0906
8.91153
12.1404
19.0168
25.2426
28.5619
29.1208
28.5663
27.8463
27.1446
26.3001
768.918
454.149
22.7269
21.6206
20.3825
18.2778
15.1082
13.4483
17.8519
21.8411
24.1921
25.7139
26.7993
27.6156
28.216
28.6158
28.8176
28.8188
28.6138
28.1892
27.5157
26.5311
25.1372
23.1521
20.353
16.5004
11.7825
9.34023
13.9975
21.3752
26.709
28.668
28.7878
28.3101
27.4531
771.465
453.267
22.695
21.7363
20.7123
18.947
15.6887
11.6488
13.9296
19.987
23.4983
25.5533
26.9278
27.9501
28.7398
29.3388
29.7602
30.0047
30.0672
29.9389
29.6077
29.0505
28.2251
27.0506
25.4063
23.096
19.8833
15.6258
11.3737
11.9663
18.1226
24.4666
26.9632
27.7039
27.6845
775.189
453.021
22.6411
21.6685
20.7256
19.278
16.7321
12.2758
8.40262
16.3594
21.8088
24.7317
26.5405
27.8102
28.7903
29.5714
30.1902
30.6536
30.956
31.0897
31.0443
30.8048
30.35
29.6472
28.6436
27.2381
25.2774
22.5707
18.9737
14.8609
12.5999
15.2869
22.6473
25.5932
27.036
780.319
453.73
22.5229
21.3446
20.2124
18.6311
16.5813
13.597
8.43436
11.5086
19.6811
23.5499
25.7674
27.2575
28.3741
29.2982
30.0902
30.7431
31.2462
31.5899
31.7711
31.7846
31.6139
31.2349
30.6158
29.7101
28.4445
26.6895
24.2901
21.1661
17.3848
13.2572
16.9339
22.6073
26.0631
784.27
454.591
22.3796
20.983
19.582
17.6247
15.5105
13.3604
11.0253
9.95904
17.8218
22.449
25.0303
26.697
27.9162
28.922
29.8032
30.5678
31.2023
31.6949
32.0378
32.2308
32.2655
32.1185
31.7618
31.1611
30.2688
29.0191
27.329
25.0923
22.198
18.0884
14.4984
20.4957
25.539
786.867
455.07
22.1999
20.6269
19.0082
16.7919
14.6368
12.3798
10.1717
10.9561
16.5695
21.7103
24.5398
26.2899
27.5484
28.5775
29.4869
30.3033
31.0099
31.5929
32.047
32.3734
32.5626
32.5909
32.4309
32.0519
31.4162
30.4787
29.1949
27.5296
25.358
22.2103
17.4264
19.9394
25.1373
787.391
455.141
21.9773
20.2855
18.4974
16.017
13.9537
12.3476
10.0699
8.28291
13.318
20.1217
23.6367
25.65
27.0221
28.1045
29.0433
29.8894
30.6406
31.2838
31.8215
32.2553
32.5717
32.7488
32.7605
32.5779
32.169
31.5012
30.5488
29.3052
27.7365
25.5343
21.7501
21.816
25.9639
788.643
453.9
21.739
20.1767
18.4701
15.8255
13.0911
11.5
10.3403
8.42585
9.26341
17.3751
22.2516
24.8092
26.3932
27.5547
28.5272
29.3942
30.1705
30.8522
31.4449
31.9481
32.3527
32.6409
32.7872
32.7613
32.5313
32.0679
31.351
30.3707
29.0817
27.1872
23.9615
23.8284
27.3487
791.123
452.003
21.765
20.5469
19.2473
17.0728
13.8986
10.993
8.96233
7.72814
7.76337
13.6244
20.382
23.8226
25.7149
26.9743
27.9764
28.8612
29.6576
30.3556
30.9662
31.5014
31.9566
32.3173
32.5619
32.6626
32.587
32.3033
31.7825
30.9818
29.7748
27.8131
25.1899
25.655
28.6929
792.669
451.085
21.8839
20.8219
19.7755
18.1051
15.2492
11.996
9.3486
6.62117
7.46506
8.30258
17.536
22.4177
24.8909
26.3553
27.4254
28.347
29.1676
29.8787
30.4874
31.017
31.4754
31.8471
32.1119
32.2472
32.2269
32.0213
31.5929
30.8685
29.6952
27.9349
26.4042
27.0799
29.1077
788.937
451.314
21.9185
20.7849
19.7256
18.1877
15.5724
11.8714
8.75119
7.02681
5.89835
6.51422
14.8933
21.3238
24.3463
25.9404
27.0401
27.9765
28.8055
29.5203
30.1269
30.6503
31.0984
31.4487
31.6834
31.7902
31.7533
31.5415
31.1039
30.3775
29.3218
28.1067
27.4733
27.9125
28.8991
782.687
452.988
21.889
20.4295
19.0666
17.2318
14.7525
11.2783
7.56632
6.61237
4.41812
7.06113
14.208
21.001
24.1764
25.7588
26.8346
27.7583
28.5793
29.2884
29.8917
30.4101
30.8391
31.1475
31.3204
31.3607
31.2828
31.0798
30.6826
30.0004
29.0538
28.1397
27.7232
27.7887
28.0591
777.105
455.234
21.6246
19.69
17.7414
14.9592
11.7
8.39473
6.25371
5.53081
6.67616
9.77191
16.0884
21.8665
24.5326
25.8729
26.8426
27.7154
28.5018
29.1901
29.802
30.3472
30.781
31.0632
31.1738
31.115
30.922
30.6621
30.3731
29.9979
29.4802
28.9481
28.5982
28.3902
28.1486
775.376
455.697
21.2195
19.0221
16.6237
12.9455
8.59489
5.41285
5.81481
5.06123
7.5459
12.2936
18.3839
22.8965
24.9066
26.0131
26.8721
27.6653
28.3953
29.0791
29.7314
30.3208
30.8017
31.1341
31.2878
31.2411
30.986
30.5496
30.0138
29.4826
29.0062
28.6041
28.2818
27.9833
27.6085
775.224
454.164
20.785
18.6549
16.1392
11.9435
6.63035
5.63611
4.42608
6.06584
8.36672
14.7644
20.4698
23.7628
25.1903
26.0927
26.855
27.5759
28.2749
28.9597
29.6181
30.218
30.7224
31.104
31.3481
31.4445
31.3801
31.1375
30.7087
30.138
29.5301
28.9931
28.567
28.2354
28.0194
778.427
451.427
20.6196
18.9093
16.8819
13.3575
8.15854
6.46426
5.12546
6.13163
6.95361
14.5949
20.8072
23.9087
25.1688
25.984
26.6945
27.3933
28.1068
28.839
29.5721
30.2589
30.8319
31.2307
31.4288
31.4337
31.2737
30.9957
30.6555
30.286
29.8934
29.4999
29.1307
28.7899
28.4727
778.293
449.406
20.685
19.3825
17.934
15.3091
10.7826
5.0178
5.24041
6.21154
6.37534
10.7407
19.0694
23.2484
24.6761
25.5245
26.2315
26.9165
27.6112