/*--------------------------------*- C++ -*----------------------------------*\
| =========                 |                                                 |
| \\      /  F ield         | OpenFOAM: The Open Source CFD Toolbox           |
|  \\    /   O peration     | Version:  v2006                                 |
|   \\  /    A nd           | Website:  www.openfoam.com                      |
|    \\/     M anipulation  |                                                 |
\*---------------------------------------------------------------------------*/
FoamFile
{
    version     2.0;
    format      ascii;
    class       volScalarField;
    location    "95";
    object      k;
}
// * * * * * * * * * * * * * * * * * * * * * * * * * * * * * * * * * * * * * //

dimensions      [0 2 -2 0 0 0 0];


internalField   nonuniform List<scalar> 
78750
(
0.776327
0.226632
0.0958418
0.0137849
0.00388632
0.00456162
0.00225526
0.00337637
0.00299706
0.00308094
0.00309407
0.00309467
0.00310255
0.00310655
0.00310932
0.00311054
0.00311028
0.00310851
0.00310532
0.00310067
0.00309432
0.00308584
0.00307473
0.00306027
0.00304162
0.00301782
0.00298767
0.00294963
0.00290148
0.00283957
0.00275746
0.00264455
0.0024808
0.00214325
0.000618124
0.00928454
0.00912471
0.000768616
0.000706211
0.00271216
0.00250386
0.00283769
0.00288017
0.00296989
0.00303263
0.00308197
0.00312251
0.00315474
0.00318025
0.0032
0.00321484
0.00322552
0.00323257
0.00323642
0.00323752
0.00323627
0.00323305
0.00322821
0.00322199
0.00321443
0.00320542
0.00319475
0.00318211
0.00316719
0.00314986
0.00312878
0.00309591
0.00301501
0.00270103
0.00119109
0.00030113
0.00208228
0.00243836
0.0024679
0.00242823
0.00253105
0.00262063
0.00270833
0.00278852
0.00286328
0.00293139
0.00299105
0.00304149
0.00308269
0.00311491
0.0031385
0.00315386
0.00316141
0.00316162
0.00315497
0.00314197
0.00312317
0.0030992
0.00307059
0.0030378
0.00300109
0.00296046
0.0029155
0.00286517
0.00280719
0.0027365
0.002641
0.00248538
0.00216174
0.00129372
0.00037177
0.00129047
0.00169236
0.00195383
0.00216687
0.00235126
0.00251531
0.00266248
0.00279562
0.00291617
0.00302478
0.00312185
0.00320753
0.00328181
0.0033446
0.0033958
0.00343541
0.00346347
0.00348012
0.00348569
0.0034807
0.00346589
0.00344219
0.00341076
0.00337281
0.00332928
0.00328044
0.00322563
0.00316299
0.00308853
0.00299367
0.00285765
0.00262771
0.00222816
0.00177095
0.000552947
0.00190381
0.00238041
0.00265189
0.00285311
0.00302148
0.00316552
0.00328847
0.00339325
0.00348241
0.00355805
0.00362171
0.00367438
0.0037166
0.0037486
0.00377036
0.00378178
0.00378276
0.00377328
0.00375349
0.00372375
0.00368466
0.00363705
0.003582
0.00352078
0.00345487
0.0033842
0.00330615
0.00321779
0.00311548
0.00299122
0.00282581
0.00257808
0.00223139
0.00211228
0.000550151
0.00184399
0.00230513
0.00261913
0.00289231
0.00313022
0.00333727
0.00351741
0.00367409
0.00381014
0.00392775
0.00402849
0.00411341
0.00418314
0.00423798
0.0042781
0.00430351
0.00431424
0.00431034
0.00429209
0.00425991
0.00421445
0.00415662
0.0040877
0.00400936
0.00392374
0.00383348
0.00373611
0.00362333
0.00348667
0.00331443
0.00307854
0.00272916
0.00233567
0.00254717
0.00075949
0.00198674
0.00245266
0.00277829
0.00305313
0.00328936
0.00349506
0.00367597
0.00383626
0.00397878
0.00410558
0.0042181
0.00431685
0.00440179
0.0044726
0.00452875
0.00456969
0.00459495
0.00460416
0.00459728
0.00457446
0.00453612
0.00448295
0.00441603
0.00433694
0.0042479
0.00415183
0.00404625
0.00392056
0.00376136
0.00355205
0.00326475
0.00287211
0.00253172
0.00303531
0.000743426
0.00210062
0.00257806
0.00289854
0.00317836
0.00342781
0.00365235
0.00385529
0.00403889
0.00420472
0.00435379
0.00448656
0.0046029
0.00470311
0.00478672
0.00485322
0.00490216
0.00493333
0.00494673
0.00494283
0.00492233
0.00488614
0.00483528
0.00477093
0.00469447
0.00460769
0.00451308
0.00440594
0.00427338
0.00410019
0.00386002
0.00350664
0.00303287
0.00275277
0.00355008
0.000820421
0.00204826
0.00247953
0.00277756
0.00305251
0.00331102
0.00355443
0.00378243
0.00399438
0.00418968
0.00436774
0.00452796
0.00466962
0.0047919
0.00489373
0.00497522
0.005036
0.00507596
0.00509531
0.00509494
0.0050762
0.00504088
0.00499117
0.00492956
0.00485871
0.00478151
0.00469739
0.00460039
0.0044816
0.00432769
0.00410845
0.00375376
0.00322
0.00298524
0.0041005
0.000842632
0.00203761
0.00244508
0.00271543
0.0029671
0.00321217
0.00344997
0.0036788
0.00389881
0.00410782
0.00430343
0.00448303
0.00464426
0.00478516
0.0049042
0.00499993
0.00507255
0.00512223
0.00514925
0.00515449
0.00513923
0.00510523
0.00505487
0.00499119
0.004918
0.00483819
0.00474973
0.00464795
0.00452826
0.00438145
0.00418522
0.00388014
0.00339905
0.00327369
0.0047063
0.000740598
0.00167917
0.00198514
0.00217945
0.00238789
0.00263227
0.00289729
0.00316333
0.00342064
0.00367203
0.00391849
0.00415178
0.00436447
0.00455181
0.00471098
0.00484075
0.00494115
0.00501303
0.00505761
0.00507759
0.00507492
0.00505162
0.00501
0.00495306
0.00488478
0.00480611
0.00471442
0.00460623
0.00447516
0.00430921
0.0040857
0.00378001
0.00347598
0.00369288
0.0053952
0.000741536
0.00128935
0.00132713
0.00130518
0.00134168
0.00147925
0.00171463
0.00201954
0.0023603
0.00271215
0.00306234
0.00340138
0.00372011
0.00400949
0.00426235
0.0044742
0.00464361
0.00477175
0.00486125
0.00491577
0.00493924
0.00493553
0.00490918
0.00486439
0.00480407
0.00472926
0.00463919
0.00453099
0.00439891
0.00423457
0.0040286
0.00378185
0.0036304
0.00403705
0.00573502
0.000734075
0.000826818
0.000606781
0.000383018
0.000208048
0.000120343
0.000154416
0.000312613
0.000580016
0.000913422
0.001303
0.00173954
0.00220597
0.00268623
0.00313612
0.00353556
0.0038772
0.00415605
0.00437136
0.00452746
0.00463062
0.00468787
0.00470606
0.00469111
0.00464764
0.00457789
0.00448126
0.00435325
0.00418405
0.0039625
0.00370953
0.00357535
0.00383495
0.00448873
0.00616671
0.00034636
0.00017509
8.38869e-05
0.000181434
8.76184e-05
0.000230967
0.000111607
0.00024798
5.65491e-05
0.000190582
9.00314e-06
0.000124725
0.000300577
0.000395776
0.000910241
0.00146881
0.00204254
0.00261154
0.00312177
0.00355032
0.00388958
0.00413886
0.00430591
0.00440303
0.00444296
0.00443519
0.00438474
0.00429073
0.00414345
0.00392495
0.0036402
0.00347029
0.00382778
0.00452789
0.00607338
0.000290484
0.000251439
2.49023e-05
5.62152e-05
0.000191762
0.000280871
7.48233e-05
0.000291401
0.000184967
0.000104489
0.000216561
0.000103933
1.8248e-05
0.000152229
2.07545e-05
0.000137088
0.000194132
0.00060947
0.00108998
0.00162625
0.00219832
0.0027587
0.00324226
0.00360542
0.00384299
0.00397235
0.00401491
0.00398556
0.00388843
0.0037122
0.00345975
0.00331848
0.00375817
0.0044784
0.00591745
0.000377257
0.0011086
0.00130471
0.00122996
0.0010208
0.000887326
0.000792296
0.000607065
0.000500827
0.000538923
0.000316345
0.000423463
0.000545154
0.000841547
0.00102445
0.0010563
0.001033
0.000911171
0.000796295
0.000755404
0.000847456
0.00111698
0.00157602
0.00217306
0.00278353
0.00326227
0.0035585
0.0037065
0.00374191
0.00367671
0.00350284
0.00330745
0.00357881
0.00424028
0.00560262
0.000548035
0.00199159
0.00294056
0.00354979
0.00394339
0.00408566
0.00399412
0.00375599
0.00338722
0.00291523
0.00253285
0.00223556
0.00223047
0.00246477
0.00286009
0.00322756
0.00337681
0.0032929
0.00300503
0.00256251
0.00203727
0.00152324
0.00114032
0.00103232
0.00130183
0.00187834
0.00249924
0.00293916
0.00317651
0.00327881
0.00328994
0.00326189
0.00344743
0.00390451
0.00502623
0.00126718
0.00348002
0.00451486
0.00493513
0.00507001
0.00507476
0.00499181
0.00480908
0.00452056
0.00412896
0.00363667
0.0031169
0.00267616
0.0024909
0.00255525
0.00276166
0.00307924
0.00346555
0.00379492
0.00394537
0.00384243
0.00345523
0.00282342
0.00208112
0.00147786
0.00133126
0.00173148
0.00237261
0.00288776
0.00314928
0.0032157
0.00316971
0.00326666
0.00376251
0.0052192
0.00266866
0.00421078
0.00453623
0.00455343
0.00451352
0.00444035
0.00428885
0.00398361
0.0034716
0.00285152
0.00238256
0.00224142
0.00235059
0.00252303
0.00268899
0.00283415
0.00295932
0.0030777
0.00320639
0.00335331
0.00350274
0.00363833
0.00367205
0.00336439
0.00266187
0.00184245
0.00141501
0.00164427
0.00220879
0.00276866
0.00315593
0.00334311
0.00351751
0.00393642
0.00516067
0.00412962
0.00434282
0.00425225
0.00422851
0.00425924
0.00430703
0.00431697
0.00423682
0.00405446
0.00383994
0.00370103
0.0036411
0.00361714
0.00361039
0.00361298
0.00362057
0.00363141
0.00364209
0.00364818
0.00364661
0.00363729
0.00362052
0.00359309
0.00352653
0.00327782
0.00270464
0.00200489
0.00168914
0.00189684
0.00226857
0.00265462
0.00301897
0.00337801
0.00387644
0.00514128
0.00406522
0.00423841
0.00438439
0.00449422
0.00456121
0.00456608
0.00450485
0.00439009
0.00424365
0.00408761
0.00393967
0.00382669
0.00375881
0.00371702
0.00368499
0.00365692
0.00363387
0.00361906
0.00361523
0.00361917
0.00362398
0.00362091
0.00359704
0.00353033
0.00337414
0.00302956
0.00244474
0.00190831
0.00193072
0.00235226
0.00266799
0.00291787
0.00331211
0.00389711
0.00526997
0.00353869
0.00419799
0.00447446
0.00462963
0.00474198
0.00482776
0.00487965
0.00487078
0.00477117
0.00457219
0.00430364
0.00403919
0.00384807
0.00373676
0.00366997
0.00362229
0.00359009
0.00357879
0.00359045
0.00361547
0.00364168
0.00366172
0.00367065
0.00366286
0.00361901
0.00347626
0.00310128
0.0024464
0.00190683
0.00206962
0.00264157
0.00303434
0.003508
0.00415663
0.00534247
0.00353736
0.00394782
0.00415226
0.00427983
0.00439182
0.00451361
0.00465116
0.00477926
0.00485927
0.00486549
0.00478477
0.00461556
0.00438309
0.00413081
0.00389176
0.00367721
0.00348483
0.00333304
0.00325323
0.00325006
0.00329908
0.00337792
0.00347078
0.00356609
0.00365051
0.003689
0.00359772
0.00324105
0.00260355
0.00214401
0.00242883
0.0031107
0.00365525
0.00410757
0.00474127
0.0039344
0.00429107
0.00441377
0.00446235
0.00449049
0.00453163
0.00461098
0.00469879
0.00475604
0.00476954
0.00474114
0.00467151
0.00455123
0.00437026
0.00413733
0.00387618
0.00362604
0.00345684
0.00339903
0.00338558
0.00336249
0.00327853
0.00308703
0.00280585
0.00264263
0.00276188
0.00293891
0.00304199
0.0029466
0.00260827
0.00234669
0.00261607
0.00316981
0.00366331
0.00448328
0.00459028
0.00470788
0.00464683
0.00457398
0.00449623
0.00447342
0.00455141
0.00465226
0.00470776
0.00472386
0.00471454
0.00468321
0.00462495
0.00453071
0.00438964
0.00419346
0.00392468
0.0035449
0.00302413
0.00257893
0.00250191
0.00264483
0.00286646
0.0031404
0.0033496
0.00338778
0.00329152
0.0032083
0.00320921
0.0031825
0.00298737
0.00287285
0.00321942
0.00378137
0.00496907
0.00481081
0.00451244
0.00435226
0.00422044
0.00409029
0.00405197
0.00414591
0.00427734
0.00436585
0.00440546
0.00440982
0.00438903
0.00435369
0.00431565
0.00427915
0.00423821
0.00418306
0.0040958
0.00395351
0.00372691
0.00334519
0.00269972
0.00205775
0.00192111
0.0021026
0.00240414
0.00263657
0.0026125
0.00239958
0.00233174
0.00256237
0.00299619
0.00358175
0.00413863
0.00509144
0.00458155
0.00449728
0.00441672
0.00429689
0.00413051
0.00404306
0.00410603
0.00421935
0.00431354
0.00437546
0.00440675
0.00440901
0.00438336
0.00433291
0.00426349
0.00418134
0.00408961
0.003987
0.00387019
0.00373593
0.00358351
0.00339894
0.0031049
0.00259094
0.00207807
0.00197712
0.00226272
0.00268973
0.00291047
0.00276418
0.00260585
0.00289044
0.00339505
0.00375511
0.0041849
0.00432115
0.00462943
0.00462341
0.00450082
0.00425569
0.00399793
0.00393059
0.00401325
0.0041244
0.00422031
0.00429466
0.00434674
0.00437562
0.00437986
0.00435782
0.00430841
0.00423077
0.00412308
0.00398129
0.0038011
0.003576
0.00329603
0.00295084
0.00249841
0.00180858
0.000794397
0.000100782
0.000695935
0.00144951
0.00245751
0.00270914
0.00264099
0.00282458
0.00301796
0.00327376
0.00437709
0.00481131
0.00484046
0.00474139
0.00452543
0.004183
0.00390116
0.0038585
0.00396914
0.00411166
0.00423814
0.00433973
0.00441614
0.00446737
0.00449285
0.00449123
0.00446033
0.00439753
0.00430024
0.00416551
0.00398855
0.00376027
0.00346385
0.0030711
0.00255917
0.00189832
0.00100884
0.000125871
0.000207238
0.000755673
0.0019319
0.00270172
0.00270062
0.00272053
0.00297127
0.00449416
0.00476384
0.00481792
0.00478378
0.00467329
0.00445709
0.00413981
0.00387571
0.0037964
0.00387582
0.00402583
0.00418481
0.00433002
0.00445572
0.00455998
0.00464339
0.00470493
0.00474123
0.00474949
0.00472755
0.00467335
0.00458417
0.00445424
0.00427133
0.00401373
0.00364755
0.00314593
0.00246828
0.00141754
5.63607e-05
0.000210984
0.00136097
0.00238611
0.002588
0.00298877
0.00400271
0.00468612
0.00492522
0.00500616
0.00500742
0.00491912
0.00470371
0.00434741
0.00396669
0.00373162
0.00370223
0.0038038
0.00394511
0.0040853
0.00421249
0.00432245
0.00441449
0.00448757
0.0045381
0.00456284
0.00455924
0.00452522
0.00445896
0.00435827
0.00421886
0.00402645
0.00374046
0.00329387
0.00260152
0.00152593
0.000210466
8.77362e-05
0.00146797
0.00228117
0.00329599
0.00363801
0.00473619
0.00513289
0.00530532
0.00538985
0.005401
0.00531099
0.00505547
0.00459442
0.00405524
0.00369467
0.00363179
0.0037486
0.00390542
0.00405333
0.00418447
0.00429663
0.00438956
0.0044635
0.00451704
0.00454744
0.00455251
0.00453049
0.00448011
0.00440036
0.00428989
0.00414378
0.00394185
0.00363472
0.00314187
0.002342
0.00132246
0.00103082
0.00171653
0.00273469
0.00394962
0.00463817
0.00494983
0.00512103
0.00523518
0.00530592
0.00532203
0.00524722
0.00499338
0.00447972
0.00386201
0.00350044
0.00351953
0.00371256
0.00391461
0.00409204
0.00424571
0.00437975
0.00449468
0.004587
0.0046545
0.00469582
0.00471087
0.00469944
0.0046611
0.00459572
0.00450412
0.00438533
0.00422896
0.00400359
0.00363451
0.00300553
0.00217144
0.00186684
0.00220719
0.00445116
0.00490827
0.00511476
0.00522115
0.00527859
0.0052904
0.00525481
0.0051769
0.00505441
0.00481475
0.0043376
0.00374679
0.00343334
0.00348684
0.00367713
0.00387076
0.00404519
0.00420374
0.00434837
0.00447466
0.00457759
0.00465461
0.00470464
0.0047272
0.00472244
0.00469141
0.00463496
0.0045543
0.00445206
0.00432049
0.00411633
0.00370921
0.00291811
0.00224178
0.00228389
0.00462355
0.00506248
0.0052799
0.00539817
0.00546165
0.0054615
0.00537462
0.0051862
0.00493933
0.00471448
0.0044891
0.00415254
0.00377507
0.00363692
0.00372573
0.00387058
0.00401142
0.00414801
0.00428141
0.00440327
0.00450669
0.00458751
0.00464344
0.00467351
0.00467754
0.00465585
0.00460909
0.00453903
0.00444834
0.00432858
0.00413425
0.00373752
0.0029973
0.00236218
0.00248154
0.00464659
0.00492244
0.00510956
0.00524342
0.00534952
0.0054155
0.00541084
0.00529161
0.00502164
0.00465045
0.00429404
0.00398061
0.00368619
0.00351915
0.00358238
0.00373852
0.00389005
0.00403127
0.0041679
0.00429398
0.00440208
0.00448772
0.00454853
0.00458358
0.00459287
0.00457704
0.0045373
0.00447544
0.00439401
0.00427907
0.00407877
0.00369038
0.00302534
0.00242198
0.00245073
0.00470551
0.00497829
0.00512458
0.00521962
0.00529339
0.00533967
0.00534167
0.00528153
0.00513923
0.00488692
0.00453571
0.00414693
0.00375791
0.0034233
0.00330834
0.00342426
0.0036025
0.00376667
0.00391627
0.0040564
0.00418074
0.00428342
0.00436127
0.00441307
0.00443887
0.0044396
0.00441689
0.00437309
0.00430841
0.00420899
0.00403275
0.00370038
0.00313811
0.00256734
0.00238353
0.00443661
0.00500188
0.00523386
0.00536777
0.00547069
0.0055446
0.00556838
0.00551639
0.00537706
0.00515127
0.00484855
0.00450524
0.00415986
0.00381511
0.00351174
0.00339214
0.00346215
0.00359643
0.00373309
0.00386559
0.00399034
0.00409808
0.00418342
0.00424385
0.00427888
0.00428935
0.00427703
0.00424447
0.00418991
0.00409845
0.0039346
0.0036358
0.00315618
0.00267063
0.00242031
0.00451132
0.00490124
0.00505708
0.00515419
0.00524551
0.00534439
0.00543475
0.00548421
0.00546463
0.00535491
0.00513958
0.00483286
0.00449488
0.00417143
0.00385811
0.00357706
0.00343727
0.00345612
0.00354007
0.00364831
0.00376892
0.00388476
0.00398441
0.00406138
0.0041128
0.00413829
0.00413911
0.00411768
0.00407294
0.00399035
0.00383406
0.00354878
0.00311105
0.00270792
0.00250036
0.00521946
0.00523057
0.00522329
0.00523163
0.00525811
0.00529584
0.00530959
0.00527665
0.00520406
0.00510166
0.004964
0.00477221
0.00451721
0.00422361
0.00391914
0.00361377
0.00335997
0.00327048
0.00332543
0.00343164
0.00355607
0.00368436
0.00380006
0.00389367
0.00396073
0.00400013
0.00401278
0.00400091
0.00396253
0.00388035
0.00371845
0.0034295
0.0030145
0.00268451
0.00252991
0.00527926
0.00507973
0.00504115
0.0050561
0.00512814
0.00525513
0.00536532
0.00539566
0.00533808
0.00520785
0.00502449
0.00480909
0.00457823
0.00434008
0.00409527
0.00383768
0.00357318
0.00336779
0.003298
0.00332477
0.00340025
0.00350572
0.00361917
0.00372351
0.00380788
0.00386674
0.00389822
0.00390302
0.0038781
0.00380644
0.00365172
0.00336563
0.00295689
0.00265006
0.00247836
0.00519998
0.00488356
0.00479683
0.00476756
0.00478447
0.00486327
0.00497452
0.00506818
0.00511543
0.00510881
0.00504595
0.00492563
0.0047555
0.004554
0.00433705
0.00410674
0.00385418
0.00358406
0.00335959
0.00326157
0.00327133
0.00333412
0.00342326
0.00352337
0.00361774
0.00369479
0.00374877
0.00377817
0.00377884
0.00373619
0.00361659
0.00336507
0.00297515
0.00266277
0.00243721
0.00496585
0.00484634
0.00482266
0.0048137
0.00481586
0.00483377
0.00486593
0.00489782
0.00490767
0.00488316
0.00482461
0.00473684
0.00462231
0.00448029
0.00430875
0.0041039
0.00385928
0.00357878
0.00331376
0.00315789
0.00312264
0.00315608
0.00322976
0.00333057
0.00344009
0.00353909
0.00361723
0.00367104
0.00369666
0.00368217
0.00359653
0.00338381
0.00302536
0.00271887
0.00247295
0.00423905
0.00464161
0.00475672
0.00477964
0.00475487
0.0046998
0.00466107
0.00468843
0.00477956
0.00488272
0.0049443
0.00493846
0.00486593
0.00474
0.00457551
0.00438149
0.00415556
0.00388604
0.00356925
0.00325841
0.00305674
0.00298558
0.00299798
0.0030625
0.00316448
0.00328416
0.0033978
0.0034905
0.00355573
0.00358527
0.00355346
0.00340359
0.00309902
0.00281929
0.00261933
0.0043307
0.00499178
0.00518831
0.00524663
0.0052306
0.00512723
0.0049197
0.00466277
0.00447261
0.00442111
0.00447343
0.00454315
0.00457501
0.00455466
0.00448188
0.00435648
0.00417467
0.00392738
0.00360814
0.00325389
0.00297668
0.00284108
0.00280528
0.00283077
0.00290949
0.00303525
0.00318195
0.00331708
0.00342219
0.00348662
0.00349014
0.00338577
0.00314808
0.00294137
0.00290365
0.00414926
0.00496978
0.0052522
0.00537017
0.00543027
0.00544868
0.00540054
0.005229
0.00494096
0.00467452
0.00455987
0.00457036
0.0046037
0.00459929
0.00454398
0.00444049
0.00429015
0.00408644
0.00381379
0.00346125
0.00307521
0.00278079
0.00263479
0.00259149
0.00261776
0.00271409
0.00287817
0.00307157
0.00324212
0.00335598
0.00339354
0.00332746
0.00316241
0.00305175
0.00321722
0.00479419
0.00537196
0.00551869
0.00554905
0.0055345
0.00549344
0.00544096
0.00534277
0.00511438
0.00476601
0.00448136
0.00439378
0.00442651
0.00446065
0.00444909
0.00438951
0.00428303
0.00412459
0.00390282
0.0036035
0.00323423
0.00286211
0.00259108
0.00245009
0.0024053
0.00244186
0.00257979
0.00281513
0.00306751
0.00324331
0.00330273
0.00325163
0.00314135
0.00310388
0.00341779
0.00561447
0.00564863
0.00557255
0.00549393
0.00540557
0.00533291
0.00532937
0.00536584
0.00532307
0.00512133
0.0048283
0.00462466
0.00455331
0.00452756
0.00448905
0.00442472
0.00432693
0.00418565
0.00399764
0.00375942
0.00346223
0.00311747
0.00277886
0.00250774
0.00233606
0.00226425
0.00230341
0.00248828
0.00278921
0.00306489
0.00319421
0.00317419
0.00309599
0.00308087
0.00341244
0.00662022
0.00589522
0.00558872
0.005386
0.00518936
0.00505321
0.00500584
0.00500252
0.00498274
0.00490367
0.00478245
0.00468676
0.00464195
0.00460968
0.00456522
0.00450043
0.00440742
0.00427841
0.00411095
0.0039062
0.00366442
0.00338485
0.00307937
0.00277774
0.00251199
0.0023101
0.00220032
0.0022262
0.00242676
0.00273687
0.00298008
0.00305043
0.00301667
0.00300467
0.00324662
0.0069189
0.00569927
0.00530772
0.00505666
0.00484687
0.004858
0.00499943
0.00507716
0.00506989
0.00500663
0.00492001
0.00484337
0.00478737
0.00473781
0.00468165
0.00461082
0.00451949
0.00440323
0.00425907
0.00408525
0.00388125
0.0036486
0.00339261
0.00312268
0.00285044
0.00258989
0.00236237
0.00220691
0.00218611
0.00234727
0.00261432
0.00280598
0.00286084
0.0028755
0.00302173
0.00645364
0.00543431
0.00509459
0.00481654
0.00450873
0.00439889
0.00452742
0.00469267
0.00481136
0.00487724
0.00490024
0.00489415
0.0048716
0.00483647
0.00478854
0.00472568
0.00464517
0.00454422
0.00442069
0.00427345
0.00410222
0.00390788
0.00369269
0.00346019
0.00321445
0.00295968
0.00270144
0.00245409
0.00225498
0.00217833
0.00228604
0.00249597
0.00264133
0.0027079
0.00282151
0.00593267
0.00539838
0.00519566
0.00499367
0.00468983
0.00439373
0.00435321
0.0044831
0.00462443
0.00472854
0.00479558
0.0048332
0.00484753
0.0048423
0.00481947
0.00477946
0.00472162
0.00464476
0.0045476
0.00442936
0.00428974
0.00412911
0.00394855
0.00374966
0.00353426
0.00330388
0.00305943
0.00280147
0.00253841
0.00230646
0.00219706
0.00228093
0.00244353
0.00255205
0.00268623
0.00565249
0.00538621
0.00526383
0.00511432
0.00483776
0.00437662
0.00400904
0.00399934
0.00418588
0.00438307
0.00453524
0.00464208
0.0047112
0.00475022
0.00476453
0.00475734
0.00473017
0.00468332
0.00461627
0.00452849
0.0044198
0.00429039
0.00414079
0.00397184
0.00378446
0.00357938
0.00335659
0.00311498
0.00285127
0.00256918
0.00232094
0.00223594
0.00233658
0.00245651
0.00263301
0.00548378
0.00541829
0.00542572
0.00539702
0.00527366
0.0049424
0.0043641
0.00392825
0.00387404
0.00402991
0.00421709
0.00437156
0.00448623
0.00456672
0.004619
0.00464732
0.00465421
0.00464065
0.00460642
0.00455105
0.00447437
0.00437641
0.00425736
0.00411754
0.00395737
0.00377711
0.00357667
0.00335485
0.00310653
0.00282328
0.00251969
0.00231135
0.00232443
0.00243595
0.00266214
0.00528028
0.00534123
0.00542309
0.00545556
0.00541884
0.0052513
0.00483154
0.00418604
0.00375703
0.00372109
0.00388408
0.00407364
0.0042282
0.00434244
0.00442518
0.00448258
0.00451838
0.00453411
0.00452979
0.00450485
0.0044588
0.00439132
0.00430217
0.00419115
0.0040581
0.00390288
0.00372521
0.00352336
0.00329191
0.00301981
0.00270398
0.00243086
0.00237386
0.00247501
0.0027559
0.00516323
0.00538267
0.00555797
0.00566982
0.00572183
0.00566827
0.00542514
0.00485361
0.00409661
0.00364463
0.00360634
0.00376399
0.00394422
0.00409081
0.00420028
0.00428079
0.00433901
0.00437782
0.00439797
0.00439912
0.0043806
0.00434176
0.00428187
0.00420018
0.00409585
0.00396812
0.00381591
0.00363661
0.00342438
0.00316705
0.00285596
0.00255508
0.00245443
0.00255218
0.00289738
0.00505189
0.0052832
0.00548208
0.00562827
0.0057417
0.0057935
0.00573175
0.00545685
0.00482027
0.00403218
0.0035776
0.00352939
0.00367037
0.00383311
0.0039661
0.0040668
0.00414139
0.0041959
0.00423263
0.00425217
0.00425433
0.00423855
0.00420402
0.00414967
0.00407418
0.00397612
0.00385279
0.00370039
0.00351201
0.00327419
0.00297456
0.00266891
0.00254721
0.00265291
0.00308103
0.005
0.00529769
0.00553161
0.00570131
0.00584122
0.00593816
0.00596292
0.00587092
0.00556446
0.00489717
0.0040787
0.00357348
0.00347743
0.00358467
0.0037257
0.00384443
0.00393535
0.00400236
0.00405029
0.00408122
0.00409594
0.00409474
0.00407764
0.00404423
0.00399368
0.00392374
0.00383063
0.00370888
0.00354977
0.00333821
0.00305984
0.0027664
0.00264403
0.00276859
0.00329957
0.0049253
0.00526066
0.00550988
0.00568919
0.00584216
0.00596803
0.00605199
0.00606955
0.00598468
0.0057035
0.00506249
0.00421192
0.00362483
0.00346153
0.00352587
0.00364011
0.00374053
0.00381753
0.00387308
0.00391027
0.00393064
0.00393534
0.0039256
0.00390264
0.00386724
0.00381801
0.0037513
0.00366035
0.00353415
0.00335573
0.00311043
0.00284739
0.00274297
0.00289177
0.00353572
0.00501959
0.00528459
0.00550957
0.00567878
0.00582767
0.00595554
0.00605136
0.00610112
0.00609177
0.00600227
0.00574954
0.00515084
0.00429014
0.00367498
0.00348197
0.00351314
0.00359643
0.00367114
0.003727
0.00376439
0.00378419
0.00378731
0.00377543
0.00375141
0.00371792
0.00367679
0.00362751
0.00356445
0.00347451
0.00333753
0.00313807
0.00292194
0.00284547
0.00301618
0.00376678
0.00524402
0.00529639
0.00544246
0.00557677
0.0057123
0.00584267
0.0059494
0.00601224
0.00601983
0.00596809
0.00584392
0.00557061
0.00497057
0.00417616
0.00367916
0.00354018
0.00355983
0.00360921
0.00365036
0.00367667
0.00368685
0.00368022
0.00365754
0.00362144
0.00357599
0.00352689
0.00348025
0.00343717
0.00338511
0.00329798
0.00315562
0.00299641
0.00295042
0.0031342
0.00397099
0.00545644
0.00526089
0.00532042
0.00541749
0.00553865
0.00567205
0.00579236
0.00587272
0.00589482
0.00585032
0.00573509
0.00552711
0.00514585
0.00452002
0.0039491
0.0036902
0.00363818
0.00364696
0.0036606
0.0036652
0.00365652
0.00363198
0.00359079
0.00353389
0.00346512
0.00339262
0.00333023
0.00329264
0.0032757
0.00324516
0.00316808
0.00306932
0.00305199
0.00324082
0.00413134
0.00551099
0.00511001
0.00509852
0.00516141
0.00527037
0.00540856
0.00554428
0.00564664
0.0056918
0.00566422
0.00555265
0.00534149
0.00500279
0.0045354
0.00409626
0.00386627
0.00379085
0.00376661
0.00375046
0.00372868
0.00369535
0.00364677
0.00358095
0.00349728
0.0033981
0.00329146
0.00319635
0.00314311
0.00314673
0.0031712
0.00316256
0.00312396
0.00313343
0.00332234
0.00422148
0.00542444
0.00488572
0.00480915
0.00482646
0.00490414
0.00503127
0.00517797
0.00530676
0.0053822
0.00538005
0.00528385
0.00508194
0.00478267
0.00444991
0.00419069
0.00405231
0.00398366
0.00393836
0.00389597
0.00384748
0.00378767
0.00371292
0.00362059
0.00350866
0.00337751
0.0032332
0.00309541
0.00300502
0.00300135
0.00306202
0.00311431
0.00313226
0.00316931
0.00335759
0.00421513
0.00527008
0.00468785
0.00455067
0.00450263
0.00450863
0.00458562
0.00472588
0.00488413
0.00500114
0.00503731
0.00497806
0.00483276
0.00464465
0.00447118
0.00434502
0.00425828
0.0041912
0.00412978
0.00406588
0.00399431
0.00391114
0.00381307
0.00369735
0.00356102
0.00340261
0.00322512
0.00304438
0.00290201
0.00285649
0.00291674
0.00300827
0.00307382
0.00313998
0.00333004
0.00410901
0.00504313
0.00450676
0.00433721
0.00422678
0.00413832
0.00412453
0.00422451
0.00441134
0.00459832
0.004715
0.00474655
0.00471489
0.00465062
0.00457822
0.00450825
0.00444146
0.00437489
0.00430499
0.0042285
0.00414243
0.00404396
0.00393043
0.00379939
0.00364751
0.00347206
0.00327284
0.00305908
0.00286368
0.00274953
0.00276233
0.00285731
0.00295536
0.00305075
0.00324792
0.00394792
0.0048126
0.00439746
0.00422712
0.00408253
0.00392047
0.0037915
0.0037769
0.0039269
0.00417947
0.0044085
0.00455308
0.00462027
0.00463672
0.00462338
0.00459223
0.00454871
0.00449467
0.00443018
0.00435444
0.00426622
0.00416405
0.00404636
0.00391154
0.00375661
0.00357842
0.00337438
0.00314686
0.00291504
0.0027301
0.00265872
0.00270862
0.00281132
0.00292814
0.00313696
0.00379629
0.00466417
0.00439475
0.00423718
0.00408235
0.00388941
0.00367875
0.00350912
0.00347701
0.00365243
0.00394876
0.00421056
0.00438605
0.00448965
0.00454384
0.00456367
0.00455787
0.00453131
0.00448648
0.00442451
0.00434582
0.00425042
0.0041383
0.00400914
0.00386152
0.00369331
0.00350146
0.00328369
0.00304635
0.00282055
0.00266932
0.00264227
0.00271381
0.00283104
0.00304432
0.00370462
0.00465595
0.00455448
0.00443568
0.00428559
0.00407184
0.00379691
0.00352212
0.00329535
0.00320151
0.00335098
0.00366909
0.00397279
0.0041905
0.00433166
0.00441897
0.00446644
0.0044821
0.00447059
0.00443461
0.00437585
0.00429563
0.00419546
0.00407614
0.00393859
0.00378361
0.00361071
0.00341739
0.00320253
0.00297856
0.00278837
0.00269294
0.00271049
0.00280182
0.00299961
0.00367444
0.00473534
0.00484949
0.00483647
0.00473697
0.00453104
0.00417684
0.00375324
0.00340589
0.00314168
0.0029929
0.00310674
0.00343449
0.0037698
0.00401641
0.00418295
0.00429241
0.00435941
0.00439122
0.00439156
0.00436274
0.00430676
0.00422487
0.00411858
0.00399031
0.00384377
0.0036832
0.00351097
0.00332634
0.00313141
0.00294705
0.00282114
0.00279032
0.00284202
0.00300734
0.00369165
0.00485018
0.00518663
0.00531858
0.00531791
0.00519362
0.00486786
0.00428849
0.00369031
0.00329805
0.00302742
0.00285819
0.00295575
0.0032921
0.00363601
0.00388809
0.00406221
0.00418262
0.00426126
0.00430375
0.00431248
0.00428865
0.00423315
0.00414703
0.00403231
0.00389311
0.00373645
0.00357097
0.00340296
0.00323497
0.00307454
0.00294823
0.00288982
0.00290626
0.00303838
0.00373415
0.00505118
0.00546023
0.00565432
0.00572291
0.00569598
0.00551399
0.0050207
0.00422279
0.00356175
0.00318742
0.00293094
0.00277542
0.0029001
0.0032446
0.00357235
0.00380975
0.00397858
0.0041006
0.00418427
0.00423199
0.00424442
0.00422171
0.00416398
0.00407187
0.00394771
0.00379733
0.00363136
0.00346316
0.00330331
0.00315843
0.00304038
0.00297067
0.00296578
0.00307914
0.00380162
0.00547224
0.00568077
0.00577343
0.00580643
0.00579583
0.00570768
0.00541956
0.00474498
0.00393249
0.00339582
0.00308675
0.0028526
0.00274605
0.0029357
0.00327649
0.00356666
0.00377651
0.00393197
0.0040486
0.00413032
0.00417709
0.00418817
0.00416269
0.00410001
0.00400033
0.00386633
0.00370573
0.00353281
0.0033652
0.00321702
0.00309811
0.00302182
0.00300737
0.00311969
0.00388175
0.00617807
0.00590473
0.00577602
0.00568097
0.00557924
0.00546472
0.00526431
0.00481231
0.00413351
0.00357637
0.00323793
0.00299452
0.00280075
0.00280323
0.00306238
0.00336867
0.0036041
0.00377853
0.00391529
0.00402094
0.00409441
0.00413455
0.00413934
0.00410705
0.00403635
0.00392714
0.00378281
0.00361356
0.00343749
0.00327561
0.00314473
0.00305983
0.00304254
0.00316516
0.00395778
0.0069686
0.00604116
0.00568122
0.0054384
0.00519727
0.00500705
0.00481378
0.00449134
0.0040418
0.00363366
0.00334531
0.00311313
0.00290677
0.0028113
0.00295321
0.00323055
0.00347114
0.00365378
0.00379886
0.00391646
0.00400679
0.00406731
0.0040954
0.0040887
0.00404495
0.00396233
0.00384081
0.00368536
0.00350971
0.00333624
0.00318995
0.00309479
0.00307715
0.00321047
0.00399448
0.00735466
0.00590027
0.00539501
0.00504388
0.00470753
0.00450865
0.00435293
0.00413888
0.00388334
0.00363666
0.00341484
0.00319937
0.00299035
0.00285046
0.00289601
0.00311935
0.00335363
0.00354079
0.00369173
0.00381656
0.00391678
0.0039903
0.00403448
0.00404682
0.00402486
0.00396613
0.00386888
0.00373438
0.00357112
0.00339827
0.00324444
0.00314257
0.00312362
0.00325564
0.00397348
0.00694035
0.00551472
0.00502422
0.00464743
0.00431029
0.00415895
0.00408222