/*--------------------------------*- C++ -*----------------------------------*\
| =========                 |                                                 |
| \\      /  F ield         | OpenFOAM: The Open Source CFD Toolbox           |
|  \\    /   O peration     | Version:  v2006                                 |
|   \\  /    A nd           | Website:  www.openfoam.com                      |
|    \\/     M anipulation  |                                                 |
\*---------------------------------------------------------------------------*/
FoamFile
{
    version     2.0;
    format      ascii;
    class       surfaceScalarField;
    location    "95";
    object      phi;
}
// * * * * * * * * * * * * * * * * * * * * * * * * * * * * * * * * * * * * * //

dimensions      [1 0 -1 0 0 0 0];
oriented        oriented;


internalField   nonuniform List<scalar> 
228225
(
-0.000275144
-2.55768e-05
-5.05464e-06
-0.00024657
-2.4647e-05
-4.02696e-06
-0.000218657
-2.47297e-05
-3.26123e-06
-0.000191903
-2.45989e-05
-2.20175e-06
-0.000169083
-2.16399e-05
-1.13621e-06
-0.000149535
-1.91193e-05
-3.98955e-07
-0.000132495
-1.71607e-05
1.92531e-07
-0.000117371
-1.57018e-05
6.58266e-07
-0.00010394
-1.44037e-05
1.07936e-06
-9.19266e-05
-1.33218e-05
1.42973e-06
-8.1139e-05
-1.23824e-05
1.73589e-06
-7.14263e-05
-1.15581e-05
2.00341e-06
-6.26735e-05
-1.08203e-05
2.24087e-06
-5.47795e-05
-1.0155e-05
2.44791e-06
-4.7655e-05
-9.54794e-06
2.62251e-06
-4.12208e-05
-8.98765e-06
2.76363e-06
-3.54055e-05
-8.46761e-06
2.87356e-06
-3.01457e-05
-7.98509e-06
2.95853e-06
-2.53848e-05
-7.53871e-06
3.02419e-06
-2.10714e-05
-7.12708e-06
3.07475e-06
-1.71548e-05
-6.75123e-06
3.11323e-06
-1.35777e-05
-6.41663e-06
3.14064e-06
-1.02778e-05
-6.12878e-06
3.15844e-06
-7.19156e-06
-5.88984e-06
3.16869e-06
-4.25412e-06
-5.7025e-06
3.17353e-06
-1.40134e-06
-5.56818e-06
3.17505e-06
1.41941e-06
-5.47905e-06
3.17559e-06
4.23383e-06
-5.41351e-06
3.17811e-06
7.02216e-06
-5.33342e-06
3.1864e-06
9.69729e-06
-5.18049e-06
3.20517e-06
1.207e-05
-4.86308e-06
3.24004e-06
1.3774e-05
-4.21281e-06
3.29358e-06
1.39934e-05
-2.7875e-06
3.3652e-06
1.04831e-05
9.16533e-07
3.35466e-06
9.33465e-06
1.76935e-06
-6.38501e-06
-1.88045e-05
-8.89949e-07
-1.24508e-05
-1.75617e-05
-1.45372e-06
-1.7835e-05
-1.79128e-05
-1.76908e-06
-2.38383e-05
-1.72713e-05
-1.71141e-06
-2.85917e-05
-1.56356e-05
-1.53282e-06
-3.17253e-05
-1.4789e-05
-1.4405e-06
-3.32893e-05
-1.43595e-05
-1.4588e-06
-3.37347e-05
-1.39696e-05
-1.49183e-06
-3.32913e-05
-1.35263e-05
-1.51411e-06
-3.22208e-05
-1.30602e-05
-1.51541e-06
-3.06738e-05
-1.26076e-05
-1.49631e-06
-2.87524e-05
-1.21865e-05
-1.45841e-06
-2.65271e-05
-1.17962e-05
-1.40548e-06
-2.40555e-05
-1.14309e-05
-1.34196e-06
-2.13842e-05
-1.10833e-05
-1.27216e-06
-1.85508e-05
-1.07472e-05
-1.19965e-06
-1.55891e-05
-1.04176e-05
-1.12697e-06
-1.25325e-05
-1.00909e-05
-1.05521e-06
-9.41424e-06
-9.76433e-06
-9.85716e-07
-6.26704e-06
-9.43592e-06
-9.19545e-07
-3.12578e-06
-9.10411e-06
-8.56825e-07
-3.15479e-08
-8.76819e-06
-7.97159e-07
2.96807e-06
-8.4283e-06
-7.39294e-07
5.81851e-06
-8.08229e-06
-6.80595e-07
8.45671e-06
-7.72735e-06
-6.1751e-07
1.08121e-05
-7.36128e-06
-5.45823e-07
1.28111e-05
-6.97815e-06
-4.60297e-07
1.4382e-05
-6.5642e-06
-3.54798e-07
1.54588e-05
-6.09375e-06
-2.23357e-07
1.59903e-05
-5.52091e-06
-7.00898e-08
1.58061e-05
-4.74971e-06
2.21864e-07
1.47085e-05
-3.54448e-06
6.13866e-07
1.21159e-05
-1.18357e-06
1.2201e-06
6.46317e-06
4.8095e-06
2.07963e-06
1.45103e-05
1.6448e-06
-1.22181e-05
-5.47862e-06
-8.13628e-07
-1.76058e-05
-9.0131e-06
-2.75843e-06
-2.15427e-05
-9.4705e-06
-4.06887e-06
-2.42764e-05
-9.75512e-06
-4.3571e-06
-2.50216e-05
-1.03916e-05
-4.10293e-06
-2.47232e-05
-1.09129e-05
-3.81691e-06
-2.3975e-05
-1.12068e-05
-3.58441e-06
-2.29705e-05
-1.13049e-05
-3.38822e-06
-2.17749e-05
-1.1255e-05
-3.21499e-06
-2.04375e-05
-1.11084e-05
-3.06065e-06
-1.89986e-05
-1.09153e-05
-2.92269e-06
-1.74829e-05
-1.07129e-05
-2.79784e-06
-1.59001e-05
-1.05197e-05
-2.68251e-06
-1.42513e-05
-1.03416e-05
-2.57408e-06
-1.25332e-05
-1.01779e-05
-2.47122e-06
-1.07409e-05
-1.00244e-05
-2.37351e-06
-8.8711e-06
-9.87471e-06
-2.28122e-06
-6.92393e-06
-9.72132e-06
-2.19511e-06
-4.90435e-06
-9.55572e-06
-2.11625e-06
-2.82308e-06
-9.36908e-06
-2.04585e-06
-6.97241e-07
-9.15279e-06
-1.98462e-06
1.44892e-06
-8.89885e-06
-1.93269e-06
3.58347e-06
-8.60016e-06
-1.88952e-06
5.66906e-06
-8.25041e-06
-1.85364e-06
7.66144e-06
-7.84245e-06
-1.82208e-06
9.50483e-06
-7.36688e-06
-1.7899e-06
1.11302e-05
-6.81106e-06
-1.7499e-06
1.24531e-05
-6.15473e-06
-1.69233e-06
1.33686e-05
-5.36352e-06
-1.60449e-06
1.37407e-05
-4.37599e-06
-1.46963e-06
1.33817e-05
-3.06686e-06
-1.26356e-06
1.19942e-05
-1.12713e-06
-9.44124e-07
9.03688e-06
2.34978e-06
-4.27702e-07
4.05062e-06
9.56539e-06
5.26214e-07
1.79344e-05
9.49044e-07
-3.98875e-07
-5.61428e-06
5.04774e-07
-9.16282e-08
-8.5534e-06
-8.41616e-07
2.09328e-06
-9.63611e-06
-2.10922e-06
5.10722e-06
-1.00512e-05
-2.808e-06
7.83391e-06
-1.00912e-05
-3.11343e-06
1.00272e-05
-9.92198e-06
-3.26732e-06
1.17499e-05
-9.64638e-06
-3.36128e-06
1.31126e-05
-9.31786e-06
-3.42077e-06
1.42176e-05
-8.96779e-06
-3.454e-06
1.51415e-05
-8.6188e-06
-3.46421e-06
1.59262e-05
-8.28554e-06
-3.45306e-06
1.65861e-05
-7.97621e-06
-3.42238e-06
1.7123e-05
-7.69503e-06
-3.37464e-06
1.7537e-05
-7.44355e-06
-3.31275e-06
1.78307e-05
-7.22114e-06
-3.23984e-06
1.80113e-05
-7.02517e-06
-3.15897e-06
1.80901e-05
-6.85126e-06
-3.07311e-06
1.80828e-05
-6.69347e-06
-2.98506e-06
1.80091e-05
-6.54431e-06
-2.89755e-06
1.78908e-05
-6.39492e-06
-2.81329e-06
1.77509e-05
-6.23496e-06
-2.73468e-06
1.76104e-05
-6.05272e-06
-2.66341e-06
1.74852e-05
-5.83517e-06
-2.60016e-06
1.73831e-05
-5.56798e-06
-2.5444e-06
1.73001e-05
-5.23461e-06
-2.49381e-06
1.72166e-05
-4.81486e-06
-2.44346e-06
1.70918e-05
-4.28224e-06
-2.38538e-06
1.68581e-05
-3.60066e-06
-2.3083e-06
1.64171e-05
-2.71964e-06
-2.19656e-06
1.56306e-05
-1.55865e-06
-2.02806e-06
1.42813e-05
5.60626e-08
-1.76916e-06
1.20443e-05
2.49182e-06
-1.36266e-06
8.30958e-06
6.86404e-06
-7.07215e-07
3.09111e-06
1.46978e-05
2.91641e-07
2.05418e-05
7.66156e-07
-9.11763e-07
-4.6358e-06
-8.37939e-08
-1.64543e-06
-6.83646e-06
-9.89813e-07
-2.22184e-06
-7.62396e-06
-1.43191e-06
-2.59242e-06
-7.94196e-06
-1.7275e-06
-2.74039e-06
-7.99264e-06
-1.93358e-06
-2.66725e-06
-7.88016e-06
-2.09301e-06
-2.38658e-06
-7.67054e-06
-2.23146e-06
-1.90998e-06
-7.40766e-06
-2.36018e-06
-1.24855e-06
-7.1193e-06
-2.48289e-06
-4.17848e-07
-6.82279e-06
-2.60012e-06
5.60921e-07
-6.52817e-06
-2.71056e-06
1.66158e-06
-6.24062e-06
-2.81204e-06
2.85351e-06
-5.96221e-06
-2.90202e-06
4.10246e-06
-5.69306e-06
-2.97813e-06
5.37205e-06
-5.43217e-06
-3.03842e-06
6.62562e-06
-5.17785e-06
-3.08156e-06
7.8282e-06
-4.9279e-06
-3.10699e-06
8.94836e-06
-4.67953e-06
-3.11507e-06
9.95976e-06
-4.42915e-06
-3.10709e-06
1.08424e-05
-4.17204e-06
-3.08531e-06
1.15831e-05
-3.90203e-06
-3.05269e-06
1.21756e-05
-3.61116e-06
-3.01261e-06
1.26198e-05
-3.28936e-06
-2.96847e-06
1.29201e-05
-2.92422e-06
-2.92317e-06
1.30841e-05
-2.50059e-06
-2.87875e-06
1.3121e-05
-1.99969e-06
-2.83531e-06
1.30354e-05
-1.39456e-06
-2.78857e-06
1.28094e-05
-6.3614e-07
-2.72909e-06
1.23892e-05
3.49043e-07
-2.64322e-06
1.16855e-05
1.65775e-06
-2.50977e-06
1.05865e-05
3.45236e-06
-2.29049e-06
8.86553e-06
6.15525e-06
-1.9107e-06
6.18622e-06
1.08976e-05
-1.22927e-06
2.61466e-06
1.87746e-05
-1.88352e-07
2.29264e-05
5.65999e-07
-1.01513e-06
-4.90339e-06
1.2834e-06
-1.58564e-06
-6.62535e-06
3.38867e-07
-1.70577e-06
-7.12874e-06
-3.9747e-07
-1.79065e-06
-7.20756e-06
-6.73426e-07
-1.92225e-06
-7.05459e-06
-8.32558e-07
-2.09317e-06
-6.77894e-06
-9.5757e-07
-2.26771e-06
-6.44308e-06
-1.08014e-06
-2.39948e-06
-6.08893e-06
-1.21314e-06
-2.44147e-06
-5.74213e-06
-1.35965e-06
-2.35238e-06
-5.41599e-06
-1.51822e-06
-2.10072e-06
-5.11463e-06
-1.68515e-06
-1.66625e-06
-4.83681e-06
-1.85566e-06
-1.04122e-06
-4.57738e-06
-2.02455e-06
-2.30457e-07
-4.32917e-06
-2.18664e-06
7.49556e-07
-4.08449e-06
-2.337e-06
1.87208e-06
-3.83592e-06
-2.47119e-06
3.10208e-06
-3.5767e-06
-2.58549e-06
4.39858e-06
-3.30086e-06
-2.67719e-06
5.71733e-06
-3.00304e-06
-2.74476e-06
7.01352e-06
-2.67818e-06
-2.78809e-06
8.24454e-06
-2.32101e-06
-2.80854e-06
9.37239e-06
-1.92558e-06
-2.80888e-06
1.03658e-05
-1.48477e-06
-2.793e-06
1.12015e-05
-9.89843e-07
-2.76554e-06
1.18654e-05
-4.30137e-07
-2.73117e-06
1.23549e-05
2.05655e-07
-2.69398e-06
1.26687e-05
9.4521e-07
-2.65597e-06
1.27979e-05
1.84089e-06
-2.61285e-06
1.26779e-05
3.01097e-06
-2.55401e-06
1.21869e-05
4.59459e-06
-2.46379e-06
1.11308e-05
6.79867e-06
-2.31172e-06
9.20271e-06
1.00978e-05
-2.02511e-06
6.08144e-06
1.55076e-05
-1.43217e-06
2.36539e-06
2.31266e-05
-4.10946e-07
2.51516e-05
4.32307e-07
-3.19634e-07
-5.86792e-06
1.27011e-06
-5.6289e-07
-7.61206e-06
1.22373e-06
-6.88778e-07
-8.00704e-06
1.0007e-06
-8.22783e-07
-7.96086e-06
8.85615e-07
-1.00566e-06
-7.66204e-06
7.89642e-07
-1.24043e-06
-7.22575e-06
6.81699e-07
-1.50563e-06
-6.7251e-06
5.48147e-07
-1.76554e-06
-6.21025e-06
3.82989e-07
-1.97511e-06
-5.71247e-06
1.82522e-07
-2.09356e-06
-5.24857e-06
-4.53425e-08
-2.11597e-06
-4.82434e-06
-2.63355e-07
-1.99954e-06
-4.43715e-06
-5.10612e-07
-1.72131e-06
-4.07933e-06
-7.6975e-07
-1.26988e-06
-3.74185e-06
-1.03106e-06
-6.4513e-07
-3.41412e-06
-1.2862e-06
1.42212e-07
-3.08551e-06
-1.5275e-06
1.07146e-06
-2.74639e-06
-1.74793e-06
2.11325e-06
-2.38828e-06
-1.94137e-06
3.23135e-06
-2.00389e-06
-2.10296e-06
4.38491e-06
-1.58686e-06
-2.22951e-06
5.53104e-06
-1.13137e-06
-2.31962e-06
6.6276e-06
-6.31665e-07
-2.37407e-06
7.63615e-06
-8.15085e-08
-2.39582e-06
8.52467e-06
5.2624e-07
-2.3899e-06
9.2696e-06
1.20023e-06
-2.36282e-06
9.85605e-06
1.95031e-06
-2.32187e-06
1.02884e-05
2.79156e-06
-2.27354e-06
1.05511e-05
3.79761e-06
-2.21924e-06
1.06011e-05
5.10894e-06
-2.15424e-06
1.03588e-05
6.89261e-06
-2.07002e-06
9.65434e-06
9.43e-06
-1.94948e-06
8.12775e-06
1.33522e-05
-1.74801e-06
5.32226e-06
1.96881e-05
-1.33557e-06
2.05886e-06
2.71186e-05
-5.29429e-07
2.71551e-05
3.37453e-07
-1.84421e-07
-7.03185e-06
1.28613e-06
-8.12036e-07
-8.82187e-06
1.78025e-06
-1.41934e-06
-9.12816e-06
1.67405e-06
-1.97724e-06
-8.97633e-06
1.52179e-06
-2.52338e-06
-8.55152e-06
1.38765e-06
-3.06575e-06
-7.98397e-06
1.25684e-06
-3.587e-06
-7.35635e-06
1.11336e-06
-4.05672e-06
-6.72216e-06
9.47225e-07
-4.43985e-06
-6.11259e-06
7.53502e-07
-4.70182e-06
-5.54264e-06
5.30719e-07
-4.80967e-06
-5.01606e-06
2.78326e-07
-4.72211e-06
-4.52926e-06
-1.296e-08
-4.47612e-06
-4.07445e-06
-2.6516e-07
-4.04015e-06
-3.64038e-06
-5.48851e-07
-3.41053e-06
-3.21495e-06
-8.37571e-07
-2.59359e-06
-2.78786e-06
-1.12094e-06
-1.60481e-06
-2.349e-06
-1.39023e-06
-4.68237e-07
-1.88929e-06
-1.63746e-06
7.84073e-07
-1.40086e-06
-1.85525e-06
2.11296e-06
-8.76856e-07
-2.03706e-06
3.47366e-06
-3.11173e-07
-2.17772e-06
4.81827e-06
3.01809e-07
-2.27405e-06
6.09897e-06
9.6754e-07
-2.32551e-06
7.27161e-06
1.69176e-06
-2.33455e-06
8.29981e-06
2.48037e-06
-2.30628e-06
9.15736e-06
3.34048e-06
-2.24823e-06
9.81293e-06
4.30066e-06
-2.1686e-06
1.02194e-05
5.45428e-06
-2.07141e-06
1.03323e-05
6.93908e-06
-1.95688e-06
1.01043e-05
8.92272e-06
-1.8227e-06
9.41878e-06
1.17424e-05
-1.65457e-06
7.98548e-06
1.6175e-05
-1.41575e-06
5.3319e-06
2.33876e-05
-1.02271e-06
2.18953e-06
3.08365e-05
-4.17173e-07
2.92641e-05
3.25594e-07
6.69618e-09
-8.64795e-06
1.56493e-06
-5.46058e-07
-1.0626e-05
2.33728e-06
-1.07945e-06
-1.08589e-05
2.24765e-06
-1.5838e-06
-1.05951e-05
2.10564e-06
-2.09977e-06
-1.00285e-05
1.97478e-06
-2.63782e-06
-9.30656e-06
1.84245e-06
-3.17856e-06
-8.53003e-06
1.69665e-06
-3.6899e-06
-7.75764e-06
1.52977e-06
-4.14033e-06
-7.01581e-06
1.33773e-06
-4.49913e-06
-6.31755e-06
1.11925e-06
-4.73796e-06
-5.66508e-06
8.75111e-07
-4.83115e-06
-5.05441e-06
6.07475e-07
-4.75527e-06
-4.4773e-06
3.18087e-07
-4.47436e-06
-3.92351e-06
-4.59326e-09
-4.03644e-06
-3.38245e-06
-2.75251e-07
-3.41511e-06
-2.84247e-06
-5.69604e-07
-2.61134e-06
-2.29367e-06
-8.60116e-07
-1.63578e-06
-1.72717e-06
-1.13696e-06
-5.07545e-07
-1.13486e-06
-1.39204e-06
7.46319e-07
-5.09374e-07
-1.618e-06
2.09205e-06
1.55357e-07
-1.80828e-06
3.48775e-06
8.67447e-07
-1.95739e-06
4.88974e-06
1.63017e-06
-2.06159e-06
6.25303e-06
2.44893e-06
-2.11941e-06
7.53597e-06
3.3275e-06
-2.13221e-06
8.69501e-06
4.27854e-06
-2.10363e-06
9.66089e-06
5.36103e-06
-2.0381e-06
1.03557e-05
6.68082e-06
-1.93973e-06
1.07189e-05
8.36277e-06
-1.81413e-06
1.06597e-05
1.06072e-05
-1.66467e-06
9.99709e-06
1.38337e-05
-1.48313e-06
8.39964e-06
1.89451e-05
-1.23396e-06
5.52746e-06
2.70584e-05
-8.17404e-07
2.30659e-06
3.43703e-05
-2.24459e-07
3.13016e-05
4.42585e-07
3.25191e-07
-1.0587e-05
1.55971e-06
-3.71028e-07
-1.27384e-05
2.81256e-06
-1.25392e-06
-1.28977e-05
2.93334e-06
-2.07977e-06
-1.25241e-05
2.76303e-06
-2.84917e-06
-1.18106e-05
2.55915e-06
-3.57464e-06
-1.09355e-05
2.3658e-06
-4.22714e-06
-1.00454e-05
2.17778e-06
-4.75984e-06
-9.20397e-06
1.98408e-06
-5.13835e-06
-8.41264e-06
1.77719e-06
-5.35637e-06
-7.65194e-06
1.5519e-06
-5.42045e-06
-6.90983e-06
1.30651e-06
-5.33199e-06
-6.18833e-06
1.04201e-06
-5.08835e-06
-5.48601e-06
7.6111e-07
-4.68486e-06
-4.79762e-06
4.66651e-07
-4.10935e-06
-4.11712e-06
1.55604e-07
-3.38344e-06
-3.43838e-06
-1.32854e-07
-2.51494e-06
-2.75471e-06
-4.09443e-07
-1.50166e-06
-2.05902e-06
-6.82461e-07
-3.52372e-07
-1.34397e-06
-9.40289e-07
9.18089e-07
-6.03451e-07
-1.17579e-06
2.28853e-06
1.68739e-07
-1.38295e-06
3.73316e-06
9.79793e-07
-1.55651e-06
5.2202e-06
1.83436e-06
-1.69221e-06
6.71605e-06
2.73649e-06
-1.78727e-06
8.18755e-06
3.68827e-06
-1.84073e-06
9.58329e-06
4.7218e-06
-1.85323e-06
1.08312e-05
5.91738e-06
-1.82545e-06
1.18603e-05
7.37971e-06
-1.75938e-06
1.25794e-05
9.25504e-06
-1.65943e-06
1.28139e-05
1.18262e-05
-1.53184e-06
1.2194e-05
1.56987e-05
-1.38217e-06
1.00155e-05
2.20817e-05
-1.20011e-06
6.00138e-06
3.16213e-05
-8.97433e-07
2.38394e-06
3.81708e-05
-4.37362e-07
3.35158e-05
2.17267e-07
3.95012e-07
-1.30823e-05
2.02159e-06
2.40941e-08
-1.57514e-05
3.37766e-06
-5.85861e-07
-1.5734e-05
3.47257e-06
-1.24062e-06
-1.51351e-05
3.30782e-06
-1.97015e-06
-1.41839e-05
3.15416e-06
-2.75802e-06
-1.31187e-05
3.02582e-06
-3.49941e-06
-1.21404e-05
2.88925e-06
-4.08318e-06
-1.12937e-05
2.72109e-06
-4.44615e-06
-1.05267e-05
2.51716e-06
-4.57689e-06
-9.77499e-06
2.28408e-06
-4.48913e-06
-9.00409e-06
2.02743e-06
-4.2046e-06
-8.20953e-06
1.75147e-06
-3.74981e-06
-7.39301e-06
1.46272e-06
-3.15024e-06
-6.55802e-06
1.16823e-06
-2.4268e-06
-5.70934e-06
8.73923e-07
-1.59419e-06
-4.85166e-06
5.84217e-07
-6.59131e-07
-3.98763e-06
3.003e-07
3.88804e-07
-3.11692e-06
1.1663e-08
1.48379e-06
-2.23796e-06
-1.999e-07
2.64091e-06
-1.3466e-06
-4.13453e-07
3.85624e-06
-4.37695e-07
-6.09199e-07
5.12185e-06
4.9439e-07
-7.81916e-07
6.42736e-06
1.45323e-06
-9.28542e-07
7.75856e-06
2.44402e-06
-1.04694e-06
9.08734e-06
3.48054e-06
-1.13516e-06
1.03693e-05
4.61107e-06
-1.1919e-06
1.15544e-05
5.92121e-06
-1.21681e-06
1.25741e-05
7.52959e-06
-1.21002e-06
1.32937e-05
9.64217e-06
-1.17065e-06
1.34373e-05
1.26661e-05
-1.09658e-06
1.24565e-05
1.74438e-05
-9.85022e-07
9.56505e-06
2.53674e-05
-8.2402e-07
5.06688e-06
3.59974e-05
-5.29282e-07
1.90921e-06
4.09703e-05
-1.37657e-07
3.51268e-05
2.93054e-07
-6.48868e-07
-1.52972e-05
2.77661e-06
-1.90465e-06
-1.86533e-05
4.1041e-06
-3.31769e-06
-1.85362e-05
4.18542e-06
-4.60751e-06
-1.79374e-05
4.0758e-06
-5.6819e-06
-1.71484e-05
4.03228e-06
-6.45432e-06
-1.64046e-05
4.05356e-06
-6.83857e-06
-1.58295e-05
4.06289e-06
-6.80467e-06
-1.53425e-05
3.99752e-06
-6.39544e-06
-1.47887e-05
3.8315e-06
-5.68327e-06
-1.40777e-05
3.56939e-06
-4.74521e-06
-1.31954e-05
3.23524e-06
-3.66327e-06
-1.21691e-05
2.86409e-06
-2.51581e-06
-1.10382e-05
2.48868e-06
-1.35414e-06
-9.84457e-06
2.11957e-06
-2.0338e-07
-8.62275e-06
1.76015e-06
9.24412e-07
-7.39899e-06
1.41899e-06
2.02668e-06
-6.19205e-06
1.10248e-06
3.10589e-06
-5.01026e-06
8.14682e-07
4.16614e-06
-3.8552e-06
5.57451e-07
5.21353e-06
-2.72465e-06
3.30397e-07
6.25902e-06
-1.61283e-06
1.27966e-07
7.29374e-06
-5.12902e-07
-3.15296e-08
8.29649e-06
5.81998e-07
-1.3979e-07
9.27594e-06
1.68382e-06
-2.326e-07
1.02213e-05
2.82274e-06
-3.05925e-07
1.11161e-05
4.05383e-06
-3.61861e-07
1.19417e-05
5.46662e-06
-4.04323e-07
1.26479e-05
7.21214e-06
-4.37958e-07
1.30998e-05
9.57701e-06
-4.68023e-07
1.29529e-05
1.31626e-05
-5.01708e-07
1.14563e-05
1.9183e-05
-5.54751e-07
7.85757e-06
2.90057e-05
-6.44804e-07
3.68637e-06
3.99624e-05
-6.28149e-07
1.41743e-06
4.30108e-05
-3.71349e-07
3.63745e-05
1.09375e-07
-3.98247e-06
-1.46033e-05
3.13531e-06
-7.98368e-06
-1.88938e-05
4.04193e-06
-1.17758e-05
-1.90795e-05
4.1281e-06
-1.50411e-05
-1.90526e-05
4.15888e-06
-1.73391e-05
-1.93625e-05
4.25424e-06
-1.8293e-05
-2.01791e-05
4.40829e-06
-1.78317e-05
-2.1255e-05
4.57405e-06
-1.61378e-05
-2.21668e-05
4.69057e-06
-1.35281e-05
-2.25703e-05
4.71414e-06
-1.03303e-05
-2.23508e-05
4.62816e-06
-6.82769e-06
-2.15429e-05
4.43104e-06
-3.25522e-06
-2.02443e-05
4.13592e-06
1.80792e-07
-1.85586e-05
3.774e-06
3.30493e-06
-1.66033e-05
3.38439e-06
5.99459e-06
-1.44928e-05
2.98723e-06
8.18369e-06
-1.232e-05
2.58979e-06
9.87051e-06
-1.0183e-05
2.20443e-06
1.10981e-05
-8.14927e-06
1.84421e-06
1.19355e-05
-6.25617e-06
1.51941e-06
1.24702e-05
-4.52582e-06
1.2372e-06
1.27931e-05
-2.95809e-06
1.00166e-06
1.29773e-05
-1.52808e-06
8.1396e-07
1.30448e-05
-1.75007e-07
6.72916e-07
1.30722e-05
1.06207e-06
5.75888e-07
1.30361e-05
2.31817e-06
5.18645e-07
1.29275e-05
3.63854e-06
4.96068e-07
1.2736e-05
5.11887e-06
5.02298e-07
1.24379e-05
6.92562e-06
5.31048e-07
1.19595e-05
9.39245e-06
5.76019e-07
1.10686e-05
1.32645e-05
6.28421e-07
9.19492e-06
2.0077e-05
6.59563e-07
5.81071e-06
3.12337e-05
5.67658e-07
2.48819e-06
4.22044e-05
3.46467e-07
7.57414e-07
4.38822e-05
3.1012e-07
3.65099e-05
4.45188e-07
-6.90417e-06
-1.17312e-05
3.87729e-06
-1.36195e-05
-1.70223e-05
4.58372e-06
-1.95894e-05
-1.80804e-05
4.64594e-06
-2.46787e-05
-1.91885e-05
4.80975e-06
-2.85041e-05
-2.11053e-05
5.01354e-06
-3.068e-05
-2.39405e-05
5.22399e-06
-3.10915e-05
-2.70932e-05
5.40416e-06
-2.98343e-05
-2.988e-05
5.52727e-06
-2.7139e-05
-3.1823e-05
5.58652e-06
-2.32863e-05
-3.27908e-05
5.59348e-06
-1.853e-05
-3.28602e-05
5.54896e-06
-1.30799e-05
-3.21475e-05
5.43862e-06
-7.16385e-06
-3.07324e-05
5.2528e-06
-1.04814e-06
-2.86661e-05
4.98877e-06
4.94493e-06
-2.602e-05
4.66487e-06
1.04451e-05
-2.28716e-05
4.29627e-06
1.51615e-05
-1.94038e-05
3.88563e-06
1.88844e-05
-1.57935e-05
3.44462e-06
2.14684e-05
-1.21791e-05
2.99535e-06
2.28619e-05
-8.71328e-06
2.56281e-06
2.31465e-05
-5.56073e-06
2.17081e-06
2.25368e-05
-2.8472e-06
1.8368e-06
2.13453e-05
-6.12785e-07
1.56902e-06
1.97939e-05
1.20204e-06
1.36736e-06
1.80794e-05
2.76924e-06
1.22562e-06
1.62864e-05
4.25827e-06
1.13535e-06
1.44468e-05
5.82778e-06
1.08705e-06
1.25797e-05
7.66522e-06
1.07062e-06
1.0697e-05
1.01175e-05
1.07524e-06
8.75755e-06
1.39831e-05
1.08783e-06
6.55797e-06
2.09558e-05
1.09312e-06
3.87685e-06
3.2508e-05
1.05419e-06
1.66386e-06
4.31658e-05
9.03326e-07
4.34754e-07
4.41279e-05
7.39469e-07
3.60623e-05
8.01966e-07
-5.27101e-06
-9.61588e-06
3.0384e-06
-9.39049e-06
-1.62639e-05
3.13633e-06
-1.17424e-05
-1.93165e-05
3.33945e-06
-1.3079e-05
-2.18145e-05
3.71292e-06
-1.40436e-05
-2.44433e-05
4.07909e-06
-1.51496e-05
-2.7388e-05
4.40141e-06
-1.65585e-05
-3.03504e-05
4.62484e-06
-1.80554e-05
-3.30336e-05
4.73099e-06
-1.93027e-05
-3.51526e-05
4.75233e-06
-2.00659e-05
-3.65734e-05
4.74066e-06
-2.01367e-05
-3.74115e-05
4.73634e-06
-1.92617e-05
-3.78462e-05
4.7517e-06
-1.71024e-05
-3.80185e-05
4.79512e-06
-1.34312e-05
-3.78079e-05
4.8588e-06
-8.25781e-06
-3.69917e-05
4.93231e-06
-1.86469e-06
-3.53142e-05
4.99027e-06
5.28812e-06
-3.27039e-05
4.98052e-06
1.26602e-05
-2.9213e-05
4.87172e-06
1.9609e-05
-2.48808e-05
4.65276e-06
2.54947e-05
-1.98655e-05
4.3231e-06
2.97526e-05
-1.44504e-05
3.90155e-06
3.19802e-05
-9.01127e-06
3.43362e-06
3.20426e-05
-3.96887e-06
2.98379e-06
3.01944e-05
2.61108e-07
2.60916e-06
2.70232e-05
3.49722e-06
2.3345e-06
2.31756e-05
5.87368e-06
2.15719e-06
1.90881e-05
7.79009e-06
2.06374e-06
1.498e-05
9.67388e-06
2.03964e-06
1.10194e-05
1.19418e-05
2.06961e-06
7.47947e-06
1.5311e-05
2.13432e-06
4.77404e-06
2.13787e-05
2.19596e-06
2.95807e-06
3.2011e-05
2.17691e-06
1.38709e-06
4.25165e-05
1.98576e-06
2.5813e-07
4.3413e-05
1.69051e-06
3.50973e-05
1.23753e-06
-5.73384e-07
-1.11421e-05
2.05469e-06
2.72476e-06
-2.16242e-05
2.19699e-06
8.94301e-06
-2.75044e-05
2.37232e-06
1.63468e-05
-3.11435e-05
2.59576e-06
2.34362e-05
-3.34282e-05
2.83629e-06
2.89499e-05
-3.47542e-05
3.08021e-06
3.2172e-05
-3.5316e-05
3.26273e-06
3.29136e-05
-3.52941e-05
3.32929e-06
3.13549e-05
-3.47723e-05
3.27175e-06
2.77805e-05
-3.37649e-05
3.11504e-06
2.24411e-05
-3.24462e-05
2.91356e-06
1.56801e-05
-3.12582e-05
2.72441e-06
8.2544e-06
-3.08493e-05
2.59388e-06
1.28554e-06
-3.14762e-05
2.57817e-06
-4.10992e-06
-3.28538e-05
2.69967e-06
-7.13056e-06
-3.43903e-05
2.98671e-06
-7.40999e-06
-3.54886e-05
3.39773e-06
-4.96573e-06
-3.56925e-05
3.8597e-06
-1.12185e-07
-3.46375e-05
4.30401e-06
6.53242e-06
-3.20714e-05
4.65653e-06
1.4041e-05
-2.7866e-05
4.84081e-06
2.1249e-05
-2.20797e-05
4.79296e-06
2.69265e-05
-1.50482e-05
4.48951e-06
3.00258e-05
-7.47357e-06
3.9875e-06
3.01891e-05
-4.7727e-07
3.43003e-06
2.72373e-05
5.66081e-06
2.97045e-06
2.2567e-05
9.69987e-06
2.66205e-06
1.72308e-05
1.24858e-05
2.47448e-06
1.18625e-05
1.49292e-05
2.3699e-06
6.99106e-06
1.79144e-05
2.32474e-06
3.4814e-06
2.27812e-05
2.33561e-06
2.15507e-06
3.14179e-05
2.43201e-06
1.70991e-06
4.09296e-05
2.53798e-06
1.02502e-06
4.20763e-05
2.4289e-06
3.45525e-05
1.91587e-06
2.96698e-06
-1.58004e-05
1.87566e-06
1.17673e-05
-3.19086e-05
2.18817e-06
2.26651e-05
-3.97099e-05
2.34514e-06
3.35687e-05
-4.34005e-05
2.57952e-06
4.34959e-05
-4.4837e-05
2.81107e-06
5.18764e-05
-4.47916e-05
3.04391e-06
5.83321e-05
-4.36155e-05
3.26805e-06
6.25664e-05
-4.14918e-05
3.42531e-06
6.44098e-05
-3.85504e-05
3.45782e-06
6.3867e-05
-3.49076e-05
3.33137e-06
6.102e-05
-3.07464e-05
3.03574e-06
5.59801e-05
-2.65524e-05
2.58217e-06
4.89549e-05
-2.32647e-05
2.01983e-06
4.05665e-05
-2.17395e-05
1.44185e-06
3.15647e-05
-2.19754e-05
9.57549e-07
2.25248e-05
-2.33432e-05
6.64773e-07
1.40788e-05
-2.53348e-05
6.39058e-07
7.02488e-06
-2.76327e-05
9.08857e-07
2.20797e-06
-2.98524e-05
1.44263e-06
3.06018e-07
-3.15116e-05
2.19687e-06
1.67192e-06
-3.20532e-05
3.10325e-06
6.14717e-06
-3.08305e-05
4.03103e-06
1.27936e-05
-2.71297e-05
4.79267e-06
1.98213e-05
-2.05079e-05
5.17758e-06
2.49032e-05
-1.13695e-05
5.04105e-06
2.70076e-05
-1.47512e-06
4.49921e-06
2.52535e-05
7.23998e-06
3.91903e-06
2.08209e-05
1.32063e-05
3.55878e-06
1.51526e-05
1.71107e-05
3.41069e-06
9.43764e-06
2.02771e-05
3.36372e-06
4.90746e-06
2.4252e-05
3.29506e-06
2.95485e-06
3.1018e-05
3.12145e-06
2.50937e-06
3.96918e-05
2.92761e-06
1.3605e-06
4.16384e-05
2.65625e-06
3.46485e-05
1.88023e-06
6.66902e-06
-2.36834e-05
1.48282e-06
1.60526e-05
-4.26779e-05
1.81455e-06
2.44551e-05
-4.95459e-05
1.77324e-06
3.09996e-05
-5.16134e-05
1.861e-06
3.56682e-05
-5.14319e-05
1.98791e-06
3.85023e-05
-4.9803e-05
2.15292e-06
3.95255e-05
-4.70403e-05
2.34935e-06
3.88184e-05
-4.3352e-05
2.54689e-06
3.6599e-05
-3.8986e-05
2.70993e-06
3.33656e-05
-3.43416e-05
2.79848e-06
2.99973e-05
-2.99726e-05
2.76301e-06
2.74667e-05
-2.63705e-05
2.54349e-06
2.61383e-05
-2.37821e-05
2.1131e-06
2.5465e-05
-2.2271e-05
1.54371e-06
2.46198e-05
-2.16498e-05
9.65104e-07
2.30734e-05
-2.15107e-05
4.21501e-07
2.06024e-05
-2.17105e-05
-8.70823e-08
1.70846e-05
-2.23293e-05
-4.57823e-07
1.27056e-05
-2.33496e-05
-6.66183e-07
7.97727e-06
-2.46611e-05
-6.34578e-07
3.68196e-06
-2.6068e-05
-2.91475e-07
7.26195e-07
-2.72703e-05
5.31606e-07
3.21924e-07
-2.78035e-05
1.75036e-06
3.32033e-06
-2.6533e-05
3.14277e-06
9.14497e-06
-2.17958e-05
4.27053e-06
1.54173e-05
-1.29036e-05
4.64905e-06
1.95105e-05
-1.48057e-06
4.21133e-06
1.98497e-05
9.14464e-06
3.48416e-06
1.73047e-05
1.65398e-05
3.00478e-06
1.31189e-05
2.15209e-05
2.91225e-06
8.66654e-06
2.57002e-05
3.08581e-06
5.4836e-06
3.12506e-05
3.31478e-06
3.75315e-06
3.88845e-05
3.31615e-06
1.75833e-06
4.12905e-05
3.05456e-06
3.47189e-05
2.05406e-06
8.92752e-06
-3.39244e-05
1.44903e-06
1.43949e-05
-4.93906e-05
1.0595e-06
1.63498e-05
-5.23787e-05
4.1433e-07
1.59338e-05
-5.20853e-05
2.72833e-07
1.39103e-05
-5.03825e-05
2.83045e-07
1.06695e-05
-4.76426e-05
3.5315e-07
6.44578e-06
-4.40439e-05
4.89307e-07
1.48079e-06
-3.98209e-05
6.95704e-07
-3.83275e-06
-3.54056e-05
9.63857e-07
-8.75518e-06
-3.15564e-05
1.24193e-06
-1.23084e-05
-2.89548e-05
1.41798e-06
-1.37394e-05
-2.75734e-05
1.40026e-06
-1.28033e-05
-2.69628e-05
1.22842e-06
-1.00989e-05
-2.66482e-05
9.84145e-07
-6.49245e-06
-2.64031e-05
7.03964e-07
-2.55353e-06
-2.61382e-05
4.08465e-07
1.27741e-06
-2.58173e-05
1.09442e-07
4.53941e-06
-2.54528e-05
-1.56347e-07
6.82294e-06
-2.50811e-05
-3.94123e-07
7.83819e-06
-2.47441e-05
-6.07806e-07
7.52008e-06
-2.44957e-05
-7.62219e-07
6.20954e-06
-2.44243e-05
-7.97545e-07
4.62682e-06
-2.47023e-05
-5.15769e-07
3.52588e-06
-2.50116e-05
4.58924e-07
4.15936e-06
-2.40647e-05
2.12496e-06
7.16698e-06
-1.97626e-05
3.8688e-06
1.1221e-05
-1.05901e-05
4.77431e-06
1.39578e-05
1.57643e-06
4.52378e-06
1.41022e-05
1.24159e-05
3.76046e-06
1.20918e-05
2.03597e-05
3.04869e-06
8.57915e-06
2.65846e-05
2.65425e-06
4.81283e-06
3.26501e-05
2.68669e-06
2.52251e-06
3.8909e-05
2.99329e-06
9.12192e-07
4.06771e-05
2.98212e-06
3.42223e-05
1.93022e-06
2.92157e-06
-3.76022e-05
8.98114e-07
1.49783e-06
-4.79776e-05
1.7863e-07
-1.36672e-06
-4.88649e-05
-3.94204e-07
-4.57484e-06
-4.81207e-05
-4.14397e-07
-7.69545e-06
-4.65601e-05
-3.17529e-07
-1.04167e-05
-4.43549e-05
-2.34395e-07
-1.24851e-05
-4.16432e-05
-1.75731e-07
-1.37246e-05
-3.85933e-05
-1.29019e-07
-1.40678e-05
-3.54796e-05
-8.07595e-08
-1.35829e-05
-3.27352e-05
-3.27821e-08
-1.25154e-05
-3.06766e-05
6.0564e-09
-1.13035e-05
-2.92184e-05
2.53282e-09
-1.02208e-05
-2.82181e-05
-6.2318e-08
-9.21429e-06
-2.75469e-05
-1.85044e-07
-8.13089e-06
-2.70684e-05
-3.68155e-07
-6.84029e-06
-2.66801e-05
-6.00535e-07
-5.25785e-06
-2.63166e-05
-8.61814e-07
-3.38183e-06
-2.59396e-05
-1.11723e-06
-1.297e-06
-2.5531e-05
-1.32957e-06
8.51791e-07
-2.50815e-05
-1.48371e-06
2.86683e-06
-2.4589e-05
-1.57677e-06
4.45723e-06
-2.40591e-05
-1.59512e-06
5.13772e-06
-2.34747e-05
-1.49918e-06
4.65406e-06
-2.28267e-05
-1.16343e-06
3.58566e-06
-2.20966e-05
-2.9818e-07
3.33185e-06
-2.03849e-05
1.30944e-06
5.16496e-06
-1.53443e-05
3.03514e-06
8.00605e-06
-5.30289e-06
3.90271e-06
9.62764e-06
6.80281e-06
3.78347e-06
9.52527e-06
1.68447e-05
3.41533e-06
8.19271e-06
2.47519e-05
3.00532e-06
5.81084e-06
3.25152e-05
2.58899e-06
3.29782e-06
3.95209e-05
2.44137e-06
1.05467e-06
4.1102e-05
2.45794e-06
3.41593e-05
1.49252e-06
-2.74195e-06
-3.53961e-05
6.81691e-07
-4.06973e-06
-4.6618e-05
2.79459e-07
-4.07475e-06
-4.85261e-05
9.82094e-09
-3.40097e-06
-4.8548e-05
9.41902e-08
-2.35636e-06
-4.76491e-05
3.72855e-07
-1.06165e-06
-4.60101e-05
6.80664e-07
4.42349e-07
-4.37686e-05
9.2546e-07
2.17907e-06
-4.11217e-05
1.05966e-06
4.12168e-06
-3.82558e-05
1.05674e-06
5.96196e-06
-3.52926e-05
9.1388e-07
7.2023e-06
-3.23777e-05
6.60951e-07
7.67455e-06
-2.97948e-05
3.35934e-07
7.55389e-06
-2.77947e-05
-2.8014e-08
7.07925e-06
-2.63886e-05
-3.71281e-07
6.48517e-06
-2.54121e-05
-7.18656e-07
5.92338e-06
-2.46898e-05
-1.05698e-06
5.4934e-06
-2.41022e-05
-1.38314e-06
5.24058e-06
-2.35759e-05
-1.68524e-06
5.15143e-06
-2.30636e-05
-1.94332e-06
5.18073e-06
-2.2533e-05
-2.142e-06
5.27059e-06
-2.19678e-05
-2.27914e-06
5.35027e-06
-2.13674e-05
-2.34577e-06
5.34028e-06
-2.07441e-05
-2.30274e-06
5.09557e-06
-2.01016e-05
-2.07054e-06
4.31274e-06
-1.94131e-05
-1.49928e-06
3.12679e-06
-1.84611e-05
-3.83823e-07
2.77383e-06
-1.61343e-05
1.36137e-06
4.51782e-06
-9.91781e-06
2.89637e-06
6.76604e-06
1.27944e-06
3.16632e-06
7.15351e-06
1.3648e-05
2.6487e-06
5.75148e-06
2.35021e-05
2.46567e-06
3.74802e-06
3.19369e-05
2.38352e-06
1.73228e-06
3.93646e-05
2.0954e-06
1.74768e-07
4.07744e-05
1.8961e-06
3.33168e-05
1.06076e-06
-1.07963e-06
-3.47338e-05
3.42587e-08
1.51339e-06
-4.91771e-05
-6.49737e-07
4.97808e-06
-5.17674e-05
-8.5996e-07
8.50601e-06
-5.18084e-05
-8.86979e-07
1.1647e-05
-5.06175e-05
-7.31674e-07
1.39382e-05
-4.8329e-05
-4.12526e-07
1.50747e-05
-4.51834e-05
8.14553e-09
1.50441e-05
-4.16263e-05
4.53525e-07
1.40421e-05
-3.80361e-05
8.54414e-07
1.24134e-05
-3.46318e-05
1.11661e-06
1.05465e-05
-3.15223e-05
1.16513e-06
8.69798e-06
-2.87887e-05
9.83991e-07
6.96383e-06
-2.65302e-05
6.25612e-07
5.37987e-06
-2.47754e-05
1.64032e-07
3.98508e-06
-2.34385e-05
-3.44624e-07
2.8282e-06
-2.23882e-05
-8.7782e-07
1.96152e-06
-2.15239e-05
-1.42458e-06
1.43723e-06
-2.07798e-05
-1.97336e-06
1.28507e-06
-2.00976e-05
-2.50373e-06
1.49399e-06
-1.94269e-05
-2.98913e-06
1.98535e-06
-1.87288e-05
-3.38692e-06
2.60046e-06
-1.79732e-05
-3.64892e-06
3.14292e-06
-1.71492e-05
-3.76179e-06
3.39589e-06
-1.62703e-05
-3.69671e-06
3.13194e-06
-1.54026e-05
-3.35911e-06
2.20611e-06
-1.46241e-05
-2.56196e-06
1.04524e-06
-1.36831e-05
-1.05739e-06
1.1625e-06
-1.11117e-05
1.11969e-06
3.23181e-06
-3.80706e-06
2.86805e-06
4.86876e-06
8.88484e-06
2.82326e-06
3.4303e-06
2.26214e-05
1.88283e-06
4.33734e-07
3.2672e-05
1.81889e-06
-1.04529e-06
3.84927e-05
2.11479e-06
-1.24831e-06
3.87799e-05
2.13636e-06
3.09269e-05
1.21064e-06
2.79041e-06
-3.70022e-05
-9.09397e-07
6.28444e-06
-5.1254e-05
-1.59974e-06
9.11664e-06
-5.30032e-05
-1.65326e-06
1.13278e-05
-5.24159e-05
-1.61281e-06
1.28047e-05
-5.05249e-05
-1.5613e-06
1.32062e-05
-4.72361e-05
-1.49171e-06
1.24988e-05
-4.31656e-05
-1.34354e-06
1.10199e-05
-3.91863e-05
-1.03182e-06
9.06249e-06
-3.559e-05
-5.58902e-07
6.77482e-06
-3.23574e-05
-1.71248e-08
4.41632e-06
-2.94919e-05
3.42474e-07
2.11913e-06
-2.70308e-05
5.71408e-07
-1.12447e-08
-2.49771e-05
5.97963e-07
-1.90397e-06
-2.33002e-05
4.20805e-07
-3.47434e-06
-2.19471e-05
8.08007e-08
-4.50736e-06
-2.08486e-05
-4.84683e-07
-4.82982e-06
-1.99576e-05
-1.18633e-06
-4.30602e-06
-1.92379e-05
-1.96571e-06
-2.98213e-06