/*--------------------------------*- C++ -*----------------------------------*\
| =========                 |                                                 |
| \\      /  F ield         | OpenFOAM: The Open Source CFD Toolbox           |
|  \\    /   O peration     | Version:  v2006                                 |
|   \\  /    A nd           | Website:  www.openfoam.com                      |
|    \\/     M anipulation  |                                                 |
\*---------------------------------------------------------------------------*/
FoamFile
{
    version     2.0;
    format      ascii;
    class       volVectorField;
    location    "95";
    object      U;
}
// * * * * * * * * * * * * * * * * * * * * * * * * * * * * * * * * * * * * * //

dimensions      [0 1 -1 0 0 0 0];


internalField   nonuniform List<vector> 
78750
(
(-0.407109 -0.236306 -0.0582644)
(-0.354214 -0.222971 -0.0515208)
(-0.346317 -0.197182 -0.0390638)
(-0.28264 -0.169228 -0.0232421)
(-0.217826 -0.148743 -0.0138855)
(-0.23616 -0.139696 -0.0129635)
(-0.190082 -0.128379 -0.0090218)
(-0.179813 -0.121159 -0.00827222)
(-0.15384 -0.113142 -0.0064561)
(-0.138492 -0.10644 -0.00562784)
(-0.121079 -0.100106 -0.00485725)
(-0.106863 -0.0942587 -0.00443504)
(-0.0936425 -0.0887216 -0.00418027)
(-0.0818284 -0.0834681 -0.00406452)
(-0.0711851 -0.0784324 -0.00399432)
(-0.0615854 -0.0735957 -0.00388368)
(-0.0529232 -0.0689594 -0.00364423)
(-0.0451118 -0.0645426 -0.00318621)
(-0.0381017 -0.060364 -0.00241131)
(-0.0317774 -0.0564344 -0.00124877)
(-0.0259932 -0.0528004 0.000304703)
(-0.020739 -0.0495725 0.00223953)
(-0.0159874 -0.0468626 0.00456624)
(-0.0116255 -0.0447587 0.00730062)
(-0.00755831 -0.0433296 0.0104392)
(-0.00369945 -0.0425887 0.013957)
(2.86204e-05 -0.042448 0.0178148)
(0.00368254 -0.0426906 0.0219634)
(0.00728028 -0.0429572 0.026348)
(0.0107854 -0.0427403 0.0309075)
(0.0140344 -0.0413683 0.0355689)
(0.0166177 -0.0379804 0.0401103)
(0.0180599 -0.0313121 0.0440865)
(0.018479 -0.0157622 0.0468853)
(0.0116332 0.0360564 0.0346789)
(0.0448019 -0.25098 0.0280769)
(-0.0458035 -0.237118 0.0154534)
(-0.00792174 -0.260576 -0.0012476)
(-0.0288184 -0.270799 -0.0162676)
(-0.0416222 -0.229841 -0.0230016)
(-0.0422215 -0.198474 -0.0254042)
(-0.0480364 -0.178311 -0.0272407)
(-0.0480052 -0.162776 -0.0276976)
(-0.0482807 -0.150011 -0.0275087)
(-0.0469289 -0.139226 -0.0267839)
(-0.0450424 -0.13006 -0.0257397)
(-0.0425038 -0.122085 -0.0244371)
(-0.039496 -0.115001 -0.0229406)
(-0.0361055 -0.108606 -0.0213012)
(-0.0324032 -0.102752 -0.0195638)
(-0.0284499 -0.0973397 -0.0177678)
(-0.0242965 -0.0923068 -0.0159454)
(-0.019992 -0.0876206 -0.0141203)
(-0.0155846 -0.0832692 -0.012303)
(-0.0111176 -0.0792515 -0.0104908)
(-0.00663626 -0.0755605 -0.00866787)
(-0.00220018 -0.0721888 -0.0068064)
(0.00210882 -0.0691345 -0.00486252)
(0.00624065 -0.0663527 -0.00275908)
(0.0101322 -0.0638037 -0.000407879)
(0.0136669 -0.0614784 0.00227135)
(0.016739 -0.0593197 0.00536448)
(0.0192519 -0.0571722 0.00896339)
(0.0210896 -0.0547553 0.0131441)
(0.022148 -0.0516233 0.0179426)
(0.0224325 -0.0469041 0.0237215)
(0.0218764 -0.0385178 0.0316537)
(0.0198492 -0.0199976 0.0440598)
(0.0150751 0.0329468 0.0619672)
(0.00639289 0.156385 0.0541547)
(-0.0173919 -0.045638 -0.0123163)
(-0.0173819 -0.0657725 -0.0367876)
(-0.0274862 -0.0668525 -0.0475357)
(-0.0309292 -0.0678563 -0.0519343)
(-0.0333406 -0.0806273 -0.0531811)
(-0.0340384 -0.09391 -0.0536742)
(-0.0334104 -0.103736 -0.0537104)
(-0.0323928 -0.109935 -0.0532305)
(-0.0309563 -0.113078 -0.0522267)
(-0.0292464 -0.114075 -0.0508489)
(-0.0273552 -0.113832 -0.0492688)
(-0.0253447 -0.113016 -0.0476117)
(-0.0232292 -0.111948 -0.0459349)
(-0.0210087 -0.110734 -0.0442612)
(-0.018683 -0.10939 -0.0426014)
(-0.0162494 -0.107899 -0.040962)
(-0.0137042 -0.106225 -0.0393461)
(-0.0110462 -0.104325 -0.0377537)
(-0.00827934 -0.102156 -0.0361813)
(-0.00541488 -0.0996746 -0.0346241)
(-0.00247236 -0.0968476 -0.0330731)
(0.000518751 -0.0936536 -0.0315151)
(0.00351843 -0.0900872 -0.0299323)
(0.00647951 -0.0861519 -0.0283013)
(0.00934391 -0.0818401 -0.0265758)
(0.0120417 -0.0771268 -0.0246845)
(0.0144844 -0.0719619 -0.0225316)
(0.0165608 -0.0662449 -0.0199925)
(0.0181356 -0.0597746 -0.0168999)
(0.0190484 -0.0521476 -0.0130065)
(0.0191432 -0.0424924 -0.00789684)
(0.0182532 -0.0285772 -0.000588289)
(0.015796 -0.00301303 0.0115183)
(0.0103993 0.0619926 0.0325498)
(0.00331917 0.195117 0.0417104)
(-0.000150232 -0.0614099 0.0139066)
(-0.00119278 -0.0958764 2.20745e-05)
(0.00114959 -0.106491 -0.0131851)
(0.00509373 -0.109638 -0.0233731)
(0.00939481 -0.108777 -0.0316798)
(0.0130962 -0.106005 -0.0386744)
(0.0159439 -0.102555 -0.044505)
(0.0181432 -0.0989326 -0.0492616)
(0.0199044 -0.0953674 -0.0530401)
(0.0213572 -0.0920261 -0.0559139)
(0.0225765 -0.0890131 -0.0579495)
(0.0236018 -0.0863743 -0.0592251)
(0.0244447 -0.0841246 -0.0598343)
(0.0251049 -0.0822578 -0.0598777)
(0.0255833 -0.0807446 -0.0594544)
(0.0258875 -0.079531 -0.0586557)
(0.0260322 -0.0785409 -0.0575594)
(0.0260388 -0.0776799 -0.0562287)
(0.0259345 -0.0768397 -0.0547118)
(0.025751 -0.0759025 -0.053044)
(0.0255221 -0.0747449 -0.0512496)
(0.0252815 -0.073241 -0.0493428)
(0.025057 -0.0712659 -0.0473265)
(0.0248655 -0.0686978 -0.045196)
(0.0247121 -0.0654037 -0.0429241)
(0.0245832 -0.0612233 -0.0404363)
(0.0244357 -0.0559622 -0.0375974)
(0.0241921 -0.0493343 -0.0342101)
(0.0237396 -0.0408875 -0.0299926)
(0.0229253 -0.0298648 -0.0245128)
(0.0215573 -0.0147679 -0.0170355)
(0.0193571 0.00807964 -0.00614467)
(0.0155686 0.0493138 0.0105974)
(0.00911925 0.132495 0.0319379)
(0.00167541 0.24315 0.0371026)
(-0.000627777 -0.0478531 0.00733175)
(-0.00188761 -0.0712989 -0.00313189)
(-0.00271684 -0.0807879 -0.0106981)
(-0.00334978 -0.0851704 -0.016774)
(-0.00373278 -0.0865282 -0.0223371)
(-0.00381423 -0.0858992 -0.0278903)
(-0.00358279 -0.0839953 -0.0334764)
(-0.00306129 -0.0813078 -0.0389783)
(-0.00226925 -0.0781714 -0.0442734)
(-0.00122379 -0.0748198 -0.0492525)
(5.12271e-05 -0.0714136 -0.0538255)
(0.00152315 -0.0680608 -0.0579222)
(0.00315178 -0.0648311 -0.0614909)
(0.00489056 -0.0617665 -0.0644971)
(0.00668849 -0.0588897 -0.066921)
(0.00849255 -0.0562083 -0.0687554)
(0.0102506 -0.0537175 -0.0700049)
(0.0119141 -0.0513997 -0.0706851)
(0.0134407 -0.049222 -0.0708217)
(0.0147968 -0.0471341 -0.0704505)
(0.015958 -0.0450647 -0.0696162)
(0.0169105 -0.0429191 -0.0683707)
(0.0176502 -0.0405772 -0.0667708)
(0.0181798 -0.0378922 -0.0648721)
(0.0185057 -0.0346871 -0.0627252)
(0.0186429 -0.0307424 -0.0603609)
(0.0186182 -0.0257463 -0.0576949)
(0.0184143 -0.0192933 -0.0544829)
(0.0179761 -0.0108739 -0.050391)
(0.0172258 0.000292526 -0.0449059)
(0.0160668 0.0158453 -0.0369907)
(0.0143079 0.040026 -0.0243823)
(0.0114551 0.0850929 -0.00301505)
(0.00726399 0.173459 0.0247237)
(0.00178199 0.272094 0.0329909)
(-0.00106065 -0.0354189 0.00214604)
(-0.0019796 -0.0526616 -0.00735601)
(-0.00229875 -0.0587331 -0.0130472)
(-0.00246384 -0.0609829 -0.0178592)
(-0.00262879 -0.0611982 -0.0227846)
(-0.00285124 -0.060303 -0.0277279)
(-0.00311301 -0.0587972 -0.0325903)
(-0.00335201 -0.0570021 -0.037296)
(-0.00349579 -0.0551061 -0.0417834)
(-0.00347822 -0.0532061 -0.0459996)
(-0.00324603 -0.0513375 -0.0498996)
(-0.00276161 -0.0494993 -0.0534457)
(-0.00200476 -0.0476672 -0.0566071)
(-0.00097373 -0.0458063 -0.0593588)
(0.000315512 -0.0438792 -0.0616816)
(0.00183108 -0.0418502 -0.0635616)
(0.0035277 -0.0396867 -0.0649911)
(0.00534989 -0.0373578 -0.0659699)
(0.00723564 -0.0348326 -0.0665062)
(0.00912033 -0.0320761 -0.0666184)
(0.0109408 -0.0290461 -0.0663359)
(0.0126389 -0.0256886 -0.0656992)
(0.0141648 -0.0219343 -0.0647588)
(0.0154796 -0.0176946 -0.0635731)
(0.0165573 -0.0128572 -0.0622031)
(0.0173839 -0.00728376 -0.0607062)
(0.0179578 -0.000774939 -0.0591214)
(0.0182887 0.00720112 -0.0573073)
(0.0183338 0.0175699 -0.0549296)
(0.0179644 0.0313578 -0.0515668)
(0.0170155 0.0501903 -0.0464187)
(0.015223 0.0784437 -0.0372644)
(0.0118041 0.12891 -0.0184276)
(0.00682227 0.220196 0.0115006)
(0.00142123 0.302488 0.0265029)
(-0.000297425 -0.0559486 -0.00528739)
(-0.000677981 -0.0714687 -0.0134779)
(-0.000851648 -0.0751617 -0.0174637)
(-0.00103637 -0.0748837 -0.0204328)
(-0.00126816 -0.0722715 -0.0231049)
(-0.00156932 -0.0683576 -0.0256612)
(-0.0019338 -0.0638212 -0.0282353)
(-0.0023204 -0.0591418 -0.0309131)
(-0.0026696 -0.0546287 -0.0337317)
(-0.0029196 -0.0504534 -0.0366886)
(-0.00303454 -0.0466765 -0.0397422)
(-0.0029798 -0.0432815 -0.0428234)
(-0.0027084 -0.040201 -0.0458587)
(-0.002193 -0.0373441 -0.0487721)
(-0.0014251 -0.0346073 -0.0514886)
(-0.000412658 -0.0318882 -0.0539374)
(0.00082139 -0.0290935 -0.0560551)
(0.00224063 -0.0261419 -0.0577879)
(0.00379743 -0.022964 -0.0590945)
(0.00543587 -0.0194984 -0.0599489)
(0.00709524 -0.0156879 -0.0603432)
(0.00871395 -0.0114729 -0.0602896)
(0.0102337 -0.00678621 -0.0598218)
(0.0116036 -0.00154768 -0.0589932)
(0.0127843 0.00434149 -0.0578735)
(0.0137504 0.0110008 -0.0565427)
(0.0144833 0.0186034 -0.055076)
(0.0149828 0.0277786 -0.0533889)
(0.0152502 0.0398308 -0.0511797)
(0.0151953 0.0564574 -0.0480863)
(0.0146745 0.0801943 -0.0435459)
(0.0133991 0.116682 -0.0359787)
(0.0104884 0.177906 -0.0210775)
(0.0061234 0.270077 0.00325142)
(0.00113939 0.331395 0.0196213)
(0.000174913 -0.0524435 -0.0234564)
(-0.000815924 -0.069927 -0.0366053)
(-0.00156699 -0.0742912 -0.040393)
(-0.00235111 -0.0743058 -0.0419117)
(-0.00317412 -0.0718319 -0.0423201)
(-0.00396766 -0.0679671 -0.0421027)
(-0.00473936 -0.0634068 -0.0416413)
(-0.00546397 -0.0586268 -0.0412149)
(-0.00609297 -0.0539226 -0.0410097)
(-0.00657282 -0.0494543 -0.0411339)
(-0.0068514 -0.0452813 -0.041633)
(-0.00687817 -0.0413892 -0.0425056)
(-0.00664793 -0.037718 -0.0437131)
(-0.00616359 -0.034185 -0.0451772)
(-0.0054029 -0.030694 -0.0468133)
(-0.00436473 -0.0271532 -0.04853)
(-0.00306484 -0.0234755 -0.0502326)
(-0.00153211 -0.0195822 -0.0518276)
(0.000192893 -0.0154052 -0.0532271)
(0.00205862 -0.0108851 -0.0543545)
(0.00400422 -0.00596888 -0.0551498)
(0.00596223 -0.000605468 -0.0555758)
(0.00786274 0.00525813 -0.0556223)
(0.00963982 0.0116812 -0.0553085)
(0.0112403 0.0187335 -0.0546807)
(0.0126236 0.0264937 -0.0538098)
(0.0136994 0.0350824 -0.0527773)
(0.0144604 0.0453007 -0.0514841)
(0.014895 0.0585981 -0.0496583)
(0.0149028 0.0766195 -0.0469985)
(0.014412 0.102598 -0.0428743)
(0.0131943 0.144427 -0.0355948)
(0.0103433 0.2172 -0.0214498)
(0.0063379 0.313932 -0.000882159)
(0.00142386 0.357974 0.0144781)
(0.000415555 -0.074709 -0.0276854)
(-0.000440026 -0.0933567 -0.0424955)
(-0.00113083 -0.0958891 -0.0460048)
(-0.00182651 -0.0937999 -0.0466868)
(-0.00258019 -0.0889396 -0.0458556)
(-0.00334492 -0.0826424 -0.0441277)
(-0.00412278 -0.0757673 -0.042002)
(-0.00489011 -0.0688664 -0.0398452)
(-0.0055962 -0.0622566 -0.0379167)
(-0.0061941 -0.0560831 -0.0363806)
(-0.00664016 -0.0503764 -0.0353242)
(-0.00689435 -0.045095 -0.034776)
(-0.00691815 -0.0401546 -0.0347203)
(-0.00667235 -0.0354428 -0.0351108)
(-0.00616364 -0.0308402 -0.0358796)
(-0.0054061 -0.0262359 -0.0369281)
(-0.00438497 -0.0215267 -0.0381582)
(-0.00310508 -0.0166215 -0.0394707)
(-0.00158774 -0.011439 -0.04077)
(0.000133653 -0.00590776 -0.0419686)
(0.00201469 3.58584e-05 -0.0429926)
(0.00400028 0.00644991 -0.0437862)
(0.00602876 0.013389 -0.0443169)
(0.00804076 0.0209059 -0.0445795)
(0.00998416 0.02905 -0.0446004)
(0.0117601 0.0378825 -0.0444323)
(0.0132731 0.0478411 -0.044099)
(0.0145092 0.0599553 -0.0435221)
(0.0153527 0.0754934 -0.0426142)
(0.0156757 0.096182 -0.0412321)
(0.0153545 0.125739 -0.0388817)
(0.0140602 0.173229 -0.0337934)
(0.0107926 0.255772 -0.0210998)
(0.0066704 0.356099 -0.00197538)
(0.00160568 0.384833 0.0125981)
(0.000889792 -0.0855601 -0.0302515)
(-9.71243e-05 -0.104986 -0.0471137)
(-0.0011474 -0.107698 -0.0505723)
(-0.00229309 -0.105655 -0.0504511)
(-0.00349122 -0.100597 -0.0481861)
(-0.00459239 -0.0938764 -0.0446548)
(-0.00558578 -0.0865273 -0.0406733)
(-0.00643968 -0.0791272 -0.0367971)
(-0.00710526 -0.0718896 -0.0332974)
(-0.00754954 -0.0649453 -0.0303607)
(-0.00776477 -0.0583309 -0.0280788)
(-0.00775742 -0.0520303 -0.0264744)
(-0.00752829 -0.0459872 -0.0255191)
(-0.00706928 -0.0401248 -0.0251502)
(-0.00637072 -0.0343592 -0.0252818)
(-0.00543889 -0.0285989 -0.0258158)
(-0.00429231 -0.0227602 -0.0266324)
(-0.00293819 -0.0167636 -0.0276176)
(-0.0013793 -0.0105334 -0.0286679)
(0.000368632 -0.00400329 -0.0296923)
(0.00227937 0.00289006 -0.0306152)
(0.00431849 0.0102067 -0.03138)
(0.00644726 0.0180011 -0.0319523)
(0.00862976 0.0263159 -0.0323246)
(0.0108087 0.0351789 -0.0325184)
(0.0128682 0.0447764 -0.0325777)
(0.0147862 0.0558285 -0.0324898)
(0.0165038 0.0693946 -0.0322281)
(0.0178561 0.0866952 -0.0318013)
(0.0186877 0.110077 -0.0312175)
(0.0187139 0.144633 -0.030408)
(0.0171944 0.201651 -0.028575)
(0.0123718 0.297663 -0.0209766)
(0.00706835 0.399653 -0.0062839)
(0.00161384 0.412689 0.00732035)
(0.000753832 -0.108023 -0.011861)
(0.000388523 -0.132022 -0.0342606)
(-0.000355348 -0.133956 -0.0400873)
(-0.00123504 -0.130108 -0.0395504)
(-0.00226559 -0.122654 -0.0351235)
(-0.00340045 -0.113588 -0.0285717)
(-0.00453443 -0.104643 -0.0218165)
(-0.00549521 -0.0964786 -0.0160102)
(-0.00616918 -0.0889553 -0.011427)
(-0.00653128 -0.0816132 -0.00787822)
(-0.00657406 -0.0742143 -0.00523469)
(-0.00630739 -0.0668275 -0.00350743)
(-0.00577261 -0.059493 -0.00265672)
(-0.00501132 -0.0522007 -0.00258283)
(-0.00405713 -0.0449328 -0.00315564)
(-0.0029343 -0.0376638 -0.00423015)
(-0.00165632 -0.0303566 -0.0056578)
(-0.000223684 -0.0229632 -0.00729743)
(0.00132673 -0.015429 -0.00902148)
(0.00295758 -0.0076931 -0.0107164)
(0.00467445 0.000307851 -0.0122952)
(0.00647313 0.00863823 -0.0136963)
(0.00834775 0.0173566 -0.014882)
(0.0102902 0.0264979 -0.0158407)
(0.0122225 0.0360729 -0.0165771)
(0.0141084 0.0465203 -0.0171152)
(0.0159406 0.0586966 -0.0174682)
(0.0176037 0.0736098 -0.0176495)
(0.0189584 0.0929758 -0.0176694)
(0.0197717 0.120253 -0.0175473)
(0.0195881 0.163256 -0.0173577)
(0.0174556 0.238622 -0.0168052)
(0.0112593 0.358723 -0.0114311)
(0.00575257 0.452586 -0.00119604)
(0.00146525 0.443539 0.00797919)
(0.000217308 -0.13012 -0.0257875)
(-0.00188278 -0.161471 -0.0696158)
(-0.0037075 -0.162085 -0.0801527)
(-0.00559443 -0.15644 -0.0780946)
(-0.00742749 -0.147243 -0.0677847)
(-0.00885101 -0.137059 -0.0518019)
(-0.00972324 -0.128027 -0.0341842)
(-0.00998189 -0.12046 -0.0183218)
(-0.00964077 -0.113611 -0.00566799)
(-0.00879138 -0.106768 0.0037745)
(-0.00757022 -0.0995346 0.0105283)
(-0.00609821 -0.0917766 0.0150988)
(-0.00448451 -0.0835011 0.017864)
(-0.00280405 -0.0747854 0.0191161)
(-0.00112499 -0.0657362 0.0191294)
(0.000527061 -0.056473 0.0181706)
(0.00214191 -0.0470895 0.0165089)
(0.0037222 -0.0376316 0.0143993)
(0.00527423 -0.02812 0.0120684)
(0.00680515 -0.0185505 0.00970578)
(0.00832717 -0.00888983 0.00745301)
(0.00984689 0.000898577 0.00540818)
(0.0113406 0.0108313 0.00363497)
(0.0127898 0.0209765 0.00215874)
(0.0141922 0.0316082 0.000963942)
(0.0155519 0.0432537 3.28021e-05)
(0.0168407 0.0567538 -0.000672993)
(0.0180134 0.0734814 -0.00120065)
(0.018956 0.0959345 -0.00162906)
(0.0193821 0.12919 -0.00220163)
(0.0186325 0.183824 -0.00382847)
(0.0155558 0.277212 -0.00813675)
(0.00879578 0.409035 -0.00946586)
(0.00396783 0.484662 -0.003687)
(0.00146035 0.460069 0.003201)
(-0.0021457 -0.142379 -0.016468)
(-0.0088872 -0.182337 -0.0592904)
(-0.0140427 -0.184014 -0.071248)
(-0.0189848 -0.180557 -0.0706539)
(-0.0232336 -0.17614 -0.0627427)
(-0.0257624 -0.173084 -0.0482211)
(-0.0261647 -0.1718 -0.0289562)
(-0.0245725 -0.170623 -0.0085336)
(-0.0214269 -0.167448 0.0100482)
(-0.0172097 -0.161277 0.0255074)
(-0.0123535 -0.152201 0.0375614)
(-0.00722465 -0.14083 0.0463061)
(-0.0021371 -0.127882 0.0519559)
(0.00262622 -0.114081 0.054772)
(0.00686175 -0.0999812 0.0551411)
(0.0104198 -0.0859625 0.0535551)
(0.0132438 -0.0722984 0.0505407)
(0.0153624 -0.0591122 0.0466087)
(0.0168582 -0.0464235 0.0422175)
(0.0178489 -0.0341959 0.0377504)
(0.0184672 -0.0223593 0.0334983)
(0.0188306 -0.0108279 0.0296563)
(0.019016 0.000504245 0.0263371)
(0.0190952 0.0118054 0.0235985)
(0.0191032 0.0233881 0.0214389)
(0.0190257 0.0358128 0.0198323)
(0.018847 0.0500261 0.0187492)
(0.0185516 0.0677094 0.0181836)
(0.0180824 0.0922578 0.0181807)
(0.0172446 0.131286 0.0187908)
(0.0155785 0.201277 0.0193553)
(0.0122954 0.323035 0.0158634)
(0.006342 0.467439 0.00778036)
(0.00224726 0.521848 0.00745255)
(0.000938704 0.479199 0.0101608)
(-0.0037585 -0.115567 -0.00723653)
(-0.014659 -0.160487 -0.0565187)
(-0.0231549 -0.165625 -0.0657704)
(-0.0310958 -0.170448 -0.0582095)
(-0.0373527 -0.181678 -0.046191)
(-0.0413623 -0.200312 -0.0312084)
(-0.0429759 -0.221597 -0.0138613)
(-0.0422132 -0.239754 0.00446581)
(-0.0394339 -0.250854 0.0224885)
(-0.0349833 -0.253846 0.0397805)
(-0.0291096 -0.249178 0.0559881)
(-0.0221169 -0.237843 0.0705164)
(-0.0141896 -0.220816 0.0828808)
(-0.0057022 -0.199321 0.0922552)
(0.00286313 -0.17478 0.0980671)
(0.0111495 -0.148502 0.100107)
(0.0186413 -0.122068 0.0984518)
(0.0248865 -0.0966997 0.0935921)
(0.0295898 -0.0732035 0.0863231)
(0.0325691 -0.0521664 0.0776496)
(0.0338252 -0.0337624 0.0686263)
(0.0335892 -0.0176747 0.0601075)
(0.0322577 -0.00326528 0.0525979)
(0.030237 0.0101826 0.0462799)
(0.0278414 0.0233501 0.041097)
(0.0252828 0.0369889 0.0369147)
(0.0226567 0.0521613 0.0335759)
(0.020005 0.0706556 0.0309287)
(0.0173319 0.0960908 0.0288627)
(0.0145671 0.136822 0.0274446)
(0.0116447 0.211234 0.0272167)
(0.00840089 0.341592 0.0282532)
(0.00425453 0.487321 0.0284445)
(0.0012736 0.530942 0.028803)
(0.000729597 0.476024 0.0272362)
(-0.00309686 -0.0940781 -0.0157902)
(-0.0111493 -0.147207 -0.0630065)
(-0.014773 -0.16352 -0.0681967)
(-0.0173163 -0.17995 -0.0587286)
(-0.0187339 -0.203636 -0.0475539)
(-0.0198413 -0.235583 -0.0361303)
(-0.0212455 -0.270107 -0.0249155)
(-0.0228945 -0.301259 -0.0138687)
(-0.0246342 -0.324766 -0.00232087)
(-0.0259941 -0.339334 0.0105677)
(-0.0266966 -0.345794 0.0254039)
(-0.0263591 -0.345255 0.0420224)
(-0.0244918 -0.338296 0.060245)
(-0.0207682 -0.324622 0.0791687)
(-0.0149913 -0.303877 0.0977606)
(-0.00718837 -0.275709 0.114981)
(0.00218508 -0.241288 0.128954)
(0.0124028 -0.202172 0.138258)
(0.0227549 -0.159826 0.141951)
(0.0323639 -0.116393 0.139427)
(0.0401971 -0.074935 0.13093)
(0.0453329 -0.0385925 0.118044)
(0.0472182 -0.0093688 0.103484)
(0.0459777 0.0130106 0.0899015)
(0.0423198 0.0308194 0.0786326)
(0.0371459 0.0467425 0.0698166)
(0.0312755 0.0628722 0.0630954)
(0.02529 0.0812686 0.0580265)
(0.0194649 0.105643 0.0541135)
(0.013879 0.144933 0.0507617)
(0.00899034 0.219967 0.0472361)
(0.00595499 0.356276 0.0421914)
(0.00345506 0.502108 0.0343405)
(0.00102996 0.538902 0.0314831)
(0.000277286 0.470989 0.0292492)
(-0.00131016 -0.0854051 -0.0164245)
(-6.86261e-05 -0.152954 -0.0443669)
(0.00740958 -0.191921 -0.0506752)
(0.0168296 -0.221063 -0.0527079)
(0.0270684 -0.245016 -0.0540755)
(0.0363972 -0.265554 -0.055742)
(0.0429657 -0.283043 -0.0582582)
(0.0463242 -0.298711 -0.0609538)
(0.0460683 -0.3122 -0.0626845)
(0.0426309 -0.321947 -0.0628351)
(0.0360876 -0.328701 -0.0603349)
(0.0268469 -0.334599 -0.0538797)
(0.0163675 -0.342139 -0.0428295)
(0.00603096 -0.350254 -0.0263568)
(-0.00249721 -0.355852 -0.00512049)
(-0.00820284 -0.354941 0.0209457)
(-0.0103895 -0.34499 0.0500168)
(-0.00896646 -0.324871 0.0799991)
(-0.00404935 -0.293172 0.108956)
(0.00384832 -0.249593 0.134122)
(0.0138783 -0.195085 0.152277)
(0.0247604 -0.132494 0.160199)
(0.0347791 -0.0673632 0.155841)
(0.0419313 -0.00789196 0.140458)
(0.0446928 0.0384606 0.119701)
(0.0426745 0.0702311 0.100634)
(0.0370732 0.092839 0.086264)
(0.0296628 0.112857 0.0758459)
(0.0217526 0.135399 0.0682047)
(0.0141766 0.167358 0.0627615)
(0.0075552 0.225394 0.0602141)
(0.00364968 0.340202 0.0638205)
(0.003052 0.486613 0.0721652)
(0.00244451 0.527533 0.072919)
(0.00204396 0.461227 0.0619822)
(-0.000231563 -0.111405 -0.00171086)
(0.00924842 -0.234719 -0.00249606)
(0.0242346 -0.309516 0.00334302)
(0.0403593 -0.355458 0.00717221)
(0.0559798 -0.381783 0.00816618)
(0.0700731 -0.393365 0.00636154)
(0.0820022 -0.393227 0.00215689)
(0.0910702 -0.383053 -0.00411073)
(0.0969217 -0.364057 -0.0122217)
(0.0991926 -0.337182 -0.0222001)
(0.0974217 -0.303935 -0.034517)
(0.0911629 -0.269928 -0.0493689)
(0.0807804 -0.245968 -0.0649532)
(0.0676229 -0.23961 -0.0773527)
(0.0529847 -0.249773 -0.0826551)
(0.0383782 -0.270411 -0.078663)
(0.0250087 -0.294063 -0.064736)
(0.0136824 -0.31426 -0.0412822)
(0.00531319 -0.326358 -0.00928186)
(0.000618234 -0.326053 0.0299763)
(0.00020064 -0.309262 0.0739587)
(0.00422044 -0.272485 0.118096)
(0.0121338 -0.213866 0.155536)
(0.0224585 -0.13541 0.177607)
(0.0323338 -0.0466621 0.176721)
(0.0385857 0.0340143 0.155229)
(0.039044 0.0920622 0.127823)
(0.0343513 0.129438 0.10656)
(0.0270049 0.157793 0.0921597)
(0.0186938 0.188815 0.0807683)
(0.0107454 0.2372 0.0686762)
(0.00528488 0.32736 0.054936)
(0.00378631 0.450355 0.0472845)
(0.0036469 0.493497 0.0467163)
(0.00231889 0.443017 0.0415989)
(0.00234577 -0.171337 0.00503033)
(0.017364 -0.360695 0.0169009)
(0.0307231 -0.455066 0.01938)
(0.0420851 -0.497733 0.0166267)
(0.0507804 -0.512894 0.0116063)
(0.0569267 -0.511451 0.00531033)
(0.0604745 -0.497902 -0.00146217)
(0.0613668 -0.474323 -0.00770846)
(0.0597289 -0.44173 -0.012565)
(0.0560246 -0.40063 -0.015964)
(0.0511823 -0.351757 -0.0195479)
(0.0465627 -0.297847 -0.0268372)
(0.0430138 -0.247381 -0.0401779)
(0.0404541 -0.212403 -0.0565456)
(0.0384996 -0.195651 -0.0702779)
(0.0363314 -0.19029 -0.0803417)
(0.0329682 -0.192911 -0.0877242)
(0.027877 -0.203991 -0.0911904)
(0.0215168 -0.222072 -0.0877221)
(0.0145305 -0.243824 -0.0743523)
(0.00766931 -0.264492 -0.0479222)
(0.002165 -0.277134 -0.00594138)
(-0.000466349 -0.271218 0.0505186)
(0.00139402 -0.235286 0.113344)
(0.00811514 -0.162704 0.165539)
(0.0176562 -0.0609261 0.186852)
(0.0261233 0.0439763 0.171269)
(0.0297199 0.124671 0.138065)
(0.0278035 0.17628 0.110465)
(0.0229277 0.211513 0.0957266)
(0.0169197 0.249305 0.0900234)
(0.010984 0.317825 0.0872405)
(0.0065871 0.434108 0.0795969)
(0.00471491 0.494224 0.0703538)
(0.00285525 0.451266 0.0541432)
(0.00631566 -0.269431 0.0147767)
(0.0189584 -0.467851 0.0116901)
(0.023548 -0.52776 0.000120296)
(0.0241167 -0.53821 -0.0108287)
(0.0222951 -0.529145 -0.0218396)
(0.0184811 -0.507525 -0.0336626)
(0.0129574 -0.475689 -0.0451889)
(0.00605271 -0.435433 -0.0541963)
(-0.00188823 -0.389185 -0.058605)
(-0.010194 -0.341872 -0.0582867)
(-0.0173766 -0.301488 -0.0566994)
(-0.0212245 -0.274799 -0.0578652)
(-0.020852 -0.261169 -0.0610122)
(-0.0176185 -0.253907 -0.0640247)
(-0.0125953 -0.24876 -0.0665683)
(-0.00663416 -0.244196 -0.0686384)
(-0.000716818 -0.239628 -0.0702858)
(0.00444592 -0.23512 -0.0717193)
(0.00845414 -0.231147 -0.0730474)
(0.0107801 -0.228492 -0.0738518)
(0.0112495 -0.228144 -0.0730057)
(0.0102212 -0.231402 -0.0681225)
(0.00766948 -0.240833 -0.0499043)
(0.00503562 -0.249827 -0.00410002)
(0.00426707 -0.23629 0.0681663)
(0.00709023 -0.177241 0.143962)
(0.0132592 -0.0703918 0.185661)
(0.0191243 0.0487326 0.177781)
(0.0214604 0.144667 0.143527)
(0.0200035 0.213395 0.105515)
(0.0159688 0.266619 0.0759916)
(0.0105219 0.328295 0.0621003)
(0.00500368 0.420426 0.0629671)
(0.00246789 0.473996 0.0631423)
(0.00167998 0.441069 0.0519502)
(0.00443618 -0.352292 0.00110175)
(0.00341435 -0.477913 -0.01377)
(1.05627e-05 -0.490422 -0.0226321)
(-0.00425312 -0.482017 -0.0299276)
(-0.00917884 -0.463545 -0.0393137)
(-0.0137714 -0.437268 -0.0513204)
(-0.0175556 -0.405098 -0.0648519)
(-0.0202 -0.369245 -0.0779704)
(-0.0214943 -0.333764 -0.0886696)
(-0.0212922 -0.30612 -0.0955599)
(-0.0198123 -0.291206 -0.0987329)
(-0.0179264 -0.284347 -0.0994055)
(-0.0161688 -0.280195 -0.0986865)
(-0.0145394 -0.276607 -0.097294)
(-0.0129212 -0.272878 -0.0955348)
(-0.0111244 -0.2687 -0.0934279)
(-0.00896741 -0.263929 -0.0908247)
(-0.0063814 -0.258563 -0.0875305)
(-0.00344141 -0.252683 -0.0833998)
(-0.00029398 -0.246345 -0.0783229)
(0.00279909 -0.239637 -0.0722272)
(0.00531783 -0.232674 -0.0649177)
(0.00696128 -0.225161 -0.0550656)
(0.00731373 -0.217016 -0.0369882)
(0.00575165 -0.208534 0.00344775)
(0.00417331 -0.187531 0.0711569)
(0.00542984 -0.126212 0.143562)
(0.00983127 -0.018899 0.178765)
(0.013646 0.0934476 0.170352)
(0.0148259 0.184636 0.148551)
(0.014079 0.263946 0.120574)
(0.0115026 0.343731 0.0876258)
(0.00665686 0.427517 0.0645273)
(0.00311193 0.471196 0.0543469)
(0.00162606 0.43529 0.0401388)
(-0.00239863 -0.34481 0.00433372)
(-0.00606336 -0.448492 0.00756701)
(-0.00641585 -0.467968 0.0102437)
(-0.00576031 -0.470046 0.0115161)
(-0.00440153 -0.463543 0.0112789)
(-0.00255142 -0.450313 0.00843017)
(-0.000402037 -0.431568 0.00166778)
(0.00201364 -0.408738 -0.00981596)
(0.0048258 -0.383289 -0.0256433)
(0.00780159 -0.356465 -0.0440336)
(0.0102256 -0.330047 -0.062478)
(0.0115487 -0.307049 -0.0788943)
(0.0117229 -0.289577 -0.0921472)
(0.0111384 -0.27727 -0.102181)
(0.0102234 -0.268461 -0.109682)
(0.00926993 -0.26165 -0.115358)
(0.00845602 -0.255867 -0.119498)
(0.00788585 -0.250602 -0.12191)
(0.00758763 -0.245654 -0.122178)
(0.00750726 -0.24085 -0.120012)
(0.00756276 -0.236 -0.115121)
(0.00765218 -0.230963 -0.107004)
(0.00771004 -0.225592 -0.0946311)
(0.00757374 -0.219463 -0.0753007)
(0.00684636 -0.211477 -0.042867)
(0.00511628 -0.197671 0.0122641)
(0.00349965 -0.162822 0.0893095)
(0.00480303 -0.0809941 0.155544)
(0.00883098 0.0404831 0.163155)
(0.0108415 0.147762 0.131529)
(0.00995754 0.230933 0.110873)
(0.00809718 0.324342 0.0921821)
(0.004257 0.428516 0.0635449)
(0.000907891 0.476461 0.0459639)
(4.8871e-06 0.434014 0.0304975)
(-0.00301417 -0.319507 -0.0149594)
(6.9849e-05 -0.46444 -0.0240459)
(0.00482977 -0.497805 -0.0261455)
(0.0100518 -0.505275 -0.0261692)
(0.0153193 -0.500834 -0.0248033)
(0.019757 -0.486473 -0.0224181)
(0.022628 -0.463506 -0.0192588)
(0.0236106 -0.434511 -0.0158674)
(0.0227933 -0.40246 -0.014128)
(0.0206407 -0.369478 -0.0168014)
(0.0178006 -0.336968 -0.0257207)
(0.0148185 -0.306959 -0.0402094)
(0.0119733 -0.282058 -0.0573325)
(0.00937457 -0.263206 -0.0742914)
(0.00707212 -0.249135 -0.0901159)
(0.00508705 -0.237974 -0.105079)
(0.00348497 -0.228386 -0.119342)
(0.002391 -0.219612 -0.132008)
(0.00189551 -0.211163 -0.141498)
(0.00197227 -0.202662 -0.146907)
(0.00251185 -0.193927 -0.148207)
(0.00334173 -0.185022 -0.145443)
(0.00422685 -0.176238 -0.138282)
(0.00485599 -0.167894 -0.125411)
(0.00492684 -0.160486 -0.103164)
(0.00405254 -0.154379 -0.0631104)
(0.00207548 -0.144936 0.00685426)
(0.000729897 -0.110184 0.104395)
(0.00274807 -0.0161505 0.182664)
(0.00713412 0.124802 0.176937)
(0.00745235 0.247143 0.121394)
(0.00292172 0.343357 0.0977009)
(-0.0011895 0.43564 0.0868578)
(-0.00287935 0.474268 0.0722404)
(-0.00102037 0.423815 0.0485285)
(0.000924472 -0.329558 -0.0224828)
(0.00738825 -0.488903 -0.0305946)
(0.0115946 -0.520815 -0.0341113)
(0.0150906 -0.524036 -0.0374425)
(0.0179765 -0.51388 -0.0422326)
(0.0196583 -0.491266 -0.0495213)
(0.019653 -0.458678 -0.0571621)
(0.0181707 -0.421415 -0.0602788)
(0.0156685 -0.383724 -0.0570063)
(0.0124181 -0.348396 -0.0502484)
(0.00877529 -0.317298 -0.0447654)
(0.00509664 -0.29087 -0.0439153)
(0.00158969 -0.268634 -0.0485278)
(-0.00158754 -0.250122 -0.0578499)
(-0.0042961 -0.234793 -0.0709652)
(-0.00635901 -0.22174 -0.0877638)
(-0.00749158 -0.210219 -0.108672)
(-0.0073468 -0.200006 -0.132263)
(-0.00574379 -0.191181 -0.153551)
(-0.00311027 -0.183607 -0.168113)
(-9.50302e-05 -0.176558 -0.176357)
(0.00282703 -0.16907 -0.180333)
(0.00517874 -0.16037 -0.180919)
(0.00635972 -0.150067 -0.177605)
(0.0058959 -0.138449 -0.168774)
(0.00366546 -0.126291 -0.151034)
(-0.000402772 -0.114256 -0.115013)
(-0.00605575 -0.0986898 -0.040429)
(-0.0104208 -0.0547723 0.0767692)
(-0.00952584 0.0574334 0.171481)
(-0.00399831 0.223299 0.161611)
(-0.00152553 0.359911 0.0888284)
(-0.00152918 0.432805 0.0582165)
(-0.00203905 0.45063 0.0488447)
(-0.000901798 0.389564 0.0353303)
(0.00362723 -0.354164 -0.0222767)
(0.00740422 -0.497755 -0.00864283)
(0.00826423 -0.518577 -0.00442268)
(0.00822917 -0.515415 -0.0052906)
(0.00740207 -0.49782 -0.0120312)
(0.00507624 -0.463456 -0.0287848)
(0.0013552 -0.421023 -0.0522866)
(-0.00242603 -0.38278 -0.0704325)
(-0.00530005 -0.35069 -0.0775171)
(-0.00735812 -0.321688 -0.0757224)
(-0.00903354 -0.294403 -0.0693076)
(-0.0107913 -0.269933 -0.0628453)
(-0.0128856 -0.249469 -0.059453)
(-0.0152854 -0.232964 -0.0601907)
(-0.0178574 -0.219634 -0.0651654)
(-0.0204734 -0.2086 -0.0749443)
(-0.0230091 -0.199177 -0.0912329)
(-0.0250584 -0.1908 -0.115063)
(-0.0255779 -0.182411 -0.142287)
(-0.0238988 -0.172974 -0.165243)
(-0.0205695 -0.161032 -0.180981)
(-0.015961 -0.144474 -0.19172)
(-0.0100557 -0.121146 -0.198756)
(-0.00329211 -0.0911815 -0.200795)
(0.0028013 -0.0600182 -0.19539)
(0.00657133 -0.0344969 -0.181179)
(0.00726918 -0.015419 -0.15865)
(0.00492031 -0.00193433 -0.12353)
(0.000247998 0.00900883 -0.0611215)
(-0.0030968 0.0390332 0.0446686)
(-0.000537354 0.138207 0.155856)
(0.00613072 0.303283 0.171231)
(0.00805277 0.420545 0.113554)
(0.00601995 0.456262 0.0754066)
(0.0026664 0.384839 0.0446615)
(0.00233701 -0.382806 0.0129931)
(0.00381015 -0.501697 0.0463667)
(0.00412631 -0.514748 0.0544007)
(0.00351806 -0.505743 0.0552863)
(0.00166134 -0.47629 0.0483391)
(-0.00241106 -0.4246 0.0266428)
(-0.00770813 -0.370934 -0.00749924)
(-0.0121485 -0.33348 -0.0372853)
(-0.0148526 -0.310287 -0.0539252)
(-0.0161341 -0.292867 -0.0609198)
(-0.016333 -0.276093 -0.0619937)
(-0.0156581 -0.258265 -0.0593341)
(-0.0146786 -0.240323 -0.0553752)
(-0.0140254 -0.223906 -0.0523026)
(-0.0140532 -0.209741 -0.0511426)
(-0.014774 -0.197858 -0.0521436)
(-0.0159774 -0.188075 -0.0557098)
(-0.0175537 -0.179904 -0.0636988)
(-0.0195729 -0.173984 -0.0814732)
(-0.02146 -0.17321 -0.112378)
(-0.0217354 -0.173902 -0.142203)
(-0.0200655 -0.168892 -0.163725)
(-0.0165426 -0.156763 -0.180468)
(-0.0106456 -0.135419 -0.191684)
(-0.00229986 -0.103287 -0.196213)
(0.00720585 -0.0623394 -0.193997)
(0.0157289 -0.0192087 -0.185161)
(0.0209601 0.0170589 -0.170091)
(0.0220128 0.0427468 -0.146554)