/*--------------------------------*- C++ -*----------------------------------*\
| =========                 |                                                 |
| \\      /  F ield         | OpenFOAM: The Open Source CFD Toolbox           |
|  \\    /   O peration     | Version:  v2006                                 |
|   \\  /    A nd           | Website:  www.openfoam.com                      |
|    \\/     M anipulation  |                                                 |
\*---------------------------------------------------------------------------*/
FoamFile
{
    version     2.0;
    format      ascii;
    class       volScalarField;
    location    "6";
    object      omega;
}
// * * * * * * * * * * * * * * * * * * * * * * * * * * * * * * * * * * * * * //

dimensions      [0 0 -1 0 0 0 0];


internalField   nonuniform List<scalar> 
78750
(
380.899
16.7768
15.7867
15.4484
15.435
15.3428
15.2809
15.2262
15.1783
15.136
15.0989
15.0662
15.0369
15.0103
14.9859
14.9634
14.9427
14.9233
14.9048
14.8869
14.8686
14.8493
14.8281
14.8036
14.7744
14.7384
14.6931
14.6351
14.56
14.4624
14.3367
14.1784
13.9928
13.8293
357.927
532.379
6.78306
7.1707
7.10737
6.91626
6.74039
6.60872
6.51105
6.43594
6.37971
6.33976
6.31205
6.29357
6.28089
6.2729
6.26939
6.27015
6.27541
6.28418
6.29565
6.30834
6.32129
6.33301
6.34194
6.34497
6.33916
6.32109
6.28565
6.22432
6.1228
5.9588
5.70409
5.34847
4.93302
525.339
532.914
5.69758
5.81387
5.73721
5.64802
5.59395
5.56179
5.54309
5.52998
5.52197
5.51821
5.51895
5.52519
5.53731
5.55492
5.57743
5.60426
5.63483
5.66875
5.7046
5.74143
5.77852
5.81542
5.85129
5.88431
5.91219
5.93163
5.93736
5.92082
5.86846
5.76045
5.57519
5.30887
4.96995
526.346
532.951
5.55956
5.76715
5.86925
5.90977
5.92104
5.91139
5.88295
5.8413
5.79486
5.74766
5.70355
5.66854
5.64592
5.63591
5.63753
5.64937
5.66983
5.69743
5.73093
5.76891
5.80984
5.85205
5.89359
5.93199
5.96421
5.98629
5.99248
5.97416
5.9185
5.8087
5.63128
5.39502
5.08389
526.417
533.02
5.47663
5.64585
5.75088
5.79863
5.78665
5.7244
5.62837
5.51781
5.41168
5.32566
5.2692
5.23933
5.23016
5.23871
5.262
5.29699
5.34112
5.39236
5.44909
5.50979
5.57272
5.63535
5.69687
5.75597
5.8074
5.84463
5.86076
5.84689
5.79219
5.68647
5.52702
5.32222
5.04505
527.088
532.92
5.43504
5.60948
5.71502
5.75515
5.72479
5.64553
5.54173
5.43082
5.32336
5.22801
5.15359
5.09489
5.04816
5.01695
5.00401
5.01053
5.03637
5.07989
5.13805
5.2062
5.28414
5.37172
5.46118
5.54623
5.62156
5.68109
5.71744
5.72155
5.68358
5.59665
5.46281
5.28961
5.03514
527.199
532.826
5.35409
5.52556
5.62643
5.67757
5.6678
5.60519
5.50492
5.38094
5.24395
5.10164
4.96208
4.83561
4.73619
4.67232
4.64203
4.64336
4.67537
4.73669
4.82826
4.94828
5.08126
5.20963
5.32306
5.41939
5.49823
5.55611
5.58771
5.58733
5.54985
5.47268
5.35789
5.20223
4.95938
527.699
532.744
5.29436
5.46274
5.55537
5.59469
5.56419
5.47081
5.33249
5.16733
4.99261
4.82558
4.68307
4.57765
4.51203
4.47864
4.46466
4.45958
4.45876
4.46367
4.48211
4.52663
4.60927
4.73434
4.89117
5.05527
5.2001
5.30983
5.37948
5.40755
5.39316
5.33796
5.24675
5.11551
4.89555
527.924
532.72
5.24801
5.41198
5.49472
5.51899
5.46634
5.3378
5.15152
4.93405
4.71944
4.54594
4.44109
4.40454
4.4122
4.4367
4.45942
4.47107
4.46892
4.45277
4.42477
4.39252
4.37088
4.38196
4.45062
4.58988
4.78188
4.979
5.13364
5.22501
5.25556
5.23402
5.16788
5.05368
4.84735
528.223
532.728
5.2184
5.36012
5.41712
5.40341
5.3
5.11606
4.88427
4.65239
4.4744
4.38745
4.38648
4.43493
4.49723
4.55264
4.59271
4.61522
4.62042
4.60815
4.57714
4.526
4.45608
4.3754
4.30266
4.26904
4.3123
4.45071
4.65262
4.84865
4.98372
5.04408
5.03805
4.96832
4.79919
528.286
532.744
5.19816
5.32363
5.35963
5.31552
5.17191
4.94137
4.67334
4.44118
4.31277
4.30429
4.37164
4.46351
4.54916
4.61649
4.66376
4.69239
4.70456
4.70147
4.68254
4.64532
4.58654
4.50331
4.39706
4.27946
4.1798
4.14805
4.23717
4.43836
4.66451
4.83034
4.90484
4.888
4.75801
528.388
532.756
5.17563
5.27631
5.28348
5.19899
5.00467
4.73118
4.45626
4.2786
4.25232
4.33575
4.45834
4.57501
4.66756
4.73392
4.77812
4.80448
4.81637
4.81559
4.80236
4.7752
4.73098
4.665
4.57239
4.45033
4.30542
4.16269
4.07676
4.12382
4.32035
4.55145
4.71192
4.7661
4.69885
528.437
532.764
5.15788
5.23972
5.22102
5.09771
4.85283
4.53853
4.27264
4.17655
4.24674
4.3896
4.53594
4.65578
4.74324
4.80254
4.84024
4.86168
4.8705
4.86871
4.8568
4.83379
4.79721
4.74304
4.66627
4.56159
4.42623
4.26834
4.12283
4.08661
4.15034
4.36015
4.56388
4.6658
4.64666
528.558
532.772
5.13631
5.19
5.13441
4.95669
4.65261
4.32469
4.14642
4.19067
4.35345
4.5319
4.68011
4.78817
4.86133
4.90748
4.93444
4.94784
4.95127
4.94661
4.93443
4.91389
4.88281
4.83736
4.77263
4.68291
4.56231
4.41047
4.24193
4.1047
4.14129
4.22225
4.42552
4.56243
4.58915
528.645
532.788
5.119
5.13994
5.03747
4.79152
4.43504
4.15354
4.12741
4.28896
4.49044
4.66395
4.79197
4.87884
4.93439
4.96683
4.9834
4.98918
4.98732
4.97942
4.96593
4.94609
4.91794
4.87802
4.82193
4.74459
4.6404
4.50651
4.3507
4.19714
4.11235
4.17296
4.3463
4.48853
4.54216
528.723
532.822
5.0979
5.06753
4.89895
4.57916
4.23346
4.11437
4.25502
4.4753
4.67316
4.82142
4.92209
4.98631
5.02437
5.04366
5.05025
5.04865
5.04159
5.03042
5.01545
4.99594
4.96999
4.93433
4.88478
4.81669
4.72479
4.60522
4.46303
4.3143
4.19922
4.19269
4.30926
4.437
4.50545
528.743
532.879
5.0772
4.98518
4.74841
4.39299
4.1574
4.22261
4.44018
4.65141
4.81676
4.93221
5.00656
5.05103
5.07455
5.08312
5.08157
5.07398
5.06264
5.04857
5.03193
5.01195
4.98691
4.95383
4.90876
4.84776
4.76652
4.66202
4.53896
4.40966
4.29776
4.25852
4.3243
4.42294
4.48881
528.768
532.961
5.06177
4.90223
4.61683
4.30246
4.23441
4.41075
4.6306
4.80941
4.94212
5.03136
5.08645
5.11637
5.12947
5.13058
5.12348
5.11149
5.09672
5.08014
5.06185
5.04104
5.01596
4.98369
4.94077
4.88414
4.80998
4.71556
4.60588
4.4936
4.39137
4.33763
4.36607
4.43435
4.48785
528.809
533.056
5.07034
4.86052
4.56686
4.33644
4.37809
4.57274
4.75956
4.90389
5.01176
5.08332
5.12671
5.14915
5.15645
5.15285
5.14183
5.12662
5.1092
5.09052
5.07065
5.0488
5.0233
4.99137
4.94978
4.89603
4.82725
4.74237
4.64694
4.55414
4.46847
4.41509
4.42143
4.46345
4.49949
528.913
533.13
5.10516
4.8792
4.60663
4.43851
4.5107
4.68163
4.83478
4.95531
5.05075
5.11767
5.15867
5.17931
5.18499
5.17979
5.16698
5.14992
5.13066
5.11029
5.08894
5.06592
5.03958
5.00721
4.96572
4.91301
4.84699
4.76746
4.68057
4.60243
4.53158
4.48278
4.47621
4.4985
4.51807
529.071
533.145
5.1523
4.95354
4.71683
4.5669
4.61074
4.73628
4.85567
4.95693
5.04672
5.11584
5.16076
5.18468
5.19241
5.18816
5.17538
5.15776
5.13756
5.11607
5.09359
5.06958
5.04251
5.00976
4.96835
4.91644
4.8527
4.77791
4.69912
4.63415
4.5782
4.53788
4.526
4.53507
4.54133
529.293
533.093
5.18581
5.04692
4.85718
4.71113
4.70211
4.77101
4.85499
4.93701
5.02251
5.09891
5.15318
5.18494
5.19823
5.19755
5.18665
5.16974
5.14947
5.12739
5.10408
5.07916
5.05123
5.01775
4.97572
4.92342
4.86001
4.78707
4.71272
4.6565
4.61215
4.58113
4.56895
4.57055
4.56796
529.564
533.004
5.19232
5.12503
4.99193
4.85988
4.80116
4.81106
4.85208
4.91006
4.98591
5.06789
5.13159
5.17178
5.1913
5.1948
5.18633
5.1706
5.15071
5.12846
5.10467
5.07913
5.0506
5.01665
4.97428
4.92181
4.85872
4.78724
4.71679
4.66836
4.63536
4.61409
4.60562
4.60461
4.59756
529.884
532.918
5.17908
5.17617
5.09598
4.98696
4.89631
4.85659
4.85806
4.89405
4.95969
5.0444
5.11478
5.1615
5.1862
5.1935
5.18746
5.1731
5.15384
5.13167
5.10757
5.08143
5.05209
5.01717
4.97376
4.9202
4.85627
4.78483
4.71664
4.67403
4.65046
4.63928
4.63694
4.63707
4.62943
530.243
532.852
5.15913
5.20377
5.16311
5.07526
4.96878
4.89475
4.86886
4.89043
4.94825
5.03189
5.10369
5.15245
5.17907
5.18795
5.183
5.16926
5.15023
5.128
5.10357
5.07685
5.04671
5.01078
4.96626
4.91162
4.84696
4.77598
4.71116
4.67485
4.66004
4.65896
4.6643
4.66803
4.66249
530.635
532.807
5.138
5.21173
5.19492
5.11998
5.00719
4.91771
4.88194
4.89968
4.95452
5.0345
5.10335
5.15023
5.17594
5.18459
5.17969
5.16604
5.14704
5.12468
5.09989
5.07247
5.04121
5.00368
4.95729
4.90078
4.83476
4.76405
4.70362
4.67359
4.66684
4.67532
4.68889
4.69747
4.69539
531.044
532.777
5.11555
5.20174
5.19584
5.12711
5.01567
4.92917
4.89932
4.91951
4.97287
5.04654
5.10892
5.15088
5.17336
5.18009
5.17409
5.1598
5.14036
5.11759
5.09224
5.06395
5.03136
4.99197
4.9435
4.88505
4.81796
4.74848
4.69477
4.67191
4.6731
4.69043
4.71173
4.72529
4.72663
531.453
532.757
5.09076
5.1771
5.1742
5.11011
5.00997
4.94043
4.92399
4.94741
4.99843
5.06407
5.11826
5.15391
5.17216
5.17623
5.16868
5.1535
5.13351
5.11026
5.08426
5.05491
5.02067
4.97895
4.92792
4.86728
4.79931
4.73205
4.68667
4.67156
4.68045
4.70575
4.73353
4.75118
4.75469
531.842
532.743
5.066
5.14576
5.14332
5.08667
5.00689
4.96022
4.95594
4.9788
5.02527
5.08182
5.12736
5.15644
5.17026
5.17144
5.16212
5.14588
5.1252
5.10134
5.07454
5.04393
5.00779
4.96357
4.90994
4.84741
4.77949
4.7163
4.68079
4.67388
4.69019
4.72198
4.7544
4.77464
4.77835
532.193
532.734
5.04573
5.11768
5.11701
5.07187
5.01632
4.98979
4.9913
5.00931
5.04986
5.09752
5.13505
5.15817
5.16796
5.16649
5.15554
5.13833
5.11699
5.09252
5.06484
5.03283
4.99461
4.94776
4.89157
4.82756
4.76076
4.70379
4.67841
4.67957
4.70216
4.73876
4.77395
4.79503
4.79685
532.493
532.731
5.03342
5.10021
5.10421
5.07307
5.03929
5.02521
5.0256
5.03589
5.06993
5.10949
5.14015
5.15828
5.16473
5.16102
5.14868
5.13063
5.10868
5.08357
5.05493
5.02145
4.9811
4.93174
4.87336
4.80853
4.74406
4.69561
4.67963
4.68817
4.71577
4.75547
4.79146
4.81158
4.80982
532.736
532.731
5.0302
5.09585
5.10691
5.08973
5.07122
5.06141
5.05597
5.05755
5.08526
5.11792
5.14304
5.15726
5.16113
5.15566
5.14224
5.12352
5.10106
5.07536
5.04576
5.01081
4.96844
4.91683
4.85669
4.79171
4.73036
4.69119
4.68372
4.69858
4.73002
4.77115
4.80631
4.82387
4.81736
532.925
532.734
5.03528
5.10335
5.12238
5.11714
5.10684
5.09532
5.08152
5.07448
5.09612
5.12306
5.14388
5.15518
5.15713
5.15036
5.13616
5.11695
5.09408
5.06782
5.03732
5.001
4.95682
4.90331
4.84192
4.77733
4.71955
4.68931
4.68948
4.7096
4.74368
4.78465
4.81761
4.83137
4.81984
533.065
532.741
5.04718
5.12007
5.14668
5.15001
5.14261
5.12582
5.10271
5.08764
5.10356
5.12584
5.1434
5.15258
5.15319
5.14554
5.13081
5.11129
5.08813
5.06141
5.03012
4.9926
4.94688
4.89185
4.82961
4.7657
4.71141
4.68893
4.6955
4.71984
4.75541
4.79484
4.82436
4.83379
4.81788
533.165
532.751
5.06435
5.14338
5.17655
5.18522
5.17713
5.15321
5.12069
5.09797
5.10841
5.12681
5.14185
5.14953
5.14925
5.14106
5.12605
5.10637
5.08304
5.05597
5.02406
4.98555
4.9386
4.88238
4.81958
4.75644
4.70519
4.68889
4.70054
4.72809
4.76417
4.80105
4.82639
4.83146
4.8123
533.233
532.764
5.0854
5.17114
5.20967
5.22105
5.21008
5.17842
5.13682
5.10648
5.11168
5.12666
5.13969
5.14632
5.14554
5.13712
5.12205
5.10237
5.07899
5.05173
5.01936
4.98012
4.93221
4.87509
4.81185
4.74929
4.70031
4.68833
4.70368
4.73347
4.76927
4.80307
4.82401
4.82519
4.80404
533.277
532.779
5.10915
5.20168
5.24446
5.25672
5.2419
5.20266
5.15249
5.11436
5.11401
5.12564
5.13693
5.14286
5.14189
5.13353
5.1186
5.09907
5.07578
5.04847
5.01586
4.97613
4.92755
4.86974
4.8061
4.74382
4.69619
4.6866
4.70424
4.73542
4.77045
4.80108
4.8179
4.81595
4.794
533.302
532.798
5.13494
5.23421
5.28037
5.29231
5.2734
5.22704
5.16875
5.12268
5.11586
5.12398
5.13371
5.1392
5.13834
5.13031
5.11572
5.09651
5.07346
5.04627
5.01361
4.97365
4.92464
4.86631
4.80221
4.73975
4.69245
4.68336
4.702
4.73371
4.76781
4.79555
4.80885
4.80468
4.78289
533.312
532.818
5.16225
5.26843
5.31753
5.32855
5.30556
5.25236
5.18615
5.13193
5.11736
5.1217
5.12995
5.13519
5.13469
5.12726
5.1132
5.09447
5.07181
5.0449
5.01241
4.97246
4.92329
4.86462
4.79999
4.73688
4.68886
4.67858
4.69711
4.72868
4.76172
4.7871
4.79768
4.79219
4.77129
533.311
532.84
5.19073
5.30428
5.35637
5.3668
5.33909
5.27906
5.20492
5.14214
5.11862
5.11884
5.12562
5.13078
5.13091
5.12431
5.11101
5.09291
5.07079
5.04433
5.0122
4.9725
4.92341
4.86458
4.79938
4.73522
4.68551
4.67249
4.68992
4.72085
4.75277
4.7764
4.78514
4.77903
4.75957
533.302
532.862
5.21983
5.34117
5.39629
5.4063
5.3737
5.30711
5.22511
5.15329
5.1197
5.11539
5.12064
5.12585
5.12681
5.1213
5.10895
5.09165
5.07021
5.04434
5.01275
4.97353
4.92477
4.86598
4.80028
4.7348
4.68264
4.66559
4.68104
4.71087
4.74174
4.7641
4.77181
4.76566
4.74798
533.286
532.884
5.24928
5.37855
5.43668
5.44647
5.40926
5.33652
5.24676
5.16538
5.12071
5.1114
5.11501
5.12036
5.12237
5.11813
5.10694
5.09061
5.06997
5.04481
5.0139
4.97533
4.92713
4.86861
4.80252
4.73562
4.68053
4.65845
4.67112
4.69943
4.7293
4.75084
4.75811
4.75239
4.73669
533.265
532.906
5.2783
5.41574
5.47698
5.48681
5.44542
5.36706
5.26965
5.17839
5.12185
5.10698
5.10875
5.11433
5.11753
5.11472
5.10489
5.08963
5.0699
5.04554
5.01543
4.97768
4.93022
4.87218
4.80588
4.73765
4.67941
4.65165
4.66089
4.68724
4.71608
4.73715
4.74441
4.73943
4.72574
533.241
532.926
5.30642
5.45247
5.51707
5.52732
5.48219
5.39858
5.29352
5.19222
5.12338
5.1023
5.10198
5.10783
5.11232
5.11108
5.10273
5.08864
5.06988
5.0464
5.01716
4.98032
4.93375
4.87635
4.81006
4.74068
4.67937
4.64568
4.65096
4.67496
4.70268
4.72344
4.73098
4.7269
4.71517
533.213
532.945
5.33337
5.48835
5.55664
5.5679
5.52008
5.43068
5.31783
5.2067
5.12583
5.09767
5.09494
5.10098
5.10679
5.10719
5.1004
5.08755
5.06981
5.04724
5.01893
4.98305
4.93746
4.88084
4.81474
4.74445
4.68038
4.64085
4.6418
4.66312
4.68958
4.71011
4.71806
4.71494
4.70499
533.184
532.962
5.35907
5.52314
5.59533
5.60795
5.55841
5.46253
5.34191
5.22156
5.12974
5.0933
5.08777
5.09389
5.10097
5.10302
5.09784
5.08628
5.06959
5.04797
5.02059
4.9857
4.94114
4.88537
4.81957
4.74861
4.68217
4.63729
4.63362
4.65208
4.67717
4.69744
4.70583
4.70362
4.69525
533.155
532.979
5.38342
5.55649
5.6326
5.6466
5.59558
5.4932
5.36512
5.23631
5.13495
5.08935
5.08077
5.08677
5.09499
5.09863
5.09506
5.08481
5.0692
5.04854
5.02211
4.9882
4.94467
4.88977
4.82436
4.75288
4.68446
4.63498
4.62638
4.64193
4.66565
4.68562
4.69441
4.69301
4.68595
533.126
532.995
5.4064
5.58815
5.66804
5.68324
5.63079
5.52216
5.38716
5.25076
5.14082
5.08593
5.07406
5.07967
5.08884
5.094
5.09204
5.0831
5.06859
5.0489
5.02341
4.99049
4.94798
4.89397
4.82899
4.75712
4.68699
4.6337
4.61989
4.63262
4.65503
4.67472
4.68385
4.68312
4.67712
533.097
533.009
5.42792
5.61786
5.7013
5.71745
5.66362
5.54919
5.40816
5.2651
5.14731
5.08321
5.06776
5.07266
5.08257
5.08915
5.08878
5.08117
5.06777
5.04905
5.02449
4.99254
4.95104
4.89793
4.83343
4.76126
4.68963
4.63302
4.61397
4.62399
4.64524
4.6647
4.67414
4.67396
4.66878
533.069
533.023
5.44798
5.64561
5.73239
5.7494
5.69449
5.57497
5.42876
5.27967
5.15444
5.08116
5.06178
5.06566
5.07612
5.08406
5.08526
5.079
5.06672
5.04897
5.02534
4.99434
4.95382
4.90163
4.83765
4.7653
4.69234
4.63271
4.60858
4.61599
4.63614
4.65544
4.66521
4.6655
4.66094
533.043
533.035
5.46644
5.67133
5.76138
5.77935
5.72402
5.60085
5.44939
5.29453
5.16216
5.07976
5.05612
5.05867
5.06951
5.07875
5.08152
5.07663
5.06547
5.0487
5.02597
4.99589
4.95633
4.90504
4.84163
4.76919
4.69508
4.63269
4.60373
4.60861
4.62771
4.64689
4.657
4.65771
4.65363
533.018
533.047
5.4833
5.69507
5.78838
5.80744
5.75225
5.62661
5.46991
5.30953
5.17027
5.07888
5.05061
5.05155
5.06269
5.07321
5.07757
5.07405
5.06403
5.04823
5.02637
4.99718
4.95856
4.90817
4.84536
4.77293
4.69784
4.63293
4.59943
4.60185
4.61992
4.639
4.64947
4.65058
4.64686
532.994
533.056
5.49844
5.71679
5.81337
5.83367
5.779
5.65156
5.49
5.32438
5.17854
5.07852
5.04522
5.04437
5.05575
5.06755
5.07348
5.07133
5.06244
5.04758
5.02657
4.99823
4.9605
4.911
4.84881
4.77647
4.70057
4.63342
4.59569
4.59574
4.61278
4.63176
4.64259
4.64408
4.64065
532.972
533.064
5.51191
5.73657
5.83642
5.85807
5.8042
5.67539
5.50926
5.33857
5.18648
5.07865
5.03983
5.03708
5.04873
5.0618
5.06928
5.06849
5.06069
5.04674
5.02655
4.99902
4.96214
4.91349
4.85194
4.77978
4.70323
4.63411
4.59249
4.59026
4.60628
4.62515
4.63635
4.63819
4.635
532.951
533.071
5.52376
5.75438
5.85747
5.88051
5.82754
5.69759
5.52709
5.35142
5.19351
5.07903
5.03443
5.02988
5.04183
5.05614
5.06511
5.0656
5.05885
5.04576
5.02632
4.99955
4.96345
4.91559
4.85468
4.78276
4.70573
4.63494
4.58982
4.58543
4.60044
4.61918
4.63071
4.63289
4.6299
532.931
533.077
5.53425
5.77044
5.87662
5.90098
5.84886
5.71782
5.54299
5.36245
5.19915
5.07896
5.02898
5.02286
5.03516
5.05064
5.06099
5.0627
5.05692
5.04464
5.0259
4.9998
4.96441
4.91729
4.85697
4.78531
4.70794
4.63578
4.5876
4.58121
4.59524
4.61382
4.62567
4.62815
4.62533
532.914
533.082
5.54357
5.78481
5.89382
5.9193
5.86781
5.73556
5.55648
5.3713
5.20319
5.07825
5.02365
5.01626
5.02891
5.04544
5.05703
5.05984
5.05496
5.04341
5.0253
4.99981
4.96504
4.91857
4.85879
4.78741
4.70978
4.63651
4.58573
4.57753
4.59063
4.60906
4.62118
4.62393
4.62123
532.899
533.087
5.55206
5.79774
5.90922
5.93555
5.88435
5.75068
5.56743
5.37796
5.20581
5.07705
5.01863
5.01018
5.02313
5.04055
5.0532
5.05702
5.05297
5.04208
5.02455
4.9996
4.96538
4.91947
4.86019
4.78907
4.71125
4.63708
4.58412
4.57427
4.58653
4.60482
4.61718
4.62017
4.61755
532.885
533.092
5.55989
5.80935
5.92286
5.94969
5.89838
5.76308
5.57589
5.38274
5.2074
5.07567
5.01405
5.00467
5.01784
5.03602
5.04959
5.05432
5.051
5.04071
5.02369
4.99921
4.96548
4.92006
4.86122
4.79033
4.71237
4.63749
4.58274
4.57135
4.58285
4.60102
4.6136
4.6168
4.61422
532.874
533.097
5.56715
5.81979
5.93492
5.96195
5.91024
5.77324
5.58252
5.38633
5.20845
5.07428
5.00987
4.99963
5.01295
5.0318
5.04618
5.05171
5.04906
5.03931
5.02274
4.9987
4.96539
4.92041
4.86196
4.79127
4.7132
4.63773
4.58154
4.56869
4.57948
4.59755
4.61036
4.61374
4.61118
532.865
533.102
5.57374
5.82909
5.94551
5.97255
5.92029
5.78166
5.58788
5.38917
5.20924
5.07298
5.00606
4.99498
5.00838
5.02779
5.04291
5.04918
5.04713
5.03788
5.02174
4.99808
4.96516
4.92059
4.86248
4.79198
4.71381
4.63784
4.58052
4.5662
4.57636
4.59438
4.60739
4.61095
4.6084
532.856
533.107
5.57957
5.8373
5.95479
5.98174
5.92889
5.78882
5.59241
5.39169
5.20998
5.07177
5.00246
4.99053
5.004
5.02394
5.03975
5.0467
5.04522
5.03644
5.02069
4.99739
4.96483
4.92062
4.86284
4.79252
4.71428
4.63786
4.5796
4.56385
4.57343
4.59141
4.60465
4.60838
4.60585
532.848
533.111
5.58459
5.84445
5.9629
5.98978
5.93645
5.79522
5.59681
5.39407
5.21062
5.07049
4.99894
4.98623
4.99979
5.02023
5.03668
5.04427
5.04333
5.03498
5.0196
4.99664
4.96441
4.92055
4.86308
4.79294
4.71465
4.63783
4.57872
4.56163
4.57067
4.58864
4.60211
4.60601
4.60349
532.841
533.114
5.58882
5.85064
5.96999
5.99682
5.94311
5.80096
5.60091
5.39621
5.21103
5.06904
4.99539
4.98197
4.99566
5.01662
5.03369
5.04189
5.04146
5.03352
5.01849
4.99585
4.96393
4.9204
4.86324
4.79329
4.71498
4.63782
4.57793
4.55956
4.56806
4.58602
4.59972
4.60382
4.60134
532.834
533.116
5.59225
5.85587
5.9761
6.00296
5.94901
5.80616
5.60468
5.39803
5.21107
5.06728
4.99178
4.97783
4.99171
5.01318
5.03083
5.03959
5.03962
5.03206
5.01734
4.99499
4.96336
4.92013
4.86325
4.79349
4.71518
4.63776
4.5772
4.55767
4.56566
4.58358
4.59751
4.60179
4.59937
532.828
533.118
5.59509
5.86037
5.9814
6.00831
5.95412
5.8106
5.6077
5.39911
5.21043
5.06508
4.98809
4.97381
4.98795
5.00991
5.02809
5.03737
5.03781
5.0306
5.01618
4.9941
4.96273
4.91978
4.86316
4.79358
4.71529
4.63762
4.57648
4.55591
4.56344
4.58134
4.59547
4.59993
4.59759
532.823
533.12
5.59739
5.8641
5.98584
6.01276
5.95834
5.81414
5.60984
5.39937
5.20913
5.06255
4.9845
4.97009
4.98452
5.00691
5.02555
5.03525
5.03607
5.02916
5.015
4.99314
4.96201
4.9193
4.86292
4.79351
4.71524
4.6374
4.57576
4.55429
4.56141
4.57927
4.59357
4.59821
4.59595
532.818
533.122
5.59942
5.86734
5.98964
6.01645
5.96165
5.8166
5.61081
5.39856
5.20709
5.05975
4.98109
4.96671
4.9814
5.00413
5.02315
5.03323
5.03436
5.02772
5.01379
4.99215
4.96122
4.91873
4.86255
4.79328
4.71504
4.63704
4.57499
4.55276
4.55955
4.57737
4.59184
4.59663
4.59443
532.814
533.123
5.60115
5.87
5.99266
6.01925
5.96392
5.81791
5.61069
5.39699
5.20471
5.05703
4.97807
4.96375
4.97863
5.00162
5.02093
5.03131
5.03272
5.02631
5.01258
4.99112
4.96037
4.91808
4.86208
4.79294
4.71472
4.63658
4.57417
4.55127
4.55778
4.5756
4.59021
4.59513
4.59299
532.81
533.125
5.60284
5.87235
5.99517
6.02139
5.96536
5.81825
5.60966
5.39483
5.20217
5.0545
4.9754
4.96111
4.97608
4.99925
5.01879
5.02944
5.03109
5.0249
5.01135
4.99007
4.95949
4.91736
4.86154
4.79253
4.71433
4.63607
4.57334
4.54984
4.5561
4.57392
4.58866
4.5937
4.59161
532.807
533.127
5.60428
5.87423
5.99704
6.02278
5.96596
5.81779
5.60814
5.39268
5.2
5.0524
4.9731
4.9587
4.9737
4.997
5.01675
5.02764
5.02951
5.02351
5.01013
4.989
4.95857
4.91661
4.86094
4.79205
4.71389
4.63553
4.57251
4.54847
4.5545
4.57231
4.58717
4.59232
4.59028
532.804
533.129
5.60554
5.87579
5.99853
6.02378
5.96621
5.81712
5.60666
5.3908
5.19814
5.05055
4.97096
4.95639
4.97137
4.99478
5.01473
5.02585
5.02793
5.02212
5.00891
4.98793
4.95765
4.91584
4.86032
4.79154
4.71341
4.63495
4.57165
4.54712
4.55295
4.57076
4.58573
4.59097
4.58897
532.802
533.131
5.60648
5.87697
5.99957
6.02435
5.96612
5.8163
5.60533
5.38934
5.19675
5.04899
4.96892
4.95407
4.96901
4.99255
5.01271
5.02407
5.02638
5.02075
5.00771
4.98688
4.95674
4.91508
4.85974
4.79109
4.71301
4.63446
4.57088
4.54581
4.55141
4.56923
4.58431
4.58965
4.58768
532.799
533.132
5.60708
5.87779
6.00033
6.02478
5.96609
5.81581
5.60455
5.38838
5.1956
5.04743
4.96677
4.95165
4.9666
4.99031
5.0107
5.02231
5.02483
5.01939
5.00651
4.98582
4.95582
4.91431
4.85911
4.7906
4.71258
4.63396
4.57013
4.54455
4.54993
4.56773
4.58291
4.58835
4.58642
532.796
533.133
5.60737
5.8783
6.00084
6.02505
5.96603
5.81545
5.60398
5.38761
5.19454
5.04588
4.96461
4.94921
4.96417
4.98807
5.0087
5.02056
5.0233
5.01806
5.00535
4.9848
4.95495
4.9136
4.85857
4.7902
4.71226
4.63357
4.56946
4.54335
4.54849
4.56627
4.58155
4.58708
4.58519
532.794
533.134
5.60735
5.87852
6.00114
6.02523
5.96607
5.81537
5.60379
5.38712
5.19357
5.04423
4.96223
4.94659
4.96165
4.98579
5.0067
5.01881
5.02177
5.01672
5.00417
4.98376
4.95404
4.91284
4.85799
4.78978
4.71193
4.63321
4.56886
4.54223
4.54711
4.56484
4.58021
4.58583
4.58399
532.791
533.134
5.60707
5.87849
6.00126
6.02533
5.96614
5.81541
5.60368
5.38658
5.1924
5.04233
4.95972
4.94396
4.95919
4.98359
5.00475
5.01711
5.02029
5.01541
5.00302
4.98275
4.95318
4.91212
4.85743
4.78938
4.71164
4.6329
4.56831
4.54118
4.54581
4.56349
4.57894
4.58465
4.58286
532.788
533.134
5.60656
5.87824
6.00122
6.02535
5.96621
5.81551
5.60357
5.38589
5.19094
5.04015
4.95704
4.94128
4.95673
4.9814
5.00282
5.01542
5.0188
5.0141
5.00187
4.98173
4.95227
4.91135
4.85682
4.78894
4.71134
4.63261
4.56783
4.5402
4.54456
4.56219
4.57771
4.58351
4.58177
532.786
533.134
5.60588
5.87781
6.001
6.02522
5.96614
5.81541
5.60315
5.38476
5.18903
5.03765
4.95428
4.93867
4.9544
4.97933
5.00098
5.0138
5.01737
5.01284
5.00074
4.98072
4.95138
4.91058
4.85618
4.78845
4.71098
4.63231
4.56739
4.53933
4.54344
4.56099
4.57656
4.58244
4.58075
532.784
533.134
5.60508
5.87722
6.00062
6.02493
5.96589
5.81505
5.60232
5.3831
5.18661
5.03486
4.95151
4.93617
4.95219
4.97735
4.99921
5.01221
5.01596
5.01159
4.99963
4.97972
4.95047
4.90978
4.85551
4.78792
4.71059
4.63199
4.56698
4.53854
4.54241
4.55986
4.57547
4.58142
4.57978
532.782
533.134
5.60428
5.87653
6.00007
6.02438
5.96524
5.81411
5.60073
5.38071
5.18374
5.032
4.94894
4.93391
4.95016
4.9755
4.99752
5.0107
5.01461
5.01037
4.99853
4.97871
4.94955
4.90894
4.85476
4.78729
4.71009
4.63159
4.56654
4.53783
4.5415
4.55886
4.57448
4.58047
4.57888
532.78
533.134
5.60343
5.87573
5.99933
6.02355
5.9642
5.81264
5.59859
5.37794
5.18074
5.02916
4.94643
4.93171
4.9482
4.97372
4.99591
5.00924
5.0133
5.00919
4.99746
4.97773
4.94864
4.9081
4.854
4.78663
4.70954
4.63114
4.56609
4.53716
4.54067
4.55794
4.57355
4.57959
4.57804
532.779
533.134
5.60256
5.87482
5.99837
6.02241
5.96272
5.81061
5.5959
5.37479
5.17756
5.02633
4.94411
4.92977
4.94647
4.97212
4.99441
5.00786
5.01203
5.00803
4.99639
4.97673
4.94769
4.90719
4.85315
4.78584
4.70884
4.63054
4.56555
4.53652
4.53993
4.55712
4.57272
4.57878
4.57727
532.778
533.134
5.60164
5.8738
5.99721
6.02096
5.96083
5.80811
5.59278
5.37137
5.17427
5.02351
4.94187
4.92791
4.94482
4.97059
4.99297
5.00653
5.01081
5.0069
4.99534
4.97574
4.94675
4.90629
4.85228
4.78501
4.70807
4.62986
4.56493
4.53584
4.53922
4.55637
4.57195
4.57803
4.57656
532.778
533.135
5.60071
5.87267
5.99583
6.01922
5.95854
5.80511
5.58919
5.36762
5.17086
5.02079
4.93997
4.92645
4.9435
4.96928
4.99167
5.00527
5.00961
5.00578
4.99428
4.97473
4.94577
4.90532
4.85132
4.78405
4.70713
4.629
4.56419
4.53514
4.53854
4.55568
4.57124
4.57732
4.57589
532.779
533.135
5.5998
5.87145
5.99426
6.01717
5.95585
5.80166
5.58522
5.36371
5.16754
5.01837
4.93837
4.92516
4.94223
4.96796
4.99034
5.00399
5.00841
5.00466
4.99324
4.97373
4.94481
4.90438
4.85038
4.7831
4.70617
4.62806
4.56332
4.53434
4.53782
4.555
4.57056
4.57665
4.57525
532.78
533.135
5.59897
5.87018
5.99254
6.01491
5.95285
5.79788
5.58103
5.35984
5.16455
5.01641
4.93718
4.92414
4.94112
4.96674
4.98909
5.00276
5.00724
5.00355
4.99219
4.97273
4.94383
4.90342
4.84941
4.78211
4.70516
4.62705
4.56237
4.53346
4.53706
4.5543
4.56988
4.57598
4.5746
532.781
533.136
5.59815
5.86884
5.99068
6.01246
5.94967
5.79399
5.57701
5.35651
5.16231
5.01508
4.93626
4.92309
4.93983
4.96533
4.98767
5.00142
5.006
5.00241
4.99114
4.97175
4.94291
4.90252
4.84853
4.7812
4.7042
4.62604
4.56135
4.53247
4.53619
4.55354
4.56918
4.5753
4.57393
532.783
533.137
5.5972
5.86739
5.98873
6.01
5.94661
5.7905
5.57374
5.35418
5.16097
5.01422
4.93535
4.92184
4.93836
4.96381
4.98623
5.00009
5.00479
5.00131
4.99013
4.97081
4.94202
4.90168
4.84771
4.7804
4.70337
4.62515
4.56039
4.53143
4.53523
4.5527
4.56843
4.5746
4.57326
532.785
533.137
5.59599
5.86576
5.98671
6.00761
5.94386
5.78765
5.57144
5.35285
5.16028
5.01349
4.93417
4.92023
4.93657
4.96207
4.98462
4.99866
5.00351
5.00017
4.9891
4.96988
4.94117
4.90089
4.84698
4.77968
4.70262
4.62433
4.55945
4.53036
4.5342
4.5518
4.56764
4.57389
4.57259
532.786
533.136
5.59445
5.86393
5.98467
6.00542
5.94161
5.78569
5.57022
5.3524
5.15996
5.01264
4.93261
4.91825
4.93455
4.96021
4.98299
4.99724
5.00227
4.99907
4.98812
4.96899
4.94037
4.90017
4.84634
4.7791
4.70204
4.62367
4.55863
4.5293
4.53312
4.55083
4.56682
4.57317
4.57194
532.787
533.135
5.59258
5.86192
5.98263
6.00342
5.93982
5.78442
5.56965
5.3522
5.1594
5.01124
4.9305
4.9159
4.93234
4.95827
4.98131
4.99579
5.00102
4.99796
4.98713
4.96809
4.93955
4.89944
4.84568
4.77851
4.70147
4.62305
4.55787
4.52828
4.53204
4.54985
4.566
4.57247
4.57132
532.788
533.134
5.5905
5.85977
5.98058
6.00157
5.93834
5.78354
5.5693
5.35179
5.15827
5.00924
4.92801
4.91342
4.93014
4.9564
4.97972
4.99443
4.99982
4.9969
4.98617
4.96722
4.93877
4.89874
4.84508
4.77799
4.70099
4.62253
4.55719
4.52732
4.53099
4.54887
4.56518
4.57179
4.57074
532.789
533.133
5.5884
5.85759
5.97855
5.99978
5.93693
5.78258
5.56852
5.35058
5.15622
5.00651
4.92517
4.91085
4.92799
4.95461
4.97822
4.99312
4.99865
4.99583
4.98519
4.96631
4.93792
4.89797
4.84439
4.77738
4.70044
4.62198
4.55654
4.52643
4.53001
4.54794
4.56439
4.57113
4.57018
532.79
533.132
5.58641
5.85545
5.97651
5.99792
5.93532
5.78118
5.56697
5.34842
5.15335
5.00335
4.9223
4.90848
4.92609
4.95307
4.97689
4.99193
4.99756
4.99481
4.98423
4.96541
4.93708
4.89719
4.84369
4.77676
4.69988
4.62143
4.55592
4.52561
4.5291
4.54706
4.56363
4.57049
4.56964
532.791
533.132
5.58462
5.8534
5.97445
5.99592
5.93336
5.77913
5.56452
5.34534
5.14979
4.99985
4.91943
4.90627
4.9244
4.95169
4.97567
4.9908
4.99649
4.99378
4.98323
4.96445
4.93616
4.89633
4.84289
4.77602
4.6992
4.62079
4.55527
4.52483
4.52826
4.54625
4.56291
4.56987
4.56911
532.792
533.131
5.58308
5.85149
5.97239
5.99375
5.931
5.7764
5.56122
5.34149
5.14575
4.99624
4.91679
4.90444
4.92306
4.95058
4.97463
4.98978
4.99547
4.99278
4.98225
4.96349
4.93523
4.89544
4.84206
4.77524
4.69845
4.62008
4.55457
4.52406
4.52747
4.54548
4.56221
4.56925
4.56856
532.792
533.132
5.58173
5.84963
5.97025
5.99136
5.92822
5.77303
5.5572
5.33712
5.14155
4.99283
4.91453
4.90295
4.92195
4.94959
4.97365
4.98877
4.99444
4.99175
4.98123
4.96248
4.93426
4.89451
4.84118
4.7744
4.69764
4.61928
4.55378
4.52326
4.52669
4.54475
4.56153
4.56863
4.56798
532.793
533.132
5.58059
5.84797
5.96821
5.98892
5.92522
5.76932
5.55289
5.3327
5.13759
4.98982
4.91268
4.90175
4.92103
4.9487
4.97271
4.98778
4.99343
4.99072
4.98021
4.96148
4.93329
4.89358
4.8403
4.77355
4.6968
4.61844
4.55294
4.52239
4.52588
4.544
4.56084
4.56798
4.56737
532.794
533.132
5.5794
5.84619
5.96597
5.98625
5.92196
5.76538
5.54852
5.3285
5.13407
4.98732
4.9112
4.90075
4.92014
4.94777
4.97172
4.98674
4.99236
4.98966
4.97916
4.96047
4.93232
4.89267
4.83945
4.77276
4.69602
4.61762
4.55206
4.52144
4.52499
4.5432
4.56011
4.56731
4.56673
532.796
533.133
5.57831
5.84462
5.96398
5.98382
5.91894
5.76173
5.5446
5.32494
5.13129
4.98539
4.90997
4.89975
4.91916
4.94676
4.97066
4.98565
4.99127
4.98858
4.97812
4.95946
4.93136
4.89177
4.83864
4.77203
4.69531
4.61687
4.5512
4.52044
4.52401
4.54232
4.55934
4.5666
4.56607
532.797
533.132
5.57682
5.84267
5.96164
5.9811
5.91579
5.75823
5.54117
5.32207
5.12911
4.98375
4.9087
4.89858
4.91802
4.94561
4.9695
4.9845
4.99013
4.98747
4.97705
4.95844
4.93041
4.89091
4.83788
4.77136
4.69469
4.6162
4.55038
4.5194
4.52295
4.54137
4.55851
4.56586
4.56538
532.798
533.132
5.57535
5.84096
5.95969
5.97892
5.91332
5.75555
5.53859
5.3199
5.12728
4.9821
4.90722
4.8972
4.91673
4.94438
4.9683
4.98331
4.98897
4.98635
4.97597
4.95742
4.92946
4.89005
4.83714
4.77075
4.69416
4.61565
4.54967
4.51839
4.52185
4.54035
4.55763
4.5651
4.5647
532.8
533.131
5.57342
5.83876
5.95728
5.97631
5.91054
5.75274
5.53602
5.31768
5.12522
4.98011
4.90548
4.8957
4.91543
4.94317
4.9671
4.98212
4.98779
4.9852
4.97487
4.95637
4.92848
4.88917
4.83637
4.7701
4.69361
4.61511
4.54899
4.51743
4.52076
4.5393
4.55672
4.56431
4.56399
532.801
533.13
5.57163
5.83684
5.95527
5.97422
5.90837
5.75052
5.53381
5.31543
5.12284
4.9778
4.90363
4.89425
4.91422
4.94202
4.96594
4.98093
4.98661
4.98405
4.97376
4.95532
4.9275
4.88828
4.83561
4.76947
4.6931
4.61462
4.54838
4.51652
4.5197
4.53824
4.55578
4.56349
4.56326
532.802
533.129
5.56976
5.83468
5.95289
5.97162
5.90552
5.74744
5.53058
5.31214
5.11965
4.97511
4.90184
4.89305
4.91324
4.94103
4.96486
4.97979