/*--------------------------------*- C++ -*----------------------------------*\
| =========                 |                                                 |
| \\      /  F ield         | OpenFOAM: The Open Source CFD Toolbox           |
|  \\    /   O peration     | Version:  v2006                                 |
|   \\  /    A nd           | Website:  www.openfoam.com                      |
|    \\/     M anipulation  |                                                 |
\*---------------------------------------------------------------------------*/
FoamFile
{
    version     2.0;
    format      ascii;
    class       surfaceScalarField;
    location    "6";
    object      phi;
}
// * * * * * * * * * * * * * * * * * * * * * * * * * * * * * * * * * * * * * //

dimensions      [1 0 -1 0 0 0 0];
oriented        oriented;


internalField   nonuniform List<scalar> 
228225
(
-3.17334e-05
-8.08796e-07
8.55856e-08
-2.87617e-05
-2.97104e-06
-1.48781e-09
-2.49391e-05
-3.65504e-06
-1.68193e-07
-2.10633e-05
-3.56679e-06
-3.09684e-07
-1.74933e-05
-3.18613e-06
-3.84553e-07
-1.41849e-05
-2.87367e-06
-4.35364e-07
-1.10798e-05
-2.6393e-06
-4.66392e-07
-8.16328e-06
-2.43146e-06
-4.85615e-07
-5.43388e-06
-2.22742e-06
-5.02587e-07
-2.88464e-06
-2.0266e-06
-5.23243e-07
-5.06297e-07
-1.83198e-06
-5.46961e-07
1.71091e-06
-1.64608e-06
-5.71731e-07
3.77465e-06
-1.46823e-06
-5.96115e-07
5.68998e-06
-1.29673e-06
-6.19214e-07
7.46145e-06
-1.13114e-06
-6.40939e-07
9.09366e-06
-9.71506e-07
-6.61316e-07
1.05908e-05
-8.17522e-07
-6.80193e-07
1.19555e-05
-6.67999e-07
-6.97385e-07
1.31872e-05
-5.19828e-07
-7.12399e-07
1.42812e-05
-3.69907e-07
-7.24718e-07
1.52299e-05
-2.15735e-07
-7.33651e-07
1.6025e-05
-5.71169e-08
-7.38546e-07
1.66484e-05
1.14479e-07
-7.38526e-07
1.70793e-05
3.00987e-07
-7.32521e-07
1.72937e-05
5.03635e-07
-7.18638e-07
1.72604e-05
7.271e-07
-6.94412e-07
1.69415e-05
9.75732e-07
-6.57475e-07
1.62928e-05
1.25374e-06
-6.05721e-07
1.52643e-05
1.56506e-06
-5.37189e-07
1.37986e-05
1.91311e-06
-4.48051e-07
1.18313e-05
2.29959e-06
-3.32946e-07
9.29209e-06
2.7221e-06
-1.83561e-07
6.1395e-06
3.14467e-06
7.33212e-09
2.58397e-06
3.32822e-06
2.27059e-07
2.31691e-06
2.67503e-07
-4.1976e-06
3.51601e-06
-1.28168e-07
-8.09442e-06
2.21586e-06
-1.29119e-06
-1.10844e-05
1.31863e-06
-1.98436e-06
-1.32867e-05
8.96192e-07
-2.26146e-06
-1.47697e-05
6.57906e-07
-2.36161e-06
-1.5612e-05
3.6325e-07
-2.39508e-06
-1.58588e-05
-4.54418e-09
-2.38858e-06
-1.57061e-05
-2.41185e-07
-2.34346e-06
-1.52301e-05
-4.32434e-07
-2.27149e-06
-1.44816e-05
-5.77326e-07
-2.19837e-06
-1.35299e-05
-6.45599e-07
-2.1386e-06
-1.24547e-05
-6.31222e-07
-2.09059e-06
-1.13103e-05
-5.61042e-07
-2.05212e-06
-1.01177e-05
-4.67979e-07
-2.02189e-06
-8.88445e-06
-3.66247e-07
-1.99864e-06
-7.61587e-06
-2.5887e-07
-1.98176e-06
-6.31516e-06
-1.47943e-07
-1.97083e-06
-4.97791e-06
-4.06062e-08
-1.96519e-06
-3.66153e-06
1.26889e-07
-1.96365e-06
-2.37014e-06
3.0228e-07
-1.96412e-06
-1.1059e-06
4.83754e-07
-1.96428e-06
1.15341e-07
6.82509e-07
-1.96142e-06
1.27692e-06
9.04838e-07
-1.9525e-06
2.36003e-06
1.15129e-06
-1.93398e-06
3.34257e-06
1.42266e-06
-1.90213e-06
4.19849e-06
1.72401e-06
-1.85339e-06
4.89605e-06
2.06133e-06
-1.78374e-06
5.39562e-06
2.44139e-06
-1.6878e-06
5.64648e-06
2.87164e-06
-1.55803e-06
5.58422e-06
3.35833e-06
-1.38356e-06
5.13301e-06
3.90052e-06
-1.15034e-06
4.2255e-06
4.47096e-06
-8.41947e-07
2.84695e-06
4.96256e-06
-4.39857e-07
1.18473e-06
5.01314e-06
-2.29504e-08
3.30104e-06
2.00905e-07
-1.4218e-06
4.90329e-06
3.3286e-08
-5.0141e-06
6.24378e-06
-4.36391e-07
-8.72477e-06
5.71183e-06
-6.83323e-07
-1.16787e-05
4.60453e-06
-7.55084e-07
-1.36397e-05
3.39954e-06
-7.81217e-07
-1.47754e-05
2.30745e-06
-8.09071e-07
-1.53191e-05
1.37969e-06
-8.41069e-07
-1.53181e-05
6.26153e-07
-8.68864e-07
-1.49503e-05
8.63634e-08
-8.8722e-07
-1.4256e-05
-3.71182e-07
-9.00998e-07
-1.34034e-05
-5.87048e-07
-9.11706e-07
-1.24856e-05
-6.32187e-07
-9.1737e-07
-1.15379e-05
-5.89775e-07
-9.19527e-07
-1.05734e-05
-5.13794e-07
-9.19292e-07
-9.60201e-06
-4.20273e-07
-9.17921e-07
-8.63528e-06
-3.10359e-07
-9.15822e-07
-7.68899e-06
-1.81688e-07
-9.13123e-07
-6.80228e-06
-1.82246e-08
-9.09671e-07
-5.89017e-06
1.19855e-07
-9.05664e-07
-4.97511e-06
2.90183e-07
-9.03547e-07
-4.07915e-06
4.92109e-07
-9.04901e-07
-3.21427e-06
7.27402e-07
-9.10362e-07
-2.38952e-06
9.99649e-07
-9.20139e-07
-1.61362e-06
1.30905e-06
-9.34247e-07
-8.96136e-07
1.65593e-06
-9.51334e-07
-2.48069e-07
2.04402e-06
-9.68667e-07
3.16947e-07
2.47788e-06
-9.8215e-07
7.80022e-07
2.96243e-06
-9.84691e-07
1.1158e-06
3.50226e-06
-9.6696e-07
1.29493e-06
4.09723e-06
-9.18571e-07
1.29016e-06
4.72993e-06
-8.25142e-07
1.09317e-06
5.33633e-06
-6.68784e-07
7.25877e-07
5.76006e-06
-4.30444e-07
2.56932e-07
5.61061e-06
-1.28427e-07
3.47104e-06
8.7608e-08
-9.50221e-07
5.74422e-06
1.08378e-07
-2.05709e-06
7.56758e-06
-2.18116e-07
-2.89745e-06
7.06047e-06
-5.08898e-07
-3.57079e-06
5.98279e-06
-7.05408e-07
-4.11024e-06
4.77213e-06
-8.33637e-07
-4.53568e-06
3.66043e-06
-9.2802e-07
-4.885e-06
2.72959e-06
-1.00105e-06
-5.18626e-06
1.98439e-06
-1.05745e-06
-5.41207e-06
1.41114e-06
-1.09946e-06
-5.64842e-06
9.92104e-07
-1.12746e-06
-5.79485e-06
7.03673e-07
-1.14482e-06
-5.79428e-06
5.23451e-07
-1.15674e-06
-5.65075e-06
4.29105e-07
-1.16296e-06
-5.39523e-06
3.91463e-07
-1.16133e-06
-5.04959e-06
3.87308e-07
-1.15378e-06
-4.62332e-06
4.06122e-07
-1.14332e-06
-4.12216e-06
4.46946e-07
-1.13037e-06
-3.53918e-06
5.12164e-07
-1.11394e-06
-2.93159e-06
6.05375e-07
-1.09369e-06
-2.30042e-06
7.32084e-07
-1.07364e-06
-1.65065e-06
8.98838e-07
-1.05708e-06
-9.93257e-07
1.11192e-06
-1.04249e-06
-3.44577e-07
1.37898e-06
-1.02859e-06
2.67816e-07
1.71046e-06
-1.01438e-06
8.15335e-07
2.10657e-06
-9.98733e-07
1.28226e-06
2.55671e-06
-9.80181e-07
1.65771e-06
3.05823e-06
-9.56371e-07
1.927e-06
3.61582e-06
-9.23263e-07
2.07289e-06
4.23011e-06
-8.74335e-07
2.07863e-06
4.89087e-06
-7.99986e-07
1.93275e-06
5.56271e-06
-6.87473e-07
1.6308e-06
6.16068e-06
-5.22926e-07
1.15141e-06
6.54062e-06
-3.01496e-07
5.01289e-07
6.32458e-06
-6.38119e-08
3.86757e-06
1.05409e-07
4.4369e-07
5.24003e-06
5.9213e-08
3.9414e-07
7.76297e-06
-1.46968e-07
1.12695e-07
7.6806e-06
-3.39636e-07
-3.48713e-07
6.90361e-06
-4.60344e-07
-9.30113e-07
5.86759e-06
-5.1493e-07
-1.59579e-06
4.85251e-06
-5.2719e-07
-2.33007e-06
3.97701e-06
-5.1386e-07
-3.11078e-06
3.25012e-06
-4.85701e-07
-3.88482e-06
2.63576e-06
-4.51254e-07
-4.56882e-06
2.09187e-06
-4.1643e-07
-5.08416e-06
1.60335e-06
-3.84973e-07
-5.41906e-06
1.21788e-06
-3.60157e-07
-5.61307e-06
9.63487e-07
-3.40984e-07
-5.70898e-06
8.13206e-07
-3.26439e-07
-5.72892e-06
7.25627e-07
-3.18979e-07
-5.67913e-06
6.75202e-07
-3.19477e-07
-5.55607e-06
6.50969e-07
-3.27686e-07
-5.35331e-06
6.51698e-07
-3.42906e-07
-5.06804e-06
6.83868e-07
-3.64369e-07
-4.70474e-06
7.59775e-07
-3.9159e-07
-4.28265e-06
8.98514e-07
-4.2237e-07
-3.83613e-06
1.11895e-06
-4.54147e-07
-3.39564e-06
1.42252e-06
-4.8461e-07
-2.9728e-06
1.79856e-06
-5.1151e-07
-2.57638e-06
2.24362e-06
-5.34028e-07
-2.21409e-06
2.74739e-06
-5.53515e-07
-1.88862e-06
3.30284e-06
-5.70584e-07
-1.599e-06
3.90842e-06
-5.82713e-07
-1.34158e-06
4.55644e-06
-5.84205e-07
-1.10792e-06
5.22289e-06
-5.66102e-07
-8.84417e-07
5.85523e-06
-5.16373e-07
-6.62741e-07
6.36146e-06
-4.22668e-07
-4.55164e-07
6.60855e-06
-2.75482e-07
-2.38176e-07
6.20259e-06
-9.4577e-08
3.5821e-06
4.83582e-08
-5.55725e-08
5.24497e-06
4.93264e-08
-3.90035e-07
8.19772e-06
-1.01685e-07
-7.37288e-07
8.28314e-06
-2.5686e-07
-1.12294e-06
7.65484e-06
-3.67023e-07
-1.50176e-06
6.67057e-06
-4.25461e-07
-1.79884e-06
5.59443e-06
-4.46036e-07
-1.97962e-06
4.6002e-06
-4.43514e-07
-2.04256e-06
3.74056e-06
-4.28497e-07
-2.01283e-06
3.01287e-06
-4.07725e-07
-1.93395e-06
2.39807e-06
-3.85884e-07
-1.84663e-06
1.88238e-06
-3.67081e-07
-1.76456e-06
1.48617e-06
-3.51056e-07
-1.67177e-06
1.20248e-06
-3.32445e-07
-1.54635e-06
9.98748e-07
-3.11615e-07
-1.39134e-06
8.6339e-07
-2.93421e-07
-1.22968e-06
7.93767e-07
-2.80858e-07
-1.08381e-06
7.79895e-07
-2.75431e-07
-9.708e-07
8.15417e-07
-2.77355e-07
-9.03598e-07
9.01593e-07
-2.85559e-07
-8.8614e-07
1.03947e-06
-2.97791e-07
-8.99611e-07
1.22143e-06
-3.10083e-07
-9.088e-07
1.44844e-06
-3.20937e-07
-8.84153e-07
1.72975e-06
-3.32513e-07
-8.14114e-07
2.07268e-06
-3.44802e-07
-7.10113e-07
2.49534e-06
-3.56347e-07
-5.98852e-07
3.00147e-06
-3.65961e-07
-5.02528e-07
3.57851e-06
-3.72594e-07
-4.25371e-07
4.2055e-06
-3.74795e-07
-3.56734e-07
4.85703e-06
-3.69751e-07
-2.79051e-07
5.49712e-06
-3.52364e-07
-1.78033e-07
6.06881e-06
-3.14929e-07
-6.1061e-08
6.49394e-06
-2.49613e-07
2.46488e-08
6.67519e-06
-1.52255e-07
3.98858e-08
6.22451e-06
-3.66983e-08
3.55604e-06
6.69966e-08
4.55543e-07
4.76188e-06
2.62566e-08
7.72091e-07
7.96351e-06
-8.37711e-08
9.39084e-07
8.30015e-06
-1.85495e-07
9.758e-07
7.8635e-06
-2.46841e-07
9.14705e-07
6.99493e-06
-2.64646e-07
8.19415e-07
5.93596e-06
-2.47489e-07
7.30155e-07
4.89593e-06
-2.07536e-07
6.46898e-07
3.97675e-06
-1.53805e-07
5.39632e-07
3.21116e-06
-9.17203e-08
3.68036e-07
2.59497e-06
-2.58724e-08
9.31947e-08
2.10283e-06
5.38932e-08
-2.54843e-07
1.69556e-06
1.3816e-07
-6.08021e-07
1.33619e-06
2.18931e-07
-9.09768e-07
1.01213e-06
2.87759e-07
-1.13426e-06
7.49212e-07
3.38005e-07
-1.29006e-06
5.79981e-07
3.68877e-07
-1.41072e-06
5.20683e-07
3.79152e-07
-1.5389e-06
5.75025e-07
3.67865e-07
-1.7141e-06
7.39741e-07
3.36387e-07
-1.95655e-06
9.9612e-07
2.85207e-07
-2.25283e-06
1.30162e-06
2.15549e-07
-2.55593e-06
1.61374e-06
1.37291e-07
-2.80894e-06
1.92e-06
6.22406e-08
-2.96634e-06
2.23588e-06
-6.35778e-09
-3.01668e-06
2.59301e-06
-4.79351e-08
-2.95275e-06
3.02172e-06
-8.47919e-08
-2.79515e-06
3.53557e-06
-1.15298e-07
-2.57386e-06
4.12315e-06
-1.39582e-07
-2.30795e-06
4.74781e-06
-1.5729e-07
-1.99671e-06
5.35162e-06
-1.6627e-07
-1.63153e-06
5.86466e-06
-1.61456e-07
-1.21729e-06
6.21647e-06
-1.36978e-07
-7.7455e-07
6.31932e-06
-8.68203e-08
-3.09999e-07
5.77693e-06
-1.65398e-08
3.19242e-06
5.46445e-08
-1.40879e-08
4.73761e-06
3.70476e-08
-8.88217e-08
8.08117e-06
-4.3936e-08
-1.83915e-07
8.50269e-06
-1.08509e-07
-3.34697e-07
8.15625e-06
-1.43021e-07
-5.50028e-07
7.35839e-06
-1.48986e-07
-7.87302e-07
6.30151e-06
-1.28891e-07
-1.02685e-06
5.22335e-06
-8.82769e-08
-1.27761e-06
4.2605e-06
-3.32594e-08
-1.55681e-06
3.45166e-06
3.84725e-08
-1.85466e-06
2.77164e-06
1.20927e-07
-2.11932e-06
2.16579e-06
2.01326e-07
-2.28267e-06
1.58595e-06
2.72448e-07
-2.29347e-06
1.01865e-06
3.27697e-07
-2.13424e-06
4.87144e-07
3.65005e-07
-1.79102e-06
1.81875e-08
3.86957e-07
-1.34335e-06
-2.67966e-07
3.99379e-07
-8.17334e-07
-4.14625e-07
4.08374e-07
-2.66501e-07
-3.93901e-07
4.17171e-07
2.55518e-07
-2.07974e-07
4.24795e-07
6.95976e-07
1.28009e-07
4.26807e-07
9.68001e-07
6.11664e-07
4.17177e-07
1.03004e-06
1.1609e-06
3.90176e-07
8.73289e-07
1.73369e-06
3.42589e-07
5.39815e-07
2.2912e-06
2.77799e-07
1.15085e-07
2.81049e-06
2.06971e-07
-2.97673e-07
3.2911e-06
1.43101e-07
-6.12691e-07
3.75676e-06
9.35197e-08
-7.88057e-07
4.23949e-06
5.86779e-08
-8.2468e-07
4.74829e-06
3.58008e-08
-7.45976e-07
5.25081e-06
2.17957e-08
-5.80915e-07
5.68375e-06
1.56361e-08
-3.63068e-07
5.97957e-06
1.89968e-08
-1.42755e-07
6.06237e-06
3.68565e-08
-9.3309e-10
5.56286e-06
7.29142e-08
3.106e-06
8.68257e-08
2.60222e-10
4.68225e-06
5.39118e-08
-1.06319e-07
8.18373e-06
3.13447e-09
-3.04882e-07
8.72417e-06
-2.37456e-08
-5.56313e-07
8.43496e-06
-2.79896e-08
-8.61278e-07
7.67478e-06
-1.18802e-08
-1.22577e-06
6.62768e-06
3.81161e-08
-1.65668e-06
5.53865e-06
1.15561e-07
-2.14926e-06
4.54122e-06
2.11808e-07
-2.66585e-06
3.65004e-06
3.18059e-07
-3.13122e-06
2.81628e-06
4.2036e-07
-3.46039e-06
1.99221e-06
5.02193e-07
-3.60256e-06
1.17572e-06
5.51668e-07
-3.5641e-06
4.1004e-07
5.69332e-07
-3.37617e-06
-2.68737e-07
5.67077e-07
-3.08603e-06
-8.31056e-07
5.58212e-07
-2.6774e-06
-1.22866e-06
5.51166e-07
-2.18552e-06
-1.45743e-06
5.50023e-07
-1.61905e-06
-1.51758e-06
5.56285e-07
-9.8833e-07
-1.40965e-06
5.70038e-07
-3.18783e-07
-1.13236e-06
5.89897e-07
3.685e-07
-6.88756e-07
6.12229e-07
9.75789e-07
-7.84167e-08
6.31174e-07
1.45614e-06
6.14759e-07
6.37857e-07
1.72686e-06
1.39982e-06
6.2016e-07
1.74425e-06
2.22329e-06
5.69601e-07
1.52661e-06
3.01825e-06
4.90589e-07
1.15362e-06
3.72882e-06
4.01254e-07
7.42943e-07
4.32806e-06
3.22536e-07
3.9974e-07
4.82732e-06
2.64611e-07
1.70874e-07
5.25451e-06
2.25636e-07
4.55044e-08
5.61011e-06
1.99577e-07
-8.25255e-09
5.8541e-06
1.79944e-07
-1.31005e-08
5.90446e-06
1.63685e-07
6.86203e-09
5.38937e-06
1.54815e-07
3.00054e-06
1.14211e-07
-1.95339e-07
4.80706e-06
6.93426e-08
-5.76767e-07
8.49957e-06
6.46165e-08
-1.03593e-06
9.12526e-06
5.73037e-08
-1.5368e-06
8.87112e-06
6.40917e-08
-2.079e-06
8.12571e-06
9.08131e-08
-2.6502e-06
7.05281e-06
1.45748e-07
-3.23034e-06
5.89334e-06
2.2515e-07
-3.77412e-06
4.76809e-06
3.16557e-07
-4.20271e-06
3.67655e-06
4.01589e-07
-4.43565e-06
2.58825e-06
4.60335e-07
-4.44177e-06
1.51663e-06
4.80965e-07
-4.24823e-06
5.13337e-07
4.68048e-07
-3.91767e-06
-3.59004e-07
4.37675e-07
-3.52325e-06
-1.06915e-06
4.05193e-07
-3.10323e-06
-1.63083e-06
3.78966e-07
-2.65419e-06
-2.04058e-06
3.62113e-07
-2.16797e-06
-2.29988e-06
3.55481e-07
-1.63402e-06
-2.41151e-06
3.59211e-07
-1.0406e-06
-2.3773e-06
3.73449e-07
-3.76219e-07
-2.19609e-06
3.9855e-07
3.65283e-07
-1.8658e-06
4.34717e-07
1.18955e-06
-1.38509e-06
4.81553e-07
2.0226e-06
-7.55432e-07
5.36286e-07
2.82998e-06
5.05202e-10
5.91127e-07
3.46759e-06
9.52252e-07
6.32762e-07
3.85276e-06
1.98714e-06
6.45545e-07
3.90822e-06
3.05477e-06
6.18583e-07
3.62974e-06
4.05015e-06
5.56815e-07
3.10414e-06
4.8712e-06
4.82467e-07
2.46716e-06
5.47468e-06
4.17778e-07
1.82713e-06
5.88093e-06
3.70329e-07
1.23104e-06
6.11646e-06
3.34979e-07
6.9678e-07
6.14029e-06
2.99813e-07
2.55838e-07
5.57771e-06
2.5417e-07
3.10595e-06
1.5253e-07
-1.16828e-07
4.84261e-06
8.01e-08
-4.66327e-07
8.74036e-06
1.07841e-07
-9.58814e-07
9.49371e-06
1.23329e-07
-1.50784e-06
9.27415e-06
1.45355e-07
-2.08779e-06
8.51999e-06
1.85141e-07
-2.669e-06
7.37961e-06
2.53959e-07
-3.20017e-06
6.07913e-06
3.44938e-07
-3.60126e-06
4.73043e-06
4.38237e-07
-3.7949e-06
3.36134e-06
5.08232e-07
-3.7635e-06
2.02024e-06
5.35882e-07
-3.56148e-06
7.9132e-07
5.22521e-07
-3.2684e-06
-2.66464e-07
4.85936e-07
-2.92251e-06
-1.14998e-06
4.44322e-07
-2.54819e-06
-1.85272e-06
4.08506e-07
-2.16744e-06
-2.39444e-06
3.82151e-07
-1.7847e-06
-2.78921e-06
3.65191e-07
-1.3962e-06
-3.0459e-06
3.56842e-07
-9.93727e-07
-3.17111e-06
3.56453e-07
-5.66196e-07
-3.16926e-06
3.63752e-07
-1.0069e-07
-3.04138e-06
3.79088e-07
4.15158e-07
-2.78571e-06
4.03338e-07
9.90139e-07
-2.39874e-06
4.3792e-07
1.62256e-06
-1.87351e-06
4.84867e-07
2.27689e-06
-1.19891e-06
5.4426e-07
2.97255e-06
-3.56063e-07
6.11816e-07
3.6199e-06
6.6166e-07
6.77367e-07
4.10092e-06
1.84938e-06
7.23791e-07
4.27414e-06
3.14537e-06
7.31318e-07
4.0523e-06
4.40025e-06
6.92992e-07
3.47092e-06
5.42979e-06
6.26898e-07
2.66429e-06
6.12809e-06
5.60368e-07
1.78194e-06
6.49718e-06
5.02747e-07
9.4891e-07
6.53463e-06
4.39948e-07
3.01363e-07
5.87382e-06
3.52894e-07
3.21961e-06
1.89648e-07
-1.51242e-07
4.9065e-06
8.63028e-08
-5.47723e-07
8.99557e-06
1.40525e-07
-1.0895e-06
9.86283e-06
1.72016e-07
-1.68753e-06
9.67076e-06
2.00895e-07
-2.2971e-06
8.88355e-06
2.45614e-07
-2.8532e-06
7.61849e-06
3.16908e-07
-3.26919e-06
6.09356e-06
4.01238e-07
-3.45954e-06
4.44908e-06
4.71283e-07
-3.3995e-06
2.8006e-06
5.00151e-07
-3.14673e-06
1.28505e-06
4.81757e-07
-2.77315e-06
-1.69661e-08
4.33985e-07
-2.3591e-06
-1.05991e-06
3.78676e-07
-1.93426e-06
-1.90451e-06
3.28984e-07
-1.50582e-06
-2.57183e-06
2.89989e-07
-1.07837e-06
-3.0844e-06
2.61855e-07
-6.53838e-07
-3.45767e-06
2.43298e-07
-2.32205e-07
-3.70143e-06
2.33277e-07
1.87537e-07
-3.82256e-06
2.31104e-07
6.06726e-07
-3.82548e-06
2.36426e-07
1.02695e-06
-3.71154e-06
2.49329e-07
1.44985e-06
-3.47953e-06
2.70296e-07
1.8768e-06
-3.12669e-06
3.00347e-07
2.30952e-06
-2.64837e-06
3.41459e-07
2.75102e-06
-2.03678e-06
3.95637e-07
3.20743e-06
-1.27646e-06
4.63195e-07
3.66843e-06
-3.42647e-07
5.42477e-07
4.08305e-06
8.07391e-07
6.26535e-07
4.35149e-06
2.17793e-06
6.98242e-07
4.32822e-06
3.69016e-06
7.32845e-07
3.9044e-06
5.13583e-06
7.17604e-07
3.11461e-06
6.24894e-06
6.69118e-07
2.13294e-06
6.86684e-06
6.12479e-07
1.15259e-06
6.97362e-06
5.42068e-07
3.65044e-07
6.23519e-06
4.27152e-07
3.37287e-06
2.13321e-07
-1.08197e-07
4.91652e-06
9.72416e-08
-4.55185e-07
9.16686e-06
1.75246e-07
-9.66308e-07
1.01505e-05
2.23232e-07
-1.52997e-06
9.97182e-06
2.62548e-07
-2.06559e-06
9.1044e-06
3.14963e-07
-2.47784e-06
7.63958e-06
3.91437e-07
-2.67048e-06
5.81529e-06
4.71137e-07
-2.60459e-06
3.86386e-06
5.19326e-07
-2.3434e-06
2.02454e-06
5.14589e-07
-1.99141e-06
4.64169e-07
4.68363e-07
-1.61791e-06
-7.98112e-07
4.07001e-07
-1.22722e-06
-1.79981e-06
3.48532e-07
-8.37962e-07
-2.59456e-06
3.00127e-07
-4.52343e-07
-3.22148e-06
2.63394e-07
-7.16238e-08
-3.70286e-06
2.37137e-07
3.03151e-07
-4.05245e-06
2.19416e-07
6.71186e-07
-4.27898e-06
2.08948e-07
1.03178e-06
-4.38867e-06
2.0495e-07
1.38403e-06
-4.38537e-06
2.07071e-07
1.7266e-06
-4.27012e-06
2.15446e-07
2.05732e-06
-4.0415e-06
2.30666e-07
2.37285e-06
-3.69664e-06
2.53808e-07
2.66889e-06
-3.23167e-06
2.86631e-07
2.94122e-06
-2.64109e-06
3.31293e-07
3.18853e-06
-1.91387e-06
3.8937e-07
3.40963e-06
-1.02651e-06
4.61955e-07
3.60194e-06
6.55507e-08
5.48659e-07
3.74364e-06
1.39314e-06
6.42176e-07
3.73637e-06
2.9749e-06
7.21627e-07
3.44634e-06
4.66641e-06
7.58704e-07
2.80458e-06
6.14689e-06
7.43339e-07
1.91468e-06
7.06225e-06
6.94352e-07
1.00205e-06
7.27212e-06
6.14333e-07
2.94708e-07
6.46827e-06
4.74889e-07
3.44278e-06
2.26128e-07
-1.59581e-07
4.96191e-06
1.13356e-07
-5.60609e-07
9.3512e-06
2.16691e-07
-1.10486e-06
1.0417e-05
2.78061e-07
-1.67296e-06
1.02175e-05
3.23111e-07
-2.14043e-06
9.19306e-06
3.79894e-07
-2.38515e-06
7.43096e-06
4.54557e-07
-2.35005e-06
5.26708e-06
5.14076e-07
-2.09843e-06
3.09129e-06
5.21387e-07
-1.75459e-06
1.20616e-06
4.74433e-07
-1.39225e-06
-3.00968e-07
4.02344e-07
-1.03532e-06
-1.48606e-06
3.30412e-07
-6.76904e-07
-2.42788e-06
2.69013e-07
-3.09589e-07
-3.18274e-06
2.20251e-07
6.69476e-08
-3.78231e-06
1.8371e-07
4.49313e-07
-4.24312e-06
1.57347e-07
8.33204e-07
-4.57584e-06
1.38975e-07
1.21424e-06
-4.78793e-06
1.27389e-07
1.58804e-06
-4.88487e-06
1.21891e-07
1.94991e-06
-4.86988e-06
1.22138e-07
2.29455e-06
-4.74347e-06
1.28183e-07
2.61572e-06
-4.50369e-06
1.40476e-07
2.90577e-06
-4.14718e-06
1.59919e-07
3.15546e-06
-3.67002e-06
1.88057e-07
3.35463e-06
-3.06792e-06
2.27019e-07
3.49522e-06
-2.33377e-06
2.7862e-07
3.57485e-06
-1.45147e-06
3.44565e-07
3.60187e-06
-3.89146e-07
4.26852e-07
3.56437e-06
9.05004e-07
5.24713e-07
3.43708e-06
2.47372e-06
6.27489e-07
3.1379e-06
4.25618e-06
7.08465e-07
2.57626e-06
5.96804e-06
7.39669e-07
1.77802e-06
7.1416e-06
7.18445e-07
9.387e-07
7.46454e-06
6.46915e-07
2.78993e-07
6.63075e-06
4.97859e-07
3.49505e-06
2.28258e-07
-2.06298e-07
5.02834e-06
1.39252e-07
-6.6868e-07
9.54211e-06
2.71982e-07
-1.25286e-06
1.06536e-05
3.48651e-07
-1.80578e-06
1.03706e-05
4.01537e-07
-2.14319e-06
9.06916e-06
4.6365e-07
-2.16869e-06
6.92811e-06
5.30661e-07
-1.94202e-06
4.48581e-06
5.56204e-07
-1.62365e-06
2.2567e-06
5.1685e-07
-1.3206e-06
4.64944e-07
4.38033e-07
-1.03674e-06
-9.39621e-07
3.54288e-07
-7.5158e-07
-2.05366e-06
2.81805e-07
-4.48719e-07
-2.95485e-06
2.23471e-07
-1.23006e-07
-3.6871e-06
1.78051e-07
2.22151e-07
-4.27223e-06
1.44209e-07
5.80564e-07
-4.72179e-06
1.19738e-07
9.45983e-07
-5.04414e-06
1.02385e-07
1.31257e-06
-5.24586e-06
9.08718e-08
1.67463e-06
-5.33184e-06
8.44391e-08
2.02613e-06
-5.30459e-06
8.27194e-08
2.36022e-06
-5.16384e-06
8.57795e-08
2.66875e-06
-4.90685e-06
9.4113e-08
2.94196e-06
-4.52958e-06
1.08647e-07
3.1684e-06
-4.0279e-06
1.30852e-07
3.3351e-06
-3.39809e-06
1.62841e-07
3.42957e-06
-2.6356e-06
2.06673e-07
3.44285e-06
-1.72983e-06
2.64341e-07
3.37125e-06
-6.57064e-07
3.38706e-07
3.22011e-06
6.23376e-07
4.31889e-07
2.99293e-06
2.16002e-06
5.39945e-07
2.66236e-06
3.94191e-06
6.43907e-07
2.16815e-06
5.75067e-06
7.10861e-07
1.49517e-06
7.09594e-06
7.1833e-07
7.84022e-07
7.51883e-06
6.57137e-07
2.28344e-07
6.68405e-06
5.03432e-07
3.50099e-06
2.24455e-07
-3.22801e-07
5.17961e-06
1.71157e-07
-9.39218e-07
9.82092e-06
3.38694e-07
-1.62788e-06
1.09157e-05
4.28518e-07
-2.19888e-06
1.046e-05
4.84396e-07
-2.43461e-06
8.76571e-06
5.42664e-07
-2.34341e-06
6.26164e-06
5.78187e-07
-2.11292e-06
3.70968e-06
5.47219e-07
-1.89686e-06
1.5796e-06
4.61346e-07
-1.71331e-06
-8.20011e-08
3.62991e-07
-1.52076e-06
-1.40942e-06
2.76592e-07
-1.29046e-06
-2.49171e-06
2.0707e-07
-1.01129e-06
-3.38713e-06
1.52485e-07
-6.87128e-07
-4.12207e-06
1.1024e-07
-3.27928e-07
-4.71048e-06
7.85384e-08
5.58472e-08
-5.1614e-06
5.53615e-08
4.55021e-07
-5.48243e-06
3.86608e-08
8.61821e-07
-5.6802e-06
2.70962e-08
1.2688e-06
-5.75925e-06
1.99803e-08
1.66813e-06
-5.72144e-06
1.70762e-08
2.05097e-06
-5.56565e-06
1.85012e-08
2.4073e-06
-5.28823e-06
2.45753e-08
2.72552e-06
-4.88423e-06
3.59165e-08
2.99229e-06
-4.34892e-06
5.37144e-08
3.19233e-06
-3.67862e-06
7.98801e-08
3.30998e-06
-2.8704e-06
1.16488e-07
3.33179e-06
-1.91805e-06
1.65682e-07
3.24971e-06
-8.06526e-07
2.30742e-07
3.06335e-06
4.93552e-07
3.15332e-07
2.78071e-06
2.02175e-06
4.2003e-07
2.41022e-06
3.77754e-06
5.34048e-07
1.93509e-06
5.59682e-06
6.28421e-07
1.34034e-06
7.02173e-06
6.68907e-07
7.18047e-07
7.51142e-06
6.30377e-07
2.16582e-07
6.70184e-06
4.85234e-07
3.50941e-06
2.10665e-07
-4.29291e-07
5.40497e-06
2.037e-07
-1.20159e-06
1.01862e-05
4.08678e-07
-2.00561e-06
1.12118e-05
5.10769e-07
-2.60492e-06
1.04994e-05
5.63711e-07
-2.8207e-06
8.38494e-06
6.0035e-07
-2.79947e-06
5.66061e-06
5.82265e-07
-2.75031e-06
3.16527e-06
4.96027e-07
-2.72732e-06
1.17197e-06
3.84314e-07
-2.67744e-06
-4.16089e-07
2.83447e-07
-2.56464e-06
-1.72581e-06
2.02782e-07
-2.37104e-06
-2.82623e-06
1.40173e-07
-2.10261e-06
-3.74807e-06
9.1857e-08
-1.77288e-06
-4.50716e-06
5.47972e-08
-1.39632e-06
-5.11433e-06
2.67733e-08
-9.84052e-07
-5.5785e-06
4.35745e-09
-5.51923e-07
-5.9079e-06
-7.10041e-09
-1.08265e-07
-6.10953e-06
-1.4755e-08
3.39711e-07
-6.18781e-06
-1.98311e-08
7.84256e-07
-6.14406e-06
-2.23475e-08
1.2167e-06
-5.97625e-06
-2.22673e-08
1.62684e-06
-5.67954e-06
-1.92819e-08
2.00277e-06
-5.2478e-06
-1.2826e-08
2.33148e-06
-4.6755e-06
-2.64514e-09
2.59232e-06
-3.95872e-06
1.86858e-08
2.76838e-06
-3.09541e-06
4.83075e-08
2.84372e-06
-2.08243e-06
8.83309e-08
2.80509e-06
-9.11163e-07
1.42487e-07
2.64691e-06
4.35761e-07
2.15139e-07
2.37781e-06
1.98086e-06
3.0917e-07
2.01711e-06
3.71805e-06
4.19477e-07
1.58148e-06
5.50817e-06
5.23895e-07
1.07981e-06
6.93744e-06
5.86124e-07
5.74641e-07
7.44861e-06
5.68932e-07
1.69189e-07
6.66911e-06
4.40035e-07
3.49516e-06
1.86128e-07
-5.24992e-07
5.7062e-06
2.23392e-07
-1.46416e-06
1.06674e-05
4.5938e-07
-2.42644e-06
1.16116e-05
5.65226e-07
-3.15514e-06
1.06313e-05
6.00063e-07
-3.5584e-06
8.19855e-06
5.92215e-07
-3.8226e-06
5.41087e-06
5.14897e-07
-4.05854e-06
3.00688e-06
3.9397e-07
-4.23304e-06
1.06801e-06
2.77507e-07
-4.29141e-06
-5.42972e-07
1.8419e-07
-4.22472e-06
-1.90631e-06
1.12835e-07
-4.03917e-06
-3.07091e-06
5.82998e-08
-3.75271e-06
-4.05056e-06
1.53189e-08
-3.39091e-06
-4.85677e-06
-1.281e-08
-2.97409e-06
-5.50015e-06
-3.15394e-08
-2.51662e-06
-5.99104e-06
-4.53994e-08
-2.03058e-06
-6.33931e-06
-5.50701e-08
-1.52578e-06
-6.55319e-06
-6.15423e-08
-1.01089e-06
-6.63758e-06
-6.55117e-08
-4.94408e-07
-6.59352e-06
-6.73935e-08
1.44587e-08
-6.41818e-06
-6.73175e-08
5.05191e-07
-6.10558e-06
-6.50776e-08
9.65412e-07
-5.64834e-06
-6.00874e-08
1.38037e-06
-5.03958e-06
-5.13248e-08
1.733e-06
-4.27449e-06
-3.73606e-08
2.00502e-06
-3.35121e-06
-1.68101e-08
2.17751e-06
-2.26859e-06
1.29988e-08
2.23228e-06
-1.02348e-06
5.68121e-08
2.16065e-06
3.90416e-07
1.16183e-07
1.96356e-06
1.9814e-06
1.95775e-07
1.66212e-06
3.7245e-06
2.94375e-07
1.28805e-06
5.48547e-06
3.96481e-07
8.73036e-07
6.8831e-06
4.69603e-07
4.67019e-07
7.38317e-06
4.72456e-07
1.36991e-07
6.63233e-06
3.68644e-07
3.48334e-06
1.51316e-07
-5.00481e-07
5.98925e-06
2.16443e-07
-1.49431e-06
1.11973e-05
4.64186e-07
-2.58657e-06
1.21395e-05
5.65256e-07
-3.53838e-06
1.10114e-05
5.7252e-07
-4.2909e-06
8.43334e-06
5.17777e-07
-4.92802e-06
5.64377e-06
4.03311e-07
-5.44529e-06
3.24821e-06
2.74504e-07
-5.79202e-06
1.24624e-06
1.66951e-07
-5.94474e-06
-4.77356e-07
8.56835e-08
-5.92076e-06
-1.95569e-06
2.41832e-08
-5.74946e-06
-3.22613e-06
-1.70973e-08
-5.46252e-06
-4.29385e-06
-4.45001e-08
-5.08556e-06
-5.16977e-06
-6.46606e-08
-4.64124e-06
-5.86629e-06
-7.87911e-08
-4.14805e-06
-6.39656e-06
-8.81913e-08
-3.62041e-06
-6.77339e-06
-9.40157e-08
-3.06937e-06
-7.00734e-06
-9.72902e-08
-2.5039e-06
-7.10463e-06
-9.87917e-08
-1.93222e-06
-7.06655e-06
-9.89949e-08
-1.36286e-06
-6.88976e-06
-9.80936e-08
-8.05589e-07
-6.56721e-06
-9.5955e-08
-2.72049e-07
-6.09011e-06
-9.20928e-08
2.23747e-07
-5.45011e-06
-8.56233e-08
6.65047e-07
-4.64092e-06
-7.52799e-08
1.03276e-06
-3.65969e-06
-5.97101e-08
1.30706e-06
-2.50613e-06
-3.73392e-08
1.46941e-06
-1.18108e-06
-5.41815e-09
1.50565e-06
3.13269e-07
4.01945e-08
1.41637e-06
1.96655e-06
1.03465e-07
1.21747e-06
3.73775e-06
1.85159e-07
9.43259e-07
5.48467e-06
2.74829e-07
6.34818e-07
6.84562e-06
3.46213e-07
3.35522e-07
7.3223e-06
3.61088e-07
9.30851e-08
6.59283e-06
2.83549e-07
3.46661e-06
1.11941e-07
-3.37153e-07
6.14904e-06
1.75466e-07
-1.21079e-06
1.16624e-05
4.06503e-07
-2.32178e-06
1.27523e-05
4.95901e-07
-3.48788e-06
1.16959e-05
4.78865e-07
-4.61079e-06
9.15808e-06
3.9523e-07
-5.59891e-06
6.35873e-06
2.70391e-07
-6.36885e-06
3.86532e-06
1.50356e-07
-6.88313e-06
1.7006e-06
5.77439e-08
-7.13761e-06
-2.15576e-07
-9.15538e-09
-7.18518e-06
-1.85766e-06
-5.2008e-08
-7.05496e-06
-3.27517e-06
-8.24326e-08
-6.78473e-06
-4.46219e-06
-1.02898e-07
-6.40757e-06
-5.43156e-06
-1.16188e-07
-5.95115e-06
-6.19897e-06
-1.24409e-07
-5.43786e-06
-6.78143e-06
-1.28981e-07
-4.88488e-06
-7.19597e-06
-1.30865e-07
-4.30492e-06
-7.45685e-06
-1.30861e-07
-3.70742e-06
-7.57279e-06
-1.29684e-07
-3.10025e-06
-7.54623e-06
-1.278e-07
-2.49107e-06
-7.37379e-06
-1.25421e-07
-1.8884e-06
-7.04766e-06
-1.2247e-07
-1.30244e-06
-6.55776e-06
-1.18557e-07
-7.45891e-07
-5.89396e-06
-1.12963e-07
-2.34476e-07
-5.04798e-06
-1.04654e-07
2.13429e-07
-4.0154e-06
-9.258e-08
5.77972e-07
-2.79553e-06
-7.5623e-08
8.39539e-07
-1.39163e-06
-5.15817e-08
9.82348e-07
1.86537e-07
-1.66854e-08
1.00025e-06
1.91667e-06
3.14363e-08
9.04851e-07
3.73789e-06
9.48869e-08
7.24608e-07
5.49676e-06
1.68097e-07
4.99638e-07
6.83996e-06
2.30926e-07
2.70119e-07
7.30069e-06
2.51886e-07
7.56184e-08
6.589e-06
1.99578e-07
3.46906e-06
7.47491e-08
-6.0131e-08
6.09617e-06
1.10344e-07
-5.87924e-07
1.18856e-05
3.00206e-07
-1.49634e-06
1.32786e-05
3.76852e-07
-2.65582e-06
1.24985e-05
3.50916e-07
-3.96902e-06
1.02015e-05
2.64027e-07
-5.19401e-06
7.42939e-06
1.49686e-07
-6.17498e-06
4.795e-06
4.7634e-08
-6.86237e-06
2.41243e-06
-2.73911e-08
-7.27883e-06
2.77325e-07
-7.88491e-08
-7.42993e-06
-1.59613e-06
-1.1236e-07
-7.37506e-06
-3.19794e-06
-1.33626e-07
-7.15968e-06
-4.53246e-06
-1.46292e-07
-6.82281e-06
-5.61638e-06
-1.52977e-07
-6.39665e-06
-6.47022e-06
-1.55647e-07
-5.90712e-06
-7.11584e-06
-1.5571e-07
-5.37416e-06
-7.57545e-06
-1.53978e-07
-4.81213e-06
-7.8683e-06
-1.50981e-07
-4.23096e-06
-8.007e-06
-1.47316e-07
-3.63797e-06
-7.9961e-06
-1.43406e-07
-3.03969e-06
-7.83287e-06
-1.39453e-07
-2.44305e-06
-7.50912e-06
-1.35396e-07
-1.85658e-06
-7.01351e-06
-1.3092e-07
-1.29116e-06
-6.33411e-06
-1.25474e-07
-7.60803e-07
-5.4604e-06
-1.18181e-07
-2.82507e-07
-4.38579e-06
-1.08213e-07
1.24796e-07
-3.10832e-06
-9.49099e-08
4.41541e-07
-1.63204e-06
-7.68288e-08
6.49041e-07
2.99123e-08
-5.14027e-08
7.39292e-07
1.84047e-06
-1.45108e-08
7.1667e-07
3.72751e-06
3.27446e-08
6.02492e-07
5.5227e-06
8.82684e-08
4.3015e-07
6.87363e-06
1.38945e-07
2.38407e-07
7.33236e-06
1.60591e-07
6.79924e-08
6.63158e-06
1.28604e-07
3.49282e-06
4.51848e-08
1.7423e-07
5.86955e-06
4.95619e-08
6.54638e-08
1.18061e-05
1.82788e-07
-4.71088e-07
1.35629e-05
2.45591e-07
-1.3547e-06
1.31503e-05
2.24258e-07
-2.56985e-06
1.12558e-05
1.53213e-07
-3.82823e-06
8.6188e-06
6.26526e-08
-4.91066e-06
5.88881e-06
-1.62545e-08
-5.71755e-06
3.29438e-06
-7.8807e-08
-6.23862e-06
9.14044e-07
-1.18541e-07
-6.49704e-06
-1.19599e-06
-1.43915e-07
-6.53676e-06
-3.0005e-06
-1.59361e-07
-6.40519e-06
-4.49767e-06
-1.67578e-07
-6.14367e-06
-5.70817e-06
-1.70645e-07
-5.78627e-06
-6.65804e-06
-1.70291e-07
-5.36067e-06
-7.3741e-06
-1.67899e-07
-4.88863e-06
-7.88371e-06
-1.64237e-07
-4.38604e-06
-8.21158e-06
-1.59697e-07
-3.8636e-06
-8.37501e-06
-1.54766e-07
-3.32858e-06
-8.3816e-06
-1.49804e-07
-2.78679e-06
-8.22992e-06
-1.44986e-07
-2.24413e-06
-7.91174e-06
-1.40264e-07
-1.70774e-06
-7.41471e-06
-1.35383e-07
-1.18706e-06
-6.72508e-06
-1.29908e-07
-6.94423e-07
-5.83018e-06
-1.23079e-07
-2.45076e-07
-4.72121e-06
-1.14216e-07
1.43631e-07
-3.39444e-06
-1.02978e-07
4.52979e-07
-1.8533e-06
-8.85667e-08
6.65916e-07
-1.141e-07
-6.94544e-08
7.68593e-07
1.78042e-06
-4.30946e-08
7.57673e-07
3.74376e-06
-5.59969e-09
6.50981e-07
5.59531e-06
3.40603e-08
4.76077e-07
6.97645e-06
7.22058e-08
2.71795e-07
7.44539e-06
9.14254e-08
8.3384e-08
6.74613e-06
7.40556e-08
3.55295e-06
2.34747e-08
2.80788e-07
5.577e-06
9.21081e-09
4.91787e-07
1.15051e-05
8.49719e-08
3.507e-07
1.35646e-05
1.3307e-07
-1.23274e-07
1.34945e-05
1.22143e-07
-1.00013e-06
1.20495e-05
7.49246e-08
-2.05831e-06
9.65543e-06
1.44588e-08
-3.05067e-06
6.92262e-06
-4.7039e-08
-3.84203e-06
4.17368e-06
-9.21394e-08
-4.38667e-06
1.5784e-06
-1.22762e-07
-4.69362e-06
-7.47227e-07
-1.43954e-07
-4.79637e-06
-2.74148e-06
-1.57754e-07
-4.73783e-06
-4.39195e-06
-1.65299e-07
-4.55603e-06
-5.72276e-06
-1.67954e-07
-4.28253e-06
-6.7649e-06
-1.67217e-07
-3.94322e-06
-7.54941e-06
-1.64466e-07
-3.55913e-06
-8.10765e-06
-1.60547e-07
-3.14614e-06
-8.46904e-06
-1.55875e-07
-2.71499e-06
-8.65558e-06
-1.50892e-07
-2.27276e-06
-8.6782e-06
-1.45921e-07
-1.82477e-06
-8.53706e-06
-1.41121e-07
-1.37623e-06
-8.22408e-06
-1.36462e-07
-9.33566e-07
-7.72589e-06
-1.31738e-07