/*--------------------------------*- C++ -*----------------------------------*\
| =========                 |                                                 |
| \\      /  F ield         | OpenFOAM: The Open Source CFD Toolbox           |
|  \\    /   O peration     | Version:  v2006                                 |
|   \\  /    A nd           | Website:  www.openfoam.com                      |
|    \\/     M anipulation  |                                                 |
\*---------------------------------------------------------------------------*/
FoamFile
{
    version     2.0;
    format      ascii;
    class       volVectorField;
    location    "6";
    object      U;
}
// * * * * * * * * * * * * * * * * * * * * * * * * * * * * * * * * * * * * * //

dimensions      [0 1 -1 0 0 0 0];


internalField   nonuniform List<vector> 
78750
(
(-0.0784605 -0.040431 -0.0337979)
(-0.0470379 -0.0413257 -0.0377429)
(-0.0417441 -0.0383697 -0.0359181)
(-0.0379159 -0.0352582 -0.0354116)
(-0.0314203 -0.0319517 -0.034475)
(-0.0263768 -0.0294961 -0.0341839)
(-0.0209032 -0.0271212 -0.033914)
(-0.0159081 -0.0249028 -0.0337633)
(-0.0112372 -0.022773 -0.0336791)
(-0.00684846 -0.0207212 -0.0336303)
(-0.0027643 -0.0187561 -0.0336037)
(0.00103182 -0.016867 -0.0335674)
(0.00458182 -0.0150338 -0.0334812)
(0.00790737 -0.0132532 -0.033331)
(0.0109818 -0.011542 -0.0331323)
(0.0138032 -0.00991027 -0.0328948)
(0.0163937 -0.00835585 -0.0326163)
(0.0187629 -0.00686847 -0.0322916)
(0.0209129 -0.00542628 -0.0319125)
(0.0228397 -0.00400871 -0.0314664)
(0.0245341 -0.00259552 -0.0309392)
(0.0259802 -0.00116492 -0.0303182)
(0.0271592 0.00030623 -0.0295847)
(0.0280405 0.00184175 -0.0287198)
(0.0285853 0.00346715 -0.0277034)
(0.0287493 0.00520825 -0.0265104)
(0.0284774 0.00708827 -0.0251109)
(0.0277032 0.00912384 -0.0234691)
(0.0263492 0.0113195 -0.0215436)
(0.0243239 0.0136588 -0.01929)
(0.021558 0.0160889 -0.0166728)
(0.0179495 0.0186084 -0.0136161)
(0.0132426 0.0212506 -0.00984145)
(0.00738229 0.0222624 -0.00491571)
(0.00168499 0.0146483 0.000272261)
(-0.00354045 0.0151442 -0.016309)
(-0.0094486 -0.0337013 -0.0520487)
(-0.0165634 -0.0493102 -0.0654783)
(-0.0208492 -0.04822 -0.0684954)
(-0.0238076 -0.0415198 -0.0678732)
(-0.0255886 -0.0359064 -0.0664311)
(-0.0264174 -0.0323374 -0.0650645)
(-0.0264316 -0.029542 -0.0638188)
(-0.0258537 -0.0269567 -0.0626535)
(-0.0247883 -0.0244732 -0.0616196)
(-0.0233299 -0.0220621 -0.0607561)
(-0.021607 -0.0197553 -0.0600568)
(-0.0197447 -0.0175756 -0.0594745)
(-0.0177968 -0.0155086 -0.058957)
(-0.0157783 -0.0135275 -0.0584697)
(-0.0136958 -0.0116115 -0.0579931)
(-0.0115522 -0.00974663 -0.057514)
(-0.00935585 -0.00792149 -0.0570212)
(-0.0071535 -0.00611639 -0.0565014)
(-0.00498759 -0.0042713 -0.0559078)
(-0.00286557 -0.00233582 -0.0551996)
(-0.000801247 -0.000274908 -0.0543399)
(0.00117902 0.00194238 -0.0532862)
(0.00304491 0.00435653 -0.051992)
(0.004763 0.00702311 -0.0504088)
(0.00629398 0.0100088 -0.0484827)
(0.00759115 0.0133871 -0.0461465)
(0.00859931 0.017237 -0.0433037)
(0.00925084 0.0216458 -0.0398133)
(0.00946005 0.0267116 -0.0354758)
(0.00911389 0.0325278 -0.0300352)
(0.00805441 0.0390381 -0.0232662)
(0.00614537 0.0453428 -0.0153301)
(0.00357684 0.0476981 -0.00704088)
(0.000565133 0.0329537 0.000108407)
(-0.000354082 0.0582606 -0.00730813)
(-0.00513975 0.0754166 -0.0250088)
(-0.0118623 0.0718027 -0.0315399)
(-0.0176487 0.0619293 -0.0321933)
(-0.021562 0.0505552 -0.0318875)
(-0.0238929 0.0396584 -0.0321696)
(-0.0251216 0.0297309 -0.0329647)
(-0.0254747 0.0208657 -0.0341375)
(-0.0251118 0.013465 -0.0354309)
(-0.0242233 0.00773044 -0.0366719)
(-0.0230323 0.00404373 -0.0376836)
(-0.0215866 0.00237348 -0.0384119)
(-0.019973 0.0020791 -0.0389972)
(-0.0183451 0.0024138 -0.0395582)
(-0.0167303 0.00303771 -0.0401175)
(-0.0151185 0.00387585 -0.0406684)
(-0.0135371 0.00491123 -0.0412015)
(-0.0120189 0.0061447 -0.0417053)
(-0.0105225 0.00757459 -0.0421639)
(-0.00900813 0.00923927 -0.0425551)
(-0.00750944 0.0111795 -0.042853)
(-0.00605618 0.0134663 -0.0430182)
(-0.00464414 0.0161689 -0.043014)
(-0.00330165 0.0192536 -0.0428192)
(-0.00206094 0.0226759 -0.0423982)
(-0.000924503 0.0264643 -0.0416864)
(8.93398e-05 0.030663 -0.0405964)
(0.000953014 0.0353244 -0.039008)
(0.00163201 0.0405051 -0.0367543)
(0.00208121 0.0462229 -0.0336108)
(0.00224789 0.0523516 -0.0293231)
(0.00208217 0.0583571 -0.0237375)
(0.00161256 0.06276 -0.0170195)
(0.000892732 0.0612482 -0.00928556)
(-1.98663e-05 0.0384826 -0.00141406)
(-0.000625121 0.0600659 -0.00426333)
(-0.00261026 0.0734042 -0.0159322)
(-0.0043515 0.0642891 -0.0213547)
(-0.00562637 0.0488964 -0.0233745)
(-0.00649742 0.0325172 -0.0243651)
(-0.00718643 0.0179245 -0.0255543)
(-0.00777316 0.00586819 -0.0269962)
(-0.00830835 -0.00354541 -0.0284048)
(-0.00882159 -0.010155 -0.0294891)
(-0.00925881 -0.0138617 -0.0300728)
(-0.00956322 -0.015034 -0.0302488)
(-0.00966036 -0.0145649 -0.0302541)
(-0.00953162 -0.0134932 -0.03029)
(-0.00920037 -0.0122947 -0.0304028)
(-0.00870098 -0.0109976 -0.0305742)
(-0.00805775 -0.00956031 -0.0307903)
(-0.00728026 -0.00794949 -0.0310421)
(-0.00637587 -0.006133 -0.0313222)
(-0.00538547 -0.00408135 -0.0316167)
(-0.00435414 -0.00176067 -0.0319182)
(-0.00328857 0.000876988 -0.0322072)
(-0.00219911 0.00387506 -0.0324585)
(-0.00110633 0.00726716 -0.0326419)
(-5.30693e-05 0.0110878 -0.0327209)
(0.000914804 0.0153882 -0.0326516)
(0.00176449 0.0202349 -0.0323793)
(0.00247253 0.0256979 -0.0318331)
(0.00301782 0.0318443 -0.0309133)
(0.0033769 0.0387307 -0.0294726)
(0.00352287 0.0463434 -0.0273017)
(0.00342224 0.0544178 -0.0241548)
(0.00302482 0.0620536 -0.0198919)
(0.00237796 0.0673915 -0.0146913)
(0.00148612 0.0663016 -0.00826644)
(0.000291058 0.0413813 -0.00101204)
(0.000567749 0.063622 -0.00282973)
(0.000808933 0.0896574 -0.011811)
(0.000443081 0.0874808 -0.017103)
(-0.000138336 0.0788069 -0.0200931)
(-0.00101237 0.0684589 -0.0217659)
(-0.00206627 0.0587645 -0.0225292)
(-0.00325001 0.0506179 -0.0225219)
(-0.00452265 0.0439755 -0.0218723)
(-0.00582131 0.0383547 -0.0208298)
(-0.00704868 0.0332176 -0.0197549)
(-0.00808091 0.0283498 -0.019004)
(-0.00879614 0.0241404 -0.0187013)
(-0.00920556 0.0211262 -0.0187198)
(-0.00942617 0.0191591 -0.0190017)
(-0.00951543 0.0177921 -0.0195643)
(-0.00949087 0.0167716 -0.0203742)
(-0.0093491 0.0160486 -0.0213651)
(-0.00907964 0.0156514 -0.0224716)
(-0.00867276 0.0156472 -0.0236366)
(-0.00812796 0.0161242 -0.0248107)
(-0.0074645 0.0171761 -0.0259461)
(-0.00674234 0.0188932 -0.0269883)
(-0.00601323 0.0213964 -0.0278577)
(-0.005291 0.0248687 -0.0285056)
(-0.00459079 0.0292856 -0.0289072)
(-0.00395487 0.0343713 -0.0290018)
(-0.00338839 0.0399875 -0.0287036)
(-0.00287957 0.0461551 -0.0279169)
(-0.00242453 0.0528352 -0.0265353)
(-0.00201284 0.0598338 -0.0244436)
(-0.00162516 0.0666661 -0.0215526)
(-0.00125731 0.0723664 -0.0178788)
(-0.000930916 0.0753965 -0.0134943)
(-0.000586998 0.0712622 -0.00790249)
(-0.000266541 0.0420747 -0.00135185)
(3.46889e-05 0.0596243 -0.00245942)
(-0.000288752 0.0898412 -0.00992913)
(-0.000919392 0.0887023 -0.0142399)
(-0.00155613 0.0795205 -0.0165032)
(-0.00222451 0.066531 -0.0172967)
(-0.00279307 0.0532934 -0.0168921)
(-0.00318628 0.0416435 -0.0157167)
(-0.00338112 0.0318537 -0.0141297)
(-0.00339643 0.0235749 -0.0123695)
(-0.00328368 0.0163453 -0.010603)
(-0.00313251 0.00999358 -0.00899707)
(-0.00301124 0.00527787 -0.00765522)
(-0.00287277 0.0024081 -0.00642914)
(-0.00267914 0.000908924 -0.00531791)
(-0.00244113 0.0002385 -0.00450376)
(-0.00217003 5.86578e-05 -0.00411609)
(-0.00190628 0.000171121 -0.00422643)
(-0.00168471 0.000519361 -0.00484534)
(-0.00153387 0.00117868 -0.00592172)
(-0.00147722 0.0023356 -0.00734367)
(-0.00148825 0.00433616 -0.00893892)
(-0.00150392 0.00752612 -0.0106714)
(-0.00149607 0.0118073 -0.0125699)
(-0.00142293 0.0167512 -0.0144673)
(-0.00127361 0.022284 -0.0161999)
(-0.00108879 0.0284241 -0.0176453)
(-0.00091124 0.0351653 -0.018689)
(-0.000764858 0.042472 -0.0192124)
(-0.000645194 0.0502137 -0.0190881)
(-0.000525423 0.0580437 -0.018196)
(-0.00037294 0.0652735 -0.0164736)
(-0.000188155 0.0708697 -0.0139802)
(-2.43026e-05 0.073623 -0.0107842)
(7.56155e-05 0.0694604 -0.00633444)
(5.67467e-05 0.0401736 -0.000800829)
(0.000418457 0.0565776 -0.00192879)
(0.00115169 0.0918279 -0.00805364)
(0.00147369 0.0946518 -0.0117686)
(0.00159772 0.0893074 -0.0138953)
(0.00158912 0.0798734 -0.0149299)
(0.00145161 0.0689223 -0.0148653)
(0.00129016 0.058376 -0.0138602)
(0.0011494 0.0490444 -0.0120855)
(0.00100021 0.0411734 -0.0096737)
(0.000776503 0.0347906 -0.00673796)
(0.000413067 0.0297787 -0.00339574)
(-0.000103414 0.0258056 0.000181108)
(-0.000722633 0.0224591 0.00366337)
(-0.00129552 0.01951 0.00657969)
(-0.00173075 0.0172416 0.00860706)
(-0.0020312 0.0159145 0.00972302)
(-0.00224374 0.0155167 0.00989001)
(-0.00243762 0.0159768 0.00907283)
(-0.00267461 0.0172398 0.00732595)
(-0.00300788 0.0191405 0.00464757)
(-0.0034764 0.0211777 0.00108972)
(-0.00400499 0.0230255 -0.00284042)
(-0.0044866 0.024997 -0.00652123)
(-0.00483182 0.027684 -0.0096085)
(-0.00500548 0.0315451 -0.0120568)
(-0.00499229 0.0366545 -0.0138779)
(-0.0048019 0.0427529 -0.0150558)
(-0.00448072 0.0494174 -0.0155729)
(-0.00407282 0.0562215 -0.0154243)
(-0.00358823 0.0627266 -0.0146144)
(-0.00301251 0.0683659 -0.0131705)
(-0.00236528 0.0723986 -0.0111568)
(-0.00169395 0.073736 -0.00853113)
(-0.000931964 0.0677269 -0.00486317)
(-0.000200099 0.0378858 -0.000580449)
(-1.55097e-05 0.0534984 -0.00185547)
(-5.08916e-05 0.0897676 -0.00729283)
(-0.000199149 0.0933395 -0.0103097)
(-0.000403726 0.0885556 -0.0118187)
(-0.000708776 0.0785918 -0.0121793)
(-0.00109956 0.0659069 -0.0111546)
(-0.00150316 0.0532278 -0.00881923)
(-0.00190864 0.0420292 -0.00541711)
(-0.00234867 0.0328036 -0.00124228)
(-0.0028377 0.0254374 0.00337341)
(-0.00332613 0.0194787 0.00802331)
(-0.00370669 0.0143545 0.0122306)
(-0.00386815 0.00961388 0.0155727)
(-0.00373818 0.00518667 0.0178619)
(-0.00330244 0.00140431 0.0191995)
(-0.00262934 -0.00120924 0.0198749)
(-0.00181475 -0.00222234 0.0201782)
(-0.000915256 -0.00145512 0.020256)
(1.52641e-08 0.00104589 0.0200551)
(0.000835394 0.00496752 0.0193466)
(0.00145943 0.00978541 0.0178087)
(0.00175563 0.014841 0.0151601)
(0.00166994 0.0195709 0.011332)
(0.001228 0.023783 0.00662773)
(0.00055169 0.0277617 0.00170381)
(-0.000179358 0.0321133 -0.00270801)
(-0.0008027 0.0373959 -0.00615108)
(-0.00122001 0.0437685 -0.00848801)
(-0.00139793 0.050826 -0.00973343)
(-0.00135211 0.0577108 -0.00997196)
(-0.00112434 0.0634527 -0.00935877)
(-0.000789576 0.0672976 -0.00808623)
(-0.000434642 0.0685252 -0.00620928)
(-9.35315e-05 0.063045 -0.00341279)
(8.3202e-05 0.0351529 -0.000109426)
(6.19052e-05 0.0529831 -0.00124818)
(-6.79068e-05 0.0912554 -0.00565421)
(-0.000325273 0.0966494 -0.00815325)
(-0.000671973 0.09318 -0.00921263)
(-0.00113645 0.0848204 -0.00902424)
(-0.00170559 0.0735793 -0.00725357)
(-0.00237257 0.0620281 -0.0038998)
(-0.00314609 0.0516746 0.00070797)
(-0.00400255 0.0428389 0.0060056)
(-0.00484987 0.035045 0.0112231)
(-0.00554022 0.0275186 0.0154972)
(-0.00594149 0.0197725 0.0182159)
(-0.00601495 0.0119823 0.0193677)
(-0.00580995 0.0047825 0.0194608)
(-0.00539681 -0.00118504 0.0191052)
(-0.00480124 -0.0054605 0.0187376)
(-0.00405471 -0.00778301 0.018578)
(-0.00318763 -0.00807108 0.0186967)
(-0.00219754 -0.00631619 0.0190938)
(-0.00110152 -0.00256514 0.0196958)
(4.91034e-05 0.00299101 0.0202994)
(0.00115307 0.0100112 0.0205541)
(0.00209354 0.0179813 0.0199783)
(0.00275134 0.0261911 0.0180526)
(0.00300049 0.0338205 0.014483)
(0.00279998 0.04022 0.00957481)
(0.0022453 0.0453431 0.0043197)
(0.00154376 0.0497581 -0.000139078)
(0.000899634 0.0540974 -0.00318926)
(0.000422978 0.058512 -0.00481194)
(0.000134978 0.0625595 -0.00523501)
(2.91365e-06 0.0654676 -0.00473678)
(-3.24822e-05 0.0662276 -0.00351284)
(-2.4183e-06 0.0606923 -0.00150831)
(1.5883e-05 0.0339776 0.000568011)
(-6.56996e-05 0.0535881 -0.00105647)
(-0.000669771 0.0935725 -0.00475356)
(-0.00134835 0.0995367 -0.00664714)
(-0.00207462 0.0960999 -0.0070743)
(-0.00296982 0.0872078 -0.00600174)
(-0.00392559 0.0749184 -0.00308251)
(-0.00489818 0.0621178 0.00142352)
(-0.00585589 0.0502521 0.00677042)
(-0.0066986 0.0392946 0.0119314)
(-0.00727221 0.0285967 0.0158384)
(-0.00746081 0.0178258 0.0178517)
(-0.00727011 0.00737268 0.0181546)
(-0.00680383 -0.00207714 0.017476)
(-0.00618553 -0.0100435 0.0164999)
(-0.00550028 -0.0163142 0.0156185)
(-0.00477465 -0.0208244 0.0149934)
(-0.0040026 -0.02358 0.0146659)
(-0.00316837 -0.0246146 0.0146335)
(-0.0022442 -0.0239371 0.0148991)
(-0.00120476 -0.0215044 0.015482)
(-3.48241e-05 -0.0172644 0.0163874)
(0.00127064 -0.0111974 0.017562)
(0.00266035 -0.00336945 0.0188319)
(0.00404754 0.00605829 0.0198545)
(0.00528955 0.0167404 0.0200887)
(0.00619314 0.0279276 0.0188676)
(0.00659117 0.0384747 0.0157661)
(0.00638033 0.0472535 0.0111604)
(0.00564336 0.053916 0.00630483)
(0.00461787 0.0589582 0.0024557)
(0.00352102 0.0628452 0.000117003)
(0.00250011 0.065471 -0.00081919)
(0.00162441 0.0660709 -0.000671832)
(0.000806227 0.0605578 0.000339626)
(0.000135991 0.0340116 0.00122859)
(2.92429e-05 0.05451 -0.000614153)
(-0.000481991 0.0970253 -0.00341877)
(-0.00119259 0.104619 -0.00478225)
(-0.00198978 0.101878 -0.00470347)
(-0.00295824 0.0936023 -0.00302313)
(-0.00397326 0.0815479 0.000568561)
(-0.00492778 0.0682433 0.00557947)
(-0.00573429 0.0548916 0.0108962)
(-0.00624851 0.0414711 0.0151453)
(-0.00636606 0.0279354 0.0173169)
(-0.0061319 0.0149231 0.0174455)
(-0.00568739 0.00327201 0.0163895)
(-0.00513894 -0.00658054 0.0149937)
(-0.00453503 -0.014565 0.0137205)
(-0.00390572 -0.0207806 0.0127304)
(-0.00327044 -0.0253387 0.0120448)
(-0.00263227 -0.0283051 0.0116418)
(-0.00198329 -0.0297303 0.0114909)
(-0.00130363 -0.0296544 0.0115733)
(-0.000568699 -0.0280859 0.0118965)
(0.000243258 -0.0250091 0.0124899)
(0.00114717 -0.0203904 0.0133918)
(0.00214414 -0.0141489 0.0146339)
(0.0032126 -0.00615482 0.0161962)
(0.00434414 0.00374649 0.0179305)
(0.0054896 0.0155357 0.0194107)
(0.00648974 0.0287662 0.0198796)
(0.00710793 0.0421943 0.0184836)
(0.00708742 0.0538968 0.0150507)
(0.00634664 0.0624193 0.0107026)
(0.00509026 0.0677469 0.00701476)
(0.00366748 0.0705575 0.00473168)
(0.00230145 0.0706813 0.00369793)
(0.00101542 0.063849 0.00340797)
(0.000110975 0.0354105 0.00240902)
(-3.00868e-06 0.0551595 -0.000438138)
(-0.000575536 0.0998616 -0.00260187)
(-0.00137139 0.108513 -0.00347527)
(-0.00224592 0.105862 -0.00293756)
(-0.00329587 0.0969019 -0.000710472)
(-0.00433971 0.0832406 0.00339673)
(-0.00519094 0.0674268 0.00851974)
(-0.00571521 0.0507266 0.0131435)
(-0.00580188 0.0337213 0.0158135)
(-0.00548947 0.0174644 0.0161509)
(-0.00492827 0.00312507 0.0149993)
(-0.004259 -0.00881699 0.0133907)
(-0.0035576 -0.0184725 0.0118969)
(-0.00284782 -0.0261016 0.0107085)
(-0.00213643 -0.0319461 0.00983852)
(-0.00142893 -0.0361894 0.00924363)
(-0.000727931 -0.0389549 0.00887691)
(-3.28717e-05 -0.0403316 0.0087009)
(0.00066014 -0.0403756 0.00869386)
(0.00135548 -0.0391026 0.00885423)
(0.0020554 -0.0364946 0.00919887)
(0.00276077 -0.032511 0.00975976)
(0.00347126 -0.0270815 0.0105848)
(0.00419172 -0.0200928 0.0117348)
(0.00493055 -0.0113308 0.0132702)
(0.00568959 -0.000484587 0.0151744)
(0.00643604 0.0127249 0.0171761)
(0.00706774 0.0281017 0.0185269)
(0.00737061 0.0442784 0.018146)
(0.00702549 0.0586465 0.0156169)
(0.0059023 0.0689098 0.0120507)
(0.00434358 0.0744498 0.00906934)
(0.00275756 0.0753796 0.0071527)
(0.00122364 0.0677877 0.0057164)
(0.000148599 0.0370599 0.00315204)
(2.50795e-05 0.0555128 -2.33968e-05)
(-0.000445316 0.102296 -0.00145613)
(-0.00119045 0.112513 -0.0018678)
(-0.00202123 0.110332 -0.000926223)
(-0.00298714 0.101185 0.00173298)
(-0.00387369 0.0862176 0.00620829)
(-0.00441762 0.0678185 0.0112279)
(-0.00450167 0.0478149 0.014877)
(-0.00416771 0.0281298 0.0159529)
(-0.00361014 0.0107073 0.0149522)
(-0.00298964 -0.0036333 0.0131422)
(-0.00235377 -0.0150933 0.0113677)
(-0.00170901 -0.024196 0.00991771)
(-0.00106649 -0.0313741 0.00881728)
(-0.000429505 -0.0368969 0.00801738)
(0.000198377 -0.0409277 0.00746027)
(0.000814829 -0.043564 0.00710005)
(0.00141778 -0.044873 0.00690363)
(0.00200735 -0.0448988 0.00685151)
(0.00258359 -0.0436555 0.00693941)
(0.00314389 -0.041132 0.00717761)
(0.00368267 -0.0373042 0.00758914)
(0.00419185 -0.0321362 0.00821024)
(0.00466315 -0.0255637 0.00909411)
(0.00509139 -0.0174432 0.0103187)
(0.00547394 -0.00747678 0.0119798)
(0.00581347 0.00481151 0.0141105)
(0.00611104 0.0198732 0.0164366)
(0.00629786 0.0373419 0.0180666)
(0.00614156 0.0551867 0.0178255)
(0.00530831 0.0698144 0.0155528)
(0.00391983 0.0782393 0.0126724)
(0.00243581 0.079941 0.0102597)
(0.00101986 0.0713284 0.00786755)
(0.000106334 0.038351 0.00386627)
(-2.62842e-05 0.055824 0.000387763)
(-0.000586808 0.104226 -0.000379757)
(-0.00139717 0.115382 -0.000337878)
(-0.00226026 0.113017 0.0010127)
(-0.00320248 0.102327 0.00415339)
(-0.0039034 0.0843136 0.00887329)
(-0.00407773 0.0619496 0.013248)
(-0.00376802 0.0385163 0.0152064)
(-0.00321102 0.0172992 0.014505)
(-0.00260646 -4.78744e-05 0.0125228)
(-0.00201246 -0.0137169 0.0104587)
(-0.00142266 -0.0245039 0.00876547)
(-0.000822266 -0.0330816 0.00748176)
(-0.000204872 -0.0398587 0.00653443)
(0.000427608 -0.0450558 0.00584847)
(0.00106568 -0.0488136 0.00536328)
(0.00170171 -0.0512274 0.00503542)
(0.00232842 -0.052366 0.00483551)
(0.00293921 -0.0522709 0.00474676)
(0.00352692 -0.050952 0.0047652)
(0.00408233 -0.0483903 0.0048994)
(0.00459362 -0.0445487 0.00516983)
(0.00504569 -0.0393792 0.00560934)
(0.0054212 -0.0328243 0.00626594)
(0.00570495 -0.0247847 0.00721207)
(0.00588742 -0.0150438 0.00855659)
(0.00597073 -0.00318958 0.0104291)
(0.00596147 0.0113811 0.0128531)
(0.00585377 0.0290826 0.0154196)
(0.00558096 0.0488598 0.017011)
(0.00487403 0.0672125 0.016579)
(0.00362634 0.0792934 0.0145349)
(0.00225493 0.0825093 0.0120982)
(0.000953802 0.0735301 0.00913561)
(0.000121297 0.0390454 0.00419104)
(-6.2989e-05 0.056382 0.00108689)
(-0.000729649 0.106265 0.00116729)
(-0.0016183 0.118326 0.00174518)
(-0.00250527 0.115629 0.00360767)
(-0.00336025 0.102908 0.00730799)
(-0.00374256 0.081281 0.0119868)
(-0.00351026 0.0553097 0.0149838)
(-0.00297665 0.030289 0.0148823)
(-0.0024373 0.0095615 0.0128156)
(-0.00195837 -0.0066191 0.010421)
(-0.00149463 -0.0193064 0.00843286)
(-0.00100905 -0.0294634 0.00693909)
(-0.000486432 -0.037669 0.00583753)
(7.26089e-05 -0.0442201 0.00502382)
(0.000660631 -0.0492648 0.00442588)
(0.00126443 -0.052901 0.00399275)
(0.00187384 -0.0552007 0.00368886)
(0.00247954 -0.0562185 0.00349031)
(0.00307274 -0.0559856 0.0033835)
(0.00364374 -0.0545033 0.00336496)
(0.00418061 -0.0517471 0.00344134)
(0.00466835 -0.0476786 0.00362966)
(0.00508872 -0.0422582 0.00395843)
(0.00542029 -0.0354467 0.00447058)
(0.00564205 -0.0271855 0.00523087)
(0.0057353 -0.0173321 0.0063409)
(0.00568724 -0.00557926 0.007947)
(0.00549878 0.00859676 0.010187)
(0.00519214 0.0257667 0.0129598)
(0.00477167 0.045654 0.0155222)
(0.0041153 0.0654762 0.0165896)
(0.00305379 0.0797131 0.0156248)
(0.00188434 0.0839813 0.0134329)
(0.000785406 0.0747044 0.0101038)
(0.000105049 0.0393304 0.00443872)
(-0.000148209 0.0576043 0.00191459)
(-0.00108333 0.108839 0.0030117)
(-0.00216858 0.120951 0.00422176)
(-0.00315895 0.116713 0.00663445)
(-0.00397188 0.0999115 0.010637)
(-0.0040922 0.0735543 0.0142094)
(-0.00373044 0.0450537 0.0147773)
(-0.00332648 0.0204252 0.012687)
(-0.00300888 0.00117739 0.00992444)
(-0.00271013 -0.0138457 0.00760745)
(-0.00236199 -0.0259283 0.00590558)
(-0.00193647 -0.0358314 0.00468035)
(-0.00143128 -0.0439299 0.00378539)
(-0.000859318 -0.0504099 0.003122)
(-0.000237113 -0.0553799 0.00262939)
(0.000417519 -0.0589273 0.00226606)
(0.00108924 -0.0611269 0.0020018)
(0.00176621 -0.0620322 0.00181622)
(0.0024372 -0.0616684 0.00169773)
(0.003089 -0.0600286 0.00164348)
(0.00370646 -0.057078 0.00165963)
(0.00427188 -0.0527661 0.00176202)
(0.00476426 -0.0470412 0.00197735)
(0.00515874 -0.0398596 0.00234503)
(0.00542952 -0.031179 0.00292424)
(0.00555212 -0.0209069 0.0038091)
(0.00550726 -0.0088309 0.0051449)
(0.00528493 0.00544722 0.00711378)
(0.00489549 0.0224443 0.00979642)
(0.00437084 0.0421937 0.0128064)
(0.00368846 0.0626743 0.0150122)
(0.00272703 0.0785453 0.0152618)
(0.0016972 0.0839739 0.0136408)
(0.000730555 0.0749908 0.0102942)
(0.000114496 0.0393899 0.00435556)
(-0.00021396 0.0596914 0.00290032)
(-0.00141817 0.112382 0.00527663)
(-0.00271709 0.124048 0.00718798)
(-0.00382006 0.117447 0.00997763)
(-0.00463232 0.0959365 0.0134698)
(-0.00472898 0.0662195 0.0148346)
(-0.00461419 0.0377891 0.0130119)
(-0.00456935 0.0149595 0.00991743)
(-0.00452911 -0.00287744 0.00721598)
(-0.00439844 -0.0173111 0.00526681)
(-0.00413926 -0.0293129 0.00390824)
(-0.00374871 -0.0393321 0.0029443)
(-0.00324462 -0.0475831 0.00224252)
(-0.00265131 -0.054192 0.00172239)
(-0.00199036 -0.0592532 0.00133486)
(-0.00128445 -0.0628501 0.00104655)
(-0.000554066 -0.0650562 0.000832933)
(0.000188266 -0.0659194 0.000677584)
(0.000931148 -0.0654573 0.000570798)
(0.00166124 -0.0636525 0.000509624)
(0.00236396 -0.0604585 0.000498577)
(0.0030221 -0.0558154 0.000550684)
(0.00361413 -0.0496695 0.000688832)
(0.00411145 -0.041981 0.000947572)
(0.00448292 -0.0327252 0.00137885)
(0.00470052 -0.0218536 0.00206696)
(0.00473896 -0.00923898 0.00314671)
(0.00458017 0.00537351 0.00480465)
(0.0042261 0.022327 0.00719604)
(0.00370837 0.0416391 0.0101646)
(0.00305266 0.0617207 0.0128565)
(0.00221128 0.077781 0.0139476)
(0.00135893 0.0835764 0.0129171)
(0.000578465 0.0748572 0.00980034)
(8.78282e-05 0.0393327 0.00401354)
(-0.000262548 0.0627014 0.00367608)
(-0.0017268 0.11703 0.00731167)
(-0.00329176 0.127557 0.0097532)
(-0.0046252 0.117554 0.0123259)
(-0.0056805 0.0913889 0.0141669)
(-0.0061646 0.0601495 0.0129715)
(-0.00657714 0.0329271 0.00968964)
(-0.00694403 0.0113661 0.00651726)
(-0.00714483 -0.00612706 0.00423935)
(-0.00713162 -0.020828 0.00271816)
(-0.0069111 -0.0332976 0.00169027)
(-0.00650875 -0.0437754 0.000975907)
(-0.00596139 -0.0524039 0.00046661)
(-0.00530666 -0.0592983 9.68914e-05)
(-0.00457422 -0.0645628 -0.000173145)
(-0.00378582 -0.068296 -0.00037062)
(-0.00295978 -0.070581 -0.000516369)
(-0.00211114 -0.0714682 -0.000624803)
(-0.0012535 -0.0709701 -0.0007045)
(-0.000399961 -0.0690592 -0.000758206)
(0.000434449 -0.065675 -0.000782146)
(0.00122941 -0.0607412 -0.000764768)
(0.00196211 -0.054187 -0.000685693)
(0.00260706 -0.0459626 -0.000515058)
(0.00313462 -0.0360471 -0.000208649)
(0.00351322 -0.0244179 0.000306781)
(0.00371212 -0.0110096 0.00115244)
(0.00370601 0.0043115 0.00250641)
(0.00348672 0.0217076 0.00455186)
(0.00307455 0.0410499 0.00726541)
(0.00250854 0.0608773 0.0100388)
(0.00179154 0.0768277 0.0116145)
(0.00109653 0.0827184 0.0111246)
(0.000470911 0.074407 0.00849512)
(7.10489e-05 0.0391771 0.00335663)
(-0.00020857 0.0660936 0.00394861)
(-0.0016954 0.122697 0.00849375)
(-0.00342673 0.132523 0.0111448)
(-0.00507061 0.119843 0.0129496)
(-0.00660463 0.0911559 0.0128658)
(-0.00771394 0.0600306 0.0100374)
(-0.00868772 0.033679 0.00644656)
(-0.0094182 0.0121403 0.00367913)
(-0.00982613 -0.00608047 0.00187473)
(-0.00991861 -0.021755 0.000727647)
(-0.00974331 -0.0351558 -1.63624e-05)
(-0.00935063 -0.0464255 -0.000507876)
(-0.00878877 -0.055686 -0.000836926)
(-0.00809772 -0.0630623 -0.00105922)
(-0.00731198 -0.0686831 -0.00120924)
(-0.00645912 -0.0726714 -0.00130946)
(-0.0055603 -0.0751279 -0.00137704)
(-0.00463165 -0.0761113 -0.00142389)
(-0.00368667 -0.0756328 -0.00145753)
(-0.00273813 -0.0736564 -0.00148096)
(-0.00180007 -0.0701087 -0.0014917)
(-0.000889455 -0.0648994 -0.00148076)
(-2.73968e-05 -0.0579448 -0.00143201)
(0.000758344 -0.0491848 -0.0013218)
(0.00143793 -0.0385953 -0.00111536)
(0.00198049 -0.0261712 -0.000752817)
(0.0023533 -0.0119038 -0.000130712)
(0.00252738 0.00422759 0.000910659)
(0.00248902 0.0221927 0.00255372)
(0.00225069 0.0416511 0.00484132)
(0.00184751 0.0611036 0.00734849)
(0.00130629 0.0764842 0.00900008)
(0.000791403 0.0820456 0.00885717)
(0.000332504 0.073958 0.0067928)
(4.10161e-05 0.0390012 0.00258093)
(-6.04866e-05 0.0688059 0.00347483)
(-0.00124836 0.128613 0.0082936)
(-0.00291248 0.13905 0.0108663)
(-0.00479462 0.125693 0.0118272)
(-0.00684869 0.0962776 0.0104064)
(-0.00857902 0.0650239 0.00696632)
(-0.0100479 0.0380206 0.00358122)
(-0.0111103 0.0150873 0.00124115)
(-0.0117311 -0.0048257 -0.000192432)
(-0.0119633 -0.0221336 -0.00105386)
(-0.0118779 -0.0369361 -0.00157227)
(-0.0115316 -0.0493406 -0.00187855)
(-0.0109822 -0.0594864 -0.00205258)
(-0.0102802 -0.0675312 -0.0021448)
(-0.00946752 -0.0736433 -0.00218645)
(-0.00857731 -0.0779874 -0.002197)
(-0.00763389 -0.0806981 -0.00219087)
(-0.00665501 -0.0818541 -0.00217793)
(-0.00565434 -0.0814728 -0.00216434)
(-0.00464377 -0.0795138 -0.00215243)
(-0.0036356 -0.0758926 -0.00213993)
(-0.0026449 -0.070502 -0.0021194)
(-0.00169087 -0.0632376 -0.00207816)
(-0.000797478 -0.0540167 -0.00199878)
(7.00869e-06 -0.0427987 -0.0018567)
(0.000690308 -0.0295789 -0.00160778)
(0.00121984 -0.014383 -0.00117082)
(0.00156494 0.00272118 -0.000411096)
(0.00170499 0.021539 0.000842397)
(0.00164223 0.0415184 0.00267202)
(0.00140129 0.0610374 0.0047913)
(0.00101223 0.0761597 0.00632754)
(0.000629148 0.0815143 0.00640985)
(0.000273325 0.073681 0.00492544)
(2.93082e-05 0.0389163 0.00177296)
(0.000133065 0.0695306 0.0024205)
(-0.000397015 0.133 0.00681868)
(-0.00163465 0.146092 0.00920362)
(-0.00338406 0.134977 0.00976558)
(-0.00560418 0.10717 0.00798402)
(-0.00773104 0.075811 0.00470414)
(-0.00957493 0.0472504 0.00174128)
(-0.0109503 0.0220465 -0.000216755)
(-0.011842 -0.00027258 -0.00136924)
(-0.0122857 -0.0197931 -0.00203138)
(-0.0123449 -0.0364647 -0.00240109)
(-0.0121047 -0.050375 -0.0025868)
(-0.0116338 -0.0616943 -0.00265736)
(-0.0109903 -0.0706253 -0.00266009)
(-0.0102227 -0.0773853 -0.00262562)
(-0.0093695 -0.0821931 -0.00257235)
(-0.00845838 -0.0852327 -0.00251281)
(-0.00750854 -0.086619 -0.00245494)
(-0.00653353 -0.0863876 -0.00240356)
(-0.00554403 -0.0845015 -0.00236038)
(-0.0045504 -0.0808699 -0.0023236)
(-0.00356516 -0.0753724 -0.00228758)
(-0.00260463 -0.0678863 -0.00224292)
(-0.00168991 -0.0583068 -0.00217733)
(-0.000845911 -0.0465727 -0.00207527)
(-0.00010306 -0.0326704 -0.00190865)
(0.000506168 -0.016644 -0.00162256)
(0.000949715 0.00137226 -0.00111618)
(0.00120323 0.0210468 -0.000242495)
(0.00126136 0.0416342 0.00110383)
(0.00113668 0.0613708 0.00275253)
(0.000851885 0.0763736 0.00403696)
(0.000550175 0.0815861 0.00422471)
(0.000249314 0.0738905 0.00323435)
(1.96411e-05 0.0390613 0.00107262)
(0.000203393 0.0678999 0.00119079)
(0.000368504 0.134066 0.00459641)
(-0.000196853 0.15128 0.00674424)
(-0.00140897 0.144122 0.00729917)
(-0.00327448 0.120088 0.00584541)
(-0.00541855 0.0894011 0.00315778)
(-0.00740154 0.0591877 0.000721379)
(-0.00896253 0.0313078 -0.000895443)
(-0.010034 0.00611819 -0.00185904)
(-0.0106472 -0.0160598 -0.00243345)
(-0.0108695 -0.0349898 -0.00276122)
(-0.0107762 -0.0507076 -0.00291535)
(-0.0104379 -0.0634287 -0.00295244)
(-0.00991468 -0.0734176 -0.00292025)
(-0.0092578 -0.0809508 -0.00285331)
(-0.00850914 -0.0863091 -0.00277267)
(-0.00769879 -0.0897389 -0.00269124)
(-0.00684751 -0.0914056 -0.00261577)
(-0.00596933 -0.0913744 -0.00254947)
(-0.00507469 -0.0896201 -0.00249285)
(-0.00417291 -0.08605 -0.00244378)
(-0.00327461 -0.0805312 -0.00239756)
(-0.00239376 -0.0729187 -0.00234684)
(-0.00154882 -0.0630809 -0.00228243)
(-0.000761582 -0.0509291 -0.00219429)
(-6.03482e-05 -0.0364291 -0.00206616)
(0.000524994 -0.0196225 -0.00186725)
(0.000965361 -0.000681919 -0.00153505)
(0.00123283 0.0199628 -0.000960097)
(0.00131181 0.0414159 -3.33517e-05)
(0.00120484 0.0617528 0.00116873)
(0.000925593 0.0770484 0.0021707)
(0.000619454 0.0823564 0.00239512)
(0.000298018 0.0747719 0.0018003)
(2.30041e-05 0.0395476 0.000495364)
(0.000203945 0.0647971 0.000234967)
(0.000796038 0.131728 0.00242853)
(0.000838458 0.153006 0.00423272)
(0.000346362 0.15013 0.00488302)
(-0.00082833 0.13127 0.00403453)
(-0.00258777 0.102852 0.00218818)
(-0.00436724 0.0720929 0.000439606)
(-0.00585762 0.0421012 -0.000764188)
(-0.00693784 0.0142285 -0.00155456)
(-0.0076078 -0.0105912 -0.002107)
(-0.0079201 -0.0318106 -0.00247231)
(-0.00793942 -0.0493801 -0.00266789)
(-0.00772875 -0.0635516 -0.00273254)
(-0.00734268 -0.0746505 -0.00271526)
(-0.00682816 -0.0830048 -0.00265661)
(-0.00622498 -0.0889467 -0.00258251)
(-0.0055628 -0.0927821 -0.002508)
(-0.00486219 -0.0947325 -0.00243952)
(-0.00413685 -0.0949018 -0.00237903)
(-0.00339686 -0.0932831 -0.00232609)
(-0.00265103 -0.0897861 -0.00227862)
(-0.0019087 -0.0842679 -0.00223303)
(-0.00118247 -0.076566 -0.00218375)
(-0.000489527 -0.0665272 -0.00212336)
(0.000149875 -0.0540402 -0.00204419)
(0.000711587 -0.0390501 -0.00193644)
(0.00116885 -0.0215868 -0.00178744)
(0.00149344 -0.0018376 -0.0015709)
(0.00166115 0.0196984 -0.00122334)
(0.00165782 0.0419987 -0.000652953)
(0.00147614 0.0630095 0.00013206)
(0.00111963 0.0787081 0.000830033)
(0.000748286 0.0841634 0.00102529)
(0.000364629 0.0765026 0.00070893)
(2.51259e-05 0.0404351 6.99328e-05)
(0.000154016 0.061547 -0.000271351)
(0.000832525 0.12769 0.000862083)
(0.00122595 0.151768 0.00220489)
(0.00121168 0.152299 0.00286266)
(0.000670217 0.138304 0.00257451)
(-0.000426389 0.11296 0.00159375)
(-0.00172688 0.0826056 0.000582994)
(-0.00288147 0.0512342 -0.000208276)
(-0.00372474 0.0212181 -0.000892482)
(-0.00424667 -0.0058052 -0.00151004)
(-0.00449194 -0.028959 -0.00198537)
(-0.00451012 -0.0481078 -0.0022749)
(-0.00434715 -0.0635277 -0.00240549)
(-0.00404536 -0.0755932 -0.00243263)
(-0.00364012 -0.0846726 -0.00240574)
(-0.00316315 -0.0911333 -0.00235739)
(-0.00263988 -0.0953257 -0.00230629)
(-0.00208803 -0.0975192 -0.0022597)
(-0.00151913 -0.0978541 -0.00221868)
(-0.000942421 -0.0963422 -0.00218168)
(-0.000366801 -0.092895 -0.0021462)
(0.000198256 -0.0873581 -0.00210909)
(0.000740038 -0.0795488 -0.00206571)
(0.00124213 -0.0692926 -0.00200923)
(0.00168546 -0.0564581 -0.00193158)
(0.00204806 -0.0409729 -0.00182379)
(0.00230634 -0.0228538 -0.00168216)