/*--------------------------------*- C++ -*----------------------------------*\
| =========                 |                                                 |
| \\      /  F ield         | OpenFOAM: The Open Source CFD Toolbox           |
|  \\    /   O peration     | Version:  v2012                                 |
|   \\  /    A nd           | Website:  www.openfoam.com                      |
|    \\/     M anipulation  |                                                 |
\*---------------------------------------------------------------------------*/
FoamFile
{
    version     2.0;
    format      ascii;
    class       surfaceScalarField;
    location    "65";
    object      phi;
}
// * * * * * * * * * * * * * * * * * * * * * * * * * * * * * * * * * * * * * //

dimensions      [1 0 -1 0 0 0 0];
oriented        oriented;


internalField   nonuniform List<scalar> 
228225
(
-2.07342e-09
1.37543e-09
4.52529e-10
-6.41063e-09
7.03961e-09
-2.70365e-09
-1.36982e-08
1.07464e-08
-3.45816e-09
-2.39514e-08
1.3962e-08
-3.70848e-09
-3.67728e-08
1.67354e-08
-3.91447e-09
-5.1598e-08
1.90215e-08
-4.1949e-09
-6.78682e-08
2.08318e-08
-4.56141e-09
-8.50084e-08
2.21592e-08
-5.01784e-09
-1.02514e-07
2.30458e-08
-5.54161e-09
-1.19889e-07
2.35038e-08
-6.1282e-09
-1.3672e-07
2.35879e-08
-6.75704e-09
-1.52606e-07
2.33123e-08
-7.42644e-09
-1.67221e-07
2.27358e-08
-8.11917e-09
-1.80264e-07
2.18789e-08
-8.83548e-09
-1.915e-07
2.07953e-08
-9.55964e-09
-2.00716e-07
1.95027e-08
-1.02871e-08
-2.0776e-07
1.80493e-08
-1.10055e-08
-2.12488e-07
1.64453e-08
-1.17163e-08
-2.1482e-07
1.47336e-08
-1.24026e-08
-2.14695e-07
1.29318e-08
-1.3054e-08
-2.12111e-07
1.10762e-08
-1.36614e-08
-2.07074e-07
9.18145e-09
-1.42203e-08
-1.99634e-07
7.27774e-09
-1.4715e-08
-1.89875e-07
5.37807e-09
-1.51397e-08
-1.779e-07
3.50967e-09
-1.54825e-08
-1.63852e-07
1.68739e-09
-1.57387e-08
-1.47899e-07
-4.92491e-11
-1.58994e-08
-1.30223e-07
-1.71536e-09
-1.59622e-08
-1.11062e-07
-3.2399e-09
-1.592e-08
-9.06966e-08
-4.59923e-09
-1.57674e-08
-6.94782e-08
-5.73881e-09
-1.54786e-08
-4.79137e-08
-6.58502e-09
-1.49779e-08
-2.69141e-08
-6.99145e-09
-1.40082e-08
-8.45517e-09
-6.72264e-09
-1.17373e-08
-4.41324e-09
-4.04075e-09
-5.76594e-09
2.12615e-08
-1.41211e-08
-2.13547e-08
3.83244e-08
-1.56951e-08
-4.04103e-08
4.62939e-08
-1.64918e-08
-6.12392e-08
5.21528e-08
-1.73626e-08
-8.26028e-08
5.62395e-08
-1.81403e-08
-1.0365e-07
5.88812e-08
-1.88126e-08
-1.23723e-07
6.03304e-08
-1.94253e-08
-1.42375e-07
6.0803e-08
-1.99933e-08
-1.59261e-07
6.04638e-08
-2.0531e-08
-1.74175e-07
5.94539e-08
-2.10366e-08
-1.86956e-07
5.78876e-08
-2.15179e-08
-1.97532e-07
5.58591e-08
-2.19706e-08
-2.05851e-07
5.34535e-08
-2.23997e-08
-2.11919e-07
5.07457e-08
-2.27989e-08
-2.15752e-07
4.78002e-08
-2.31722e-08
-2.17413e-07
4.46773e-08
-2.3513e-08
-2.1697e-07
4.14303e-08
-2.38242e-08
-2.1452e-07
3.80962e-08
-2.41013e-08
-2.10156e-07
3.47164e-08
-2.43467e-08
-2.04007e-07
3.13361e-08
-2.45545e-08
-1.96193e-07
2.79891e-08
-2.47256e-08
-1.86865e-07
2.47063e-08
-2.48544e-08
-1.76157e-07
2.15137e-08
-2.49419e-08
-1.64231e-07
1.8435e-08
-2.49843e-08
-1.51232e-07
1.54903e-08
-2.49794e-08
-1.37324e-07
1.26979e-08
-2.49192e-08
-1.22646e-07
1.00738e-08
-2.47994e-08
-1.07388e-07
7.63275e-09
-2.46072e-08
-9.16883e-08
5.38917e-09
-2.43289e-08
-7.5708e-08
3.35848e-09
-2.39383e-08
-5.95982e-08
1.55968e-09
-2.34077e-08
-4.35157e-08
1.95171e-11
-2.26891e-08
-2.76856e-08
-1.1846e-09
-2.16345e-08
-1.26958e-08
-1.88868e-09
-1.98253e-08
-1.36216e-09
-1.57466e-08
-3.57556e-09
3.41744e-08
-9.33766e-09
-1.12232e-08
5.71346e-08
-1.1162e-08
-2.01662e-08
6.72012e-08
-1.19654e-08
-2.96484e-08
7.42466e-08
-1.26119e-08
-3.91653e-08
7.89187e-08
-1.31612e-08
-4.83631e-08
8.1747e-08
-1.3668e-08
-5.69955e-08
8.31113e-08
-1.41486e-08
-6.48858e-08
8.3318e-08
-1.46257e-08
-7.19179e-08
8.25939e-08
-1.50979e-08
-7.80121e-08
8.11239e-08
-1.55754e-08
-8.3128e-08
7.90513e-08
-1.60492e-08
-8.72406e-08
7.64972e-08
-1.65245e-08
-9.03566e-08
7.35587e-08
-1.69899e-08
-9.2483e-08
7.03212e-08
-1.74482e-08
-9.36507e-08
6.68555e-08
-1.78882e-08
-9.38871e-08
6.32252e-08
-1.83116e-08
-9.32339e-08
5.94837e-08
-1.87082e-08
-9.17465e-08
5.56907e-08
-1.90812e-08
-8.94958e-08
5.18893e-08
-1.94217e-08
-8.65546e-08
4.81224e-08
-1.97294e-08
-8.29904e-08
4.44216e-08
-1.99969e-08
-7.8873e-08
4.0815e-08
-2.02258e-08
-7.42756e-08
3.73267e-08
-2.04099e-08
-6.9267e-08
3.39771e-08
-2.05501e-08
-6.39135e-08
3.07754e-08
-2.06406e-08
-5.82677e-08
2.77328e-08
-2.06807e-08
-5.23872e-08
2.48565e-08
-2.0663e-08
-4.63193e-08
2.21476e-08
-2.05825e-08
-4.01084e-08
1.96025e-08
-2.04255e-08
-3.37824e-08
1.72104e-08
-2.01768e-08
-2.73665e-08
1.49518e-08
-1.98086e-08
-2.08731e-08
1.28004e-08
-1.92747e-08
-1.42993e-08
1.07108e-08
-1.84689e-08
-7.64715e-09
8.61412e-09
-1.71541e-08
5.06063e-09
-1.40712e-08
-3.21843e-09
3.87473e-08
-1.3557e-09
-6.15208e-09
6.29896e-08
-2.91903e-09
-8.84448e-09
7.37422e-08
-3.85103e-09
-1.14565e-08
8.13476e-08
-4.48665e-09
-1.40507e-08
8.65164e-08
-5.00591e-09
-1.65752e-08
8.97812e-08
-5.50728e-09
-1.89796e-08
9.15471e-08
-6.03274e-09
-2.12104e-08
9.21261e-08
-6.57753e-09
-2.32247e-08
9.17626e-08
-7.15292e-09
-2.49959e-08
9.06444e-08
-7.75083e-09
-2.64927e-08
8.89262e-08
-8.37636e-09
-2.77074e-08
8.67277e-08
-9.01629e-09
-2.86306e-08
8.41527e-08
-9.67211e-09
-2.9263e-08
8.12834e-08
-1.03292e-08
-2.96131e-08
7.81938e-08
-1.09877e-08
-2.96974e-08
7.49422e-08
-1.16338e-08
-2.95271e-08
7.15819e-08
-1.22677e-08
-2.91343e-08
6.81704e-08
-1.28729e-08
-2.85491e-08
6.4753e-08
-1.34492e-08
-2.78033e-08
6.13616e-08
-1.39862e-08
-2.6922e-08
5.80256e-08
-1.44841e-08
-2.59404e-08
5.47671e-08
-1.49339e-08
-2.48842e-08
5.16053e-08
-1.53357e-08
-2.37768e-08
4.85524e-08
-1.56818e-08
-2.26369e-08
4.56084e-08
-1.59737e-08
-2.14723e-08
4.27734e-08
-1.62049e-08
-2.028e-08
4.00381e-08
-1.6374e-08
-1.90417e-08
3.73838e-08
-1.64742e-08
-1.77161e-08
3.47774e-08
-1.6501e-08
-1.62352e-08
3.2171e-08
-1.64421e-08
-1.449e-08
2.9492e-08
-1.62831e-08
-1.23234e-08
2.66394e-08
-1.60076e-08
-9.46152e-09
2.34673e-08
-1.56174e-08
-5.62521e-09
1.98062e-08
-1.50283e-08
1.25695e-08
-1.31342e-08
-4.15352e-09
3.93416e-08
3.55729e-09
-5.33176e-09
6.17973e-08
2.37344e-09
-5.03575e-09
7.1947e-08
1.49738e-09
-3.92939e-09
7.93222e-08
9.19491e-10
-2.40456e-09
8.45227e-08
4.68082e-10
-6.56752e-10
8.8023e-08
1.07549e-11
1.1766e-09
9.01833e-08
-4.6974e-10
3.01297e-09
9.1285e-08
-9.94762e-10
4.78914e-09
9.15414e-08
-1.55569e-09
6.46564e-09
9.11263e-08
-2.15709e-09
8.00603e-09
9.01717e-08
-2.78757e-09
9.39365e-09
8.879e-08
-3.44883e-09
1.06046e-08
8.70676e-08
-4.12669e-09
1.16238e-08
8.50825e-08
-4.81894e-09
1.24355e-08
8.28939e-08
-5.51116e-09
1.30222e-08
8.05571e-08
-6.20207e-09
1.33671e-08
7.81148e-08
-6.87827e-09
1.34676e-08
7.56088e-08
-7.53797e-09
1.33183e-08
7.30715e-08
-8.16917e-09
1.29178e-08
7.05312e-08
-8.77059e-09
1.22681e-08
6.80084e-08
-9.33241e-09
1.1369e-08
6.55207e-08
-9.85393e-09
1.02245e-08
6.3077e-08
-1.03272e-08
8.84862e-09
6.06804e-08
-1.07522e-08
7.25436e-09
5.83253e-08
-1.11227e-08
5.46854e-09
5.59972e-08
-1.1439e-08
3.53455e-09
5.36693e-08
-1.16961e-08
1.51159e-09
5.13001e-08
-1.18945e-08
-5.08307e-10
4.88278e-08
-1.20291e-08
-2.40751e-09
4.61655e-08
-1.20968e-08
-4.01822e-09
4.31898e-08
-1.2087e-08
-5.09876e-09
3.97294e-08
-1.20096e-08
-5.2566e-09
3.5549e-08
-1.19222e-08
-3.97192e-09
3.03438e-08
-1.18253e-08
1.94001e-08
-1.08011e-08
-3.23965e-09
3.75021e-08
5.07953e-09
-3.50391e-09
5.79097e-08
4.15019e-09
-2.20119e-09
6.72686e-08
3.37746e-09
3.09943e-12
7.42217e-08
2.89449e-09
2.69721e-09
7.93132e-08
2.51573e-09
5.64254e-09
8.29464e-08
2.13229e-09
8.67269e-09
8.54416e-08
1.71009e-09
1.167e-08
8.70326e-08
1.25536e-09
1.45392e-08
8.79101e-08
7.63153e-10
1.72093e-08
8.82152e-08
2.40385e-10
1.96282e-08
8.80656e-08
-3.13802e-10
2.17547e-08
8.75499e-08
-8.84368e-10
2.35516e-08
8.67455e-08
-1.47715e-09
2.50055e-08
8.57102e-08
-2.08022e-09
2.60942e-08
8.44961e-08
-2.69159e-09
2.68086e-08
8.31424e-08
-3.29904e-09
2.7138e-08
8.16858e-08
-3.90062e-09
2.70798e-08
8.01528e-08
-4.4857e-09
2.66358e-08
7.85682e-08
-5.05266e-09
2.58098e-08
7.69485e-08
-5.5924e-09
2.46155e-08
7.53081e-08
-6.10368e-09
2.30602e-08
7.3654e-08
-6.57895e-09
2.11669e-08
7.19873e-08
-7.01776e-09
1.89622e-08
7.03004e-08
-7.41431e-09
1.6479e-08
6.85774e-08
-7.76878e-09
1.3761e-08
6.67905e-08
-8.07686e-09
1.08728e-08
6.4897e-08
-8.33942e-09
7.89136e-09
6.28359e-08
-8.55375e-09
4.91983e-09
6.05198e-08
-8.721e-09
2.0924e-09
5.78298e-08
-8.83686e-09
-4.18016e-10
5.45996e-08
-8.89865e-09
-2.37789e-09
5.06076e-08
-8.9191e-09
-3.39982e-09
4.55447e-08
-8.97539e-09
-2.97579e-09
3.90191e-08
-9.09705e-09
2.49738e-08
-8.55025e-09
-1.81992e-09
3.49348e-08
4.38634e-09
-1.47395e-09
5.39678e-08
3.59834e-09
5.21237e-11
6.2786e-08
2.9538e-09
2.25996e-09
6.94582e-08
2.55737e-09
4.8341e-09
7.44804e-08
2.25949e-09
7.59287e-09
7.82266e-08
1.95938e-09
1.04147e-08
8.09822e-08
1.63826e-09
1.31924e-08
8.29639e-08
1.29065e-09
1.58473e-08
8.4335e-08
9.21963e-10
1.83082e-08
8.52241e-08
5.28353e-10
2.05346e-08
8.57274e-08
1.13684e-10
2.2474e-08
8.59239e-08
-3.14658e-10
2.41019e-08
8.58724e-08
-7.53591e-10
2.53934e-08
8.56223e-08
-1.20359e-09
2.63314e-08
8.52117e-08
-1.6546e-09
2.69084e-08
8.46737e-08
-2.10624e-09
2.71102e-08
8.40319e-08
-2.55009e-09
2.6942e-08
8.33071e-08
-2.98501e-09
2.64002e-08
8.25129e-08
-3.40372e-09
2.54942e-08
8.16598e-08
-3.80545e-09
2.42357e-08
8.07518e-08
-4.18402e-09
2.26406e-08
7.97883e-08
-4.53916e-09
2.07319e-08
7.87613e-08
-4.86581e-09
1.85423e-08
7.76552e-08
-5.16431e-09
1.61059e-08
7.64443e-08
-5.43078e-09
1.34724e-08
7.50898e-08
-5.66617e-09
1.07006e-08
7.35363e-08
-5.86778e-09
7.86906e-09
7.17064e-08
-6.03746e-09
5.06679e-09
6.94936e-08
-6.17335e-09
2.42177e-09
6.67532e-08
-6.27577e-09
7.24496e-11
6.32871e-08
-6.34052e-09
-1.76699e-09
5.88309e-08
-6.3831e-09
-2.77379e-09
5.30221e-08
-6.4694e-09
-2.51133e-09
4.53868e-08
-6.63156e-09
2.87626e-08
-6.29964e-09
-7.69753e-10
3.26291e-08
3.07541e-09
-4.08109e-10
5.11539e-08
2.45206e-09
6.36393e-10
5.97754e-08
1.96671e-09
2.06096e-09
6.63568e-08
1.67549e-09
3.69447e-09
7.13923e-08
1.45578e-09
5.43349e-09
7.52437e-08
1.24247e-09
7.21287e-09
7.81886e-08
1.01511e-09
8.96961e-09
8.04306e-08
7.76124e-10
1.06536e-08
8.21276e-08
5.22408e-10
1.22252e-08
8.33955e-08
2.56924e-10
1.365e-08
8.43257e-08
-2.21287e-11
1.48923e-08
8.49855e-08
-3.04976e-10
1.59319e-08
8.54292e-08
-5.96591e-10
1.67496e-08
8.56965e-08
-8.91362e-10
1.73292e-08
8.58205e-08
-1.18831e-09
1.76596e-08
8.58247e-08
-1.48166e-09
1.77344e-08
8.57279e-08
-1.77112e-09
1.75506e-08
8.5542e-08
-2.05124e-09
1.71105e-08
8.52761e-08
-2.32209e-09
1.64156e-08
8.49329e-08
-2.57891e-09
1.54778e-08
8.45114e-08
-2.82213e-09
1.43097e-08
8.40038e-08
-3.04775e-09
1.29303e-08
8.33963e-08
-3.25661e-09
1.13649e-08
8.26664e-08
-3.44548e-09
9.64494e-09
8.17812e-08
-3.61563e-09
7.80385e-09
8.0694e-08
-3.76457e-09
5.89607e-09
7.934e-08
-3.89403e-09
3.97078e-09
7.76311e-08
-4.00237e-09
2.11011e-09
7.54469e-08
-4.09162e-09
3.95843e-10
7.26264e-08
-4.15921e-09
-1.06166e-09
6.89498e-08
-4.20517e-09
-2.11956e-09
6.41264e-08
-4.23774e-09
-2.54736e-09
5.77579e-08
-4.30667e-09
-2.05654e-09
4.93224e-08
-4.42653e-09
3.0894e-08
-4.18868e-09
-4.88407e-10
3.08919e-08
2.2261e-09
-4.81803e-10
4.93128e-08
1.8342e-09
-1.36556e-10
5.78919e-08
1.53769e-09
3.97625e-10
6.44638e-08
1.3598e-09
1.04051e-09
6.95237e-08
1.22454e-09
1.75729e-09
7.34394e-08
1.08935e-09
2.51363e-09
7.64832e-08
9.47754e-10
3.28711e-09
7.8861e-08
7.97125e-10
4.04853e-09
8.07245e-08
6.40796e-10
4.77817e-09
8.21899e-08
4.76572e-10
5.45288e-09
8.33425e-08
3.07886e-10
6.05887e-09
8.42485e-08
1.32298e-10
6.57483e-09
8.49558e-08
-4.22868e-11
6.98665e-09
8.55021e-08
-2.17534e-10
7.28245e-09
8.59138e-08
-3.90185e-10
7.45809e-09
8.62119e-08
-5.62305e-10
7.50464e-09
8.64101e-08
-7.29082e-10
7.41882e-09
8.6519e-08
-8.90794e-10
7.19687e-09
8.65416e-08
-1.04367e-09
6.84149e-09
8.64775e-08
-1.18891e-09
6.35549e-09
8.63203e-08
-1.32339e-09
5.74887e-09
8.60592e-08
-1.44859e-09
5.03143e-09
8.56754e-08
-1.56187e-09
4.22061e-09
8.51427e-08
-1.66506e-09
3.33531e-09
8.44234e-08
-1.756e-09
2.39888e-09
8.34662e-08
-1.83683e-09
1.44352e-09
8.22012e-08
-1.90587e-09
5.05502e-10
8.05345e-08
-1.96566e-09
-3.70805e-10
7.8339e-08
-2.01487e-09
-1.13471e-09
7.54456e-08
-2.05541e-09
-1.7264e-09
7.1625e-08
-2.08488e-09
-2.06012e-09
6.65741e-08
-2.11215e-09
-2.01688e-09
5.98794e-08
-2.16613e-09
-1.43303e-09
5.09936e-08
-2.25374e-09
3.15822e-08
-2.12133e-09
-7.33702e-10
2.96149e-08
2.01059e-09
-1.22019e-09
4.79072e-08
1.89262e-09
-1.52826e-09
5.64218e-08
1.77793e-09
-1.72514e-09
6.29469e-08
1.71321e-09
-1.8357e-09
6.7979e-08
1.65462e-09
-1.86908e-09
7.18851e-08
1.58963e-09
-1.83931e-09
7.49386e-08
1.51425e-09
-1.75465e-09
7.73428e-08
1.43257e-09
-1.62451e-09
7.92506e-08
1.34404e-09
-1.46115e-09
8.0775e-08
1.25214e-09
-1.27707e-09
8.20017e-08
1.1559e-09
-1.08052e-09
8.29935e-08
1.05885e-09
-8.84063e-10
8.37985e-08
9.60076e-10
-6.95259e-10
8.44511e-08
8.62953e-10
-5.24882e-10
8.49768e-08
7.67315e-10
-3.83591e-10
8.53929e-08
6.76444e-10
-2.74241e-10
8.57122e-08
5.89281e-10
-2.03546e-10
8.59405e-08
5.07559e-10
-1.70302e-10
8.60806e-08
4.29985e-10
-1.83678e-10
8.61289e-08
3.59298e-10
-2.34527e-10
8.60783e-08
2.93645e-10
-3.2449e-10
8.59145e-08
2.35273e-10
-4.49474e-10
8.56181e-08
1.81906e-10
-6.02093e-10
8.51597e-08
1.35337e-10
-7.73009e-10
8.45009e-08
9.29301e-11
-9.51466e-10
8.35881e-08
5.71248e-11
-1.12505e-09
8.23505e-08
2.4251e-11
-1.2776e-09
8.06927e-08
-4.68456e-12
-1.39459e-09
7.84874e-08
-3.29461e-11
-1.45167e-09
7.55646e-08
-5.9641e-11
-1.43634e-09
7.16964e-08
-8.80441e-11
-1.31985e-09
6.65798e-08
-1.22191e-10
-1.06123e-09
5.98049e-08
-1.83412e-10
-6.231e-10
5.08261e-08
-2.73097e-10
3.12534e-08
-2.92315e-10
-1.09033e-09
2.85777e-08
2.12846e-09
-1.96486e-09
4.65292e-08
2.25232e-09
-2.70679e-09
5.48779e-08
2.28423e-09
-3.33895e-09
6.12738e-08
2.30691e-09
-3.87498e-09
6.62032e-08
2.31034e-09
-4.31303e-09
7.00289e-08
2.29551e-09
-4.66284e-09
7.30184e-08
2.26856e-09
-4.92574e-09
7.53741e-08
2.23109e-09
-5.10604e-09
7.72446e-08
2.18792e-09
-5.21345e-09
7.8743e-08
2.1391e-09
-5.25291e-09
7.99518e-08
2.08843e-09
-5.22911e-09
8.09346e-08
2.03535e-09
-5.15086e-09
8.17365e-08
1.98322e-09
-5.02336e-09
8.23926e-08
1.93114e-09
-4.85529e-09
8.29267e-08
1.88211e-09
-4.65326e-09
8.33569e-08
1.83483e-09
-4.42773e-09
8.3693e-08
1.79198e-09
-4.18197e-09
8.39407e-08
1.75257e-09
-3.91637e-09
8.41001e-08
1.71875e-09
-3.64702e-09
8.41684e-08
1.6885e-09
-3.36883e-09
8.41362e-08
1.66372e-09
-3.08609e-09
8.39902e-08
1.64202e-09
-2.80251e-09
8.37086e-08
1.62495e-09
-2.51586e-09
8.32639e-08
1.60979e-09
-2.22709e-09
8.26157e-08
1.59773e-09
-1.9404e-09
8.17126e-08
1.58568e-09
-1.64446e-09
8.0484e-08
1.57443e-09
-1.35283e-09
7.88377e-08
1.56039e-09
-1.05792e-09
7.66489e-08
1.54367e-09
-7.65847e-10
7.37539e-08
1.51997e-09
-4.89238e-10
6.99313e-08
1.48839e-09
-2.40131e-10
6.4889e-08
1.44032e-09
-2.94103e-11
5.8232e-08
1.36131e-09
1.21121e-10
4.94341e-08
1.24388e-09
3.03025e-08
1.07074e-09
-1.26907e-09
2.7712e-08
2.13382e-09
-2.30877e-09
4.51644e-08
2.40619e-09
-3.23056e-09
5.32771e-08
2.52112e-09
-4.03792e-09
5.94879e-08
2.59457e-09
-4.73734e-09
6.427e-08
2.63113e-09
-5.32518e-09
6.79734e-08
2.64542e-09
-5.81207e-09
7.0861e-08
2.64293e-09
-6.195e-09
7.31281e-08
2.63007e-09
-6.48258e-09
7.49218e-08
2.60855e-09
-6.67052e-09
7.6351e-08
2.58278e-09
-6.77233e-09
7.74984e-08
2.55311e-09
-6.78489e-09
7.84245e-08
2.52303e-09
-6.71683e-09
7.91758e-08
2.4922e-09
-6.57139e-09
7.97848e-08
2.46362e-09
-6.35906e-09
8.02769e-08
2.43646e-09
-6.08282e-09
8.06677e-08
2.41336e-09
-5.7519e-09
8.09692e-08
2.39305e-09
-5.37426e-09
8.11856e-08
2.37773e-09
-4.95813e-09
8.13187e-08
2.3657e-09
-4.51231e-09
8.13636e-08
2.35871e-09
-4.04364e-09
8.13125e-08
2.35462e-09
-3.55849e-09
8.115e-08
2.35474e-09
-3.06178e-09
8.08568e-08
2.35651e-09
-2.56224e-09
8.04034e-08
2.36082e-09
-2.06501e-09
7.97527e-08
2.36473e-09
-1.57418e-09
7.88529e-08
2.36874e-09
-1.09733e-09
7.76376e-08
2.36943e-09
-6.4139e-10
7.60165e-08
2.36668e-09
-2.22535e-10
7.3872e-08
2.35625e-09
1.49427e-10
7.10457e-08
2.33695e-09
4.48705e-10
6.73288e-08
2.30293e-09
6.49011e-10
6.24409e-08
2.24891e-09
7.13649e-10
5.60096e-08
2.15813e-09
5.90877e-10
4.75336e-08
2.0224e-09
2.91456e-08
1.74789e-09
-1.12726e-09
2.70654e-08
1.77375e-09
-2.09252e-09
4.40617e-08
2.06821e-09
-2.97303e-09
5.19574e-08
2.20126e-09
-3.76454e-09
5.79971e-08
2.28104e-09
-4.45639e-09
6.26388e-08
2.32297e-09
-5.04827e-09
6.62243e-08
2.3409e-09
-5.53955e-09
6.90084e-08
2.34396e-09
-5.92984e-09
7.11834e-08
2.33522e-09
-6.21853e-09
7.28918e-08
2.31963e-09
-6.40809e-09
7.42423e-08
2.29842e-09
-6.50091e-09
7.53148e-08
2.27531e-09
-6.49626e-09
7.61711e-08
2.25063e-09
-6.40445e-09
7.68554e-08
2.22741e-09
-6.22644e-09
7.74025e-08
2.20542e-09
-5.97378e-09
7.78357e-08
2.18725e-09
-5.64931e-09
7.81733e-08
2.17219e-09
-5.26953e-09
7.8425e-08
2.16239e-09
-4.83807e-09
7.85979e-08
2.15662e-09
-4.36684e-09
7.86915e-08
2.15654e-09
-3.86814e-09
7.87034e-08
2.16044e-09
-3.34711e-09
7.86238e-08
2.16945e-09
-2.81803e-09
7.84398e-08
2.18137e-09
-2.28865e-09
7.81301e-08
2.19688e-09
-1.7668e-09
7.76681e-08
2.21333e-09
-1.26179e-09
7.70154e-08
2.23099e-09
-7.78671e-10
7.61239e-08
2.24679e-09
-3.27226e-10
7.49271e-08
2.26054e-09
7.9918e-11
7.334e-08
2.2686e-09
4.33795e-10
7.12476e-08
2.27001e-09
7.19012e-10
6.85001e-08
2.26012e-09
9.16301e-10
6.48959e-08
2.23638e-09
9.99245e-10
6.01687e-08
2.19068e-09
9.32578e-10
5.3962e-08
2.11183e-09
6.81551e-10
4.57996e-08
1.98652e-09
2.81181e-08
1.7088e-09
-7.36823e-10
2.67728e-08
1.02752e-09
-1.45703e-09
4.35483e-08
1.23606e-09
-2.16844e-09
5.13362e-08
1.33139e-09
-2.83932e-09
5.72842e-08
1.38405e-09
-3.45124e-09
6.18454e-08
1.40554e-09
-3.99208e-09
6.53552e-08
1.4095e-09
-4.45266e-09
6.80679e-08
1.40061e-09
-4.82455e-09
7.01722e-08
1.38355e-09
-5.10434e-09
7.18117e-08
1.3599e-09
-5.28912e-09
7.30931e-08
1.33326e-09
-5.37687e-09
7.40985e-08
1.30449e-09
-5.37042e-09
7.48882e-08
1.27658e-09
-5.27417e-09
7.55092e-08
1.2499e-09
-5.09347e-09
7.59949e-08
1.22701e-09
-4.83794e-09
7.63715e-08
1.20782e-09
-4.51435e-09
7.66558e-08
1.19446e-09
-4.13542e-09
7.68605e-08
1.18635e-09
-3.71378e-09
7.69908e-08
1.1851e-09
-3.26102e-09
7.70489e-08
1.18956e-09
-2.78899e-09
7.70305e-08
1.20078e-09
-2.31073e-09
7.6928e-08
1.21706e-09
-1.83545e-09
7.67265e-08
1.23889e-09
-1.37777e-09
7.6407e-08
1.26406e-09
-9.41312e-10
7.59407e-08
1.29262e-09
-5.40596e-10
7.52916e-08
1.32193e-09
-1.78102e-10
7.441e-08
1.35164e-09
1.36632e-10
7.32325e-08
1.37879e-09
4.02137e-10
7.16733e-08
1.40262e-09
6.06998e-10
6.9622e-08
1.41969e-09
7.48951e-10
6.69299e-08
1.42866e-09
8.18014e-10
6.34026e-08
1.42514e-09
8.00454e-10
5.87786e-08
1.40568e-09
6.90128e-10
5.27136e-08
1.36035e-09
4.64837e-10
4.47428e-08
1.28152e-09
2.74899e-08
1.09307e-09
-2.45068e-10
2.69328e-08
8.57828e-11
-6.64266e-10
4.38229e-08
1.43734e-10
-1.15655e-09
5.16559e-08
1.72376e-10
-1.67588e-09
5.76267e-08
1.77385e-10
-2.18783e-09
6.21908e-08
1.66006e-10
-2.66519e-09
6.56891e-08
1.44145e-10
-3.08945e-09
6.83767e-08
1.15626e-10
-3.44619e-09
7.04468e-08
8.14262e-11
-3.72243e-09
7.20437e-08
4.4179e-11
-3.9112e-09
7.3278e-08
4.70836e-12
-4.01106e-09
7.42319e-08
-3.39256e-11
-4.02021e-09
7.49695e-08
-7.14155e-11
-3.94332e-09
7.55375e-08
-1.05141e-10
-3.78589e-09
7.59727e-08
-1.34628e-10
-3.55805e-09
7.63008e-08
-1.57745e-10
-3.2685e-09
7.65416e-08
-1.74465e-10
-2.93173e-09
7.67067e-08
-1.83141e-10
-2.55915e-09
7.68038e-08
-1.84308e-10
-2.16908e-09
7.68337e-08
-1.76918e-10
-1.77001e-09
7.67941e-08
-1.62107e-10
-1.37791e-09
7.66756e-08
-1.39449e-10
-1.00516e-09
7.64649e-08
-1.10671e-10
-6.62984e-10
7.61407e-08
-7.58857e-11
-3.62392e-10
7.56755e-08
-3.7291e-11
-1.04762e-10
7.5031e-08
4.52164e-12
1.00584e-10
7.41582e-08
4.73338e-11
2.49883e-10
7.29912e-08
9.01544e-11
3.48959e-10
7.14456e-08
1.30454e-10
3.96161e-10
6.94081e-08
1.67442e-10
3.93657e-10
6.67317e-08
1.98598e-10
3.54071e-10
6.32195e-08
2.23142e-10
2.82839e-10
5.86122e-08
2.38239e-10
1.91645e-10
5.25635e-08
2.41387e-10
9.39233e-11
4.46114e-08
2.29071e-10
2.73958e-08
1.87981e-10
1.8705e-10
2.75505e-08
-8.05956e-10
4.38975e-11
4.4869e-08
-9.00876e-10
-2.50561e-10
5.28917e-08
-9.418e-10
-6.32601e-10
5.89928e-08
-9.84077e-10
-1.05519e-09
6.36418e-08
-1.02951e-09
-1.47762e-09
6.71891e-08
-1.07664e-09
-1.8734e-09
6.98991e-08
-1.12614e-09
-2.21977e-09
7.19702e-08
-1.17708e-09
-2.50011e-09
7.35533e-08
-1.22936e-09
-2.70131e-09
7.47618e-08
-1.28109e-09
-2.8228e-09
7.56832e-08
-1.33149e-09
-2.85791e-09
7.63829e-08
-1.37838e-09
-2.81097e-09
7.69118e-08
-1.42093e-09
-2.6889e-09
7.73072e-08
-1.45705e-09
-2.49891e-09
7.75982e-08
-1.48617e-09
-2.25516e-09
7.78042e-08
-1.50656e-09
-1.96946e-09
7.79397e-08
-1.51812e-09
-1.65891e-09
7.80113e-08
-1.51973e-09
-1.33456e-09
7.80222e-08
-1.51191e-09
-1.01529e-09
7.79683e-08
-1.49421e-09
-7.14061e-10
7.78416e-08
-1.46782e-09
-4.40641e-10
7.76267e-08
-1.4329e-09
-2.13426e-10
7.73029e-08
-1.39121e-09
-3.42768e-11
7.68402e-08
-1.34339e-09
8.81412e-11
7.62e-08
-1.29159e-09
1.53056e-10
7.53301e-08
-1.23667e-09
1.61883e-10
7.4164e-08
-1.18082e-09
1.18017e-10
7.26127e-08
-1.12479e-09
3.64012e-11
7.05614e-08
-1.07039e-09
-7.1717e-11
6.78574e-08
-1.01767e-09
-1.84541e-10
6.43003e-08
-9.6742e-10
-2.77467e-10
5.96233e-08
-9.18268e-10
-3.19012e-10
5.34729e-08
-8.69018e-10
-2.64653e-10
4.53759e-08
-8.14901e-10
2.7836e-08
-7.07085e-10
4.59524e-10
2.85268e-08
-1.43679e-09
4.97722e-10
4.64808e-08
-1.64771e-09
3.3974e-10
5.47892e-08
-1.74125e-09
5.82922e-11
6.10947e-08
-1.82034e-09
-2.92901e-10
6.58843e-08
-1.89159e-09
-6.69491e-10
6.95251e-08
-1.95912e-09
-1.03805e-09
7.22912e-08
-2.02471e-09
-1.36802e-09
7.43912e-08
-2.08969e-09
-1.64458e-09
7.59818e-08
-2.1536e-09
-1.8492e-09
7.71835e-08
-2.21608e-09
-1.97791e-09
7.80868e-08
-2.27552e-09
-2.02618e-09
7.87624e-08
-2.33092e-09
-1.9982e-09
7.92629e-08
-2.38035e-09
-1.89601e-09
7.96297e-08
-2.42281e-09
-1.73542e-09
7.98922e-08
-2.45655e-09
-1.52228e-09
8.00731e-08
-2.48094e-09
-1.27599e-09
8.01863e-08
-2.49473e-09
-1.0057e-09
8.0241e-08
-2.49788e-09
-7.33449e-10
8.0239e-08
-2.48979e-09
-4.71917e-10
8.01777e-08
-2.47111e-09
-2.36054e-10
8.00473e-08
-2.44192e-09
-3.85679e-11
7.98331e-08
-2.40354e-09
1.09807e-10
7.95118e-08
-2.35663e-09
1.99793e-10
7.9053e-08
-2.30298e-09
2.27339e-10
7.84148e-08
-2.24361e-09
1.95019e-10
7.75438e-08
-2.18048e-09
1.04466e-10
7.63686e-08
-2.11457e-09
-3.23726e-11
7.47978e-08
-2.04748e-09
-2.02297e-10
7.27099e-08
-1.97955e-09
-3.80561e-10
6.99475e-08
-1.91119e-09
-5.39262e-10
6.63006e-08
-1.84101e-09
-6.44637e-10
6.14939e-08
-1.76676e-09
-6.47278e-10
5.51586e-08
-1.68243e-09
-4.98192e-10
4.68058e-08
-1.57925e-09
2.86973e-08
-1.35913e-09
5.35841e-10
2.97054e-08
-1.71389e-09
6.37682e-10
4.83546e-08
-1.97583e-09
5.40887e-10
5.69784e-08
-2.09383e-09
3.13656e-10
6.35121e-08
-2.18984e-09
1.02376e-11
6.84627e-08
-2.27361e-09
-3.26936e-10
7.2213e-08
-2.3507e-09
-6.63457e-10
7.50498e-08
-2.42459e-09
-9.63633e-10
7.71906e-08
-2.49639e-09
-1.2158e-09
7.88002e-08
-2.56667e-09
-1.40331e-09
8.00044e-08
-2.63452e-09
-1.51642e-09
8.08995e-08
-2.69915e-09
-1.55568e-09
8.15591e-08
-2.75886e-09
-1.51823e-09
8.20401e-08
-2.81246e-09
-1.41566e-09
8.23851e-08
-2.85821e-09
-1.25659e-09
8.2627e-08
-2.89507e-09
-1.04947e-09
8.27888e-08
-2.92162e-09
-8.13789e-10
8.28867e-08
-2.93733e-09
-5.59042e-10
8.29295e-08
-2.9414e-09
-3.06577e-10
8.29204e-08
-2.93395e-09
-7.16743e-11
8.28556e-08
-2.91489e-09
1.36479e-10
8.27261e-08
-2.88503e-09
2.99094e-10
8.2515e-08
-2.84497e-09
4.07409e-10
8.21989e-08
-2.79612e-09
4.5746e-10
8.17445e-08
-2.73955e-09
4.3869e-10
8.11087e-08
-2.67701e-09
3.59433e-10
8.02341e-08
-2.60973e-09
2.21534e-10
7.90468e-08
-2.53938e-09
3.34987e-11
7.74496e-08
-2.46677e-09
-1.77934e-10
7.53168e-08
-2.39274e-09
-3.96563e-10
7.24826e-08
-2.31675e-09
-5.87206e-10
6.8729e-08
-2.23764e-09
-7.11626e-10
6.37684e-08
-2.15163e-09
-7.16905e-10
5.72175e-08
-2.05185e-09
-5.53943e-10
4.85677e-08
-1.92711e-09
2.98034e-08
-1.65857e-09
4.51088e-10
3.08989e-08
-1.645e-09
5.20586e-10
5.01775e-08
-1.89264e-09
4.18134e-10
5.90876e-08
-2.00579e-09
1.9989e-10
6.58294e-08
-2.09938e-09
-8.32543e-11
7.09274e-08
-2.18149e-09
-3.91155e-10
7.47789e-08
-2.25788e-09
-6.91298e-10
7.76811e-08
-2.33138e-09
-9.57496e-10
7.98607e-08
-2.40336e-09
-1.17255e-09
8.14888e-08
-2.47383e-09
-1.32404e-09
8.26972e-08
-2.54227e-09
-1.40047e-09
8.3586e-08
-2.60737e-09
-1.40847e-09
8.4233e-08
-2.66787e-09
-1.34309e-09
8.46975e-08
-2.72208e-09
-1.21302e-09
8.50251e-08
-2.76869e-09
-1.03167e-09
8.52499e-08
-2.8062e-09
-8.05788e-10
8.53969e-08
-2.83362e-09
-5.5149e-10
8.5483e-08
-2.84995e-09
-2.85014e-10
8.5518e-08
-2.85484e-09
-2.20902e-11
8.55048e-08
-2.84796e-09
2.24093e-10
8.54403e-08
-2.82964e-09
4.34891e-10
8.53141e-08
-2.80026e-09
6.02799e-10
8.51093e-08
-2.76083e-09
7.13899e-10
8.48005e-08
-2.71236e-09
7.614e-10
8.43533e-08
-2.65633e-09
7.41411e-10
8.37217e-08
-2.5941e-09
6.56991e-10
8.28463e-08
-2.52731e-09
5.11828e-10
8.1649e-08
-2.45728e-09
3.19399e-10
8.00293e-08
-2.38525e-09
9.23328e-11
7.78552e-08
-2.31178e-09
-1.43308e-10
7.49552e-08
-2.23681e-09
-3.58853e-10
7.11023e-08
-2.15896e-09
-5.13005e-10
6.59992e-08
-2.07519e-09
-5.64567e-10
5.92477e-08
-1.97888e-09
-4.59203e-10
5.03232e-08
-1.86097e-09
3.09532e-08
-1.60838e-09
2.61838e-10
3.19555e-08
-1.318e-09
2.3215e-10
5.17062e-08
-1.50031e-09
7.46899e-11
6.08317e-08
-1.5863e-09
-1.62623e-10
6.77299e-08
-1.66215e-09
-4.41416e-10
7.29378e-08
-1.73195e-09
-7.28599e-10
7.68635e-08
-1.79917e-09
-9.94876e-10
7.98123e-08
-1.86573e-09
-1.21673e-09
8.20174e-08
-1.93213e-09
-1.38472e-09
8.36554e-08
-1.9982e-09
-1.48954e-09
8.4862e-08
-2.0629e-09
-1.5187e-09
8.57416e-08
-2.125e-09
-1.47801e-09
8.63744e-08
-2.18293e-09
-1.36684e-09
8.68223e-08
-2.23517e-09
-1.1947e-09
8.7133e-08
-2.28017e-09
-9.71503e-10
8.73422e-08
-2.31663e-09
-7.06926e-10
8.74761e-08
-2.34336e-09
-4.15988e-10
8.75524e-08
-2.35958e-09
-1.15156e-10
8.75816e-08
-2.36471e-09
1.81083e-10
8.75669e-08
-2.35862e-09
4.57972e-10
8.75049e-08
-2.34144e-09
7.00684e-10
8.73849e-08
-2.31375e-09
8.9801e-10
8.7189e-08
-2.27634e-09
1.03688e-09
8.68908e-08
-2.2304e-09
1.11451e-09
8.64544e-08
-2.17722e-09
1.12133e-09
8.5832e-08
-2.11839e-09
1.06102e-09
8.49615e-08
-2.05537e-09
9.37659e-10
8.37624e-08
-1.98976e-09
7.59757e-10
8.21304e-08
-1.92278e-09
5.39689e-10
7.99294e-08
-1.85544e-09
3.00849e-10
7.69828e-08
-1.78791e-09
6.54441e-11
7.30571e-08
-1.71966e-09
-1.33798e-10
6.78468e-08
-1.64864e-09
-2.59803e-10
6.09438e-08
-1.57076e-09
-2.64135e-10
5.18109e-08
-1.48125e-09
3.19826e-08
-1.29499e-09
3.25145e-11
3.27731e-08
-8.51607e-10
-1.19741e-10
5.28005e-08
-9.40309e-10
-3.52991e-10
6.2052e-08
-9.86468e-10
-6.28847e-10
6.90403e-08
-1.03603e-09
-9.12025e-10
7.43094e-08
-1.08719e-09
-1.18206e-09
7.82732e-08
-1.14038e-09
-1.4155e-09
8.12423e-08
-1.19587e-09
-1.59926e-09
8.34537e-08
-1.25332e-09
-1.71857e-09
8.50879e-08
-1.31187e-09
-1.77017e-09
8.62834e-08
-1.37023e-09
-1.74807e-09
8.71469e-08
-1.42686e-09
-1.65523e-09
8.77611e-08
-1.48017e-09
-1.49385e-09
8.81898e-08
-1.52852e-09
-1.27172e-09
8.8482e-08
-1.5704e-09
-1.0008e-09
8.8675e-08
-1.60446e-09
-6.91176e-10
8.87958e-08
-1.62959e-09
-3.56074e-10
8.88632e-08
-1.64496e-09
-1.23492e-11
8.88877e-08
-1.65004e-09
3.2682e-10
8.88729e-08
-1.64466e-09
6.44804e-10
8.88153e-08
-1.62899e-09
9.28367e-10
8.87038e-08
-1.60356e-09
1.16905e-09
8.85199e-08
-1.56917e-09
1.35017e-09
8.82361e-08
-1.52696e-09
1.46779e-09
8.78153e-08
-1.47825e-09
1.51466e-09
8.72083e-08
-1.42458e-09
1.49433e-09
8.63511e-08
-1.36754e-09
1.40393e-09
8.51609e-08
-1.30875e-09
1.25295e-09
8.35311e-08
-1.24971e-09
1.05137e-09
8.13229e-08
-1.19172e-09
8.1287e-10
7.8356e-08
-1.13561e-09
5.59107e-10
7.4393e-08
-1.08169e-09
3.11749e-10
6.91235e-08
-1.02961e-09
1.01709e-10
6.21335e-08
-9.78469e-10
-3.71737e-11
5.2879e-08
-9.29558e-10
3.27831e-08
-8.37612e-10
-1.79249e-10
3.33142e-08
-3.61922e-10
-4.54935e-10
5.34266e-08
-3.51712e-10
-7.61484e-10
6.27164e-08
-3.55426e-10
-1.07501e-09
6.97293e-08
-3.76717e-10
-1.36885e-09
7.50105e-08
-4.07597e-10
-1.62576e-09
7.89761e-08
-4.45292e-10
-1.83435e-09
8.19381e-08
-4.88359e-10
-1.98012e-09
8.41359e-08
-5.35539e-10
-2.05604e-09
8.57512e-08
-5.85363e-10
-2.0642e-09
8.69244e-08
-6.36194e-10
-1.99323e-09
8.7764e-08
-6.86277e-10
-1.85267e-09
8.83538e-08
-7.33932e-10
-1.64454e-09
8.87591e-08
-7.77479e-10
-1.37595e-09
8.90302e-08
-8.1543e-10
-1.06097e-09
8.92052e-08
-8.46431e-10
-7.06621e-10
8.93123e-08
-8.69412e-10
-3.31052e-10
8.93703e-08
-8.83542e-10
5.37845e-11
8.93907e-08
-8.88342e-10
4.33797e-10
8.9377e-08
-8.83614e-10
7.93827e-10
8.93255e-08
-8.69553e-10
1.11983e-09
8.92248e-08
-8.46624e-10
1.39936e-09
8.90559e-08
-8.15662e-10
1.622e-09
8.87905e-08
-7.77726e-10
1.78188e-09
8.83907e-08
-7.34159e-10
1.87074e-09
8.78057e-08
-6.86448e-10
1.88666e-09
8.69707e-08
-6.36261e-10
1.83269e-09
8.58013e-08
-5.85277e-10
1.70954e-09
8.41893e-08
-5.35232e-10
1.52744e-09
8.19942e-08
-4.87745e-10
1.29272e-09
7.90341e-08
-4.44282e-10
1.02193e-09
7.507e-08
-4.06081e-10
7.30194e-10
6.97896e-08
-3.74485e-10
4.38893e-10
6.27772e-08
-3.51926e-10
1.75614e-10
5.34873e-08
-3.45991e-10
3.33128e-08
-3.53562e-10
-3.38037e-10
3.35863e-08
6.55512e-11
-7.00999e-10
5.36302e-08
1.5973e-10
-1.06485e-09
6.28875e-08
1.93503e-10
-1.40519e-09
6.98712e-08
1.97503e-10
-1.70412e-09
7.51244e-08
1.85019e-10
-1.95163e-09
7.90613e-08
1.61697e-10
-2.13666e-09
8.19938e-08
1.30338e-10
-2.25499e-09
8.41606e-08
9.31006e-11
-2.30035e-09
8.57443e-08
5.20417e-11
-2.26857e-09
8.68858e-08
8.97788e-12
-2.16703e-09
8.76942e-08
-3.4841e-11
-1.98982e-09
8.82545e-08
-7.69221e-11
-1.74765e-09
8.86328e-08
-1.15601e-10
-1.45001e-09
8.88802e-08
-1.49458e-10
-1.10054e-09
8.90357e-08
-1.77258e-10
-7.21348e-10
8.91278e-08
-1.9792e-10
-3.13921e-10
8.91765e-08
-2.107e-10
9.77318e-11
8.91928e-08
-2.15089e-10
5.04967e-10
8.91808e-08
-2.10954e-10
8.91775e-10
8.91365e-08
-1.98412e-10
1.24687e-09
8.90486e-08
-1.77979e-10
1.55589e-09
8.88971e-08
-1.50386e-10
1.80817e-09
8.86536e-08