/*--------------------------------*- C++ -*----------------------------------*\
| =========                 |                                                 |
| \\      /  F ield         | OpenFOAM: The Open Source CFD Toolbox           |
|  \\    /   O peration     | Version:  v2012                                 |
|   \\  /    A nd           | Website:  www.openfoam.com                      |
|    \\/     M anipulation  |                                                 |
\*---------------------------------------------------------------------------*/
FoamFile
{
    version     2.0;
    format      ascii;
    class       volVectorField;
    location    "65";
    object      U;
}
// * * * * * * * * * * * * * * * * * * * * * * * * * * * * * * * * * * * * * //

dimensions      [0 1 -1 0 0 0 0];


internalField   nonuniform List<vector> 
78750
(
(-1.85576e-06 -7.40002e-05 0.000124163)
(-5.46887e-06 -0.000101455 0.000216578)
(-1.55067e-05 -0.000102403 0.00026414)
(-3.0363e-05 -9.27881e-05 0.000297159)
(-4.98191e-05 -7.73926e-05 0.000318876)
(-7.3087e-05 -5.90392e-05 0.000331872)
(-9.92739e-05 -3.98131e-05 0.000337971)
(-0.000127377 -2.10223e-05 0.000338607)
(-0.000156504 -3.67567e-06 0.000334775)
(-0.000185804 1.17425e-05 0.000327302)
(-0.000214522 2.48155e-05 0.000316741)
(-0.000241983 3.54781e-05 0.000303591)
(-0.000267556 4.36231e-05 0.0002882)
(-0.000290768 4.93825e-05 0.000270901)
(-0.000311143 5.27849e-05 0.00025206)
(-0.00032825 5.40229e-05 0.000232068)
(-0.000341884 5.32012e-05 0.000211066)
(-0.000351781 5.05385e-05 0.000189368)
(-0.000357681 4.61622e-05 0.000167485)
(-0.000359545 4.03099e-05 0.000145751)
(-0.000357277 3.31094e-05 0.000124613)
(-0.000350901 2.4785e-05 0.000104526)
(-0.000340458 1.54721e-05 8.59165e-05)
(-0.000326061 5.3943e-06 6.92374e-05)
(-0.000307866 -5.27507e-06 5.48796e-05)
(-0.000286081 -1.62653e-05 4.32137e-05)
(-0.000260961 -2.73074e-05 3.45067e-05)
(-0.000232801 -3.80028e-05 2.89339e-05)
(-0.000201966 -4.78999e-05 2.65318e-05)
(-0.000168882 -5.6353e-05 2.7116e-05)
(-0.000133915 -6.25512e-05 3.01891e-05)
(-9.73196e-05 -6.53524e-05 3.4788e-05)
(-6.03057e-05 -6.32122e-05 3.93609e-05)
(-3.01067e-05 -5.41283e-05 4.1274e-05)
(-8.49429e-06 -3.0557e-05 3.34435e-05)
(-5.12107e-06 0.000140114 -0.000227455)
(-2.5707e-05 0.000285695 -0.000330915)
(-4.94981e-05 0.000361843 -0.000367107)
(-8.37798e-05 0.000421696 -0.000398591)
(-0.000119968 0.000466494 -0.000424529)
(-0.000155804 0.000497652 -0.000444578)
(-0.000190314 0.000517476 -0.000459884)
(-0.000222789 0.000527109 -0.000472077)
(-0.000252555 0.000528491 -0.000481594)
(-0.000279214 0.000522343 -0.000489244)
(-0.000302328 0.000510302 -0.000495043)
(-0.000321883 0.00049273 -0.000499603)
(-0.000337657 0.000471029 -0.00050282)
(-0.000349664 0.000445517 -0.000505122)
(-0.000357912 0.00041734 -0.000506377)
(-0.000362488 0.000386739 -0.000506915)
(-0.00036343 0.000354696 -0.000506584)
(-0.000360991 0.000321176 -0.000505747)
(-0.000355258 0.000287017 -0.000504237)
(-0.000346434 0.000252368 -0.000502235)
(-0.000334718 0.000217921 -0.000499559)
(-0.000320352 0.000183777 -0.000496319)
(-0.000303563 0.000150481 -0.000492347)
(-0.000284609 0.000118102 -0.000487724)
(-0.000263737 8.7081e-05 -0.000482156)
(-0.000241213 5.74776e-05 -0.000475483)
(-0.000217281 2.96639e-05 -0.000467256)
(-0.000192229 3.71417e-06 -0.000456987)
(-0.000166336 -2.00239e-05 -0.000443746)
(-0.000139885 -4.14094e-05 -0.000426311)
(-0.000112992 -5.99873e-05 -0.000402772)
(-8.5407e-05 -7.52008e-05 -0.000369638)
(-5.7268e-05 -8.54867e-05 -0.000318506)
(-3.46605e-05 -8.70292e-05 -0.000239087)
(-1.83487e-05 -5.72617e-05 -7.96924e-05)
(-2.68944e-06 0.000332707 -0.000153559)
(-1.45487e-05 0.000571473 -0.000245973)
(-2.51987e-05 0.000675193 -0.000283593)
(-4.10941e-05 0.000747449 -0.000308902)
(-5.74779e-05 0.000794797 -0.000326963)
(-7.3294e-05 0.000823306 -0.000340239)
(-8.82611e-05 0.000836329 -0.000350709)
(-0.000102088 0.000837561 -0.000359038)
(-0.000114597 0.000828761 -0.000366187)
(-0.000125573 0.000812374 -0.000372193)
(-0.000134952 0.000789336 -0.000377573)
(-0.000142651 0.000761407 -0.00038214)
(-0.00014869 0.000729101 -0.000386235)
(-0.000153048 0.00069379 -0.000389598)
(-0.000155791 0.000655781 -0.000392492)
(-0.000156934 0.000616196 -0.000394651)
(-0.000156582 0.000575231 -0.000396292)
(-0.000154761 0.000533769 -0.000397282)
(-0.000151605 0.000491908 -0.000397808)
(-0.000147236 0.000450525 -0.000397558)
(-0.000141783 0.000409682 -0.000396696)
(-0.000135332 0.000369975 -0.000395044)
(-0.000128034 0.00033144 -0.00039272)
(-0.00011998 0.000294544 -0.000389538)
(-0.000111309 0.000259294 -0.000385536)
(-0.000102096 0.000226044 -0.000380456)
(-9.24569e-05 0.000194773 -0.000374156)
(-8.24552e-05 0.000165743 -0.000366148)
(-7.22003e-05 0.00013892 -0.000355882)
(-6.1743e-05 0.000114502 -0.000342297)
(-5.112e-05 9.24378e-05 -0.000323861)
(-4.01108e-05 7.28879e-05 -0.000297623)
(-2.84736e-05 5.57201e-05 -0.000258446)
(-1.79885e-05 4.11708e-05 -0.00020038)
(-1.13175e-05 2.24844e-05 -7.27061e-05)
(-3.31352e-06 0.0004261 2.39571e-05)
(-9.46472e-06 0.000702276 -2.61e-05)
(-1.21692e-05 0.000823957 -6.0624e-05)
(-1.68012e-05 0.000909013 -8.57924e-05)
(-2.13101e-05 0.000965967 -0.000102827)
(-2.56457e-05 0.00100061 -0.000116439)
(-2.97702e-05 0.00101807 -0.000128533)
(-3.36645e-05 0.0010215 -0.000140081)
(-3.72126e-05 0.0010142 -0.0001512)
(-4.0395e-05 0.00099786 -0.000162462)
(-4.31225e-05 0.000974748 -0.000173666)
(-4.53984e-05 0.000945799 -0.000185098)
(-4.71754e-05 0.00091267 -0.000196432)
(-4.84784e-05 0.000875888 -0.00020783)
(-4.92809e-05 0.000836726 -0.000218941)
(-4.96349e-05 0.000795479 -0.000229895)
(-4.95693e-05 0.000753139 -0.00024038)
(-4.90789e-05 0.000710149 -0.000250292)
(-4.8237e-05 0.000667376 -0.000259336)
(-4.71192e-05 0.000624897 -0.00026762)
(-4.57382e-05 0.000583352 -0.000274893)
(-4.41751e-05 0.000542771 -0.000281229)
(-4.24508e-05 0.000503657 -0.000286393)
(-4.06495e-05 0.000465988 -0.000290421)
(-3.87561e-05 0.000429966 -0.000293173)
(-3.68339e-05 0.000395485 -0.000294635)
(-3.48624e-05 0.000362725 -0.000294534)
(-3.28489e-05 0.000331446 -0.000292742)
(-3.07251e-05 0.000301603 -0.000288805)
(-2.84432e-05 0.000272757 -0.000282257)
(-2.58227e-05 0.00024453 -0.000272217)
(-2.25121e-05 0.000216176 -0.000257931)
(-1.78205e-05 0.000186758 -0.000238185)
(-1.22521e-05 0.000154964 -0.000207768)
(-8.77125e-06 9.5995e-05 -0.000113294)
(-5.19972e-06 0.000442255 0.000121907)
(-9.3553e-06 0.000706778 0.000104328)
(-8.71854e-06 0.000825133 7.60012e-05)
(-7.64539e-06 0.000910096 5.36997e-05)
(-5.4427e-06 0.000968702 3.8675e-05)
(-2.66023e-06 0.00100705 2.68208e-05)
(3.93395e-07 0.00102906 1.56417e-05)
(3.484e-06 0.00103857 4.47917e-06)
(6.51643e-06 0.00103774 -7.16533e-06)
(9.41305e-06 0.00102906 -1.91357e-05)
(1.21085e-05 0.00101372 -3.17096e-05)
(1.45651e-05 0.000993468 -4.46261e-05)
(1.67332e-05 0.000968968 -5.79988e-05)
(1.86074e-05 0.000941521 -7.13952e-05)
(2.01418e-05 0.000911514 -8.48607e-05)
(2.13196e-05 0.000879961 -9.80765e-05)
(2.21001e-05 0.000847073 -0.000111059)
(2.24836e-05 0.000813685 -0.000123493)
(2.24409e-05 0.000779945 -0.00013538)
(2.19899e-05 0.000746489 -0.000146449)
(2.11101e-05 0.000713333 -0.000156724)
(1.98246e-05 0.000680946 -0.000165976)
(1.81123e-05 0.000649252 -0.00017424)
(1.60111e-05 0.000618552 -0.000181323)
(1.35198e-05 0.000588648 -0.000187261)
(1.06908e-05 0.000559639 -0.000191889)
(7.56228e-06 0.000531147 -0.000195227)
(4.23511e-06 0.000502989 -0.000197105)
(8.17201e-07 0.000474473 -0.000197468)
(-2.51875e-06 0.000444972 -0.000195995)
(-5.57455e-06 0.000413235 -0.000192527)
(-7.91902e-06 0.000377758 -0.000187536)
(-8.72663e-06 0.000336235 -0.000182331)
(-7.23666e-06 0.000285942 -0.000172273)
(-6.32475e-06 0.000182253 -0.000108919)
(-4.48752e-06 0.000431462 0.000153058)
(-6.63193e-06 0.000670887 0.000149328)
(-4.95895e-06 0.000779907 0.0001264)
(-2.07489e-06 0.000859739 0.000107493)
(2.07716e-06 0.000917359 9.48101e-05)
(6.86701e-06 0.000957266 8.42441e-05)
(1.19201e-05 0.000983574 7.40493e-05)
(1.6993e-05 0.00099874 6.35946e-05)
(2.19245e-05 0.00100538 5.28652e-05)
(2.65693e-05 0.00100488 4.16402e-05)
(3.08377e-05 0.00099898 3.00366e-05)
(3.46409e-05 0.000988465 1.79907e-05)
(3.79385e-05 0.000974596 5.75446e-06)
(4.06551e-05 0.000957822 -6.7919e-06)
(4.27866e-05 0.000939069 -1.93844e-05)
(4.42937e-05 0.000918553 -3.195e-05)
(4.51736e-05 0.000897015 -4.42386e-05)
(4.53976e-05 0.000874549 -5.62242e-05)
(4.49837e-05 0.000851732 -6.76751e-05)
(4.39182e-05 0.000828559 -7.85821e-05)
(4.22356e-05 0.000805477 -8.87367e-05)
(3.99303e-05 0.000782403 -9.81437e-05)
(3.7049e-05 0.00075961 -0.000106631)
(3.36126e-05 0.000736868 -0.000114231)
(2.96895e-05 0.000714247 -0.000120804)
(2.53228e-05 0.000691325 -0.000126403)
(2.06205e-05 0.000667881 -0.00013092)
(1.56813e-05 0.000643169 -0.000134429)
(1.06705e-05 0.0006165 -0.000136819)
(5.75695e-06 0.000586556 -0.000138091)
(1.18835e-06 0.000551837 -0.000138197)
(-2.67238e-06 0.000510008 -0.000138136)
(-5.02738e-06 0.000458111 -0.000139862)
(-4.98008e-06 0.000391994 -0.000139564)
(-4.78998e-06 0.000250858 -9.59366e-05)
(-2.81348e-06 0.000402834 0.000138048)
(-3.28883e-06 0.00062099 0.000135639)
(-1.40913e-06 0.000721512 0.000116512)
(1.71739e-06 0.000797031 0.000100771)
(5.78662e-06 0.00085317 9.02088e-05)
(1.03089e-05 0.000894445 8.16443e-05)
(1.50167e-05 0.000923899 7.34028e-05)
(1.97269e-05 0.000944298 6.51516e-05)
(2.42902e-05 0.000957286 5.66623e-05)
(2.85842e-05 0.000964632 4.79518e-05)
(3.25152e-05 0.000967215 3.88954e-05)
(3.60076e-05 0.00096624 2.96095e-05)
(3.89951e-05 0.000962166 2.00557e-05)
(4.14435e-05 0.000955837 1.04436e-05)
(4.33086e-05 0.000947491 7.86833e-07)
(4.45809e-05 0.000937792 -8.75638e-06)
(4.52311e-05 0.000926812 -1.81704e-05)
(4.52642e-05 0.000915056 -2.7272e-05)
(4.46674e-05 0.000902495 -3.60565e-05)
(4.34606e-05 0.000889504 -4.43587e-05)
(4.16456e-05 0.000875958 -5.21894e-05)
(3.92602e-05 0.000862094 -5.9406e-05)
(3.63227e-05 0.000847665 -6.60367e-05)
(3.28923e-05 0.000832734 -7.19641e-05)
(2.90114e-05 0.00081687 -7.72365e-05)
(2.47611e-05 0.000799879 -8.1764e-05)
(2.0219e-05 0.000781024 -8.56202e-05)
(1.55113e-05 0.00075969 -8.87488e-05)
(1.07643e-05 0.000734613 -9.1226e-05)
(6.1584e-06 0.000704454 -9.29595e-05)
(1.88884e-06 0.000666997 -9.41075e-05)
(-1.71794e-06 0.000619624 -9.5498e-05)
(-4.00317e-06 0.000558388 -9.90864e-05)
(-4.20009e-06 0.00047839 -0.000101755)
(-3.92592e-06 0.000304586 -7.12779e-05)
(-1.46658e-06 0.000375495 0.000106496)
(-1.22118e-06 0.000583606 0.000103064)
(4.06544e-08 0.000680382 8.86248e-05)
(2.12492e-06 0.000753946 7.67248e-05)
(4.72312e-06 0.000810029 6.87297e-05)
(7.58412e-06 0.000852468 6.22249e-05)
(1.05451e-05 0.000884595 5.61394e-05)
(1.352e-05 0.00090849 5.00857e-05)
(1.64093e-05 0.000926157 4.40324e-05)
(1.91431e-05 0.000938701 3.78408e-05)
(2.16574e-05 0.000947389 3.15546e-05)
(2.38951e-05 0.000952784 2.51059e-05)
(2.58118e-05 0.000955741 1.86114e-05)
(2.73607e-05 0.000956521 1.20536e-05)
(2.85422e-05 0.000955729 5.55184e-06)
(2.93031e-05 0.000953448 -8.94573e-07)
(2.96458e-05 0.00095013 -7.14721e-06)
(2.95538e-05 0.000945734 -1.32254e-05)
(2.90353e-05 0.000940592 -1.90001e-05)
(2.80837e-05 0.000934563 -2.45014e-05)
(2.67195e-05 0.000927863 -2.96122e-05)
(2.49538e-05 0.000920239 -3.43772e-05)
(2.28212e-05 0.000911759 -3.86943e-05)
(2.03505e-05 0.000902013 -4.26231e-05)
(1.75967e-05 0.000890852 -4.60774e-05)
(1.46048e-05 0.000877608 -4.91336e-05)
(1.14561e-05 0.000861776 -5.1724e-05)
(8.22913e-06 0.000842244 -5.39456e-05)
(5.03773e-06 0.000817894 -5.57344e-05)
(2.00773e-06 0.000786829 -5.71566e-05)
(-7.09028e-07 0.000746843 -5.82068e-05)
(-2.87289e-06 0.000694641 -5.95965e-05)
(-4.02295e-06 0.000626064 -6.25951e-05)
(-3.77555e-06 0.000535298 -6.50428e-05)
(-3.10889e-06 0.000337129 -4.40566e-05)
(-1.04553e-06 0.000353696 7.87091e-05)
(-9.47054e-07 0.000559544 7.80223e-05)
(-5.63817e-07 0.000655423 6.96681e-05)
(1.58938e-07 0.000728929 6.25656e-05)
(1.15469e-06 0.00078537 5.75887e-05)
(2.30688e-06 0.000828992 5.34585e-05)
(3.54923e-06 0.000862666 4.94856e-05)
(4.83627e-06 0.000888866 4.55724e-05)
(6.12701e-06 0.00090911 4.16157e-05)
(7.38062e-06 0.00092489 3.76565e-05)
(8.56051e-06 0.00093698 3.36232e-05)
(9.6376e-06 0.000946318 2.95961e-05)
(1.05801e-05 0.000953266 2.55293e-05)
(1.13647e-05 0.000958448 2.15296e-05)
(1.19522e-05 0.000962001 1.75511e-05)
(1.23505e-05 0.000964361 1.36883e-05)
(1.25436e-05 0.000965502 9.8994e-06)
(1.25121e-05 0.000965735 6.32901e-06)
(1.22544e-05 0.000964925 2.92454e-06)
(1.17731e-05 0.000963275 -2.21761e-07)
(1.10682e-05 0.000960545 -3.17064e-06)
(1.01534e-05 0.000956817 -5.83605e-06)
(9.04261e-06 0.000951712 -8.29096e-06)
(7.7608e-06 0.00094514 -1.04593e-05)
(6.33503e-06 0.00093651 -1.24259e-05)
(4.80448e-06 0.000925451 -1.41258e-05)
(3.21036e-06 0.000911016 -1.56578e-05)
(1.61488e-06 0.000892354 -1.69723e-05)
(7.99187e-08 0.000867885 -1.8173e-05)
(-1.31609e-06 0.000835913 -1.91989e-05)
(-2.48682e-06 0.00079373 -2.01962e-05)
(-3.28683e-06 0.000738137 -2.15282e-05)
(-3.45545e-06 0.000664388 -2.41513e-05)
(-2.86612e-06 0.000566575 -2.66861e-05)
(-2.08152e-06 0.000352673 -1.59125e-05)
(-1.31759e-06 0.000337824 6.06348e-05)
(-1.77243e-06 0.000543159 6.63114e-05)
(-2.25358e-06 0.000638874 6.45363e-05)
(-2.73234e-06 0.000712238 6.23079e-05)
(-3.01254e-06 0.000768879 6.04984e-05)
(-3.12593e-06 0.000812764 5.86461e-05)
(-3.12483e-06 0.00084711 5.66526e-05)
(-3.02299e-06 0.000874042 5.44733e-05)
(-2.84082e-06 0.000895436 5.22159e-05)
(-2.58997e-06 0.000912396 4.98486e-05)
(-2.29664e-06 0.000926056 4.74658e-05)
(-1.97398e-06 0.000936951 4.50309e-05)
(-1.64379e-06 0.000945797 4.26399e-05)
(-1.31277e-06 0.00095281 4.02519e-05)
(-1.00933e-06 0.000958449 3.79981e-05)
(-7.44328e-07 0.000962741 3.58388e-05)
(-5.38538e-07 0.000966017 3.38713e-05)
(-3.83278e-07 0.0009682 3.19754e-05)
(-2.9418e-07 0.000969496 3.02469e-05)
(-2.76776e-07 0.000969696 2.86274e-05)
(-3.30243e-07 0.000968898 2.71943e-05)
(-4.48961e-07 0.000966775 2.58735e-05)
(-6.29993e-07 0.000963289 2.47299e-05)
(-8.64488e-07 0.000957942 2.36756e-05)
(-1.13867e-06 0.000950483 2.27627e-05)
(-1.43511e-06 0.000940138 2.18892e-05)
(-1.73482e-06 0.00092629 2.10927e-05)
(-2.01406e-06 0.000907695 2.02546e-05)
(-2.24654e-06 0.000883088 1.9393e-05)
(-2.40204e-06 0.000850387 1.83729e-05)
(-2.45027e-06 0.000807179 1.71469e-05)
(-2.34602e-06 0.000749886 1.5285e-05)
(-1.99511e-06 0.000674014 1.21695e-05)
(-1.38637e-06 0.000573296 8.19342e-06)
(-8.39706e-07 0.000353601 8.12349e-06)
(-1.74726e-06 0.000325237 4.99961e-05)
(-2.7304e-06 0.000528187 6.26231e-05)
(-3.79934e-06 0.000622619 6.6288e-05)
(-5.04925e-06 0.000695081 6.80776e-05)
(-6.06548e-06 0.000750901 6.88243e-05)
(-6.88151e-06 0.000794309 6.88633e-05)
(-7.5312e-06 0.000828199 6.83478e-05)
(-8.0423e-06 0.000854992 6.74958e-05)
(-8.40771e-06 0.000876227 6.63764e-05)
(-8.64802e-06 0.000893325 6.51314e-05)
(-8.76592e-06 0.00090707 6.37696e-05)
(-8.77761e-06 0.000918327 6.23985e-05)
(-8.68786e-06 0.000927457 6.10006e-05)
(-8.51387e-06 0.000935009 5.96679e-05)
(-8.26268e-06 0.0009411 5.83652e-05)
(-7.95132e-06 0.000946087 5.71714e-05)
(-7.58799e-06 0.000949929 5.6041e-05)
(-7.19356e-06 0.000952833 5.50736e-05)
(-6.76306e-06 0.000954653 5.42049e-05)
(-6.31517e-06 0.000955518 5.34936e-05)
(-5.85526e-06 0.000955168 5.28684e-05)
(-5.386e-06 0.000953616 5.23784e-05)
(-4.91234e-06 0.000950461 5.19414e-05)
(-4.43583e-06 0.000945549 5.15956e-05)
(-3.95547e-06 0.00093827 5.12458e-05)
(-3.47547e-06 0.0009282 5.0915e-05)
(-2.98954e-06 0.000914377 5.0489e-05)
(-2.49859e-06 0.00089591 4.99632e-05)
(-2.00877e-06 0.000871221 4.91882e-05)
(-1.51536e-06 0.000838593 4.81092e-05)
(-1.03844e-06 0.000795345 4.6482e-05)
(-6.00579e-07 0.000738284 4.39855e-05)
(-2.22892e-07 0.000662746 3.98925e-05)
(1.33644e-07 0.000562874 3.40143e-05)
(2.64672e-07 0.000345407 2.4565e-05)
(-1.93874e-06 0.000314313 4.10671e-05)
(-3.17653e-06 0.000512171 5.75829e-05)
(-4.50422e-06 0.000604218 6.4326e-05)
(-6.06325e-06 0.000674693 6.83546e-05)
(-7.37648e-06 0.000729038 7.0596e-05)
(-8.4496e-06 0.000771124 7.16767e-05)
(-9.34486e-06 0.000804043 7.2036e-05)
(-1.00651e-05 0.000829891 7.18794e-05)
(-1.06274e-05 0.000850453 7.14173e-05)
(-1.10198e-05 0.000866837 7.07249e-05)
(-1.12629e-05 0.000880101 6.99341e-05)
(-1.13534e-05 0.000890799 6.90652e-05)
(-1.13071e-05 0.000899582 6.82148e-05)
(-1.11232e-05 0.000906686 6.73763e-05)
(-1.08234e-05 0.000912523 6.66272e-05)
(-1.04099e-05 0.000917141 6.59447e-05)
(-9.90007e-06 0.000920801 6.5392e-05)
(-9.30391e-06 0.00092342 6.4932e-05)
(-8.63761e-06 0.000925151 6.46148e-05)
(-7.9137e-06 0.000925801 6.43889e-05)
(-7.1471e-06 0.000925419 6.42914e-05)
(-6.34713e-06 0.000923697 6.42566e-05)
(-5.52492e-06 0.000920551 6.43087e-05)
(-4.69066e-06 0.000915512 6.43676e-05)
(-3.85577e-06 0.000908296 6.44423e-05)
(-3.02883e-06 0.000898177 6.44356e-05)
(-2.218e-06 0.000884534 6.43317e-05)
(-1.43631e-06 0.000866204 6.40014e-05)
(-7.00062e-07 0.000841973 6.3381e-05)
(-3.21151e-08 0.000809899 6.22748e-05)
(5.39524e-07 0.000767717 6.04985e-05)
(9.50106e-07 0.000712092 5.76077e-05)
(1.13478e-06 0.000638861 5.29507e-05)
(1.17183e-06 0.000542183 4.58676e-05)
(9.46189e-07 0.000332336 3.1078e-05)
(-1.68054e-06 0.000305309 3.013e-05)
(-2.85779e-06 0.000497341 4.57215e-05)
(-4.11248e-06 0.000586557 5.26919e-05)
(-5.62046e-06 0.000654877 5.70206e-05)
(-6.90565e-06 0.000707398 5.94331e-05)
(-7.98502e-06 0.00074807 6.06873e-05)
(-8.88225e-06 0.00077968 6.11798e-05)
(-9.62077e-06 0.00080449 6.11906e-05)
(-1.01847e-05 0.000824009 6.08554e-05)
(-1.05865e-05 0.000839558 6.03271e-05)
(-1.08185e-05 0.000851931 5.9665e-05)
(-1.08926e-05 0.000861923 5.89705e-05)
(-1.08071e-05 0.000869923 5.82655e-05)
(-1.05807e-05 0.000876422 5.76257e-05)
(-1.02152e-05 0.000881573 5.70522e-05)
(-9.73047e-06 0.000885683 5.66035e-05)
(-9.1368e-06 0.000888752 5.62644e-05)
(-8.45527e-06 0.000890964 5.6078e-05)
(-7.69588e-06 0.000892203 5.60137e-05)
(-6.88195e-06 0.000892551 5.60994e-05)
(-6.02492e-06 0.000891785 5.62893e-05)
(-5.14483e-06 0.000889873 5.65963e-05)
(-4.25639e-06 0.000886463 5.69599e-05)
(-3.37522e-06 0.000881365 5.73779e-05)
(-2.51498e-06 0.000874039 5.77747e-05)
(-1.68585e-06 0.000864047 5.81294e-05)
(-9.03657e-07 0.000850529 5.83442e-05)
(-1.81756e-07 0.000832631 5.83669e-05)
(4.57309e-07 0.000808938 5.80556e-05)
(1.00091e-06 0.000777851 5.72924e-05)
(1.41118e-06 0.000736972 5.58264e-05)
(1.63676e-06 0.000683368 5.33225e-05)
(1.60005e-06 0.000612879 4.91325e-05)
(1.43322e-06 0.00052016 4.26082e-05)
(1.05447e-06 0.000319144 2.78868e-05)
(-1.06607e-06 0.000299544 1.62333e-05)
(-1.95423e-06 0.000487338 2.63599e-05)
(-2.93718e-06 0.00057457 3.12055e-05)
(-4.16618e-06 0.000641217 3.41678e-05)
(-5.28312e-06 0.000692422 3.56964e-05)
(-6.24977e-06 0.000731869 3.63313e-05)
(-7.09051e-06 0.000762473 3.641e-05)
(-7.78435e-06 0.000786262 3.61003e-05)
(-8.33317e-06 0.000804917 3.55467e-05)
(-8.71947e-06 0.000819543 3.48286e-05)
(-8.94881e-06 0.000831134 3.40431e-05)
(-9.01326e-06 0.000840273 3.32337e-05)
(-8.92665e-06 0.000847562 3.24723e-05)
(-8.69015e-06 0.000853286 3.17821e-05)
(-8.3229e-06 0.000857813 3.12177e-05)
(-7.83307e-06 0.000861244 3.07868e-05)
(-7.24171e-06 0.000863799 3.05281e-05)
(-6.56691e-06 0.000865448 3.0433e-05)
(-5.83113e-06 0.0008663 3.05239e-05)
(-5.05258e-06 0.000866218 3.07759e-05)
(-4.25385e-06 0.000865203 3.11949e-05)
(-3.45252e-06 0.000863005 3.17397e-05)
(-2.66878e-06 0.000859495 3.24007e-05)
(-1.91867e-06 0.00085427 3.31226e-05)
(-1.21577e-06 0.000847014 3.38807e-05)
(-5.76773e-07 0.000837085 3.46057e-05)
(-8.23503e-09 0.00082386 3.52558e-05)
(4.76591e-07 0.000806295 3.57412e-05)
(8.73184e-07 0.000783234 3.59906e-05)
(1.16461e-06 0.000752927 3.58752e-05)
(1.34562e-06 0.000713266 3.52524e-05)
(1.37461e-06 0.000661235 3.38577e-05)
(1.23187e-06 0.000593028 3.12862e-05)
(1.02931e-06 0.00050334 2.7079e-05)
(7.00289e-07 0.00030921 1.73201e-05)
(-2.97767e-07 0.000298673 1.35257e-06)
(-8.41537e-07 0.000485808 3.52419e-06)
(-1.45707e-06 0.000572626 4.93561e-06)
(-2.34348e-06 0.000638897 5.64126e-06)
(-3.23456e-06 0.000689616 5.66107e-06)
(-4.07623e-06 0.000728599 5.26104e-06)
(-4.83331e-06 0.000758613 4.57813e-06)
(-5.49278e-06 0.000781843 3.70791e-06)
(-6.02307e-06 0.000799823 2.70421e-06)
(-6.41585e-06 0.000813828 1.63752e-06)
(-6.65514e-06 0.000824702 5.52798e-07)
(-6.74722e-06 0.000833206 -4.88791e-07)
(-6.68596e-06 0.000839791 -1.45122e-06)
(-6.48813e-06 0.000844919 -2.28405e-06)
(-6.16019e-06 0.000848806 -2.96216e-06)
(-5.72341e-06 0.000851727 -3.44848e-06)
(-5.19324e-06 0.000853746 -3.7321e-06)
(-4.59468e-06 0.000855007 -3.79206e-06)
(-3.95069e-06 0.000855456 -3.6343e-06)
(-3.28539e-06 0.000855126 -3.25504e-06)
(-2.61865e-06 0.000853851 -2.67761e-06)
(-1.97375e-06 0.000851548 -1.91509e-06)
(-1.37291e-06 0.00084792 -1.00586e-06)
(-8.31594e-07 0.000842727 2.3138e-08)
(-3.63573e-07 0.000835483 1.12229e-06)
(2.50723e-08 0.000825713 2.25461e-06)
(3.20306e-07 0.000812628 3.36327e-06)
(5.28119e-07 0.000795354 4.40621e-06)
(6.46405e-07 0.000772578 5.32142e-06)
(6.83297e-07 0.000742729 6.06275e-06)
(6.40563e-07 0.00070357 6.55699e-06)
(5.38152e-07 0.000652273 6.7261e-06)
(3.86654e-07 0.000584948 6.42485e-06)
(2.83452e-07 0.000496503 5.58893e-06)
(1.05328e-07 0.000305038 3.51456e-06)
(3.82711e-07 0.000303214 -1.17748e-05)
(1.39297e-07 0.000493534 -1.74155e-05)
(-1.36208e-07 0.000581759 -1.94303e-05)
(-7.03696e-07 0.000648916 -2.09972e-05)
(-1.40255e-06 0.000700189 -2.24761e-05)
(-2.12353e-06 0.000739378 -2.39215e-05)
(-2.82044e-06 0.000769421 -2.53604e-05)
(-3.44614e-06 0.000792448 -2.68103e-05)
(-3.97739e-06 0.000810151 -2.82647e-05)
(-4.3808e-06 0.000823725 -2.97041e-05)
(-4.6534e-06 0.000834166 -3.10925e-05)
(-4.78166e-06 0.000842141 -3.23945e-05)
(-4.77086e-06 0.000848247 -3.35678e-05)
(-4.62487e-06 0.000852845 -3.45773e-05)
(-4.35956e-06 0.000856289 -3.53861e-05)
(-3.99066e-06 0.000858747 -3.59689e-05)
(-3.5418e-06 0.000860415 -3.63018e-05)
(-3.03646e-06 0.000861323 -3.63747e-05)
(-2.49877e-06 0.000861544 -3.61812e-05)
(-1.95433e-06 0.000860991 -3.57294e-05)
(-1.42918e-06 0.000859618 -3.50308e-05)
(-9.44001e-07 0.000857215 -3.41103e-05)
(-5.20345e-07 0.0008536 -3.29953e-05)
(-1.79003e-07 0.000848402 -3.17227e-05)
(7.60436e-08 0.000841243 -3.03288e-05)
(2.31504e-07 0.000831513 -2.88551e-05)
(2.92492e-07 0.000818524 -2.73363e-05)
(2.58282e-07 0.000801263 -2.58044e-05)
(1.4944e-07 0.000778511 -2.4276e-05)
(-1.95466e-08 0.000748554 -2.27498e-05)
(-2.14654e-07 0.000709231 -2.11963e-05)
(-3.99305e-07 0.000657572 -1.95416e-05)
(-4.97999e-07 0.00058973 -1.76435e-05)
(-4.55056e-07 0.000500471 -1.51883e-05)
(-4.75111e-07 0.000307216 -9.57599e-06)
(8.30251e-07 0.000312609 -2.08879e-05)
(7.45818e-07 0.000509262 -3.22663e-05)
(7.17146e-07 0.000600311 -3.68618e-05)
(3.6987e-07 0.000669497 -4.01636e-05)
(-1.75097e-07 0.000722116 -4.28058e-05)
(-8.05626e-07 0.000762198 -4.50688e-05)
(-1.44062e-06 0.000792716 -4.71133e-05)
(-2.03553e-06 0.000815971 -4.90281e-05)
(-2.5473e-06 0.000833646 -5.08546e-05)
(-2.95478e-06 0.000847078 -5.25984e-05)
(-3.23386e-06 0.000857227 -5.42434e-05)
(-3.38223e-06 0.000864886 -5.57615e-05)
(-3.39579e-06 0.000870599 -5.71177e-05)
(-3.28368e-06 0.000874838 -5.8277e-05)
(-3.05821e-06 0.000877896 -5.92053e-05)
(-2.73985e-06 0.000880043 -5.98752e-05)
(-2.34872e-06 0.000881402 -6.02642e-05)
(-1.90984e-06 0.000882097 -6.03602e-05)
(-1.44862e-06 0.00088212 -6.0158e-05)
(-9.95596e-07 0.000881469 -5.9664e-05)
(-5.73504e-07 0.000880012 -5.88912e-05)
(-2.05492e-07 0.000877613 -5.78633e-05)
(8.7343e-08 0.000873994 -5.66081e-05)
(2.9039e-07 0.000868853 -5.5161e-05)
(3.88866e-07 0.000861707 -5.35564e-05)
(3.85268e-07 0.000852 -5.18299e-05)
(2.78436e-07 0.00083893 -5.00079e-05)
(8.42952e-08 0.000821526 -4.81056e-05)
(-1.81518e-07 0.000798438 -4.61138e-05)
(-4.83571e-07 0.000767969 -4.39883e-05)
(-7.83661e-07 0.000727801 -4.16305e-05)
(-1.01274e-06 0.000674942 -3.88502e-05)
(-1.07565e-06 0.000605339 -3.53027e-05)
(-9.16039e-07 0.000513668 -3.03968e-05)
(-8.70955e-07 0.000315011 -1.9072e-05)
(9.78018e-07 0.000325178 -2.50815e-05)
(9.14526e-07 0.000529642 -3.89871e-05)
(9.9169e-07 0.000624238 -4.47583e-05)
(7.52916e-07 0.000695966 -4.88611e-05)
(2.93025e-07 0.000750385 -5.20447e-05)
(-2.62593e-07 0.000791666 -5.46934e-05)
(-8.41415e-07 0.000822964 -5.70309e-05)
(-1.38231e-06 0.00084664 -5.91753e-05)
(-1.85142e-06 0.000864512 -6.11907e-05)
(-2.22221e-06 0.000877934 -6.30919e-05)
(-2.47573e-06 0.000887973 -6.48732e-05)
(-2.60199e-06 0.000895412 -6.65078e-05)
(-2.60155e-06 0.000900886 -6.79655e-05)
(-2.48015e-06 0.000904842 -6.92096e-05)
(-2.2563e-06 0.000907652 -7.0209e-05)
(-1.9436e-06 0.000909547 -7.09325e-05)
(-1.56664e-06 0.000910719 -7.13613e-05)
(-1.14914e-06 0.000911245 -7.14789e-05)
(-7.1753e-07 0.000911177 -7.12838e-05)
(-3.03403e-07 0.000910457 -7.07781e-05)
(7.4064e-08 0.000909002 -6.99786e-05)
(3.88733e-07 0.000906613 -6.89052e-05)
(6.20212e-07 0.000903051 -6.75894e-05)
(7.55033e-07 0.00089794 -6.60622e-05)
(7.82396e-07 0.000890825 -6.43612e-05)
(6.98762e-07 0.000881066 -6.25156e-05)
(5.14936e-07 0.000867873 -6.05523e-05)
(2.35249e-07 0.000850172 -5.84757e-05)
(-1.05922e-07 0.000826601 -5.62688e-05)
(-4.804e-07 0.000795336 -5.38662e-05)
(-8.40437e-07 0.000754005 -5.11439e-05)
(-1.1159e-06 0.000699443 -4.78574e-05)
(-1.18784e-06 0.000627467 -4.35812e-05)
(-1.0027e-06 0.000532504 -3.75972e-05)
(-9.92413e-07 0.00032659 -2.37307e-05)
(8.72667e-07 0.000338923 -2.4682e-05)
(7.26446e-07 0.000551124 -3.79239e-05)
(7.92174e-07 0.000649226 -4.34632e-05)
(5.50677e-07 0.000723512 -4.74322e-05)
(1.16667e-07 0.000779731 -5.0532e-05)
(-3.98292e-07 0.000822263 -5.31341e-05)
(-9.18639e-07 0.000854362 -5.54455e-05)
(-1.40213e-06 0.000878529 -5.75812e-05)
(-1.80944e-06 0.000896631 -5.95948e-05)
(-2.12019e-06 0.000910122 -6.1503e-05)
(-2.31153e-06 0.000920088 -6.32927e-05)
(-2.3817e-06 0.000927391 -6.49409e-05)
(-2.33101e-06 0.000932666 -6.64115e-05)
(-2.16385e-06 0.000936422 -6.76716e-05)
(-1.89774e-06 0.00093902 -6.86852e-05)
(-1.55152e-06 0.000940741 -6.94256e-05)
(-1.14294e-06 0.000941758 -6.98682e-05)
(-7.00302e-07 0.000942188 -7.0002e-05)
(-2.50388e-07 0.000942052 -6.98196e-05)
(1.82242e-07 0.000941325 -6.93287e-05)
(5.70463e-07 0.000939885 -6.85403e-05)
(8.93059e-07 0.000937557 -6.74797e-05)
(1.12976e-06 0.000934053 -6.61732e-05)
(1.26578e-06 0.00092901 -6.46573e-05)
(1.28906e-06 0.000921916 -6.29649e-05)
(1.20161e-06 0.000912128 -6.11314e-05)
(1.00572e-06 0.000898785 -5.91799e-05)
(7.18745e-07 0.000880794 -5.71224e-05)
(3.59043e-07 0.000856698 -5.49412e-05)
(-3.98654e-08 0.000824624 -5.25814e-05)
(-4.36068e-07 0.000782069 -4.99241e-05)
(-7.57674e-07 0.000725771 -4.67489e-05)
(-9.00391e-07 0.000651346 -4.2656e-05)
(-7.72782e-07 0.000553033 -3.6967e-05)
(-8.76345e-07 0.000339716 -2.37353e-05)
(5.93495e-07 0.000351812 -2.1026e-05)
(3.11253e-07 0.000570359 -3.11791e-05)
(2.69715e-07 0.000671356 -3.54151e-05)
(-4.55291e-08 0.000747739 -3.85292e-05)
(-4.94874e-07 0.00080545 -4.10654e-05)
(-9.85037e-07 0.000848995 -4.32791e-05)
(-1.45849e-06 0.000881756 -4.53162e-05)
(-1.87357e-06 0.000906301 -4.7249e-05)
(-2.20459e-06 0.000924586 -4.91111e-05)
(-2.43531e-06 0.000938101 -5.08998e-05)
(-2.54851e-06 0.000947999 -5.25967e-05)
(-2.53751e-06 0.000955158 -5.4169e-05)
(-2.40826e-06 0.000960263 -5.55815e-05)
(-2.16699e-06 0.00096383 -5.67955e-05)
(-1.8317e-06 0.000966257 -5.77781e-05)
(-1.41759e-06 0.000967823 -5.84981e-05)
(-9.46249e-07 0.00096873 -5.8935e-05)
(-4.44887e-07 0.000969082 -5.90733e-05)
(6.17555e-08 0.000968924 -5.89097e-05)
(5.47277e-07 0.000968208 -5.84475e-05)
(9.87998e-07 0.000966828 -5.77021e-05)
(1.36115e-06 0.000964579 -5.66942e-05)
(1.6465e-06 0.000961179 -5.54549e-05)
(1.83003e-06 0.000956227 -5.40168e-05)
(1.90206e-06 0.000949207 -5.24191e-05)
(1.85661e-06 0.000939429 -5.0696e-05)
(1.7006e-06 0.000926013 -4.88803e-05)
(1.44385e-06 0.000907805 -4.69896e-05)
(1.10457e-06 0.000883311 -4.50256e-05)
(7.10546e-07 0.000850575 -4.29539e-05)
(2.97936e-07 0.000807023 -4.06993e-05)
(-8.16265e-08 0.000749274 -3.81063e-05)
(-3.3715e-07 0.000672817 -3.48998e-05)
(-3.3776e-07 0.000571707 -3.05505e-05)
(-5.93132e-07 0.000352234 -2.03818e-05)
(2.42956e-07 0.000362424 -1.57036e-05)
(-1.82385e-07 0.000585221 -2.14457e-05)
(-3.72458e-07 0.00068815 -2.37842e-05)
(-8.01355e-07 0.00076593 -2.56423e-05)
(-1.28834e-06 0.000824608 -2.73389e-05)
(-1.76499e-06 0.000868795 -2.8969e-05)
(-2.19278e-06 0.000901937 -3.05817e-05)
(-2.54742e-06 0.000926672 -3.21966e-05)
(-2.80398e-06 0.000944994 -3.38104e-05)
(-2.94911e-06 0.000958448 -3.54016e-05)
(-2.97396e-06 0.000968207 -3.69362e-05)
(-2.87669e-06 0.000975191 -3.83759e-05)
(-2.66129e-06 0.000980098 -3.96793e-05)
(-2.33658e-06 0.000983474 -4.08074e-05)
(-1.91959e-06 0.000985724 -4.17242e-05)
(-1.42784e-06 0.00098715 -4.24005e-05)
(-8.82949e-07 0.000987951 -4.28134e-05)
(-3.08221e-07 0.00098825 -4.29496e-05)
(2.69035e-07 0.000988081 -4.28039e-05)
(8.24858e-07 0.000987409 -4.23812e-05)
(1.33399e-06 0.000986108 -4.16951e-05)
(1.7773e-06 0.000983978 -4.07679e-05)
(2.13403e-06 0.000980714 -3.9629e-05)
(2.38682e-06 0.000975912 -3.83142e-05)
(2.52572e-06 0.000969022 -3.68622e-05)
(2.54761e-06 0.000959346 -3.53139e-05)
(2.45333e-06 0.000945962 -3.37076e-05)
(2.2481e-06 0.000927695 -3.20762e-05)
(1.94812e-06 0.000903 -3.04409e-05)
(1.57335e-06 0.000869883 -2.88039e-05)
(1.1484e-06 0.000825701 -2.7143e-05)
(7.10956e-07 0.00076701 -2.54021e-05)
(3.2632e-07 0.000689198 -2.34712e-05)
(1.63683e-07 0.000586215 -2.1041e-05)
(-2.45664e-07 0.000362611 -1.52678e-05)
(-9.46707e-08 0.000369991 -1.02112e-05)
(-6.39451e-07 0.00059476 -1.13131e-05)
(-9.8576e-07 0.000698584 -1.16414e-05)
(-1.5242e-06 0.00077698 -1.21585e-05)
(-2.0535e-06 0.000836056 -1.29518e-05)
(-2.52412e-06 0.000880454 -1.39455e-05)
(-2.91763e-06 0.000913667 -1.50891e-05)
(-3.21766e-06 0.000938357 -1.63453e-05)
(-3.40532e-06 0.000956555 -1.7675e-05)
(-3.477e-06 0.00096982 -1.90348e-05)
(-3.42419e-06 0.000979361 -2.03767e-05)
(-3.24561e-06 0.000986104 -2.16555e-05)
(-2.95124e-06 0.000990778 -2.28251e-05)