/*--------------------------------*- C++ -*----------------------------------*\
| =========                 |                                                 |
| \\      /  F ield         | OpenFOAM: The Open Source CFD Toolbox           |
|  \\    /   O peration     | Version:  v2006                                 |
|   \\  /    A nd           | Website:  www.openfoam.com                      |
|    \\/     M anipulation  |                                                 |
\*---------------------------------------------------------------------------*/
FoamFile
{
    version     2.0;
    format      ascii;
    class       volScalarField;
    location    "23";
    object      omega;
}
// * * * * * * * * * * * * * * * * * * * * * * * * * * * * * * * * * * * * * //

dimensions      [0 0 -1 0 0 0 0];


internalField   nonuniform List<scalar> 
78750
(
358.068
14.7472
14.7908
14.7736
14.732
14.6824
14.6345
14.5918
14.5542
14.521
14.4914
14.465
14.4414
14.4203
14.4014
14.3842
14.3683
14.3536
14.3396
14.326
14.3123
14.2984
14.283
14.2657
14.2456
14.2218
14.1933
14.1586
14.1164
14.0655
14.0058
13.9393
13.8684
13.7951
356.617
523.835
5.52935
5.96927
6.07317
6.03933
5.95619
5.86795
5.79452
5.73864
5.69674
5.66529
5.64087
5.62133
5.60538
5.59215
5.58106
5.57117
5.56223
5.55333
5.54377
5.53283
5.51899
5.50092
5.47802
5.4496
5.41472
5.3719
5.31819
5.24849
5.15512
5.02885
4.86653
4.6846
4.49292
523.79
523.892
4.94504
5.1488
5.17149
5.10541
5.02304
4.96052
4.92103
4.89792
4.88429
4.87591
4.87123
4.86926
4.86933
4.87114
4.87458
4.87967
4.88652
4.89528
4.90608
4.91898
4.93384
4.95029
4.96764
4.98469
4.99961
5.01018
5.01269
5.00081
4.96574
4.89802
4.79511
4.67389
4.52214
524.754
523.815
4.76002
4.94227
5.02239
5.04551
5.03657
5.01708
4.99706
4.97917
4.96153
4.94275
4.92323
4.90382
4.8852
4.8678
4.85191
4.83768
4.82515
4.8143
4.80529
4.79811
4.79278
4.78964
4.7893
4.79226
4.79875
4.80839
4.81966
4.82784
4.82436
4.79722
4.73766
4.65097
4.5227
525.141
523.808
4.66275
4.82205
4.90458
4.94504
4.94945
4.92754
4.88965
4.84428
4.79789
4.75563
4.72085
4.69466
4.67651
4.66555
4.66062
4.66015
4.66222
4.66476
4.66603
4.66479
4.66038
4.65284
4.64247
4.63066
4.62087
4.6176
4.62495
4.64356
4.6666
4.67871
4.66306
4.61348
4.51485
525.793
523.763
4.60472
4.75341
4.83064
4.87347
4.88397
4.86709
4.83317
4.79213
4.75106
4.71483
4.6863
4.66664
4.65628
4.65529
4.66261
4.67596
4.69238
4.70871
4.7221
4.73027
4.7315
4.72461
4.70872
4.68263
4.64671
4.606
4.56992
4.54982
4.55279
4.57256
4.58675
4.56928
4.4979
525.932
523.748
4.55463
4.70004
4.77563
4.81793
4.83299
4.82261
4.79368
4.75481
4.71349
4.67541
4.64495
4.62541
4.61894
4.62629
4.64596
4.67367
4.70341
4.72954
4.74922
4.76158
4.76551
4.75974
4.74332
4.71404
4.66878
4.60967
4.54653
4.49612
4.47744
4.49667
4.53008
4.53663
4.49125
526.315
523.731
4.522
4.66308
4.73432
4.77198
4.78402
4.77176
4.74152
4.70219
4.66211
4.6283
4.60695
4.60289
4.61807
4.64997
4.69185
4.73573
4.7753
4.8069
4.83027
4.8458
4.85272
4.84979
4.83573
4.80829
4.76281
4.69597
4.61187
4.52741
4.46877
4.45823
4.4866
4.5057
4.47973
526.796
523.717
4.48915
4.62868
4.6986
4.73335
4.74377
4.73093
4.69918
4.65665
4.61379
4.58234
4.57233
4.58805
4.62627
4.67758
4.73105
4.77884
4.81699
4.84581
4.86701
4.88089
4.88681
4.88369
4.87013
4.84346
4.79887
4.73282
4.64706
4.55447
4.47861
4.44757
4.4648
4.48596
4.4723
527.502
523.702
4.46156
4.59726
4.66379
4.69364
4.69812
4.67801
4.63842
4.59214
4.55742
4.55019
4.57567
4.62755
4.6923
4.75622
4.81127
4.85451
4.88683
4.91119
4.92922
4.94097
4.94608
4.94373
4.93253
4.90963
4.87047
4.81124
4.7306
4.63618
4.54691
4.48972
4.48003
4.48741
4.47041
527.869
523.693
4.43859
4.5679
4.62694
4.6464
4.63751
4.60308
4.55595
4.51985
4.51592
4.54967
4.61162
4.68522
4.75505
4.81338
4.85839
4.89156
4.91654
4.9358
4.94991
4.95905
4.96289
4.96063
4.95058
4.92975
4.89483
4.84227
4.7717
4.68921
4.60618
4.54345
4.51765
4.50914
4.48058
527.943
523.687
4.41678
4.5344
4.58092
4.58601
4.5613
4.52029
4.4906
4.49669
4.54292
4.61651
4.69888
4.77303
4.83255
4.87767
4.91095
4.93564
4.95468
4.96951
4.98064
4.98809
4.99145
4.98988
4.98171
4.96442
4.9354
4.89203
4.83283
4.76065
4.68178
4.61219
4.56956
4.54365
4.49953
527.788
523.683
4.38885
4.48988
4.52307
4.51621
4.48758
4.46616
4.47931
4.53107
4.60656
4.68886
4.7621
4.81978
4.86343
4.89605
4.92046
4.93931
4.95452
4.96682
4.97629
4.9826
4.98507
4.98268
4.97369
4.95623
4.92913
4.89206
4.84624
4.79193
4.72901
4.66641
4.61795
4.5805
4.5244
527.73
523.682
4.3641
4.44868
4.4755
4.47299
4.46812
4.48854
4.5407
4.61123
4.68569
4.75342
4.80792
4.85004
4.8826
4.90808
4.92833
4.94496
4.95914
4.97111
4.98052
4.98663
4.9885
4.9848
4.9736
4.95345
4.92458
4.88913
4.85078
4.80812
4.75771
4.70303
4.65302
4.60881
4.54509
527.806
523.682
4.35061
4.42995
4.46277
4.47684
4.49697
4.53657
4.59006
4.64633
4.70133
4.7515
4.79426
4.82992
4.85947
4.88385
4.90403
4.92135
4.93676
4.95016
4.96094
4.96799
4.96997
4.96497
4.95054
4.92568
4.89283
4.85878
4.83055
4.80298
4.76835
4.72446
4.67639
4.6278
4.55823
528.095
523.67
4.33733
4.42208
4.46465
4.49128
4.51998
4.55533
4.59356
4.63163
4.67267
4.71684
4.7595
4.79778
4.83035
4.85712
4.8791
4.89817
4.91568
4.93164
4.94543
4.9557
4.96075
4.95796
4.94383
4.91633
4.87782
4.83813
4.80981
4.78902
4.76599
4.73245
4.68803
4.63689
4.56328
528.461
523.651
4.31778
4.40889
4.46003
4.49327
4.52193
4.54818
4.572
4.59589
4.62624
4.66834
4.71362
4.75526
4.78991
4.81727
4.83897
4.85771
4.87553
4.89296
4.90963
4.92412
4.93455
4.93795
4.92991
4.90692
4.86931
4.8265
4.7939
4.77264
4.75611
4.73266
4.69543
4.64566
4.57134
528.845
523.638
4.30166
4.3946
4.44986
4.48544
4.51251
4.53386
4.55261
4.57437
4.60556
4.64996
4.69594
4.73548
4.76587
4.78828
4.8055
4.82072
4.83639
4.85351
4.87195
4.89033
4.9067
4.9181
4.9195
4.90609
4.87527
4.83268
4.79336
4.76305
4.74241
4.72209
4.69087
4.6458
4.57687
529.163
523.633
4.29227
4.38383
4.43961
4.47512
4.50096
4.5214
4.54111
4.56555
4.59838
4.64053
4.67998
4.71047
4.73134
4.74522
4.75559
4.76566
4.77792
4.79372
4.81319
4.83517
4.85797
4.87885
4.89269
4.89383
4.87752
4.84543
4.80734
4.76986
4.74089
4.71909
4.69282
4.65372
4.59095
529.426
523.633
4.28724
4.37638
4.43125
4.4668
4.4937
4.51698
4.54098
4.56884
4.60157
4.63734
4.66626
4.68495
4.69465
4.69885
4.70136
4.70525
4.71286
4.72577
4.74453
4.76853
4.79689
4.82716
4.85422
4.87181
4.87379
4.85849
4.82931
4.78912
4.74824
4.71515
4.68597
4.65112
4.59729
529.609
523.633
4.28396
4.37142
4.4261
4.46291
4.49239
4.51887
4.5447
4.57068
4.59687
4.62176
4.63827
4.64511
4.64433
4.63958
4.63458
4.63226
4.63455
4.64309
4.65903
4.6828
4.71507
4.75403
4.79476
4.83036
4.85378
4.86158
4.85123
4.82108
4.77967
4.73965
4.70511
4.66938
4.6173
529.746
523.633
4.28067
4.36735
4.42282
4.46177
4.49415
4.52269
4.5477
4.56881
4.58682
4.60128
4.60755
4.60554
4.59758
4.58708
4.57724
4.57044
4.56804
4.57099
4.58074
4.59918
4.62944
4.67181
4.72277
4.77492
4.81971
4.85134
4.86165
4.84421
4.80449
4.75747
4.71593
4.67875
4.62963
529.856
523.631
4.27742
4.3646
4.42177
4.46286
4.49703
4.52542
4.54683
4.56095
4.56956
4.57498
4.57461
4.56897
4.56036
4.55164
4.54491
4.54085
4.53908
4.53905
4.54131
4.54839
4.56555
4.59804
4.64747
4.7086
4.77207
4.82983
4.86719
4.87297
4.84747
4.80274
4.75494
4.71067
4.65534
530.007
523.627
4.27051
4.35807
4.4171
4.45967
4.49441
4.5218
4.53979
4.54855
4.55099
4.55206
4.55128
4.54935
4.54847
4.55103
4.55778
4.56693
4.57511
4.57958
4.57921
4.57462
4.57001
4.5746
4.59961
4.64895
4.71618
4.79006
4.84775
4.87208
4.86012
4.82269
4.77676
4.73104
4.67245
530.206
523.622
4.26224
4.34989
4.41018
4.45298
4.48688
4.51265
4.52805
4.53372
4.53323
4.53284
4.53466
4.53947
4.54942
4.56637
4.58976
4.61575
4.6386
4.65434
4.66141
4.65845
4.64491
4.62571
4.61486
4.62873
4.67624
4.75317
4.83066
4.88057
4.88892
4.85981
4.81142
4.75882
4.69389
530.481
523.616
4.25307
4.33907
4.39905
4.44171
4.47471
4.49918
4.5136
4.51894
4.51916
4.52098
4.52739
4.53931
4.55857
4.58598
4.6196
4.65419
4.68346
4.70432
4.71706
4.72186
4.71795
4.70581
4.69014
4.68119
4.69383
4.73861
4.80049
4.85458
4.88045
4.87108
4.83512
4.7866
4.72342
530.686
523.614
4.25096
4.33594
4.39514
4.43719
4.46914
4.49226
4.50564
4.51085
4.51269
4.51837
4.53007
4.54855
4.57497
4.60893
4.64704
4.68268
4.70928
4.72501
4.73164
4.73096
4.72655
4.72502
4.73159
4.74768
4.77768
4.82108
4.86724
4.90218
4.91293
4.89459
4.8546
4.80586
4.74775
530.903
523.617
4.25371
4.33837
4.39724
4.4394
4.47174
4.49542
4.50952
4.51608
4.52018
4.52798
4.5408
4.55991
4.58745
4.62404
4.66595
4.70462
4.73147
4.74415
4.74467
4.73482
4.72174
4.72188
4.74704
4.79437
4.85418
4.90822
4.94812
4.96937
4.96685
4.93863
4.89273
4.83963
4.77352
531.062
523.618
4.25629
4.34353
4.40472
4.4492
4.48383
4.5093
4.52401
4.52892
4.52773
4.52608
4.52832
4.53893
4.56381
4.60601
4.66027
4.71322
4.75124
4.76921
4.76884
4.75093
4.72186
4.70529
4.73087
4.80758
4.91105
4.99387
5.03743
5.04238
5.01595
4.96717
4.90825
4.84324
4.75815
531.259
523.612
4.24845
4.33698
4.4007
4.44799
4.48468
4.51173
4.52796
4.53279
4.5279
4.5176
4.50927
4.51141
4.53292
4.57866
4.64321
4.71127
4.76623
4.79894
4.80819
4.79318
4.75089
4.69311
4.6619
4.69987
4.81048
4.93737
5.02895
5.06788
5.05693
5.00852
4.94151
4.86176
4.75525
531.41
523.608
4.23959
4.32749
4.39201
4.4402
4.47645
4.50183
4.5159
4.51747
4.50759
4.49105
4.47898
4.48418
4.51632
4.57691
4.65496
4.73203
4.79347
4.83394
4.85289
4.84817
4.81445
4.75095
4.68097
4.65575
4.71806
4.84369
4.96056
5.02575
5.0353
5.00167
4.94284
4.86473
4.75358
531.459
523.604
4.23203
4.31815
4.38099
4.42662
4.4595
4.48069
4.49083
4.48942
4.47727
4.45986
4.45121
4.4678
4.51637
4.59268
4.68205
4.76729
4.83737
4.88871
4.92046
4.92969
4.90983
4.8521
4.7586
4.66355
4.6334
4.71345
4.857
4.97953
5.03218
5.01656
4.96112
4.87887
4.75814
531.581
523.6
4.21908
4.29984
4.36046
4.40498
4.43627
4.45421
4.4586
4.44951
4.4331
4.42445
4.4431
4.49592
4.57585
4.66844
4.75821
4.83474
4.89592
4.94458
4.98271
5.00902
5.01889
5.00418
4.95415
4.85853
4.7335
4.65038
4.67982
4.79635
4.91317
4.96759
4.95533
4.89543
4.78792
531.551
523.604
4.22552
4.30522
4.35742
4.38572
4.39432
4.38796
4.37559
4.37482
4.40325
4.46894
4.56247
4.66708
4.76674
4.85044
4.91567
4.96599
5.00591
5.03777
5.06186
5.07684
5.08012
5.06757
5.03306
4.96847
4.86925
4.75839
4.69352
4.72058
4.81619
4.90429
4.93432
4.90662
4.82703
531.529
523.616
4.22567
4.2908
4.32496
4.33727
4.34095
4.35372
4.39282
4.46584
4.56492
4.66873
4.75878
4.82751
4.87709
4.91456
4.94652
4.97742
5.00892
5.04003
5.06845
5.09098
5.10426
5.10411
5.08388
5.03495
4.95199
4.84536
4.75309
4.72121
4.76921
4.85257
4.90552
4.90465
4.85218
531.523
523.626
4.22575
4.28308
4.31565
4.33705
4.36423
4.41183
4.4841
4.57216
4.65555
4.72309
4.77526
4.81788
4.85655
4.89459
4.9335
4.97404
5.01579
5.05682
5.09472
5.12698
5.15108
5.16324
5.15721
5.12459
5.05852
4.96455
4.86534
4.79776
4.79748
4.85216
4.90448
4.91533
4.877
531.536
523.629
4.22669
4.28383
4.32142
4.35263
4.39053
4.44331
4.51178
4.58737
4.6568
4.71542
4.76383
4.80486
4.84173
4.87731
4.91424
4.95384
4.99549
5.03747
5.07745
5.11278
5.141
5.15865
5.15995
5.13767
5.08767
5.01693
4.93688
4.87115
4.84993
4.87708
4.91449
4.9237
4.88802
531.636
523.622
4.22117
4.28113
4.32193
4.35551
4.39131
4.4354
4.49139
4.55586
4.61717
4.6699
4.71385
4.75186
4.78745
4.82382
4.86347
4.90737
4.95456
5.00295
5.04992
5.093
5.12991
5.1569
5.16769
5.15515
5.11687
5.06123
4.99688
4.94161
4.9164
4.92553
4.94401
4.94181
4.89716
531.746
523.612
4.20666
4.26547
4.30595
4.33772
4.36875
4.40526
4.45182
4.50982
4.56836
4.62039
4.66418
4.70182
4.73671
4.77231
4.81153
4.85567
4.90409
4.95505
5.0061
5.05526
5.10069
5.13868
5.16274
5.16544
5.14389
5.10207
5.04681
4.99619
4.96915
4.96808
4.97293
4.95965
4.90525
531.919
523.606
4.19343
4.24878
4.28929
4.32342
4.35829
4.39877
4.44697
4.5015
4.5529
4.59613
4.63141
4.66202
4.69174
4.7238
4.76074
4.80361
4.85166
4.9033
4.95622
5.00898
5.06075
5.10861
5.14654
5.16772
5.16815
5.14498
5.10097
5.05273
5.0203
5.00813
5.00083
4.97832
4.91793
532.052
523.603
4.18511
4.2389
4.28099
4.31824
4.35597
4.39665
4.43986
4.48389
4.52398
4.55789
4.58677
4.6134
4.64064
4.67098
4.70663
4.74866
4.79656
4.84902
4.90395
4.96051
5.01903
5.07702
5.12907
5.16912
5.19142
5.18745
5.15559
5.10955
5.0714
5.05025
5.03424
5.00541
4.9415
532.18
523.601
4.17804
4.23007
4.27243
4.31012
4.34723
4.38553
4.42393
4.46111
4.49473
4.52338
4.54778
4.56991
4.59216
4.61703
4.64703
4.68382
4.72764
4.77779
4.83253
4.89138
4.95582
5.0245
5.09288
5.15551
5.20364
5.2246
5.21117
5.1705
5.12426
5.09027
5.06575
5.03348
4.97036
532.321
523.599
4.17232
4.22259
4.26469
4.30265
4.33991
4.3778
4.41441
4.44788
4.47654
4.49985
4.51871
4.53509
4.55136
4.5701
4.59404
4.62538
4.66483
4.712
4.76522
4.82463
4.89268
4.96908
5.05078
5.133
5.20423
5.25013
5.26001
5.23421
5.18842
5.14372
5.10836
5.06893
5.00247
532.456
523.598
4.16792
4.2168
4.25891
4.29801
4.33648
4.37425
4.40857
4.43729
4.45948
4.47544
4.48638
4.49428
4.50174
4.5118
4.52775
4.55258
4.58781
4.63319
4.68668
4.74835
4.82147
4.90684
5.0028
5.10347
5.19529
5.26289
5.29394
5.28503
5.24616
5.19679
5.15346
5.10783
5.03986
532.663
523.597
4.16454
4.21301
4.25603
4.29676
4.3356
4.37083
4.39982
4.42122
4.43505
4.44208
4.44363
4.44158
4.4387
4.43883
4.44623
4.46472
4.49671
4.54178
4.59703
4.66244
4.74197
4.83682
4.94732
5.06668
5.18026
5.27063
5.32244
5.32939
5.29937
5.25143
5.20373
5.1511
5.07446
532.861
523.595
4.15972
4.20693
4.24922
4.28859
4.32373
4.35263
4.37403
4.3876
4.39376
4.39322
4.38687
4.37616
4.36389
4.35484
4.35478
4.36901
4.40084
4.44927
4.50983
4.58212
4.66925
4.77171
4.89185
5.02276
5.152
5.26321
5.33844
5.3653
5.34611
5.29976
5.24554
5.18342
5.0964
533.161
523.592
4.15222
4.19607
4.23448
4.26865
4.29773
4.32031
4.33553
4.34318
4.34347
4.33675
4.32357
4.30517
4.28448
4.26713
4.26044
4.27151
4.30457
4.35774
4.42549
4.50604
4.60112
4.71167
4.84
4.97846
5.11482
5.23532
5.32571
5.37355
5.37487
5.34198
5.28863
5.21876
5.11622
533.348
523.588
4.1395
4.17595
4.20732
4.2341
4.25614
4.27269
4.28286
4.28598
4.28195
4.27132
4.25528
4.23561
4.21534
4.19933
4.19394
4.20617
4.24073
4.29632
4.36827
4.45259
4.54767
4.65746
4.78963
4.93828
5.08965
5.22436
5.32446
5.38035
5.39191
5.36614
5.31294
5.23552
5.1178
533.595
523.587
4.12647
4.15389
4.17714
4.19622
4.21105
4.22125
4.22641
4.22642
4.22172
4.21346
4.20319
4.19244
4.1825
4.17496
4.17286
4.18081
4.20544
4.2525
4.32125
4.40461
4.49628
4.59533
4.71084
4.84603
4.9992
5.15363
5.28131
5.36145
5.39114
5.37597
5.32652
5.24528
5.11416
533.68
523.59
4.12439
4.1487
4.1693
4.1864
4.20021
4.21054
4.21746
4.22147
4.22344
4.22422
4.22425
4.22347
4.2217
4.21924
4.2176
4.22067
4.23388
4.26384
4.31508
4.38642
4.47287
4.57029
4.67566
4.79138
4.92476
5.07522
5.2201
5.32669
5.37921
5.37598
5.32964
5.24334
5.10315
533.803
523.593
4.13056
4.16297
4.19647
4.23031
4.26254
4.29143
4.31621
4.33663
4.35266
4.36417
4.37103
4.37318
4.37116
4.36651
4.36223
4.36321
4.3747
4.4011
4.44329
4.498
4.56032
4.62661
4.69427
4.76503
4.85019
4.96471
5.10551
5.2394
5.32946
5.35574
5.3263
5.24826
5.11394
533.762
523.597
4.15752
4.2142
4.27103
4.3237
4.36893
4.40627
4.43592
4.45792
4.47286
4.48182
4.48578
4.48604
4.4849
4.48557
4.49154
4.50589
4.53062
4.56711
4.61547
4.67355
4.73662
4.79966
4.85645
4.90178
4.93909
4.98584
5.06395
5.17045
5.27084
5.3214
5.31221
5.24657
5.11746
533.759
523.598
4.16336
4.21924
4.26836
4.30972
4.34656
4.38274
4.41788
4.44848
4.47186
4.48806
4.49838
4.50406
4.50723
4.5116
4.52167
4.54123
4.57195
4.61363
4.66447
4.72228
4.78506
4.84818
4.90683
4.95592
4.99365
5.02637
5.07163
5.14261
5.22646
5.28222
5.2856
5.23135
5.10613
533.644
523.594
4.13564
4.1692
4.20119
4.23683
4.28076
4.33309
4.38879
4.44031
4.48122
4.5091
4.52495
4.53001
4.52593
4.51725
4.51175
4.51867
4.54568
4.59773
4.67477
4.76969
4.87105
4.96008
5.0262
5.06584
5.08115
5.0826
5.09173
5.13028
5.19699
5.25244
5.2626
5.21303
5.08191
533.503
523.594
4.12888
4.16398
4.20659
4.25924
4.32163
4.39138
4.46417
4.53281
4.58891
4.62654
4.64395
4.64132
4.61916
4.58029
4.53219
4.48634
4.45425
4.44659
4.47493
4.54946
4.67058
4.821
4.96592
5.07714
5.14158
5.16004
5.15036
5.14557
5.17055
5.20832
5.21926
5.17647
5.05182
533.304
523.601
4.16338
4.23177
4.30982
4.39655
4.49294
4.5992
4.70763
4.80349
4.87437
4.91584
4.9285
4.91276
4.86729
4.79219
4.69479
4.59319
4.51177
4.4694
4.4717
4.5179
4.61
4.74379
4.89673
5.03864
5.14474
5.20118
5.20975
5.19309
5.18521
5.19699
5.20077
5.16453
5.05574
533.1
523.607
4.18273
4.25745
4.33627
4.43001
4.55102
4.69587
4.84199
4.96485
5.05251
5.1057
5.12988
5.128
5.09809
5.03465
4.93329
4.79867
4.65268
4.53416
4.48173
4.51136
4.61405
4.76416
4.93138
5.08824
5.21282
5.28948
5.31146
5.28851
5.2502
5.22502
5.20639
5.16494
5.06514
532.952
523.6
4.14944
4.2054
4.28512
4.40329
4.55795
4.72447
4.8726
4.98495
5.05945
5.103
5.12472
5.13106
5.12395
5.10033
5.05174
4.96519
4.83223
4.6681
4.5221
4.45525
4.50079
4.64491
4.84153
5.0431
5.21581
5.33881
5.40082
5.40244
5.36325
5.31547
5.27152
5.21338
5.10787
532.87
523.601
4.17057
4.26062
4.38689
4.546
4.70986
4.84443
4.93307
4.9791
4.99458
4.99085
4.97392
4.94479
4.90156
4.84445
4.78109
4.71943
4.65573
4.58149
4.51049
4.48738
4.55177
4.70076
4.9
5.10665
5.28787
5.42276
5.49895
5.51257
5.47506
5.41228
5.34512
5.2661
5.14932
532.893
523.607
4.20517
4.32862
4.47914
4.63067
4.74876
4.82262
4.86691
4.89882
4.92341
4.93645
4.93131
4.90167
4.83975
4.74134
4.6214
4.51252
4.44538
4.42878
4.45688
4.53356
4.66264
4.83525
5.03206
5.22777
5.39963
5.5307
5.60909
5.62886
5.59587
5.52643
5.44175
5.33927
5.1946
532.981
523.608
4.22016
4.34484
4.47231
4.57921
4.66048
4.73504
4.81628
4.89621
4.95995
5.00029
5.01607
5.00503
4.96061
4.87426
4.74586
4.59851
4.48019
4.44064
4.49636
4.62632
4.79483
4.9801
5.17115
5.35304
5.50957
5.62737
5.69655
5.71173
5.67674
5.60145
5.50408
5.38195
5.20851
533.159
523.608
4.2
4.29329
4.38417
4.4756
4.57728
4.68926
4.79548
4.88049
4.94202
4.98621
5.01883
5.04125
5.04843
5.02719
4.95722
4.82447
4.64624
4.48521
4.43002
4.52867
4.74426
4.98508
5.20638
5.39939
5.56114
5.68429
5.76031
5.78325
5.75356
5.6781
5.57277
5.43357
5.23039
533.335
523.61
4.17462
4.25439
4.35127
4.46445
4.58119
4.68464
4.76707
4.83117
4.88157
4.92085
4.9515
4.97718
5.00108
5.02217
5.02986
5.00051
4.90136
4.71907
4.51074
4.40343
4.50458
4.77704
5.08311
5.3429
5.54117
5.68281
5.77049
5.80363
5.78275
5.71323
5.60894
5.46483
5.25017
533.588
523.612
4.21852
4.34185
4.47271
4.59256
4.68821
4.76326
4.82943
4.8924
4.94931
4.99529
5.02818
5.04822
5.05655
5.05486
5.04521
5.02638
4.98725
4.9023
4.74597
4.54744
4.438
4.55884
4.86249
5.19529
5.4663
5.65776
5.77726
5.83259
5.82589
5.7646
5.66265
5.51454
5.29038
533.763
523.609
4.2197
4.32547
4.41345
4.48238
4.54556
4.61754
4.69995
4.78348
4.85952
4.92576
4.98369
5.03454
5.07769
5.11013
5.12611
5.11824
5.08031
5.00656
4.88795
4.71598
4.52947
4.4619
4.63744
4.97178
5.30771
5.56454
5.72912
5.81362
5.82693
5.78016
5.68845
5.5475
5.32931
533.913
523.61
4.19032
4.26768
4.34025
4.4177
4.50368
4.59141
4.67131
4.73907
4.79598
4.8449
4.88851
4.93056
4.97587
5.02865
5.08868
5.14649
5.18198
5.16946
5.08573
4.91808
4.68457
4.46984
4.45134
4.70827
5.08259
5.4155
5.65512
5.79765
5.8474
5.82135
5.74056
5.60462
5.38739
533.985
523.61
4.18044
4.25594
4.33724
4.42474
4.51009
4.58832
4.66034
4.72917
4.79528
4.85537
4.90538
4.94474
4.97668
5.00803
5.05019
5.11428
5.19646
5.26928
5.29125
5.22024
5.01987
4.70547
4.4267
4.45306
4.81379
5.22783
5.53525
5.72812
5.82043
5.82801
5.7715
5.65223
5.44491
534.134
523.609
4.16171
4.2232
4.29024
4.36149
4.434
4.50858
4.58705
4.6682
4.74673
4.81554
4.87022
4.91108
4.94113
4.96589
4.99775
5.05706
5.15859
5.2904
5.41052
5.46613
5.40567
5.17952
4.78407
4.42105
4.4717
4.9257
5.38505
5.68624
5.83254
5.86606
5.82348
5.71195
5.50826
534.22
523.608
4.15681
4.21814
4.28617
4.36173
4.44554
4.53765
4.63528
4.7314
4.81596
4.88048
4.92306
4.94615
4.9512
4.94096
4.92879
4.94714
5.03648
5.20602
5.41411
5.59764
5.69998
5.66361
5.42707
4.98305
4.56831
4.64148
5.09793
5.5183
5.76587
5.86262
5.85757
5.77036
5.58577
534.357
523.609
4.17143
4.24546
4.32432
4.41229
4.51318
4.62568
4.74042
4.84237
4.91865
4.96648
4.99134
4.99719
4.9874
4.96963
4.95348
4.95458
5.00161
5.12151
5.3111
5.53407
5.73719
5.85835
5.82181
5.54646
5.03688
4.65519
4.86257
5.35286
5.71155
5.87443
5.9031
5.83847
5.67229
534.436
523.613
4.18632
4.27182
4.368
4.48323
4.61689
4.75535
4.87675
4.96334
5.01408
5.03837
5.04138
5.02685
5.00741
5.00151
5.02119
5.06683
5.13359
5.22089
5.33494
5.48196
5.65447
5.82132
5.926
5.88417
5.60245
5.12055
4.87118
5.1576
5.58174
5.84057
5.9268
5.89529
5.74892
534.547
523.616
4.19474
4.2933
4.4128
4.55367
4.70108
4.83329
4.93297
4.99704
5.0334
5.04842
5.04473
5.0262
5.00156
4.98817
5.00866
5.0766
5.18906
5.33247
5.49259
5.65929
5.82427
5.97326
6.07974
6.09875
5.95853
5.60357
5.19547
5.16213
5.48476
5.78384
5.92523
5.94153
5.83816
534.604
523.618
4.22128
4.35572
4.51347
4.67881
4.82932
4.94902
5.03112
5.07878
5.09928
5.09919
5.08427
5.05778
5.01822
4.97172
4.94675
4.983
5.10076
5.2856
5.50276
5.72255
5.92875
6.11035
6.24696
6.30279
6.22043
5.93325
5.48454
5.22808
5.43683
5.7762
5.96879
6.01611
5.91503
534.743
523.649
4.33667
4.54519
4.74937
4.92242
5.04669
5.11919
5.14681
5.14197
5.11419
5.07829
5.05105
5.03983
5.03961
5.04845
5.08076
5.15827
5.29052
5.4669
5.66733
5.87494
6.07818
6.26392
6.41309
6.49705
6.47345
6.28446
5.91069
5.54034
5.50534
5.74169
5.9406
6.02281
5.96972
534.726
523.737
4.50118
4.74205
4.92621
5.03641
5.08032
5.08103
5.05325
5.0069
4.95829
4.93419
4.95921
5.03827
5.15415
5.28206
5.41025
5.54191
5.68408
5.84032
6.00893
6.18381
6.35599
6.51286
6.63707
6.7065
6.69267
6.55776
6.26888
5.89922
5.70373
5.79921
5.97256
6.08242
6.06597
534.833
523.861
4.62584
4.84025
4.98141
5.07049
5.12347
5.14922
5.15225
5.13865
5.12193
5.11944
5.14668
5.20839
5.29722
5.40132
5.51341
5.63275
5.76181
5.90383
6.06058
6.23146
6.41026
6.58249
6.72625
6.81386
6.80623
6.65424
6.3408
5.97704
5.81307
5.92369
6.08496
6.16686
6.02767
535.03
524.005
4.7262
4.90726
5.03643
5.13458
5.18957
5.20216
5.18085
5.14758
5.13642
5.17683
5.27145
5.3958
5.52052
5.63448
5.74395
5.85626
5.97117
6.0845
6.19408
6.30228
6.41429
6.53238
6.64297
6.71298
6.69933
6.57389
6.3595
6.16814
6.11893
6.17406
6.20652
6.10172
5.72898
535.321
523.878
4.49117
4.5975
4.74571
4.9213
5.05532
5.13504
5.18158
5.2125
5.25015
5.31848
5.42458
5.55031
5.6661
5.75788
5.83589
5.92056
6.03051
6.17005
6.32209
6.45804
6.55532
6.60354
6.60431
6.56762
6.5021
6.40906
6.30988
6.24196
6.21772
6.19296
6.09379
5.83225
5.36209
535.51
523.672
4.20589
4.36987
4.60349
4.82345
4.99582
5.10925
5.15543
5.14849
5.11476
5.09905
5.14559
5.27729
5.48031
5.7037
5.88771
5.99855
6.04513
6.05077
6.0514
6.0983
6.21475
6.36676
6.49569
6.56478
6.56398
6.5091
6.42653
6.34002
6.25397
6.14369
5.95587
5.63218
5.17263
535.69
523.684
4.23249
4.32302
4.42592
4.56179
4.73894
4.92741
5.08339
5.17427
5.18744
5.12593
5.01479
4.91866
4.91085
5.01541
5.21485
5.48074
5.77552
6.0439
6.22949
6.31458
6.32339
6.29328
6.26242
6.25955
6.28313
6.30239
6.2899
6.23436
6.13331
5.9838
5.7733
5.47667
5.09021
535.742
523.688
4.30479
4.51259
4.75942
4.98662
5.13884
5.19743
5.19169
5.15066
5.10053
5.07334
5.08158
5.09868
5.09002
5.05
4.99898
4.97707
5.02925
5.18018
5.41311
5.68278
5.93976
6.13884
6.24762
6.26626
6.2309
6.1797
6.12671
6.06237
5.9694
5.82703
5.6136
5.33199
5.01934
535.739
523.685
4.41937
4.68636
4.90779
5.04228
5.09969
5.11617
5.11474
5.10096
5.07569
5.04188
5.00662
4.97951
4.96709
4.96725
4.97018
4.96502
4.9503
4.94229
4.97434
5.07383
5.24933
5.48834
5.75446
5.99065
6.13719
6.16912
6.12514
6.04863
5.95115
5.82151
5.63357
5.37061
5.08999
535.623
523.673
4.47412
4.70912
4.83877
4.89627
4.93035
4.95648
4.97204
4.97535
4.96874
4.95876
4.95154
4.9503
4.9553
4.96612
4.98195
4.9992
5.00995
5.00498
4.98152
4.9503
4.93286
4.96228
5.07545
5.29296
5.59154
5.88288
6.04825
6.07591
6.01836
5.90501
5.73942
5.51011
5.25211
535.457
523.639
4.34135
4.50504
4.64047
4.78232
4.92668
5.04658
5.1295
5.18221
5.209
5.20919
5.18639
5.14916
5.10476
5.05792
5.01613
4.99281
4.99888
5.02926
5.06475
5.08646
5.07853
5.03379
4.96558
4.92011
4.97656
5.19846
5.53193
5.80198
5.92008
5.91408
5.81794
5.64055
5.41281
535.439
523.645
4.2781
4.45382
4.64017
4.80711
4.92779
4.99563
5.01956
5.01099
4.97525
4.92584
4.88811
4.88471
4.9146
4.95546
4.98403
4.99227
4.99505
5.0174
5.06959
5.13139
5.1799
5.19826
5.16954
5.08334
4.96907
4.92958
5.08777
5.4024
5.66968
5.79715
5.80407
5.7149
5.5499
535.35
523.713
4.47899
4.75842
4.9752
5.10087
5.14415
5.14143
5.10795
5.04677
4.96898
4.89476
4.852
4.8577
4.90071
4.96063
5.02586
5.08978
5.1506
5.21057
5.27021
5.32534
5.36889
5.39043
5.37274
5.29173
5.13405
4.94595
4.87865
5.08369
5.41606
5.64751
5.74057
5.73216
5.63388
535.344
523.718
4.53277
4.75343
4.85849
4.89824
4.91828
4.93152
4.94428
4.96352
4.98887
5.01466
5.03777
5.06249
5.09618
5.14147
5.19597
5.25676
5.32188
5.38979
5.45872
5.5253
5.58384
5.62519
5.6344
5.58731
5.45254
5.21759
4.96102
4.91252
5.18529
5.4984
5.66511
5.71606
5.65279
535.099
523.688
4.39716
4.59507
4.76275
4.89305
4.97391
5.00841
5.00847
4.98608
4.95909
4.94463
4.94785
4.96309
4.9872
5.02501
5.08311
5.16182
5.25479
5.35505
5.45765
5.55932
5.65555
5.73865
5.79592
5.80617
5.73515
5.54096
5.2232
4.92227
4.94232
5.26465
5.53452
5.67242
5.65984
534.945
523.784
4.56422
4.7933
4.9251
4.97186
4.96749
4.93604
4.89075
4.8506
4.83577
4.85585
4.90554
4.9713
5.04263
5.11666
5.19479
5.27863
5.36837
5.46374
5.56482
5.67085
5.77902
5.88328
5.9732
6.03203
6.03355
5.93766
5.69814
5.33321
5.04656
5.09501
5.32999
5.53611
5.62627
534.59
523.759
4.48673
4.6323
4.72614
4.80668
4.87012
4.90554
4.91448
4.90508
4.89276
4.89835
4.93331
4.99528
5.07394
5.15845
5.24389
5.32994
5.41901
5.5133
5.61441
5.72207
5.83384
5.94482
6.04628
6.12404
6.15725
6.11761
5.97156
5.70349
5.40023
5.26848
5.37671
5.55317
5.65871
534.546
523.7
4.38733
4.57641
4.73527
4.84955
4.91806
4.94399
4.93027
4.88537
4.82478
4.77501
4.76124
4.79711
4.87934
4.99224
5.1168
5.23913
5.35398
5.46365
5.57519
5.6951
5.8265
5.96708
6.10668
6.22805
6.3074
6.31157
6.19713
5.93591
5.595
5.3675
5.39472
5.54922
5.65402
534.498
523.705
4.4031
4.5375
4.61391
4.68886
4.78692
4.88934
4.96574
4.99852
4.98516
4.93016
4.85316
4.7917
4.78105
4.83824
4.95764
5.11325
5.2738
5.41913
5.54828
5.66853
5.78545
5.90138
6.01561
6.12584
6.22734
6.29956
6.2906
6.14099
5.86325
5.62376
5.58518
5.65426
5.66112
534.691
523.659
4.22488
4.30565
4.40427
4.52948
4.66646
4.79858
4.91392
5.00274
5.05597
5.06739
5.02721
4.93337
4.81124
4.70842
4.68618
4.78276
4.97445
5.18965
5.37557
5.53643
5.70483
5.89534
6.08122
6.21545
6.26522
6.22988
6.13848
6.00325
5.83655
5.71777
5.69579
5.69053
5.55741
534.837
523.663
4.16659
4.22112
4.30408
4.41577
4.54808
4.68488
4.80903
4.91232
4.99868
5.07652
5.14651
5.18664
5.1553
5.02061
4.80877
4.63562
4.65693
4.90582
5.2343
5.47303
5.59644
5.66769
5.77703
5.9719
6.17639
6.27564
6.23414
6.09781
5.94161
5.82758
5.74847
5.63275
5.37825
534.868
523.69
4.25764
4.39442
4.55867
4.7295
4.88212
4.99623
5.06279
5.08763
5.08499
5.06967
5.06766
5.10915
5.19251
5.24935
5.18129
4.93992
4.63806
4.53459
4.76252
5.19539
5.61058
5.86237
5.9391
5.92166
5.92071
5.97829
6.03043
6.02117
5.95981
5.87453
5.75456
5.55187
5.23537
535.111
523.694
4.26848
4.41511
4.58237
4.74253
4.87356
4.96721
5.03166
5.08205
5.13145
5.17807
5.20279
5.20273
5.22163
5.30776
5.4227
5.47116
5.39555
5.18521
4.92975
4.81054
4.93865
5.26622
5.64655
5.93859
6.07756
6.08897
6.03683
5.96579
5.88468
5.78519
5.64307
5.42571
5.12845
534.931
523.752
4.39746
4.61413
4.81552
4.96105
5.0386
5.05982
5.05132
5.04008
5.06129
5.13945
5.26631
5.39585
5.48307
5.52626
5.54888
5.5678
5.57901
5.55589
5.46275
5.28826
5.08327
4.95671
5.00273
5.22789
5.53584
5.80219
5.94575
5.97402
5.93312
5.84538
5.70155
5.47944
5.18588
535.017
523.784
4.49075
4.70572
4.84707
4.91242
4.93572
4.95035
4.97667
5.02712
5.10283
5.19746
5.30423
5.41764
5.53173
5.63766
5.72661
5.79374
5.83711
5.85296
5.83191
5.75826
5.61756
5.4151
5.19674
5.05307
5.07545
5.27017
5.52871
5.71099
5.78157
5.77129
5.68784
5.51268
5.26774
534.882
523.751
4.42774
4.59022
4.71248
4.8094
4.87803
4.90875
4.90388
4.87822
4.86249
4.89876
5.00938
5.17665
5.36185
5.53424
5.68099
5.80128
5.89739
5.96959
6.01455
6.02493
5.9892
5.89238
5.72246
5.49035
5.25331
5.12892
5.21291
5.44453
5.6422
5.73175
5.72739
5.62758
5.43602
534.747
523.753
4.38493
4.54693
4.69327
4.80818
4.88159
4.9143
4.91375
4.88822
4.84947
4.81948
4.83329
4.91698
5.06554
5.25321
5.45302
5.64415
5.81329
5.95383
6.0635
6.14009
6.17692
6.16175
6.07503
5.89495
5.61586
5.28722
5.05236
5.07469
5.30294
5.51993
5.62757
5.61413
5.46325
535.09
523.793
4.44375
4.6025
4.71529
4.78453
4.82294
4.84091
4.84823
4.85779
4.88353
4.93504
5.01508
5.12388
5.25893
5.41358
5.57794
5.743
5.90101
6.04601
6.17329
6.27871
6.35525
6.39103
6.36818
6.26351
6.05346
5.73595
5.37819
5.15631
5.21867
5.42097
5.56279
5.59331
5.48398
534.979
523.733
4.32088
4.43091
4.54485
4.66477
4.77071
4.83728
4.84935
4.80719
4.72478
4.6317
4.57216
4.58861
4.69419
4.8785
5.11349
5.36597
5.6107
5.8359
6.04113
6.22552
6.38277
6.50076
6.56776
6.5695
6.48187
6.27058
5.92404
5.53248
5.30189
5.34024
5.48329
5.57344
5.53275
535.014
523.717
4.23834
4.32121
4.41792
4.52165
4.63452
4.75638
4.87125
4.94849
4.95764
4.88539
4.74649
4.58327
4.46243
4.45589
4.59465
4.84819
5.14761
5.43365
5.68409
5.90585
6.11067
6.29767
6.45375
6.55526
6.56817
6.44191
6.13649
5.72847
5.45682
5.44474
5.52852
5.55351
5.39364
535.054
523.712
4.26363
4.36237
4.45129
4.53173
4.61495
4.7103
4.82001
4.93528
5.03353
5.08176
5.04987
4.92733
4.73034
4.51116
4.3764
4.42398
4.64568
4.95217
5.26193
5.53152
5.73681
5.86477
5.9251
5.92929
5.89889
5.84671
5.77069
5.68576
5.6298
5.61503
5.57894
5.43425
5.11162
535.001
523.669
4.19436
4.25949
4.31834
4.37178
4.42394
4.48045
4.54759
4.63149
4.73643
4.85993
4.98674
5.08606
5.11173
5.01092
4.76518
4.44792
4.20462
4.12163
4.1925
4.42537
4.81305
5.24774
5.61224
5.85015
5.91639
5.82873
5.64355
5.45501
5.34676
5.29748
5.23025
5.07809
4.80657
535.179
523.656
4.16083
4.21801
4.29119
4.38513
4.4955
4.60578
4.69369
4.74197
4.74665
4.72167
4.69793
4.72244
4.85186
5.09126
5.33633
5.46377