/*--------------------------------*- C++ -*----------------------------------*\
| =========                 |                                                 |
| \\      /  F ield         | OpenFOAM: The Open Source CFD Toolbox           |
|  \\    /   O peration     | Version:  v2006                                 |
|   \\  /    A nd           | Website:  www.openfoam.com                      |
|    \\/     M anipulation  |                                                 |
\*---------------------------------------------------------------------------*/
FoamFile
{
    version     2.0;
    format      ascii;
    class       volScalarField;
    location    "23";
    object      T;
}
// * * * * * * * * * * * * * * * * * * * * * * * * * * * * * * * * * * * * * //

dimensions      [0 0 0 1 0 0 0];


internalField   nonuniform List<scalar> 
78750
(
298.969
298.113
298.078
298.055
298.039
298.027
298.019
298.014
298.009
298.005
298.001
297.998
297.994
297.991
297.987
297.984
297.981
297.977
297.974
297.97
297.967
297.963
297.96
297.956
297.952
297.948
297.944
297.94
297.936
297.931
297.926
297.945
298.082
298.52
299.331
299.51
298.791
298.414
298.245
298.168
298.13
298.112
298.103
298.099
298.094
298.09
298.086
298.081
298.075
298.07
298.064
298.058
298.051
298.044
298.037
298.029
298.021
298.012
298.003
297.993
297.983
297.973
297.962
297.953
297.949
297.965
298.048
298.28
298.755
299.554
299.638
299.037
298.637
298.391
298.261
298.21
298.198
298.2
298.203
298.207
298.209
298.211
298.212
298.211
298.21
298.208
298.205
298.2
298.194
298.187
298.178
298.168
298.157
298.146
298.134
298.125
298.12
298.122
298.14
298.188
298.288
298.475
298.772
299.265
300.094
299.653
299.094
298.751
298.526
298.378
298.295
298.258
298.245
298.244
298.248
298.253
298.26
298.267
298.275
298.282
298.289
298.296
298.301
298.305
298.307
298.308
298.305
298.3
298.291
298.279
298.266
298.253
298.246
298.252
298.292
298.396
298.609
298.944
299.469
300.309
299.727
299.239
298.923
298.708
298.541
298.422
298.345
298.3
298.277
298.27
298.272
298.281
298.294
298.31
298.327
298.344
298.36
298.375
298.388
298.398
298.405
298.409
298.409
298.405
298.397
298.386
298.376
298.375
298.399
298.472
298.627
298.888
299.257
299.812
300.67
299.743
299.277
298.978
298.773
298.604
298.469
298.375
298.315
298.281
298.266
298.263
298.269
298.283
298.302
298.325
298.351
298.379
298.406
298.431
298.452
298.47
298.483
298.491
298.496
298.495
298.491
298.482
298.474
298.479
298.525
298.654
298.913
299.304
299.882
300.744
299.772
299.348
299.051
298.847
298.68
298.539
298.43
298.354
298.306
298.282
298.277
298.288
298.311
298.343
298.381
298.422
298.46
298.494
298.522
298.543
298.559
298.571
298.579
298.584
298.587
298.589
298.59
298.595
298.612
298.664
298.795
299.057
299.459
300.061
300.946
299.784
299.377
299.081
298.876
298.709
298.564
298.45
298.371
298.325
298.307
298.312
298.334
298.368
298.41
298.455
298.497
298.534
298.564
298.588
298.606
298.619
298.629
298.636
298.641
298.644
298.649
298.658
298.678
298.719
298.797
298.948
299.225
299.652
300.29
301.215
299.802
299.423
299.131
298.925
298.762
298.621
298.506
298.425
298.378
298.362
298.373
298.402
298.444
298.491
298.536
298.576
298.609
298.635
298.654
298.67
298.681
298.69
298.695
298.699
298.701
298.706
298.718
298.751
298.823
298.957
299.18
299.527
300.005
300.677
301.612
299.814
299.457
299.174
298.974
298.815
298.678
298.566
298.489
298.448
298.442
298.462
298.499
298.542
298.584
298.622
298.654
298.679
298.698
298.713
298.725
298.735
298.741
298.745
298.747
298.747
298.749
298.757
298.785
298.858
299.011
299.281
299.694
300.224
300.914
301.824
299.825
299.488
299.213
299.017
298.864
298.731
298.625
298.555
298.525
298.528
298.553
298.589
298.626
298.66
298.69
298.714
298.733
298.749
298.762
298.773
298.782
298.788
298.792
298.794
298.795
298.795
298.8
298.822
298.885
299.032
299.311
299.75
300.299
300.984
301.866
299.831
299.504
299.235
299.043
298.893
298.765
298.669
298.615
298.6
298.612
298.638
298.669
298.699
298.726
298.749
298.767
298.783
298.796
298.808
298.818
298.826
298.833
298.837
298.84
298.842
298.843
298.846
298.86
298.907
299.026
299.272
299.687
300.226
300.902
301.775
299.839
299.526
299.265
299.075
298.927
298.803
298.719
298.677
298.67
298.682
298.705
298.729
298.753
298.774
298.792
298.808
298.821
298.834
298.845
298.855
298.864
298.872
298.878
298.884
298.889
298.894
298.9
298.917
298.962
299.07
299.295
299.683
300.193
300.852
301.735
299.842
299.534
299.28
299.093
298.945
298.828
298.757
298.726
298.723
298.736
298.756
298.777
298.796
298.814
298.83
298.844
298.856
298.867
298.879
298.889
298.9
298.91
298.92
298.93
298.941
298.952
298.966
298.99
299.041
299.151
299.371
299.743
300.228
300.872
301.772
299.846
299.545
299.296
299.111
298.965
298.855
298.791
298.766
298.765
298.777
298.794
298.811
298.828
298.843
298.857
298.869
298.881
298.892
298.904
298.916
298.929
298.942
298.957
298.974
298.995
299.02
299.051
299.095
299.168
299.301
299.537
299.907
300.378
301.018
301.934
299.857
299.574
299.335
299.16
299.021
298.913
298.847
298.817
298.81
298.816
298.828
298.841
298.855
298.868
298.879
298.89
298.901
298.913
298.925
298.938
298.951
298.967
298.985
299.009
299.039
299.078
299.129
299.199
299.302
299.464
299.721
300.096
300.569
301.218
302.143
299.872
299.617
299.398
299.236
299.109
299.005
298.933
298.892
298.873
298.867
298.869
298.875
298.882
298.891
298.9
298.91
298.92
298.931
298.943
298.956
298.971
298.987
299.008
299.035
299.072
299.121
299.19
299.285
299.42
299.614
299.898
300.286
300.769
301.431
302.357
299.884
299.654
299.454
299.305
299.187
299.088
299.013
298.962
298.931
298.914
298.906
298.905
298.908
298.913
298.92
298.929
298.938
298.948
298.96
298.974
298.988
299.005
299.027
299.055
299.093
299.146
299.223
299.333
299.49
299.713
300.023
300.431
300.931
301.605
302.53
299.893
299.681
299.496
299.356
299.244
299.148
299.07
299.013
298.974
298.949
298.936
298.931
298.931
298.934
298.939
298.946
298.955
298.965
298.977
298.99
299.006
299.024
299.047
299.076
299.115
299.169
299.248
299.365
299.535
299.779
300.115
300.548
301.064
301.747
302.668
299.899
299.698
299.523
299.388
299.278
299.182
299.102
299.042
299.001
298.975
298.96
298.953
298.951
298.952
298.956
298.962
298.969
298.978
298.99
299.004
299.021
299.041
299.066
299.097
299.138
299.192
299.269
299.384
299.557
299.81
300.164
300.619
301.154
301.844
302.761
299.904
299.711
299.542
299.411
299.303
299.207
299.127
299.067
299.026
298.999
298.983
298.975
298.97
298.969
298.97
298.973
298.979
298.986
298.998
299.012
299.031
299.054
299.084
299.121
299.165
299.222
299.301
299.415
299.587
299.843
300.206
300.675
301.219
301.911
302.827
299.908
299.722
299.56
299.432
299.326
299.232
299.153
299.094
299.053
299.025
299.008
298.996
298.988
298.983
298.98
298.98
298.982
298.988
298.998
299.013
299.033
299.061
299.098
299.142
299.194
299.258
299.339
299.453
299.62
299.871
300.234
300.711
301.262
301.96
302.88
299.912
299.735
299.579
299.456
299.353
299.261
299.185
299.126
299.085
299.056
299.035
299.019
299.007
298.997
298.989
298.985
298.984
298.988
298.996
299.01
299.031
299.062
299.105
299.159
299.226
299.304
299.399
299.521
299.692
299.942
300.302
300.775
301.325
302.027
302.955
299.919
299.753
299.605
299.487
299.39
299.303
299.229
299.17
299.127
299.094
299.069
299.048
299.03
299.015
299.003
298.996
298.993
298.996
299.002
299.014
299.032
299.06
299.102
299.16
299.237
299.333
299.448
299.589
299.773
300.028
300.387
300.855
301.407
302.119
303.062
299.926
299.773
299.636
299.525
299.434
299.354
299.282
299.223
299.176
299.138
299.106
299.079
299.056
299.037
299.024
299.017
299.015
299.019
299.027
299.039
299.054
299.077
299.11
299.159
299.232
299.336
299.473
299.647
299.864
300.145
300.515
300.983
301.536
302.256
303.206
299.932
299.792
299.665
299.562
299.478
299.402
299.333
299.272
299.219
299.174
299.135
299.101
299.075
299.056
299.044
299.04
299.043
299.051
299.063
299.078
299.098
299.123
299.152
299.188
299.239
299.319
299.442
299.619
299.857
300.17
300.57
301.057
301.621
302.348
303.299
299.936
299.804
299.685
299.587
299.504
299.429
299.357
299.29
299.231
299.18
299.138
299.105
299.083
299.069
299.063
299.064
299.07
299.082
299.098
299.12
299.15
299.19
299.235
299.281
299.332
299.402
299.508
299.669
299.902
300.22
300.637
301.141
301.718
302.455
303.403
299.936
299.804
299.686
299.587
299.502
299.423
299.347
299.278
299.22
299.174
299.14
299.117
299.103
299.095
299.091
299.09
299.094
299.105
299.123
299.152
299.196
299.257
299.328
299.398
299.461
299.531
299.628
299.78
300.009
300.332
300.755
301.254
301.827
302.562
303.494
299.938
299.809
299.691
299.593
299.509
299.432
299.359
299.295
299.244
299.206
299.179
299.16
299.145
299.133
299.121
299.112
299.108
299.112
299.126
299.153
299.201
299.28
299.386
299.507
299.627
299.741
299.862
300.016
300.236
300.547
300.955
301.428
301.986
302.72
303.637
299.944
299.826
299.715
299.622
299.543
299.473
299.408
299.351
299.305
299.269
299.241
299.219
299.2
299.181
299.161
299.144
299.13
299.123
299.125
299.136
299.163
299.218
299.313
299.45
299.615
299.793
299.979
300.184
300.433
300.747
301.135
301.576
302.111
302.834
303.738
299.95
299.844
299.743
299.657
299.584
299.52
299.462
299.41
299.365
299.327
299.294
299.266
299.239
299.213
299.188
299.166
299.152
299.146
299.148
299.16
299.185
299.232
299.31
299.432
299.598
299.794
300.007
300.237
300.501
300.823
301.211
301.646
302.17
302.88
303.772
299.956
299.862
299.771
299.692
299.624
299.563
299.509
299.46
299.416
299.377
299.344
299.312
299.279
299.245
299.212
299.184
299.163
299.149
299.143
299.143
299.153
299.178
299.232
299.333
299.497
299.727
300.004
300.304
300.618
300.955
301.331
301.746
302.256
302.958
303.845
299.962
299.878
299.796
299.724
299.661
299.606
299.559
299.516
299.474
299.431
299.385
299.336
299.287
299.243
299.208
299.185
299.173
299.169
299.17
299.175
299.182
299.19
299.202
299.228
299.29
299.423
299.655
299.982
300.372
300.794
301.236
301.689
302.209
302.906
303.797
299.964
299.886
299.811
299.746
299.689
299.634
299.574
299.506
299.432
299.358
299.29
299.234
299.194
299.171
299.162
299.164
299.173
299.184
299.198
299.213
299.229
299.246
299.265
299.291
299.329
299.397
299.528
299.761
300.111
300.556
301.058
301.575
302.133
302.842
303.741
299.962
299.88
299.797
299.718
299.639
299.55
299.455
299.365
299.288
299.233
299.2
299.187
299.189
299.198
299.21
299.222
299.234
299.246
299.257
299.269
299.28
299.294
299.31
299.332
299.365
299.42
299.517
299.689
299.973
300.385
300.901
301.467
302.064
302.792
303.708
299.954
299.855
299.756
299.661
299.561
299.457
299.365
299.297
299.255
299.235
299.229
299.23
299.234
299.239
299.244
299.25
299.257
299.266
299.276
299.289
299.303
299.321
299.342
299.37
299.408
299.463
299.551
299.696
299.936
300.306
300.806
301.389
302.011
302.758
303.696
299.946
299.832
299.723
299.62
299.517
299.422
299.348
299.301
299.275
299.263
299.258
299.258
299.26
299.264
299.269
299.277
299.287
299.298
299.312
299.327
299.345
299.366
299.393
299.428
299.475
299.541
299.636
299.782
300.011
300.358
300.839
301.413
302.04
302.801
303.749
299.944
299.825
299.715
299.618
299.527
299.445
299.385
299.345
299.321
299.306
299.298
299.293
299.291
299.291
299.294
299.299
299.307
299.317
299.33
299.346
299.366
299.39
299.423
299.466
299.524
299.605
299.718
299.878
300.112
300.451
300.915
301.47
302.09
302.859
303.816
299.947
299.837
299.735
299.648
299.569
299.499
299.443
299.401
299.37
299.347
299.331
299.321
299.315
299.314
299.315
299.32
299.327
299.338
299.351
299.368
299.389
299.415
299.45
299.497
299.563
299.655
299.785
299.967
300.22
300.568
301.025
301.564
302.178
302.954
303.916
299.951
299.849
299.756
299.676
299.604
299.538
299.483
299.438
299.404
299.379
299.361
299.349
299.342
299.34
299.341
299.345
299.352
299.362
299.376
299.393
299.414
299.441
299.477
299.526
299.594
299.689
299.824
300.017
300.285
300.647
301.111
301.646
302.254
303.029
303.986
299.955
299.86
299.773
299.697
299.629
299.567
299.513
299.47
299.436
299.41
299.39
299.377
299.369
299.365
299.364
299.367
299.374
299.384
299.397
299.415
299.436
299.465
299.503
299.554
299.623
299.719
299.855
300.05
300.322
300.691
301.159
301.693
302.302
303.081
304.044
299.96
299.873
299.793
299.722
299.659
299.603
299.553
299.511
299.477
299.45
299.429
299.414
299.403
299.397
299.396
299.398
299.404
299.413
299.426
299.443
299.464
299.493
299.531
299.582
299.651
299.746
299.879
300.07
300.34
300.712
301.19
301.736
302.353
303.137
304.104
299.964
299.886
299.813
299.748
299.689
299.636
299.589
299.547
299.512
299.484
299.461
299.444
299.432
299.426
299.423
299.426
299.432
299.442
299.456
299.474
299.496
299.525
299.565
299.618
299.69
299.786
299.919
300.106
300.371
300.737
301.214
301.761
302.385
303.18
304.16
299.968
299.898
299.832
299.771
299.716
299.666
299.621
299.581
299.546
299.518
299.496
299.479
299.467
299.461
299.459
299.463
299.47
299.481
299.496
299.514
299.537
299.567
299.608
299.662
299.735
299.832
299.966
300.153
300.417
300.781
301.258
301.811
302.445
303.256
304.252
299.971
299.908
299.846
299.79
299.738
299.691
299.649
299.612
299.58
299.553
299.531
299.514
299.503
299.498
299.498
299.504
299.513
299.526
299.542
299.562
299.586
299.618
299.663
299.722
299.8
299.901
300.037
300.223
300.485
300.848
301.324
301.874
302.512
303.339
304.349
299.975
299.917
299.861
299.808
299.759
299.716
299.677
299.643
299.613
299.588
299.568
299.554
299.545
299.543
299.547
299.556
299.568
299.583
299.6
299.62
299.644
299.678
299.726
299.792
299.881
300
300.154
300.355
300.627
300.994
301.467
302.011
302.652
303.495
304.512
299.978
299.926
299.875
299.827
299.782
299.742
299.707
299.677
299.651
299.63
299.615
299.605
299.601
299.603
299.61
299.621
299.635
299.649
299.666
299.685
299.71
299.745
299.792
299.859
299.95
300.073
300.239
300.458
300.747
301.125
301.599
302.131
302.766
303.612
304.619
299.983
299.942
299.899
299.858
299.819
299.785
299.755
299.73
299.709
299.694
299.683
299.678
299.677
299.68
299.686
299.694
299.703
299.714
299.727
299.746
299.774
299.817
299.879
299.964
300.074
300.214
300.395
300.63
300.936
301.325
301.795
302.314
302.943
303.783
304.769
299.99
299.963
299.932
299.901
299.87
299.843
299.818
299.795
299.776
299.76
299.747
299.738
299.732
299.73
299.731
299.734
299.739
299.746
299.755
299.769
299.792
299.832
299.896
299.991
300.123
300.291
300.497
300.752
301.072
301.469
301.936
302.443
303.056
303.875
304.83
299.993
299.969
299.939
299.904
299.863
299.819
299.774
299.73
299.691
299.66
299.637
299.623
299.62
299.626
299.64
299.661
299.686
299.712
299.739
299.766
299.798
299.841
299.906
300.006
300.151
300.348
300.594
300.887
301.232
301.637
302.092
302.582
303.18
303.975
304.904
299.977
299.918
299.841
299.748
299.647
299.548
299.464
299.399
299.356
299.333
299.328
299.34
299.367
299.407
299.457
299.514
299.573
299.629
299.679
299.723
299.764
299.807
299.864
299.948
300.078
300.269
300.528
300.85
301.227
301.654
302.116
302.6
303.182
303.956
304.863
299.934
299.788
299.631
299.479
299.353
299.269
299.227
299.215
299.222
299.24
299.267
299.303
299.349
299.404
299.465
299.53
299.593
299.653
299.706
299.755
299.802
299.852
299.912
299.992
300.107
300.277
300.519
300.842
301.236
301.684
302.157
302.641
303.217
303.973
304.859
299.916
299.75
299.604
299.498
299.441
299.419
299.407
299.389
299.365
299.343
299.327
299.321
299.33
299.356
299.399
299.457
299.525
299.596
299.665
299.729
299.788
299.847
299.915
300
300.116
300.278
300.504
300.809
301.198
301.653
302.141
302.632
303.203
303.943
304.806
299.953
299.857
299.774
299.706
299.647
299.587
299.519
299.447
299.381
299.328
299.288
299.261
299.243
299.239
299.253
299.289
299.351
299.438
299.544
299.659
299.77
299.871
299.964
300.06
300.177
300.336
300.556
300.853
301.233
301.682
302.164
302.645
303.201
303.915
304.752
299.972
299.906
299.833
299.749
299.656
299.559
299.466
299.386
299.322
299.276
299.246
299.226
299.214
299.204
299.193
299.182
299.177
299.188
299.233
299.323
299.458
299.62
299.792
299.959
300.126
300.31
300.535
300.827
301.197
301.641
302.119
302.594
303.132
303.824
304.645
299.947
299.829
299.701
299.57
299.449
299.347
299.268
299.21
299.171
299.146
299.134
299.133
299.141
299.16
299.189
299.224
299.259
299.29
299.316
299.349
299.408
299.507
299.646
299.813
299.999
300.206
300.446
300.739
301.101
301.533
302.005
302.472
302.999
303.682
304.508
299.932
299.793
299.663
299.552
299.461
299.384
299.314
299.251
299.198
299.157
299.129
299.111
299.102
299.102
299.113
299.139
299.18
299.234
299.298
299.368
299.445
299.537
299.65
299.789
299.954
300.147
300.378
300.662
301.011
301.43
301.893
302.356
302.879
303.566
304.408
299.954
299.857
299.756
299.651
299.54
299.429
299.329
299.25
299.195
299.161
299.141
299.128
299.119
299.113
299.11
299.112
299.122
299.144
299.183
299.243
299.325
299.431
299.559
299.707
299.875
300.065
300.288
300.558
300.891
301.294
301.749
302.211
302.74
303.451
304.333
299.948
299.835
299.712
299.584
299.463
299.367
299.306
299.277
299.268
299.268
299.27
299.271
299.272
299.274
299.279
299.286
299.295
299.305
299.319
299.347
299.399
299.482
299.597
299.738
299.9
300.084
300.298
300.555
300.871
301.256
301.693
302.147
302.682
303.416
304.329
299.936
299.8
299.664
299.54
299.447
299.392
299.364
299.347
299.33
299.312
299.294
299.279
299.271
299.271
299.284
299.31
299.343
299.378
299.412
299.451
299.506
299.586
299.693
299.825
299.978
300.155
300.361
300.609
300.912
301.278
301.695
302.139
302.683
303.445
304.389
299.935
299.801
299.678
299.578
299.51
299.466
299.429
299.393
299.359
299.331
299.311
299.296
299.289
299.289
299.301
299.331
299.378
299.439
299.505
299.57
299.64
299.724
299.829
299.957
300.106
300.28
300.485
300.731
301.028
301.383
301.786
302.225
302.779
303.561
304.521
299.944
299.833
299.735
299.654
299.586
299.524
299.464
299.411
299.369
299.34
299.32
299.304
299.291
299.279
299.27
299.272
299.297
299.353
299.441
299.552
299.671
299.79
299.914
300.049
300.201
300.377
300.583
300.827
301.121
301.468
301.86
302.296
302.857
303.656
304.636
299.962
299.879
299.795
299.71
299.625
299.546
299.481
299.434
299.402
299.383
299.372
299.367
299.364
299.359
299.35
299.334
299.317
299.312
299.343
299.424
299.555
299.72
299.896
300.071
300.249
300.44
300.655
300.906
301.204
301.553
301.947
302.389
302.963
303.779
304.77
299.952
299.845
299.733
299.625
299.535
299.472
299.434
299.409
299.389
299.372
299.359
299.35
299.348
299.351
299.36
299.369
299.376
299.377
299.38
299.402
299.472
299.608
299.799
300.018
300.242
300.469
300.707
300.973
301.278
301.629
302.022
302.466
303.043
303.86
304.843
299.946
299.835
299.735
299.658
299.607
299.575
299.55
299.524
299.495
299.466
299.439
299.416
299.397
299.383
299.374
299.371
299.375
299.386
299.401
299.422
299.461
299.542
299.691
299.905
300.159
300.428
300.706
301.002
301.329
301.695
302.098
302.546
303.123
303.93
304.897
299.956
299.867
299.79
299.728
299.678
299.634
299.592
299.552
299.516
299.484
299.458
299.439
299.426
299.418
299.412
299.407
299.402
299.399
299.401
299.412
299.439
299.495
299.603
299.784
300.034
300.325
300.638
300.968
301.323
301.707
302.117
302.566
303.138
303.938
304.901
299.963
299.887
299.816
299.753
299.698
299.648
299.601
299.556
299.513
299.472
299.438
299.414
299.399
299.394
299.398
299.409
299.421
299.429
299.433
299.434
299.44
299.464
299.529
299.667
299.896
300.199
300.536
300.892
301.274
301.684
302.117
302.579
303.159
303.968
304.941
299.972
299.91
299.849
299.792
299.739
299.687
299.636
299.584
299.535
299.49
299.454
299.429
299.416
299.412
299.418
299.428
299.439
299.447
299.454
299.458
299.464
299.475
299.504
299.581
299.752
300.043
300.417
300.823
301.239
301.669
302.111
302.576
303.157
303.968
304.942
299.976
299.92
299.861
299.801
299.74
299.679
299.619
299.561
299.507
299.463
299.433
299.417
299.415
299.429
299.456
299.487
299.51
299.518
299.514
299.506
299.5
299.5
299.51
299.545
299.639
299.847
300.195
300.633
301.103
301.581
302.058
302.543
303.134
303.959
304.947
299.972
299.91
299.846
299.781
299.716
299.651
299.586
299.525
299.473
299.436
299.415
299.409
299.421
299.452
299.495
299.535
299.56
299.565
299.557
299.546
299.538
299.538
299.548
299.575
299.636
299.775
300.053
300.478
300.98
301.499
302.009
302.513
303.114
303.944
304.927
299.97
299.905
299.837
299.769
299.697
299.624
299.552
299.489
299.443
299.415
299.402
299.405
299.426
299.466
299.517
299.564
299.596
299.608
299.605
299.595
299.584
299.579
299.585
299.607
299.656
299.759
299.969
300.342
300.857
301.43
301.986
302.51
303.116
303.944
304.925
299.971
299.907
299.839
299.765
299.688
299.611
299.544
299.493
299.459
299.441
299.433
299.436
299.445
299.464
299.494
299.536
299.579
299.612
299.629
299.633
299.629
299.623
299.622
299.632
299.66
299.728
299.876
300.168
300.63
301.204
301.808
302.386
303.028
303.879
304.879
299.972
299.904
299.827
299.742
299.658
299.583
299.526
299.489
299.472
299.473
299.491
299.52
299.55
299.574
299.596
299.625
299.665
299.707
299.742
299.763
299.773
299.776
299.777
299.781
299.795
299.836
299.942
300.181
300.618
301.218
301.86
302.455
303.101
303.943
304.912
299.956
299.857
299.749
299.645
299.558
299.499
299.469
299.466
299.486
299.532
299.601
299.677
299.742
299.786
299.808
299.816
299.82
299.823
299.828
299.833
299.84
299.847
299.857
299.868
299.886
299.918
299.992
300.168
300.532
301.1
301.763
302.386
303.04
303.867
304.833
299.938
299.804
299.678
299.584
299.534
299.524
299.542
299.585
299.661
299.769
299.894
300.008
300.086
300.123
300.127
300.113
300.091
300.068
300.046
300.03
300.019
300.014
300.016
300.023
300.036
300.058
300.104
300.214
300.465
300.934
301.584
302.252
302.951
303.824
304.874
299.924
299.766
299.638
299.565
299.538
299.542
299.569
299.624
299.712
299.829
299.962
300.09
300.188
300.249
300.278
300.283
300.274
300.257
300.237
300.218
300.203
300.194
300.187
300.182
300.176
300.172
300.184
300.262
300.502
300.987
301.657
302.323
303.058
304.043
305.174
299.891
299.694
299.576
299.533
299.532
299.563
299.63
299.748
299.917
300.111
300.295
300.436
300.523
300.563
300.573
300.563
300.541
300.51
300.474
300.438
300.407
300.39
300.396
300.423
300.466
300.525
300.621
300.805
301.139
301.633
302.196
302.816
303.604
304.586
305.658
299.908
299.775
299.716
299.677
299.636
299.624
299.66
299.753
299.916
300.138
300.381
300.601
300.761
300.848
300.88
300.882
300.873
300.863
300.855
300.847
300.832
300.813
300.803
300.826
300.9
301.035
301.235
301.509
301.867
302.295
302.786
303.392
304.154
305.036
306.004
299.962
299.881
299.779
299.659
299.543
299.443
299.371
299.338
299.367
299.491
299.732
300.071
300.46
300.822
301.086
301.222
301.25
301.213
301.148
301.102
301.113
301.186
301.298
301.426
301.564
301.724
301.921
302.17
302.472
302.826
303.254
303.8
304.482
305.281
306.192
299.969
299.905
299.851
299.811
299.779
299.744
299.689
299.599
299.473
299.328
299.21
299.203
299.379
299.732
300.188
300.678
301.146
301.535
301.795
301.901
301.895
301.842
301.801
301.817
301.911
302.076
302.289
302.538
302.818
303.138
303.521
304
304.598
305.329
306.206
299.971
299.9
299.814
299.721
299.636
299.575
299.55
299.558
299.595
299.648
299.677
299.637
299.53
299.415
299.361
299.429
299.653
300.025
300.497
301.001
301.468
301.847
302.111
302.273
302.376
302.477
302.612
302.788
303
303.249
303.561
303.98
304.548
305.276
306.151
299.953
299.847
299.742
299.66
299.617
299.603
299.599
299.589
299.568
299.538
299.513
299.501
299.502
299.504
299.5
299.493
299.502
299.564
299.72
299.994
300.379
300.842
301.33
301.788
302.168
302.45
302.66
302.845
303.039
303.259
303.528
303.892
304.415
305.127
305.983
299.938
299.819
299.737
299.703
299.702
299.708
299.715
299.721
299.728
299.731
299.724
299.704
299.675
299.641
299.606
299.574
299.546
299.529
299.535
299.586
299.714
299.948
300.301
300.763
301.293
301.827
302.285
302.619
302.869
303.103
303.369
303.714
304.209
304.911
305.769
299.958
299.882
299.83
299.792
299.756
299.722
299.697
299.684
299.68
299.683
299.689
299.692
299.688
299.677
299.661
299.645
299.632
299.62
299.609
299.602
299.608
299.648
299.758
299.977
300.337
300.839
301.435
302.028
302.518
302.896
303.23
303.599
304.092
304.787
305.639
299.976
299.92
299.86
299.8
299.75
299.721
299.715
299.728
299.753
299.782
299.805
299.812
299.798
299.765
299.721
299.673
299.635
299.611
299.604
299.608
299.619
299.637
299.674
299.755
299.919
300.216
300.674
301.266
301.89
302.442
302.907
303.348
303.877
304.597
305.472
299.956
299.858
299.765
299.698
299.675
299.691
299.733
299.794
299.86
299.907
299.923
299.908
299.873
299.83
299.788
299.749
299.717
299.695
299.683
299.679
299.682
299.693
299.715
299.763
299.86
300.048
300.379
300.879
301.505
302.143
302.71
303.22
303.791
304.54
305.412
299.942
299.832
299.754
299.72
299.722
299.746
299.788
299.839
299.888
299.926
299.946
299.946
299.932
299.91
299.885
299.861
299.837
299.817
299.799
299.786
299.777
299.775
299.782
299.803
299.856
299.97
300.199
300.598
301.181
301.861
302.509
303.074
303.675
304.432
305.286
299.96
299.874
299.794
299.729
299.691
299.687
299.715
299.769
299.847
299.934
300.008
300.051
300.06
300.045
300.016
299.983
299.954
299.93
299.91
299.895
299.883
299.876
299.873
299.879
299.903
299.966
300.111
300.406
300.915
301.62
302.374
303.014
303.638
304.369
305.173
299.94
299.818
299.719
299.671
299.677
299.725
299.804
299.914
300.036
300.141
300.205
300.223
300.204
300.165
300.119
300.077
300.042
300.015
299.995
299.981
299.972
299.967
299.966
299.969
299.981
300.012
300.087
300.26
300.613
301.207
301.969
302.692
303.368
304.1
304.919
299.936
299.818
299.738
299.694
299.677
299.681
299.711
299.771
299.867
299.997
300.131
300.238
300.298
300.311
300.289
300.249
300.205
300.166
300.132
300.106
300.087
300.073
300.064
300.059
300.063
300.083
300.138
300.265
300.529
301.005
301.702
302.452
303.181
303.97
304.871
299.954
299.863
299.786
299.723
299.676
299.644
299.632
299.647
299.697
299.792
299.932
300.093
300.242
300.35
300.404
300.409
300.381
300.339
300.298
300.265
300.241
300.229
300.226
300.23
300.235
300.24
300.254
300.309
300.477
300.855
301.486
302.244
303.016
303.867
304.858
299.96
299.89
299.851
299.839
299.831
299.814
299.786
299.757
299.74
299.746
299.79
299.888
300.032
300.197
300.349
300.456
300.503
300.497
300.46
300.412
300.366
300.324
300.29
300.271
300.276
300.311
300.368
300.447
300.59
300.904
301.477
302.195
302.992
303.957
305.04
299.98
299.941
299.908
299.874
299.839
299.804
299.774
299.748
299.724
299.702
299.686
299.69
299.74
299.858
300.04
300.258
300.456
300.583
300.628
300.622
300.604
300.596
300.592
300.579
300.551
300.527
300.552
300.675
300.928
301.343
301.922
302.566
303.314
304.258
305.272
299.994
299.976
299.955
299.934
299.913
299.896
299.884
299.879
299.88
299.882
299.875
299.848
299.8
299.757
299.774
299.906
300.154
300.441
300.649
300.714
300.674
300.61
300.585
300.638
300.749
300.86
300.958
301.098
301.351
301.751
302.251
302.83
303.564
304.467
305.445
299.989
299.956
299.916
299.872
299.829
299.792
299.768
299.762
299.775
299.806
299.857
299.918
299.967
299.97
299.931
299.906
299.99
300.245
300.608
300.938
301.126
301.149
301.066
300.975
300.966
301.086
301.31
301.595
301.929
302.315
302.751
303.284
303.973
304.782
305.68
299.992
299.967
299.933
299.9
299.874
299.864
299.87
299.886
299.907
299.925
299.932
299.936
299.957
300
300.033
300.027
300.004
300.013
300.117
300.358
300.695
301.042
301.317
301.48
301.555
301.615
301.736
301.951
302.248
302.595
302.985
303.459
304.058
304.774
305.627
299.982
299.934
299.883
299.842
299.822
299.827
299.852
299.897
299.961
300.034
300.093
300.112
300.088
300.046
300.011
299.989
299.979
299.978
299.994
300.049
300.178
300.408
300.726
301.084
301.424
301.708
301.938
302.147
302.371
302.631
302.948
303.369
303.953
304.717
305.627
299.975
299.922
299.882
299.868
299.878
299.902
299.933
299.966
299.997
300.023
300.047
300.069
300.087
300.098
300.101
300.098
300.092
300.085
300.083
300.092
300.124
300.201
300.349
300.589
300.918
301.307
301.709
302.085
302.417
302.713
303.012
303.381
303.898
304.598
305.451
299.98
299.94
299.909
299.889
299.877
299.875
299.886
299.913
299.958
300.016
300.074
300.114
300.13
300.128
300.117
300.107
300.101
300.098
300.1
300.107
300.121
300.148
300.198
300.293
300.459
300.718
301.072
301.487
301.904
302.275
302.615
302.991
303.511
304.281
305.257
299.987
299.957
299.929
299.908
299.9
299.904
299.921
299.95
299.993
300.05
300.115
300.176
300.215
300.226
300.214
300.19
300.167
300.151
300.143
300.144
300.153
300.172
300.205
300.26
300.356
300.519
300.781
301.155
301.613
302.092
302.551
303.017
303.606
304.437
305.428
299.985
299.952
299.93
299.924
299.933
299.953
299.983
300.023
300.076
300.141
300.214
300.283
300.339
300.37
300.374
300.354
300.32
300.283
300.253
300.232
300.223
300.226
300.243
300.279
300.345
300.464
300.67
301.001
301.466
302.015
302.551
303.04
303.605
304.388
305.333
299.992
299.973
299.958
299.944
299.929
299.913
299.898
299.891
299.901
299.936
300.003
300.103
300.224
300.346
300.446
300.509
300.526
300.507
300.467
300.423
300.385
300.357
300.34
300.332
300.337
300.363
300.435
300.603
300.926
301.426
302.057
302.706
303.403
304.289
305.326
300.002
300
300.001
300.007
300.02
300.031
300.033
300.021
299.997
299.973
299.966
299.993
300.07
300.201
300.37
300.541
300.675
300.747
300.756
300.722
300.673
300.63
300.608
300.613
300.641
300.69
300.77
300.927
301.236
301.747
302.396
303.035
303.737
304.609
305.551
300.003
300.003
300.002
300.005
300.013
300.025
300.037
300.045
300.042
300.025
299.997
299.97
299.966
300.014
300.139
300.345
300.598
300.84
301.019
301.115
301.133
301.093
301.029
300.984
301.01
301.141
301.376
301.695
302.082
302.53
303.008
303.528
304.153
304.901
305.764
300.003
300.002
299.998
299.998
300.006
300.023
300.049
300.081
300.114
300.141
300.153
300.142
300.102
300.039
299.979
299.976
300.077
300.286
300.555
300.855
301.174
301.485
301.741
301.904
301.981
302.019
302.082
302.231
302.505
302.887
303.326
303.825
304.426
305.136
305.975
300.012
300.029
300.043
300.058
300.071
300.08
300.083
300.081
300.079
300.084
300.105
300.146
300.208
300.278
300.316
300.285
300.195
300.077