/*--------------------------------*- C++ -*----------------------------------*\
| =========                 |                                                 |
| \\      /  F ield         | OpenFOAM: The Open Source CFD Toolbox           |
|  \\    /   O peration     | Version:  v2006                                 |
|   \\  /    A nd           | Website:  www.openfoam.com                      |
|    \\/     M anipulation  |                                                 |
\*---------------------------------------------------------------------------*/
FoamFile
{
    version     2.0;
    format      ascii;
    class       volVectorField;
    location    "23";
    object      U;
}
// * * * * * * * * * * * * * * * * * * * * * * * * * * * * * * * * * * * * * //

dimensions      [0 1 -1 0 0 0 0];


internalField   nonuniform List<vector> 
78750
(
(-0.0267743 -0.0142513 -0.0121613)
(-0.0240101 -0.0236225 -0.0215747)
(-0.020195 -0.0236715 -0.0225011)
(-0.0164423 -0.0226894 -0.0226655)
(-0.012581 -0.0210938 -0.0221589)
(-0.00886033 -0.019357 -0.0213942)
(-0.0053061 -0.0176833 -0.0205901)
(-0.0019675 -0.0161401 -0.0198219)
(0.00115151 -0.0147181 -0.0190913)
(0.00405187 -0.0133918 -0.0183871)
(0.00673336 -0.0121435 -0.0177056)
(0.00920232 -0.0109648 -0.0170455)
(0.0114706 -0.00985188 -0.0164035)
(0.0135518 -0.00880087 -0.0157741)
(0.0154589 -0.00780721 -0.0151509)
(0.0172023 -0.00686495 -0.014527)
(0.0187903 -0.00596651 -0.0138946)
(0.0202277 -0.00510271 -0.0132461)
(0.0215162 -0.00426261 -0.0125731)
(0.0226541 -0.00343331 -0.011867)
(0.0236364 -0.00259984 -0.0111184)
(0.0244528 -0.00174557 -0.01032)
(0.0250849 -0.000857743 -0.00944897)
(0.0254875 8.47938e-05 -0.00849183)
(0.0256287 0.00110417 -0.00742923)
(0.02547 0.00222197 -0.00623694)
(0.024964 0.0034573 -0.00488395)
(0.0240567 0.00482105 -0.00333133)
(0.0226859 0.00630968 -0.00153115)
(0.0207885 0.00790157 0.000567629)
(0.0182693 0.0095699 0.00304105)
(0.0150032 0.0113947 0.0060209)
(0.0107753 0.013688 0.00926587)
(0.00575668 0.0152874 0.0104646)
(0.00134419 0.0105069 0.00588502)
(-0.00177704 0.0141969 -0.0101936)
(-0.00515435 -0.00373387 -0.0327102)
(-0.00880527 -0.0170081 -0.0442546)
(-0.0115137 -0.0222443 -0.0481491)
(-0.0133785 -0.0222379 -0.0484871)
(-0.0146088 -0.019799 -0.0472685)
(-0.015254 -0.0170526 -0.0455559)
(-0.0153449 -0.0147169 -0.0438424)
(-0.0149537 -0.0127342 -0.0422578)
(-0.0142006 -0.0110036 -0.0408232)
(-0.0132203 -0.00947939 -0.039521)
(-0.0121069 -0.00812562 -0.0383178)
(-0.0109009 -0.00691052 -0.0371907)
(-0.0096188 -0.00580775 -0.036122)
(-0.00827055 -0.00479678 -0.0350957)
(-0.00686523 -0.0038592 -0.0340974)
(-0.00541264 -0.00297536 -0.0331131)
(-0.0039241 -0.0021232 -0.0321292)
(-0.00241266 -0.00127603 -0.0311307)
(-0.000893881 -0.000402142 -0.0301013)
(0.000610903 0.000537083 -0.0290222)
(0.00207481 0.00158718 -0.0278696)
(0.00349277 0.00279528 -0.026611)
(0.00484679 0.00421187 -0.0252243)
(0.00610113 0.0058883 -0.0236819)
(0.00721339 0.00787473 -0.0219483)
(0.00813041 0.0102164 -0.019968)
(0.00878973 0.0129597 -0.0176365)
(0.00911535 0.0161669 -0.0147832)
(0.00900553 0.0199367 -0.0111592)
(0.00831676 0.0244111 -0.00650496)
(0.00686731 0.0295871 -0.000924304)
(0.00475404 0.0343878 0.00425715)
(0.00236651 0.0353916 0.00685486)
(0.00028232 0.0229776 0.0044689)
(0.000295659 0.0303057 -0.00436409)
(-0.00103552 0.0439352 -0.0146705)
(-0.00375377 0.0446792 -0.0192503)
(-0.00669658 0.0413826 -0.0197287)
(-0.00943177 0.0362324 -0.0181491)
(-0.0114322 0.0302137 -0.0162861)
(-0.0126449 0.0242208 -0.0149533)
(-0.0132224 0.0188871 -0.0141619)
(-0.0133363 0.0146937 -0.0136519)
(-0.0130993 0.0118657 -0.0131654)
(-0.0126089 0.0101309 -0.0126268)
(-0.0119632 0.00902506 -0.0120867)
(-0.011237 0.00824217 -0.011577)
(-0.0104517 0.00766261 -0.0111021)
(-0.00962584 0.00723161 -0.0106656)
(-0.00876988 0.00692734 -0.0102725)
(-0.00788834 0.00674553 -0.00992913)
(-0.00698273 0.00669232 -0.00964248)
(-0.00605431 0.00677755 -0.00941876)
(-0.00510581 0.00701674 -0.00926208)
(-0.00414288 0.00743234 -0.0091723)
(-0.00317485 0.00805505 -0.00914265)
(-0.00221462 0.00892559 -0.00915732)
(-0.00127739 0.0100902 -0.0091884)
(-0.000381728 0.0116115 -0.00919212)
(0.000448517 0.0135852 -0.00910052)
(0.00121002 0.0161724 -0.00882259)
(0.00188496 0.0195155 -0.00824561)
(0.00241425 0.0236784 -0.00722878)
(0.00274228 0.0286758 -0.00559653)
(0.00277045 0.0342724 -0.003232)
(0.00236875 0.039589 -0.000359491)
(0.00170644 0.042888 0.00214801)
(0.000870196 0.0416284 0.00364252)
(7.83183e-05 0.0248456 0.00259795)
(-0.000182273 0.0264449 -0.00193465)
(-0.000891637 0.0385951 -0.00793376)
(-0.00162893 0.0372127 -0.0109115)
(-0.00217603 0.0323433 -0.0118749)
(-0.00260524 0.0256261 -0.0117117)
(-0.00295188 0.0181076 -0.0111853)
(-0.00326243 0.0107885 -0.0107678)
(-0.00356616 0.00445107 -0.0105155)
(-0.00382414 -9.77246e-05 -0.010215)
(-0.00396436 -0.00287803 -0.00968329)
(-0.00397977 -0.00432542 -0.00889581)
(-0.00386761 -0.00486647 -0.00791078)
(-0.00362364 -0.00483773 -0.00679162)
(-0.00325225 -0.00449243 -0.00559924)
(-0.00275603 -0.00400148 -0.00438773)
(-0.00213105 -0.00347074 -0.00320409)
(-0.00137407 -0.00294991 -0.0020869)
(-0.000512306 -0.00243406 -0.00106423)
(0.000410016 -0.00187765 -0.000150373)
(0.0013717 -0.00122035 0.00064221)
(0.00235353 -0.000390846 0.00131043)
(0.00333209 0.000682501 0.00185423)
(0.00425096 0.00206322 0.00226812)
(0.00503883 0.00380112 0.00254449)
(0.00564364 0.00590827 0.00267969)
(0.00602512 0.00840441 0.00268749)
(0.00618186 0.0113922 0.00260683)
(0.00609078 0.0149856 0.00247186)
(0.00575238 0.0193099 0.00237196)
(0.00519667 0.0246598 0.00247939)
(0.0044279 0.0312149 0.0029786)
(0.00339685 0.038164 0.00383742)
(0.00232273 0.0429055 0.00459562)
(0.00123939 0.0424222 0.00475034)
(0.000215151 0.0256842 0.00289883)
(0.000308659 0.0274972 -0.00106763)
(0.00052511 0.0462806 -0.00511712)
(0.00036959 0.0484845 -0.00750171)
(2.13462e-05 0.0464177 -0.00860331)
(-0.000513902 0.0425672 -0.00888214)
(-0.00122331 0.0378207 -0.00853353)
(-0.00207493 0.0330126 -0.00772169)
(-0.00302349 0.0286156 -0.00654597)
(-0.00400084 0.0247487 -0.00509203)
(-0.00493893 0.0213672 -0.00347923)
(-0.00575363 0.0183036 -0.00184312)
(-0.00640324 0.0154465 -0.000299677)
(-0.0068654 0.0127545 0.00108899)
(-0.00713939 0.0101596 0.00230195)
(-0.007229 0.00760375 0.00331796)
(-0.00713715 0.00512944 0.00413279)
(-0.00683162 0.00283844 0.00477162)
(-0.00628058 0.000878839 0.00527059)
(-0.00549731 -0.000613632 0.00568161)
(-0.00452949 -0.00152379 0.00605232)
(-0.00343029 -0.00175202 0.00642312)
(-0.00225594 -0.00120075 0.00682616)
(-0.00105889 0.000252214 0.00728729)
(0.000158397 0.00276768 0.00783357)
(0.00133328 0.00641389 0.00843693)
(0.00233987 0.0110361 0.00898871)
(0.00312911 0.0164811 0.00936549)
(0.00364413 0.0226222 0.00943624)
(0.00382932 0.029279 0.00911407)
(0.00365481 0.0362089 0.00843693)
(0.00312265 0.0429606 0.00760156)
(0.0022898 0.0484849 0.00684381)
(0.00143831 0.0511519 0.00621265)
(0.000617383 0.0481671 0.00525958)
(7.88935e-07 0.0275545 0.00272286)
(-2.22524e-05 0.0244663 -0.00069987)
(-0.000238217 0.0439631 -0.00369598)
(-0.000627235 0.0470103 -0.0054917)
(-0.00102815 0.0455065 -0.00627418)
(-0.00148531 0.0419039 -0.00641039)
(-0.00197923 0.0367302 -0.00597051)
(-0.00245668 0.0308864 -0.0050761)
(-0.00287277 0.0251411 -0.00388659)
(-0.00320354 0.0198916 -0.00254182)
(-0.00344493 0.0152547 -0.00114506)
(-0.00360908 0.0111926 0.000232275)
(-0.00370776 0.00764304 0.00154019)
(-0.00374245 0.00449466 0.00275245)
(-0.00369521 0.00156892 0.00384064)
(-0.00352878 -0.00128346 0.00475089)
(-0.00321826 -0.00412204 0.00543579)
(-0.00278401 -0.00691399 0.00589044)
(-0.00225291 -0.00951981 0.006147)
(-0.00161832 -0.0117636 0.00627033)
(-0.000891691 -0.0134715 0.00634233)
(-9.98658e-05 -0.0145075 0.00643604)
(0.000736121 -0.014767 0.00660799)
(0.00158917 -0.0141373 0.00690481)
(0.00245974 -0.0124683 0.00737556)
(0.00335717 -0.0095085 0.00808161)
(0.00424248 -0.00507043 0.00902676)
(0.00502541 0.000863013 0.0101245)
(0.00559258 0.00830854 0.0112057)
(0.00582136 0.0171705 0.011993)
(0.00563344 0.0271234 0.0121749)
(0.00496729 0.0374516 0.0115955)
(0.00381099 0.0465334 0.010399)
(0.00254912 0.0515381 0.00895991)
(0.00127604 0.0493611 0.00701985)
(0.000215012 0.0282886 0.00332626)
(0.00010977 0.0239185 -0.000348985)
(0.000151378 0.0451114 -0.00245574)
(-5.28631e-05 0.0499826 -0.00392908)
(-0.000353662 0.049424 -0.0045878)
(-0.000709208 0.0467559 -0.00468792)
(-0.00110642 0.0425777 -0.00426964)
(-0.00151701 0.0375434 -0.00338286)
(-0.00192242 0.0323414 -0.00213141)
(-0.00231224 0.0274023 -0.000630504)
(-0.00268133 0.0228963 0.00100988)
(-0.00301933 0.0188102 0.00268)
(-0.00330203 0.0150021 0.00426035)
(-0.00348977 0.0112651 0.0056208)
(-0.00354007 0.00738931 0.00663397)
(-0.00342151 0.00325083 0.00720348)
(-0.00310316 -0.00110144 0.00730599)
(-0.00258303 -0.00542136 0.00702373)
(-0.00191012 -0.00935199 0.0065193)
(-0.00116622 -0.0124986 0.00598273)
(-0.000400761 -0.0146726 0.00554388)
(0.000370824 -0.0158954 0.00524843)
(0.00112653 -0.0161983 0.00512354)
(0.00185039 -0.0155759 0.00519465)
(0.0025224 -0.0139518 0.00548675)
(0.00316693 -0.0110659 0.00606664)
(0.0037904 -0.00654047 0.00702555)
(0.00431316 -0.000186065 0.00837127)
(0.00470288 0.00819821 0.0100188)
(0.00491361 0.0186728 0.0116887)
(0.0048151 0.0307968 0.0128793)
(0.00425689 0.0431924 0.0130533)
(0.00318302 0.0533381 0.0120658)
(0.00200881 0.0581506 0.0103608)
(0.00088567 0.0545768 0.00783031)
(7.32466e-05 0.0304988 0.00343513)
(1.34672e-05 0.0227483 -0.000179832)
(-9.03758e-05 0.0444943 -0.00176011)
(-0.000402267 0.0503061 -0.00293283)
(-0.000763705 0.0501426 -0.003408)
(-0.00117612 0.0476166 -0.00335764)
(-0.0016305 0.043303 -0.00278937)
(-0.00208993 0.0377841 -0.00171912)
(-0.00253119 0.0318732 -0.000250018)
(-0.00293885 0.0261471 0.00147341)
(-0.00328705 0.0208168 0.00328507)
(-0.00352979 0.0157923 0.00499735)
(-0.0036086 0.0108133 0.00640381)
(-0.00346695 0.00563703 0.0073104)
(-0.0030769 0.000202678 0.007605)
(-0.00246661 -0.00531645 0.00732089)
(-0.00171095 -0.010605 0.006625)
(-0.00088683 -0.0153225 0.00574138)
(-5.53564e-05 -0.0191886 0.00487571)
(0.000723394 -0.0220147 0.00417096)
(0.00143435 -0.0238443 0.00365606)
(0.00209219 -0.0247928 0.00331938)
(0.00268733 -0.0249163 0.00316676)
(0.0032141 -0.0242258 0.00320853)
(0.00366238 -0.0226737 0.00345721)
(0.00404441 -0.0200699 0.00395632)
(0.0043708 -0.0160144 0.00480361)
(0.00463103 -0.0100795 0.00608525)
(0.00481772 -0.0017666 0.00782172)
(0.00489274 0.00946204 0.00987313)
(0.00476124 0.0236383 0.0117761)
(0.00427278 0.0393163 0.012778)
(0.00327214 0.0529942 0.0123469)
(0.00211204 0.0599211 0.0107608)
(0.000972447 0.0567251 0.00807688)
(0.000141488 0.0314959 0.003454)
(4.63313e-05 0.0218585 7.515e-05)
(8.85754e-05 0.0440482 -0.000974461)
(-7.66964e-05 0.0511001 -0.00190738)
(-0.000339048 0.051583 -0.00228432)
(-0.000655795 0.0495355 -0.00217986)
(-0.00103103 0.04572 -0.00156483)
(-0.0014446 0.0406106 -0.000397228)
(-0.00186847 0.0349295 0.00125643)
(-0.00225642 0.0291333 0.00322542)
(-0.00253208 0.0232572 0.00522923)
(-0.00260864 0.0171047 0.00690056)
(-0.00242802 0.0105531 0.00789836)
(-0.00199586 0.00374092 0.00806841)
(-0.00136361 -0.00296921 0.007511)
(-0.000605021 -0.00916284 0.00649537)
(0.000201515 -0.0145267 0.00531408)
(0.000986794 -0.0188504 0.00419796)
(0.00168971 -0.0220005 0.00329234)
(0.00230332 -0.0240616 0.00261934)
(0.00284238 -0.0252146 0.0021332)
(0.0033066 -0.0255645 0.00181961)
(0.00369047 -0.0251585 0.00168214)
(0.0039916 -0.0240072 0.00172733)
(0.00420021 -0.0220731 0.00196696)
(0.00431653 -0.0191601 0.00244518)
(0.00434041 -0.0149337 0.0032579)
(0.0042648 -0.00909333 0.00450428)
(0.0040989 -0.00112526 0.00627436)
(0.00386599 0.00976938 0.00855716)
(0.00357278 0.0241008 0.0109916)
(0.00313399 0.0407354 0.0127201)
(0.00237367 0.0556653 0.0128543)
(0.00149319 0.0630546 0.0114301)
(0.000638232 0.059253 0.00861147)
(7.61072e-05 0.0324462 0.00364389)
(6.58573e-06 0.0207098 0.000202684)
(-3.02551e-05 0.0425342 -0.000533396)
(-0.000235098 0.0501107 -0.00126489)
(-0.000517319 0.0509886 -0.00149948)
(-0.000859217 0.0492413 -0.00123843)
(-0.0012678 0.0456766 -0.000398203)
(-0.00170114 0.0406073 0.00109118)
(-0.002085 0.0345085 0.00309458)
(-0.00232154 0.0276104 0.0052417)
(-0.00231212 0.0199526 0.00699411)
(-0.00201184 0.0117159 0.00788204)
(-0.00145407 0.00336555 0.00776659)
(-0.000724986 -0.00452388 0.00686449)
(7.21867e-05 -0.0115193 0.00554699)
(0.000861383 -0.0173824 0.00415131)
(0.00160243 -0.0220295 0.00289766)
(0.00226425 -0.0254551 0.00189511)
(0.00283341 -0.0277514 0.00115767)
(0.00332977 -0.0291313 0.000615762)
(0.00376902 -0.0297369 0.000230047)
(0.0041408 -0.0296287 -5.58397e-06)
(0.00444335 -0.0288319 -9.33774e-05)
(0.00467032 -0.0273472 -3.08841e-05)
(0.00480361 -0.0251274 0.000194182)
(0.00483668 -0.0219917 0.000614682)
(0.00474971 -0.0176934 0.00130809)
(0.00453404 -0.0120262 0.00236133)
(0.00420533 -0.00451462 0.00390202)
(0.00378626 0.00569415 0.0060509)
(0.0033067 0.0194915 0.00870126)
(0.00277324 0.0364558 0.0111772)
(0.00208613 0.0528779 0.0123366)
(0.00134643 0.0618452 0.0115977)
(0.000613647 0.0588575 0.00899853)
(0.000114171 0.0323337 0.00384077)
(-1.68868e-06 0.020002 0.000461303)
(-0.000110717 0.0416839 0.000171874)
(-0.000408018 0.0498875 -0.000238459)
(-0.000775493 0.0512711 -0.000197089)
(-0.00117706 0.0499289 0.000361644)
(-0.00159977 0.0465966 0.00157326)
(-0.00193528 0.0412462 0.00343308)
(-0.00206001 0.0340534 0.00554803)
(-0.00189277 0.0253775 0.00724361)
(-0.0014311 0.0158545 0.00795151)
(-0.000754236 0.00633321 0.00755628)
(2.67171e-05 -0.00241992 0.00636995)
(0.000822298 -0.00994626 0.00484605)
(0.00157596 -0.0161219 0.00333454)
(0.00226557 -0.0209959 0.00202336)
(0.00288094 -0.0246512 0.000981459)
(0.00340927 -0.0271667 0.000208732)
(0.00387967 -0.0287562 -0.000364621)
(0.00430849 -0.0295823 -0.000797657)
(0.0046862 -0.0297016 -0.00110151)
(0.00500945 -0.0291387 -0.001283)
(0.00527128 -0.0279029 -0.00134449)
(0.00545529 -0.0259788 -0.00128183)
(0.00554591 -0.023246 -0.0010761)
(0.00552813 -0.0195145 -0.000688991)
(0.00537476 -0.0147038 -6.62999e-05)
(0.0050742 -0.00870236 0.000865826)
(0.00462192 -0.00117887 0.0022251)
(0.0040382 0.00851846 0.00415064)
(0.00336975 0.0212069 0.00665926)
(0.002665 0.0368492 0.0093155)
(0.001903 0.052446 0.0110556)
(0.00120168 0.0612418 0.0109288)
(0.00054732 0.0584843 0.00874966)
(9.69429e-05 0.0322301 0.00376593)
(-2.52136e-05 0.019552 0.000767073)
(-0.000246054 0.0411367 0.00102093)
(-0.000694734 0.0496007 0.00102695)
(-0.00118161 0.0510793 0.00140321)
(-0.00165761 0.0494968 0.00229062)
(-0.00207323 0.0451933 0.00382694)
(-0.00222339 0.0380228 0.00569152)
(-0.00201593 0.0285567 0.00712652)
(-0.00150018 0.0179126 0.00750218)
(-0.000797277 0.00735359 0.00674948)
(-3.00997e-05 -0.00216488 0.0052738)
(0.000718371 -0.0101977 0.00358059)
(0.00141422 -0.0167106 0.00201267)
(0.00205338 -0.0218668 0.000709793)
(0.00264477 -0.0258388 -0.000310768)
(0.00319062 -0.0287406 -0.00107976)
(0.00369951 -0.030704 -0.0016512)
(0.00418447 -0.0318759 -0.00208834)
(0.00464948 -0.0323304 -0.00241686)
(0.00508185 -0.0320943 -0.00264827)
(0.00547507 -0.0311772 -0.00278973)
(0.00581655 -0.0295757 -0.00284409)
(0.00608512 -0.0272375 -0.00280405)
(0.00626954 -0.0240187 -0.00265855)
(0.00633911 -0.01979 -0.00237479)
(0.00626183 -0.0145244 -0.00190928)
(0.00601954 -0.00815402 -0.00118831)
(0.00560035 -0.000455811 -8.97475e-05)
(0.00499657 0.00907505 0.00155306)
(0.00422522 0.0211734 0.00385094)
(0.00333651 0.036011 0.00655613)
(0.00235196 0.0511621 0.00874184)
(0.00147626 0.060136 0.00923472)
(0.000689336 0.0579413 0.00766663)
(0.000116756 0.0322327 0.00332228)
(-3.35735e-05 0.0193853 0.00118326)
(-0.000312376 0.0412155 0.00218243)
(-0.00082634 0.0501354 0.00273992)
(-0.00134476 0.0516639 0.00348508)
(-0.00178204 0.0494302 0.00461732)
(-0.00204509 0.0434433 0.00608784)
(-0.00192955 0.0340577 0.00717669)
(-0.00149269 0.0228532 0.0072025)
(-0.000892633 0.0115897 0.00612371)
(-0.000257307 0.00147229 0.00441834)
(0.000351786 -0.00703158 0.00262589)
(0.000923389 -0.0139639 0.00106247)
(0.00146602 -0.0195579 -0.000184271)
(0.00199223 -0.0240356 -0.00114326)
(0.00251467 -0.0275186 -0.00187112)
(0.00302818 -0.0300534 -0.00241841)
(0.00353539 -0.0317364 -0.00283438)
(0.00404284 -0.032667 -0.00315562)
(0.00454202 -0.0328823 -0.00339712)
(0.00502304 -0.0323888 -0.00356628)
(0.00547874 -0.0311822 -0.00366795)
(0.0058878 -0.0292443 -0.00370468)
(0.00623728 -0.0264591 -0.00366969)
(0.00651554 -0.022627 -0.00355184)
(0.00667882 -0.0176571 -0.00333558)
(0.00669013 -0.0115315 -0.00299564)
(0.00651613 -0.0042383 -0.00247405)
(0.00612697 0.00430629 -0.00165711)
(0.00550702 0.0143653 -0.000372772)
(0.00466461 0.0263791 0.00153335)
(0.00363663 0.0403661 0.00394447)
(0.00246498 0.0541614 0.00611356)
(0.0014692 0.0619332 0.00688834)
(0.000638084 0.0591982 0.00588918)
(6.22363e-05 0.0328055 0.00250725)
(-6.3382e-05 0.0194808 0.00164039)
(-0.00043606 0.0414181 0.00354435)
(-0.00102356 0.0500354 0.00465119)
(-0.00156135 0.0508093 0.00552984)
(-0.00196606 0.0470031 0.00638227)
(-0.00214382 0.0387295 0.00689664)
(-0.00199905 0.0276532 0.00646495)
(-0.00168645 0.0160193 0.00506184)
(-0.00132811 0.00536743 0.00318882)
(-0.000966194 -0.00372513 0.00137968)
(-0.000599125 -0.0113017 -0.000101182)
(-0.000210615 -0.0176034 -0.00122803)
(0.000214703 -0.0228317 -0.00207355)
(0.000680419 -0.0270912 -0.00271646)
(0.00118065 -0.0304177 -0.00321177)
(0.0016985 -0.0328262 -0.00359296)
(0.00222492 -0.0343905 -0.00388693)
(0.00276238 -0.0351961 -0.00411345)
(0.00330362 -0.0352717 -0.00427938)
(0.00383829 -0.0346131 -0.00438671)
(0.00435695 -0.0332011 -0.00443729)
(0.0048369 -0.0309886 -0.00443147)
(0.00527177 -0.027817 -0.00436925)
(0.00564277 -0.023457 -0.00424242)
(0.00590403 -0.0177969 -0.00405146)
(0.00601563 -0.010795 -0.00379124)
(0.00593773 -0.00246317 -0.00342258)
(0.00563184 0.00719852 -0.00283894)
(0.00507444 0.018307 -0.00186238)
(0.00427669 0.0310508 -0.00032436)
(0.00328413 0.0450928 0.00170417)
(0.00215492 0.0580393 0.00360349)
(0.00122592 0.0645538 0.00438802)
(0.000492331 0.0609039 0.00382482)
(1.3796e-05 0.0333241 0.00153565)
(-1.47364e-05 0.0195107 0.00172113)
(-0.000194887 0.0415632 0.00412293)
(-0.000598836 0.0498603 0.00547802)
(-0.00100809 0.0499912 0.00615489)
(-0.00137686 0.0451327 0.00631437)
(-0.00164909 0.0358842 0.00569389)
(-0.00178002 0.0246925 0.00424191)
(-0.00185324 0.0136671 0.00239502)
(-0.00188407 0.00378468 0.000663357)
(-0.00184784 -0.00478953 -0.000700751)
(-0.00172124 -0.0121883 -0.00169887)
(-0.00149694 -0.0185402 -0.00243407)
(-0.0011835 -0.0238948 -0.00300194)
(-0.00079945 -0.0282536 -0.00345775)
(-0.000366315 -0.0316142 -0.00382435)
(9.01719e-05 -0.0340025 -0.00410995)
(0.000562252 -0.0355293 -0.00432597)
(0.00104926 -0.0362855 -0.00448576)
(0.00154284 -0.0362885 -0.00458855)
(0.00203638 -0.0355276 -0.00463259)
(0.00251861 -0.0339724 -0.00461763)
(0.00297659 -0.0315292 -0.00453998)
(0.00341145 -0.0279737 -0.00439845)
(0.00380279 -0.0230418 -0.00419167)
(0.00411511 -0.0165677 -0.00394305)
(0.00430897 -0.00847273 -0.00368935)
(0.00433184 0.00119781 -0.00344115)
(0.00413753 0.0122745 -0.00312151)
(0.00370497 0.0245802 -0.00254341)
(0.00305274 0.0379303 -0.00150539)
(0.00225041 0.0515723 -2.97417e-05)
(0.00139785 0.0629405 0.00139118)
(0.000730191 0.0677363 0.00203686)
(0.000239351 0.0626338 0.00181454)
(-3.00838e-05 0.0335913 0.000623544)
(4.34574e-05 0.0184138 0.0013509)
(0.000225284 0.0398988 0.00355672)
(0.000246449 0.0484132 0.00486059)
(0.000179448 0.0488649 0.00532193)
(2.79054e-05 0.0446563 0.00511898)
(-0.000220144 0.0361338 0.00411718)
(-0.000544009 0.0255522 0.00256888)
(-0.000890841 0.0148295 0.00096613)
(-0.00119586 0.00484601 -0.000353732)
(-0.00140227 -0.00415777 -0.00132523)
(-0.00148135 -0.0121395 -0.00204394)
(-0.00143506 -0.0190593 -0.002623)
(-0.00128472 -0.0248625 -0.00312384)
(-0.0010566 -0.0295155 -0.00355876)
(-0.000775344 -0.0330331 -0.00391996)
(-0.000466441 -0.0354854 -0.00420169)
(-0.000137724 -0.0370378 -0.00441273)
(0.000206593 -0.0377942 -0.00456266)
(0.000555967 -0.0377763 -0.00464903)
(0.000906218 -0.036984 -0.0046693)
(0.00124746 -0.0353951 -0.00462131)
(0.00157479 -0.0328953 -0.00449601)
(0.00189327 -0.0292288 -0.00428085)
(0.00219091 -0.0241188 -0.00396727)
(0.00245534 -0.0173078 -0.00357959)
(0.00266757 -0.00858499 -0.00318572)
(0.00278995 0.00209541 -0.00287343)
(0.00276582 0.0144936 -0.00266804)
(0.00254718 0.028117 -0.00244287)
(0.00213426 0.0423009 -0.00196633)
(0.00158842 0.0558561 -0.00114293)
(0.00101388 0.0661797 -0.000257447)
(0.000554394 0.069927 0.00023354)
(0.000203267 0.0637084 0.000298465)
(-4.70932e-06 0.0337104 1.81288e-05)
(4.20573e-05 0.0164686 0.000928199)
(0.000369746 0.0363475 0.00257666)
(0.00069183 0.0450282 0.00362799)
(0.000921794 0.0462866 0.00397195)
(0.00104111 0.0434194 0.0037788)
(0.00103788 0.0368278 0.00301872)
(0.000859104 0.0278032 0.00191405)
(0.000578796 0.0178963 0.000816477)
(0.000290888 0.00802021 -9.00564e-05)
(5.93403e-05 -0.00135904 -0.000822079)
(-8.18189e-05 -0.00992235 -0.00147344)
(-0.000132766 -0.0174125 -0.00210024)
(-0.000114798 -0.0236672 -0.00269239)
(-4.65313e-05 -0.0286327 -0.00321108)
(6.22456e-05 -0.0323429 -0.00362845)
(0.00019797 -0.0348967 -0.00394159)
(0.00035144 -0.0364929 -0.00417063)
(0.000520085 -0.0372558 -0.00433004)
(0.000695866 -0.0372184 -0.00442502)
(0.000874214 -0.0363933 -0.00445749)
(0.00104733 -0.0347725 -0.00442516)
(0.00121219 -0.0322391 -0.00431436)
(0.0013715 -0.0285477 -0.00409953)
(0.00152115 -0.0234593 -0.00375542)
(0.00166409 -0.016685 -0.00328004)
(0.00180137 -0.00789967 -0.00272471)
(0.00191984 0.00311856 -0.00221172)
(0.00198038 0.0162405 -0.00188517)
(0.00192489 0.0308327 -0.00177281)
(0.00171392 0.0457969 -0.00170308)
(0.00136279 0.0594779 -0.00146316)
(0.000949544 0.0692201 -0.00107755)
(0.000582372 0.0723493 -0.000757651)
(0.000258662 0.0652602 -0.000513381)
(1.78088e-05 0.034285 -0.000234893)
(-1.42568e-06 0.0149339 0.000701909)
(0.000184002 0.0330149 0.00186953)
(0.000441259 0.0411996 0.00261834)
(0.000672039 0.0427758 0.0028741)
(0.000846669 0.0407052 0.00277685)
(0.000951543 0.0354556 0.00234799)
(0.000934812 0.027626 0.00170768)
(0.000839323 0.0184011 0.00102824)
(0.000734664 0.0087158 0.000361037)
(0.000662383 -0.000745859 -0.000336239)
(0.00062594 -0.00944449 -0.00108658)
(0.000613408 -0.0170098 -0.00184156)
(0.000619311 -0.023273 -0.00251957)
(0.000642422 -0.0282237 -0.00306253)
(0.000684666 -0.0319324 -0.00345782)
(0.000745875 -0.0345035 -0.00372759)
(0.000824656 -0.0361148 -0.00391037)
(0.000919652 -0.0368835 -0.00403075)
(0.00102428 -0.036841 -0.00410583)
(0.00113312 -0.035999 -0.00414393)
(0.00123734 -0.0343557 -0.00414308)
(0.00133249 -0.0318046 -0.00408785)
(0.00141667 -0.0281288 -0.00394326)
(0.00148722 -0.0231379 -0.00366594)
(0.00155105 -0.0165636 -0.00321745)
(0.00161969 -0.00803789 -0.0025972)
(0.00170041 0.00281463 -0.00189039)
(0.00177974 0.0161016 -0.00128673)
(0.00181034 0.0313217 -0.000979956)
(0.00172477 0.0471881 -0.000976367)
(0.00147956 0.0616172 -0.00105943)
(0.00110982 0.0716733 -0.00103176)
(0.000731709 0.0747782 -0.00088661)
(0.000353564 0.0672157 -0.000621098)
(3.6003e-05 0.0352234 -0.000195969)
(-1.2311e-05 0.0142827 0.000621491)
(1.66427e-05 0.0313328 0.0015194)
(7.85854e-05 0.0389997 0.00206376)
(0.00015351 0.0405787 0.00227577)
(0.000225417 0.038824 0.00227126)
(0.000289215 0.0342161 0.00207543)
(0.000332578 0.0270081 0.00170553)
(0.000372645 0.0181803 0.00118737)
(0.000430032 0.00871619 0.00051351)
(0.000504447 -0.000560716 -0.000299573)
(0.00058114 -0.00903345 -0.00116383)
(0.000648777 -0.0163556 -0.00195474)
(0.000707949 -0.0224256 -0.00257931)
(0.000766706 -0.027277 -0.00300697)
(0.0008353 -0.0309799 -0.00326059)
(0.000919483 -0.0336 -0.00339178)
(0.00102033 -0.0352605 -0.00345572)
(0.00113837 -0.0360563 -0.00348694)
(0.00126623 -0.036008 -0.00351433)
(0.00139607 -0.0351193 -0.00355371)
(0.00151526 -0.0333849 -0.00360317)
(0.0016171 -0.030704 -0.00364803)
(0.00169359 -0.0269003 -0.00364776)
(0.00173827 -0.0218519 -0.00354059)
(0.0017566 -0.0153628 -0.00325289)
(0.00176272 -0.00709788 -0.00272638)
(0.00177409 0.00338506 -0.00197025)
(0.00180025 0.0164159 -0.00112755)
(0.00182253 0.031796 -0.000468962)
(0.00177853 0.0483479 -0.00021557)
(0.00158455 0.0636997 -0.000312386)
(0.00122412 0.0744389 -0.000472591)
(0.00081971 0.0777259 -0.000486036)
(0.000395164 0.0697504 -0.000313032)
(3.8509e-05 0.0364419 -1.10853e-05)
(-2.08706e-05 0.014128 0.000625686)
(-8.56945e-05 0.0308032 0.00145499)
(-0.000173881 0.0381163 0.00192336)
(-0.000247739 0.0395062 0.00211899)
(-0.00029732 0.0376272 0.00214345)
(-0.000314456 0.0329036 0.00199531)
(-0.000280302 0.0255853 0.00162085)
(-0.000195324 0.0166979 0.000999082)
(-7.66423e-05 0.00731064 0.00016649)
(5.14524e-05 -0.00172232 -0.000762433)
(0.000169701 -0.00985477 -0.00162972)
(0.000272886 -0.0168532 -0.00230569)
(0.000367751 -0.022699 -0.00273148)
(0.000466669 -0.0274557 -0.00291579)
(0.000583395 -0.0311807 -0.00291335)
(0.000726357 -0.0338952 -0.0028034)
(0.000894471 -0.0356458 -0.0026629)
(0.00108932 -0.0364919 -0.00253727)
(0.00130185 -0.0364385 -0.00246869)
(0.00151792 -0.0354736 -0.00248571)
(0.00171951 -0.0335739 -0.00259032)
(0.0018966 -0.0306337 -0.00277289)
(0.00203193 -0.0265264 -0.00298853)
(0.00211156 -0.0212057 -0.00315264)
(0.00213672 -0.0145639 -0.00315589)
(0.00211837 -0.00634355 -0.00289027)
(0.0020733 0.0038738 -0.00228979)
(0.00201935 0.0165319 -0.00140096)
(0.0019622 0.0317323 -0.000446227)
(0.0018691 0.048634 0.00024385)
(0.00166018 0.0648891 0.000487203)
(0.00128618 0.0766224 0.000432784)
(0.000860642 0.0803353 0.000358181)
(0.000411297 0.0720941 0.000349)
(4.09505e-05 0.0375505 0.000273766)
(-1.44814e-05 0.0141205 0.000618669)
(-8.42128e-05 0.0307579 0.00144945)
(-0.000208939 0.0379582 0.00190282)
(-0.000330819 0.0392129 0.00207417)
(-0.000428354 0.0371508 0.00205384)
(-0.000487251 0.0321875 0.00181333)
(-0.000483536 0.024703 0.00128603)
(-0.00042874 0.0158265 0.000490758)
(-0.000349976 0.00664204 -0.000458706)
(-0.000269647 -0.00207602 -0.00138857)
(-0.000196721 -0.00990775 -0.00213329)
(-0.000126672 -0.0167186 -0.00259167)
(-4.90582e-05 -0.0225347 -0.00273657)
(4.91668e-05 -0.0274181 -0.00259862)
(0.000182813 -0.0313968 -0.00225069)
(0.000364223 -0.0344358 -0.00179814)
(0.000590117 -0.0364674 -0.0013578)
(0.00085874 -0.0375057 -0.00100429)
(0.00116539 -0.0375404 -0.000784373)
(0.00148251 -0.0365328 -0.000745665)
(0.00178819 -0.0344221 -0.00090212)
(0.00206825 -0.0310774 -0.00125925)
(0.00229008 -0.0264408 -0.00176678)
(0.00243178 -0.0205605 -0.002305)
(0.00249045 -0.0134316 -0.00271579)
(0.00247395 -0.00489023 -0.00284124)
(0.00239622 0.00541413 -0.00255937)
(0.00227539 0.0179339 -0.00183951)
(0.00212856 0.0329318 -0.000821919)
(0.0019509 0.0498607 0.000162486)
(0.00168888 0.0665627 0.000774228)
(0.00128971 0.0789224 0.000958422)
(0.000854392 0.0829081 0.000935835)
(0.000402778 0.0744165 0.000821521)
(3.87589e-05 0.038637 0.000457648)
(-8.48547e-06 0.0140295 0.000554146)
(-4.88371e-05 0.0306053 0.0013531)
(-0.000149733 0.0377531 0.00178268)
(-0.000258087 0.0389291 0.00190354)
(-0.000356272 0.0367379 0.00179194)
(-0.000432665 0.0316153 0.00140391)
(-0.000473115 0.0240665 0.000703473)
(-0.000489581 0.015282 -0.000222723)
(-0.00050083 0.00630362 -0.00120402)
(-0.000513866 -0.0021984 -0.00204959)
(-0.000524632 -0.00989939 -0.00261156)
(-0.000523091 -0.0167228 -0.00281356)
(-0.000496317 -0.0227112 -0.00264382)
(-0.000430547 -0.0279178 -0.002141)
(-0.000310595 -0.0323445 -0.00138919)
(-0.000122277 -0.0359076 -0.000518421)
(0.000140003 -0.0384618 0.000312991)
(0.000463642 -0.039893 0.000970848)
(0.000842078 -0.0401611 0.00139902)
(0.00124711 -0.0392024 0.00155562)
(0.00165593 -0.0368998 0.00139882)
(0.00204961 -0.0330647 0.000889207)
(0.0023779 -0.0277165 6.55222e-05)
(0.00260851 -0.021022 -0.000920258)
(0.00272995 -0.0131111 -0.00184788)
(0.0027434 -0.00394066 -0.00249237)
(0.0026573 0.00674719 -0.00266845)
(0.00248637 0.019371 -0.00227138)
(0.00225253 0.0342799 -0.00134678)
(0.00197518 0.0511655 -0.000165084)
(0.00163943 0.0681198 0.000842586)
(0.00121346 0.0809378 0.0013714)
(0.000784237 0.0851191 0.00146578)
(0.000359203 0.0763561 0.00125102)
(3.12382e-05 0.0395096 0.000586127)
(5.46092e-06 0.0138103 0.000411054)
(4.55326e-05 0.0302632 0.00109036)
(4.23724e-05 0.037461 0.00145575)
(1.65929e-05 0.0387042 0.00150539)
(-2.34092e-05 0.0365967 0.00129779)
(-7.57446e-05 0.0316459 0.0007874)
(-0.000149424 0.0243534 -2.11743e-05)
(-0.000246588 0.0158792 -0.000987662)
(-0.000364456 0.00718733 -0.00191893)
(-0.000490412 -0.00113826 -0.00263473)
(-0.000609722 -0.00883389 -0.0030086)
(-0.00070676 -0.0158432 -0.00297742)
(-0.000764594 -0.0222047 -0.00253288)
(-0.00076816 -0.0279568 -0.00171588)
(-0.000701997 -0.0330722 -0.000620961)
(-0.000552418 -0.0374075 0.000599535)
(-0.000313711 -0.0407181 0.00175812)
(4.94156e-06 -0.0427667 0.00269195)
(0.000380957 -0.0434431 0.00332594)
(0.000795732 -0.0426791 0.00365217)
(0.00124065 -0.0402735 0.00362027)
(0.00168763 -0.0359772 0.00314376)
(0.00208891 -0.0298067 0.00219868)
(0.00240242 -0.0220435 0.000908452)
(0.00260301 -0.0129775 -0.000475277)
(0.00268035 -0.00271346 -0.00165628)
(0.00263606 0.00887687 -0.00237645)
(0.00247813 0.022099 -0.00247067)
(0.00222165 0.0372321 -0.00191374)
(0.00189057 0.0540125 -0.000883639)
(0.00150147 0.0707168 0.000229031)
(0.00106588 0.0832947 0.000996627)
(0.000663279 0.0872832 0.00126845)
(0.000291784 0.0781318 0.00113003)
(2.1975e-05 0.0402745 0.000494255)
(2.71833e-05 0.0132246 0.000208023)
(0.00018548 0.0292244 0.000667323)
(0.000343556 0.0364848 0.000919388)
(0.00047049 0.0379517 0.000896598)
(0.000557744 0.0361795 0.000635102)
(0.000603577 0.03179 9.61855e-05)
(0.000579419 0.0251185 -0.000701754)
(0.000484374 0.0171782 -0.00160877)
(0.00034001 0.00883841 -0.00244478)
(0.000173594 0.000635437 -0.00305164)
(1.38882e-05 -0.00716795 -0.003315)
(-0.000114955 -0.0144893 -0.00317031)
(-0.000197551 -0.0213424 -0.00260368)