/*--------------------------------*- C++ -*----------------------------------*\
| =========                 |                                                 |
| \\      /  F ield         | OpenFOAM: The Open Source CFD Toolbox           |
|  \\    /   O peration     | Version:  v2006                                 |
|   \\  /    A nd           | Website:  www.openfoam.com                      |
|    \\/     M anipulation  |                                                 |
\*---------------------------------------------------------------------------*/
FoamFile
{
    version     2.0;
    format      ascii;
    class       volScalarField;
    location    "50";
    object      nut;
}
// * * * * * * * * * * * * * * * * * * * * * * * * * * * * * * * * * * * * * //

dimensions      [0 2 -1 0 0 0 0];


internalField   nonuniform List<scalar> 
78750
(
0.000533202
0.00108586
0.000680542
4.40252e-05
1.07132e-05
8.43048e-05
2.76717e-05
6.31454e-05
4.78621e-05
6.02736e-05
6.24324e-05
6.70782e-05
7.13356e-05
7.45854e-05
7.72478e-05
7.92937e-05
8.07297e-05
8.15697e-05
8.18796e-05
8.17377e-05
8.11957e-05
8.02617e-05
7.89164e-05
7.71646e-05
7.50781e-05
7.27844e-05
7.0381e-05
6.78392e-05
6.49893e-05
6.1592e-05
5.73047e-05
5.13333e-05
4.07614e-05
1.60197e-05
6.16359e-07
1.68966e-05
2.58543e-06
7.03041e-06
7.65713e-05
8.08605e-05
8.19984e-05
0.000109883
0.000124624
0.000139958
0.000153871
0.000167864
0.000180751
0.000191974
0.000202436
0.000211553
0.000218532
0.000223297
0.00022571
0.000225573
0.00022276
0.000217311
0.000209498
0.000199815
0.000188893
0.000177361
0.000165699
0.00015397
0.000141909
0.000129409
0.00011628
0.000102176
8.72453e-05
7.0812e-05
4.32717e-05
2.59746e-06
3.56365e-06
7.4226e-05
0.000106675
0.00013849
0.000195455
0.000278917
0.000284832
0.000285055
0.000284106
0.000282177
0.000279509
0.000276322
0.000272827
0.000269193
0.000265545
0.000261952
0.000258512
0.000255271
0.000252254
0.000249494
0.000247045
0.000244981
0.000243365
0.000242193
0.000241336
0.000240701
0.000240093
0.000199667
0.000154211
0.000120217
9.13069e-05
6.42214e-05
4.18863e-05
3.13242e-05
3.39983e-06
2.14749e-06
8.11193e-05
0.000185786
0.000236092
0.000245085
0.000252622
0.000216169
0.000202266
0.000206966
0.000218156
0.00023077
0.000243858
0.00025654
0.000267343
0.000270282
0.000268054
0.000265449
0.000262568
0.000259492
0.000256303
0.000253065
0.000249831
0.00024664
0.00024352
0.000240492
0.000237578
0.000224416
0.000193666
0.000154253
0.000112144
7.34873e-05
4.36628e-05
2.78673e-05
2.66552e-05
4.24775e-06
7.54107e-07
4.03641e-05
5.73244e-05
6.87305e-05
7.90563e-05
9.30863e-05
0.000116233
0.000153401
0.000203208
0.000245225
0.000250701
0.000255661
0.000259871
0.000263238
0.000265803
0.000267637
0.000268781
0.000269291
0.000269225
0.000268619
0.000267497
0.000265872
0.000263744
0.000261106
0.000257947
0.000254271
0.000250117
0.000245574
0.000240814
0.000216824
0.000118622
4.72484e-05
1.90777e-05
1.54159e-05
4.71861e-06
1.90822e-06
3.56454e-05
6.97148e-05
7.7754e-05
7.41833e-05
6.7373e-05
6.15886e-05
5.88196e-05
5.94482e-05
6.33795e-05
7.17051e-05
8.87773e-05
0.000122455
0.000176155
0.000224415
0.000227841
0.000231441
0.000230933
0.000221188
0.000212639
0.000207438
0.000205141
0.000204652
0.000205239
0.000206383
0.00020737
0.000207357
0.000205025
0.000198432
0.000187386
0.000165596
0.000103279
3.52431e-05
1.74372e-05
4.59117e-06
3.58999e-06
8.97416e-05
0.000232655
0.000240019
0.000244549
0.000211715
0.000153778
0.000119888
0.000100976
8.98634e-05
8.3244e-05
7.99733e-05
8.03037e-05
8.66162e-05
0.000106067
0.000151597
0.000223818
0.000238588
0.000239698
0.000241242
0.00024312
0.000229026
0.000209861
0.000196202
0.000187485
0.000182635
0.00018013
0.000177666
0.000172468
0.00016165
0.000139062
9.28792e-05
4.27462e-05
2.47384e-05
5.51113e-06
1.94484e-06
2.80406e-05
7.28094e-05
0.000119624
0.000149554
0.000159187
0.000151228
0.000132168
0.000114134
0.000103317
9.77728e-05
9.35573e-05
8.90769e-05
8.47467e-05
8.28016e-05
8.99991e-05
0.000117961
0.000178268
0.000249446
0.000252829
0.00025482
0.000237734
0.000216179
0.000202879
0.000195264
0.000190169
0.000185291
0.000178828
0.000169272
0.000155406
0.000134021
9.39924e-05
4.66052e-05
2.94991e-05
5.64401e-06
3.06637e-06
2.18377e-05
5.64765e-05
8.28818e-05
9.62371e-05
9.89266e-05
9.15316e-05
7.78748e-05
6.81918e-05
6.74258e-05
7.10068e-05
6.91663e-05
6.27293e-05
6.331e-05
7.96267e-05
0.000116805
0.000163951
0.000200127
0.000220875
0.000232287
0.000242891
0.000252228
0.000252522
0.000243805
0.000231244
0.000217468
0.000202832
0.000187083
0.000169447
0.000148082
0.000119981
8.41405e-05
5.38452e-05
4.76325e-05
6.32799e-06
4.58492e-06
3.42459e-05
5.34025e-05
5.83691e-05
5.9357e-05
5.77674e-05
5.44017e-05
5.30301e-05
5.92748e-05
7.5198e-05
9.51489e-05
0.000107728
9.80063e-05
7.35802e-05
5.96186e-05
5.98657e-05
7.73184e-05
0.000129385
0.000238355
0.000281725
0.000211483
0.000165501
0.000156868
0.000174783
0.000203729
0.000219123
0.000209598
0.000184051
0.000152205
0.000118294
8.53497e-05
5.95442e-05
4.86431e-05
6.27463e-05
6.242e-06
2.73026e-06
1.56407e-05
3.75259e-05
6.7281e-05
8.62812e-05
9.10722e-05
8.84164e-05
8.13977e-05
7.16429e-05
6.04479e-05
4.77936e-05
3.43816e-05
2.3664e-05
1.85696e-05
1.90332e-05
2.13821e-05
1.67106e-05
1.5515e-05
2.17262e-05
4.09558e-05
9.54869e-05
0.000215808
0.000303196
0.000311751
0.000290966
0.000264812
0.000239507
0.000213049
0.000180273
0.000138437
9.52944e-05
6.57661e-05
5.82919e-05
8.07151e-05
5.77443e-06
3.30404e-06
2.41556e-05
9.14743e-05
0.000167724
0.000192583
0.000176605
0.000145905
0.000120158
0.000104517
9.74622e-05
9.68546e-05
0.000101066
0.000108373
0.000114839
0.000113609
9.99487e-05
7.9088e-05
6.37513e-05
5.73122e-05
5.56103e-05
5.6602e-05
6.17788e-05
7.09007e-05
8.24433e-05
9.43276e-05
0.000105867
0.000116787
0.000125158
0.000126503
0.000116118
9.36152e-05
6.91095e-05
6.0604e-05
8.12452e-05
5.76475e-06
4.54412e-06
2.91513e-05
8.40833e-05
0.000119242
0.000119227
0.000107262
9.51002e-05
8.62462e-05
8.01662e-05
7.5763e-05
7.26748e-05
7.1004e-05
7.05195e-05
7.02541e-05
6.92941e-05
6.82781e-05
6.89758e-05
7.22985e-05
7.66697e-05
7.72802e-05
7.05116e-05
5.89187e-05
4.76022e-05
4.16964e-05
4.7177e-05
6.45073e-05
8.4259e-05
9.75096e-05
0.000104268
0.000105193
9.3705e-05
7.08335e-05
5.94444e-05
7.20682e-05
6.38855e-06
3.20018e-06
1.71427e-05
6.13261e-05
0.000109478
0.000103665
8.93123e-05
8.18914e-05
8.1065e-05
8.49421e-05
9.15455e-05
9.77601e-05
9.96226e-05
9.56381e-05
8.83691e-05
8.13828e-05
7.68752e-05
7.59734e-05
7.92309e-05
8.59035e-05
9.17747e-05
8.98355e-05
7.75453e-05
5.87592e-05
3.96982e-05
2.66467e-05
2.43034e-05
3.32158e-05
4.91783e-05
6.25013e-05
6.63052e-05
6.43234e-05
6.11412e-05
6.35111e-05
6.58471e-05
7.09603e-06
5.40914e-06
3.19103e-05
0.000136463
0.00011036
7.67017e-05
6.81518e-05
7.00665e-05
7.60516e-05
8.38481e-05
9.39737e-05
0.000108973
0.000130554
0.000154624
0.000169577
0.000164847
0.000142211
0.000115512
9.67718e-05
8.93238e-05
9.1902e-05
9.98661e-05
0.000103198
9.22159e-05
6.87833e-05
4.36579e-05
2.73166e-05
2.34073e-05
2.88678e-05
3.99023e-05
5.32056e-05
6.22926e-05
6.63901e-05
7.30127e-05
5.18417e-05
6.56565e-06
7.8968e-06
9.25397e-05
5.35497e-05
3.04732e-05
3.2454e-05
4.85983e-05
7.38253e-05
9.91592e-05
0.000120998
0.000141248
0.000160525
0.000176657
0.000186354
0.00018659
0.000175038
0.000152988
0.00012833
0.00011069
0.000104642
0.000109408
0.00011913
0.000122862
0.000112329
9.03768e-05
6.53362e-05
4.40652e-05
3.11696e-05
2.81938e-05
3.38229e-05
4.45283e-05
5.38114e-05
5.64846e-05
6.00894e-05
5.10504e-05
6.1911e-06
8.31903e-06
8.03676e-05
2.3355e-05
2.04622e-05
5.72049e-05
0.000143767
0.000182107
0.0001934
0.000195839
0.000197103
0.000198678
0.000200302
0.000200849
0.000197959
0.000188352
0.000170091
0.000146259
0.000124783
0.000112328
0.000110883
0.000117921
0.000125748
0.000124241
0.000109542
8.65127e-05
6.18591e-05
4.07368e-05
2.73263e-05
2.35347e-05
2.69741e-05
3.20221e-05
3.76455e-05
5.06688e-05
5.95269e-05
7.44809e-06
8.04627e-06
7.47457e-05
2.00078e-05
2.18537e-05
0.000102109
0.000184815
0.00019127
0.000189745
0.000194677
0.000203398
0.000211668
0.000216999
0.000218199
0.000214445
0.000205425
0.000192221
0.00017772
0.000165768
0.000159324
0.000159422
0.000164179
0.000167497
0.000161393
0.00014204
0.000111778
7.65921e-05
4.40082e-05
2.25483e-05
1.52867e-05
1.93243e-05
3.00383e-05
4.56647e-05
6.68381e-05
5.76424e-05
7.36776e-06
7.91156e-06
0.000118698
2.5365e-05
1.63514e-05
4.01307e-05
0.000122588
0.000185577
0.000213421
0.000229588
0.000237517
0.000239546
0.000237976
0.000233694
0.000227159
0.000218982
0.000209997
0.000201262
0.000193933
0.000188706
0.000184987
0.000180387
0.000171457
0.000155754
0.00013384
0.00010823
8.15256e-05
5.56661e-05
3.41499e-05
2.22747e-05
2.13847e-05
2.85615e-05
4.1198e-05
5.49748e-05
5.27876e-05
5.50538e-06
7.77734e-06
7.18917e-05
3.26205e-05
1.4204e-05
1.74778e-05
4.88371e-05
0.000115161
0.000180303
0.000222362
0.000245847
0.000255717
0.000256754
0.000252962
0.000246593
0.000238639
0.000229848
0.000221127
0.000213232
0.000206406
0.000200093
0.000192687
0.000182003
0.000166455
0.00014619
0.000122995
9.90903e-05
7.72061e-05
5.9145e-05
4.59709e-05
3.83666e-05
3.40046e-05
2.80347e-05
2.89696e-05
4.83259e-05
4.51767e-06
7.2371e-06
6.32379e-05
3.7467e-05
1.61128e-05
1.62843e-05
3.63546e-05
7.72011e-05
0.000128525
0.000168332
0.000191715
0.000206893
0.000217981
0.000225849
0.000230796
0.000232969
0.000232726
0.000230609
0.000227244
0.000223194
0.000218741
0.000213623
0.000206969
0.000197555
0.000184334
0.000167071
0.000146576
0.000124345
0.000103036
8.51509e-05
7.11194e-05
5.59268e-05
2.20977e-05
1.54026e-05
2.98176e-05
5.1854e-06
6.74595e-06
4.22819e-05
9.64449e-05
3.81178e-05
1.91951e-05
1.84565e-05
2.56608e-05
4.19749e-05
7.11773e-05
0.000108446
0.000138859
0.000160161
0.000178955
0.000197031
0.000212767
0.000225173
0.000234138
0.000239823
0.000242666
0.000243346
0.000242442
0.000240144
0.000236092
0.000229444
0.000219142
0.000204326
0.000184897
0.000161204
0.000134529
0.000106191
6.96859e-05
1.98992e-05
1.42796e-05
3.30938e-05
6.05967e-06
6.10641e-06
3.08639e-05
7.70398e-05
9.58588e-05
5.68098e-05
2.78069e-05
1.95505e-05
1.77429e-05
2.05405e-05
3.02296e-05
5.15832e-05
8.6657e-05
0.000122698
0.00014944
0.000173003
0.000196647
0.000218346
0.000236148
0.000249275
0.000257648
0.000261861
0.00026284
0.000261163
0.000256655
0.000248424
0.000235256
0.000216116
0.000190504
0.000158554
0.000120044
6.56102e-05
2.0078e-05
1.63765e-05
4.68423e-05
5.9373e-06
5.76949e-06
2.92852e-05
7.36477e-05
0.000101094
0.000108303
9.83409e-05
5.66462e-05
3.25116e-05
2.18837e-05
1.68479e-05
1.58055e-05
1.98584e-05
3.40728e-05
6.49721e-05
0.000104313
0.000141543
0.000177642
0.000210884
0.000237504
0.000255765
0.000265622
0.000268223
0.000265426
0.000258725
0.000248542
0.000234381
0.000215423
0.000191034
0.000160924
0.000123154
7.22799e-05
2.89485e-05
2.19698e-05
5.73332e-05
5.28606e-06
5.7873e-06
3.05876e-05
9.94645e-05
0.000134255
0.00014135
0.000152832
0.000161193
0.000140865
8.20684e-05
4.46248e-05
2.64862e-05
1.5672e-05
1.09596e-05
1.55765e-05
3.63471e-05
7.39127e-05
0.000110754
0.00014653
0.000184314
0.000220142
0.000246801
0.000259601
0.000259531
0.000251232
0.000238796
0.000223921
0.000206409
0.000185263
0.00015931
0.000126672
8.48345e-05
4.59364e-05
3.49502e-05
6.31667e-05
5.05182e-06
5.93116e-06
2.78402e-05
8.28859e-05
0.000121695
0.000120367
0.000101413
9.0851e-05
0.000102362
0.000137866
0.00017162
0.000123878
4.32723e-05
1.38769e-05
6.00652e-06
1.03778e-05
2.97638e-05
7.81117e-05
0.000147033
0.000204129
0.000244303
0.00026569
0.000274078
0.000266003
0.000250699
0.00023366
0.000216974
0.000200282
0.000182128
0.00016075
0.000134221
0.000101003
6.78522e-05
5.42757e-05
6.9827e-05
5.32884e-06
6.44657e-06
3.43475e-05
0.000101275
0.000139222
0.000148037
0.000140951
0.000113841
8.3496e-05
7.24362e-05
8.4789e-05
0.000117152
0.000107549
2.64319e-05
5.83345e-06
4.78603e-06
1.78901e-05
4.5412e-05
8.69264e-05
0.000133343
0.000172405
0.000200508
0.000218842
0.000226792
0.000224556
0.000215435
0.000203316
0.00018997
0.000175144
0.000157565
0.000135614
0.000108526
8.15678e-05
6.96911e-05
7.80654e-05
6.00184e-06
6.48316e-06
3.51137e-05
0.000113626
0.000153677
0.000153295
0.000138976
0.000121274
0.000100807
7.91589e-05
6.53229e-05
6.11543e-05
5.76625e-05
3.88193e-05
1.54247e-05
7.28714e-06
1.43503e-05
4.05413e-05
9.96497e-05
0.00017802
0.000198095
0.000181931
0.000169779
0.000169061
0.000173736
0.00017661
0.000174777
0.000168707
0.000159125
0.000145773
0.000127734
0.000105183
8.42372e-05
7.74067e-05
8.3104e-05
6.72813e-06
6.83473e-06
3.81616e-05
0.000116724
0.000144695
0.000134815
0.000113393
9.60851e-05
9.10117e-05
9.66783e-05
0.000105506
0.000113421
0.000127951
0.000143798
9.93151e-05
3.37884e-05
1.22369e-05
7.96486e-06
1.78006e-05
4.36933e-05
8.4537e-05
0.000126048
0.000145429
0.000148595
0.000149283
0.000151761
0.000153829
0.000152737
0.000147209
0.000136699
0.000120739
0.000100572
8.36424e-05
8.15792e-05
8.52055e-05
7.38414e-06
7.11588e-06
3.96609e-05
0.000121594
0.000145097
0.000133215
0.000108073
8.37132e-05
6.88188e-05
6.3823e-05
6.61387e-05
7.16064e-05
7.72252e-05
8.74988e-05
0.000111947
0.000133603
3.82769e-05
1.12133e-05
9.16428e-06
2.54262e-05
5.67223e-05
9.9145e-05
0.000139062
0.000155192
0.000153408
0.000148165
0.000144787
0.000141984
0.000137042
0.000127972
0.000114036
9.72719e-05
8.52826e-05
8.77929e-05
8.24374e-05
7.94419e-06
7.07337e-06
4.35174e-05
0.00013163
0.000144984
0.000123586
9.79189e-05
8.5313e-05
8.83127e-05
0.000103443
0.00012325
0.000136976
0.000135344
0.000117639
9.32311e-05
6.76406e-05
3.9793e-05
1.48182e-05
7.34168e-06
1.61829e-05
4.11415e-05
7.72114e-05
0.000118433
0.000142989
0.000144522
0.000136843
0.000129964
0.000125424
0.000121019
0.0001143
0.000104244
9.28982e-05
8.67855e-05
9.30068e-05
7.45289e-05
8.32128e-06
7.04811e-06
4.06173e-05
0.000128571
0.000140069
0.000113272
8.06267e-05
6.2021e-05
5.73289e-05
6.33317e-05
7.97094e-05
0.000105883
0.000134251
0.000148008
0.000128906
7.99217e-05
3.60581e-05
1.29315e-05
5.3422e-06
1.42634e-05
3.96391e-05
7.14991e-05
0.00010989
0.000135992
0.000138168
0.000128011
0.000117502
0.000110348
0.000105324
0.000100209
9.39235e-05
8.79669e-05
8.70717e-05
9.49156e-05
6.31282e-05
8.26521e-06
6.84143e-06
4.13609e-05
0.000128668
0.000134587
0.000104258
7.6636e-05
6.70878e-05
7.32986e-05
9.05683e-05
0.000111151
0.000127046
0.000134495
0.000130103
0.000108488
7.13117e-05
3.51394e-05
1.35527e-05
5.1791e-06
1.0538e-05
3.49714e-05
6.24026e-05
9.25875e-05
0.000117907
0.000126317
0.000119734
0.000108325
9.86366e-05
9.19645e-05
8.72242e-05
8.35148e-05
8.16968e-05
8.46492e-05
9.24933e-05
5.2391e-05
8.02891e-06
6.78832e-06
3.8165e-05
0.000124113
0.000129876
9.42701e-05
6.23551e-05
4.90585e-05
4.9479e-05
6.15585e-05
8.6038e-05
0.000117938
0.00014117
0.000139417
0.000107966
6.31552e-05
2.91383e-05
1.10019e-05
3.48308e-06
8.55788e-06
3.50051e-05
5.76636e-05
7.7909e-05
9.58144e-05
0.000107246
0.000108896
0.000102324
9.26499e-05
8.405e-05
7.81208e-05
7.51125e-05
7.56265e-05
8.10646e-05
8.82901e-05
4.39071e-05
7.69634e-06
6.75575e-06
3.91115e-05
0.000128704
0.000124715
8.22877e-05
5.66327e-05
5.10088e-05
5.76692e-05
7.27296e-05
9.41616e-05
0.000117997
0.000135536
0.000135891
0.000112166
7.16081e-05
3.53722e-05
1.39588e-05
3.79929e-06
2.86056e-06
2.64331e-05
4.89919e-05
6.31425e-05
7.32564e-05
8.09967e-05
8.64995e-05
8.87119e-05
8.6383e-05
8.04128e-05
7.39829e-05
7.02053e-05
7.10383e-05
7.73839e-05
8.37966e-05
3.79856e-05
7.36684e-06
6.71901e-06
3.65482e-05
0.00012153
0.000112869
6.62039e-05
4.24681e-05
3.79449e-05
4.51066e-05
6.28668e-05
9.06817e-05
0.00012154
0.000142238
0.000142305
0.0001188
7.99797e-05
4.32777e-05
1.91702e-05
6.26975e-06
7.20196e-07
1.16178e-05
4.25055e-05
5.56167e-05
6.14739e-05
6.46609e-05
6.6776e-05
6.90214e-05
7.15373e-05
7.31082e-05
7.24442e-05
7.08671e-05
7.17719e-05
7.70562e-05
8.04806e-05
3.45132e-05
6.97779e-06
6.87972e-06
3.8638e-05
0.00012378
0.000101483
5.64445e-05
3.886e-05
3.84266e-05
4.86017e-05
6.77389e-05
9.43437e-05
0.000122945
0.000143535
0.000146817
0.000129201
9.56677e-05
5.89316e-05
3.0623e-05
1.33578e-05
3.99792e-06
1.91678e-06
2.232e-05
4.90165e-05
5.68139e-05
5.81068e-05
5.73123e-05
5.63507e-05
5.67168e-05
5.91006e-05
6.33886e-05
6.86727e-05
7.42717e-05
8.00204e-05
7.98063e-05
3.37638e-05
6.61543e-06
6.85362e-06
3.75996e-05
0.000119316
9.03513e-05
4.64697e-05
3.16601e-05
3.28761e-05
4.53742e-05
6.86673e-05
9.96117e-05
0.000129868
0.00014982
0.000153253
0.000138849
0.000110546
7.68531e-05
4.68034e-05
2.5381e-05
1.22807e-05
5.34374e-06
6.35341e-06
2.67524e-05
4.9579e-05
5.62364e-05
5.57789e-05
5.28024e-05
5.00225e-05
4.92196e-05
5.14957e-05
5.77761e-05
6.78712e-05
7.83988e-05
8.04577e-05
3.60408e-05
6.36058e-06
6.99427e-06
3.89322e-05
0.000118063
8.55772e-05
4.38683e-05
2.9719e-05
3.07209e-05
4.28537e-05
6.64077e-05
9.89566e-05
0.000131603
0.000153699
0.000159408
0.000148597
0.000125243
9.56878e-05
6.64778e-05
4.23571e-05
2.53905e-05
1.49513e-05
9.98436e-06
1.23829e-05
2.77568e-05
4.61206e-05
5.41108e-05
5.43523e-05
5.06205e-05
4.64975e-05
4.44371e-05
4.63932e-05
5.45326e-05
6.89266e-05
8.03375e-05
4.15215e-05
6.2843e-06
6.99499e-06
3.87019e-05
0.000114241
8.40675e-05
4.28307e-05
2.79099e-05
2.81317e-05
3.96488e-05
6.28678e-05
9.5559e-05
0.000129308
0.00015367
0.000162539
0.000155729
0.000137119
0.000112159
8.58959e-05
6.20196e-05
4.2709e-05
2.89415e-05
2.04762e-05
1.7036e-05
2.01713e-05
3.17164e-05
4.5303e-05
5.27924e-05
5.38154e-05
5.01493e-05
4.44486e-05
4.02195e-05
4.1644e-05
5.31559e-05
7.47444e-05
5.04867e-05
6.43405e-06
7.06312e-06
3.94821e-05
0.0001138
8.74164e-05
4.54844e-05
2.76583e-05
2.53375e-05
3.43859e-05
5.58738e-05
8.90116e-05
0.000125604
0.000153626
0.000165775
0.000161976
0.000146582
0.000125016
0.000101738
7.97111e-05
6.06267e-05
4.53126e-05
3.41143e-05
2.71199e-05
2.48075e-05
2.83769e-05
3.73795e-05
4.70892e-05
5.29347e-05
5.3639e-05
4.85954e-05
3.9231e-05
3.30322e-05
3.80933e-05
6.08124e-05
6.08145e-05
6.8398e-06
7.0592e-06
4.01315e-05
0.000113122
9.34431e-05
5.20631e-05
3.02532e-05
2.4494e-05
2.99678e-05
4.73994e-05
7.73244e-05
0.000113828
0.000145187
0.000162328
0.000163607
0.00015283
0.000135309
0.000115343
9.56123e-05
7.75594e-05
6.19022e-05
4.89843e-05
3.90963e-05
3.29314e-05
3.1533e-05
3.52693e-05
4.23236e-05
4.9021e-05
5.20788e-05
4.85208e-05
3.71847e-05
2.78321e-05
3.04287e-05
5.20078e-05
6.6651e-05
7.47589e-06
6.93907e-06
3.88513e-05
0.000112361
0.00010347
6.38541e-05
3.56021e-05
2.44765e-05
2.49813e-05
3.67018e-05
6.18276e-05
9.82769e-05
0.000135099
0.000159917
0.000167972
0.000162069
0.000147863
0.000130177
0.000111888
9.43312e-05
7.80367e-05
6.32694e-05
5.04395e-05
4.05713e-05
3.52904e-05
3.54565e-05
3.97098e-05
4.46596e-05
4.63533e-05
4.17265e-05
3.20884e-05
2.59035e-05
3.0552e-05
5.49492e-05
6.50236e-05
8.05518e-06
6.89116e-06
3.81944e-05
0.000114167
0.000112589
7.76567e-05
4.60311e-05
2.85635e-05
2.29702e-05
2.78061e-05
4.52567e-05
7.80097e-05
0.000120637
0.000158189
0.000178865
0.000181391
0.000171191
0.000154489
0.000135406
0.00011589
9.66506e-05
7.80056e-05
6.05405e-05
4.57738e-05
3.63302e-05
3.38642e-05
3.6546e-05
3.97225e-05
3.92458e-05
3.4653e-05
2.93152e-05
2.82182e-05
3.76934e-05
6.84795e-05
5.72455e-05
8.16042e-06
6.89433e-06
3.75361e-05
0.000116338
0.000111483
7.59449e-05
5.13332e-05
3.55862e-05
2.57073e-05
2.44656e-05
3.45869e-05
6.08468e-05
0.000105674
0.000157962
0.000197626
0.00021372
0.000209094
0.000192378
0.000170177
0.000145757
0.000120477
9.50244e-05
7.04699e-05
4.91868e-05
3.48184e-05
2.96648e-05
3.15778e-05
3.45669e-05
3.42654e-05
3.18257e-05
3.07642e-05
3.49241e-05
5.11611e-05
8.62855e-05
4.79044e-05
8.04688e-06
7.10226e-06
3.87845e-05
0.000119694
0.000100591
6.17725e-05
4.49671e-05
3.82313e-05
3.09653e-05
2.63665e-05
3.12474e-05
5.16184e-05
9.51534e-05
0.000160819
0.000224015
0.000237958
0.000236368
0.00023343
0.000213256
0.000180359
0.000146667
0.000113104
8.08105e-05
5.29628e-05
3.37527e-05
2.5427e-05
2.61385e-05
3.00663e-05
3.19795e-05
3.24503e-05
3.51893e-05
4.46155e-05
6.69236e-05
9.66182e-05
4.06223e-05
7.7827e-06
7.37478e-06
4.22634e-05
0.00012169
7.93246e-05
4.57199e-05
3.64678e-05
3.61589e-05
3.47776e-05
3.14394e-05
3.44258e-05
5.22889e-05
9.53883e-05
0.000168361
0.000237198
0.000237199
0.000236107
0.000233825
0.000230307
0.000207193
0.000167231
0.000128094
9.14414e-05
5.9356e-05
3.60318e-05
2.38702e-05
2.17514e-05
2.54578e-05
2.98297e-05
3.36466e-05
4.00069e-05
5.36794e-05
7.80495e-05
9.74923e-05
3.61266e-05
7.51479e-06
7.53942e-06
4.71197e-05
0.000111659
5.59171e-05
3.3953e-05
3.14052e-05
3.53197e-05
3.75481e-05
3.72489e-05
4.17126e-05
6.02905e-05
0.000102871
0.000168065
0.000225789
0.000237775
0.000236989
0.000235253
0.00023251
0.000207091
0.00017216
0.000136216
0.000101224
6.87552e-05
4.26175e-05
2.62293e-05
1.99187e-05
2.1231e-05
2.61169e-05
3.22758e-05
4.1388e-05
5.73043e-05
8.07796e-05
9.40843e-05
3.3736e-05
7.34685e-06
7.45985e-06
4.99471e-05
9.16316e-05
4.27621e-05
2.83012e-05
2.9367e-05
3.60437e-05
4.05457e-05
4.28817e-05
4.97135e-05
6.85536e-05
0.00010449
0.000151356
0.000192268
0.000215771
0.000223135
0.000220221
0.000209637
0.000191615
0.000167476
0.000139575
0.000109776
7.97795e-05
5.26522e-05
3.24631e-05
2.14432e-05
1.88361e-05
2.19469e-05
2.81552e-05
3.78396e-05
5.38472e-05
7.63673e-05
8.93724e-05
3.26111e-05
7.29538e-06
7.19743e-06
4.72237e-05
8.77613e-05
4.43283e-05
2.79825e-05
2.66214e-05
3.24543e-05
3.94228e-05
4.50623e-05
5.35053e-05
7.06052e-05
9.94684e-05
0.000135778
0.00016889
0.00019058
0.000199997
0.000200375
0.000194158
0.000182057
0.000164518
0.00014257
0.000117478
9.0541e-05
6.38632e-05
4.10898e-05
2.58334e-05
1.9073e-05
1.92483e-05
2.38633e-05
3.22486e-05
4.66253e-05
6.84461e-05
8.45659e-05
3.2085e-05
7.31538e-06
6.9196e-06
4.13062e-05
9.78607e-05
6.42085e-05
3.47589e-05
2.45382e-05
2.47598e-05
3.07575e-05
3.91355e-05
4.92867e-05
6.46883e-05
8.90828e-05
0.000121634
0.000154988
0.00018016
0.000193403
0.000196426
0.000192194
0.000182396
0.000167653
0.000148486
0.000125685
0.00010025
7.37663e-05
4.92868e-05
3.08881e-05
2.08649e-05
1.84474e-05
2.13002e-05
2.80854e-05
4.05948e-05
6.17642e-05
8.13126e-05
3.18287e-05
7.35203e-06
6.74296e-06
3.76248e-05
0.000100858
9.24006e-05
5.50668e-05
3.06827e-05
2.2256e-05
2.23949e-05
2.80606e-05
3.79753e-05
5.24873e-05
7.41485e-05
0.000104915
0.000141378
0.000174311
0.000195636
0.000203739
0.000201415
0.000191837
0.000176923
0.000157644
0.000134673
0.000108759
8.12316e-05
5.49611e-05
3.4302e-05
2.22888e-05
1.85081e-05
2.05469e-05
2.65405e-05
3.80879e-05
5.91336e-05
8.07374e-05
3.16069e-05
7.36561e-06
6.63779e-06
3.61689e-05
0.000104571
0.000109398
8.37413e-05
5.02029e-05
2.98556e-05
2.18279e-05
2.10762e-05
2.59207e-05
3.65682e-05
5.43197e-05
8.15255e-05
0.000118567
0.000159011
0.000191469
0.000208686
0.000211101
0.000202736
0.000187269
0.000166919
0.00014279
0.000115551
8.63483e-05
5.81266e-05
3.56484e-05
2.24216e-05
1.82318e-05
2.06828e-05
2.72291e-05
3.89974e-05
6.03306e-05
8.19788e-05
3.11422e-05
7.33144e-06
6.6344e-06
3.54617e-05
0.000107724
0.000114375
9.09275e-05
6.77194e-05
4.7449e-05
3.15131e-05
2.29802e-05
2.09658e-05
2.4992e-05
3.61933e-05
5.70371e-05
9.03644e-05
0.000134209
0.000176833
0.000204659
0.000213952
0.00020881
0.000194289
0.000173756
0.000148951
0.000120709
9.01699e-05
6.03751e-05
3.6395e-05
2.20045e-05
1.72371e-05
2.03484e-05
2.87369e-05
4.20298e-05
6.34222e-05
8.22794e-05
3.00452e-05
7.22868e-06
6.70116e-06
3.41304e-05
0.000104817
0.000109879
7.94392e-05
5.96797e-05
5.40545e-05
4.81036e-05
3.51811e-05
2.52044e-05
2.20181e-05
2.59015e-05
3.85179e-05
6.34351e-05
0.000103333
0.000151519
0.000190424
0.000208825
0.000208982
0.000197128
0.000177765
0.000153342
0.000125065
9.41423e-05
6.34972e-05
3.82381e-05
2.23893e-05
1.62445e-05
1.87885e-05
2.87059e-05
4.4336e-05
6.5498e-05
7.93522e-05
2.82517e-05
7.07044e-06
6.93757e-06
3.45533e-05
0.000105063
0.000106208
6.98866e-05
4.92341e-05
4.66342e-05
5.28729e-05
5.22879e-05
3.8512e-05
2.71612e-05
2.39735e-05
2.93e-05
4.55843e-05
7.75147e-05
0.000125246
0.000172894
0.000200381
0.000205689
0.000196595
0.00017898
0.000155841
0.000128683
9.86721e-05
6.82541e-05
4.20976e-05
2.45175e-05
1.63337e-05
1.68131e-05
2.60472e-05
4.31931e-05
6.43369e-05
7.36354e-05
2.61134e-05
6.89196e-06
7.25737e-06
3.74349e-05
0.000111257
9.7308e-05
5.91469e-05
4.30044e-05
4.29116e-05
5.2149e-05
6.15681e-05
5.53882e-05
3.88106e-05
2.85129e-05
2.7673e-05
3.67714e-05
5.90775e-05
9.78448e-05
0.000145274
0.000180111
0.000192254
0.000187724
0.000173625
0.000153672
0.000129602
0.000102487
7.40711e-05
4.80545e-05
2.88469e-05
1.82869e-05
1.59541e-05
2.22802e-05
3.84471e-05
6.01649e-05
6.76696e-05
2.41915e-05
6.73708e-06
7.46545e-06
4.08834e-05
0.000113537
8.31751e-05
4.87485e-05
3.84124e-05
4.22676e-05
5.40454e-05
6.55626e-05
6.48999e-05
5.04496e-05
3.62737e-05
3.06152e-05
3.45438e-05
4.96377e-05
7.85254e-05
0.000118258
0.000153353
0.000170329
0.000170775
0.000161246
0.000145805
0.00012633
0.000103801
7.92995e-05
5.51895e-05
3.52693e-05
2.24353e-05
1.72071e-05
1.9883e-05
3.26751e-05
5.47794e-05
6.37121e-05
2.29045e-05
6.6347e-06
7.38063e-06
4.07778e-05
0.000109016
7.87016e-05
4.57623e-05
3.51443e-05
3.85625e-05
5.10117e-05
6.47136e-05
6.82956e-05
5.85806e-05
4.47753e-05
3.62862e-05
3.61443e-05
4.55208e-05
6.56914e-05
9.5657e-05
0.00012642
0.00014584
0.000151026
0.000146204
0.000135317
0.000120477
0.000102764
8.29248e-05
6.21801e-05
4.30423e-05
2.86412e-05
2.07719e-05
2.00957e-05
2.87473e-05
4.9633e-05
6.28664e-05
2.25685e-05
6.59326e-06
7.161e-06
3.792e-05
0.000106621
9.14754e-05
5.36051e-05
3.42777e-05
3.10934e-05
3.85203e-05
5.24366e-05
6.35565e-05
6.28207e-05
5.31584e-05
4.40721e-05
4.10937e-05
4.61694e-05
6.01887e-05
8.2816e-05
0.000108827
0.000128472
0.00013649
0.000134801
0.000126956
0.000115277
0.000101047
8.50266e-05
6.78655e-05
5.07967e-05
3.61221e-05
2.62983e-05
2.28969e-05
2.80456e-05
4.63195e-05
6.48614e-05
2.33387e-05
6.60893e-06
7.05063e-06
3.56463e-05
0.000105732
0.000104129
6.57603e-05
3.80007e-05
2.78715e-05
2.89398e-05
3.85219e-05
5.27098e-05
6.19862e-05
6.04085e-05
5.34884e-05
4.898e-05
5.06727e-05
5.97852e-05
7.64178e-05
9.78059e-05
0.000116753
0.00012678
0.00012741
0.00012148
0.000111561
9.92857e-05
8.56856e-05
7.13821e-05
5.68898e-05
4.33254e-05
3.27625e-05
2.74963e-05
3.0157e-05
4.57998e-05
6.83256e-05
2.50928e-05
6.66874e-06
7.1727e-06
3.54977e-05
0.000109069
0.000103881
6.49683e-05
4.1874e-05
3.07959e-05
2.69411e-05
3.0722e-05
4.18872e-05
5.56822e-05
6.33746e-05
6.25671e-05
5.91422e-05
5.88141e-05
6.40362e-05
7.54812e-05
9.19183e-05
0.000108636
0.00011941
0.000121755
0.000117248
0.000108372
9.70628e-05
8.47203e-05
7.22721e-05
6.01209e-05
4.85531e-05
3.8675e-05
3.27597e-05
3.4059e-05
4.79184e-05
7.19946e-05
2.7363e-05
6.75532e-06
7.41979e-06
3.63878e-05
0.000110588
9.29218e-05
5.20251e-05
3.73086e-05
3.41589e-05
3.10266e-05
3.0124e-05
3.63279e-05
4.91529e-05
6.23006e-05
6.88181e-05
6.92102e-05
6.86104e-05
7.07911e-05
7.74702e-05
8.86893e-05
0.000101873
0.000112067
0.000115624
0.000112491
0.000104562
9.38501e-05
8.20861e-05
7.06518e-05
6.02533e-05
5.08872e-05
4.27565e-05
3.75122e-05
3.86493e-05
5.17296e-05
7.54772e-05
2.94964e-05
6.84835e-06
7.67191e-06
3.7846e-05
0.000110674
8.32295e-05
4.27138e-05
3.07408e-05
3.25945e-05
3.57254e-05
3.40765e-05
3.56249e-05
4.51021e-05
5.99074e-05
7.25499e-05
7.82754e-05
7.89991e-05
7.89703e-05
8.13358e-05
8.74851e-05
9.65235e-05
0.000104988
0.000108991
0.000107036
0.000100053
8.9842e-05
7.83204e-05
6.73029e-05
5.79911e-05
5.05248e-05
4.45855e-05
4.10242e-05
4.30855e-05
5.6251e-05
7.85824e-05
3.08824e-05
6.92236e-06
7.77025e-06
3.94881e-05
0.000111254
7.686e-05
3.87986e-05
2.72019e-05
2.94944e-05
3.70585e-05
3.9188e-05
3.86189e-05
4.43418e-05
5.79754e-05
7.40564e-05
8.50224e-05
8.83955e-05
8.72634e-05
8.6018e-05
8.75609e-05
9.24277e-05
9.85163e-05
0.000102283
0.000101235
9.52024e-05
8.55289e-05
7.41556e-05
6.322e-05
5.44227e-05
4.82917e-05
4.44169e-05
4.30181e-05
4.67431e-05
6.05028e-05
8.06554e-05
3.11367e-05
6.94717e-06
7.64842e-06
3.88827e-05
0.000109277
7.94712e-05
4.02358e-05
2.54715e-05
2.50583e-05
3.29741e-05
4.05723e-05
4.26462e-05
4.65873e-05
5.81992e-05
7.54884e-05
9.06003e-05
9.72076e-05
9.59887e-05
9.19046e-05
8.93396e-05
9.01321e-05
9.33823e-05
9.62134e-05
9.56536e-05
9.05095e-05
8.14705e-05
7.03206e-05
5.93597e-05
5.06656e-05
4.52162e-05
4.28461e-05
4.35161e-05
4.91969e-05
6.37269e-05
8.10429e-05
3.02626e-05
6.90628e-06
7.44743e-06
3.63629e-05
0.000105521
9.21412e-05
4.85553e-05
2.58209e-05
2.02568e-05
2.48838e-05
3.52559e-05
4.39807e-05
5.05829e-05
6.17019e-05
7.95294e-05
9.7981e-05
0.00010795
0.000107092
0.000100435
9.38744e-05
9.05069e-05
9.04354e-05
9.15457e-05
9.0857e-05
8.63902e-05
7.80671e-05
6.73161e-05
5.64047e-05
4.76103e-05
4.22846e-05
4.06617e-05
4.2814e-05
5.02256e-05
6.54065e-05
7.95323e-05
2.86626e-05
6.80565e-06
7.49588e-06
3.66142e-05
0.000107144
0.000102152
5.9156e-05
2.99198e-05
1.90626e-05
1.90508e-05
2.72762e-05
4.01554e-05
5.30517e-05
6.74357e-05
8.67178e-05
0.000107463
0.000120037
0.000119631
0.000110747
0.000100461
9.30092e-05
8.93464e-05
8.81256e-05
8.67303e-05
8.27514e-05
7.53144e-05
6.52681e-05
5.46264e-05
4.56997e-05
4.01249e-05
3.85621e-05
4.14112e-05
4.99814e-05
6.55876e-05
7.67628e-05
2.69234e-05
6.67656e-06
7.75163e-06
4.05851e-05
0.000114903
0.000102712
6.15143e-05
3.4882e-05
2.20756e-05
1.79922e-05
2.21041e-05
3.41129e-05
5.13064e-05
7.08958e-05
9.27587e-05
0.000114198
0.000127529
0.000127794
0.000118315
0.000105959
9.5541e-05
8.87649e-05
8.50876e-05
8.25736e-05
7.88898e-05
7.25713e-05
6.3723e-05
5.38307e-05
4.50204e-05
3.91112e-05
3.71679e-05
4.00046e-05
4.90522e-05
6.48894e-05
7.39421e-05
2.55067e-05
6.55435e-06
7.90437e-06
4.37865e-05
0.000117827
0.000104321
6.398e-05
3.8077e-05
2.6322e-05
2.04521e-05
1.99221e-05
2.73213e-05
4.36821e-05
6.68713e-05
9.27343e-05
0.000116197
0.000130805
0.000132617
0.000124021
0.000111059
9.87172e-05
8.93479e-05
8.31969e-05
7.91296e-05
7.52402e-05
6.98358e-05
6.23542e-05
5.35987e-05
4.52806e-05
3.9216e-05
3.67862e-05
3.92159e-05
4.82371e-05
6.42364e-05
7.22519e-05