/*--------------------------------*- C++ -*----------------------------------*\
| =========                 |                                                 |
| \\      /  F ield         | OpenFOAM: The Open Source CFD Toolbox           |
|  \\    /   O peration     | Version:  v2006                                 |
|   \\  /    A nd           | Website:  www.openfoam.com                      |
|    \\/     M anipulation  |                                                 |
\*---------------------------------------------------------------------------*/
FoamFile
{
    version     2.0;
    format      ascii;
    class       surfaceScalarField;
    location    "50";
    object      phi;
}
// * * * * * * * * * * * * * * * * * * * * * * * * * * * * * * * * * * * * * //

dimensions      [1 0 -1 0 0 0 0];
oriented        oriented;


internalField   nonuniform List<scalar> 
228225
(
-0.000287392
-2.39175e-05
-7.44421e-06
-0.000259174
-1.96155e-05
-8.67426e-06
-0.000229894
-1.89969e-05
-1.03644e-05
-0.000200618
-1.79745e-05
-1.14086e-05
-0.000174363
-1.51531e-05
-1.12359e-05
-0.000151662
-1.18638e-05
-1.09681e-05
-0.000132103
-9.27946e-06
-1.04229e-05
-0.000114991
-7.31335e-06
-9.94414e-06
-0.000100153
-5.49989e-06
-9.48501e-06
-8.72007e-05
-3.97663e-06
-9.1212e-06
-7.59136e-05
-2.59935e-06
-8.83188e-06
-6.60804e-05
-1.37202e-06
-8.60307e-06
-5.76312e-05
-1.67384e-07
-8.4214e-06
-5.01024e-05
6.04087e-07
-8.26974e-06
-4.34526e-05
1.35649e-06
-8.14042e-06
-3.76318e-05
2.07412e-06
-8.02666e-06
-3.25705e-05
2.7343e-06
-7.9249e-06
-2.81907e-05
3.32772e-06
-7.83429e-06
-2.44079e-05
3.84928e-06
-7.75634e-06
-2.11304e-05
4.29639e-06
-7.69503e-06
-1.82603e-05
4.66822e-06
-7.65574e-06
-1.56891e-05
4.96036e-06
-7.64439e-06
-1.33061e-05
5.17668e-06
-7.66646e-06
-1.10045e-05
5.32559e-06
-7.72603e-06
-8.68635e-06
5.41836e-06
-7.82474e-06
-6.27134e-06
5.47147e-06
-7.96104e-06
-3.70664e-06
5.50737e-06
-8.12989e-06
-9.76691e-07
5.55426e-06
-8.32315e-06
1.89111e-06
5.64295e-06
-8.53068e-06
4.81819e-06
5.80883e-06
-8.7402e-06
7.64742e-06
6.10263e-06
-8.92944e-06
1.00641e-05
6.61032e-06
-9.03518e-06
1.13947e-05
7.49873e-06
-8.87588e-06
9.91864e-06
9.22638e-06
-7.85554e-06
1.26937e-05
-2.52424e-06
-1.55064e-05
-9.73249e-06
1.42427e-06
-2.67039e-05
-6.09116e-06
-2.30651e-06
-3.39705e-05
-7.35414e-06
-4.2814e-06
-3.90219e-05
-7.79586e-06
-5.0746e-06
-4.18631e-05
-6.75197e-06
-5.53922e-06
-4.27798e-05
-5.14634e-06
-5.80911e-06
-4.23294e-05
-3.80695e-06
-5.94983e-06
-4.11295e-05
-2.56101e-06
-5.99322e-06
-3.93457e-05
-1.36416e-06
-5.9715e-06
-3.7176e-05
-2.97646e-07
-5.90842e-06
-3.50261e-05
1.0036e-06
-5.81778e-06
-3.28868e-05
2.1288e-06
-5.70792e-06
-3.06464e-05
3.10916e-06
-5.58584e-06
-2.86312e-05
3.97841e-06
-5.4577e-06
-2.67621e-05
4.75027e-06
-5.32925e-06
-2.4982e-05
5.43523e-06
-5.20525e-06
-2.32546e-05
6.03663e-06
-5.09111e-06
-2.15499e-05
6.55703e-06
-4.99318e-06
-1.98397e-05
6.99902e-06
-4.91732e-06
-1.80965e-05
7.36628e-06
-4.86967e-06
-1.62931e-05
7.66474e-06
-4.85697e-06
-1.44093e-05
7.90382e-06
-4.88624e-06
-1.24281e-05
8.09755e-06
-4.96452e-06
-1.03368e-05
8.26537e-06
-5.09841e-06
-8.13356e-06
8.43445e-06
-5.29269e-06
-5.82616e-06
8.63397e-06
-5.54975e-06
-3.44302e-06
8.9081e-06
-5.87044e-06
-1.04362e-06
9.31576e-06
-6.25477e-06
1.27483e-06
9.91801e-06
-6.69662e-06
3.37401e-06
1.07771e-05
-7.18194e-06
5.06018e-06
1.1981e-05
-7.69284e-06
6.00661e-06
1.37102e-05
-8.19105e-06
5.63533e-06
1.62347e-05
-8.53582e-06
3.38447e-06
1.94636e-05
-8.16553e-06
2.02004e-05
-4.10231e-06
-1.72591e-05
6.3334e-06
1.2399e-06
-2.50868e-05
3.24201e-06
-1.46996e-06
-3.09372e-05
1.45224e-06
-2.94205e-06
-3.55807e-05
2.78873e-07
-3.43274e-06
-3.83242e-05
-5.18483e-07
-3.50511e-06
-3.92787e-05
-8.61391e-07
-3.35625e-06
-3.93371e-05
-7.02987e-07
-3.0804e-06
-3.90606e-05
-1.46181e-07
-2.73572e-06
-3.85716e-05
4.48505e-07
-2.35556e-06
-3.81039e-05
1.12587e-06
-1.95433e-06
-3.74432e-05
1.81228e-06
-1.541e-06
-3.675e-05
2.48255e-06
-1.12558e-06
-3.61278e-05
3.12352e-06
-7.20548e-07
-3.5626e-05
3.7296e-06
-3.40482e-07
-3.52482e-05
4.29936e-06
-1.53874e-08
-3.51076e-05
4.82491e-06
3.83069e-07
-3.51471e-05
5.29417e-06
7.01163e-07
-3.53072e-05
5.7014e-06
9.46126e-07
-3.5508e-05
6.04463e-06
1.10266e-06
-3.56442e-05
6.32439e-06
1.1497e-06
-3.55895e-05
6.54477e-06
1.06763e-06
-3.52055e-05
6.71468e-06
8.43793e-07
-3.43516e-05
6.84935e-06
4.72222e-07
-3.28607e-05
6.97099e-06
-7.97988e-08
-3.07716e-05
7.10899e-06
-6.11355e-07
-2.79623e-05
7.29906e-06
-1.29141e-06
-2.44086e-05
7.58506e-06
-2.02262e-06
-2.01871e-05
8.03465e-06
-2.70772e-06
-1.54487e-05
8.74692e-06
-3.30231e-06
-1.04142e-05
9.84547e-06
-3.79816e-06
-5.41308e-06
1.15177e-05
-4.18519e-06
-9.73217e-07
1.4135e-05
-4.4631e-06
1.99334e-06
1.83057e-05
-4.612e-06
2.45959e-06
2.3514e-05
-4.13561e-06
2.4153e-05
-1.2126e-06
7.89284e-07
4.36981e-06
1.15392e-06
4.79633e-07
3.2092e-06
3.22463e-07
3.41205e-07
2.20592e-06
-6.49222e-07
-7.71587e-08
1.79289e-06
-1.13597e-06
-1.0579e-06
1.82312e-06
-1.40071e-06
-2.54827e-06
2.13861e-06
-1.54517e-06
-4.28428e-06
2.61511e-06
-1.61047e-06
-5.96433e-06
3.13068e-06
-1.61933e-06
-7.53519e-06
3.58109e-06
-1.58325e-06
-8.8989e-06
3.97221e-06
-1.50731e-06
-1.00486e-05
4.32742e-06
-1.39527e-06
-1.09975e-05
4.64379e-06
-1.24924e-06
-1.17675e-05
4.92137e-06
-1.07276e-06
-1.23968e-05
5.17597e-06
-8.69484e-07
-1.29326e-05
5.42125e-06
-6.43723e-07
-1.34211e-05
5.6526e-06
-4.01581e-07
-1.38983e-05
5.85557e-06
-1.5154e-07
-1.43879e-05
6.0226e-06
9.7207e-08
-1.49273e-05
6.15071e-06
3.60404e-07
-1.55149e-05
6.24011e-06
6.0072e-07
-1.61398e-05
6.2925e-06
8.12489e-07
-1.67696e-05
6.31127e-06
9.81192e-07
-1.73426e-05
6.30248e-06
1.08829e-06
-1.77598e-05
6.27632e-06
1.10992e-06
-1.78839e-05
6.24873e-06
1.02182e-06
-1.75473e-05
6.2421e-06
8.06372e-07
-1.65804e-05
6.29069e-06
4.64757e-07
-1.4799e-05
6.44958e-06
-5.49248e-09
-1.21674e-05
6.7923e-06
-4.2253e-07
-8.6238e-06
7.42743e-06
-7.84446e-07
-4.27181e-06
8.61021e-06
-9.75272e-07
4.14036e-07
1.10055e-05
-8.91247e-07
3.88835e-06
1.61654e-05
-4.24926e-07
3.31491e-06
2.44896e-05
4.96493e-07
2.63903e-05
1.48908e-06
5.66887e-06
-3.50131e-06
2.15367e-06
1.23766e-05
-6.72391e-06
3.10198e-06
1.89475e-05
-7.63635e-06
3.08941e-06
2.50664e-05
-7.47607e-06
2.91514e-06
3.04651e-05
-6.53621e-06
2.68263e-06
3.49127e-05
-5.01187e-06
2.40709e-06
3.82623e-05
-3.12474e-06
2.11367e-06
4.04612e-05
-1.12327e-06
1.82766e-06
4.14943e-05
8.12275e-07
1.56605e-06
4.1411e-05
2.59866e-06
1.32977e-06
4.03418e-05
4.19112e-06
1.11547e-06
3.85031e-05
5.50285e-06
9.28404e-07
3.61887e-05
6.44758e-06
7.69894e-07
3.36879e-05
7.04513e-06
6.36363e-07
3.11813e-05
7.42364e-06
5.21463e-07
2.87484e-05
7.68848e-06
4.20759e-07
2.64187e-05
7.87816e-06
3.32531e-07
2.4202e-05
8.0055e-06
2.57548e-07
2.20858e-05
8.0858e-06
2.00772e-07
2.00447e-05
8.12792e-06
1.68019e-07
1.80492e-05
8.13309e-06
1.64743e-07
1.60697e-05
8.1008e-06
1.96233e-07
1.40781e-05
8.03355e-06
2.65786e-07
1.20525e-05
7.93741e-06
3.72465e-07
9.98284e-06
7.82161e-06
5.1268e-07
7.88134e-06
7.70047e-06
6.73158e-07
5.79253e-06
7.5964e-06
8.34463e-07
3.80693e-06
7.5443e-06
9.71313e-07
2.06204e-06
7.59817e-06
1.05671e-06
7.29404e-07
7.84823e-06
1.06332e-06
6.62276e-08
8.49601e-06
9.76474e-07
4.26086e-07
1.00927e-05
8.87097e-07
1.80723e-06
1.43029e-05
1.14635e-06
1.77647e-06
2.34562e-05
1.91707e-06
2.67647e-05
1.80075e-06
5.53777e-06
-1.13665e-05
2.39334e-06
1.23408e-05
-1.6798e-05
3.35303e-06
1.93353e-05
-1.81912e-05
3.65188e-06
2.65277e-05
-1.8286e-05
3.69684e-06
3.39875e-05
-1.75531e-05
3.5981e-06
4.1632e-05
-1.60973e-05
3.4178e-06
4.91787e-05
-1.3963e-05
3.18437e-06
5.62433e-05
-1.12971e-05
2.91516e-06
6.24937e-05
-8.33543e-06
2.62864e-06
6.77082e-05
-5.28224e-06
2.34353e-06
7.17344e-05
-2.26336e-06
2.07198e-06
7.45084e-05
5.5925e-07
1.82336e-06
7.59972e-05
3.06257e-06
1.60988e-06
7.61807e-05
5.21925e-06
1.43388e-06
7.5166e-05
7.00361e-06
1.27956e-06
7.3244e-05
8.35865e-06
1.12862e-06
7.07436e-05
9.31759e-06
9.65904e-07
6.7839e-05
1.00595e-05
7.8014e-07
6.46273e-05
1.06802e-05
5.68828e-07
6.11954e-05
1.11968e-05
3.33597e-07
5.76074e-05
1.1612e-05
9.64448e-08
5.39306e-05
1.19373e-05
-1.57461e-07
5.01943e-05
1.21776e-05
-3.9148e-07
4.64156e-05
1.2333e-05
-5.86972e-07
4.25947e-05
1.24126e-05
-7.26291e-07
3.87096e-05
1.24361e-05
-7.92237e-07
3.472e-05
1.24328e-05
-7.73038e-07
3.05791e-05
1.24444e-05
-6.68725e-07
2.62428e-05
1.25316e-05
-4.87915e-07
2.16445e-05
1.27878e-05
-2.1044e-07
1.67439e-05
1.33826e-05
1.6579e-07
1.17206e-05
1.47092e-05
5.75832e-07
7.20286e-06
1.80096e-05
1.03451e-06
3.47663e-06
2.57131e-05
1.89416e-06
2.88411e-05
1.73817e-06
-1.41765e-06
-1.11032e-05
1.4346e-06
-2.69716e-06
-1.72946e-05
2.19169e-06
-3.40959e-06
-1.94987e-05
2.48874e-06
-3.3629e-06
-2.04105e-05
2.56572e-06
-2.31507e-06
-2.06324e-05
2.52303e-06
-1.0846e-08
-2.03464e-05
2.41517e-06
3.74987e-06
-1.95591e-05
2.25923e-06
9.00198e-06
-1.82522e-05
2.06602e-06
1.55821e-05
-1.64835e-05
1.85233e-06
2.31879e-05
-1.43331e-05
1.63709e-06
3.14454e-05
-1.18659e-05
1.44047e-06
3.98219e-05
-9.09262e-06
1.27844e-06
4.76487e-05
-6.00441e-06
1.16106e-06
5.42993e-05
-2.67181e-06
1.09478e-06
5.92553e-05
7.78804e-07
1.08605e-06
6.21634e-05
4.13472e-06
1.13622e-06
6.3335e-05
6.75659e-06
1.22677e-06
6.32329e-05
8.68922e-06
1.32441e-06
6.21969e-05
1.01792e-05
1.40582e-06
6.04121e-05
1.14246e-05
1.44918e-06
5.80099e-05
1.24919e-05
1.44194e-06
5.50903e-05
1.34176e-05
1.38903e-06
5.17243e-05
1.42273e-05
1.29864e-06
4.79904e-05
1.49133e-05
1.16754e-06
4.39763e-05
1.54788e-05
9.89986e-07
3.97638e-05
1.5943e-05
7.72003e-07
3.54198e-05
1.63332e-05
5.33681e-07
3.09792e-05
1.66869e-05
3.15482e-07
2.64325e-05
1.70596e-05
1.71685e-07
2.1745e-05
1.75406e-05
1.34794e-07
1.68687e-05
1.82941e-05
2.23376e-07
1.17772e-05
1.96994e-05
4.3115e-07
6.69057e-06
2.28611e-05
6.7736e-07
2.65771e-06
2.92158e-05
1.15504e-06
3.06024e-05
1.38916e-06
-1.38443e-06
-1.17013e-05
2.29495e-06
-2.19815e-06
-2.00692e-05
4.22547e-06
-2.23291e-06
-2.34461e-05
4.79152e-06
-1.58095e-06
-2.4973e-05
4.80267e-06
-3.24119e-07
-2.55474e-05
4.59702e-06
1.4745e-06
-2.54835e-05
4.30461e-06
3.81468e-06
-2.48776e-05
3.95257e-06
6.73288e-06
-2.37409e-05
3.5273e-06
1.02824e-05
-2.21458e-05
3.02026e-06
1.45959e-05
-2.02909e-05
2.47069e-06
1.9709e-05
-1.82159e-05
1.95877e-06
2.53313e-05
-1.56576e-05
1.54379e-06
3.08163e-05
-1.22669e-05
1.24688e-06
3.53801e-05
-7.97571e-06
1.0698e-06
3.87317e-05
-3.39212e-06
9.9826e-07
4.11528e-05
7.20996e-07
1.0174e-06
4.26792e-05
4.00545e-06
1.13481e-06
4.34217e-05
6.48359e-06
1.32234e-06
4.34756e-05
8.4349e-06
1.51577e-06
4.29177e-05
1.0121e-05
1.65301e-06
4.1857e-05
1.16297e-05
1.68927e-06
4.04364e-05
1.29761e-05
1.61024e-06
3.87844e-05
1.41923e-05
1.42296e-06
3.69827e-05
1.52995e-05
1.14492e-06
3.50589e-05
1.6317e-05
8.10128e-07
3.29869e-05
1.72719e-05
4.61199e-07
3.07172e-05
1.81958e-05
1.18162e-07
2.80922e-05
1.91235e-05
-1.0804e-07
2.49942e-05
2.01029e-05
-2.4491e-07
2.12991e-05
2.12061e-05
-2.6167e-07
1.68821e-05
2.25685e-05
-1.17771e-07
1.16609e-05
2.44984e-05
2.26283e-07
6.00239e-06
2.77214e-05
7.27966e-07
1.71673e-06
3.23907e-05
1.39012e-06
3.12696e-05
1.61615e-06
3.23573e-06
-1.81992e-05
3.88318e-06
4.34726e-06
-2.62382e-05
6.27329e-06
4.24678e-06
-2.85612e-05
6.47636e-06
3.52261e-06
-2.92263e-05
6.14108e-06
2.38552e-06
-2.90239e-05
5.72384e-06
8.31215e-07
-2.81542e-05
5.31897e-06
-1.2405e-06
-2.6619e-05
4.89276e-06
-3.87985e-06
-2.44129e-05
4.3508e-06
-6.84513e-06
-2.18296e-05
3.60886e-06
-9.54813e-06
-1.94732e-05
2.74215e-06
-1.14874e-05
-1.74917e-05
1.96198e-06
-1.24223e-05
-1.54532e-05
1.35682e-06
-1.2267e-05
-1.28143e-05
8.80648e-07
-1.11754e-05
-9.24867e-06
5.22982e-07
-9.59469e-06
-5.15125e-06
3.84733e-07
-7.94927e-06
-1.29911e-06
4.7196e-07
-6.11603e-06
1.55382e-06
6.35274e-07
-4.20078e-06
3.75428e-06
7.83831e-07
-2.16964e-06
5.45468e-06
8.92349e-07
3.43104e-08
6.89476e-06
9.49966e-07
2.3091e-06
8.3195e-06
9.52463e-07
4.39875e-06
9.89356e-06
9.01368e-07
6.15013e-06
1.15444e-05
7.96492e-07
7.60846e-06
1.3095e-05
6.35825e-07
8.90865e-06
1.44693e-05
4.21616e-07
1.01594e-05
1.57166e-05
1.53399e-07
1.13337e-05
1.69346e-05
-1.04174e-07
1.23009e-05
1.82241e-05
-3.20251e-07
1.28844e-05
1.96901e-05
-5.11807e-07
1.27832e-05
2.14697e-05
-6.26441e-07
1.15607e-05
2.37776e-05
-6.14355e-07
8.71317e-06
2.69336e-05
-4.21264e-07
4.39672e-06
3.10311e-05
6.42401e-09
7.46769e-07
3.42461e-05
1.03825e-06
3.08128e-05
1.20578e-06
-4.95782e-06
-1.67306e-05
3.91511e-06
-8.21345e-06
-2.67543e-05
4.27311e-06
-9.69598e-06
-3.01629e-05
3.51463e-06
-1.02324e-05
-3.12411e-05
2.89711e-06
-1.03175e-05
-3.12291e-05
2.54498e-06
-1.01803e-05
-3.0508e-05
2.38717e-06
-9.86394e-06
-2.91694e-05
2.33044e-06
-9.2662e-06
-2.72886e-05
2.30869e-06
-8.28929e-06
-2.51433e-05
2.33015e-06
-7.06418e-06
-2.31453e-05
2.46494e-06
-5.8247e-06
-2.13409e-05
2.69352e-06
-4.62133e-06
-1.9429e-05
2.92381e-06
-3.17307e-06
-1.71186e-05
3.07024e-06
-8.72018e-07
-1.43073e-05
3.01483e-06
2.68307e-06
-1.11369e-05
2.64931e-06
7.05387e-06
-7.609e-06
2.02896e-06
1.06721e-05
-3.44535e-06
1.31564e-06
1.24083e-05
1.09681e-06
7.45568e-07
1.21621e-05
5.0764e-06
4.00739e-07
1.05881e-05
8.09871e-06
1.3191e-07
8.71397e-06
1.00254e-05
-6.98401e-08
7.13805e-06
1.13872e-05
-1.46718e-07
5.97211e-06
1.26373e-05
-1.28962e-07
5.16974e-06
1.37898e-05
-4.7065e-08
4.61805e-06
1.48282e-05
9.00205e-08
4.19476e-06
1.58028e-05
2.76029e-07
3.86332e-06
1.67904e-05
4.44546e-07
3.60322e-06
1.78762e-05
5.93896e-07
3.40276e-06
1.91759e-05
6.97525e-07
3.20446e-06
2.08812e-05
7.30451e-07
2.80632e-06
2.33176e-05
6.98951e-07
1.8616e-06
2.6873e-05
6.58442e-07
4.63835e-07
3.11648e-05
7.46146e-07
-3.40727e-07
3.35503e-05
1.11624e-06
2.96691e-05
9.04657e-07
-1.10893e-06
-1.77263e-05
1.90154e-06
1.70109e-06
-3.00553e-05
1.21984e-07
6.11015e-06
-3.37178e-05
-1.27646e-06
1.12346e-05
-3.46689e-05
-2.14929e-06
1.67162e-05
-3.4564e-05
-2.60895e-06
2.23488e-05
-3.38405e-05
-2.75914e-06
2.79983e-05
-3.26226e-05
-2.64476e-06
3.35412e-05
-3.09761e-05
-2.28695e-06
3.8657e-05
-2.89641e-05
-1.70579e-06
4.26717e-05
-2.66421e-05
-9.10298e-07
4.48486e-05
-2.4072e-05
1.80029e-07
4.46545e-05
-2.12836e-05
1.72065e-06
4.20241e-05
-1.82675e-05
3.58288e-06
3.71635e-05
-1.51051e-05
5.71313e-06
3.07739e-05
-1.20229e-05
7.60308e-06
2.39237e-05
-8.91047e-06
8.64017e-06
1.77438e-05
-5.23895e-06
8.43077e-06
1.31475e-05
-9.49094e-07
6.87283e-06
9.87544e-06
3.79623e-06
4.52554e-06
7.68921e-06
7.73473e-06
2.30584e-06
6.02121e-06
1.03844e-05
8.73189e-07
4.73811e-06
1.21153e-05
7.93458e-10
3.79369e-06
1.35253e-05
-5.54714e-07
3.25141e-06
1.47834e-05
-1.08434e-06
2.98991e-06
1.5937e-05
-1.47237e-06
2.77255e-06
1.70553e-05
-1.61844e-06
2.35904e-06
1.8215e-05
-1.51772e-06
1.59556e-06
1.94542e-05
-1.21385e-06
4.45927e-07
2.08135e-05
-7.55432e-07
-9.54546e-07
2.24113e-05
-2.41282e-07
-2.31137e-06
2.45057e-05
2.50971e-07
-3.22861e-06
2.74457e-05
6.74451e-07
-3.29123e-06
3.09362e-05
8.64021e-07
-2.1849e-06
3.24962e-05
6.30577e-07
2.81185e-05
3.63553e-08
4.51841e-06
-2.18401e-05
-3.82125e-07
8.28598e-06
-3.3291e-05
-4.66286e-07
1.08235e-05
-3.5937e-05
-2.26935e-07
1.29057e-05
-3.63972e-05
-2.43663e-07
1.49042e-05
-3.60124e-05
-4.24961e-07
1.69041e-05
-3.49876e-05
-7.12576e-07
1.88656e-05
-3.33505e-05
-1.07875e-06
2.06914e-05
-3.11513e-05
-1.4882e-06
2.23033e-05
-2.85063e-05
-1.91497e-06
2.37086e-05
-2.55696e-05
-2.34935e-06
2.49766e-05
-2.24874e-05
-2.76803e-06
2.62233e-05
-1.93754e-05
-3.12787e-06
2.75878e-05
-1.6298e-05
-3.3726e-06
2.90642e-05
-1.32612e-05
-3.4235e-06
3.03154e-05
-1.02476e-05
-3.18231e-06
3.11006e-05
-7.28034e-06
-2.59988e-06
3.18034e-05
-4.42111e-06
-1.69974e-06
3.30053e-05
-1.70738e-06
-6.00637e-07
3.51443e-05
1.00837e-06
5.03482e-07
3.74535e-05
3.93841e-06
1.34259e-06
3.9037e-05
6.81152e-06
1.83462e-06
3.9306e-05
9.64192e-06
2.0257e-06
3.82636e-05
1.24139e-05
1.94293e-06
3.61184e-05
1.50971e-05
1.57922e-06
3.31901e-05
1.76222e-05
9.22865e-07
2.99734e-05
1.98253e-05
2.31744e-08
2.67794e-05
2.16516e-05
-7.76388e-07
2.37131e-05
2.32486e-05
-1.33596e-06
2.06373e-05
2.48054e-05
-1.53351e-06
1.73499e-05
2.65076e-05
-1.36177e-06
1.37333e-05
2.86018e-05
-8.80962e-07
9.90074e-06
3.1403e-05
-2.48367e-07
6.1443e-06
3.46318e-05
3.30581e-07
2.68863e-06
3.60837e-05
3.43154e-07
3.13902e-05
-2.25983e-07
-1.30618e-06
-2.10307e-05
4.12468e-07
-8.70776e-07
-3.3855e-05
1.00561e-07
6.55895e-07
-3.73915e-05
-3.16081e-08
2.51411e-06
-3.80619e-05
-1.0868e-07
4.43107e-06
-3.75962e-05
-2.1415e-07
6.23386e-06
-3.62851e-05
-3.60481e-07
7.85701e-06
-3.42922e-05
-5.23669e-07
9.35438e-06
-3.18344e-05
-6.57256e-07
1.08439e-05
-2.9126e-05
-7.22953e-07
1.24349e-05
-2.63261e-05
-7.02179e-07
1.41857e-05
-2.35191e-05
-6.04277e-07
1.60859e-05
-2.07215e-05
-4.59315e-07
1.80729e-05
-1.79078e-05
-3.06593e-07
2.007e-05
-1.50355e-05
-1.80655e-07
2.19924e-05
-1.20588e-05
-1.00037e-07
2.37044e-05
-8.95157e-06
-5.94553e-08
2.50149e-05
-5.75059e-06
-2.26407e-08
2.57414e-05
-2.56783e-06
8.12076e-08
2.5932e-05
4.49807e-07
3.14534e-07
2.62172e-05
2.91654e-06
6.87792e-07
2.65247e-05
5.30905e-06
1.15269e-06
2.68011e-05
7.71134e-06
1.61943e-06
2.69429e-05
1.02603e-05
1.9841e-06
2.67569e-05
1.31016e-05
2.15389e-06
2.59383e-05
1.6337e-05
2.04957e-06
2.41634e-05
1.9831e-05
1.61792e-06
2.14511e-05
2.31649e-05
8.53184e-07
1.83298e-05
2.59651e-05
-1.97355e-07
1.52637e-05
2.82705e-05
-1.26106e-06
1.23238e-05
3.03999e-05
-2.02816e-06
9.3175e-06
3.26896e-05
-2.3059e-06
6.08605e-06
3.53469e-05
-2.01363e-06
2.80941e-06
3.79079e-05
-1.20686e-06
1.47398e-07
3.83129e-05
-5.45296e-07
3.15821e-05
-6.54528e-07
4.24418e-06
-2.37747e-05
-1.60268e-06
1.07437e-05
-3.71159e-05
-3.2107e-06
1.64591e-05
-3.99141e-05
-3.15685e-06
2.08436e-05
-3.95293e-05
-2.88314e-06
2.37671e-05
-3.77224e-05
-2.75422e-06
2.5279e-05
-3.49699e-05
-2.77921e-06
2.57177e-05
-3.17877e-05
-2.90076e-06
2.54745e-05
-2.85016e-05
-3.05708e-06
2.48585e-05
-2.52886e-05
-3.1975e-06
2.40876e-05
-2.2257e-05
-3.27952e-06
2.33417e-05
-1.949e-05
-3.26638e-06
2.27957e-05
-1.70284e-05
-3.13033e-06
2.25882e-05
-1.48267e-05
-2.85692e-06
2.27773e-05
-1.27613e-05
-2.44954e-06
2.33437e-05
-1.06856e-05
-1.93413e-06
2.42169e-05
-8.47409e-06
-1.35806e-06
2.52799e-05
-6.0559e-06
-7.80338e-07
2.63885e-05
-3.45764e-06
-2.54305e-07
2.74207e-05
-8.53694e-07
2.28846e-07
2.77751e-05
1.8199e-06
6.98877e-07
2.75987e-05
4.26036e-06
1.18501e-06
2.70903e-05
6.50341e-06
1.6822e-06
2.64309e-05
8.75105e-06
2.14315e-06
2.57838e-05
1.12392e-05
2.49469e-06
2.51808e-05
1.42598e-05
2.67179e-06
2.42731e-05
1.80787e-05
2.64184e-06
2.24268e-05
2.25643e-05
2.38051e-06
1.93159e-05
2.70547e-05
1.78895e-06
1.53328e-05
3.09683e-05
7.15691e-07
1.12284e-05
3.42182e-05
-7.29533e-07
7.38744e-06
3.69871e-05
-1.93024e-06
4.04551e-06
3.93499e-05
-2.47916e-06
1.45177e-06
4.07985e-05
-2.1371e-06
-4.75665e-07
3.98936e-05
-1.22268e-06
3.10287e-05
-8.33343e-07
1.24713e-05
-3.39427e-05
-1.69093e-06
2.02532e-05
-4.20794e-05
-2.12546e-06
2.48713e-05
-4.18186e-05
-2.24943e-06
2.66343e-05
-3.84177e-05
-2.45799e-06
2.5953e-05
-3.38752e-05
-2.74453e-06
2.39579e-05
-2.95832e-05
-3.03247e-06
2.16136e-05
-2.59225e-05
-3.24357e-06
1.94674e-05
-2.27727e-05
-3.38239e-06
1.77509e-05
-1.99551e-05
-3.48105e-06
1.65258e-05
-1.73834e-05
-3.56231e-06
1.57705e-05
-1.50591e-05
-3.62332e-06
1.54216e-05
-1.30064e-05
-3.63985e-06
1.54099e-05
-1.12008e-05
-3.58807e-06
1.56835e-05
-9.55287e-06
-3.45589e-06
1.61961e-05
-7.93539e-06
-3.23354e-06
1.68605e-05
-6.20364e-06
-2.9035e-06
1.74895e-05
-4.20928e-06
-2.44701e-06
1.77784e-05
-1.85476e-06
-1.8734e-06
1.73995e-05
7.59243e-07
-1.22998e-06
1.64955e-05
3.28478e-06
-5.69435e-07
1.50466e-05
5.61366e-06
7.94491e-08
1.31212e-05
7.68886e-06
7.20513e-07
1.08596e-05
9.63997e-06
1.35225e-06
8.46799e-06
1.16671e-05
1.94373e-06
6.23897e-06
1.40355e-05
2.43497e-06
4.42935e-06
1.71153e-05
2.7702e-06
2.88897e-06
2.12278e-05
2.95343e-06
1.01972e-06
2.61536e-05
3.01234e-06
-1.42189e-06
3.09844e-05
2.80189e-06
-3.68792e-06
3.48558e-05
1.98183e-06
-4.70742e-06
3.76834e-05
5.40024e-07
-4.16422e-06
3.97311e-05
-8.37919e-07
-2.6915e-06
4.08054e-05
-1.42289e-06
-1.31912e-06
3.96975e-05
-1.04286e-06
3.04486e-05
-5.1193e-07
4.2282e-06
-3.75666e-05
1.23689e-07
3.01945e-06
-4.04735e-05
-7.03718e-08
-2.13048e-07
-3.72416e-05
-1.01567e-06
-6.34007e-06
-2.91892e-05
-2.74056e-06
-1.20715e-05
-2.36906e-05
-4.28105e-06
-1.59822e-05
-2.05804e-05
-5.08644e-06
-1.82001e-05
-1.84489e-05
-5.34007e-06
-1.90525e-05
-1.67403e-05
-5.3046e-06
-1.88188e-05
-1.51892e-05
-5.1411e-06
-1.77191e-05
-1.3702e-05
-4.92603e-06
-1.59629e-05
-1.22607e-05
-4.69286e-06
-1.3782e-05
-1.08591e-05
-4.45318e-06
-1.14071e-05
-9.47924e-06
-4.20592e-06
-9.02376e-06
-8.08728e-06
-3.94218e-06
-6.76035e-06
-6.62855e-06
-3.64747e-06
-4.70029e-06
-5.02227e-06
-3.30239e-06
-2.89772e-06
-3.16964e-06
-2.887e-06
-1.38476e-06
-1.00085e-06
-2.39809e-06
-1.48392e-07
1.36213e-06
-1.86288e-06
7.09483e-07
3.72445e-06
-1.31932e-06
1.18883e-06
5.89224e-06
-7.80456e-07
1.26809e-06
7.82268e-06
-2.36622e-07
9.20198e-07
9.62431e-06
3.39116e-07
1.66452e-07
1.14568e-05
9.38326e-07
-8.43084e-07
1.34947e-05
1.52348e-06
-1.75626e-06
1.59594e-05
2.04866e-06
-2.12271e-06
1.91565e-05
2.4687e-06
-1.87483e-06
2.33373e-05
2.77268e-06
-1.55587e-06
2.8241e-05
2.94564e-06
-1.54905e-06
3.29343e-05
2.7972e-06
-1.44693e-06
3.68346e-05
1.97891e-06
-7.56695e-07
4.00096e-05
5.59326e-07
2.35587e-07
4.19585e-05
-5.44678e-07
7.7714e-07
4.12302e-05
-5.65044e-07
3.23195e-05
3.88751e-08
-3.64508e-06
-3.55746e-05
1.58019e-06
-9.10536e-06
-3.69947e-05
2.15066e-06
-1.58821e-05
-3.13665e-05
1.08401e-06
-2.33359e-05
-1.97868e-05
-2.0181e-06
-2.69912e-05
-1.65015e-05
-3.73334e-06
-2.78127e-05
-1.54973e-05
-4.40439e-06
-2.69093e-05
-1.46922e-05
-4.76931e-06
-2.50678e-05
-1.37344e-05
-4.94131e-06
-2.27224e-05
-1.26458e-05
-4.9753e-06
-2.01044e-05
-1.14882e-05
-4.91474e-06
-1.73641e-05
-1.02923e-05
-4.79003e-06
-1.4618e-05
-9.06478e-06
-4.62006e-06
-1.1959e-05
-7.80108e-06
-4.41405e-06
-9.45845e-06
-6.48616e-06
-4.17428e-06
-7.1657e-06
-5.09071e-06
-3.89718e-06
-5.10287e-06
-3.57031e-06
-3.57366e-06
-3.25523e-06
-1.87579e-06
-3.19091e-06
-1.52581e-06
-2.78726e-08
-2.74123e-06
-1.664e-08
2.06016e-06
-2.23633e-06
1.28667e-06
4.10572e-06
-1.70715e-06
2.33914e-06
6.00186e-06
-1.18133e-06
3.10665e-06
7.7022e-06
-6.64601e-07
3.60493e-06
9.26818e-06
-1.58501e-07
3.84634e-06
1.08087e-05
3.91759e-07
3.93384e-06
1.24477e-05
9.46947e-07
4.06547e-06
1.43411e-05
1.48056e-06
4.51231e-06
1.67606e-05
1.96556e-06
5.36343e-06
2.02145e-05
2.36458e-06
6.00612e-06
2.52303e-05
2.63682e-06
5.47368e-06
3.12294e-05
2.70353e-06
3.73039e-06
3.67282e-05
2.37509e-06
1.81733e-06
4.09702e-05
1.45635e-06
8.13092e-07
4.31532e-05
3.55683e-07
4.59377e-07
4.2097e-05
9.98097e-08
3.26536e-05
7.1779e-07
-4.50485e-06
-3.47543e-05
3.43664e-06
-9.31397e-06
-3.71663e-05
4.7745e-06
-1.28559e-05
-3.20655e-05
4.03463e-06
-1.5977e-05
-1.77587e-05
8.91321e-07
-1.85343e-05
-1.36323e-05
-3.76652e-07
-2.01513e-05
-1.26415e-05
-1.28229e-06
-2.07994e-05
-1.19555e-05
-2.13191e-06
-2.06275e-05
-1.11197e-05
-2.83371e-06
-1.98427e-05
-1.01321e-05
-3.35014e-06
-1.86467e-05
-9.05304e-06
-3.68644e-06
-1.72049e-05
-7.91742e-06
-3.87423e-06
-1.56451e-05
-6.73532e-06
-3.94814e-06
-1.40714e-05
-5.50287e-06
-3.93077e-06
-1.25715e-05
-4.20837e-06
-3.8356e-06
-1.12118e-05
-2.83589e-06
-3.67036e-06
-1.00281e-05
-1.36738e-06
-3.43888e-06
-9.02671e-06
2.1905e-07
-3.14383e-06
-8.14222e-06
1.83683e-06
-2.79114e-06
-7.24233e-06
3.51728e-06
-2.39339e-06
-6.38631e-06
5.17828e-06
-1.96027e-06
-5.67872e-06
6.76198e-06
-1.49617e-06
-5.24324e-06
8.24949e-06
-1.00942e-06
-5.15861e-06
9.66726e-06
-5.09638e-07
-5.4125e-06
1.10715e-05
-3.48721e-08
-6.08291e-06
1.25362e-05
5.55765e-07
-7.06728e-06
1.4176e-05
1.12455e-06
-8.24554e-06
1.6218e-05
1.70594e-06
-9.44342e-06
1.91279e-05
2.32288e-06
-1.0446e-05
2.34861e-05
2.98702e-06
-1.10948e-05
2.89559e-05
3.57931e-06
-1.10847e-05
3.39726e-05
3.73608e-06
-9.76283e-06
3.75196e-05
3.05392e-06
-6.81896e-06
3.90631e-05
1.83418e-06
-3.08828e-06
3.77338e-05
1.22655e-06
2.88021e-05
1.3062e-06
-1.78037e-06
-3.72122e-05
3.97926e-06
-2.38863e-06
-4.23857e-05
5.43002e-06
-1.95147e-06
-3.8618e-05
5.67618e-06
-7.32284e-07
-2.25598e-05
3.35942e-06
-3.61899e-06
-1.21966e-05
1.42254e-06
-7.08722e-06
-9.56983e-06
3.86729e-07
-1.00234e-05
-8.6688e-06
-3.60866e-07
-1.21368e-05
-7.96643e-06
-1.05073e-06
-1.34064e-05
-7.19729e-06
-1.67797e-06
-1.3958e-05
-6.32936e-06
-2.18869e-06
-1.39659e-05
-5.36482e-06
-2.56579e-06
-1.36005e-05
-4.31093e-06
-2.81498e-06
-1.3001e-05
-3.17355e-06
-2.95721e-06
-1.22743e-05
-1.95593e-06
-3.00953e-06
-1.14985e-05
-6.61883e-07
-2.98124e-06
-1.07333e-05
7.14833e-07
-2.87891e-06
-1.00003e-05
2.16391e-06
-2.70887e-06
-9.37816e-06
3.66312e-06
-2.47828e-06
-8.88228e-06
5.18851e-06
-2.19567e-06
-8.57132e-06
6.70934e-06
-1.86943e-06
-8.54015e-06
8.20136e-06
-1.49727e-06
-8.90357e-06
9.65849e-06
-1.07261e-06
-9.75274e-06
1.10961e-05
-6.08706e-07
-1.11156e-05
1.25451e-05
-1.44736e-07
-1.3065e-05
1.40446e-05
3.96821e-07
-1.55617e-05
1.56499e-05
9.5966e-07
-1.84262e-05
1.74575e-05
1.53136e-06
-2.12221e-05
1.96436e-05
2.15927e-06
-2.30876e-05
2.2415e-05
2.88806e-06
-2.30583e-05
2.56271e-05
3.66184e-06
-2.05562e-05
2.8534e-05
4.1759e-06
-1.53582e-05
3.05466e-05
3.98618e-06
-8.45626e-06
3.16447e-05
3.06318e-06
-2.53194e-06
3.16738e-05
2.35136e-06
2.5642e-05
1.99157e-06
-1.28726e-06
-4.05487e-05
4.36185e-06
-2.45955e-06
-4.77338e-05
6.34877e-06
-3.80375e-06
-4.42826e-05
6.84439e-06
-2.24229e-06
-3.03527e-05
6.00548e-06
-2.94196e-06
-1.50908e-05
3.52952e-06
-4.7033e-06
-9.73483e-06
1.91131e-06
-6.57034e-06
-7.70682e-06
8.95492e-07
-8.04943e-06
-6.54898e-06
5.28598e-08
-9.13652e-06
-5.61477e-06
-5.03902e-07
-9.74921e-06
-4.69622e-06
-1.03047e-06
-9.92373e-06
-3.72817e-06
-1.475e-06
-9.72847e-06
-2.6945e-06
-1.82793e-06
-9.23865e-06
-1.59336e-06
-2.0895e-06
-8.52589e-06
-4.26888e-07
-2.26391e-06
-7.65696e-06
8.03559e-07
-2.35832e-06
-6.68495e-06
2.09722e-06
-2.37938e-06
-5.66552e-06
3.45026e-06
-2.33108e-06
-4.66437e-06
4.85359e-06
-2.21667e-06
-3.75207e-06
6.2917e-06
-2.03991e-06
-3.00598e-06
7.74472e-06
-1.80507e-06
-2.50658e-06
9.19366e-06
-1.51454e-06
-2.33232e-06
1.06267e-05
-1.16484e-06
-2.54668e-06
1.20429e-05
-7.55163e-07
-3.17058e-06
1.34515e-05
-3.07599e-07
-4.18422e-06
1.4868e-05
1.59175e-07
-5.63115e-06
1.63082e-05
7.43877e-07
-7.32596e-06
1.77905e-05
1.28969e-06
-8.95159e-06
1.93286e-05
1.82226e-06
-9.96034e-06
2.09118e-05
2.34118e-06
-9.72769e-06
2.24408e-05
2.79185e-06
-7.91146e-06
2.37086e-05
3.04954e-06
-4.3455e-06
2.45334e-05
3.1212e-06
-3.65759e-08
2.61129e-05
3.32408e-06
1.86014e-06
2.90344e-05
3.2922e-06
2.59616e-05
2.68203e-06
-5.80423e-06
-3.88567e-05
3.95281e-06
-1.07978e-05
-4.83383e-05
5.40849e-06
-1.40815e-05
-4.7067e-05
5.75e-06
-1.09733e-05
-3.95361e-05
5.60966e-06
-4.94923e-06
-2.5818e-05
4.42444e-06
-1.25745e-06
-1.66612e-05
3.13269e-06
8.52136e-08
-1.11904e-05
2.10878e-06
1.68633e-07
-7.88938e-06
1.24749e-06
-1.02594e-07
-5.83219e-06
4.86059e-07
-2.79014e-07
-4.38085e-06
-1.41217e-07
-2.47261e-07
-3.15857e-06
-6.06108e-07
4.95367e-08
-1.98827e-06
-1.01142e-06
5.93961e-07
-8.09076e-07
-1.34086e-06
1.36389e-06
3.85821e-07
-1.59829e-06
2.34301e-06
1.5946e-06
-1.7888e-06
3.49585e-06
2.83916e-06
-1.91585e-06
4.78726e-06
4.1167e-06
-1.98074e-06
6.17292e-06
5.42714e-06
-1.98332e-06
7.59623e-06
6.76664e-06
-1.92303e-06
8.98924e-06
8.1262e-06
-1.79947e-06
1.0278e-05
9.49224e-06
-1.61216e-06
1.13909e-05
1.08492e-05
-1.35998e-06
1.22683e-05
1.21831e-05
-1.04192e-06
1.28724e-05
1.34842e-05
-6.611e-07
1.32034e-05
1.47473e-05
-2.36261e-07
1.32705e-05
1.597e-05
2.4088e-07
1.30587e-05
1.7147e-05
8.14836e-07
1.26885e-05
1.82668e-05
1.37094e-06
1.23188e-05
1.92934e-05
1.89102e-06
1.217e-05
2.01588e-05
2.28357e-06
1.25e-05
2.08121e-05
2.37443e-06
1.31422e-05
2.14287e-05
2.28615e-06
1.06302e-05
2.53035e-05
3.42058e-06
5.0962e-06
3.05349e-05
4.29762e-06
2.80943e-05
3.23835e-06
-9.35779e-06
-3.36063e-05
3.87482e-06
-1.57433e-05
-4.70835e-05
4.92258e-06
-1.88081e-05
-4.95926e-05
5.24772e-06
-1.56081e-05
-4.87598e-05
5.47454e-06
-5.15535e-06
-4.23923e-05
5.50336e-06
5.47889e-06
-3.26162e-05
4.91507e-06
1.32043e-05
-2.31797e-05
4.05506e-06
1.7519e-05
-1.53957e-05
3.10639e-06
1.89626e-05
-9.48472e-06
2.18235e-06
1.8599e-05
-5.36438e-06
1.34252e-06
1.75416e-05
-2.70162e-06
6.02432e-07
1.65597e-05
-9.65055e-07
-3.96348e-08
1.58663e-05
3.3878e-07
-4.5605e-07
1.5577e-05
1.49752e-06
-8.28194e-07
1.56487e-05
2.64366e-06
-1.13056e-06
1.60442e-05
3.7989e-06
-1.36887e-06
1.67258e-05
4.96658e-06
-1.54837e-06
1.76532e-05
6.15066e-06
-1.67064e-06
1.87774e-05
7.35447e-06
-1.73403e-06
2.0037e-05
8.57796e-06
-1.73537e-06
2.13593e-05
9.81593e-06
-1.67159e-06
2.26651e-05
1.10571e-05
-1.54053e-06
2.38755e-05
1.22855e-05
-1.34087e-06
2.49191e-05
1.34834e-05
-1.07223e-06
2.57366e-05
1.46345e-05
-7.36206e-07
2.62859e-05
1.57261e-05
-3.40399e-07
2.65656e-05
1.67481e-05
7.75595e-08
2.6435e-05
1.76883e-05
6.55021e-07
2.58857e-05
1.85338e-05
1.23149e-06
2.48697e-05
1.92683e-05
1.7868e-06
2.3351e-05
1.99566e-05
2.17808e-06
2.0464e-05
2.13771e-05
2.45846e-06
1.29762e-05
2.74784e-05
3.99299e-06
4.68017e-06
3.24538e-05
4.82869e-06
2.90464e-05
3.30239e-06
-7.35467e-06
-2.91496e-05
2.72306e-06
-1.36601e-05
-4.39513e-05
3.07343e-06
-1.83446e-05
-4.82515e-05
3.35706e-06
-2.07299e-05
-5.01075e-05
3.72291e-06
-1.71932e-05
-5.04313e-05
4.28843e-06
-7.96321e-06
-4.70775e-05
4.86452e-06
4.11806e-06
-4.06371e-05
5.04063e-06
1.59465e-05
-3.22531e-05
4.78594e-06
2.55556e-05
-2.34133e-05
4.18031e-06
3.19372e-05
-1.51551e-05
3.35044e-06
3.49264e-05
-8.15783e-06
2.45054e-06
3.50771e-05
-2.72649e-06
1.60846e-06
3.35516e-05
9.83827e-07
8.80796e-07
3.16583e-05
3.13032e-06
2.59969e-07
3.00032e-05
4.4959e-06
-2.00536e-07
2.87533e-05
5.60515e-06
-5.63473e-07
2.79335e-05
6.6428e-06
-8.67208e-07
2.75153e-05
7.66671e-06
-1.11227e-06
2.74517e-05
8.70139e-06
-1.30112e-06
2.768e-05
9.76054e-06
-1.43173e-06
2.81216e-05
1.08497e-05
-1.49904e-06
2.86836e-05
1.19665e-05
-1.49783e-06
2.92641e-05
1.31007e-05
-1.42471e-06
2.97588e-05
1.42352e-05