/*--------------------------------*- C++ -*----------------------------------*\
| =========                 |                                                 |
| \\      /  F ield         | OpenFOAM: The Open Source CFD Toolbox           |
|  \\    /   O peration     | Version:  v2006                                 |
|   \\  /    A nd           | Website:  www.openfoam.com                      |
|    \\/     M anipulation  |                                                 |
\*---------------------------------------------------------------------------*/
FoamFile
{
    version     2.0;
    format      ascii;
    class       volScalarField;
    location    "89";
    object      nut;
}
// * * * * * * * * * * * * * * * * * * * * * * * * * * * * * * * * * * * * * //

dimensions      [0 2 -1 0 0 0 0];


internalField   nonuniform List<scalar> 
78750
(
1.54575e-09
2.12363e-07
4.27388e-07
6.66028e-07
9.18954e-07
1.17605e-06
1.42903e-06
1.67189e-06
1.90049e-06
2.11202e-06
2.30458e-06
2.47693e-06
2.62838e-06
2.7584e-06
2.86611e-06
2.95162e-06
3.01499e-06
3.0562e-06
3.07515e-06
3.07161e-06
3.0452e-06
2.99579e-06
2.92168e-06
2.8223e-06
2.6969e-06
2.54492e-06
2.36561e-06
2.15972e-06
1.92881e-06
1.6745e-06
1.39687e-06
1.09485e-06
7.73551e-07
4.51359e-07
5.62765e-09
4.07942e-09
2.78089e-06
4.79471e-06
6.32974e-06
7.60485e-06
8.84715e-06
1.01058e-05
1.13865e-05
1.26935e-05
1.40358e-05
1.54204e-05
1.68636e-05
1.8428e-05
1.97342e-05
2.00114e-05
2.01808e-05
2.02496e-05
2.02239e-05
2.0109e-05
1.99087e-05
1.96256e-05
1.92599e-05
1.88072e-05
1.82627e-05
1.76195e-05
1.67283e-05
1.48112e-05
1.29325e-05
1.10738e-05
9.10841e-06
6.97191e-06
4.96938e-06
3.72845e-06
2.05135e-06
1.83812e-08
6.84144e-09
2.0716e-06
4.45932e-06
7.03113e-06
9.56348e-06
1.19141e-05
1.40101e-05
1.58476e-05
1.74555e-05
1.88626e-05
2.00838e-05
2.11195e-05
2.19785e-05
2.2698e-05
2.31082e-05
2.29448e-05
2.26857e-05
2.23454e-05
2.19386e-05
2.14812e-05
2.07158e-05
1.95185e-05
1.82296e-05
1.69628e-05
1.57896e-05
1.47281e-05
1.37373e-05
1.27e-05
1.14167e-05
9.69965e-06
7.67001e-06
6.08064e-06
5.63944e-06
2.01263e-06
3.18051e-08
9.9797e-09
1.95952e-06
4.45833e-06
7.9318e-06
1.21482e-05
1.6174e-05
1.93253e-05
2.16154e-05
2.32488e-05
2.43599e-05
2.50194e-05
2.527e-05
2.51491e-05
2.4706e-05
2.40024e-05
2.30935e-05
2.20291e-05
2.08604e-05
1.96329e-05
1.83822e-05
1.71337e-05
1.59225e-05
1.48004e-05
1.38151e-05
1.30031e-05
1.2374e-05
1.18689e-05
1.1313e-05
1.043e-05
9.04967e-06
7.50808e-06
6.74693e-06
7.08403e-06
1.84968e-06
4.26302e-08
1.4228e-08
1.90663e-06
4.55469e-06
8.75523e-06
1.43252e-05
1.94733e-05
2.30369e-05
2.52562e-05
2.64748e-05
2.68733e-05
2.65855e-05
2.57512e-05
2.45261e-05
2.30733e-05
2.15407e-05
2.00385e-05
1.86291e-05
1.73332e-05
1.61427e-05
1.50374e-05
1.40014e-05
1.30357e-05
1.21638e-05
1.14206e-05
1.08382e-05
1.04238e-05
1.01165e-05
9.74477e-06
9.07327e-06
8.05088e-06
7.12819e-06
7.2374e-06
7.53836e-06
1.74282e-06
5.01143e-08
1.84015e-08
1.92885e-06
4.74317e-06
9.55972e-06
1.63281e-05
2.24685e-05
2.63038e-05
2.82617e-05
2.88509e-05
2.83774e-05
2.71021e-05
2.52983e-05
2.32486e-05
2.12014e-05
1.93248e-05
1.76956e-05
1.63187e-05
1.51565e-05
1.41544e-05
1.32595e-05
1.24359e-05
1.16706e-05
1.09656e-05
1.03327e-05
9.79347e-06
9.35703e-06
8.97734e-06
8.5288e-06
7.87784e-06
7.09447e-06
6.65612e-06
7.47342e-06
7.4651e-06
1.69278e-06
5.58299e-08
2.2381e-08
1.95545e-06
4.88582e-06
1.01071e-05
1.76209e-05
2.42383e-05
2.80432e-05
2.9644e-05
2.96292e-05
2.8386e-05
2.63053e-05
2.38085e-05
2.12823e-05
1.89947e-05
1.7064e-05
1.54945e-05
1.42372e-05
1.32276e-05
1.24017e-05
1.17069e-05
1.11104e-05
1.0592e-05
1.01195e-05
9.66114e-06
9.2048e-06
8.7462e-06
8.25893e-06
7.68748e-06
7.01553e-06
6.40246e-06
6.31305e-06
7.63556e-06
7.10075e-06
1.65637e-06
6.08764e-08
2.59605e-08
1.98264e-06
4.97734e-06
1.04359e-05
1.84779e-05
2.55149e-05
2.93139e-05
3.05862e-05
3.00341e-05
2.81714e-05
2.55302e-05
2.26409e-05
1.99189e-05
1.75849e-05
1.56889e-05
1.41898e-05
1.30165e-05
1.20961e-05
1.13661e-05
1.07834e-05
1.03253e-05
9.96511e-06
9.64407e-06
9.29732e-06
8.87897e-06
8.36848e-06
7.76093e-06
7.06921e-06
6.36721e-06
5.85977e-06
5.98715e-06
7.62763e-06
6.80126e-06
1.63967e-06
6.6065e-08
2.91457e-08
2.00114e-06
5.02853e-06
1.06195e-05
1.89529e-05
2.61625e-05
2.9854e-05
3.08307e-05
2.98713e-05
2.75863e-05
2.46104e-05
2.1532e-05
1.87516e-05
1.64343e-05
1.45822e-05
1.31298e-05
1.20018e-05
1.11316e-05
1.04674e-05
9.98132e-06
9.66599e-06
9.48124e-06
9.33713e-06
9.12983e-06
8.77193e-06
8.22186e-06
7.50107e-06
6.69541e-06
5.95491e-06
5.51018e-06
5.77986e-06
7.62753e-06
6.49466e-06
1.62582e-06
7.16416e-08
3.24306e-08
2.0208e-06
5.06914e-06
1.07482e-05
1.92945e-05
2.66483e-05
3.02655e-05
3.10155e-05
2.97575e-05
2.71915e-05
2.40231e-05
2.08585e-05
1.80658e-05
1.57657e-05
1.39318e-05
1.24875e-05
1.13569e-05
1.04814e-05
9.82051e-06
9.36113e-06
9.11193e-06
9.02925e-06
9.00973e-06
8.92194e-06
8.63836e-06
8.08803e-06
7.30347e-06
6.42502e-06
5.65989e-06
5.25571e-06
5.61802e-06
7.60079e-06
6.24436e-06
1.61741e-06
7.74853e-08
3.54239e-08
2.03324e-06
5.09057e-06
1.08212e-05
1.94903e-05
2.6894e-05
3.04064e-05
3.09565e-05
2.94666e-05
2.67062e-05
2.34296e-05
2.02417e-05
1.74726e-05
1.52063e-05
1.33969e-05
1.19633e-05
1.08319e-05
9.9492e-06
9.28617e-06
8.84606e-06
8.64981e-06
8.64818e-06
8.72939e-06
8.74175e-06
8.526e-06
7.98723e-06
7.16645e-06
6.24425e-06
5.46828e-06
5.09839e-06
5.5357e-06
7.62552e-06
6.00837e-06
1.61026e-06
8.34025e-08
3.88147e-08
2.0505e-06
5.12643e-06
1.09303e-05
1.97313e-05
2.71555e-05
3.05502e-05
3.09213e-05
2.92502e-05
2.63601e-05
2.30287e-05
1.98438e-05
1.71006e-05
1.48566e-05
1.30545e-05
1.16123e-05
1.04602e-05
9.55063e-06
8.86178e-06
8.40881e-06
8.22534e-06
8.26224e-06
8.40627e-06
8.49476e-06
8.34519e-06
7.84099e-06
7.02318e-06
6.09551e-06
5.32946e-06
4.99471e-06
5.49737e-06
7.67704e-06
5.80736e-06
1.60613e-06
8.92584e-08
4.19843e-08
2.06353e-06
5.15365e-06
1.10139e-05
1.9905e-05
2.73181e-05
3.05945e-05
3.08034e-05
2.89783e-05
2.59903e-05
2.26343e-05
1.94756e-05
1.67742e-05
1.45635e-05
1.27775e-05
1.13339e-05
1.01668e-05
9.23419e-06
8.52132e-06
8.05367e-06
7.87368e-06
7.93146e-06
8.11383e-06
8.25228e-06
8.151e-06
7.68107e-06
6.88358e-06
5.97406e-06
5.23489e-06
4.94204e-06
5.51248e-06
7.77647e-06
5.62598e-06
1.60388e-06
9.49309e-08
4.55521e-08
2.08101e-06
5.196e-06
1.11415e-05
2.01493e-05
2.75269e-05
3.06612e-05
3.07121e-05
2.87604e-05
2.57104e-05
2.23555e-05
1.92322e-05
1.65692e-05
1.43829e-05
1.26027e-05
1.11479e-05
9.95702e-06
8.99272e-06
8.24613e-06
7.75025e-06
7.55593e-06
7.61349e-06
7.81165e-06
7.98068e-06
7.91889e-06
7.48964e-06
6.73123e-06
5.86117e-06
5.16391e-06
4.91931e-06
5.55919e-06
7.9006e-06
5.474e-06
1.60433e-06
1.00404e-07
4.89483e-08
2.0963e-06
5.23472e-06
1.12557e-05
2.03542e-05
2.7685e-05
3.06872e-05
3.0595e-05
2.85335e-05
2.54375e-05
2.20976e-05
1.90198e-05
1.64033e-05
1.42483e-05
1.24797e-05
1.10187e-05
9.80734e-06
8.81313e-06
8.03255e-06
7.50535e-06
7.29033e-06
7.33785e-06
7.53669e-06
7.71892e-06
7.68277e-06
7.29025e-06
6.578e-06
5.7597e-06
5.11489e-06
4.92556e-06
5.64082e-06
8.05356e-06
5.342e-06
1.60671e-06
1.05644e-07
5.26423e-08
2.11455e-06
5.28333e-06
1.13997e-05
2.06087e-05
2.78779e-05
3.07351e-05
3.05069e-05
2.83569e-05
2.52376e-05
2.19252e-05
1.88947e-05
1.63198e-05
1.41893e-05
1.24262e-05
1.09535e-05
9.71671e-06
8.6875e-06
7.86713e-06
7.29952e-06
7.05128e-06
7.07543e-06
7.26219e-06
7.44637e-06
7.42987e-06
7.0758e-06
6.41785e-06
5.66131e-06
5.07691e-06
4.94819e-06
5.74282e-06
8.21904e-06
5.23368e-06
1.61123e-06
1.10668e-07
5.62131e-08
2.13178e-06
5.33101e-06
1.15381e-05
2.08409e-05
2.80435e-05
3.07662e-05
3.04152e-05
2.81889e-05
2.50559e-05
2.17777e-05
1.87993e-05
1.62708e-05
1.417e-05
1.24172e-05
1.09366e-05
9.6765e-06
8.6128e-06
7.75142e-06
7.13992e-06
6.85237e-06
6.84506e-06
7.00994e-06
7.18577e-06
7.18021e-06
6.86107e-06
6.25943e-06
5.56952e-06
5.0507e-06
4.98761e-06
5.86692e-06
8.39725e-06
5.14224e-06
1.61725e-06
1.15467e-07
5.99852e-08
2.15081e-06
5.38476e-06
1.16951e-05
2.11046e-05
2.8234e-05
3.08202e-05
3.03566e-05
2.807e-05
2.49356e-05
2.16956e-05
1.87668e-05
1.628e-05
1.42045e-05
1.24588e-05
1.09681e-05
9.68262e-06
8.58182e-06
7.67523e-06
7.01374e-06
6.67775e-06
6.6297e-06
6.76386e-06
6.92419e-06
6.92586e-06
6.6417e-06
6.09902e-06
5.47945e-06
5.02979e-06
5.03587e-06
6.00344e-06
8.57809e-06
5.0677e-06
1.62463e-06
1.20052e-07
6.36725e-08
2.16942e-06
5.43887e-06
1.18514e-05
2.13582e-05
2.84121e-05
3.0871e-05
3.03049e-05
2.79661e-05
2.48354e-05
2.16362e-05
1.87598e-05
1.63184e-05
1.42729e-05
1.25392e-05
1.10421e-05
9.7337e-06
8.59624e-06
7.64283e-06
6.92783e-06
6.53704e-06
6.44106e-06
6.53687e-06
6.67445e-06
6.67796e-06
6.42639e-06
5.94282e-06
5.39432e-06
5.01558e-06
5.09384e-06
6.15375e-06
8.762e-06
5.00656e-06
1.63315e-06
1.24417e-07
6.7488e-08
2.18902e-06
5.49679e-06
1.20207e-05
2.16343e-05
2.86117e-05
3.09462e-05
3.02864e-05
2.79047e-05
2.47818e-05
2.16225e-05
1.87948e-05
1.63956e-05
1.43787e-05
1.26572e-05
1.11546e-05
9.82398e-06
8.64944e-06
7.64701e-06
6.87399e-06
6.42116e-06
6.27002e-06
6.3209e-06
6.43048e-06
6.43258e-06
6.21228e-06
5.78782e-06
5.31138e-06
5.00435e-06
5.15679e-06
6.31159e-06
8.94249e-06
4.95686e-06
1.64236e-06
1.28561e-07
7.1244e-08
2.20828e-06
5.55522e-06
1.21917e-05
2.19093e-05
2.88112e-05
3.10287e-05
3.02817e-05
2.78601e-05
2.47458e-05
2.16268e-05
1.88497e-05
1.64964e-05
1.4513e-05
1.28087e-05
1.13053e-05
9.95549e-06
8.74461e-06
7.69153e-06
6.85683e-06
6.33564e-06
6.12277e-06
6.12257e-06
6.19892e-06
6.19582e-06
6.00437e-06
5.63724e-06
5.2318e-06
4.99699e-06
5.225e-06
6.4773e-06
9.12e-06
4.91705e-06
1.65231e-06
1.32492e-07
7.50732e-08
2.22784e-06
5.61561e-06
1.23722e-05
2.22045e-05
2.90355e-05
3.11398e-05
3.0308e-05
2.78472e-05
2.47399e-05
2.16582e-05
1.89293e-05
1.66212e-05
1.46725e-05
1.29884e-05
1.1488e-05
1.01224e-05
8.87689e-06
7.77251e-06
6.87282e-06
6.27682e-06
5.9959e-06
5.939e-06
5.97765e-06
5.96617e-06
5.80139e-06
5.48987e-06
5.15404e-06
4.99125e-06
5.29656e-06
6.64807e-06
9.2924e-06
4.88643e-06
1.66278e-06
1.36209e-07
7.88583e-08
2.24694e-06
5.67565e-06
1.25535e-05
2.25019e-05
2.92632e-05
3.12612e-05
3.03484e-05
2.78468e-05
2.47453e-05
2.17016e-05
1.9023e-05
1.67637e-05
1.48547e-05
1.31962e-05
1.17043e-05
1.03271e-05
9.0492e-06
7.89291e-06
6.92491e-06
6.24816e-06
5.89312e-06
5.77405e-06
5.77044e-06
5.74697e-06
5.60581e-06
5.34708e-06
5.07849e-06
4.98633e-06
5.36915e-06
6.82092e-06
9.45672e-06
4.86279e-06
1.67373e-06
1.39721e-07
8.2675e-08
2.26592e-06
5.73589e-06
1.27365e-05
2.27991e-05
2.94839e-05
3.13785e-05
3.03958e-05
2.78589e-05
2.47645e-05
2.1758e-05
1.91289e-05
1.69192e-05
1.50525e-05
1.34246e-05
1.19471e-05
1.05642e-05
9.25811e-06
8.05122e-06
7.01295e-06
6.25047e-06
5.81556e-06
5.62892e-06
5.57837e-06
5.53886e-06
5.41763e-06
5.20829e-06
5.00426e-06
4.98148e-06
5.44265e-06
6.99806e-06
9.62273e-06
4.84735e-06
1.68498e-06
1.43031e-07
8.6461e-08
2.28467e-06
5.79633e-06
1.29195e-05
2.30881e-05
2.96954e-05
3.14903e-05
3.04412e-05
2.78794e-05
2.47926e-05
2.18222e-05
1.92436e-05
1.7086e-05
1.5266e-05
1.36741e-05
1.22172e-05
1.08346e-05
9.50468e-06
8.24887e-06
7.13883e-06
6.28638e-06
5.76598e-06
5.50661e-06
5.40441e-06
5.34442e-06
5.23873e-06
5.07462e-06
4.93176e-06
4.97617e-06
5.51488e-06
7.17432e-06
9.78411e-06
4.83991e-06
1.69685e-06
1.46159e-07
9.02496e-08
2.30296e-06
5.85706e-06
1.31076e-05
2.33723e-05
2.98997e-05
3.15957e-05
3.0482e-05
2.78987e-05
2.4821e-05
2.18876e-05
1.93605e-05
1.72572e-05
1.54874e-05
1.39371e-05
1.2508e-05
1.11334e-05
9.78629e-06
8.48548e-06
7.30403e-06
6.35885e-06
5.74761e-06
5.41012e-06
5.25106e-06
5.16537e-06
5.06987e-06
4.94596e-06
4.86037e-06
4.97006e-06
5.58767e-06
7.35696e-06
9.94559e-06
4.84263e-06
1.70981e-06
1.49111e-07
9.40071e-08
2.32045e-06
5.91531e-06
1.32894e-05
2.36458e-05
3.00924e-05
3.16927e-05
3.05178e-05
2.79164e-05
2.48518e-05
2.19571e-05
1.94818e-05
1.7434e-05
1.57173e-05
1.42133e-05
1.28182e-05
1.14587e-05
1.01012e-05
8.76027e-06
7.50926e-06
6.4704e-06
5.76342e-06
5.3426e-06
5.12139e-06
5.0044e-06
4.91315e-06
4.82373e-06
4.79091e-06
4.96343e-06
5.66018e-06
7.5418e-06
1.01062e-05
4.85294e-06
1.72364e-06
1.51903e-07
9.77507e-08
2.33766e-06
5.9733e-06
1.34709e-05
2.39144e-05
3.02774e-05
3.17821e-05
3.05463e-05
2.79276e-05
2.48817e-05
2.20243e-05
1.95998e-05
1.76087e-05
1.59487e-05
1.44964e-05
1.31425e-05
1.18065e-05
1.04471e-05
9.07275e-06
7.756e-06
6.62427e-06
5.81679e-06
5.30704e-06
5.01797e-06
4.8635e-06
4.76988e-06
4.70864e-06
4.72367e-06
4.95618e-06
5.73151e-06
7.72643e-06
1.02654e-05
4.86955e-06
1.73818e-06
1.54542e-07
1.0147e-07
2.35438e-06
6.03003e-06
1.36494e-05
2.41745e-05
3.04515e-05
3.18618e-05
3.05665e-05
2.79317e-05
2.49072e-05
2.2088e-05
1.97154e-05
1.7783e-05
1.61823e-05
1.47855e-05
1.34782e-05
1.2173e-05
1.08198e-05
9.41972e-06
8.04268e-06
6.82069e-06
5.90928e-06
5.30575e-06
4.94326e-06
4.74496e-06
4.64195e-06
4.60212e-06
4.65958e-06
4.94866e-06
5.80122e-06
7.90928e-06
1.04221e-05
4.89096e-06
1.75319e-06
1.57034e-07
1.05161e-07
2.37082e-06
6.08626e-06
1.38262e-05
2.4428e-05
3.06162e-05
3.19318e-05
3.05766e-05
2.79254e-05
2.49221e-05
2.21426e-05
1.9824e-05
1.79525e-05
1.64141e-05
1.50769e-05
1.38221e-05
1.25553e-05
1.12171e-05
9.79958e-06
8.3685e-06
7.05943e-06
6.04181e-06
5.34038e-06
4.89915e-06
4.65054e-06
4.53086e-06
4.50529e-06
4.59935e-06
4.94102e-06
5.8686e-06
8.0893e-06
1.05763e-05
4.91641e-06
1.76854e-06
1.59385e-07
1.0883e-07
2.3871e-06
6.14216e-06
1.40013e-05
2.4674e-05
3.07705e-05
3.19912e-05
3.05766e-05
2.79098e-05
2.49291e-05
2.2191e-05
1.99277e-05
1.81184e-05
1.66439e-05
1.53689e-05
1.41708e-05
1.29487e-05
1.16336e-05
1.02073e-05
8.7294e-06
7.33748e-06
6.21326e-06
5.41115e-06
4.88676e-06
4.58182e-06
4.43828e-06
4.41966e-06
4.54416e-06
4.93423e-06
5.93494e-06
8.26597e-06
1.07275e-05
4.94496e-06
1.78408e-06
1.61603e-07
1.12463e-07
2.40326e-06
6.19807e-06
1.41741e-05
2.49118e-05
3.09134e-05
3.20381e-05
3.0563e-05
2.78805e-05
2.49231e-05
2.22287e-05
2.00229e-05
1.82779e-05
1.68696e-05
1.56601e-05
1.45231e-05
1.33517e-05
1.20675e-05
1.06408e-05
9.12351e-06
7.65331e-06
6.42311e-06
5.51825e-06
4.90667e-06
4.53973e-06
4.36526e-06
4.34627e-06
4.49501e-06
4.92956e-06
6.00194e-06
8.43969e-06
1.08767e-05
4.97618e-06
1.79971e-06
1.63696e-07
1.1608e-07
2.41955e-06
6.25556e-06
1.43453e-05
2.51423e-05
3.10453e-05
3.20726e-05
3.05365e-05
2.78385e-05
2.4906e-05
2.22576e-05
2.01108e-05
1.84309e-05
1.70899e-05
1.59478e-05
1.48751e-05
1.37594e-05
1.2513e-05
1.10945e-05
9.54587e-06
8.00327e-06
6.66951e-06
5.66115e-06
4.95928e-06
4.52521e-06
4.31314e-06
4.28658e-06
4.45328e-06
4.92784e-06
6.06905e-06
8.61081e-06
1.10239e-05
5.0095e-06
1.81535e-06
1.65674e-07
1.1965e-07
2.43501e-06
6.31137e-06
1.45125e-05
2.53631e-05
3.11637e-05
3.20919e-05
3.04933e-05
2.77794e-05
2.48731e-05
2.22758e-05
2.01894e-05
1.85758e-05
1.73041e-05
1.62318e-05
1.52269e-05
1.41715e-05
1.29691e-05
1.15662e-05
9.99405e-06
8.38523e-06
6.95125e-06
5.83943e-06
5.04472e-06
4.53882e-06
4.28278e-06
4.24163e-06
4.4199e-06
4.92952e-06
6.13601e-06
8.77912e-06
1.11698e-05
5.04475e-06
1.83096e-06
1.67547e-07
1.23182e-07
2.45006e-06
6.36634e-06
1.46786e-05
2.55772e-05
3.127e-05
3.20969e-05
3.04354e-05
2.77059e-05
2.48263e-05
2.22819e-05
2.02572e-05
1.87109e-05
1.75099e-05
1.65094e-05
1.55747e-05
1.45833e-05
1.34303e-05
1.20502e-05
1.04624e-05
8.79466e-06
7.26554e-06
6.05177e-06
5.16274e-06
4.58103e-06
4.27513e-06
4.21263e-06
4.39611e-06
4.93564e-06
6.20348e-06
8.94507e-06
1.13146e-05
5.0816e-06
1.8465e-06
1.69324e-07
1.26637e-07
2.46434e-06
6.41896e-06
1.48388e-05
2.57806e-05
3.13625e-05
3.20837e-05
3.03557e-05
2.76105e-05
2.47599e-05
2.22721e-05
2.03127e-05
1.88365e-05
1.77083e-05
1.67816e-05
1.59194e-05
1.4995e-05
1.38956e-05
1.25442e-05
1.0948e-05
9.22828e-06
7.60973e-06
6.29647e-06
5.31259e-06
4.65186e-06
4.29074e-06
4.20036e-06
4.38262e-06
4.94668e-06
6.27162e-06
9.10867e-06
1.14591e-05
5.12003e-06
1.86199e-06
1.71017e-07
1.30067e-07
2.47816e-06
6.47148e-06
1.5002e-05
2.59823e-05
3.14452e-05
3.20583e-05
3.02643e-05
2.7504e-05
2.46818e-05
2.2247e-05
2.03522e-05
1.89493e-05
1.78965e-05
1.7045e-05
1.6257e-05
1.54021e-05
1.43602e-05
1.30428e-05
1.1445e-05
9.68096e-06
7.97986e-06
6.5708e-06
5.49279e-06
4.75097e-06
4.33021e-06
4.206e-06
4.38079e-06
4.9638e-06
6.3413e-06
9.27044e-06
1.16033e-05
5.1598e-06
1.87741e-06
1.72634e-07
1.33443e-07
2.49146e-06
6.52262e-06
1.51615e-05
2.61731e-05
3.15127e-05
3.20146e-05
3.01517e-05
2.73761e-05
2.45851e-05
2.22092e-05
2.03824e-05
1.90506e-05
1.80736e-05
1.73002e-05
1.65889e-05
1.58058e-05
1.48242e-05
1.35451e-05
1.19514e-05
1.01497e-05
8.37288e-06
6.87216e-06
5.70138e-06
4.87717e-06
4.39313e-06
4.22983e-06
4.39127e-06
4.98772e-06
6.41292e-06
9.43035e-06
1.17481e-05
5.20095e-06
1.89277e-06
1.74187e-07
1.36781e-07
2.50443e-06
6.57354e-06
1.53217e-05
2.63578e-05
3.15669e-05
3.19548e-05
3.00231e-05
2.72333e-05
2.44743e-05
2.21571e-05
2.03999e-05
1.91425e-05
1.8241e-05
1.75446e-05
1.69107e-05
1.62011e-05
1.52824e-05
1.40455e-05
1.24616e-05
1.06294e-05
8.78455e-06
7.19742e-06
5.93643e-06
5.0296e-06
4.47957e-06
4.27258e-06
4.41521e-06
5.0197e-06
6.48772e-06
9.58939e-06
1.18936e-05
5.24342e-06
1.90808e-06
1.75685e-07
1.40053e-07
2.51671e-06
6.62272e-06
1.54776e-05
2.6531e-05
3.16055e-05
3.18768e-05
2.98747e-05
2.70714e-05
2.43464e-05
2.20907e-05
2.04054e-05
1.92242e-05
1.84003e-05
1.77815e-05
1.72249e-05
1.65897e-05
1.57356e-05
1.45435e-05
1.29736e-05
1.1117e-05
9.21128e-06
7.54319e-06
6.19514e-06
5.2064e-06
4.58868e-06
4.33428e-06
4.45314e-06
5.06044e-06
6.5663e-06
9.74798e-06
1.20404e-05
5.2873e-06
1.92337e-06
1.77141e-07
1.43288e-07
2.52867e-06
6.67148e-06
1.56329e-05
2.6696e-05
3.16295e-05
3.17811e-05
2.97081e-05
2.68927e-05
2.42035e-05
2.20105e-05
2.03984e-05
1.92942e-05
1.85485e-05
1.8008e-05
1.75286e-05
1.69674e-05
1.6179e-05
1.50342e-05
1.34825e-05
1.16078e-05
9.64892e-06
7.90624e-06
6.47515e-06
5.40605e-06
4.71985e-06
4.41523e-06
4.50615e-06
5.1115e-06
6.65052e-06
9.90787e-06
1.2189e-05
5.33259e-06
1.93868e-06
1.78563e-07
1.46456e-07
2.53999e-06
6.71854e-06
1.57837e-05
2.68491e-05
3.16376e-05
3.16674e-05
2.9523e-05
2.66968e-05
2.40454e-05
2.19174e-05
2.03805e-05
1.93547e-05
1.86879e-05
1.8226e-05
1.78239e-05
1.73361e-05
1.66126e-05
1.55159e-05
1.39851e-05
1.20974e-05
1.00928e-05
8.28245e-06
6.77324e-06
5.62628e-06
4.87173e-06
4.51497e-06
4.57447e-06
5.17366e-06
6.74141e-06
1.00702e-05
1.23403e-05
5.37938e-06
1.95403e-06
1.79962e-07
1.49564e-07
2.5507e-06
6.7642e-06
1.59316e-05
2.69921e-05
3.16302e-05
3.15353e-05
2.93189e-05
2.64833e-05
2.38719e-05
2.18105e-05
2.03504e-05
1.94039e-05
1.88164e-05
1.8433e-05
1.81079e-05
1.76932e-05
1.70337e-05
1.59851e-05
1.44774e-05
1.25814e-05
1.05384e-05
8.66792e-06
7.08642e-06
5.86513e-06
5.04336e-06
4.63348e-06
4.65907e-06
5.24872e-06
6.84152e-06
1.02377e-05
1.24951e-05
5.42777e-06
1.96947e-06
1.8134e-07
1.52607e-07
2.56084e-06
6.80837e-06
1.60757e-05
2.71235e-05
3.16067e-05
3.13849e-05
2.90966e-05
2.62537e-05
2.36848e-05
2.16921e-05
2.03106e-05
1.94445e-05
1.89365e-05
1.86313e-05
1.83822e-05
1.80391e-05
1.74422e-05
1.644e-05
1.49561e-05
1.30557e-05
1.09809e-05
9.05782e-06
7.41058e-06
6.11953e-06
5.23274e-06
4.76974e-06
4.75971e-06
5.3372e-06
6.95211e-06
1.0412e-05
1.2654e-05
5.47782e-06
1.98504e-06
1.82704e-07
1.55585e-07
2.57032e-06
6.85094e-06
1.62162e-05
2.72439e-05
3.1567e-05
3.12154e-05
2.8855e-05
2.60069e-05
2.34827e-05
2.15606e-05
2.02594e-05
1.94747e-05
1.90467e-05
1.88193e-05
1.86454e-05
1.83724e-05
1.78362e-05
1.6879e-05
1.54181e-05
1.35168e-05
1.14167e-05
9.44836e-06
7.7421e-06
6.38664e-06
5.43817e-06
4.92324e-06
4.87706e-06
5.44082e-06
7.07591e-06
1.05964e-05
1.28175e-05
5.52947e-06
2.00075e-06
1.84054e-07
1.58506e-07
2.57931e-06
6.89235e-06
1.63537e-05
2.73532e-05
3.15111e-05
3.10274e-05
2.85956e-05
2.57449e-05
2.32684e-05
2.1419e-05
2.01996e-05
1.94973e-05
1.91494e-05
1.89995e-05
1.88993e-05
1.86943e-05
1.8216e-05
1.73012e-05
1.5862e-05
1.39599e-05
1.18408e-05
9.83498e-06
8.07694e-06
6.66298e-06
5.65694e-06
5.09223e-06
5.0103e-06
5.55977e-06
7.21424e-06
1.07929e-05
1.29859e-05
5.5829e-06
2.01669e-06
1.85392e-07
1.61366e-07
2.5877e-06
6.93238e-06
1.6488e-05
2.74511e-05
3.14382e-05
3.08198e-05
2.83172e-05
2.54668e-05
2.30407e-05
2.12658e-05
2.01296e-05
1.95104e-05
1.9243e-05
1.91703e-05
1.91429e-05
1.90038e-05
1.85808e-05
1.77055e-05
1.62866e-05
1.43857e-05
1.22519e-05
1.02147e-05
8.41168e-06
6.94554e-06
5.88689e-06
5.2756e-06
5.15949e-06
5.6952e-06
7.36917e-06
1.10038e-05
1.31594e-05
5.63799e-06
2.03286e-06
1.86717e-07
1.64174e-07
2.59567e-06
6.97153e-06
1.66199e-05
2.75382e-05
3.13492e-05
3.05942e-05
2.80224e-05
2.51757e-05
2.28028e-05
2.11043e-05
2.00523e-05
1.95167e-05
1.93296e-05
1.93333e-05
1.93771e-05
1.93016e-05
1.89303e-05
1.8091e-05
1.66902e-05
1.47914e-05
1.26476e-05
1.0585e-05
8.74332e-06
7.23114e-06
6.12515e-06
5.47116e-06
5.32336e-06
5.84692e-06
7.54198e-06
1.12314e-05
1.33387e-05
5.69512e-06
2.04938e-06
1.88037e-07
1.66918e-07
2.60309e-06
7.00944e-06
1.67486e-05
2.76133e-05
3.1243e-05
3.03496e-05
2.77105e-05
2.48712e-05
2.25546e-05
2.09338e-05
1.99669e-05
1.9515e-05
1.94081e-05
1.94876e-05
1.96015e-05
1.95873e-05
1.92647e-05
1.84578e-05
1.70726e-05
1.51764e-05
1.30268e-05
1.09438e-05
9.06967e-06
7.51762e-06
6.36971e-06
5.67732e-06
5.50099e-06
6.01499e-06
7.73329e-06
1.14768e-05
1.35234e-05
5.75414e-06
2.06625e-06
1.89353e-07
1.69604e-07
2.61011e-06
7.04649e-06
1.68748e-05
2.76775e-05
3.11213e-05
3.00884e-05
2.73847e-05
2.4557e-05
2.22995e-05
2.07579e-05
1.98765e-05
1.95079e-05
1.94801e-05
1.9634e-05
1.98161e-05
1.98607e-05
1.95833e-05
1.88051e-05
1.7433e-05
1.55396e-05
1.33879e-05
1.12896e-05
9.38847e-06
7.80244e-06
6.61817e-06
5.89221e-06
5.69156e-06
6.20006e-06
7.94399e-06
1.17409e-05
1.37142e-05
5.81549e-06
2.0836e-06
1.90677e-07
1.72215e-07
2.61654e-06
7.08206e-06
1.69969e-05
2.7729e-05
3.09826e-05
2.98097e-05
2.70446e-05
2.42329e-05
2.20377e-05
2.05766e-05
1.97809e-05
1.94952e-05
1.95455e-05
1.97725e-05
2.00209e-05
2.01218e-05
1.98865e-05
1.91335e-05
1.77719e-05
1.58812e-05
1.37307e-05
1.16213e-05
9.69841e-06
8.08398e-06
6.86889e-06
6.11435e-06
5.8938e-06
6.40104e-06
8.17426e-06
1.20243e-05
1.39104e-05
5.87888e-06
2.10139e-06
1.92011e-07
1.74756e-07
2.62249e-06
7.11646e-06
1.71156e-05
2.77689e-05
3.08288e-05
2.95157e-05
2.66929e-05
2.39019e-05
2.17722e-05
2.0393e-05
1.96832e-05
1.94794e-05
1.96061e-05
1.99039e-05
2.0216e-05
2.03701e-05
2.01735e-05
1.94423e-05
1.80888e-05
1.6201e-05
1.40547e-05
1.19379e-05
9.99813e-06
8.36062e-06
7.11992e-06
6.3418e-06
6.10608e-06
6.61668e-06
8.42357e-06
1.23266e-05
1.41119e-05
5.9444e-06
2.11968e-06
1.93365e-07
1.77209e-07
2.62778e-06
7.14901e-06
1.72293e-05
2.77958e-05
3.06585e-05
2.92053e-05
2.63287e-05
2.35634e-05
2.15028e-05
2.02073e-05
1.9584e-05
1.94614e-05
1.96631e-05
2.00295e-05
2.04026e-05
2.06067e-05
2.04451e-05
1.97323e-05
1.83847e-05
1.64998e-05
1.43602e-05
1.22396e-05
1.0287e-05
8.63121e-06
7.36995e-06
6.57327e-06
6.32711e-06
6.84592e-06
8.69122e-06
1.26472e-05
1.43175e-05
6.01169e-06
2.13842e-06
1.9474e-07
1.79583e-07
2.63251e-06
7.18014e-06
1.73392e-05
2.78112e-05
3.04731e-05
2.88796e-05
2.59534e-05
2.32192e-05
2.12314e-05
2.00218e-05
1.94856e-05
1.94438e-05
1.97185e-05
2.01509e-05
2.05816e-05
2.08319e-05
2.07014e-05
2.00036e-05
1.866e-05
1.67784e-05
1.46479e-05
1.25265e-05
1.05647e-05
8.89485e-06
7.61762e-06
6.80685e-06
6.55512e-06
7.08729e-06
8.9762e-06
1.29849e-05
1.45264e-05
6.08055e-06
2.15759e-06
1.96142e-07
1.81868e-07
2.63658e-06
7.20943e-06
1.74444e-05
2.78141e-05
3.02709e-05
2.85367e-05
2.55653e-05
2.28677e-05
2.09572e-05
1.98362e-05
1.93887e-05
1.94277e-05
1.97746e-05
2.02707e-05
2.07557e-05
2.10482e-05
2.09445e-05
2.02581e-05
1.89165e-05
1.70386e-05
1.49193e-05
1.27996e-05
1.08318e-05
9.15151e-06
7.86242e-06
7.04196e-06
6.78901e-06
7.33929e-06
9.27669e-06
1.33376e-05
1.47374e-05
6.15059e-06
2.17712e-06
1.97574e-07
1.84079e-07
2.64017e-06
7.23758e-06
1.75466e-05
2.78059e-05
3.00528e-05
2.81774e-05
2.51653e-05
2.251e-05
2.06813e-05
1.96524e-05
1.92951e-05
1.94151e-05
1.9833e-05
2.03908e-05
2.09268e-05
2.12572e-05
2.11758e-05
2.04968e-05
1.91554e-05
1.72815e-05
1.51751e-05
1.30592e-05
1.10882e-05
9.40078e-06
8.10356e-06
7.27732e-06
7.02718e-06
7.60091e-06
9.592e-06
1.37042e-05
1.49493e-05
6.2214e-06
2.19695e-06
1.99032e-07
1.86215e-07
2.64325e-06
7.26455e-06
1.76459e-05
2.7786e-05
2.98169e-05
2.77996e-05
2.47516e-05
2.21444e-05
2.04022e-05
1.94705e-05
1.92049e-05
1.94063e-05
1.98954e-05
2.05137e-05
2.10982e-05
2.14625e-05
2.13986e-05
2.07233e-05
1.938e-05
1.75106e-05
1.54181e-05
1.33075e-05
1.13351e-05
9.6431e-06
8.34083e-06
7.51247e-06
7.26935e-06
7.87062e-06
9.91991e-06
1.40819e-05
1.5161e-05
6.29253e-06
2.217e-06
2.00518e-07
1.88288e-07
2.646e-06
7.29087e-06
1.77435e-05
2.77552e-05
2.95638e-05
2.74042e-05
2.43258e-05
2.17724e-05
2.01203e-05
1.92887e-05
1.91165e-05
1.94008e-05
1.99619e-05
2.06404e-05
2.12712e-05
2.16655e-05
2.16146e-05
2.09389e-05
1.95923e-05
1.77283e-05
1.56498e-05
1.35454e-05
1.15732e-05
9.87887e-06
8.57425e-06
7.74693e-06
7.51456e-06
8.14785e-06
1.02595e-05
1.44694e-05
1.53717e-05
6.36378e-06
2.23719e-06
2.02025e-07
1.90294e-07
2.64837e-06
7.31649e-06
1.78391e-05
2.77122e-05
2.92916e-05
2.69897e-05
2.3887e-05
2.13936e-05
1.98358e-05
1.91072e-05
1.90306e-05
1.93996e-05
2.0034e-05
2.07726e-05
2.14481e-05
2.18691e-05
2.18269e-05
2.11475e-05
1.97964e-05
1.7939e-05
1.58735e-05
1.37748e-05
1.18036e-05
1.01084e-05
8.80358e-06
7.98005e-06
7.76195e-06
8.4317e-06
1.06092e-05
1.48645e-05
1.55792e-05
6.43399e-06
2.25731e-06
2.03532e-07
1.92241e-07
2.65047e-06
7.34165e-06
1.79332e-05
2.76575e-05
2.90012e-05
2.65578e-05
2.34373e-05
2.10096e-05
1.95493e-05
1.89256e-05
1.89461e-05
1.94014e-05
2.01103e-05
2.09097e-05
2.16289e-05
2.20739e-05
2.20367e-05
2.13505e-05
1.99944e-05
1.81455e-05
1.60911e-05
1.39973e-05
1.20275e-05
1.03328e-05
9.02966e-06
8.21221e-06
8.01135e-06
8.72152e-06
1.09684e-05
1.52649e-05
1.57828e-05
6.50292e-06
2.27731e-06
2.0504e-07
1.9412e-07
2.65221e-06
7.36618e-06
1.80253e-05
2.75899e-05
2.8691e-05
2.61078e-05
2.29768e-05
2.06212e-05
1.92617e-05
1.87448e-05
1.8864e-05
1.9407e-05
2.01917e-05
2.10525e-05
2.18148e-05
2.22816e-05
2.22461e-05
2.155e-05
2.01881e-05
1.83488e-05
1.63033e-05
1.42133e-05
1.2245e-05
1.05519e-05
9.25218e-06
8.4432e-06
8.26265e-06
9.0172e-06
1.1337e-05
1.56713e-05
1.59821e-05
6.57068e-06
2.29719e-06
2.06552e-07
1.95938e-07
2.65369e-06
7.39026e-06
1.81157e-05
2.75096e-05
2.83621e-05
2.56417e-05
2.25082e-05
2.02301e-05
1.89738e-05
1.85647e-05
1.87833e-05
1.94151e-05
2.02768e-05
2.11997e-05
2.20048e-05
2.24918e-05
2.24552e-05
2.17469e-05
2.03781e-05
1.85489e-05
1.65108e-05
1.44236e-05
1.24569e-05
1.07661e-05
9.47116e-06
8.67264e-06
8.51516e-06
9.31772e-06
1.17133e-05
1.60811e-05
1.61764e-05
6.63708e-06
2.31696e-06
2.08065e-07
1.97688e-07
2.65482e-06
7.4137e-06
1.82038e-05
2.74155e-05
2.80136e-05
2.51601e-05
2.20326e-05
1.98376e-05
1.86869e-05
1.83864e-05
1.8705e-05
1.94263e-05
2.03659e-05
2.13517e-05
2.21995e-05
2.27054e-05
2.26655e-05
2.19428e-05
2.05663e-05
1.87466e-05
1.67145e-05
1.46294e-05
1.26641e-05
1.09762e-05
9.68736e-06
8.90114e-06
8.7693e-06
9.62309e-06
1.20965e-05
1.64926e-05
1.63657e-05
6.70213e-06
2.33671e-06
2.09572e-07
1.99374e-07
2.65567e-06
7.4366e-06
1.82896e-05
2.73075e-05
2.76466e-05
2.46654e-05
2.15526e-05
1.94459e-05
1.84019e-05
1.82101e-05
1.86285e-05
1.94395e-05
2.04577e-05
2.15069e-05
2.23977e-05
2.29217e-05
2.28771e-05
2.21388e-05
2.07539e-05
1.89433e-05
1.69159e-05
1.48321e-05
1.28681e-05
1.11833e-05
9.90098e-06
9.12814e-06
9.02393e-06
9.93193e-06
1.2485e-05
1.69039e-05
1.65496e-05
6.76567e-06
2.35639e-06
2.11071e-07
2.00985e-07
2.65614e-06
7.45858e-06
1.83717e-05
2.71842e-05
2.72609e-05
2.41589e-05
2.10703e-05
1.90564e-05
1.81203e-05
1.80364e-05
1.85541e-05
1.94546e-05
2.05517e-05
2.16649e-05
2.25987e-05
2.31403e-05
2.30903e-05
2.23358e-05
2.09426e-05
1.91398e-05
1.71157e-05
1.50324e-05
1.30696e-05
1.13883e-05
1.01134e-05
9.35531e-06
9.2806e-06
1.02449e-05
1.28781e-05
1.73135e-05
1.67279e-05
6.82758e-06
2.3758e-06
2.12558e-07
2.02522e-07
2.65624e-06
7.47953e-06
1.84497e-05
2.70457e-05
2.6858e-05
2.36435e-05
2.05883e-05
1.86712e-05
1.78431e-05
1.78659e-05
1.84811e-05
1.94701e-05
2.06458e-05
2.18233e-05
2.28004e-05
2.33599e-05
2.33047e-05
2.25349e-05
2.11345e-05
1.93381e-05
1.73155e-05
1.52316e-05
1.32696e-05
1.15918e-05
1.03244e-05
9.58139e-06
9.53732e-06
1.05606e-05
1.32747e-05
1.77204e-05
1.69008e-05
6.88792e-06
2.39492e-06
2.14031e-07
2.0397e-07
2.65581e-06
7.49876e-06
1.85217e-05
2.68908e-05
2.64382e-05
2.31206e-05
2.01081e-05
1.82918e-05
1.75721e-05
1.76995e-05
1.84098e-05
1.94856e-05
2.07392e-05
2.19807e-05
2.30015e-05
2.35793e-05
2.35199e-05
2.2737e-05
2.13319e-05
1.95395e-05
1.7516e-05
1.54304e-05
1.34687e-05
1.17945e-05
1.05352e-05
9.80863e-06
9.79742e-06
1.08793e-05
1.36737e-05
1.81232e-05
1.70683e-05
6.94664e-06
2.41371e-06
2.15487e-07
2.05327e-07
2.6548e-06
7.51586e-06
1.8587e-05
2.67195e-05
2.60023e-05
2.25915e-05
1.96308e-05
1.79189e-05
1.73089e-05
1.75382e-05
1.83402e-05
1.95004e-05
2.08305e-05
2.21358e-05
2.32003e-05
2.37972e-05
2.37356e-05
2.2943e-05
2.1537e-05
1.9746e-05
1.77189e-05
1.56297e-05
1.36677e-05
1.19972e-05
1.07467e-05
1.00382e-05
1.00618e-05
1.12022e-05
1.40752e-05
1.85217e-05
1.72313e-05
7.00407e-06
2.43222e-06
2.16929e-07
2.06583e-07
2.65303e-06
7.53001e-06
1.86439e-05
2.65311e-05
2.55493e-05
2.20555e-05
1.91555e-05
1.75517e-05
1.70542e-05
1.73826e-05
1.82733e-05
1.95156e-05
2.09206e-05
2.22886e-05
2.33965e-05
2.40129e-05
2.39508e-05
2.31521e-05
2.17489e-05
1.99573e-05
1.79242e-05
1.58303e-05
1.38675e-05
1.22007e-05
1.09597e-05
1.02702e-05
1.03299e-05
1.15289e-05
1.44787e-05
1.89153e-05
1.73902e-05
7.0603e-06
2.45045e-06
2.1836e-07
2.0775e-07
2.65062e-06
7.54117e-06
1.86929e-05
2.63252e-05
2.50779e-05
2.15113e-05
1.86812e-05
1.71891e-05
1.68042e-05
1.72317e-05
1.82105e-05
1.95336e-05
2.10119e-05
2.24411e-05
2.35914e-05
2.42271e-05
2.41659e-05
2.33639e-05
2.19663e-05
2.01724e-05
1.81319e-05
1.60322e-05
1.40683e-05
1.24055e-05
1.11745e-05
1.05049e-05
1.06019e-05
1.18601e-05
1.48846e-05
1.93044e-05
1.75462e-05
7.11572e-06
2.46847e-06
2.19787e-07