/*--------------------------------*- C++ -*----------------------------------*\
| =========                 |                                                 |
| \\      /  F ield         | OpenFOAM: The Open Source CFD Toolbox           |
|  \\    /   O peration     | Version:  v2006                                 |
|   \\  /    A nd           | Website:  www.openfoam.com                      |
|    \\/     M anipulation  |                                                 |
\*---------------------------------------------------------------------------*/
FoamFile
{
    version     2.0;
    format      ascii;
    class       volScalarField;
    location    "69";
    object      k;
}
// * * * * * * * * * * * * * * * * * * * * * * * * * * * * * * * * * * * * * //

dimensions      [0 2 -2 0 0 0 0];


internalField   nonuniform List<scalar> 
78750
(
0.000666801
0.00307714
0.00336776
0.00332174
0.00315672
0.00293206
0.00272181
0.00252847
0.00237874
0.00222333
0.0021263
0.00206343
0.00208758
0.00217564
0.00233952
0.00259465
0.00285991
0.00321629
0.00345077
0.00375337
0.00387667
0.00401397
0.00382328
0.00376256
0.0032521
0.0031486
0.00244232
0.00233815
0.00136357
0.00130643
0.000126066
0.000106812
0.000680164
0.00166878
0.000761092
0.0117209
0.0425834
0.0307127
0.0250247
0.0230627
0.0224837
0.0222653
0.0222523
0.0223725
0.022665
0.0231132
0.0236764
0.0243042
0.0249349
0.025475
0.025759
0.0255114
0.0243309
0.0226244
0.0216352
0.0210245
0.0202515
0.0190718
0.0177636
0.0166605
0.0157708
0.0149748
0.014191
0.0133121
0.0123104
0.0110884
0.00979436
0.00867984
0.00825633
0.00773387
0.0105376
0.0129172
0.0153995
0.0158812
0.0154634
0.015146
0.0150175
0.0150245
0.0154346
0.0162284
0.0171545
0.0181451
0.0192056
0.0203056
0.0212452
0.0216768
0.0211022
0.0180068
0.0119276
0.00964278
0.0139836
0.0152397
0.0161677
0.0166775
0.016672
0.0164125
0.0160286
0.0155814
0.0151209
0.0146554
0.014108
0.013454
0.0127412
0.0120842
0.010684
0.0050863
0.00735067
0.00889907
0.0105993
0.0121586
0.0138465
0.0156132
0.0170197
0.0180075
0.0186422
0.0189931
0.0191002
0.0189544
0.0184247
0.0170457
0.0140832
0.0106796
0.0105793
0.0126197
0.0126058
0.0126636
0.0135526
0.0142158
0.0150439
0.0157597
0.0164751
0.0171604
0.0176935
0.0179018
0.0176646
0.0170331
0.0162028
0.0153281
0.0144001
0.0124066
0.00837293
0.0147373
0.0180761
0.0203681
0.0218637
0.0229304
0.023733
0.0243163
0.0246933
0.0248839
0.0249249
0.0248572
0.0247222
0.0245626
0.0244232
0.0243591
0.0245041
0.0249724
0.0253807
0.0254234
0.0252749
0.0250809
0.0248474
0.0245422
0.023722
0.0206485
0.0163046
0.0138118
0.0129712
0.013713
0.0148656
0.0153298
0.0149182
0.0135124
0.00881567
0.00914904
0.0148033
0.0172639
0.0189309
0.0200872
0.0207885
0.0211032
0.0211671
0.0210932
0.0209822
0.0209239
0.0210007
0.0212487
0.0216031
0.0219973
0.022371
0.0227002
0.0229944
0.0232533
0.0234903
0.0237297
0.0239997
0.0243446
0.0248848
0.0248931
0.0218426
0.0161476
0.01135
0.00902822
0.00858085
0.00956424
0.0110942
0.0119982
0.0117782
0.00903249
0.00154049
0.00430879
0.00538179
0.00574801
0.0057316
0.00510081
0.00459453
0.00393201
0.00325164
0.00233003
0.00149288
0.00117184
0.0012562
0.0016599
0.00260774
0.00409708
0.00574611
0.00730195
0.00854302
0.00930477
0.00963072
0.00965258
0.00947519
0.00914364
0.00861257
0.00768505
0.00647027
0.00546097
0.00496622
0.00497044
0.00548256
0.00645879
0.00728852
0.00759301
0.00657699
0.000722708
0.00161828
0.00136658
0.000875884
0.000201747
0.000346763
0.000246093
0.000364004
0.000548003
0.000456184
2.92765e-05
0.00076724
0.0017354
0.00254549
0.00333165
0.00408362
0.00472227
0.00520859
0.00555314
0.00577353
0.00589226
0.00592204
0.00586336
0.0057181
0.00550619
0.00526943
0.00505109
0.00487873
0.004752
0.00465545
0.00458983
0.00458291
0.00458058
0.00441931
0.0034472
0.00126349
0.00310763
0.00382119
0.00423525
0.00452899
0.0047421
0.00488418
0.00496776
0.00501209
0.00503591
0.00505735
0.00508595
0.00512266
0.0051627
0.0052027
0.00523458
0.00525398
0.00526378
0.00526977
0.00527461
0.00527327
0.00525835
0.00522555
0.00517355
0.00510526
0.00502432
0.00493144
0.00482178
0.00468471
0.0045066
0.00428082
0.00402697
0.00375615
0.00336177
0.0022561
0.00115999
0.00288839
0.00354903
0.00393655
0.00420948
0.00441932
0.00458684
0.0047204
0.00482361
0.00489985
0.00495421
0.00499286
0.00502154
0.00504462
0.00506525
0.00508541
0.00510599
0.005127
0.00514752
0.00516549
0.00517722
0.00517778
0.00516221
0.00512669
0.00506935
0.00498906
0.00487916
0.00472702
0.00452425
0.00427075
0.00397816
0.00367663
0.00336923
0.00291289
0.00173599
0.00131645
0.00320858
0.00382895
0.00413149
0.00431935
0.004454
0.00455971
0.00464765
0.00472504
0.00479596
0.00486091
0.00492045
0.00497471
0.0050229
0.00506369
0.00509538
0.00511662
0.00512711
0.00512794
0.00512167
0.00511125
0.00509855
0.00508311
0.00506188
0.00503014
0.0049826
0.00491234
0.00480978
0.00466328
0.00445813
0.00417915
0.00383619
0.00346677
0.00296488
0.00174848
0.00141619
0.00372986
0.00442402
0.00471598
0.004867
0.00494987
0.00499802
0.00503081
0.00505863
0.00508566
0.00511263
0.00513944
0.00516582
0.00519139
0.00521565
0.00523796
0.00525715
0.00527194
0.00528136
0.00528529
0.00528445
0.0052803
0.00527419
0.00526632
0.00525514
0.00523731
0.00520787
0.00516025
0.00508573
0.004969
0.00477904
0.00447302
0.00406028
0.00354743
0.00248711
0.000967049
0.00345864
0.00427174
0.00464301
0.00488859
0.00508485
0.00524305
0.005366
0.00545795
0.0055226
0.00556248
0.00558013
0.00557857
0.0055613
0.00553218
0.00549514
0.00545369
0.00541074
0.00536866
0.00532953
0.00529499
0.00526607
0.00524308
0.00522547
0.00521157
0.00519872
0.00518353
0.00516032
0.00511875
0.00503832
0.00488507
0.00463718
0.00433812
0.00393994
0.00295038
0.000919907
0.00264318
0.00347192
0.00395301
0.00425134
0.00446383
0.00464529
0.00481962
0.00498964
0.00514885
0.00528897
0.00540223
0.00548395
0.0055341
0.00555597
0.00555434
0.00553429
0.00549987
0.005454
0.0053988
0.00533556
0.00526505
0.00518772
0.00510375
0.00501312
0.0049127
0.00479476
0.00465313
0.00449044
0.0043124
0.00412201
0.00391897
0.00370336
0.00336681
0.00238577
0.00150041
0.00375942
0.00452669
0.00482449
0.00490619
0.00490714
0.00489978
0.00490534
0.0049264
0.00496501
0.00501968
0.00508682
0.00516059
0.00523404
0.0053005
0.00535481
0.00539392
0.0054165
0.00542195
0.00541022
0.00538106
0.00533383
0.00526754
0.00518102
0.00507335
0.00494217
0.00477978
0.00457541
0.00432261
0.0040255
0.00370393
0.00338865
0.00308147
0.00262901
0.00138028
0.0025052
0.00456632
0.00535465
0.00573548
0.00578328
0.00567688
0.00553877
0.00542502
0.00535032
0.00530488
0.00527624
0.00526012
0.00525506
0.00525883
0.00526868
0.00528157
0.00529456
0.00530508
0.00531097
0.00531056
0.00530235
0.00528475
0.00525611
0.00521446
0.00515718
0.00508073
0.00498036
0.00485088
0.00468671
0.00447938
0.0042241
0.0039338
0.00362573
0.00318862
0.00189022
0.00343138
0.00558927
0.00638096
0.00670815
0.00668731
0.00648766
0.00625517
0.00606327
0.0059245
0.00582937
0.00576598
0.00572568
0.00570297
0.00569375
0.00569452
0.00570166
0.00571128
0.00571968
0.00572384
0.00572174
0.00571207
0.0056934
0.00566362
0.00562061
0.00556256
0.00548723
0.00539155
0.00527113
0.00511991
0.00492978
0.00469259
0.0044017
0.00405202
0.00355279
0.00222876
0.00390943
0.00624514
0.00631594
0.00608415
0.00596209
0.00592407
0.00589489
0.00586238
0.00582806
0.00579756
0.00577512
0.00576285
0.00576224
0.00577485
0.00580329
0.0058513
0.00592293
0.00601942
0.00613158
0.00624723
0.00635053
0.00643575
0.00650647
0.00656498
0.00660646
0.00662361
0.0066096
0.00655801
0.00646238
0.00631525
0.0061083
0.00582148
0.00540059
0.00462943
0.00234794
0.0033908
0.00579345
0.00586088
0.00594791
0.00596362
0.00592551
0.00584769
0.00574253
0.00562216
0.00549299
0.0053565
0.00521258
0.00506089
0.00490066
0.00473112
0.00455261
0.00436907
0.00419555
0.00406416
0.00401693
0.00403587
0.0040686
0.0040832
0.00406983
0.004027
0.00395692
0.00386626
0.0037609
0.00364318
0.00351133
0.00335052
0.00312421
0.0027903
0.00223963
0.000838004
0.00408447
0.00578756
0.00606621
0.00614366
0.00616031
0.0061457
0.00610593
0.00604454
0.0059657
0.00587335
0.00576692
0.00564788
0.00552392
0.00539735
0.00525731
0.00508771
0.00487841
0.00463296
0.00437235
0.00412953
0.00393625
0.00381773
0.00377181
0.00379353
0.00388894
0.00405622
0.00427749
0.00451208
0.00467514
0.00469026
0.00454558
0.00425496
0.00378473
0.0030341
0.00106104
0.00176666
0.00421617
0.00479746
0.00517018
0.00543239
0.00561321
0.00573165
0.00579825
0.00581938
0.00580149
0.00573849
0.00564971
0.00559664
0.00562413
0.00570623
0.00577579
0.00577929
0.00568273
0.00546542
0.00513079
0.00472534
0.00432953
0.0039873
0.00371502
0.00351574
0.00337301
0.00327184
0.00321922
0.00325159
0.00342813
0.00372049
0.00395166
0.00395699
0.00358214
0.00189155
0.00153364
0.0039985
0.00523474
0.00589942
0.00625004
0.00643258
0.0065213
0.0065416
0.00649283
0.0063666
0.00611564
0.00580228
0.00559803
0.00565424
0.00595108
0.00628681
0.00650309
0.00657299
0.00648738
0.00614964
0.00549185
0.00469508
0.00402632
0.00354183
0.00327959
0.00331796
0.00354611
0.0037939
0.00393634
0.00391055
0.0037763
0.00361836
0.00342762
0.00300871
0.00111883
0.00379961
0.00579238
0.00636434
0.00645566
0.00643836
0.00643143
0.00644265
0.00642762
0.00632846
0.00607255
0.00559161
0.00537045
0.0056456
0.00621717
0.00688606
0.00745478
0.00782036
0.00799535
0.00804515
0.00800928
0.00789042
0.00767604
0.0073625
0.00696255
0.00652696
0.00610532
0.0056965
0.00529331
0.00490709
0.00451797
0.00408491
0.00357503
0.0028014
0.00205151
0.00109363
0.00626072
0.00686667
0.00683056
0.00679951
0.00689721
0.0070779
0.00717159
0.00707973
0.0067254
0.0059845
0.00536211
0.00664267
0.00811749
0.00852452
0.00872175
0.00887618
0.00900988
0.00911137
0.00916948
0.00917569
0.00912269
0.00900565
0.00882137
0.00856592
0.00823407
0.00781996
0.0073141
0.00670468
0.00598275
0.00504544
0.00371934
0.0020822
0.00142009
0.00156171
0.00131224
0.00698942
0.0069439
0.00684453
0.00692058
0.00715701
0.00735436
0.00743345
0.00735489
0.00699688
0.0063975
0.00624653
0.00704248
0.00767112
0.00790163
0.00810156
0.00829695
0.00847818
0.00863564
0.00876289
0.00885371
0.00890166
0.00890027
0.00884177
0.00871932
0.00852687
0.00825737
0.00790074
0.00744166
0.00679615
0.00573477
0.00416379
0.00291802
0.00189733
0.00123263
0.000825087
0.00631048
0.00651539
0.00642166
0.00641541
0.00636265
0.00626337
0.00616897
0.00617859
0.00639602
0.00679727
0.00710429
0.00730407
0.00764935
0.00805114
0.00833466
0.00852017
0.00865069
0.0087478
0.0088195
0.00886702
0.00888809
0.0088785
0.0088329
0.00874503
0.00860668
0.00840572
0.00812573
0.00772938
0.00713001
0.00619788
0.0049587
0.0038741
0.00308271
0.00231199
0.00106282
0.00157437
0.00480896
0.00583768
0.00612656
0.00605946
0.00584059
0.0055467
0.00527564
0.00502206
0.00485168
0.00437973
0.00368296
0.00372214
0.0052094
0.00669662
0.00760368
0.00810565
0.00840232
0.00858746
0.00870303
0.00876941
0.00879495
0.00878153
0.00872602
0.00862182
0.00845916
0.00822365
0.00788022
0.00735765
0.00656929
0.00552008
0.00446444
0.00363802
0.00287617
0.00151865
0.00508202
0.00611693
0.00647698
0.00649421
0.00632725
0.00605834
0.00576758
0.00554374
0.0051578
0.00488296
0.00434902
0.00273292
0.000444589
0.00183442
0.00459745
0.00641136
0.00719569
0.0076022
0.0078839
0.00809335
0.00824149
0.00833714
0.00838537
0.00838706
0.00833875
0.00823283
0.00805765
0.00779792
0.00740433
0.00677342
0.0058612
0.00486119
0.00406411
0.00333183
0.00196399
0.00915175
0.00785365
0.00705032
0.00611468
0.00507404
0.00409488
0.0034816
0.00339049
0.00359716
0.00441908
0.00674237
0.00834019
0.00822114
0.00792707
0.00785188
0.00790315
0.00798029
0.00804594
0.00809422
0.0081252
0.00813869
0.00813374
0.00810809
0.00805772
0.00797647
0.00785565
0.00768114
0.00742525
0.00703944
0.0064717
0.00574407
0.00502701
0.00438283
0.00366522
0.00217325
0.00393157
0.0056321
0.00644797
0.00669222
0.00662707
0.0062747
0.00580092
0.00561414
0.00585443
0.0060211
0.00572299
0.00566645
0.00611168
0.00673407
0.00723725
0.007557
0.00774121
0.00784609
0.00790249
0.00792625
0.00792542
0.00790422
0.00786456
0.0078065
0.00772795
0.00762376
0.00748451
0.00729391
0.00702648
0.00664989
0.00614564
0.00555581
0.00494941
0.00421234
0.00245868
0.00456885
0.00667332
0.00720885
0.00744587
0.00762835
0.00779829
0.0078742
0.00765254
0.00687267
0.00557574
0.00402766
0.00264831
0.00184531
0.0023662
0.00391165
0.00555685
0.00661661
0.00719093
0.00750581
0.00767719
0.00775913
0.00778102
0.00775984
0.00770478
0.00762035
0.00750875
0.00737133
0.00720832
0.00701566
0.00677884
0.00646526
0.00602135
0.00541087
0.0046217
0.00289539
0.0072693
0.00715627
0.00685515
0.0065486
0.00617131
0.00569903
0.00521564
0.00488863
0.00490167
0.00520813
0.00549877
0.00539454
0.0040324
0.00208644
0.000460288
0.00185861
0.00434778
0.00603295
0.006835
0.00724854
0.0075039
0.00765644
0.00772423
0.00772331
0.00766734
0.00756802
0.00743575
0.00727397
0.00707065
0.00680135
0.00642576
0.00588944
0.00524291
0.00454811
0.00318755
0.00675913
0.00729491
0.00746439
0.00747363
0.00733677
0.00698442
0.00630976
0.00522734
0.00392271
0.00286069
0.00228302
0.00244077
0.00323075
0.00367288
0.00285528
0.00118567
0.00282922
0.00498107
0.00631523
0.00691381
0.00723795
0.00744908
0.00757018
0.00761399
0.00759218
0.00751534
0.00739297
0.00722844
0.00698659
0.00656853
0.00591246
0.00516704
0.00461001
0.00409057
0.00298243
0.00835029
0.00738788
0.00692316
0.00655797
0.00611699
0.00551156
0.0047295
0.00392027
0.00340957
0.00325064
0.00304709
0.00236478
0.00171674
0.00191408
0.00202142
0.00202988
0.0043491
0.00644365
0.00733806
0.00769918
0.00789194
0.00799552
0.00802347
0.0079868
0.0078944
0.00775363
0.00757114
0.00731678
0.00688831
0.0061836
0.00530618
0.00459442
0.0042058
0.0037981
0.00254291
0.00829323
0.00732197
0.00708574
0.00678182
0.00618622
0.0051065
0.00341419
0.00132025
0.000660891
0.000518818
0.00214986
0.00324108
0.00347396
0.00326701
0.00311867
0.00310024
0.00406901
0.00573903
0.00685846
0.00743352
0.00772533
0.00789153
0.00797382
0.00797908
0.0079152
0.00778998
0.00759882
0.00730042
0.00682131
0.00615032
0.00545431
0.00496357
0.0046297
0.00416937
0.00238481
0.00652561
0.00676439
0.00689474
0.00687201
0.00666004
0.00611351
0.00505879
0.00344569
0.00173331
0.00131347
0.00227485
0.00354625
0.00434262
0.00485949
0.00562841
0.00629893
0.00683254
0.00734728
0.00776201
0.00804303
0.00821653
0.00831095
0.00834166
0.00831624
0.00823761
0.00810445
0.00790907
0.00763435
0.0072595
0.00678786
0.00628375
0.00584051
0.0054371
0.00484688
0.00288115
0.00627057
0.00715394
0.00737176
0.00750616
0.00765027
0.00777902
0.00774365
0.0072446
0.00601007
0.00437273
0.00366736
0.00416236
0.00531803
0.006451
0.00724523
0.00778423
0.00808023
0.00822336
0.00830519
0.00837076
0.008423
0.0084559
0.00846926
0.00846308
0.00843363
0.00837318
0.00827111
0.00811481
0.0078908
0.00758675
0.0071962
0.00673089
0.00622417
0.00559946
0.00396815
0.00602917
0.00660429
0.00682138
0.00691716
0.00695177
0.00696028
0.00700716
0.00713963
0.00726728
0.00703813
0.00580614
0.00329425
0.000989431
0.000328697
0.00013559
0.00229568
0.00538758
0.00785621
0.00918401
0.00961647
0.00963175
0.0094973
0.00929759
0.00906049
0.00880666
0.00856155
0.0083485
0.00816793
0.00798797
0.00776026
0.00743936
0.0070149
0.00652746
0.00589517
0.00431343
0.00606753
0.00700536
0.00736917
0.00755727
0.00766204
0.00766768
0.00753046
0.00721778
0.00677684
0.00645222
0.00651445
0.00664996
0.00625853
0.00516234
0.00322611
0.00100717
0.000625551
2.34346e-06
0.000500406
0.00309593
0.00615074
0.00793748
0.008616
0.00879278
0.00875329
0.00859124
0.00834932
0.00807952
0.00784244
0.00763215
0.00738016
0.00704327
0.00662349
0.00595012
0.00405613
0.00654533
0.00706727
0.00730872
0.00746672
0.00760324
0.00773112
0.00784393
0.00790451
0.00783465
0.00751622
0.00682259
0.00579149
0.0047551
0.0039849
0.00351775
0.00296035
0.00138231
0.00015867
0.000367798
0.000537375
0.00152518
0.00387339
0.00581067
0.00697565
0.00753354
0.00773439
0.00771004
0.00753787
0.00732004
0.00711921
0.00690354
0.00663083
0.00626755
0.0056027
0.00376338
0.00662186
0.00707021
0.00739524
0.00759854
0.00773456
0.00780681
0.00781293
0.00776024
0.00767438
0.00759359
0.00750276
0.00727124
0.00670555
0.00564288
0.00421573
0.0027868
0.00109276
3.60037e-05
3.80563e-05
0.000321198
0.000503988
0.00342309
0.00564547
0.00673203
0.00721682
0.00738358
0.00734189
0.00715898
0.00692304
0.00669426
0.00646552
0.00620547
0.00586215
0.0052376
0.00369477
0.00733242
0.0074504
0.00760904
0.00772635
0.00781825
0.00786559
0.00783281
0.00767056
0.00733791
0.00683214
0.00620159
0.0055158
0.00480336
0.00400835
0.00300448
0.00159021
6.81256e-05
0.000293768
0.000686845
0.00250248
0.00402182
0.00531882
0.00623177
0.00675874
0.00705078
0.00715892
0.00711572
0.00696639
0.00676669
0.00655261
0.00632571
0.00606679
0.0057218
0.00508949
0.00341417
0.00692383
0.00718725
0.00748241
0.00770449
0.00789867
0.00806573
0.00819733
0.00827134
0.00824416
0.0080627
0.00768216
0.00706675
0.00618849
0.00505411
0.00374279
0.00227079
0.000756557
0.000288813
0.00117681
0.00473592
0.00659599
0.00653484
0.00652035
0.00658818
0.00668981
0.00676792
0.00678876
0.00674564
0.00664918
0.00651033
0.00632992
0.00609526
0.00575092
0.00505599
0.00294615
0.00701767
0.00723842
0.00741626
0.0075387
0.00763599
0.00770112
0.00771817
0.00767031
0.00755296
0.00737266
0.00713099
0.00681135
0.00636972
0.0057386
0.0048649
0.00378551
0.0024838
0.00095281
0.000702379
0.00149704
0.00456637
0.00719956
0.00782592
0.00759448
0.00726122
0.00697319
0.00675249
0.00658173
0.00643414
0.00628619
0.00611824
0.00590787
0.00559465
0.00492397
0.00264597
0.00718814
0.00736939
0.00757815
0.00775077
0.0079113
0.00804749
0.008139
0.00815521
0.00806664
0.00786794
0.00757959
0.00723228
0.00684227
0.00639619
0.00584904
0.00514463
0.00427457
0.00328345
0.00204927
0.000723459
0.000712116
0.0016896
0.00455095
0.00690818
0.00792359
0.00795233
0.00766447
0.00732129
0.00699443
0.00669605
0.0064155
0.00612681
0.00576067
0.00505459
0.00269802
0.00670686
0.00702473
0.0072586
0.00743154
0.00758604
0.0077228
0.00783793
0.00792388
0.00796534
0.00793781
0.00782043
0.00760792
0.00730546
0.00692437
0.00647736
0.00596683
0.0053842
0.00472522
0.00400183
0.00318434
0.00212297
0.000891818
0.000371007
0.00170196
0.00439905
0.00657956
0.00758232
0.00783306
0.00770432
0.00742977
0.00710196
0.00674159
0.00630719
0.0055449
0.00309768
0.0070729
0.00729465
0.00748625
0.00764139
0.00778306
0.00789954
0.00797577
0.00799949
0.00797192
0.00790426
0.00780071
0.00765742
0.00746929
0.00723
0.00692911
0.00655693
0.00610932
0.00558915
0.00501122
0.00439788
0.00374706
0.00298686
0.00194328
0.000675893
0.000307563
0.00230591
0.00498276
0.00668063
0.00753041
0.00778925
0.00770688
0.00743306
0.00700298
0.00619806
0.00362924
0.00661473
0.00694984
0.00720186
0.00739747
0.0075787
0.00774247
0.00787958
0.00797689
0.00802345
0.00801666
0.00795864
0.00785164
0.00769799
0.00749976
0.00725749
0.00696936
0.00663115
0.00623827
0.00579574
0.00531584
0.0048161
0.00430087
0.00371971
0.00292941
0.00170067
0.000375672
0.00131177
0.00376287
0.00560118
0.00673626
0.00730561
0.00746336
0.00732174
0.00675658
0.00447012
0.00672579
0.00706338
0.00728769
0.00745553
0.00760681
0.00773928
0.00784523
0.00791655
0.00795294
0.00796118
0.0079426
0.00789018
0.00779705
0.00766057
0.00748
0.007254
0.00698029
0.0066571
0.00628571
0.00587245
0.00543109
0.00497446
0.00449906
0.00395513
0.00321637
0.0019972
0.000519593
0.00139229
0.00362099
0.00538796
0.00654571
0.00718487
0.00739056
0.00710501
0.00520098
0.00655347
0.00693842
0.00719147
0.00738012
0.00755245
0.0077085
0.00783797
0.00792648
0.00796962
0.00797804
0.00796385
0.00792804
0.00786383
0.00776511
0.00762877
0.00745299
0.00723573
0.00697473
0.00666912
0.00632206
0.00594212
0.00554232
0.00513176
0.00470127
0.00418781
0.00343269
0.00209275
0.00067048
0.00243607
0.00462034
0.00612618
0.00699327
0.00735234
0.00717362
0.00526995
0.00677684
0.00704461
0.00724149
0.00739537
0.00754311
0.00768584
0.00781251
0.0079047
0.00795521
0.00797346
0.00797139
0.00795154
0.0079083
0.00783536
0.00772926
0.00758842
0.00741152
0.00719702
0.006944
0.00665379
0.00633038
0.00598025
0.00560781
0.00520815
0.00475351
0.00415839
0.00322508
0.00167272
0.00175226
0.00408013
0.00579272
0.00669588
0.00707489
0.00690059
0.00477329
0.00689223
0.00701555
0.00716756
0.00730194
0.0074434
0.00759356
0.00773833
0.00785102
0.00791879
0.00795023
0.00795923
0.0079514
0.00792361
0.00787024
0.0077874
0.00767322
0.00752669
0.00734689
0.00713327
0.00688596
0.00660674
0.00629888
0.00596457
0.00560177
0.00519836
0.00471764
0.00405463
0.00298807
0.00176748
0.00319142
0.00506381
0.006046
0.00645395
0.00634124
0.00427622
0.00712613
0.00703313
0.00710768
0.00719992
0.00731314
0.00744901
0.00759594
0.0077273
0.00782406
0.00788521
0.00791804
0.00792771
0.00791462
0.00787672
0.00781192
0.007719
0.00759736
0.00744676
0.00726732
0.007059
0.00682248
0.00655827
0.00626483
0.00593667
0.00556174
0.00511771
0.0045546
0.00375957
0.00255944
0.00246539
0.00410257
0.00521236
0.00567708
0.00566817
0.00397879
0.00707895
0.00690775
0.00695784
0.00703595
0.00713508
0.00725531
0.00738922
0.00751999
0.00763114
0.00771639
0.00777595
0.00781042
0.00781931
0.00780163
0.00775659
0.00768393
0.00758387
0.00745698
0.00730395
0.00712505
0.00692068
0.00669049
0.00643195
0.00613892
0.00579974
0.00539571
0.00489616
0.00423145
0.00325948
0.00239291
0.00325465
0.00437592
0.00489575
0.00499714
0.00383839
0.00707299
0.00686629
0.00689608
0.00695593
0.00703221
0.00712127
0.00722198
0.00732948
0.00742901
0.00751102
0.00757309
0.00761431
0.00763329
0.0076284
0.00759851
0.0075432
0.00746276
0.00735797
0.0072294
0.00707726
0.00690134
0.00670022
0.00646994
0.00620268
0.00588572
0.00550176
0.00502938
0.00442766
0.00360154
0.00263873
0.00286682
0.00382168
0.00432228
0.00448523
0.00372554
0.00687384
0.00672112
0.00676282
0.00681981
0.00688217
0.00694494
0.00701347
0.00709593
0.00718088
0.00725486
0.00731237
0.00735143
0.00737046
0.00736793
0.00734272
0.0072945
0.00722379
0.00713152
0.00701758
0.00688123
0.00672246
0.00653958
0.00632594
0.00607016
0.00575656
0.00536988
0.00489958
0.00432054
0.00356344
0.00277477
0.00290123
0.00361348
0.003992
0.00410084
0.00332135
0.00678773
0.00668469
0.00672564
0.00677139
0.00681501
0.00685001
0.00688268
0.00692978
0.0069845
0.00703206
0.00706646
0.00708627
0.00709036
0.00707721
0.00704556
0.00699508
0.00692641
0.00683802
0.00672731
0.00659413
0.00644051
0.00626463
0.00605375
0.00578776
0.00545149
0.00504623
0.00458214
0.00404171
0.00340627
0.00292123
0.00311903
0.00354508
0.00376321
0.00372159
0.0026846
0.00663277
0.00659044
0.00664029
0.00668282
0.00671816
0.00673987
0.00675392
0.00678421
0.00682792
0.0068634
0.00688037
0.0068786
0.00685988
0.00682522
0.00677512
0.00671055
0.00663097
0.00653232
0.00641234
0.0062724
0.00611455
0.00593253
0.00570466
0.00540825
0.00504915
0.0046605
0.00425579
0.00381648
0.00337797
0.00314713
0.00330576
0.00349485
0.00355892
0.0033439
0.00215266
0.00671087
0.00663558
0.00665859
0.00668445
0.00670756
0.00671947
0.00671885
0.00672836
0.00675759
0.00678604
0.00679557
0.0067817
0.00674627
0.006692
0.00662138
0.00653661
0.00643778
0.00632104
0.00618428
0.00602925
0.00585859
0.00566069
0.0054081
0.00508429
0.00472095
0.00438574
0.00407281
0.00373593
0.00344206
0.00333185
0.00340442
0.00345617
0.00341152
0.00308144
0.00188532
0.00678846
0.0065863
0.0065679
0.00657558
0.0065942
0.00662194
0.00665188
0.00668157
0.00671751
0.0067517
0.0067684
0.00675958
0.00672451
0.0066652
0.00658427
0.00648369
0.00636637
0.00623193
0.00607855
0.00590738
0.00572017
0.0055044
0.00523507
0.00489448
0.00451061
0.00419486
0.00399169
0.00377708
0.00354997
0.00343257
0.00341728
0.00339084
0.00328617
0.00292151
0.00179211
0.00685317
0.00653905
0.00648132
0.00646546
0.00646787
0.0064995
0.00656505
0.00663498
0.00669148
0.00673438
0.0067602
0.0067637
0.00674217
0.00669519
0.00662277
0.00652526
0.0064042
0.0062621
0.00610128
0.00592263
0.0057242
0.00549897
0.00523153
0.00489854
0.00449374
0.00410046
0.00387794
0.00379679
0.00368726
0.00357014
0.0034829
0.00339152
0.00323865
0.00285786
0.00177436
0.00670642
0.00640059
0.00634095
0.00631527
0.00629789
0.00630898
0.00638807
0.00650836
0.00661331
0.0066861
0.00673023
0.00674948
0.0067452
0.00671771
0.0066658
0.00658855
0.00648571
0.00635807
0.00620754
0.00603607
0.00584425
0.0056292
0.0053824
0.00508627
0.00471625
0.00427791
0.00388584
0.00370439
0.00367649
0.00363755
0.00356589
0.00346495
0.00330297
0.00293792
0.00189047
0.00656666
0.00635188
0.00630516
0.00627513
0.00623433
0.00619034
0.00620999
0.00632243
0.00646474
0.00658327
0.00666468
0.00671207
0.00673058
0.00672404
0.00669313
0.00663818
0.00655909
0.00645599
0.00632995
0.0061824
0.00601423
0.0058246
0.00561025
0.00536281
0.00506417
0.00469122
0.00425186
0.00385612
0.00365794
0.00360818
0.00357145
0.00350332
0.00337842
0.0030791
0.00211562
0.00651342
0.00632303
0.00627679
0.0062451
0.00619755
0.00612365
0.00607443
0.00612901
0.00626355
0.00641126
0.00653345
0.00662023
0.00667308
0.00669562
0.00669013
0.00665886
0.00660326
0.00652427
0.0064236
0.00630261
0.00616194
0.00600171
0.00582115
0.00561723
0.00538219
0.00510028
0.00474933
0.00433259
0.00395027
0.00372757
0.00362222
0.00354496
0.00344602
0.00322718
0.0024601
0.00652894
0.00630694
0.0062558
0.00622411
0.00617761
0.00609724
0.00600968
0.00600138
0.00609265
0.00622969
0.00636486
0.00647563
0.00655593
0.00660549
0.00662532
0.00661771
0.00658479
0.00652817
0.00644968
0.00635105
0.00623338
0.00609757
0.00594421
0.00577283
0.00558048
0.00535909
0.00509125
0.00475131
0.00435092
0.0040049
0.00379573
0.00367696
0.00358193
0.00341728
0.00282394
0.00648916
0.00627747
0.00623895
0.00621406
0.00616934
0.00608081
0.00596116
0.00589998
0.00594927
0.00606669
0.00619912
0.00631735
0.00641031
0.00647454
0.00650929
0.00651611
0.00649713
0.00645412
0.00638832
0.0063015
0.00619486
0.00606959
0.00592688
0.00576743
0.00559042
0.00539212
0.00516122
0.00487497
0.00452479
0.00418837
0.00396222
0.00382753
0.00371949
0.00353837
0.00290634
0.00645707
0.00630705
0.00629536
0.00628344
0.0062443
0.00614871
0.00598706
0.00584405
0.00582058
0.00590481
0.00603075
0.00615461
0.0062574
0.00633207
0.00637627
0.00639094
0.00637821
0.00634012
0.00627806
0.00619316
0.00608638
0.00595856
0.00581062
0.00564334
0.00545802
0.00525879
0.00504782
0.00481117
0.00453038
0.00425153
0.00404751
0.00390862
0.00377531
0.00353092
0.0027433
0.00647266
0.00637549
0.00639046
0.00639254
0.00636226
0.00627096
0.00609504
0.00588806
0.0057693
0.00578292
0.00587894
0.00599735
0.00610556
0.00618881
0.00624132
0.00626243
0.0062536
0.00621668
0.00615289
0.00606282
0.00594659
0.00580388
0.0056341
0.0054375
0.0052219
0.0050164
0.00485328
0.00471475
0.00454337
0.00433752
0.0041508
0.00399255
0.00381016
0.00345744
0.00248553
0.00652118
0.00648758
0.00653462
0.00654995
0.00652266
0.0064254
0.00623835
0.00600516
0.00582139
0.00575766
0.00579955
0.00589185
0.00599177
0.00607558
0.00613254
0.00615908
0.00615481
0.00612036
0.00605591
0.00596118
0.00583506
0.00567587
0.00548109
0.00524909
0.00499237
0.00476548
0.00463949
0.00459196
0.00453148
0.00441182
0.0042588
0.0040897
0.00385966
0.00340152
0.00231144
0.00665329
0.00666988
0.00674013
0.00676413
0.00673334
0.00661502
0.00639531
0.00613794
0.00592129
0.00580589
0.00579822
0.00585671
0.00593783
0.00601274
0.00606759
0.00609649
0.00609709
0.00606826
0.00600816
0.00591489
0.00578584
0.00561805
0.00540785
0.00515192
0.00486112
0.00459706
0.00446774
0.00446065
0.0044477
0.00437827
0.00425923
0.00409984
0.00385813
0.00336595
0.0022573
0.00696932
0.00689092
0.00694115
0.00695887
0.00691786
0.0067725
0.00652218
0.00626017
0.00604491
0.00590986
0.0058683
0.00589457
0.00595134
0.0060094
0.0060544
0.00607954
0.00608129
0.00605688
0.00600243
0.00591435
0.00578874
0.00562141
0.00540765
0.00514214
0.00482841
0.00451364
0.00433195
0.00434563
0.00436872
0.00431355
0.00420367
0.00404991
0.00381252
0.00332983
0.00224528
0.00734087
0.00705043
0.00704622
0.00704361
0.00698285
0.00680353
0.00653669
0.00631049
0.0061503
0.00604509
0.00599899
0.00600264
0.00603325
0.00606889
0.00609775
0.00611335
0.00611148
0.00608806
0.00603804
0.00595636
0.00583803
0.00567787
0.00547041
0.00520889
0.00488774
0.00452588
0.00423526
0.00418839
0.00428187
0.00428372
0.00419885
0.00405556
0.0038238
0.00334638
0.00225422
0.0075367
0.00709062
0.0070435
0.00702063
0.00694029
0.00674074
0.00648885
0.00631917
0.00622756
0.00617219
0.00614327
0.00613892
0.00614993
0.00616498
0.00617683
0.00618051
0.00617202
0.00614701
0.00610015
0.00602559
0.00591753
0.00576967
0.00557551
0.00532744
0.00501459
0.00463196
0.00423439
0.00400391
0.00405296
0.00413957
0.00412491
0.00402798
0.00382811
0.00336855
0.00225695
0.00753748
0.0070345
0.00695461
0.00691153
0.00681829
0.00663214
0.00643522
0.00632995
0.00629302
0.0062758
0.00626472
0.00626044
0.00626088
0.00626206
0.00626089
0.0062546
0.00624036
0.00621457
0.00617246
0.00610852
0.00601685
0.00589038
0.0057216
0.00550254
0.00522091
0.00486094
0.00442741
0.00401959
0.0038356
0.00386367
0.00389122
0.00385012
0.00371417
0.00333801
0.00229229
0.00745703
0.00691466
0.00679765
0.00672961
0.006629
0.00648887
0.00637771
0.00633991
0.00634566
0.00635527
0.00635805
0.00635602
0.00635012
0.00634077
0.00632802
0.00631141
0.00628985
0.00626132
0.00622259
0.00616984
0.00609855
0.00600191
0.00587148
0.00569824
0.00546985
0.00516996
0.00478239
0.00432851
0.0039358
0.00374882
0.00370052
0.00366291
0.00357384
0.00329875
0.00234247
0.00729453
0.00672603
0.00657958
0.00648841
0.0063843
0.006309
0.00630579
0.00634321
0.00638612
0.00641532
0.00642874
0.00642975
0.00642017
0.00640241
0.00637843
0.00634955
0.00631645
0.00627891
0.00623575
0.00618562
0.00612726
0.00605645
0.0059653
0.00584256
0.00567435
0.00544508
0.0051354
0.00473304
0.0042814
0.00391476
0.00371708
0.00361763
0.00351957
0.00327721
0.00231576
0.0070081
0.00648644
0.00633724
0.00623404
0.00612672
0.00610625
0.0062066
0.00632298
0.00640572
0.00645472
0.00647825
0.00648242
0.00647062
0.00644617
0.00641188
0.00637003
0.00632243
0.00627032
0.00621433
0.00615545
0.0060966
0.0060384
0.00597605
0.00589657
0.00578193
0.00561406