/*--------------------------------*- C++ -*----------------------------------*\
| =========                 |                                                 |
| \\      /  F ield         | OpenFOAM: The Open Source CFD Toolbox           |
|  \\    /   O peration     | Version:  v2006                                 |
|   \\  /    A nd           | Website:  www.openfoam.com                      |
|    \\/     M anipulation  |                                                 |
\*---------------------------------------------------------------------------*/
FoamFile
{
    version     2.0;
    format      ascii;
    class       volScalarField;
    location    "69";
    object      omega;
}
// * * * * * * * * * * * * * * * * * * * * * * * * * * * * * * * * * * * * * //

dimensions      [0 0 -1 0 0 0 0];


internalField   nonuniform List<scalar> 
78750
(
285.817
20.6353
24.0057
24.423
23.9483
23.2046
22.5048
21.8321
21.3199
20.7612
20.4676
20.3091
20.5586
21.0689
21.9039
23.0673
24.2164
25.6645
26.5956
27.7414
28.1999
28.7083
28.0672
27.8957
26.1086
25.8315
23.0737
22.7408
18.1518
17.9273
9.5374
9.3859
5.54479
18.6028
386.876
479.057
50.1962
45.2814
40.8992
39.0497
38.5342
38.3757
38.3957
38.5267
38.8027
39.207
39.6998
40.2378
40.7728
41.2349
41.4998
41.35
40.4248
38.9756
38.1019
37.5473
36.8233
35.693
34.456
33.4164
32.5602
31.7662
30.9519
29.9962
28.8582
27.3964
25.7635
24.292
23.7336
604.638
473.975
29.8981
32.3797
32.8003
32.2591
31.8756
31.7082
31.6975
32.1433
32.9856
33.9414
34.9296
35.9532
36.9946
37.8983
38.3659
37.9886
35.3013
28.4948
25.1508
30.552
31.8886
32.8857
33.4628
33.4947
33.2534
32.8826
32.4462
31.9926
31.5237
30.9583
30.2748
29.5275
28.8265
617.408
445.506
22.4128
24.6274
26.8253
28.6697
30.5776
32.4523
33.8702
34.8412
35.4599
35.8068
35.927
35.8198
35.3823
34.2032
31.3738
27.2037
26.3089
28.7737
28.923
28.8496
29.8308
30.5734
31.498
32.2963
33.0896
33.8393
34.4244
34.6959
34.5403
33.9794
33.1827
32.2981
31.3163
623.588
464.522
31.5441
34.9382
37.111
38.4313
39.3331
40.0018
40.4827
40.7897
40.944
40.9769
40.9206
40.8076
40.6708
40.5445
40.4696
40.5462
40.9056
41.2823
41.3595
41.257
41.1093
40.9204
40.6673
39.9707
37.2368
33.0352
30.324
29.2895
30.0749
31.3816
31.9842
31.669
30.2375
608.345
468.151
31.432
33.8958
35.4863
36.5437
37.1581
37.4182
37.4643
37.3999
37.3162
37.293
37.4006
37.6591
38.0011
38.3608
38.6908
38.978
39.2321
39.4575
39.6696
39.8876
40.1327
40.447
40.918
40.6996
37.7006
32.2321
27.0936
24.2208
23.7088
25.0654
27.0104
28.1512
27.9961
609.305
423.726
16.9583
18.8444
19.379
19.2515
18.0124
17.1068
15.7709
14.2777
11.9487
9.70687
9.08431
9.66899
11.1056
13.7926
17.0665
20.024
22.4138
24.0901
25.0208
25.3787
25.3615
25.0943
24.6209
23.8368
22.4502
20.6192
19.0605
18.2942
18.3367
19.1776
20.688
21.9297
22.3964
597.791
418.165
10.9257
10.1146
8.34282
5.02074
6.15342
5.70206
6.53844
3.51172
3.52915
4.31032
7.94066
11.2157
13.3935
15.223
16.7743
17.9759
18.8342
19.4164
19.7796
19.9732
20.0204
19.9205
19.6741
19.3134
18.9125
18.5469
18.2582
18.0385
17.8566
17.7087
17.6477
17.6067
17.2974
583.822
421.986
14.7529
16.2707
17.0928
17.6562
18.0555
18.3184
18.4741
18.5577
18.6041
18.645
18.6952
18.758
18.8252
18.8906
18.9406
18.9686
18.9808
18.988
18.9949
18.9922
18.9666
18.9101
18.8204
18.7022
18.562
18.3997
18.205
17.956
17.6248
17.194
16.6949
16.1427
15.3192
578.341
421.238
14.2587
15.7186
16.5135
17.0526
17.4572
17.7743
18.0232
18.2127
18.3509
18.4483
18.517
18.5672
18.6069
18.642
18.6762
18.7112
18.7473
18.7832
18.8153
18.8372
18.8404
18.816
18.7572
18.6601
18.5219
18.3297
18.0592
17.6915
17.219
16.6543
16.0462
15.4001
14.3995
575.786
422.299
14.9849
16.3001
16.9055
17.2716
17.5294
17.7288
17.8931
18.0364
18.1662
18.2837
18.3902
18.4864
18.571
18.6419
18.6962
18.7319
18.7487
18.7487
18.7366
18.7181
18.6966
18.6715
18.6374
18.5857
18.5068
18.3879
18.2115
17.9553
17.5889
17.0741
16.4073
15.6459
14.5566
575.927
422.964
16.1053
17.4794
18.0267
18.304
18.4542
18.5404
18.5987
18.6479
18.6953
18.7425
18.7891
18.8346
18.8784
18.9195
18.9569
18.9884
19.012
19.0262
19.0308
19.0275
19.019
19.0079
18.9947
18.9768
18.9485
18.9011
18.8232
18.6995
18.5022
18.1729
17.6231
16.8443
15.8269
579.689
419.846
15.5382
17.187
17.8879
18.3409
18.6968
18.9776
19.1924
19.3512
19.4619
19.5297
19.5595
19.5565
19.5267
19.4764
19.4122
19.3399
19.2645
19.19
19.12
19.0575
19.0045
18.9617
18.9282
18.9014
18.8766
18.848
18.8055
18.731
18.589
18.3204
17.8826
17.341
16.591
581.829
419.491
13.6432
15.5335
16.5336
17.1259
17.5365
17.8807
18.2055
18.5167
18.8031
19.0513
19.2492
19.3906
19.4772
19.5153
19.5135
19.4804
19.4228
19.3452
19.251
19.142
19.0192
18.8831
18.7338
18.5709
18.3883
18.1713
17.9075
17.6002
17.2593
16.891
16.4943
16.0644
15.3741
578.946
423.395
16.1288
17.6452
18.2
18.3523
18.357
18.3458
18.3571
18.3964
18.4674
18.5671
18.6886
18.8212
18.9521
19.0698
19.1655
19.2344
19.2747
19.2856
19.2672
19.2189
19.1396
19.027
18.8784
18.6913
18.4603
18.1702
17.7986
17.3285
16.759
16.1197
15.4666
14.8029
13.7731
573.887
429.822
17.7034
19.1325
19.7876
19.8736
19.7012
19.4719
19.2802
19.1532
19.0754
19.0262
18.999
18.9912
18.999
19.0175
19.0412
19.065
19.0845
19.0958
19.0963
19.0833
19.0543
19.0063
18.9358
18.838
18.7065
18.5321
18.3037
18.0099
17.6331
17.158
16.5989
15.9775
15.0528
576.636
435.392
19.5025
20.8321
21.3688
21.3499
21.0434
20.6746
20.3644
20.138
19.9822
19.8782
19.8122
19.7753
19.7612
19.7643
19.7784
19.7968
19.8133
19.8228
19.822
19.8086
19.7803
19.7334
19.6646
19.5705
19.447
19.2882
19.0855
18.8269
18.4955
18.0729
17.5394
16.8737
15.8733
578.376
438.279
20.5892
20.7846
20.4311
20.2142
20.1451
20.0968
20.0452
19.9916
19.9445
19.9104
19.893
19.8945
19.9176
19.9664
20.0468
20.1646
20.3215
20.5019
20.6863
20.849
20.9818
21.0914
21.1811
21.2436
21.2682
21.2448
21.1637
21.014
20.7827
20.4524
19.9828
19.2735
17.9086
578.819
435.423
19.878
19.9729
20.1256
20.1608
20.105
19.9831
19.8149
19.6197
19.4074
19.1802
18.9372
18.6772
18.398
18.0973
17.7745
17.435
17.1049
16.8464
16.7472
16.7778
16.8359
16.859
16.8291
16.7431
16.6042
16.4242
16.2132
15.9753
15.7054
15.3691
14.8823
14.134
12.8083
570.942
439.675
19.9328
20.378
20.4968
20.5183
20.4891
20.4189
20.314
20.1812
20.0267
19.8488
19.6495
19.4404
19.2227
18.9762
18.6735
18.2972
17.8527
17.3757
16.9253
16.5642
16.3434
16.2612
16.3103
16.5038
16.8364
17.2701
17.7226
18.0329
18.0679
17.8102
17.273
16.3553
14.7614
572.274
425.549
17.1527
18.2054
18.8537
19.2987
19.6003
19.7955
19.9047
19.9406
19.9149
19.8177
19.6834
19.6161
19.6814
19.8232
19.9295
19.9169
19.7321
19.3408
18.7441
18.0143
17.2828
16.6301
16.0969
15.697
15.403
15.1898
15.0788
15.1545
15.5383
16.1433
16.602
16.6107
15.8538
576.571
423.653
16.6044
18.9128
20.0478
20.623
20.9161
21.0566
21.0884
21.0118
20.8144
20.4125
19.9037
19.593
19.7365
20.2555
20.7926
21.1188
21.2129
21.0553
20.4794
19.3598
17.9521
16.6915
15.721
15.1919
15.2969
15.7841
16.2923
16.5784
16.5227
16.2369
15.8959
15.4788
14.5369
572.401
437.073
19.759
20.7481
20.9238
20.9133
20.9129
20.94
20.9265
20.7814
20.384
19.573
19.1663
19.633
20.5881
21.6592
22.5321
23.0759
23.3318
23.4048
23.3547
23.1847
22.8749
22.4152
21.814
21.1349
20.4567
19.7795
19.0879
18.4026
17.6829
16.8414
15.7916
14.02
12.1603
572.361
451.187
21.5441
21.5267
21.4861
21.6307
21.9107
22.0726
21.9555
21.4324
20.242
19.0471
21.0626
23.4017
24.0255
24.3142
24.5341
24.7216
24.8626
24.9434
24.9535
24.8839
24.7282
24.4809
24.1337
23.6744
23.0873
22.3482
21.4226
20.2698
18.6538
16.0456
12.0737
10.2809
10.8656
573.588
456
21.7676
21.6218
21.7365
22.1192
22.4557
22.5998
22.4951
21.9407
20.9046
20.5025
21.785
22.8322
23.1665
23.4531
23.7321
23.9887
24.2097
24.3874
24.5141
24.582
24.5824
24.5049
24.3401
24.0783
23.7068
23.2062
22.5445
21.5751
19.8689
16.9954
14.2944
11.6606
9.7351
570.908
453.521
21.2501
21.0349
21.0357
20.9814
20.8525
20.7199
20.7209
21.0285
21.6461
22.1445
22.4664
22.951
23.4758
23.8374
24.0759
24.2465
24.3752
24.4711
24.5353
24.5643
24.5524
24.4921
24.3744
24.1875
23.9133
23.5251
22.9623
22.0811
20.6269
18.5017
16.419
14.7264
12.8925
572.196
424.156
18.1837
19.9654
20.4428
20.3326
19.9787
19.5042
19.0737
18.6892
18.434
17.5476
16.3201
16.7149
19.449
21.6869
22.915
23.569
23.9502
24.1864
24.333
24.4165
24.4469
24.4258
24.3487
24.2057
23.9824
23.6546
23.1663
22.4026
21.1958
19.4701
17.5709
15.945
14.2996
574.642
443.814
20.2232
20.9194
21.0218
20.8082
20.4082
19.9402
19.5379
18.8121
18.2928
17.1181
13.4782
6.17411
11.6811
17.8709
20.9617
22.1771
22.7791
23.1838
23.4785
23.6838
23.815
23.8806
23.8824
23.8156
23.6688
23.4239
23.0552
22.4814
21.5248
20.0633
18.3318
16.8353
15.3462
576.961
467.58
23.1125
21.9497
20.532
18.8172
17.0155
15.7264
15.445
15.6866
16.9297
20.9584
23.6686
23.5646
23.1763
23.0936
23.179
23.2956
23.393
23.4641
23.5096
23.5299
23.524
23.489
23.4193
23.3059
23.1358
22.8877
22.5183
21.9481
21.079
19.9063
18.6748
17.4974
16.0957
578.091
439.547
19.639
20.8994
21.2243
21.0603
20.4363
19.6177
19.3232
19.867
20.3482
19.9879
19.9586
20.6925
21.6174
22.3169
22.7466
22.9919
23.1317
23.2067
23.2374
23.2341
23.2024
23.1445
23.0605
22.9472
22.7968
22.5955
22.3182
21.9249
21.3601
20.5778
19.6111
18.5562
17.1947
579.525
441.813
21.2721
22.147
22.5377
22.8369
23.106
23.2174
22.8552
21.5917
19.3935
16.4747
13.5322
11.817
13.5693
16.9965
19.8358
21.4236
22.2336
22.6672
22.8994
23.0077
23.0329
22.9982
22.9157
22.7909
22.6264
22.4236
22.1826
21.8964
21.5412
21.0607
20.354
19.3329
17.9437
581.657
457.07
21.9856
21.5495
21.0889
20.5108
19.7807
19.041
18.5746
18.6705
19.1925
19.6186
19.2955
16.4791
11.991
6.71945
12.0688
17.6055
20.4607
21.68
22.2852
22.6512
22.8646
22.9558
22.949
22.8637
22.7159
22.5194
22.2764
21.9651
21.5452
20.9452
20.0655
18.9781
17.7585
582.952
454.426
22.2424
22.5167
22.5407
22.3456
21.8208
20.772
18.9759
16.5789
14.3646
13.0401
13.5042
15.2784
16.1117
14.1358
9.50348
14.2194
18.5863
20.8295
21.7616
22.2484
22.5581
22.7326
22.7937
22.7592
22.6443
22.4618
22.2123
21.8352
21.1664
20.0857
18.8105
17.8291
16.8747
581.87
462.824
22.3669
21.7179
21.1942
20.5479
19.627
18.3631
16.9183
15.7671
15.315
14.6954
12.9886
11.2405
11.8637
12.1518
11.8861
17.1642
20.9322
22.3678
22.9105
23.1906
23.3399
23.3804
23.3287
23.1971
22.9945
22.7287
22.3502
21.6932
20.5776
19.1145
17.8579
17.1416
16.3571
579.803
463.245
22.3315
21.9639
21.5019
20.5875
18.8241
15.6672
10.4179
8.19357
7.00873
12.2361
14.91
15.4916
15.0946
14.7815
14.6062
16.4956
19.6345
21.5434
22.4696
22.9185
23.1702
23.2971
23.3117
23.2262
23.0512
22.7785
22.3438
21.6275
20.5868
19.4536
18.6156
18.0177
17.1553
579.188
453.636
21.4466
21.6384
21.5932
21.2436
20.3368
18.4917
15.2835
11.0116
9.52788
12.3987
15.5034
17.1778
18.0936
19.4677
20.641
21.5154
22.3217
22.9541
23.3736
23.6297
23.7701
23.8198
23.7906
23.6867
23.5056
23.2351
22.8486
22.3114
21.6187
20.8508
20.1386
19.4591
18.4286
581.793
451.985
22.0458
22.3742
22.5706
22.7748
22.9471
22.867
22.0837
20.0906
17.1708
15.8674
17.0317
19.2584
21.1355
22.3113
23.0636
23.4639
23.656
23.769
23.8614
23.9344
23.9803
23.9996
23.9928
23.9551
23.8755
23.7384
23.5249
23.2139
22.7835
22.2161
21.5179
20.7319
19.7341
587.002
450.734
21.2126
21.5483
21.6986
21.7596
21.7855
21.872
22.082
22.2669
21.8882
19.859
15.0339
8.87874
6.41716
5.45505
13.1883
19.4609
23.2439
25.0127
25.5478
25.5539
25.3717
25.1042
24.7847
24.4392
24.1025
23.809
23.5618
23.3154
22.9989
22.5423
21.9229
21.1908
20.1997
588.364
450.708
21.7773
22.333
22.6144
22.7678
22.7732
22.5687
22.1045
21.4426
20.9563
21.0681
21.2665
20.6069
18.7092
14.7915
8.71996
4.12756
4.49917
7.34164
15.0605
20.6535
23.2826
24.1965
24.4215
24.3569
24.1245
23.7783
23.3929
23.0605
22.7712
22.4191
21.9341
21.3081
20.2476
586.918
453.392
21.9071
22.2793
22.5174
22.721
22.9096
23.0723
23.1527
23.0375
22.5499
21.4741
19.8061
18.0223
16.6079
15.6875
14.3948
9.94369
4.98636
4.15385
7.5503
10.8563
16.5789
20.0518
21.8597
22.6642
22.9349
22.8775
22.6071
22.279
21.9855
21.6722
21.2679
20.71
19.6333
585.509
453.634
21.8736
22.3812
22.6913
22.8984
23.0131
23.036
22.9802
22.8823
22.7906
22.6704
22.3178
21.4179
19.6461
17.0601
14.0605
9.23822
4.28674
4.70213
6.5375
7.192
15.5628
19.7246
21.4631
22.1904
22.4278
22.3537
22.0704
21.7097
21.3619
21.0136
20.6121
20.0677
19.0323
585.28
457.582
22.4658
22.7142
22.8901
23.0249
23.0933
23.046
22.8127
22.3308
21.5835
20.6234
19.5339
18.3313
16.8636
14.7715
11.1846
4.87161
6.10445
7.49525
13.2313
16.7191
19.092
20.6164
21.4534
21.9091
22.0813
22.0246
21.8064
21.5088
21.1854
20.8379
20.4343
19.8827
18.8249
584.068
455.501
22.099
22.5514
22.8833
23.1694
23.4131
23.6034
23.7099
23.672
23.4151
22.8708
21.9696
20.6262
18.7588
16.3396
13.0873
8.38875
5.9973
8.83264
17.6056
21.2668
21.23
21.1803
21.2551
21.3927
21.5044
21.5361
21.4748
21.3336
21.1266
20.8526
20.4887
19.9401
18.7772
581.896
455.883
22.1481
22.4327
22.6245
22.7769
22.8828
22.9212
22.8685
22.7156
22.4671
22.1193
21.642
20.9595
19.9438
18.4532
16.4373
13.6356
9.13364
7.96613
10.0794
17.248
21.9612
23.1053
22.8268
22.3414
21.903
21.5547
21.2794
21.0406
20.8029
20.5344
20.1966
19.6859
18.5464
580.483
457.012
22.3775
22.693
22.9473
23.1807
23.3774
23.51
23.5367
23.4165
23.1398
22.7313
22.2287
21.65
20.9674
20.0965
18.9157
17.3478
15.3806
12.5292
8.22256
7.8154
10.7438
17.3987
21.5342
23.1932
23.3208
22.9377
22.444
21.9559
21.4973
21.056
20.5932
19.9956
18.8003
580.772
454.352
21.8531
22.218
22.4829
22.7174
22.9245
23.0996
23.2319
23.2985
23.2638
23.098
22.7922
22.3499
21.7801
21.0929
20.2801
19.3121
18.1579
16.8041
15.1405
12.6598
8.83569
6.1513
10.9249
17.2021
21.0704
22.6936
23.1335
22.989
22.6083
22.1302
21.5859
20.9092
19.6694
582.736
456.382
22.2606
22.5536
22.7855
22.995
23.1671
23.282
23.3239
23.2945
23.2075
23.0662
22.8636
22.5913
22.2384
21.7865
21.2139
20.5047
19.6499
18.6565
17.543
16.2815
14.6769
12.1259
7.88053
5.74295
12.6576
18.376
21.2782
22.6297
23.0585
22.9741
22.5972
21.9729
20.7422
585.305
453.942
21.7558
22.1446
22.4409
22.7121
22.9547
23.1565
23.2997
23.3701
23.3649
23.2866
23.1372
22.9186
22.6318
22.2752
21.8429
21.3242
20.7054
19.9864
19.1779
18.2998
17.3489
16.2102
14.5209
11.3871
6.31574
9.87451
16.0748
19.5271
21.4148
22.3264
22.5982
22.4208
21.6024
589.256
454.486
21.9103
22.2565
22.5111
22.7385
22.9368
23.0961
23.2057
23.2656
23.285
23.2645
23.1937
23.0625
22.8667
22.6038
22.2697
21.8578
21.3612
20.7764
20.1072
19.3683
18.5742
17.7092
16.662
15.1204
12.151
7.06458
10.2549
15.8829
19.2418
21.173
22.1809
22.511
22.1123
592.485
453.507
21.7224
22.1164
22.4038
22.6625
22.8942
23.085
23.2162
23.2831
23.3014
23.2878
23.2424
23.1547
23.0156
22.82
22.5639
22.2424
21.8494
21.3798
20.834
20.2207
19.5558
18.8489
18.0765
17.1063
15.5656
12.3755
7.70461
13.2603
17.9143
20.5214
21.8851
22.4317
22.1787
592.589
454.666
21.8757
22.1886
22.4266
22.6511
22.8648
23.0522
23.1881
23.2638
23.294
23.2959
23.2725
23.2149
23.1136
22.963
22.7602
22.5018
22.1836
21.8019
21.3557
20.8476
20.2837
19.6664
18.981
18.1681
17.0436
15.1148
11.2176
11.4247
16.8613
19.947
21.3945
21.9772
21.7244
590.229
455.297
21.8396
22.0879
22.2989
22.5163
22.7427
22.957
23.1211
23.2186
23.2642
23.2789
23.2706
23.2341
23.1606
23.0439
22.8806
22.6684
22.4045
22.0863
21.7118
21.2813
20.7967
20.2576
19.6556
18.9628
18.101
16.8403
14.5915
11.4897
14.9824
18.6589
20.3289
20.9872
20.8243
587.956
456.615
21.873
22.0032
22.1521
22.3301
22.5399
22.762
22.9556
23.0945
23.1804
23.2261
23.2397
23.2217
23.1686
23.0767
22.9436
22.7678
22.5478
22.2825
21.9705
21.6107
21.2019
20.7386
20.2079
19.5832
18.8152
17.7925
16.2411
13.5772
13.3073
16.8596
18.9116
19.7139
19.7172
586.623
456.406
21.6855
21.7766
21.9044
22.0636
22.2546
22.4632
22.6608
22.8236
22.9457
23.0297
23.0777
23.0894
23.0632
22.9978
22.8923
22.7464
22.5601
22.3334
22.0656
21.756
21.4022
20.9979
20.5301
19.9743
19.2901
18.4077
17.1634
15.1674
13.1505
15.1368
17.4038
18.3695
18.5697
586.001
456.402
21.6239
21.6824
21.7828
21.909
22.0559
22.2188
22.3857
22.5346
22.654
22.7427
22.8006
22.8261
22.817
22.7717
22.6893
22.5696
22.4134
22.2207
21.9909
21.7227
21.4122
21.0513
20.6243
20.1055
19.4577
18.6293
17.5179
15.8709
13.7427
14.3084
16.3569
17.3377
17.6598
585.453
455.321
21.4006
21.4779
21.5749
21.6811
21.79
21.9071
22.0405
22.1714
22.2817
22.3655
22.4211
22.4468
22.4406
22.4007
22.3266
22.2186
22.0777
21.9032
21.6932
21.4467
21.1596
20.8192
20.4036
19.8814
19.2182
18.3818
17.3
15.783
14.0755
14.4226
15.9608
16.7233
16.9451
583.502
454.831
21.3414
21.4183
21.4985
21.5763
21.643
21.707
21.7894
21.8777
21.9509
22.0019
22.03
22.0341
22.012
21.9617
21.8825
21.7752
21.6373
21.464
21.2542
21.0103
20.7274
20.3824
19.9381
19.3626
18.6493
17.8036
16.7709
15.4818
14.4532
14.9297
15.8342
16.2815
16.2042
580.46
453.924
21.1878
21.2814
21.3579
21.4235
21.4697
21.5053
21.5641
21.6386
21.6959
21.7221
21.7185
21.6885
21.6336
21.5546
21.4526
21.3269
21.1707
20.9795
20.7545
20.4982
20.1979
19.8142
19.3047
18.6719
17.9677
17.2098
16.3525
15.46
14.9872
15.3434
15.7421
15.8777
15.4362
577.897
454.292
21.2556
21.3114
21.3637
21.4107
21.4403
21.4502
21.4751
21.5283
21.5769
21.5936
21.5728
21.5178
21.4332
21.3224
21.1886
21.0318
20.8457
20.6258
20.3735
20.0921
19.7598
19.3266
18.7579
18.0998
17.4764
16.882
16.2192
15.6208
15.3979
15.5569
15.6686
15.5801
14.8834
576.6
454.719
21.1863
21.18
21.2058
21.2479
21.3026
21.3563
21.4072
21.4677
21.5249
21.5535
21.5416
21.4882
21.3967
21.2707
21.1127
20.9268
20.7122
20.4652
20.1858
19.8751
19.5103
19.046
18.4419
17.733
17.1264
16.7362
16.3236
15.8685
15.6257
15.5931
15.539
15.3217
14.536
576.149
455.132
21.1206
21.0498
21.0388
21.058
21.1231
21.2344
21.3454
21.4339
21.5018
21.5436
21.5506
21.5187
21.4471
21.3354
21.1838
20.9938
20.7684
20.5104
20.22
19.8925
19.5144
19.0564
18.4705
17.7287
16.9674
16.5152
16.3608
16.1561
15.9248
15.7463
15.5561
15.2343
14.4041
576.076
454.377
20.9027
20.824
20.7959
20.7849
20.8236
20.9657
21.1606
21.324
21.4355
21.5029
21.5325
21.5262
21.4843
21.4047
21.2854
21.1254
20.925
20.6862
20.4108
20.0984
19.7426
19.3267
18.8164
18.1585
17.3413
16.5628
16.1798
16.1263
16.0587
15.9201
15.7168
15.3818
14.5964
576.692
453.588
20.816
20.7569
20.7209
20.6709
20.6225
20.6784
20.8724
21.1009
21.285
21.409
21.4802
21.5073
21.4964
21.4483
21.3632
21.2405
21.0796
20.8815
20.6473
20.3773
20.0688
19.7146
19.2985
18.7849
18.123
17.3055
16.5219
16.1061
16.0019
15.9313
15.7962
15.5424
14.9129
577.851
453.266
20.7669
20.7094
20.67
20.6064
20.5054
20.45
20.5587
20.7842
21.0204
21.2106
21.3433
21.4227
21.4554
21.4453
21.3957
21.3087
21.1851
21.0271
20.8359
20.6119
20.3542
20.0603
19.7237
19.329
18.8457
18.2264
17.4583
16.7144
16.2613
16.0445
15.8877
15.6876
15.2372
579.574
453.352
20.7395
20.6728
20.6324
20.5695
20.4559
20.3362
20.3451
20.5067
20.7323
20.9476
21.1203
21.2435
21.3181
21.3465
21.3326
21.2796
21.1896
21.0652
20.9085
20.7205
20.502
20.2531
19.9719
19.652
19.2779
18.8156
18.2115
17.4718
16.8077
16.3974
16.1631
15.9746
15.643
581.309
453.139
20.6852
20.6356
20.6045
20.5434
20.4162
20.2455
20.1723
20.2717
20.4705
20.6854
20.8726
21.0173
21.1156
21.1673
21.1753
21.143
21.073
20.9669
20.8269
20.6544
20.4504
20.2161
19.9516
19.6544
19.3168
18.917
18.4107
17.7745
17.1478
16.7204
16.4629
16.2513
15.8861
581.629
452.94
20.7204
20.7116
20.6999
20.6462
20.506
20.2663
20.0628
20.0514
20.2047
20.4148
20.6147
20.7772
20.8932
20.9604
20.9806
20.9576
20.8944
20.7927
20.6538
20.4785
20.2672
20.0202
19.7375
19.42
19.0746
18.7057
18.2877
17.7817
17.2685
16.8871
16.6219
16.3592
15.8607
580.792
453.002
20.819
20.8508
20.8603
20.8203
20.6871
20.4235
20.114
19.9488
19.9934
20.1623
20.3589
20.5338
20.6661
20.7479
20.7792
20.7625
20.7008
20.5954
20.4466
20.2536
20.0145
19.7264
19.3876
19.0097
18.6449
18.356
18.1145
17.8133
17.4424
17.0969
16.7944
16.4338
15.7084
579.535
453.235
20.9831
21.0639
21.0934
21.0585
20.9185
20.6415
20.291
20.0183
19.9372
20.0215
20.1803
20.3459
20.4821
20.5734
20.615
20.6068
20.5495
20.4432
20.2864
20.0762
19.8078
19.4745
19.0701
18.6123
18.1989
17.9689
17.8887
17.7891
17.5802
17.3021
16.9832
16.5337
15.5954
578.704
453.888
21.2576
21.3769
21.4202
21.3803
21.2096
20.8855
20.4994
20.1723
20.0048
20.0081
20.1136
20.2512
20.3756
20.4658
20.5131
20.5142
20.4674
20.3692
20.2157
20.0013
19.719
19.3594
18.9123
18.3904
17.9011
17.6561
17.6476
17.6309
17.5096
17.2927
16.9932
16.5244
15.5219
578.461
455.557
21.6022
21.6966
21.7323
21.6784
21.4685
21.0981
20.7029
20.3736
20.169
20.1138
20.1661
20.2649
20.3635
20.4394
20.4823
20.4868
20.4487
20.3612
20.218
20.0112
19.7317
19.3683
18.9068
18.3451
17.7592
17.405
17.432
17.4877
17.3922
17.1894
16.898
16.4357
15.4499
578.417
457.614
21.864
21.8796
21.8868
21.805
21.5441
21.1448
20.8005
20.5533
20.391
20.3236
20.3363
20.3916
20.4538
20.5041
20.5324
20.5322
20.497
20.4184
20.2876
20.0953
19.831
19.4822
19.0327
18.4642
17.7972
17.2303
17.1235
17.3137
17.3342
17.1835
16.9147
16.4651
15.4914
578.472
458.787
21.9496
21.9002
21.8779
21.7671
21.4717
21.0871
20.8261
20.6856
20.6011
20.5587
20.556
20.5778
20.6057
20.628
20.637
20.6264
20.5893
20.5169
20.3995
20.2266
19.9863
19.6649
19.2453
18.7016
18.0111
17.2529
16.7756
16.8551
17.0364
17.0236
16.8478
16.4652
15.536
578.502
458.891
21.8867
21.7871
21.7349
21.6037
21.3217
21.0138
20.8502
20.7959
20.7719
20.7571
20.7529
20.7563
20.7607
20.7612
20.7536
20.7334
20.6949
20.6305
20.5312
20.3871
20.1852
19.9114
19.549
19.0719
18.4423
17.6482
16.8495
16.4502
16.4912
16.5524
16.4816
16.2227
15.466
578.7
458.525
21.7231
21.5653
21.4748
21.3304
21.113
20.9329
20.8726
20.8849
20.9032
20.9098
20.9083
20.9005
20.8871
20.8683
20.8433
20.8106
20.767
20.7074
20.6258
20.515
20.3633
20.1561
19.8762
19.4997
18.9927
18.3142
17.4773
16.6999
16.2977
16.1877
16.1129
15.9399
15.3849
578.957
457.71
21.4492
21.2411
21.1127
20.9604
20.8408
20.829
20.8859
20.9553
21.0035
21.0263
21.0291
21.0149
20.9876
20.9503
20.9051
20.8532
20.7941
20.7262
20.6475
20.5561
20.4455
20.3027
20.1082
19.837
19.4597
18.9362
18.2296
17.3918
16.6652
16.2523
16.0436
15.8435
15.3452
578.812
456.198
21.0845
20.8656
20.7149
20.5551
20.5246
20.6818
20.8649
20.9956
21.0732
21.1107
21.1176
21.0994
21.0612
21.0072
20.941
20.8653
20.782
20.6923
20.5977
20.5034
20.411
20.3132
20.1887
20.0068
19.7351
19.3365
18.7672
18.0174
17.2193
16.6184
16.2564
15.948
15.3448
578.264
454.202
20.7099
20.5237
20.371
20.1929
20.1794
20.444
20.7442
20.9535
21.0804
21.1485
21.1719
21.1593
21.1177
21.0526
20.9681
20.8679
20.7546
20.631
20.5014
20.3772
20.2715
20.1905
20.116
20.0071
19.8201
19.514
19.048
18.4033
17.6625
17.0229
16.562
16.1289
15.3429
577.587
452.386
20.4093
20.27
20.1255
19.9116
19.8101
20.0784
20.4769
20.7821
20.9816
21.103
21.1642
21.1771
21.1503
21.0901
21.0014
20.8879
20.7522
20.5964
20.4251
20.2518
20.0988
19.9912
19.9303
19.8746
19.7611
19.5364
19.1604
18.62
17.9781
17.374
16.8676
16.3351
15.376
577.119
450.928
20.1797
20.0947
19.9709
19.7322
19.4812
19.6182
20.0695
20.4818
20.7726
20.9644
21.0802
21.1356
21.1408
21.1032
21.028
20.9185
20.7764
20.6025
20.3997
20.1798
19.9661
19.7966
19.7027
19.666
19.612
19.4637
19.1746
18.7366
18.1998
17.6555
17.1399
16.5468
15.4655
576.937
449.586
19.9906
19.9819
19.9076
19.6965
19.3289
19.1692
19.5299
20.0359
20.4386
20.7199
20.9067
21.0201
21.0733
21.0748
21.0305
20.9435
20.814
20.6412
20.4257
20.1758
19.9092
19.6635
19.4921
19.4241
19.405
19.3298
19.1284
18.788
18.3459
17.861
17.3549
16.732
15.5771
576.945
448.382
19.8375
19.9136
19.9083
19.7806
19.4311
18.9635
18.9534
19.4266
19.9468
20.3464
20.6259
20.8129
20.9284
20.9845
20.9882
20.9422
20.8454
20.6956
20.4919
20.2386
19.9458
19.6396
19.3716
19.2091
19.1636
19.1374
19.0203
18.7749
18.4223
18
17.5209
16.8978
15.7164
577.134
447.61
19.7077
19.8447
19.9051
19.8801
19.6702
19.1596
18.6508
18.7718
19.3028
19.8277
20.2225
20.5012
20.6921
20.8138
20.8766
20.8847
20.8368
20.7295
20.5608
20.3321
20.048
19.7225
19.3884
19.1131
18.968
18.9246
18.8579
18.6879
18.411
18.049
17.6086
17.0084
15.8406
577.429
447.188
19.5759
19.7403
19.8456
19.9066
19.8547
19.5488
18.8945
18.4245
18.6462
19.2013
19.7132
20.0961
20.3705
20.5634
20.6909
20.7591
20.7673
20.7123
20.5922
20.4058
20.1547
19.8457
19.4937
19.1427
18.8786
18.7543
18.6889
18.567
18.35
18.0438
17.6483
17.0845
15.95
577.763
446.925
19.4989
19.682
19.8056
19.9055
19.9491
19.8465
19.437
18.7045
18.3038
18.5802
19.1252
19.613
19.9808
20.25
20.4434
20.5724
20.6393
20.6427
20.5792
20.4462
20.2435
19.9735
19.6402
19.2635
18.9055
18.6594
18.5345
18.423
18.2448
17.9833
17.6299
17.1057
16.0175
578.097
446.832
19.6001
19.8462
19.9897
20.0866
20.1354
20.1108
19.9291
19.4182
18.6404
18.2721
18.5555
19.0715
19.5321
19.8841
20.1454
20.334
20.4588
20.5213
20.5183
20.4456
20.3018
20.0863
19.7989
19.4446
19.0528
18.7024
18.4687
18.3132
18.1435
17.9136
17.601
17.1257
16.1071
578.542
447.561
20.0043
20.3549
20.5385
20.6185
20.5935
20.4913
20.3486
20.0786
19.4783
18.6708
18.3302
18.6055
19.0823
19.5044
19.8269
20.068
20.2441
20.3603
20.4137
20.4002
20.3165
20.1595
19.9276
19.6203
19.2475
18.8534
18.5176
18.2724
18.0634
17.8321
17.5399
17.0991
16.1341
578.824
449.583
20.6738
21.119
21.3628
21.4525
21.3525
21.0786
20.7853
20.5336
20.1702
19.4992
18.7358
18.5027
18.7907
19.2071
19.5592
19.8308
20.0395
20.1942
20.2933
20.3307
20.2997
20.195
20.0139
19.7551
19.4222
19.038
18.6608
18.3451
18.0817
17.8254
17.531
17.1014
16.1579
578.993
452.27
21.3395
21.8191
22.1177
22.2482
22.1376
21.755
21.2766
20.9041
20.5728
20.1052
19.4095
18.8408
18.8024
19.0965
19.4206
19.6883
19.9025
20.073
20.1996
20.2737
20.2839
20.2209
20.079
19.8557
19.5524
19.1845
18.796
18.4417
18.1362
17.8512
17.5413
17.1014
16.1459
579.016
454.061
21.7187
22.1908
22.5201
22.6871
22.5996
22.2107
21.6665
21.2083
20.8435
20.4394
19.8961
19.3119
19.0517
19.1757
19.4212
19.6536
19.8515
20.0195
20.1572
20.2545
20.2969
20.2707
20.1658
19.9762
19.7
19.3479
18.9555
18.5757
18.237
17.9246
17.5957
17.1421
16.1796
579.142
453.505
21.6911
22.2097
22.5809
22.7832
22.7271
22.372
21.8354
21.3534
20.9823
20.6171
20.1722
19.68
19.3601
19.3557
19.5112
19.6926
19.8627
20.0177
20.1556
20.2653
20.3303
20.3337
20.2617
20.1041
19.8548
19.5183
19.1231
18.7208
18.3512
18.0115
17.6621
17.1912
16.2115
579.117
450.948
21.3818
22.0432
22.5051
22.779
22.7865
22.4793
21.9233
21.363
20.9552
20.624
20.2683
19.885
19.6003
19.5387
19.6252
19.7573
19.8956
20.0329
20.1655
20.2821
20.365
20.3949
20.3548
20.2312
20.0142
19.7025
19.3172
18.9062
18.5148
18.1489
17.772
17.2637
16.2093
578.716
448.044
20.9832
21.8183
22.4115
22.8124
22.9416
22.7306
22.1616
21.4247
20.8481
20.4845
20.2022
19.9342
19.7316
19.6721
19.7219
19.816
19.9234
20.0379
20.1569
20.2699
20.3592
20.4038
20.3846
20.2863
20.0974
19.8147
19.4548
19.0583
18.6654
18.2817
17.8716
17.2993
16.0965
577.882
445.924
20.5482
21.4909
22.2175
22.7881
23.094
23.0532
22.5967
21.7505
20.8747
20.3232
20.0383
19.8654
19.7643
19.7483
19.7932
19.8652
19.9476
20.0383
20.1379
20.2392
20.3256
20.3749
20.3658
20.2813
20.1099
19.8498
19.5167
19.1436
18.7595
18.3643
17.9195
17.2708
15.8919
576.934
444.618
20.0128
20.9385
21.7655
22.5283
23.043
23.2086
22.9766
22.2739
21.2236
20.3598
19.9344
19.7783
19.7479
19.7798
19.8375
19.9014
19.9654
20.0314
20.1041
20.1815
20.2521
20.2956
20.289
20.2129
20.0551
19.8145
19.5064
19.1572
18.7857
18.3865
17.918
17.2127
15.7063
576.224
443.727
19.3027
20.0753
20.9533
21.9208
22.6508
23.0118
23.0029
22.5777
21.6841
20.6543
20.0177
19.7883
19.7691
19.8249
19.8953
19.9592
20.0125
20.0574
20.1001
20.1436
20.1837
20.2065
20.1915
20.1178
19.971
19.7486
19.4628
19.134
18.7743
18.3755
17.8957
17.1622
15.5954
575.817
442.962
18.3591
18.8373
19.6973
20.8631
21.8007
22.3415
22.5212
22.3426
21.7615
20.9088
20.2293
19.9299
19.8781
19.9234
19.991
20.0518
20.097
20.1249
20.1398
20.1459
20.1445
20.1308
20.0919
20.0099
19.8693
19.6641
19.401
19.093
18.747
18.3549
17.8767
17.1433
15.5779
575.697
441.694
17.1589
17.1962
17.8379
19.0644
20.2018
20.9759
21.3864
21.4534
21.1982
20.7394
20.3235
20.1115
20.0633
20.0943
20.1503
20.2034
20.2399
20.2549
20.2485
20.222
20.1771
20.1148
20.0315
19.918
19.7631
19.5597
19.3088
19.0158
18.6828
18.3011
17.8336
17.1204
15.5994
575.738
439.213
16.2033
15.8613
15.8157
16.4183
17.4745
18.5592
19.4173
19.9456
20.169
20.1948
20.151
20.1297
20.156
20.216
20.2869
20.3487
20.3915
20.409
20.3984
20.3584
20.2888
20.1905
20.0648
19.9107
19.725
19.5045
19.249
18.9596
18.6346
18.2644
17.8149
17.1365
15.6844
575.934
437.312
16.9485
16.773
16.2346
15.5356
15.1883
15.4727
16.3658
17.5447
18.5191
19.1384
19.5069
19.7491
19.9367
20.1028
20.251
20.3753
20.4678
20.5232
20.539
20.5139
20.4474
20.3403
20.1954
20.0165
19.8064
19.5664
19.2975
19
18.6707
18.2996
17.8541
17.1906
15.772
576.112
440.407
19.0675
19.3229
19.196
18.7942
17.9028
16.5087
14.9375
14.469
15.5738
16.9597
17.9814
18.6689
19.1596
19.5427
19.8632
20.1308
20.3435
20.4964
20.5888
20.6214
20.5949
20.5105
20.3718
20.1866
19.9642
19.712
19.4337
19.1291
18.7936
18.416
17.9636
17.2943
15.8685
576.303
452.862
20.5553
20.0898
19.8595
20.2204
20.5604
20.0775
18.2236
15.4641
14.349
15.2735
16.6165
17.6055
18.2826
18.801
19.2486
19.6564
20.0141
20.3016
20.5087
20.6346
20.6811
20.6493
20.5423
20.3684
20.141
19.8751
19.5808
19.2605
18.9095
18.5149
18.0417
17.3427
15.8709
576.355
464.829
20.5324
18.6182
17.4214
17.9609
18.9154
18.9091
17.7929
16.2567
16.1691
17.0342
17.6654
18.0897
18.4311
18.7509
19.0837
19.4441
19.8143
20.1528
20.4253
20.6173
20.7248
20.7457
20.6797
20.5322
20.3169
20.0512
19.7493
19.4168
19.0505
18.6375
18.14
17.4015
15.8618
576.286
454.943
18.3812
17.0268
15.9478
16.1093
16.5619
17.0821
17.7447
18.1709
18.278
18.3959
18.541
18.6842
18.8294
18.9944
19.2028
19.4711
19.7916
20.1215
20.4092
20.6255
20.7607
20.8101
20.7715
20.6476
20.4491
20.1916
19.8889
19.5475
19.1656
18.7304
18.2005
17.4049
15.7604
575.838
445.469
19.8186
19.6685
18.7171
17.145
16.1195
16.532
17.3588
17.9147
18.2552
18.4769
18.6249
18.7282
18.8086
18.8893
19.004
19.1945
19.4903
19.8662
20.2388
20.5325
20.7239
20.8159
20.8131
20.721
20.5498
20.3131
20.0228
19.685
19.2988
18.8525
18.304
17.4736
15.7517
575.457
455.333
21.5662
20.9705
20.5083
19.8175
17.4941
14.9569
14.922
16.1308
17.1664
17.8304
18.2368
18.4871
18.64
18.7329
18.7981
18.8787
19.0358