/*--------------------------------*- C++ -*----------------------------------*\
| =========                 |                                                 |
| \\      /  F ield         | OpenFOAM: The Open Source CFD Toolbox           |
|  \\    /   O peration     | Version:  v2006                                 |
|   \\  /    A nd           | Website:  www.openfoam.com                      |
|    \\/     M anipulation  |                                                 |
\*---------------------------------------------------------------------------*/
FoamFile
{
    version     2.0;
    format      ascii;
    class       surfaceScalarField;
    location    "69";
    object      phi;
}
// * * * * * * * * * * * * * * * * * * * * * * * * * * * * * * * * * * * * * //

dimensions      [1 0 -1 0 0 0 0];
oriented        oriented;


internalField   nonuniform List<scalar> 
228225
(
0.000297666
7.80145e-05
0.000255206
0.000366597
-0.000116683
6.60222e-05
0.000368448
-5.64464e-05
4.57696e-05
0.000344053
-3.48732e-05
3.93764e-05
0.00031702
-2.74102e-05
3.47564e-05
0.000291547
-2.22197e-05
3.05378e-05
0.000268776
-1.84621e-05
2.63946e-05
0.000250045
-1.59007e-05
2.22064e-05
0.000235637
-1.40162e-05
1.80572e-05
0.000224926
-1.26369e-05
1.46387e-05
0.000217522
-1.18264e-05
1.19104e-05
0.000213199
-1.14515e-05
9.69056e-06
0.000211677
-1.14355e-05
7.94755e-06
0.000212684
-1.16914e-05
6.62848e-06
0.000215971
-1.22219e-05
5.66886e-06
0.000221272
-1.29003e-05
5.00036e-06
0.000228317
-1.36983e-05
4.57923e-06
0.000236426
-1.41259e-05
4.33409e-06
0.000243987
-1.32052e-05
4.25847e-06
0.000249524
-1.09419e-05
4.27311e-06
0.000252592
-8.30881e-06
4.39971e-06
0.000252806
-5.2716e-06
4.47426e-06
0.000249813
-1.84832e-06
4.62375e-06
0.000242293
2.4955e-06
5.12013e-06
0.000229797
6.75066e-06
6.24037e-06
0.00021325
1.05057e-05
6.84418e-06
0.000194244
1.3956e-05
6.72136e-06
0.00017371
1.72805e-05
5.49457e-06
0.000151943
2.0491e-05
4.77232e-06
0.000129342
2.32886e-05
3.50748e-06
0.000105043
2.60034e-05
4.24919e-06
8.21076e-05
2.73829e-05
3.52131e-06
5.73961e-05
2.75642e-05
4.53345e-06
3.68274e-05
1.71081e-05
1.02468e-05
2.76042e-05
1.40995e-05
-2.30377e-05
9.31666e-05
7.59252e-06
-6.22385e-05
-1.65973e-05
-3.19126e-05
-7.18788e-05
-9.46112e-06
-2.67895e-05
-7.54481e-05
-3.85659e-06
-2.21215e-05
-7.96204e-05
1.57637e-06
-1.908e-05
-8.41146e-05
4.81676e-06
-1.73749e-05
-8.7547e-05
5.64833e-06
-1.63478e-05
-8.84959e-05
4.34062e-06
-1.57073e-05
-8.62907e-05
1.98753e-06
-1.52268e-05
-8.18689e-05
2.54261e-07
-1.47996e-05
-7.5362e-05
-1.84699e-06
-1.43364e-05
-6.7143e-05
-4.04073e-06
-1.3759e-05
-5.7375e-05
-6.54621e-06
-1.30267e-05
-4.60274e-05
-9.53637e-06
-1.21187e-05
-3.31417e-05
-1.30062e-05
-1.10087e-05
-1.86479e-05
-1.70085e-05
-9.65189e-06
-2.09569e-06
-2.19743e-05
-7.96028e-06
1.68912e-05
-2.72526e-05
-5.8671e-06
3.44604e-05
-2.69415e-05
-3.87433e-06
4.29362e-05
-1.6736e-05
-2.66676e-06
4.73912e-05
-1.06116e-05
-2.01648e-06
5.06419e-05
-6.21184e-06
-1.85197e-06
5.32632e-05
-1.21752e-06
-2.17445e-06
5.57638e-05
3.80922e-06
-2.62579e-06
5.74102e-05
8.98695e-06
-3.02054e-06
5.81893e-05
1.36588e-05
-3.43258e-06
5.85127e-05
1.78211e-05
-3.94983e-06
5.88205e-05
2.16392e-05
-4.57602e-06
5.92705e-05
2.53157e-05
-5.20313e-06
5.93731e-05
2.91371e-05
-5.7697e-06
5.85362e-05
3.35354e-05
-6.23117e-06
5.4457e-05
3.9127e-05
-6.80977e-06
4.54034e-05
4.56279e-05
-7.64755e-06
2.29273e-05
5.17288e-05
-8.14295e-06
5.17215e-05
-3.43007e-08
2.97169e-05
4.90811e-05
9.81886e-07
-2.00548e-06
1.75722e-05
-9.92245e-06
-1.10625e-05
9.09382e-06
-1.15281e-05
-1.29989e-05
8.2568e-06
-1.05682e-05
-1.18247e-05
9.66274e-06
-8.72108e-06
-9.06126e-06
1.02958e-05
-7.37321e-06
-5.18541e-06
9.32778e-06
-6.58473e-06
-1.05302e-06
7.284e-06
-6.171e-06
3.03652e-06
4.66009e-06
-6.14207e-06
6.90813e-06
2.9495e-06
-6.17727e-06
9.55663e-06
1.81534e-06
-6.102e-06
1.07918e-05
7.06576e-07
-5.91444e-06
1.0532e-05
-7.38902e-07
-5.63063e-06
8.75344e-06
-2.90374e-06
-5.19698e-06
5.19025e-06
-5.80922e-06
-4.43665e-06
-5.47322e-07
-9.60683e-06
-3.14241e-06
-8.94078e-06
-1.52034e-05
-1.10135e-06
-2.13737e-05
-2.21355e-05
2.53842e-06
-3.50136e-05
-2.30287e-05
7.36443e-06
-4.36389e-05
-1.29135e-05
6.33238e-06
-4.93093e-05
-6.28868e-06
1.96789e-06
-5.27592e-05
-2.1625e-06
2.87637e-07
-5.37162e-05
1.95073e-06
-1.4237e-06
-5.23106e-05
5.67864e-06
-2.99184e-06
-4.89339e-05
9.55282e-06
-4.15026e-06
-4.40274e-05
1.32604e-05
-5.0365e-06
-3.80145e-05
1.67447e-05
-5.74135e-06
-3.13258e-05
1.99397e-05
-6.10546e-06
-2.48145e-05
2.30316e-05
-5.78409e-06
-1.9142e-05
2.62882e-05
-4.99738e-06
-1.45629e-05
3.02653e-05
-4.28093e-06
-1.11552e-05
3.54807e-05
-3.7371e-06
-8.01882e-06
4.11476e-05
-3.36099e-06
-2.73543e-06
4.47287e-05
-2.83619e-06
4.41978e-05
-8.53752e-07
2.46701e-05
2.18908e-05
-9.62168e-07
1.87437e-05
2.06471e-05
1.46672e-06
5.96872e-06
2.06597e-05
7.67128e-07
-6.27389e-06
2.10925e-05
-5.65494e-07
-1.56837e-05
2.10707e-05
-1.7795e-06
-2.2618e-05
2.01375e-05
-2.71842e-06
-2.79935e-05
1.86326e-05
-3.84169e-06
-3.29946e-05
1.72617e-05
-4.95825e-06
-3.86236e-05
1.61163e-05
-5.87845e-06
-4.43474e-05
1.51184e-05
-6.58204e-06
-4.98762e-05
1.41844e-05
-7.08702e-06
-5.54141e-05
1.32398e-05
-7.3892e-06
-6.14865e-05
1.21612e-05
-7.45411e-06
-6.91656e-05
1.07176e-05
-7.09816e-06
-8.07162e-05
8.56507e-06
-5.51031e-06
-0.000101209
5.25941e-06
-6.2755e-07
-0.00013376
-5.8079e-08
8.28424e-06
-0.000165218
-6.10175e-06
1.25115e-05
-0.000186829
-8.79252e-06
7.90842e-06
-0.000195916
-7.72082e-06
4.08029e-06
-0.000197127
-6.13779e-06
2.3559e-06
-0.000191603
-5.27331e-06
5.65239e-08
-0.000180496
-3.91509e-06
-2.11272e-06
-0.000164439
-3.22517e-06
-3.82182e-06
-0.000143766
-2.43816e-06
-5.38966e-06
-0.000120819
3.31387e-07
-6.91712e-06
-9.91386e-05
6.40904e-06
-8.46989e-06
-7.9371e-05
1.25784e-05
-9.71109e-06
-6.20035e-05
1.86482e-05
-1.0614e-05
-4.88749e-05
2.5925e-05
-1.10547e-05
-3.90527e-05
3.22055e-05
-1.09691e-05
-3.04483e-05
3.70394e-05
-1.02975e-05
-2.14961e-05
4.028e-05
-9.00962e-06
-1.18652e-05
4.10302e-05
-7.47638e-06
3.6155e-05
-5.78448e-06
-2.40156e-06
2.72778e-05
-1.92174e-06
-1.16705e-05
3.25515e-05
-1.16652e-06
-2.19797e-05
3.3715e-05
-1.53344e-06
-3.13911e-05
3.34127e-05
-2.04987e-06
-3.93843e-05
3.22165e-05
-2.44575e-06
-4.62621e-05
3.03518e-05
-2.70272e-06
-5.23019e-05
2.80814e-05
-2.86057e-06
-5.72752e-05
2.5655e-05
-2.96339e-06
-6.09688e-05
2.32456e-05
-3.06477e-06
-6.33053e-05
2.09638e-05
-3.22269e-06
-6.43054e-05
1.88722e-05
-3.48633e-06
-6.40386e-05
1.69704e-05
-3.87887e-06
-6.26075e-05
1.5162e-05
-4.3897e-06
-6.01544e-05
1.32466e-05
-5.00017e-06
-5.6961e-05
1.10367e-05
-5.70359e-06
-5.35351e-05
8.39421e-06
-6.5161e-06
-5.09337e-05
5.25773e-06
-7.53506e-06
-4.93079e-05
1.87221e-06
-8.84209e-06
-4.67252e-05
-9.86637e-07
-9.88997e-06
-4.13319e-05
-2.71469e-06
-1.02817e-05
-3.34283e-05
-3.89925e-06
-1.02263e-05
-2.44281e-05
-4.67457e-06
-9.82693e-06
-1.43515e-05
-5.24041e-06
-9.06859e-06
-4.65284e-06
-5.54303e-06
-7.77366e-06
1.86469e-06
-4.43367e-06
-5.00563e-06
-2.88742e-08
-9.97411e-07
2.83497e-06
-1.16064e-05
4.6048e-06
1.24558e-05
-2.38994e-05
8.51185e-06
1.50983e-05
-3.17538e-05
1.31594e-05
1.24849e-05
-3.16021e-05
2.03417e-05
6.01144e-06
-2.5337e-05
2.82895e-05
1.97952e-08
-1.73026e-05
3.60273e-05
-3.441e-06
-9.74941e-06
4.13739e-05
-4.7355e-06
-3.71396e-06
4.26478e-05
-4.05178e-06
3.73912e-05
-2.4081e-06
1.14388e-05
1.6323e-05
1.13111e-07
2.06738e-05
2.31674e-05
1.14862e-06
2.88043e-05
2.5509e-05
1.2358e-06
3.6883e-05
2.53967e-05
1.08301e-06
4.55558e-05
2.36919e-05
8.74712e-07
5.51444e-05
2.09393e-05
6.85482e-07
6.56387e-05
1.77567e-05
5.31375e-07
7.68556e-05
1.45862e-05
3.98981e-07
8.8661e-05
1.15907e-05
2.5828e-07
0.00010095
8.89552e-06
7.15532e-08
0.000113236
6.92333e-06
-1.31063e-07
0.000124728
6.07111e-06
-4.36588e-07
0.000134271
6.65859e-06
-9.0621e-07
0.000140462
8.67735e-06
-1.52617e-06
0.000142765
1.10337e-05
-2.27856e-06
0.000141662
1.25567e-05
-3.1402e-06
0.000137875
1.29383e-05
-4.09065e-06
0.000132101
1.24215e-05
-5.09941e-06
0.000125356
1.14478e-05
-6.10625e-06
0.000118787
1.04172e-05
-7.04017e-06
0.00011259
9.61678e-06
-7.82073e-06
0.000106597
9.21127e-06
-8.38359e-06
0.00010029
9.24457e-06
-8.66659e-06
9.26737e-05
9.99362e-06
-8.44449e-06
8.20061e-05
1.2512e-05
-6.31359e-06
6.70735e-05
1.57114e-05
-8.72858e-07
5.0001e-05
1.65477e-05
5.83936e-06
3.27256e-05
1.58704e-05
9.29557e-06
1.81926e-05
1.59949e-05
1.03455e-05
8.68106e-06
1.78488e-05
1.03967e-05
2.79119e-06
2.24509e-05
9.72101e-06
-5.77787e-07
2.93755e-05
8.28003e-06
-1.50674e-06
3.47529e-05
6.48348e-06
-8.67872e-07
3.62314e-05
5.30057e-06
3.11879e-05
5.394e-06
1.55995e-05
-4.51754e-06
5.15313e-06
3.5322e-05
-2.38214e-06
5.60543e-06
5.58811e-05
-8.35976e-07
5.47108e-06
7.58828e-05
-3.82897e-07
5.33684e-06
9.44945e-05
-8.07044e-07
5.26018e-06
0.000111036
-1.71355e-06
5.25254e-06
0.00012478
-2.38202e-06
5.33505e-06
0.000135253
-2.5781e-06
5.49222e-06
0.000142321
-2.5155e-06
5.71252e-06
0.000146192
-2.42667e-06
6.01688e-06
0.000147274
-2.0541e-06
6.45419e-06
0.000146096
-1.06106e-06
6.98045e-06
0.000142253
1.83692e-06
7.41729e-06
0.000135968
6.25071e-06
7.55961e-06
0.000128165
1.05112e-05
7.42744e-06
0.000119544
1.34354e-05
7.17109e-06
0.000110489
1.48385e-05
6.89419e-06
0.000101185
1.50653e-05
6.65932e-06
9.17872e-05
1.45153e-05
6.48968e-06
8.24973e-05
1.35781e-05
6.34636e-06
7.35228e-05
1.26102e-05
6.18311e-06
6.49884e-05
1.18995e-05
5.99901e-06
5.68398e-05
1.16323e-05
5.8592e-06
4.91535e-05
1.18738e-05
5.85541e-06
4.30804e-05
1.25443e-05
6.05889e-06
3.89851e-05
1.33163e-05
6.45365e-06
3.47118e-05
1.38594e-05
6.7386e-06
2.89759e-05
1.43447e-05
6.737e-06
2.22573e-05
1.51409e-05
6.69787e-06
1.53092e-05
1.65691e-05
6.93421e-06
8.96317e-06
1.92682e-05
7.63374e-06
4.03977e-06
2.34045e-05
8.45795e-06
1.05812e-06
2.64853e-05
8.61418e-06
-4.42404e-07
2.71254e-05
8.01248e-06
2.29626e-05
5.86799e-06
1.1023e-06
-7.6622e-06
2.07059e-06
2.25891e-06
-6.86189e-06
3.36503e-06
2.93018e-06
-5.65695e-06
4.18434e-06
2.78278e-06
-4.83274e-06
4.61869e-06
1.49507e-06
-4.41644e-06
4.93194e-06
-1.63986e-06
-4.05726e-06
5.56677e-06
-6.98391e-06
-3.37293e-06
6.45637e-06
-1.43139e-05
-2.43506e-06
7.30501e-06
-2.31634e-05
-1.43839e-06
7.85756e-06
-3.3121e-05
-4.92439e-07
8.05173e-06
-4.34422e-05
2.89838e-07
7.94394e-06
-5.30261e-05
8.66085e-07
7.57663e-06
-5.97972e-05
1.46965e-06
7.02508e-06
-6.21386e-05
2.11862e-06
6.35959e-06
-6.00478e-05
2.72306e-06
5.60834e-06
-5.46837e-05
3.22078e-06
4.79228e-06
-4.74677e-05
3.64662e-06
3.9386e-06
-3.95969e-05
4.07712e-06
3.08521e-06
-3.19564e-05
4.59141e-06
2.24051e-06
-2.50801e-05
5.23899e-06
1.39748e-06
-1.91492e-05
6.02527e-06
5.59252e-07
-1.40751e-05
6.92746e-06
-2.29939e-07
-9.71037e-06
7.93261e-06
-8.26066e-07
-5.97762e-06
9.04773e-06
-1.09791e-06
-2.98183e-06
1.02759e-05
-9.4996e-07
-9.60511e-07
1.15813e-05
-5.583e-07
-1.20216e-07
1.29254e-05
-2.53532e-07
-4.271e-07
1.43119e-05
-1.0175e-07
-1.6176e-06
1.57739e-05
-3.49288e-09
-3.36585e-06
1.73933e-05
1.97499e-07
-4.91698e-06
1.9313e-05
5.56859e-07
-5.04867e-06
2.13797e-05
9.97826e-07
-3.70191e-06
2.26389e-05
1.23749e-06
-1.70775e-06
2.25222e-05
1.4354e-06
1.89556e-05
1.78427e-06
2.78843e-06
-8.56105e-06
-1.91558e-06
2.66563e-06
-5.90533e-06
-8.18489e-07
8.69116e-07
-3.80336e-06
-2.08628e-08
-2.14531e-06
-2.34853e-06
5.70905e-07
-6.09739e-06
-1.31612e-06
8.89675e-07
-1.06095e-05
-5.75156e-07
1.06679e-06
-1.50399e-05
-5.51201e-08
1.15086e-06
-1.885e-05
2.49281e-07
1.16585e-06
-2.18588e-05
4.92281e-07
1.11807e-06
-2.40071e-05
6.9638e-07
9.97441e-07
-2.53929e-05
9.20622e-07
7.8852e-07
-2.61888e-05
1.20575e-06
4.84562e-07
-2.63524e-05
1.58405e-06
7.1771e-08
-2.59247e-05
2.05698e-06
-3.4896e-07
-2.4953e-05
2.59634e-06
-8.31785e-07
-2.35773e-05
3.18105e-06
-1.3242e-06
-2.19557e-05
3.80862e-06
-1.77115e-06
-2.02376e-05
4.488e-06
-2.11449e-06
-1.85766e-05
5.22851e-06
-2.28132e-06
-1.71537e-05
6.02737e-06
-2.19517e-06
-1.60711e-05
6.86998e-06
-1.9178e-06
-1.52398e-05
7.74731e-06
-1.65505e-06
-1.44998e-05
8.6643e-06
-1.49573e-06
-1.37369e-05
9.63097e-06
-1.39806e-06
-1.28891e-05
1.06549e-05
-1.31612e-06
-1.19614e-05
1.17412e-05
-1.22796e-06
-1.10431e-05
1.29405e-05
-1.14547e-06
-1.03025e-05
1.4353e-05
-1.09078e-06
-9.89167e-06
1.60192e-05
-1.07972e-06
-9.76221e-06
1.78513e-05
-1.12001e-06
-9.46885e-06
1.96276e-05
-1.21522e-06
-8.27843e-06
2.09431e-05
-1.38764e-06
-6.08294e-06
2.14281e-05
-1.6548e-06
-3.11286e-06
2.08225e-05
-1.89369e-06
1.69713e-05
-1.22009e-06
9.07194e-07
-8.75347e-06
-7.45623e-07
5.97259e-07
-5.75829e-06
1.46006e-07
-1.47656e-08
-3.40177e-06
2.121e-07
-8.40903e-07
-1.67443e-06
1.64702e-07
-1.90887e-06
-3.59106e-07
1.27875e-07
-3.27896e-06
7.12125e-07
1.00712e-07
-4.95006e-06
1.55625e-06
7.69777e-08
-6.96682e-06
2.23388e-06
4.89869e-08
-9.26168e-06
2.78996e-06
1.42624e-08
-1.17805e-05
3.26407e-06
-3.10091e-08
-1.44126e-05
3.68114e-06
-1.09488e-07
-1.70155e-05
4.05936e-06
-2.32072e-07
-1.94363e-05
4.42201e-06
-3.99245e-07
-2.1543e-05
4.79227e-06
-6.10149e-07
-2.32521e-05
5.18566e-06
-8.60195e-07
-2.45234e-05
5.61264e-06
-1.13721e-06
-2.53464e-05
6.08077e-06
-1.42095e-06
-2.57325e-05
6.59473e-06
-1.68493e-06
-2.57146e-05
7.15686e-06
-1.90035e-06
-2.53546e-05
7.76798e-06
-2.04176e-06
-2.47444e-05
8.429e-06
-2.09498e-06
-2.39833e-05
9.14185e-06
-2.06425e-06
-2.31509e-05
9.9085e-06
-1.96719e-06
-2.22976e-05
1.07284e-05
-1.82409e-06
-2.1441e-05
1.15936e-05
-1.6539e-06
-2.05661e-05
1.24894e-05
-1.47666e-06
-1.96358e-05
1.34556e-05
-1.31095e-06
-1.85941e-05
1.4596e-05
-1.17762e-06
-1.73521e-05
1.59602e-05
-1.11524e-06
-1.57834e-05
1.74781e-05
-1.17834e-06
-1.37408e-05
1.89617e-05
-1.41955e-06
-1.11092e-05
2.00546e-05
-1.86568e-06
-7.74974e-06
2.03678e-05
-2.48718e-06
-3.62051e-06
1.95866e-05
-3.07895e-06
1.54821e-05
-2.07624e-06
1.51713e-07
-9.20878e-06
2.18829e-07
-1.96142e-06
-5.63478e-06
1.95978e-06
-4.46713e-06
-3.13288e-06
2.23323e-06
-6.86096e-06
-1.45465e-06
2.17894e-06
-9.08048e-06
-2.09207e-07
2.07607e-06
-1.10207e-05
7.13304e-07
1.94538e-06
-1.27104e-05
1.46158e-06
1.79092e-06
-1.41288e-05
2.04481e-06
1.61414e-06
-1.52542e-05
2.50924e-06
1.41321e-06
-1.60807e-05
2.91802e-06
1.18132e-06
-1.66148e-05
3.31428e-06
9.1237e-07
-1.68672e-05
3.72277e-06
6.03828e-07
-1.68445e-05
4.16205e-06
2.56095e-07
-1.65538e-05
4.6451e-06
-1.2e-07
-1.60008e-05
5.17954e-06
-5.18057e-07
-1.51993e-05
5.76879e-06
-9.22578e-07
-1.41764e-05
6.41328e-06
-1.31322e-06
-1.29762e-05
7.11097e-06
-1.6654e-06
-1.16629e-05
7.85784e-06
-1.95259e-06
-1.03174e-05
8.64891e-06
-2.15121e-06
-9.02769e-06
9.47939e-06
-2.24724e-06
-7.87522e-06
1.03458e-05
-2.24079e-06
-6.92208e-06
1.1246e-05
-2.14532e-06
-6.20532e-06
1.21775e-05
-1.98278e-06
-5.73862e-06
1.31353e-05
-1.77821e-06
-5.51595e-06
1.41098e-05
-1.55702e-06
-5.4809e-06
1.51143e-05
-1.34329e-06
-5.47884e-06
1.61809e-05
-1.16189e-06
-5.28298e-06
1.73218e-05
-1.04445e-06
-4.69682e-06
1.85376e-05
-1.03186e-06
-3.69182e-06
1.98285e-05
-1.17421e-06
-2.50326e-06
2.10633e-05
-1.52968e-06
-1.23229e-06
2.1777e-05
-2.14058e-06
2.15322e-07
2.14642e-05
-2.87161e-06
1.81968e-05
-1.95387e-06
-6.23178e-07
-9.11851e-06
4.76866e-07
-4.1541e-06
-3.83589e-06
1.70452e-06
-7.96834e-06
-1.23362e-06
1.90631e-06
-1.13817e-05
8.0462e-08
1.87465e-06
-1.42379e-05
8.21806e-07
1.82194e-06
-1.65392e-05
1.25706e-06
1.75588e-06
-1.82575e-05
1.51417e-06
1.66736e-06
-1.94276e-05
1.66674e-06
1.55377e-06
-2.01075e-05
1.77745e-06
1.42197e-06
-2.03575e-05
1.90648e-06
1.27648e-06
-2.0232e-05
2.09582e-06
1.11212e-06
-1.97777e-05
2.36753e-06
9.23683e-07
-1.90305e-05
2.73217e-06
7.08215e-07
-1.80156e-05
3.19267e-06
4.65045e-07
-1.67511e-05
3.747e-06
1.96836e-07
-1.52408e-05
4.39027e-06
-1.02172e-07
-1.34842e-05
5.11714e-06
-4.30446e-07
-1.15016e-05
5.92218e-06
-7.63782e-07
-9.32928e-06
6.80044e-06
-1.08484e-06
-7.02556e-06
7.74745e-06
-1.37168e-06
-4.66803e-06
8.75932e-06
-1.60553e-06
-2.3486e-06
9.83268e-06
-1.77109e-06
-1.6474e-07
1.09643e-05
-1.86049e-06
1.79143e-06
1.21505e-05
-1.87581e-06
3.4414e-06
1.33851e-05
-1.82747e-06
4.72753e-06
1.46561e-05
-1.73122e-06
5.63993e-06
1.59499e-05
-1.60463e-06
6.20972e-06
1.72822e-05
-1.46658e-06
6.43972e-06
1.87191e-05
-1.33803e-06
6.24619e-06
2.03689e-05
-1.24174e-06
5.49428e-06
2.22874e-05
-1.2023e-06
4.18038e-06
2.41927e-05
-1.25617e-06
2.60529e-06
2.53363e-05
-1.49148e-06
1.29312e-06
2.52087e-05
-2.01014e-06
2.16661e-05
-1.73727e-06
2.52222e-07
-1.04127e-05
1.07488e-06
1.11738e-07
-5.13083e-06
1.36431e-06
-1.00889e-06
-1.38894e-06
1.23204e-06
-2.98257e-06
9.69869e-07
1.06389e-06
-5.27812e-06
2.22066e-06
8.75807e-07
-7.54517e-06
2.82137e-06
6.74727e-07
-9.57985e-06
3.0512e-06
4.69085e-07
-1.1292e-05
3.08224e-06
2.70579e-07
-1.26521e-05
3.02554e-06
8.9738e-08
-1.36267e-05
2.95792e-06
-9.45023e-08
-1.4223e-05
2.93474e-06
-2.55285e-07
-1.44801e-05
2.9907e-06
-3.73749e-07
-1.44453e-05
3.14466e-06
-4.50218e-07
-1.41637e-05
3.40241e-06
-4.89736e-07
-1.36715e-05
3.76247e-06
-5.02466e-07
-1.29938e-05
4.22036e-06
-5.00181e-07
-1.21442e-05
4.77168e-06
-4.96002e-07
-1.1129e-05
5.41385e-06
-5.00998e-07
-9.95435e-06
6.14625e-06
-5.20016e-07
-8.63152e-06
6.96939e-06
-5.53976e-07
-7.18066e-06
7.88413e-06
-5.99084e-07
-5.63206e-06
8.89072e-06
-6.49207e-07
-4.02411e-06
9.98741e-06
-6.97601e-07
-2.40052e-06
1.11693e-05
-7.37414e-07
-8.0344e-07
1.24239e-05
-7.63348e-07
7.15685e-07
1.37476e-05
-7.73576e-07
2.0625e-06
1.5171e-05
-7.68999e-07
3.07116e-06
1.67825e-05
-7.53298e-07
3.50369e-06
1.87162e-05
-7.28826e-07
3.13057e-06
2.10687e-05
-6.92626e-07
1.95735e-06
2.36832e-05
-6.41853e-07
4.22379e-07
2.5912e-05
-6.03463e-07
-8.94834e-07
2.6939e-05
-6.7621e-07
-1.50354e-06
2.64244e-05
-9.92337e-07
2.10486e-05
-1.29825e-06
2.49156e-06
-1.42929e-05
1.42017e-06
6.04541e-06
-1.09708e-05
2.31388e-06
8.70491e-06
-6.33099e-06
2.30384e-06
9.88186e-06
-2.27812e-06
2.09493e-06
9.57431e-06
6.96469e-07
1.86697e-06
8.0736e-06
2.74212e-06
1.62353e-06
5.7838e-06
4.0348e-06
1.35078e-06
3.07894e-06
4.77232e-06
1.05434e-06
2.04323e-07
5.18985e-06
7.41963e-07
-2.68322e-06
5.4407e-06
4.27159e-07
-5.47925e-06
5.60513e-06
1.40504e-07
-8.09819e-06
5.73502e-06
-1.14945e-07
-1.05048e-05
5.86861e-06
-3.09082e-07
-1.26879e-05
6.03117e-06
-4.37446e-07
-1.46392e-05
6.23933e-06
-5.14865e-07
-1.63476e-05
6.50341e-06
-5.59023e-07
-1.78025e-05
6.82823e-06
-5.78945e-07
-1.89956e-05
7.21688e-06
-5.78472e-07
-1.99197e-05
7.67308e-06
-5.62058e-07
-2.0569e-05
8.20112e-06
-5.337e-07
-2.09398e-05
8.80539e-06
-4.96472e-07
-2.10318e-05
9.48942e-06
-4.52139e-07
-2.08486e-05
1.02542e-05
-4.01068e-07
-2.03967e-05
1.1096e-05
-3.42532e-07
-1.9682e-05
1.20003e-05
-2.75431e-07
-1.87141e-05
1.29653e-05
-1.99987e-07
-1.75414e-05
1.40583e-05
-1.17498e-07
-1.62627e-05
1.54081e-05
-1.86953e-08
-1.49153e-05
1.71254e-05
6.17513e-08
-1.34645e-05
1.92049e-05
1.60375e-07
-1.17462e-05
2.13653e-05
2.86033e-07
-9.60584e-06
2.3005e-05
4.03909e-07
-7.11686e-06
2.35933e-05
4.18808e-07
-4.20109e-06
2.27997e-05
1.90427e-07
1.69496e-05
-4.84842e-07
1.30003e-06
-1.7272e-05
1.70352e-06
3.55572e-06
-1.5805e-05
2.5456e-06
7.30586e-06
-1.25935e-05
2.46919e-06
1.15419e-05
-8.5664e-06
2.02199e-06
1.51118e-05
-4.48679e-06
1.601e-06
1.75156e-05
-9.57917e-07
1.30217e-06
1.86982e-05
1.7681e-06
1.10707e-06
1.88278e-05
3.7222e-06
9.51144e-07
1.81652e-05
5.07711e-06
8.07325e-07
1.69356e-05
6.03384e-06
6.70271e-07
1.52837e-05
6.75586e-06
5.36936e-07
1.33084e-05
7.33931e-06
4.08525e-07
1.10943e-05
7.83358e-06
2.88311e-07
8.71254e-06
8.27361e-06
1.80567e-07
6.22354e-06
8.68651e-06
8.55246e-08
3.67851e-06
9.09261e-06
3.17486e-09
1.10773e-06
9.50535e-06
-5.36476e-08
-1.4283e-06
9.93407e-06
-1.20734e-07
-3.87787e-06
1.03848e-05
-1.90928e-07
-6.19393e-06
1.08611e-05
-2.58487e-07
-8.33313e-06
1.13657e-05
-3.17835e-07
-1.0256e-05
1.19011e-05
-3.64272e-07
-1.19283e-05
1.24687e-05
-3.93878e-07
-1.33246e-05
1.30691e-05
-4.03103e-07
-1.44371e-05
1.36997e-05
-3.87745e-07
-1.52661e-05
1.43629e-05
-3.42984e-07
-1.57745e-05
1.5087e-05
-2.64505e-07
-1.58458e-05
1.59198e-05
-1.46069e-07
-1.52984e-05
1.68999e-05
2.38404e-08
-1.39305e-05
1.80297e-05
2.14798e-07
-1.17332e-05
1.9188e-05
4.48738e-07
-8.98365e-06
2.00562e-05
7.07464e-07
-6.04971e-06
2.0244e-05
9.30326e-07
-2.95505e-06
1.92791e-05
9.38209e-07
1.42206e-05
1.57575e-07
1.14837e-06
-2.20493e-05
3.65804e-06
2.1446e-06
-2.19478e-05
5.16211e-06
3.75235e-06
-1.93841e-05
5.19288e-06
6.04694e-06
-1.5313e-05
4.46115e-06
8.82827e-06
-1.08076e-05
3.54738e-06
1.17654e-05
-6.60862e-06
2.71767e-06
1.4567e-05
-3.08093e-06
2.04677e-06
1.71147e-05
-3.73015e-07
1.54392e-06
1.90472e-05
1.95663e-06
1.18234e-06
2.05135e-05
3.63915e-06
9.1944e-07
2.15467e-05
4.98324e-06
7.26116e-07
2.21593e-05
6.11941e-06
5.91338e-07
2.23622e-05
7.10548e-06
5.08318e-07
2.21732e-05
7.97905e-06
4.66495e-07
2.1621e-05
8.76566e-06
4.56872e-07
2.07445e-05
9.48492e-06
4.70149e-07
1.95904e-05
1.01518e-05
4.97379e-07
1.8212e-05
1.07777e-05
5.30022e-07
1.6667e-05
1.13729e-05
5.59828e-07
1.5014e-05
1.19474e-05
5.80042e-07
1.33076e-05
1.25124e-05
5.86796e-07
1.1599e-05
1.30774e-05
5.76928e-07
9.93901e-06
1.36476e-05
5.48331e-07
8.37558e-06
1.42251e-05
5.02972e-07
6.94591e-06
1.48132e-05
4.46693e-07
5.67374e-06
1.54185e-05
3.89395e-07
4.58732e-06
1.60514e-05
3.44337e-07
3.7351e-06
1.67195e-05
3.26943e-07
3.18847e-06
1.7425e-05
3.54722e-07
3.02105e-06
1.81655e-05
4.44602e-07
3.21755e-06
1.88946e-05
6.07462e-07
3.53923e-06
1.9475e-05
8.60643e-07
3.48778e-06
1.96935e-05
1.23475e-06
2.42809e-06
1.92547e-05
1.72606e-06
1.6121e-05
1.31563e-06
1.66001e-06
-2.89328e-05
5.29978e-06
1.22802e-07
-2.79736e-05
7.82711e-06
-3.07032e-06
-2.36259e-05
7.78615e-06
-6.53318e-06
-1.84159e-05
6.91251e-06
-8.92872e-06
-1.40717e-05
5.94298e-06
-9.6764e-06
-1.07074e-05
5.0599e-06
-8.90609e-06
-8.01466e-06
4.31356e-06
-7.0875e-06
-5.79933e-06
3.70872e-06
-4.38428e-06
-3.90506e-06
3.22169e-06
-1.28645e-06
-2.24675e-06
2.82197e-06
1.98193e-06
-7.6217e-07
2.48624e-06
5.27611e-06
6.10051e-07
2.20162e-06
8.48506e-06
1.89607e-06
1.96182e-06
1.15035e-05
3.13265e-06
1.76239e-06
1.42237e-05
4.35578e-06
1.60032e-06
1.65298e-05
5.5958e-06
1.47317e-06
1.83047e-05
6.87303e-06
1.37691e-06
1.94502e-05
8.18529e-06
1.30683e-06
1.99299e-05
9.48643e-06
1.25762e-06
1.97614e-05
1.07393e-05
1.22303e-06
1.90145e-05
1.19102e-05
1.19578e-06
1.77841e-05
1.2992e-05
1.16771e-06
1.61603e-05
1.40031e-05
1.12978e-06
1.42234e-05
1.49639e-05
1.07357e-06
1.20637e-05
1.58765e-05
9.90013e-07
9.79434e-06
1.67363e-05
8.68006e-07
7.54611e-06
1.75455e-05
6.98536e-07
5.4538e-06
1.83106e-05
4.78631e-07
3.64938e-06
1.90337e-05
2.11199e-07
2.22567e-06
1.97032e-05
-5.56622e-08
1.19787e-06
2.02768e-05
-2.5115e-07
5.17108e-07
2.06716e-05
-3.71386e-07
-9.02864e-09
2.07004e-05
-3.09952e-07
-5.09346e-07
1.98749e-05
6.13758e-08
1.57299e-05
4.83435e-08
-2.09716e-05
-1.58229e-05
8.25385e-06
-4.19911e-05
-1.44905e-05
8.3814e-06
-5.76068e-05
-1.3614e-05
6.47776e-06
-6.77713e-05
-1.28446e-05
5.09524e-06
-7.37009e-05
-1.23168e-05
4.36602e-06
-7.61876e-05
-1.20921e-05
3.98306e-06
-7.60831e-05
-1.18177e-05
3.78834e-06
-7.41147e-05
-1.13737e-05
3.68507e-06
-7.08044e-05
-1.07575e-05
3.61077e-06
-6.65254e-05
-1.00129e-05
3.54145e-06
-6.15308e-05
-9.19152e-06
3.47121e-06
-5.59715e-05
-8.33064e-06
3.39809e-06
-4.99506e-05
-7.4495e-06
3.32131e-06
-4.35394e-05
-6.54136e-06
3.24081e-06
-3.68223e-05
-5.55745e-06
3.15653e-06
-2.99567e-05
-4.39469e-06
3.06794e-06
-2.32531e-05
-2.88104e-06
2.97451e-06
-1.73006e-05
-7.43323e-07
2.87732e-06
-1.21645e-05
1.44165e-06
2.7808e-06
-8.15484e-06
3.88231e-06
2.68539e-06
-5.25615e-06
6.22128e-06
2.59136e-06
-3.27111e-06
8.27552e-06
2.49568e-06
-2.06774e-06
1.01387e-05
2.39057e-06
-1.59097e-06
1.1917e-05
2.26604e-06
-1.77312e-06
1.36069e-05
2.11588e-06
-2.46468e-06
1.51281e-05
1.93658e-06
-3.44811e-06
1.64203e-05
1.72446e-06
-4.48285e-06
1.74745e-05
1.47297e-06
-5.32459e-06
1.8303e-05
1.16871e-06
-5.74696e-06
1.89142e-05
8.0985e-07
-5.61641e-06
1.93193e-05
4.26035e-07
-4.88402e-06
1.94977e-05
2.26088e-08
-3.69265e-06
1.92894e-05
-2.27015e-07
-2.12493e-06
1.8194e-05
-3.41781e-07
1.35125e-05
-2.17991e-07
-2.19137e-05
-5.46179e-06
1.20019e-05
-3.91754e-05
-7.69956e-06
1.14175e-05
-4.90102e-05
-1.1944e-05
9.1442e-06
-5.2572e-05
-1.60675e-05
7.63226e-06
-5.20856e-05
-1.86911e-05
6.64276e-06
-4.92375e-05
-2.02294e-05
5.98099e-06
-4.50207e-05
-2.09522e-05
5.55975e-06
-4.01089e-05
-2.09948e-05
5.31026e-06
-3.49951e-05
-2.04864e-05
5.17955e-06
-3.00585e-05
-1.95497e-05
5.12837e-06
-2.56021e-05
-1.82841e-05
5.12554e-06
-2.18841e-05
-1.67481e-05
5.14519e-06
-1.9112e-05
-1.49904e-05
5.16658e-06
-1.7403e-05
-1.30767e-05
5.17412e-06
-1.67538e-05
-1.10608e-05
5.15537e-06
-1.70492e-05
-8.93192e-06
5.09851e-06
-1.80777e-05
-6.59383e-06
4.99256e-06
-1.94756e-05
-3.92193e-06
4.83768e-06
-2.15826e-05
-8.37301e-07
4.66811e-06
-2.42256e-05
2.27268e-06
4.55382e-06
-2.73829e-05
5.16413e-06
4.53526e-06
-3.10564e-05
7.68752e-06
4.59802e-06
-3.51171e-05
9.81996e-06
4.71028e-06
-3.92219e-05
1.14782e-05
4.84122e-06
-4.2863e-05
1.2534e-05
4.95943e-06
-4.55149e-05
1.29341e-05
5.03745e-06
-4.67153e-05
1.27156e-05
5.05098e-06
-4.60658e-05
1.19577e-05
4.9767e-06
-4.33193e-05
1.08519e-05
4.78199e-06
-3.84765e-05
9.69953e-06
4.4191e-06
-3.18998e-05
8.79623e-06
3.96383e-06
-2.42262e-05
8.20199e-06
3.61412e-06
-1.59768e-05
7.64906e-06
3.36372e-06
-7.45306e-06
6.67284e-06
2.969e-06
4.18045e-06
1.86483e-06
-6.30906e-06
-9.21581e-06
1.00492e-05
-5.67956e-06
-1.83568e-05
1.0153e-05
-5.65348e-07
-2.55401e-05
8.68548e-06
6.85101e-06
-3.06693e-05
7.43319e-06
1.5725e-05
-3.38133e-05
6.54279e-06
2.53966e-05
-3.55209e-05
5.97335e-06
3.54044e-05
-3.61521e-05
5.61593e-06
4.5433e-05
-3.591e-05
5.39172e-06
5.51883e-05
-3.49222e-05
5.27801e-06
6.43391e-05
-3.32771e-05
5.27909e-06
7.24899e-05
-3.10201e-05
5.40713e-06
7.91245e-05
-2.80932e-05
5.66916e-06
8.36855e-05
-2.44997e-05
6.05766e-06
8.57859e-05
-2.04722e-05
6.55365e-06
8.53752e-05
-1.63974e-05
7.12962e-06
8.27042e-05
-1.25496e-05
7.74164e-06
7.82255e-05
-8.99367e-06
8.3209e-06
7.2567e-05
-5.71019e-06
8.77366e-06
6.65495e-05
-2.70895e-06
8.99627e-06
6.07818e-05
-6.1183e-08
8.92624e-06
5.44684e-05
3.42149e-06
8.56442e-06
4.7979e-05
6.45532e-06
7.99152e-06
4.15341e-05
9.10278e-06
7.35386e-06
3.53522e-05
1.11411e-05
6.7936e-06
2.96019e-05
1.23251e-05
6.38285e-06
2.43792e-05
1.26073e-05
6.09294e-06
1.97107e-05
1.21301e-05
5.86248e-06
1.55713e-05
1.10856e-05
5.63775e-06
1.18926e-05
9.81938e-06
5.32055e-06
8.71501e-06
8.81264e-06
4.65051e-06
6.43224e-06
8.29381e-06
3.37292e-06
5.07045e-06
8.14591e-06
2.0178e-06
4.15036e-06
8.12044e-06
1.00724e-06
2.88401e-06
7.95637e-06
4.48525e-07
6.88602e-06
5.07049e-07
-5.16838e-06
-9.86646e-06
5.21271e-06
-2.64451e-06
-2.55842e-05
3.84137e-06
4.63232e-06
-3.57211e-05
2.09866e-06
1.34939e-05
-4.15101e-05
1.25092e-06
2.23785e-05
-4.43489e-05
9.85023e-07
3.06763e-05
-4.53572e-05
9.19122e-07
3.82654e-05
-4.51686e-05
8.4152e-07
4.52467e-05
-4.41405e-05
6.8756e-07
5.17934e-05
-4.24833e-05
4.71965e-07
5.80699e-05
-4.0302e-05
2.26431e-07
6.41197e-05
-3.7552e-05
-1.00963e-08
6.95893e-05
-3.38701e-05
-1.30767e-07
7.39961e-05
-2.90267e-05
-2.18212e-07
7.68365e-05
-2.3239e-05
-2.47103e-07
7.7996e-05
-1.73664e-05
-1.33911e-07
7.78697e-05
-1.24078e-05
3.15916e-07
7.72093e-05
-8.7523e-06
1.0396e-06
7.64886e-05
-6.09069e-06
2.00838e-06
7.57334e-05
-3.96648e-06
3.17984e-06
7.46114e-05
-2.05671e-06
4.46099e-06
7.37971e-05
-6.38677e-08
5.6625e-06
7.31106e-05
1.82265e-06
6.6061e-06
7.23243e-05
3.81239e-06
7.23775e-06
7.10602e-05
5.81193e-06
7.56915e-06
6.8767e-05
7.73426e-06
7.66092e-06
6.50776e-05
9.31439e-06
7.61373e-06
6.00007e-05
1.02563e-05
7.49479e-06
5.37124e-05
1.05643e-05
7.30052e-06
4.64822e-05
1.05315e-05
6.98105e-06
3.85855e-05
1.06465e-05
6.52702e-06
3.02879e-05
1.11057e-05
5.9686e-06
2.20601e-05
1.16438e-05
5.24655e-06
1.43415e-05
1.21372e-05
4.27031e-06
7.25435e-06
1.26623e-05
3.0027e-06
1.35055e-05
1.27544e-06
1.20461e-05
-2.49245e-05
2.70103e-06
2.83056e-05
-4.41252e-05
2.21258e-06
4.23738e-05
-5.16552e-05
2.11052e-06
5.3345e-05
-5.42056e-05
2.17204e-06
6.16046e-05
-5.42799e-05
2.22925e-06
6.75489e-05
-5.29542e-05
2.25945e-06
7.16041e-05
-5.08924e-05
2.27838e-06
7.42442e-05
-4.85056e-05
2.29868e-06
7.58711e-05
-4.5934e-05
2.32738e-06
7.66281e-05
-4.30233e-05
2.36997e-06
7.61546e-05
-3.92422e-05
2.44715e-06
7.39374e-05
-3.40016e-05
2.47751e-06
7.03352e-05
-2.77667e-05
2.27608e-06
6.59339e-05
-2.07327e-05
1.62994e-06
6.12949e-05
-1.37038e-05
6.0718e-07
5.67107e-05
-7.82685e-06
-3.31805e-07
5.23214e-05
-3.6618e-06
-9.42262e-07
4.81924e-05
-9.12548e-07
-1.18394e-06
4.42134e-05
1.09326e-06
-1.00779e-06
4.02455e-05
2.66999e-06
-2.83941e-07
3.60463e-05
3.94707e-06
1.03042e-06
3.11967e-05
5.11803e-06
2.4365e-06
2.59551e-05
6.22846e-06
3.63938e-06
2.06753e-05
7.35103e-06
4.55975e-06
1.55078e-05
8.52584e-06
5.0053e-06
1.06782e-05
9.50868e-06
4.87059e-06
6.55215e-06
9.98567e-06
4.44606e-06
3.29726e-06
9.88608e-06
3.99967e-06
1.03728e-06
9.31342e-06
3.64514e-06
-1.25728e-07
8.56594e-06
3.45456e-06
-3.71117e-07
8.0068e-06
3.47167e-06
2.28948e-08
7.68034e-06
3.62483e-06
5.59883e-07
7.82481e-06
3.76437e-06
3.82262e-07
9.27284e-06
3.40141e-06
1.14892e-05
2.0587e-06
1.53949e-05
-4.05156e-05
5.73179e-07
2.66751e-05
-5.49473e-05
3.11229e-07
3.36152e-05
-5.74494e-05
-3.08728e-07
3.77366e-05
-5.65182e-05
-1.02045e-06
4.00435e-05
-5.40872e-05
-1.77538e-06
4.13364e-05
-5.11647e-05
-2.44603e-06
4.22936e-05
-4.84354e-05
-2.88894e-06
4.32346e-05
-4.60044e-05
-3.01975e-06
4.39846e-05
-4.3491e-05
-2.8405e-06
4.34668e-05
-3.97945e-05
-2.37929e-06
3.89595e-05
-3.27012e-05
-1.66877e-06
2.96721e-05
-2.32493e-05
-1.0665e-06
2.06856e-05
-1.7724e-05
-6.74655e-07
1.46242e-05
-1.37159e-05
-6.51982e-07
1.21012e-05
-9.96204e-06
-1.01432e-06
1.25493e-05
-6.62951e-06
-1.52707e-06
1.47829e-05
-3.87734e-06
-1.96738e-06
1.78445e-05
-1.71054e-06
-2.26465e-06
2.13097e-05
1.33329e-08
-2.42991e-06
2.4938e-05
1.41236e-06
-2.45845e-06
2.84785e-05
2.58941e-06
-2.31986e-06
3.17845e-05
3.6008e-06
-1.98813e-06
3.47129e-05
4.49895e-06
-1.47272e-06
3.7209e-05
5.34036e-06
-8.29597e-07
3.93701e-05
6.14163e-06
-1.58543e-07