/*--------------------------------*- C++ -*----------------------------------*\
| =========                 |                                                 |
| \\      /  F ield         | OpenFOAM: The Open Source CFD Toolbox           |
|  \\    /   O peration     | Version:  v2006                                 |
|   \\  /    A nd           | Website:  www.openfoam.com                      |
|    \\/     M anipulation  |                                                 |
\*---------------------------------------------------------------------------*/
FoamFile
{
    version     2.0;
    format      ascii;
    class       volScalarField;
    location    "69";
    object      T;
}
// * * * * * * * * * * * * * * * * * * * * * * * * * * * * * * * * * * * * * //

dimensions      [0 0 0 1 0 0 0];


internalField   nonuniform List<scalar> 
78750
(
41.1209
85.6542
108.374
121.557
131.926
141.338
150.216
158.701
166.884
174.716
182.301
189.523
196.395
202.764
208.631
213.992
218.731
222.97
226.319
229.199
231.196
232.562
232.775
232.688
231.19
229.977
226.802
223.157
217.143
208.3
198.31
176.374
153.871
98.6828
123.848
174.796
432.374
389.913
347.618
330.137
324.036
321.609
320.832
320.775
321.186
321.857
322.594
323.226
323.536
323.172
321.522
317.595
310.268
301.751
296.294
292.377
287.82
281.447
274.663
269.001
264.386
260.192
255.895
250.927
244.62
236.127
223.703
207.01
188.428
190.917
227.991
273.955
292.49
297.233
297.444
297.358
297.619
298.349
300.405
303.069
305.529
307.71
309.672
311.282
311.95
310.642
305.069
288.419
259.729
246.152
256.406
261.507
265.524
268.452
269.542
269.353
268.261
266.219
263.002
258.136
251.008
241.499
232.559
229.19
238.293
284.21
290.595
293.053
294.749
296.586
299.261
302.775
306
308.395
309.956
310.801
310.975
310.373
308.408
302.863
288.525
264.616
250.394
252.216
252.288
250.562
251.911
253.775
256.47
259.383
262.709
266.717
271.2
275.727
279.701
282.373
283.956
285.626
289.918
306.697
290.896
294.19
298.278
301.759
304.201
305.977
307.362
308.465
309.315
309.93
310.346
310.6
310.729
310.787
310.871
311.186
312.397
315.427
318.774
320.475
321.004
320.87
320.072
318.503
313.94
297.372
273.404
259.45
252.06
249.503
252.037
257.861
266.082
277.075
303.152
282.629
280.404
280.878
282.182
283.91
285.774
287.606
289.33
290.93
292.402
293.741
294.933
295.941
296.735
297.4
298.059
298.791
299.715
300.908
302.363
303.997
305.7
307.375
309.147
310.484
308.154
300.695
291.221
282.395
273.427
264.238
258.738
260.224
268.405
294.07
293.25
289.8
288.713
288.749
289.592
291.204
293.338
295.679
298.141
300.762
303.524
306.11
308.422
310.583
312.305
313.133
313.055
312.227
310.856
309.211
307.561
306.098
304.884
303.865
302.904
301.743
300.281
298.616
296.607
293.891
290.357
288.127
290.597
298.771
325.408
305.936
309.843
311.107
312.053
313.386
315.114
316.354
316.792
316.463
315.711
314.837
314.058
313.456
312.989
312.58
312.2
311.875
311.641
311.521
311.511
311.575
311.65
311.661
311.539
311.25
310.874
310.551
310.359
310.35
310.683
311.817
314.607
319.251
326.927
348.894
308.529
312.246
313.664
314.518
315.165
315.716
316.191
316.601
316.954
317.249
317.491
317.694
317.873
318.045
318.219
318.386
318.525
318.611
318.63
318.596
318.567
318.61
318.759
319.025
319.427
320.006
320.827
321.981
323.572
325.737
328.648
332.285
336.515
342.836
360.5
309.743
315.016
316.887
317.907
318.598
319.139
319.607
320.035
320.433
320.8
321.132
321.426
321.683
321.9
322.075
322.209
322.308
322.383
322.454
322.547
322.703
322.97
323.404
324.065
325.015
326.328
328.166
330.765
334.207
338.329
342.778
347.08
351.317
357.753
376.205
311.455
317.638
319.655
320.613
321.163
321.517
321.772
321.977
322.159
322.337
322.511
322.684
322.851
323.006
323.142
323.249
323.321
323.353
323.344
323.302
323.243
323.194
323.196
323.307
323.602
324.173
325.155
326.754
329.196
332.686
337.311
342.656
347.991
354.912
372.477
311.396
319.186
321.657
322.734
323.288
323.56
323.67
323.698
323.695
323.687
323.689
323.709
323.749
323.807
323.879
323.956
324.027
324.079
324.099
324.075
323.995
323.857
323.662
323.424
323.172
322.95
322.826
322.897
323.321
324.366
326.569
330.731
336.852
344.841
362.626
307.959
317.702
321.201
322.831
323.897
324.728
325.381
325.875
326.24
326.504
326.688
326.811
326.889
326.938
326.971
327.004
327.049
327.117
327.211
327.33
327.47
327.619
327.767
327.903
328.023
328.131
328.25
328.444
328.872
329.902
332.194
336.26
341.464
348.752
367.493
305.263
310.711
314.401
317.184
319.162
320.633
321.865
323.001
324.073
325.063
325.956
326.732
327.381
327.905
328.317
328.637
328.899
329.136
329.387
329.687
330.069
330.556
331.165
331.908
332.793
333.862
335.238
337.093
339.576
342.809
346.89
351.72
357.031
365.068
385.106
308.507
313.58
315.73
317.21
318.387
319.369
320.181
320.86
321.514
322.212
322.939
323.679
324.414
325.128
325.807
326.443
327.034
327.59
328.125
328.664
329.241
329.891
330.655
331.571
332.676
334.021
335.723
337.959
340.924
344.767
349.453
354.663
360.278
368.78
389.402
308.709
312.081
314.046
316.028
317.705
319.021
320.068
320.911
321.572
322.114
322.616
323.123
323.627
324.121
324.599
325.053
325.478
325.87
326.229
326.56
326.871
327.181
327.511
327.892
328.362
328.969
329.774
330.854
332.299
334.251
336.855
340.092
343.881
349.872
368.922
309.82
314.837
318.088
320.895
322.785
323.98
324.764
325.316
325.753
326.149
326.542
326.942
327.348
327.757
328.157
328.532
328.87
329.165
329.42
329.639
329.827
329.991
330.143
330.311
330.539
330.885
331.419
332.228
333.407
335.061
337.3
340.24
344.023
349.828
365.901
308.285
316.723
323.945
329.016
330.643
331.119
331.435
331.768
332.156
332.592
333.063
333.561
334.077
334.606
335.136
335.646
336.096
336.419
336.546
336.468
336.257
336.004
335.759
335.553
335.436
335.466
335.698
336.186
336.989
338.178
339.849
342.226
345.883
353.053
375.079
309.196
315.558
320.935
324.856
326.859
328.085
328.883
329.329
329.498
329.484
329.378
329.265
329.237
329.408
329.911
330.927
332.7
335.487
339.239
343.169
346.336
348.545
350.055
351.107
351.903
352.641
353.484
354.572
356.085
358.241
361.276
365.45
371.164
379.56
395.646
330.481
342.722
345.604
346.588
347.057
347.448
347.824
348.144
348.337
348.32
348.002
347.273
345.99
344.008
341.231
337.628
333.27
328.43
323.729
319.957
317.811
317.85
319.975
323.348
326.757
329.478
331.559
333.392
335.445
338.159
341.777
346.12
351.271
357.707
371.126
325.603
336.679
337.477
338.562
340.386
342.537
344.797
347.048
349.223
351.276
353.197
354.991
356.562
357.736
358.257
357.82
356.161
353.095
348.499
342.473
335.694
329.338
324.098
320.384
318.493
318.187
318.818
319.779
320.619
321.037
321.276
322.156
324.505
329.379
345.56
310.8
319.153
325.658
330.996
335.208
338.49
341.037
342.973
344.396
345.414
346.197
346.891
347.5
348.328
349.717
351.314
352.381
352.546
351.369
347.339
338.854
327.457
316.761
307.409
299.165
294.05
293.101
295.408
300.079
306.16
311.973
316.83
321.857
331.287
368.593
315.205
332.824
343.097
349.278
353.542
356.64
358.676
359.767
360.145
360.099
360.036
359.648
357.512
354.405
351.953
350.793
350.502
350.458
350.342
350.012
349.314
348.068
346.169
343.666
340.939
338.485
336.52
335.174
334.52
334.48
335.05
336.383
338.316
344.206
374.598
324.204
340.567
346.642
350.135
352.493
353.439
353.319
352.708
351.904
351.393
352.347
353.554
352.631
352.035
351.601
351.187
350.794
350.449
350.146
349.863
349.57
349.238
348.842
348.368
347.822
347.232
346.627
346.011
345.35
344.44
342.6
338.732
337.253
348.31
372.678
330.487
347.197
353.888
357.52
358.738
358.527
357.671
356.167
353.906
351.841
351.741
352.873
352.947
352.802
352.615
352.392
352.144
351.885
351.624
351.365
351.109
350.849
350.58
350.297
349.989
349.64
349.22
348.677
347.838
346.186
342.941
339.574
336.991
343.011
375.009
341.759
353.824
353.05
352.624
353.106
354.288
355.782
356.84
357.058
356.654
355.932
355.09
354.215
353.516
353.11
352.875
352.707
352.556
352.399
352.226
352.034
351.818
351.572
351.287
350.946
350.52
349.968
349.204
348.04
346.22
343.885
342.38
342.847
347.72
372.753
316.742
320.113
324.099
329.737
334.915
339.581
344.2
348.738
352.869
356.142
358.878
361.394
361.245
358.413
355.926
354.558
353.867
353.486
353.243
353.057
352.883
352.7
352.491
352.242
351.938
351.561
351.088
350.468
349.615
348.523
347.576
347.76
349.815
354.786
371.33
311.35
326.444
337.436
345.134
350.596
354.747
357.693
359.311
360.184
360.398
360.457
363.631
366.505
362.915
358.09
355.515
354.594
354.174
353.91
353.719
353.57
353.434
353.292
353.127
352.929
352.691
352.41
352.097
351.762
351.491
351.698
353.046
355.609
360.017
373.108
333.109
349.498
354.902
358.218
361.285
363.993
365.356
365.106
363.959
361.116
355.526
352.548
353.17
353.763
353.974
353.996
353.974
353.951
353.931
353.911
353.884
353.849
353.801
353.742
353.676
353.615
353.581
353.615
353.816
354.384
355.595
357.496
360.12
364.367
376.032
318.276
329.137
334.642
339.364
343.839
348.219
351.911
354.063
355.006
355.968
357.044
356.851
355.699
354.57
353.915
353.677
353.658
353.725
353.817
353.91
353.991
354.052
354.093
354.111
354.112
354.108
354.128
354.229
354.513
355.158
356.405
358.387
361.045
365.112
376.47
312.945
328.773
336.865
341.355
344.639
347.607
350.751
354.547
359.108
363.645
367.093
368.681
367.839
364.102
359.217
355.817
354.287
353.738
353.603
353.645
353.76
353.897
354.029
354.144
354.235
354.3
354.342
354.389
354.501
354.807
355.554
357.187
360.256
365.353
378.292
320.963
337.573
344.237
348.282
351.835
355.234
358.131
359.986
360.724
361.134
362.144
364.49
369.006
372.748
370.825
363.449
357.426
354.714
353.822
353.524
353.45
353.505
353.635
353.799
353.969
354.123
354.249
354.348
354.436
354.57
355.004
356.668
360.741
367.353
382.234
317.905
333.809
341.627
346.702
351.127
355.427
359.715
363.799
366.805
367.877
367.222
365.753
365.105
366.474
370.02
369.374
362.639
357.6
355.325
354.525
354.178
354.018
353.982
354.029
354.126
354.248
354.377
354.507
354.665
354.976
355.913
358.607
363.041
369.964
386.832
321.097
338.043
344.805
349.131
353.284
357.556
361.493
364.22
365.428
365.987
366.849
367.586
367.167
366.248
365.569
362.775
357.072
354.181
353.432
353.263
353.255
353.34
353.486
353.674
353.886
354.115
354.356
354.66
355.192
356.297
358.5
361.918
365.425
370.865
388.209
324.603
341.401
348.379
353.308
358.05
362.707
366.946
369.419
368.199
364.62
363.197
364.383
365.939
366.753
366.405
364.253
360.069
356.661
355.082
354.437
354.166
354.055
354.049
354.129
354.285
354.509
354.826
355.34
356.27
357.88
360.193
362.662
365.091
369.268
385.572
322.578
336.943
342.399
346.457
350.732
355.324
359.86
363.346
364.209
362
359.696
359.116
358.723
357.865
356.948
356.284
355.652
355.016
354.565
354.303
354.173
354.131
354.157
354.241
354.383
354.596
354.908
355.385
356.135
357.293
358.889
360.717
362.826
366.625
380.674
321.912
337.912
343.42
346.624
349.402
352.322
355.816
360.022
364.25
366.398
364.844
361.585
358.666
356.698
355.622
355.229
355.106
355.013
354.876
354.724
354.593
354.49
354.412
354.364
354.356
354.403
354.52
354.733
355.089
355.684
356.707
358.493
361.416
366.282
379.419
319.72
334.016
340.225
344.237
347.719
350.907
353.86
356.82
360.273
364.82
370.564
375.41
375.557
371.046
363.82
357.422
353.991
352.998
353.308
353.874
354.31
354.608
354.812
354.943
355.003
355
354.97
354.99
355.182
355.756
357.102
359.699
363.701
369.992
385.019
319.042
334.742
340.923
344.493
347.368
349.946
352.303
354.438
356.391
358.384
360.906
364.352
368.498
373.079
377.342
378.441
375.844
370.081
362.401
356.462
354.342
354.391
354.879
355.318
355.673
355.954
356.166
356.342
356.659
357.517
359.391
362.486
366.719
373.762
391.444
320.229
335.744
342.169
346.146
349.573
352.845
356.019
358.974
361.506
363.514
365.014
366.079
366.902
367.687
368.765
370.537
373.241
374.462
371.609
365.761
360.521
357.515
356.324
356.15
356.384
356.788
357.322
358.032
359.052
360.635
362.975
366.054
370.021
376.991
394.892
318.079
334.037
341.013
345.161
348.484
351.459
354.282
357.122
360.068
363.009
365.709
368.056
370.15
372.04
373.377
373.693
372.759
370.5
367.446
362.356
356.605
354.445
354.604
355.32
356.156
357.122
358.302
359.758
361.506
363.561
365.959
368.776
372.446
379.106
395.626
322.305
339.136
345.416
349.277
352.705
356.031
359.308
362.388
365.015
367.062
368.622
369.884
370.986
371.97
372.731
372.503
368.758
360.507
354.671
355.495
355.928
355.348
355.468
355.905
356.6
357.578
358.864
360.446
362.279
364.333
366.639
369.332
372.929
379.472
395.245
320.683
336.742
343.203
347.207
350.658
353.942
357.23
360.572
363.808
366.641
368.886
370.59
371.905
372.932
373.56
373.204
370.135
362.065
352.537
352.007
357.241
358.691
359.095
359.297
359.572
360.074
360.88
362.005
363.433
365.159
367.219
369.738
373.218
379.668
395.552
321.997
338.933
345.403
349.388
352.925
356.377
359.809
363.066
365.897
368.18
369.942
371.279
372.32
373.193
373.967
374.575
374.606
372.465
365.29
355.695
352.021
354.575
358.537
361.003
362.481
363.577
364.567
365.626
366.86
368.322
370.059
372.178
375.135
380.833
396.116
323.009
339.355
345.568
349.512
353.081
356.604
360.197
363.745
366.902
369.37
371.124
372.324
373.148
373.734
374.191
374.591
374.958
375.206
374.79
371.813
365.137
358.167
354.548
355.298
358.525
361.786
364.342
366.427
368.302
370.123
372.001
374.092
376.847
382
396.187
322.306
338.848
345.261
349.243
352.762
356.195
359.674
363.134
366.304
368.908
370.864
372.27
373.276
374
374.52
374.887
375.143
375.312
375.4
375.333
374.593
371.795
366.204
359.913
356.268
356.63
359.236
362.353
365.256
367.873
370.346
372.857
375.792
380.705
394.089
323.457
340.106
346.418
350.391
353.965
357.482
361.071
364.651
367.905
370.502
372.338
373.542
374.317
374.83
375.186
375.441
375.62
375.73
375.77
375.736
375.608
375.265
374.152
370.899
364.899
358.953
356.506
357.333
359.723
362.616
365.587
368.6
371.941
377.101
390.721
323.314
339.737
345.98
349.876
353.337
356.721
360.174
363.671
366.999
369.853
372.037
373.562
374.571
375.225
375.647
375.917
376.084
376.176
376.206
376.179
376.096
375.948
375.69
375.092
373.264
368.587
362.25
358.157
357.423
358.642
360.79
363.416
366.555
371.53
385.438
323.099
339.804
346.148
350.069
353.538
356.924
360.367
363.841
367.158
370.062
372.357
373.999
375.091
375.789
376.225
376.491
376.642
376.71
376.713
376.66
376.56
376.416
376.22
375.929
375.371
373.856
369.66
363.298
358.604
357.129
357.702
359.512
362.368
367.486
382.273
322.912
339.799
346.342
350.394
353.975
357.466
360.954
364.338
367.459
370.195
372.445
374.152
375.349
376.141
376.645
376.953
377.128
377.208
377.215
377.162
377.061
376.918
376.74
376.516
376.192
375.556
373.802
369.034
361.899
357.639
356.794
358.001
360.726
366.314
383.021
322.948
340.338
347.092
351.28
355.042
358.789
362.531
365.992
368.945
371.369
373.32
374.828
375.926
376.679
377.171
377.476
377.651
377.731
377.738
377.687
377.586
377.445
377.267
377.047
376.759
376.31
375.378
372.832
366.831
360.77
358.899
359.643
362.11
367.944
386.476
323.68
341.328
348.178
352.51
356.563
360.772
364.968
368.589
371.348
373.358
374.842
375.955
376.775
377.358
377.752
378.005
378.153
378.219
378.222
378.17
378.071
377.932
377.756
377.539
377.27
376.906
376.319
375.066
371.81
366.343
363.571
363.92
366.029
371.507
390.302
324.572
342.267
349.078
353.504
357.876
362.63
367.337
371.147
373.779
375.482
376.596
377.355
377.886
378.257
378.508
378.666
378.751
378.778
378.757
378.692
378.59
378.451
378.275
378.055
377.776
377.412
376.905
376.091
374.505
371.461
369.129
369.45
371.418
376.392
394.063
324.98
342.628
349.48
354.068
358.813
364.113
369.219
373.099
375.589
377.08
377.971
378.52
378.868
379.091
379.228
379.302
379.327
379.312
379.261
379.178
379.064
378.919
378.738
378.513
378.227
377.853
377.353
376.66
375.637
374.255
373.353
374.302
376.522
381.268
397.37
325.308
343.021
349.897
354.582
359.55
365.159
370.481
374.4
376.823
378.215
379.008
379.464
379.724
379.866
379.932
379.946
379.921
379.866
379.785
379.679
379.548
379.389
379.193
378.947
378.629
378.21
377.662
376.96
376.103
375.415
375.871
378.103
380.903
385.791
400.516
325.3
343.078
349.964
354.656
359.652
365.353
370.857
374.97
377.51
378.94
379.725
380.153
380.378
380.482
380.511
380.491
380.436
380.356
380.253
380.13
379.984
379.81
379.595
379.318
378.946
378.446
377.811
377.085
376.448
376.588
378.544
381.889
385.129
390.226
403.516
325.368
343.233
350.106
354.738
359.62
365.231
370.825
375.202
377.996
379.577
380.421
380.855
381.059
381.13
381.122
381.067
380.983
380.877
380.751
380.604
380.438
380.245
380.005
379.68
379.229
378.648
378.022
377.544
377.634
379.077
382.238
385.583
388.894
394.312
405.701
324.987
343.077
350.091
354.775
359.653
365.193
370.72
375.199
378.219
380
380.971
381.469
381.698
381.77
381.75
381.677
381.573
381.447
381.299
381.134
380.953
380.743
380.471
380.086
379.573
379.031
378.688
378.85
379.932
382.344
385.683
388.566
391.704
397.132
406.732
325.042
343.514
350.763
355.629
360.707
366.322
371.593
375.747
378.653
380.481
381.535
382.102
382.376
382.472
382.459
382.381
382.266
382.125
381.961
381.782
381.59
381.372
381.084
380.682
380.181
379.766
379.762
380.512
382.293
385.025
387.927
390.414
393.34
398.416
406.929
325.575
344.281
351.675
356.785
362.341
368.445
373.665
377.298
379.692
381.239
382.193
382.75
383.048
383.176
383.191
383.13
383.02
382.877
382.708
382.521
382.321
382.098
381.818
381.452
381.023
380.726
380.914
381.883
383.804
386.446
389.004
391.257
393.966
398.63
406.766
326.323
344.988
352.353
357.597
363.536
370.17
375.646
379.077
381.051
382.24
382.985
383.448
383.718
383.855
383.895
383.863
383.775
383.646
383.488
383.307
383.107
382.886
382.63
382.321
381.974
381.743
381.988
382.998
384.726
386.933
389.155
391.26
393.817
398.223
406.438
326.389
344.918
352.212
357.44
363.44
370.351
376.33
380.123
382.153
383.228
383.835
384.196
384.411
384.526
384.568
384.553
384.491
384.388
384.25
384.084
383.894
383.682
383.447
383.183
382.893
382.658
382.769
383.646
385.298
387.23
389.138
391.059
393.432
397.537
405.872
325.794
344.393
351.697
356.764
362.383
369.023
375.356
379.845
382.422
383.775
384.485
384.868
385.075
385.181
385.221
385.214
385.169
385.091
384.98
384.84
384.673
384.481
384.266
384.028
383.769
383.513
383.403
383.821
385.15
387.078
388.973
390.794
392.96
396.709
405.154
325.345
344.045
351.408
356.384
361.719
368.042
374.429
379.346
382.404
384.097
384.997
385.472
385.719
385.837
385.88
385.874
385.835
385.768
385.675
385.558
385.415
385.248
385.057
384.843
384.608
384.358
384.138
384.138
384.789
386.348
388.326
390.262
392.358
395.853
404.522
325.141
343.836
351.185
356.083
361.237
367.372
373.822
379.042
382.428
384.368
385.427
385.998
386.3
386.45
386.51
386.515
386.482
386.424
386.343
386.241
386.116
385.968
385.795
385.596
385.369
385.115
384.845
384.63
384.75
385.716
387.589
389.766
392
395.516
404.508
324.722
343.276
350.563
355.349
360.284
366.204
372.814
378.569
382.47
384.721
385.932
386.572
386.905
387.07
387.136
387.143
387.114
387.059
386.984
386.891
386.779
386.647
386.492
386.31
386.096
385.846
385.567
385.322
385.36
386.212
388.109
390.394
392.74
396.444
405.5
323.937
342.377
349.67
354.353
358.998
364.496
370.971
377.208
381.867
384.715
386.268
387.075
387.485
387.68
387.757
387.766
387.734
387.677
387.601
387.509
387.4
387.273
387.125
386.948
386.736
386.484
386.217
386.061
386.342
387.503
389.526
391.718
394.048
397.896
406.621
323.231
341.592
348.965
353.648
358.182
363.442
369.664
375.965
381.091
384.49
386.44
387.475
388.001
388.254
388.358
388.377
388.347
388.289
388.211
388.118
388.01
387.886
387.743
387.579
387.391
387.196
387.057
387.134
387.741
389.144
391.089
393.072
395.361
399.351
407.524
322.536
340.899
348.431
353.177
357.69
362.856
368.919
375.136
380.456
384.234
386.528
387.788
388.444
388.767
388.908
388.947
388.926
388.869
388.789
388.692
388.579
388.452
388.312
388.163
388.025
387.963
388.093
388.542
389.467
390.923
392.642
394.42
396.651
400.643
408.09
321.865
340.596
348.523
353.497
358.161
363.4
369.316
375.192
380.326
384.2
386.695
388.119
388.877
389.261
389.438
389.497
389.488
389.436
389.357
389.256
389.138
389.006
388.864
388.722
388.618
388.658
389.023
389.834
391.073
392.595
394.187
395.836
397.959
401.711
408.377
321.923
341.476
349.88
355.205
360.295
365.995
371.956
377.212
381.521
384.863
387.161
388.554
389.33
389.74
389.94
390.017
390.021
389.978
389.901
389.8
389.679
389.544
389.402
389.266
389.178
389.247
389.691
390.675
392.088
393.665
395.225
396.82
398.846
402.345
408.515
323.317
343.682
352.264
357.858
363.501
369.894
376.094
380.852
384.175
386.552
388.213
389.28
389.915
390.271
390.456
390.534
390.543
390.505
390.432
390.33
390.206
390.067
389.923
389.793
389.713
389.783
390.212
391.217
392.675
394.226
395.729
397.27
399.23
402.597
408.567
325.434
346.265
354.833
360.649
366.825
373.633
379.669
383.953
386.641
388.33
389.435
390.151
390.597
390.861
391.005
391.067
391.071
391.032
390.956
390.85
390.718
390.57
390.419
390.285
390.206
390.27
390.67
391.664
393.213
394.822
396.281
397.744
399.62
402.861
408.589
327.711
348.782
357.374
363.481
370.205
377.11
382.535
386.148
388.349
389.658
390.461
390.967
391.284
391.476
391.581
391.623
391.618
391.574
391.494
391.381
391.24
391.078
390.913
390.765
390.673
390.707
391.029
391.904
393.458
395.252
396.813
398.256
400.016
403.015
408.459
329.996
351.111
359.761
366.211
373.499
380.345
385.036
387.904
389.635
390.67
391.299
391.689
391.932
392.079
392.157
392.185
392.173
392.124
392.041
391.922
391.769
391.591
391.403
391.23
391.105
391.083
391.278
391.909
393.212
395.031
396.792
398.33
400.036
402.835
408.231
332.076
353.114
361.883
368.744
376.631
383.424
387.446
389.587
390.825
391.584
392.063
392.367
392.56
392.675
392.736
392.755
392.737
392.687
392.602
392.482
392.324
392.135
391.929
391.733
391.578
391.51
391.605
392.02
392.994
394.606
396.441
398.079
399.792
402.534
408.121
333.573
354.609
363.503
370.689
378.995
385.817
389.474
391.129
391.973
392.48
392.811
393.032
393.176
393.265
393.311
393.321
393.301
393.25
393.167
393.049
392.891
392.697
392.481
392.27
392.102
392.016
392.076
392.399
393.186
394.579
396.309
397.924
399.62
402.367
408.169
334.174
355.334
364.247
371.439
379.761
386.816
390.648
392.264
392.972
393.344
393.571
393.719
393.815
393.873
393.9
393.9
393.875
393.824
393.744
393.632
393.482
393.293
393.08
392.873
392.713
392.645
392.729
393.065
393.808
395.054
396.589
398.078
399.718
402.466
408.335
334.088
355.389
364.218
371.128
379.111
386.539
391.02
392.96
393.748
394.105
394.292
394.399
394.461
394.491
394.499
394.486
394.453
394.399
394.322
394.218
394.081
393.91
393.713
393.522
393.385
393.356
393.494
393.883
394.629
395.76
397.097
398.444
400.017
402.736
408.52
333.836
355.23
363.964
370.52
377.929
385.534
390.897
393.434
394.431
394.83
395.004
395.085
395.119
395.126
395.113
395.085
395.041
394.981
394.903
394.804
394.681
394.532
394.365
394.206
394.105
394.121
394.314
394.751
395.489
396.511
397.686
398.921
400.434
403.1
408.713
333.491
354.936
363.553
369.717
376.363
383.669
389.929
393.483
394.959
395.508
395.712
395.783
395.797
395.781
395.747
395.701
395.641
395.569
395.484
395.383
395.266
395.135
394.996
394.874
394.818
394.885
395.129
395.597
396.313
397.244
398.306
399.466
400.935
403.541
408.93
332.855
354.259
362.756
368.574
374.477
381.055
387.755
392.673
395.114
396.057
396.382
396.479
396.487
396.455
396.403
396.338
396.262
396.174
396.076
395.967
395.848
395.723
395.602
395.51
395.496
395.62
395.927
396.434
397.139
398.007
398.996
400.103
401.53
404.054
409.162
331.913
353.148
361.575
367.249
372.76
378.63
384.97
390.827
394.614
396.338
396.962
397.15
397.177
397.14
397.075
396.992
396.897
396.792
396.676
396.551
396.421
396.29
396.17
396.087
396.091
396.252
396.616
397.178
397.903
398.754
399.707
400.781
402.167
404.592
409.39
330.728
351.593
359.921
365.57
371.083
376.781
382.645
388.49
393.332
396.161
397.361
397.761
397.851
397.828
397.757
397.663
397.552
397.429
397.293
397.149
397
396.854
396.723
396.634
396.634
396.803
397.203
397.823
398.594
399.459
400.403
401.455
402.8
405.124
409.614
329.007
349.226
357.379
362.949
368.537
374.496
380.493
386.176
391.375
395.292
397.406
398.24
398.482
398.502
398.439
398.339
398.218
398.079
397.925
397.758
397.586
397.417
397.266
397.157
397.137
397.289
397.698
398.366
399.194
400.09
401.036
402.068
403.373
405.596
409.802
326.644
346.227
354.374
359.862
365.32
371.366
377.751
383.703
388.969
393.523
396.75
398.394
398.996
399.136
399.108
399.016
398.891
398.742
398.574
398.388
398.192
397.997
397.817
397.677
397.621
397.729
398.108
398.799
399.693
400.647
401.615
402.636
403.897
406.009
409.949
324.586
344.252
352.845
358.477
363.778
369.536
375.874
381.998
387.215
391.66
395.43
398.002
399.244
399.659
399.724
399.662
399.547
399.4
399.225
399.028
398.813
398.593
398.383
398.207
398.104
398.148
398.452
399.104
400.031
401.05
402.057
403.08
404.31
406.338
410.084
324.429
345.239
354.557
360.557
365.904
371.323
377.118
382.848
387.699
391.54
394.794
397.523
399.278
400.047
400.26
400.252
400.161
400.026
399.857
399.658
399.436
399.202
398.972
398.771
398.633
398.625
398.853
399.428
400.328
401.366
402.393
403.413
404.62
406.6
410.219
327.12
349.351
359.131
365.457
370.992
376.27
381.469
386.361
390.438
393.508
395.895
397.943
399.555
400.449
400.761
400.795
400.723
400.601
400.441
400.247
400.025
399.786
399.547
399.334
399.18
399.145
399.328
399.837
400.68
401.689
402.698
403.696
404.881
406.835
410.351
332.224
354.984
364.679
371.099
376.723
381.904
386.67
390.786
393.992
396.288
397.954
399.28
400.359
401.046
401.314
401.339
401.265
401.143
400.987
400.796
400.575
400.335
400.097
399.884
399.732
399.697
399.868
400.344
401.138
402.102
403.074
404.04
405.194
407.099
410.476
337.608
360.035
369.365
375.658
381.105
385.995
390.391
394.104
396.869
398.713
399.93
400.789
401.412
401.791
401.919
401.89
401.791
401.656
401.491
401.294
401.068
400.826
400.587
400.377
400.23
400.201
400.372
400.833
401.592
402.513
403.445
404.375
405.493
407.354
410.621
340.923
363.171
372.234
378.294
383.381
387.819
391.849
395.479
398.373
400.295
401.431
402.082
402.432
402.567
402.548
402.447
402.311
402.154
401.973
401.765
401.531
401.286
401.05
400.849
400.719
400.71
400.899
401.36
402.091
402.962
403.848
404.743
405.847
407.708
410.872
342.377
364.816
373.882
379.846
384.671
388.66
392.172
395.521
398.61
400.947
402.343
403.034
403.286
403.282
403.154
402.987
402.811
402.628
402.429
402.207
401.965
401.72
401.495
401.319
401.228
401.271
401.512
402.001
402.711
403.529
404.364
405.23
406.336
408.224
411.194
343.979
366.589
375.841
381.993
386.865
390.564
393.417
395.942
398.531
400.991
402.736
403.639
403.941
403.904
403.724
403.513
403.307
403.102
402.887
402.654
402.411
402.174
401.974
401.844
401.82
401.947
402.271
402.807
403.505
404.273
405.061
405.902
407.007
408.878
411.509
346.646
369.223
378.71
385.316
390.542
394.122
396.376
397.935
399.405
401.164
402.871
403.955
404.383
404.399
404.229
404.009
403.788
403.57
403.347
403.112
402.875
402.657
402.492
402.416
402.466
402.677
403.075
403.644
404.324
405.048
405.793
406.601
407.676
409.456
411.724
349.354
371.887
381.76
389.159
394.975
398.434
400.152
400.977
401.501
402.198
403.267
404.233
404.719
404.805
404.681
404.481
404.264
404.044
403.82
403.592
403.37
403.178
403.052
403.028
403.139
403.41
403.845
404.415
405.063
405.742
406.445
407.215
408.24
409.899
411.867
349.862
372.615
383.274
392.006
398.691
402.075
403.394
403.781
403.812
403.85
404.187
404.721
405.081
405.171
405.084
404.915
404.715
404.504
404.288
404.071
403.869
403.706
403.619
403.642
403.803
404.113
404.563
405.117
405.731
406.372
407.039
407.77
408.731
410.246
411.953
345.736
368.476
379.845
390.149
398.632
403.093
404.931
405.507
405.531
405.409
405.391
405.508
405.609
405.604
405.503
405.343
405.154
404.952
404.746
404.543
404.36
404.221
404.162
404.219
404.414
404.747
405.201
405.738
406.322
406.931
407.563
408.249
409.131
410.478
411.973
335.975
356.889
367.304
377.534
388.822
397.3
402.444
405.114
406.199
406.465
406.442
406.363
406.275
406.157
406.002
405.817
405.615
405.408
405.203
405.006
404.833
404.704
404.652
404.71
404.901
405.224
405.655
406.159
406.705
407.274
407.862
408.494
409.293
410.508
411.941
324.455
342.1
350.699
358.321
368.48
379.47
389.42
397.724
403.436
406.209
407.133
407.268
407.129
406.906
406.66
406.407
406.159
405.921
405.698
405.495
405.32
405.19
405.13
405.169
405.329
405.611
405.993
406.447
406.943
407.465
408.011
408.599
409.344
410.501
411.952
318.815
338.719
349.69
357.126
362.828
366.856
370.833
377.306
387.976
398.41
404.477
406.994
407.766
407.803
407.551
407.207
406.858
406.538
406.257
406.015
405.816
405.67
405.594
405.612
405.744
405.991
406.334
406.745
407.201
407.687
408.201
408.761
409.474
410.594
412.021
325.063
351
366.364
379.443
389.562
390.216
384.569
377.455
377.38
387.028
397.668
404.056
406.803
407.813
408.07
407.953
407.644
407.27
406.912
406.605
406.356
406.172
406.065
406.056
406.16
406.379
406.694
407.077
407.506
407.967
408.459
408.999
409.69
410.776
412.126
335.578
359.371
376.272
396.58
412.539
413.648
406.412
397.996
395.246
400.201
404.828
406.88
407.82
408.282
408.461
408.417
408.189
407.846
407.477
407.143
406.869
406.665
406.542
406.516
406.601
406.796
407.084
407.44
407.842
408.279
408.75
409.272
409.945
411.001
412.255
333.358
355.994
373.861
395.373
407.273
410.106
410.113
409.924
409.336
408.892
409.039
409.282
409.416
409.427
409.322
409.1
408.773
408.379
407.982
407.632
407.353
407.15
407.029
407.002
407.076
407.25
407.511
407.837
408.21
408.622
409.071
409.576
410.24
411.279
412.415
325.326
349.396
360.5
369.555
382.034
395.191
405.819
410.53
411.578
411.483
411.219
411.008
410.82
410.609
410.346
410.008
409.587
409.108
408.634
408.229
407.919
407.701
407.569
407.529
407.584
407.733
407.963
408.258
408.604
408.992
409.421
409.911
410.565
411.585
412.584
329.687
355.869
368.519
375.67
377.137
377.215
386.14
399.737
408.385
411.668
412.502
412.53
412.307
411.999
411.645
411.236
410.748
410.181
409.583
409.044
408.635
408.364
408.209
408.152
408.185
408.307
408.507