/*--------------------------------*- C++ -*----------------------------------*\
| =========                 |                                                 |
| \\      /  F ield         | OpenFOAM: The Open Source CFD Toolbox           |
|  \\    /   O peration     | Version:  v2006                                 |
|   \\  /    A nd           | Website:  www.openfoam.com                      |
|    \\/     M anipulation  |                                                 |
\*---------------------------------------------------------------------------*/
FoamFile
{
    version     2.0;
    format      ascii;
    class       volVectorField;
    location    "85";
    object      U;
}
// * * * * * * * * * * * * * * * * * * * * * * * * * * * * * * * * * * * * * //

dimensions      [0 1 -1 0 0 0 0];


internalField   nonuniform List<vector> 
78750
(
(-0.420828 -0.359568 -0.1024)
(-0.357364 -0.353043 -0.100521)
(-0.346452 -0.32869 -0.0946018)
(-0.274511 -0.297398 -0.093083)
(-0.192818 -0.251725 -0.104822)
(-0.205221 -0.23504 -0.107466)
(-0.154633 -0.211737 -0.114616)
(-0.137492 -0.199234 -0.117355)
(-0.109505 -0.182277 -0.120561)
(-0.0874136 -0.167497 -0.122921)
(-0.0677854 -0.152907 -0.124631)
(-0.0499613 -0.138503 -0.125797)
(-0.0341732 -0.1242 -0.126443)
(-0.0201924 -0.109956 -0.126561)
(-0.00798032 -0.0957937 -0.126064)
(0.00240345 -0.0817177 -0.124737)
(0.0109989 -0.0674936 -0.122035)
(0.0180669 -0.0521845 -0.1164)
(0.0240919 -0.0332637 -0.102699)
(0.0279278 -0.0102798 -0.0696296)
(0.027608 0.00487924 -0.0291488)
(0.0261985 0.00780456 -0.00747135)
(0.0257691 0.00511434 -0.00221672)
(0.0261423 -0.00140876 -0.0108615)
(0.0268519 -0.0109744 -0.035526)
(0.0282319 -0.0184217 -0.0643066)
(0.0301692 -0.0222136 -0.0882773)
(0.0321416 -0.0234079 -0.107512)
(0.0337251 -0.0228959 -0.124151)
(0.0345541 -0.021171 -0.140063)
(0.0342529 -0.0186063 -0.156858)
(0.0323293 -0.015627 -0.176051)
(0.0284924 -0.0124208 -0.198197)
(0.0247183 -0.00398687 -0.21999)
(0.0114498 0.0485672 -0.168387)
(0.07395 -0.252141 0.0520928)
(-0.0566796 -0.276034 0.0607322)
(0.00043643 -0.339981 0.0610798)
(-0.0410355 -0.387125 0.0509599)
(-0.0602699 -0.344262 0.0248092)
(-0.0650592 -0.291283 -0.000401525)
(-0.0801249 -0.255386 -0.0189691)
(-0.0852964 -0.232712 -0.0306673)
(-0.0923482 -0.2141 -0.0397092)
(-0.0975084 -0.198093 -0.0467738)
(-0.101521 -0.184416 -0.0521239)
(-0.104094 -0.172327 -0.0559953)
(-0.105127 -0.16121 -0.0586866)
(-0.104607 -0.15075 -0.0605297)
(-0.102571 -0.140964 -0.0617829)
(-0.099088 -0.132144 -0.0626499)
(-0.0942346 -0.124708 -0.0632988)
(-0.0879876 -0.119063 -0.0638888)
(-0.0801063 -0.115412 -0.0645592)
(-0.070432 -0.113394 -0.0652295)
(-0.0595124 -0.111732 -0.0653635)
(-0.0481302 -0.108987 -0.0648976)
(-0.0369495 -0.104956 -0.0642498)
(-0.0263672 -0.0993705 -0.0634861)
(-0.0164872 -0.0917233 -0.0625952)
(-0.00733512 -0.0822913 -0.0621463)
(0.00120994 -0.0714153 -0.0627094)
(0.00921477 -0.0590536 -0.0646434)
(0.0165842 -0.0447977 -0.0682811)
(0.0230524 -0.027835 -0.0741588)
(0.0281843 -0.00658904 -0.0834706)
(0.030954 0.0217285 -0.0989194)
(0.029112 0.0590351 -0.123715)
(0.0212948 0.105833 -0.150215)
(0.00513295 0.185639 -0.125752)
(-0.0257967 -0.178626 -0.041349)
(-0.0183265 -0.206064 -0.0572345)
(-0.0278251 -0.202984 -0.063424)
(-0.0310538 -0.188123 -0.0593637)
(-0.0327387 -0.195786 -0.0464927)
(-0.031942 -0.206052 -0.0309286)
(-0.0291086 -0.204993 -0.0147067)
(-0.0279322 -0.194143 0.000882554)
(-0.0284551 -0.182275 0.013394)
(-0.030777 -0.174111 0.0219289)
(-0.0342829 -0.169399 0.0271645)
(-0.0384475 -0.166819 0.0299489)
(-0.0426206 -0.165387 0.030977)
(-0.046152 -0.164451 0.0308436)
(-0.0486469 -0.163628 0.0300474)
(-0.0499913 -0.162697 0.0289601)
(-0.0502711 -0.161537 0.0278198)
(-0.0497185 -0.160145 0.0267578)
(-0.0485541 -0.158567 0.0258024)
(-0.046924 -0.156926 0.0249464)
(-0.0448735 -0.155332 0.0241922)
(-0.0423979 -0.153763 0.0235783)
(-0.0394992 -0.152091 0.0231378)
(-0.0361944 -0.150162 0.0228756)
(-0.0324892 -0.147746 0.0227929)
(-0.0283737 -0.144466 0.0228936)
(-0.0238451 -0.139792 0.0231313)
(-0.0189107 -0.132992 0.0233612)
(-0.0136076 -0.122966 0.0232794)
(-0.00796049 -0.107691 0.0222118)
(-0.00184806 -0.082706 0.0184942)
(0.00495392 -0.0370081 0.00729382)
(0.0114641 0.0529854 -0.0243533)
(0.013852 0.181095 -0.0795368)
(0.00416483 0.269379 -0.0810772)
(0.00216979 -0.0730451 0.000190032)
(0.00464405 -0.239752 -0.0498197)
(0.0207303 -0.318685 -0.0815041)
(0.03448 -0.357772 -0.0992114)
(0.0458897 -0.36571 -0.110839)
(0.0539639 -0.354717 -0.119)
(0.058599 -0.331101 -0.12318)
(0.0596756 -0.299924 -0.121822)
(0.0581095 -0.264725 -0.114353)
(0.0550816 -0.228657 -0.101945)
(0.0513818 -0.196123 -0.0877852)
(0.0475956 -0.171067 -0.0755298)
(0.0440953 -0.154248 -0.0669439)
(0.0409748 -0.143645 -0.0616327)
(0.0381344 -0.136945 -0.0585212)
(0.0354869 -0.132666 -0.0568064)
(0.0329801 -0.129997 -0.0559966)
(0.0306109 -0.128437 -0.0557636)
(0.0283931 -0.127629 -0.0558719)
(0.0263299 -0.127281 -0.0561622)
(0.0244185 -0.127155 -0.0565246)
(0.0226526 -0.127063 -0.0568542)
(0.0210235 -0.126869 -0.0570037)
(0.0195233 -0.126479 -0.0567616)
(0.0181413 -0.12584 -0.055858)
(0.0168616 -0.12493 -0.053987)
(0.0156583 -0.12371 -0.0508471)
(0.0144866 -0.122038 -0.0461854)
(0.0132909 -0.11953 -0.0398543)
(0.0120865 -0.115292 -0.0318498)
(0.011014 -0.107153 -0.0220155)
(0.010038 -0.0877981 -0.00931334)
(0.00918878 -0.0249386 0.00240085)
(0.00997954 0.144552 -0.0200107)
(0.00423462 0.28981 -0.033735)
(0.00426511 -0.17726 -0.0284942)
(0.016206 -0.310546 -0.0789221)
(0.019268 -0.333117 -0.0951717)
(0.020651 -0.32468 -0.101035)
(0.0206089 -0.300151 -0.103455)
(0.0185362 -0.25707 -0.102564)
(0.0138741 -0.208035 -0.0971516)
(0.00740768 -0.166741 -0.0886801)
(0.000861133 -0.138673 -0.0809843)
(-0.00418994 -0.122158 -0.076304)
(-0.00728019 -0.1121 -0.0739186)
(-0.0088054 -0.104405 -0.0724922)
(-0.0092582 -0.0974215 -0.0713774)
(-0.00898597 -0.0910435 -0.0704802)
(-0.00831811 -0.0855013 -0.0698484)
(-0.00747445 -0.0808628 -0.069473)
(-0.00656476 -0.0771072 -0.0693208)
(-0.00564259 -0.0741468 -0.0693544)
(-0.00472959 -0.0718766 -0.0695502)
(-0.00382897 -0.0702332 -0.0699087)
(-0.00293412 -0.0691505 -0.0704389)
(-0.00202269 -0.0685239 -0.0711399)
(-0.00106583 -0.0682283 -0.071993)
(-3.98383e-05 -0.0681192 -0.0729507)
(0.00106912 -0.0680138 -0.0739241)
(0.00225568 -0.0676747 -0.0747614)
(0.00348333 -0.0667841 -0.0752285)
(0.00467045 -0.0649129 -0.0749911)
(0.00567274 -0.0614637 -0.0736011)
(0.00628737 -0.0555001 -0.0704691)
(0.0063139 -0.0450865 -0.06465)
(0.00547968 -0.0242874 -0.053764)
(0.0029578 0.0303846 -0.0329452)
(0.00106595 0.176767 -0.0151707)
(0.000547478 0.319093 -0.0147854)
(0.00190792 -0.203569 -0.0411876)
(-0.00286791 -0.319438 -0.0746026)
(-0.00584713 -0.343986 -0.0833443)
(-0.00754696 -0.339497 -0.0867351)
(-0.00827733 -0.311624 -0.0894488)
(-0.00810742 -0.258912 -0.0910764)
(-0.00717054 -0.20332 -0.0896648)
(-0.00623126 -0.162509 -0.0859117)
(-0.00550639 -0.138229 -0.0820446)
(-0.00496052 -0.123151 -0.078883)
(-0.00448796 -0.111862 -0.076195)
(-0.00401566 -0.102199 -0.0737525)
(-0.00355199 -0.0935858 -0.0715036)
(-0.00310389 -0.0860046 -0.0695038)
(-0.00269201 -0.0795625 -0.0678422)
(-0.00229882 -0.0742693 -0.0665651)
(-0.00189264 -0.0700484 -0.065674)
(-0.00144088 -0.0667721 -0.0651456)
(-0.000914526 -0.0642798 -0.0649402)
(-0.000295435 -0.0623978 -0.0650085)
(0.000421207 -0.0609457 -0.0652956)
(0.00122389 -0.0597348 -0.0657395)
(0.00209138 -0.0585456 -0.0662699)
(0.00301062 -0.0571463 -0.066815)
(0.00396759 -0.0553339 -0.0673018)
(0.00494296 -0.0528938 -0.0676325)
(0.0059184 -0.049553 -0.0676676)
(0.00686361 -0.0449503 -0.0672093)
(0.00772571 -0.0385519 -0.0659608)
(0.00841834 -0.0294418 -0.0634297)
(0.00881748 -0.0156731 -0.0586461)
(0.00874283 0.00808913 -0.0492743)
(0.00764768 0.0600814 -0.0304562)
(0.0047202 0.184476 -0.00558228)
(0.0017994 0.318826 0.00144917)
(0.00304367 -0.196867 -0.00933774)
(0.00112946 -0.310128 -0.0300952)
(-0.00576403 -0.347333 -0.0440052)
(-0.0125439 -0.347739 -0.0508368)
(-0.0187903 -0.326536 -0.0563856)
(-0.0231016 -0.28551 -0.0620648)
(-0.0234895 -0.234254 -0.0662825)
(-0.0222629 -0.183749 -0.0682661)
(-0.0209644 -0.142386 -0.068677)
(-0.0201703 -0.112959 -0.0688635)
(-0.0197834 -0.0928356 -0.0694625)
(-0.0195301 -0.0777421 -0.0704093)
(-0.0191732 -0.0645336 -0.0715061)
(-0.0186179 -0.0525121 -0.0726701)
(-0.0178763 -0.042139 -0.0738945)
(-0.0169944 -0.0336098 -0.0751807)
(-0.0160266 -0.0269405 -0.0765352)
(-0.015012 -0.0219924 -0.0779683)
(-0.0139578 -0.0185116 -0.0794946)
(-0.0128542 -0.0161759 -0.0811239)
(-0.0116892 -0.0146228 -0.0828525)
(-0.0104435 -0.0135013 -0.084671)
(-0.00908069 -0.0125788 -0.0865845)
(-0.00758149 -0.0117102 -0.0885755)
(-0.00594264 -0.0107158 -0.0905618)
(-0.00415066 -0.00933093 -0.0924115)
(-0.00220741 -0.00722332 -0.0939352)
(-0.000142453 -0.00395044 -0.0948768)
(0.00195072 0.00110206 -0.094895)
(0.00386419 0.00889417 -0.0934925)
(0.00530969 0.0213878 -0.089706)
(0.00595487 0.0441269 -0.0808644)
(0.00496783 0.0956629 -0.0600131)
(0.00194297 0.211496 -0.0245375)
(-0.000508505 0.326062 -0.00180365)
(-0.000394436 -0.23396 -0.00219252)
(-0.0115506 -0.307236 -0.0164215)
(-0.0221233 -0.318142 -0.0163511)
(-0.03245 -0.313083 -0.0166983)
(-0.0414967 -0.296541 -0.0191168)
(-0.0479223 -0.273145 -0.0235037)
(-0.0516009 -0.243483 -0.0298223)
(-0.0527085 -0.208899 -0.0370833)
(-0.0520972 -0.174105 -0.0436751)
(-0.0507596 -0.142806 -0.0490787)
(-0.0493013 -0.116409 -0.0536183)
(-0.047965 -0.0948108 -0.057595)
(-0.0467034 -0.0771049 -0.06117)
(-0.0454294 -0.0622241 -0.0644414)
(-0.0440326 -0.0491972 -0.0675493)
(-0.0424025 -0.0374723 -0.0706099)
(-0.0404989 -0.0271801 -0.0736399)
(-0.0383534 -0.0185446 -0.0765999)
(-0.0359927 -0.0114852 -0.0794841)
(-0.0334641 -0.00578354 -0.0822934)
(-0.0308091 -0.00114718 -0.0850219)
(-0.028054 0.00275566 -0.0876522)
(-0.0252303 0.00627532 -0.0901483)
(-0.0223648 0.00978598 -0.0924705)
(-0.0194071 0.0136584 -0.0946032)
(-0.0163324 0.0181916 -0.0964748)
(-0.0131723 0.0237211 -0.0978979)
(-0.0099087 0.0308049 -0.098601)
(-0.00655976 0.0403393 -0.0981705)
(-0.00319701 0.0539432 -0.0958813)
(4.34122e-05 0.0750022 -0.0902099)
(0.00272982 0.111034 -0.0777982)
(0.00343028 0.17614 -0.0535787)
(0.00112557 0.274213 -0.0215775)
(-0.00125706 0.341232 0.000745266)
(-0.00737969 -0.165931 -0.00621454)
(-0.0247376 -0.245604 -0.0195243)
(-0.0382578 -0.286961 -0.0121288)
(-0.0504522 -0.305962 -0.00226463)
(-0.0599212 -0.308781 0.00750304)
(-0.0673256 -0.298649 0.0143063)
(-0.0724238 -0.277492 0.0169342)
(-0.0747649 -0.248833 0.0152742)
(-0.0744429 -0.217187 0.0102366)
(-0.07225 -0.18505 0.00284469)
(-0.0688238 -0.153849 -0.00624699)
(-0.0647594 -0.124823 -0.0163682)
(-0.0605092 -0.0987506 -0.0268796)
(-0.0563471 -0.0759675 -0.037226)
(-0.0523998 -0.0564913 -0.0469796)
(-0.0488042 -0.0401071 -0.0559154)
(-0.0455712 -0.0263893 -0.0638243)
(-0.0426271 -0.0148725 -0.0707125)
(-0.0398745 -0.00504918 -0.0766967)
(-0.0371944 0.0035438 -0.0819343)
(-0.0344693 0.0112572 -0.086572)
(-0.0316152 0.0183155 -0.0907244)
(-0.0285923 0.0248599 -0.0944693)
(-0.025403 0.0310162 -0.0978518)
(-0.0220818 0.0369431 -0.100882)
(-0.018691 0.0428442 -0.103526)
(-0.0153014 0.0490178 -0.105696)
(-0.0119978 0.0559032 -0.107229)
(-0.00889585 0.0642325 -0.107843)
(-0.00612829 0.0754719 -0.106994)
(-0.00374259 0.0932135 -0.103343)
(-0.00170322 0.127351 -0.0929896)
(-5.59642e-05 0.199817 -0.0673775)
(0.000541508 0.306902 -0.0282889)
(-0.000104603 0.346256 0.00205307)
(-0.00554075 -0.109222 -0.0199488)
(-0.0213233 -0.194952 -0.079346)
(-0.0354838 -0.229116 -0.0991906)
(-0.0497253 -0.246943 -0.0930839)
(-0.0639389 -0.260515 -0.0740299)
(-0.0760433 -0.27014 -0.0514442)
(-0.0850865 -0.273522 -0.0300376)
(-0.0911083 -0.269124 -0.0112661)
(-0.0940867 -0.25695 0.00403382)
(-0.0940894 -0.238254 0.0153958)
(-0.0913174 -0.214701 0.0224854)
(-0.0862111 -0.187961 0.0252783)
(-0.0793428 -0.159448 0.0240336)
(-0.0712845 -0.130338 0.0191338)
(-0.062562 -0.101656 0.0110552)
(-0.0536644 -0.0743091 0.000360973)
(-0.045025 -0.0491432 -0.0122668)
(-0.0371371 -0.0269149 -0.0259721)
(-0.0303414 -0.00808269 -0.0397269)
(-0.0248369 0.00719609 -0.0525322)
(-0.0206711 0.0192955 -0.0636105)
(-0.0176931 0.0290723 -0.0726017)
(-0.0155841 0.0376429 -0.0795569)
(-0.0139376 0.0460713 -0.0847446)
(-0.0123709 0.0551643 -0.0885048)
(-0.0106307 0.0654633 -0.0911341)
(-0.00863104 0.0774367 -0.0928088)
(-0.00641698 0.091706 -0.0935381)
(-0.00411925 0.10922 -0.0931213)
(-0.00197045 0.131331 -0.0910919)
(-0.000337854 0.159882 -0.0866838)
(0.000359226 0.198509 -0.0786982)
(-0.00037025 0.256723 -0.0644763)
(-0.00043723 0.333432 -0.0415813)
(-0.000332108 0.35417 -0.0113795)
(-0.00269999 -0.0538775 -0.0344798)
(-0.0109028 -0.096892 -0.0790575)
(-0.0206389 -0.135997 -0.103381)
(-0.0318434 -0.173791 -0.118763)
(-0.0429375 -0.204022 -0.125091)
(-0.054177 -0.227151 -0.12308)
(-0.0656469 -0.245093 -0.113911)
(-0.0764334 -0.258332 -0.0992578)
(-0.08557 -0.266517 -0.0810102)
(-0.0923646 -0.268967 -0.0607419)
(-0.0964057 -0.265223 -0.0398011)
(-0.0974601 -0.255413 -0.019507)
(-0.0955308 -0.240052 -0.000851141)
(-0.0907716 -0.219837 0.0154008)
(-0.0833774 -0.195452 0.0286388)
(-0.073585 -0.167311 0.038231)
(-0.0617833 -0.135699 0.0434154)
(-0.048704 -0.101352 0.0436689)
(-0.0351557 -0.0653758 0.0388007)
(-0.0220252 -0.0294129 0.0288672)
(-0.0102094 0.00467206 0.0143205)
(-0.000579685 0.0347094 -0.00405583)
(0.00608772 0.0583071 -0.0246359)
(0.00969439 0.0744158 -0.0447289)
(0.0109878 0.0846622 -0.0616794)
(0.0109765 0.0921599 -0.0742861)
(0.010466 0.0995759 -0.0827873)
(0.00990384 0.108762 -0.0879058)
(0.00946555 0.121557 -0.09007)
(0.00917055 0.140922 -0.0888986)
(0.00891587 0.172378 -0.0825488)
(0.00830201 0.224935 -0.0674166)
(0.00626631 0.305928 -0.0414085)
(0.00358897 0.380934 -0.0136805)
(0.00158661 0.375235 0.00941574)
(0.00292836 -0.0451949 0.00507049)
(0.0109603 -0.0836971 -0.0115242)
(0.0179828 -0.106705 -0.0282429)
(0.0234148 -0.122298 -0.0473799)
(0.0258249 -0.133933 -0.0682704)
(0.0251839 -0.144276 -0.0890089)
(0.0218431 -0.155459 -0.107723)
(0.0158622 -0.169025 -0.122979)
(0.00696796 -0.1857 -0.133222)
(-0.00492185 -0.204807 -0.13658)
(-0.0189904 -0.224089 -0.132535)
(-0.0337048 -0.241022 -0.122435)
(-0.0476229 -0.253857 -0.107772)
(-0.0596863 -0.261846 -0.0895015)
(-0.0688068 -0.265166 -0.0675)
(-0.0736968 -0.263372 -0.0415003)
(-0.0730907 -0.254015 -0.0139807)
(-0.0670288 -0.235687 0.0114865)
(-0.0566248 -0.207151 0.0329824)
(-0.0429443 -0.168651 0.0489146)
(-0.027226 -0.120336 0.0583459)
(-0.0110768 -0.0629721 0.0601386)
(0.00331095 -0.000437512 0.0527996)
(0.0134667 0.058004 0.0359458)
(0.0182766 0.102912 0.0126181)
(0.0188541 0.132846 -0.0119268)
(0.0173834 0.153406 -0.0338871)
(0.0154835 0.171115 -0.0520774)
(0.0138172 0.190407 -0.066767)
(0.0123109 0.215199 -0.0780157)
(0.0105717 0.251182 -0.0839047)
(0.00813581 0.306039 -0.078123)
(0.0052964 0.379233 -0.0547947)
(0.00358038 0.4338 -0.0301092)
(0.00145821 0.407938 -0.00550375)
(0.00327142 -0.144939 0.0161877)
(0.0110487 -0.215107 0.0202907)
(0.0174984 -0.235315 0.0225502)
(0.0242787 -0.239769 0.02471)
(0.0317292 -0.236027 0.0259535)
(0.039412 -0.226172 0.0254366)
(0.04693 -0.210828 0.022494)
(0.0539264 -0.189984 0.0164138)
(0.0599003 -0.164113 0.00633958)
(0.0641341 -0.136033 -0.00820555)
(0.0660468 -0.111244 -0.0266249)
(0.0654939 -0.0950089 -0.0482489)
(0.0623596 -0.0900765 -0.0737029)
(0.0564531 -0.0957148 -0.104582)
(0.045044 -0.117865 -0.13553)
(0.0239458 -0.163712 -0.142543)
(0.000382045 -0.212935 -0.119755)
(-0.0161005 -0.251502 -0.0849259)
(-0.0251443 -0.274295 -0.047738)
(-0.0281013 -0.278913 -0.0121084)
(-0.0246521 -0.263315 0.0204795)
(-0.0153953 -0.221313 0.0488981)
(-0.00265244 -0.147259 0.0690146)
(0.00859957 -0.0514003 0.0732544)
(0.0149069 0.0365857 0.0605917)
(0.0172017 0.0987287 0.0389055)
(0.0156865 0.133855 0.0168098)
(0.0129227 0.15252 0.000434771)
(0.0111766 0.169958 -0.011754)
(0.0115065 0.196455 -0.0237962)
(0.0138632 0.239763 -0.0376663)
(0.0159521 0.307182 -0.0499186)
(0.0120268 0.400798 -0.0462757)
(0.00612761 0.468177 -0.0261737)
(0.00216387 0.43092 -8.86307e-05)
(-0.00282394 -0.1831 0.0256549)
(-0.011994 -0.254589 0.0394532)
(-0.0190755 -0.278858 0.0404378)
(-0.0243238 -0.29533 0.0371875)
(-0.0278774 -0.308332 0.0317858)
(-0.0294986 -0.317611 0.0254551)
(-0.0293678 -0.322825 0.018831)
(-0.0275962 -0.323616 0.0120967)
(-0.0241304 -0.319494 0.0054315)
(-0.018962 -0.310093 -0.000780589)
(-0.0124333 -0.295377 -0.00612163)
(-0.00516723 -0.274829 -0.010494)
(0.00254899 -0.243937 -0.01477)
(0.0107926 -0.18646 -0.0237175)
(0.0180532 -0.0914302 -0.0500101)
(0.0213995 -0.022589 -0.0870083)
(0.0215171 -0.0245335 -0.116535)
(0.0173677 -0.0900969 -0.122281)
(0.00749108 -0.165574 -0.10143)
(-0.00694116 -0.224619 -0.0669871)
(-0.0190796 -0.263336 -0.0275596)
(-0.0255402 -0.27031 0.016487)
(-0.029236 -0.219428 0.0611948)
(-0.0299924 -0.103845 0.0864357)
(-0.0280804 0.0236485 0.0755804)
(-0.0260322 0.122533 0.04676)
(-0.0221892 0.190666 0.011366)
(-0.0183155 0.228175 -0.0235218)
(-0.0174119 0.236765 -0.0417804)
(-0.0201692 0.236582 -0.0401805)
(-0.0243946 0.268925 -0.0250046)
(-0.0236623 0.377596 -0.00792198)
(-0.0153987 0.513245 0.00517725)
(-0.00961625 0.552136 0.0121996)
(-0.00393127 0.480032 0.016779)
(-0.00620805 -0.0933736 0.0426443)
(-0.0108784 -0.144049 0.0711971)
(-0.0111186 -0.188028 0.0791774)
(-0.00827219 -0.225445 0.0793559)
(-0.00399595 -0.251184 0.0753849)
(-6.82571e-05 -0.266564 0.0691424)
(0.00292209 -0.274478 0.0608058)
(0.00472122 -0.276185 0.049915)
(0.00518433 -0.272445 0.0365874)
(0.0045289 -0.264997 0.0220131)
(0.00323314 -0.25628 0.00777498)
(0.00162377 -0.248498 -0.00482719)
(0.000240449 -0.242971 -0.0148663)
(3.85138e-05 -0.238771 -0.0220704)
(0.00392956 -0.230218 -0.0267901)
(0.0132516 -0.210805 -0.03108)
(0.0233908 -0.187064 -0.0349274)
(0.0288786 -0.156394 -0.0409576)
(0.0265289 -0.125652 -0.0517006)
(0.0195357 -0.111896 -0.0607632)
(0.00724362 -0.124816 -0.0589308)
(-0.00996459 -0.172198 -0.0227048)
(-0.0337599 -0.176451 0.0381794)
(-0.0656116 -0.101406 0.0928507)
(-0.0821157 -0.00489018 0.0974357)
(-0.0814685 0.0505367 0.0776935)
(-0.0684615 0.0912417 0.0624842)
(-0.0461844 0.13654 0.0489916)
(-0.018971 0.218621 0.0222171)
(0.00403659 0.336525 -0.04826)
(0.00728896 0.349167 -0.0889394)
(0.00235045 0.340539 -0.0735103)
(0.000698463 0.380076 -0.0382032)
(0.000919444 0.420793 -0.014725)
(0.000285999 0.395899 -0.00533404)
(-0.000654106 -0.116132 0.0596368)
(0.0139606 -0.24332 0.0908568)
(0.0314155 -0.32415 0.0926801)
(0.049872 -0.374403 0.0874529)
(0.0669267 -0.401579 0.0801256)
(0.0812463 -0.411603 0.071338)
(0.0924981 -0.409843 0.0607487)
(0.100626 -0.40059 0.0490527)
(0.105747 -0.387025 0.0376091)
(0.108204 -0.371226 0.0274723)
(0.108409 -0.354194 0.0190649)
(0.106689 -0.336099 0.0123808)
(0.103235 -0.316576 0.00720399)
(0.0982105 -0.295461 0.00319931)
(0.091735 -0.273755 -4.13516e-05)
(0.084304 -0.252851 -0.00271279)
(0.0771077 -0.232657 -0.00505111)
(0.0709387 -0.213773 -0.00689084)
(0.0659077 -0.195834 -0.00789786)
(0.0614348 -0.177529 -0.00812284)
(0.0565063 -0.15473 -0.00752941)
(0.0488966 -0.1102 -0.01054)
(0.0359092 -0.0280826 -0.0312931)
(0.021787 0.0396554 -0.064824)
(0.0193362 0.0399397 -0.0751522)
(0.0224615 0.00730498 -0.0719539)
(0.0284913 -0.082015 -0.0359409)
(0.0321607 -0.185817 0.0443506)
(0.0258675 -0.20596 0.14784)
(0.023138 -0.00743099 0.169449)
(0.0265773 0.289469 0.0450689)
(0.0132316 0.457687 -0.0700705)
(0.00154097 0.538408 -0.105163)
(-0.00338296 0.562426 -0.0889186)
(-0.00453815 0.462509 -0.0371501)
(0.0065534 -0.211217 0.0356892)
(0.0279367 -0.390698 0.0444309)
(0.0428288 -0.464292 0.040103)
(0.0530624 -0.486275 0.032416)
(0.0586774 -0.479833 0.0211066)
(0.0610491 -0.454965 0.00318697)
(0.0602395 -0.417999 -0.0222969)
(0.0567534 -0.376795 -0.0511759)
(0.0521056 -0.337164 -0.0781191)
(0.0474778 -0.301783 -0.10017)
(0.0433411 -0.271498 -0.116676)
(0.0397323 -0.2463 -0.12807)
(0.0365761 -0.225688 -0.135063)
(0.0337821 -0.208793 -0.138348)
(0.0312347 -0.194562 -0.138569)
(0.0287251 -0.1821 -0.136327)
(0.025999 -0.170698 -0.132141)
(0.0228434 -0.159552 -0.126453)
(0.0190709 -0.147958 -0.119439)
(0.0145533 -0.135468 -0.110737)
(0.00960435 -0.122358 -0.0998104)
(0.00572171 -0.109682 -0.0863632)
(0.00506275 -0.0967666 -0.0710285)
(0.00776373 -0.0812577 -0.0560078)
(0.0117113 -0.0658852 -0.0415228)
(0.0133514 -0.0513658 -0.0239425)
(0.0092616 -0.0224504 0.00376096)
(-0.00694004 0.062278 0.0475236)
(-0.0399044 0.16605 0.112358)
(-0.0648291 0.251142 0.169211)
(-0.0621824 0.403172 0.135938)
(-0.054394 0.503004 0.072662)
(-0.0418537 0.522943 0.0593125)
(-0.0240725 0.512642 0.050363)
(-0.00446364 0.383328 0.0483928)
(0.00598647 -0.350885 0.0520252)
(0.0084959 -0.488511 0.0752057)
(0.00475612 -0.496398 0.0806305)
(-0.000805717 -0.476866 0.0801689)
(-0.00811085 -0.433839 0.0699538)
(-0.0152754 -0.370511 0.0420323)
(-0.0212761 -0.30822 0.00176787)
(-0.0255367 -0.262464 -0.0355551)
(-0.0280678 -0.23367 -0.0617536)
(-0.0291454 -0.215891 -0.0778195)
(-0.0289369 -0.203634 -0.0875991)
(-0.0275707 -0.193717 -0.0939835)
(-0.0252516 -0.184571 -0.0985486)
(-0.0222964 -0.175474 -0.102109)
(-0.019052 -0.166123 -0.105115)
(-0.0158453 -0.156422 -0.107848)
(-0.012963 -0.146355 -0.110489)
(-0.0105845 -0.135855 -0.113173)
(-0.00884075 -0.124838 -0.115997)
(-0.00789445 -0.11335 -0.119003)
(-0.00791041 -0.101474 -0.122123)
(-0.00901929 -0.0888009 -0.125161)
(-0.0113615 -0.0744728 -0.127519)
(-0.0150238 -0.0579692 -0.127892)
(-0.0200733 -0.0387591 -0.124225)
(-0.0267735 -0.0160001 -0.113683)
(-0.0347072 0.0111608 -0.0912469)
(-0.041421 0.0443936 -0.0510743)
(-0.045709 0.0862961 0.00464777)
(-0.0476739 0.138212 0.0609553)
(-0.0439825 0.215388 0.0952464)
(-0.0345275 0.288677 0.0921155)
(-0.0205463 0.309015 0.077226)
(-0.00333562 0.298874 0.0884721)
(0.00412388 0.283828 0.085161)
(-0.00852817 -0.328575 0.0654748)
(-0.0202983 -0.412718 0.0779676)
(-0.026589 -0.42305 0.0783224)
(-0.0307544 -0.410761 0.0756997)
(-0.0314767 -0.377138 0.0687364)
(-0.0259354 -0.333981 0.0585505)
(-0.0165685 -0.293001 0.0483472)
(-0.00662561 -0.25433 0.0369737)
(0.00123686 -0.221041 0.0228332)
(0.00513375 -0.198223 0.0081106)
(0.00519859 -0.184819 -0.00460674)
(0.00315856 -0.176476 -0.014765)
(0.000462097 -0.169941 -0.0227423)
(-0.00214523 -0.163628 -0.0289757)
(-0.0042873 -0.156821 -0.0338965)
(-0.00587505 -0.149188 -0.0379193)
(-0.00694831 -0.14061 -0.041432)
(-0.00758715 -0.131083 -0.0448039)
(-0.00789051 -0.120638 -0.0483887)
(-0.00795651 -0.109256 -0.0525118)
(-0.00788767 -0.0967909 -0.0574785)
(-0.00774818 -0.0828625 -0.0636201)
(-0.00757763 -0.0667582 -0.0713742)
(-0.00739275 -0.0474867 -0.0810506)
(-0.00727886 -0.0241652 -0.0921902)
(-0.00740669 0.00359314 -0.102751)
(-0.00801372 0.0353226 -0.109109)
(-0.00919357 0.0696881 -0.106817)
(-0.0105736 0.105537 -0.0915005)
(-0.0113717 0.142744 -0.0604014)
(-0.00990558 0.182357 -0.0154777)
(-0.00514129 0.219278 0.0336597)
(0.00256281 0.234985 0.0822498)
(0.00670283 0.259336 0.147191)
(0.00378398 0.313991 0.111287)
(-0.00642594 -0.262918 0.0431045)
(-0.00235707 -0.450237 0.0348606)
(0.0017753 -0.505607 0.0320542)
(0.00836071 -0.527206 0.0349444)
(0.0165486 -0.535893 0.0435045)
(0.0256912 -0.52975 0.0570938)
(0.0356301 -0.500238 0.0728562)
(0.0457932 -0.439479 0.08561)
(0.0550577 -0.351312 0.0873784)
(0.061152 -0.260615 0.0745055)
(0.0626324 -0.191984 0.0535908)
(0.0606724 -0.150721 0.033202)
(0.0571361 -0.128666 0.0169966)
(0.0530783 -0.116577 0.00496342)
(0.0488943 -0.108957 -0.00372514)
(0.0447548 -0.103187 -0.00969804)
(0.0407091 -0.0980517 -0.0134721)
(0.0367487 -0.0929806 -0.0156639)
(0.0328506 -0.0878013 -0.0169496)
(0.0290182 -0.0825757 -0.0180044)
(0.0252852 -0.0774083 -0.0193794)
(0.0217728 -0.0721776 -0.0214192)
(0.0184854 -0.0662335 -0.0243933)
(0.0153107 -0.0580623 -0.028912)
(0.0123565 -0.0451257 -0.0363527)
(0.0103373 -0.0246243 -0.0478357)
(0.00985225 0.00475608 -0.0617734)
(0.0106583 0.0415139 -0.073732)
(0.0117904 0.0806891 -0.0790121)
(0.0125456 0.116196 -0.0736194)
(0.0131052 0.145749 -0.0548601)
(0.013803 0.169006 -0.0183718)
(0.013995 0.186062 0.046884)
(0.00921705 0.239365 0.130888)
(0.00428762 0.31859 0.115476)
(0.00620872 -0.325286 0.0116802)
(0.0140516 -0.496137 0.0160477)
(0.0170752 -0.538124 0.0194696)
(0.01742 -0.544238 0.0216042)
(0.0164597 -0.535719 0.0227641)
(0.0144611 -0.517138 0.0240953)
(0.0119363 -0.489208 0.0280829)
(0.0101144 -0.444652 0.0370071)
(0.0110997 -0.371902 0.0449669)
(0.0146749 -0.282211 0.0393821)
(0.0184756 -0.203376 0.0207473)
(0.0217282 -0.149119 -0.000473587)
(0.0245833 -0.116662 -0.0173437)
(0.0270985 -0.0976076 -0.028959)
(0.02932 -0.0853106 -0.036808)
(0.0312833 -0.0762419 -0.0421504)
(0.0330164 -0.068615 -0.0456742)
(0.0344457 -0.0616985 -0.0476027)
(0.035411 -0.055307 -0.0481175)
(0.0357702 -0.0493784 -0.0475442)
(0.0353753 -0.0439214 -0.0463398)
(0.0341253 -0.0389864 -0.0450134)
(0.0319754 -0.0346148 -0.0440192)
(0.0289668 -0.0307468 -0.0436276)
(0.0253909 -0.0269913 -0.0438836)
(0.0220255 -0.0224686 -0.0447971)
(0.0189503 -0.0147684 -0.0464424)
(0.0162025 0.00250774 -0.0495127)
(0.0154254 0.0343874 -0.05389)
(0.0161474 0.0732197 -0.0554245)
(0.0166077 0.108678 -0.0489951)
(0.0158409 0.138121 -0.0291264)
(0.0121504 0.168863 0.0150525)
(0.00422502 0.227811 0.0800397)
(0.000353071 0.29696 0.0947941)
(-0.00274148 -0.362302 0.0344415)
(-0.00847617 -0.502948 0.0338708)
(-0.0113352 -0.523857 0.0289805)
(-0.0128948 -0.522775 0.0258719)
(-0.0135171 -0.510296 0.0242984)
(-0.0129298 -0.486563 0.0248854)
(-0.0111679 -0.451026 0.028244)
(-0.0081275 -0.403696 0.0347298)
(-0.00343832 -0.342748 0.0432477)
(0.00351295 -0.270061 0.0471623)
(0.011126 -0.202055 0.0402382)
(0.0170238 -0.152977 0.0256537)
(0.020817 -0.122862 0.0098691)
(0.0230716 -0.10488 -0.0036592)
(0.024593 -0.0930841 -0.0144608)
(0.0258988 -0.0841179 -0.0231072)
(0.0272237 -0.0762614 -0.0302474)
(0.0286184 -0.0685973 -0.0363359)
(0.0299882 -0.0608019 -0.0415457)
(0.0311337 -0.0528916 -0.045995)
(0.0318277 -0.0449153 -0.0499542)
(0.0318347 -0.0370369 -0.0537502)
(0.0309169 -0.0294884 -0.0576764)
(0.0289827 -0.0223713 -0.0617724)
(0.026311 -0.0154375 -0.065763)
(0.0231374 -0.00776538 -0.0693643)
(0.0196538 0.00177035 -0.0721323)
(0.0165766 0.0138388 -0.0735496)
(0.0145499 0.0300802 -0.0735439)
(0.013916 0.0535623 -0.0720974)
(0.0143901 0.0863998 -0.067792)
(0.0143695 0.12822 -0.0549937)
(0.0112341 0.179674 -0.0219688)
(0.0037684 0.242086 0.0307197)
(-0.00087034 0.281687 0.0609205)
(-0.00296327 -0.327249 -0.000793576)
(-0.00420878 -0.506381 -0.0214351)
(-0.0046221 -0.553227 -0.0246843)
(-0.0040831 -0.568105 -0.023933)
(-0.00298186 -0.571486 -0.0216222)
(-0.00126768 -0.566604 -0.0182995)
(0.00116663 -0.552599 -0.0138355)
(0.00464478 -0.52573 -0.00705003)
(0.00968364 -0.479921 0.00448467)
(0.0168576 -0.409396 0.021457)
(0.0260597 -0.318796 0.0373333)
(0.035087 -0.228052 0.0437378)
(0.0411375 -0.157496 0.0391869)
(0.0434932 -0.113216 0.028471)
(0.0433613 -0.0883759 0.0166003)
(0.0421363 -0.0739915 0.00571121)
(0.0406666 -0.0644962 -0.00384972)
(0.0393248 -0.0572572 -0.0121356)
(0.0382147 -0.0510505 -0.0191912)
(0.0372568 -0.0450617 -0.0252927)
(0.0362645 -0.0388206 -0.0307828)
(0.0349041 -0.0323271 -0.0358918)
(0.0328003 -0.0258896 -0.0408581)
(0.0297885 -0.0198269 -0.0459867)
(0.025706 -0.0137608 -0.0518556)
(0.0205285 -0.00690294 -0.0589486)
(0.0150031 0.00132877 -0.0667649)
(0.00984776 0.0118854 -0.0743594)
(0.00559648 0.0263045 -0.0810977)
(0.00273757 0.0471583 -0.0871377)
(0.00177095 0.0789322 -0.0925911)
(0.00278515 0.127974 -0.094447)
(0.00427884 0.197843 -0.0805762)
(0.00364045 0.268364 -0.0417066)
(0.000647839 0.283756 0.00338715)
(0.000908146 -0.327323 0.00212803)
(0.0043447 -0.493547 -0.000108252)
(0.00676696 -0.533483 -0.00235433)
(0.00866906 -0.542 -0.00386439)
(0.0103375 -0.537748 -0.00506952)
(0.01167 -0.523852 -0.00621936)
(0.0125651 -0.502055 -0.00747212)
(0.0131375 -0.475212 -0.00891299)
(0.0137657 -0.445283 -0.00999507)
(0.0153229 -0.408888 -0.00833919)
(0.0194499 -0.35567 -0.000716013)
(0.026892 -0.280595 0.00995972)
(0.0354329 -0.196871 0.0150891)
(0.0415477 -0.126749 0.0107102)
(0.0438772 -0.0817085 0.000980215)
(0.0437205 -0.0569621 -0.00883664)
(0.0426293 -0.0431687 -0.0170133)
(0.041359 -0.0343602 -0.0237689)
(0.040193 -0.0277163 -0.0295601)
(0.0391972 -0.021848 -0.0347571)
(0.0383417 -0.0160918 -0.0394761)
(0.0374999 -0.0101632 -0.0436808)
(0.0364025 -0.0039063 -0.0473625)
(0.0346979 0.00264155 -0.0505842)
(0.0320636 0.00948834 -0.0536748)
(0.0281821 0.0168907 -0.0572626)
(0.022956 0.0250792 -0.0618862)
(0.0167709 0.0341594 -0.0676618)
(0.0102495 0.0446887 -0.0744377)
(0.00421592 0.0579509 -0.0822533)
(-0.000543225 0.0772593 -0.0917837)
(-0.00295465 0.111391 -0.103747)
(-0.002056 0.175965 -0.113236)
(0.000843025 0.260653 -0.100257)
(4.83799e-05 0.285697 -0.0478884)
(-0.00127803 -0.353619 -0.0117403)
(-0.000485573 -0.538869 -0.0377321)
(0.000469762 -0.58085 -0.0454319)
(0.0023147 -0.590158 -0.047894)
(0.00469705 -0.587307 -0.0484171)
(0.00756622 -0.575023 -0.0473173)
(0.0108591 -0.552638 -0.0443681)
(0.0143865 -0.51888 -0.0394837)
(0.0176022 -0.475056 -0.0331452)
(0.0199343 -0.426416 -0.0258268)
(0.0214948 -0.376038 -0.0163197)
(0.0237125 -0.316893 -0.00201672)
(0.0282497 -0.239474 0.0152101)
(0.033945 -0.152975 0.0256386)
(0.0374796 -0.0832559 0.0230774)
(0.0379784 -0.0423156 0.0128469)
(0.0369666 -0.0219237 0.0020607)
(0.0356394 -0.0110852 -0.00700839)
(0.0343776 -0.00403533 -0.014618)
(0.0332935 0.00168422 -0.0214425)
(0.0324438 0.00701997 -0.0277292)
(0.0318968 0.0123276 -0.0333591)
(0.0315896 0.0178686 -0.0382723)
(0.0313835 0.0238338 -0.0424297)
(0.0311109 0.0305626 -0.0459383)
(0.0305088 0.0384351 -0.0490073)
(0.0292728 0.0476049 -0.051849)
(0.0271115 0.0581195 -0.0548005)
(0.0238821 0.0700222 -0.0583392)
(0.0196974 0.083497 -0.0630043)
(0.0150933 0.099184 -0.0696456)
(0.0107384 0.121447 -0.0797512)
(0.00643398 0.167857 -0.0955152)
(0.0032561 0.248619 -0.104495)
(-0.000564785 0.283065 -0.0664014)