/*--------------------------------*- C++ -*----------------------------------*\
| =========                 |                                                 |
| \\      /  F ield         | OpenFOAM: The Open Source CFD Toolbox           |
|  \\    /   O peration     | Version:  v2012                                 |
|   \\  /    A nd           | Website:  www.openfoam.com                      |
|    \\/     M anipulation  |                                                 |
\*---------------------------------------------------------------------------*/
FoamFile
{
    version     2.0;
    format      ascii;
    class       surfaceScalarField;
    location    "40";
    object      phi;
}
// * * * * * * * * * * * * * * * * * * * * * * * * * * * * * * * * * * * * * //

dimensions      [1 0 -1 0 0 0 0];
oriented        oriented;


internalField   nonuniform List<scalar> 
228225
(
-4.68401e-09
6.17846e-09
-1.7474e-09
-1.68565e-08
1.88641e-08
-6.69067e-09
-3.49503e-08
2.63133e-08
-8.21905e-09
-5.83412e-08
3.23584e-08
-8.96737e-09
-8.60325e-08
3.71722e-08
-9.47925e-09
-1.16864e-07
4.07571e-08
-9.92803e-09
-1.49721e-07
4.32219e-08
-1.03648e-08
-1.83497e-07
4.46061e-08
-1.08295e-08
-2.17232e-07
4.50624e-08
-1.13277e-08
-2.49995e-07
4.465e-08
-1.18875e-08
-2.8102e-07
4.35403e-08
-1.25142e-08
-3.09605e-07
4.1815e-08
-1.32312e-08
-3.35187e-07
3.96207e-08
-1.40376e-08
-3.57268e-07
3.70272e-08
-1.49443e-08
-3.75463e-07
3.4131e-08
-1.59378e-08
-3.89451e-07
3.10079e-08
-1.70213e-08
-3.99049e-07
2.77566e-08
-1.81571e-08
-4.04125e-07
2.44115e-08
-1.93344e-08
-4.04642e-07
2.10507e-08
-2.05356e-08
-4.00606e-07
1.77048e-08
-2.1741e-08
-3.92111e-07
1.44208e-08
-2.2914e-08
-3.79301e-07
1.12202e-08
-2.4031e-08
-3.62374e-07
8.13547e-09
-2.50627e-08
-3.41571e-07
5.18265e-09
-2.59852e-08
-3.17185e-07
2.38591e-09
-2.67719e-08
-2.8955e-07
-2.3226e-10
-2.74004e-08
-2.5904e-07
-2.66588e-09
-2.78476e-08
-2.26076e-07
-4.87161e-09
-2.80916e-08
-1.91145e-07
-6.82037e-09
-2.81088e-08
-1.54811e-07
-8.46712e-09
-2.78689e-08
-1.17743e-07
-9.75101e-09
-2.73154e-08
-8.08532e-08
-1.05748e-08
-2.63127e-08
-4.56249e-08
-1.07537e-08
-2.4478e-08
-1.49748e-08
-9.97614e-09
-2.06719e-08
-6.21264e-09
-8.7632e-09
-1.36212e-08
3.85095e-08
-1.87102e-08
-4.50389e-08
7.03482e-08
-2.00663e-08
-8.25444e-08
8.46535e-08
-2.08343e-08
-1.22815e-07
9.45669e-08
-2.19381e-08
-1.63464e-07
1.00808e-07
-2.29872e-08
-2.02837e-07
1.04048e-07
-2.39159e-08
-2.39646e-07
1.0481e-07
-2.47809e-08
-2.73002e-07
1.03559e-07
-2.55964e-08
-3.02247e-07
1.00686e-07
-2.63789e-08
-3.27003e-07
9.65269e-08
-2.71221e-08
-3.47048e-07
9.14201e-08
-2.78337e-08
-3.62393e-07
8.56644e-08
-2.85046e-08
-3.73138e-07
7.95066e-08
-2.91406e-08
-3.79511e-07
7.3131e-08
-2.97324e-08
-3.81748e-07
6.66598e-08
-3.0291e-08
-3.8015e-07
6.02124e-08
-3.08027e-08
-3.74997e-07
5.38755e-08
-3.12714e-08
-3.66611e-07
4.77149e-08
-3.16903e-08
-3.55281e-07
4.17806e-08
-3.20603e-08
-3.4132e-07
3.6123e-08
-3.23781e-08
-3.25022e-07
3.07665e-08
-3.26443e-08
-3.06677e-07
2.57293e-08
-3.28537e-08
-2.86563e-07
2.10272e-08
-3.30058e-08
-2.6495e-07
1.66653e-08
-3.30964e-08
-2.42086e-07
1.26448e-08
-3.31227e-08
-2.18207e-07
8.96731e-09
-3.30781e-08
-1.93552e-07
5.63398e-09
-3.29549e-08
-1.68334e-07
2.64871e-09
-3.27394e-08
-1.42751e-07
9.34027e-12
-3.24111e-08
-1.17044e-07
-2.23693e-09
-3.19377e-08
-9.14215e-08
-4.09178e-09
-3.12817e-08
-6.61237e-08
-5.48746e-09
-3.0386e-08
-4.15085e-08
-6.32255e-09
-2.90466e-08
-1.85317e-08
-6.28815e-09
-2.66626e-08
-3.53263e-09
-2.12125e-08
-1.25427e-08
5.71861e-08
-6.1321e-09
-3.13234e-08
9.65961e-08
-7.4689e-09
-5.19229e-08
1.13421e-07
-8.16806e-09
-7.29808e-08
1.24561e-07
-8.93679e-09
-9.3547e-08
1.31144e-07
-9.76945e-09
-1.12911e-07
1.3412e-07
-1.07091e-08
-1.30545e-07
1.34183e-07
-1.17385e-08
-1.4604e-07
1.31932e-07
-1.28798e-08
-1.59087e-07
1.27839e-07
-1.41055e-08
-1.69523e-07
1.22377e-07
-1.54141e-08
-1.7733e-07
1.15966e-07
-1.67377e-08
-1.82617e-07
1.0898e-07
-1.80301e-08
-1.85569e-07
1.01692e-07
-1.92318e-08
-1.86394e-07
9.42973e-08
-2.03426e-08
-1.85331e-07
8.69494e-08
-2.13529e-08
-1.82594e-07
7.97477e-08
-2.22711e-08
-1.78393e-07
7.276e-08
-2.30859e-08
-1.72912e-07
6.60386e-08
-2.38068e-08
-1.66319e-07
5.96194e-08
-2.44291e-08
-1.58779e-07
5.35413e-08
-2.49591e-08
-1.50437e-07
4.78214e-08
-2.53964e-08
-1.41421e-07
4.2462e-08
-2.57497e-08
-1.31833e-07
3.74564e-08
-2.60176e-08
-1.21763e-07
3.28027e-08
-2.62069e-08
-1.11312e-07
2.85114e-08
-2.63183e-08
-1.00562e-07
2.45737e-08
-2.63548e-08
-8.95976e-08
2.09808e-08
-2.63141e-08
-7.84763e-08
1.77204e-08
-2.61918e-08
-6.72736e-08
1.47828e-08
-2.59769e-08
-5.60176e-08
1.21585e-08
-2.56516e-08
-4.47629e-08
9.84075e-09
-2.51864e-08
-3.35535e-08
7.82722e-09
-2.4523e-08
-2.24634e-08
6.11464e-09
-2.35295e-08
-1.15644e-08
4.69758e-09
-2.1885e-08
2.94562e-09
-1.80419e-08
-1.32867e-08
6.03264e-08
1.01465e-08
-2.32386e-08
9.71937e-08
9.35303e-09
-3.14434e-08
1.13221e-07
8.40665e-09
-3.86016e-08
1.24092e-07
7.62512e-09
-4.51181e-08
1.30888e-07
6.7747e-09
-5.11662e-08
1.3442e-07
5.74788e-09
-5.67882e-08
1.35318e-07
4.48693e-09
-6.19281e-08
1.34021e-07
3.04995e-09
-6.64455e-08
1.30957e-07
1.39958e-09
-7.00914e-08
1.26543e-07
-5.20304e-10
-7.26344e-08
1.21168e-07
-2.65935e-09
-7.39887e-08
1.15139e-07
-4.80512e-09
-7.42502e-08
1.08755e-07
-6.80186e-09
-7.36026e-08
1.02252e-07
-8.60169e-09
-7.22171e-08
9.58141e-08
-1.02495e-08
-7.02409e-08
8.95088e-08
-1.17399e-08
-6.7788e-08
8.34057e-08
-1.30961e-08
-6.49813e-08
7.75461e-08
-1.43159e-08
-6.19121e-08
7.1964e-08
-1.54123e-08
-5.86668e-08
6.66782e-08
-1.63834e-08
-5.53115e-08
6.17061e-08
-1.72388e-08
-5.19219e-08
5.70502e-08
-1.79796e-08
-4.8538e-08
5.26935e-08
-1.86195e-08
-4.52049e-08
4.8627e-08
-1.91576e-08
-4.19507e-08
4.48532e-08
-1.95964e-08
-3.8794e-08
4.13538e-08
-1.99362e-08
-3.57287e-08
3.8095e-08
-2.01819e-08
-3.27178e-08
3.50452e-08
-2.03332e-08
-2.97053e-08
3.21605e-08
-2.03909e-08
-2.65898e-08
2.93911e-08
-2.03481e-08
-2.32202e-08
2.66643e-08
-2.01939e-08
-1.93633e-08
2.3897e-08
-1.99266e-08
-1.46122e-08
2.09576e-08
-1.95934e-08
-8.50965e-09
1.77299e-08
-1.91362e-08
1.16404e-08
-1.72035e-08
-1.18841e-08
5.52424e-08
1.69675e-08
-1.52424e-08
8.42176e-08
1.63342e-08
-1.4621e-08
9.73375e-08
1.52633e-08
-1.18663e-08
1.0682e-07
1.45172e-08
-8.07282e-09
1.13243e-07
1.38501e-08
-3.89504e-09
1.17192e-07
1.30524e-08
2.39192e-10
1.19135e-07
1.20472e-08
4.10363e-09
1.19401e-07
1.07552e-08
7.60473e-09
1.18271e-07
9.18593e-09
1.07495e-08
1.16012e-07
7.38556e-09
1.35978e-08
1.12863e-07
5.45774e-09
1.61885e-08
1.09061e-07
3.48605e-09
1.85165e-08
1.04849e-07
1.57828e-09
2.0521e-08
1.00459e-07
-2.10766e-10
2.21397e-08
9.60392e-08
-1.84547e-09
2.33709e-08
9.16618e-08
-3.38368e-09
2.42027e-08
8.73827e-08
-4.80937e-09
2.46299e-08
8.3248e-08
-6.12751e-09
2.46375e-08
7.92865e-08
-7.33296e-09
2.42277e-08
7.55202e-08
-8.42987e-09
2.33898e-08
7.19577e-08
-9.41617e-09
2.213e-08
6.86048e-08
-1.02949e-08
2.04332e-08
6.54576e-08
-1.10644e-08
1.82904e-08
6.25002e-08
-1.17322e-08
1.57303e-08
5.97123e-08
-1.22991e-08
1.27984e-08
5.70601e-08
-1.27723e-08
9.55201e-09
5.44956e-08
-1.31561e-08
6.0947e-09
5.19602e-08
-1.34586e-08
2.56112e-09
4.93804e-08
-1.36839e-08
-8.67711e-10
4.66548e-08
-1.38372e-08
-3.93214e-09
4.36495e-08
-1.39187e-08
-6.25507e-09
4.01869e-08
-1.39671e-08
-7.1847e-09
3.60198e-08
-1.41354e-08
-5.76618e-09
3.08275e-08
-1.45122e-08
1.98741e-08
-1.40014e-08
-6.34782e-09
4.66491e-08
1.49405e-08
-5.9755e-09
6.96866e-08
1.41587e-08
-2.1438e-09
8.03734e-08
1.3133e-08
3.70056e-09
8.83968e-08
1.25785e-08
1.06798e-08
9.42132e-08
1.20505e-08
1.82926e-08
9.82186e-08
1.13608e-08
2.61373e-08
1.00794e-07
1.04964e-08
3.38596e-08
1.02177e-07
9.50306e-09
4.11387e-08
1.02595e-07
8.39544e-09
4.77247e-08
1.02217e-07
7.21028e-09
5.34126e-08
1.0121e-07
5.96381e-09
5.80688e-08
9.97111e-08
4.69406e-09
6.16248e-08
9.78697e-08
3.42274e-09
6.41077e-08
9.58025e-08
2.17359e-09
6.56057e-08
9.3593e-08
9.49399e-10
6.61936e-08
9.13053e-08
-2.31734e-10
6.59206e-08
8.89997e-08
-1.34477e-09
6.4852e-08
8.67147e-08
-2.39776e-09
6.30383e-08
8.44822e-08
-3.3819e-09
6.05252e-08
8.23214e-08
-4.28851e-09
5.7358e-08
8.02426e-08
-5.11752e-09
5.35823e-08
7.82467e-08
-5.86483e-09
4.92442e-08
7.63248e-08
-6.53284e-09
4.44081e-08
7.44598e-08
-7.12083e-09
3.91302e-08
7.26212e-08
-7.63316e-09
3.34955e-08
7.07691e-08
-8.07208e-09
2.759e-08
6.88441e-08
-8.44403e-09
2.15342e-08
6.67705e-08
-8.75512e-09
1.54881e-08
6.44412e-08
-9.01419e-09
9.65187e-09
6.17188e-08
-9.22757e-09
4.29143e-09
5.84109e-08
-9.40213e-09
-2.05011e-10
5.4269e-08
-9.58485e-09
-3.18018e-09
4.89438e-08
-9.95024e-09
-3.73397e-09
4.2006e-08
-1.06249e-08
2.68979e-08
-1.07568e-08
-2.4006e-09
3.91463e-08
9.90415e-09
-1.13899e-09
5.95799e-08
8.84295e-09
2.38369e-09
6.90746e-08
7.77705e-09
7.35965e-09
7.62815e-08
7.14012e-09
1.31738e-08
8.17212e-08
6.67592e-09
1.94232e-08
8.57732e-08
6.19836e-09
2.58083e-08
8.87321e-08
5.67456e-09
3.20624e-08
9.08227e-08
5.1011e-09
3.79561e-08
9.22134e-08
4.48773e-09
4.32994e-08
9.30433e-08
3.82956e-09
4.79569e-08
9.3418e-08
3.13613e-09
5.18272e-08
9.3432e-08
2.40823e-09
5.48741e-08
9.31609e-08
1.66107e-09
5.70983e-08
9.26747e-08
9.03603e-10
5.85137e-08
9.20286e-08
1.49481e-10
5.91279e-08
9.12705e-08
-5.79657e-10
5.89706e-08
9.04364e-08
-1.27929e-09
5.80755e-08
8.95567e-08
-1.94741e-09
5.64798e-08
8.86508e-08
-2.57286e-09
5.42259e-08
8.77301e-08
-3.1532e-09
5.13511e-08
8.6799e-08
-3.68281e-09
4.79083e-08
8.58519e-08
-4.1622e-09
4.39457e-08
8.48764e-08
-4.5888e-09
3.95248e-08
8.38469e-08
-4.9655e-09
3.47084e-08
8.2729e-08
-5.29245e-09
2.95826e-08
8.14701e-08
-5.57446e-09
2.42395e-08
8.0002e-08
-5.81425e-09
1.87993e-08
7.82283e-08
-6.01921e-09
1.34129e-08
7.6023e-08
-6.19488e-09
8.26765e-09
7.32137e-08
-6.34826e-09
3.59259e-09
6.95704e-08
-6.48393e-09
-2.83705e-10
6.4785e-08
-6.64076e-09
-2.82256e-09
5.84389e-08
-6.95629e-09
-3.26876e-09
4.99807e-08
-7.52837e-09
3.13335e-08
-7.70436e-09
-4.56535e-10
3.40119e-08
5.59099e-09
3.88876e-10
5.40075e-08
4.72831e-09
2.16344e-09
6.33226e-08
3.97548e-09
4.47229e-09
7.04445e-08
3.52855e-09
7.08689e-09
7.59132e-08
3.19371e-09
9.89019e-09
8.01075e-08
2.86165e-09
1.28003e-08
8.33206e-08
2.50165e-09
1.57343e-08
8.57687e-08
2.11992e-09
1.86117e-08
8.76205e-08
1.71566e-09
2.13549e-08
8.90034e-08
1.29613e-09
2.38938e-08
9.00186e-08
8.61781e-10
2.61597e-08
9.07443e-08
4.20932e-10
2.81021e-08
9.12437e-08
-2.3607e-11
2.96632e-08
9.15662e-08
-4.54895e-10
3.0817e-08
9.17517e-08
-8.76936e-10
3.15378e-08
9.18312e-08
-1.28121e-09
3.18127e-08
9.18284e-08
-1.66561e-09
3.16321e-08
9.17589e-08
-2.02249e-09
3.10017e-08
9.16313e-08
-2.351e-09
2.9929e-08
9.14491e-08
-2.64683e-09
2.84352e-08
9.12068e-08
-2.91135e-09
2.65328e-08
9.08936e-08
-3.14223e-09
2.42648e-08
9.04879e-08
-3.34264e-09
2.16637e-08
8.99603e-08
-3.51209e-09
1.87818e-08
8.9266e-08
-3.65527e-09
1.56786e-08
8.83471e-08
-3.77329e-09
1.24295e-08
8.71219e-08
-3.87219e-09
9.12837e-09
8.54852e-08
-3.9549e-09
5.88827e-09
8.32911e-08
-4.02872e-09
2.84653e-09
8.03513e-08
-4.09596e-09
1.73896e-10
7.64059e-08
-4.16234e-09
-1.90906e-09
7.11173e-08
-4.25028e-09
-3.03744e-09
6.40187e-08
-4.45176e-09
-2.73818e-09
5.44992e-08
-4.81739e-09
3.34827e-08
-4.88713e-09
-5.8807e-10
3.1147e-08
3.45291e-09
-6.75766e-10
5.11174e-08
2.97779e-09
-3.4773e-10
6.04158e-08
2.57854e-09
2.15526e-10
6.75469e-08
2.33424e-09
9.4075e-10
7.30478e-08
2.14027e-09
1.79812e-09
7.73135e-08
1.9381e-09
2.75929e-09
8.06371e-08
1.72013e-09
3.80318e-09
8.32403e-08
1.48567e-09
4.89265e-09
8.52891e-08
1.24154e-09
5.99792e-09
8.69105e-08
9.87715e-10
7.08549e-09
8.82005e-08
7.31257e-10
8.12321e-09
8.92334e-08
4.73227e-10
9.08119e-09
9.00658e-08
2.19962e-10
9.9294e-09
9.07414e-08
-2.38134e-11
1.06375e-08
9.12929e-08
-2.50496e-10
1.11882e-08
9.17444e-08
-4.61091e-10
1.15534e-08
9.21125e-08
-6.51562e-10
1.17282e-08
9.24075e-08
-8.2186e-10
1.16937e-08
9.2633e-08
-9.67551e-10
1.14464e-08
9.27868e-08
-1.09115e-09
1.09815e-08
9.28611e-08
-1.19002e-09
1.03049e-08
9.28396e-08
-1.26775e-09
9.41752e-09
9.26964e-08
-1.3234e-09
8.34751e-09
9.23958e-08
-1.36259e-09
7.10856e-09
9.18894e-08
-1.38572e-09
5.74257e-09
9.11126e-08
-1.39941e-09
4.29014e-09
8.99797e-08
-1.4051e-09
2.80868e-09
8.83773e-08
-1.41034e-09
1.36135e-09
8.61549e-08
-1.41737e-09
3.2702e-11
8.31136e-08
-1.43319e-09
-1.08791e-09
7.89867e-08
-1.45908e-09
-1.8801e-09
7.34221e-08
-1.51394e-09
-2.15273e-09
6.59422e-08
-1.64992e-09
-1.66818e-09
5.591e-08
-1.89545e-09
3.38082e-08
-1.99321e-09
-1.31841e-09
2.9485e-08
2.98034e-09
-2.48672e-09
4.93303e-08
2.95602e-09
-3.48322e-09
5.8544e-08
2.86721e-09
-4.3389e-09
6.55933e-08
2.809e-09
-5.04631e-09
7.10218e-08
2.73491e-09
-5.59726e-09
7.52269e-08
2.63659e-09
-5.97936e-09
7.85052e-08
2.51302e-09
-6.18957e-09
8.10791e-08
2.37292e-09
-6.23633e-09
8.31163e-08
2.21865e-09
-6.12628e-09
8.47431e-08
2.05813e-09
-5.87603e-09
8.6056e-08
1.8931e-09
-5.50035e-09
8.71275e-08
1.73139e-09
-5.0212e-09
8.80138e-08
1.57434e-09
-4.46598e-09
8.87561e-08
1.42919e-09
-3.85679e-09
8.93864e-08
1.29633e-09
-3.2184e-09
8.99261e-08
1.1817e-09
-2.58145e-09
9.03899e-08
1.08522e-09
-1.97108e-09
9.07844e-08
1.01144e-09
-1.40745e-09
9.11121e-08
9.57732e-10
-9.12756e-10
9.13667e-08
9.27124e-10
-5.04952e-10
9.15374e-08
9.15172e-10
-1.91221e-10
9.16042e-08
9.21962e-10
2.22055e-11
9.15406e-08
9.4179e-10
1.36091e-10
9.13078e-08
9.74783e-10
1.55531e-10
9.08567e-08
1.01372e-09
9.02256e-11
9.012e-08
1.0576e-09
-4.09884e-11
8.90121e-08
1.09827e-09
-2.17423e-10
8.74187e-08
1.13384e-09
-4.06988e-10
8.51913e-08
1.15543e-09
-5.86288e-10
8.21323e-08
1.16096e-09
-7.22593e-10
7.79815e-08
1.14139e-09
-7.81841e-10
7.23924e-08
1.08694e-09
-6.98423e-10
6.49019e-08
9.5781e-10
-4.16231e-10
5.48872e-08
7.39451e-10
3.29064e-08
4.86994e-10
-2.03508e-09
2.8369e-08
3.1511e-09
-3.86963e-09
4.76692e-08
3.49596e-09
-5.56791e-09
5.66094e-08
3.63178e-09
-7.11051e-09
6.34337e-08
3.70368e-09
-8.47479e-09
6.86682e-08
3.71709e-09
-9.63552e-09
7.27031e-08
3.68481e-09
-1.05806e-08
7.58288e-08
3.62072e-09
-1.12969e-08
7.82658e-08
3.53037e-09
-1.17827e-08
8.0178e-08
3.42419e-09
-1.20374e-08
8.16924e-08
3.30577e-09
-1.20696e-08
8.29028e-08
3.18424e-09
-1.18867e-08
8.38837e-08
3.06208e-09
-1.1511e-08
8.4689e-08
2.94748e-09
-1.09567e-08
8.53622e-08
2.84181e-09
-1.0257e-08
8.59327e-08
2.75208e-09
-9.43241e-09
8.64242e-08
2.67816e-09
-8.51749e-09
8.68495e-08
2.6255e-09
-7.54218e-09
8.72175e-08
2.59209e-09
-6.54121e-09
8.75272e-08
2.58146e-09
-5.53536e-09
8.77742e-08
2.58973e-09
-4.56058e-09
8.79424e-08
2.61906e-09
-3.63452e-09
8.80133e-08
2.66374e-09
-2.7727e-09
8.79565e-08
2.72375e-09
-1.99241e-09
8.77359e-08
2.79168e-09
-1.30101e-09
8.72991e-08
2.86628e-09
-7.04431e-10
8.6583e-08
2.93899e-09
-2.01042e-10
8.55008e-08
3.00761e-09
2.1266e-10
8.39447e-08
3.06263e-09
5.31263e-10
8.1769e-08
3.10085e-09
7.64261e-10
7.87881e-08
3.11192e-09
9.02855e-10
7.47523e-08
3.09137e-09
9.36939e-10
6.93355e-08
3.02228e-09
8.60767e-10
6.21004e-08
2.8779e-09
6.53748e-10
5.24611e-08
2.63169e-09
3.13695e-08
2.1916e-09
-2.23066e-09
2.75345e-08
3.06459e-09
-4.29892e-09
4.61266e-08
3.61219e-09
-6.27216e-09
5.47196e-08
3.8612e-09
-8.09221e-09
6.12561e-08
3.99792e-09
-9.71787e-09
6.62454e-08
4.04834e-09
-1.11186e-08
7.00601e-08
4.04452e-09
-1.22746e-08
7.29859e-08
3.99909e-09
-1.31689e-08
7.52345e-08
3.92495e-09
-1.37885e-08
7.69701e-08
3.82818e-09
-1.41314e-08
7.83149e-08
3.71942e-09
-1.41967e-08
7.93659e-08
3.60314e-09
-1.39969e-08
8.01945e-08
3.48863e-09
-1.3546e-08
8.08589e-08
3.37901e-09
-1.28667e-08
8.14007e-08
3.28233e-09
-1.1988e-08
8.18535e-08
3.20017e-09
-1.09395e-08
8.22389e-08
3.13896e-09
-9.76334e-09
8.25736e-08
3.09835e-09
-8.49177e-09
8.28637e-08
3.08279e-09
-7.16589e-09
8.31117e-08
3.08972e-09
-5.82365e-09
8.33097e-08
3.12139e-09
-4.49881e-09
8.34463e-08
3.17302e-09
-3.23062e-09
8.34988e-08
3.24475e-09
-2.04307e-09
8.34401e-08
3.32979e-09
-9.63844e-10
8.32296e-08
3.42652e-09
-1.13032e-11
8.28191e-08
3.52655e-09
8.04826e-10
8.2142e-08
3.62696e-09
1.46884e-09
8.1118e-08
3.71822e-09
1.97781e-09
7.9639e-08
3.7963e-09
2.32543e-09
7.75704e-08
3.85051e-09
2.50709e-09
7.47317e-08
3.87568e-09
2.50769e-09
7.08923e-08
3.85931e-09
2.31192e-09
6.57414e-08
3.79005e-09
1.90087e-09
5.88758e-08
3.63569e-09
1.24937e-09
4.97459e-08
3.36827e-09
2.98069e-08
2.81016e-09
-1.923e-09
2.71038e-08
2.35368e-09
-3.86411e-09
4.51606e-08
2.90774e-09
-5.80005e-09
5.34843e-08
3.17045e-09
-7.63674e-09
5.97897e-08
3.30306e-09
-9.30611e-09
6.45682e-08
3.3463e-09
-1.07596e-08
6.81847e-08
3.33044e-09
-1.1965e-08
7.0917e-08
3.27346e-09
-1.28915e-08
7.29764e-08
3.18349e-09
-1.35158e-08
7.45236e-08
3.07188e-09
-1.38285e-08
7.56844e-08
2.94503e-09
-1.38332e-08
7.6554e-08
2.81323e-09
-1.35283e-08
7.72099e-08
2.68162e-09
-1.29378e-08
7.77093e-08
2.55923e-09
-1.20872e-08
7.80997e-08
2.44983e-09
-1.10082e-08
7.84141e-08
2.36091e-09
-9.74316e-09
7.86797e-08
2.29428e-09
-8.33732e-09
7.89116e-08
2.25533e-09
-6.83719e-09
7.91207e-08
2.24347e-09
-5.29403e-09
7.93066e-08
2.26163e-09
-3.7562e-09
7.94653e-08
2.30658e-09
-2.26941e-09
7.95814e-08
2.37871e-09
-8.78948e-10
7.96353e-08
2.47227e-09
3.80132e-10
7.9595e-08
2.58535e-09
1.47913e-09
7.94227e-08
2.71015e-09
2.38869e-09
7.90652e-08
2.84294e-09
3.09721e-09
7.84595e-08
2.97446e-09
3.59429e-09
7.75217e-08
3.09977e-09
3.87685e-09
7.61491e-08
3.20851e-09
3.94395e-09
7.42066e-08
3.29476e-09
3.80557e-09
7.15241e-08
3.34738e-09
3.46162e-09
6.78764e-08
3.35907e-09
2.91847e-09
6.29708e-08
3.31343e-09
2.18787e-09
5.64214e-08
3.18539e-09
1.28771e-09
4.77114e-08
2.93822e-09
2.86892e-08
2.40273e-09
-1.28077e-09
2.72858e-08
1.09771e-09
-2.89805e-09
4.52718e-08
1.50644e-09
-4.65462e-09
5.35369e-08
1.70543e-09
-6.41381e-09
5.97612e-08
1.78675e-09
-8.06831e-09
6.44378e-08
1.78496e-09
-9.5444e-09
6.79306e-08
1.73055e-09
-1.07867e-08
7.05221e-08
1.63537e-09
-1.17429e-08
7.24244e-08
1.51031e-09
-1.2386e-08
7.38048e-08
1.36252e-09
-1.26978e-08
7.47911e-08
1.20266e-09
-1.26664e-08
7.54861e-08
1.03786e-09
-1.23021e-08
7.5968e-08
8.78285e-10
-1.16254e-08
7.63018e-08
7.28552e-10
-1.06577e-08
7.65366e-08
5.97454e-10
-9.44624e-09
7.67128e-08
4.89391e-10
-8.03526e-09
7.68578e-08
4.11039e-10
-6.48114e-09
7.69927e-08
3.64215e-10
-4.84018e-09
7.71271e-08
3.52918e-10
-3.17554e-09
7.7265e-08
3.75961e-10
-1.54339e-09
7.73991e-08
4.34367e-10
-1.8877e-12
7.75168e-08
5.2392e-10
1.39573e-09
7.75935e-08
6.42748e-10
2.60984e-09
7.75985e-08
7.83951e-10
3.60015e-09
7.74879e-08
9.43248e-10
4.34411e-09
7.72093e-08
1.11174e-09
4.82858e-09
7.66929e-08
1.28353e-09
5.04389e-09
7.58557e-08
1.44861e-09
5.00334e-09
7.45893e-08
1.60034e-09
4.72243e-09
7.27608e-08
1.72824e-09
4.22388e-09
7.0196e-08
1.82562e-09
3.54281e-09
6.66752e-08
1.88193e-09
2.72115e-09
6.19057e-08
1.88719e-09
1.81317e-09
5.55114e-08
1.81659e-09
9.0181e-10
4.69833e-08
1.64152e-09
2.83342e-08
1.25609e-09
-5.88634e-10
2.82038e-08
-3.28659e-10
-1.8448e-09
4.66695e-08
-1.41843e-10
-3.39284e-09
5.51251e-08
-4.03803e-11
-5.05226e-09
6.14537e-08
-3.3793e-11
-6.6825e-09
6.6162e-08
-9.40954e-11
-8.18063e-09
6.96308e-08
-2.00501e-10
-9.47002e-09
7.21511e-08
-3.41916e-10
-1.0479e-08
7.39483e-08
-5.12393e-10
-1.11688e-08
7.5196e-08
-7.0298e-10
-1.15031e-08
7.60329e-08
-9.06364e-10
-1.14732e-08
7.65673e-08
-1.11246e-09
-1.10779e-08
7.68883e-08
-1.31334e-09
-1.03459e-08
7.7065e-08
-1.49768e-09
-9.30351e-09
7.71551e-08
-1.6593e-09
-8.00158e-09
7.72013e-08
-1.7904e-09
-6.49606e-09
7.72381e-08
-1.88687e-09
-4.84481e-09
7.72869e-08
-1.94344e-09
-3.12286e-09
7.73623e-08
-1.95904e-09
-1.39374e-09
7.74665e-08
-1.93154e-09
2.76211e-10
7.75951e-08
-1.86327e-09
1.816e-09
7.77311e-08
-1.75547e-09
3.17195e-09
7.78508e-08
-1.61369e-09
4.29661e-09
7.79173e-08
-1.44221e-09
5.14882e-09
7.78856e-08
-1.24926e-09
5.70244e-09
7.76955e-08
-1.04136e-09
5.9498e-09
7.72751e-08
-8.28407e-10
5.8906e-09
7.65324e-08
-6.181e-10
5.54473e-09
7.5356e-08
-4.20723e-10
4.94671e-09
7.36037e-08
-2.43682e-10
4.13903e-09
7.10976e-08
-9.59389e-11
3.19183e-09
6.76077e-08
1.69617e-11
2.17459e-09
6.28372e-08
8.37125e-11
1.1986e-09
5.63979e-08
9.08477e-11
3.911e-10
4.77745e-08
1.63671e-11
2.88697e-08
-1.44312e-10
-4.99493e-11
2.98038e-08
-1.54976e-09
-1.00056e-09
4.91925e-08
-1.57208e-09
-2.35052e-09
5.8045e-08
-1.56924e-09
-3.89393e-09
6.46317e-08
-1.63482e-09
-5.46963e-09
6.94894e-08
-1.75255e-09
-6.95284e-09
7.30212e-08
-1.90739e-09
-8.24606e-09
7.55386e-08
-2.09388e-09
-9.27325e-09
7.72807e-08
-2.30541e-09
-9.97752e-09
7.84363e-08
-2.53568e-09
-1.03225e-08
7.91536e-08
-2.7749e-09
-1.02954e-08
7.95536e-08
-3.01463e-09
-9.89419e-09
7.9733e-08
-3.24483e-09
-9.14333e-09
7.97717e-08
-3.45745e-09
-8.07798e-09
7.97318e-08
-3.64289e-09
-6.74492e-09
7.96642e-08
-3.79468e-09
-5.20865e-09
7.96055e-08
-3.90581e-09
-3.53047e-09
7.95834e-08
-3.97278e-09
-1.78898e-09
7.96121e-08
-3.99188e-09
-5.48029e-11
7.96972e-08
-3.96318e-09
1.5939e-09
7.98316e-08
-3.88668e-09
3.09216e-09
7.99993e-08
-3.76613e-09
4.37651e-09
8.01711e-08
-3.60507e-09
5.39661e-09
8.03088e-08
-3.41056e-09
6.11121e-09
8.03598e-08
-3.1891e-09
6.49661e-09
8.026e-08
-2.95016e-09
6.54556e-09
7.99285e-08
-2.70213e-09
6.26513e-09
7.92673e-08
-2.45558e-09
5.68772e-09
7.81539e-08
-2.21898e-09
4.85617e-09
7.6438e-08
-2.00187e-09
3.83276e-09
7.39281e-08
-1.81041e-09
2.71223e-09
7.03826e-08
-1.65096e-09
1.58851e-09
6.54866e-08
-1.52801e-09
6.06119e-10
5.8833e-08
-1.45258e-09
-6.24887e-11
4.98802e-08
-1.43665e-09
3.02052e-08
-1.39761e-09
2.22183e-10
3.18781e-08
-2.29867e-09
-5.396e-10
5.2423e-08
-2.46657e-09
-1.74468e-09
6.17822e-08
-2.53271e-09
-3.17818e-09
6.87148e-08
-2.64902e-09
-4.67307e-09
7.37904e-08
-2.80564e-09
-6.10152e-09
7.74424e-08
-2.99451e-09
-7.35218e-09
8.00024e-08
-3.21116e-09
-8.35053e-09
8.17297e-08
-3.45172e-09
-9.03249e-09
8.28267e-08
-3.70907e-09
-9.35961e-09
8.34567e-08
-3.97521e-09
-9.31735e-09
8.37498e-08
-4.23996e-09
-8.90387e-09
8.38137e-08
-4.4939e-09
-8.14022e-09
8.37348e-08
-4.72676e-09
-7.06207e-09
8.35847e-08
-4.93032e-09
-5.72196e-09
8.34187e-08
-5.09625e-09
-4.17726e-09
8.32806e-08
-5.21883e-09
-2.50077e-09
8.31997e-08
-5.29278e-09
-7.68207e-10
8.31947e-08
-5.31584e-09
9.44946e-10
8.32703e-08
-5.28643e-09
2.56287e-09
8.34207e-08
-5.20614e-09
4.01235e-09
8.36263e-08
-5.07728e-09
5.2323e-09
8.38568e-08
-4.90514e-09
6.16947e-09
8.40675e-08
-4.69548e-09
6.78233e-09
8.42021e-08
-4.45666e-09
7.05356e-09
8.41879e-08
-4.19704e-09
6.96924e-09
8.39375e-08
-3.92688e-09
6.55119e-09
8.33423e-08
-3.65567e-09
5.82681e-09
8.2271e-08
-3.39361e-09
4.85459e-09
8.05592e-08
-3.14869e-09
3.70709e-09
7.80032e-08
-2.92797e-09
2.48366e-09
7.43423e-08
-2.73529e-09
1.30005e-09
6.92431e-08
-2.57435e-09
3.14805e-10
6.227e-08
-2.45055e-09
-2.87083e-10
5.28509e-08
-2.37062e-09
3.21094e-08
-2.19007e-09
2.43303e-10
3.41627e-08
-2.52926e-09
-4.71322e-10
5.58904e-08
-2.75087e-09
-1.61711e-09
6.57735e-08
-2.84564e-09
-2.98968e-09
7.30689e-08
-2.98243e-09
-4.42383e-09
7.83807e-08
-3.15551e-09
-5.79352e-09
8.21697e-08
-3.35836e-09
-6.99163e-09
8.47904e-08
-3.58839e-09
-7.94048e-09
8.65192e-08
-3.84117e-09
-8.57854e-09
8.75748e-08
-4.11069e-09
-8.86445e-09
8.81319e-08
-4.38801e-09
-8.78389e-09
8.83333e-08
-4.66379e-09
-8.33904e-09
8.8295e-08
-4.92748e-09
-7.5478e-09
8.81132e-08
-5.16966e-09
-6.44722e-09
8.78655e-08
-5.38093e-09
-5.08906e-09
8.76146e-08
-5.5538e-09
-3.5343e-09
8.74079e-08
-5.68146e-09
-1.85462e-09
8.72796e-08
-5.75953e-09
-1.25047e-10
8.72493e-08
-5.78467e-09
1.5784e-09
8.73239e-08
-5.75626e-09
3.17705e-09
8.74959e-08
-5.67491e-09
4.60235e-09
8.77451e-08
-5.54392e-09
5.79129e-09
8.80365e-08
-5.36771e-09
6.68872e-09
8.83224e-08
-5.15307e-09
7.26066e-09
8.85391e-08
-4.90753e-09
7.47898e-09
8.86086e-08
-4.64051e-09
7.34477e-09
8.84341e-08
-4.36149e-09
6.86733e-09
8.78987e-08
-4.08102e-09
6.09034e-09
8.68594e-08
-3.80848e-09
5.06112e-09
8.51405e-08
-3.55277e-09
3.86061e-09
8.25226e-08
-3.31992e-09
2.58865e-09
7.87286e-08
-3.11428e-09
1.36702e-09
7.34031e-08
-2.938e-09
3.47924e-10
6.60842e-08
-2.79584e-09
-2.73789e-10
5.61664e-08
-2.69156e-09
3.42948e-08
-2.46064e-09
8.77143e-11
3.63925e-08
-2.31848e-09
-6.85454e-10
5.91758e-08
-2.50962e-09
-1.8462e-09
6.95268e-08
-2.59431e-09
-3.19848e-09
7.71469e-08
-2.72468e-09
-4.59431e-09
8.26689e-08
-2.89305e-09
-5.91088e-09
8.65792e-08
-3.09278e-09
-7.05063e-09
8.92508e-08
-3.32028e-09
-7.93676e-09
9.09772e-08
-3.57136e-09
-8.51325e-09
9.19899e-08
-3.83927e-09
-8.74173e-09
9.24765e-08
-4.1155e-09
-8.60804e-09
9.25891e-08
-4.3901e-09
-8.11285e-09
9.24539e-08
-4.65314e-09
-7.27933e-09
9.21741e-08
-4.89458e-09
-6.14273e-09
9.18352e-08
-5.10561e-09
-4.75527e-09
9.1505e-08
-5.27825e-09
-3.17747e-09
9.12362e-08
-5.40626e-09
-1.47822e-09
9.10658e-08
-5.48473e-09
2.65683e-10
9.10163e-08
-5.5109e-09
1.97701e-09
9.10946e-08
-5.48359e-09
3.58491e-09
9.12934e-08
-5.40395e-09
5.01471e-09
9.15898e-08
-5.2747e-09
6.20669e-09
9.19464e-08
-5.10074e-09
7.1059e-09
9.23101e-08
-4.8883e-09
7.67879e-09
9.26128e-08
-4.64536e-09
7.89856e-09
9.27685e-08
-4.38077e-09
7.76528e-09
9.26736e-08
-4.10457e-09
7.28777e-09
9.22016e-08
-3.8267e-09
6.50644e-09
9.11998e-08
-3.55713e-09
5.46925e-09
8.94803e-08
-3.30436e-09
4.25688e-09
8.68113e-08
-3.07509e-09
2.9587e-09
8.28988e-08
-2.8735e-09
1.69647e-09
7.73692e-08
-2.70284e-09
6.13482e-10
6.97357e-08
-2.56859e-09
-1.10125e-10
5.93645e-08
-2.47711e-09
3.6466e-08
-2.27862e-09
-1.75021e-10
3.83759e-08
-1.80971e-09
-1.07773e-09
6.19903e-08
-1.90941e-09
-2.30427e-09
7.27081e-08
-1.9563e-09
-3.67467e-09
8.05783e-08
-2.06038e-09
-5.05297e-09
8.62568e-08
-2.20914e-09
-6.33012e-09
9.02487e-08
-2.39293e-09
-7.41625e-09
9.2943e-08
-2.60689e-09
-8.23932e-09
9.46462e-08
-2.84582e-09
-8.74828e-09
9.5602e-08
-3.10278e-09
-8.91051e-09
9.60076e-08
-3.36884e-09
-8.71106e-09
9.6025e-08
-3.63425e-09
-8.15853e-09
9.57881e-08
-3.88891e-09
-7.26856e-09
9.54083e-08
-4.12313e-09
-6.08264e-09
9.4977e-08
-4.32798e-09
-4.64994e-09
9.45679e-08
-4.49585e-09
-3.03156e-09
9.42381e-08
-4.62041e-09
-1.29872e-09
9.40279e-08
-4.69712e-09
4.81857e-10
9.39616e-08
-4.72303e-09
2.22522e-09
9.40472e-08
-4.69728e-09
3.86387e-09
9.42764e-08
-4.6207e-09
5.32297e-09
9.46247e-08
-4.49619e-09
6.5475e-09
9.50516e-08
-4.32826e-09
7.47939e-09
9.54996e-08
-4.12325e-09
8.08771e-09
9.5895e-08
-3.88874e-09
8.3433e-09
9.61458e-08
-3.63369e-09
8.24474e-09
9.61406e-08
-3.36778e-09
7.80103e-09
9.57451e-08
-3.10113e-09
7.04681e-09
9.47972e-08
-2.84347e-09
6.03263e-09
9.30992e-08
-2.60371e-09
4.82439e-09
9.04074e-08
-2.38877e-09
3.512e-09
8.64151e-08
-2.20377e-09
2.20223e-09
8.0733e-08
-2.05336e-09
1.02673e-09
7.28555e-08
-1.9463e-09
1.59943e-10
6.21265e-08
-1.89418e-09
3.8414e-08
-1.78818e-09
-4.66304e-10
4.00083e-08
-1.16689e-09
-1.52364e-09
6.41959e-08
-1.14573e-09
-2.83992e-09
7.51623e-08
-1.14076e-09
-4.24581e-09
8.31944e-08
-1.20853e-09
-5.62311e-09
8.89631e-08
-1.32965e-09
-6.87038e-09
9.29867e-08
-1.49063e-09
-7.90936e-09
9.56658e-08
-1.68466e-09
-8.67314e-09
9.73172e-08
-1.90561e-09
-9.11997e-09
9.81935e-08
-2.14599e-09
-9.21577e-09
9.8501e-08
-2.39671e-09
-8.95311e-09
9.84095e-08
-2.64805e-09
-8.3351e-09
9.80607e-08
-2.88996e-09
-7.38699e-09
9.75727e-08
-3.1129e-09
-6.14531e-09
9.70432e-08
-3.30817e-09
-4.6588e-09
9.65514e-08
-3.46832e-09
-2.99288e-09
9.61582e-08
-3.58728e-09
-1.21135e-09
9.59076e-08
-3.66063e-09
6.09835e-10
9.58255e-08
-3.68565e-09
2.3989e-09
9.59206e-08
-3.66143e-09
4.07978e-09
9.61843e-08
-3.58884e-09
5.58438e-09
9.659e-08
-3.47059e-09
6.85388e-09
9.70941e-08
-3.31104e-09
7.83434e-09
9.76351e-08
-3.11625e-09
8.4904e-09
9.81338e-08
-2.89368e-09
8.79442e-09
9.84923e-08
-2.65201e-09
8.74424e-09
9.85923e-08
-2.40079e-09
8.34704e-09
9.82921e-08
-2.15008e-09
7.63261e-09
9.74215e-08
-1.90957e-09
6.64539e-09
9.57743e-08
-1.68833e-09
5.44853e-09
9.30977e-08
-1.4938e-09
4.12275e-09
8.90749e-08
-1.33205e-09
2.75899e-09
8.3305e-08
-1.20969e-09
1.48494e-09
7.52696e-08
-1.13955e-09
4.52955e-10
6.42979e-08
-1.14028e-09
4.00235e-08
-1.15598e-09
-7.20384e-10
4.12719e-08
-5.42766e-10
-1.92157e-09
6.57989e-08
-4.02466e-10
-3.32066e-09
7.69059e-08
-3.45179e-10
-4.76773e-09
8.5018e-08
-3.75818e-10
-6.15221e-09
9.08139e-08
-4.68084e-10
-7.37994e-09
9.48207e-08
-6.04738e-10
-8.38261e-09
9.7446e-08
-7.77e-10
-9.10375e-09
9.90147e-08
-9.7796e-10
-9.49571e-09
9.97867e-08
-1.19961e-09
-9.53838e-09
9.99755e-08
-1.43288e-09
-9.21838e-09
9.9758e-08
-1.668e-09
-8.54546e-09
9.92832e-08
-1.89517e-09
-7.54377e-09
9.8675e-08
-2.10493e-09
-6.24866e-09
9.8038e-08
-2.28893e-09
-4.7129e-09
9.74559e-08
-2.43986e-09
-2.99814e-09
9.69948e-08
-2.55203e-09
-1.17029e-09
9.67009e-08
-2.6212e-09
6.9779e-10
9.6603e-08
-2.6449e-09
2.53216e-09
9.67097e-08
-2.62222e-09
4.2566e-09
9.70122e-08
-2.55405e-09
5.80929e-09
9.74819e-08
-2.44281e-09
7.12279e-09
9.80721e-08
-2.29273e-09
8.15158e-09
9.87171e-08
-2.10949e-09
8.85201e-09
9.93325e-08
-1.90037e-09
9.20426e-09
9.98141e-08
-1.67374e-09
9.19778e-09
1.00038e-07
-1.43904e-09
8.8421e-09
9.98539e-08
-1.20608e-09
8.1614e-09
9.90863e-08
-9.84584e-10
7.19952e-09
9.7521e-08
-7.83616e-10
6.00992e-09
9.4898e-08
-6.11138e-10
4.66672e-09
9.08929e-08
-4.73988e-10
3.25403e-09
8.50975e-08
-3.8079e-10
1.88683e-09
7.69851e-08
-3.4823e-10
7.1016e-10
6.58771e-08
-4.02036e-10
4.12718e-08
-5.37841e-10
-8.96224e-10
4.22091e-08
-4.22304e-11
-2.19145e-09
6.69071e-08
1.89571e-10
-3.65314e-09
7.80756e-08
2.89613e-10
-5.1295e-09
8.62056e-08
2.90194e-10
-6.51846e-09
9.198e-08
2.22953e-10
-7.73669e-09
9.59298e-08
1.08423e-10
-8.71701e-09
9.8469e-08
-4.287e-11
-9.40235e-09
9.99274e-08
-2.25494e-10
-9.76013e-09
1.00572e-07
-4.28873e-10
-9.76312e-09
1.00621e-07
-6.44582e-10
-9.40005e-09
1.0026e-07
-8.63147e-10
-8.68775e-09
9.96442e-08
-1.07471e-09
-7.64418e-09
9.89041e-08
-1.27071e-09
-6.31467e-09
9.81494e-08
-1.44276e-09
-4.74383e-09
9.74701e-08
-1.58399e-09
-2.99732e-09
9.69356e-08
-1.68886e-09
-1.13796e-09
9.65961e-08
-1.75357e-09
7.59488e-10
9.64814e-08
-1.7757e-09
2.62069e-09
9.66017e-08
-1.75459e-09
4.37775e-09
9.69468e-08
-1.69086e-09
5.96025e-09
9.74868e-08
-1.58695e-09
7.30641e-09
9.81715e-08
-1.44661e-09
8.36803e-09
9.89313e-08
-1.27537e-09
9.10358e-09
9.96763e-08
-1.08009e-09
9.49035e-09
1.00297e-07
-8.69152e-10