/*--------------------------------*- C++ -*----------------------------------*\
| =========                 |                                                 |
| \\      /  F ield         | OpenFOAM: The Open Source CFD Toolbox           |
|  \\    /   O peration     | Version:  v2006                                 |
|   \\  /    A nd           | Website:  www.openfoam.com                      |
|    \\/     M anipulation  |                                                 |
\*---------------------------------------------------------------------------*/
FoamFile
{
    version     2.0;
    format      ascii;
    class       volScalarField;
    location    "47";
    object      omega;
}
// * * * * * * * * * * * * * * * * * * * * * * * * * * * * * * * * * * * * * //

dimensions      [0 0 -1 0 0 0 0];


internalField   nonuniform List<scalar> 
78750
(
1412.68
204.725
137.926
72.9424
28.8837
15.9144
18.9446
17.302
17.5839
17.5374
17.0237
17.3986
16.696
17.1172
16.6306
16.7193
16.5503
16.4565
16.3839
16.299
16.2316
16.2616
16.4422
16.5517
16.6005
16.6049
16.5753
16.5149
16.4176
16.2742
16.068
15.7705
15.3451
14.6057
497.243
457.657
24.6349
7.36087
6.63082
13.084
11.3216
11.7435
11.2724
11.2096
10.9499
10.8194
10.6665
10.612
10.6018
10.6593
10.7261
10.7941
10.8631
10.932
10.9983
11.0571
11.1024
11.13
11.1376
11.133
11.1179
11.0903
11.0453
10.9763
10.8759
10.7338
10.526
10.1446
9.03772
739.11
403.247
12.346
12.2018
11.8564
11.5537
11.6675
11.752
11.9035
12.0411
12.19
12.3174
12.4169
12.4796
12.5247
12.5706
12.5579
12.4993
12.4241
12.3518
12.291
12.2434
12.2084
12.1834
12.1651
12.1496
12.1326
12.1102
12.078
12.0325
11.9691
11.8784
11.7314
11.4126
10.6841
744.018
398.929
8.09938
9.56864
10.3742
10.7664
10.8048
10.6648
10.4397
10.1756
9.92233
9.58858
9.41565
8.90428
7.74814
8.91517
10.9367
11.8833
12.2095
12.3588
12.466
12.5618
12.6466
12.7191
12.7781
12.8225
12.8516
12.8648
12.8614
12.837
12.7855
12.6927
12.5137
12.1172
11.6741
748.124
404.744
12.5524
13.881
14.1963
13.9067
13.3608
12.8943
12.5641
12.2766
12.0564
11.8891
11.5475
11.2222
11.2304
11.685
12.0875
12.2308
12.2862
12.3236
12.364
12.4149
12.4759
12.545
12.6206
12.7004
12.7821
12.8659
12.9532
13.0372
13.1042
13.1322
13.0655
12.8014
12.8802
751.906
416.506
14.9592
14.5172
13.5082
11.4865
9.2324
8.67088
9.6859
10.608
11.0044
11.1239
11.1771
11.2234
11.3226
11.4603
11.5554
11.6196
11.6813
11.7423
11.8044
11.8756
11.9596
12.0554
12.1611
12.274
12.3988
12.5451
12.7136
12.896
13.0808
13.2537
13.3737
13.386
13.995
754.645
419.819
14.6509
13.7343
12.2303
10.0972
8.7821
8.76005
9.62434
10.2352
10.4928
10.661
10.7972
10.9067
10.9994
11.0811
11.154
11.222
11.2894
11.3605
11.4382
11.5248
11.6221
11.7305
11.8486
11.975
12.1193
12.2953
12.5012
12.7289
12.9717
13.2278
13.4796
13.7693
14.9006
756.698
421.389
15.5281
14.8895
13.8971
12.4523
10.4393
8.45417
7.80541
8.49929
9.23669
9.59581
9.83108
10.0216
10.1803
10.3165
10.4393
10.5561
10.6702
10.7832
10.8993
11.0226
11.1553
11.2974
11.4461
11.6092
11.8066
12.0541
12.3458
12.6685
13.0154
13.3855
13.7677
14.2875
15.7788
758.353
418.864
15.2451
14.7421
14.0343
13.2888
12.3352
10.966
9.59915
8.83801
8.64453
8.66515
8.76337
8.90171
9.05766
9.21118
9.35095
9.4798
9.60822
9.74622
9.90079
10.0712
10.2537
10.4457
10.6493
10.8745
11.1411
11.4697
11.8659
12.3112
12.7938
13.3194
13.9046
14.7527
16.5675
759.666
411.384
16.4555
17.1453
17.386
17.364
17.12
16.6433
15.9358
15.0822
14.2348
13.4323
12.6466
11.8615
11.0772
10.311
9.59916
8.99804
8.56968
8.33932
8.28203
8.38209
8.61847
8.93143
9.26534
9.60654
9.98301
10.4367
11.0091
11.7048
12.4716
13.2497
14.0798
15.2677
17.2834
760.696
406.395
14.071
15.4347
16.3949
17.2179
17.9406
18.5522
19.0298
19.3373
19.4365
19.3341
19.0703
18.6723
18.1449
17.4831
16.6809
15.7313
14.6243
13.3486
11.8928
10.2694
8.56042
7.07787
6.40961
6.80841
7.58829
8.34144
9.13297
10.0957
11.2775
12.5873
13.9143
15.5707
17.7947
761.929
403.36
11.2501
13.367
14.5997
15.444
16.0754
16.569
16.9807
17.3694
17.7766
18.2042
18.6213
18.9923
19.2861
19.4732
19.5235
19.4079
19.1004
18.5782
17.8128
16.7613
15.3915
13.7104
11.4648
8.42845
5.58884
4.65038
5.44587
7.19781
9.39388
11.5224
13.5291
15.7847
18.2844
763.828
410.625
15.6253
17.6308
18.5054
18.9201
19.1488
19.2866
19.3563
19.3425
19.2174
18.9696
18.6247
18.2452
17.9093
17.6818
17.5948
17.6429
17.7838
17.9501
18.0671
18.0417
17.7428
17.0241
15.728
13.6335
10.65
7.25381
4.36971
3.60505
5.37992
9.50661
12.8876
15.9756
18.8274
766.214
421.683
17.7915
18.3868
18.586
18.7129
18.8497
19.0303
19.269
19.549
19.8099
19.9732
19.9834
19.8167
19.4697
18.9537
18.3092
17.6288
17.0599
16.7234
16.6107
16.6224
16.662
16.6253
16.2721
15.1388
12.8575
9.72681
5.65054
4.92144
4.96175
7.66296
12.3101
16.3704
19.5691
768.619
430.682
17.9765
17.7325
17.6325
17.6081
17.6408
17.7176
17.8243
17.9638
18.1308
18.2925
18.4094
18.4523
18.4038
18.2529
17.9871
17.5915
17.0939
16.6072
16.2369
15.9947
15.8328
15.678
15.3746
14.5324
12.7121
9.93015
5.82421
4.36484
3.57599
6.38058
11.9003
16.8806
20.3508
770.532
427.42
17.801
18.139
18.3787
18.5906
18.7723
18.897
18.907
18.7962
18.6093
18.3867
18.1516
17.9134
17.6712
17.421
17.1591
16.8827
16.5823
16.2438
15.8661
15.4662
15.0511
14.5821
13.9078
12.7654
10.9235
8.33537
5.07123
4.5235
4.85337
6.36931
12.4203
17.766
21.206
771.906
425.121
17.7912
18.0109
18.0481
18.0395
18.0832
18.317
18.6607
18.9118
18.9974
18.9289
18.7344
18.4484
18.1094
17.7493
17.3857
17.0192
16.6378
16.2172
15.7187
15.0917
14.2926
13.3015
12.1116
10.6213
8.57341
5.83678
4.76079
3.77824
3.93283
6.20401
12.9965
18.5571
21.8785
772.704
426.826
18.1092
18.1657
18.0378
17.7824
17.4124
17.1512
17.2638
17.6326
17.9995
18.2426
18.3463
18.3222
18.1856
17.9558
17.6533
17.2948
16.8859
16.4158
15.8459
15.0872
13.9797
12.4132
10.4998
8.472
6.41826
4.92732
3.65278
3.99198
4.8517
6.58693
13.626
19.1565
22.3245
773.113
426.977
18.5732
18.8193
18.8162
18.6932
18.4201
17.9972
17.6253
17.5121
17.6355
17.837
17.9981
18.0739
18.0544
17.941
17.7416
17.4689
17.1348
16.7419
16.2754
15.6846
14.8409
13.5077
11.4267
8.47721
5.07646
4.61317
4.57365
3.75871
4.76953
4.98643
13.3358
19.3471
22.5712
773.825
426.436
18.511
18.6666
18.544
18.2978
17.9522
17.6323
17.4604
17.3854
17.3919
17.4878
17.6187
17.7205
17.7636
17.7418
17.6548
17.4979
17.2672
16.9664
16.589
16.1053
15.4523
14.4813
12.9306
10.4297
6.24776
3.73341
3.95174
4.67831
4.3028
3.98989
13.1376
19.5211
22.8786
775.237
430.52
19.3163
19.3052
19.0728
18.6856
18.0902
17.4067
17.0887
17.2194
17.4309
17.5698
17.662
17.7271
17.7592
17.7514
17.6983
17.5901
17.4172
17.1755
16.8637
16.483
16.0056
15.3448
14.3326
12.7038
10.0262
5.79335
4.58122
4.74969
4.54931
5.03305
13.5022
19.8166
23.2707
776.962
430.174
19.2697
19.385
19.246
18.9304
18.3623
17.4675
16.5837
16.4947
16.99
17.4661
17.7458
17.8771
17.9202
17.9077
17.8503
17.7433
17.58
17.3557
17.0664
16.7081
16.2765
15.7443
15.0075
13.8594
11.9995
8.69435
4.82547
4.12795
3.59636
6.18195
14.4833
20.3964
23.7841
778.523
428.911
19.5439
19.8092
19.674
19.3284
18.7379
17.8374
16.5901
15.8183
16.1573
16.936
17.526
17.8477
17.9919
18.0381
18.0136
17.9228
17.7677
17.5489
17.2655
16.9146
16.4905
15.9839
15.3422
14.3993
12.921
10.6307
7.16242
5.15963
3.64432
5.45526
15.2243
20.8456
24.1484
779.451
433.525
20.0821
19.9262
19.4794
18.7611
17.7363
16.8134
16.1579
15.7313
16.0256
16.8343
17.4763
17.7986
17.9705
18.0613
18.0765
18.016
17.881
17.6721
17.3898
17.0322
16.5941
16.0642
15.4245
14.549
13.1773
10.9403
6.93362
4.74986
4.78059
6.82187
16.2753
21.3799
24.5258
779.876
443.918
20.7259
19.7739
18.7309
17.1336
15.3633
14.9872
15.9306
16.6513
17.1012
17.513
17.7865
17.9574
18.0632
18.1141
18.1095
18.0453
17.9162
17.7181
17.4486
17.1053
16.6854
16.1846
15.5714
14.7425
13.5274
11.6745
8.60368
3.95735
5.09519
5.15035
16.3626
21.8714
24.8992
779.805
443.117
20.0788
19.1271
17.7834
15.7264
14.3286
15.2756
16.7721
17.2586
17.481
17.6862
17.8621
17.994
18.0763
18.1078
18.0861
18.009
17.874
17.6782
17.4189
17.0925
16.6926
16.2056
15.6026
14.8266
13.7673
12.268
9.9323
6.12595
5.4924
5.01139
13.2535
20.7818
24.37
779.603
435.852
20.0132
19.9155
19.4865
18.6861
17.66
16.8314
16.5263
16.4574
16.4953
16.6838
16.9554
17.2354
17.4736
17.6443
17.7379
17.7511
17.6845
17.5395
17.3176
17.0192
16.6411
16.1753
15.6023
14.882
13.9352
12.6534
10.6549
7.33667
4.79749
5.1364
9.25258
19.4379
24.2074
783.203
429.649
19.9624
20.665
21.0989
21.3678
21.3208
20.7298
19.6147
18.4284
17.3316
16.4232
15.8569
15.6996
15.8769
16.2253
16.5892
16.8736
17.0377
17.0745
16.9956
16.8131
16.5217
16.1082
15.5672
14.8985
14.0597
12.9654
11.4682
8.79375
5.15428
7.57697
11.3135
20.7874
25.771
788.469
424.369
19.4254
20.5442
21.0965
21.5081
21.9348
22.4026
22.7271
22.5602
21.7818
20.4812
18.8361
17.1035
15.6509
14.8549
14.8098
15.2106
15.6898
16.0579
16.2563
16.28
16.1396
15.8378
15.366
14.6919
13.7369
12.4293
10.6036
7.37642
7.43107
11.572
17.0126
22.5642
26.4381
786.655
425.238
19.5217
20.5467
20.9073
21.0474
21.1233
21.2711
21.7036
22.4455
23.0396
23.1093
22.5245
21.2339
19.3015
17.0044
14.9473
13.9593
14.0926
14.6305
15.1287
15.4716
15.6338
15.6045
15.3694
14.8959
14.1142
12.9405
11.2327
8.48835
5.23783
12.0135
22.1719
24.6624
26.8562
781.792
435.495
21.16
21.4976
21.6046
21.6614
21.7114
21.7045
21.5592
21.5737
21.9621
22.3604
22.5163
22.3532
21.6716
20.0976
17.641
15.0647
13.6309
13.6179
14.1172
14.5902
14.9436
15.172
15.2557
15.1639
14.8554
14.2647
13.3113
11.9004
9.61374
8.59341
19.4149
24.8633
26.9791
779.955
445.456
22.1699
21.936
21.8524
21.9024
22.16
22.5802
22.8058
22.6838
22.4511
22.2677
22.1025
21.8925
21.556
20.8827
19.3681
16.8808
14.5088
13.4684
13.5003
13.8598
14.2485
14.5911
14.8547
15.0116
15.0351
14.8929
14.5441
13.9741
13.0903
10.6982
9.5206
19.2435
23.5507
778.808
443.443
21.1872
21.0477
20.9932
20.9929
21.1814
21.724
22.397
22.8176
22.9129
22.7866
22.5295
22.181
21.7331
21.1125
20.1003
18.2882
15.8732
14.0363
13.3881
13.4049
13.636
13.92
14.1936
14.4187
14.568
14.6187
14.5489
14.3649
14.1152
12.4532
5.45662
16.2598
23.2108
789.192
439.423
21.391
21.578
21.5384
21.3386
20.9898
20.7389
21.0488
21.7561
22.357
22.668
22.7208
22.5731
22.2576
21.7693
21.0264
19.7849
17.7563
15.4109
13.7891
13.1744
13.0713
13.1537
13.2994
13.4464
13.5518
13.6016
13.6002
13.4327
12.8461
10.2884
9.52163
21.1933
27.7816
801.048
439.98
22.1091
22.3878
22.4321
22.3349
22.0344
21.4207
20.8444
20.9861
21.6054
22.1655
22.4821
22.5714
22.4704
22.1932
21.7196
20.9468
19.5921
17.42
15.0455
13.4275
12.6892
12.3648
12.2256
12.143
12.0496
11.9373
12.0257
13.3694
16.2509
17.9001
18.5879
23.047
27.5746
791.72
441.448
21.932
22.1295
22.2335
22.3004
22.3164
22.1732
21.7219
21.3733
21.5514
21.9813
22.3411
22.5381
22.5784
22.471
22.2044
21.7354
20.9515
19.6046
17.5276
15.1932
13.3202
12.145
11.4679
11.0235
10.69
10.7951
12.429
16.4455
21.8087
26.1381
28.1913
29.5074
30.2451
776.619
441.761
22.0884
22.2841
22.3225
22.2968
22.2477
22.1922
22.079
21.8966
21.9138
22.1787
22.4851
22.7026
22.8053
22.7993
22.6865
22.4553
22.0733
21.4708
20.5156
19.0699
17.2327
15.3932
13.8423
12.6516
11.7478
11.0433
10.9106
12.3916
15.8811
20.0666
23.2178
26.2914
27.814
763.623
442.494
22.5334
22.6888
22.6688
22.6149
22.6069
22.5788
22.416
22.1885
22.1391
22.3746
22.7088
22.9736
23.1252
23.1717
23.1241
22.9857
22.7536
22.4167
21.9514
21.3098
20.4341
19.3229
18.0846
16.8837
15.7933
14.8671
14.3046
13.9548
12.4429
12.41
14.2695
12.3533
13.6741
754.052
444.361
22.6632
22.4735
22.2112
22.0489
22.2792
22.7161
22.9121
22.7676
22.5735
22.667
22.9581
23.2181
23.3676
23.4104
23.3553
23.2013
22.9428
22.5733
22.0874
21.4734
20.7062
19.7624
18.6421
17.4852
16.6287
15.7122
13.8622
12.5597
13.4333
14.63
11.5967
8.3893
15.1153
793.894
450.048
23.3072
22.5143
21.7656
21.339
21.8619
22.7097
23.2441
23.3666
23.2768
23.3031
23.479
23.6233
23.6729
23.6251
23.4631
23.161
22.6956
22.0547
21.2199
20.0953
18.5417
16.6572
14.6993
12.9407
14.8481
19.1262
21.3479
20.6545
18.6112
16.583
16.8779
21.618
27.8401
807.808
458.293
23.6417
22.0485
20.7004
20.3689
21.7958
23.0452
23.7277
24.0234
24.104
24.1436
24.2149
24.2526
24.2181
24.0902
23.8355
23.4159
22.7823
21.8702
20.5617
18.6464
15.9537
12.8881
13.4458
19.7308
25.6801
28.2578
28.0427
26.7354
25.098
23.9169
24.2482
25.925
27.8428
776.535
462.902
23.1171
20.8058
18.8614
19.0436
21.5984
23.1323
23.9788
24.4931
24.7798
24.9143
24.9699
24.9757
24.9291
24.8208
24.6351
24.3472
23.9154
23.2725
22.3168
20.8808
18.7956
16.0831
13.6498
14.6126
19.4197
23.87
26.2332
27.474
28.2822
28.6497
28.6751
28.5288
27.3741
756.231
461.1
22.4607
20.095
17.7367
17.0769
20.0957
22.2557
23.5493
24.4213
25.0105
25.3769
25.5799
25.6699
25.6784
25.6205
25.5024
25.3234
25.0759
24.7457
24.3141
23.7492
22.9913
21.9461
20.5316
18.839
17.4749
17.2288
17.771
18.3383
18.9118
20.1848
22.0417
23.469
24.1505
750.192
457.222
22.4652
20.6072
18.1637
14.566
15.9783
19.7323
22.0202
23.4772
24.4632
25.1298
25.5637
25.8288
25.9689
26.0107
25.9707
25.8601
25.6863
25.4525
25.1623
24.8169
24.4124
23.9396
23.3758
22.7119
21.9454
20.8645
19.2644
17.2918
15.6591
15.3671
16.7613
17.1232
12.2097
751.209
455.246
23.0873
21.6324
19.4563
14.8247
10.2966
15.896
19.5133
21.7399
23.2348
24.2408
24.9097
25.3392
25.5915
25.7024
25.6907
25.5673
25.341
25.019
24.6097
24.1228
23.577
23.0125
22.5174
21.8031
20.6011
20.5853
21.3721
21.5143
20.8659
19.562
17.6348
16.0135
16.6694
779.895
455.376
23.3411
22.2455
20.6619
17.4361
10.9324
12.5488
16.3219
19.074
21.1992
22.7256
23.7571
24.4208
24.8267
25.0294
25.0369
24.8458
24.4558
23.8731
23.1226
22.2666
21.3796
20.324
19.8249
23.281
26.5494
27.1328
26.3476
24.7332
22.2869
19.6279
18.8711
21.0781
24.7623
789.8
452
23.0524
22.7582
22.3043
21.2254
18.6002
13.7942
13.1223
14.3627
16.8453
19.3493
21.3472
22.7619
23.6897
24.2289
24.4659
24.4275
24.0975
23.4591
22.5163
21.1694
19.255
17.6748
19.6326
25.0175
29.204
30.3573
29.8713
28.379
26.0014
23.3904
22.2117
23.0124
24.7154
772.064
446.739
23.2677
23.7007
24.0647
24.2986
23.9834
21.9741
17.9572
13.7981
11.3894
12.4381
15.5269
18.5316
20.7976
22.3657
23.3948
24.0046
24.2448
24.1161
23.5794
22.5686
21.0257
19.0552
17.528
18.6024
22.0768
25.1356
27.1255
28.1678
28.2622
27.6579
26.9272
26.3958
25.6164
759.388
443.223
23.2871
23.7995
24.1188
24.4909
25.0071
25.4893
24.9117
22.3325
17.7528
11.9855
7.80212
9.85594
14.3369
17.8166
20.1963
21.8206
22.9086
23.5962
23.94
23.9444
23.5781
22.7987
21.6104
20.2323
19.2558
19.1665
19.9226
21.2468
22.7712
24.1614
25.2432
25.9416
25.76
756.8
444.047
23.2113
23.5923
23.7268
23.7859
23.8923
24.237
24.9248
25.3759
24.6771
21.8014
16.2458
8.79061
5.16078
10.3096
15.0098
18.0409
20.035
21.4139
22.3868
23.0664
23.4853
23.6452
23.5383
23.1626
22.5481
21.7902
21.0581
20.5152
20.1543
20.1164
20.5481
20.769
20.0755
756.001
447.287
23.6479
24.0763
24.3135
24.4238
24.3937
24.2268
24.0783
24.273
24.7077
24.8034
23.6475
19.7847
12.7985
5.96953
8.98846
13.9138
17.0331
19.0249
20.4122
21.429
22.1934
22.7445
23.0959
23.2547
23.2262
23.0282
22.6554
21.9411
20.8742
20.0866
18.5493
16.4199
17.1874
773.928
449.852
24.1692
24.6142
24.9309
25.175
25.3316
25.3377
25.1046
24.6855
24.4168
24.4112
24.392
23.8103
21.1442
14.2712
7.08634
10.3459
14.7317
17.3206
18.957
20.126
20.9922
21.616
22.0209
22.2245
22.2365
22.0029
21.4462
21.5712
21.7633
20.7515
18.3321
19.2438
23.6723
789.555
451.291
24.0502
24.3357
24.616
24.9032
25.195
25.4568
25.6017
25.4798
25.0769
24.6487
24.3382
24.0225
23.3149
20.5658
12.5466
7.38487
12.0579
15.6141
17.6572
19.0098
19.9729
20.5864
20.8844
20.89
20.559
20.1289
21.0485
23.516
24.4154
23.4192
22.1609
23.0881
25.8169
781.887
452.663
24.1171
24.3218
24.5353
24.7343
24.9243
25.127
25.3578
25.5516
25.5308
25.1983
24.6901
24.1585
23.589
22.6482
19.466
11.5418
9.5618
13.3196
16.0013
17.7496
19.0121
19.8679
20.3002
20.3025
19.9183
19.5094
20.1948
22.5508
24.5061
25.0594
25.1569
25.6054
26.211
767.234
453.422
24.2981
24.5435
24.8047
25.0342
25.2023
25.2924
25.3316
25.4048
25.5375
25.5899
25.4268
25.0346
24.4548
23.6584
22.3099
18.3847
12.4076
12.142
14.585
16.5865
18.0752
19.2168
20.0254
20.4758
20.5452
20.2875
19.9984
20.2746
21.2278
22.351
23.5535
24.6299
25.0662
761.915
453.558
24.2094
24.4266
24.7033
24.9834
25.2411
25.444
25.5538
25.5594
25.5245
25.5022
25.4465
25.277
24.9365
24.3641
23.37
21.3281
16.7303
13.5699
14.3547
16.1138
17.6396
18.8955
19.9262
20.7165
21.2331
21.4334
21.3138
20.9848
20.7143
20.8164
21.3686
21.8308
22.0216
763.008
453.501
24.1038
24.3056
24.5641
24.818
25.052
25.2587
25.4329
25.5655
25.6358
25.625
25.526
25.3339
25.036
24.5972
23.9115
22.6076
19.2532
15.2712
14.7242
16.0686
17.5337
18.8266
19.9704
20.9551
21.748
22.3209
22.7259
22.9981
23.0663
22.9474
22.3671
21.3247
21.9971
774.386
453.163
24.086
24.3241
24.5934
24.8462
25.0708
25.2574
25.3988
25.5069
25.5992
25.6593
25.6378
25.4951
25.2128
24.7707
24.096
22.8937
20.1335
15.8222
14.644
15.8434
17.2797
18.582
19.8205
21.0792
22.4967
24.1282
25.3976
25.9175
25.6998
24.8482
23.5973
23.6505
25.8595
786.611
453.245
24.0997
24.314
24.5619
24.8021
25.032
25.2487
25.4359
25.5773
25.6682
25.7053
25.6686
25.5305
25.2686
24.8553
24.2171
23.1049
20.8492
16.6569
14.63
15.4685
16.7775
18.0507
19.4138
21.1129
23.5409
26.4937
28.166
28.2039
27.3127
25.8966
24.9712
25.7577
27.7647
786.838
453.098
24.0078
24.1695
24.3737
24.5829
24.8128
25.0822
25.3697
25.623
25.8089
25.9163
25.9289
25.829
25.6028
25.2304
24.6552
23.6883
21.8227
18.2141
15.1814
15.2749
16.344
17.4742
18.6854
20.2366
22.6825
26.2164
29.0738
29.6367
28.8187
27.4891
26.5861
26.7777
27.6635
779.682
453.387
24.0107
24.0731
24.1865
24.3157
24.503
24.8163
25.2306
25.6245
25.9061
26.0583
26.0922
26.0138
25.8207
25.4994
25.009
24.2257
22.7967
20.0933
16.8561
15.9013
16.5306
17.4606
18.4178
19.4339
20.8516
23.3753
26.7697
29.1055
29.5456
28.9039
28.1358
27.7328
27.6042
774.936
453.777
24.0419
23.9827
23.9875
24.018
24.1544
24.5444
25.1331
25.7157
26.1555
26.4115
26.4933
26.4252
26.2275
25.9043
25.4312
24.7159
23.502
21.3493
18.5094
16.9876
17.1991
18.0205
18.9604
19.8259
20.5688
21.5512
23.4574
26.0971
28.1528
28.9039
28.8222
28.4757
27.9625
774.806
455.363
24.1492
23.8523
23.677
23.5527
23.636
24.218
25.0889
25.874
26.437
26.7751
26.913
26.8793
26.6988
26.3841
25.9229
25.2481
24.1714
22.343
19.8096
18.0723
17.9748
18.7733
19.913
21.0646
21.9066
22.371
22.8126
23.8205
25.4819
27.0482
27.8169
27.9205
27.7225
777.986
457.066
24.1387
23.574
23.1835
22.8366
22.8451
23.7509
25.0354
26.1025
26.835
27.2777
27.4802
27.4802
27.3089
26.987
26.5134
25.8389
24.8087
23.1075
20.6567
18.6735
18.367
19.3075
20.8778
22.5705
23.8354
24.4542
24.5697
24.5339
24.8018
25.5898
26.4741
27.0561
27.7086
784.298
458.854
24.1576
23.3729
22.7714
22.1502
22.0493
23.3234
24.9837
26.2677
27.1482
27.7108
28.0086
28.0753
27.9393
27.6229
27.1318
26.4279
25.3784
23.7005
21.2587
18.9489
18.3222
19.4695
21.6982
24.1307
25.7921
26.5223
26.5841
26.2152
25.6933
25.5186
26.1161
27.101
28.5269
789.548
459.095
23.9659
23.0719
22.3031
21.3768
21.0251
22.6112
24.6948
26.258
27.3527
28.1039
28.566
28.7663
28.7286
28.4759
28.0211
27.3428
26.3387
24.7615
22.3788
19.6585
18.1393
18.85
21.3465
24.5132
26.7857
27.7648
27.9107
27.502
26.7636
26.2853
26.7672
27.7922
29.2426
789.02
457.994
23.8727
23.0245
22.1874
20.9999
20.0216
21.3429
23.7697
25.7181
27.1371
28.1699
28.8841
29.3066
29.456
29.3507
29.0052
28.4123
27.5071
26.1116
23.961
21.1125
18.6373
18.157
20.1433
23.6242
26.7794
28.2737
28.5753
28.2401
27.5671
27.1418
27.4979
28.2353
29.2161
784.316
456.493
23.8618
23.0714
22.2201
20.9081
19.3149
19.859
22.5225
24.9343
26.733
28.0758
29.0673
29.7488
30.1401
30.2564
30.1111
29.7081
29.0197
27.9474
26.2809
23.817
20.8501
18.542
18.4454
21.0326
24.8441
27.6824
28.7447
28.7804
28.3536
27.9673
28.0263
28.336
28.7582
779.816
456.143
24.0013
23.1353
22.1727
20.7212
18.9264
18.6869
21.327
24.1587
26.3138
27.9172
29.1383
30.0469
30.6692
31.017
31.0983
30.9168
30.4609
29.6803
28.4598
26.6051
24.0442
21.2347
19.1394
19.0497
21.5874
25.2242
27.7012
28.5448
28.6161
28.4697
28.421
28.4608
28.5248
778.365
458.134
24.1994
23.0286
21.7251
19.86
18.3915
18.5045
21.1312
24.0837
26.3447
28.0311
29.3404
30.3632
31.1302
31.6489
31.918
31.932
31.6762
31.1112
30.155
28.6702
26.5149
23.8237
21.1858
19.3855
19.5294
22.155
25.6674
27.7719
28.4139
28.5163
28.4815
28.4276
28.3949
778.83
461.404
24.2796
22.6531
20.7692
18.1103
17.1202
18.3571
21.2427
24.1895
26.4269
28.1081
29.4488
30.5506
31.4463
32.1384
32.6165
32.8656
32.8683
32.5989
32.0148
31.0381
29.5575
27.4879
24.9476
22.3878
20.4871
20.3992
22.8749
26.1035
27.7537
28.2826
28.4132
28.4213
28.47
780.223
465.157
24.2395
22.1243
19.5422
16.1187
15.9465
18.1768
21.1243
23.9384
26.0965
27.7449
29.0924
30.2451
31.2427
32.0906
32.7755
33.2742
33.5586
33.5964
33.3502
32.7647
31.7627
30.2596
28.2183
25.7508
23.2028
21.2491
21.2799
24.0104
26.8141
27.9803
28.3869
28.5343
28.6908
781.405
465.579
23.7905
21.494
18.4605
14.4974
14.8303
17.2807
19.8866
22.6519
24.9311
26.6881
28.1032
29.3132
30.3831
31.3361
32.1699
32.8651
33.3905
33.7083
33.7787
33.5546
32.9786
31.9861
30.521
28.5724
26.222
23.7363
21.9033
22.4349
25.3781
27.509
28.311
28.6416
28.9065
782.067
461.881
23.456
21.6886
19.1633
15.0315
13.5109
15.5848
17.7089
20.4405
23.1446
25.2988
26.9355
28.2613
29.4024
30.419
31.3332
32.1427
32.8281
33.3569
33.6914
33.7871
33.5939
33.058
32.1269
30.7625
28.9601
26.7768
24.4629
22.9341
23.8337
26.2982
27.7765
28.4676
28.9941
783.234
456.292
23.5262
22.6309
21.2739
18.3138
13.7316
14.0902
16.6184
19.2981
21.9899
24.2875
26.0341
27.4043
28.559
29.5874
30.5303
31.4001
32.1888
32.873
33.4198
33.7879
33.9299
33.7952
33.3328
32.4967
31.2574
29.6153
27.6243
25.5383
24.2814
25.0759
26.7523
27.862
28.824
785.303
454.357
23.9987
23.4915
22.8614
21.4759
17.0852
10.8222
11.2684
14.7909
18.5011
21.7287
24.1773
25.9444
27.2892
28.4076
29.3998
30.3152
31.1731
31.9706
32.6896
33.2976
33.7498
33.9934
33.9737
33.6408
32.9557
31.8985
30.474
28.7175
26.8329
25.6887
26.2392
27.4127
28.8318
788.728
455.307
23.7638
23.061
22.3958
21.4948
19.6025
13.0256
8.50394
10.7633
15.0156
19.2102
22.4709
24.7211
26.2789
27.4626
28.4572
29.3542
30.1985
31.0067
31.7788
32.5004
33.142
33.6557
33.9782
34.0437
33.7995
33.2124
32.2619
30.9157
29.1381
27.3156
26.9217
27.9097
29.5723
792.925
456.051
23.7274
23.0044
22.2792
21.1882
19.3727
15.4779
9.70229
11.3707
14.9153
18.5518
21.6946
24.0238
25.6361
26.8134
27.7686
28.6134
29.4057
30.1721
30.9228
31.6578
32.3675
33.0242
33.5711
33.9245
33.9986
33.7311
33.0766
31.9735
30.3807
28.7112
28.2528
29.0071
30.4609
794.297
456.834
23.9183
23.2226
22.5525
21.5234
19.6715
16.5363
9.06289
8.91908
13.409
17.7618
21.2051
23.6296
25.2394
26.3702
27.2664
28.05
28.7831
29.4949
30.199
30.9011
31.6037
32.2987
32.9485
33.4726
33.7634
33.7245
33.2833
32.3844
31.075
29.8375
29.4979
29.9094
30.8372
791.82
457.216
23.7851
23.04
22.374
21.4001
19.6924
16.7465
11.4928
9.12881
12.6767
16.7578
20.3886
23.0598
24.7846
25.9376
26.8169
27.5665
28.2568
28.9226
29.5818
30.2463
30.9278
31.6324
32.336
32.9579
33.3811
33.5076
33.2722
32.6467
31.7303
30.9051
30.5738
30.6231
30.968
788.637
457.485
23.7316
22.9422
22.244
21.2251
19.4504
16.5282
12.4068
8.32419
11.5588
14.9344
18.701
21.9038
24.0265
25.365
26.3086
27.0693
27.7401
28.3643
28.9655
29.5634
30.1851
30.8642
31.613
32.3571
32.9242
33.1758
33.0844
32.6845
32.0933
31.5486
31.2129
31.0306
30.9591
786.466
457.559
23.6035
22.7855
22.0652
21.0126
19.2862
16.7016
12.8314
8.52837
12.2888
14.4416
16.9194
20.1265
23.0056
24.853
25.9935
26.814
27.488
28.0828
28.6256
29.134
29.6358
30.1838
30.8502
31.6554
32.4409
32.9285
33.0036
32.7509
32.3229
31.8859
31.5195
31.1942
30.8451
784.433
456.906
23.55
22.7878
22.1191
21.1462
19.5195
16.9858
13.1605
8.49609
12.0572
14.7968
16.2846
18.1242
20.7045
23.2654
25.0542
26.2207
27.0759
27.7691
28.3564
28.8589
29.2952
29.7043
30.1662
30.7903
31.5954
32.3527
32.7562
32.757
32.499
32.1321
31.7356
31.3061
30.7427
782.791
456.353
23.4214
22.6129
21.9128
20.9453
19.4872
17.4306
14.5364
10.4667
10.0199
14.5161
16.4104
17.6821
19.2601
21.5021
23.7744
25.4246
26.5654
27.4293
28.1349
28.7227
29.2044
29.5939
29.9322
30.3099
30.8458
31.5408
32.158
32.4626
32.452
32.2306
31.8835
31.4404
30.8282
783.561
456.369
23.3746
22.5134
21.7815
20.8309
19.5815
17.961
15.6566
12.0541
7.57615
12.586
15.602
17.1759
18.4759
20.0963
22.2096
24.2193
25.7254
26.8394
27.7226
28.4548
29.0592
29.5403
29.9096
30.2079
30.5251
30.9618
31.4808
31.8808
32.0332
31.9571
31.7221
31.3881
30.9875
786.348
456.758
23.2947
22.3177
21.478
20.4016
19.1407
17.751
15.9213
13.166
8.99245
10.0049
14.6778
16.8801
18.3499
19.8335
21.6854
23.6793
25.2883
26.4782
27.4191
28.2211
28.9178
29.5023
29.9625
30.3054
30.5762
30.8662
31.2343
31.5807
31.7623
31.7595
31.6285
31.4391
31.2876
788.452
457.35
23.1718
22.0714
21.1205
19.9146
18.6364
17.4338
15.9797
13.7607
9.8647
7.97484
13.4486
16.4453
18.1919
19.7625
21.5558
23.5241
25.173
26.3528
27.2471
28.0081
28.7012
29.3291
29.8639
30.2804
30.5847
30.8348
31.1184
31.4221
31.6124
31.6397
31.551
31.4145
31.3261
788.61
457.132
22.9446
21.7658
20.7159
19.3781
18.0878
16.9972
15.7365
14.0718
11.3259
5.32088
9.66472
15.5301
17.9054
19.6647
21.541
23.609
25.4334
26.6717
27.4962
28.1351
28.7077
29.2586
29.7829
30.2436
30.6026
30.8616
31.0875
31.3403
31.5432
31.6079
31.5561
31.4589
31.4466
790.045
456.619
22.8148
21.6023
20.4907
19.0502
17.7293
16.775
15.6203
13.955
11.5539
8.50987
8.21482
14.4945
17.3459
19.1799
21.0049
23.0893
25.2349
26.9081
27.9411
28.5808
29.0485
29.4552
29.8524
30.253
30.6252
30.9141
31.1119
31.283
31.4407
31.5222
31.5287
31.5255
31.6889
792.025
456.363
22.7125
21.4665
20.3043
18.7426
17.2722
16.4716
15.7344
14.5898
12.6539
9.40034
7.74935
11.3004
16.316
18.5372
20.2326
22.0616
24.1845
26.3104
27.9606
28.9823
29.5751
29.9521
30.2339
30.4942
30.7815
31.079
31.3139
31.4687
31.5741
31.6293
31.6479
31.6759
31.8484
791.264
455.849
22.5866
21.37
20.2121
18.5738
16.8189
15.7657
14.9196
13.8239
12.2296
9.52454
4.66804
8.07213
15.1085
17.8956
19.5668
21.0698
22.7632
24.754
26.8098
28.5185
29.6554
30.3119
30.6756
30.8819
31.0394
31.2382
31.4673
31.6438
31.7339
31.7465
31.7061
31.6257
31.4908
786.493
455.153
22.5283
21.4064
20.3456
18.7901
16.8736
15.756
15.1387
14.2322
12.7534
10.4038
6.94989
6.47538
12.9341
16.9921
19.0116
20.4214
21.7287
23.2196
25.0064
26.9541
28.7116
29.9834
30.7481
31.1498
31.3386
31.4583
31.611
31.7766
31.8825
31.901
31.8396
31.681
31.2742
782.98
453.986
22.4055
21.4157
20.4738
19.0247
16.8552
15.0585
14.3063
13.6462
12.5076
10.4378
6.59557
4.36479
11.5015
17.246
19.5095
20.8186
21.8305
22.8261
23.9912
25.4627
27.1979
28.8949
30.2041
31.0111
31.4167
31.5788
31.6464
31.7024
31.7378
31.7204
31.635
31.4475
30.985
782.143
452.781
22.3618
21.4851
20.6792
19.4899
17.5711
15.4056
14.2841
13.6742
12.7257
11.0426
8.09255
7.69451
8.40822
16.7597
19.8337
21.4955
22.6169
23.4715
24.2381
25.1026
26.2584
27.7436
29.3031
30.5644
31.3547
31.7389
31.8631
31.8519
31.7727
31.6496
31.4864
31.2623
30.8633
783.214
452.204
22.2297
21.3114
20.4818
19.3419
17.6248
15.3977
13.941
13.5231
12.9848
11.8038
9.45077
5.17299
7.51237
14.666
20.1002
22.2326
23.495
24.3761
25.048
25.6258
26.2865
27.2341
28.5179
29.8949
31.0095
31.6931
31.9971
32.0439
31.9345
31.7352
31.4854
31.1851
30.7306
782.45
452.139
22.101
21.0307
20.0549
18.8132
17.3175
15.573
14.0061
13.4775
13.1124
12.2399
10.5283
7.59695
6.78143
10.9446
19.4841
22.5519
24.1933
25.2184
25.8988
26.3837
26.8016
27.3282
28.1386
29.2397
30.3935
31.3042
31.8465
32.0666
32.061
31.9093
31.6637
31.3314
30.7745
781.151
452.578
21.8969
20.593
19.3422
17.7231
16.1415
14.9907
14.0285
13.7147
13.6218
13.1207
11.9284
9.55375
5.88264
9.08079
17.1005
22.3777
24.4512
25.8646
26.7665
27.3113
27.6478
27.9152
28.274
28.8585
29.6577
30.4917
31.1536
31.5458
31.6841
31.6294
31.432
31.1089
30.5423
780.8
451.911
21.6896
20.3191
18.9221
17.0185
15.2206
14.4055
14.0886
14.0196
14.1081
13.9393
13.2586
11.7555
8.9483
8.40577
11.0319
20.7954
24.2929
25.6482
26.827
27.8172
28.5003
28.9153
29.1704
29.3857
29.6662
30.0516
30.4913
30.8754
31.1062
31.1496
31.0338
30.817
30.5455
784.858
450.41
21.5521
20.2985
18.9847
17.0485
14.8022
13.5848
13.6153
13.9792
14.3773
14.6582
14.6658
14.2193
12.9961
10.1345
5.42483
11.2691
21.2654
25.6036
26.6299
27.0361
27.5007
28.0766
28.6378
29.0964
29.4456
29.7204
29.9591
30.1828
30.377
30.518
30.6184
30.7448
31.1146
791.957
448.193
21.5798
20.658
19.7525
18.346
16.1426
13.7821
12.694
12.9565
13.6535
14.3314
14.8611
15.1852
15.1931
14.6268
12.8758
9.3502
10.3594
18.8636
26.065
29.2852
30.1977
30.3288
30.2758
30.2326
30.2283
30.2372
30.2375
30.2479
30.3395
30.5676
30.8987
31.3131
32.0334
795.336
447.99
21.8821
21.134
20.5338
19.71
18.2401
15.7967
12.8995
11.3008
11.5069
12.4954
13.5387
14.4298
15.1591
15.7497
16.1658
16.1446
15.3357
14.7222
16.0379
20.4617
25.7956
29.2472
30.7922
31.3082
31.3567
31.2014
30.9726
30.7516
30.6547
30.8045
31.1386
31.5412
32.1286
793.452
450.556
22.0191
21.107
20.4601
19.728
18.6951
17.0589
14.3214
11.2871
9.57745
9.69712
10.708
11.8629
13.0052
14.138
15.1025
16.1287
16.9715
17.3451
17.7455
17.5054
17.4388
19.847
23.5414
26.6801
28.7416
29.9134
30.5155
30.7702
30.8827
31.0748
31.3882
31.7443
32.2656
795.497
453.658
21.8862
20.6887
19.808
18.7132
17.1904
15.1465
12.0721
9.22589
7.42034
7.64311
8.80886
10.0745
11.6858
13.6745
15.1864
16.6779
18.6379
20.2827
20.8029
18.7752
16.8583
19.4136
23.5104
26.6729
28.7139
29.9569
30.684
31.0748
31.3154
31.5707
31.868
32.1938
32.7424
798.366
454.276
21.4695
20.1507
19.0853
17.6256
15.5965
12.8294
8.67143
6.85943
4.84396
5.79873
7.74555
10.2896
14.7794
19.522
21.8544
22.4219
22.5279
22.5166
22.2085
22.3046
24.0852
26.4099
28.3516
29.7889
30.7723
31.3837
31.7208
31.8991
32.0342
32.1809
32.3295
32.4854
32.7826
795.876
452.603
21.131
19.8634
18.7454
17.1678
15.043
12.368
8.92114
6.98391
4.57657
4.7246
7.62803
11.479
16.6363
21.1134
22.7693
22.697
22.5606
23.1607
24.4036
25.9863
28.0853
29.9436
31.1601
31.9225
32.3732
32.5847
32.6304
32.5988
32.5545
32.5116
32.457
32.392
32.3948
792.418
450.908
20.9312
19.7183
18.6403
17.1211
14.9814
12.1911
8.67491
6.25605
4.68698
5.4242
5.48378
5.40342
10.2747
16.8839
22.0479
23.5704