/*--------------------------------*- C++ -*----------------------------------*\
| =========                 |                                                 |
| \\      /  F ield         | OpenFOAM: The Open Source CFD Toolbox           |
|  \\    /   O peration     | Version:  v2006                                 |
|   \\  /    A nd           | Website:  www.openfoam.com                      |
|    \\/     M anipulation  |                                                 |
\*---------------------------------------------------------------------------*/
FoamFile
{
    version     2.0;
    format      ascii;
    class       volScalarField;
    location    "42";
    object      nut;
}
// * * * * * * * * * * * * * * * * * * * * * * * * * * * * * * * * * * * * * //

dimensions      [0 2 -1 0 0 0 0];


internalField   nonuniform List<scalar> 
78750
(
0.000467466
0.00106974
0.000757893
0.000246937
2.21773e-05
8.78578e-06
3.43677e-05
2.32795e-05
4.28367e-05
4.40755e-05
5.05695e-05
5.46129e-05
5.70233e-05
5.99007e-05
6.27025e-05
6.55203e-05
6.83304e-05
7.08931e-05
7.17962e-05
7.16703e-05
7.15051e-05
7.12914e-05
7.09727e-05
7.0543e-05
6.99909e-05
6.9295e-05
6.84211e-05
6.73196e-05
6.48067e-05
5.97927e-05
5.35142e-05
4.57498e-05
3.35981e-05
1.34237e-05
7.57767e-07
1.65511e-05
0.000100369
1.02477e-05
4.85148e-05
2.81723e-05
2.35033e-05
1.95569e-05
2.27728e-05
2.90867e-05
4.3279e-05
6.51509e-05
8.56793e-05
0.000101198
0.000121648
0.000153209
0.00017231
0.000174903
0.000177107
0.000178733
0.000179797
0.000180407
0.000180696
0.000171305
0.000164776
0.000160931
0.000158314
0.000156433
0.000154396
0.000151192
0.000145295
0.000132375
0.000103336
5.02817e-05
1.18711e-05
1.345e-06
1.26585e-06
2.69686e-05
9.56112e-05
0.000146051
0.00011854
7.79722e-05
5.00512e-05
3.63252e-05
3.1586e-05
3.06777e-05
3.28909e-05
4.08176e-05
5.84856e-05
8.11044e-05
9.20124e-05
9.51815e-05
0.000101641
0.000116162
0.000138485
0.000147933
0.000151122
0.000154179
0.000156961
0.000159508
0.000161852
0.000158486
0.000142088
0.000126495
0.000110582
9.1099e-05
6.6363e-05
4.03423e-05
2.2922e-05
1.65577e-05
3.22925e-06
3.32604e-06
1.43142e-05
3.97719e-05
7.72996e-05
6.15666e-05
4.34567e-05
3.67215e-05
3.61286e-05
3.82716e-05
4.1523e-05
4.48394e-05
4.81859e-05
5.37524e-05
7.12329e-05
0.0001217
0.0001619
0.000159814
0.000158281
0.000157289
0.000156785
0.000156726
0.000157062
0.000157744
0.000158714
0.000159904
0.000161236
0.000162615
0.000163928
0.000157112
0.000125671
9.1903e-05
5.05791e-05
1.67407e-05
9.14125e-06
3.72138e-06
5.72664e-06
3.82082e-05
0.000101812
4.25033e-05
2.49976e-05
2.15996e-05
2.3008e-05
2.91917e-05
5.2923e-05
0.000142497
0.000165505
0.000162692
0.000160052
0.000157723
0.000155699
0.000153982
0.000152572
0.000151485
0.000150744
0.00015037
0.000150377
0.000150769
0.00015152
0.000152574
0.000153851
0.00015525
0.000156662
0.000157962
0.000105055
6.46941e-05
3.78081e-05
2.17629e-05
1.59485e-05
1.91261e-05
5.29741e-06
6.88647e-06
5.56355e-05
3.9269e-05
1.86303e-05
1.84249e-05
3.07886e-05
3.62736e-05
3.50425e-05
3.6258e-05
4.1337e-05
4.86346e-05
5.5738e-05
6.19888e-05
6.86408e-05
7.69559e-05
8.77774e-05
0.000101249
0.000117244
0.000135601
0.000154763
0.000157303
0.000156455
0.000155767
0.000155245
0.000154871
0.000154603
0.000154381
0.000154126
0.000143931
0.000100403
5.77902e-05
2.31116e-05
9.36256e-06
1.10489e-05
5.70096e-06
7.24559e-06
7.09893e-05
4.38701e-05
4.47969e-05
5.92984e-05
5.04018e-05
3.93972e-05
3.37739e-05
3.21724e-05
3.33647e-05
3.70865e-05
4.29205e-05
4.98573e-05
5.7014e-05
6.47533e-05
7.47846e-05
8.92899e-05
0.000109078
0.000131154
0.000148816
0.000152953
0.000152202
0.000151546
0.000151017
0.000150625
0.000150356
0.000150167
0.000134796
9.23671e-05
5.34291e-05
2.70819e-05
1.45282e-05
1.15389e-05
2.00947e-05
6.83586e-06
4.45979e-06
2.0423e-05
4.79559e-05
7.9962e-05
8.67119e-05
6.52845e-05
4.75608e-05
3.70986e-05
3.05541e-05
2.64832e-05
2.46455e-05
2.52987e-05
2.91145e-05
3.67453e-05
4.72484e-05
5.71378e-05
6.3685e-05
6.84709e-05
7.5322e-05
8.64232e-05
0.00010144
0.000117177
0.000129397
0.000136183
0.000138403
0.000137269
0.000132807
0.000124026
0.000108109
7.84568e-05
3.66004e-05
1.17799e-05
7.44711e-06
1.54012e-05
7.27545e-06
4.02988e-06
2.34417e-05
7.08597e-05
0.000125904
0.000144037
0.000149537
0.000140637
0.000107159
7.17563e-05
4.98878e-05
3.72809e-05
2.94899e-05
2.46804e-05
2.24182e-05
2.32811e-05
2.91702e-05
4.32801e-05
6.52725e-05
8.54584e-05
9.91556e-05
0.00010795
0.000111135
0.000109806
0.000106927
0.00010409
0.000101263
9.75389e-05
9.09594e-05
7.76037e-05
5.23201e-05
2.33602e-05
9.70489e-06
8.47384e-06
2.23856e-05
8.15533e-06
3.78773e-06
1.53949e-05
4.36726e-05
8.9727e-05
0.000124426
0.000133644
0.000127945
0.000116916
0.00010388
8.88275e-05
7.28121e-05
5.7969e-05
4.55279e-05
3.57355e-05
2.84706e-05
2.36513e-05
2.17376e-05
2.44696e-05
3.56018e-05
5.53717e-05
6.95234e-05
7.63053e-05
8.13273e-05
8.39767e-05
8.36351e-05
8.16401e-05
7.91474e-05
7.64376e-05
7.23653e-05
5.97766e-05
2.79737e-05
8.0538e-06
6.1671e-06
1.87364e-05
8.55849e-06
4.13492e-06
1.85273e-05
4.9701e-05
9.81805e-05
0.000130009
0.000130366
0.000111863
8.93517e-05
7.37642e-05
6.75704e-05
6.97549e-05
7.86447e-05
8.81198e-05
8.41553e-05
6.52602e-05
4.63544e-05
3.30291e-05
2.47355e-05
2.09563e-05
2.33619e-05
3.84557e-05
6.62211e-05
7.56374e-05
7.42674e-05
7.11384e-05
6.59454e-05
5.92954e-05
5.24147e-05
4.61793e-05
3.68376e-05
1.54844e-05
5.849e-06
7.15963e-06
2.40538e-05
9.19218e-06
5.22244e-06
2.2023e-05
6.67681e-05
0.000127671
0.000146172
0.000132894
0.00010678
8.38137e-05
6.92415e-05
6.0252e-05
5.5556e-05
5.78287e-05
7.17385e-05
0.000100696
0.000132142
0.000124869
8.24029e-05
5.03559e-05
3.29434e-05
2.4026e-05
2.1481e-05
2.74258e-05
4.88321e-05
7.33143e-05
7.60305e-05
6.89387e-05
5.77547e-05
4.38025e-05
2.78011e-05
1.11393e-05
1.76481e-06
7.4956e-07
2.43227e-06
1.59139e-05
9.59675e-06
6.97311e-06
4.249e-05
0.000142705
0.000147943
0.000123444
9.11687e-05
6.69683e-05
5.83085e-05
6.49654e-05
8.22469e-05
9.35034e-05
9.09447e-05
9.20349e-05
0.000110121
0.000145068
0.00017496
0.000163817
0.000109804
6.18934e-05
3.61945e-05
2.41371e-05
2.02637e-05
2.46947e-05
4.40549e-05
6.72009e-05
6.4833e-05
5.06338e-05
3.21878e-05
1.14678e-05
1.85611e-07
2.47032e-06
1.3415e-06
7.13716e-06
3.50244e-05
9.7695e-06
7.58143e-06
4.75714e-05
0.000120615
0.000129672
0.000114947
8.88317e-05
6.66586e-05
5.66533e-05
5.9669e-05
7.49394e-05
9.64674e-05
0.000110355
0.000110417
0.000107438
0.000111784
0.00012351
0.000133864
0.000128716
9.99377e-05
6.27298e-05
3.71188e-05
2.42542e-05
1.9825e-05
2.24771e-05
3.41105e-05
4.63095e-05
4.21591e-05
2.77717e-05
9.89034e-06
1.47129e-06
3.23481e-07
8.188e-07
1.00815e-05
7.74635e-05
9.72618e-06
6.82033e-06
4.21983e-05
0.000116846
0.000142552
0.000140266
0.000124088
0.000102462
8.19908e-05
6.75378e-05
6.13223e-05
6.31875e-05
7.24665e-05
8.78944e-05
0.000105164
0.000118503
0.000127256
0.00013425
0.000138963
0.000135342
0.000113955
7.61691e-05
4.39633e-05
2.68444e-05
2.01384e-05
2.0449e-05
2.69659e-05
3.16788e-05
2.65102e-05
1.55513e-05
2.31567e-06
3.26946e-06
7.08425e-07
4.15158e-06
3.40115e-05
9.51191e-06
5.8472e-06
2.83622e-05
8.77702e-05
0.000127841
0.000136221
0.000131582
0.000118787
0.000100515
8.13085e-05
6.56847e-05
5.54164e-05
5.04117e-05
5.07593e-05
5.75501e-05
7.22982e-05
9.44714e-05
0.000118748
0.000138227
0.000150086
0.000153401
0.000142116
0.000106558
6.22779e-05
3.52934e-05
2.35573e-05
2.02079e-05
2.2179e-05
2.2655e-05
1.55872e-05
3.10866e-06
2.53676e-06
8.27536e-07
4.63138e-06
3.4245e-05
9.78799e-06
5.47589e-06
2.50539e-05
7.56144e-05
0.000129608
0.000142452
0.000135339
0.000121998
0.000109116
9.84221e-05
8.76691e-05
7.48485e-05
6.16168e-05
5.11714e-05
4.59145e-05
4.77472e-05
5.91583e-05
8.33949e-05
0.0001204
0.000159125
0.000183834
0.00019029
0.000179839
0.000146649
9.27182e-05
5.08131e-05
3.06457e-05
2.25038e-05
2.01173e-05
1.68523e-05
1.14786e-05
1.62541e-06
6.68955e-07
2.2202e-06
2.6676e-05
9.71728e-06
5.78883e-06
2.51522e-05
7.78874e-05
0.000133414
0.000147244
0.000139174
0.000120108
9.95773e-05
8.56397e-05
8.04675e-05
8.08722e-05
7.87714e-05
6.7999e-05
5.42388e-05
4.56395e-05
4.55456e-05
5.57734e-05
7.91923e-05
0.000118488
0.000168787
0.00021019
0.000223318
0.000207675
0.00016951
0.000116147
6.88139e-05
4.20442e-05
2.93207e-05
2.26465e-05
1.94698e-05
7.75966e-07
1.1235e-06
2.07637e-07
8.66993e-06
1.03136e-05
6.21114e-06
2.87927e-05
8.61253e-05
0.000136617
0.000148194
0.000139138
0.000118395
9.49527e-05
7.71029e-05
6.80313e-05
6.81766e-05
7.64726e-05
8.49995e-05
7.77755e-05
6.00113e-05
5.01569e-05
5.40461e-05
7.57389e-05
0.000124894
0.000204647
0.000260988
0.000261849
0.000260904
0.000257831
0.000225174
0.000138347
7.5554e-05
4.28016e-05
1.86586e-05
5.42949e-06
1.28452e-06
1.93881e-06
7.1225e-06
4.26972e-05
1.11738e-05
6.78599e-06
3.0727e-05
9.27645e-05
0.000136676
0.000140323
0.000126162
0.000103887
8.41603e-05
7.15613e-05
6.40971e-05
6.05609e-05
6.3209e-05
7.34714e-05
8.3806e-05
7.67676e-05
6.02888e-05
5.54468e-05
6.96572e-05
0.00011092
0.000186587
0.000263348
0.000265622
0.000266024
0.000263898
0.000217953
0.000126976
6.07502e-05
2.36321e-05
2.35146e-06
8.90712e-07
7.21503e-06
2.16431e-05
8.03063e-05
4.95199e-05
1.05942e-05
7.18315e-06
3.46092e-05
0.000107012
0.000142395
0.000133638
0.000107402
7.99516e-05
6.38081e-05
6.00065e-05
6.3724e-05
6.72258e-05
6.76666e-05
7.03305e-05
7.67374e-05
7.80329e-05
6.81899e-05
6.04324e-05
6.64616e-05
8.9848e-05
0.000125971
0.000156908
0.00016793
0.000161587
0.000145034
0.000122241
9.47354e-05
6.65569e-05
4.47271e-05
3.0659e-05
2.06129e-05
1.5914e-05
2.18825e-05
3.68741e-05
5.80185e-05
8.12861e-06
7.61698e-06
3.89572e-05
0.000116887
0.000138285
0.0001232
9.40831e-05
6.74704e-05
5.29016e-05
4.98555e-05
5.54284e-05
6.44659e-05
7.0311e-05
7.27071e-05
7.44726e-05
7.25595e-05
6.46399e-05
5.94525e-05
6.59152e-05
8.58672e-05
0.000110867
0.000126925
0.000130222
0.000125561
0.000117056
0.00010676
9.79134e-05
9.70763e-05
0.000108009
0.000116997
9.05191e-05
5.30493e-05
5.11575e-05
1.30092e-05
5.78154e-06
6.66727e-06
7.55105e-06
4.17385e-05
0.000117598
0.000131943
0.000113283
8.35963e-05
6.06131e-05
4.96817e-05
4.85129e-05
5.39254e-05
6.1098e-05
6.60341e-05
7.07173e-05
7.74911e-05
8.18045e-05
7.99378e-05
8.15803e-05
9.8442e-05
0.000128343
0.000149209
0.00015205
0.000145373
0.000135189
0.000123935
0.000114118
0.000107686
0.000100739
7.78625e-05
5.31975e-05
4.3214e-05
3.7835e-05
2.48104e-05
8.59578e-06
1.49536e-05
1.11272e-05
7.42968e-06
4.07399e-05
0.000116855
0.000131404
0.000112909
8.31492e-05
5.97976e-05
4.80258e-05
4.53006e-05
4.80815e-05
5.17165e-05
5.34895e-05
5.67318e-05
6.54007e-05
7.87711e-05
9.59245e-05
0.000123798
0.000171681
0.000228833
0.000258304
0.000258071
0.000254776
0.000217539
0.000159911
9.63529e-05
4.86374e-05
2.7096e-05
2.56869e-05
4.39564e-05
7.81589e-05
7.64158e-05
5.30509e-05
4.51673e-05
9.85846e-05
1.17461e-05
7.35032e-06
4.07699e-05
0.000114673
0.000130104
0.000113736
8.54988e-05
6.05119e-05
4.59508e-05
4.09439e-05
4.24085e-05
4.56335e-05
4.66649e-05
4.92279e-05
6.16822e-05
8.86628e-05
0.000120177
0.000139759
0.000149611
0.000158513
0.000168202
0.000175836
0.000177987
0.000171048
0.000151416
0.00011439
6.51038e-05
3.14586e-05
2.0506e-05
2.5216e-05
4.83293e-05
8.90547e-05
0.000102685
0.000109721
7.20682e-05
1.02194e-05
7.45011e-06
3.98408e-05
0.000112199
0.000129919
0.00011677
9.28631e-05
6.88013e-05
5.10839e-05
4.22313e-05
4.21521e-05
4.91744e-05
5.7093e-05
5.66636e-05
5.07762e-05
5.05329e-05
6.16702e-05
8.40024e-05
0.000109695
0.000128281
0.000135798
0.000135031
0.000131926
0.000132708
0.000138404
0.000135831
0.000107944
6.57533e-05
3.55726e-05
2.39006e-05
2.48146e-05
3.75774e-05
6.72591e-05
9.74372e-05
5.61323e-05
8.52557e-06
7.29967e-06
3.86265e-05
0.000110234
0.000130741
0.000116765
9.27826e-05
7.19365e-05
5.66806e-05
4.62167e-05
4.20421e-05
4.57519e-05
5.69403e-05
6.89431e-05
6.87628e-05
5.86329e-05
5.56243e-05
6.95443e-05
0.000103305
0.000143252
0.000164102
0.000160487
0.000143287
0.00012134
0.000100232
8.63158e-05
7.97131e-05
7.42047e-05
6.36917e-05
4.82999e-05
3.579e-05
3.14571e-05
3.66352e-05
5.56775e-05
5.46047e-05
8.7206e-06
7.42098e-06
3.82814e-05
0.000109786
0.000130964
0.000115699
9.03105e-05
7.05984e-05
5.80144e-05
4.9091e-05
4.37223e-05
4.42565e-05
5.2218e-05
6.59027e-05
7.6125e-05
7.17476e-05
6.06073e-05
6.01133e-05
8.05187e-05
0.000122862
0.000156445
0.000153344
0.00012408
8.72671e-05
6.04283e-05
5.34048e-05
7.10378e-05
0.000114878
0.000136503
0.000112921
7.51924e-05
4.65977e-05
3.47094e-05
4.79043e-05
6.89202e-05
9.40641e-06
7.43463e-06
3.77593e-05
0.000108157
0.000128063
0.000106935
8.00189e-05
6.45117e-05
5.75472e-05
5.27132e-05
4.80845e-05
4.65682e-05
5.09594e-05
6.10048e-05
7.16958e-05
7.43626e-05
6.66372e-05
5.83876e-05
5.97585e-05
7.44259e-05
9.65202e-05
0.00010965
0.000107442
9.20836e-05
6.92141e-05
5.31751e-05
5.33231e-05
7.43874e-05
0.000121508
0.000154563
0.000129308
8.19996e-05
5.44943e-05
6.34989e-05
9.32893e-05
9.83789e-06
7.62567e-06
3.75235e-05
0.000108714
0.000124224
9.52026e-05
6.80142e-05
5.68214e-05
5.46717e-05
5.41223e-05
5.20117e-05
5.03854e-05
5.26826e-05
5.98312e-05
6.87632e-05
7.3112e-05
6.87987e-05
6.00309e-05
5.46458e-05
5.66795e-05
6.69601e-05
8.48092e-05
0.000105579
0.000115652
0.000101228
7.15521e-05
5.11995e-05
4.7143e-05
5.69312e-05
7.86665e-05
9.81634e-05
9.24124e-05
7.94403e-05
9.10337e-05
9.38289e-05
1.0041e-05
7.66485e-06
3.65542e-05
0.000106229
0.000115329
7.75938e-05
5.39349e-05
4.90656e-05
5.31571e-05
5.79743e-05
5.86349e-05
5.70424e-05
5.80371e-05
6.36336e-05
7.13808e-05
7.55031e-05
7.19038e-05
6.36071e-05
5.75722e-05
5.79926e-05
6.60534e-05
7.98418e-05
8.92673e-05
8.44365e-05
7.39956e-05
6.5074e-05
5.63997e-05
4.90708e-05
4.71421e-05
5.32237e-05
6.75193e-05
8.46236e-05
9.78007e-05
0.000113376
7.86855e-05
9.9046e-06
7.87195e-06
3.67919e-05
0.000107947
0.000103653
5.93464e-05
4.21241e-05
4.33107e-05
5.25558e-05
6.18197e-05
6.59899e-05
6.63742e-05
6.77301e-05
7.2522e-05
7.82223e-05
7.89729e-05
7.20451e-05
6.22249e-05
5.6022e-05
5.49032e-05
5.61735e-05
5.8687e-05
6.55103e-05
7.84457e-05
9.21859e-05
9.65574e-05
8.78032e-05
7.27001e-05
6.09192e-05
5.79239e-05
6.4429e-05
7.71702e-05
9.14765e-05
0.000109274
7.9452e-05
1.02088e-05
8.04315e-06
3.75918e-05
0.000111237
8.36693e-05
4.1159e-05
3.22073e-05
4.0432e-05
5.72262e-05
7.14653e-05
7.67175e-05
7.68504e-05
7.80874e-05
8.24709e-05
8.59418e-05
8.16858e-05
6.91656e-05
5.58242e-05
4.74633e-05
4.44525e-05
4.76204e-05
6.29288e-05
9.90306e-05
0.00015145
0.000180447
0.000169012
0.000136048
0.000101081
7.47196e-05
6.05381e-05
5.71406e-05
6.07836e-05
7.24954e-05
0.000100366
8.29782e-05
1.11325e-05
8.41832e-06
4.00183e-05
0.000114917
6.35047e-05
2.97899e-05
2.67649e-05
4.0397e-05
6.25432e-05
7.92539e-05
8.53948e-05
8.53383e-05
8.45492e-05
8.49239e-05
8.3285e-05
7.50411e-05
6.15681e-05
4.92507e-05
4.2331e-05
4.13488e-05
4.69613e-05
6.47832e-05
0.000107684
0.000180544
0.00023063
0.000222612
0.000178343
0.000123185
7.80586e-05
5.2162e-05
4.40162e-05
5.10527e-05
7.48494e-05
0.000113967
6.41583e-05
1.13095e-05
8.67643e-06
4.21017e-05
0.000112026
4.98953e-05
2.28431e-05
2.28848e-05
4.10449e-05
6.73314e-05
8.35293e-05
8.89396e-05
8.93635e-05
8.8287e-05
8.6232e-05
8.12677e-05
7.14547e-05
5.86453e-05
4.74064e-05
4.06631e-05
3.91533e-05
4.3333e-05
5.45008e-05
7.59176e-05
0.000108595
0.000144588
0.000169787
0.000170668
0.00014138
9.63513e-05
6.12734e-05
4.59664e-05
5.08329e-05
8.0056e-05
0.000114848
5.07617e-05
1.05501e-05
8.90865e-06
4.34017e-05
0.000109162
4.89044e-05
2.06251e-05
1.92782e-05
3.67438e-05
6.49173e-05
8.29769e-05
8.91724e-05
8.99906e-05
8.91073e-05
8.70511e-05
8.24854e-05
7.40062e-05
6.25035e-05
5.15346e-05
4.44057e-05
4.16893e-05
4.26142e-05
4.6957e-05
5.49551e-05
6.58756e-05
7.78734e-05
8.9297e-05
9.88472e-05
0.000103566
9.74931e-05
7.92303e-05
6.17815e-05
5.95313e-05
8.16212e-05
0.000119224
5.42869e-05
1.0089e-05
8.88691e-06
4.27318e-05
0.000106731
5.66277e-05
2.1308e-05
1.57423e-05
2.84479e-05
5.70103e-05
8.14081e-05
9.23374e-05
9.54215e-05
9.54159e-05
9.34023e-05
8.82651e-05
7.86576e-05
6.51357e-05
5.16158e-05
4.31915e-05
4.1121e-05
4.30122e-05
4.58931e-05
4.87772e-05
5.23649e-05
5.70134e-05
6.21975e-05
6.70658e-05
7.09319e-05
7.30769e-05
7.21336e-05
6.81444e-05
6.87415e-05
8.67998e-05
0.000123253
6.47046e-05
1.0307e-05
8.85089e-06
4.22586e-05
0.000105615
7.41853e-05
2.76761e-05
1.47546e-05
1.9825e-05
4.15505e-05
7.01515e-05
8.9753e-05
9.91348e-05
0.000102815
0.000102572
9.70763e-05
8.38987e-05
6.35683e-05
4.32004e-05
3.21754e-05
3.25379e-05
4.02508e-05
5.21015e-05
6.468e-05
7.37956e-05
7.73018e-05
7.61711e-05
7.23203e-05
6.70512e-05
6.15802e-05
5.81575e-05
5.98404e-05
6.99742e-05
9.37092e-05
0.000126047
6.72062e-05
1.06278e-05
8.74116e-06
4.15175e-05
0.000102704
9.41691e-05
4.54301e-05
1.86967e-05
1.42895e-05
2.42657e-05
4.88382e-05
7.78954e-05
9.71906e-05
0.000106637
0.000108649
0.000101218
8.02318e-05
5.00185e-05
2.61257e-05
1.91802e-05
3.05072e-05
5.62565e-05
8.76788e-05
0.000111051
0.000119046
0.000113864
0.000102683
9.04573e-05
7.83371e-05
6.63142e-05
5.67884e-05
5.4854e-05
6.54253e-05
9.12607e-05
0.000122521
6.6073e-05
1.08809e-05
8.60526e-06
3.89954e-05
9.87104e-05
0.00011105
8.58891e-05
3.60661e-05
1.51876e-05
1.24488e-05
2.31061e-05
5.07686e-05
8.3108e-05
0.000103246
0.000110907
0.000106606
8.66209e-05
5.33747e-05
2.38503e-05
1.16052e-05
1.95513e-05
5.21233e-05
0.000118892
0.000173189
0.000178294
0.000158382
0.000133273
0.000111549
9.51696e-05
8.17688e-05
6.81702e-05
5.70856e-05
5.64824e-05
7.44175e-05
0.000113955
7.04941e-05
1.13106e-05
8.29831e-06
3.45031e-05
9.26192e-05
0.000116237
0.000106009
7.29806e-05
2.61719e-05
1.00824e-05
1.07211e-05
2.72657e-05
6.61175e-05
0.000106611
0.000127749
0.000130926
0.000116681
8.37194e-05
4.32187e-05
1.57036e-05
8.21922e-06
2.13941e-05
6.26174e-05
0.000154365
0.000228317
0.000221771
0.000183636
0.00014229
0.000109287
8.78141e-05
7.38128e-05
6.13644e-05
5.55083e-05
6.9817e-05
0.000116021
7.42315e-05
1.17355e-05
8.33397e-06
3.34713e-05
9.48151e-05
0.000115964
8.46353e-05
5.5244e-05
3.13059e-05
1.22376e-05
8.47626e-06
2.1414e-05
6.72274e-05
0.000135579
0.000177933
0.000190168
0.000176119
0.000137716
8.54133e-05
3.96631e-05
1.37117e-05
7.43168e-06
1.97954e-05
5.58031e-05
0.00013219
0.000214467
0.000219183
0.000176907
0.000123746
8.32614e-05
6.29246e-05
5.69391e-05
6.12153e-05
8.46434e-05
0.000132191
6.69189e-05
1.17373e-05
8.79816e-06
3.99654e-05
0.000108483
9.63642e-05
4.79411e-05
2.24951e-05
1.46593e-05
1.18925e-05
1.42459e-05
4.42742e-05
0.000118132
0.000156185
0.000178071
0.000188501
0.00018362
0.000159004
0.000116807
6.98628e-05
3.28318e-05
1.1627e-05
5.77842e-06
1.52221e-05
4.24265e-05
9.45359e-05
0.000160824
0.000174257
0.000132683
8.31185e-05
5.5557e-05
5.10648e-05
6.64991e-05
0.000103696
0.000136073
5.70165e-05
1.13443e-05
9.2014e-06
5.58681e-05
9.64826e-05
5.90313e-05
2.63921e-05
1.19157e-05
1.02491e-05
2.21674e-05
5.42489e-05
9.45076e-05
0.00010876
0.000119631
0.000132444
0.000142937
0.000146911
0.000140479
0.000120569
8.91557e-05
5.5001e-05
2.70238e-05
9.27941e-06
3.01851e-06
9.2509e-06
2.86472e-05
6.24411e-05
0.000107321
0.000124629
9.56408e-05
6.33305e-05
5.22102e-05
6.58649e-05
0.000104947
0.000127042
5.08312e-05
1.08226e-05
8.88767e-06
5.86021e-05
8.56411e-05
6.02068e-05
3.55642e-05
2.26783e-05
2.20404e-05
3.55257e-05
5.1641e-05
5.99104e-05
7.19282e-05
8.75978e-05
0.000103609
0.000117222
0.00012645
0.000128934
0.000121878
0.000104091
7.80486e-05
4.98207e-05
2.53743e-05
8.13877e-06
4.04011e-07
3.67378e-06
1.733e-05
3.97964e-05
6.95034e-05
9.31361e-05
9.1021e-05
8.10612e-05
8.79882e-05
0.000117883
0.000130503
4.58309e-05
1.00853e-05
8.29469e-06
4.59899e-05
0.000106898
0.000124138
0.000115979
7.7034e-05
4.38764e-05
3.0359e-05
2.75212e-05
2.815e-05
3.21311e-05
4.20758e-05
6.03736e-05
8.2805e-05
0.000100773
0.000112577
0.000118135
0.000115755
0.00010411
8.37897e-05
5.85572e-05
3.39152e-05
1.43184e-05
2.94521e-06
1.66838e-06
9.38433e-06
2.34973e-05
4.26914e-05
6.68605e-05
9.74742e-05
0.000131612
0.000152056
0.000127563
4.23829e-05
9.35503e-06
7.78157e-06
3.48762e-05
9.17937e-05
0.000127307
0.00013843
0.000138155
0.000120767
8.132e-05
5.11854e-05
3.59229e-05
2.59806e-05
1.89192e-05
1.8349e-05
3.01273e-05
5.83859e-05
8.96119e-05
0.0001103
0.00012207
0.000124958
0.000117304
9.98849e-05
7.67353e-05
5.26256e-05
3.10707e-05
1.50353e-05
7.16053e-06
7.60787e-06
1.43474e-05
2.63092e-05
4.48566e-05
7.74126e-05
0.000122312
0.000114039
4.35629e-05
9.19663e-06
7.93643e-06
3.2803e-05
8.89574e-05
0.000126751
0.0001195
0.000101776
9.53068e-05
0.000106858
0.000121866
0.000111143
7.37257e-05
3.45359e-05
1.51717e-05
1.10091e-05
1.96183e-05
4.87933e-05
0.000100278
0.000146646
0.000171199
0.000173191
0.000155746
0.000127897
9.93547e-05
7.45452e-05
5.35484e-05
3.58978e-05
2.26592e-05
1.53995e-05
1.43963e-05
1.9462e-05
3.01998e-05
4.9306e-05
8.34043e-05
5.23097e-05
9.59708e-06
8.66622e-06
3.90233e-05
0.000101996
0.000132225
0.000129239
0.000108879
7.76132e-05
5.79694e-05
6.03476e-05
8.8026e-05
0.000118278
6.98035e-05
2.40861e-05
1.2356e-05
1.63196e-05
4.02253e-05
0.000104748
0.000204384
0.000267672
0.000264629
0.000227061
0.000184115
0.000146985
0.000117418
9.41288e-05
7.51851e-05
5.90399e-05
4.48376e-05
3.05636e-05
2.2771e-05
1.88192e-05
1.3155e-05
2.44358e-05
7.14491e-05
1.06029e-05
8.97654e-06
4.5034e-05
0.000115531
0.000134539
0.0001306
0.000119046
0.000102333
7.94663e-05
5.99704e-05
5.15934e-05
4.78181e-05
3.47367e-05
2.07575e-05
1.8511e-05
3.21882e-05
7.11089e-05
0.000129379
0.000178554
0.000206915
0.000216773
0.000210817
0.000192802
0.000169137
0.000145689
0.000125
0.000107056
9.10275e-05
7.43256e-05
4.43581e-05
2.40068e-05
1.40664e-05
9.3393e-06
2.4106e-05
9.68455e-05
1.17963e-05
8.58872e-06
4.1759e-05
0.000109789
0.000128742
0.000119135
9.8879e-05
8.25385e-05
7.60879e-05
7.27996e-05
6.25254e-05
4.47086e-05
2.78602e-05
2.05401e-05
2.65947e-05
4.98381e-05
8.95101e-05
0.000133754
0.000170789
0.000194395
0.000202947
0.000198701
0.000186444
0.000171192
0.000156038
0.000141388
0.000125533
0.000104953
7.44561e-05
3.41353e-05
1.59968e-05
1.44881e-05
1.94561e-05
5.04582e-05
8.91956e-05
1.22664e-05
8.41441e-06
3.94606e-05
0.000105102
0.00012845
0.000123107
0.000102526
7.70462e-05
6.14723e-05
5.94451e-05
6.60718e-05
6.73121e-05
4.90184e-05
2.71852e-05
2.21574e-05
3.55598e-05
7.0179e-05
0.000120657
0.000168634
0.000198638
0.000207179
0.00020035
0.000186908
0.000172928
0.000160499
0.000148389
0.00013264
0.000107056
6.7881e-05
2.88254e-05
1.28641e-05
1.69607e-05
3.74094e-05
9.55915e-05
6.41153e-05
1.17856e-05
8.46918e-06
3.91989e-05
0.000102509
0.000129027
0.00012906
0.000116939
9.37573e-05
6.81062e-05
5.38935e-05
5.43144e-05
6.73856e-05
7.76592e-05
4.95227e-05
2.27965e-05
2.03481e-05
3.91008e-05
8.51089e-05
0.00014886
0.000193717
0.000202238
0.000189683
0.000173451
0.000160308
0.000150602
0.000142264
0.000131222
0.000110534
7.45141e-05
3.48019e-05
1.46288e-05
1.62898e-05
4.56664e-05
0.000112045
5.11256e-05
1.11552e-05
8.30447e-06
3.68628e-05
9.71232e-05
0.000127484
0.000129597
0.000118638
9.95058e-05
7.71743e-05
5.82788e-05
4.89458e-05
5.13225e-05
6.54806e-05
7.74769e-05
4.22573e-05
1.93952e-05
2.21141e-05
4.7859e-05
0.000100242
0.000154514
0.000174738
0.000166879
0.000152948
0.000142399
0.000135588
0.000130483
0.000124508
0.000113263
8.97277e-05
5.35118e-05
2.49062e-05
1.81092e-05
3.69716e-05
0.000100933
4.79434e-05
1.08335e-05
8.04755e-06
3.44337e-05
9.18544e-05
0.000127236
0.000131347
0.000118695
9.63352e-05
7.52677e-05
6.0681e-05
5.15393e-05
4.84465e-05
5.36258e-05
6.59023e-05
6.52466e-05
3.37187e-05
2.07765e-05
3.1259e-05
6.61201e-05
0.000113634
0.000139008
0.000137194
0.000127934
0.000121852
0.000120374
0.00012222
0.000124379
0.000121477
0.000106481
7.55887e-05
4.13304e-05
2.49909e-05
3.2624e-05
8.55953e-05
5.24411e-05
1.1132e-05
8.03613e-06
3.36244e-05
8.92704e-05
0.000129117
0.00013342
0.000117746
9.26854e-05
7.18016e-05
5.97535e-05
5.3789e-05
5.2039e-05
5.60361e-05
6.76232e-05
7.99843e-05
6.01337e-05
2.85992e-05
2.14698e-05
3.74356e-05
7.50471e-05
0.000107947
0.000114409
0.000108951
0.00010463
0.000104289
0.000108631
0.00011675
0.000122139
0.000113742
8.62668e-05
5.22157e-05
3.30362e-05
3.92582e-05
9.59678e-05
5.66043e-05
1.14244e-05
8.15409e-06
3.33832e-05
8.86278e-05
0.000130234
0.000128906
0.000103646
7.69898e-05
6.21539e-05
5.6891e-05
5.55404e-05
5.50629e-05
5.84785e-05
7.16752e-05
9.64897e-05
0.000111251
6.4452e-05
2.75446e-05
2.25787e-05
4.20555e-05
7.49666e-05
9.15522e-05
9.15615e-05
8.95399e-05
8.94875e-05
9.24065e-05
0.000100708
0.000113061
0.000118308
0.000101909
6.94903e-05
4.79176e-05
5.52742e-05
0.000114812
6.14673e-05
1.13815e-05
8.41317e-06
3.40863e-05
9.18358e-05
0.000131381
0.000113591
7.69832e-05
5.58421e-05
5.01488e-05
5.35645e-05
6.13927e-05
6.82702e-05
7.25078e-05
8.07194e-05
9.96523e-05
0.00012147
0.000108801
5.07254e-05
2.47245e-05
2.89528e-05
5.63809e-05
8.05436e-05
8.59144e-05
8.74707e-05
9.17525e-05
9.66345e-05
0.000100628
0.000102724
9.8929e-05
8.61048e-05
6.91548e-05
6.14017e-05
8.09342e-05
0.000141584
6.59569e-05
1.16045e-05
8.92732e-06
3.67797e-05
0.000102181
0.000124879
7.78824e-05
4.63367e-05
3.89132e-05
4.42616e-05
5.61159e-05
7.03455e-05
8.46255e-05
9.79868e-05
0.000112252
0.000130915
0.000148421
0.000137545
8.22411e-05
3.62172e-05
2.40052e-05
3.85767e-05
5.77884e-05
6.21228e-05
6.2494e-05
6.57615e-05
7.31294e-05
8.61339e-05
0.000104183
0.000116074
0.000108867
9.37099e-05
9.23145e-05
0.000121166
0.000159941
6.23311e-05
1.12387e-05
9.60089e-06
4.30162e-05
0.000118843
8.83351e-05
3.9721e-05
2.61582e-05
3.1855e-05
5.1275e-05
7.8266e-05
0.000102021
0.000118705
0.000132998
0.000149278
0.000167634
0.000182082
0.000176557
0.000131454
6.86805e-05
3.52866e-05
3.20352e-05
5.29185e-05
6.57836e-05
6.96958e-05
7.27873e-05
6.9983e-05
6.50645e-05
6.70179e-05
7.8863e-05
9.60512e-05
0.000107786
0.000118487
0.000143848
0.000167622
6.6796e-05
1.10572e-05
9.93866e-06
5.30718e-05
0.000108264
4.66665e-05
2.04379e-05
1.92597e-05
4.01847e-05
8.25647e-05
0.000119827
0.000145201
0.000162998
0.000176445
0.000189125
0.000203562
0.000217827
0.000221583
0.00019417
0.000127027
6.16635e-05
3.04586e-05
2.46078e-05
3.47052e-05
4.33223e-05
5.68885e-05
8.14489e-05
9.77448e-05
8.92706e-05
7.79293e-05
7.80692e-05
9.13872e-05
0.000116844
0.000150047
0.000166975
6.96429e-05
1.1659e-05
9.67636e-06
5.88773e-05
8.78341e-05
3.73933e-05
1.87862e-05
2.1979e-05
5.46387e-05
0.000106329
0.000131512
0.000148606
0.000165643
0.000181959
0.000195417
0.000205768
0.000214088
0.000219964
0.000217882
0.000195509
0.000144655
8.64678e-05
5.21658e-05
4.00057e-05
3.58471e-05
3.3866e-05
4.03722e-05
5.81182e-05
8.32521e-05
0.000100711
0.000105037
0.000110868
0.000130123
0.000159247
0.00016825
6.7264e-05
1.14581e-05
9.18015e-06
5.31058e-05
0.00010631
6.6293e-05
3.21205e-05
2.16257e-05
3.11495e-05
6.49858e-05
0.000110748
0.00014779
0.000175011
0.000198689
0.000221104
0.000241358
0.000257566
0.000267813
0.000268833
0.000252416
0.00020695
0.000137577
7.81448e-05
5.2817e-05
5.40974e-05
6.01258e-05
5.25108e-05
4.50358e-05
4.74345e-05
5.95796e-05
7.83991e-05
9.79797e-05
0.000118996
0.000145701
0.000162931
7.37634e-05
1.16707e-05
8.84125e-06
4.3516e-05
0.000104037
0.000107624
6.61125e-05
2.82448e-05
1.68474e-05
2.3292e-05
5.1235e-05
0.000106882
0.000167065
0.00021052
0.000242872
0.000269073
0.000287268
0.000289951
0.000264996
0.000205776
0.00013047
6.92062e-05
3.05902e-05
1.33024e-05
2.13642e-05
4.51511e-05
8.5546e-05
0.000113472
9.24865e-05
7.06885e-05
6.93308e-05
8.69536e-05
0.000118646
0.000153179
0.000168573
7.50445e-05
1.2429e-05
8.76345e-06
3.82095e-05
9.40669e-05
0.000109415
9.32228e-05
5.35101e-05
2.08472e-05
9.62311e-06
1.53195e-05
4.0846e-05
9.82624e-05
0.000170814
0.000224395
0.000260971
0.000287945
0.000304034
0.000303318
0.000279519
0.000229937
0.000162897
9.95684e-05
5.38399e-05
2.70873e-05
1.93867e-05
2.73012e-05
5.16611e-05
9.10364e-05
0.000102963
9.20235e-05
9.77893e-05
0.000127329
0.000164803
0.000167216
6.41045e-05
1.21238e-05
8.97845e-06
3.9804e-05
0.000103554
0.000105276
7.66707e-05
5.8762e-05
3.8652e-05
1.30538e-05
5.2901e-06
1.71506e-05
5.04294e-05
0.00011982
0.000202525
0.000258745
0.000289482
0.000307752
0.00031834
0.000318089
0.000302305
0.000270044
0.000225183
0.00017364
0.00011957
7.13342e-05
4.23248e-05
3.45558e-05
4.40755e-05
6.99634e-05
9.92782e-05
0.000117365
0.000140463
0.0001694
0.000165484
5.92351e-05
1.13614e-05
9.23289e-06
4.20695e-05
0.000103606
0.00010988
7.41761e-05
3.99144e-05
2.73701e-05
1.62543e-05
1.6442e-06
7.62441e-06
3.19198e-05
9.42269e-05
0.000193017
0.00027438
0.000318051
0.000338383
0.000348958
0.000354005
0.000351342
0.000337529
0.000310946
0.000271784
0.000221005
0.000162165
0.00010576
6.49161e-05
4.43337e-05
4.28236e-05
6.16229e-05
9.92882e-05
0.000139876
0.000166917
0.000159329
5.93523e-05
1.11568e-05
9.3581e-06
4.44491e-05
0.000105772
0.000103061
7.0317e-05
3.89145e-05
2.34734e-05
1.97862e-05
7.63318e-06
3.4099e-06
1.4917e-05
5.77733e-05
0.000144115
0.000229466
0.00028034
0.000301956
0.000308914
0.00031108
0.000311733
0.000309845
0.000302723
0.000287524
0.000261638
0.000223195
0.000173261
0.000119388
7.44251e-05
4.8065e-05
4.39485e-05
6.3633e-05
0.000107787
0.000150605
0.000155603
6.24024e-05
1.1518e-05
9.21126e-06
4.36792e-05
0.000106634
0.000101336
6.92093e-05
3.76635e-05
1.76739e-05
8.6131e-06
9.53427e-06
3.47915e-06
8.09727e-06
4.65268e-05
0.000146657
0.000247585
0.000295972
0.000314046
0.000319154
0.000318153
0.000313241
0.000304696
0.00029246
0.000276604
0.000256756
0.000231506
0.000198527
0.000156248
0.000108235
6.68427e-05
4.57152e-05
4.87005e-05
7.6626e-05
0.000124301
0.000153564
6.71813e-05
1.221e-05
9.31622e-06
4.31032e-05
0.000105939
0.000109952
8.39126e-05
5.48365e-05
3.03936e-05
1.0491e-05
2.32694e-06
1.37949e-07
1.37737e-07
9.93693e-06
5.43158e-05
0.000172109
0.000316206
0.000383571
0.000393003
0.000376901
0.000353362
0.000329668
0.000305987
0.000281165
0.000254917
0.000227261
0.000197332
0.000162868
0.000122015
7.97901e-05
5.08649e-05
4.44211e-05
6.17294e-05
0.000107292
0.000154838
6.93212e-05
1.28168e-05
9.26706e-06