/*--------------------------------*- C++ -*----------------------------------*\
| =========                 |                                                 |
| \\      /  F ield         | OpenFOAM: The Open Source CFD Toolbox           |
|  \\    /   O peration     | Version:  v2006                                 |
|   \\  /    A nd           | Website:  www.openfoam.com                      |
|    \\/     M anipulation  |                                                 |
\*---------------------------------------------------------------------------*/
FoamFile
{
    version     2.0;
    format      ascii;
    class       volScalarField;
    location    "42";
    object      omega;
}
// * * * * * * * * * * * * * * * * * * * * * * * * * * * * * * * * * * * * * //

dimensions      [0 0 -1 0 0 0 0];


internalField   nonuniform List<scalar> 
78750
(
1355.91
203.09
143.498
86.7102
31.5858
16.3362
23.2795
19.1886
21.1438
20.2474
20.4302
20.3954
20.4053
20.4222
20.4396
20.4494
20.4497
20.4419
20.4269
20.4056
20.3788
20.345
20.2962
20.2314
20.149
20.046
19.9178
19.7571
19.5536
19.2888
18.9357
18.4645
17.8468
17.0301
499.019
507.63
22.0823
12.1239
12.5229
12.4378
14.8443
13.5154
13.0926
12.4368
12.1075
11.9395
11.8921
11.9301
12.0342
12.1782
12.3371
12.4925
12.6237
12.7199
12.7824
12.8181
12.835
12.8362
12.8262
12.8091
12.7854
12.7521
12.7031
12.6295
12.5184
12.3495
12.0813
11.5588
10.1197
737.604
402.58
15.116
16.445
16.4301
15.6032
14.6985
14.3107
13.8314
13.2771
12.702
12.1878
11.7309
11.3119
10.9488
10.6644
10.4841
10.4364
10.5146
10.6647
10.8436
11.0323
11.2138
11.38
11.5329
11.6745
11.8062
11.9322
12.053
12.1624
12.2536
12.3184
12.3482
12.336
12.2775
743.714
407.906
13.2546
14.2182
14.5209
14.6921
14.9314
15.0908
15.0409
14.6521
14.0138
13.364
12.86
12.488
12.1715
11.906
11.7245
11.5949
11.4983
11.4343
11.3998
11.3921
11.4084
11.4459
11.5011
11.5701
11.648
11.7293
11.8071
11.8737
11.9222
11.9325
11.8364
11.3874
10.8211
745.222
418.41
16.4867
16.3174
15.5801
14.5706
13.9116
13.5136
13.0895
12.5812
12.2075
11.9889
11.8068
11.6381
11.491
11.3635
11.2551
11.1653
11.0949
11.0452
11.0176
11.0131
11.032
11.0729
11.1326
11.2062
11.2878
11.3707
11.4476
11.5217
11.6107
11.7436
12.0154
12.6126
13.4299
749.917
425.659
15.5426
13.9619
11.8554
10.9417
11.611
12.1736
12.4145
12.4766
12.4411
12.3678
12.2809
12.1847
12.0816
11.9737
11.8658
11.7638
11.6711
11.5888
11.5166
11.4523
11.3957
11.349
11.3124
11.2848
11.2638
11.2458
11.2261
11.1999
11.1597
11.0882
10.9386
10.785
12.1261
751.096
420.579
15.9224
15.3785
14.2582
13.7208
13.1758
12.596
12.1288
11.8303
11.6783
11.6205
11.608
11.6039
11.5861
11.5483
11.4928
11.4274
11.3615
11.3003
11.2445
11.1915
11.1415
11.0974
11.0612
11.0335
11.0136
10.9991
10.9857
10.9695
10.9601
11.0094
11.3152
12.1984
13.9814
754.374
411.473
16.0354
17.1673
17.6715
17.6871
17.3768
16.7476
15.884
14.8977
13.8934
12.9884
12.2953
11.8798
11.7217
11.7236
11.774
11.8031
11.7821
11.714
11.6164
11.509
11.4046
11.3064
11.2114
11.1157
11.0165
10.9122
10.799
10.6732
10.5284
10.3487
10.1932
10.9868
13.6181
755.618
410.212
15.9996
17.3824
17.934
18.2648
18.4701
18.5267
18.3673
17.9143
17.1589
16.1481
14.952
13.6799
12.4927
11.5821
11.0783
10.9448
10.9971
11.0697
11.0923
11.0599
10.9882
10.8903
10.7739
10.6441
10.5054
10.3607
10.2101
10.0589
9.91737
9.84065
10.1271
11.6582
14.8725
758.092
409.522
13.8843
15.4784
16.3581
16.9096
17.3236
17.6763
17.9909
18.2481
18.3759
18.2756
17.8716
17.1337
16.0786
14.7728
13.3479
12.0216
11.0797
10.6762
10.6508
10.734
10.7738
10.7307
10.6178
10.4598
10.2764
10.0802
9.8753
9.66681
9.46305
9.27939
9.24791
10.6984
14.5194
759.206
411.092
15.4563
17.1699
17.8961
18.1877
18.2611
18.1904
18.0179
17.8091
17.664
17.6628
17.7828
17.8819
17.7776
17.3177
16.4241
15.1147
13.5188
11.9
10.6703
10.128
10.0319
10.0375
9.98814
9.8346
9.5749
9.21983
8.77895
8.3162
7.91503
7.56946
8.31775
11.2758
15.5563
761.044
419.022
17.4359
18.4217
18.799
18.9544
18.9977
18.9532
18.8245
18.5933
18.2163
17.7348
17.3477
17.2309
17.3093
17.3847
17.3177
16.957
16.1223
14.7848
13.113
11.4488
10.2687
9.73289
9.50948
9.32232
9.02735
8.53379
7.80027
6.73854
5.11329
3.9593
4.43532
7.69686
14.2498
763.456
428.931
18.7882
18.7427
18.5934
18.4031
18.1628
17.8875
17.6858
17.6637
17.7029
17.6236
17.3859
17.1014
16.9127
16.8234
16.7645
16.6743
16.4552
15.8839
14.7269
13.0468
11.2622
9.89748
9.20023
8.84015
8.49099
7.95419
7.07206
5.44303
3.60455
4.95642
5.8131
12.1752
16.6399
765.258
433.529
19.0269
18.9294
18.8568
18.7352
18.5127
18.1764
17.8318
17.6534
17.6476
17.6882
17.6896
17.6079
17.443
17.2435
17.0475
16.8528
16.6294
16.309
15.7274
14.6164
12.9339
11.1116
9.6741
8.82036
8.25682
7.65861
6.78188
5.28945
3.97503
3.88187
5.25611
14.3242
18.9071
765.701
425.764
18.1922
18.706
18.9629
19.1042
19.1347
19.0383
18.8033
18.464
18.1227
17.8725
17.7386
17.6911
17.672
17.6248
17.5186
17.3513
17.1314
16.8553
16.4828
15.8901
14.8034
13.071
11.0674
9.40703
8.37661
7.68759
6.98002
5.96779
4.1855
4.55086
4.7216
9.58293
16.8394
763.658
421.329
18.1368
18.9665
19.3294
19.5537
19.7024
19.7751
19.746
19.5713
19.2287
18.7675
18.2964
17.9335
17.7509
17.7256
17.763
17.7748
17.7168
17.5755
17.3466
17.0117
16.4888
15.5376
13.8708
11.6693
9.56251
8.08589
7.08006
6.08746
4.37428
4.34966
4.94714
10.1685
17.0068
764.871
419.038
17.7963
18.891
19.3437
19.5851
19.7266
19.7978
19.8073
19.7483
19.5898
19.2813
18.7999
18.2074
17.6696
17.3791
17.3835
17.543
17.7001
17.7817
17.7709
17.6608
17.4376
17.0538
16.3449
14.9662
12.8025
10.3545
8.37067
7.03059
5.98366
4.07148
4.58656
7.66806
16.2918
766.114
422.493
18.252
19.2456
19.6881
19.9264
20.0585
20.1083
20.0832
19.9916
19.8486
19.6495
19.3426
18.855
18.1829
17.5113
17.1551
17.2132
17.4799
17.7315
17.8826
17.9304
17.883
17.7339
17.4472
16.9076
15.8218
13.9687
11.6084
9.51421
7.09506
3.87114
4.49814
4.68247
12.9826
769.658
424.711
18.779
19.575
19.9157
20.0843
20.1523
20.1334
20.027
19.842
19.6188
19.4147
19.2372
19.0076
18.5994
17.9444
17.2789
17.0415
17.26
17.6066
17.8646
18.0153
18.066
17.9952
17.781
17.3911
16.6614
15.1734
12.775
8.30703
5.15787
5.70393
8.15334
12.7281
18.8085
776.776
429.76
19.6786
20.1528
20.3506
20.4418
20.4543
20.3809
20.2086
19.9416
19.6081
19.2736
19.0287
18.8822
18.716
18.3656
17.7563
17.2342
17.2122
17.5348
17.8889
18.1497
18.3047
18.3395
18.2134
17.8381
16.9787
15.1607
11.6622
5.73377
5.35365
12.8429
19.2525
22.2278
24.0274
773.553
432.36
19.7399
20.0067
20.1252
20.1663
20.1272
19.9845
19.7364
19.4432
19.1493
18.8466
18.5653
18.3819
18.2886
18.1654
17.8797
17.4853
17.3296
17.5124
17.8309
18.1391
18.393
18.5782
18.6656
18.5958
18.2509
17.4167
15.8505
13.7352
12.2191
12.5157
14.9221
17.8846
21.4904
757.286
436.787
20.3532
20.421
20.4307
20.3742
20.213
19.8989
19.4442
18.9917
18.6597
18.4255
18.2407
18.1084
18.0333
17.9522
17.7737
17.505
17.3749
17.4713
17.675
17.9019
18.1247
18.3303
18.5068
18.6401
18.708
18.6536
18.3348
17.5767
16.2525
14.3463
12.3662
9.83298
7.61261
754.633
435.923
20.0458
20.1691
20.2077
20.1529
19.9566
19.5577
18.9745
18.3752
17.923
17.6366
17.484
17.4642
17.5484
17.6345
17.638
17.5645
17.5405
17.6017
17.6928
17.784
17.8612
17.9122
17.9282
17.9029
17.8239
17.621
17.1464
16.6331
16.2845
15.5237
13.4895
10.6719
13.4592
773.006
435.37
20.1431
20.2948
20.322
20.249
20.0332
19.6139
18.986
18.2677
17.6213
17.127
16.819
16.7582
16.9343
17.1785
17.3724
17.5179
17.6397
17.7291
17.7743
17.7629
17.6757
17.4953
17.189
16.7051
16.0865
15.8467
17.0672
19.2818
20.1642
19.6549
18.6237
18.555
21.2023
776.011
433.457
19.9914
20.2298
20.2994
20.264
20.093
19.7283
19.1407
18.4109
17.681
17.0253
16.491
16.2105
16.3197
16.6718
17.0355
17.3459
17.611
17.8398
18.0277
18.1564
18.1913
18.0855
17.7953
17.2977
16.5991
15.8812
15.9924
17.8607
20.1298
21.3005
21.6927
22.1094
23.017
766.007
434.114
20.2094
20.4599
20.5496
20.546
20.4264
20.1394
19.6423
18.9929
18.3654
17.8424
17.3583
16.8366
16.3121
16.0114
16.088
16.4052
16.7776
17.1311
17.4573
17.7594
18.0331
18.2507
18.3459
18.235
17.856
17.1937
16.3916
16.0187
16.684
18.0938
19.5779
20.5495
21.0987
760.559
432.721
19.9625
20.2884
20.4192
20.4506
20.374
20.1471
19.7176
19.0783
18.3794
17.8373
17.4757
17.1743
16.8102
16.3326
15.9323
15.9062
16.1649
16.4914
16.8113
17.1252
17.4462
17.7886
18.1718
18.6064
18.9638
18.9908
18.6242
17.9152
17.0989
16.5645
16.6505
17.3782
18.9898
764.239
434.212
20.4348
20.7206
20.8124
20.8086
20.7075
20.4809
20.0861
19.4807
18.7131
18.0007
17.5068
17.1867
16.9161
16.5854
16.1436
15.7837
15.7867
16.0389
16.3542
16.6887
17.0678
17.5619
18.3378
19.6382
21.1898
21.8908
21.6882
21.0374
20.0097
18.6136
17.2382
17.3446
19.5396
767.344
434.122
20.4666
20.7559
20.8355
20.8118
20.6942
20.4791
20.1441
19.6479
18.9799
18.258
17.674
17.2821
17.0064
16.7522
16.4416
16.0744
15.8318
15.8624
16.0982
16.4215
16.7833
17.201
17.783
18.7734
20.3592
22.0342
22.9462
22.9853
22.4348
21.3775
19.9841
19.5416
20.9337
767.52
436.464
21.0621
21.2407
21.2155
21.0825
20.8695
20.6231
20.318
19.8797
19.2785
18.5837
17.9555
17.4941
17.1721
16.9144
16.6515
16.3493
16.0689
15.9413
16.0195
16.2296
16.456
16.6296
16.7641
16.9908
17.6213
18.9135
20.5542
21.8861
22.4892
22.3622
21.786
21.5464
22.2967
768.379
437.635
21.4071
21.5016
21.3605
21.0731
20.723
20.4631
20.2427
19.9212
19.4182
18.7584
18.0851
17.5392
17.1381
16.8219
16.5235
16.2074
15.9256
15.7868
15.8103
15.8977
15.9785
16.1172
16.3998
16.7783
17.2151
17.8508
18.8811
20.2332
21.4578
22.1471
22.3381
22.4356
22.9269
769.413
441.269
22.1638
22.0425
21.6917
21.1354
20.5949
20.342
20.1892
19.9296
19.4851
18.8657
18.1755
17.55
17.0351
16.5878
16.1452
15.6891
15.3457
15.3296
15.7132
16.4346
17.3023
18.0459
18.5238
18.7906
18.9504
19.1275
19.5036
20.239
21.1894
21.921
22.2523
22.4361
23.0986
772.938
444.162
22.5626
22.1895
21.5744
20.6324
19.9579
19.8777
19.9064
19.7679
19.402
18.8258
18.134
17.4595
16.861
16.3045
15.7325
15.1778
14.9551
15.6147
17.3186
19.4212
20.9042
21.4639
21.5773
21.491
21.2781
20.9847
20.7219
20.7277
21.1907
21.8311
22.2994
22.8498
24.2086
779.331
448.997
23.1608
22.4737
21.5305
20.1099
19.4212
19.5557
19.7132
19.6686
19.3988
18.9111
18.2628
17.561
16.8865
16.2463
15.6165
15.0621
14.9222
15.8502
18.12
20.9348
23.1422
24.1488
24.3883
24.2535
23.8564
23.1994
22.2891
21.345
21.0034
21.631
22.587
23.5824
25.207
780.037
451.755
23.2595
22.3285
21.109
19.2436
18.6302
19.0479
19.3562
19.44
19.3203
19.006
18.5259
17.9379
17.3044
16.6603
16.026
15.4585
15.0966
15.2643
16.4384
18.5865
20.9787
22.8768
24.0972
24.7671
24.9828
24.7768
24.1352
23.099
22.099
21.9697
22.7038
23.6223
24.8976
774.696
454.529
23.5187
22.4546
21.0891
18.8882
17.9714
18.5269
18.9607
19.1519
19.153
18.9818
18.6609
18.2269
17.7198
17.1675
16.5955
16.0612
15.6572
15.4449
15.4978
15.9427
16.8424
18.0581
19.3971
20.728
21.9384
22.9054
23.4889
23.5761
23.2083
22.8158
22.9205
23.3951
24.2193
771.878
454.626
23.4663
22.4516
21.1288
18.825
17.0903
17.6286
18.2433
18.5841
18.7062
18.6375
18.4032
18.0362
17.5686
17.0233
16.4158
15.7995
15.3402
15.1582
15.1618
15.2758
15.5422
15.9986
16.6342
17.4396
18.4123
19.5296
20.7157
21.8102
22.5838
22.9494
23.1972
23.5808
24.3456
773.84
454.756
23.6314
22.7425
21.5788
19.4985
16.7864
16.7209
17.4479
17.95
18.1829
18.1842
17.976
17.5842
17.034
16.3377
15.5002
14.6065
14.1315
14.7299
15.8084
16.8019
17.4857
17.8852
18.1126
18.271
18.4544
18.7672
19.3336
20.2613
21.4794
22.598
23.3541
23.9381
24.8402
776.405
453.019
23.5488
22.8931
22.0031
20.4276
17.6291
15.9212
16.3129
17.088
17.576
17.7438
17.6201
17.2243
16.5644
15.6098
14.3317
12.902
12.881
15.9607
18.6249
19.8174
20.3517
20.5779
20.6342
20.5808
20.4565
20.3094
20.231
20.4068
21.0775
22.1746
23.1858
23.9569
25.045
778.232
450.868
23.6458
23.3287
22.8178
21.9368
20.1319
16.8924
15.122
15.8075
16.7772
17.3349
17.4932
17.2927
16.7382
15.7812
14.3252
12.2768
10.8065
14.4213
19.8185
22.0147
22.581
22.7305
22.7233
22.6205
22.4536
22.2471
22.0126
21.7645
21.6371
21.9313
22.7006
23.6895
25.2317
781.107
448.258
23.6381
23.5337
23.2252
22.7137
21.7772
19.417
15.1357
14.1656
15.5815
16.7263
17.3132
17.4726
17.2536
16.6381
15.5267
13.7233
11.0584
9.7585
15.1676
20.972
23.3606
23.9864
24.0945
24.0047
23.7986
23.535
23.2881
23.0836
22.8193
22.6203
23.011
24.0319
25.8455
783.843
450.825
23.9139
23.5299
22.9676
22.1346
20.9618
19.5564
15.9224
13.4313
15.0277
16.536
17.3269
17.6733
17.6986
17.4101
16.7512
15.5734
13.6157
10.6819
9.22522
14.2262
20.097
23.2307
24.3291
24.5726
24.4528
24.1161
23.6954
23.4804
23.6381
23.8983
24.3921
25.2554
26.7719
783.756
458.162
24.1541
23.1688
22.0973
20.4491
17.9969
15.9682
14.7316
14.1739
16.3178
17.4115
17.9543
18.23
18.293
18.1381
17.7258
16.9522
15.6214
13.4401
10.2485
8.24886
12.3418
18.2731
22.1851
23.9673
24.4618
24.2909
23.7421
23.2245
23.4601
24.3571
25.2356
26.0483
27.1687
780.947
463.437
24.0279
22.7075
21.1617
18.4979
14.8215
13.1117
15.0318
16.7684
17.9669
18.4149
18.7736
18.994
19.0585
18.9561
18.6596
18.1058
17.161
15.6138
13.1779
9.62766
6.64231
9.89738
16.0373
20.7713
23.4024
24.344
24.177
23.429
22.9544
23.4623
24.3827
25.2392
26.293
777.188
455.543
22.9368
22.1976
20.9926
18.9069
16.4559
15.4265
16.5003
17.3627
17.8276
18.3412
18.8543
19.2567
19.507
19.5899
19.4899
19.173
18.565
17.5176
15.8204
13.1933
9.28852
4.84655
6.94018
13.4994
19.1562
22.9104
24.8042
25.1741
24.6857
24.2881
24.4151
24.8384
25.5147
772.123
443.573
22.7028
23.0736
23.1836
23.0032
22.1983
20.4848
18.497
17.2766
16.6191
16.5641
17.0784
17.9148
18.7394
19.3568
19.7276
19.8537
19.7222
19.2826
18.4237
16.9619
14.6574
11.2863
7.13206
5.88849
10.6955
16.4852
21.2338
24.44
26.1553
26.732
26.7405
26.6526
26.4029
767.824
437.725
22.5936
23.2437
23.656
24.0333
24.3382
24.3476
23.5589
21.786
19.6445
17.4353
15.4686
14.7098
15.7058
17.2315
18.4865
19.3562
19.8799
20.0918
19.9928
19.5278
18.572
16.9722
14.6497
11.7944
9.46542
9.87424
13.2154
17.4071
21.0512
23.7923
25.5375
26.1344
25.9604
767.11
440.839
22.6605
22.8907
22.8633
22.7521
22.6772
22.823
23.2622
23.6083
23.2402
21.8879
19.2949
15.3692
13.1533
14.2274
16.2506
17.8884
19.0329
19.8013
20.272
20.4663
20.3539
19.8619
18.9067
17.455
15.6179
13.7316
12.4461
12.524
14.1549
16.432
18.8137
21.0883
22.7515
770.804
449.393
23.4998
23.3693
23.2555
23.0894
22.7758
22.2054
21.4427
20.9848
21.0384
21.1213
20.492
17.4725
14.1063
14.097
16.0925
17.8755
19.0344
19.8155
20.3951
20.8217
21.0818
21.1212
20.8683
20.2668
19.3087
18.05
16.6455
15.1965
14.0381
13.2295
12.5916
16.5637
21.3294
779.397
454.041
23.6453
23.37
23.2934
23.263
23.2011
22.9898
22.3915
21.2222
19.8399
18.6691
17.6159
16.0808
15.251
16.3397
17.87
19.0043
19.8316
20.4898
21.0337
21.4712
21.7914
21.9654
21.9407
21.6544
21.0667
20.1756
19.0092
17.4144
15.2924
13.638
13.0191
17.9487
23.6544
787.942
451.166
23.0153
22.8717
22.8002
22.6989
22.5534
22.3773
22.1473
21.6644
20.6385
19.0503
17.1779
15.9503
16.5924
17.9238
19.0245
19.8607
20.5301
21.097
21.5946
22.0323
22.3958
22.644
22.7145
22.5376
22.0575
21.2273
19.9655
17.9481
15.3442
15.741
17.4266
21.2846
25.7323
789.355
449.365
23.2152
23.2366
23.202
23.0675
22.8059
22.4185
21.9855
21.6194
21.2169
20.4846
19.1587
17.2547
16.3994
17.5139
18.8208
19.815
20.5821
21.2239
21.7975
22.3238
22.7913
23.1568
23.352
23.2953
22.9098
22.1151
20.7453
18.4478
15.6349
17.5908
20.5838
23.38
26.4209
785.046
449.388
23.385
23.4905
23.5435
23.5074
23.3478
23.0201
22.4913
21.8654
21.3451
20.9051
20.269
18.9073
16.3222
15.746
17.332
18.8516
19.9382
20.778
21.5157
22.2142
22.8726
23.4473
23.8684
24.0462
23.8849
23.2875
22.0982
20.013
17.1138
17.8455
21.6344
24.1559
26.4714
781.711
448.497
23.2791
23.5149
23.6292
23.629
23.5103
23.2587
22.8398
22.223
21.4992
20.841
20.274
19.5786
17.9533
15.157
15.3391
17.1495
18.6671
19.7886
20.7266
21.6169
22.4914
23.3119
24.007
24.4907
24.6699
24.452
23.7331
22.3237
20.0483
18.7093
21.1573
23.5695
25.791
780.764
446.641
23.3857
23.8072
23.9629
23.9504
23.7922
23.4948
23.0751
22.5673
21.98
21.3217
20.6152
19.8918
19.0181
16.9548
14.999
15.8617
17.463
18.7717
19.8698
20.9222
21.9925
23.0502
24.0185
24.7959
25.2682
25.3558
25.015
24.1611
22.6166
20.7886
21.1958
23.188
25.6358
782.971
446.639
23.7319
24.1591
24.2834
24.2352
24.0435
23.7216
23.3015
22.8468
22.4179
22.0214
21.579
20.9776
20.1596
18.9024
16.2998
14.7192
15.8063
17.358
18.7048
19.9693
21.2596
22.5612
23.8199
24.9612
25.8274
26.2452
26.1487
25.5121
24.2506
22.6009
22.3648
23.9562
26.2656
783.993
448.217
24.0194
24.2572
24.2283
24.0458
23.7361
23.3646
23.0364
22.7755
22.5149
22.2508
22.0289
21.7708
21.357
20.6735
19.256
16.1255
14.5178
15.6512
17.2068
18.7053
20.2319
21.7526
23.1771
24.4882
25.6329
26.4389
26.7572
26.5296
25.6929
24.406
23.9059
24.8079
26.4765
782.451
451.395
24.5696
24.4491
24.1215
23.6518
23.0596
22.5833
22.4704
22.6531
22.8522
22.8524
22.6474
22.3194
21.8788
21.2905
20.3837
18.4915
15.2517
14.7658
16.1917
17.7776
19.4604
21.2417
22.9289
24.3837
25.5365
26.3096
26.6627
26.6065
26.1438
25.4661
25.3004
25.909
27.1381
782.554
457.136
25.2012
24.4948
23.7219
22.777
21.7716
21.4355
21.8904
22.631
23.2969
23.7109
23.7982
23.5706
23.0901
22.4113
21.4878
19.992
17.1386
14.416
15.1384
16.7358
18.4822
20.4027
22.361
24.2655
26.019
27.3154
27.8775
27.7631
27.2417
26.6768
26.5004
26.7495
27.3571
778.788
465.544
25.5985
24.1711
22.8163
21.0857
19.8071
20.5237
22.1067
23.3982
24.2555
24.7744
25.0036
24.9525
24.6421
24.1059
23.3395
22.2005
20.2803
17.1047
15.2209
16.2665
17.8981
19.6749
21.2845
22.4975
23.6772
25.0902
26.4745
27.3394
27.5302
27.3216
27.0874
26.9984
27.137
777.728
471.333
25.2425
23.3635
21.4181
18.7365
18.1302
20.805
23.1722
24.6116
25.5285
26.0965
26.3841
26.4232
26.2334
25.8355
25.2383
24.3876
23.0494
20.6893
16.8594
14.3671
15.3631
17.8859
20.9958
23.6272
25.0734
25.7551
26.2856
26.8907
27.3705
27.5526
27.5677
27.6185
27.9613
781.394
468.319
24.3986
22.7618
20.7686
18.0873
18.2299
21.4098
23.5672
24.9848
26.0613
26.8544
27.3815
27.6662
27.7275
27.5786
27.2322
26.6967
25.9448
24.8395
23.0433
20.4316
18.2835
17.5803
18.4989
20.9464
23.7936
25.9884
27.1988
27.6953
27.8671
27.913
27.9134
27.9416
28.1338
779.883
460.406
24.0774
23.2178
22.009
20.0466
18.523
19.9318
22.2214
24.0636
25.5057
26.6405
27.494
28.0745
28.3949
28.4707
28.3148
27.9352
27.3247
26.4278
25.07
22.9613
20.545
19.7176
19.7866
20.0156
20.7684
22.4288
24.5619
26.3231
27.303
27.7173
27.8546
27.921
28.2006
783.209
454.514
24.364
24.024
23.4649
22.33
19.9594
17.7532
19.0307
21.7301
23.9306
25.5438
26.7681
27.6677
28.2397
28.4727
28.3514
27.828
26.7538
24.7746
21.385
16.2536
11.5824
14.6363
19.8697
23.5489
24.9641
25.0863
25.2579
26.1626
27.2633
27.9405
28.2972
28.6238
29.3502
788.487
452.678
24.433
24.0718
23.5994
22.9039
21.4755
18.0117
14.5493
16.9854
21.0094
23.7404
25.5976
27.0133
28.1343
28.9535
29.4352
29.5432
29.2194
28.3375
26.64
23.8405
20.0031
16.4202
15.7424
19.0917
23.5903
26.4818
27.4133
27.5896
27.9407
28.3808
28.7378
29.0801
29.6384
784.85
455.942
24.4483
23.7273
22.97
22.0226
20.8848
19.3545
14.7604
11.3887
17.506
22.1516
24.7565
26.4331
27.7402
28.8705
29.8281
30.5587
31.0067
31.1189
30.8254
30.0268
28.6264
26.6037
24.1436
21.983
21.6103
23.6298
26.4396
28.0736
28.5999
28.8258
29.0004
29.1627
29.3372
780.057
459.863
24.8147
23.978
23.1608
21.9979
20.0734
17.7312
14.8968
6.73774
12.7405
20.1744
23.8453
25.7518
27.0336
28.0986
29.0637
29.9336
30.6738
31.2414
31.593
31.6781
31.4361
30.7952
29.6716
27.9964
25.9072
24.1858
24.2701
26.3311
28.0813
28.8625
29.1813
29.3158
29.3393
780.407
461.544
24.6923
23.7274
22.8406
21.6294
19.733
17.2202
15.1648
11.1031
8.92895
15.669
22.0773
24.7101
26.1725
27.2189
28.108
28.9195
29.6673
30.3361
30.8979
31.3162
31.5459
31.5308
31.1997
30.4572
29.1856
27.341
25.3942
25.0104
26.6117
28.0777
28.8486
29.2235
29.4848
784.763
460.368
24.4087
23.521
22.6552
21.3619
19.1926
15.7694
12.0361
11.789
8.52219
11.7299
21.2468
24.382
25.8489
26.842
27.6669
28.3958
29.047
29.6252
30.1295
30.5498
30.8635
31.0315
30.9975
30.6855
29.9938
28.792
27.0255
25.3821
25.6361
27.0896
28.2233
28.9367
29.7341
790.942
460.773
24.6878
23.8681
23.144
22.1669
20.5442
17.6633
12.1973
7.32639
4.51797
4.59825
12.7073
21.6762
24.8801
26.296
27.1832
27.8921
28.5074
29.0449
29.5032
29.8778
30.1618
30.3403
30.383
30.2392
29.832
29.0489
27.7566
26.1359
25.6058
26.7198
28.0083
29.0047
30.326
795.798
462.302
24.4798
23.5964
22.8137
21.6787
19.8226
17.2854
14.5644
9.91984
7.39929
5.94598
5.70327
14.4635
21.7701
24.8861
26.4273
27.3817
28.1021
28.6812
29.1428
29.5057
29.7699
29.9268
29.96
29.8384
29.5081
28.8843
27.8736
26.6239
26.1693
27.1515
28.3906
29.4431
30.9028
796.401
459.195
24.2735
23.6802
23.0895
22.1684
20.4639
17.0084
10.7954
7.03773
6.78862
5.2149
5.82816
13.7324
21.2342
24.5114
26.1178
27.1134
27.8788
28.5018
28.9917
29.3706
29.6485
29.8131
29.8478
29.7258
29.4034
28.825
27.9836
27.1384
27.0524
27.9846
29.0107
29.9014
31.1165
793.36
459.11
24.4571
23.8392
23.2968
22.5821
21.5037
19.8216
16.5809
9.5407
6.46069
5.51998
4.89754
11.5859
19.821
23.583
25.4419
26.6014
27.4653
28.1678
28.7443
29.2035
29.546
29.7672
29.8558
29.7884
29.5241
29.0181
28.3065
27.7121
27.8436
28.6716
29.4598
30.126
30.9927
790.121
458.924
24.3209
23.7594
23.2138
22.3748
20.9328
18.6085
15.4627
11.2807
4.14552
4.97634
5.01264
8.87783
17.2783
22.083
24.4079
25.8035
26.8219
27.6617
28.3666
28.9412
29.3854
29.6998
29.8808
29.9144
29.7691
29.4025
28.8356
28.3514
28.4779
29.1277
29.7075
30.1835
30.7953
788.581
456.861
24.3551
23.9796
23.6597
23.2332
22.5478
21.2916
18.9132
14.838
8.42299
6.16544
6.26926
4.93464
7.24252
17.6016
21.7823
24.1059
25.59
26.6916
27.6024
28.3631
28.9735
29.4314
29.7393
29.8959
29.8859
29.6802
29.287
28.9122
28.9783
29.4353
29.8483
30.1953
30.6737
788.152
458.191
24.4547
23.9972
23.5938
23
22.0335
20.6183
18.7978
16.3685
12.4954
5.58811
4.71426
5.69022
4.7428
6.99673
16.9782
21.3613
23.919
25.5424
26.7146
27.6715
28.4691
29.105
29.5703
29.8614
29.974
29.8999
29.6662
29.4361
29.492
29.7888
30.0606
30.299
30.6507
787.419
456.742
24.2934
24.0253
23.8414
23.5667
23.0419
22.0192
20.2281
17.6838
14.376
9.41207
6.76956
6.41975
6.2899
6.35151
8.84483
17.0459
21.1099
23.7032
25.4305
26.6831
27.7025
28.5511
29.2238
29.7017
29.9711
30.0307
29.9303
29.8301
29.9126
30.1132
30.2831
30.4219
30.6147
786.17
456.359
24.2878
24.0092
23.8111
23.5332
23.0602
22.276
21.034
19.1223
16.4282
12.7507
6.74165
6.13874
5.43568
6.66234
6.44098
8.49462
17.2865
21.5042
24.0719
25.7399
26.9347
27.9107
28.7363
29.3999
29.865
30.1045
30.1485
30.1334
30.2023
30.3187
30.4049
30.4577
30.5194
785.163
455.755
24.1857
23.9929
23.9003
23.7626
23.4676
22.873
21.8364
20.2544
18.0856
15.1667
11.0147
6.6736
6.34105
5.09596
6.75017
6.73768
9.44767
17.4478
21.9092
24.6557
26.3776
27.5357
28.4265
29.1518
29.7183
30.0973
30.2813
30.341
30.3809
30.4163
30.4251
30.4061
30.3842
784.488
454.786
24.0829
23.9202
23.856
23.7775
23.6065
23.2384
22.5357
21.3466
19.5517
17.1418
13.8708
8.38817
4.1604
5.73448
5.49919
5.75152
5.27606
10.9631
17.7944
22.2677
25.1958
27.0584
28.2605
29.109
29.7398
30.1953
30.4805
30.614
30.6495
30.6302
30.576
30.4971
30.4055
784.294
454.861
24.0769
23.9121
23.8601
23.8051
23.6766
23.3946
22.8729
22.0235
20.7355
18.9105
16.5364
13.3272
7.16351
4.19387
5.99519
4.44215
6.34116
6.72094
12.6436
18.4146
22.6111
25.5542
27.5105
28.7593
29.5798
30.1367
30.5174
30.759
30.8791
30.9015
30.8554
30.762
30.6252
784.775
454.772
24.0287
23.8743
23.8471
23.8319
23.7663
23.5762
23.1784
22.4992
21.4734
19.9993
18.0019
15.3834
11.7522
5.59677
4.72663
5.46805
6.3428
5.26604
4.97354
12.4219
18.1114
22.3384
25.4279
27.5801
28.9634
29.8093
30.3047
30.588
30.7371
30.7884
30.7651
30.6895
30.6015
786.012
455.163
24.0457
23.8807
23.8585
23.8526
23.8009
23.6429
23.3212
22.7849
21.9815
20.8542
19.3055
17.2925
14.623
10.3711
7.00331
6.75582
7.34264
5.72779
8.34049
10.7595
15.3202
19.5164
23.1164
26.012
28.1415
29.5109
30.2652
30.5981
30.6882
30.6552
30.5689
30.4807
30.516
788.165
455.511
24.0397
23.8712
23.8715
23.9025
23.8974
23.7922
23.5363
23.0961
22.4382
21.5165
20.2566
18.5642
16.3875
13.4839
8.60678
6.76548
5.92446
7.42793
6.97808
7.55485
14.8184
18.9418
22.2055
25.0633
27.4596
29.2666
30.442
31.0518
31.2669
31.2644
31.1759
31.1033
31.2362
791.131
455.9
24.0075
23.8174
23.8255
23.8826
23.9182
23.8615
23.661
23.2947
22.7481
21.9969
20.9956
19.657
17.8999
15.5734
11.997
6.20422
4.68199
6.97206
5.20295
9.02076
14.9131
19.8362
22.7261
24.821
26.6843
28.4019
29.822
30.8045
31.3522
31.5806
31.6313
31.6382
31.807
792.268
456.127
23.9273
23.7074
23.7195
23.811
23.9151
23.9505
23.8482
23.5788
23.1332
22.4992
21.651
20.5436
19.0942
17.2604
14.8196
10.1832
4.86099
6.32005
4.73842
5.12647
12.3692
19.8019
23.8001
25.8902
27.1601
28.1987
29.1354
29.9053
30.4537
30.7935
30.988
31.1344
31.4146
790.053
456.318
23.7984
23.5252
23.5183
23.6245
23.7875
23.912
23.906
23.7327
23.3854
22.8581
22.1325
21.1724
19.9208
18.3001
16.2398
13.4498
8.45141
7.57035
4.54002
4.4208
9.03348
18.2905
23.9166
27.0002
28.5107
29.3022
29.9099
30.4404
30.8459
31.12
31.2996
31.4329
31.555
786.98
456.321
23.619
23.2901
23.2569
23.3775
23.6201
23.8657
23.9776
23.9026
23.6365
23.1808
22.5244
21.6411
20.4854
18.969
17.004
14.1317
7.85749
6.89198
4.96344
7.64684
8.1951
16.8939
23.2222
27.164
29.5275
30.6392
31.0092
31.1638
31.3167
31.4523
31.5248
31.4926
31.1842
782.38
455.973
23.4031
23.014
22.9312
23.0389
23.3518
23.7268
23.9703
24.0087
23.8378
23.4587
22.8594
22.0128
20.8729
19.3382
17.3088
14.3675
9.51105
5.69074
6.9427
7.58597
11.5809
17.0406
22.4355
26.0731
28.6533
30.6914
32.0278
32.5422
32.5096
32.238
31.8524
31.3576
30.654
784.488
455.354
23.2103
22.7639
22.615
22.6881
23.068
23.5833
23.9692
24.1338
24.0774
23.8026
23.2961
22.5324
21.4469
19.9305
17.8457
14.7019
9.31667
7.45607
5.47146
12.1209
15.9263
17.5393
20.8481
24.5226
26.9898
28.1946
29.1577
30.2968
31.2278
31.6638
31.7503
31.708
31.9303
797.017
454.352
23.0381
22.5282
22.2863
22.2811
22.6939
23.3473
23.8974
24.2243
24.3278
24.2119
23.8644
23.2531
22.3161
20.9335
18.9316
15.9261
11.1077
7.14494
6.59098
13.6028
20.8442
21.2152
20.6598
21.339
23.8485
26.8586
28.1903
28.5609
29.0771
29.7779
30.4281
31.0996
32.1996
796.505
453.441
22.9472
22.3561
22.001
21.8775
22.2654
23.0122
23.7146
24.2199
24.5205
24.6209
24.5086
24.1616
23.534
22.5359
20.9942
18.6714
15.021
8.99849
4.97785
8.45233
18.312
25.1334
26.1501
25.3502
23.9186
24.2098
27.1421
29.8088
30.904
31.3629
31.6939
32.0153
32.2511
784.957
452.749
22.8683
22.1653
21.6801
21.4097
21.7215
22.5078
23.3315
24.0085
24.5171
24.8601
25.0325
25.0123
24.7818
24.2998
23.483
22.1636
20.078
16.7455
11.2786
8.76632
9.39207
14.577
21.9779
26.5145
28.3032
27.6056
26.443
27.0731
29.2311
30.9095
31.7938
32.1677
31.7195
775.88
452.632
22.8065
21.9589
21.3309
20.885
21.0592
21.8084
22.6838
23.4806
24.1621
24.724
25.1609
25.4633
25.6134
25.5769
25.3309
24.8314
23.9874
22.6165
20.4339
16.8835
11.1455
10.1905
9.75246
14.2639
20.9616
27.2336
30.4545
30.38
29.3359
29.2266
29.8002
30.3209
30.0594
771.918
452.998
22.7014
21.6944
20.9288
20.2916
20.2677
20.9169
21.7803
22.6317
23.4272
24.1617
24.8276
25.4093
25.8855
26.2326
26.4268
26.4411
26.2296
25.7565
24.9516
23.6687
21.6657
18.6556
14.4157
9.00368
6.26668
12.6843
21.2659
28.6749
32.3011
32.2292
31.179
30.3092
29.4398
772.808
453.751
22.5857
21.4445
20.571
19.7237
19.3725
19.7977
20.5733
21.4239
22.2907
23.1747
24.0753
24.97
25.8127
26.5492
27.1348
27.5399
27.7463
27.7401
27.5052
26.9974
26.1425
24.8143
22.7969
19.8942
15.877
10.8388
8.42789
13.9611
23.018
30.3534
32.8245
33.3631
33.0924
780.438
454.738
22.4831
21.2651
20.3345
19.3101
18.5486
18.5985
19.1695
19.9395
20.8371
21.8922
23.1354
24.5247
25.9291
27.2058
28.2669
29.0789
29.6394
29.9575
30.0466
29.9087
29.5427
28.9271
28.0147
26.7109
24.9654
22.74
20.0375
17.3542
15.9773
20.9521
28.2221
31.7429
32.8594
783.454
455.227
22.3465
21.0951
20.1158
18.9484
17.8358
17.4919
17.8069
18.4481
19.3853
20.7596
22.6959
25.0389
27.3598
29.3187
30.8226
31.9063
32.6391
33.0857
33.2959
33.2971
33.1076
32.7324
32.1657
31.3975
30.4344
29.3183
28.1094
26.8346
25.236
21.3014
19.1776
23.3111
26.7365
794.339
455.269
22.2173
20.8927
19.8136
18.5269
17.233
16.5998
16.693
17.2132
18.2898
20.3393
23.5566
27.2758
30.399
32.4028
33.5784
34.3078
34.7823
35.0743
35.206
35.1817
35.0008
34.6616
34.1607
33.4996
32.6984
31.7613
30.58
29.07
26.7376
20.0524
13.4988
21.1
29.2297
822.76
455.828
22.1002
20.5702
19.335
18.0441
16.8621
16.0627
15.8793
16.0814
16.8521
18.7558
22.1509
26.1696
29.2729
31.1416
32.3258
33.1859
33.8515
34.3536
34.6908
34.8527
34.829
34.611
34.1912
33.5637
32.7131
31.4411
29.0026
26.5113
23.1942
18.8082
20.4422
27.1693
33.9761
830.074
456.871
21.838
19.9991
18.515
17.2356
16.4085
15.7382
15.3524
15.0857
14.8323
14.8854
16.3298
20.2628
25.008
28.4839
30.5577
31.8362
32.7278
33.3936
33.8811
34.184
34.2842
34.1605
33.7848
33.1066
31.9565
29.7777
26.0356
24.1321
22.8278
22.9877
26.6564
30.7921
34.8749
812.049
456.476
21.3008
19.2495
17.5125
16.1353
15.5737
15.2138
14.9397
14.7826
14.814
15.3724
17.1468
20.6516
24.8941
28.0685
29.9092
31.0582
31.9046
32.5885
33.1415
33.5486
33.776
33.7828
33.5194
32.9013
31.7088
29.3778
25.5575
24.0966
24.5608
26.3986
29.2871
31.8251
34.2051
799.489
454.206
20.806
18.8965
17.2079
15.7133
15.0869
14.8174
14.5319
14.1547
13.6961
13.3947
14.0721
17.0654
22.0463
26.2539
28.6165
29.9609
30.882
31.6162
32.2327
32.7293
33.0741
33.2237
33.1251
32.6911
31.7128
29.6649
26.1074
24.4862
25.8492
28.1973
30.3537
32.0853
33.7005
796.275
451.051
20.5565
19.0855
17.6974
15.9909
14.7761
14.33
14.1716
13.9427
13.491
12.8167
12.2286
13.128
17.4224
23.1499
26.8552
28.6852
29.7579
30.552
31.2167
31.7767
32.205
32.4554
32.4709
32.156
31.2839
29.3928
26.6157
25.7837
27.4245
29.5122
31.0602
32.2803
33.3506
793.201
448.591
20.6998
19.6596
18.6725
17.1276
15.2191
13.9896
13.6754
13.6565
13.4424
12.8668
11.9363
11.0009
12.2302
17.9308
23.9218
27.0338
28.5226
29.4394
30.1535
30.7586
31.2447
31.5612
31.6379
31.3586
30.4643
28.5775
26.6497
27.4373
29.2323
30.7514
31.7622
32.5043
32.9464
789.218
448.152
20.8542
19.8723
19.0666
17.9431
16.1215
14.12
13.1672
13.2307
13.3375
13.0449
12.2582
10.9749
9.60042
11.5534
18.6968
24.5009
27.0463
28.2919
29.108