/*--------------------------------*- C++ -*----------------------------------*\
| =========                 |                                                 |
| \\      /  F ield         | OpenFOAM: The Open Source CFD Toolbox           |
|  \\    /   O peration     | Version:  v2006                                 |
|   \\  /    A nd           | Website:  www.openfoam.com                      |
|    \\/     M anipulation  |                                                 |
\*---------------------------------------------------------------------------*/
FoamFile
{
    version     2.0;
    format      ascii;
    class       volScalarField;
    location    "42";
    object      T;
}
// * * * * * * * * * * * * * * * * * * * * * * * * * * * * * * * * * * * * * //

dimensions      [0 0 0 1 0 0 0];


internalField   nonuniform List<scalar> 
78750
(
324.748
326.266
327.345
328.756
330.345
330.457
330.26
329.998
329.705
329.465
329.263
329.102
328.973
328.872
328.792
328.721
328.654
328.588
328.522
328.452
328.379
328.302
328.22
328.134
328.042
327.944
327.838
327.722
327.592
327.443
327.282
327.195
327.725
334.059
429.975
309.203
316.36
321.044
325.325
329.063
332.594
334.772
335.815
335.864
335.179
334.158
333.076
332.073
331.245
330.627
330.169
329.811
329.528
329.305
329.123
328.971
328.839
328.721
328.616
328.528
328.46
328.416
328.405
328.439
328.548
328.798
329.407
331.497
345.025
444.724
313.341
323.714
326.797
328.091
328.839
329.446
330.236
331.223
332.26
333.273
334.186
334.774
334.845
334.484
333.864
333.093
332.284
331.563
330.984
330.512
330.108
329.765
329.479
329.252
329.086
328.988
328.969
329.07
329.361
329.991
331.332
334.55
343.696
371.475
459.284
306.706
317.45
325.14
330.14
333.775
336.557
338.26
338.595
337.747
336.473
335.496
335.049
335
335.071
335.05
334.922
334.709
334.402
334.016
333.567
333.073
332.554
332.03
331.522
331.052
330.638
330.298
330.048
329.904
329.892
330.115
330.99
335.487
364.324
463.647
315.687
331.032
336.564
339.943
342.472
342.954
342.255
341.273
340.176
339.29
338.674
338.138
337.636
337.179
336.759
336.353
335.941
335.502
335.028
334.514
333.967
333.401
332.832
332.282
331.776
331.338
330.999
330.793
330.757
331.13
332.737
338.095
353.918
390.033
473.317
318.192
328.693
334.351
338.548
340.212
340.092
339.977
339.901
339.726
339.461
339.166
338.878
338.594
338.308
338.013
337.706
337.385
337.046
336.688
336.306
335.887
335.417
334.906
334.364
333.805
333.245
332.708
332.226
331.834
331.541
331.486
332.634
341.741
381.235
474.101
325.101
335.693
339.568
341.529
341.456
341.861
342.499
342.896
342.909
342.588
342.047
341.402
340.74
340.105
339.506
338.945
338.416
337.919
337.449
336.994
336.523
336.018
335.484
334.938
334.401
333.9
333.473
333.152
332.968
333.127
334.481
340.005
357.691
397.712
479.194
311.179
318.425
321.641
324.789
328.084
331.358
334.546
337.418
339.853
341.74
342.994
343.597
343.625
343.235
342.618
341.927
341.234
340.566
339.921
339.298
338.703
338.136
337.587
337.037
336.476
335.906
335.348
334.833
334.403
334.139
334.381
337.286
353.352
396.065
480.084
311.242
320.629
326.162
329.207
331.18
332.796
334.378
336.158
338.185
340.248
342.115
343.648
344.743
345.31
345.298
344.754
343.846
342.819
341.824
340.913
340.096
339.356
338.659
337.979
337.303
336.635
335.989
335.391
334.885
334.6
335.191
340.303
362.038
406.415
483.232
306.913
317.396
324.819
329.39
332.47
334.845
336.818
338.49
339.936
341.238
342.434
343.521
344.499
345.358
346.042
346.446
346.442
345.953
345.079
344.063
343.044
342.047
341.095
340.204
339.37
338.583
337.85
337.19
336.639
336.264
336.342
339.23
358.604
405.797
484.778
309.309
320.637
327.277
331.271
334.051
336.39
338.641
340.916
343.112
344.966
346.258
346.961
347.245
347.355
347.466
347.633
347.8
347.817
347.474
346.612
345.427
344.27
343.206
342.17
341.155
340.149
339.128
338.085
337.103
336.37
336.292
340.05
361.796
408.055
482.544
308.109
320.366
327.754
332.15
335.299
338.038
340.68
343.282
345.694
347.741
349.282
350.165
350.373
350.163
349.839
349.532
349.271
349.077
348.901
348.57
347.856
346.742
345.561
344.489
343.45
342.377
341.261
340.081
338.774
337.227
335.571
336.787
351.065
400.13
483.563
315.004
330.412
336.165
339.332
342.047
344.823
347.8
350.614
352.559
353.461
353.723
353.663
353.355
352.865
352.35
351.895
351.477
351.037
350.551
350.054
349.451
348.536
347.296
346.087
345.055
344.058
342.965
341.735
340.221
338.213
337.696
348.01
375.392
415.268
484.113
318.473
329.964
333.792
336.268
338.701
341.387
344.413
347.491
350.028
351.681
352.613
353.107
353.327
353.33
353.16
352.897
352.601
352.287
351.922
351.452
350.846
350.063
349.016
347.782
346.603
345.564
344.548
343.412
341.976
340.082
339.883
352.468
398.341
436.764
488.141
318.191
329.248
333.222
335.694
337.81
339.788
341.72
343.713
345.828
347.944
349.822
351.303
352.359
353.037
353.408
353.537
353.49
353.334
353.108
352.81
352.392
351.768
350.878
349.713
348.435
347.272
346.259
345.277
344.19
342.75
341.171
344.551
373.36
426.109
490.558
313.132
324.23
329.068
331.848
333.977
335.847
337.594
339.325
341.132
343.075
345.138
347.217
349.161
350.805
352.029
352.823
353.267
353.466
353.5
353.423
353.258
352.985
352.511
351.699
350.518
349.172
347.934
346.849
345.787
344.467
342.685
346.377
371.83
418.281
484.995
311.812
323.714
330.069
333.724
336.391
338.683
340.735
342.54
344.05
345.26
346.273
347.266
348.388
349.671
350.988
352.124
352.927
353.402
353.645
353.741
353.739
353.66
353.494
353.178
352.547
351.461
350.083
348.764
347.607
346.763
345.442
343.418
370.097
421.08
489.259
310.466
323.162
330.201
334.242
337.183
339.75
342.17
344.51
346.683
348.47
349.7
350.397
350.753
351.026
351.43
352.018
352.655
353.169
353.497
353.671
353.746
353.758
353.717
353.613
353.401
352.952
352.096
350.88
349.804
348.22
344.815
331.115
333.619
388.856
476.831
312.168
325.817
332.438
336.135
338.847
341.231
343.522
345.836
348.165
350.352
352.144
353.334
353.923
354.062
353.937
353.78
353.769
353.877
353.986
354.047
354.068
354.053
353.998
353.893
353.723
353.421
352.775
351.586
349.299
347.163
355.905
363.561
365.906
402.696
472.949
312.755
326.129
332.624
336.411
339.332
341.977
344.524
346.982
349.208
351.112
352.726
354.015
354.869
355.282
355.329
355.074
354.693
354.423
354.302
354.256
354.232
354.206
354.165
354.094
353.975
353.773
353.539
354.148
360.163
382.129
421.121
453.007
464.095
480.412
515.704
314.245
328.795
335.506
339.423
342.577
345.597
348.688
351.714
354.16
355.671
356.424
356.785
356.967
357.012
356.901
356.586
356.059
355.496
355.077
354.812
354.642
354.522
354.425
354.339
354.262
354.212
354.281
354.816
357.103
364.652
381.906
407.668
436.47
476.094
508.645
315.921
330.431
336.482
340.107
343.227
346.364
349.703
353.059
355.874
357.702
358.581
358.809
358.66
358.325
357.895
357.353
356.671
355.972
355.434
355.071
354.814
354.605
354.404
354.172
353.838
353.24
352.004
349.751
346.931
344.79
345.993
354.884
350.681
366.723
463.648
317.274
331.673
337.592
341.262
344.532
347.869
351.341
354.586
357.111
358.727
359.572
359.856
359.728
359.323
358.753
358.046
357.225
356.479
355.984
355.699
355.55
355.513
355.585
355.764
356.008
356.167
355.918
355.439
355.441
353.868
347.936
339.051
324.868
344.254
442.099
317.3
331.713
337.564
341.207
344.484
347.84
351.331
354.608
357.157
358.749
359.519
359.69
359.419
358.877
358.232
357.555
356.904
356.381
356.046
355.884
355.927
356.283
357.113
358.792
362.259
369.463
382.569
397.386
399.304
386.822
372.473
362.047
363.812
389.474
454.997
317.454
331.912
337.796
341.425
344.619
347.821
351.184
354.563
357.459
359.387
360.319
360.495
360.123
359.462
358.831
358.341
357.934
357.551
357.16
356.747
356.32
355.949
355.836
356.399
358.4
363.419
374.643
394.431
415.096
423.359
421.757
420.086
425.626
445.111
494.84
317.033
331.278
337.295
341.007
344.204
347.295
350.401
353.524
356.493
358.89
360.408
361.149
361.341
361.09
360.488
359.806
359.289
358.967
358.773
358.641
358.509
358.296
357.899
357.277
356.644
356.647
358.745
365.82
380.507
400.068
418.784
433.519
445.488
462.886
504.409
317.016
331.598
337.799
341.602
344.889
348.111
351.293
354.283
356.991
359.342
361.108
362.158
362.617
362.642
362.261
361.505
360.719
360.253
360.112
360.199
360.481
360.971
361.682
362.554
363.202
362.793
361.581
361.193
363.922
371.943
385.764
403.566
423.201
447.006
492.173
316.926
331.497
337.71
341.515
344.825
348.127
351.416
354.455
357.097
359.327
361.088
362.277
362.923
363.159
363.064
362.603
361.82
361.121
360.849
361.016
361.638
362.924
365.314
369.329
374.126
375.354
371.534
367.249
364.397
363.931
367.969
380.028
402.037
428.426
474.565
317.038
331.962
338.406
342.353
345.837
349.396
352.889
355.931
358.4
360.388
361.953
363.054
363.694
363.965
363.957
363.684
363.114
362.341
361.65
361.3
361.429
362.211
363.964
367.22
372.398
378
380.005
377.441
373.288
369.732
368.492
374.116
392.165
417.341
463.486
317.341
332.496
338.944
342.896
346.488
350.262
353.868
356.841
359.141
360.939
362.359
363.416
364.098
364.457
364.569
364.476
364.174
363.663
363.026
362.393
361.889
361.644
361.806
362.645
364.773
369.029
374.974
379.951
381.675
380.751
380.091
384.211
397.648
420.332
468.322
317.705
333.325
340.014
344.176
348.135
352.348
356.04
358.778
360.747
362.241
363.423
364.312
364.886
365.179
365.257
365.172
364.951
364.636
364.277
363.867
363.416
363.072
363.01
363.296
364.137
366.253
370.626
377.414
384.981
391.055
395.638
401.573
412.132
431.472
479.47
318.148
334.286
341.144
345.591
350.175
354.906
358.423
360.661
362.157
363.292
364.223
364.957
365.447
365.697
365.758
365.693
365.602
365.677
366.091
366.766
367.371
367.405
366.683
365.706
365.113
365.492
367.637
372.482
380.174
389.119
397.678
406.785
418.894
438.31
484.303
318.959
335.725
342.729
347.621
353.263
358.575
361.693
363.254
364.153
364.821
365.397
365.868
366.175
366.301
366.287
366.231
366.398
367.343
369.586
372.649
374.416
373.367
371.123
369.016
367.234
365.935
365.648
367.422
372.535
381.269
392.634
406.586
423.044
445.062
490.246
320.048
336.893
343.805
349.098
355.875
361.362
363.847
364.866
365.41
365.81
366.161
366.464
366.673
366.749
366.694
366.596
366.781
368.016
371.213
376.132
380.305
381.078
379.33
377.025
374.748
372.66
371.156
371.33
375.376
385.459
400.708
417.974
435.306
457.937
502.161
321.02
337.8
344.715
350.369
358.103
363.882
365.906
366.515
366.784
366.964
367.11
367.225
367.294
367.29
367.186
366.974
366.751
366.921
368.293
371.541
376.075
380.007
382.139
382.748
382.439
381.727
381.163
381.687
385.287
394.882
410.916
428.477
444.454
465.303
506.751
321.669
338.027
344.746
350.289
358.086
364.636
366.899
367.477
367.663
367.759
367.833
367.891
367.923
367.912
367.841
367.685
367.418
367.071
366.859
367.22
368.544
370.775
373.463
376.199
378.743
380.978
382.969
385.143
388.647
395.684
408.313
424.359
439.457
458.689
500.187
321.747
337.962
344.601
349.842
357.04
364.63
367.783
368.601
368.788
368.81
368.785
368.745
368.698
368.638
368.559
368.446
368.283
368.039
367.713
367.426
367.419
367.888
368.91
370.5
372.638
375.271
378.348
381.915
386.352
392.792
403.09
417.278
432.181
451.648
494.779
321.503
337.672
344.259
349.052
355.1
362.895
367.49
368.975
369.384
369.482
369.48
369.441
369.387
369.327
369.268
369.228
369.249
369.406
369.618
369.644
369.466
369.285
369.372
369.924
371.088
373.007
375.857
379.922
385.689
393.796
404.69
417.877
431.928
451.291
494.922
321.464
337.561
344.119
348.535
353.397
359.916
366.087
368.977
369.918
370.145
370.149
370.082
369.995
369.912
369.857
369.895
370.239
371.292
372.477
372.241
371.37
370.645
370.245
370.282
370.912
372.335
374.791
378.655
384.636
393.628
405.619
418.982
432.632
451.553
494.619
321.025
336.514
343.018
347.131
350.85
355.281
361.574
366.891
369.56
370.442
370.641
370.623
370.533
370.422
370.325
370.31
370.618
371.935
374.525
375.498
374.096
372.777
371.835
371.22
371.065
371.62
373.164
375.937
380.351
387.517
398.905
413.959
429.574
449.49
492.281
319.289
334.656
342.038
346.712
350.535
354.055
358.015
363.534
368.231
370.379
371.001
371.104
371.043
370.921
370.776
370.646
370.63
371.14
373.217
376.778
378.167
376.899
375.441
374.278
373.39
372.98
373.482
375.457
379.279
385.468
396.054
412.153
429.349
450.746
494.699
317.513
334.165
343.075
348.858
353.952
358.632
361.694
364.101
368.012
370.589
371.385
371.543
371.518
371.42
371.282
371.12
370.964
370.935
371.527
373.851
377.849
380.522
380.363
379.037
377.717
376.672
376.331
377.79
382.755
391.895
404.798
420.985
437.269
458.395
501.994
318.824
337.779
347.245
353.638
360.031
366.453
369.786
369.641
370.689
371.891
372.072
372.079
372.021
371.921
371.79
371.629
371.441
371.253
371.214
371.864
374.252
378.576
382.642
384.188
383.546
382.245
381.242
381.798
386.738
398.646
414.903
430.849
445.51
465.118
506.245
324.404
343.61
351.904
358.35
365.579
372.021
374.193
373.005
372.735
372.878
372.802
372.728
372.632
372.514
372.372
372.202
371.998
371.757
371.516
371.455
372.142
374.627
379.45
385.088
388.936
389.947
389.133
388.287
390.131
398.656
413.837
429.582
444.125
464.223
507.924
328.322
345.275
351.977
357.666
363.767
369.1
372.156
372.888
373.202
373.47
373.539
373.501
373.405
373.277
373.124
372.943
372.725
372.457
372.136
371.805
371.677
372.365
375.038
380.698
388.611
396.376
401.93
404.871
406.739
410.714
419.622
432.095
446.4
468.311
514.451
325.066
340.026
345.618
349.487
353.216
357.553
362.634
367.107
370
371.942
373.167
373.828
374.085
374.099
373.997
373.842
373.649
373.409
373.107
372.727
372.299
371.993
372.37
374.607
380.157
389.507
401.511
414.284
426.352
436.87
445.621
454
464.634
482.69
520.059
319.011
333.899
341.085
345.495
348.944
351.986
355.071
358.829
363.036
366.659
369.525
371.743
373.35
374.265
374.597
374.627
374.533
374.379
374.176
373.911
373.559
373.112
372.657
372.542
373.579
377.059
384.225
395.525
410.368
427.469
444.792
458.854
468.897
481.721
513.101
316.169
333.057
342.454
348.279
352.875
357.049
360.728
363.52
365.499
367.165
368.761
370.268
371.743
373.294
374.417
374.929
375.076
375.072
374.997
374.871
374.689
374.434
374.089
373.68
373.359
373.506
374.796
378.137
384.399
393.784
406.293
422.064
439.352
458.201
496.154
319.031
337.823
346.763
352.121
356.424
360.52
364.881
369.475
373.096
374.814
375.167
374.812
374.033
374.076
374.792
375.326
375.545
375.608
375.61
375.575
375.503
375.384
375.207
374.963
374.668
374.387
374.269
374.564
375.644
378.308
381.774
387.539
410.666
437.496
480.517
323.151
341.015
348.215
352.682
356.631
360.515
364.463
368.593
372.785
376.11
377.882
378.14
376.983
376.04
376.007
376.153
376.242
376.287
376.304
376.3
376.274
376.219
376.129
376
375.838
375.675
375.568
375.609
375.982
378.015
377.323
379.827
404.925
433.578
475.986
322.981
339.474
346.333
350.756
354.805
359.014
363.441
367.672
371.283
374.226
376.402
377.55
377.508
377.009
376.855
376.877
376.93
376.981
377.024
377.057
377.077
377.081
377.064
377.029
376.997
377.021
377.21
377.809
379.674
385.207
386.833
392.638
414.488
441.947
486.73
321.275
337.938
345.1
349.526
353.317
357.103
361.264
365.81
370.053
373.291
375.526
377.054
377.849
377.728
377.482
377.439
377.493
377.574
377.661
377.75
377.835
377.911
377.968
378.001
378.031
378.13
378.479
379.56
383.012
392.737
402.43
411.604
428.494
452.613
499.794
320.977
337.389
344.483
348.832
352.445
355.855
359.391
363.429
367.966
372.152
375.141
376.966
378.099
378.485
378.146
377.928
377.945
378.054
378.194
378.358
378.546
378.754
378.967
379.166
379.352
379.574
380.006
381.157
384.694
395.193
413.206
428.343
442.54
462.831
507.59
320.398
336.188
343.351
347.819
351.532
355.034
358.535
362.193
366.176
370.396
374.152
376.737
378.214
379.008
378.912
378.453
378.334
378.44
378.62
378.843
379.114
379.432
379.773
380.109
380.436
380.812
381.386
382.526
385.327
393.126
411.032
433.049
449.207
468.395
509.286
318.945
334.999
342.894
347.787
351.718
355.356
358.963
362.599
366.146
369.614
373.034
375.977
377.96
379.085
379.51
379.123
378.789
378.829
379.046
379.355
379.764
380.284
380.87
381.417
381.811
382.038
382.26
382.828
384.486
389.368
402.635
425.874
445.841
466.703
505.861
317.79
334.498
343.276
348.694
352.952
356.855
360.678
364.393
367.738
370.587
373.155
375.579
377.588
378.933
379.733
379.846
379.34
379.132
379.31
379.676
380.209
380.955
381.924
383.043
384.127
384.952
385.497
386.104
387.566
391.852
403.528
425.504
445.644
466.639
504.869
317.554
335.037
344.508
350.375
355.031
359.449
363.816
367.793
370.976
373.335
375.146
376.757
378.219
379.318
380.018
380.431
380.213
379.605
379.534
379.886
380.492
381.372
382.541
383.953
385.528
387.105
388.537
389.957
391.975
396.229
406.515
425.36
443.358
463.2
501.986
317.855
336.447
346.578
352.884
358.11
363.363
368.365
372.278
374.886
376.555
377.697
378.626
379.501
380.24
380.724
380.974
380.951
380.314
379.896
380.171
380.854
381.928
383.46
385.323
387.227
388.89
390.271
391.826
394.526
400.044
410.84
426.96
442.299
461.084
501.312
319.084
339.236
349.789
356.547
362.848
369.495
374.779
377.745
379.06
379.669
380.08
380.466
380.864
381.231
381.489
381.601
381.517
381.044
380.303
380.363
381.046
382.226
384.126
387.018
390.965
395.468
399.603
403.026
406.768
412.762
422.705
435.634
448.65
466.522
506.382
322.341
343.783
354.029
361.347
369.593
377.478
381.475
382.528
382.488
382.248
382.094
382.07
382.139
382.242
382.324
382.343
382.256
381.952
381.272
380.823
381.257
382.111
383.2
384.512
386.533
390.131
395.587
402.082
408.57
415.455
424.151
434.741
446.092
462.492
502.4
327.342
348.65
358.316
366.701
377.476
384.779
385.582
384.718
384.126
383.757
383.522
383.384
383.317
383.291
383.272
383.231
383.133
382.918
382.445
381.642
381.418
382.565
384.811
387.675
390.127
392.194
395.166
400.312
407.927
417.031
426.718
436.783
447.592
463.909
503.104
329.967
349.894
359.241
368.237
379.354
385.807
385.71
384.928
384.544
384.34
384.238
384.19
384.168
384.156
384.142
384.113
384.054
383.944
383.741
383.364
382.829
382.718
383.75
386.443
390.862
396.017
401.111
406.412
412.926
421.327
431.088
441.238
451.893
467.769
505.7
329.208
348.124
356.046
362.868
371.522
380.271
384.534
385.363
385.321
385.135
384.989
384.91
384.879
384.867
384.853
384.82
384.754
384.641
384.458
384.14
383.55
382.662
382.044
382.036
383.204
386.357
391.729
398.769
406.594
415.118
424.837
435.364
446.253
461.678
499.757
325.945
343.967
351.163
356.014
361.474
369.606
378.719
383.831
385.533
385.834
385.79
385.705
385.643
385.604
385.567
385.511
385.412
385.244
384.971
384.608
384.462
385.453
388.106
390.527
391.168
390.955
392.148
396.601
405.038
415.632
426.392
436.985
448.057
464.404
502.875
322.268
340.88
349.796
355.377
360.014
364.829
371.753
379.532
384.25
385.825
386.136
386.177
386.206
386.27
386.364
386.468
386.563
386.636
386.69
386.76
386.994
387.841
390.142
394.32
399.288
402.854
404.55
406.757
412.29
421.745
432.704
443.415
454.711
471.895
510.393
322.634
342.757
352.558
359.185
365.425
371.165
375.045
378.669
383.103
385.535
386.138
386.226
386.264
386.34
386.471
386.649
386.859
387.083
387.316
387.579
387.931
388.526
389.687
392.014
396.269
402.547
409.548
415.609
420.82
427.551
436.388
446.208
457.021
473.645
512.052
323.748
344.149
353.552
359.749
365.94
373.419
380.485
383.937
385.817
387.25
387.019
386.682
386.564
386.572
386.66
386.814
387.022
387.267
387.535
387.821
388.137
388.528
389.1
390.087
391.98
395.657
402.169
411.824
422.592
431.727
440.063
448.708
458.543
474.098
511.507
325.813
346.186
355.207
361.296
367.348
374.166
381.16
385.812
387.523
388.996
389.016
388.103
387.628
387.427
387.362
387.389
387.491
387.658
387.87
388.111
388.367
388.638
388.95
389.378
390.107
391.567
394.718
401.379
413.224
427.272
439.009
448.722
458.405
473.059
509.425
326.518
346.359
354.933
360.903
367.032
373.893
381
386.645
388.733
388.774
389.47
388.936
388.484
388.265
388.166
388.153
388.218
388.356
388.553
388.791
389.05
389.309
389.558
389.807
390.118
390.676
391.972
395.312
403.5
417.844
433.002
445.563
456.557
471.466
507.367
324.728
344.375
353.383
359.411
365.22
371.577
378.32
384.728
389.098
389.896
389.437
389.671
389.546
389.326
389.218
389.186
389.216
389.314
389.489
389.739
390.053
390.415
390.802
391.195
391.593
392.057
392.831
394.721
400.087
412.336
428.871
443.806
456.117
471.829
507.983
326.855
346.825
355.298
361.122
367.15
374.061
381.063
386.199
389.276
390.877
390.482
389.74
389.77
389.907
389.957
390.026
390.128
390.279
390.495
390.784
391.16
391.636
392.214
392.898
393.696
394.65
395.935
398.189
403.368
414.736
431.058
446.048
458.411
474.627
511.41
325.524
344.736
353.231
359.075
364.703
370.777
377.923
385.513
390.33
391.402
391.03
390.406
390.284
390.623
390.817
390.958
391.106
391.297
391.554
391.887
392.322
392.9
393.658
394.646
395.946
397.697
400.169
403.99
410.651
422.232
437.294
450.667
462.314
478.598
515.228
324.561
344.208
353.021
359.093
365.141
371.443
377.276
382.675
388.125
391.305
391.492
390.975
390.946
391.422
391.756
391.966
392.149
392.353
392.609
392.945
393.397
394.008
394.838
395.982
397.595
399.949
403.494
408.944
417.345
429.465
443.205
454.934
465.735
481.573
517.195
325.653
345.327
353.81
359.636
365.363
371.567
378.127
383.905
388.16
391.078
391.985
391.671
391.725
392.425
392.972
393.249
393.455
393.663
393.907
394.215
394.623
395.179
395.961
397.085
398.756
401.328
405.401
411.844
421.502
434.175
447.062
457.665
467.71
482.831
517.426
323.927
343.288
352.129
358.085
363.619
369.106
374.54
380.021
385.317
389.622
391.881
392.035
391.75
392.39
393.525
394.274
394.71
395.041
395.362
395.716
396.135
396.656
397.347
398.333
399.84
402.285
406.406
413.266
423.704
436.847
449.258
459.158
468.649
483.205
517.34
325.069
345.212
353.997
359.847
365.42
371.238
376.985
381.841
385.606
388.775
391.409
392.412
391.985
391.823
392.992
394.569
395.693
396.391
396.91
397.409
397.966
398.626
399.438
400.498
402.013
404.416
408.519
415.511
426.194
439.199
450.907
460.252
469.45
483.839
517.837
325.186
345.128
353.881
359.62
364.729
369.645
374.637
379.757
384.435
388.074
390.758
392.494
392.666
391.931
391.979
393.562
395.485
396.979
398.004
398.797
399.574
400.464
401.555
402.935
404.769
407.441
411.725
418.789
429.285
441.544
452.299
461.123
470.121
484.417
518.207
325.41
345.607
354.377
360.132
365.404
370.594
375.547
380.013
383.987
387.453
390.218
392.198
393.104
392.692
391.89
392.312
394.394
396.872
398.81
400.124
401.129
402.15
403.409
405.09
407.388
410.61
415.34
422.446
432.303
443.309
452.986
461.277
470.024
484.13
517.925
325.932
346.08
354.742
360.38
365.405
370.209
374.847
379.238
383.198
386.598
389.418
391.644
393.117
393.428
392.663
391.938
392.763
395.181
398.245
400.931
402.854
404.302
405.737
407.544
410.083
413.737
418.934
426.095
435.151
444.785
453.455
461.287
469.833
483.834
517.844
325.497
345.496
354.256
360.008
365.235
370.321
375.1
379.317
382.944
386.085
388.776
391.002
392.747
393.722
393.582
392.67
392.187
393.437
396.001
399.516
403.055
405.871
408.076
410.223
412.888
416.644
422.006
429.181
437.714
446.442
454.476
462.048
470.465
484.265
517.869
325.535
345.66
354.493
360.279
365.531
370.672
375.555
379.824
383.304
386.122
388.495
390.532
392.231
393.557
394.076
393.598
392.702
392.655
394.235
396.783
400.448
404.622
408.388
411.571
414.666
418.373
423.408
430.177
438.297
446.682
454.574
462.143
470.494
483.984
517.159
325.297
345.417
354.398
360.318
365.732
371.084
376.175
380.566
384.036
386.695
388.79
390.535
392.042
393.321
394.232
394.304
393.602
392.921
393.514
395.196
397.543
401.161
405.757
410.4
414.68
418.877
423.632
429.596
436.881
444.808
452.625
460.262
468.594
481.966
515.977
325.389
345.865
355.019
361.046
366.559
372.022
377.231
381.694
385.129
387.646
389.524
391.004
392.236
393.289
394.181
394.645
394.331
393.635
393.644
395.331
397.24
399.271
402.762
407.815
413.523
419.229
424.826
430.624
437.005
443.983
451.281
458.812
467.236
480.841
515.363
325.671
346.55
355.904
362.068
367.703
373.235
378.433
382.833
386.191
388.608
390.344
391.644
392.679
393.548
394.29
394.863
394.904
394.343
394.002
395.276
398.517
401.079
403.133
406.692
412.18
418.93
426.202
433.449
440.484
447.409
454.387
461.622
469.822
482.997
515.486
326.297
347.693
357.196
363.468
369.225
374.83
379.977
384.228
387.421
389.694
391.297
392.454
393.325
394.009
394.568
395.038
395.321
395.069
394.634
395.206
398.734
403.914
406.699
408.521
411.753
417.116
424.34
432.59
440.896
448.703
456.022
463.214
471.161
483.91
516.099
327.007
348.795
358.417
364.821
370.771
376.516
381.603
385.627
388.577
390.671
392.156
393.227
394.017
394.61
395.059
395.395
395.635
395.625
395.379
395.533
397.565
403.786
410.313
413.508
415.39
418.147
422.67
428.954
436.432
444.44
452.526
460.65
469.698
484.294
519.345
327.713
349.773
359.468
366.011
372.234
378.245
383.372
387.221
389.926
391.803
393.121
394.067
394.757
395.265
395.641
395.913
396.091
396.163
396.154
396.453
397.477
401.932
410.867
418.007
421.76
424.033
426.83
431.23
437.258
444.319
451.94
460.075
469.802
486.243
523.019
328.293
350.515
360.283
367.035
373.672
380.077
385.263
388.892
391.319
392.97
394.129
394.963
395.567
396.003
396.31
396.519
396.66
396.79
397.172
398.053
399.076
401.926
410.435
420.462
428.139
433.357
437.01
440.706
445.792
452.356
459.692
467.486
476.837
492.523
525.68
328.545
350.893
360.772
367.8
374.974
381.883
387.167
390.594
392.75
394.17
395.158
395.868
396.381
396.747
397.001
397.177
397.331
397.66
398.785
400.749
402.051
403.8
410.527
420.533
429.88
438.314
446.283
452.883
457.771
462.134
467.094
473.059
480.641
493.029
519.91
328.676
351.218
361.259
368.619
376.388
383.77
389.055
392.23
394.119
395.33
396.164
396.763
397.194
397.497
397.703
397.853
398.047
398.676
400.688
404.018
405.574
404.821
407.578
414.579
422.983
429.822
435.407
441.87
449.576
456.759
462.635
468.11
474.181
483.862
510.495
328.608
351.433
361.704
369.398
377.692
385.425
390.665
393.635
395.329
396.384
397.1
397.61
397.976
398.23
398.393
398.504
398.682
399.374
401.76
406.584
410.874
409.662
407.72
408.847
413.1
420.363
427.841
432.953
438.382
446.243
455.124
463.437
471.876
484.903
516.687
328.675
351.925
362.467
370.446
379.102
386.967
392.072
394.874
396.436
397.387
398.018
398.461
398.777
398.992
399.115
399.155
399.16
399.361
400.632
404.711
411.62
416.693
416.162
414.005
412.733
414.095
421.015
432.359
442.55
450.243
457.792
466.068
476.267
492.843
524.908
328.862
352.547
363.371
371.579
380.479
388.358
393.297
395.965
397.447
398.344
398.932
399.336
399.624
399.824
399.95
399.995
399.947
399.814
399.749
400.524
404.08
410.928
417.706
421.905
423.475
423.319
423.965
428.602
439.023
451.421
461.431
469.915
479.701
495.575
526.024
329.349
353.362
364.396
372.763
381.865
389.811
394.638
397.172
398.556
399.391
399.938
400.318
400.588
400.78
400.91
400.982
400.993
400.927
400.765
400.529
400.483
401.694
405.724
412.248
419.633
426.931
433.722
438.597
442.124
447.654
456.302
465.685
476.185
492.587
524.861
329.949
354.026
365.154
373.598
382.874
391.081
396.036
398.549
399.856
400.613
401.1
401.44
401.689
401.875
402.009
402.098
402.142
402.135
402.066
401.92
401.685
401.407
401.383
402.478
406.082
413.303
424.208
436.286
448.952
456.236
459.15
463.954
472.57
488.786
522.025
330.218
354.189
365.403
373.847
383.15
391.731
397.145
399.896
401.267
402.013
402.467
402.773
402.997
403.168
403.298
403.394
403.456
403.481
403.464
403.394
403.258
403.036
402.726
402.413
402.457
403.852
408.526
417.867
432.084
451.848
469.883
478.077
484.689
495.972
521.484
330.087
354.112
365.559
374.054
383.265
392.019
397.886
400.968
402.499
403.317
403.815
404.16
404.42
404.621
404.775
404.893
404.98
405.036
405.059
405.046
404.985
404.865
404.672
404.39
404.04
403.77
404.007
405.663
410.362
420.441
441.324
465.329
478.357
488.053
512.759
330.048
354.715
366.614
375.446
384.805
393.378
399.158
402.2
403.697
404.522
405.084
405.546
405.936
406.24
406.462
406.625
406.744
406.829
406.886
406.916
406.917
406.882
406.805
406.669
406.462
406.183
405.875
405.669
405.845
406.874
408.904
419.949
441.408
461.714
495.588
330.455
356.141
368.676
378.204
387.996
395.921
400.939
403.501
404.749
405.51
406.169
406.856
407.465
407.853
408.05
408.15
408.209
408.252
408.285
408.311
408.329
408.336
408.329
408.306
408.263
408.198
408.118
408.099
408.164
407.193
401.568
404.123
429.304
454.314
488.833
331.13
357.641
371.031
381.517
391.629
398.295
402.153
404.241
405.309
405.996
406.66
407.431
408.141
408.566
408.784
408.918
409.02
409.108
409.187
409.26
409.327
409.39
409.451
409.519
409.604
409.728
409.964
411.347
412.294
409.762
408.693
420.422
442.998
466.445
502.723
332.697
359.689
373.927
385.606
396.169
401.471
403.758
405.051
405.784
406.24
406.659
407.265
408.161
409.004
409.514
409.796
409.973
410.105
410.218
410.32
410.416
410.509
410.606
410.72
410.885
411.201
412.118
415.732
419.735
421.006
427.937
443.726
460.619
480.84
517.772
334.968
361.955
376.534
389.166
400.234
404.889
406.122
406.594
406.912
407.221
407.652
408.351
409.335
410.255
410.778
411.045
411.213
411.346
411.469
411.591
411.716
411.848
411.989
412.151
412.37
412.773
413.909
417.93
425.096
430.733
441.267
454.92
468.019
485.695
520.442
335.724
361.918
375.744
387.9
399.255
404.982
406.818
407.351
407.537
407.666
407.899
408.437
409.496
410.847
411.78
412.225
412.474
412.655
412.817
412.979
413.148
413.332
413.536
413.772
414.069
414.521
415.518
418.855
427.296
436.721
448.296
459.463
470.45
487.043
521.983
334.657
359.968
372.392
382.939
394.4
402.727
406.599
407.944
408.306
408.367
408.407
408.631
409.359
410.837
412.441
413.334
413.767
414.044
414.276
414.507
414.756
415.036
415.363
415.766
416.315
417.172
418.717
422.023
430.379
442.366
454.057
463.858
474.254
491.254
525.854
332.154
357.141
368.897
377.923
388.046
397.945
404.56
407.711
408.818
409.072
409.06
409.058
409.325
410.333
412.279
414.039
414.893
415.343
415.672
415.984
416.325
416.718
417.193
417.808
418.718
420.308
423.331
428.275
436.483
448.284
458.927
467.989
478.403
495.801
528.474
330.454
356.659
369.602
378.946
387.805
395.89
402.646
407.072
409.108
409.737
409.804
409.713
409.694
410.086
411.535
413.971
415.766
416.59