/*--------------------------------*- C++ -*----------------------------------*\
| =========                 |                                                 |
| \\      /  F ield         | OpenFOAM: The Open Source CFD Toolbox           |
|  \\    /   O peration     | Version:  v2012                                 |
|   \\  /    A nd           | Website:  www.openfoam.com                      |
|    \\/     M anipulation  |                                                 |
\*---------------------------------------------------------------------------*/
FoamFile
{
    version     2.0;
    format      ascii;
    class       surfaceScalarField;
    location    "85";
    object      phi;
}
// * * * * * * * * * * * * * * * * * * * * * * * * * * * * * * * * * * * * * //

dimensions      [1 0 -1 0 0 0 0];
oriented        oriented;


internalField   nonuniform List<scalar> 
228225
(
-9.65061e-10
-2.89502e-10
1.00449e-09
-2.36022e-09
2.88944e-09
-1.49247e-09
-5.57198e-09
5.17742e-09
-1.96753e-09
-1.0811e-08
7.27726e-09
-2.03187e-09
-1.79093e-08
9.18058e-09
-2.08717e-09
-2.65093e-08
1.08289e-08
-2.2294e-09
-3.62497e-08
1.22092e-08
-2.46704e-09
-4.67563e-08
1.33022e-08
-2.79338e-09
-5.7699e-08
1.41243e-08
-3.18514e-09
-6.87412e-08
1.46746e-08
-3.63207e-09
-7.96066e-08
1.49782e-08
-4.11322e-09
-9.00233e-08
1.50416e-08
-4.62178e-09
-9.97791e-08
1.48944e-08
-5.14119e-09
-1.08655e-07
1.45431e-08
-5.66752e-09
-1.16483e-07
1.40183e-08
-6.18714e-09
-1.23115e-07
1.33298e-08
-6.69778e-09
-1.28438e-07
1.25051e-08
-7.18763e-09
-1.32329e-07
1.15536e-08
-7.65517e-09
-1.34745e-07
1.05006e-08
-8.09072e-09
-1.35608e-07
9.35408e-09
-8.48955e-09
-1.34898e-07
8.13824e-09
-8.84524e-09
-1.32602e-07
6.85928e-09
-9.15714e-09
-1.28723e-07
5.53753e-09
-9.41674e-09
-1.23279e-07
4.18195e-09
-9.62444e-09
-1.16321e-07
2.816e-09
-9.77492e-09
-1.07901e-07
1.45158e-09
-9.87087e-09
-9.81147e-08
1.24559e-10
-9.91043e-09
-8.70336e-08
-1.18266e-09
-9.89984e-09
-7.47864e-08
-2.40372e-09
-9.84058e-09
-6.15307e-08
-3.51876e-09
-9.73848e-09
-4.74691e-08
-4.47873e-09
-9.58315e-09
-3.29202e-08
-5.22126e-09
-9.32831e-09
-1.85091e-08
-5.62342e-09
-8.78665e-09
-5.69663e-09
-5.50265e-09
-7.31037e-09
-3.80095e-09
-1.89535e-09
-2.72767e-09
1.42833e-08
-1.18457e-08
-1.21536e-08
2.57317e-08
-1.34155e-08
-2.40072e-08
3.12108e-08
-1.41806e-08
-3.71568e-08
3.53518e-08
-1.49248e-08
-5.07651e-08
3.83555e-08
-1.55659e-08
-6.42559e-08
4.04294e-08
-1.61111e-08
-7.71825e-08
4.17358e-08
-1.65989e-08
-8.92484e-08
4.24112e-08
-1.7044e-08
-1.00223e-07
4.2558e-08
-1.74592e-08
-1.09965e-07
4.22616e-08
-1.78443e-08
-1.1837e-07
4.15885e-08
-1.82061e-08
-1.25384e-07
4.05967e-08
-1.85414e-08
-1.3097e-07
3.9334e-08
-1.88539e-08
-1.35128e-07
3.78403e-08
-1.91396e-08
-1.37861e-07
3.61531e-08
-1.94015e-08
-1.39202e-07
3.43061e-08
-1.96347e-08
-1.39186e-07
3.23291e-08
-1.98416e-08
-1.37867e-07
3.02536e-08
-2.00179e-08
-1.35306e-07
2.81056e-08
-2.01657e-08
-1.31581e-07
2.59103e-08
-2.02808e-08
-1.2677e-07
2.36909e-08
-2.03647e-08
-1.20961e-07
2.14646e-08
-2.04135e-08
-1.14248e-07
1.92511e-08
-2.0429e-08
-1.06729e-07
1.707e-08
-2.04067e-08
-9.8503e-08
1.49378e-08
-2.03465e-08
-8.96804e-08
1.28707e-08
-2.02428e-08
-8.03439e-08
1.08822e-08
-2.0094e-08
-7.06201e-08
8.98444e-09
-1.98897e-08
-6.05932e-08
7.18797e-09
-1.96192e-08
-5.03549e-08
5.50246e-09
-1.92618e-08
-3.99746e-08
3.9376e-09
-1.87952e-08
-2.95266e-08
2.51007e-09
-1.81789e-08
-1.91032e-08
1.25181e-09
-1.72991e-08
-9.03895e-09
2.81611e-10
-1.58487e-08
-2.22229e-10
-1.26181e-08
-1.00165e-09
2.4702e-08
-9.4168e-09
-5.29803e-09
4.12499e-08
-1.12229e-08
-1.06814e-08
4.85853e-08
-1.19907e-08
-1.65819e-08
5.3822e-08
-1.25699e-08
-2.26159e-08
5.74237e-08
-1.30333e-08
-2.85173e-08
5.97623e-08
-1.34323e-08
-3.40973e-08
6.11045e-08
-1.37885e-08
-3.92231e-08
6.16593e-08
-1.41231e-08
-4.38059e-08
6.1581e-08
-1.444e-08
-4.77866e-08
6.09913e-08
-1.47491e-08
-5.11347e-08
5.99834e-08
-1.50473e-08
-5.38309e-08
5.86334e-08
-1.53394e-08
-5.58808e-08
5.70019e-08
-1.56197e-08
-5.72885e-08
5.51406e-08
-1.58911e-08
-5.80826e-08
5.30928e-08
-1.61472e-08
-5.82815e-08
5.08963e-08
-1.63905e-08
-5.79229e-08
4.8585e-08
-1.66147e-08
-5.70398e-08
4.61916e-08
-1.68207e-08
-5.56765e-08
4.3744e-08
-1.70029e-08
-5.38696e-08
4.12671e-08
-1.71628e-08
-5.16678e-08
3.87832e-08
-1.72952e-08
-4.91172e-08
3.63171e-08
-1.74023e-08
-4.62764e-08
3.38886e-08
-1.74791e-08
-4.31925e-08
3.15127e-08
-1.7526e-08
-3.99163e-08
2.92008e-08
-1.75382e-08
-3.64887e-08
2.69562e-08
-1.7515e-08
-3.29388e-08
2.47834e-08
-1.74498e-08
-2.92994e-08
2.26805e-08
-1.73382e-08
-2.55807e-08
2.06391e-08
-1.71678e-08
-2.17942e-08
1.86421e-08
-1.69259e-08
-1.79302e-08
1.666e-08
-1.65877e-08
-1.39557e-08
1.46501e-08
-1.61141e-08
-9.83476e-09
1.25452e-08
-1.54154e-08
-5.49977e-09
1.02495e-08
-1.43014e-08
5.97886e-09
-1.17015e-08
-5.02818e-10
2.94447e-08
-4.24077e-09
-1.42525e-09
4.80425e-08
-5.86991e-09
-2.49497e-09
5.63627e-08
-6.70693e-09
-3.75453e-09
6.23465e-08
-7.26567e-09
-5.17224e-09
6.65343e-08
-7.69274e-09
-6.67672e-09
6.93326e-08
-8.06682e-09
-8.18891e-09
7.10437e-08
-8.42483e-09
-9.65617e-09
7.18984e-08
-8.77381e-09
-1.10219e-08
7.20737e-08
-9.12584e-09
-1.2256e-08
7.17048e-08
-9.4797e-09
-1.3329e-08
7.08989e-08
-9.84148e-09
-1.42319e-08
6.97393e-08
-1.02055e-08
-1.49487e-08
6.8295e-08
-1.05744e-08
-1.54879e-08
6.66206e-08
-1.09408e-08
-1.58528e-08
6.47637e-08
-1.13061e-08
-1.60571e-08
6.2763e-08
-1.16626e-08
-1.61141e-08
6.06536e-08
-1.20108e-08
-1.60442e-08
5.84641e-08
-1.23434e-08
-1.58607e-08
5.62216e-08
-1.26607e-08
-1.55848e-08
5.39473e-08
-1.2956e-08
-1.52345e-08
5.16625e-08
-1.32298e-08
-1.48355e-08
4.93918e-08
-1.34738e-08
-1.44086e-08
4.71488e-08
-1.36883e-08
-1.3966e-08
4.49402e-08
-1.38676e-08
-1.35261e-08
4.27693e-08
-1.40113e-08
-1.30819e-08
4.06288e-08
-1.41147e-08
-1.26325e-08
3.85081e-08
-1.41761e-08
-1.21488e-08
3.63866e-08
-1.41881e-08
-1.15939e-08
3.42297e-08
-1.41458e-08
-1.09017e-08
3.19864e-08
-1.40363e-08
-9.97765e-09
2.95803e-08
-1.38455e-08
-8.68169e-09
2.69075e-08
-1.35527e-08
-6.80934e-09
2.38144e-08
-1.3141e-08
-4.15331e-09
2.01099e-08
-1.25182e-08
1.25679e-08
-1.07414e-08
-1.34347e-09
3.1404e-08
-6.15403e-10
-1.34971e-09
4.98984e-08
-1.85015e-09
-6.85121e-10
5.82972e-08
-2.5994e-09
2.807e-10
6.44637e-08
-3.08399e-09
1.36121e-09
6.88991e-08
-3.44454e-09
2.47372e-09
7.19956e-08
-3.77572e-09
3.57151e-09
7.40461e-08
-4.10076e-09
4.62616e-09
7.52766e-08
-4.43305e-09
5.61598e-09
7.58565e-08
-4.77191e-09
6.52414e-09
7.59199e-08
-5.12452e-09
7.34256e-09
7.55677e-08
-5.48672e-09
8.06102e-09
7.48826e-08
-5.86175e-09
8.67076e-09
7.39283e-08
-6.24281e-09
9.16285e-09
7.27588e-08
-6.63116e-09
9.53075e-09
7.14162e-08
-7.01922e-09
9.76228e-09
6.99378e-08
-7.40733e-09
9.85038e-09
6.83531e-08
-7.78781e-09
9.78751e-09
6.66891e-08
-8.1606e-09
9.5592e-09
6.49664e-08
-8.51842e-09
9.16409e-09
6.32044e-08
-8.86098e-09
8.58824e-09
6.14181e-08
-9.18136e-09
7.84142e-09
5.96196e-08
-9.47914e-09
6.9239e-09
5.78143e-08
-9.74828e-09
5.84758e-09
5.60037e-08
-9.98861e-09
4.63117e-09
5.41814e-08
-1.01946e-08
3.29181e-09
5.23336e-08
-1.03658e-08
1.86321e-09
5.04343e-08
-1.0497e-08
3.935e-10
4.84437e-08
-1.05871e-08
-1.05181e-09
4.63027e-08
-1.06294e-08
-2.37291e-09
4.39281e-08
-1.0619e-08
-3.45213e-09
4.12013e-08
-1.05437e-08
-4.10455e-09
3.79626e-08
-1.04009e-08
-4.06795e-09
3.3986e-08
-1.02093e-08
-2.9979e-09
2.89759e-08
-9.93634e-09
1.83682e-08
-8.79755e-09
-1.39558e-09
3.15237e-08
1.27596e-09
-1.20121e-09
4.93702e-08
3.35419e-10
-1.80662e-10
5.75607e-08
-2.86366e-10
1.29053e-09
6.36724e-08
-6.78406e-10
2.97764e-09
6.81857e-08
-9.74186e-10
4.76058e-09
7.14626e-08
-1.2497e-09
6.55797e-09
7.37818e-08
-1.53285e-09
8.30784e-09
7.53502e-08
-1.82404e-09
9.96506e-09
7.6329e-08
-2.12968e-09
1.14948e-08
7.68383e-08
-2.44744e-09
1.28679e-08
7.69743e-08
-2.78082e-09
1.40663e-08
7.68091e-08
-3.12416e-09
1.50704e-08
7.64023e-08
-3.47875e-09
1.58685e-08
7.5799e-08
-3.83821e-09
1.64491e-08
7.50381e-08
-4.20279e-09
1.68035e-08
7.41488e-08
-4.56573e-09
1.69275e-08
7.31576e-08
-4.92683e-09
1.68103e-08
7.20837e-08
-5.27945e-09
1.6456e-08
7.09446e-08
-5.6232e-09
1.586e-08
6.97518e-08
-5.95185e-09
1.50292e-08
6.85147e-08
-6.26504e-09
1.39683e-08
6.72366e-08
-6.55712e-09
1.26936e-08
6.59175e-08
-6.82776e-09
1.1219e-08
6.45499e-08
-7.07186e-09
9.56934e-09
6.31197e-08
-7.2892e-09
7.77654e-09
6.16017e-08
-7.47522e-09
5.8836e-09
5.99573e-08
-7.6298e-09
3.94582e-09
5.81304e-08
-7.7488e-09
2.03719e-09
5.60417e-08
-7.83142e-09
2.55371e-10
5.35821e-08
-7.87125e-09
-1.28075e-09
5.05998e-08
-7.86324e-09
-2.40207e-09
4.68912e-08
-7.80802e-09
-2.84828e-09
4.21742e-08
-7.74193e-09
-2.30189e-09
3.60853e-08
-7.65451e-09
2.29869e-08
-6.92146e-09
-1.04152e-09
3.07859e-08
1.77958e-09
-7.65484e-10
4.80369e-08
1.05673e-09
2.21719e-10
5.60143e-08
5.59684e-10
1.59812e-09
6.20455e-08
2.49324e-10
3.18089e-09
6.65878e-08
1.62423e-11
4.85831e-09
6.99883e-08
-2.03944e-10
6.56066e-09
7.25084e-08
-4.27281e-10
8.22685e-09
7.43457e-08
-6.62581e-10
9.81437e-09
7.56484e-08
-9.06733e-10
1.12859e-08
7.65309e-08
-1.16331e-09
1.26109e-08
7.70787e-08
-1.42882e-09
1.37644e-08
7.73597e-08
-1.70598e-09
1.4734e-08
7.74246e-08
-1.98964e-09
1.54965e-08
7.73147e-08
-2.28021e-09
1.60476e-08
7.70604e-08
-2.57242e-09
1.6374e-08
7.66879e-08
-2.86629e-09
1.64743e-08
7.62156e-08
-3.15645e-09
1.63403e-08
7.56595e-08
-3.44275e-09
1.5975e-08
7.50298e-08
-3.72e-09
1.53805e-08
7.43341e-08
-3.98801e-09
1.45626e-08
7.35747e-08
-4.24195e-09
1.35329e-08
7.27505e-08
-4.48175e-09
1.22975e-08
7.18535e-08
-4.70306e-09
1.08829e-08
7.08703e-08
-4.90595e-09
9.31354e-09
6.97776e-08
-5.08655e-09
7.61652e-09
6.85414e-08
-5.24512e-09
5.8414e-09
6.71126e-08
-5.37823e-09
4.0336e-09
6.54226e-08
-5.48631e-09
2.26735e-09
6.33762e-08
-5.56593e-09
6.1992e-10
6.08445e-08
-5.61578e-09
-8.00627e-10
5.76504e-08
-5.62966e-09
-1.85317e-09
5.35574e-08
-5.61361e-09
-2.31959e-09
4.82415e-08
-5.6007e-09
-1.92231e-09
4.12779e-08
-5.59157e-09
2.61683e-08
-5.10215e-09
-6.0567e-10
2.97747e-08
1.61685e-09
-4.11581e-10
4.6758e-08
1.08375e-09
2.4804e-10
5.46425e-08
7.14198e-10
1.15593e-09
6.06467e-08
4.8914e-10
2.20068e-09
6.52263e-08
3.18254e-10
3.31226e-09
6.87202e-08
1.55987e-10
4.44667e-09
7.13853e-08
-1.19289e-11
5.56421e-09
7.34114e-08
-1.8332e-10
6.63314e-09
7.49432e-08
-3.62153e-10
7.62351e-09
7.60878e-08
-5.48366e-10
8.51778e-09
7.69282e-08
-7.43431e-10
9.29436e-09
7.7525e-08
-9.43187e-10
9.94312e-09
7.79267e-08
-1.14934e-09
1.04469e-08
7.81682e-08
-1.35781e-09
1.07989e-08
7.82776e-08
-1.56904e-09
1.0992e-08
7.82746e-08
-1.77892e-09
1.10173e-08
7.81754e-08
-1.9878e-09
1.08814e-08
7.799e-08
-2.19158e-09
1.05756e-08
7.77255e-08
-2.39057e-09
1.01057e-08
7.73841e-08
-2.58092e-09
9.47947e-09
7.69647e-08
-2.76299e-09
8.70253e-09
7.64603e-08
-2.93323e-09
7.78923e-09
7.58591e-08
-3.09211e-09
6.75418e-09
7.51415e-08
-3.23646e-09
5.62036e-09
7.4279e-08
-3.36688e-09
4.41053e-09
7.32308e-08
-3.48052e-09
3.16135e-09
7.19404e-08
-3.57814e-09
1.91159e-09
7.03302e-08
-3.65725e-09
7.10672e-10
6.82943e-08
-3.71847e-09
-3.77096e-10
6.56902e-08
-3.75824e-09
-1.27622e-09
6.2324e-08
-3.77513e-09
-1.88379e-09
5.79373e-08
-3.7715e-09
-2.04447e-09
5.21777e-08
-3.77586e-09
-1.56451e-09
4.45822e-08
-3.7838e-09
2.80495e-08
-3.44611e-09
-4.3382e-10
2.87748e-08
1.43469e-09
-4.52315e-10
4.56766e-08
1.09869e-09
-2.09298e-10
5.35337e-08
8.65301e-10
1.74687e-10
5.95384e-08
7.23864e-10
6.38823e-10
6.41465e-08
6.15711e-10
1.15136e-09
6.76988e-08
5.09601e-10
1.68861e-09
7.0448e-08
4.00392e-10
2.22933e-09
7.25844e-08
2.85405e-10
2.75874e-09
7.42484e-08
1.66388e-10
3.25804e-09
7.5547e-08
4.14414e-11
3.71345e-09
7.65583e-08
-8.56241e-11
4.11176e-09
7.73426e-08
-2.15884e-10
4.44426e-09
7.79434e-08
-3.48675e-10
4.70253e-09
7.83946e-08
-4.84727e-10
4.88067e-09
7.87202e-08
-6.20594e-10
4.97341e-09
7.89395e-08
-7.56675e-10
4.9735e-09
7.9064e-08
-8.89816e-10
4.8833e-09
7.9102e-08
-1.02079e-09
4.69834e-09
7.90565e-08
-1.14664e-09
4.4233e-09
7.89276e-08
-1.26817e-09
4.05947e-09
7.871e-08
-1.3826e-09
3.61632e-09
7.83948e-08
-1.4908e-09
3.10052e-09
7.79659e-08
-1.59024e-09
2.52354e-09
7.74011e-08
-1.6819e-09
1.8974e-09
7.66676e-08
-1.76348e-09
1.24318e-09
7.57213e-08
-1.83608e-09
5.80379e-10
7.45008e-08
-1.89765e-09
-6.38173e-11
7.2924e-08
-1.94946e-09
-6.58714e-10
7.08787e-08
-1.98957e-09
-1.16568e-09
6.82157e-08
-2.01857e-09
-1.53944e-09
6.47318e-08
-2.03346e-09
-1.72233e-09
6.01582e-08
-2.03905e-09
-1.61803e-09
5.4128e-08
-2.05268e-09
-1.12301e-09
4.61563e-08
-2.07073e-09
2.87949e-08
-1.86806e-09
-5.46086e-10
2.78631e-08
1.4558e-09
-8.51485e-10
4.46556e-08
1.32895e-09
-1.00776e-09
5.24641e-08
1.22511e-09
-1.07442e-09
5.84388e-08
1.16599e-09
-1.07885e-09
6.3036e-08
1.11453e-09
-1.03437e-09
6.65945e-08
1.06004e-09
-9.50496e-10
6.93668e-08
9.98837e-10
-8.40969e-10
7.15404e-08
9.33611e-10
-7.11684e-10
7.32562e-08
8.63501e-10
-5.73895e-10
7.4618e-08
7.9079e-10
-4.33963e-10
7.57044e-08
7.14326e-10
-2.99843e-10
7.65726e-08
6.36411e-10
-1.80222e-10
7.72658e-08
5.56642e-10
-7.73514e-11
7.78151e-08
4.7751e-10
8.94219e-13
7.82441e-08
3.98169e-10
5.23329e-11
7.85683e-08
3.2008e-10
7.4014e-11
7.87992e-08
2.42337e-10
6.67722e-11
7.89424e-08
1.6731e-10
2.92018e-11
7.90003e-08
9.34942e-11
-3.777e-11
7.89702e-08
2.47111e-11
-1.33728e-10
7.88463e-08
-4.10553e-11
-2.53134e-10
7.8617e-08
-1.01887e-10
-3.94373e-10
7.82656e-08
-1.5804e-10
-5.52058e-10
7.77672e-08
-2.09184e-10
-7.16135e-10
7.70886e-08
-2.56327e-10
-8.80174e-10
7.61832e-08
-2.97733e-10
-1.0349e-09
7.49889e-08
-3.34929e-10
-1.16375e-09
7.34214e-08
-3.66564e-10
-1.25945e-09
7.13681e-08
-3.94417e-10
-1.30463e-09
6.86777e-08
-4.17135e-10
-1.28306e-09
6.51467e-08
-4.36337e-10
-1.17342e-09
6.0504e-08
-4.53997e-10
-9.45019e-10
5.43828e-08
-4.8519e-10
-5.582e-10
4.62956e-08
-5.24199e-10
2.87042e-08
-4.68196e-10
-7.52803e-10
2.70057e-08
1.61009e-09
-1.30787e-09
4.35436e-08
1.66788e-09
-1.75105e-09
5.12324e-08
1.67268e-09
-2.1075e-09
5.71185e-08
1.67953e-09
-2.40068e-09
6.16501e-08
1.67595e-09
-2.62843e-09
6.51629e-08
1.66071e-09
-2.80382e-09
6.79042e-08
1.63766e-09
-2.93251e-09
7.00604e-08
1.60762e-09
-3.01759e-09
7.17685e-08
1.57383e-09
-3.06775e-09
7.31321e-08
1.53594e-09
-3.08642e-09
7.42269e-08
1.4964e-09
-3.08127e-09
7.51102e-08
1.45444e-09
-3.04795e-09
7.58233e-08
1.41226e-09
-3.00019e-09
7.63975e-08
1.36883e-09
-2.93723e-09
7.6854e-08
1.32609e-09
-2.86015e-09
7.72083e-08
1.28354e-09
-2.77299e-09
7.74693e-08
1.24298e-09
-2.67674e-09
7.76433e-08
1.20319e-09
-2.57415e-09
7.77306e-08
1.16595e-09
-2.46278e-09
7.77292e-08
1.12996e-09
-2.34505e-09
7.76315e-08
1.09689e-09
-2.21864e-09
7.74262e-08
1.06532e-09
-2.08671e-09
7.70951e-08
1.03677e-09
-1.94285e-09
7.66143e-08
1.00969e-09
-1.78882e-09
7.59493e-08
9.85421e-10
-1.62335e-09
7.50549e-08
9.62235e-10
-1.44504e-09
7.38688e-08
9.41183e-10
-1.25241e-09
7.23089e-08
9.20187e-10
-1.04686e-09
7.02638e-08
8.99806e-10
-8.3319e-10
6.7586e-08
8.77456e-10
-6.15586e-10
6.40761e-08
8.52962e-10
-4.03868e-10
5.94696e-08
8.20603e-10
-1.97129e-10
5.34084e-08
7.70361e-10
-1.98365e-11
4.54163e-08
7.00955e-10
2.80631e-08
6.20659e-10
-8.82136e-10
2.62189e-08
1.66847e-09
-1.56221e-09
4.23761e-08
1.84868e-09
-2.13836e-09
4.9888e-08
1.92073e-09
-2.63083e-09
5.56393e-08
1.96983e-09
-3.04301e-09
6.00682e-08
1.99495e-09
-3.38635e-09
6.35003e-08
2.00537e-09
-3.66633e-09
6.61788e-08
2.00464e-09
-3.88608e-09
6.82843e-08
1.99726e-09
-4.0547e-09
6.99523e-08
1.98417e-09
-4.17159e-09
7.12825e-08
1.96827e-09
-4.2467e-09
7.23502e-08
1.94939e-09
-4.27585e-09
7.32102e-08
1.92973e-09
-4.26385e-09
7.39041e-08
1.90865e-09
-4.21787e-09
7.44608e-08
1.88801e-09
-4.13198e-09
7.49028e-08
1.86694e-09
-4.01513e-09
7.52438e-08
1.84713e-09
-3.86618e-09
7.5494e-08
1.82753e-09
-3.69125e-09
7.56577e-08
1.80966e-09
-3.48954e-09
7.57364e-08
1.79234e-09
-3.26241e-09
7.57264e-08
1.77697e-09
-3.01447e-09
7.56212e-08
1.76217e-09
-2.74742e-09
7.54083e-08
1.74922e-09
-2.45861e-09
7.50713e-08
1.73661e-09
-2.15523e-09
7.45851e-08
1.72542e-09
-1.83663e-09
7.39175e-08
1.71398e-09
-1.50908e-09
7.30232e-08
1.70312e-09
-1.17336e-09
7.18432e-08
1.69087e-09
-8.39634e-10
7.02969e-08
1.67758e-09
-5.14029e-10
6.82782e-08
1.66066e-09
-2.1066e-10
6.56434e-08
1.63959e-09
5.19003e-11
6.22021e-08
1.61046e-09
2.53825e-10
5.76984e-08
1.56965e-09
3.6806e-10
5.17897e-08
1.50524e-09
3.50107e-10
4.40174e-08
1.41447e-09
2.71755e-08
1.23905e-09
-8.11064e-10
2.55581e-08
1.47226e-09
-1.45756e-09
4.13354e-08
1.68635e-09
-2.02139e-09
4.86701e-08
1.78053e-09
-2.50807e-09
5.4286e-08
1.84076e-09
-2.92313e-09
5.86087e-08
1.87524e-09
-3.27352e-09
6.19563e-08
1.89337e-09
-3.56178e-09
6.45652e-08
1.90171e-09
-3.79068e-09
6.66128e-08
1.90241e-09
-3.96807e-09
6.82301e-08
1.89885e-09
-4.09387e-09
6.95163e-08
1.89156e-09
-4.16994e-09
7.05435e-08
1.88284e-09
-4.19793e-09
7.13672e-08
1.87245e-09
-4.18455e-09
7.20264e-08
1.86218e-09
-4.12365e-09
7.25515e-08
1.85143e-09
-4.02674e-09
7.29626e-08
1.84172e-09
-3.88976e-09
7.32753e-08
1.83224e-09
-3.718e-09
7.34981e-08
1.82434e-09
-3.51413e-09
7.36367e-08
1.81701e-09
-3.27956e-09
7.36911e-08
1.81147e-09
-3.01957e-09
7.36593e-08
1.80654e-09
-2.73662e-09
7.35336e-08
1.80327e-09
-2.42942e-09
7.33033e-08
1.80033e-09
-2.10888e-09
7.29507e-08
1.79861e-09
-1.77309e-09
7.24532e-08
1.79661e-09
-1.43019e-09
7.1778e-08
1.79503e-09
-1.08067e-09
7.0883e-08
1.79213e-09
-7.33435e-10
6.97095e-08
1.7883e-09
-4.00956e-10
6.81813e-08
1.78136e-09
-8.8631e-11
6.61949e-08
1.77104e-09
1.86879e-10
6.36135e-08
1.75424e-09
4.08239e-10
6.02527e-08
1.72927e-09
5.4849e-10
5.58674e-08
1.69026e-09
5.80855e-10
5.01285e-08
1.62909e-09
4.62341e-10
4.25962e-08
1.53856e-09
2.62992e-08
1.34044e-09
-5.61698e-10
2.51305e-08
9.88677e-10
-1.04567e-09
4.0665e-08
1.15564e-09
-1.49221e-09
4.78863e-08
1.22993e-09
-1.8963e-09
5.3413e-08
1.27608e-09
-2.25145e-09
5.76645e-08
1.30051e-09
-2.56028e-09
6.09521e-08
1.31305e-09
-2.82221e-09
6.35099e-08
1.31723e-09
-3.03786e-09
6.55112e-08
1.31647e-09
-3.20527e-09
6.7087e-08
1.3117e-09
-3.32971e-09
6.83334e-08
1.30515e-09
-3.40494e-09
6.93238e-08
1.29697e-09
-3.43955e-09
7.01111e-08
1.28882e-09
-3.42963e-09
7.07362e-08
1.28041e-09
-3.37807e-09
7.12277e-08
1.27313e-09
-3.29047e-09
7.16072e-08
1.26646e-09
-3.16496e-09
7.1889e-08
1.26159e-09
-3.00853e-09
7.20832e-08
1.2578e-09
-2.82152e-09
7.21941e-08
1.25613e-09
-2.61148e-09
7.22235e-08
1.25569e-09
-2.37527e-09
7.21682e-08
1.25733e-09
-2.12578e-09
7.2022e-08
1.26001e-09
-1.8585e-09
7.1773e-08
1.26442e-09
-1.58332e-09
7.14057e-08
1.26935e-09
-1.3023e-09
7.08962e-08
1.27532e-09
-1.01978e-09
7.02142e-08
1.28094e-09
-7.39292e-10
6.93168e-08
1.28655e-09
-4.703e-10
6.81485e-08
1.2905e-09
-2.13917e-10
6.66335e-08
1.29281e-09
1.56711e-11
6.46724e-08
1.29135e-09
2.14076e-10
6.21307e-08
1.28543e-09
3.63132e-10
5.88306e-08
1.2719e-09
4.50961e-10
5.45324e-08
1.24812e-09
4.55155e-10
4.89177e-08
1.20673e-09
3.48702e-10
4.15583e-08
1.14396e-09
2.56532e-08
9.94304e-10
-2.11291e-10
2.5014e-08
3.29936e-10
-4.77064e-10
4.05321e-08
3.9571e-10
-7.58868e-10
4.77432e-08
4.25539e-10
-1.04374e-09
5.32581e-08
4.40281e-10
-1.31724e-09
5.74948e-08
4.43954e-10
-1.57203e-09
6.07658e-08
4.40943e-10
-1.80173e-09
6.33039e-08
4.3426e-10
-1.998e-09
6.52841e-08
4.24575e-10
-2.16085e-09
6.6836e-08
4.13603e-10
-2.28571e-09
6.80577e-08
4.01532e-10
-2.3739e-09
6.90214e-08
3.89762e-10
-2.42347e-09
6.97822e-08
3.78213e-10
-2.43365e-09
7.03797e-08
3.68078e-10
-2.41029e-09
7.08443e-08
3.59094e-10
-2.35149e-09
7.11971e-08
3.52315e-10
-2.26396e-09
7.14537e-08
3.47311e-10
-2.14811e-09
7.16233e-08
3.44973e-10
-2.01134e-09
7.1712e-08
3.4471e-10
-1.85472e-09
7.17203e-08
3.47241e-10
-1.68485e-09
7.16465e-08
3.51804e-10
-1.50514e-09
7.14831e-08
3.58983e-10
-1.31868e-09
7.12198e-08
3.68009e-10
-1.13147e-09
7.08396e-08
3.79325e-10
-9.48958e-10
7.03204e-08
3.91487e-10
-7.68917e-10
6.96305e-08
4.04708e-10
-5.9899e-10
6.87288e-08
4.17932e-10
-4.39584e-10
6.75586e-08
4.31235e-10
-2.95525e-10
6.60461e-08
4.4329e-10
-1.68996e-10
6.40912e-08
4.54002e-10
-6.12909e-11
6.15619e-08
4.61806e-10
2.2682e-11
5.82806e-08
4.66169e-10
7.95305e-11
5.40111e-08
4.64847e-10
1.03583e-10
4.84367e-08
4.55898e-10
9.23654e-11
4.11341e-08
4.38021e-10
2.53578e-08
3.86198e-10
1.18038e-10
2.52314e-08
-3.3471e-10
6.58358e-11
4.0964e-08
-3.80728e-10
-6.03107e-11
4.82713e-08
-4.01489e-10
-2.36763e-10
5.38535e-08
-4.20635e-10
-4.34709e-10
5.81354e-08
-4.40648e-10
-6.44047e-10
6.14341e-08
-4.60454e-10
-8.44445e-10
6.39872e-08
-4.80469e-10
-1.03316e-09
6.59717e-08
-5.00099e-10
-1.20013e-09
6.75207e-08
-5.1962e-10
-1.3347e-09
6.87332e-08
-5.38171e-10
-1.44229e-09
6.9684e-08
-5.5586e-10
-1.51714e-09
7.04283e-08
-5.71744e-10
-1.55809e-09
7.10081e-08
-5.85935e-10
-1.57014e-09
7.14535e-08
-5.97543e-10
-1.55474e-09
7.17872e-08
-6.06761e-10
-1.51196e-09
7.20245e-08
-6.12831e-10
-1.44775e-09
7.21762e-08
-6.16086e-10
-1.36866e-09
7.22473e-08
-6.15877e-10
-1.27498e-09
7.22401e-08
-6.12666e-10
-1.17465e-09
7.21515e-08
-6.06009e-10
-1.06931e-09
7.19757e-08
-5.96583e-10
-9.66771e-10
7.17007e-08
-5.84271e-10
-8.67308e-10
7.13109e-08
-5.69878e-10
-7.75846e-10
7.07823e-08
-5.52952e-10
-6.95173e-10
7.0084e-08
-5.34369e-10
-6.25215e-10
6.91733e-08
-5.14179e-10
-5.66845e-10
6.79938e-08
-4.93275e-10
-5.20598e-10
6.64697e-08
-4.71529e-10
-4.79807e-10
6.45009e-08
-4.49729e-10
-4.41981e-10
6.19529e-08
-4.27554e-10
-4.03775e-10
5.86469e-08
-4.05479e-10
-3.53489e-10
5.43435e-08
-3.82546e-10
-2.83222e-10
4.87235e-08
-3.5787e-10
-1.78079e-10
4.13588e-08
-3.26723e-10
2.54474e-08
-2.69519e-10
3.46754e-10
2.5727e-08
-8.43224e-10
4.49719e-10
4.18431e-08
-9.8004e-10
4.37034e-10
4.93243e-08
-1.04167e-09
3.46621e-10
5.50329e-08
-1.08905e-09
2.06645e-10
5.94043e-08
-1.12822e-09
3.70406e-11
6.27655e-08
-1.16259e-09
-1.41277e-10
6.53596e-08
-1.1935e-09
-3.17095e-10
6.73696e-08
-1.22221e-09
-4.7988e-10
6.89317e-08
-1.24879e-09
-6.21708e-10
7.01488e-08
-1.27363e-09
-7.38084e-10
7.10972e-08
-1.29625e-09
-8.28066e-10
7.1835e-08
-1.31673e-09
-8.90915e-10
7.24048e-08
-1.33437e-09
-9.27672e-10
7.28386e-08
-1.34918e-09
-9.38812e-10
7.31595e-08
-1.3605e-09
-9.2934e-10
7.33839e-08
-1.36837e-09
-9.05608e-10
7.35225e-08
-1.37224e-09
-8.66189e-10
7.35817e-08
-1.37237e-09
-8.21869e-10
7.3563e-08
-1.3684e-09
-7.72178e-10
7.34644e-08
-1.36075e-09
-7.26848e-10
7.32788e-08
-1.34924e-09
-6.87584e-10
7.29955e-08
-1.33445e-09
-6.58218e-10
7.25969e-08
-1.31638e-09
-6.39289e-10
7.20599e-08
-1.29567e-09
-6.34717e-10
7.13514e-08
-1.27235e-09
-6.43344e-10
7.04284e-08
-1.24708e-09
-6.61577e-10
6.92323e-08
-1.21979e-09
-6.85578e-10
6.76861e-08
-1.19097e-09
-7.11718e-10
6.5686e-08
-1.16017e-09
-7.26621e-10
6.30953e-08
-1.1273e-09
-7.20507e-10
5.97299e-08
-1.09106e-09
-6.7046e-10
5.53459e-08
-1.04972e-09
-5.64483e-10
4.96148e-08
-9.98479e-10
-3.74821e-10
4.20996e-08
-9.29647e-10
2.58574e-08
-7.85913e-10
4.36499e-10
2.63938e-08
-1.10238e-09
6.04422e-10
4.29592e-08
-1.28433e-09
6.47767e-10
5.06459e-08
-1.36715e-09
6.07935e-10
5.65052e-08
-1.42897e-09
5.02385e-10
6.09855e-08
-1.4784e-09
3.65656e-10
6.44241e-08
-1.52018e-09
2.0992e-10
6.70718e-08
-1.55719e-09
5.25695e-11
6.91172e-08
-1.59059e-09
-9.57648e-11
7.07013e-08
-1.62136e-09
-2.26418e-10
7.193e-08
-1.64952e-09
-3.36909e-10
7.2883e-08
-1.67531e-09
-4.23373e-10
7.36199e-08
-1.69827e-09
-4.85838e-10
7.41854e-08
-1.71834e-09
-5.24369e-10
7.46125e-08
-1.73497e-09
-5.43876e-10
7.49257e-08
-1.74807e-09
-5.44269e-10
7.51419e-08
-1.75714e-09
-5.32193e-10
7.52727e-08
-1.76221e-09
-5.10354e-10
7.53243e-08
-1.76292e-09
-4.8795e-10
7.52989e-08
-1.75948e-09
-4.66659e-10
7.5194e-08
-1.75172e-09
-4.49317e-10
7.5003e-08
-1.73999e-09
-4.44056e-10
7.47138e-08
-1.72432e-09
-4.49862e-10
7.43094e-08
-1.70521e-09
-4.7403e-10
7.37646e-08
-1.68276e-09
-5.08551e-10
7.30465e-08
-1.65754e-09
-5.61888e-10
7.21096e-08
-1.62964e-09
-6.23326e-10
7.08941e-08
-1.59948e-09
-6.91064e-10
6.93201e-08
-1.56685e-09
-7.54528e-10
6.72811e-08
-1.53169e-09
-8.01327e-10
6.46358e-08
-1.49302e-09
-8.164e-10
6.1195e-08
-1.44965e-09
-7.79478e-10
5.67072e-08
-1.39848e-09
-6.65703e-10
5.08349e-08
-1.33377e-09
-4.47129e-10
4.31284e-08
-1.24579e-09
2.64678e-08
-1.0589e-09
3.90684e-10
2.70968e-08
-1.09566e-09
5.47118e-10
4.40772e-08
-1.27256e-09
5.93175e-10
5.19542e-08
-1.35409e-09
5.596e-10
5.7954e-08
-1.41573e-09
4.74105e-10
6.25364e-08
-1.46485e-09
3.55749e-10
6.60483e-08
-1.50664e-09
2.24845e-10
6.87471e-08
-1.54359e-09
9.13693e-11
7.08271e-08
-1.57722e-09
-3.00958e-11
7.24331e-08
-1.60811e-09
-1.39666e-10
7.36747e-08
-1.63665e-09
-2.27732e-10
7.46337e-08
-1.66267e-09
-2.92071e-10
7.53719e-08
-1.68609e-09
-3.36935e-10
7.59353e-08
-1.70647e-09
-3.59247e-10
7.63586e-08
-1.72362e-09
-3.60821e-10
7.66665e-08
-1.73707e-09
-3.51277e-10
7.68773e-08
-1.74668e-09
-3.29356e-10
7.70026e-08
-1.75212e-09
-2.98919e-10
7.70494e-08
-1.75337e-09
-2.71554e-10
7.70195e-08
-1.75027e-09
-2.44182e-10
7.69109e-08
-1.74301e-09
-2.27131e-10
7.67164e-08
-1.7316e-09
-2.20187e-10
7.6424e-08
-1.71639e-09
-2.28433e-10
7.60154e-08
-1.69754e-09
-2.54858e-10
7.54654e-08
-1.6755e-09
-2.96084e-10
7.47393e-08
-1.65051e-09
-3.55219e-10
7.37908e-08
-1.62299e-09
-4.2538e-10
7.25579e-08
-1.59303e-09
-5.02969e-10
7.09586e-08
-1.56079e-09
-5.78557e-10
6.8883e-08
-1.52588e-09
-6.41563e-10
6.61862e-08
-1.4877e-09
-6.76407e-10
6.26735e-08
-1.44473e-09
-6.61905e-10
5.80875e-08
-1.39431e-09
-5.76011e-10
5.20807e-08
-1.3306e-09
-3.96436e-10
4.41931e-08
-1.24547e-09
2.71369e-08
-1.06506e-09
2.5588e-10
2.7715e-08
-8.74024e-10
3.38313e-10
4.49981e-08
-1.00368e-09
3.44308e-10
5.30147e-08
-1.06556e-09
2.94094e-10
5.91178e-08
-1.11453e-09
2.10318e-10
6.37752e-08
-1.15484e-09
1.08052e-10
6.73407e-08
-1.19002e-09
5.09557e-13
7.00767e-08
-1.22202e-09
-1.02105e-10
7.21813e-08
-1.25167e-09
-1.91082e-10
7.38026e-08
-1.27949e-09
-2.64497e-10
7.50525e-08
-1.30546e-09
-3.16495e-10
7.60149e-08
-1.32949e-09
-3.46035e-10
7.67528e-08
-1.35123e-09
-3.53389e-10
7.73138e-08
-1.37038e-09
-3.43079e-10
7.77332e-08
-1.38653e-09
-3.13907e-10
7.80369e-08
-1.39939e-09
-2.71254e-10
7.82433e-08
-1.40861e-09
-2.19153e-10
7.83648e-08
-1.41403e-09
-1.63586e-10
7.84082e-08
-1.41545e-09
-1.06741e-10
7.83759e-08
-1.41291e-09
-5.47836e-11
7.82655e-08
-1.40637e-09
-1.10871e-11
7.80698e-08
-1.39605e-09
1.66431e-11
7.77764e-08
-1.38211e-09
3.09488e-11
7.73667e-08
-1.3649e-09
2.55007e-11
7.68146e-08
-1.34472e-09
2.77081e-12
7.60847e-08
-1.32198e-09
-3.84398e-11
7.51294e-08
-1.29699e-09
-9.54612e-11
7.38854e-08
-1.27009e-09
-1.65085e-10
7.22687e-08
-1.24138e-09
-2.38238e-10
7.01674e-08
-1.21084e-09
-3.08124e-10
6.74333e-08
-1.17799e-09
-3.60551e-10
6.38681e-08
-1.14195e-09
-3.80866e-10
5.92092e-08
-1.10069e-09
-3.55115e-10
5.3103e-08
-1.05021e-09
-2.55565e-10
4.50814e-08
-9.85737e-10
2.77337e-08
-8.5346e-10
7.43573e-11
2.81612e-08
-5.22255e-10
5.92325e-11
4.55952e-08
-5.78808e-10
9.27189e-13
5.36818e-08
-6.09546e-10
-8.12732e-11
5.98367e-08
-6.38221e-10
-1.70315e-10
6.45311e-08
-6.64183e-10
-2.6431e-10
6.81219e-08
-6.88687e-10
-3.49421e-10
7.08742e-08
-7.1236e-10
-4.21036e-10
7.29884e-08
-7.35432e-10
-4.74141e-10
7.4614e-08
-7.57852e-10
-5.05607e-10
7.58644e-08
-7.79407e-10
-5.19011e-10
7.68245e-08
-7.99734e-10
-5.04506e-10
7.75586e-08
-8.1844e-10
-4.70024e-10
7.81148e-08
-8.351e-10
-4.15885e-10
7.8529e-08
-8.49321e-10
-3.47374e-10
7.88277e-08
-8.60721e-10
-2.6426e-10
7.90298e-08
-8.69015e-10
-1.72675e-10
7.91477e-08
-8.73959e-10
-7.81863e-11
7.91888e-08
-8.7543e-10
1.59341e-11
7.91552e-08
-8.73367e-10
1.04117e-10
7.90447e-08
-8.6783e-10
1.84971e-10
7.88498e-08
-8.58946e-10
2.48229e-10
7.85579e-08
-8.46966e-10
2.98691e-10
7.81502e-08
-8.32167e-10
3.2681e-10
7.76001e-08
-8.14941e-10
3.34862e-10
7.68715e-08
-7.95664e-10
3.24282e-10
7.59162e-08
-7.74779e-10
2.92236e-10
7.467e-08
-7.52671e-10
2.42818e-10
7.30477e-08
-7.2969e-10
1.79927e-10
7.09362e-08
-7.06052e-10
1.0854e-10
6.81857e-08
-6.81795e-10
3.75271e-11
6.45958e-08
-6.56688e-10
-2.30289e-11
5.99016e-08
-6.30014e-10
-6.80965e-11
5.37459e-08
-6.00197e-10
-7.75817e-11
4.56577e-08
-5.67506e-10
2.81666e-08
-5.08926e-10
-1.00278e-10
2.83932e-08
-1.31679e-10
-2.19378e-10
4.58218e-08
-1.07331e-10
-3.42036e-10
5.3907e-08
-1.03218e-10
-4.56305e-10
6.006e-08
-1.08811e-10
-5.5829e-10
6.47515e-08
-1.184e-10
-6.43306e-10
6.83379e-08
-1.30588e-10
-7.08072e-10
7.10845e-08
-1.44617e-10
-7.52973e-10
7.31917e-08
-1.59947e-10
-7.70932e-10
7.48096e-08
-1.76008e-10
-7.66199e-10
7.60516e-08
-1.92261e-10
-7.39039e-10
7.70031e-08
-2.08139e-10
-6.82832e-10
7.77288e-08
-2.23123e-10
-6.09008e-10
7.82769e-08
-2.36723e-10
-5.14865e-10
7.86839e-08
-2.48494e-10
-4.06116e-10
7.89764e-08
-2.58044e-10
-2.84735e-10
7.91735e-08
-2.65068e-10
-1.54001e-10
7.92879e-08
-2.69327e-10
-2.42097e-11
7.93269e-08
-2.70684e-10
1.09298e-10
7.92929e-08
-2.69079e-10
2.33572e-10
7.91835e-08
-2.64576e-10
3.51716e-10
7.89913e-08
-2.57301e-10
4.51917e-10
7.87034e-08
-2.47497e-10
5.36707e-10
7.83008e-08
-2.35466e-10
6.02737e-10
7.77568e-08
-2.21598e-10
6.45309e-10
7.7035e-08
-2.06333e-10
6.6437e-10
7.60869e-08
-1.90169e-10
6.60641e-10
7.48479e-08
-1.73613e-10
6.32149e-10
7.32327e-08
-1.57217e-10
5.83065e-10
7.11276e-08
-1.41532e-10
5.13292e-10
6.83828e-08
-1.27106e-10
4.26595e-10
6.47978e-08
-1.14492e-10
3.2332e-10
6.01074e-08
-1.04317e-10
2.11866e-10
5.39551e-08
-9.777e-11
1.00548e-10
4.58707e-08
-1.0039e-10
2.839e-08
-1.23219e-10
-2.43548e-10
2.84126e-08
2.24811e-10
-4.49534e-10
4.57034e-08
3.23907e-10
-6.28787e-10
5.37259e-08
3.59784e-10
-7.74081e-10
5.98307e-08
3.74828e-10
-8.87153e-10
6.44842e-08
3.79915e-10
-9.67826e-10
6.80399e-08
3.78929e-10
-1.0187e-09
7.0761e-08
3.73738e-10
-1.03891e-09
7.28465e-08
3.65633e-10
-1.03062e-09
7.44454e-08
3.55564e-10
-9.94462e-10
7.56708e-08
3.44401e-10
-9.31259e-10
7.66077e-08
3.32835e-10
-8.46171e-10
7.73203e-08
3.21515e-10
-7.3589e-10
7.78573e-08
3.10961e-10
-6.09742e-10
7.82548e-08
3.01665e-10
-4.66832e-10
7.85397e-08
2.94002e-10
-3.13174e-10
7.8731e-08
2.88307e-10
-1.52056e-10
7.88416e-08
2.84801e-10
1.31069e-11
7.88788e-08
2.83638e-10
1.75716e-10
7.88449e-08
2.84846e-10
3.33986e-10
7.87377e-08
2.88401e-10
4.7967e-10
7.85497e-08
2.94143e-10
6.13701e-10
7.82679e-08
3.01866e-10