/*--------------------------------*- C++ -*----------------------------------*\
| =========                 |                                                 |
| \\      /  F ield         | OpenFOAM: The Open Source CFD Toolbox           |
|  \\    /   O peration     | Version:  v2012                                 |
|   \\  /    A nd           | Website:  www.openfoam.com                      |
|    \\/     M anipulation  |                                                 |
\*---------------------------------------------------------------------------*/
FoamFile
{
    version     2.0;
    format      ascii;
    class       volScalarField;
    location    "1200/topAir";
    object      p_rgh;
}
// * * * * * * * * * * * * * * * * * * * * * * * * * * * * * * * * * * * * * //

dimensions      [1 -1 -2 0 0 0 0];


internalField   nonuniform List<scalar> 
1200
(
100000
100000
100000
100000
100000
100000
100000
100000
100000
100000
100000
100000
100000
100000
100000
100000
100000
100000
100000
100000
100000
100000
100000
100000
100000
100000
100000
100000
100000
100000
100000
100000
100000
100000
100000
100000
100000
100000
100000
100000
100000
100000
100000
100000
100000
100000
100000
100000
100000
100000
100000
100000
100000
100000
100000
100000
100000
100000
100000
100000
100000
100000
100000
100000
100000
100000
100000
100000
100000
100000
100000
100000
100000
100000
100000
100000
100000
100000
100000
100000
100000
100000
100000
100000
100000
100000
100000
100000
100000
100000
100000
100000
100000
100000
100000
100000
100000
100000
100000
100000
100000
100000
100000
100000
100000
100000
100000
100000
100000
100000
100000
100000
100000
100000
100000
100000
100000
100000
100000
100000
100000
100000
100000
100000
100000
100000
100000
100000
100000
100000
100000
100000
100000
100000
100000
100000
100000
100000
100000
100000
100000
100000
100000
100000
100000
100000
100000
100000
100000
100000
100000
100000
100000
100000
100000
100000
100000
100000
100000
100000
100000
100000
100000
100000
100000
100000
100000
100000
100000
100000
100000
100000
100000
100000
100000
100000
100000
100000
100000
100000
100000
100000
100000
100000
100000
100000
100000
100000
100000
100000
100000
100000
100000
100000
100000
100000
100000
100000
100000
100000
100000
100000
100000
100000
100000
100000
100000
100000
100000
100000
100000
100000
100000
100000
100000
100000
100000
100000
100000
100000
100000
100000
100000
100000
100000
100000
100000
100000
100000
100000
100000
100000
100000
100000
100000
100000
100000
100000
100000
100000
100000
100000
100000
100000
100000
100000
100000
100000
100000
100000
100000
100000
100000
100000
100000
100000
100000
100000
100000
100000
100000
100000
100000
100000
100000
100000
100000
100000
100000
100000
100000
100000
100000
100000
100000
100000
100000
100000
100000
100000
100000
100000
100000
100000
100000
100000
100000
100000
100000
100000
100000
100000
100000
100000
100000
100000
100000
100000
100000
100000
100000
100000
100000
100000
100000
100000
100000
100000
100000
100000
100000
100000
100000
100000
100000
100000
100000
100000
100000
100000
100000
100000
100000
100000
100000
100000
100000
100000
100000
100000
100000
100000
100000
100000
100000
100000
100000
100000
100000
100000
100000
100000
100000
100000
100000
100000
100000
100000
100000
100000
100000
100000
100000
100000
100000
100000
100000
100000
100000
100000
100000
100000
100000
100000
100000
100000
100000
100000
100000
100000
100000
100000
100000
100000
100000
100000
100000
100000
100000
100000
100000
100000
100000
100000
100000
100000
100000
100000
100000
100000
100000
100000
100000
100000
100000
100000
100000
100000
100000
100000
100000
100000
100000
100000
100000
100000
100000
100000
100000
100000
100000
100000
100000
100000
100000
100000
100000
100000
100000
100000
100000
100000
100000
100000
100000
100000
100000
100000
100000
100000
100000
100000
100000
100000
100000
100000
100000
100000
100000
100000
100000
100000
100000
100000
100000
100000
100000
100000
100000
100000
100000
100000
100000
100000
100000
100000
100000
100000
100000
100000
100000
100000
100000
100000
100000
100000
100000
100000
100000
100000
100000
100000
100000
100000
100000
100000
100000
100000
100000
100000
100000
100000
100000
100000
100000
100000
100000
100000
100000
100000
100000
100000
100000
100000
100000
100000
100000
100000
100000
100000
100000
100000
100000
99999.99
99999.99
99999.99
99999.99
99999.99
99999.99
99999.99
100000
100000
100000
100000
100000
100000
100000
100000
100000
100000
100000
100000
100000
100000
100000
100000
100000
100000
100000
100000
100000
100000
100000
100000
100000
100000
100000
100000
100000
99999.99
100000
100000
100000
100000
100000
100000
100000
100000
100000
100000
100000
100000
100000
100000
100000
100000
100000
100000
100000
100000
100000
100000
100000
100000
100000
100000
100000
100000
100000
100000
100000
100000
100000
100000
100000
100000
100000
100000
100000
100000
100000
100000
100000
100000
100000
100000
100000
100000
100000
100000
100000
100000
100000
100000
100000
100000
100000
100000
100000
100000
100000
100000
100000
100000
100000
100000
100000
100000
100000
100000
100000
100000
100000
100000
100000
100000
100000
100000
100000
100000
100000
100000
100000
99999.99
99999.99
99999.99
99999.99
99999.99
99999.99
99999.99
100000
100000
100000
100000
100000
100000
100000
100000
100000
100000
100000
100000
100000
100000
100000
100000
100000
100000
100000
100000
100000
100000
100000
100000
100000
100000
100000
100000
100000
99999.99
100000
100000
100000
100000
100000
100000
100000
100000
100000
100000
100000
100000
100000
100000
100000
100000
100000
100000
100000
100000
100000
100000
100000
100000
100000
100000
100000
100000
100000
100000
100000
100000
100000
100000
100000
100000
100000
100000
100000
100000
100000
100000
100000
100000
100000
100000
100000
100000
100000
100000
100000
100000
100000
100000
100000
100000
100000
100000
100000
100000
100000
100000
100000
100000
100000
100000
100000
100000
100000
100000
100000
100000
100000
100000
100000
100000
100000
100000
100000
100000
100000
100000
100000
100000
100000
100000
100000
100000
100000
100000
100000
100000
100000
100000
100000
100000
100000
100000
100000
100000
100000
100000
100000
100000
100000
100000
100000
100000
100000
100000
100000
100000
100000
100000
100000
100000
100000
100000
100000
100000
100000
100000
100000
100000
100000
100000
100000
100000
100000
100000
100000
100000
100000
100000
100000
100000
100000
100000
100000
100000
100000
100000
100000
100000
100000
100000
100000
100000
100000
100000
100000
100000
100000
100000
100000
100000
100000
100000
100000
100000
100000
100000
100000
100000
100000
100000
100000
100000
100000
100000
100000
100000
100000
100000
100000
100000
100000
100000
100000
100000
100000
100000
100000
100000
100000
100000
100000
100000
100000
100000
100000
100000
100000
100000
100000
100000
100000
100000
100000
100000
100000
100000
100000
100000
100000
100000
100000
100000
100000
100000
100000
100000
100000
100000
100000
100000
100000
100000
100000
100000
100000
100000
100000
100000
100000
100000
100000
100000
100000
100000
100000
100000
100000
100000
100000
100000
100000
100000
100000
100000
100000
100000
100000
100000
100000
100000
100000
100000
100000
100000
100000
100000
100000
100000
100000
100000
100000
100000
100000
100000
100000
100000
100000
100000
100000
100000
100000
100000
100000
100000
100000
100000
100000
100000
100000
100000
100000
100000
100000
100000
100000
100000
100000
100000
100000
100000
100000
100000
100000
100000
100000
100000
100000
100000
100000
100000
100000
100000
100000
100000
100000
100000
100000
100000
100000
100000
100000
100000
100000
100000
100000
100000
100000
100000
100000
100000
100000
100000
100000
100000
100000
100000
100000
100000
100000
100000
100000
100000
100000
100000
100000
100000
100000
100000
100000
100000
100000
100000
100000
100000
100000
100000
100000
100000
100000
100000
100000
100000
100000
100000
100000
100000
100000
100000
100000
100000
100000
100000
100000
100000
100000
100000
100000
100000
100000
100000
100000
100000
100000
100000
100000
100000
100000
100000
100000
100000
100000
100000
100000
100000
100000
100000
100000
100000
100000
100000
100000
100000
100000
100000
100000
100000
100000
100000
100000
100000
100000
100000
100000
100000
100000
100000
100000
100000
100000
100000
100000
100000
100000
100000
100000
100000
100000
100000
100000
100000
100000
100000
100000
100000
100000
100000
100000
100000
100000
100000
100000
100000
100000
100000
100000
100000
100000
100000
100000
100000
100000
100000
100000
100000
100000
100000
100000
100000
100000
100000
100000
100000
100000
100000
100000
100000
100000
100000
100000
100000
100000
100000
100000
100000
100000
100000
100000
100000
100000
100000
100000
100000
100000
100000
100000
100000
100000
100000
100000
100000
100000
100000
100000
100000
100000
100000
100000
100000
100000
100000
100000
100000
100000
100000
100000
100000
100000
100000
100000
100000
100000
100000
100000
100000
100000
100000
100000
100000
100000
100000
100000
100000
100000
100000
100000
100000
100000
100000
100000
100000
100000
100000
100000
100000
100000
100000
100000
100000
100000
100000
100000
100000
100000
100000
100000
100000
100000
100000
100000
100000
100000
100000
100000
100000
)
;

boundaryField
{
    maxY
    {
        type            fixedFluxPressure;
        gradient        nonuniform List<scalar> 
300
(
-5.167497e-05
-5.167497e-05
-5.167497e-05
-5.167497e-05
-5.167497e-05
-5.167497e-05
-5.167497e-05
-5.167497e-05
-5.167497e-05
-5.167497e-05
-5.167487e-05
-5.167487e-05
-5.167487e-05
-5.167487e-05
-5.167487e-05
-5.167487e-05
-5.167487e-05
-5.167487e-05
-5.167487e-05
-5.167487e-05
-5.167462e-05
-5.167464e-05
-5.167464e-05
-5.167464e-05
-5.167464e-05
-5.167464e-05
-5.167464e-05
-5.167464e-05
-5.167464e-05
-5.167462e-05
-5.167414e-05
-5.16742e-05
-5.16742e-05
-5.16742e-05
-5.167419e-05
-5.167419e-05
-5.16742e-05
-5.16742e-05
-5.16742e-05
-5.167414e-05
-5.167331e-05
-5.167347e-05
-5.167348e-05
-5.167347e-05
-5.167346e-05
-5.167346e-05
-5.167347e-05
-5.167348e-05
-5.167347e-05
-5.167331e-05
-5.167201e-05
-5.167236e-05
-5.167238e-05
-5.167236e-05
-5.167235e-05
-5.167235e-05
-5.167236e-05
-5.167238e-05
-5.167236e-05
-5.167201e-05
-5.167007e-05
-5.167076e-05
-5.16708e-05
-5.167077e-05
-5.167075e-05
-5.167075e-05
-5.167077e-05
-5.16708e-05
-5.167076e-05
-5.167007e-05
-5.166732e-05
-5.166855e-05
-5.166866e-05
-5.16686e-05
-5.166856e-05
-5.166856e-05
-5.16686e-05
-5.166866e-05
-5.166855e-05
-5.166732e-05
-5.166353e-05
-5.166562e-05
-5.166584e-05
-5.166574e-05
-5.166569e-05
-5.166569e-05
-5.166574e-05
-5.166584e-05
-5.166562e-05
-5.166353e-05
-5.165844e-05
-5.166183e-05
-5.166226e-05
-5.16621e-05
-5.166201e-05
-5.166201e-05
-5.16621e-05
-5.166225e-05
-5.166183e-05
-5.165844e-05
-5.165168e-05
-5.165703e-05
-5.165779e-05
-5.165756e-05
-5.165742e-05
-5.165742e-05
-5.165756e-05
-5.165779e-05
-5.165703e-05
-5.165168e-05
-5.164276e-05
-5.165106e-05
-5.165236e-05
-5.165203e-05
-5.165182e-05
-5.165182e-05
-5.165203e-05
-5.165235e-05
-5.165106e-05
-5.164275e-05
-5.163065e-05
-5.164365e-05
-5.164585e-05
-5.164539e-05
-5.164507e-05
-5.164507e-05
-5.164539e-05
-5.164585e-05
-5.164365e-05
-5.163064e-05
-5.161251e-05
-5.163433e-05
-5.163818e-05
-5.163756e-05
-5.163707e-05
-5.163706e-05
-5.163756e-05
-5.163818e-05
-5.163433e-05
-5.161249e-05
-5.158199e-05
-5.162191e-05
-5.162919e-05
-5.162843e-05
-5.162764e-05
-5.162764e-05
-5.162843e-05
-5.162919e-05
-5.16219e-05
-5.158195e-05
-5.150886e-05
-5.160215e-05
-5.161851e-05
-5.16179e-05
-5.161661e-05
-5.161661e-05
-5.16179e-05
-5.16185e-05
-5.160213e-05
-5.150874e-05
-5.131109e-05
-5.156008e-05
-5.160476e-05
-5.160584e-05
-5.160375e-05
-5.160375e-05
-5.160584e-05
-5.160475e-05
-5.156001e-05
-5.131072e-05
-5.084412e-05
-5.145166e-05
-5.158278e-05
-5.1592e-05
-5.158876e-05
-5.158876e-05
-5.1592e-05
-5.158274e-05
-5.145144e-05
-5.084323e-05
-4.996787e-05
-5.117976e-05
-5.153476e-05
-5.157568e-05
-5.157121e-05
-5.15712e-05
-5.157567e-05
-5.153465e-05
-5.117918e-05
-4.996623e-05
-4.869909e-05
-5.060917e-05
-5.141103e-05
-5.155444e-05
-5.155044e-05
-5.155044e-05
-5.155441e-05
-5.14107e-05
-5.060798e-05
-4.869676e-05
-4.722293e-05
-4.966199e-05
-5.111009e-05
-5.151904e-05
-5.152489e-05
-5.152489e-05
-5.151893e-05
-5.110927e-05
-4.966006e-05
-4.722017e-05
-4.574471e-05
-4.840918e-05
-5.050275e-05
-5.143795e-05
-5.149083e-05
-5.149082e-05
-5.143756e-05
-5.050111e-05
-4.840665e-05
-4.574179e-05
-4.439781e-05
-4.702904e-05
-4.952801e-05
-5.123227e-05
-5.144053e-05
-5.14405e-05
-5.123112e-05
-4.95254e-05
-4.702615e-05
-4.43949e-05
-4.324319e-05
-4.568814e-05
-4.827117e-05
-5.077518e-05
-5.13568e-05
-5.135671e-05
-5.077249e-05
-4.826773e-05
-4.568508e-05
-4.324035e-05
-4.229334e-05
-4.448044e-05
-4.690983e-05
-4.995208e-05
-5.118075e-05
-5.118026e-05
-4.994694e-05
-4.690584e-05
-4.447732e-05
-4.229059e-05
-4.15306e-05
-4.343463e-05
-4.55944e-05
-4.873561e-05
-5.052118e-05
-5.051719e-05
-4.872755e-05
-4.559009e-05
-4.343148e-05
-4.152791e-05
-4.091616e-05
-4.253785e-05
-4.438974e-05
-4.703715e-05
-4.69971e-05
-4.69727e-05
-4.702731e-05
-4.438521e-05
-4.253463e-05
-4.091348e-05
-4.039112e-05
-4.17544e-05
-4.330216e-05
-4.534686e-05
-4.508462e-05
-4.507958e-05
-4.533858e-05
-4.329742e-05
-4.175105e-05
-4.038833e-05
-3.985027e-05
-4.101665e-05
-4.229328e-05
-4.370886e-05
-4.248345e-05
-4.248459e-05
-4.370504e-05
-4.22882e-05
-4.101301e-05
-3.984718e-05
-3.920346e-05
-4.027546e-05
-4.138167e-05
-4.204336e-05
-3.963917e-05
-3.964241e-05
-4.204536e-05
-4.137583e-05
-4.027129e-05
-3.919987e-05
)
;
        value           nonuniform List<scalar> 
300
(
100000
100000
100000
100000
100000
100000
100000
100000
100000
100000
100000
100000
100000
100000
100000
100000
100000
100000
100000
100000
100000
100000
100000
100000
100000
100000
100000
100000
100000
100000
100000
100000
100000
100000
100000
100000
100000
100000
100000
100000
100000
100000
100000
100000
100000
100000
100000
100000
100000
100000
100000
100000
100000
100000
100000
100000
100000
100000
100000
100000
100000
100000
100000
100000
100000
100000
100000
100000
100000
100000
100000
100000
100000
100000
100000
100000
100000
100000
100000
100000
100000
100000
100000
100000
100000
100000
100000
100000
100000
100000
100000
100000
100000
100000
100000
100000
100000
100000
100000
100000
100000
100000
100000
100000
100000
100000
100000
100000
100000
100000
100000
100000
100000
100000
100000
100000
100000
100000
100000
100000
100000
100000
100000
100000
100000
100000
100000
100000
100000
100000
100000
100000
100000
100000
100000
100000
100000
100000
100000
100000
100000
100000
100000
100000
100000
100000
100000
100000
100000
100000
100000
100000
100000
100000
100000
100000
100000
100000
100000
100000
100000
100000
100000
100000
100000
100000
100000
100000
100000
100000
100000
100000
100000
100000
100000
100000
100000
100000
100000
100000
100000
100000
100000
100000
100000
100000
100000
100000
100000
100000
100000
100000
100000
100000
100000
100000
100000
100000
100000
100000
100000
100000
100000
100000
100000
100000
100000
100000
100000
100000
100000
100000
100000
100000
100000
100000
100000
100000
100000
100000
100000
100000
100000
100000
100000
100000
100000
100000
100000
100000
100000
100000
100000
100000
100000
100000
100000
100000
100000
100000
100000
100000
100000
100000
100000
100000
100000
100000
100000
100000
100000
100000
100000
100000
100000
100000
100000
100000
100000
100000
100000
100000
100000
100000
100000
100000
100000
100000
100000
100000
100000
100000
100000
100000
100000
100000
100000
100000
100000
100000
100000
100000
100000
100000
100000
100000
100000
100000
100000
100000
100000
100000
100000
100000
100000
100000
100000
100000
100000
100000
)
;
    }
    minX
    {
        type            fixedFluxPressure;
        gradient        nonuniform List<scalar> 
40
(
0.8709057
0.0323625
0.001014197
3.182268e-05
0.8707543
0.03232363
0.001010802
3.157913e-05
0.8708062
0.03232984
0.001011212
3.160283e-05
0.8709158
0.03233701
0.001011566
3.162216e-05
0.8709665
0.03234016
0.001011742
3.163228e-05
0.8709724
0.03234037
0.001011749
3.163248e-05
0.8709332
0.03233766
0.001011586
3.162278e-05
0.8708341
0.03233088
0.001011244
3.160381e-05
0.8707901
0.03232495
0.001010842
3.158034e-05
0.87093
0.03236348
0.00101423
3.182377e-05
)
;
        value           nonuniform List<scalar> 
40
(
100000
100000
100000
100000
100000
100000
100000
100000
100000
100000
100000
100000
100000
100000
100000
100000
100000
100000
100000
100000
100000
100000
100000
100000
100000
100000
100000
100000
100000
100000
100000
100000
100000
100000
100000
100000
100000
100000
100000
100000
)
;
    }
    maxX
    {
        type            fixedValue;
        value           uniform 100000;
    }
    minZ
    {
        type            fixedFluxPressure;
        gradient        uniform 0;
        value           nonuniform List<scalar> 
120
(
100000
100000
100000
100000
100000
100000
100000
100000
100000
100000
100000
100000
100000
100000
100000
100000
100000
100000
100000
100000
100000
100000
100000
100000
100000
100000
100000
100000
100000
100000
100000
100000
100000
100000
100000
100000
100000
100000
100000
100000
100000
100000
100000
100000
100000
100000
100000
100000
100000
100000
100000
100000
100000
100000
100000
100000
100000
100000
100000
100000
100000
100000
100000
100000
100000
100000
100000
100000
100000
100000
100000
100000
100000
100000
100000
100000
100000
100000
100000
100000
100000
100000
100000
100000
100000
100000
100000
100000
100000
100000
100000
100000
100000
100000
100000
100000
100000
100000
100000
100000
100000
100000
100000
100000
100000
100000
100000
100000
100000
100000
100000
100000
100000
100000
100000
100000
100000
100000
100000
100000
)
;
    }
    maxZ
    {
        type            fixedFluxPressure;
        gradient        uniform 0;
        value           nonuniform List<scalar> 
120
(
100000
100000
100000
100000
100000
100000
100000
100000
100000
100000
100000
100000
100000
100000
100000
100000
100000
100000
100000
100000
100000
100000
100000
100000
100000
100000
100000
100000
100000
100000
100000
100000
100000
100000
100000
100000
100000
100000
100000
100000
100000
100000
100000
100000
100000
100000
100000
100000
100000
100000
100000
100000
100000
100000
100000
100000
100000
100000
100000
100000
100000
100000
100000
100000
100000
100000
100000
100000
100000
100000
100000
100000
100000
100000
100000
100000
100000
100000
100000
100000
100000
100000
100000
100000
100000
100000
100000
100000
100000
100000
100000
100000
100000
100000
100000
100000
100000
100000
100000
100000
100000
100000
100000
100000
100000
100000
100000
100000
100000
100000
100000
100000
100000
100000
100000
100000
100000
100000
100000
100000
)
;
    }
    topAir_to_rightSolid
    {
        type            fixedFluxPressure;
        gradient        nonuniform List<scalar> 
130
(
-3.55751
-3.495674
-3.457291
-3.443019
-3.451555
-3.480032
-3.524775
-3.581257
-3.643278
-3.701205
-3.741938
-3.741465
-3.691489
-4.099876
-4.10627
-4.132814
-4.175214
-4.229347
-4.292771
-4.364434
-4.442422
-4.520381
-4.584386
-4.613519
-4.558612
-4.451795
-4.078517
-4.093052
-4.151355
-4.254775
-4.397225
-4.565285
-4.74206
-4.911349
-5.053899
-5.152844
-5.194355
-5.131272
-4.942426
-3.690074
-3.5637
-3.467381
-3.410608
-3.403025
-3.451968
-3.557721
-3.708415
-3.883193
-4.039017
-4.115282
-3.999001
-3.799949
-3.648197
-3.468701
-3.317354
-3.188568
-3.081149
-2.996735
-2.938384
-2.907783
-2.902199
-2.910622
-2.910376
-2.849307
-2.69912
-3.648208
-3.468708
-3.317362
-3.188577
-3.081163
-2.996755
-2.938409
-2.90781
-2.902222
-2.910638
-2.910391
-2.849341
-2.699177
-3.690108
-3.563734
-3.467426
-3.410674
-3.403125
-3.452103
-3.557879
-3.708565
-3.883356
-4.039126
-4.115352
-3.99916
-3.800141
-4.078649
-4.093217
-4.151564
-4.255031
-4.397516
-4.565585
-4.742339
-4.911575
-5.053989
-5.152793
-5.194154
-5.130995
-4.942153
-4.099967
-4.106367
-4.132917
-4.175317
-4.229447
-4.292865
-4.364516
-4.442485
-4.520401
-4.58433
-4.613365
-4.558345
-4.451508
-3.557541
-3.495724
-3.457361
-3.443105
-3.451652
-3.480134
-3.524877
-3.581351
-3.643355
-3.701245
-3.741925
-3.74139
-3.691361
)
;
        value           nonuniform List<scalar> 
130
(
99999.99
99999.98
99999.98
99999.98
99999.98
99999.98
99999.98
99999.98
99999.98
99999.98
99999.98
99999.98
99999.98
99999.99
99999.99
99999.99
99999.99
99999.99
99999.99
99999.99
99999.99
99999.98
99999.98
99999.98
99999.98
99999.98
99999.99
99999.99
99999.99
99999.99
99999.99
99999.99
99999.99
99999.99
99999.99
99999.99
99999.99
99999.98
99999.98
99999.99
99999.99
99999.99
99999.99
99999.99
99999.99
99999.99
99999.98
99999.98
99999.98
99999.98
99999.98
99999.98
99999.99
99999.99
99999.99
99999.98
99999.98
99999.98
99999.98
99999.98
99999.98
99999.98
99999.98
99999.98
99999.98
99999.99
99999.99
99999.99
99999.98
99999.98
99999.98
99999.98
99999.98
99999.98
99999.98
99999.98
99999.98
99999.98
99999.99
99999.99
99999.99
99999.99
99999.99
99999.99
99999.99
99999.98
99999.98
99999.98
99999.98
99999.98
99999.98
99999.99
99999.99
99999.99
99999.99
99999.99
99999.99
99999.99
99999.99
99999.99
99999.99
99999.99
99999.98
99999.98
99999.99
99999.99
99999.99
99999.99
99999.99
99999.99
99999.99
99999.99
99999.98
99999.98
99999.98
99999.98
99999.98
99999.99
99999.98
99999.98
99999.98
99999.98
99999.98
99999.98
99999.98
99999.98
99999.98
99999.98
99999.98
99999.98
)
;
    }
    topAir_to_heater
    {
        type            fixedFluxPressure;
        gradient        nonuniform List<scalar> 
40
(
-3.985671
-3.857114
-3.741268
-3.64016
-4.294026
-4.214716
-4.154737
-4.11578
-4.305313
-4.220514
-4.150753
-4.100757
-4.24223
-4.115489
-3.979099
-3.835317
-4.319259
-4.193094
-4.042259
-3.868402
-4.319283
-4.193119
-4.042281
-3.868419
-4.242293
-4.115548
-3.979148
-3.83535
-4.305408
-4.22061
-4.150851
-4.100863
-4.294136
-4.214817
-4.154834
-4.11587
-3.985752
-3.857194
-3.741351
-3.64025
)
;
        value           nonuniform List<scalar> 
40
(
99999.99
99999.99
99999.99
99999.99
99999.99
99999.99
99999.99
99999.99
99999.99
99999.99
99999.99
99999.99
99999.99
99999.99
99999.99
99999.99
99999.99
99999.99
99999.99
99999.99
99999.99
99999.99
99999.99
99999.99
99999.99
99999.99
99999.99
99999.99
99999.99
99999.99
99999.99
99999.99
99999.99
99999.99
99999.99
99999.99
99999.99
99999.99
99999.99
99999.99
)
;
    }
    topAir_to_leftSolid
    {
        type            fixedFluxPressure;
        gradient        nonuniform List<scalar> 
130
(
-7.310948
-6.870766
-6.48277
-6.137426
-5.827068
-5.54555
-5.287792
-5.049649
-4.82984
-4.629856
-4.447357
-4.280267
-4.126803
-7.310944
-6.875605
-6.495904
-6.161757
-5.865462
-5.601203
-5.364593
-5.152424
-4.96235
-4.792327
-4.641085
-4.507804
-4.392105
-7.311239
-6.87525
-6.495188
-6.161098
-5.865248
-5.601773
-5.366206
-5.15524
-4.966446
-4.798111
-4.648961
-4.517992
-4.404061
-7.311613
-6.875343
-6.494734
-6.15986
-5.862952
-5.598054
-5.360555
-5.146954
-4.954582
-4.781443
-4.625905
-4.48642
-4.360541
-7.311892
-6.875507
-6.494754
-6.159755
-5.862758
-5.597827
-5.360384
-5.147017
-4.955266
-4.783604
-4.631462
-4.499801
-4.392097
-7.311924
-6.875537
-6.494783
-6.159783
-5.862785
-5.597853
-5.36041
-5.147041
-4.95529
-4.783629
-4.631487
-4.499825
-4.392119
-7.311708
-6.875432
-6.494819
-6.159943
-5.863032
-5.598132
-5.36063
-5.147026
-4.954648
-4.781509
-4.625977
-4.486487
-4.360582
-7.311393
-6.875395
-6.495329
-6.161235
-5.865382
-5.601903
-5.366331
-5.15536
-4.966557
-4.798219
-4.649074
-4.518097
-4.404139
-7.311142
-6.875802
-6.4961
-6.161951
-5.865652
-5.601387
-5.364771
-5.152594
-4.96251
-4.792479
-4.641232
-4.507943
-4.392248
-7.311081
-6.87098
-6.482994
-6.137648
-5.827285
-5.545757
-5.287986
-5.04983
-4.830011
-4.63002
-4.447517
-4.280425
-4.126978
)
;
        value           nonuniform List<scalar> 
130
(
100000
100000
100000
100000
100000
100000
100000
100000
100000
100000
99999.99
99999.99
99999.99
100000
100000
100000
100000
100000
100000
100000
100000
100000
100000
100000
99999.99
99999.99
100000
100000
100000
100000
100000
100000
100000
100000
100000
100000
100000
99999.99
99999.99
100000
100000
100000
100000
100000
100000
100000
100000
100000
100000
100000
99999.99
99999.99
100000
100000
100000
100000
100000
100000
100000
100000
100000
100000
100000
99999.99
99999.99
100000
100000
100000
100000
100000
100000
100000
100000
100000
100000
100000
99999.99
99999.99
100000
100000
100000
100000
100000
100000
100000
100000
100000
100000
100000
99999.99
99999.99
100000
100000
100000
100000
100000
100000
100000
100000
100000
100000
100000
99999.99
99999.99
100000
100000
100000
100000
100000
100000
100000
100000
100000
100000
100000
99999.99
99999.99
100000
100000
100000
100000
100000
100000
100000
100000
100000
100000
99999.99
99999.99
99999.99
)
;
    }
}


// ************************************************************************* //
