/*--------------------------------*- C++ -*----------------------------------*\
| =========                 |                                                 |
| \\      /  F ield         | OpenFOAM: The Open Source CFD Toolbox           |
|  \\    /   O peration     | Version:  v2012                                 |
|   \\  /    A nd           | Website:  www.openfoam.com                      |
|    \\/     M anipulation  |                                                 |
\*---------------------------------------------------------------------------*/
FoamFile
{
    version     2.0;
    format      ascii;
    class       volVectorField;
    location    "1200/topAir";
    object      U;
}
// * * * * * * * * * * * * * * * * * * * * * * * * * * * * * * * * * * * * * //

dimensions      [0 1 -1 0 0 0 0];


internalField   nonuniform List<vector> 
1200
(
(0.1001587 -0.0003958608 0.0009480875)
(0.1040803 -0.0007876184 0.001326454)
(0.1062794 -0.0009207984 0.001470516)
(0.1080592 -0.0007981746 0.001490952)
(0.1097751 -0.0005677215 0.001399322)
(0.1113179 -0.0002888839 0.001207968)
(0.1127051 2.032389e-05 0.0009190316)
(0.1140074 0.0003524851 0.000519051)
(0.1152841 0.0007069095 -2.338153e-05)
(0.116611 0.00109158 -0.0007493559)
(0.1180664 0.00152814 -0.001712624)
(0.1197339 0.002048885 -0.002987963)
(0.1216793 0.002701437 -0.004671238)
(0.1239225 0.003557657 -0.006872812)
(0.1264159 0.004707567 -0.009696561)
(0.1290236 0.006235826 -0.01322356)
(0.1315126 0.008197926 -0.01748334)
(0.133585 0.0105755 -0.0224169)
(0.1349676 0.01324255 -0.02784911)
(0.1355195 0.01597756 -0.03349356)
(0.1352924 0.01852658 -0.03900379)
(0.1345052 0.02067549 -0.04405203)
(0.1334694 0.02228855 -0.04838542)
(0.1325007 0.02331621 -0.05182789)
(0.1318446 0.02379904 -0.05422492)
(0.1314678 0.02389756 -0.05536686)
(0.1311212 0.02397782 -0.05483898)
(0.128504 0.02475635 -0.05219518)
(0.1248704 0.02801304 -0.04587707)
(0.09529778 0.0367849 -0.03639564)
(0.0993478 -0.0009274102 0.0009630462)
(0.0995841 -0.001627023 0.001364641)
(0.09929182 -0.001922243 0.001578478)
(0.09904818 -0.00189881 0.001713226)
(0.0990098 -0.001734481 0.00178307)
(0.099102 -0.001499736 0.001808643)
(0.09930737 -0.001219731 0.001804414)
(0.09964158 -0.0009118061 0.001774566)
(0.1001414 -0.0005745398 0.001711792)
(0.1008653 -0.0001656251 0.001595056)
(0.1018646 0.0003727799 0.001395405)
(0.103225 0.00113201 0.001068041)
(0.1050723 0.002263636 0.000545975)
(0.1074947 0.003959696 -0.0002708798)
(0.1106644 0.006415539 -0.001514721)
(0.114612 0.009859007 -0.003326011)
(0.1192074 0.01446491 -0.005838422)
(0.1240878 0.02023316 -0.009117097)
(0.1287219 0.02688502 -0.01308423)
(0.1326099 0.03388462 -0.0174903)
(0.1354835 0.04060642 -0.02197376)
(0.1373606 0.04653018 -0.02617564)
(0.1384618 0.05133142 -0.02981136)
(0.1390679 0.05488532 -0.0326588)
(0.1393905 0.05725516 -0.03447488)
(0.139335 0.05872619 -0.03489957)
(0.1386119 0.05992277 -0.03320494)
(0.1350042 0.06201973 -0.0285362)
(0.1301191 0.06774825 -0.01774627)
(0.1010922 0.07855063 -0.002922674)
(0.09940853 -0.001918936 0.000975067)
(0.09947402 -0.002651658 0.001387461)
(0.09852364 -0.002986441 0.001612291)
(0.09730588 -0.003138693 0.001761754)
(0.09608557 -0.003163372 0.001854342)
(0.09484598 -0.003112233 0.001915501)
(0.09359837 -0.00301871 0.001966424)
(0.09235974 -0.002906895 0.002021844)
(0.09112958 -0.002785188 0.002095924)
(0.0899107 -0.002631659 0.002205988)
(0.08872359 -0.002421669 0.002369773)
(0.08761495 -0.002121166 0.002603057)
(0.08669849 -0.001650004 0.002907918)
(0.0862558 -0.0008142401 0.003251551)
(0.08664986 0.000720184 0.003580599)
(0.08821392 0.003474428 0.003787722)
(0.0912672 0.008008172 0.003691947)
(0.09594612 0.01470582 0.003099235)
(0.1018632 0.02342447 0.001953633)
(0.1082422 0.03334818 0.0004308593)
(0.114325 0.04331436 -0.00115535)
(0.119642 0.0522968 -0.002548232)
(0.1240101 0.05964179 -0.003623938)
(0.1273999 0.06506089 -0.004318913)
(0.1298079 0.06854259 -0.004499303)
(0.1309498 0.07031497 -0.003868281)
(0.1305256 0.07091418 -0.001794366)
(0.1260406 0.07148614 0.002503605)
(0.1207505 0.07515071 0.01205984)
(0.09092516 0.08349227 0.02586403)
(0.09760309 -0.001421027 0.0009468804)
(0.09619914 -0.00189143 0.001330125)
(0.09290194 -0.002070394 0.001521367)
(0.08928687 -0.002122067 0.001636555)
(0.08574361 -0.002073333 0.001694195)
(0.08223518 -0.001964029 0.001718825)
(0.0787917 -0.001823196 0.001732092)
(0.07544353 -0.001667585 0.001750362)
(0.07218825 -0.001506618 0.001790251)
(0.06900783 -0.001344345 0.001873043)
(0.0658763 -0.001188539 0.002025807)
(0.06275184 -0.001060439 0.002283841)
(0.05955759 -0.0009986075 0.002696706)
(0.05622271 -0.001005645 0.003343544)
(0.05265984 -0.0009679626 0.004320719)
(0.04912139 -0.0005607417 0.005763355)
(0.04616014 0.0008233956 0.007873892)
(0.04463936 0.004067749 0.01083727)
(0.04566406 0.009802782 0.01461394)
(0.04970722 0.01753372 0.01888951)
(0.0562331 0.02586969 0.02328556)
(0.06421548 0.03354323 0.02753227)
(0.07265348 0.03984355 0.03147253)
(0.0807151 0.04449244 0.03502673)
(0.08773203 0.04745636 0.03821107)
(0.09294498 0.0488646 0.04116716)
(0.09601189 0.04912028 0.04422101)
(0.09551126 0.04916103 0.04763117)
(0.09497995 0.05250825 0.05204567)
(0.09451317 0.05980111 0.05633789)
(0.1012228 -0.0003790622 0.001098997)
(0.1059235 -0.0007644205 0.001517292)
(0.1095333 -0.0009135525 0.001679319)
(0.1127688 -0.0008426722 0.001707543)
(0.1158647 -0.0007070846 0.001613027)
(0.1187157 -0.0005730451 0.001411361)
(0.1213109 -0.0004670949 0.00110662)
(0.1236779 -0.000406479 0.0006869193)
(0.1258401 -0.0004019975 0.0001236839)
(0.1277934 -0.0004599039 -0.0006265732)
(0.129551 -0.0005931777 -0.00161627)
(0.1311138 -0.0008181899 -0.002914393)
(0.1324768 -0.001158797 -0.004605213)
(0.1336387 -0.001649151 -0.006779738)
(0.1346005 -0.002315582 -0.009521211)
(0.1353622 -0.003170776 -0.0128866)
(0.1359351 -0.00421323 -0.01688007)
(0.1363529 -0.005417201 -0.02142515)
(0.1366709 -0.00672044 -0.02635161)
(0.1369475 -0.00802164 -0.03141461)
(0.1372134 -0.009211521 -0.03634412)
(0.1374816 -0.01023456 -0.0408955)
(0.1378173 -0.0111146 -0.04487434)
(0.1384088 -0.01190857 -0.04813149)
(0.1395676 -0.01261568 -0.05051347)
(0.141638 -0.01306623 -0.05179484)
(0.1447128 -0.01270232 -0.05150848)
(0.1483106 -0.01056962 -0.04923636)
(0.151934 -0.003122863 -0.04382253)
(0.145627 0.01071297 -0.03593153)
(0.1004473 -0.0009142903 0.001146888)
(0.1015353 -0.001624436 0.001636486)
(0.1027788 -0.001961346 0.001901919)
(0.1041609 -0.002022147 0.002073738)
(0.1057102 -0.001994129 0.002167593)
(0.1073548 -0.001957629 0.002207211)
(0.1090527 -0.001947724 0.002208203)
(0.1107889 -0.001990046 0.002173324)
(0.1125545 -0.002106033 0.002094239)
(0.114346 -0.002319634 0.001951798)
(0.1161641 -0.002664154 0.001718766)
(0.1180113 -0.003181129 0.001357982)
(0.1198901 -0.003925783 0.0008201805)
(0.1217978 -0.004962744 2.78976e-05)
(0.1236979 -0.006310762 -0.001111543)
(0.1255936 -0.00798648 -0.002684252)
(0.1274832 -0.00995496 -0.004759599)
(0.129383 -0.01209903 -0.007350391)
(0.1313368 -0.01418886 -0.01037091)
(0.1333938 -0.01589081 -0.0136302)
(0.1355578 -0.01688273 -0.01689454)
(0.1377693 -0.01704612 -0.01996565)
(0.1399766 -0.01654776 -0.02269251)
(0.142241 -0.01573555 -0.02492354)
(0.1447878 -0.01495809 -0.02640849)
(0.1481016 -0.0143838 -0.02672097)
(0.1527084 -0.01382823 -0.02497212)
(0.1605495 -0.01268481 -0.02026838)
(0.1712931 -0.009017009 -0.009776598)
(0.2101506 0.0001056305 0.001530287)
(0.1005109 -0.00194025 0.001155995)
(0.1014337 -0.002677742 0.001657041)
(0.1020346 -0.00302095 0.001940456)
(0.1024742 -0.003195578 0.002138476)
(0.1028927 -0.003261412 0.002270246)
(0.1032784 -0.003276007 0.002364295)
(0.1036224 -0.003277581 0.002443561)
(0.1039255 -0.00329218 0.002522492)
(0.1041823 -0.003343467 0.002613822)
(0.1043844 -0.003456997 0.002731855)
(0.1045238 -0.003663793 0.002888477)
(0.1045932 -0.004003447 0.0030897)
(0.1045885 -0.004526733 0.003327699)
(0.1045097 -0.005293943 0.003581316)
(0.1043776 -0.006368761 0.003829523)
(0.1042538 -0.007814556 0.004043542)
(0.1042556 -0.00967285 0.004182415)
(0.104568 -0.01191927 0.004254078)
(0.1054263 -0.0143593 0.004363607)
(0.1070281 -0.01656185 0.004749031)
(0.1094403 -0.01801137 0.005588699)
(0.1124945 -0.0184786 0.006837639)
(0.1158378 -0.01816938 0.00836631)
(0.119138 -0.01752461 0.01017707)
(0.1222538 -0.01694865 0.01256396)
(0.1252306 -0.01657965 0.01620036)
(0.1283294 -0.01618307 0.02242371)
(0.1315625 -0.01572975 0.03141685)
(0.1347618 -0.0158034 0.04532947)
(0.1440709 -0.01420873 0.06086959)
(0.0986671 -0.001445286 0.001128542)
(0.09807497 -0.001932715 0.001615909)
(0.09625982 -0.002132347 0.001885122)
(0.09421225 -0.002208824 0.002064832)
(0.09219947 -0.002190563 0.002174412)
(0.09019285 -0.002120538 0.002242531)
(0.08820524 -0.002030316 0.002293254)
(0.08625399 -0.001938709 0.002343538)
(0.0843386 -0.001858839 0.002409849)
(0.08244913 -0.001802062 0.002512406)
(0.0805692 -0.001782119 0.002675487)
(0.07867297 -0.001820262 0.002929135)
(0.07671922 -0.001952593 0.003313333)
(0.07464852 -0.002235558 0.003889634)
(0.07238067 -0.002737841 0.004724521)
(0.06982005 -0.003535694 0.00592571)
(0.06689111 -0.004666638 0.00775005)
(0.06363382 -0.00597486 0.01069608)
(0.06036925 -0.006886347 0.01549269)
(0.0578199 -0.006442145 0.02273543)
(0.05691783 -0.003907225 0.03224488)
(0.05821672 0.0005444696 0.04290724)
(0.06145595 0.005925427 0.05333781)
(0.0657507 0.01110108 0.06260358)
(0.07008715 0.01521676 0.07042584)
(0.07344194 0.01775707 0.07697304)
(0.07524269 0.01853069 0.08281778)
(0.07421061 0.01776788 0.08825629)
(0.07153702 0.01596487 0.09396792)
(0.06063673 0.01348264 0.09835098)
(0.1010976 -0.0003860767 0.0003694407)
(0.1056466 -0.0007743407 0.0006206342)
(0.1092535 -0.0009185044 0.0007852529)
(0.112545 -0.0008361537 0.0008923459)
(0.1157145 -0.000684523 0.000947311)
(0.1186508 -0.0005304929 0.0009572367)
(0.1213314 -0.0004001918 0.0009289721)
(0.1237738 -0.0003096526 0.0008673909)
(0.1259911 -0.0002699183 0.0007778468)
(0.1279906 -0.0002907564 0.0006628316)
(0.1297719 -0.0003839948 0.0005185097)
(0.1313257 -0.0005652441 0.0003418252)
(0.1326318 -0.0008563584 0.0001311704)
(0.1336567 -0.001287238 -0.0001149902)
(0.1343514 -0.001895932 -0.0004084712)
(0.1346586 -0.002730423 -0.0007728323)
(0.134527 -0.003852165 -0.001248121)
(0.1339379 -0.00533768 -0.001902081)
(0.1329418 -0.007273601 -0.002842005)
(0.1316936 -0.009732747 -0.004220538)
(0.1304598 -0.01272305 -0.006213258)
(0.1295682 -0.01613037 -0.008946813)
(0.1293136 -0.01971866 -0.01240981)
(0.1299223 -0.02321485 -0.01641468)
(0.1315909 -0.02638207 -0.02062816)
(0.1346895 -0.02891182 -0.02446267)
(0.1394718 -0.03029552 -0.02736966)
(0.1464229 -0.02985603 -0.0291112)
(0.1547673 -0.02420086 -0.03068083)
(0.1631421 -0.0121586 -0.03141364)
(0.1003183 -0.0009168926 0.0003783439)
(0.1012444 -0.001624922 0.0006476264)
(0.1024898 -0.001951927 0.000837768)
(0.1039509 -0.001995376 0.0009783787)
(0.105616 -0.001944117 0.001073659)
(0.1074089 -0.001878887 0.00112896)
(0.1092772 -0.001833752 0.001148422)
(0.1111937 -0.001831793 0.001131867)
(0.113137 -0.001892449 0.001074915)
(0.1150882 -0.002036536 0.0009684483)
(0.1170292 -0.002289493 0.000798007)
(0.1189405 -0.002683615 0.0005435794)
(0.1207988 -0.003260473 0.0001791715)
(0.1225737 -0.004071694 -0.0003273802)
(0.124221 -0.005180015 -0.001023771)
(0.1256838 -0.006658954 -0.001980833)
(0.1268937 -0.008589756 -0.003286801)
(0.127785 -0.01105596 -0.00505056)
(0.128323 -0.01412108 -0.007400533)
(0.1285392 -0.01778 -0.01046334)
(0.1285462 -0.02188204 -0.01429247)
(0.1285006 -0.0260899 -0.0187605)
(0.1285346 -0.02999039 -0.02353126)
(0.1287695 -0.03331529 -0.02817123)
(0.129386 -0.03603145 -0.03227821)
(0.1309188 -0.03817053 -0.03550283)
(0.1339091 -0.03943704 -0.03743987)
(0.1407804 -0.0392472 -0.0380643)
(0.1509759 -0.03432832 -0.03995621)
(0.1945411 -0.0231988 -0.04229669)
(0.1003834 -0.001936957 0.0003810887)
(0.1011479 -0.002672049 0.000654166)
(0.1017551 -0.003009636 0.0008510852)
(0.1022826 -0.003175781 0.001002136)
(0.1028347 -0.003229528 0.00111264)
(0.1034 -0.003227909 0.001189602)
(0.1039647 -0.003207927 0.00123975)
(0.1045249 -0.003192708 0.001266902)
(0.1050734 -0.003201326 0.00127279)
(0.1056003 -0.003253474 0.001257033)
(0.1060936 -0.00337231 0.001215368)
(0.1065373 -0.00358721 0.001137456)
(0.1069081 -0.003937005 0.001003059)
(0.1071703 -0.004474383 0.0007773412)
(0.1072721 -0.005269775 0.0004084058)
(0.1071439 -0.006410062 -0.0001893474)
(0.1067002 -0.008001383 -0.001152076)
(0.1058554 -0.01017057 -0.002683689)
(0.1045621 -0.01304623 -0.004996876)
(0.102905 -0.01666569 -0.008240573)
(0.1011246 -0.0208483 -0.01229251)
(0.0995301 -0.02514083 -0.01664316)
(0.09833502 -0.02901569 -0.02064595)
(0.09759775 -0.03222674 -0.02385645)
(0.09730716 -0.03493654 -0.02596825)
(0.09774351 -0.03752158 -0.02640336)
(0.09896774 -0.04019959 -0.02384584)
(0.1032994 -0.04271494 -0.01739181)
(0.1096712 -0.04582894 -0.00568563)
(0.1528547 -0.04735765 0.006195722)
(0.09854157 -0.001440429 0.0003720407)
(0.09779027 -0.001924464 0.0006332755)
(0.09598025 -0.002121834 0.0008176044)
(0.09402052 -0.002196278 0.0009557057)
(0.09214223 -0.002175347 0.001053594)
(0.09031704 -0.002102004 0.001119069)
(0.08855292 -0.002007707 0.001160009)
(0.08686253 -0.001910678 0.001182028)
(0.08524471 -0.001822964 0.001189562)
(0.08369157 -0.001753839 0.001186534)
(0.08219158 -0.001712229 0.001176077)
(0.08072819 -0.001709336 0.001160541)
(0.07927686 -0.001761897 0.001141849)
(0.07780179 -0.001895871 0.001122854)
(0.07624941 -0.00214949 0.001105556)
(0.07453617 -0.002581388 0.001092453)
(0.07254449 -0.003283549 0.001097184)
(0.0701436 -0.004385314 0.001166102)
(0.06724288 -0.00601654 0.001459218)
(0.06389017 -0.008159272 0.002428016)
(0.06039602 -0.01039108 0.004928718)
(0.05740109 -0.01182769 0.009894315)
(0.05571899 -0.01163254 0.01757155)
(0.05588343 -0.009751797 0.02710006)
(0.05769268 -0.00702341 0.03710997)
(0.06031278 -0.00462324 0.04655876)
(0.0625526 -0.003582021 0.05550009)
(0.06255585 -0.004347547 0.06406918)
(0.06083579 -0.009194158 0.07362843)
(0.06675098 -0.01566697 0.08250944)
(0.1010713 -0.0003826033 0.0002438958)
(0.105539 -0.0007650101 0.0004512807)
(0.1090527 -0.00089894 0.0005991577)
(0.1122714 -0.0007984568 0.0006988924)
(0.11539 -0.0006183481 0.0007604103)
(0.1182979 -0.0004228461 0.0007920175)
(0.1209731 -0.0002343611 0.0008017673)
(0.1234331 -6.363068e-05 0.0007968962)
(0.1256929 8.584596e-05 0.00078427)
(0.1277661 0.0002150508 0.0007712608)
(0.1296652 0.0003270484 0.0007678748)
(0.1313996 0.0004261814 0.0007896625)
(0.1329742 0.0005177486 0.0008611243)
(0.1343847 0.0006065395 0.001023676)
(0.1356161 0.0006938934 0.001328988)
(0.1366501 0.0007765651 0.00184118)
(0.1374681 0.0008412679 0.002643685)
(0.1380568 0.0008575541 0.003831378)
(0.1384119 0.0007679892 0.005501465)
(0.1385389 0.000474105 0.007721667)
(0.1384637 -0.0001692579 0.01047095)
(0.1382672 -0.001337154 0.01358253)
(0.1381304 -0.003179123 0.01672435)
(0.1383496 -0.00572258 0.01944546)
(0.1392448 -0.008753226 0.0212788)
(0.1409849 -0.01179761 0.0216717)
(0.1435606 -0.01358773 0.02026433)
(0.1446602 -0.01220416 0.01657444)
(0.1458374 -0.003517194 0.007643295)
(0.1140476 0.0168517 -0.006451463)
(0.1002922 -0.0009137335 0.0002509111)
(0.1011312 -0.001614615 0.0004720012)
(0.1022714 -0.001927724 0.000636373)
(0.1036445 -0.001946251 0.0007537394)
(0.1052389 -0.001855434 0.0008317496)
(0.1069777 -0.001731877 0.0008757505)
(0.1088069 -0.001603877 0.0008900499)
(0.1106958 -0.001486218 0.0008765966)
(0.11262 -0.001386311 0.0008345401)
(0.1145591 -0.001307839 0.000760198)
(0.1164969 -0.001253612 0.0006472472)
(0.1184194 -0.001226577 0.0004871205)
(0.1203151 -0.001230269 0.0002693914)
(0.1221745 -0.001272736 -1.580479e-05)
(0.1239873 -0.001372431 -0.0003774147)
(0.1257395 -0.001555283 -0.0008249366)
(0.1274122 -0.001863378 -0.001367856)
(0.1289789 -0.002364085 -0.002019083)
(0.1303997 -0.003164773 -0.002808067)
(0.1316149 -0.004431094 -0.003802355)
(0.1325424 -0.006391877 -0.005130506)
(0.1331023 -0.00929747 -0.006980218)
(0.1332754 -0.01329061 -0.009556405)
(0.1331711 -0.01821736 -0.01298013)
(0.1330418 -0.02350839 -0.01717456)
(0.1334056 -0.02816652 -0.02178277)
(0.1349024 -0.0300144 -0.02603249)
(0.137104 -0.02661943 -0.03130989)
(0.1447195 -0.008263519 -0.04547611)
(0.1525001 0.02653533 -0.05813178)
(0.1003581 -0.001934032 0.0002524957)
(0.1010375 -0.00266619 0.000475434)
(0.1015411 -0.002997392 0.000643314)
(0.1019815 -0.003152479 0.0007659851)
(0.1024639 -0.003188875 0.0008510857)
(0.1029777 -0.003161486 0.0009040904)
(0.103509 -0.003104494 0.0009297385)
(0.1040527 -0.003036722 0.000930864)
(0.104601 -0.002970601 0.0009081146)
(0.1051445 -0.002915975 0.0008598962)
(0.1056738 -0.002882321 0.0007818503)
(0.106178 -0.002880579 0.0006659825)
(0.1066438 -0.002924942 0.0004995533)
(0.1070547 -0.003035288 0.0002625781)
(0.1073878 -0.003239806 -6.956029e-05)
(0.107609 -0.003582252 -0.0005254581)
(0.1076656 -0.004127944 -0.001141527)
(0.1074732 -0.004968788 -0.001968909)
(0.106902 -0.006236108 -0.00309422)
(0.1057714 -0.008109749 -0.004667118)
(0.1038777 -0.01080409 -0.006917342)
(0.1010949 -0.01449774 -0.01010339)
(0.09750475 -0.01919597 -0.01430908)
(0.09344324 -0.02462047 -0.01918531)
(0.0894526 -0.03030493 -0.02389121)
(0.08639726 -0.03595427 -0.02687738)
(0.08491408 -0.03943528 -0.02592772)
(0.08696357 -0.03941149 -0.02479808)
(0.09496173 -0.02770444 -0.03676773)
(0.1389929 -0.001662518 -0.05770233)
(0.09851657 -0.001441901 0.000246236)
(0.09768243 -0.001927172 0.0004608207)
(0.09577125 -0.002123366 0.0006201249)
(0.09372582 -0.002194141 0.0007337848)
(0.091779 -0.002166488 0.0008096724)
(0.08990314 -0.002082808 0.0008537833)
(0.08810586 -0.001973971 0.0008715447)
(0.0863978 -0.001857168 0.0008667751)
(0.08477576 -0.001742706 0.0008414788)
(0.08323043 -0.001637086 0.0007959352)
(0.0817498 -0.001544832 0.0007284952)
(0.08031905 -0.001470159 0.000635281)
(0.07891958 -0.001418721 0.0005099655)
(0.07752808 -0.001399738 0.0003431321)
(0.07611401 -0.001428853 0.0001231016)
(0.07463346 -0.001531507 -0.0001608975)
(0.07302083 -0.001750252 -0.0005134251)
(0.07117692 -0.002155404 -0.000932495)
(0.06895764 -0.002857102 -0.001421273)
(0.06618006 -0.004025499 -0.002006476)
(0.06267426 -0.005893525 -0.002726436)
(0.05838473 -0.00867129 -0.003490161)
(0.05344538 -0.0123155 -0.003819053)
(0.0482226 -0.01636028 -0.002860152)
(0.04310511 -0.020204 0.0002127371)
(0.03870321 -0.0238793 0.005128505)
(0.03471584 -0.02589507 0.01304314)
(0.03497319 -0.02705391 0.02173036)
(0.03537366 -0.02096462 0.009469451)
(0.08669795 -0.00535506 -0.02124378)
(0.1010524 -0.0003839412 5.073677e-05)
(0.1054807 -0.0007672063 8.92277e-05)
(0.1089608 -0.0009009936 0.0001126359)
(0.1121599 -0.0007983289 0.0001264486)
(0.1152684 -0.0006135818 0.0001342397)
(0.1181734 -0.0004106448 0.0001382549)
(0.1208528 -0.0002113682 0.0001404586)
(0.1233247 -2.572977e-05 0.0001426767)
(0.1256057 0.0001437645 0.0001468781)
(0.1277119 0.0002995983 0.0001554717)
(0.129661 0.0004474127 0.000171642)
(0.1314723 0.0005956725 0.0002006071)
(0.133172 0.0007569713 0.0002514318)
(0.1347645 0.0009545811 0.000342454)
(0.1362414 0.001203226 0.0004947521)
(0.1376022 0.001524591 0.0007319892)
(0.1388558 0.001943077 0.001087386)
(0.1400301 0.002482652 0.001604543)
(0.1411847 0.003186707 0.002348966)
(0.1423862 0.004099725 0.003416185)
(0.1436844 0.005251949 0.004925625)
(0.1451065 0.006640716 0.00699833)
(0.1466477 0.008206013 0.00970391)
(0.1482599 0.009815732 0.01297462)
(0.1498311 0.01135556 0.01652442)
(0.1508578 0.01291007 0.01983303)
(0.149729 0.01583257 0.02205921)
(0.1393224 0.02157932 0.02167084)
(0.1238094 0.03291851 0.01432814)
(0.03836637 0.06031395 -0.0005400646)
(0.1002722 -0.0009146965 5.122816e-05)
(0.1010664 -0.001615426 9.123903e-05)
(0.1021654 -0.001926764 0.0001159109)
(0.1035102 -0.001940655 0.0001304739)
(0.1050839 -0.001841549 0.0001380144)
(0.1068063 -0.001705202 0.0001399217)
(0.1086218 -0.001558641 0.0001369383)
(0.1104981 -0.001414892 0.0001290454)
(0.1124093 -0.001279014 0.0001154265)
(0.1143341 -0.001151446 9.447676e-05)
(0.1162556 -0.001030475 6.373595e-05)
(0.1181603 -0.0009135084 1.995925e-05)
(0.1200418 -0.0007957311 -4.086487e-05)
(0.1219151 -0.0006470811 -0.0001207792)
(0.1237891 -0.0004476072 -0.000219644)
(0.1256718 -0.0001695259 -0.0003378643)
(0.1275808 0.0002202856 -0.0004750633)
(0.1295439 0.0007575776 -0.0006285131)
(0.1316092 0.001505833 -0.0007910343)
(0.1338575 0.00254814 -0.0009453849)
(0.1363627 0.003966611 -0.00106129)
(0.1391586 0.005796182 -0.001100253)
(0.1422743 0.008006471 -0.001047822)
(0.1456754 0.01049777 -0.0009854084)
(0.1492531 0.01327399 -0.001119053)
(0.1532695 0.01742719 -0.001719762)
(0.1559583 0.02705628 -0.002586427)
(0.1487909 0.04230336 -0.004699919)
(0.1368892 0.06598066 -0.01280731)
(0.06734494 0.1012679 -0.02585231)
(0.1003384 -0.001933368 5.132824e-05)
(0.1009736 -0.002665148 9.152879e-05)
(0.1014362 -0.002994677 0.0001167658)
(0.1018478 -0.003146605 0.0001322199)
(0.1023088 -0.003177943 0.0001409173)
(0.1028054 -0.003142966 0.0001442364)
(0.1033226 -0.003075017 0.0001429608)
(0.1038537 -0.002991669 0.000137153)
(0.1043895 -0.00290351 0.000126085)
(0.1049191 -0.002817768 0.0001081519)
(0.1054307 -0.002740405 8.053302e-05)
(0.1059096 -0.002678107 3.855022e-05)
(0.1063349 -0.00263921 -2.523626e-05)
(0.1066837 -0.002617421 -0.0001239148)
(0.1069337 -0.002608719 -0.0002747727)
(0.1070569 -0.002610122 -0.0005014636)
(0.1070198 -0.002620926 -0.0008356263)
(0.1067813 -0.002646886 -0.001317548)
(0.1062958 -0.002699688 -0.001995061)
(0.1055131 -0.002804041 -0.002919669)
(0.1044084 -0.002988988 -0.004142831)
(0.1029569 -0.003308527 -0.005744866)
(0.1010188 -0.003921682 -0.007908353)
(0.0984432 -0.005150234 -0.01092564)
(0.09563973 -0.007487629 -0.0150221)
(0.09378097 -0.01100776 -0.0194858)
(0.09875246 -0.002946296 -0.02162479)
(0.1046758 0.01769109 -0.02283264)
(0.1066779 0.05347119 -0.03009196)
(0.07256224 0.09679261 -0.04283923)
(0.09849702 -0.001441191 5.016553e-05)
(0.09761929 -0.001925767 8.858996e-05)
(0.09566753 -0.002120701 0.0001119682)
(0.09359357 -0.002189807 0.0001253858)
(0.09162546 -0.002159876 0.0001319636)
(0.08973242 -0.002073058 0.0001332341)
(0.0879203 -0.001960009 0.0001301027)
(0.08619772 -0.001837585 0.0001227526)
(0.08455923 -0.001715557 0.0001105785)
(0.08299276 -0.001599563 9.211458e-05)
(0.08148238 -0.001492659 6.475261e-05)
(0.08000744 -0.001396491 2.420713e-05)
(0.07853974 -0.00131225 -3.625421e-05)
(0.07704362 -0.001238973 -0.0001276278)
(0.07547677 -0.001177887 -0.0002649902)
(0.07378602 -0.001133245 -0.0004682799)
(0.07190327 -0.001114109 -0.000761989)
(0.0697421 -0.001138962 -0.001171936)
(0.06719262 -0.001241294 -0.001720109)
(0.06410771 -0.001486224 -0.002418797)
(0.06027749 -0.001973813 -0.003281737)
(0.05542536 -0.002828795 -0.004372737)
(0.04918635 -0.004254743 -0.00586474)
(0.04120986 -0.006735729 -0.008059763)
(0.03030882 -0.01151512 -0.0112568)
(0.01671967 -0.02151594 -0.01631057)
(-0.01416806 -0.01234629 -0.02357407)
(-0.0158646 0.01104071 -0.02729685)
(0.01965082 0.05197076 -0.04447217)
(0.05198843 0.07888683 -0.06294383)
(0.1010524 -0.0003839479 -5.068781e-05)
(0.1054807 -0.0007672142 -8.909285e-05)
(0.1089609 -0.0009010001 -0.0001123827)
(0.11216 -0.0007983327 -0.0001260473)
(0.1152685 -0.0006135827 -0.0001336617)
(0.1181735 -0.0004106431 -0.000137473)
(0.120853 -0.0002113645 -0.0001394481)
(0.1233249 -2.572499e-05 -0.0001414148)
(0.1256058 0.0001437693 -0.000145345)
(0.127712 0.0002996023 -0.0001536501)
(0.1296612 0.0004474154 -0.0001695161)
(0.1314725 0.0005956735 -0.000198166)
(0.1331721 0.0007569712 -0.0002486757)
(0.1347645 0.0009545825 -0.0003393945)
(0.1362413 0.001203233 -0.000491414)
(0.137602 0.00152461 -0.0007284193)
(0.1388554 0.001943115 -0.001083663)
(0.1400293 0.002482715 -0.001600786)
(0.1411835 0.003186794 -0.00234535)
(0.1423842 0.004099807 -0.00341295)
(0.1436815 0.005251978 -0.004923109)
(0.1451023 0.006640462 -0.006996934)
(0.1466419 0.008205085 -0.009704098)
(0.1482528 0.009813362 -0.01297674)
(0.1498241 0.01135082 -0.01652858)
(0.1508544 0.01290218 -0.01983877)
(0.1497285 0.01582605 -0.02206488)
(0.1393224 0.0215717 -0.02167876)
(0.1238108 0.03291022 -0.01434017)
(0.03837452 0.06030717 0.0005206825)
(0.1002722 -0.0009147052 -5.12726e-05)
(0.1010664 -0.001615436 -9.133295e-05)
(0.1021654 -0.001926773 -0.0001160585)
(0.1035102 -0.001940661 -0.000130678)
(0.1050839 -0.001841551 -0.000138277)
(0.1068063 -0.001705201 -0.000140244)
(0.1086218 -0.001558638 -0.0001373218)
(0.1104981 -0.001414891 -0.0001294918)
(0.1124093 -0.001279016 -0.0001159381)
(0.114334 -0.001151455 -9.505786e-05)
(0.1162555 -0.001030494 -6.439312e-05)
(0.1181603 -0.0009135404 -2.070292e-05)
(0.1200416 -0.0007957811 4.001851e-05)
(0.1219149 -0.0006471543 0.0001198072)
(0.1237888 -0.0004477116 0.0002185128)
(0.1256713 -0.0001696701 0.0003365263)
(0.12758 0.0002200843 0.0004734482)
(0.1295427 0.0007572841 0.0006265181)
(0.1316074 0.001505363 0.0007885196)
(0.1338547 0.002547277 0.0009421682)
(0.1363588 0.003965006 0.001057094)
(0.1391529 0.00579306 0.001094727)
(0.1422659 0.008000367 0.001040643)
(0.1456639 0.01048629 0.0009763604)
(0.1492396 0.01325409 0.001108293)
(0.1532628 0.01740221 0.001707933)
(0.155957 0.02704325 0.002577285)
(0.1487903 0.04228679 0.004688955)
(0.1368951 0.06595797 0.01279478)
(0.0673809 0.1012431 0.02583559)
(0.1003384 -0.001933371 -5.138149e-05)
(0.1009736 -0.002665153 -9.164108e-05)
(0.1014362 -0.002994681 -0.0001169465)
(0.1018478 -0.003146609 -0.0001324798)
(0.1023088 -0.003177948 -0.0001412677)
(0.1028053 -0.003142971 -0.0001446897)
(0.1033226 -0.003075022 -0.0001435305)
(0.1038536 -0.002991677 -0.0001378542)
(0.1043894 -0.002903522 -0.0001269352)
(0.104919 -0.002817787 -0.0001091717)
(0.1054305 -0.002740433 -8.174765e-05)
(0.1059095 -0.00267815 -3.999007e-05)
(0.1063347 -0.002639274 2.353285e-05)
(0.1066834 -0.002617517 0.0001218987)
(0.1069332 -0.00260886 0.000272381)
(0.1070562 -0.002610326 0.0004986066)
(0.1070187 -0.002621221 0.0008321762)
(0.1067795 -0.002647322 0.001313326)
(0.1062931 -0.002700353 0.001989799)
(0.1055088 -0.002805123 0.002912966)
(0.104401 -0.002991014 0.004134177)
(0.1029442 -0.00331244 0.005733747)
(0.1009971 -0.003929462 0.007894468)
(0.0984073 -0.00516595 0.01090955)
(0.09558773 -0.007519816 0.01500586)
(0.09371214 -0.01106515 0.01947663)
(0.09871352 -0.002966493 0.02163328)
(0.1046169 0.01767281 0.02283282)
(0.106639 0.05344475 0.03007868)
(0.07260623 0.09675581 0.04281556)
(0.09849701 -0.001441192 -5.022039e-05)
(0.09761928 -0.001925768 -8.870382e-05)
(0.09566752 -0.002120702 -0.0001121487)
(0.09359355 -0.002189809 -0.0001256431)
(0.09162543 -0.002159877 -0.0001323093)
(0.08973238 -0.002073059 -0.0001336817)
(0.08792025 -0.001960009 -0.0001306679)
(0.08619765 -0.001837585 -0.0001234541)
(0.08455914 -0.001715558 -0.0001114383)
(0.08299265 -0.001599565 -9.315974e-05)
(0.08148223 -0.001492664 -6.601662e-05)
(0.08000722 -0.001396501 -2.573296e-05)
(0.07853944 -0.001312267 3.441084e-05)
(0.07704319 -0.001239002 0.0001253906)
(0.07547615 -0.001177932 0.000262261)
(0.0737851 -0.001133317 0.0004649041)
(0.0719019 -0.001114218 0.0007577433)
(0.06974003 -0.001139128 0.001166485)
(0.06718942 -0.001241527 0.001712947)
(0.06410274 -0.00148651 0.00240917)
(0.06026965 -0.001974191 0.003268609)
(0.05541287 -0.00282944 0.004354756)
(0.04916664 -0.004256018 0.005840308)
(0.04117925 -0.006739568 0.008027259)
(0.03026116 -0.01152923 0.01121517)
(0.01663869 -0.02156005 0.01626509)
(-0.01432717 -0.01222956 0.02355007)
(-0.01586813 0.01106782 0.02725827)
(0.01961116 0.05192937 0.04444683)
(0.05212737 0.07883015 0.06293252)
(0.1010714 -0.0003826227 -0.0002438509)
(0.1055392 -0.0007650328 -0.0004511558)
(0.1090529 -0.0008989582 -0.000598921)
(0.1122717 -0.000798466 -0.0006985136)
(0.1153904 -0.0006183468 -0.0007598592)
(0.1182983 -0.0004228344 -0.0007912641)
(0.1209736 -0.0002343396 -0.0008007828)
(0.1234336 -6.360057e-05 -0.0007956522)
(0.1256934 8.588271e-05 -0.0007827392)
(0.1277667 0.0002150928 -0.0007694165)
(0.1296659 0.0003270961 -0.0007656925)
(0.1314003 0.0004262337 -0.0007871205)
(0.1329749 0.0005178012 -0.0008582123)
(0.1343854 0.0006065973 -0.001020396)
(0.1356168 0.0006939604 -0.001325361)
(0.1366507 0.0007766455 -0.001837249)
(0.1374688 0.00084136 -0.002639517)
(0.1380573 0.0008576397 -0.003827048)
(0.1384123 0.0007680199 -0.005497017)
(0.1385391 0.0004739726 -0.007717041)
(0.1384638 -0.0001697132 -0.01046588)
(0.1382673 -0.001338117 -0.01357646)
(0.1381306 -0.003180644 -0.01671642)
(0.1383501 -0.005724341 -0.01943485)
(0.1392449 -0.008754445 -0.02126519)
(0.1409833 -0.01179814 -0.02165397)
(0.1435548 -0.01358635 -0.02024717)
(0.1446485 -0.01220372 -0.01655897)
(0.1458222 -0.003518821 -0.007628013)
(0.1140476 0.01684523 0.006460496)
(0.1002922 -0.0009137591 -0.0002509522)
(0.1011312 -0.001614645 -0.0004720881)
(0.1022714 -0.001927748 -0.0006365099)
(0.1036445 -0.001946264 -0.0007539289)
(0.1052388 -0.001855436 -0.0008319932)
(0.1069777 -0.001731869 -0.000876049)
(0.1088068 -0.001603861 -0.0008904028)
(0.1106958 -0.0014862 -0.0008770029)
(0.11262 -0.001386298 -0.0008349975)
(0.1145591 -0.001307838 -0.000760703)
(0.1164968 -0.001253634 -0.0006477955)
(0.1184193 -0.001226637 -0.000487706)
(0.1203149 -0.001230387 -0.000270006)
(0.1221743 -0.001272928 1.517049e-05)
(0.123987 -0.001372724 0.0003767731)
(0.125739 -0.001555721 0.0008243022)
(0.1274116 -0.001864028 0.001367254)
(0.1289779 -0.002365056 0.002018567)
(0.1303982 -0.003166248 0.002807761)
(0.1316127 -0.004433378 0.003802524)
(0.1325393 -0.006395369 0.005131656)
(0.133098 -0.009302509 0.006983142)
(0.1332699 -0.01329703 0.009561945)
(0.1331647 -0.01822394 0.01298872)
(0.1330344 -0.02351299 0.01718537)
(0.1333975 -0.02816642 0.0217923)
(0.134891 -0.03000803 0.02603192)
(0.1370882 -0.02661685 0.03129915)
(0.1446988 -0.008280235 0.04545534)
(0.1525286 0.02649909 0.0581134)
(0.1003581 -0.001934041 -0.0002525447)
(0.1010375 -0.002666202 -0.0004755376)
(0.1015411 -0.002997404 -0.0006434812)