/*--------------------------------*- C++ -*----------------------------------*\
| =========                 |                                                 |
| \\      /  F ield         | OpenFOAM: The Open Source CFD Toolbox           |
|  \\    /   O peration     | Version:  v2012                                 |
|   \\  /    A nd           | Website:  www.openfoam.com                      |
|    \\/     M anipulation  |                                                 |
\*---------------------------------------------------------------------------*/
FoamFile
{
    version     2.0;
    format      ascii;
    class       surfaceScalarField;
    location    "93";
    object      phi;
}
// * * * * * * * * * * * * * * * * * * * * * * * * * * * * * * * * * * * * * //

dimensions      [1 0 -1 0 0 0 0];
oriented        oriented;


internalField   nonuniform List<scalar> 
228225
(
-6.72193e-10
-7.05547e-10
1.1238e-09
-1.30193e-09
1.82247e-09
-1.19522e-09
-3.42648e-09
3.72099e-09
-1.59511e-09
-7.3269e-09
5.5122e-09
-1.61239e-09
-1.28689e-08
7.16936e-09
-1.62688e-09
-1.977e-08
8.63122e-09
-1.72874e-09
-2.77267e-08
9.87933e-09
-1.92308e-09
-3.64166e-08
1.08918e-08
-2.20231e-09
-4.55525e-08
1.16775e-08
-2.543e-09
-5.4846e-08
1.22323e-08
-2.93586e-09
-6.40642e-08
1.25751e-08
-3.35997e-09
-7.29665e-08
1.27094e-08
-3.80766e-09
-8.13556e-08
1.26584e-08
-4.26326e-09
-8.90648e-08
1.24262e-08
-4.72238e-09
-9.59283e-08
1.20379e-08
-5.17239e-09
-1.01818e-07
1.15002e-08
-5.61087e-09
-1.06625e-07
1.0836e-08
-6.02723e-09
-1.10256e-07
1.00521e-08
-6.42084e-09
-1.1265e-07
9.17008e-09
-6.77975e-09
-1.13738e-07
8.19669e-09
-7.10556e-09
-1.13503e-07
7.15176e-09
-7.39064e-09
-1.11908e-07
6.04202e-09
-7.63459e-09
-1.08964e-07
4.88641e-09
-7.83132e-09
-1.04675e-07
3.69277e-09
-7.98249e-09
-9.90685e-08
2.48042e-09
-8.08443e-09
-9.21872e-08
1.2585e-09
-8.14132e-09
-8.40935e-08
6.11067e-11
-8.15325e-09
-7.48362e-08
-1.12931e-09
-8.12822e-09
-6.45189e-08
-2.24841e-09
-8.06983e-09
-5.32513e-08
-3.27747e-09
-7.98658e-09
-4.12128e-08
-4.16971e-09
-7.87227e-09
-2.86545e-08
-4.86621e-09
-7.68896e-09
-1.61356e-08
-5.25205e-09
-7.27082e-09
-4.94012e-09
-5.16214e-09
-6.02905e-09
-3.62955e-09
-1.31176e-09
-1.90487e-09
1.23103e-08
-1.11111e-08
-9.63377e-09
2.22134e-08
-1.26616e-08
-1.9501e-08
2.69971e-08
-1.34101e-08
-3.05225e-08
3.06478e-08
-1.41127e-08
-4.19745e-08
3.33293e-08
-1.47103e-08
-5.33428e-08
3.52174e-08
-1.52153e-08
-6.42518e-08
3.64505e-08
-1.56638e-08
-7.44328e-08
3.71441e-08
-1.60706e-08
-8.36931e-08
3.73847e-08
-1.64475e-08
-9.19116e-08
3.72443e-08
-1.67952e-08
-9.89932e-08
3.67787e-08
-1.71196e-08
-1.04901e-07
3.60351e-08
-1.74182e-08
-1.09603e-07
3.5053e-08
-1.76942e-08
-1.13097e-07
3.38653e-08
-1.79445e-08
-1.1539e-07
3.25022e-08
-1.81712e-08
-1.16512e-07
3.09915e-08
-1.83705e-08
-1.16491e-07
2.93595e-08
-1.85445e-08
-1.1538e-07
2.76305e-08
-1.86894e-08
-1.13227e-07
2.58253e-08
-1.8807e-08
-1.10104e-07
2.39656e-08
-1.88936e-08
-1.06072e-07
2.20702e-08
-1.8951e-08
-1.01211e-07
2.01581e-08
-1.89759e-08
-9.56005e-08
1.82465e-08
-1.89696e-08
-8.93324e-08
1.63505e-08
-1.89282e-08
-8.24819e-08
1.4483e-08
-1.88523e-08
-7.51436e-08
1.26574e-08
-1.87368e-08
-6.73895e-08
1.08859e-08
-1.85796e-08
-5.93254e-08
9.17904e-09
-1.83718e-08
-5.10142e-08
7.54529e-09
-1.81053e-08
-4.25232e-08
5.99172e-09
-1.77605e-08
-3.39009e-08
4.52449e-09
-1.73167e-08
-2.51873e-08
3.1552e-09
-1.67356e-08
-1.64332e-08
1.90785e-09
-1.59147e-08
-7.89654e-09
8.85219e-10
-1.45825e-08
1.00807e-10
-1.16277e-08
-3.76046e-10
2.19361e-08
-9.25001e-09
-3.79651e-09
3.66589e-08
-1.10232e-08
-8.23746e-09
4.3208e-08
-1.17715e-08
-1.3174e-08
4.79118e-08
-1.2327e-08
-1.82625e-08
5.11823e-08
-1.27649e-08
-2.32575e-08
5.33474e-08
-1.31353e-08
-2.799e-08
5.46432e-08
-1.346e-08
-3.2338e-08
5.52522e-08
-1.37597e-08
-3.62238e-08
5.53094e-08
-1.40393e-08
-3.95915e-08
5.49207e-08
-1.43083e-08
-4.24152e-08
5.41665e-08
-1.45646e-08
-4.4679e-08
5.31118e-08
-1.48129e-08
-4.63844e-08
5.18082e-08
-1.50487e-08
-4.75464e-08
5.02994e-08
-1.52747e-08
-4.81788e-08
4.86217e-08
-1.54858e-08
-4.83105e-08
4.68071e-08
-1.56841e-08
-4.79722e-08
4.4886e-08
-1.58637e-08
-4.72018e-08
4.28839e-08
-1.60263e-08
-4.60314e-08
4.08239e-08
-1.61673e-08
-4.45052e-08
3.87269e-08
-1.62881e-08
-4.26639e-08
3.66126e-08
-1.63843e-08
-4.05458e-08
3.44977e-08
-1.64573e-08
-3.8196e-08
3.23997e-08
-1.65028e-08
-3.56554e-08
3.03325e-08
-1.6522e-08
-3.29693e-08
2.83066e-08
-1.65107e-08
-3.01702e-08
2.63258e-08
-1.64682e-08
-2.72879e-08
2.4392e-08
-1.63883e-08
-2.43428e-08
2.2501e-08
-1.6267e-08
-2.13469e-08
2.06417e-08
-1.60927e-08
-1.82965e-08
1.87943e-08
-1.58536e-08
-1.51697e-08
1.69258e-08
-1.55261e-08
-1.19316e-08
1.4989e-08
-1.50736e-08
-8.5226e-09
1.29113e-08
-1.44121e-08
-4.86275e-09
1.05901e-08
-1.33662e-08
6.16873e-09
-1.09293e-08
8.77964e-11
2.66614e-08
-4.81338e-09
-3.86182e-10
4.35575e-08
-6.42489e-09
-1.08861e-09
5.11364e-08
-7.22524e-09
-2.03328e-09
5.66142e-08
-7.75763e-09
-3.17197e-09
6.04802e-08
-8.15936e-09
-4.42379e-09
6.31026e-08
-8.50314e-09
-5.71211e-09
6.47542e-08
-8.82358e-09
-6.97316e-09
6.56431e-08
-9.12923e-09
-8.15994e-09
6.59278e-08
-9.43185e-09
-9.23784e-09
6.57291e-08
-9.73164e-09
-1.01783e-08
6.51423e-08
-1.00345e-08
-1.097e-08
6.42406e-08
-1.03362e-08
-1.16077e-08
6.30844e-08
-1.06395e-08
-1.20903e-08
6.17213e-08
-1.09387e-08
-1.24266e-08
6.01924e-08
-1.12351e-08
-1.26285e-08
5.85309e-08
-1.15224e-08
-1.27074e-08
5.6767e-08
-1.18014e-08
-1.26827e-08
5.49252e-08
-1.2066e-08
-1.25723e-08
5.30283e-08
-1.23166e-08
-1.23903e-08
5.10949e-08
-1.25476e-08
-1.21614e-08
4.91416e-08
-1.27594e-08
-1.18991e-08
4.71823e-08
-1.29466e-08
-1.16206e-08
4.52302e-08
-1.31092e-08
-1.13407e-08
4.3294e-08
-1.32415e-08
-1.10693e-08
4.13775e-08
-1.33427e-08
-1.08071e-08
3.94725e-08
-1.34086e-08
-1.0543e-08
3.75663e-08
-1.34376e-08
-1.02571e-08
3.56366e-08
-1.34229e-08
-9.90435e-09
3.36475e-08
-1.33596e-08
-9.41916e-09
3.15467e-08
-1.32354e-08
-8.71511e-09
2.9257e-08
-1.30364e-08
-7.65748e-09
2.66729e-08
-1.27412e-08
-6.05965e-09
2.36407e-08
-1.23281e-08
-3.73064e-09
1.9966e-08
-1.17039e-08
1.24185e-08
-9.98082e-09
-7.19358e-10
2.89281e-08
-1.54565e-09
-4.72197e-10
4.61136e-08
-2.80549e-09
2.53457e-10
5.39283e-08
-3.51629e-09
1.16084e-09
5.96827e-08
-3.97571e-09
2.10905e-09
6.38446e-08
-4.31343e-09
3.04791e-09
6.67788e-08
-4.61457e-09
3.94665e-09
6.87564e-08
-4.90236e-09
4.79516e-09
6.9986e-08
-5.18981e-09
5.57494e-09
7.06238e-08
-5.47799e-09
6.2872e-09
7.07925e-08
-5.77398e-09
6.91974e-09
7.05847e-08
-6.07497e-09
7.46888e-09
7.00751e-08
-6.38424e-09
7.92847e-09
6.93209e-08
-6.69656e-09
8.29357e-09
6.83701e-08
-7.01334e-09
8.55412e-09
6.72602e-08
-7.32848e-09
8.70368e-09
6.60238e-08
-7.64258e-09
8.73157e-09
6.46868e-08
-7.94935e-09
8.63502e-09
6.32724e-08
-8.24901e-09
8.40077e-09
6.17984e-08
-8.53547e-09
8.02214e-09
6.02808e-08
-8.8088e-09
7.49615e-09
5.87312e-08
-9.06329e-09
6.81877e-09
5.71593e-08
-9.29878e-09
5.98801e-09
5.557e-08
-9.50978e-09
5.01392e-09
5.39629e-08
-9.69622e-09
3.91627e-09
5.23305e-08
-9.85313e-09
2.70985e-09
5.06581e-08
-9.9802e-09
1.42975e-09
4.89197e-08
-1.00723e-08
1.16784e-10
4.70761e-08
-1.01284e-08
-1.16082e-09
4.50688e-08
-1.01416e-08
-2.32372e-09
4.28155e-08
-1.0107e-08
-3.25567e-09
4.02002e-08
-1.0012e-08
-3.79505e-09
3.70655e-08
-9.85158e-09
-3.71263e-09
3.31906e-08
-9.63405e-09
-2.71225e-09
2.82854e-08
-9.31844e-09
1.78709e-08
-8.16532e-09
-8.95727e-10
2.95177e-08
3.08113e-10
-5.85682e-10
4.64152e-08
-6.13759e-10
3.65628e-10
5.4172e-08
-1.19559e-09
1.64625e-09
5.99668e-08
-1.56375e-09
3.07289e-09
6.42565e-08
-1.83973e-09
4.55791e-09
6.73863e-08
-2.09077e-09
6.03507e-09
6.96196e-08
-2.34215e-09
7.46497e-09
7.11527e-08
-2.59601e-09
8.80991e-09
7.21371e-08
-2.85867e-09
1.00446e-08
7.26862e-08
-3.12813e-09
1.11474e-08
7.28894e-08
-3.40809e-09
1.21036e-08
7.28139e-08
-3.69452e-09
1.28971e-08
7.25146e-08
-3.98905e-09
1.35225e-08
7.20327e-08
-4.28647e-09
1.39656e-08
7.14036e-08
-4.58736e-09
1.42224e-08
7.06537e-08
-4.88609e-09
1.42845e-08
6.98064e-08
-5.1828e-09
1.41503e-08
6.88788e-08
-5.47189e-09
1.38154e-08
6.7886e-08
-5.75327e-09
1.32811e-08
6.6838e-08
-6.02161e-09
1.25455e-08
6.57422e-08
-6.27677e-09
1.16172e-08
6.46012e-08
-6.51378e-09
1.05069e-08
6.34135e-08
-6.73256e-09
9.22566e-09
6.21707e-08
-6.92857e-09
7.802e-09
6.08584e-08
-7.10168e-09
6.25479e-09
5.94513e-08
-7.24763e-09
4.628e-09
5.79125e-08
-7.36617e-09
2.97005e-09
5.61875e-08
-7.45307e-09
1.34582e-09
5.41996e-08
-7.50718e-09
-1.5945e-10
5.18426e-08
-7.52192e-09
-1.43719e-09
4.89699e-08
-7.49187e-09
-2.34024e-09
4.53841e-08
-7.41473e-09
-2.64656e-09
4.08129e-08
-7.31589e-09
-2.09119e-09
3.49033e-08
-7.17458e-09
2.21841e-08
-6.40332e-09
-7.72346e-10
2.92418e-08
1.04788e-09
-4.74791e-10
4.57768e-08
3.42455e-10
3.92627e-10
5.34185e-08
-1.15641e-10
1.56675e-09
5.91945e-08
-4.00668e-10
2.89075e-09
6.35452e-08
-6.14101e-10
4.28646e-09
6.6806e-08
-8.14085e-10
5.69188e-09
6.92278e-08
-1.01422e-09
7.06376e-09
7.10011e-08
-1.22046e-09
8.36639e-09
7.22678e-08
-1.43159e-09
9.56666e-09
7.31371e-08
-1.6525e-09
1.06464e-08
7.36908e-08
-1.88035e-09
1.1584e-08
7.39927e-08
-2.11669e-09
1.23644e-08
7.40907e-08
-2.35756e-09
1.29777e-08
7.40235e-08
-2.60371e-09
1.34136e-08
7.38196e-08
-2.85066e-09
1.36617e-08
7.3503e-08
-3.09869e-09
1.37222e-08
7.30908e-08
-3.34317e-09
1.35869e-08
7.25972e-08
-3.58419e-09
1.32595e-08
7.20314e-08
-3.81723e-09
1.27378e-08
7.14e-08
-4.04231e-09
1.20323e-08
7.07045e-08
-4.25517e-09
1.11462e-08
6.99433e-08
-4.45587e-09
1.00912e-08
6.91083e-08
-4.64048e-09
8.88542e-09
6.81861e-08
-4.80914e-09
7.54662e-09
6.7154e-08
-4.95825e-09
6.10741e-09
6.59795e-08
-5.088e-09
4.6005e-09
6.46149e-08
-5.19506e-09
3.07348e-09
6.29945e-08
-5.2796e-09
1.58333e-09
6.10268e-08
-5.33803e-09
2.07871e-10
5.85881e-08
-5.36869e-09
-9.66253e-10
5.55085e-08
-5.36518e-09
-1.81106e-09
5.15611e-08
-5.33098e-09
-2.14546e-09
4.64348e-08
-5.29014e-09
-1.72786e-09
3.97223e-08
-5.2346e-09
2.51657e-08
-4.70968e-09
-5.009e-10
2.85848e-08
1.15843e-09
-3.23606e-10
4.49495e-08
6.48997e-10
2.45453e-10
5.25403e-08
3.11451e-10
1.01889e-09
5.83162e-08
1.03051e-10
1.90113e-09
6.27175e-08
-5.45834e-11
2.83413e-09
6.60727e-08
-2.00325e-10
3.78133e-09
6.86302e-08
-3.49463e-10
4.71148e-09
7.05737e-08
-5.02401e-10
5.59766e-09
7.20429e-08
-6.61778e-10
6.42059e-09
7.31411e-08
-8.25416e-10
7.15881e-09
7.39478e-08
-9.96097e-10
7.79973e-09
7.45223e-08
-1.17092e-09
8.33177e-09
7.49101e-08
-1.35072e-09
8.74217e-09
7.51447e-08
-1.53224e-09
9.02507e-09
7.52527e-08
-1.71596e-09
9.17428e-09
7.52528e-08
-1.89837e-09
9.18331e-09
7.51602e-08
-2.07987e-09
9.0546e-09
7.49841e-08
-2.25687e-09
8.78282e-09
7.47312e-08
-2.42972e-09
8.37486e-09
7.44031e-08
-2.59497e-09
7.83401e-09
7.39987e-08
-2.75298e-09
7.16703e-09
7.3511e-08
-2.90055e-09
6.38388e-09
7.29289e-08
-3.0381e-09
5.49973e-09
7.22332e-08
-3.16266e-09
4.5322e-09
7.13968e-08
-3.27476e-09
3.50174e-09
7.03806e-08
-3.37167e-09
2.43969e-09
6.91308e-08
-3.45396e-09
1.38088e-09
6.7573e-08
-3.51912e-09
3.67577e-10
6.56062e-08
-3.56747e-09
-5.4276e-10
6.30942e-08
-3.59536e-09
-1.28504e-09
5.98518e-08
-3.60109e-09
-1.77188e-09
5.56319e-08
-3.58543e-09
-1.86288e-09
5.00978e-08
-3.57064e-09
-1.40266e-09
4.28069e-08
-3.54681e-09
2.69506e-08
-3.18588e-09
-3.9271e-10
2.78158e-08
1.16219e-09
-4.0942e-10
4.41239e-08
8.42223e-10
-1.97102e-10
5.16992e-08
6.28208e-10
1.37875e-10
5.74837e-08
4.97721e-10
5.41521e-10
6.19175e-08
3.97441e-10
9.82951e-10
6.53308e-08
2.99724e-10
1.4449e-09
6.79682e-08
1.99754e-10
1.91072e-09
7.00138e-08
9.42904e-11
2.36341e-09
7.16036e-08
-1.2555e-11
2.78764e-09
7.28409e-08
-1.24169e-10
3.17175e-09
7.38011e-08
-2.36734e-10
3.50642e-09
7.45423e-08
-3.5451e-10
3.78355e-09
7.51068e-08
-4.74299e-10
3.99811e-09
7.55271e-08
-5.96651e-10
4.14176e-09
7.5827e-08
-7.18609e-10
4.21186e-09
7.60239e-08
-8.40743e-10
4.20395e-09
7.6129e-08
-9.60427e-10
4.11508e-09
7.61501e-08
-1.07826e-09
3.94891e-09
7.60902e-08
-1.19163e-09
3.7031e-09
7.59495e-08
-1.30121e-09
3.38365e-09
7.57229e-08
-1.40446e-09
2.99639e-09
7.5402e-08
-1.50214e-09
2.54635e-09
7.49713e-08
-1.59186e-09
2.04275e-09
7.441e-08
-1.67446e-09
1.50064e-09
7.36867e-08
-1.74774e-09
9.34983e-10
7.27595e-08
-1.81261e-09
3.62727e-10
7.15698e-08
-1.86708e-09
-1.92161e-10
7.00394e-08
-1.91213e-09
-7.0011e-10
6.80612e-08
-1.94578e-09
-1.12944e-09
6.54927e-08
-1.96837e-09
-1.44161e-09
6.21401e-08
-1.97682e-09
-1.58251e-09
5.77463e-08
-1.97481e-09
-1.47019e-09
5.19611e-08
-1.97612e-09
-1.00838e-09
4.43216e-08
-1.9739e-09
2.76961e-08
-1.7547e-09
-4.85636e-10
2.70383e-08
1.26389e-09
-7.49663e-10
4.32501e-08
1.13638e-09
-8.71986e-10
5.07845e-08
1.03787e-09
-9.16344e-10
5.65454e-08
9.81354e-10
-9.04089e-10
6.09737e-08
9.32308e-10
-8.51381e-10
6.43972e-08
8.80946e-10
-7.67277e-10
6.70603e-08
8.23857e-10
-6.62357e-10
6.91443e-08
7.63311e-10
-5.4082e-10
7.07856e-08
6.98488e-10
-4.16363e-10
7.20845e-08
6.31301e-10
-2.93635e-10
7.3117e-08
5.60646e-10
-1.77354e-10
7.39381e-08
4.89126e-10
-7.62268e-11
7.45898e-08
4.15876e-10
4.70828e-12
7.51021e-08
3.43129e-10
6.57058e-11
7.54977e-08
2.69202e-10
1.0248e-10
7.57919e-08
1.96248e-10
1.10913e-10
7.59954e-08
1.2333e-10
9.52458e-11
7.61137e-08
5.27298e-11
5.24072e-11
7.61493e-08
-1.55416e-11
-1.78245e-11
7.60997e-08
-8.02877e-11
-1.11723e-10
7.59596e-08
-1.41596e-10
-2.30546e-10
7.57177e-08
-1.98717e-10
-3.64438e-10
7.53587e-08
-2.52596e-10
-5.12146e-10
7.48587e-08
-3.0135e-10
-6.6515e-10
7.41861e-08
-3.46078e-10
-8.16669e-10
7.32966e-08
-3.85189e-10
-9.57685e-10
7.2131e-08
-4.19962e-10
-1.07879e-09
7.06088e-08
-4.49065e-10
-1.16695e-09
6.86225e-08
-4.73949e-10
-1.20593e-09
6.60271e-08
-4.93224e-10
-1.18666e-09
6.26282e-08
-5.08141e-10
-1.08679e-09
5.81663e-08
-5.20103e-10
-8.73076e-10
5.22901e-08
-5.41895e-10
-5.19731e-10
4.45328e-08
-5.66134e-10
2.76683e-08
-4.91282e-10
-6.62444e-10
2.62601e-08
1.43851e-09
-1.13344e-09
4.22453e-08
1.47923e-09
-1.5018e-09
4.96743e-08
1.47808e-09
-1.79524e-09
5.53585e-08
1.48107e-09
-2.02983e-09
5.97318e-08
1.47549e-09
-2.20957e-09
6.31188e-08
1.45982e-09
-2.34855e-09
6.5759e-08
1.43731e-09
-2.44461e-09
6.78329e-08
1.40866e-09
-2.50914e-09
6.9473e-08
1.37668e-09
-2.54445e-09
7.07795e-08
1.341e-09
-2.55728e-09
7.18254e-08
1.30374e-09
-2.54962e-09
7.26664e-08
1.26419e-09
-2.52558e-09
7.33421e-08
1.2242e-09
-2.48979e-09
7.38829e-08
1.1828e-09
-2.44246e-09
7.43086e-08
1.1423e-09
-2.3876e-09
7.46346e-08
1.10163e-09
-2.32338e-09
7.487e-08
1.06246e-09
-2.25477e-09
7.50206e-08
1.02377e-09
-2.17947e-09
7.50869e-08
9.87163e-10
-2.0979e-09
7.50672e-08
9.51558e-10
-2.01224e-09
7.4954e-08
9.18479e-10
-1.91868e-09
7.47371e-08
8.8675e-10
-1.81647e-09
7.43992e-08
8.57795e-10
-1.7059e-09
7.39174e-08
8.30331e-10
-1.58425e-09
7.3259e-08
8.05629e-10
-1.45236e-09
7.23808e-08
7.82257e-10
-1.30376e-09
7.12234e-08
7.61246e-10
-1.14431e-09
6.9708e-08
7.40857e-10
-9.73861e-10
6.77278e-08
7.21687e-10
-7.86505e-10
6.51416e-08
7.01574e-10
-5.97043e-10
6.17575e-08
6.80473e-10
-4.07211e-10
5.73217e-08
6.53467e-10
-2.17566e-10
5.14898e-08
6.1185e-10
-4.49779e-11
4.38044e-08
5.56023e-10
2.71221e-08
5.00517e-10
-7.73597e-10
2.55191e-08
1.51435e-09
-1.35933e-09
4.11622e-08
1.66888e-09
-1.84753e-09
4.84333e-08
1.72959e-09
-2.26026e-09
5.39984e-08
1.77173e-09
-2.60227e-09
5.82821e-08
1.79305e-09
-2.8858e-09
6.16e-08
1.80143e-09
-3.11436e-09
6.4188e-08
1.79999e-09
-3.29474e-09
6.62209e-08
1.79266e-09
-3.42985e-09
6.78299e-08
1.78029e-09
-3.5296e-09
6.91115e-08
1.76537e-09
-3.59044e-09
7.01386e-08
1.74773e-09
-3.61655e-09
7.09641e-08
1.72926e-09
-3.61196e-09
7.16279e-08
1.70935e-09
-3.57538e-09
7.21582e-08
1.68962e-09
-3.51443e-09
7.25762e-08
1.66926e-09
-3.42415e-09
7.28955e-08
1.64976e-09
-3.30959e-09
7.31259e-08
1.63017e-09
-3.17308e-09
7.32715e-08
1.61186e-09
-3.01396e-09
7.33339e-08
1.59378e-09
-2.8349e-09
7.33097e-08
1.57721e-09
-2.63172e-09
7.31929e-08
1.56101e-09
-2.41449e-09
7.29716e-08
1.54633e-09
-2.17682e-09
7.26302e-08
1.53193e-09
-1.92411e-09
7.2145e-08
1.51882e-09
-1.65427e-09
7.14853e-08
1.50564e-09
-1.3735e-09
7.06077e-08
1.49317e-09
-1.08684e-09
6.94556e-08
1.47978e-09
-7.97373e-10
6.79517e-08
1.46587e-09
-5.10692e-10
6.59939e-08
1.4492e-09
-2.43367e-10
6.34439e-08
1.42939e-09
-7.56094e-12
6.01182e-08
1.40303e-09
1.77818e-10
5.57698e-08
1.36695e-09
2.89097e-10
5.00683e-08
1.31055e-09
2.90344e-10
4.25711e-08
1.23245e-09
2.63271e-08
1.08479e-09
-7.20813e-10
2.48752e-08
1.36426e-09
-1.2819e-09
4.01684e-08
1.55525e-09
-1.7645e-09
4.72771e-08
1.63867e-09
-2.1774e-09
5.2719e-08
1.69286e-09
-2.527e-09
5.69072e-08
1.72422e-09
-2.81883e-09
6.01505e-08
1.74099e-09
-3.05796e-09
6.26782e-08
1.74906e-09
-3.2488e-09
6.4662e-08
1.75033e-09
-3.39627e-09
6.62291e-08
1.74782e-09
-3.50093e-09
6.74752e-08
1.74196e-09
-3.56776e-09
6.84702e-08
1.73473e-09
-3.59652e-09
6.92672e-08
1.72588e-09
-3.59006e-09
6.99042e-08
1.71693e-09
-3.55044e-09
7.04102e-08
1.70729e-09
-3.47513e-09
7.08047e-08
1.69828e-09
-3.3726e-09
7.11023e-08
1.68914e-09
-3.23843e-09
7.13114e-08
1.68103e-09
-3.07742e-09
7.14373e-08
1.67307e-09
-2.89009e-09
7.14803e-08
1.66633e-09
-2.67862e-09
7.14385e-08
1.6598e-09
-2.4445e-09
7.13046e-08
1.65445e-09
-2.19001e-09
7.10686e-08
1.64915e-09
-1.91766e-09
7.07137e-08
1.64476e-09
-1.63221e-09
7.02185e-08
1.64003e-09
-1.33531e-09
6.95517e-08
1.63565e-09
-1.02872e-09
6.86728e-08
1.63019e-09
-7.23567e-10
6.75257e-08
1.62403e-09
-4.24241e-10
6.60372e-08
1.61535e-09
-1.41045e-10
6.41072e-08
1.60393e-09
1.12183e-10
6.16039e-08
1.58707e-09
3.1634e-10
5.83491e-08
1.56327e-09
4.55406e-10
5.4106e-08
1.52727e-09
4.94056e-10
4.85556e-08
1.47169e-09
4.04405e-10
4.12725e-08
1.39083e-09
2.55153e-08
1.21548e-09
-5.1178e-10
2.44286e-08
9.57799e-10
-9.38205e-10
3.94823e-08
1.11315e-09
-1.32363e-09
4.64799e-08
1.18193e-09
-1.66607e-09
5.18358e-08
1.22574e-09
-1.96528e-09
5.59567e-08
1.24985e-09
-2.22291e-09
5.91447e-08
1.26316e-09
-2.43931e-09
6.16264e-08
1.26892e-09
-2.61747e-09
6.357e-08
1.27025e-09
-2.7601e-09
6.51018e-08
1.26798e-09
-2.86185e-09
6.63149e-08
1.26409e-09
-2.93165e-09
6.72797e-08
1.25862e-09
-2.96393e-09
6.80474e-08
1.25302e-09
-2.9634e-09
6.8657e-08
1.24695e-09
-2.93138e-09
6.91358e-08
1.24157e-09
-2.8679e-09
6.95047e-08
1.23635e-09
-2.77441e-09
6.97771e-08
1.2323e-09
-2.65546e-09
6.99625e-08
1.22875e-09
-2.50818e-09
7.00653e-08
1.2266e-09
-2.34184e-09
7.0087e-08
1.22506e-09
-2.15196e-09
7.00247e-08
1.2249e-09
-1.94537e-09
6.98726e-08
1.22523e-09
-1.72316e-09
6.96196e-08
1.22672e-09
-1.48805e-09
6.92509e-08
1.22836e-09
-1.24588e-09
6.8744e-08
1.23069e-09
-9.95871e-10
6.807e-08
1.23257e-09
-7.45693e-10
6.71878e-08
1.23438e-09
-4.98756e-10
6.60444e-08
1.23474e-09
-2.61642e-10
6.45668e-08
1.23372e-09
-4.55979e-11
6.26592e-08
1.22949e-09
1.46739e-10
6.01921e-08
1.22143e-09
2.95174e-10
5.69931e-08
1.20668e-09
3.88343e-10
5.28308e-08
1.18278e-09
4.03917e-10
4.73965e-08
1.14288e-09
3.16866e-10
4.02756e-08
1.08401e-09
2.48869e-08
9.4495e-10
-2.08498e-10
2.42503e-08
3.87037e-10
-4.40673e-10
3.92584e-08
4.56787e-10
-6.83727e-10
4.62332e-08
4.88162e-10
-9.19581e-10
5.15691e-08
5.05542e-10
-1.14779e-09
5.56706e-08
5.12423e-10
-1.35605e-09
5.88402e-08
5.13002e-10
-1.54306e-09
6.13028e-08
5.10144e-10
-1.70394e-09
6.32274e-08
5.0454e-10
-1.8392e-09
6.47389e-08
4.97749e-10
-1.94552e-09
6.59317e-08
4.89913e-10
-2.02291e-09
6.68751e-08
4.82262e-10
-2.07285e-09
6.76217e-08
4.74654e-10
-2.09251e-09
6.82093e-08
4.68191e-10
-2.0862e-09
6.86666e-08
4.62636e-10
-2.05223e-09
6.90135e-08
4.58388e-10
-1.99594e-09
6.92649e-08
4.55074e-10
-1.91578e-09
6.94295e-08
4.53539e-10
-1.81688e-09
6.95128e-08
4.53222e-10
-1.70131e-09
6.95156e-08
4.54794e-10
-1.57033e-09
6.94362e-08
4.5758e-10
-1.4264e-09
6.92678e-08
4.62111e-10
-1.27508e-09
6.90008e-08
4.67612e-10
-1.11857e-09
6.86191e-08
4.7451e-10
-9.58352e-10
6.8102e-08
4.81923e-10
-7.97927e-10
6.74192e-08
4.90177e-10
-6.39493e-10
6.65317e-08
4.98278e-10
-4.87564e-10
6.53855e-08
5.06423e-10
-3.43417e-10
6.39096e-08
5.13477e-10
-2.11919e-10
6.2008e-08
5.19401e-10
-9.69277e-11
5.95536e-08
5.22757e-10
-1.43944e-12
5.6375e-08
5.23021e-10
6.7762e-11
5.22443e-08
5.17985e-10
1.02333e-10
4.6855e-08
5.05594e-10
9.76832e-11
3.97981e-08
4.84731e-10
2.45546e-08
4.27914e-10
8.45869e-11
2.43674e-08
-2.0196e-10
3.96905e-11
3.95334e-08
-2.29853e-10
-6.39856e-11
4.65793e-08
-2.42546e-10
-2.05464e-10
5.19649e-08
-2.54559e-10
-3.67088e-10
5.61e-08
-2.6804e-10
-5.34905e-10
5.92901e-08
-2.81704e-10
-7.00345e-10
6.17639e-08
-2.95732e-10
-8.55912e-10
6.36915e-08
-3.09507e-10
-9.94251e-10
6.52007e-08
-3.23266e-10
-1.11179e-09
6.63863e-08
-3.36289e-10
-1.20776e-09
6.73196e-08
-3.48769e-10
-1.27914e-09
6.80532e-08
-3.5998e-10
-1.32577e-09
6.86267e-08
-3.7017e-10
-1.35077e-09
6.90685e-08
-3.78661e-10
-1.35101e-09
6.94001e-08
-3.85297e-10
-1.33086e-09
6.96356e-08
-3.89522e-10
-1.29652e-09
6.97851e-08
-3.91766e-10
-1.24459e-09
6.98534e-08
-3.91505e-10
-1.18369e-09
6.98425e-08
-3.89218e-10
-1.11146e-09
6.97497e-08
-3.84491e-10
-1.0358e-09
6.95693e-08
-3.77895e-10
-9.55446e-10
6.92907e-08
-3.69116e-10
-8.77641e-10
6.88988e-08
-3.58811e-10
-7.99972e-10
6.83716e-08
-3.46744e-10
-7.26717e-10
6.76797e-08
-3.33644e-10
-6.57935e-10
6.67827e-08
-3.19319e-10
-5.94481e-10
6.56271e-08
-3.04506e-10
-5.37065e-10
6.41405e-08
-2.88987e-10
-4.82968e-10
6.22272e-08
-2.73437e-10
-4.29593e-10
5.97581e-08
-2.57547e-10
-3.75959e-10
5.65616e-08
-2.41853e-10
-3.12009e-10
5.24075e-08
-2.25665e-10
-2.37623e-10
4.69878e-08
-2.08559e-10
-1.42102e-10
3.98902e-08
-1.86408e-10
2.456e-08
-1.48106e-10
2.95878e-10
2.47353e-08
-6.64399e-10
3.91691e-10
4.02129e-08
-7.73787e-10
3.92545e-10
4.74005e-08
-8.23191e-10
3.29151e-10
5.28896e-08
-8.60575e-10
2.21211e-10
5.70981e-08
-8.91144e-10
8.95321e-11
6.034e-08
-9.17619e-10
-5.41647e-11
6.28481e-08
-9.41043e-10
-1.99113e-10
6.47976e-08
-9.6245e-10
-3.32904e-10
6.63186e-08
-9.81902e-10
-4.56214e-10
6.75088e-08
-9.99831e-10
-5.613e-10
6.8441e-08
-1.01588e-09
-6.48885e-10
6.91699e-08
-1.03023e-09
-7.15754e-10
6.97357e-08
-1.04242e-09
-7.62929e-10
7.01686e-08
-1.05262e-09
-7.92892e-10
7.04897e-08
-1.0603e-09
-8.05028e-10
7.07149e-08
-1.0656e-09
-8.06249e-10
7.08535e-08
-1.06811e-09
-7.94956e-10
7.09116e-08
-1.06805e-09
-7.79864e-10
7.08904e-08
-1.0651e-09
-7.58416e-10
7.07883e-08
-1.0596e-09
-7.35626e-10
7.05986e-08
-1.05135e-09
-7.16375e-10
7.03114e-08
-1.04079e-09
-7.00668e-10
6.99104e-08
-1.02779e-09
-6.90617e-10
6.9374e-08
-1.01288e-09
-6.85512e-10
6.86714e-08
-9.95951e-10
-6.87698e-10
6.7762e-08
-9.77515e-10
-6.93662e-10
6.65905e-08
-9.57393e-10
-7.02453e-10
6.50839e-08
-9.35929e-10
-7.04975e-10
6.31434e-08
-9.12673e-10
-6.972e-10
6.06385e-08
-8.87536e-10
-6.70255e-10
5.73929e-08
-8.5944e-10
-6.07613e-10
5.31732e-08
-8.26986e-10
-4.98491e-10
4.76639e-08
-7.86191e-10
-3.23177e-10
4.04457e-08
-7.30341e-10
2.48511e-08
-6.14578e-10
3.85779e-10
2.52595e-08
-9.10696e-10
5.46546e-10
4.11142e-08
-1.06222e-09
6.04501e-10
4.84744e-08
-1.13127e-09
5.85909e-10
5.40902e-08
-1.18198e-09
5.15387e-10
5.83909e-08
-1.22189e-09
4.10353e-10
6.16987e-08
-1.25504e-09
2.9017e-10
6.42532e-08
-1.28388e-09
1.63569e-10
6.62339e-08
-1.30942e-09
3.96577e-11
6.77751e-08
-1.33255e-09
-7.38189e-11
6.8977e-08
-1.35338e-09
-1.77317e-10
6.9915e-08
-1.37219e-09
-2.62149e-10
7.06449e-08
-1.38872e-09
-3.32919e-10
7.12089e-08
-1.40302e-09
-3.87561e-10
7.16374e-08
-1.41472e-09
-4.2606e-10
7.19531e-08
-1.42384e-09
-4.53986e-10
7.21717e-08
-1.43003e-09
-4.68864e-10
7.23038e-08
-1.43339e-09
-4.81732e-10
7.2355e-08
-1.43363e-09
-4.86944e-10
7.23275e-08
-1.43094e-09
-4.91938e-10
7.22188e-08
-1.42515e-09
-4.98564e-10
7.20229e-08
-1.41657e-09
-5.10173e-10
7.17289e-08
-1.40512e-09
-5.31597e-10
7.13208e-08
-1.39118e-09
-5.56556e-10
7.07757e-08
-1.37473e-09
-5.92599e-10
7.00626e-08
-1.35617e-09
-6.33365e-10
6.91393e-08
-1.33544e-09
-6.80214e-10
6.79494e-08
-1.31282e-09
-7.25179e-10
6.64173e-08
-1.28802e-09
-7.6311e-10
6.44425e-08
-1.2609e-09
-7.84624e-10
6.18903e-08
-1.23057e-09
-7.75611e-10
5.85806e-08
-1.19601e-09
-7.20135e-10
5.42734e-08
-1.15453e-09
-6.03641e-10
4.86459e-08
-1.10124e-09
-3.97685e-10
4.12682e-08
-1.02757e-09
2.53253e-08
-8.71626e-10
3.55483e-10
2.58246e-08
-9.19201e-10
5.05006e-10
4.20302e-08
-1.068e-09
5.66538e-10
4.95515e-08
-1.13666e-09
5.57738e-10
5.52867e-08
-1.18775e-09
4.99098e-10
5.96743e-08
-1.2277e-09
4.16721e-10
6.30453e-08
-1.26102e-09
3.14604e-10
6.56442e-08
-1.2899e-09
2.07709e-10
6.76557e-08
-1.31567e-09
1.05148e-10
6.92171e-08
-1.3389e-09
1.1301e-11
7.04316e-08
-1.36002e-09
-7.34182e-11
7.13763e-08
-1.37901e-09
-1.37589e-10
7.2109e-08
-1.39591e-09
-1.92066e-10
7.26726e-08
-1.41046e-09
-2.34138e-10
7.3099e-08
-1.42258e-09
-2.5613e-10
7.34114e-08
-1.43198e-09
-2.74309e-10
7.3626e-08
-1.43863e-09
-2.82349e-10
7.37538e-08
-1.44227e-09
-2.84602e-10
7.38009e-08
-1.44295e-09
-2.84455e-10
7.37691e-08
-1.44054e-09
-2.88799e-10
7.36564e-08
-1.43519e-09
-2.93815e-10
7.34564e-08
-1.42686e-09
-3.06388e-10
7.31581e-08
-1.41581e-09
-3.30053e-10
7.27448e-08
-1.40209e-09
-3.6216e-10
7.21934e-08
-1.38601e-09
-4.02499e-10
7.14716e-08
-1.36764e-09
-4.52834e-10
7.05364e-08
-1.34726e-09
-5.08012e-10
6.93297e-08
-1.32481e-09
-5.64038e-10
6.77745e-08
-1.30034e-09
-6.15738e-10
6.5767e-08
-1.27339e-09
-6.52158e-10
6.317e-08
-1.24339e-09
-6.5971e-10
5.97985e-08
-1.20898e-09
-6.28249e-10
5.54076e-08
-1.16787e-09
-5.31576e-10
4.96663e-08
-1.11493e-09
-3.58581e-10
4.21358e-08
-1.04304e-09
2.58596e-08
-8.91149e-10
2.36191e-10
2.63186e-08
-7.29644e-10
3.25473e-10
4.27777e-08
-8.36956e-10
3.4899e-10
5.0416e-08
-8.8839e-10
3.26513e-10
5.6238e-08
-9.28408e-10
2.72838e-10
6.06892e-08
-9.60619e-10
1.98841e-10
6.41057e-08
-9.8812e-10
1.19695e-10
6.67369e-08
-1.01259e-09
4.10402e-11
6.87702e-08
-1.03481e-09
-3.46709e-11
7.03458e-08
-1.05529e-09
-9.63495e-11
7.15688e-08
-1.0741e-09
-1.4791e-10
7.25178e-08
-1.09129e-09
-1.8271e-10
7.32517e-08
-1.10666e-09
-2.05384e-10
7.38146e-08
-1.12009e-09
-2.14641e-10
7.4239e-08
-1.1313e-09
-2.11415e-10
7.45486e-08
-1.14016e-09
-1.99259e-10
7.47603e-08
-1.14644e-09
-1.81146e-10
7.4885e-08
-1.15006e-09
-1.58423e-10
7.49293e-08
-1.15088e-09
-1.352e-10
7.48951e-08
-1.14894e-09
-1.16379e-10
7.47802e-08
-1.14422e-09
-9.99541e-11
7.45782e-08
-1.13685e-09
-9.29733e-11
7.42778e-08
-1.12692e-09
-9.54844e-11
7.38621e-08
-1.11466e-09
-1.08715e-10
7.33073e-08
-1.10022e-09
-1.35249e-10
7.25805e-08
-1.08387e-09
-1.69252e-10
7.16379e-08
-1.06574e-09
-2.14872e-10
7.04203e-08
-1.04603e-09
-2.63992e-10
6.88489e-08
-1.02469e-09
-3.14498e-10
6.68185e-08
-1.00164e-09
-3.5634e-10
6.41891e-08
-9.76355e-10
-3.83444e-10
6.07729e-08
-9.48076e-10
-3.82444e-10
5.63207e-08
-9.15004e-10
-3.38642e-10
5.04961e-08
-8.73644e-10
-2.35393e-10
4.28536e-08
-8.19915e-10
2.63343e-08
-7.10377e-10
7.22079e-11
2.66619e-08
-4.15411e-10
6.96581e-11
4.3237e-08
-4.56596e-10
3.66819e-11
5.09294e-08
-4.79865e-10
-1.55395e-11
5.67916e-08
-5.01593e-10
-7.81392e-11
6.12717e-08
-5.20868e-10
-1.40282e-10
6.47084e-08
-5.38725e-10
-2.02499e-10
6.73528e-08
-5.55692e-10
-2.53304e-10
6.93943e-08
-5.7198e-10
-2.94344e-10
7.0974e-08
-5.87599e-10
-3.21036e-10
7.21982e-08
-6.02455e-10
-3.33311e-10
7.31463e-08
-6.16333e-10
-3.31063e-10
7.38781e-08
-6.29012e-10
-3.14023e-10
7.44379e-08
-6.40218e-10
-2.83972e-10
7.48589e-08
-6.49728e-10
-2.42465e-10
7.51651e-08
-6.57299e-10
-1.94107e-10
7.53736e-08
-6.62763e-10
-1.37311e-10
7.54958e-08
-6.65962e-10
-7.97742e-11
7.55381e-08
-6.66832e-10
-2.20737e-11
7.55025e-08
-6.65326e-10
3.24225e-11
7.53869e-08
-6.61494e-10
8.17227e-11
7.51848e-08
-6.55399e-10
1.21433e-10
7.48848e-08
-6.47209e-10
1.52595e-10
7.44696e-08
-6.37085e-10
1.68838e-10
7.39152e-08
-6.25279e-10
1.73296e-10
7.31883e-08
-6.12009e-10
1.63554e-10
7.22446e-08
-5.97559e-10
1.42557e-10
7.10242e-08
-5.82138e-10
1.09413e-10
6.94475e-08
-5.65962e-10
6.92369e-11
6.74085e-08
-5.49119e-10
2.41868e-11
6.47657e-08
-5.31603e-10
-2.00726e-11
6.133e-08
-5.13182e-10
-5.53436e-11
5.68502e-08
-4.93271e-10
-7.78836e-11
5.09876e-08
-4.70541e-10
-7.10076e-11
4.32942e-08
-4.45558e-10
2.66657e-08
-4.02704e-10
-8.94088e-11
2.6811e-08
-5.82874e-11
-1.88779e-10
4.33589e-08
-2.52439e-11
-2.80773e-10
5.10399e-08
-1.6533e-11
-3.66876e-10
5.6893e-08
-1.71935e-11
-4.38847e-10
6.13653e-08
-2.15679e-11
-4.94559e-10
6.47947e-08
-2.82206e-11
-5.3935e-10
6.74319e-08
-3.64411e-11
-5.65416e-10
6.94663e-08
-4.57063e-11
-5.74568e-10
7.10389e-08
-5.55855e-11
-5.65781e-10
7.22561e-08
-6.56647e-11
-5.41419e-10
7.31973e-08
-7.55526e-11
-5.01745e-10
7.39226e-08
-8.49063e-11
-4.47771e-10
7.44764e-08
-9.33933e-11
-3.77127e-10
7.4892e-08
-1.00729e-10
-3.01655e-10
7.51936e-08
-1.06672e-10
-2.13707e-10
7.53984e-08
-1.11012e-10
-1.22276e-10
7.55179e-08
-1.13618e-10
-2.89351e-11
7.55585e-08
-1.14392e-10
6.53884e-11
7.55224e-08
-1.13305e-10
1.54154e-10
7.54074e-08
-1.10388e-10
2.39872e-10
7.52069e-08
-1.05727e-10
3.12983e-10
7.49094e-08
-9.94741e-11
3.77747e-10
7.44978e-08
-9.18214e-11
4.27241e-10
7.39477e-08
-8.30174e-11
4.64512e-10
7.32258e-08
-7.33481e-11
4.83979e-10
7.22876e-08
-6.31345e-11
4.8684e-10
7.10732e-08
-5.2729e-11
4.75176e-10
6.9503e-08
-4.25079e-11
4.46403e-10
6.74706e-08
-3.28795e-11
4.00991e-10
6.4835e-08
-2.42781e-11
3.41365e-10
6.1407e-08
-1.71987e-11
2.68081e-10
5.69359e-08
-1.23027e-11
1.82211e-10
5.10837e-08
-1.08699e-11
9.02141e-11
4.34038e-08
-1.8208e-11
2.68072e-08
-5.00089e-11
-2.25892e-10
2.67661e-08
2.71665e-10
-4.03875e-10
4.31617e-08
3.74751e-10
-5.51526e-10
5.07734e-08
4.13191e-10
-6.63399e-10
5.65742e-08
4.3198e-10
-7.46535e-10
6.1006e-08
4.41499e-10
-8.0165e-10
6.44035e-08
4.45399e-10
-8.29226e-10
6.70152e-08
4.45491e-10
-8.35476e-10
6.90286e-08
4.42946e-10
-8.19049e-10
7.05838e-08
4.38616e-10
-7.83316e-10
7.17862e-08
4.33202e-10
-7.25755e-10
7.27149e-08
4.27243e-10
-6.54481e-10
7.34293e-08
4.21201e-10
-5.69476e-10
7.39741e-08
4.15443e-10
-4.68141e-10
7.43822e-08
4.10312e-10
-3.59083e-10
7.46778e-08
4.06047e-10
-2.41014e-10
7.48781e-08
4.02873e-10
-1.20526e-10
7.49945e-08
4.00923e-10
5.12587e-12
7.50336e-08
4.00308e-10
1.29025e-10
7.49975e-08
4.01042e-10
2.47142e-10
7.48841e-08
4.03106e-10
3.63164e-10
7.46867e-08
4.06402e-10
4.65965e-10
7.43939e-08