/*--------------------------------*- C++ -*----------------------------------*\
| =========                 |                                                 |
| \\      /  F ield         | OpenFOAM: The Open Source CFD Toolbox           |
|  \\    /   O peration     | Version:  v2006                                 |
|   \\  /    A nd           | Website:  www.openfoam.com                      |
|    \\/     M anipulation  |                                                 |
\*---------------------------------------------------------------------------*/
FoamFile
{
    version     2.0;
    format      ascii;
    class       volScalarField;
    location    "7";
    object      k;
}
// * * * * * * * * * * * * * * * * * * * * * * * * * * * * * * * * * * * * * //

dimensions      [0 2 -2 0 0 0 0];


internalField   nonuniform List<scalar> 
78750
(
0.00174298
0.00043959
0.000315369
0.000247047
0.000240059
0.000227395
0.000217777
0.000209659
0.000202688
0.000196584
0.000191195
0.000186424
0.000182152
0.000178299
0.000174807
0.000171605
0.000168638
0.000165854
0.000163198
0.000160597
0.000157959
0.000155192
0.000152157
0.000148671
0.000144566
0.00013959
0.000133406
0.00012557
0.000115504
0.000102496
8.58017e-05
6.47082e-05
3.94364e-05
1.63755e-05
7.98355e-06
8.50516e-05
0.000444194
0.00052237
0.000508782
0.000468156
0.000430067
0.0004016
0.000380597
0.000364968
0.000353137
0.000344098
0.000337557
0.00033284
0.000329573
0.00032756
0.000326445
0.000326155
0.000326665
0.000327974
0.000329872
0.000332155
0.000334634
0.000337112
0.000339422
0.000341016
0.00034122
0.00033939
0.000334619
0.000325403
0.00030918
0.000281973
0.000239107
0.000180048
0.000114977
4.74561e-05
0.0001352
0.000238654
0.000263238
0.000251432
0.000234413
0.000223053
0.00021589
0.00021133
0.000208262
0.000205924
0.000204281
0.000203387
0.000203275
0.000204152
0.000206016
0.0002088
0.000212417
0.000216775
0.000221804
0.00022736
0.000233217
0.00023925
0.000245376
0.000251433
0.000257129
0.000262105
0.000265848
0.000267537
0.000265804
0.00025842
0.000242023
0.000212955
0.000170946
0.000119471
6.09382e-05
0.000140032
0.000215314
0.000254509
0.00027468
0.000282666
0.000285157
0.000284133
0.000279789
0.000272675
0.00026412
0.000255078
0.00024617
0.00023847
0.000232921
0.000229626
0.000228456
0.000229206
0.000231628
0.000235474
0.000240574
0.000246702
0.000253602
0.000260973
0.000268452
0.000275549
0.000281689
0.000286123
0.000287809
0.000285244
0.000276231
0.000257884
0.000227936
0.000188447
0.000139252
7.31253e-05
0.000149701
0.000199655
0.000231241
0.000252716
0.000264338
0.00026527
0.000256986
0.000242284
0.000224526
0.000206931
0.000191985
0.000181193
0.000174998
0.000172106
0.000171739
0.000173569
0.000177262
0.000182533
0.000189155
0.000196943
0.000205706
0.000215189
0.000225025
0.000235307
0.000245723
0.000255051
0.000262252
0.000266079
0.000264827
0.000256419
0.000238887
0.000211775
0.000177498
0.000134258
7.60574e-05
0.000138947
0.000194645
0.000226331
0.000247318
0.000256789
0.00025331
0.000240862
0.000224128
0.000206535
0.00019012
0.000176104
0.000165313
0.000157607
0.000152158
0.000148857
0.000147878
0.000149232
0.000152816
0.000158428
0.000165802
0.000174677
0.000185116
0.000197004
0.000209597
0.000222261
0.000234177
0.000244205
0.000250828
0.000252134
0.000246002
0.00023083
0.000207012
0.000177269
0.000137104
7.49746e-05
0.000127813
0.000183268
0.000212747
0.000231256
0.000241383
0.000240642
0.000230793
0.000215218
0.000196879
0.000177742
0.000158975
0.000141431
0.000126543
0.000115417
0.000108631
0.000106867
0.000110226
0.000117882
0.000128529
0.000140838
0.000153753
0.000167027
0.0001808
0.000194506
0.00020725
0.000218433
0.000227303
0.00023265
0.00023284
0.000226257
0.00021213
0.000191356
0.000164899
0.000127072
6.85322e-05
0.000110398
0.000170883
0.000200595
0.000218216
0.000227956
0.00022719
0.0002171
0.000200613
0.000180072
0.000156645
0.000131405
0.000105509
8.11405e-05
6.11574e-05
4.77593e-05
4.09502e-05
4.00228e-05
4.45655e-05
5.44187e-05
6.99524e-05
9.065e-05
0.000113792
0.000136244
0.000156299
0.000173635
0.000188197
0.000199529
0.000206717
0.000208703
0.000204407
0.00019334
0.000176204
0.00015309
0.000117525
5.94481e-05
9.86084e-05
0.000158658
0.000189785
0.000207504
0.000217189
0.000216361
0.000203875
0.000180163
0.000146234
0.000104696
6.19541e-05
2.74655e-05
7.13977e-06
7.05667e-06
1.61635e-07
3.04729e-06
5.83161e-06
7.4609e-06
8.67802e-06
1.17746e-05
2.04772e-05
3.85258e-05
6.6911e-05
0.000101553
0.000134378
0.000159184
0.000175282
0.000184314
0.000187383
0.000184674
0.000176145
0.000162054
0.000141422
0.000107804
5.35397e-05
9.7526e-05
0.00015243
0.00018032
0.000193642
0.000195806
0.000182612
0.000152256
0.000107863
5.82135e-05
1.86938e-05
7.44229e-06
7.25807e-06
9.27969e-06
2.21275e-05
3.30279e-05
3.98055e-05
4.22506e-05
4.05611e-05
3.49776e-05
2.61249e-05
1.55395e-05
6.10501e-06
2.6135e-06
1.10971e-05
3.48872e-05
7.19154e-05
0.000111309
0.000140956
0.000156598
0.000160795
0.000156599
0.000146102
0.000129246
0.000100011
5.08578e-05
0.000103896
0.000150684
0.000174507
0.000181626
0.000172658
0.000142629
9.41111e-05
4.05139e-05
3.45256e-06
9.19885e-06
1.75455e-06
1.61418e-05
3.59234e-05
5.2319e-05
6.39167e-05
7.11696e-05
7.45838e-05
7.44477e-05
7.06726e-05
6.28666e-05
5.06628e-05
3.43407e-05
1.58248e-05
6.49902e-07
5.48722e-06
1.57338e-06
2.14088e-05
5.85076e-05
9.89199e-05
0.000126237
0.000137303
0.000135658
0.000123344
9.67293e-05
5.14628e-05
0.000112087
0.00014846
0.000164062
0.000161083
0.000137872
9.36383e-05
4.09522e-05
3.47057e-06
4.82669e-06
8.88567e-07
1.99825e-05
4.37326e-05
6.40428e-05
7.92937e-05
8.9933e-05
9.68129e-05
0.00010057
0.000101597
9.99798e-05
9.54837e-05
8.75354e-05
7.52919e-05
5.79287e-05
3.58943e-05
1.33999e-05
6.56322e-06
1.00339e-05
5.24397e-06
2.46398e-05
6.07717e-05
9.20138e-05
0.000107751
0.000107699
9.00266e-05
5.36651e-05
0.000119606
0.000147021
0.000156091
0.000145691
0.000113638
6.42181e-05
1.89289e-05
6.05342e-06
1.2503e-05
7.85597e-06
3.34417e-05
5.87671e-05
7.9304e-05
9.44723e-05
0.000105036
0.000111889
0.000115746
0.0001171
0.000116181
0.000112954
0.000107115
9.80926e-05
8.50238e-05
6.69171e-05
4.35819e-05
1.80356e-05
7.40471e-07
5.96545e-06
4.94464e-06
1.45599e-05
4.80341e-05
7.75795e-05
8.99404e-05
8.22463e-05
5.68326e-05
0.000124928
0.000144611
0.000147346
0.000130614
9.30826e-05
4.38424e-05
7.18984e-06
1.28449e-05
3.33735e-06
2.61152e-05
5.49517e-05
8.08907e-05
0.000101111
0.000115517
0.000125231
0.000131337
0.000134688
0.000135868
0.000135194
0.000132734
0.000128301
0.000121444
0.000111413
9.71755e-05
7.75533e-05
5.19991e-05
2.33801e-05
6.30553e-06
1.57945e-06
7.8043e-06
1.96586e-05
4.97856e-05
7.03123e-05
7.25662e-05
5.86564e-05
0.00012648
0.00014251
0.000142693
0.000124197
8.66491e-05
3.99949e-05
6.44999e-06
1.3625e-05
6.73271e-06
3.30586e-05
6.37683e-05
9.07558e-05
0.000111477
0.000125968
0.000135485
0.000141234
0.000144192
0.000145059
0.000144253
0.00014194
0.000138041
0.000132222
0.000123869
0.000112097
9.58412e-05
7.39125e-05
4.62014e-05
1.69012e-05
1.10668e-05
6.97706e-06
2.5552e-06
3.08217e-05
5.58406e-05
6.4794e-05
5.93162e-05
0.000123784
0.000139236
0.000138526
0.000119518
8.2468e-05
3.71979e-05
6.44007e-06
3.91438e-06
1.68347e-05
4.62681e-05
7.9273e-05
0.000107499
0.000128465
0.000142567
0.00015132
0.000156171
0.000158276
0.000158459
0.000157237
0.000154874
0.000151378
0.000146504
0.000139712
0.000130145
0.000116743
9.81381e-05
7.31438e-05
4.23269e-05
1.28411e-05
4.10472e-06
3.11618e-06
2.11268e-05
4.55004e-05
5.86588e-05
5.94262e-05
0.000117593
0.000135195
0.000136096
0.000119125
8.53715e-05
4.2944e-05
1.24716e-05
7.07749e-06
2.1518e-05
5.32719e-05
8.81989e-05
0.000117286
0.000138207
0.000151749
0.000159647
0.000163537
0.00016471
0.000164073
0.000162215
0.000159456
0.000155869
0.00015126
0.000145211
0.000136977
0.000125617
0.000109884
8.83564e-05
6.04761e-05
2.89407e-05
4.07398e-06
1.3159e-06
1.60122e-05
3.92377e-05
5.46607e-05
6.00517e-05
0.000110544
0.00012944
0.000130701
0.000113675
7.96389e-05
3.55693e-05
3.54268e-06
4.1938e-06
3.11412e-05
7.07068e-05
0.000108004
0.000136507
0.000155646
0.000167174
0.000173103
0.000175224
0.000174908
0.000173096
0.000170372
0.000167059
0.000163258
0.000158845
0.000153437
0.000146337
0.000136595
0.000123034
0.000104208
7.91727e-05
4.90384e-05
1.92787e-05
3.44114e-06
1.18703e-05
3.37418e-05
5.13553e-05
6.11789e-05
0.000105354
0.000124558
0.000125498
0.000107439
7.1788e-05
2.85403e-05
8.80034e-06
1.59236e-05
5.10522e-05
9.32491e-05
0.000128445
0.000153131
0.000168492
0.00017685
0.000180219
0.000180374
0.000178588
0.000175687
0.000172164
0.000168282
0.000164107
0.000159507
0.000154127
0.000147321
0.000138382
0.000126316
0.000109651
8.76707e-05
6.13194e-05
3.37031e-05
1.44999e-05
1.64415e-05
3.3827e-05
5.08186e-05
6.26371e-05
0.000103329
0.000119045
0.00011563
9.10248e-05
4.73598e-05
5.75637e-06
4.77571e-06
3.8413e-05
8.49135e-05
0.000126117
0.00015567
0.000174224
0.000184511
0.000188948
0.000189503
0.000187626
0.000184363
0.00018039
0.000176094
0.000171666
0.000167126
0.000162326
0.000156912
0.000150258
0.000141689
0.000130276
0.000114987
9.51705e-05
7.18471e-05
4.69337e-05
2.78181e-05
2.5665e-05
3.80099e-05
5.23066e-05
6.36023e-05
0.000104498
0.000110968
9.85592e-05
6.42942e-05
1.8856e-05
2.18708e-06
3.08879e-05
7.8114e-05
0.00012271
0.000155623
0.000176589
0.000188341
0.000193566
0.000194619
0.000192899
0.00018945
0.000185089
0.000180343
0.00017547
0.00017057
0.0001656
0.000160387
0.000154602
0.000147701
0.000139144
0.000128224
0.000114234
9.7179e-05
7.77101e-05
5.67409e-05
4.01028e-05
3.64641e-05
4.44952e-05
5.4924e-05
6.35703e-05
0.000108806
0.000101675
7.90306e-05
4.16644e-05
1.39326e-05
3.15744e-05
7.71703e-05
0.000122635
0.000157991
0.000181147
0.000194374
0.000200494
0.00020208
0.00020071
0.000197368
0.00019279
0.000187629
0.0001823
0.000176967
0.000171654
0.000166268
0.00016061
0.000154355
0.00014702
0.000138199
0.00012743
0.000114418
9.98162e-05
8.34529e-05
6.58619e-05
5.16122e-05
4.70576e-05
5.13216e-05
5.76383e-05
6.2604e-05
0.00011641
9.72579e-05
6.86318e-05
3.86415e-05
3.7911e-05
7.53874e-05
0.000120329
0.000156133
0.000181218
0.000196169
0.000203777
0.000206382
0.000205611
0.000202693
0.000198358
0.000193103
0.000187464
0.000181767
0.000176096
0.000170419
0.000164606
0.000158448
0.000151659
0.000143869
0.000134852
0.000124467
0.000112872
0.00010124
8.82582e-05
7.39519e-05
6.19669e-05
5.67182e-05
5.76737e-05
6.00942e-05
6.12368e-05
0.000126657
0.000101084
7.25119e-05
5.53614e-05
7.39292e-05
0.000115527
0.000153093
0.000179324
0.000196423
0.000206313
0.00021075
0.000211322
0.000209292
0.000205608
0.000200811
0.000195227
0.000189332
0.000183397
0.000177482
0.000171519
0.00016535
0.000158749
0.000151437
0.000143129
0.000133764
0.000123502
0.000112893
0.000103443
9.32587e-05
8.17459e-05
7.1214e-05
6.5147e-05
6.3285e-05
6.2333e-05
6.00795e-05
0.000136781
0.000111654
8.75007e-05
8.04201e-05
0.000105839
0.000143586
0.000172989
0.000191268
0.000202853
0.000209532
0.000212284
0.000212092
0.000209781
0.000206028
0.000201252
0.0001957
0.0001898
0.000183805
0.000177786
0.000171672
0.000165297
0.000158435
0.000150819
0.000142216
0.000132682
0.000122603
0.000112818
0.000105066
9.73589e-05
8.83385e-05
7.91544e-05
7.23086e-05
6.82221e-05
6.45544e-05
5.94811e-05
0.000143172
0.000124602
0.000107064
0.000104848
0.000129252
0.000161461
0.000184669
0.000197392
0.000204642
0.000209387
0.000211718
0.000211854
0.000210126
0.00020694
0.000202624
0.000197398
0.000191675
0.000185745
0.00017972
0.000173547
0.000167065
0.000160042
0.000152204
0.000143326
0.000133502
0.000123244
0.000113569
0.00010644
0.000100539
9.3585e-05
8.56027e-05
7.83243e-05
7.26422e-05
6.69168e-05
5.95571e-05
0.000143091
0.000135662
0.000125851
0.000126059
0.000145765
0.00017208
0.000190241
0.000198379
0.000201405
0.000204166
0.000206648
0.000207886
0.000207486
0.000205487
0.000202109
0.000197547
0.000192245
0.000186569
0.000180689
0.000174601
0.000168176
0.000161198
0.000153392
0.000144509
0.000134612
0.00012422
0.000114394
0.000107221
0.000102582
9.73694e-05
9.05976e-05
8.3277e-05
7.6642e-05
6.95032e-05
6.03148e-05
0.000137321
0.000142395
0.000141102
0.000144092
0.000158953
0.000179196
0.000192906
0.000197487
0.000197072
0.000197432
0.000200166
0.00020287
0.000204228
0.000203813
0.000201694
0.00019803
0.000193304
0.000187983
0.000182306
0.000176339
0.000169991
0.000163073
0.000155322
0.00014647
0.00013653
0.00012597
0.000115771
0.00010798
0.000103984
0.000100111
9.45205e-05
8.7475e-05
8.0401e-05
7.23873e-05
6.17202e-05
0.000129474
0.000144905
0.000152232
0.000158817
0.000170532
0.000184961
0.000194397
0.000195829
0.000192454
0.000189894
0.000192082
0.00019594
0.000199028
0.00020032
0.000199623
0.000197027
0.00019302
0.000188168
0.000182787
0.000177019
0.00017082
0.000164036
0.000156429
0.000147728
0.000137902
0.000127376
0.000117013
0.000108693
0.000105004
0.000102178
9.77347e-05
9.12126e-05
8.4077e-05
7.55985e-05
6.37693e-05
0.000122531
0.000145219
0.000159931
0.000170002
0.000180303
0.000190186
0.000195605
0.000194096
0.000188441
0.000183785
0.000184857
0.000189555
0.000194163
0.000197029
0.000197698
0.000196165
0.00019289
0.000188509
0.00018342
0.000177831
0.000171742
0.000165031
0.000157488
0.000148858
0.00013908
0.000128577
0.000118141
0.000109537
0.000105879
0.000103886
0.000100553
9.47458e-05
8.78184e-05
7.91886e-05
6.65235e-05
0.000117315
0.000144893
0.000165186
0.000178082
0.000187983
0.000194872
0.000196524
0.000192229
0.000184735
0.000178695
0.000178481
0.000183567
0.000189207
0.000193257
0.000195032
0.000194419
0.000191812
0.00018788
0.000183076
0.000177667
0.000171689
0.000165048
0.000157564
0.000148995
0.000139286
0.000128871
0.000118523
0.000109993
0.000106545
0.000105383
0.000103162
9.82106e-05
9.16796e-05
8.31415e-05
7.00263e-05
0.000113656
0.000144606
0.000168792
0.000183699
0.000193419
0.000198151
0.000196593
0.000189887
0.000181098
0.000174411
0.000173494
0.000178887
0.000185265
0.000190196
0.000192832
0.000192958
0.000190902
0.000187338
0.000182761
0.000177477
0.000171548
0.000164902
0.000157379
0.000148752
0.000139
0.000128588
0.000118321
0.000109996
0.000107003
0.000106724
0.000105639
0.000101665
9.56845e-05
8.74502e-05
7.43107e-05
0.000111042
0.000144344
0.000171054
0.000187161
0.000196505
0.000199459
0.000195325
0.000186837
0.000177433
0.000170733
0.00016965
0.000175224
0.000181993
0.000187438
0.000190614
0.00019122
0.000189535
0.000186222
0.000181795
0.00017658
0.000170655
0.000163962
0.000156361
0.000147635
0.000137822
0.000127431
0.000117343
0.000109467
0.000107264
0.000107961
0.000108029
0.00010511
9.97962e-05
9.20407e-05
7.93098e-05
0.00010906
0.000143791
0.000171933
0.000188484
0.000197134
0.000198492
0.000192457
0.000183016
0.000173742
0.000167557
0.000166852
0.000172631
0.00017964
0.000185395
0.000188907
0.000189803
0.000188337
0.000185163
0.000180804
0.00017559
0.000169603
0.000162789
0.000155027
0.000146108
0.000136155
0.000125734
0.000115856
0.000108648
0.000107401
0.000109096
0.000110301
0.000108474
0.000103917
9.67824e-05
8.48759e-05
0.000107439
0.000142676
0.000171278
0.00018761
0.000195326
0.000195326
0.000188221
0.000178765
0.000170247
0.000164855
0.000164854
0.00017086
0.000177985
0.000183855
0.000187476
0.000188434
0.000187001
0.000183827
0.000179436
0.000174146
0.000168029
0.000161032
0.000153055
0.000143902
0.000133807
0.000123405
0.000113874
0.000107715
0.000107531
0.0001102
0.000112444
0.000111646
0.000107874
0.00010146
9.07418e-05
0.000106098
0.000141008
0.000169209
0.000184795
0.000191509
0.000190547
0.000183282
0.000174602
0.00016716
0.000162613
0.000163554
0.000169879
0.000177088
0.000182948
0.000186506
0.000187348
0.000185799
0.000182513
0.000178008
0.000172573
0.000166261
0.000159016
0.000150754
0.000141312
0.000131059
0.000120712
0.00011165
0.000106841
0.000107759
0.000111355
0.000114505
0.000114605
0.000111587
0.000105947
9.66045e-05
0.000105041
0.000139039
0.000166189
0.000180725
0.000186562
0.000185155
0.000178533
0.000171056
0.000164671
0.000160899
0.000162938
0.000169641
0.000176863
0.00018255
0.000185846
0.000186382
0.000184566
0.000181058
0.000176356
0.000170706
0.000164135
0.000156582
0.000147983
0.000138237
0.000127866
0.000117701
0.000109341
0.00010615
0.000108227
0.000112697
0.000116638
0.000117513
0.000115232
0.000110222
0.000102133
0.000104307
0.000137179
0.00016296
0.000176392
0.000181608
0.000180232
0.000174705
0.000168412
0.000162852
0.000159819
0.00016307
0.000170148
0.000177273
0.000182618
0.00018548
0.000185567
0.000183384
0.00017958
0.000174628
0.000168712
0.000161829
0.000153921
0.000144932
0.000134877
0.000124432
0.00011459
0.000107228
0.000105789
0.000109003
0.000114248
0.000118885
0.000120544
0.000118899
0.00011416
0.00010701
0.000103901
0.000135779
0.000160213
0.000172702
0.000177581
0.000176544
0.000172157
0.000166742
0.000161767
0.000159568
0.000164002
0.000171315
0.000178151
0.000182967
0.000185241
0.000184773
0.000182154
0.000178012
0.000172765
0.00016654
0.000159302
0.000151
0.000141592
0.000131257
0.000120814
0.000111489
0.000105556
0.000105864
0.000110145
0.000116035
0.000121199
0.000123576
0.000122332
0.000117564
0.000110973
0.000103803
0.000135064
0.000158412
0.000170228
0.00017501
0.000174428
0.000170922
0.000166005
0.000161474
0.000160315
0.000165666
0.00017296
0.000179301
0.000183445
0.000185041
0.000183981
0.000180912
0.000176427
0.000170868
0.000164312
0.000156694
0.000147977
0.00013815
0.000127561
0.000117197
0.000108549
0.000104425
0.000106325
0.00011159
0.000118051
0.000123633
0.000126489
0.000125393
0.000120313
0.000113895
0.000103956
0.000135093
0.000157728
0.000169156
0.000174009
0.000173938
0.0001709
0.000166187
0.000162024
0.000162021
0.000167835
0.000174819
0.000180492
0.000183881
0.000184772
0.00018314
0.00017964
0.000174823
0.000168951
0.000162055
0.000154048
0.00014491
0.000134682
0.00012389
0.000113695
0.000105867
0.000103697
0.00010708
0.00011326
0.000120234
0.000126239
0.000129203
0.000127984
0.00012235
0.000115778
0.000104323
0.000135814
0.00015811
0.000169394
0.000174395
0.000174763
0.000171918
0.000167252
0.000163359
0.000164309
0.000170183
0.000176626
0.000181544
0.00018419
0.000184428
0.000182283
0.000178401
0.000173283
0.000167117
0.000159893
0.000151507
0.000141961
0.000131357
0.000120401
0.00011044
0.000103514
0.000103229
0.000107967
0.00011497
0.000122378
0.000128684
0.000131542
0.000130006
0.000123669
0.000116735
0.000104877
0.00013713
0.000159415
0.000170756
0.000175965
0.000176681
0.000173897
0.00016917
0.000165357
0.000166838
0.000172427
0.000178185
0.000182353
0.000184333
0.000184008
0.000181429
0.000177224
0.000171846
0.000165415
0.000157888
0.000149152
0.000139227
0.000128286
0.000117204
0.000107522
0.000101541
0.000102915
0.000108812
0.000116531
0.000124291
0.000130755
0.000133367
0.000131397
0.000124317
0.000116947
0.000105609
0.000138963
0.000161525
0.000173096
0.000178577
0.000179578
0.000176749
0.000171804
0.000167776
0.000169308
0.000174352
0.000179388
0.000182889
0.000184323
0.000183549
0.00018063
0.000176174
0.00017058
0.000163927
0.000156137
0.000147095
0.000136834
0.000125595
0.000114402
0.000104989
9.99529e-05
0.000102577
0.00010939
0.000117713
0.000125759
0.000132273
0.000134572
0.000132133
0.000124375
0.000116626
0.000106514
0.000141252
0.000164361
0.000176322
0.000182149
0.000183367
0.000180386
0.000174997
0.000170411
0.000171534
0.00017587
0.000180222
0.000183174
0.000184191
0.000183083
0.000179912
0.000175274
0.000169514
0.000162683
0.000154681
0.000145387
0.000134844
0.000123355
0.000112054
0.000102841
9.86067e-05
0.000102057
0.000109545
0.000118351
0.000126624
0.000133124
0.000135107
0.000132232
0.000123944
0.00011597
0.000107592
0.000143961
0.000167875
0.000180366
0.000186581
0.000187936
0.000184634
0.00017852
0.000173043
0.000173379
0.000176941
0.000180703
0.000183242
0.000183967
0.000182636
0.000179299
0.000174541
0.000168669
0.00016171
0.000153552
0.000144062
0.000133295
0.000121594
0.000110175
0.000101048
9.7318e-05
0.000101261
0.000109189
0.000118353
0.000126841
0.000133255
0.000134961
0.000131744
0.000123128
0.000115136
0.000108838
0.000147036
0.000171995
0.000185126
0.000191742
0.000193126
0.00018929
0.000182191
0.000175567
0.000174848
0.00017764
0.000180916
0.000183155
0.000183691
0.000182229
0.000178795
0.000173974
0.000168037
0.000161
0.000152741
0.000143114
0.000132177
0.000120303
0.000108751
9.9597e-05
9.60625e-05
0.000100211
0.00010835
0.000117717
0.000126339
0.000132666
0.000134173
0.000130742
0.00012202
0.000114226
0.00011026
0.000150431
0.000176644
0.000190481
0.000197477
0.000198724
0.000194149
0.000185865
0.000177929
0.000175976
0.000178029
0.000180907
0.000182939
0.000183369
0.000181855
0.000178388
0.000173551
0.000167595
0.000160526
0.000152217
0.000142505
0.000131448
0.00011943
0.000107726
9.84425e-05
9.48376e-05
9.896e-05
0.000107106
0.000116519
0.000125173
0.000131421
0.000132815
0.00012931
0.000120692
0.00011328
0.000111877
0.000154098
0.000181716
0.000196285
0.000203594
0.000204541
0.000199079
0.000189508
0.000180178
0.00017688
0.000178224
0.000180762
0.000182643
0.000183023
0.000181517
0.000178065
0.000173251
0.000167316
0.000160253
0.000151939
0.000142189
0.000131053
0.000118914
0.000107043
9.75428e-05
9.36567e-05
9.75774e-05
0.000105572
0.000114891
0.000123473
0.000129642
0.000130994
0.000127538
0.000119196
0.000112301
0.000113707
0.000157994
0.000187113
0.000202399
0.000209934
0.000210446
0.000204015
0.000193124
0.000182372
0.000177645
0.000178289
0.000180511
0.000182272
0.000182642
0.00018119
0.000177797
0.000173042
0.00016716
0.000160139
0.000151858
0.00014211
0.000130931
0.00011869
0.000106635
9.68504e-05
9.25203e-05
9.61068e-05
0.000103837
0.000112959
0.000121381
0.000127459
0.00012882
0.00012551
0.00011757
0.000111275
0.000115766
0.000162087
0.000192753
0.000208711
0.000216387
0.000216371
0.000208956
0.00019678
0.000184619
0.000178399
0.000178321
0.000180212
0.000181853
0.000182231
0.000180867
0.000177568
0.0001729
0.0001671
0.000160149
0.000151934
0.000142222
0.000131026
0.000118695
0.000106443
9.63226e-05
9.14326e-05
9.45836e-05
0.000101979
0.000110842
0.000119044
0.000125007
0.000126403
0.0001233
0.000115844
0.000110177
0.00011807
0.000166378
0.000198604
0.000215184
0.000222933
0.000222334
0.000213969
0.000200566
0.000187015
0.000179221
0.000178355
0.000179863
0.000181369
0.000181767
0.000180518
0.000177356
0.000172803
0.000167112
0.000160257
0.000152138
0.000142495
0.000131305
0.000118895
0.000106429
9.59277e-05
9.03881e-05
9.30046e-05
0.000100019
0.000108604
0.000116569
0.000122391
0.000123834
0.000120972
0.00011404
0.000108992
0.000120603
0.000170874
0.000204642
0.000221814
0.000229605
0.000228418
0.000219158
0.000204593
0.000189671
0.000180211
0.000178437
0.000179477
0.000180819
0.000181248
0.000180141
0.000177152
0.000172742
0.000167184
0.000160451
0.000152452
0.000142907
0.000131752
0.000119276
0.000106584
9.56645e-05
8.941e-05
9.1369e-05
9.79631e-05
0.000106273
0.000114025
0.000119684
0.00012118
0.000118575
0.000112176
0.000107712
0.000123296
0.000175512
0.000210817
0.000228593
0.000236468
0.0002348
0.000224636
0.000208948
0.000192656
0.000181408
0.000178539
0.000179002
0.000180154
0.000180636
0.000179711
0.000176935
0.000172699
0.000167304
0.000160726
0.000152864
0.000143449
0.000132361
0.000119843
0.000106922
9.55519e-05
8.85422e-05
8.96749e-05
9.57975e-05
0.000103844
0.000111416
0.000116927
0.000118491
0.000116149
0.000110276
0.000106349
0.000126051
0.000180177
0.000217048
0.00023547
0.000243495
0.000241518
0.000230428
0.000213671
0.000196017
0.000182884
0.000178656
0.000178423
0.000179366
0.000179926
0.000179226
0.000176705
0.000172673
0.000167469
0.000161069
0.000153367
0.000144112
0.00013313
0.000120604
0.000107469
9.56275e-05
8.78369e-05
8.79552e-05
9.35345e-05
0.000101314
0.000108741
0.000114138
0.000115797
0.000113726
0.000108368
0.000104938
0.000128731
0.000184762
0.000223255
0.000242387
0.000250637
0.000248476
0.000236536
0.000218761
0.000199728
0.000184663
0.000178712
0.000177672
0.000178409
0.000179085
0.000178659
0.000176437
0.000172643
0.000167658
0.000161457
0.000153938
0.000144876
0.000134042
0.000121557
0.000108244
9.59341e-05
8.73251e-05
8.62753e-05
9.12187e-05
9.86975e-05
0.000106002
0.000111328
0.000113118
0.000111332
0.00010648
0.000103523
0.000131205
0.000189164
0.000229349
0.000249276
0.000257834
0.000255612
0.000242904
0.000224129
0.000203661
0.000186654
0.000178659
0.000176752
0.000177299
0.000178132
0.000178018
0.000176129
0.000172598
0.000167849
0.000161863
0.000154546
0.000145701
0.000135054
0.000122663
0.000109231
9.64933e-05
8.70587e-05
8.47419e-05
8.89481e-05
9.60609e-05
0.000103238
0.000108526
0.00011048
0.000108995
0.000104645
0.000102149
0.000133398
0.000193328
0.000235285
0.0002561
0.000265042
0.000262857
0.000249433
0.000229644
0.000207657
0.00018865
0.00017846
0.000175664
0.000176041
0.000177065
0.000177289
0.000175764
0.00017252
0.000168019
0.00016226
0.000155157
0.000146546
0.000136114
0.000123861
0.000110371
9.72739e-05
8.70575e-05
8.34449e-05
8.68347e-05
9.35019e-05
0.000100517
0.000105777
0.000107917
0.000106744
0.000102889
0.000100845
0.000135301
0.000197223
0.000241009
0.000262794
0.000272182
0.000270113
0.000256005
0.000235153
0.000211566
0.000190538
0.000178137
0.000174468
0.000174692
0.000175918
0.000176493
0.000175348
0.000172403
0.000168154
0.000162626
0.000155741
0.000147366
0.000137162
0.000125081
0.000111589
9.82115e-05
8.72979e-05
8.24326e-05
8.49701e-05
9.11249e-05
9.79293e-05
0.000103153
0.000105473
0.000104606
0.000101229
9.96174e-05
0.000136987
0.000200882
0.000246515
0.000269325
0.00027919
0.000277295
0.000262587
0.000240491
0.000215237
0.000192254
0.000177741
0.00017324
0.000173316
0.000174735
0.000175651
0.000174882
0.00017224
0.000168239
0.000162942
0.000156282
0.000148126
0.000138147
0.000126253
0.000112803
9.92212e-05
8.77194e-05
8.17037e-05
8.33975e-05
8.90042e-05
9.55544e-05
0.000100724
0.000103188
0.000102603
9.96704e-05
9.84528e-05
0.000138557
0.000204345
0.000251772
0.0002756
0.000285914
0.000284172
0.000268941
0.000245434
0.000218552
0.000193791
0.000177358
0.000172072
0.000171985
0.000173563
0.000174791
0.000174381
0.000172033
0.000168271
0.000163196
0.000156755
0.000148799
0.000139036
0.000127323
0.000113942
0.00010022
8.82435e-05
8.1221e-05
8.21113e-05
8.71709e-05
9.34426e-05
9.85511e-05
0.000101095
0.000100752
9.82136e-05
9.73286e-05
0.000140117
0.000207678
0.000256794
0.000281579
0.000292262
0.000290586
0.000274792
0.000249865
0.000221481
0.000195187
0.000177083
0.000171034
0.000170746
0.000172434
0.00017393
0.000173851
0.000171782
0.000168248
0.000163382
0.000157143
0.000149372
0.000139808
0.000128264
0.000114964
0.000101142
8.8789e-05
8.09217e-05
8.10581e-05
8.56031e-05
9.1597e-05
9.66294e-05
9.92048e-05
9.90571e-05
9.68497e-05
9.62193e-05
0.000141719
0.000210907
0.000261571
0.000287213
0.000298166
0.000296451
0.000280054
0.000253769
0.000224068
0.000196521
0.000177026
0.000170174
0.000169619
0.000171359
0.000173078
0.000173298
0.000171493
0.000168176
0.000163509
0.000157457
0.000149858
0.000140477
0.00012909
0.000115869
0.00010197
8.9311e-05
8.07578e-05
8.0167e-05
8.42462e-05
8.99878e-05
9.49351e-05
9.75123e-05
9.75129e-05
9.55688e-05
9.51098e-05
0.000143361
0.000214042
0.000266108
0.000292502
0.000303632
0.000301794
0.000284785
0.000257246
0.00022642
0.000197864
0.000177248
0.000169472
0.000168576
0.000170315
0.000172219
0.000172714
0.000171164
0.000168056
0.000163579
0.000157703
0.000150262
0.00014105
0.000129808
0.000116664
0.0001027
8.97811e-05
8.0683e-05
7.93656e-05
8.3029e-05
8.85592e-05
9.34328e-05
9.5999e-05
9.61076e-05
9.43632e-05
9.4001e-05
0.000144976
0.000217038
0.00027038
0.000297434
0.000308675
0.000306666
0.000289078
0.000260423
0.000228663
0.000199273
0.000177703
0.000168881
0.000167579
0.000169279
0.000171345
0.000172101
0.000170803
0.000167903
0.000163611
0.000157902
0.000150611
0.000141558
0.000130454
0.000117383
0.000103359
9.02029e-05
8.06367e-05
7.8607e-05
8.18927e-05
8.72491e-05
9.20725e-05
9.46324e-05
9.48223e-05
9.3227e-05
9.29041e-05
0.000146484
0.000219843
0.000274368
0.000302025
0.000313347
0.000311169
0.000293082
0.000263469
0.000230927
0.000200774
0.000178257
0.000168309
0.000166559
0.000168208
0.000170437
0.000171447
0.000170409
0.000167718
0.000163609
0.00015806
0.000150913
0.000142014
0.000131045
0.000118051
0.000103977
9.05998e-05
8.05963e-05
7.78775e-05
8.08056e-05
8.60134e-05
9.08131e-05
9.33857e-05
9.36441e-05
9.21629e-05
9.1844e-05
0.000147807
0.000222403
0.000278049
0.000306283
0.000317693
0.000315393
0.000296921
0.000266495
0.000233261
0.000202328
0.000178817
0.000167706
0.000165498
0.000167107
0.000169507
0.000170774
0.000169996
0.000167511
0.000163583
0.000158189
0.000151181
0.000142431
0.000131597
0.000118683
0.000104573
9.09921e-05
8.0574e-05
7.71865e-05
7.97607e-05
8.48282e-05
8.96228e-05
9.22351e-05
9.2559e-05
9.11711e-05
9.084e-05
0.000148901
0.000224691
0.000281418
0.000310234
0.000321768
0.000319428
0.000300723
0.000269659
0.000235685
0.000203879
0.000179309
0.000167023
0.000164373
0.000165964
0.00016855
0.000170079
0.00016956
0.000167281
0.00016353
0.000158289
0.000151425
0.000142816
0.000132116
0.000119293
0.000105162
9.13992e-05
8.05894e-05
7.65545e-05
7.87732e-05
8.3697e-05
8.84946e-05
9.11743e-05
9.15635e-05
9.02576e-05
8.99142e-05
0.000149754
0.000226691
0.000284472
0.000313886
0.000325588
0.000323282
0.00030446
0.000272894
0.000238046
0.000205278
0.000179632
0.00016623
0.0001632
0.000164813
0.0001676
0.000169389
0.000169121
0.000167037
0.000163455
0.000158361
0.000151638
0.000143156
0.000132589
0.000119862
0.00010573
9.18167e-05
8.06497e-05
7.59993e-05
7.78623e-05
8.26323e-05
8.74293e-05
9.01889e-05
9.0655e-05
8.9424e-05
8.90776e-05
0.000150425
0.000228448
0.000287238
0.000317248
0.000329137
0.000326896
0.000307997
0.000275944
0.000240166
0.00020641
0.000179755
0.00016537
0.000162042
0.000163707
0.000166689
0.000168718
0.000168683
0.000166783
0.000163358
0.000158402
0.000151811
0.000143449
0.000133007
0.000120377
0.000106259
9.22255e-05
8.07464e-05
7.55326e-05
7.7053e-05
8.16613e-05
8.64458e-05
8.92808e-05
8.98278e-05
8.86697e-05
8.83302e-05
0.000150978
0.000230005