/*--------------------------------*- C++ -*----------------------------------*\
| =========                 |                                                 |
| \\      /  F ield         | OpenFOAM: The Open Source CFD Toolbox           |
|  \\    /   O peration     | Version:  v2006                                 |
|   \\  /    A nd           | Website:  www.openfoam.com                      |
|    \\/     M anipulation  |                                                 |
\*---------------------------------------------------------------------------*/
FoamFile
{
    version     2.0;
    format      ascii;
    class       volScalarField;
    location    "7";
    object      T;
}
// * * * * * * * * * * * * * * * * * * * * * * * * * * * * * * * * * * * * * //

dimensions      [0 0 0 1 0 0 0];


internalField   nonuniform List<scalar> 
78750
(
296.053
293.765
294.299
294.169
294.152
294.142
294.135
294.13
294.126
294.123
294.12
294.117
294.114
294.112
294.109
294.107
294.105
294.103
294.101
294.099
294.096
294.094
294.092
294.089
294.087
294.084
294.081
294.077
294.074
294.069
294.065
294.076
294.202
294.702
295.702
298.176
295.797
294.799
294.444
294.299
294.24
294.214
294.199
294.189
294.181
294.175
294.169
294.164
294.16
294.156
294.153
294.15
294.147
294.145
294.142
294.14
294.137
294.134
294.131
294.127
294.121
294.114
294.105
294.094
294.083
294.08
294.116
294.275
294.707
295.579
298.517
296.273
294.996
294.42
294.229
294.177
294.16
294.152
294.147
294.144
294.14
294.137
294.134
294.131
294.129
294.127
294.125
294.124
294.124
294.124
294.124
294.126
294.128
294.131
294.135
294.142
294.151
294.166
294.191
294.233
294.311
294.458
294.734
295.249
296.158
298.462
296.342
295.145
294.5
294.238
294.165
294.158
294.166
294.171
294.172
294.169
294.163
294.157
294.151
294.146
294.141
294.137
294.134
294.131
294.129
294.128
294.127
294.126
294.126
294.126
294.127
294.13
294.137
294.154
294.191
294.27
294.428
294.712
295.222
296.138
298.843
297.044
295.95
295.262
294.834
294.583
294.43
294.329
294.257
294.205
294.167
294.142
294.128
294.119
294.114
294.111
294.111
294.113
294.117
294.122
294.128
294.135
294.144
294.155
294.169
294.187
294.212
294.247
294.301
294.384
294.519
294.733
295.061
295.612
296.556
298.897
297.13
296.044
295.317
294.815
294.515
294.346
294.25
294.194
294.16
294.138
294.125
294.117
294.11
294.105
294.102
294.101
294.101
294.102
294.105
294.109
294.115
294.123
294.133
294.146
294.165
294.192
294.233
294.297
294.397
294.554
294.79
295.128
295.682
296.649
299.075
297.473
296.466
295.77
295.229
294.854
294.609
294.45
294.345
294.272
294.218
294.176
294.143
294.117
294.098
294.087
294.084
294.088
294.098
294.111
294.127
294.144
294.165
294.189
294.219
294.256
294.305
294.373
294.469
294.605
294.798
295.061
295.427
296.018
296.999
299.143
297.629
296.689
296.027
295.469
295.048
294.759
294.567
294.437
294.342
294.266
294.201
294.145
294.1
294.068
294.049
294.04
294.041
294.05
294.069
294.095
294.128
294.164
294.202
294.244
294.295
294.36
294.446
294.563
294.723
294.936
295.215
295.591
296.193
297.186
299.231
297.855
296.968
296.343
295.81
295.373
295.038
294.78
294.572
294.398
294.254
294.148
294.082
294.048
294.036
294.033
294.032
294.032
294.033
294.037
294.051
294.081
294.132
294.203
294.286
294.374
294.469
294.583
294.726
294.909
295.142
295.435
295.828
296.453
297.456
299.24
297.894
297.032
296.409
295.848
295.364
294.97
294.655
294.409
294.235
294.137
294.099
294.094
294.103
294.114
294.121
294.124
294.122
294.116
294.106
294.095
294.089
294.095
294.126
294.192
294.298
294.436
294.596
294.776
294.99
295.253
295.57
295.973
296.598
297.605
299.264
297.95
297.073
296.425
295.829
295.291
294.842
294.499
294.273
294.161
294.128
294.132
294.148
294.164
294.175
294.182
294.185
294.185
294.181
294.173
294.162
294.147
294.132
294.125
294.137
294.187
294.295
294.472
294.706
294.978
295.282
295.631
296.066
296.718
297.726
299.264
297.941
297.035
296.343
295.692
295.115
294.668
294.373
294.225
294.177
294.178
294.193
294.209
294.221
294.229
294.234
294.237
294.237
294.236
294.232
294.225
294.215
294.201
294.184
294.169
294.168
294.203
294.302
294.493
294.779
295.134
295.538
296.02
296.709
297.727
299.281
297.97
297.036
296.308
295.626
295.035
294.606
294.358
294.252
294.226
294.231
294.243
294.254
294.261
294.266
294.269
294.27
294.271
294.27
294.267
294.264
294.258
294.249
294.237
294.22
294.204
294.201
294.238
294.353
294.589
294.953
295.409
295.951
296.688
297.72
299.294
297.991
297.038
296.285
295.583
294.998
294.604
294.395
294.313
294.291
294.291
294.297
294.301
294.305
294.306
294.307
294.306
294.306
294.305
294.303
294.302
294.299
294.294
294.287
294.276
294.262
294.249
294.254
294.313
294.48
294.802
295.277
295.865
296.637
297.686
299.326
298.06
297.105
296.347
295.651
295.077
294.695
294.491
294.398
294.362
294.348
294.342
294.34
294.338
294.336
294.333
294.331
294.33
294.328
294.328
294.327
294.327
294.326
294.323
294.318
294.309
294.299
294.297
294.332
294.457
294.739
295.211
295.827
296.628
297.691
299.358
298.14
297.195
296.446
295.765
295.199
294.819
294.603
294.491
294.433
294.404
294.388
294.379
294.372
294.366
294.361
294.358
294.355
294.353
294.353
294.354
294.356
294.358
294.36
294.359
294.356
294.35
294.349
294.374
294.473
294.719
295.173
295.801
296.623
297.702
299.395
298.24
297.319
296.591
295.937
295.377
294.983
294.735
294.586
294.5
294.453
294.426
294.41
294.399
294.39
294.382
294.377
294.373
294.371
294.372
294.375
294.379
294.384
294.39
294.395
294.397
294.397
294.4
294.424
294.512
294.74
295.18
295.816
296.658
297.751
299.419
298.314
297.421
296.713
296.077
295.518
295.104
294.822
294.644
294.542
294.487
294.457
294.437
294.423
294.411
294.402
294.395
294.391
294.39
294.391
294.396
294.403
294.413
294.423
294.433
294.441
294.447
294.454
294.479
294.561
294.774
295.201
295.844
296.702
297.804
299.433
298.361
297.493
296.797
296.165
295.595
295.154
294.848
294.662
294.562
294.51
294.48
294.459
294.442
294.428
294.416
294.409
294.405
294.404
294.408
294.416
294.427
294.441
294.456
294.472
294.487
294.5
294.515
294.547
294.634
294.847
295.272
295.913
296.775
297.879
299.43
298.368
297.513
296.804
296.137
295.539
295.085
294.797
294.642
294.566
294.526
294.499
294.477
294.457
294.441
294.429
294.421
294.418
294.42
294.426
294.437
294.453
294.472
294.494
294.517
294.539
294.56
294.585
294.628
294.727
294.95
295.377
296.01
296.859
297.961
299.413
298.334
297.472
296.72
295.986
295.371
294.958
294.735
294.631
294.579
294.546
294.518
294.492
294.469
294.451
294.438
294.431
294.429
294.433
294.443
294.458
294.48
294.506
294.536
294.567
294.599
294.631
294.67
294.732
294.852
295.095
295.529
296.147
296.975
298.069
299.372
298.23
297.32
296.502
295.722
295.16
294.848
294.707
294.643
294.604
294.57
294.537
294.506
294.48
294.461
294.447
294.44
294.44
294.446
294.459
294.48
294.507
294.541
294.579
294.62
294.663
294.71
294.766
294.849
294.995
295.26
295.698
296.298
297.105
298.187
299.318
298.083
297.089
296.214
295.469
295.021
294.813
294.727
294.68
294.64
294.599
294.559
294.523
294.493
294.47
294.455
294.448
294.449
294.457
294.473
294.498
294.531
294.573
294.621
294.674
294.731
294.794
294.872
294.981
295.154
295.439
295.876
296.458
297.247
298.315
299.268
297.938
296.868
295.981
295.323
294.984
294.843
294.78
294.734
294.687
294.636
294.587
294.543
294.508
294.482
294.464
294.456
294.456
294.464
294.482
294.51
294.548
294.597
294.653
294.718
294.79
294.872
294.972
295.106
295.305
295.607
296.041
296.607
297.38
298.436
299.246
297.858
296.764
295.907
295.319
295.038
294.922
294.861
294.807
294.748
294.686
294.625
294.572
294.528
294.496
294.475
294.463
294.461
294.468
294.486
294.515
294.557
294.61
294.674
294.75
294.836
294.936
295.058
295.216
295.438
295.756
296.188
296.742
297.503
298.551
299.261
297.867
296.806
295.995
295.43
295.156
295.035
294.966
294.9
294.827
294.75
294.676
294.609
294.556
294.515
294.487
294.471
294.465
294.47
294.485
294.514
294.555
294.611
294.68
294.763
294.861
294.976
295.117
295.297
295.54
295.873
296.311
296.857
297.609
298.653
299.311
297.975
296.969
296.2
295.634
295.333
295.187
295.098
295.016
294.926
294.831
294.739
294.657
294.59
294.539
294.503
294.48
294.47
294.471
294.483
294.509
294.55
294.605
294.677
294.764
294.869
294.996
295.151
295.35
295.612
295.963
296.412
296.958
297.703
298.749
299.378
298.151
297.192
296.458
295.898
295.56
295.374
295.254
295.149
295.039
294.924
294.812
294.712
294.629
294.566
294.521
294.491
294.475
294.472
294.481
294.503
294.541
294.596
294.667
294.756
294.865
294.998
295.164
295.376
295.655
296.024
296.49
297.042
297.785
298.839
299.442
298.332
297.421
296.731
296.194
295.82
295.589
295.432
295.297
295.161
295.022
294.889
294.77
294.671
294.595
294.54
294.503
294.482
294.474
294.48
294.499
294.535
294.587
294.658
294.748
294.858
294.995
295.166
295.388
295.681
296.068
296.556
297.118
297.864
298.93
299.493
298.483
297.624
296.983
296.478
296.083
295.811
295.614
295.445
295.281
295.117
294.961
294.823
294.709
294.621
294.557
294.514
294.488
294.477
294.48
294.497
294.53
294.58
294.65
294.741
294.853
294.992
295.167
295.394
295.697
296.101
296.611
297.189
297.943
299.025
299.532
298.603
297.795
297.199
296.725
296.325
296.022
295.789
295.586
295.392
295.202
295.024
294.869
294.742
294.643
294.572
294.523
294.494
294.48
294.481
294.496
294.528
294.578
294.648
294.739
294.854
294.995
295.173
295.405
295.716
296.134
296.666
297.261
298.029
299.129
299.564
298.698
297.939
297.377
296.93
296.534
296.21
295.945
295.709
295.484
295.269
295.071
294.901
294.763
294.658
294.581
294.529
294.498
294.483
294.482
294.497
294.528
294.579
294.65
294.744
294.861
295.005
295.187
295.423
295.741
296.172
296.724
297.338
298.124
299.243
299.589
298.775
298.058
297.524
297.097
296.708
296.369
296.076
295.809
295.555
295.315
295.101
294.92
294.775
294.665
294.585
294.532
294.5
294.484
294.484
294.499
294.532
294.584
294.658
294.755
294.876
295.025
295.212
295.454
295.779
296.221
296.791
297.424
298.231
299.369
299.609
298.838
298.157
297.646
297.234
296.849
296.496
296.176
295.879
295.597
295.338
295.111
294.923
294.775
294.664
294.584
294.531
294.499
294.485
294.486
294.503
294.538
294.593
294.671
294.772
294.899
295.054
295.248
295.496
295.83
296.284
296.868
297.52
298.349
299.503
299.624
298.887
298.236
297.744
297.342
296.957
296.587
296.242
295.916
295.612
295.338
295.104
294.914
294.766
294.656
294.579
294.528
294.498
294.486
294.489
294.508
294.547
294.606
294.689
294.796
294.93
295.093
295.295
295.553
295.896
296.361
296.957
297.626
298.477
299.643
299.634
298.922
298.295
297.818
297.422
297.029
296.641
296.27
295.92
295.599
295.317
295.081
294.893
294.749
294.643
294.57
294.523
294.496
294.486
294.493
294.516
294.558
294.623
294.712
294.827
294.968
295.141
295.353
295.621
295.977
296.453
297.056
297.741
298.612
299.784
299.639
298.942
298.332
297.866
297.469
297.064
296.655
296.261
295.893
295.562
295.278
295.046
294.864
294.727
294.628
294.56
294.517
294.494
294.488
294.497
294.525
294.573
294.644
294.741
294.864
295.015
295.198
295.421
295.702
296.07
296.557
297.166
297.861
298.75
299.921
299.639
298.947
298.345
297.885
297.484
297.062
296.633
296.22
295.841
295.508
295.229
295.005
294.832
294.703
294.611
294.549
294.51
294.492
294.49
294.504
294.536
294.59
294.669
294.774
294.907
295.068
295.263
295.498
295.793
296.175
296.673
297.282
297.984
298.884
300.051
299.634
298.938
298.338
297.878
297.468
297.028
296.58
296.156
295.773
295.444
295.173
294.961
294.799
294.679
294.594
294.538
294.505
294.491
294.493
294.512
294.55
294.611
294.698
294.812
294.955
295.128
295.334
295.583
295.892
296.288
296.795
297.402
298.105
299.012
300.169
299.627
298.918
298.313
297.849
297.428
296.969
296.507
296.077
295.697
295.376
295.119
294.919
294.767
294.657
294.579
294.529
294.501
294.491
294.497
294.521
294.565
294.633
294.729
294.853
295.006
295.191
295.41
295.673
295.997
296.405
296.92
297.522
298.221
299.129
300.273
299.617
298.892
298.278
297.807
297.372
296.896
296.425
295.994
295.621
295.313
295.069
294.881
294.74
294.638
294.567
294.522
294.498
294.492
294.502
294.53
294.581
294.657
294.761
294.895
295.059
295.256
295.488
295.765
296.103
296.523
297.044
297.636
298.328
299.233
300.363
299.607
298.864
298.239
297.758
297.309
296.819
296.343
295.915
295.552
295.257
295.026
294.85
294.718
294.622
294.557
294.517
294.496
294.493
294.507
294.541
294.597
294.68
294.792
294.936
295.111
295.32
295.566
295.856
296.206
296.637
297.16
297.742
298.424
299.323
300.437
299.597
298.835
298.2
297.708
297.247
296.745
296.267
295.846
295.494
295.212
294.993
294.825
294.7
294.61
294.549
294.513
294.495
294.496
294.513
294.55
294.612
294.702
294.822
294.975
295.16
295.38
295.638
295.941
296.303
296.742
297.265
297.837
298.508
299.398
300.498
299.588
298.809
298.164
297.663
297.19
296.681
296.204
295.79
295.45
295.179
294.968
294.808
294.688
294.602
294.544
294.51
294.495
294.498
294.518
294.559
294.626
294.721
294.848
295.009
295.204
295.435
295.704
296.018
296.391
296.835
297.356
297.918
298.579
299.459
300.545
299.581
298.787
298.133
297.625
297.143
296.629
296.155
295.749
295.418
295.156
294.952
294.796
294.68
294.596
294.541
294.509
294.496
294.5
294.522
294.566
294.636
294.737
294.869
295.037
295.24
295.48
295.76
296.084
296.465
296.914
297.432
297.985
298.637
299.507
300.581
299.575
298.77
298.109
297.596
297.108
296.592
296.122
295.723
295.4
295.143
294.944
294.791
294.676
294.594
294.539
294.508
294.496
294.501
294.525
294.571
294.644
294.748
294.885
295.058
295.268
295.516
295.804
296.137
296.525
296.978
297.493
298.039
298.683
299.543
300.606
299.572
298.758
298.092
297.576
297.086
296.571
296.104
295.711
295.392
295.139
294.942
294.789
294.675
294.593
294.539
294.508
294.496
294.502
294.527
294.574
294.649
294.755
294.895
295.072
295.287
295.541
295.836
296.177
296.571
297.027
297.539
298.079
298.717
299.568
300.622
299.57
298.751
298.082
297.565
297.076
296.563
296.099
295.71
295.394
295.143
294.945
294.792
294.677
294.595
294.54
294.509
294.497
294.503
294.528
294.576
294.651
294.758
294.9
295.08
295.298
295.557
295.858
296.205
296.604
297.061
297.572
298.108
298.74
299.584
300.631
299.569
298.748
298.077
297.562
297.077
296.567
296.106
295.718
295.403
295.151
294.952
294.798
294.682
294.598
294.542
294.51
294.498
294.503
294.528
294.575
294.651
294.758
294.901
295.082
295.303
295.565
295.87
296.221
296.624
297.084
297.594
298.127
298.756
299.594
300.634
299.57
298.75
298.078
297.566
297.087
296.58
296.121
295.734
295.418
295.164
294.963
294.807
294.688
294.602
294.545
294.511
294.498
294.503
294.527
294.573
294.648
294.755
294.898
295.08
295.302
295.566
295.874
296.229
296.635
297.096
297.606
298.139
298.765
299.597
300.633
299.572
298.754
298.083
297.576
297.103
296.6
296.143
295.755
295.437
295.181
294.977
294.818
294.696
294.608
294.548
294.513
294.499
294.502
294.525
294.571
294.644
294.75
294.893
295.074
295.297
295.562
295.872
296.229
296.637
297.1
297.611
298.144
298.768
299.596
300.629
299.575
298.761
298.091
297.589
297.124
296.626
296.169
295.78
295.46
295.2
294.993
294.83
294.706
294.615
294.553
294.516
294.5
294.502
294.523
294.567
294.639
294.743
294.884
295.065
295.288
295.554
295.866
296.224
296.634
297.099
297.611
298.144
298.768
299.593
300.622
299.578
298.77
298.102
297.606
297.148
296.655
296.199
295.808
295.485
295.222
295.012
294.845
294.717
294.623
294.558
294.519
294.5
294.501
294.521
294.563
294.632
294.735
294.874
295.054
295.276
295.543
295.855
296.215
296.627
297.093
297.606
298.141
298.764
299.586
300.613
299.582
298.78
298.115
297.625
297.175
296.687
296.232
295.84
295.514
295.248
295.033
294.862
294.73
294.632
294.564
294.522
294.502
294.5
294.518
294.558
294.625
294.725
294.862
295.04
295.261
295.527
295.84
296.202
296.615
297.083
297.598
298.135
298.758
299.578
300.604
299.587
298.793
298.131
297.646
297.204
296.723
296.269
295.875
295.546
295.276
295.057
294.882
294.745
294.643
294.571
294.526
294.503
294.5
294.515
294.553
294.617
294.714
294.848
295.023
295.242
295.508
295.822
296.185
296.6
297.069
297.587
298.127
298.751
299.569
300.593
299.592
298.807
298.149
297.67
297.236
296.762
296.31
295.914
295.582
295.308
295.084
294.904
294.762
294.655
294.579
294.53
294.505
294.499
294.513
294.547
294.608
294.702
294.832
295.004
295.221
295.486
295.799
296.163
296.58
297.052
297.573
298.116
298.741
299.557
300.58
299.598
298.823
298.17
297.696
297.27
296.805
296.355
295.958
295.623
295.344
295.114
294.928
294.78
294.668
294.588
294.535
294.507
294.499
294.51
294.542
294.6
294.689
294.816
294.984
295.198
295.46
295.773
296.137
296.556
297.03
297.555
298.102
298.729
299.544
300.567
299.604
298.84
298.192
297.724
297.307
296.85
296.404
296.006
295.667
295.383
295.147
294.954
294.8
294.682
294.597
294.541
294.51
294.499
294.507
294.537
294.591
294.677
294.799
294.963
295.173
295.432
295.743
296.108
296.528
297.005
297.534
298.086
298.715
299.53
300.552
299.611
298.858
298.216
297.753
297.345
296.898
296.455
296.057
295.714
295.423
295.18
294.98
294.82
294.696
294.607
294.547
294.513
294.499
294.505
294.532
294.583
294.665
294.783
294.943
295.148
295.404
295.712
296.076
296.497
296.976
297.51
298.068
298.7
299.514
300.537
299.617
298.875
298.241
297.782
297.383
296.947
296.508
296.108
295.76
295.464
295.213
295.006
294.84
294.711
294.617
294.553
294.516
294.5
294.504
294.528
294.576
294.654
294.768
294.924
295.125
295.376
295.681
296.044
296.465
296.946
297.484
298.048
298.684
299.498
300.522
299.623
298.893
298.265
297.811
297.419
296.994
296.559
296.158
295.806
295.502
295.245
295.031
294.859
294.725
294.627
294.559
294.519
294.501
294.502
294.524
294.569
294.644
294.755
294.906
295.103
295.351
295.653
296.013
296.433
296.916
297.458
298.028
298.668
299.482
300.508
299.629
298.909
298.289
297.839
297.454
297.038
296.608
296.205
295.848
295.538
295.274
295.054
294.877
294.738
294.636
294.565
294.522
294.502
294.501
294.521
294.564
294.636
294.743
294.89
295.084
295.328
295.627
295.984
296.404
296.888
297.433
298.009
298.653
299.467
300.495
299.634
298.924
298.31
297.865
297.486
297.079
296.652
296.248
295.886
295.57
295.3
295.075
294.893
294.751
294.645
294.571
294.525
294.503
294.5
294.518
294.559
294.628
294.732
294.877
295.067
295.307
295.604
295.959
296.378
296.863
297.41
297.992
298.639
299.454
300.483
299.638
298.937
298.33
297.888
297.515
297.115
296.692
296.286
295.92
295.599
295.325
295.095
294.909
294.763
294.653
294.577
294.528
294.504
294.5
294.516
294.554
294.621
294.722
294.864
295.051
295.289
295.583
295.937
296.355
296.84
297.39
297.976
298.627
299.442
300.473
299.642
298.949
298.349
297.909
297.541
297.148
296.728
296.321
295.951
295.626
295.348
295.114
294.924
294.774
294.661
294.582
294.531
294.505
294.5
294.514
294.55
294.615
294.714
294.853
295.037
295.273
295.565
295.917
296.334
296.82
297.372
297.963
298.616
299.431
300.463
299.646
298.961
298.366
297.929
297.565
297.178
296.761
296.353
295.981
295.652
295.37
295.132
294.939
294.785
294.669
294.587
294.535
294.506
294.499
294.512
294.547
294.609
294.706
294.842
295.024
295.257
295.547
295.898
296.315
296.802
297.356
297.95
298.606
299.422
300.455
299.65
298.972
298.382
297.947
297.587
297.206
296.791
296.384
296.009
295.678
295.392
295.151
294.953
294.796
294.677
294.593
294.538
294.508
294.499
294.51
294.544
294.604
294.698
294.832
295.011
295.242
295.53
295.88
296.297
296.784
297.34
297.939
298.597
299.413
300.447
299.653
298.982
298.397
297.965
297.607
297.232
296.821
296.413
296.037
295.703
295.414
295.169
294.968
294.807
294.685
294.598
294.541
294.509
294.499
294.509
294.541
294.599
294.691
294.822
294.999
295.228
295.513
295.862
296.279
296.767
297.325
297.927
298.587
299.403
300.439
299.657
298.992
298.411
297.981
297.627
297.256
296.849
296.442
296.065
295.728
295.435
295.187
294.981
294.818
294.692
294.603
294.544
294.51
294.499
294.508
294.538
294.595
294.684
294.814
294.988
295.214
295.498
295.845
296.261
296.75
297.31
297.916
298.578
299.395
300.431
299.66
299.001
298.425
297.996
297.646
297.28
296.876
296.47
296.092
295.752
295.456
295.203
294.994
294.827
294.699
294.607
294.546
294.512
294.499
294.507
294.536
294.591
294.679
294.806
294.978
295.201
295.483
295.829
296.244
296.733
297.295
297.904
298.569
299.386
300.423
299.663
299.01
298.437
298.011
297.663
297.302
296.902
296.497
296.117
295.774
295.474
295.218
295.005
294.836
294.705
294.611
294.549
294.513
294.499
294.506
294.534
294.587
294.674
294.799
294.969
295.19
295.469
295.813
296.228
296.717
297.28
297.894
298.56
299.377
300.416
299.665
299.017
298.449
298.024
297.679
297.322
296.925
296.521
296.139
295.794
295.49
295.231
295.015
294.843
294.711
294.615
294.551
294.514
294.499
294.505
294.532
294.585
294.669
294.793
294.961
295.18
295.458
295.8
296.214
296.703
297.267
297.884
298.552
299.37
300.41
299.667
299.023
298.459
298.036
297.693
297.339
296.945
296.541
296.158
295.81
295.503
295.241
295.023
294.849
294.715
294.618
294.553
294.515
294.5
294.504
294.53
294.582
294.666
294.788
294.955
295.173
295.449
295.789
296.202
296.69
297.256
297.875
298.545
299.363
300.405
299.669
299.029
298.467
298.046
297.705
297.355
296.963
296.559
296.174
295.823
295.514
295.249
295.03
294.854
294.719
294.621
294.554
294.516
294.5
294.504
294.529
294.58
294.663
294.784
294.949
295.166
295.441
295.781
296.192
296.68
297.247
297.868
298.54
299.358
300.401
299.67
299.033
298.475
298.054
297.715
297.367
296.977
296.573
296.186
295.834
295.523
295.256
295.036
294.859
294.722
294.623
294.556
294.516
294.5
294.503
294.528
294.579
294.66
294.78
294.945
295.161
295.435
295.774
296.184
296.673
297.239
297.862
298.535
299.354
300.397
299.672
299.037
298.481
298.062
297.724
297.378
296.989
296.585
296.197
295.842
295.53
295.262
295.04
294.862
294.725
294.625
294.557
294.517
294.5
294.503
294.527
294.577
294.658
294.778
294.942
295.156
295.429
295.768
296.178
296.666
297.233
297.857
298.532
299.35
300.395
299.673
299.041
298.487
298.068
297.731
297.387
296.999
296.594
296.205
295.85
295.536
295.268
295.045
294.866
294.728
294.627
294.558
294.518
294.5
294.503
294.527
294.576
294.656
294.775
294.938
295.153
295.425
295.763
296.173
296.661
297.229
297.854
298.529
299.348
300.392
299.674
299.044
298.492
298.074
297.738
297.395
297.007
296.603
296.213
295.857
295.543
295.274
295.05
294.87
294.731
294.629
294.559
294.518
294.5
294.502
294.526
294.575
294.655
294.773
294.935
295.149
295.421
295.758
296.168
296.656
297.224
297.851
298.526
299.345
300.39
299.675
299.047
298.496
298.08
297.744
297.402
297.015
296.61
296.22
295.864
295.549
295.279
295.054
294.873
294.733
294.63
294.56
294.519
294.5
294.502
294.525
294.573
294.653
294.77
294.932
295.145
295.417
295.754
296.163
296.652
297.22
297.848
298.524
299.343
300.388
299.676
299.05
298.501
298.084
297.75
297.408
297.022
296.618
296.228
295.871
295.555
295.285
295.059
294.877
294.736
294.632
294.561
294.519
294.5
294.502
294.524
294.572
294.651
294.768
294.929
295.142
295.413
295.749
296.159
296.647
297.216
297.845
298.522
299.34
300.386
299.677
299.053
298.505
298.089
297.755
297.415
297.029
296.625
296.235
295.878
295.562
295.29
295.063
294.88
294.738
294.633
294.562
294.519
294.5
294.501
294.524
294.571
294.65
294.766
294.927
295.138
295.409
295.745
296.155
296.643
297.213
297.842
298.519
299.338
300.383
299.678
299.055
298.508
298.093
297.759
297.42
297.036
296.633
296.242
295.885
295.568
295.295
295.067
294.883
294.74
294.635
294.563
294.52
294.5
294.501
294.523
294.57
294.648
294.764
294.924
295.135
295.405
295.741
296.15
296.639
297.209
297.839
298.517
299.335
300.381
299.679
299.058
298.512
298.097
297.764
297.426
297.043
296.64
296.249
295.891
295.573
295.3
295.071
294.886
294.742
294.636
294.564
294.52
294.5
294.501
294.522
294.569
294.646
294.761
294.921
295.131
295.401
295.736
296.145
296.634
297.204
297.836
298.514
299.333
300.379
299.679
299.06
298.515
298.101
297.768
297.431
297.049
296.646
296.256
295.898
295.579
295.305
295.075
294.889
294.745
294.638
294.565
294.521
294.5
294.501
294.522
294.568
294.645
294.759
294.918
295.128
295.396
295.731
296.14
296.629
297.2
297.832
298.511
299.33
300.376
299.68
299.062
298.519
298.104
297.773
297.437
297.055
296.654
296.263
295.904
295.586
295.31
295.079
294.892
294.747
294.639
294.566
294.521
294.5
294.5
294.521
294.567
294.643
294.757
294.915
295.124
295.391
295.726
296.134
296.623
297.195
297.828
298.508
299.326
300.373
299.681
299.065
298.522
298.108
297.777
297.442
297.062
296.661
296.271
295.912
295.592
295.315
295.083
294.895
294.749
294.641
294.567
294.522
294.5
294.5
294.521
294.566
294.642
294.755
294.912
295.121
295.387
295.72
296.128
296.617
297.189
297.824
298.504
299.323
300.37
299.682
299.067
298.525
298.112
297.781
297.447
297.069
296.668
296.278
295.919
295.598
295.32
295.087
294.897
294.75
294.642
294.567
294.522
294.5
294.5
294.52
294.565
294.641
294.754
294.911
295.118
295.384
295.716
296.123
296.612
297.184
297.82
298.501
299.32
300.368
299.682
299.069
298.528
298.115
297.785
297.452
297.075
296.675
296.285
295.924
295.602
295.323
295.088
294.899
294.751
294.642
294.568
294.522
294.5
294.5
294.52
294.565
294.64
294.753
294.91
295.116
295.382
295.713
296.119
296.607
297.179
297.816
298.498
299.317
300.366
299.683
299.07
298.53
298.118
297.788
297.456
297.08
296.68
296.29
295.928
295.604
295.324
295.089
294.899
294.751
294.642
294.568
294.522
294.5
294.5
294.52
294.565
294.64
294.753
294.909
295.116
295.381
295.712
296.118
296.605
297.176
297.814
298.496
299.316
300.366
299.683
299.071
298.532
298.12
297.791
297.459
297.083
296.683
296.291
295.928
295.603
295.322
295.087
294.898
294.751
294.642
294.567
294.522
294.5
294.5
294.52
294.565
294.641
294.753
294.91
295.117
295.382
295.713
296.118
296.605
297.176
297.813
298.496
299.316
300.366
299.683
299.071
298.533
298.121
297.792
297.46
297.084
296.683
296.29
295.926
295.601
295.32
295.086
294.897
294.75
294.642
294.567
294.522
294.5
294.5
294.52
294.565
294.641
294.754
294.911
295.118
295.383
295.715
296.12
296.606
297.177
297.814
298.497
299.317
300.367
299.683
299.071
298.533
298.122
297.792
297.46
297.083
296.681
296.287
295.922
295.597
295.317
295.084
294.896
294.75
294.641
294.567
294.522
294.5
294.5
294.52
294.565
294.641
294.754
294.911
295.119
295.385
295.717
296.123
296.609
297.18
297.817
298.499
299.319
300.369
299.683
299.071
298.533
298.122
297.792
297.459
297.081
296.678
296.283
295.919
295.595
295.316
295.084
294.896
294.75
294.642
294.567
294.522
294.5
294.499
294.52
294.565
294.641
294.754
294.911
295.119
295.386
295.719
296.125
296.612
297.183
297.819
298.501
299.321
300.371
299.683
299.072
298.534
298.122
297.792
297.459
297.079
296.676
296.281
295.918
295.595
295.317
295.085
294.897
294.751
294.642
294.568
294.522
294.5
294.499
294.52
294.565
294.64
294.753
294.911
295.119
295.386
295.719
296.126
296.613
297.184
297.821
298.503
299.323
300.372
299.684
299.073
298.535
298.123
297.793
297.459
297.079
296.675
296.282
295.919
295.598
295.32
295.088
294.9
294.752
294.643
294.568
294.522
294.5
294.499
294.519
294.564
294.64
294.752
294.909
295.117
295.384
295.717
296.125
296.613
297.185
297.822
298.504
299.323
300.373
299.684
299.075
298.537
298.125
297.795
297.461
297.081
296.678
296.285
295.924
295.603
295.325
295.092
294.902
294.754
294.644
294.569
294.522
294.5
294.499
294.519
294.564
294.638
294.751
294.907
295.114
295.381
295.714
296.122
296.611
297.183
297.821
298.504
299.323
300.372
299.685
299.076
298.539
298.127
297.796
297.463
297.084
296.682
296.291
295.93
295.608
295.33
295.095
294.905
294.756
294.645
294.569
294.523
294.5
294.499
294.519
294.563
294.637
294.749
294.905
295.112
295.377
295.71
296.117
296.607
297.18
297.819
298.502
299.322
300.371
299.686
299.078
298.542
298.13
297.8
297.468
297.09
296.689
296.298
295.937
295.615
295.335
295.099
294.907
294.757
294.646
294.57
294.523
294.5
294.499
294.518
294.562
294.637
294.748
294.903
295.109
295.374
295.706
296.113
296.602
297.176
297.816
298.5
299.32
300.37
299.686
299.079
298.543
298.132
297.802
297.47
297.093
296.694
296.303
295.942
295.619
295.337
295.1
294.907
294.757
294.646
294.57
294.523
294.5
294.499
294.518
294.562
294.636
294.747
294.902
295.108
295.372
295.703
296.109
296.598
297.172
297.814
298.498
299.319
300.369
299.686
299.081
298.546
298.134
297.806
297.475
297.099
296.7
296.309
295.946
295.621
295.338
295.1
294.907
294.757
294.646
294.57
294.523
294.5
294.499
294.518
294.562
294.636
294.747
294.902
295.108
295.371
295.702
296.107
296.596
297.17
297.812
298.497
299.318
300.368
299.686
299.081
298.546
298.135
297.806
297.475
297.099
296.7
296.309
295.945
295.619
295.336
295.098
294.906
294.756
294.645
294.569
294.523
294.5
294.499
294.518
294.562
294.637
294.748
294.903
295.108
295.372
295.702
296.107
296.595
297.169
297.811
298.497
299.318
300.369
299.686
299.081
298.547
298.137
297.808
297.478
297.103
296.703
296.31
295.944
295.617
295.333
295.096
294.904
294.755
294.645
294.569
294.522
294.5
294.499
294.519
294.563
294.637
294.749
294.904
295.11
295.374
295.704
296.109
296.597
297.17
297.812
298.498
299.319
300.37
299.686
299.08
298.546
298.135
297.805
297.474
297.097
296.696
296.303
295.937
295.61
295.328
295.092
294.902
294.753
294.644
294.568
294.522
294.5
294.499
294.519
294.563
294.638
294.75
294.905
295.112
295.376
295.707
296.112
296.6
297.172
297.814
298.5
299.32
300.372
299.686
299.08
298.546
298.136
297.808
297.476
297.099
296.697
296.302
295.935
295.608
295.326
295.091
294.901
294.753
294.644
294.568
294.522
294.5
294.499
294.519
294.564
294.638
294.75
294.906
295.113
295.378
295.709
296.115
296.603
297.175
297.817
298.502
299.322
300.373
299.686
299.08
298.545
298.133
297.803
297.47
297.09
296.687
296.292
295.928
295.603
295.323
295.09
294.9
294.753
294.644
294.568
294.522
294.5
294.499
294.519
294.564
294.639
294.751
294.906
295.113
295.379
295.711
296.117
296.605
297.178
297.819
298.504
299.324
300.375
299.686
299.08
298.546
298.136
297.806
297.474
297.095
296.691
296.296
295.931
295.607
295.327
295.092
294.902
294.754
294.644
294.569
294.522
294.5
294.499
294.519
294.564
294.638
294.75
294.906
295.113
295.378
295.71
296.117