/*--------------------------------*- C++ -*----------------------------------*\
| =========                 |                                                 |
| \\      /  F ield         | OpenFOAM: The Open Source CFD Toolbox           |
|  \\    /   O peration     | Version:  v2006                                 |
|   \\  /    A nd           | Website:  www.openfoam.com                      |
|    \\/     M anipulation  |                                                 |
\*---------------------------------------------------------------------------*/
FoamFile
{
    version     2.0;
    format      ascii;
    class       volVectorField;
    location    "7";
    object      U;
}
// * * * * * * * * * * * * * * * * * * * * * * * * * * * * * * * * * * * * * //

dimensions      [0 1 -1 0 0 0 0];


internalField   nonuniform List<vector> 
78750
(
(-0.0712687 -0.0352431 -0.028767)
(-0.0391016 -0.0385754 -0.0340627)
(-0.0364331 -0.0378842 -0.0337037)
(-0.0337259 -0.0358109 -0.0336739)
(-0.0266481 -0.0323178 -0.0324562)
(-0.0222948 -0.0299338 -0.0321107)
(-0.0173177 -0.0276377 -0.0318274)
(-0.0126761 -0.0254833 -0.0316659)
(-0.00835457 -0.023436 -0.0316061)
(-0.0042521 -0.0214646 -0.0315916)
(-0.00041147 -0.0195764 -0.031603)
(0.0031865 -0.0177482 -0.0315985)
(0.00658992 -0.0159529 -0.03154)
(0.00977103 -0.014203 -0.0314352)
(0.0127003 -0.0125165 -0.0312974)
(0.0153988 -0.0108959 -0.0311232)
(0.0178779 -0.00933845 -0.0309054)
(0.0201415 -0.00783626 -0.0306352)
(0.0221886 -0.00637283 -0.0303033)
(0.0240148 -0.0049269 -0.0298979)
(0.0256116 -0.00347956 -0.0294049)
(0.0269654 -0.00201094 -0.0288112)
(0.0280573 -0.000500965 -0.028099)
(0.0288582 0.00107055 -0.0272442)
(0.0293262 0.00272767 -0.0262287)
(0.0294214 0.00449649 -0.0250271)
(0.0290934 0.00640215 -0.0236073)
(0.0282776 0.00846523 -0.0219289)
(0.0268936 0.0106972 -0.019942)
(0.0248496 0.0130893 -0.0175894)
(0.0220683 0.0156042 -0.0148091)
(0.0184356 0.0182495 -0.0114987)
(0.0136694 0.0211085 -0.00744352)
(0.00764622 0.0224384 -0.00260733)
(0.00174299 0.0148664 0.00140429)
(-0.00425604 0.0217996 -0.0163801)
(-0.00892874 -0.0266279 -0.053088)
(-0.0155744 -0.044591 -0.0672248)
(-0.0197138 -0.0455451 -0.0703294)
(-0.0225572 -0.0396904 -0.0693257)
(-0.0243383 -0.0340771 -0.0673179)
(-0.0252782 -0.0306299 -0.0654886)
(-0.0253911 -0.0280998 -0.0639)
(-0.0249014 -0.0258898 -0.0625291)
(-0.0239269 -0.0237277 -0.0613349)
(-0.0225302 -0.0215591 -0.0603357)
(-0.0208196 -0.0194154 -0.059539)
(-0.0189298 -0.0173441 -0.0589189)
(-0.0169654 -0.0153571 -0.0584128)
(-0.0149521 -0.0134378 -0.0579673)
(-0.0128965 -0.0115636 -0.0575493)
(-0.0108015 -0.00971928 -0.0571375)
(-0.00867102 -0.00789531 -0.0567179)
(-0.00653293 -0.00608122 -0.0562781)
(-0.00443416 -0.00424183 -0.0557884)
(-0.00239639 -0.00232499 -0.0552009)
(-0.000427846 -0.000296558 -0.0544755)
(0.00145338 0.00187003 -0.0535649)
(0.00322918 0.00420864 -0.0524157)
(0.004872 0.0067707 -0.0509751)
(0.00634442 0.00962493 -0.0491826)
(0.00760054 0.012853 -0.0469641)
(0.00858575 0.0165468 -0.0442151)
(0.00923308 0.0208097 -0.0407793)
(0.00945621 0.025761 -0.0364295)
(0.00913875 0.0315257 -0.0308615)
(0.00811466 0.0381002 -0.0237877)
(0.00621333 0.0446578 -0.0153716)
(0.00363651 0.0474302 -0.00671156)
(0.000581505 0.033151 0.000372569)
(-0.00029423 0.0586147 -0.00715594)
(-0.00436165 0.0744819 -0.0252668)
(-0.010494 0.0715585 -0.0320927)
(-0.0158882 0.0629067 -0.0327319)
(-0.0195919 0.052391 -0.0320555)
(-0.0217572 0.0419131 -0.0319067)
(-0.0228685 0.0321897 -0.0323284)
(-0.0232089 0.0232856 -0.0332287)
(-0.0228895 0.015453 -0.0344456)
(-0.0220193 0.00899769 -0.0357601)
(-0.0208804 0.00415402 -0.0370245)
(-0.0195904 0.00136098 -0.0380148)
(-0.0180661 0.000516171 -0.0387334)
(-0.0164606 0.000763501 -0.0393775)
(-0.0149116 0.0014345 -0.0400196)
(-0.0133713 0.00238103 -0.040652)
(-0.0118561 0.00355458 -0.0412648)
(-0.0103933 0.00494713 -0.0418447)
(-0.00897908 0.00655938 -0.042376)
(-0.00757505 0.0084089 -0.0428362)
(-0.00618343 0.0105455 -0.0431911)
(-0.00482664 0.0130383 -0.0434037)
(-0.00351168 0.0159248 -0.0434457)
(-0.00227012 0.0191555 -0.0432982)
(-0.00112297 0.0226936 -0.0429243)
(-7.29175e-05 0.0265681 -0.0422611)
(0.000861158 0.030821 -0.0412237)
(0.00165288 0.0355074 -0.0396917)
(0.0022679 0.0406916 -0.0374921)
(0.00265799 0.0464079 -0.0343812)
(0.00276179 0.05256 -0.0300656)
(0.00251455 0.0586569 -0.0243348)
(0.00193526 0.0632459 -0.0173362)
(0.00108313 0.0619377 -0.00931005)
(1.8674e-05 0.0391874 -0.00131594)
(-0.00067279 0.0604717 -0.00407683)
(-0.00264738 0.0733912 -0.0161594)
(-0.00435036 0.0644978 -0.021891)
(-0.00549484 0.0499615 -0.0240295)
(-0.00617859 0.0344681 -0.0249335)
(-0.0066648 0.0204182 -0.0259272)
(-0.00706174 0.00853049 -0.0271938)
(-0.00743297 -0.0010525 -0.0285293)
(-0.00784233 -0.00815381 -0.0296759)
(-0.00826066 -0.0125183 -0.0304143)
(-0.00859629 -0.0142934 -0.030737)
(-0.00877264 -0.0141956 -0.0308364)
(-0.00873049 -0.0132381 -0.0309295)
(-0.00843431 -0.0120732 -0.0310944)
(-0.00793738 -0.0107868 -0.0313156)
(-0.00729024 -0.00936836 -0.0315793)
(-0.00651744 -0.00779002 -0.0318769)
(-0.00563257 -0.00601549 -0.0322024)
(-0.00466754 -0.00400674 -0.0325482)
(-0.00365771 -0.00174482 -0.0329026)
(-0.00262232 0.000816571 -0.0332482)
(-0.00156592 0.0037227 -0.0335599)
(-0.000505115 0.00700786 -0.0338067)
(0.000498562 0.0107139 -0.0339485)
(0.00141219 0.0149111 -0.0339421)
(0.0022261 0.0196736 -0.0337328)
(0.00292193 0.025068 -0.0332502)
(0.00347774 0.0311702 -0.032391)
(0.00386336 0.0380658 -0.0309983)
(0.00403884 0.0457977 -0.0288409)
(0.00395022 0.0541857 -0.025627)
(0.00351782 0.0623837 -0.021148)
(0.00277225 0.0683946 -0.0155691)
(0.00173427 0.0677909 -0.00871454)
(0.000348598 0.0427767 -0.00108068)
(0.000514299 0.064133 -0.00233005)
(0.000698652 0.0898623 -0.0113484)
(0.000342338 0.0877408 -0.0167926)
(-0.000134296 0.07936 -0.0198725)
(-0.000809493 0.069367 -0.021613)
(-0.00164075 0.0598663 -0.0225458)
(-0.00262599 0.0517386 -0.0228943)
(-0.00374983 0.0450217 -0.0227833)
(-0.00495945 0.0393204 -0.0223844)
(-0.00614948 0.0341067 -0.0219403)
(-0.007175 0.0290224 -0.0217058)
(-0.00793986 0.0240058 -0.0218396)
(-0.00837243 0.0199148 -0.0222148)
(-0.00851957 0.0173305 -0.0226645)
(-0.00848674 0.0157945 -0.0232279)
(-0.00831695 0.0148326 -0.0239335)
(-0.00802266 0.014294 -0.0247563)
(-0.00761757 0.0141466 -0.025663)
(-0.00711382 0.0144223 -0.026618)
(-0.00652788 0.0151881 -0.0275828)
(-0.00588604 0.0165353 -0.028513)
(-0.00523811 0.018551 -0.0293565)
(-0.00461083 0.0214054 -0.0300334)
(-0.00398328 0.0253196 -0.0305193)
(-0.00338958 0.0300426 -0.0308092)
(-0.0028725 0.0351759 -0.0308373)
(-0.00240107 0.04079 -0.0305082)
(-0.00197192 0.0469734 -0.0297209)
(-0.00158955 0.0537231 -0.0283516)
(-0.00125391 0.0609119 -0.0262459)
(-0.000960677 0.0681247 -0.0232519)
(-0.000715202 0.0743731 -0.0193272)
(-0.0005314 0.0779323 -0.014565)
(-0.000362997 0.0740839 -0.0085206)
(-0.000242081 0.0442482 -0.00147586)
(-4.75886e-05 0.0609373 -0.00169787)
(-0.000566171 0.0909558 -0.00892483)
(-0.00134058 0.089598 -0.0133523)
(-0.00207267 0.0803392 -0.0157739)
(-0.00278249 0.0676716 -0.0167764)
(-0.00337179 0.0549284 -0.0167105)
(-0.00381354 0.0437039 -0.0160302)
(-0.00409915 0.0341859 -0.0150768)
(-0.0042319 0.0260492 -0.0140621)
(-0.00423012 0.018874 -0.013116)
(-0.00413615 0.0124004 -0.0123308)
(-0.00401276 0.00691353 -0.011744)
(-0.0038797 0.00295936 -0.0112913)
(-0.00371519 0.000506772 -0.010924)
(-0.00351288 -0.000869801 -0.0107236)
(-0.00328818 -0.00149732 -0.0107741)
(-0.00301935 -0.00150877 -0.011104)
(-0.00268689 -0.000954023 -0.0117085)
(-0.00228456 0.000187457 -0.0125527)
(-0.00183011 0.00199358 -0.0135746)
(-0.00135635 0.00461699 -0.0146988)
(-0.000894077 0.00817426 -0.0159133)
(-0.000514084 0.0124939 -0.0172197)
(-0.000223211 0.0173695 -0.0185236)
(3.77721e-06 0.0228686 -0.0197298)
(0.000188825 0.0290499 -0.0207427)
(0.00033621 0.0359302 -0.0214561)
(0.000445572 0.0434944 -0.0217435)
(0.000517606 0.0516498 -0.0214511)
(0.00055769 0.0601178 -0.0204049)
(0.000576832 0.0682407 -0.0184623)
(0.000568809 0.0748148 -0.0156243)
(0.000501916 0.0782996 -0.0120066)
(0.000347976 0.0743921 -0.00705205)
(8.85465e-05 0.0434929 -0.000916307)
(0.000458057 0.0584476 -0.00112235)
(0.00119622 0.0944126 -0.00671024)
(0.00148423 0.0971698 -0.0103993)
(0.00156736 0.0915879 -0.0126272)
(0.00151255 0.0820113 -0.0138574)
(0.00131884 0.0711294 -0.0141587)
(0.00108874 0.0607927 -0.0137855)
(0.000894453 0.0516094 -0.0129627)
(0.000749072 0.0436044 -0.0118012)
(0.000611349 0.0366643 -0.0103373)
(0.00040294 0.030708 -0.00860439)
(2.40378e-05 0.0257152 -0.00671409)
(-0.000558121 0.0217708 -0.00489783)
(-0.00125923 0.0189821 -0.0034086)
(-0.00201715 0.0171124 -0.00245624)
(-0.00279741 0.0157274 -0.0022983)
(-0.00355352 0.0145567 -0.00306201)
(-0.00425652 0.0136324 -0.00462096)
(-0.00488162 0.0131953 -0.0066844)
(-0.00539672 0.0135539 -0.00892413)
(-0.00574026 0.0150116 -0.0110699)
(-0.0058604 0.0178012 -0.0130337)
(-0.00575988 0.0218895 -0.0148312)
(-0.00549339 0.0268597 -0.0163964)
(-0.00516141 0.0323463 -0.0176318)
(-0.00483868 0.0383128 -0.0184918)
(-0.00455192 0.0448216 -0.0189427)
(-0.00428186 0.051887 -0.0189312)
(-0.00397678 0.0593688 -0.0183826)
(-0.00357644 0.0668611 -0.0172194)
(-0.00304305 0.0736063 -0.0154022)
(-0.00241059 0.0785564 -0.0129742)
(-0.00175866 0.0803852 -0.00990955)
(-0.00101955 0.0741106 -0.00571426)
(-0.000257849 0.0415929 -0.000780749)
(0.00013631 0.0537139 -0.00111349)
(0.000678265 0.0913114 -0.00593141)
(0.000957915 0.0955653 -0.00896719)
(0.00112188 0.0911925 -0.0107275)
(0.0011989 0.0818956 -0.0116784)
(0.00111179 0.069785 -0.0117162)
(0.000974331 0.0572097 -0.0109046)
(0.000872895 0.0455042 -0.00931586)
(0.00080319 0.0353229 -0.0069374)
(0.000700146 0.0270455 -0.0037328)
(0.000512686 0.0207321 0.000295825)
(0.000256389 0.0161812 0.00499051)
(3.62702e-06 0.012949 0.00990417)
(-0.000155582 0.0105398 0.0143182)
(-0.000162482 0.00874086 0.0175767)
(-4.23761e-05 0.00759747 0.0194782)
(0.000118021 0.00711086 0.020029)
(0.000194116 0.00721176 0.0192047)
(9.29564e-05 0.00783803 0.0170183)
(-0.000242275 0.00881829 0.0134291)
(-0.000828335 0.00993129 0.00863387)
(-0.00155663 0.011403 0.00339613)
(-0.00225467 0.0139071 -0.00144728)
(-0.00279023 0.018019 -0.00546591)
(-0.00309132 0.0239176 -0.00860636)
(-0.00315197 0.031269 -0.0109269)
(-0.00304467 0.0394221 -0.0124885)
(-0.00287009 0.0477829 -0.013347)
(-0.00267203 0.0559172 -0.0135262)
(-0.00241357 0.0634527 -0.0130313)
(-0.00202884 0.0698181 -0.0118833)
(-0.00152896 0.0742255 -0.0101529)
(-0.000997879 0.0756588 -0.00780677)
(-0.000438057 0.0693677 -0.00440685)
(9.36781e-06 0.0382631 -0.00036697)
(5.08034e-05 0.0506632 -0.000413476)
(0.000393095 0.0890893 -0.00416418)
(0.00061696 0.0953773 -0.00677356)
(0.000737468 0.0925674 -0.00831233)
(0.000783555 0.0850503 -0.00912919)
(0.000676798 0.0743662 -0.0089732)
(0.000432789 0.0627218 -0.00749999)
(5.94495e-05 0.0518536 -0.00439138)
(-0.000450174 0.0426351 0.000544113)
(-0.00105839 0.0350988 0.00715121)
(-0.00165633 0.0286095 0.0145566)
(-0.00207244 0.022311 0.0212035)
(-0.00218271 0.0158132 0.0258159)
(-0.00195612 0.00959007 0.0282089)
(-0.00141106 0.0045131 0.0290951)
(-0.000623639 0.00127189 0.0292817)
(0.000283678 0.000168774 0.0292528)
(0.0011985 0.00125002 0.0291494)
(0.00200929 0.00438209 0.028811)
(0.00259479 0.00919096 0.0277896)
(0.00283356 0.0149133 0.0254037)
(0.00265758 0.0204814 0.0210377)
(0.00205878 0.0250264 0.0146716)
(0.00112502 0.0283991 0.00728044)
(6.65612e-05 0.0314171 0.000518191)
(-0.000873618 0.0352912 -0.00446491)
(-0.0015554 0.0408119 -0.00760964)
(-0.00192639 0.0479386 -0.00927367)
(-0.00200388 0.0557347 -0.00977777)
(-0.00186751 0.062944 -0.00940364)
(-0.00158353 0.0686314 -0.00839998)
(-0.00120478 0.0722422 -0.00694385)
(-0.000783089 0.0729936 -0.00502315)
(-0.000317977 0.0662069 -0.00238324)
(9.94851e-06 0.0363039 0.0003091)
(-0.000212585 0.0507403 -3.12047e-06)
(-0.000870266 0.0892397 -0.00311145)
(-0.00147819 0.0953789 -0.00519175)
(-0.00209259 0.0923445 -0.00612863)
(-0.00285097 0.0841301 -0.00588473)
(-0.00370742 0.0724137 -0.00379035)
(-0.00463618 0.0598793 0.000621202)
(-0.00562575 0.0481462 0.00722467)
(-0.00658884 0.0373174 0.0149586)
(-0.00733547 0.0265293 0.0217721)
(-0.00762208 0.0153895 0.0256953)
(-0.0074016 0.00458681 0.026595)
(-0.00678538 -0.00499272 0.0257396)
(-0.00593017 -0.0127255 0.0243672)
(-0.00496412 -0.0183397 0.0231958)
(-0.00392991 -0.0217837 0.0225079)
(-0.00282033 -0.0231086 0.0223606)
(-0.00161093 -0.0223481 0.0227366)
(-0.000277889 -0.0194827 0.0235906)
(0.0011782 -0.0145006 0.0247976)
(0.00269287 -0.00751973 0.0260623)
(0.00412037 0.00116621 0.0268652)
(0.00528017 0.0109872 0.0264202)
(0.00596736 0.0210004 0.0238341)
(0.00601887 0.0299314 0.0186075)
(0.0054186 0.0368855 0.0114237)
(0.00438726 0.0421381 0.00419644)
(0.00326139 0.0470021 -0.00126598)
(0.00228551 0.0525687 -0.00448917)
(0.00155044 0.0587909 -0.00585097)
(0.00106645 0.0645276 -0.00585287)
(0.000783004 0.068436 -0.00498192)
(0.000609668 0.069571 -0.00353479)
(0.000439118 0.0638496 -0.00144093)
(0.000156734 0.0355962 0.000630299)
(-0.000139554 0.0530717 0.000782635)
(-0.00111297 0.0937447 -0.00116351)
(-0.00218632 0.100966 -0.00251906)
(-0.00329434 0.0982722 -0.00257899)
(-0.00457113 0.0903876 -0.000883435)
(-0.0058603 0.0788888 0.00330458)
(-0.00707062 0.0658863 0.00983527)
(-0.00812763 0.0522903 0.0171757)
(-0.00886749 0.0379423 0.0227352)
(-0.00912898 0.0233502 0.0246563)
(-0.0090036 0.00964235 0.0235963)
(-0.00865736 -0.00233317 0.0213276)
(-0.00818122 -0.0120743 0.0191533)
(-0.0076165 -0.0196658 0.0175166)
(-0.00699353 -0.0253244 0.0164344)
(-0.00631379 -0.0291989 0.0158247)
(-0.00556363 -0.0313588 0.0156176)
(-0.00471809 -0.0318317 0.0157799)
(-0.00374083 -0.0305934 0.0163256)
(-0.00259592 -0.0275588 0.0173042)
(-0.00126328 -0.0226049 0.0187575)
(0.000250807 -0.015591 0.0206476)
(0.00189674 -0.00639261 0.0227571)
(0.0035971 0.00490547 0.0245375)
(0.0051384 0.0175892 0.0250402)
(0.00628462 0.0306223 0.0232595)
(0.00680199 0.0426548 0.0186084)
(0.00651854 0.052087 0.011903)
(0.0055898 0.0585571 0.00545392)
(0.00441306 0.0631769 0.00112368)
(0.0032559 0.0669119 -0.000935533)
(0.00223855 0.0696293 -0.00135635)
(0.00141141 0.0702634 -0.000726926)
(0.000691308 0.0643163 0.000610405)
(0.000109899 0.0361425 0.0014846)
(-0.000149753 0.0557888 0.000985072)
(-0.00138321 0.0993096 -7.80316e-05)
(-0.00280626 0.107199 -0.000630194)
(-0.00427023 0.104003 0.00024111)
(-0.00592518 0.0944902 0.00323895)
(-0.00745651 0.0803861 0.00862277)
(-0.00869985 0.0639171 0.0150314)
(-0.00957059 0.046143 0.0199225)
(-0.00996028 0.028213 0.0213681)
(-0.00992061 0.0115024 0.0199337)
(-0.00962292 -0.00304662 0.0174467)
(-0.00916469 -0.0149397 0.0151957)
(-0.00861509 -0.0244235 0.0135183)
(-0.00799483 -0.0318432 0.0123576)
(-0.0073137 -0.0374461 0.0116013)
(-0.00657983 -0.0414023 0.0111595)
(-0.00579811 -0.0438235 0.0109733)
(-0.00496804 -0.0447829 0.0110092)
(-0.00408214 -0.0443108 0.0112609)
(-0.00312858 -0.0423869 0.0117518)
(-0.00209144 -0.0389411 0.0125355)
(-0.000947298 -0.033842 0.0136951)
(0.000331242 -0.0268665 0.0153265)
(0.00176956 -0.017708 0.0174656)
(0.00335547 -0.00605156 0.0199307)
(0.00500329 0.00803136 0.0220654)
(0.00647629 0.0238113 0.0227226)
(0.00748516 0.0397565 0.0207366)
(0.00772202 0.0537743 0.0159142)
(0.00701467 0.0638883 0.00995616)
(0.00563597 0.0700284 0.00531469)
(0.00406903 0.0733152 0.00286305)
(0.00260359 0.073795 0.00210257)
(0.00121682 0.067145 0.00233404)
(0.0001656 0.0375384 0.00205334)
(-6.21803e-05 0.0581598 0.0012117)
(-0.00115392 0.105176 0.00107323)
(-0.00258355 0.114678 0.00125145)
(-0.00410126 0.111571 0.00279271)
(-0.00580055 0.101091 0.00639473)
(-0.00732272 0.0848638 0.0117689)
(-0.00845776 0.0653078 0.0168027)
(-0.00915016 0.0445041 0.0191273)
(-0.00938937 0.0244907 0.0183565)
(-0.00932189 0.00658877 0.016003)
(-0.00902933 -0.00836989 0.0135649)
(-0.00858795 -0.0203582 0.0116462)
(-0.00803777 -0.0299111 0.0102493)
(-0.00740854 -0.0374343 0.00927189)
(-0.00672207 -0.0431902 0.00862376)
(-0.00599284 -0.0473439 0.00823942)
(-0.00523111 -0.0500045 0.00807283)
(-0.0044428 -0.0512503 0.00809352)
(-0.00362948 -0.0511277 0.00828752)
(-0.00279088 -0.0496495 0.00865797)
(-0.00192692 -0.0468052 0.00922351)
(-0.00103531 -0.0425665 0.0100193)
(-0.000108109 -0.0368626 0.0111062)
(0.000873805 -0.0295235 0.0125829)
(0.00193998 -0.0201856 0.0145788)
(0.00310188 -0.0082509 0.017145)
(0.00435208 0.00677053 0.0199215)
(0.00556549 0.0244166 0.0217738)
(0.00647042 0.0430872 0.0212273)
(0.00665488 0.0601103 0.0176647)
(0.00581752 0.072253 0.0126384)
(0.00432288 0.0784446 0.00870431)
(0.00273873 0.079406 0.0065436)
(0.00120294 0.0714896 0.00532989)
(0.00012744 0.0393117 0.00316934)
(-2.02278e-05 0.0598471 0.000955825)
(-0.000939857 0.1101 0.00130544)
(-0.00226517 0.120949 0.00195331)
(-0.00371974 0.117556 0.00377708)
(-0.0053809 0.105218 0.00732083)
(-0.00687593 0.0858244 0.0118373)
(-0.00798531 0.0627362 0.0151016)
(-0.00865815 0.0390344 0.015618)
(-0.00890825 0.0170239 0.0139687)
(-0.00882991 -0.00195394 0.011626)
(-0.00850215 -0.0173464 0.00954252)
(-0.00801118 -0.0295764 0.00795031)
(-0.0073969 -0.0392459 0.00680056)
(-0.00669096 -0.0468152 0.00600112)
(-0.00591932 -0.0525949 0.00547209)
(-0.00510094 -0.0567851 0.00515437)
(-0.00425079 -0.0595211 0.00500633)
(-0.00338072 -0.0608939 0.00500098)
(-0.00250055 -0.0609538 0.0051255)
(-0.00161999 -0.0597138 0.00538104)
(-0.00075023 -0.05716 0.00578156)
(9.75597e-05 -0.0532636 0.00635306)
(0.000910963 -0.0479843 0.00713555)
(0.00167891 -0.0412499 0.00819108)
(0.00240636 -0.0328905 0.00962179)
(0.00311609 -0.022494 0.0115878)
(0.00384652 -0.00928125 0.0142367)
(0.00460575 0.00753798 0.0173193)
(0.00531592 0.0276814 0.0196643)
(0.00572349 0.0490986 0.0196134)
(0.00535684 0.0678609 0.0166944)
(0.0041203 0.0796333 0.0127963)
(0.0026282 0.0828975 0.00985787)
(0.00115157 0.0747408 0.00749998)
(0.000130794 0.0404936 0.00381766)
(8.24426e-05 0.0604113 0.00061094)
(-0.000417828 0.113565 0.00119892)
(-0.00140651 0.126484 0.00209429)
(-0.00258905 0.12367 0.00392087)
(-0.00400505 0.11094 0.0070474)
(-0.00536855 0.0900565 0.010702)
(-0.00641521 0.0649207 0.0129921)
(-0.00706421 0.0391034 0.0130392)
(-0.00730814 0.0152196 0.0115266)
(-0.00722345 -0.00508476 0.00953744)
(-0.00689459 -0.0212833 0.00774093)
(-0.00638991 -0.0339913 0.00632777)
(-0.00576694 -0.0439703 0.00528443)
(-0.00506162 -0.0517683 0.00454678)
(-0.00430044 -0.0577295 0.00404971)
(-0.00350283 -0.0620619 0.00374181)
(-0.00268492 -0.0649028 0.00358524)
(-0.00185992 -0.0663464 0.00355434)
(-0.00103914 -0.0664471 0.0036353)
(-0.000233892 -0.0652217 0.00382583)
(0.00054296 -0.0626626 0.00413456)
(0.00127674 -0.0587546 0.00458096)
(0.00195093 -0.0534847 0.00519689)
(0.00254771 -0.0468322 0.00603108)
(0.00305554 -0.0387255 0.00716054)
(0.00347305 -0.0289358 0.00871386)
(0.0038193 -0.0169117 0.0108841)
(0.00412561 -0.00165281 0.0138183)
(0.00441467 0.0177158 0.0171053)
(0.00463536 0.0404011 0.0192819)
(0.00444811 0.0630274 0.0187868)
(0.00349712 0.0794217 0.0159441)
(0.00223607 0.0849257 0.0128099)
(0.000963196 0.0766542 0.00957957)
(0.000115917 0.0410088 0.00450953)
(0.000118583 0.0597629 7.59424e-05)
(-1.44561e-05 0.114914 0.000507088)
(-0.000626976 0.129758 0.00140971)
(-0.00147112 0.127629 0.00305744)
(-0.00256678 0.114701 0.00566791)
(-0.00372146 0.0923612 0.008625)
(-0.00462814 0.0649225 0.0104431)
(-0.00514102 0.0365984 0.0105168)
(-0.00525019 0.0106286 0.00929586)
(-0.00505562 -0.011046 0.00755001)
(-0.00466001 -0.0280156 0.00587758)
(-0.0041239 -0.0411103 0.00452555)
(-0.00348699 -0.0512677 0.00351719)
(-0.00277648 -0.0591393 0.00279847)
(-0.00201532 -0.0651165 0.0023048)
(-0.00122192 -0.0694319 0.00198239)
(-0.000411899 -0.0722375 0.00179165)
(0.000400294 -0.0736344 0.001706)
(0.00120029 -0.073678 0.00171053)
(0.00197348 -0.0723827 0.00180097)
(0.00270346 -0.0697365 0.00198318)
(0.00337145 -0.0657181 0.00227347)
(0.00395656 -0.060313 0.0027002)
(0.00443486 -0.053514 0.00330766)
(0.00478588 -0.0453017 0.00416387)
(0.00499472 -0.0355653 0.00537981)
(0.00506148 -0.0239585 0.00713673)
(0.00500843 -0.00968751 0.00967994)
(0.00487113 0.00852411 0.0130789)
(0.00467995 0.0311685 0.0165047)
(0.00432434 0.055886 0.0181652)
(0.00341755 0.0763044 0.0170537)
(0.00222569 0.0847511 0.0143887)
(0.00100209 0.0773425 0.0107716)
(0.000156458 0.0412451 0.00484319)
(0.000144024 0.0580551 -0.000200576)
(0.000321256 0.114152 -9.28447e-06)
(0.000100534 0.131038 0.000789732)
(-0.000351675 0.130099 0.00224084)
(-0.00103441 0.118027 0.00448906)
(-0.00181747 0.0954467 0.00720041)
(-0.00235985 0.0665793 0.0092039)
(-0.00248567 0.036134 0.00975046)
(-0.00228292 0.00832633 0.00886337)
(-0.00190093 -0.0143424 0.00722579)
(-0.00142852 -0.031713 0.0055545)
(-0.000886454 -0.0449588 0.0041787)
(-0.000282888 -0.0552068 0.00314278)
(0.000371277 -0.0631634 0.00239274)
(0.00106231 -0.0692082 0.00186154)
(0.0017768 -0.0735501 0.00149322)
(0.0025002 -0.0763275 0.00124697)
(0.00321838 -0.0776378 0.00109575)
(0.00391766 -0.0775344 0.00102398)
(0.00458387 -0.076027 0.0010258)
(0.00520087 -0.0730969 0.0011039)
(0.00574716 -0.0687202 0.00127017)
(0.00619736 -0.0628896 0.00154798)
(0.00652623 -0.0556213 0.00197626)
(0.00671002 -0.0469408 0.00261565)
(0.00672697 -0.0368263 0.00356428)
(0.00656399 -0.0250935 0.00498318)
(0.00622189 -0.0112021 0.00711935)
(0.00572754 0.00593133 0.0102105)
(0.00512517 0.0274839 0.0139732)
(0.00443664 0.0523141 0.0169119)
(0.00341467 0.0744859 0.0172945)
(0.00219862 0.0848385 0.0152921)
(0.00099047 0.0780752 0.0115398)
(0.000160922 0.0416448 0.0050557)
(8.86015e-05 0.0560456 -0.000159332)
(0.000287962 0.112057 -0.000153735)
(0.000227067 0.130192 0.000486451)
(-4.73522e-06 0.129979 0.0017838)
(-0.00037562 0.118023 0.00391965)
(-0.000709461 0.0942526 0.00677099)
(-0.00063584 0.0629389 0.0091007)
(-0.000137552 0.0301103 0.00967111)
(0.000489148 0.0013526 0.00848667)
(0.0010844 -0.021105 0.00656372)
(0.00162564 -0.0379977 0.00473834)
(0.00216164 -0.050876 0.00329967)
(0.00272675 -0.0609113 0.00223728)
(0.00333254 -0.0687461 0.00146646)
(0.00397276 -0.0746914 0.000907659)
(0.00463249 -0.0789174 0.000499592)
(0.00529672 -0.0815473 0.000199353)
(0.00595113 -0.0826731 -2.09005e-05)
(0.00658145 -0.0823432 -0.000177363)
(0.00717185 -0.0805596 -0.000277148)
(0.00770381 -0.0772929 -0.000319397)
(0.00815592 -0.0725086 -0.000294396)
(0.00850478 -0.0661945 -0.000180691)
(0.00872459 -0.058373 5.89911e-05)
(0.00878722 -0.0490933 0.000483362)
(0.00866289 -0.0383838 0.00118662)
(0.00832958 -0.026156 0.00232171)
(0.00777327 -0.0120414 0.00413018)
(0.00699518 0.00480688 0.00691256)
(0.00603358 0.0255775 0.0106914)
(0.00494688 0.0500825 0.0144426)
(0.00365294 0.0733317 0.0161894)
(0.00229274 0.085276 0.0150796)
(0.00102402 0.0791292 0.0115081)
(0.000171492 0.0422909 0.00491436)
(1.98987e-05 0.0544933 0.000399077)
(4.78545e-05 0.109942 0.000558791)
(-6.78835e-05 0.128619 0.00116465)
(-0.000235116 0.128624 0.002534)
(-0.0003488 0.115816 0.00501419)
(-7.28043e-05 0.089495 0.00837063)
(0.000800345 0.0553779 0.0105875)
(0.00188703 0.02174 0.0103384)
(0.00278518 -0.00586673 0.00839554)
(0.00343409 -0.0266246 0.00614438)
(0.0039504 -0.0422564 0.00427825)
(0.00443891 -0.0544523 0.00289431)
(0.00495257 -0.0641893 0.0018904)
(0.00550604 -0.0719024 0.00115469)
(0.00609181 -0.0777689 0.000605383)
(0.00669111 -0.0818899 0.000184963)
(0.00728919 -0.0843606 -0.000145166)
(0.00787278 -0.0852636 -0.000409938)
(0.00842831 -0.0846398 -0.000624199)
(0.00893989 -0.0824772 -0.000795473)
(0.00938797 -0.0787265 -0.00092508)
(0.00974886 -0.0733381 -0.00100656)
(0.00999615 -0.0663005 -0.00102182)
(0.0101026 -0.0576545 -0.00093618)
(0.0100418 -0.0474855 -0.000692834)
(0.00978908 -0.0358792 -0.000199537)
(0.00931834 -0.0228258 0.000692059)
(0.00859901 -0.00808398 0.00221601)
(0.00761694 0.00896182 0.00467623)
(0.00639424 0.0292365 0.00820651)
(0.00501052 0.0527225 0.0121131)
(0.00349039 0.075244 0.0145593)
(0.00207043 0.0870169 0.0141217)
(0.000872159 0.0806293 0.0108541)
(0.000128839 0.0429971 0.00449023)
(-9.17932e-05 0.053924 0.00140504)
(-0.00040397 0.108785 0.00222359)
(-0.000759439 0.126906 0.00307994)
(-0.000988917 0.125628 0.00485631)
(-0.000858006 0.108995 0.00798071)
(8.09771e-05 0.0776849 0.0111238)
(0.00151621 0.041277 0.011698)
(0.00273203 0.00936286 0.00972861)
(0.00352534 -0.0150052 0.00698951)
(0.00404232 -0.033271 0.0046476)
(0.00446629 -0.0475574 0.00293865)
(0.00490494 -0.0591682 0.0017319)
(0.00539773 -0.0686641 0.000863249)
(0.0059406 -0.0762333 0.00021665)
(0.00651498 -0.0819461 -0.000279902)
(0.00710109 -0.0858733 -0.000674339)
(0.00768419 -0.0881054 -0.00099978)
(0.00825118 -0.08872 -0.00127832)
(0.00878828 -0.0877456 -0.00152378)
(0.00927874 -0.0851491 -0.00174425)
(0.00970131 -0.0808558 -0.00194252)
(0.0100302 -0.074798 -0.00211318)
(0.0102371 -0.066965 -0.00223826)
(0.010295 -0.0574153 -0.00228294)
(0.0101774 -0.0462606 -0.00218919)
(0.00985959 -0.0336171 -0.0018608)
(0.00931786 -0.0195241 -0.00114354)
(0.00852948 -0.0038281 0.000195393)
(0.00747057 0.01392 0.0024477)
(0.00614995 0.0343511 0.00576233)
(0.0046534 0.0571895 0.00959899)
(0.003069 0.0784895 0.0123213)
(0.0017118 0.0890842 0.0123238)
(0.000673001 0.0819719 0.00948062)
(8.45995e-05 0.0434558 0.00373947)
(-0.000191837 0.0544278 0.00281775)
(-0.000845603 0.10884 0.00501298)
(-0.00144531 0.125396 0.00653311)
(-0.00168262 0.121036 0.0088529)
(-0.00124155 0.098005 0.0119206)
(6.41655e-05 0.0624547 0.0130325)
(0.0013578 0.0275753 0.0110454)
(0.00215523 6.76177e-05 0.00782393)
(0.00257708 -0.0206457 0.00502087)
(0.0028649 -0.0369746 0.00303384)
(0.003174 -0.050519 0.00169053)
(0.00356352 -0.0619328 0.000762642)
(0.00403454 -0.0713927 9.16446e-05)
(0.00456269 -0.0789212 -0.000417094)
(0.00512646 -0.0845436 -0.000817844)
(0.00570613 -0.0883256 -0.00114599)
(0.00628616 -0.0903549 -0.00142701)
(0.00685405 -0.090699 -0.00167854)
(0.00739638 -0.0893661 -0.0019128)
(0.00789626 -0.0862911 -0.00213864)
(0.00833137 -0.0813649 -0.00236095)
(0.00867418 -0.0745031 -0.00257662)
(0.00889519 -0.0657078 -0.00277009)
(0.00896719 -0.0550703 -0.00290949)
(0.00886375 -0.0427434 -0.00293916)
(0.00856055 -0.0288917 -0.00276199)
(0.00803376 -0.0136168 -0.00221871)
(0.00726003 0.00312764 -0.00107573)
(0.00623118 0.0215889 0.000936411)
(0.00497458 0.0420424 0.00392905)
(0.00358468 0.0637771 0.00740879)
(0.00219542 0.0828239 0.00994072)
(0.00110558 0.0911618 0.0100603)
(0.000364813 0.0827669 0.00765)
(2.12366e-05 0.0434631 0.00281712)
(-0.000283478 0.055882 0.00423927)
(-0.00125624 0.109592 0.00823932)
(-0.00208626 0.123123 0.0105188)
(-0.00235078 0.113607 0.0127353)
(-0.00187855 0.0840103 0.0138864)
(-0.000970499 0.0479897 0.0118621)
(-0.000430659 0.0174262 0.00809829)
(-0.000267943 -0.00592096 0.00475569)
(-0.000230095 -0.0244567 0.00246169)
(-0.000139936 -0.0401008 0.000995305)
(7.99311e-05 -0.053631 4.42117e-05)
(0.000429455 -0.0652036 -0.000602391)
(0.00087869 -0.0747845 -0.00106693)
(0.00140053 -0.0823512 -0.00141926)
(0.00197093 -0.0879393 -0.00169896)
(0.00257072 -0.0916308 -0.00193133)
(0.00318243 -0.0935164 -0.00213594)
(0.003793 -0.0936514 -0.00232756)
(0.00438886 -0.092019 -0.00251787)
(0.00495343 -0.0885187 -0.00271643)
(0.00546481 -0.0830075 -0.00292862)
(0.00589578 -0.0753869 -0.00315122)
(0.00621725 -0.065668 -0.00336963)
(0.00640213 -0.0539617 -0.00355536)
(0.00642354 -0.0404465 -0.00365732)
(0.00625621 -0.0253272 -0.00358211)
(0.0058774 -0.00877531 -0.00317309)
(0.00527178 0.00912558 -0.00220625)
(0.00443937 0.0283998 -0.000444715)
(0.00341994 0.0489374 0.00217461)
(0.0023229 0.0695489 0.00517928)
(0.00130626 0.0862088 0.00733566)
(0.000570344 0.0923555 0.00747037)
(0.000127654 0.0827325 0.00554285)
(-1.07755e-05 0.043057 0.00183939)
(-0.00032012 0.0580712 0.00519223)
(-0.00150491 0.111002 0.0107197)
(-0.00256532 0.121072 0.0133423)
(-0.00306293 0.106274 0.0143887)
(-0.00309773 0.0738151 0.0126696)
(-0.00309551 0.0407912 0.00854116)
(-0.00338007 0.0143649 0.00455496)
(-0.00374406 -0.00672648 0.00184125)
(-0.00400558 -0.024726 0.00021095)
(-0.00408833 -0.040656 -0.000752486)
(-0.00398474 -0.0546897 -0.001336)
(-0.00372065 -0.066727 -0.00170505)
(-0.00332636 -0.0766697 -0.00195326)
(-0.00283345 -0.0844911 -0.00213269)
(-0.00226983 -0.0902396 -0.00227112)
(-0.00165818 -0.0940133 -0.0023849)
(-0.00101641 -0.0959078 -0.00248775)
(-0.000357993 -0.0959709 -0.00259127)
(0.000305847 -0.0941626 -0.00270644)
(0.000959924 -0.0903477 -0.00284343)
(0.00158441 -0.0843502 -0.00300847)
(0.00215563 -0.0760601 -0.00320041)
(0.00264553 -0.0654966 -0.00340941)
(0.00302586 -0.0527869 -0.003615)
(0.00326756 -0.0381353 -0.00377638)
(0.00334247 -0.0217987 -0.00381102)
(0.00322628 -0.00404882 -0.00357333)
(0.00290709 0.0148563 -0.00285615)
(0.00239556 0.0346811 -0.00145471)
(0.00173814 0.0549672 0.000661992)
(0.00104495 0.0741629 0.00306855)
(0.000475643 0.0883892 0.00476019)
(0.000117851 0.0926692 0.0048966)
(-3.99305e-05 0.0820611 0.00348732)
(-2.17456e-05 0.0424403 0.000965881)
(-0.000288803 0.060721 0.00532309)
(-0.00155541 0.113575 0.011539)
(-0.00287466 0.120905 0.0138689)
(-0.00388932 0.102793 0.0131965)
(-0.00479333 0.0706264 0.00932721)
(-0.00569971 0.0405411 0.00459986)
(-0.00661482 0.0160772 0.00113309)
(-0.00736436 -0.00469145 -0.000889656)
(-0.00788411 -0.0233057 -0.00196644)
(-0.00816772 -0.0401452 -0.00251347)
(-0.00822041 -0.0550839 -0.00277836)
(-0.00807185 -0.0679162 -0.00289716)
(-0.00775762 -0.0785098 -0.00294299)
(-0.00731233 -0.0868367 -0.0029547)
(-0.00676756 -0.0929636 -0.00295133)
(-0.00615022 -0.0970164 -0.00294214)
(-0.00548044 -0.09911 -0.00293579)
(-0.00477301 -0.099296 -0.00294108)
(-0.00403844 -0.0975224 -0.00296738)
(-0.00328567 -0.0936293 -0.00302333)
(-0.00252769 -0.0874118 -0.00311411)
(-0.00178499 -0.0787356 -0.00323943)
(-0.0010829 -0.0676017 -0.00339424)
(-0.000449083 -0.0541251 -0.00356795)
(8.57829e-05 -0.0385135 -0.00373559)
(0.000488484 -0.0210635 -0.00383654)
(0.000727244 -0.00214779 -0.00375102)
(0.000786696 0.0177891 -0.00329881)
(0.000674193 0.0382366 -0.00229994)