/*--------------------------------*- C++ -*----------------------------------*\
| =========                 |                                                 |
| \\      /  F ield         | OpenFOAM: The Open Source CFD Toolbox           |
|  \\    /   O peration     | Version:  v2006                                 |
|   \\  /    A nd           | Website:  www.openfoam.com                      |
|    \\/     M anipulation  |                                                 |
\*---------------------------------------------------------------------------*/
FoamFile
{
    version     2.0;
    format      ascii;
    class       volScalarField;
    location    "28";
    object      k;
}
// * * * * * * * * * * * * * * * * * * * * * * * * * * * * * * * * * * * * * //

dimensions      [0 2 -2 0 0 0 0];


internalField   nonuniform List<scalar> 
78750
(
6.93641e-05
8.79309e-05
8.98908e-05
8.87132e-05
8.54943e-05
8.15459e-05
7.76006e-05
7.39385e-05
7.06211e-05
6.7635e-05
6.49459e-05
6.25233e-05
6.03381e-05
5.83642e-05
5.65784e-05
5.4957e-05
5.34752e-05
5.21067e-05
5.08234e-05
4.95947e-05
4.83869e-05
4.71606e-05
4.58733e-05
4.44829e-05
4.29275e-05
4.11325e-05
3.9029e-05
3.65314e-05
3.35395e-05
2.99534e-05
2.56765e-05
2.05828e-05
1.46771e-05
8.67663e-06
3.55464e-06
1.6689e-05
0.000106581
0.000152665
0.000168207
0.00016849
0.000163357
0.000157323
0.000152187
0.000148168
0.000145076
0.000142607
0.000140564
0.000138815
0.000137278
0.000135907
0.00013465
0.00013348
0.000132316
0.000131145
0.000129888
0.000128471
0.000126766
0.000124676
0.000122127
0.000119037
0.000115321
0.000110873
0.000105523
9.89597e-05
9.06457e-05
7.98552e-05
6.61203e-05
5.0022e-05
3.26641e-05
1.34576e-05
2.36314e-05
6.5472e-05
8.7397e-05
9.41724e-05
9.2657e-05
8.87772e-05
8.56582e-05
8.39075e-05
8.30389e-05
8.26544e-05
8.26118e-05
8.28224e-05
8.322e-05
8.37743e-05
8.44603e-05
8.52531e-05
8.61309e-05
8.70739e-05
8.80629e-05
8.90771e-05
9.00924e-05
9.104e-05
9.18674e-05
9.25117e-05
9.2886e-05
9.28734e-05
9.23184e-05
9.1001e-05
8.85029e-05
8.41057e-05
7.69632e-05
6.65453e-05
5.35524e-05
3.77755e-05
1.77405e-05
1.78051e-05
4.92804e-05
6.61093e-05
7.39827e-05
7.65035e-05
7.57771e-05
7.37867e-05
7.17223e-05
6.98383e-05
6.81129e-05
6.66111e-05
6.53785e-05
6.44486e-05
6.3856e-05
6.36215e-05
6.37118e-05
6.40958e-05
6.47447e-05
6.56331e-05
6.67385e-05
6.80382e-05
6.94997e-05
7.10997e-05
7.28041e-05
7.45044e-05
7.606e-05
7.7275e-05
7.79092e-05
7.75868e-05
7.56694e-05
7.13267e-05
6.38768e-05
5.3578e-05
3.96715e-05
2.03331e-05
1.50828e-05
3.97309e-05
5.42581e-05
6.19646e-05
6.5641e-05
6.60407e-05
6.39182e-05
6.02054e-05
5.58004e-05
5.14027e-05
4.73149e-05
4.37275e-05
4.08269e-05
3.86567e-05
3.72177e-05
3.6422e-05
3.61873e-05
3.64544e-05
3.71938e-05
3.84066e-05
4.01209e-05
4.2384e-05
4.5246e-05
4.8741e-05
5.27412e-05
5.70316e-05
6.14679e-05
6.56432e-05
6.87086e-05
6.96559e-05
6.75325e-05
6.18607e-05
5.3346e-05
4.10792e-05
2.29669e-05
1.06161e-05
3.19205e-05
4.50386e-05
5.21277e-05
5.54768e-05
5.56911e-05
5.32075e-05
4.87722e-05
4.33092e-05
3.77447e-05
3.28213e-05
2.89185e-05
2.59907e-05
2.38481e-05
2.2344e-05
2.13068e-05
2.05668e-05
1.99862e-05
1.94773e-05
1.90149e-05
1.86506e-05
1.85297e-05
1.8902e-05
2.01036e-05
2.24905e-05
2.64543e-05
3.23643e-05
3.99342e-05
4.79823e-05
5.46275e-05
5.79244e-05
5.66034e-05
5.09552e-05
4.06502e-05
2.41192e-05
8.52203e-06
2.62839e-05
3.78833e-05
4.431e-05
4.70779e-05
4.66588e-05
4.33427e-05
3.78902e-05
3.1593e-05
2.58936e-05
2.18578e-05
1.98617e-05
1.96509e-05
2.06377e-05
2.22214e-05
2.39329e-05
2.54306e-05
2.64875e-05
2.69553e-05
2.67385e-05
2.57846e-05
2.40957e-05
2.17693e-05
1.90587e-05
1.65114e-05
1.5207e-05
1.66648e-05
2.20207e-05
3.09211e-05
4.10258e-05
4.88806e-05
5.1662e-05
4.88283e-05
4.06711e-05
2.65912e-05
7.13959e-06
2.19812e-05
3.16427e-05
3.64877e-05
3.76156e-05
3.54709e-05
3.09276e-05
2.56675e-05
2.15662e-05
1.98822e-05
2.0804e-05
2.36735e-05
2.7537e-05
3.15683e-05
3.5241e-05
3.83369e-05
4.07832e-05
4.25197e-05
4.34941e-05
4.36496e-05
4.29137e-05
4.12028e-05
3.84452e-05
3.45324e-05
2.94332e-05
2.37061e-05
1.88175e-05
1.70907e-05
2.05341e-05
2.88144e-05
3.84833e-05
4.48708e-05
4.52345e-05
3.96877e-05
2.84452e-05
6.44278e-06
1.87221e-05
2.6759e-05
3.0419e-05
3.05447e-05
2.78133e-05
2.37158e-05
2.02922e-05
1.90987e-05
2.05662e-05
2.40736e-05
2.85683e-05
3.31593e-05
3.73053e-05
4.0827e-05
4.37437e-05
4.60729e-05
4.78043e-05
4.89175e-05
4.9368e-05
4.90801e-05
4.79479e-05
4.58441e-05
4.25861e-05
3.79037e-05
3.17991e-05
2.50699e-05
1.96857e-05
1.83972e-05
2.29307e-05
3.1605e-05
3.94675e-05
4.20315e-05
3.87699e-05
3.03245e-05
5.8473e-06
1.62306e-05
2.29138e-05
2.56823e-05
2.5326e-05
2.28254e-05
2.00494e-05
1.88391e-05
2.00694e-05
2.34813e-05
2.81305e-05
3.30744e-05
3.7714e-05
4.17647e-05
4.51774e-05
4.80285e-05
5.03626e-05
5.21719e-05
5.34353e-05
5.41095e-05
5.41251e-05
5.33842e-05
5.17644e-05
4.90498e-05
4.49143e-05
3.9189e-05
3.21614e-05
2.51234e-05
2.05517e-05
2.10071e-05
2.69029e-05
3.45753e-05
3.85913e-05
3.73561e-05
3.14762e-05
5.36667e-06
1.447e-05
2.03945e-05
2.29156e-05
2.27736e-05
2.09914e-05
1.92747e-05
1.90856e-05
2.09912e-05
2.46675e-05
2.93012e-05
3.41562e-05
3.87672e-05
4.28833e-05
4.64262e-05
4.94474e-05
5.19813e-05
5.40042e-05
5.54848e-05
5.63768e-05
5.66144e-05
5.61109e-05
5.4754e-05
5.23326e-05
4.8556e-05
4.32618e-05
3.65824e-05
2.94117e-05
2.3733e-05
2.18544e-05
2.51824e-05
3.16707e-05
3.61602e-05
3.63631e-05
3.26123e-05
4.69676e-06
1.30279e-05
1.85632e-05
2.11417e-05
2.14288e-05
2.03194e-05
1.92289e-05
1.9411e-05
2.14762e-05
2.5231e-05
3.00141e-05
3.51841e-05
4.02664e-05
4.49443e-05
4.90367e-05
5.25472e-05
5.55156e-05
5.79122e-05
5.96933e-05
6.08059e-05
6.11856e-05
6.07569e-05
5.94078e-05
5.69347e-05
5.31196e-05
4.78322e-05
4.11661e-05
3.38177e-05
2.75249e-05
2.42026e-05
2.54218e-05
3.03671e-05
3.47247e-05
3.58373e-05
3.36563e-05
3.9283e-06
1.17322e-05
1.71172e-05
1.99244e-05
2.06884e-05
2.00987e-05
1.92737e-05
1.94192e-05
2.13849e-05
2.52265e-05
3.03895e-05
3.61919e-05
4.20513e-05
4.75502e-05
5.24298e-05
5.66159e-05
6.01538e-05
6.30457e-05
6.52277e-05
6.66279e-05
6.71629e-05
6.6743e-05
6.52467e-05
6.24489e-05
5.81555e-05
5.23022e-05
4.50903e-05
3.7305e-05
3.06869e-05
2.68179e-05
2.69581e-05
3.07571e-05
3.473e-05
3.6296e-05
3.52115e-05
3.27853e-06
1.0652e-05
1.58662e-05
1.87544e-05
1.97803e-05
1.95922e-05
1.92851e-05
2.01375e-05
2.30342e-05
2.78589e-05
3.39208e-05
4.04635e-05
4.69166e-05
5.29241e-05
5.82805e-05
6.28869e-05
6.68162e-05
7.01087e-05
7.2681e-05
7.44299e-05
7.52356e-05
7.49715e-05
7.34782e-05
7.0468e-05
6.56782e-05
5.90266e-05
5.07897e-05
4.19197e-05
3.44061e-05
2.98388e-05
2.91877e-05
3.21332e-05
3.56811e-05
3.74214e-05
3.69913e-05
2.94868e-06
9.92463e-06
1.49299e-05
1.78119e-05
1.90462e-05
1.9358e-05
1.98833e-05
2.18129e-05
2.57512e-05
3.12726e-05
3.76326e-05
4.42082e-05
5.06114e-05
5.66153e-05
6.20713e-05
6.68781e-05
7.10916e-05
7.47486e-05
7.77496e-05
7.99594e-05
8.12175e-05
8.1349e-05
8.01563e-05
7.72966e-05
7.23913e-05
6.52681e-05
5.62145e-05
4.63693e-05
3.80831e-05
3.29717e-05
3.18395e-05
3.42273e-05
3.73513e-05
3.89977e-05
3.87095e-05
2.73129e-06
9.43882e-06
1.43289e-05
1.73096e-05
1.88968e-05
1.98304e-05
2.11155e-05
2.36964e-05
2.7905e-05
3.32531e-05
3.92152e-05
4.54222e-05
5.16311e-05
5.76315e-05
6.32251e-05
6.82633e-05
7.28008e-05
7.68741e-05
8.03651e-05
8.31263e-05
8.49747e-05
8.5706e-05
8.50937e-05
8.27651e-05
7.82368e-05
7.11921e-05
6.18183e-05
5.12916e-05
4.22655e-05
3.64956e-05
3.47774e-05
3.65673e-05
3.91501e-05
4.03744e-05
3.96332e-05
2.33807e-06
8.79731e-06
1.36462e-05
1.6814e-05
1.87208e-05
1.99368e-05
2.11832e-05
2.32333e-05
2.66118e-05
3.11298e-05
3.65422e-05
4.25893e-05
4.89671e-05
5.53299e-05
6.1349e-05
6.6801e-05
7.17448e-05
7.62465e-05
8.02046e-05
8.34889e-05
8.59243e-05
8.73051e-05
8.74006e-05
8.58428e-05
8.2102e-05
7.57259e-05
6.67278e-05
5.61465e-05
4.67733e-05
4.0419e-05
3.80079e-05
3.90516e-05
4.09143e-05
4.14492e-05
3.99266e-05
1.80954e-06
7.8887e-06
1.26021e-05
1.58645e-05
1.79475e-05
1.9284e-05
2.04306e-05
2.21171e-05
2.50702e-05
2.93785e-05
3.49018e-05
4.13027e-05
4.81154e-05
5.48668e-05
6.11772e-05
6.68199e-05
7.18841e-05
7.64899e-05
8.05864e-05
8.40743e-05
8.68059e-05
8.85955e-05
8.92372e-05
8.84027e-05
8.55747e-05
8.02151e-05
7.2121e-05
6.20345e-05
5.25084e-05
4.53814e-05
4.18521e-05
4.17704e-05
4.2714e-05
4.245e-05
4.01782e-05
1.46082e-06
7.07855e-06
1.15381e-05
1.47377e-05
1.68687e-05
1.83194e-05
1.9665e-05
2.17213e-05
2.51996e-05
3.01496e-05
3.62648e-05
4.30221e-05
4.98804e-05
5.64305e-05
6.24294e-05
6.7768e-05
7.25786e-05
7.69985e-05
8.09947e-05
8.44687e-05
8.72807e-05
8.92543e-05
9.02118e-05
8.98779e-05
8.77881e-05
8.34286e-05
7.65233e-05
6.75823e-05
5.87237e-05
5.13062e-05
4.66706e-05
4.51965e-05
4.50134e-05
4.38933e-05
4.09296e-05
1.31579e-06
6.53545e-06
1.07417e-05
1.38472e-05
1.60428e-05
1.77679e-05
1.96851e-05
2.26326e-05
2.7031e-05
3.26484e-05
3.89711e-05
4.54646e-05
5.17533e-05
5.76567e-05
6.31083e-05
6.80725e-05
7.26548e-05
7.69578e-05
8.0932e-05
8.4457e-05
8.73883e-05
8.95518e-05
9.07998e-05
9.09057e-05
8.94482e-05
8.59641e-05
8.01958e-05
7.25625e-05
6.48352e-05
5.76756e-05
5.23187e-05
4.955e-05
4.81995e-05
4.61451e-05
4.23054e-05
1.24145e-06
6.18437e-06
1.02281e-05
1.33241e-05
1.56851e-05
1.77777e-05
2.02501e-05
2.3806e-05
2.85243e-05
3.40177e-05
3.98211e-05
4.55981e-05
5.12005e-05
5.65978e-05
6.17674e-05
6.66338e-05
7.12065e-05
7.554e-05
7.95777e-05
8.31887e-05
8.62338e-05
8.85588e-05
9.00543e-05
9.05466e-05
8.96616e-05
8.70089e-05
8.24157e-05
7.63581e-05
7.01096e-05
6.37557e-05
5.81837e-05
5.43767e-05
5.1926e-05
4.89579e-05
4.42256e-05
1.14329e-06
5.90382e-06
9.85856e-06
1.29933e-05
1.55144e-05
1.78508e-05
2.05603e-05
2.42185e-05
2.87114e-05
3.36994e-05
3.88755e-05
4.40758e-05
4.92636e-05
5.44434e-05
5.95714e-05
6.45148e-05
6.91731e-05
7.3564e-05
7.76461e-05
8.12885e-05
8.43587e-05
8.67446e-05
8.83821e-05
8.9126e-05
8.86678e-05
8.67104e-05
8.32093e-05
7.87995e-05
7.42224e-05
6.90856e-05
6.38735e-05
5.95488e-05
5.62601e-05
5.24319e-05
4.66787e-05
9.98133e-07
5.58333e-06
9.44442e-06
1.25808e-05
1.51602e-05
1.7531e-05
2.01462e-05
2.3497e-05
2.74623e-05
3.18216e-05
3.64056e-05
4.115e-05
4.60643e-05
5.11579e-05
5.63646e-05
6.15019e-05
6.63352e-05
7.0835e-05
7.4982e-05
7.8643e-05
8.16891e-05
8.40452e-05
8.56914e-05
8.65158e-05
8.62924e-05
8.48516e-05
8.23348e-05
7.96181e-05
7.68476e-05
7.31852e-05
6.86821e-05
6.41698e-05
6.02802e-05
5.57601e-05
4.9175e-05
8.32548e-07
5.20441e-06
8.93061e-06
1.20154e-05
1.45837e-05
1.6909e-05
1.93732e-05
2.2381e-05
2.58783e-05
2.9746e-05
3.3905e-05
3.83457e-05
4.30995e-05
4.81773e-05
5.35004e-05
5.88546e-05
6.39226e-05
6.85751e-05
7.27762e-05
7.64247e-05
7.93905e-05
8.16299e-05
8.31585e-05
8.38887e-05
8.3672e-05
8.24601e-05
8.05958e-05
7.9269e-05
7.81849e-05
7.61799e-05
7.28245e-05
6.86082e-05
6.4366e-05
5.92032e-05
5.17485e-05
6.84964e-07
4.82178e-06
8.38866e-06
1.13888e-05
1.39187e-05
1.61846e-05
1.85119e-05
2.12287e-05
2.43257e-05
2.77529e-05
3.14949e-05
3.55912e-05
4.01124e-05
4.51003e-05
5.04879e-05
5.60387e-05
6.1371e-05
6.62209e-05
7.05159e-05
7.4184e-05
7.70853e-05
7.9206e-05
8.0601e-05
8.12215e-05
8.10015e-05
7.99671e-05
7.8574e-05
7.82417e-05
7.83744e-05
7.77048e-05
7.54857e-05
7.18387e-05
6.756e-05
6.20238e-05
5.40573e-05
5.59399e-07
4.47231e-06
7.87761e-06
1.07751e-05
1.3238e-05
1.54183e-05
1.75925e-05
2.00102e-05
2.26888e-05
2.56329e-05
2.8892e-05
3.25798e-05
3.68434e-05
4.17818e-05
4.73364e-05
5.32118e-05
5.892e-05
6.40637e-05
6.85374e-05
7.22662e-05
7.50992e-05
7.70556e-05
7.82469e-05
7.87221e-05
7.85507e-05
7.78182e-05
7.69442e-05
7.73969e-05
7.84029e-05
7.87824e-05
7.76477e-05
7.47368e-05
7.06237e-05
6.48554e-05
5.65218e-05
4.31176e-07
4.09718e-06
7.30634e-06
1.00449e-05
1.2361e-05
1.43745e-05
1.63054e-05
1.83097e-05
2.04556e-05
2.28325e-05
2.56048e-05
2.90063e-05
3.32708e-05
3.8505e-05
4.45588e-05
5.09792e-05
5.71365e-05
6.25865e-05
6.72299e-05
7.09729e-05
7.36605e-05
7.53251e-05
7.61041e-05
7.61883e-05
7.59296e-05
7.56235e-05
7.561e-05
7.69596e-05
7.85654e-05
7.94387e-05
7.89455e-05
7.67033e-05
7.29758e-05
6.73352e-05
5.91263e-05
3.11658e-07
3.65315e-06
6.59299e-06
9.09017e-06
1.11763e-05
1.29656e-05
1.45996e-05
1.62153e-05
1.79832e-05
2.0149e-05
2.30335e-05
2.69478e-05
3.20518e-05
3.82231e-05
4.50238e-05
5.18004e-05
5.79207e-05
6.31566e-05
6.75242e-05
7.09238e-05
7.32404e-05
7.44638e-05
7.46337e-05
7.39946e-05
7.32069e-05
7.30471e-05
7.40844e-05
7.69239e-05
7.97121e-05
8.12267e-05
8.11245e-05
7.92811e-05
7.58423e-05
7.03268e-05
6.23518e-05
2.96392e-07
3.25716e-06
5.90102e-06
8.15459e-06
1.00384e-05
1.16372e-05
1.3119e-05
1.47501e-05
1.68938e-05
1.99632e-05
2.42716e-05
2.98647e-05
3.64387e-05
4.34087e-05
5.00976e-05
5.59614e-05
6.07719e-05
6.47019e-05
6.79236e-05
7.03983e-05
7.20694e-05
7.28543e-05
7.26299e-05
7.14966e-05
7.01639e-05
6.98836e-05
7.18353e-05
7.63914e-05
8.08221e-05
8.32553e-05
8.34467e-05
8.17738e-05
7.85522e-05
7.32722e-05
6.58136e-05
3.54278e-07
3.11381e-06
5.61527e-06
7.778e-06
9.64452e-06
1.14197e-05
1.3473e-05
1.62832e-05
2.02849e-05
2.56402e-05
3.20952e-05
3.90306e-05
4.56771e-05
5.13804e-05
5.57996e-05
5.8974e-05
6.12263e-05
6.29004e-05
6.42304e-05
6.53443e-05
6.62488e-05
6.68459e-05
6.68891e-05
6.61989e-05
6.52146e-05
6.53755e-05
6.86727e-05
7.55473e-05
8.24957e-05
8.66567e-05
8.74381e-05
8.56896e-05
8.22444e-05
7.66903e-05
6.91393e-05
4.29195e-07
3.23695e-06
5.86801e-06
8.3234e-06
1.08256e-05
1.37999e-05
1.77193e-05
2.28696e-05
2.9117e-05
3.58986e-05
4.24546e-05
4.81167e-05
5.24797e-05
5.54215e-05
5.70339e-05
5.75314e-05
5.7183e-05
5.62494e-05
5.50415e-05
5.39435e-05
5.33421e-05
5.3535e-05
5.43941e-05
5.54073e-05
5.63503e-05
5.82387e-05
6.34898e-05
7.28848e-05
8.26896e-05
8.91512e-05
9.10344e-05
8.93816e-05
8.56031e-05
7.95557e-05
7.16308e-05
5.69947e-07
3.72318e-06
6.90672e-06
1.03076e-05
1.42622e-05
1.90756e-05
2.47808e-05
3.10468e-05
3.73853e-05
4.3497e-05
4.93798e-05
5.50702e-05
6.03209e-05
6.4565e-05
6.71607e-05
6.76563e-05
6.5886e-05
6.19344e-05
5.6161e-05
4.93296e-05
4.28017e-05
3.83328e-05
3.70993e-05
3.88552e-05
4.23847e-05
4.73631e-05
5.57071e-05
6.83769e-05
8.17237e-05
9.12335e-05
9.48442e-05
9.35577e-05
8.93514e-05
8.24313e-05
7.34616e-05
8.31043e-07
4.59315e-06
8.57142e-06
1.29589e-05
1.78698e-05
2.32071e-05
2.87893e-05
3.47576e-05
4.18811e-05
5.12335e-05
6.32675e-05
7.71002e-05
9.07603e-05
0.000102145
0.000109791
0.000112987
0.000111454
0.000105066
9.37899e-05
7.79674e-05
5.91698e-05
4.08983e-05
2.77844e-05
2.28285e-05
2.53132e-05
3.26175e-05
4.40668e-05
6.00704e-05
7.72533e-05
9.04762e-05
9.66835e-05
9.64868e-05
9.22541e-05
8.46357e-05
7.45102e-05
1.03783e-06
5.23623e-06
9.50032e-06
1.39229e-05
1.85173e-05
2.34107e-05
2.92944e-05
3.76871e-05
5.043e-05
6.84161e-05
9.05363e-05
0.00011392
0.000135333
0.000152545
0.000164695
0.000171704
0.000173527
0.000169782
0.00015965
0.000141962
0.000115916
8.30792e-05
4.95424e-05
2.42495e-05
1.34836e-05
1.65665e-05
2.90007e-05
4.78628e-05
6.91106e-05
8.69174e-05
9.67885e-05
9.85502e-05
9.48886e-05
8.69064e-05
7.53854e-05
8.63055e-07
4.97492e-06
8.87567e-06
1.27616e-05
1.69166e-05
2.20009e-05
2.93445e-05
4.07303e-05
5.74637e-05
7.92475e-05
0.000103897
0.000128263
0.000149651
0.000166795
0.000179818
0.000189374
0.000195863
0.000199126
0.000198362
0.000191968
0.000177146
0.000150323
0.000110671
6.51295e-05
2.74619e-05
9.738e-06
1.30794e-05
3.08218e-05
5.51011e-05
7.81464e-05
9.33726e-05
9.87362e-05
9.67952e-05
8.917e-05
7.67831e-05
4.84081e-07
4.15313e-06
7.61575e-06
1.12218e-05
1.55253e-05
2.14563e-05
3.03327e-05
4.33709e-05
6.08448e-05
8.15447e-05
0.000103128
0.000123111
0.000139808
0.000152779
0.000162595
0.000170158
0.000176186
0.000181095
0.000184964
0.00018743
0.000187266
0.000181502
0.000164388
0.000129974
8.16829e-05
3.61354e-05
1.21105e-05
1.50924e-05
3.65572e-05
6.37662e-05
8.56044e-05
9.63545e-05
9.75595e-05
9.17326e-05
8.10047e-05
3.67662e-07
3.69195e-06
7.19164e-06
1.14246e-05
1.72637e-05
2.58626e-05
3.82654e-05
5.47298e-05
7.42566e-05
9.4806e-05
0.000114124
0.000130577
0.00014357
0.000153369
0.000160543
0.000165539
0.000168609
0.000169945
0.000169786
0.00016855
0.000166678
0.000164294
0.000160264
0.000150336
0.000126811
8.70539e-05
4.42377e-05
1.99256e-05
2.35298e-05
4.66683e-05
7.35888e-05
9.14418e-05
9.75518e-05
9.52179e-05
8.90608e-05
4.6617e-07
4.32191e-06
9.03942e-06
1.56577e-05
2.53527e-05
3.89902e-05
5.64794e-05
7.65028e-05
9.69666e-05
0.000115889
0.000132133
0.000145606
0.000156885
0.000166581
0.000174931
0.000181765
0.000186651
0.000189092
0.000188657
0.00018512
0.000178379
0.000168414
0.000155663
0.000141547
0.000126397
0.000105886
7.62294e-05
4.57897e-05
3.11805e-05
3.94991e-05
6.27645e-05
8.47969e-05
9.60329e-05
9.8692e-05
9.92146e-05
6.99664e-07
6.54897e-06
1.41672e-05
2.49263e-05
3.94987e-05
5.73506e-05
7.67425e-05
9.55338e-05
0.000112214
0.000126438
0.000138832
0.000150336
0.000161606
0.000172781
0.000183538
0.000193269
0.000201253
0.000206811
0.00020936
0.000208457
0.000203623
0.000193964
0.000178208
0.000156613
0.000132862
0.000110379
8.80357e-05
6.53703e-05
4.85398e-05
4.64621e-05
6.13077e-05
8.20915e-05
9.59927e-05
0.000102438
0.000107329
1.15742e-06
1.02483e-05
2.14916e-05
3.57325e-05
5.23207e-05
6.94701e-05
8.536e-05
9.92431e-05
0.000111626
0.000123568
0.000135873
0.00014877
0.000162018
0.000175088
0.000187325
0.000198044
0.000206594
0.00021243
0.00021511
0.000214294
0.000209593
0.000200068
0.00018432
0.000162717
0.000139217
0.000117696
9.86235e-05
8.14337e-05
6.7044e-05
6.10448e-05
6.85979e-05
8.48827e-05
9.83076e-05
0.000105625
0.000109358
1.89437e-06
1.38626e-05
2.70607e-05
4.13364e-05
5.55361e-05
6.86304e-05
8.06958e-05
9.27608e-05
0.000105756
0.000119838
0.000134551
0.000149276
0.000163481
0.000176738
0.000188655
0.000198809
0.000206707
0.000211848
0.000213735
0.00021189
0.000205738
0.000193991
0.000175226
0.000151721
0.000130695
0.000116352
0.000106544
9.74004e-05
8.69324e-05
7.96086e-05
8.20445e-05
9.27644e-05
0.000102784
0.00010696
0.00010307
2.70773e-06
1.51612e-05
2.76372e-05
3.97923e-05
5.15131e-05
6.34156e-05
7.64684e-05
9.10435e-05
0.000106639
0.000122401
0.000137702
0.000152245
0.000165891
0.000178493
0.0001898
0.000199434
0.000206878
0.000211561
0.000212885
0.000210248
0.000202869
0.00018917
0.00016771
0.000141994
0.000122379
0.000115166
0.000115676
0.000114317
0.000107615
9.98429e-05
9.77507e-05
0.000102391
0.000106903
0.00010495
9.15792e-05
3.34472e-06
1.48993e-05
2.64525e-05
3.82186e-05
5.08096e-05
6.47728e-05
8.00238e-05
9.59057e-05
0.000111756
0.000127266
0.000142368
0.000156986
0.000170915
0.000183826
0.000195303
0.000204865
0.000211968
0.000216033
0.000216456
0.000212652
0.000203793
0.000188264
0.000164487
0.000135696
0.000114002
0.000110387
0.000120306
0.000127439
0.000125523
0.00011833
0.000112681
0.000111162
0.000109448
0.000101247
8.18959e-05
3.70073e-06
1.50487e-05
2.69716e-05
3.97953e-05
5.36908e-05
6.84992e-05
8.38099e-05
9.92852e-05
0.000114811
0.000130355
0.00014579
0.000160875
0.000175291
0.000188681
0.000200634
0.000210663
0.000218198
0.000222602
0.000223175
0.000219265
0.000210062
0.000193975
0.00016904
0.000136634
0.000107756
9.91727e-05
0.000114083
0.000131123
0.000137006
0.000132854
0.000125357
0.000118952
0.00011189
9.90892e-05
7.7642e-05
3.76766e-06
1.54571e-05
2.78198e-05
4.09953e-05
5.49475e-05
6.95316e-05
8.45342e-05
9.97621e-05
0.000115072
0.000130344
0.000145461
0.000160303
0.000174709
0.000188449
0.00020118
0.000212425
0.00022158
0.000227917
0.000230597
0.000228839
0.0002217
0.000207711
0.000184521
0.00015081
0.000113157
9.02204e-05
9.80514e-05
0.000122014
0.000138795
0.000141622
0.000135516
0.000126658
0.000116017
0.00010031
7.85772e-05
3.66715e-06
1.53618e-05
2.76471e-05
4.07108e-05
5.45859e-05
6.91082e-05
8.39596e-05
9.88609e-05
0.000113698
0.000128485
0.000143249
0.000157936
0.000172384
0.000186337
0.000199454
0.000211308
0.00022139
0.000229078
0.000233638
0.000234365
0.000230393
0.000220457
0.000202366
0.000173094
0.000132938
9.46742e-05
8.24679e-05
0.000101924
0.000128217
0.000141824
0.00014137
0.00013337
0.000121365
0.00010434
8.31183e-05
3.55012e-06
1.51882e-05
2.76037e-05
4.09756e-05
5.51247e-05
6.9634e-05
8.41107e-05
9.84325e-05
0.000112749
0.00012728
0.000142116
0.000157145
0.000172091
0.000186587
0.000200212
0.000212512
0.000223004
0.00023115
0.000236388
0.000238194
0.000235938
0.000228728
0.000215032
0.000192164
0.000157294
0.000114189
8.20296e-05
8.3709e-05
0.000109542
0.000133011
0.000141388
0.000137678
0.000126919
0.000110101
8.95273e-05
3.54702e-06
1.5857e-05
2.89238e-05
4.26306e-05
5.65048e-05
7.01447e-05
8.34965e-05
9.6869e-05
0.000110705
0.000125303
0.000140678
0.000156597
0.000172671
0.000188441
0.000203402
0.000217019
0.000228722
0.000237895
0.000243966
0.000246408
0.000244698
0.000238168
0.000225779
0.000205703
0.000175385
0.000134588
9.36112e-05
7.67276e-05
9.19744e-05
0.000119127
0.000136068
0.000138528
0.000130992
0.000115621
9.56439e-05
3.57609e-06
1.6365e-05
2.93155e-05
4.20982e-05
5.44532e-05
6.65061e-05
7.87175e-05
9.16406e-05
0.000105671
0.000120909
0.000137179
0.000154143
0.000171397
0.000188507
0.000205001
0.000220352
0.000233967
0.000245154
0.000253259
0.000257656
0.000257639
0.000252499
0.00024131
0.000222567
0.000194041
0.000154493
0.000109868
7.97268e-05
8.09245e-05
0.000105252
0.000128024
0.000136846
0.000133468
0.000120131
0.000100126
3.58473e-06
1.58468e-05
2.78064e-05
3.93175e-05
5.06271e-05
6.22706e-05
7.47731e-05
8.84499e-05
0.000103366
0.000119384
0.000136248
0.000153665
0.000171343
0.000188965
0.000206145
0.000222437
0.000237305
0.000250125
0.000260209
0.000266846
0.00026924
0.000266487
0.000257546
0.000240972
0.000214552
0.000176195
0.000129038
8.89458e-05
7.64608e-05
9.39016e-05
0.000119188
0.000133328
0.000134017
0.000122748
0.000102418
3.56675e-06
1.49503e-05
2.61877e-05
3.74148e-05
4.90682e-05
6.15821e-05
7.51604e-05
8.97874e-05
0.000105338
0.000121648
0.000138549
0.000155879
0.000173468
0.000191097
0.000208444
0.000225116
0.000240606
0.000254361
0.000265746
0.000274058
0.000278489
0.000278134
0.000271893
0.000258355
0.000235434
0.000200432
0.00015341
0.000105629
7.91787e-05
8.59736e-05
0.000110725
0.000129099
0.000133494
0.000124139
0.000103532
3.58674e-06
1.46562e-05
2.59153e-05
3.75962e-05
5.00053e-05
6.33048e-05
7.74647e-05
9.23842e-05
0.000107977
0.00012418
0.000140933
0.000158168
0.000175778
0.000193582
0.000211283
0.000228502
0.000244732
0.000259424
0.000271962
0.000281647
0.000287668
0.000289137
0.00028506
0.000274108
0.000254571
0.000224006
0.00018058
0.000130006
9.13193e-05
8.31141e-05
0.000102521
0.0001236
0.000131587
0.000124578
0.000104745
3.62907e-06
1.47574e-05
2.62524e-05
3.83418e-05
5.11888e-05
6.48051e-05
7.90992e-05
9.39912e-05
0.000109453
0.000125483
0.000142074
0.000159199
0.000176791
0.000194712
0.000212721
0.000230496
0.000247576
0.000263455
0.000277517
0.00028903
0.000297109
0.000300779
0.000298993
0.000290589
0.000273995
0.000247286
0.000208512
0.000159634
0.000113672
8.96255e-05
9.76724e-05
0.000118117
0.000128992
0.000124773
0.000106813
3.73031e-06
1.52027e-05
2.71552e-05
3.97885e-05
5.31389e-05
6.71083e-05
8.156e-05
9.64205e-05
0.000111694
0.000127412
0.000143599
0.000160259
0.000177363
0.000194823
0.000212472
0.000230076
0.000247283
0.000263724
0.000278888
0.000292117
0.000302517
0.00030903
0.000310468
0.000305523
0.000292742
0.000270324
0.000236409
0.000191491
0.000143244
0.000106874
9.99167e-05
0.000114835
0.000126654
0.000125115
0.00010977
3.93277e-06
1.60551e-05
2.86546e-05
4.18699e-05
5.56318e-05
6.97914e-05
8.42315e-05
9.8937e-05
0.000113971
0.000129408
0.000145294
0.000161642
0.000178423
0.000195537
0.000212816
0.000230044
0.000246918
0.000263192
0.000278476
0.000292295
0.000303894
0.000312321
0.000316427
0.000314865
0.000306101
0.000288473
0.000260342
0.000221311
0.000175048
0.000132183
0.000111509
0.000116864
0.000126593
0.000126365
0.000112938
4.22848e-06
1.69964e-05
3.01412e-05
4.37506e-05
5.77147e-05
7.1905e-05
8.62679e-05
0.000100861
0.000115806
0.000131214
0.000147148
0.000163617
0.00018056
0.000197834
0.000215208
0.000232412
0.000249152
0.000265209
0.000280262
0.000293983
0.000305767
0.000314823
0.000320151
0.000320515
0.000314457
0.000300402
0.000277007
0.000244108
0.000202268
0.000158446
0.000129126
0.000124666
0.000130061
0.000128983
0.000115371
4.59833e-06
1.79822e-05
3.16012e-05
4.54727e-05
5.94774e-05
7.35579e-05
8.77606e-05
0.000102233
0.000117161
0.000132695
0.00014892
0.000165828
0.000183306
0.000201124
0.000218934
0.000236352
0.00025304
0.000268772
0.000283301
0.000296454
0.000307827
0.000316831
0.000322626
0.000324073
0.000319765
0.000308214
0.000288332
0.000259844
0.000222463
0.000180437
0.00014742
0.000135613
0.000135957
0.000132227
0.000116419
4.99961e-06
1.88214e-05
3.25425e-05
4.61844e-05
5.97947e-05
7.35012e-05
8.74589e-05
0.00010185
0.00011687
0.000132696
0.000149453
0.000167153
0.000185642
0.000204565
0.000223389
0.000241501
0.000258387
0.000273705
0.000287222
0.000298888
0.00030862
0.000316217
0.00032123
0.000322819
0.000319732
0.000310533
0.000294226
0.000269736
0.000236058
0.000196807
0.000163226
0.000147094
0.000142751
0.000135225
0.00011576
5.29297e-06
1.87566e-05
3.19902e-05
4.52222e-05
5.87051e-05
7.25696e-05
8.68117e-05
0.000101442
0.0001166
0.00013256
0.000149631
0.000168008
0.000187623
0.000208054
0.000228566
0.000248228
0.000266215
0.00028188
0.000294742
0.000304715
0.000311909
0.000316528
0.000318726
0.000318398
0.000314964
0.000307442
0.000294827
0.000274593
0.000244933
0.000208806
0.000176008
0.000157279
0.000148695
0.000137108
0.000114277
5.56082e-06
1.85633e-05
3.18211e-05
4.56805e-05
6.0186e-05
7.50367e-05
8.98279e-05
0.000104395
0.000118978
0.000134136
0.00015054
0.000168718
0.00018881
0.000210426
0.000232673
0.000254301
0.000274136
0.000291076
0.000304298
0.000313496
0.000318698
0.000320217
0.000318623
0.000314675
0.000309022
0.000301852
0.000292171
0.000275975
0.000250552
0.00021801
0.000186723
0.000166446
0.000154119
0.00013867
0.000113313
5.98609e-06
1.95202e-05
3.40361e-05
4.96569e-05
6.58057e-05
8.15916e-05
9.63648e-05
0.00011009
0.000123346
0.000137078
0.000152312
0.000169875
0.000190088
0.000212621
0.000236428
0.000259984
0.000281753
0.00030026
0.000314345
0.000323442
0.000327383
0.00032636
0.000321031
0.000312776
0.000303659
0.000295675
0.000287842
0.000275204
0.000254067
0.00022536
0.000195907
0.000174609
0.000159015
0.000140288
0.000113698
6.67381e-06
2.20481e-05
3.89326e-05
5.68422e-05
7.44047e-05
9.03559e-05
0.000104232
0.000116471
0.000128106
0.000140419
0.000154686
0.000171929
0.000192592
0.000216375
0.000242063
0.000267842
0.00029181
0.000312194
0.000327495
0.000336882
0.00033996
0.000336697
0.00032761
0.000314399
0.000300509
0.000290177
0.000282818
0.000273036
0.000256037
0.000231387
0.000204401
0.000182609
0.000164442
0.000143012
0.000115656
7.71164e-06
2.6231e-05
4.60437e-05
6.57528e-05
8.34818e-05
9.82637e-05
0.000110357
0.000120814
0.000130989
0.000142293
0.00015608
0.000173452
0.000194928
0.000220222
0.000248018
0.000276263
0.000302794
0.000325543
0.000342785
0.00035338
0.00035663
0.000352132
0.000339936
0.000321521
0.000301335
0.000286216
0.000277285
0.000269411
0.000256334
0.000235813
0.000211629
0.000189871
0.000169798
0.000146153
0.000118296
8.9758e-06
3.09533e-05
5.28309e-05
7.26394e-05
8.89467e-05
0.000101804
0.000112268
0.000121666
0.000131288
0.000142391
0.000156222
0.000173882
0.000195977
0.00022235
0.000251759
0.000282077
0.000310994
0.000336241
0.000355921
0.00036864
0.000373409
0.000369471
0.000356297
0.000334558
0.000308463
0.000286357
0.000272723
0.00026459
0.000254663
0.000238358
0.000217558
0.000196626
0.000175431
0.000149966
0.000121176
9.92975e-06
3.38849e-05
5.59251e-05
7.44787e-05
8.92496e-05
0.000101091
0.000111168
0.000120537
0.000130171
0.000141112
0.000154548
0.000171714
0.000193521
0.00022018
0.000250702
0.000282979
0.000314431
0.000342551
0.000365133
0.000380596
0.000387675
0.000385357
0.000372729
0.000349719
0.000319587
0.000290431
0.000269999
0.000259246
0.000251133
0.000238713
0.000221418
0.00020187
0.000180207
0.000153264
0.000123329
1.01958e-05
3.39989e-05
5.50128e-05
7.26456e-05
8.72636e-05
9.95303e-05
0.000110085
0.000119596
0.000128862
0.000138897
0.000150978
0.00016657
0.000186986
0.000212965
0.000243971
0.000278049
0.000312349
0.000344025
0.000370467
0.000389778
0.000400387
0.000401058
0.000390584
0.000368197
0.000335693
0.000299691
0.000270345
0.000254032
0.000246091
0.00023733
0.000223618
0.000205902
0.000184325
0.000156227
0.000125116
9.94916e-06
3.23205e-05
5.25904e-05
7.06513e-05
8.64264e-05
9.97632e-05
0.000110846
0.00012031
0.000129095
0.000138375
0.000149553
0.000164164
0.000183592
0.000208743
0.000239433
0.000274084
0.000309994
0.000344249
0.000374018
0.000397041
0.00041158
0.000416148
0.00040932
0.000389756
0.00035752
0.000316585
0.000277237
0.00025132
0.000239987
0.000233563
0.000223513
0.000208206
0.00018739
0.000158646
0.00012665
9.92223e-06
3.14506e-05
5.22969e-05
7.18594e-05
8.89924e-05
0.000102903
0.000113817
0.000122673
0.000130693
0.000139335
0.000150281
0.000165215
0.000185411
0.000211423
0.000242808
0.000278024
0.000314674
0.000350156
0.000381829
0.000407378
0.000424991
0.000433
0.00042985
0.000413862
0.000383746
0.000340805
0.000293102
0.000255139
0.000235698
0.000228491
0.000221298
0.000208713
0.00018932
0.000160537
0.000127974
1.07442e-05
3.37511e-05
5.68442e-05
7.83064e-05
9.61198e-05
0.000109585
0.000119483
0.000127102
0.000133823
0.000141298
0.000151523
0.000166508
0.000187631
0.00021516
0.000248189
0.000284852
0.000322778
0.000359609
0.000393045
0.000420943
0.000441457
0.000452899
0.000453517
0.000441307
0.000414107
0.000371261
0.00031784
0.000267802
0.000236191
0.000223753
0.000217362
0.000207236
0.000189733
0.000161473
0.000128475
1.22187e-05
3.87318e-05
6.44492e-05
8.6794e-05
0.000103871
0.000115904
0.000124366
0.000130738
0.000136449
0.000143238
0.000153197
0.000168386
0.000190181
0.000218712
0.000252873
0.000290629
0.000329619
0.000367641
0.000402698
0.000432887
0.000456427
0.000471643
0.000476557
0.000468838
0.000445753
0.000405301
0.000349721
0.000290252
0.000244784
0.000222561
0.000213594
0.000204598
0.000188747
0.000161092
0.00012746