/*--------------------------------*- C++ -*----------------------------------*\
| =========                 |                                                 |
| \\      /  F ield         | OpenFOAM: The Open Source CFD Toolbox           |
|  \\    /   O peration     | Version:  v2006                                 |
|   \\  /    A nd           | Website:  www.openfoam.com                      |
|    \\/     M anipulation  |                                                 |
\*---------------------------------------------------------------------------*/
FoamFile
{
    version     2.0;
    format      ascii;
    class       surfaceScalarField;
    location    "28";
    object      phi;
}
// * * * * * * * * * * * * * * * * * * * * * * * * * * * * * * * * * * * * * //

dimensions      [1 0 -1 0 0 0 0];
oriented        oriented;


internalField   nonuniform List<scalar> 
228225
(
-1.0121e-05
-1.53655e-09
2.82837e-07
-9.49356e-06
-9.64933e-07
3.37952e-07
-8.32136e-06
-1.46901e-06
2.97041e-07
-6.83091e-06
-1.67072e-06
1.80365e-07
-5.20981e-06
-1.67523e-06
5.4217e-08
-3.59502e-06
-1.58332e-06
-3.13753e-08
-2.0574e-06
-1.46146e-06
-7.60883e-08
-6.10238e-07
-1.33696e-06
-1.10132e-07
7.38062e-07
-1.21498e-06
-1.33253e-07
1.98189e-06
-1.09803e-06
-1.45734e-07
3.11982e-06
-9.87439e-07
-1.50417e-07
4.1563e-06
-8.84453e-07
-1.51962e-07
5.09868e-06
-7.8938e-07
-1.52937e-07
5.95495e-06
-7.02111e-07
-1.54091e-07
6.73274e-06
-6.22234e-07
-1.55496e-07
7.4387e-06
-5.48993e-07
-1.56897e-07
8.07804e-06
-4.81337e-07
-1.57935e-07
8.65423e-06
-4.17987e-07
-1.58138e-07
9.16886e-06
-3.57523e-07
-1.57046e-07
9.62132e-06
-2.98262e-07
-1.54137e-07
1.00083e-05
-2.38028e-07
-1.48844e-07
1.03236e-05
-1.7478e-07
-1.4046e-07
1.05592e-05
-1.07408e-07
-1.28156e-07
1.07058e-05
-3.54819e-08
-1.11039e-07
1.07466e-05
4.73582e-08
-8.81455e-08
1.066e-05
1.45272e-07
-5.86288e-08
1.0426e-05
2.56569e-07
-2.2499e-08
1.00112e-05
3.84417e-07
3.04742e-08
9.3763e-06
5.31694e-07
1.03222e-07
8.48415e-06
7.02939e-07
1.89253e-07
7.28147e-06
9.08904e-07
2.93831e-07
5.69552e-06
1.17152e-06
4.14478e-07
3.69058e-06
1.48934e-06
5.1556e-07
1.49106e-06
1.6976e-06
5.01459e-07
1.22407e-06
2.65673e-07
-1.63554e-06
1.57428e-06
5.93521e-08
-3.79553e-06
1.48514e-06
-2.9002e-07
-5.61035e-06
1.03713e-06
-6.91404e-07
-6.98408e-06
6.63715e-07
-9.60563e-07
-7.93703e-06
3.82972e-07
-1.10518e-06
-8.49524e-06
1.60615e-07
-1.18568e-06
-8.70039e-06
-2.22161e-08
-1.23401e-06
-8.66275e-06
-1.10965e-07
-1.26355e-06
-8.43814e-06
-1.62584e-07
-1.27693e-06
-8.08076e-06
-1.79272e-07
-1.27607e-06
-7.62686e-06
-1.76684e-07
-1.26459e-06
-7.09607e-06
-1.67081e-07
-1.24809e-06
-6.49945e-06
-1.54326e-07
-1.2316e-06
-5.84477e-06
-1.39603e-07
-1.21711e-06
-5.13902e-06
-1.23214e-07
-1.20469e-06
-4.38907e-06
-1.05125e-07
-1.19375e-06
-3.6019e-06
-8.50407e-08
-1.18338e-06
-2.78467e-06
-6.25222e-08
-1.17261e-06
-1.94439e-06
-3.72834e-08
-1.16044e-06
-1.08764e-06
-9.03611e-09
-1.14589e-06
-2.39549e-07
4.18134e-08
-1.12783e-06
5.90443e-07
1.00257e-07
-1.10493e-06
1.3924e-06
1.66523e-07
-1.07578e-06
2.15031e-06
2.45589e-07
-1.03888e-06
2.8484e-06
3.41756e-07
-9.92385e-07
3.4678e-06
4.59952e-07
-9.33966e-07
3.97873e-06
6.06384e-07
-8.60629e-07
4.34164e-06
7.89852e-07
-7.68222e-07
4.50134e-06
1.02295e-06
-6.50828e-07
4.3867e-06
1.31925e-06
-5.01533e-07
3.9196e-06
1.68894e-06
-3.12785e-07
3.05541e-06
2.12422e-06
-8.83958e-08
1.87203e-06
2.53121e-06
1.41441e-07
6.69315e-07
2.64125e-06
2.58548e-07
1.71976e-06
1.72316e-07
-2.51446e-07
1.73764e-06
8.78159e-08
-1.40435e-06
2.6736e-06
-3.56571e-08
-2.9071e-06
2.6916e-06
-1.51634e-07
-4.39402e-06
2.37901e-06
-2.28213e-07
-5.65639e-06
1.91608e-06
-2.70627e-07
-6.60423e-06
1.41092e-06
-3.02393e-07
-7.23698e-06
9.458e-07
-3.35219e-07
-7.55963e-06
5.81181e-07
-3.69459e-07
-7.65633e-06
3.3295e-07
-3.98805e-07
-7.59184e-06
1.77133e-07
-4.20873e-07
-7.41065e-06
8.02276e-08
-4.38086e-07
-7.14481e-06
2.00901e-08
-4.5299e-07
-6.79655e-06
-3.60758e-08
-4.66479e-07
-6.37933e-06
-7.78354e-08
-4.78963e-07
-5.9098e-06
-1.02088e-07
-4.90622e-07
-5.39934e-06
-1.13994e-07
-5.01556e-07
-4.85699e-06
-1.15474e-07
-5.11868e-07
-4.29069e-06
-1.07179e-07
-5.21597e-07
-3.70827e-06
-8.88605e-08
-5.30788e-07
-3.11859e-06
-5.92681e-08
-5.39381e-07
-2.51561e-06
-1.3907e-08
-5.4719e-07
-1.89524e-06
3.36655e-08
-5.53688e-07
-1.26756e-06
9.72547e-08
-5.58322e-07
-6.45482e-07
1.83861e-07
-5.60252e-07
-4.22614e-08
2.96905e-07
-5.58257e-07
5.26706e-07
4.41768e-07
-5.50657e-07
1.042e-06
6.26302e-07
-5.35075e-07
1.47516e-06
8.64718e-07
-5.0787e-07
1.78258e-06
1.17887e-06
-4.63172e-07
1.90745e-06
1.58735e-06
-3.92816e-07
1.79223e-06
2.092e-06
-2.87717e-07
1.41531e-06
2.64542e-06
-1.44267e-07
8.64074e-07
3.0761e-06
6.11696e-09
2.92466e-07
3.09265e-06
1.19514e-07
1.90776e-06
1.02986e-07
-1.18488e-07
1.74169e-06
1.1394e-07
-4.26542e-07
2.87447e-06
1.07319e-07
-7.37668e-07
2.96594e-06
3.6735e-08
-1.05183e-06
2.7342e-06
-4.10147e-08
-1.37996e-06
2.34693e-06
-1.02623e-07
-1.69741e-06
1.87812e-06
-1.49664e-07
-1.97174e-06
1.40727e-06
-1.87113e-07
-2.17535e-06
1.00295e-06
-2.18184e-07
-2.28793e-06
6.87989e-07
-2.42508e-07
-2.30652e-06
4.5523e-07
-2.59553e-07
-2.24256e-06
2.86549e-07
-2.7034e-07
-2.10846e-06
1.62552e-07
-2.76632e-07
-1.93258e-06
6.80408e-08
-2.8008e-07
-1.71979e-06
-8.83755e-09
-2.81859e-07
-1.4916e-06
-4.7617e-08
-2.82743e-07
-1.243e-06
-7.96291e-08
-2.83026e-07
-9.72305e-07
-1.03315e-07
-2.82918e-07
-6.78648e-07
-1.18319e-07
-2.82571e-07
-3.61776e-07
-1.23691e-07
-2.82086e-07
-2.19134e-08
-1.17649e-07
-2.81518e-07
3.42625e-07
-9.76082e-08
-2.80863e-07
7.16803e-07
-6.05686e-08
-2.79957e-07
1.09871e-06
-5.91796e-09
-2.78733e-07
1.45712e-06
1.0271e-07
-2.77237e-07
1.7879e-06
2.41117e-07
-2.74953e-07
2.07506e-06
4.25503e-07
-2.7083e-07
2.2928e-06
6.71677e-07
-2.63026e-07
2.4095e-06
9.96834e-07
-2.48695e-07
2.39754e-06
1.41494e-06
-2.23967e-07
2.23464e-06
1.93402e-06
-1.8359e-07
1.90772e-06
2.53995e-06
-1.2087e-07
1.43527e-06
3.15201e-06
-3.40726e-08
8.7283e-07
3.57004e-06
6.82919e-08
3.12755e-07
3.52071e-06
1.31334e-07
2.11964e-06
9.94089e-08
2.33427e-07
1.42179e-06
8.6096e-08
3.58919e-07
2.63387e-06
1.14892e-07
3.28184e-07
2.89913e-06
9.73549e-08
1.94244e-07
2.80385e-06
6.41511e-08
-3.41951e-08
2.54214e-06
3.31334e-08
-3.42724e-07
2.1737e-06
1.28375e-08
-6.92478e-07
1.75429e-06
2.60563e-09
-1.02518e-06
1.33391e-06
1.58103e-09
-1.29266e-06
9.49356e-07
5.94843e-09
-1.47473e-06
6.22472e-07
1.46628e-08
-1.57365e-06
3.58959e-07
2.63374e-08
-1.6065e-06
1.56227e-07
3.90075e-08
-1.60191e-06
1.29343e-08
5.03397e-08
-1.54257e-06
-1.27486e-07
5.91383e-08
-1.42663e-06
-2.28141e-07
6.44324e-08
-1.27103e-06
-3.01461e-07
6.60796e-08
-1.08555e-06
-3.53189e-07
6.42562e-08
-8.77051e-07
-3.86201e-07
5.92628e-08
-6.50628e-07
-4.01618e-07
5.13878e-08
-4.10091e-07
-3.9913e-07
4.08358e-08
-1.58498e-07
-3.7699e-07
2.76901e-08
1.00809e-07
-3.31695e-07
1.17296e-08
3.57214e-07
-2.57212e-07
-5.19087e-09
6.25089e-07
-1.43736e-07
-2.14996e-08
8.81631e-07
2.31623e-08
-3.86438e-08
1.1304e-06
2.31108e-07
-5.44161e-08
1.33413e-06
5.35904e-07
-6.79806e-08
1.46095e-06
9.47831e-07
-7.78226e-08
1.48319e-06
1.4729e-06
-8.01818e-08
1.37958e-06
2.10753e-06
-6.98711e-08
1.14561e-06
2.81573e-06
-4.18368e-08
8.12135e-07
3.48147e-06
3.87033e-09
4.42497e-07
3.87386e-06
6.542e-08
1.26089e-07
3.73613e-06
1.00138e-07
2.17129e-06
7.27883e-08
7.42941e-08
1.263e-06
8.40367e-08
1.36894e-07
2.43145e-06
1.39479e-07
1.32637e-07
2.75301e-06
1.50205e-07
7.76974e-08
2.71938e-06
1.39184e-07
-1.63528e-08
2.51519e-06
1.20736e-07
-1.41731e-07
2.1926e-06
1.06247e-07
-2.76704e-07
1.78817e-06
1.00882e-07
-3.95674e-07
1.34744e-06
1.05258e-07
-4.7457e-07
9.09346e-07
1.18722e-07
-4.93094e-07
5.01228e-07
1.39587e-07
-4.37729e-07
1.39725e-07
1.63698e-07
-3.07295e-07
-1.60762e-07
1.86403e-07
-1.01016e-07
-3.99297e-07
2.05828e-07
1.34577e-07
-5.84906e-07
2.2173e-07
3.96179e-07
-7.23719e-07
2.33903e-07
6.74465e-07
-8.22651e-07
2.4285e-07
9.58719e-07
-8.86995e-07
2.49515e-07
1.23811e-06
-9.20457e-07
2.54837e-07
1.50233e-06
-9.25325e-07
2.59483e-07
1.74213e-06
-9.02618e-07
2.63682e-07
1.95007e-06
-8.52055e-07
2.67116e-07
2.12122e-06
-7.71722e-07
2.68865e-07
2.2538e-06
-6.5727e-07
2.67458e-07
2.34926e-06
-5.00472e-07
2.61236e-07
2.41199e-06
-2.88635e-07
2.48997e-07
2.42335e-06
-9.59843e-09
2.29255e-07
2.37496e-06
3.83886e-07
2.00288e-07
2.27384e-06
8.84497e-07
1.64314e-07
2.1076e-06
1.5111e-06
1.27896e-07
1.85854e-06
2.25656e-06
9.9874e-08
1.5164e-06
3.06929e-06
8.83705e-08
1.09637e-06
3.80501e-06
9.61693e-08
6.44307e-07
4.21181e-06
1.13536e-07
2.26987e-07
4.03578e-06
1.16654e-07
2.3236e-06
7.28639e-08
6.2764e-08
1.11789e-06
8.19122e-08
1.1598e-07
2.22585e-06
1.52061e-07
1.02907e-07
2.5846e-06
1.81205e-07
4.42051e-08
2.58916e-06
1.88645e-07
-3.86932e-08
2.41075e-06
1.87085e-07
-1.33318e-07
2.09815e-06
1.88853e-07
-2.28865e-07
1.68177e-06
2.0178e-07
-3.15632e-07
1.20818e-06
2.25887e-07
-3.85297e-07
7.22698e-07
2.56208e-07
-4.32178e-07
2.6263e-07
2.85401e-07
-4.4802e-07
-1.50983e-07
3.06505e-07
-4.10914e-07
-5.13177e-07
3.153e-07
-3.14005e-07
-8.08031e-07
3.11856e-07
-1.58144e-07
-1.04031e-06
2.99619e-07
5.11417e-08
-1.21575e-06
2.82848e-07
3.05124e-07
-1.3416e-06
2.65092e-07
5.93681e-07
-1.42442e-06
2.49018e-07
9.05664e-07
-1.46875e-06
2.36479e-07
1.22905e-06
-1.47721e-06
2.28683e-07
1.55099e-06
-1.45072e-06
2.26364e-07
1.85778e-06
-1.38851e-06
2.2987e-07
2.13497e-06
-1.28786e-06
2.39152e-07
2.36759e-06
-1.1433e-06
2.53613e-07
2.53948e-06
-9.44078e-07
2.71912e-07
2.63451e-06
-6.74723e-07
2.91222e-07
2.63606e-06
-3.16982e-07
3.05929e-07
2.56224e-06
1.49775e-07
3.07944e-07
2.41086e-06
7.4456e-07
2.91216e-07
2.17717e-06
1.48756e-06
2.56991e-07
1.85926e-06
2.35901e-06
2.15104e-07
1.46339e-06
3.28555e-06
1.79114e-07
1.01194e-06
4.09831e-06
1.57504e-07
5.54258e-07
4.52262e-06
1.45983e-07
1.74315e-07
4.2891e-06
1.25306e-07
2.42688e-06
6.89279e-08
-4.01192e-08
1.0695e-06
8.81679e-08
-1.41226e-07
2.14847e-06
1.78078e-07
-2.97599e-07
2.5156e-06
2.25068e-07
-4.82033e-07
2.52499e-06
2.48413e-07
-6.66495e-07
2.3335e-06
2.61583e-07
-8.24138e-07
1.97887e-06
2.76825e-07
-9.40351e-07
1.49953e-06
2.98369e-07
-1.0091e-06
9.56317e-07
3.20575e-07
-1.02782e-06
4.07017e-07
3.34401e-07
-9.92148e-07
-1.06654e-07
3.33649e-07
-9.08561e-07
-5.52193e-07
3.17695e-07
-7.83078e-07
-9.28984e-07
2.90416e-07
-6.12685e-07
-1.23597e-06
2.57651e-07
-4.00959e-07
-1.47666e-06
2.24728e-07
-1.55162e-07
-1.6566e-06
1.95171e-07
1.17146e-07
-1.78431e-06
1.70525e-07
4.09109e-07
-1.86747e-06
1.51215e-07
7.13814e-07
-1.91077e-06
1.37443e-07
1.02409e-06
-1.91668e-06
1.29332e-07
1.33246e-06
-1.88597e-06
1.27019e-07
1.63109e-06
-1.81772e-06
1.30728e-07
1.91163e-06
-1.70902e-06
1.40773e-07
2.16491e-06
-1.55393e-06
1.57523e-07
2.37935e-06
-1.33999e-06
1.81651e-07
2.53975e-06
-1.04862e-06
2.13699e-07
2.63113e-06
-6.59667e-07
2.51492e-07
2.64163e-06
-1.48743e-07
2.88151e-07
2.54738e-06
5.26233e-07
3.1262e-07
2.34254e-06
1.37799e-06
3.14293e-07
2.02394e-06
2.38589e-06
2.91384e-07
1.60223e-06
3.45235e-06
2.54352e-07
1.11089e-06
4.37131e-06
2.17539e-07
6.11609e-07
4.83523e-06
1.85595e-07
1.96763e-07
4.55804e-06
1.44411e-07
2.54968e-06
7.17342e-08
-3.97688e-08
1.01781e-06
9.10646e-08
-1.63629e-07
2.0765e-06
1.95505e-07
-3.56718e-07
2.45174e-06
2.56725e-07
-5.76479e-07
2.45271e-06
2.91884e-07
-7.8296e-07
2.22649e-06
3.13376e-07
-9.46413e-07
1.81148e-06
3.30781e-07
-1.05793e-06
1.26606e-06
3.4498e-07
-1.11854e-06
6.67387e-07
3.4956e-07
-1.13348e-06
8.30804e-08
3.38944e-07
-1.10257e-06
-4.51177e-07
3.137e-07
-1.02337e-06
-9.10942e-07
2.7965e-07
-9.01067e-07
-1.29435e-06
2.43166e-07
-7.39841e-07
-1.60579e-06
2.08684e-07
-5.45559e-07
-1.8496e-06
1.78746e-07
-3.23636e-07
-2.0325e-06
1.54046e-07
-7.83597e-08
-2.16377e-06
1.34248e-07
1.85353e-07
-2.25009e-06
1.18963e-07
4.61461e-07
-2.29481e-06
1.07988e-07
7.43231e-07
-2.29963e-06
1.01231e-07
1.02349e-06
-2.26494e-06
9.87529e-08
1.29481e-06
-2.18976e-06
1.00782e-07
1.54961e-06
-2.07149e-06
1.07732e-07
1.78046e-06
-1.90492e-06
1.20212e-07
1.97916e-06
-1.67787e-06
1.39264e-07
2.13437e-06
-1.37039e-06
1.66648e-07
2.23167e-06
-9.60097e-07
2.03252e-07
2.25389e-06
-4.17373e-07
2.46548e-07
2.19417e-06
2.96762e-07
2.89304e-07
2.0383e-06
1.21503e-06
3.18865e-07
1.77363e-06
2.32733e-06
3.23091e-07
1.40296e-06
3.52189e-06
3.00755e-07
9.56689e-07
4.55412e-06
2.62793e-07
5.03978e-07
5.06768e-06
2.19287e-07
1.48605e-07
4.74929e-06
1.62723e-07
2.62071e-06
7.54863e-08
-6.28649e-08
9.89374e-07
9.0885e-08
-2.21046e-07
2.02992e-06
2.04521e-07
-4.45161e-07
2.40086e-06
2.74779e-07
-6.95391e-07
2.3874e-06
3.15365e-07
-9.33721e-07
2.12737e-06
3.37354e-07
-1.13278e-06
1.66252e-06
3.47991e-07
-1.28226e-06
1.06815e-06
3.47428e-07
-1.37929e-06
4.31475e-07
3.33023e-07
-1.41991e-06
-1.81506e-07
3.05305e-07
-1.4111e-06
-7.29427e-07
2.69544e-07
-1.35071e-06
-1.20352e-06
2.32302e-07
-1.24027e-06
-1.60252e-06
1.97835e-07
-1.08351e-06
-1.93035e-06
1.67894e-07
-8.85549e-07
-2.19044e-06
1.4297e-07
-6.53054e-07
-2.38769e-06
1.22774e-07
-3.93018e-07
-2.53046e-06
1.0673e-07
-1.12295e-07
-2.62514e-06
9.43938e-08
1.81955e-07
-2.67457e-06
8.55644e-08
4.82327e-07
-2.68012e-06
8.01702e-08
7.81251e-07
-2.64207e-06
7.8257e-08
1.07101e-06
-2.55948e-06
8.00007e-08
1.34374e-06
-2.4299e-06
8.57236e-08
1.59096e-06
-2.24806e-06
9.59583e-08
1.8018e-06
-2.00041e-06
1.11744e-07
1.96394e-06
-1.66721e-06
1.34754e-07
2.06689e-06
-1.22939e-06
1.66418e-07
2.10105e-06
-6.58213e-07
2.068e-07
2.05744e-06
8.72305e-08
2.53302e-07
1.92382e-06
1.05125e-06
2.97595e-07
1.69181e-06
2.23391e-06
3.25588e-07
1.3569e-06
3.53113e-06
3.25702e-07
9.38891e-07
4.67336e-06
2.98563e-07
5.04186e-07
5.24935e-06
2.52501e-07
1.54198e-07
4.91352e-06
1.848e-07
2.69129e-06
8.20258e-08
-2.73348e-08
9.32491e-07
8.38202e-08
-1.30952e-07
1.93722e-06
1.96033e-07
-3.04827e-07
2.30639e-06
2.68127e-07
-5.17493e-07
2.29112e-06
3.08799e-07
-7.3742e-07
2.0206e-06
3.26619e-07
-9.43837e-07
1.54105e-06
3.27873e-07
-1.12289e-06
9.31907e-07
3.15345e-07
-1.26325e-06
2.81035e-07
2.90882e-07
-1.35526e-06
-3.47568e-07
2.58179e-07
-1.38869e-06
-9.18577e-07
2.22692e-07
-1.3628e-06
-1.41831e-06
1.89009e-07
-1.27999e-06
-1.84445e-06
1.59223e-07
-1.14526e-06
-2.19873e-06
1.33744e-07
-9.64933e-07
-2.48318e-06
1.12504e-07
-7.47135e-07
-2.70058e-06
9.51859e-08
-5.00143e-07
-2.85876e-06
8.13948e-08
-2.31546e-07
-2.96449e-06
7.08332e-08
5.13037e-08
-3.02072e-06
6.33847e-08
3.41161e-07
-3.02891e-06
5.90138e-08
6.30823e-07
-2.98942e-06
5.77558e-08
9.13076e-07
-2.9014e-06
5.97331e-08
1.18052e-06
-2.76246e-06
6.51795e-08
1.42412e-06
-2.56615e-06
7.45471e-08
1.63314e-06
-2.2981e-06
8.87205e-08
1.79653e-06
-1.93969e-06
1.0914e-07
1.90226e-06
-1.47211e-06
1.37063e-07
1.93798e-06
-8.67221e-07
1.7338e-07
1.89154e-06
-8.40713e-08
2.17923e-07
1.76182e-06
9.14604e-07
2.66651e-07
1.54374e-06
2.14376e-06
3.08637e-07
1.23658e-06
3.51002e-06
3.2872e-07
8.54215e-07
4.73846e-06
3.17611e-07
4.54909e-07
5.37278e-06
2.75939e-07
1.36033e-07
5.02992e-06
2.02099e-07
2.7393e-06
8.69625e-08
7.2036e-09
8.52799e-07
7.20609e-08
-2.2658e-08
1.79303e-06
1.73763e-07
-1.10994e-07
2.1537e-06
2.40873e-07
-2.45719e-07
2.14796e-06
2.77792e-07
-4.08739e-07
1.89239e-06
2.91166e-07
-5.86805e-07
1.43188e-06
2.87232e-07
-7.61475e-07
8.35761e-07
2.70859e-07
-9.1158e-07
1.85341e-07
2.45885e-07
-1.01799e-06
-4.57167e-07
2.16123e-07
-1.06867e-06
-1.05312e-06
1.85341e-07
-1.06003e-06
-1.58302e-06
1.56204e-07
-9.94513e-07
-2.03963e-06
1.29786e-07
-8.77373e-07
-2.42212e-06
1.06373e-07
-7.14728e-07
-2.73186e-06
8.61624e-08
-5.13972e-07
-2.97048e-06
6.92802e-08
-2.83877e-07
-3.14439e-06
5.56739e-08
-3.25212e-08
-3.261e-06
4.52975e-08
2.33153e-07
-3.32437e-06
3.81215e-08
5.06462e-07
-3.33621e-06
3.41403e-08
7.8082e-07
-3.29698e-06
3.33565e-08
1.04971e-06
-3.20594e-06
3.57962e-08
1.3065e-06
-3.06067e-06
4.15486e-08
1.54248e-06
-2.85294e-06
5.09434e-08
1.74675e-06
-2.56692e-06
6.4655e-08
1.90839e-06
-2.18493e-06
8.36922e-08
2.01413e-06
-1.68666e-06
1.08887e-07
2.04934e-06
-1.04354e-06
1.41182e-07
2.00223e-06
-2.18264e-07
1.81421e-07
1.85972e-06
8.28891e-07
2.2844e-07
1.62257e-06
2.10565e-06
2.7564e-07
1.2971e-06
3.52665e-06
3.09389e-07
9.01415e-07
4.81992e-06
3.14805e-07
4.90225e-07
5.50151e-06
2.82836e-07
1.53017e-07
5.15833e-06
2.087e-07
2.804e-06
8.74522e-08
3.59379e-08
7.56036e-07
6.04136e-08
7.44474e-08
1.60638e-06
1.47871e-07
7.53633e-08
1.94546e-06
2.07152e-07
3.63249e-08
1.94622e-06
2.40674e-07
-3.56815e-08
1.71107e-06
2.53283e-07
-1.34351e-07
1.2802e-06
2.50354e-07
-2.44017e-07
7.08845e-07
2.36639e-07
-3.46186e-07
7.2059e-08
2.15546e-07
-4.17476e-07
-5.753e-07
1.89543e-07
-4.48136e-07
-1.18321e-06
1.60887e-07
-4.35027e-07
-1.72771e-06
1.31727e-07
-3.79197e-07
-2.19888e-06
1.03574e-07
-2.83368e-07
-2.59531e-06
7.752e-08
-1.50787e-07
-2.91875e-06
5.4488e-08
1.49221e-08
-3.17106e-06
3.50582e-08
2.07058e-07
-3.35572e-06
1.93971e-08
4.19081e-07
-3.48029e-06
7.48323e-09
6.46031e-07
-3.54987e-06
-1.21476e-09
8.80906e-07
-3.56606e-06
-4.79521e-09
1.11841e-06
-3.52903e-06
-5.21631e-09
1.35296e-06
-3.43787e-06
-2.38384e-09
1.57783e-06
-3.29004e-06
4.73132e-09
1.78602e-06
-3.0765e-06
1.55937e-08
1.96783e-06
-2.77927e-06
3.07328e-08
2.11069e-06
-2.3786e-06
5.09782e-08
2.1998e-06
-1.85227e-06
7.66378e-08
2.21855e-06
-1.17034e-06
1.08134e-07
2.14958e-06
-2.95309e-07
1.46053e-07
1.98041e-06
8.07997e-07
1.90115e-07
1.70846e-06
2.14116e-06
2.36575e-07
1.34649e-06
3.61361e-06
2.75271e-07
9.23656e-07
4.95202e-06
2.91049e-07
4.98337e-07
5.65828e-06
2.68676e-07
1.5419e-07
5.30312e-06
1.99013e-07
2.87605e-06
8.09166e-08
7.94525e-09
6.94182e-07
5.35374e-08
1.42693e-08
1.46877e-06
1.30989e-07
2.41333e-10
1.77509e-06
1.84194e-07
-3.54805e-08
1.76631e-06
2.15519e-07
-8.62492e-08
1.53331e-06
2.28485e-07
-1.44469e-07
1.11161e-06
2.26828e-07
-1.99676e-07
5.50143e-07
2.13981e-07
-2.39326e-07
-8.05559e-08
1.92369e-07
-2.59626e-07
-7.18735e-07
1.63861e-07
-2.54677e-07
-1.31904e-06
1.31021e-07
-2.21442e-07
-1.85787e-06
9.70903e-08
-1.57856e-07
-2.32689e-06
6.45969e-08
-6.25835e-08
-2.72553e-06
3.51447e-08
6.4332e-08
-3.05506e-06
9.60459e-09
2.20626e-07
-3.31602e-06
-1.11229e-08
4.00953e-07
-3.50888e-06
-2.69447e-08
5.9992e-07
-3.64037e-06
-3.86482e-08
8.12754e-07
-3.71612e-06
-4.63429e-08
1.03446e-06
-3.73737e-06
-5.01386e-08
1.25984e-06
-3.70401e-06
-5.01317e-08
1.48342e-06
-3.61478e-06
-4.63953e-08
1.69939e-06
-3.46677e-06
-3.89712e-08
1.90144e-06
-3.25062e-06
-2.76442e-08
2.08036e-06
-2.9462e-06
-1.17128e-08
2.22163e-06
-2.5296e-06
9.98338e-09
2.30837e-06
-1.97622e-06
3.74299e-08
2.32226e-06
-1.25431e-06
7.02123e-08
2.24462e-06
-3.26008e-07
1.08374e-07
2.0583e-06
8.42993e-07
1.51226e-07
1.75974e-06
2.24371e-06
1.95827e-07
1.3667e-06
3.77188e-06
2.34535e-07
9.21166e-07
5.14277e-06
2.54474e-07
4.89396e-07
5.85051e-06
2.39024e-07
1.48304e-07
5.46668e-06
1.76511e-07
2.95329e-06
6.91406e-08
-1.56521e-08
6.60464e-07
4.89768e-08
-6.00728e-08
1.39219e-06
1.20713e-07
-1.29417e-07
1.67387e-06
1.70375e-07
-2.12721e-07
1.64996e-06
1.99541e-07
-2.96066e-07
1.40647e-06
2.10147e-07
-3.68796e-07
9.79901e-07
2.04459e-07
-4.2547e-07
4.21415e-07
1.85465e-07
-4.6294e-07
-1.99291e-07
1.56305e-07
-4.82286e-07
-8.19629e-07
1.20364e-07
-4.78656e-07
-1.40436e-06
8.18438e-08
-4.47061e-07
-1.93416e-06
4.48544e-08
-3.82772e-07
-2.40259e-06
1.1582e-08
-2.84168e-07
-2.80746e-06
-1.64975e-08
-1.53054e-07
-3.14661e-06
-3.93819e-08
6.26502e-09
-3.4175e-06
-5.76499e-08
1.87816e-07
-3.61875e-06
-7.14887e-08
3.86235e-07
-3.75727e-06
-8.13299e-08
5.96757e-07
-3.83893e-06
-8.75181e-08
8.14697e-07
-3.8649e-06
-9.02061e-08
1.03541e-06
-3.83506e-06
-8.94557e-08
1.25422e-06
-3.74809e-06
-8.52643e-08
1.46622e-06
-3.60095e-06
-7.75731e-08
1.66619e-06
-3.38427e-06
-6.6064e-08
1.84592e-06
-3.07593e-06
-4.9724e-08
1.99152e-06
-2.64732e-06
-2.75834e-08
2.08601e-06
-2.07079e-06
3.48542e-10
2.10908e-06
-1.3118e-06
3.46456e-08
2.03931e-06
-3.30127e-07
7.39919e-08
1.86118e-06
9.03904e-07
1.17125e-07
1.57127e-06
2.37274e-06
1.60526e-07
1.19176e-06
3.95347e-06
1.9729e-07
7.74697e-07
5.34217e-06
2.16806e-07
3.91098e-07
6.02847e-06
2.04483e-07
1.07822e-07
5.59888e-06
1.49414e-07
3.00242e-06
5.62428e-08
2.07621e-09
6.1558e-07
4.23989e-08
-2.32892e-08
1.30986e-06
1.07434e-07
-8.40184e-08
1.58198e-06
1.52453e-07
-1.69209e-07
1.55894e-06
1.76111e-07
-2.64492e-07
1.32272e-06
1.78995e-07
-3.61159e-07
9.1269e-07
1.63906e-07
-4.52527e-07
3.76996e-07
1.35864e-07
-5.32452e-07
-2.19626e-07
1.00373e-07
-5.93388e-07
-8.20954e-07
6.23926e-08
-6.25638e-07
-1.39812e-06
2.61462e-08
-6.21031e-07
-1.93283e-06
-5.80346e-09
-5.75781e-07
-2.41539e-06
-3.23059e-08
-4.90391e-07
-2.8384e-06
-5.43109e-08
-3.69746e-07
-3.19495e-06
-7.21756e-08
-2.21257e-07
-3.47956e-06
-8.63031e-08
-5.26371e-08
-3.69026e-06
-9.69841e-08
1.30034e-07
-3.83526e-06
-1.0455e-07
3.21737e-07
-3.92127e-06
-1.0923e-07
5.17845e-07
-3.94981e-06
-1.11064e-07
7.14162e-07
-3.92121e-06
-1.10017e-07
9.06862e-07
-3.83464e-06
-1.05992e-07
1.09234e-06
-3.68743e-06
-9.88249e-08
1.26645e-06
-3.47009e-06
-8.80721e-08
1.42264e-06
-3.15924e-06
-7.2649e-08
1.551e-06
-2.724e-06
-5.14032e-08
1.63847e-06
-2.13405e-06
-2.39066e-08
1.66833e-06
-1.35136e-06
1.00199e-08
1.62086e-06
-3.32282e-07
4.98871e-08
1.47971e-06
9.51593e-07
9.35557e-08
1.24e-06
2.47555e-06
1.36706e-07
9.22609e-07
4.09824e-06
1.72044e-07
5.79673e-07
5.49409e-06
1.90041e-07
2.77035e-07
6.15101e-06
1.7876e-07
6.82996e-08
5.67598e-06
1.29878e-07
3.01985e-06
4.84781e-08
5.85612e-08
5.25026e-07
3.15911e-08
1.394e-07
1.14615e-06
8.25993e-08
1.93249e-07
1.40975e-06
1.18212e-07
2.11753e-07
1.40587e-06
1.34471e-07
1.96781e-07
1.20625e-06
1.3142e-07
1.47156e-07
8.49186e-07
1.13165e-07
6.99973e-08
3.6819e-07
8.60466e-08
-2.1764e-08
-1.8357e-07
5.58135e-08
-1.03432e-07
-7.65538e-07
2.63712e-08
-1.61388e-07
-1.34017e-06
1.30772e-10
-1.84692e-07
-1.88607e-06
-2.3331e-08
-1.70262e-07
-2.38618e-06
-4.35267e-08
-1.20358e-07
-2.82695e-06
-6.12452e-08
-4.05048e-08
-3.19809e-06
-7.66056e-08
6.24496e-08
-3.49296e-06
-8.94513e-08
1.81669e-07
-3.70978e-06
-9.96042e-08
3.11485e-07
-3.85788e-06
-1.07102e-07
4.46969e-07
-3.94466e-06
-1.11998e-07
5.83602e-07
-3.97206e-06
-1.14279e-07
7.17316e-07
-3.94091e-06
-1.13909e-07
8.4455e-07
-3.85096e-06
-1.10797e-07
9.62318e-07
-3.70031e-06
-1.04753e-07
1.06702e-06
-3.47939e-06
-9.52577e-08
1.15372e-06
-3.16451e-06
-8.12464e-08
1.21762e-06
-2.7261e-06
-6.15597e-08
1.2533e-06
-2.1339e-06
-3.55269e-08
1.25387e-06
-1.34833e-06
-3.20601e-09
1.2067e-06
-3.21873e-07
3.722e-08
1.10065e-06
9.76379e-07
8.17122e-08
9.2697e-07
2.52379e-06
1.25728e-07
6.94156e-07
4.1698e-06
1.6122e-07
4.37993e-07
5.57115e-06
1.78666e-07
2.09966e-07
6.21026e-06
1.67974e-07
5.24606e-08
5.70892e-06
1.23408e-07
3.02249e-06
4.81474e-08
6.07369e-08
4.39726e-07
2.41576e-08
1.75751e-07
9.6952e-07
6.13226e-08
2.92202e-07
1.20612e-06
8.6994e-08
3.87936e-07
1.21161e-06
9.84212e-08
4.54672e-07
1.04348e-06
9.59903e-08
4.86139e-07
7.3418e-07
8.35474e-08
4.85028e-07
3.03505e-07
6.58468e-08
4.64585e-07
-2.09338e-07
4.62916e-08
4.41308e-07
-7.6864e-07
2.64774e-08
4.29042e-07
-1.33455e-06
6.74824e-09
4.34924e-07
-1.87878e-06
-1.30559e-08
4.60178e-07
-2.37849e-06
-3.2835e-08
5.02831e-07
-2.8176e-06
-5.1893e-08
5.60216e-07
-3.18617e-06
-6.92025e-08
6.29963e-07
-3.47872e-06
-8.38896e-08
7.09465e-07
-3.69366e-06
-9.55249e-08
7.95515e-07
-3.83967e-06
-1.04172e-07
8.84772e-07
-3.92382e-06
-1.09999e-07
9.73651e-07
-3.94769e-06
-1.13158e-07
1.05827e-06
-3.91166e-06
-1.13761e-07
1.13466e-06
-3.81542e-06
-1.11824e-07
1.19902e-06
-3.65736e-06
-1.07198e-07
1.24621e-06
-3.42712e-06
-9.93283e-08
1.26973e-06
-3.10066e-06
-8.72097e-08
1.26558e-06
-2.65202e-06
-6.97346e-08
1.23264e-06
-2.05472e-06
-4.59585e-08
1.17268e-06
-1.27276e-06
-1.52058e-08
1.08765e-06
-2.6037e-07
2.41052e-08
9.74385e-07
1.02012e-06
7.02703e-08
8.27808e-07
2.55372e-06
1.17478e-07
6.44002e-07
4.19743e-06
1.56919e-07
4.3443e-07
5.60337e-06
1.77841e-07
2.31944e-07
6.24316e-06
1.69749e-07
7.13764e-08
5.74147e-06
1.27827e-07
3.04052e-06
5.26196e-08
2.10418e-08
3.95863e-07
2.24041e-08
7.53896e-08
8.61874e-07
5.29786e-08
1.4167e-07
1.06635e-06
7.32529e-08
2.06456e-07
1.06324e-06
8.34251e-08
2.64767e-07
9.00771e-07
8.42978e-08
3.14773e-07
6.06088e-07
7.80351e-08
3.5795e-07
1.93522e-07
6.67971e-08
4.01027e-07
-3.04155e-07
5.17679e-08
4.4657e-07
-8.47486e-07
3.33605e-08
4.98415e-07
-1.39817e-06
1.18578e-08
5.5569e-07
-1.92463e-06
-1.13417e-08
6.16548e-07
-2.40471e-06
-3.45391e-08
6.80636e-07
-2.82545e-06
-5.61471e-08
7.49229e-07
-3.18008e-06
-7.45844e-08
8.2437e-07
-3.46456e-06
-8.92085e-08
9.07158e-07
-3.67622e-06
-1.00142e-07
9.96626e-07
-3.82112e-06
-1.0793e-07
1.09048e-06
-3.90453e-06
-1.1306e-07
1.18548e-06
-3.92667e-06
-1.1593e-07
1.27749e-06
-3.88679e-06
-1.16793e-07
1.36181e-06
-3.78392e-06
-1.15723e-07
1.43345e-06
-3.61633e-06
-1.12565e-07
1.48506e-06
-3.37189e-06
-1.0672e-07
1.50672e-06
-3.02495e-06
-9.72302e-08
1.49103e-06
-2.55316e-06
-8.30092e-08
1.43431e-06
-1.93493e-06
-6.28354e-08
1.33826e-06
-1.14104e-06
-3.5323e-08
1.21176e-06
-1.32575e-07
-7.44569e-10
1.06012e-06
1.1262e-06
4.63788e-08
8.89975e-07
2.62841e-06
9.65365e-08
6.98754e-07
4.24799e-06
1.41903e-07
4.86003e-07
5.64717e-06
1.70138e-07
2.72078e-07
6.28996e-06
1.6808e-07
8.90885e-08
5.79533e-06
1.29687e-07
3.07489e-06
5.45746e-08
-6.80335e-09
3.79937e-07
2.23156e-08
-1.34349e-08
8.16731e-07
5.14441e-08
-1.71685e-08
9.99491e-07
7.03404e-08
-1.59886e-08
9.81484e-07
8.03816e-08
-5.97016e-09
8.08524e-07
8.2093e-08
1.72333e-08
5.06634e-07
7.61663e-08
5.68622e-08
9.0466e-08
6.33899e-08
1.12055e-07
-4.03975e-07
4.46274e-08
1.79145e-07
-9.35647e-07
2.10999e-08
2.53329e-07
-1.46707e-06
-5.24127e-09
3.29924e-07
-1.97038e-06
-3.07815e-08
4.08441e-07
-2.42901e-06
-5.41468e-08
4.91129e-07
-2.8347e-06
-7.33702e-08
5.81764e-07
-3.18273e-06
-8.79174e-08
6.83712e-07
-3.46819e-06
-9.82508e-08
7.98264e-07
-3.68536e-06
-1.05347e-07
9.23635e-07
-3.83627e-06
-1.10156e-07
1.05656e-06
-3.92411e-06
-1.13289e-07
1.19312e-06
-3.94794e-06
-1.15214e-07
1.32858e-06
-3.906e-06
-1.16173e-07
1.45761e-06
-3.79669e-06
-1.16184e-07
1.57422e-06
-3.61784e-06
-1.15011e-07
1.66909e-06
-3.35464e-06
-1.12036e-07
1.72938e-06
-2.97876e-06
-1.06374e-07
1.74447e-06
-2.47119e-06
-9.69243e-08
1.70636e-06
-1.81445e-06
-8.22073e-08
1.61189e-06
-9.85975e-07
-6.03403e-08
1.46567e-06
4.35129e-08
-2.94563e-08
1.27847e-06
1.30303e-06
1.1032e-08
1.06229e-06
2.78439e-06
6.11914e-08
8.25497e-07
4.37537e-06
1.10686e-07
5.72643e-07
5.75444e-06
1.46944e-07
3.21699e-07
6.38873e-06
1.53352e-07
1.05317e-07
5.89155e-06
1.20893e-07
3.12961e-06
5.04874e-08
-4.54584e-09
3.63183e-07
2.08787e-08
-1.75988e-08
7.80828e-07
4.86159e-08
-3.59292e-08
9.51262e-07
6.62905e-08
-5.23967e-08
9.23206e-07
7.45427e-08
-5.87139e-08
7.41438e-07
7.32572e-08
-4.85658e-08
4.33578e-07
6.28127e-08
-2.0196e-08
1.7564e-08
4.4484e-08
2.30274e-08
-4.67694e-07
2.04854e-08
7.61679e-08
-9.8248e-07
-6.29313e-09
1.34813e-07
-1.49339e-06
-3.22938e-08
1.98281e-07
-1.9786e-06
-5.52115e-08
2.68931e-07
-2.4264e-06
-7.32223e-08
3.50912e-07
-2.83071e-06
-8.59215e-08
4.48487e-07
-3.1863e-06
-9.39609e-08
5.64601e-07
-3.48566e-06
-9.85992e-08
6.99781e-07
-3.71925e-06
-1.01252e-07
8.50665e-07
-3.88414e-06
-1.02976e-07
1.01289e-06
-3.98202e-06
-1.04265e-07
1.18217e-06
-4.01168e-06
-1.05503e-07
1.35353e-06
-3.97045e-06
-1.06869e-07
1.52131e-06
-3.85611e-06
-1.0831e-07
1.67809e-06
-3.66503e-06
-1.09539e-07
1.81276e-06
-3.37917e-06
-1.10081e-07
1.91134e-06
-2.96805e-06
-1.09214e-07
1.96047e-06
-2.4144e-06
-1.05837e-07
1.94827e-06
-1.70386e-06
-9.82866e-08
1.86644e-06
-8.19632e-07
-8.4373e-08
1.71317e-06
2.58602e-07
-6.16026e-08
1.4972e-06
1.54739e-06
-2.80014e-08
1.23425e-06
3.03202e-06
1.59456e-08
9.42869e-07
4.60307e-06
6.45657e-08
6.41486e-07
5.95114e-06
1.05686e-07
3.52451e-07
6.55793e-06
1.20685e-07
1.1128e-07
6.03585e-06
9.72184e-08
3.2011e-06
3.92013e-08
1.24585e-08
3.33072e-07
1.7231e-08
3.01094e-08
7.22256e-07
4.05849e-08
4.35421e-08
8.82748e-07
5.48219e-08
5.37986e-08
8.53528e-07
5.92247e-08
6.62632e-08
6.7545e-07
5.33823e-08
8.42948e-08
3.77121e-07
3.83358e-08
1.0737e-07
-2.21949e-08
1.66394e-08
1.3261e-07
-4.84759e-07
-8.18486e-09
1.59221e-07
-9.7644e-07
-3.2637e-08
1.88088e-07
-1.46847e-06
-5.37557e-08
2.22496e-07
-1.9432e-06
-6.97697e-08
2.6721e-07
-2.39091e-06
-8.01688e-08
3.27438e-07
-2.8054e-06
-8.55052e-08
4.07957e-07
-3.17978e-06
-8.70119e-08
5.12313e-07
-3.50375e-06
-8.62488e-08
6.41728e-07
-3.76386e-06
-8.47907e-08
7.92044e-07
-3.95068e-06
-8.3758e-08
9.58248e-07
-4.06475e-06
-8.34652e-08
1.13611e-06
-4.10537e-06
-8.4142e-08
1.32067e-06
-4.06909e-06
-8.59045e-08
1.5062e-06
-3.95295e-06
-8.86607e-08
1.68438e-06
-3.75105e-06
-9.21362e-08
1.84276e-06
-3.44143e-06
-9.60785e-08
1.9668e-06
-2.99202e-06
-1.00027e-07
2.04134e-06
-2.38594e-06
-1.02957e-07
2.05169e-06
-1.611e-06
-1.03181e-07
1.98535e-06
-6.54893e-07
-9.83752e-08
1.83567e-06
4.94033e-07
-8.57134e-08
1.60695e-06
1.83866e-06
-6.24661e-08
1.31572e-06
3.35103e-06
-2.75695e-08
9.88617e-07
4.91473e-06
1.5782e-08
6.58944e-07
6.22479e-06
5.64055e-08
3.52201e-07
6.78733e-06
7.75344e-08
1.06402e-07
6.21662e-06
6.46937e-08
3.28199e-06
2.41813e-08
3.21441e-08
2.88217e-07
1.22882e-08
9.20544e-08
6.33768e-07
2.82387e-08
1.5595e-07
7.81859e-07
3.67321e-08
2.15111e-07
7.57658e-07
3.65108e-08
2.6856e-07
5.94481e-07
2.73802e-08
3.14518e-07
3.1987e-07
1.12021e-08
3.47639e-07
-4.63604e-08
-9.0032e-09
3.69602e-07
-4.77104e-07
-2.96334e-08
3.81375e-07
-9.40712e-07
-4.74956e-08
3.87607e-07
-1.41392e-06
-6.0767e-08
3.9452e-07
-1.8814e-06
-6.86987e-08
4.08933e-07
-2.33377e-06
-7.1532e-08
4.37619e-07
-2.76385e-06
-7.02226e-08
4.86766e-07
-3.16277e-06
-6.61554e-08
5.61266e-07
-3.51732e-06
-6.09234e-08
6.63564e-07
-3.81003e-06
-5.61177e-08
7.90574e-07
-4.02473e-06
-5.29561e-08
9.36988e-07
-4.15953e-06
-5.16224e-08
1.09828e-06
-4.21462e-06
-5.20345e-08
1.26967e-06
-4.18626e-06
-5.42174e-08
1.44566e-06
-4.07089e-06
-5.80332e-08
1.61809e-06
-3.86021e-06
-6.32548e-08
1.77425e-06
-3.52773e-06
-6.98324e-08
1.89963e-06
-3.03979e-06
-7.75894e-08
1.97947e-06
-2.38002e-06
-8.57357e-08
1.99895e-06
-1.53768e-06
-9.28024e-08