/*--------------------------------*- C++ -*----------------------------------*\
| =========                 |                                                 |
| \\      /  F ield         | OpenFOAM: The Open Source CFD Toolbox           |
|  \\    /   O peration     | Version:  v2006                                 |
|   \\  /    A nd           | Website:  www.openfoam.com                      |
|    \\/     M anipulation  |                                                 |
\*---------------------------------------------------------------------------*/
FoamFile
{
    version     2.0;
    format      ascii;
    class       volScalarField;
    location    "32";
    object      nut;
}
// * * * * * * * * * * * * * * * * * * * * * * * * * * * * * * * * * * * * * //

dimensions      [0 2 -1 0 0 0 0];


internalField   nonuniform List<scalar> 
78750
(
0.000385343
0.000857497
0.000579129
0.000219615
5.09697e-05
1.78257e-05
2.60292e-05
1.98486e-05
2.55886e-05
2.24768e-05
2.96617e-05
2.7712e-05
3.23136e-05
3.37113e-05
3.64987e-05
3.89386e-05
4.13701e-05
4.37582e-05
4.59257e-05
4.78966e-05
4.821e-05
4.78116e-05
4.74188e-05
4.70274e-05
4.66308e-05
4.62164e-05
4.57655e-05
4.52546e-05
4.4663e-05
4.39501e-05
4.3049e-05
4.18418e-05
4.02168e-05
7.35038e-06
3.50693e-07
3.34551e-05
1.48069e-05
4.37641e-05
2.46484e-05
3.48324e-05
3.50492e-05
3.81766e-05
4.47498e-05
4.83652e-05
5.30218e-05
5.67966e-05
6.1628e-05
6.66068e-05
7.21284e-05
7.82028e-05
8.44612e-05
9.08568e-05
9.73959e-05
0.000104352
0.000112183
0.0001213
0.000130758
0.000132117
0.000131344
0.000130565
0.00012977
0.00012895
0.000116531
0.000101969
9.08755e-05
8.40925e-05
6.99814e-05
2.91967e-05
5.50894e-06
1.31375e-06
3.14092e-07
1.60675e-05
2.15708e-05
3.85386e-05
6.21207e-05
5.89645e-05
4.37368e-05
3.77848e-05
3.64128e-05
3.57412e-05
3.55869e-05
3.61144e-05
3.72953e-05
3.90144e-05
4.12029e-05
4.39387e-05
4.75308e-05
5.25197e-05
5.96516e-05
6.9526e-05
8.14042e-05
9.17732e-05
9.60735e-05
9.34519e-05
8.64931e-05
7.76887e-05
6.89799e-05
6.20215e-05
5.91779e-05
6.51605e-05
8.01918e-05
2.61619e-05
7.56885e-06
5.56145e-06
3.09321e-06
2.78032e-07
9.04246e-06
1.73745e-05
2.58904e-05
3.42519e-05
4.10507e-05
4.59467e-05
4.90247e-05
5.09863e-05
5.30237e-05
5.61642e-05
6.09363e-05
6.73576e-05
7.45278e-05
8.05319e-05
8.40777e-05
8.54581e-05
8.48481e-05
8.22583e-05
7.85703e-05
7.48252e-05
7.14708e-05
6.82097e-05
6.42771e-05
5.98099e-05
5.56412e-05
5.19751e-05
4.82967e-05
4.3776e-05
3.24239e-05
1.90044e-05
1.64137e-05
7.26866e-06
3.78178e-06
3.35588e-06
1.78746e-06
1.49484e-05
3.41099e-05
5.67438e-05
7.67899e-05
9.01005e-05
9.35279e-05
8.43966e-05
6.97136e-05
5.88717e-05
5.32303e-05
5.14449e-05
5.37885e-05
6.34797e-05
8.70768e-05
0.000129001
0.000175038
0.000176616
0.000174072
0.000171971
0.000170244
0.00016882
0.000167621
0.000166548
0.00016551
0.000164409
0.000163167
0.000161777
0.000126245
7.66166e-05
4.79708e-05
2.80032e-05
9.8599e-06
7.76319e-06
4.95052e-06
4.14086e-06
2.17634e-05
6.22126e-05
0.000114056
0.000130306
0.00011525
7.91255e-05
4.77996e-05
3.27797e-05
2.90601e-05
3.48773e-05
5.53654e-05
9.69684e-05
0.000147988
0.00017039
0.000170416
0.000170539
0.000170662
0.000170732
0.000170707
0.000170565
0.000170294
0.000162952
0.000152058
0.000141252
0.000129208
0.000114313
9.71171e-05
8.19401e-05
7.35146e-05
6.99913e-05
5.03579e-05
1.14103e-05
8.45756e-06
5.59377e-06
5.50873e-06
2.82987e-05
8.34082e-05
0.000127651
0.000139626
0.000120554
7.71592e-05
4.63234e-05
3.22363e-05
2.68565e-05
2.65164e-05
3.08013e-05
4.0906e-05
5.82293e-05
8.09754e-05
0.000102186
0.0001168
0.00012622
0.000132913
0.000137382
0.00013944
0.000139077
0.000136309
0.000131172
0.00012363
0.000113844
0.000102406
9.02085e-05
7.85086e-05
6.85404e-05
5.85037e-05
3.77323e-05
1.23991e-05
1.04588e-05
6.1795e-06
5.76015e-06
3.07013e-05
8.06192e-05
0.000121139
0.0001376
0.000137184
0.00012358
9.61855e-05
6.55747e-05
4.54961e-05
3.51409e-05
3.03394e-05
2.91555e-05
3.14356e-05
3.78844e-05
4.87187e-05
6.16773e-05
7.30231e-05
8.14665e-05
8.79977e-05
9.33903e-05
9.75632e-05
0.000100197
0.000101444
0.000101344
9.88662e-05
9.23046e-05
8.1079e-05
6.73605e-05
5.47015e-05
4.32654e-05
2.66454e-05
1.10982e-05
1.25858e-05
7.01827e-06
5.05143e-06
2.28937e-05
5.99503e-05
0.00010175
0.000123787
0.000129268
0.000123996
0.000112182
9.58983e-05
7.65702e-05
5.85623e-05
4.52519e-05
3.67211e-05
3.21756e-05
3.1442e-05
3.5358e-05
4.53666e-05
6.09637e-05
7.65295e-05
8.47387e-05
8.45226e-05
8.13822e-05
8.00864e-05
8.15134e-05
8.39943e-05
8.51911e-05
8.33851e-05
7.7302e-05
6.61468e-05
5.1209e-05
3.46187e-05
1.77152e-05
1.03756e-05
1.79636e-05
7.81574e-06
4.4661e-06
1.89386e-05
5.58284e-05
0.000104603
0.000125082
0.000122742
0.000110958
0.000100174
9.50273e-05
9.31956e-05
8.75893e-05
7.33645e-05
5.59489e-05
4.24928e-05
3.43352e-05
3.10195e-05
3.31754e-05
4.2716e-05
5.82438e-05
7.23347e-05
8.04158e-05
7.76429e-05
7.05886e-05
6.85593e-05
7.30127e-05
8.10276e-05
8.67995e-05
8.52201e-05
7.60959e-05
6.09668e-05
3.90382e-05
1.52367e-05
7.20221e-06
1.64239e-05
8.32819e-06
4.88367e-06
2.14653e-05
6.89992e-05
0.000127007
0.000136299
0.000119
9.65973e-05
8.01162e-05
7.14042e-05
6.97251e-05
7.3932e-05
8.02468e-05
8.00998e-05
6.66178e-05
4.91372e-05
3.72046e-05
3.17932e-05
3.35776e-05
4.74416e-05
6.96438e-05
6.38191e-05
6.07842e-05
5.88874e-05
5.10784e-05
4.59086e-05
4.63486e-05
5.20811e-05
6.23154e-05
7.2929e-05
7.18301e-05
4.77205e-05
1.73047e-05
8.54359e-06
2.21008e-05
9.15611e-06
6.44264e-06
3.33065e-05
0.000114549
0.000143075
0.000119002
9.1263e-05
7.54671e-05
7.07115e-05
7.07602e-05
6.96377e-05
6.78561e-05
7.09146e-05
8.17215e-05
9.45913e-05
9.13153e-05
6.904e-05
5.02397e-05
4.06942e-05
3.76008e-05
4.08471e-05
5.67184e-05
8.476e-05
5.09398e-05
3.96432e-05
3.65915e-05
2.61845e-05
2.19486e-05
2.19107e-05
2.46868e-05
3.0221e-05
3.54488e-05
2.07056e-05
1.0907e-05
2.68314e-05
9.38363e-06
7.5339e-06
4.78074e-05
0.000123901
0.000106019
7.65014e-05
5.94057e-05
5.64827e-05
6.54466e-05
8.02964e-05
8.76413e-05
8.29217e-05
7.72738e-05
7.90237e-05
8.62387e-05
8.86767e-05
7.83622e-05
6.08774e-05
4.67308e-05
3.91616e-05
3.74528e-05
4.19709e-05
5.49816e-05
7.23358e-05
6.87138e-05
4.87012e-05
2.62529e-05
7.9162e-06
6.53248e-06
3.23695e-06
4.1311e-06
5.86728e-06
9.05329e-06
1.251e-05
4.03739e-05
9.3913e-06
7.80031e-06
5.75474e-05
0.000108612
8.92066e-05
6.99758e-05
6.13695e-05
6.26704e-05
7.19514e-05
8.56343e-05
9.83648e-05
0.000106104
0.000107583
0.000105308
0.000102949
9.98929e-05
9.19796e-05
7.74154e-05
6.03775e-05
4.67452e-05
3.86635e-05
3.55689e-05
3.65741e-05
4.1156e-05
4.9441e-05
6.14346e-05
6.9301e-05
5.4044e-05
2.76996e-05
6.42003e-06
3.68212e-06
1.3689e-06
1.61089e-06
7.92574e-06
4.17697e-05
9.28396e-06
7.33314e-06
4.94834e-05
0.000116285
0.000128669
0.000124519
0.000110239
9.25525e-05
7.85251e-05
7.05165e-05
6.76949e-05
6.84556e-05
7.15012e-05
7.60098e-05
8.16982e-05
8.83872e-05
9.47229e-05
9.72186e-05
9.1337e-05
7.63294e-05
5.89746e-05
4.63027e-05
3.97628e-05
3.8335e-05
4.12327e-05
4.8431e-05
5.92609e-05
6.63242e-05
5.62156e-05
3.1577e-05
8.05643e-06
9.30872e-07
3.28258e-07
6.83277e-06
4.76103e-05
9.24827e-06
6.39216e-06
3.48118e-05
9.35832e-05
0.000125303
0.000132538
0.000127379
0.000114332
9.88303e-05
8.53919e-05
7.58635e-05
7.02292e-05
6.78361e-05
6.80308e-05
7.04176e-05
7.49877e-05
8.18843e-05
9.05852e-05
9.88658e-05
0.000102236
9.51329e-05
7.74123e-05
5.87293e-05
4.66334e-05
4.16993e-05
4.25651e-05
4.77788e-05
5.39946e-05
5.30991e-05
3.81491e-05
1.47011e-05
3.07216e-06
4.81743e-07
5.54594e-06
4.21826e-05
9.25085e-06
6.02901e-06
2.83428e-05
8.34882e-05
0.000125079
0.000135015
0.000132885
0.000125587
0.000115373
0.0001034
9.13333e-05
8.10176e-05
7.33665e-05
6.83545e-05
6.56601e-05
6.51842e-05
6.73405e-05
7.30578e-05
8.32376e-05
9.73053e-05
0.000111229
0.00011678
0.00010488
7.92087e-05
5.69931e-05
4.51041e-05
4.14554e-05
4.27024e-05
4.32924e-05
3.50767e-05
1.61302e-05
7.50185e-08
6.56405e-07
4.40358e-06
3.43997e-05
9.31626e-06
5.57218e-06
2.50365e-05
7.87882e-05
0.000136093
0.000153104
0.000150686
0.000139863
0.000126651
0.000115048
0.000106669
0.000100821
9.52768e-05
8.82473e-05
7.99826e-05
7.19659e-05
6.56209e-05
6.21375e-05
6.28215e-05
6.92506e-05
8.2714e-05
0.000102022
0.000119975
0.00012282
0.000100996
6.99341e-05
4.93172e-05
4.02207e-05
3.69277e-05
3.11914e-05
1.58154e-05
5.36277e-06
1.96006e-07
3.4279e-06
2.83826e-05
9.49028e-06
6.06282e-06
2.83118e-05
8.74941e-05
0.000142692
0.000156875
0.000152412
0.000137457
0.000116936
9.73135e-05
8.42977e-05
8.0618e-05
8.66633e-05
9.97244e-05
0.000110366
0.000107307
9.23493e-05
7.59213e-05
6.42413e-05
5.91127e-05
6.13164e-05
7.1841e-05
9.06058e-05
0.000112081
0.000122004
0.000106651
7.46467e-05
4.94398e-05
3.60051e-05
2.69681e-05
1.26e-05
3.91902e-06
1.56259e-07
2.9627e-06
2.61922e-05
9.64382e-06
6.55357e-06
3.0449e-05
8.84086e-05
0.000137709
0.000152851
0.000152746
0.000143527
0.000126586
0.000104511
8.39216e-05
7.09509e-05
6.76633e-05
7.45726e-05
9.17659e-05
0.000114428
0.000126889
0.000114662
8.86643e-05
6.80311e-05
5.7927e-05
5.73485e-05
6.56008e-05
8.18542e-05
0.000101157
0.000110849
9.88192e-05
7.13215e-05
4.69978e-05
3.00639e-05
1.23184e-05
5.38806e-07
1.61246e-06
2.46281e-06
2.31333e-05
9.84008e-06
6.75276e-06
3.14552e-05
9.34066e-05
0.000145926
0.000158883
0.000153976
0.000139163
0.000119029
9.89261e-05
8.34201e-05
7.4002e-05
7.04156e-05
7.30317e-05
8.3271e-05
0.000101696
0.000123752
0.000136065
0.000124116
9.4766e-05
7.04242e-05
5.87796e-05
5.78329e-05
6.51592e-05
7.79881e-05
9.0375e-05
9.29594e-05
8.04839e-05
5.94303e-05
3.86993e-05
1.82547e-05
8.19411e-07
1.55545e-06
2.8493e-06
2.62516e-05
1.00582e-05
7.15296e-06
3.42699e-05
0.00010327
0.000151672
0.000162047
0.000156608
0.00014021
0.000115767
9.07555e-05
7.35637e-05
6.65578e-05
6.78042e-05
7.45304e-05
8.51576e-05
9.96962e-05
0.00011712
0.000131978
0.00013428
0.00011711
8.95667e-05
6.8281e-05
5.84608e-05
5.789e-05
6.30056e-05
6.97393e-05
7.30219e-05
6.82488e-05
5.56532e-05
3.94558e-05
2.10563e-05
2.26125e-06
2.27298e-06
5.02902e-06
3.81515e-05
9.98434e-06
7.23333e-06
3.47038e-05
0.000102552
0.00014917
0.000159004
0.000153406
0.000137721
0.000114688
8.97775e-05
7.0485e-05
6.07468e-05
6.0598e-05
6.89368e-05
8.39955e-05
0.000102898
0.000122034
0.00013688
0.000141337
0.000129837
0.000104542
7.80955e-05
6.0353e-05
5.18166e-05
4.87485e-05
4.75413e-05
4.59908e-05
4.26676e-05
3.66834e-05
2.50914e-05
4.38863e-06
6.3165e-07
1.87179e-07
3.45675e-06
3.24852e-05
9.99424e-06
7.3523e-06
3.53069e-05
0.000106515
0.00015235
0.000159658
0.000151541
0.000134149
0.000111579
8.90819e-05
7.1246e-05
6.01153e-05
5.63235e-05
6.039e-05
7.28576e-05
9.3311e-05
0.000118578
0.000142014
0.000155296
0.000150907
0.000126422
9.19147e-05
6.34102e-05
4.58001e-05
3.50239e-05
2.72951e-05
2.16705e-05
1.65746e-05
9.29848e-06
8.7534e-06
1.85177e-06
2.0926e-06
2.71645e-08
3.74353e-06
3.09463e-05
1.01261e-05
7.3207e-06
3.41833e-05
0.000105093
0.000155
0.000162109
0.000152237
0.000132904
0.000109191
8.7444e-05
7.19682e-05
6.26144e-05
5.80229e-05
5.85317e-05
6.5764e-05
8.13305e-05
0.000105699
0.000136547
0.000167513
0.000188944
0.000189459
0.000160585
0.000112756
7.23106e-05
4.7305e-05
2.99189e-05
1.18052e-05
1.20313e-06
8.37466e-06
5.98958e-07
3.77915e-06
3.0009e-06
8.9323e-07
2.1409e-06
3.16946e-05
1.0062e-05
7.38427e-06
3.38488e-05
0.000105928
0.000156845
0.000161358
0.00014883
0.000126975
0.000100979
7.85566e-05
6.5147e-05
6.01463e-05
6.00386e-05
6.25725e-05
6.88581e-05
8.16625e-05
0.000103179
0.000133845
0.00017175
0.000212818
0.000250782
0.000274658
0.000265125
0.000208207
0.000133067
7.96739e-05
4.74575e-05
2.23038e-05
1.39865e-06
3.80846e-07
5.30569e-06
1.25405e-07
2.66291e-06
1.10343e-05
6.84256e-05
1.0279e-05
7.8593e-06
3.7997e-05
0.000116105
0.000159153
0.000159011
0.000143966
0.000120182
9.27942e-05
7.01122e-05
5.75563e-05
5.49096e-05
5.93617e-05
6.73224e-05
7.69264e-05
8.96303e-05
0.000107867
0.00013232
0.000160897
0.000189207
0.000211833
0.000223529
0.000220406
0.000200495
0.000163788
0.00011682
7.33184e-05
3.96945e-05
1.43982e-05
9.02078e-06
2.81397e-06
5.81623e-07
4.53024e-06
2.24342e-05
4.162e-05
9.81327e-06
8.39481e-06
4.45895e-05
0.000128235
0.000157728
0.000154293
0.000138746
0.000115389
8.88755e-05
6.65725e-05
5.34236e-05
4.99043e-05
5.46157e-05
6.525e-05
7.83872e-05
9.12428e-05
0.000103211
0.000114427
0.000124114
0.000130784
0.000133225
0.000131086
0.000124806
0.000115478
0.000104266
9.09333e-05
7.65179e-05
6.45009e-05
5.6783e-05
4.58194e-05
2.62432e-05
4.57773e-05
5.23703e-06
6.30964e-06
1.10709e-05
4.08734e-06
8.38486e-06
4.49539e-05
0.000125791
0.000155168
0.000154846
0.000143259
0.000124887
0.000102152
7.86994e-05
6.01496e-05
5.01741e-05
4.91644e-05
5.64636e-05
7.09721e-05
9.00227e-05
0.000109355
0.000124967
0.000134603
0.000138195
0.000137172
0.000132945
0.000126402
0.000118425
0.000109353
9.72321e-05
8.72881e-05
0.000103772
0.000148008
0.000113957
4.08864e-05
2.071e-05
2.58492e-06
8.91045e-07
8.30125e-07
1.14392e-05
8.0625e-06
4.08587e-05
0.000117503
0.000153537
0.000156328
0.000147082
0.000132695
0.000115717
9.55531e-05
7.36087e-05
5.60331e-05
4.73121e-05
4.84535e-05
6.07123e-05
8.72274e-05
0.00013269
0.000201448
0.000273885
0.000275804
0.000276841
0.000276416
0.000273836
0.000268316
0.000258869
0.000106592
2.6282e-05
8.38793e-06
1.87352e-05
4.37667e-05
5.72566e-05
4.01505e-05
2.80503e-05
3.05617e-05
8.9218e-05
1.29861e-05
7.9333e-06
3.7761e-05
0.000111034
0.000152648
0.000155105
0.000143757
0.00012852
0.000115056
0.000103606
8.91664e-05
6.91231e-05
5.09384e-05
4.14447e-05
4.17141e-05
5.22354e-05
7.40106e-05
0.00010266
0.000124162
0.000129942
0.000124818
0.000115955
0.000106012
9.09336e-05
6.64748e-05
3.95627e-05
2.18029e-05
1.83489e-05
3.16503e-05
6.31343e-05
8.49708e-05
8.1738e-05
7.47616e-05
7.55959e-05
3.8578e-05
7.17509e-06
7.95302e-06
3.61999e-05
0.000105369
0.000149301
0.000151835
0.000138697
0.0001197
0.000102492
9.17933e-05
8.70439e-05
8.15704e-05
6.752e-05
5.04565e-05
4.05921e-05
3.98663e-05
4.70296e-05
6.01925e-05
7.5203e-05
8.61747e-05
9.0789e-05
9.08496e-05
8.48903e-05
7.72424e-05
7.96954e-05
8.11412e-05
6.74907e-05
4.96064e-05
3.64861e-05
2.71837e-05
2.12817e-05
2.81592e-05
5.90431e-05
7.76592e-05
2.90387e-05
1.4772e-06
8.00722e-06
3.58024e-05
0.000102698
0.000146207
0.000150286
0.000139045
0.000120693
0.00010162
8.73031e-05
7.95646e-05
7.58012e-05
6.97509e-05
5.76084e-05
4.63322e-05
4.33586e-05
5.06899e-05
6.80162e-05
9.08883e-05
0.000109974
0.000123172
0.000132136
0.00010729
5.52048e-05
3.55238e-05
4.30668e-05
6.99144e-05
9.95006e-05
9.89166e-05
6.61236e-05
3.55876e-05
2.52768e-05
3.49157e-05
5.32908e-05
3.16578e-05
6.17639e-06
8.33831e-06
3.74694e-05
0.00010758
0.000147021
0.000146698
0.000132301
0.000112416
9.28893e-05
7.82003e-05
7.0122e-05
6.66339e-05
6.21044e-05
5.19677e-05
4.0926e-05
3.66542e-05
4.25515e-05
5.79497e-05
7.10704e-05
6.2619e-05
3.98904e-05
3.02609e-05
3.92147e-05
7.39297e-05
0.000154129
0.000244647
0.000276727
0.000254789
0.00020079
0.000135451
8.27856e-05
5.2359e-05
4.06839e-05
4.69468e-05
6.09838e-05
9.15905e-06
8.66486e-06
3.96593e-05
0.000112568
0.000145776
0.000141601
0.000126333
0.00010734
8.85908e-05
7.30245e-05
6.25694e-05
5.74585e-05
5.56476e-05
5.21452e-05
4.24117e-05
3.12301e-05
2.5312e-05
2.58309e-05
3.20313e-05
4.33587e-05
5.61248e-05
5.77546e-05
4.87487e-05
4.93007e-05
6.45937e-05
9.04153e-05
0.000116028
0.000134611
0.000146788
0.000152941
0.000146387
0.000119917
8.48319e-05
6.58321e-05
6.68487e-05
8.49646e-06
8.73139e-06
4.25026e-05
0.00011803
0.000144103
0.000140294
0.000126804
0.000108556
8.98819e-05
7.47339e-05
6.42007e-05
5.60934e-05
4.72359e-05
3.75712e-05
2.97976e-05
2.54228e-05
2.48987e-05
2.77219e-05
3.29002e-05
3.94415e-05
4.73758e-05
5.7255e-05
6.21528e-05
5.09729e-05
3.93603e-05
4.15117e-05
5.72257e-05
8.01913e-05
9.63478e-05
0.000100939
9.8565e-05
9.18742e-05
8.27472e-05
7.98475e-05
8.25148e-05
9.63796e-06
8.53965e-06
4.46372e-05
0.000119842
0.000140083
0.000137416
0.000125527
0.000107452
8.70804e-05
6.94477e-05
5.75092e-05
4.92731e-05
3.86086e-05
2.22672e-05
7.13092e-06
4.18751e-06
1.394e-05
3.01631e-05
6.61836e-05
0.000151307
0.000215214
0.000203441
0.000161909
0.000122641
9.69917e-05
8.59404e-05
8.41763e-05
8.24561e-05
7.48473e-05
6.56995e-05
6.45256e-05
7.34622e-05
8.63254e-05
9.96918e-05
7.39053e-05
9.42923e-06
8.37899e-06
4.48839e-05
0.000119686
0.000139142
0.000136127
0.000124579
0.000108046
8.90822e-05
7.009e-05
5.401e-05
4.18934e-05
3.10139e-05
1.94813e-05
1.29958e-05
1.83664e-05
3.54148e-05
7.03871e-05
0.000162815
0.00032063
0.000338369
0.000274174
0.000210634
0.000164499
0.000133063
0.000111709
9.54356e-05
7.97752e-05
6.37871e-05
5.14598e-05
4.89547e-05
5.91974e-05
7.56923e-05
8.66423e-05
4.67197e-05
8.67064e-06
8.19128e-06
4.33646e-05
0.000118817
0.000142346
0.000140761
0.000130226
0.000115683
0.000100218
8.45181e-05
6.88214e-05
5.56371e-05
4.71216e-05
3.97751e-05
2.39778e-05
4.24963e-06
3.84548e-06
4.71439e-06
1.07193e-05
4.34463e-05
0.000132654
0.000277555
0.000330158
0.000316076
0.000268626
0.000209985
0.000156785
0.000112552
7.66682e-05
5.06812e-05
3.67084e-05
3.55597e-05
4.80581e-05
7.18371e-05
4.34993e-05
8.95746e-06
8.00219e-06
4.12728e-05
0.00011707
0.000147362
0.000148051
0.000138032
0.000123925
0.000110167
9.78112e-05
8.47776e-05
6.94391e-05
5.45191e-05
4.41161e-05
3.83993e-05
3.20728e-05
1.61068e-05
6.48811e-06
6.77398e-07
4.08199e-06
1.60745e-05
5.09968e-05
0.000127193
0.000237847
0.000298757
0.000295354
0.000249262
0.00017645
0.000106281
5.91596e-05
3.49797e-05
2.85749e-05
4.23587e-05
7.79055e-05
4.6126e-05
9.03152e-06
7.96893e-06
3.94953e-05
0.00011406
0.000151762
0.000153685
0.000142634
0.000127607
0.000114858
0.00010673
0.000101659
9.50126e-05
8.20642e-05
6.47552e-05
5.02648e-05
4.15896e-05
3.6037e-05
2.62527e-05
9.03555e-06
7.2655e-08
4.43221e-06
4.51287e-06
8.91054e-06
3.56475e-05
8.07223e-05
0.000141242
0.000180197
0.00017831
0.000147614
0.000106338
7.32482e-05
5.84067e-05
6.4376e-05
7.95555e-05
3.36864e-05
7.36571e-06
8.12394e-06
3.86452e-05
0.000112702
0.000154505
0.000155954
0.000142512
0.000124746
0.000109948
0.000101044
9.75846e-05
9.773e-05
9.81411e-05
9.26782e-05
7.74363e-05
5.9105e-05
4.64044e-05
4.09503e-05
3.93684e-05
3.44611e-05
2.09891e-05
4.22196e-06
4.37198e-06
2.13981e-06
5.52465e-06
1.51882e-05
3.77593e-05
6.84687e-05
8.91653e-05
8.83217e-05
7.79737e-05
7.43921e-05
8.18681e-05
8.13743e-05
3.45622e-05
5.29926e-06
8.41869e-06
3.88087e-05
0.000113283
0.000156957
0.000155675
0.000139354
0.000120653
0.000106917
9.99582e-05
9.82865e-05
9.94447e-05
0.000101257
0.000102031
9.91497e-05
8.85644e-05
7.08867e-05
5.41752e-05
4.36421e-05
3.89286e-05
3.73765e-05
3.52696e-05
2.87223e-05
1.68649e-05
3.67808e-06
6.80882e-07
5.03479e-06
1.72172e-06
9.67539e-06
2.92389e-05
5.15552e-05
6.18112e-05
6.18017e-05
5.67019e-05
3.47911e-05
5.35858e-06
8.80154e-06
4.06276e-05
0.000117773
0.000157487
0.000151186
0.000131203
0.00011138
9.93345e-05
9.59051e-05
9.82689e-05
0.000102544
0.000105181
0.000103959
9.84861e-05
8.9886e-05
7.94728e-05
6.80948e-05
5.81498e-05
5.21842e-05
5.00204e-05
5.05942e-05
5.21556e-05
5.1383e-05
4.58517e-05
3.71805e-05
2.6882e-05
1.36689e-05
6.5868e-06
5.21782e-07
5.01348e-06
5.77372e-06
1.18332e-05
1.28962e-05
2.21824e-05
4.41039e-06
9.05643e-06
4.34602e-05
0.000124286
0.000156119
0.000146212
0.000124037
0.000104396
9.52386e-05
9.65182e-05
0.000104561
0.000114002
0.000119149
0.000116316
0.000105433
9.00421e-05
7.46659e-05
6.16943e-05
5.58471e-05
5.89443e-05
6.73361e-05
8.05724e-05
9.91903e-05
0.000114271
0.000109995
8.75387e-05
6.74555e-05
5.61818e-05
4.69e-05
3.73263e-05
3.14464e-05
2.89358e-05
2.45481e-05
1.02403e-05
1.06135e-05
4.50308e-06
9.19799e-06
4.70975e-05
0.000132939
0.000152264
0.000136435
0.000111602
9.37643e-05
8.91961e-05
9.6051e-05
0.00010801
0.000115643
0.000111443
9.46814e-05
7.28235e-05
5.39036e-05
3.90472e-05
2.95285e-05
3.74411e-05
7.66724e-05
0.00018751
0.000322466
0.000359569
0.000333123
0.000277134
0.000214196
0.00016279
0.000130954
0.00011487
0.00010566
9.60915e-05
8.00877e-05
4.84512e-05
1.33495e-05
1.07716e-05
8.74052e-06
9.22954e-06
4.96227e-05
0.000133517
0.000146553
0.000129301
0.000105323
8.85177e-05
8.39534e-05
8.95105e-05
9.81853e-05
9.94456e-05
8.68065e-05
6.68816e-05
5.35167e-05
5.13275e-05
5.59442e-05
5.85451e-05
5.09803e-05
5.19067e-05
7.97306e-05
0.00015091
0.000265971
0.000349376
0.000355455
0.000311829
0.000250119
0.000194705
0.000157983
0.000137153
0.000119754
9.30004e-05
5.7334e-05
3.32918e-05
4.98607e-05
1.02596e-05
9.02223e-06
5.05036e-05
0.000130088
0.000141491
0.000128633
0.000107623
9.0327e-05
8.39718e-05
8.80984e-05
9.59298e-05
9.58306e-05
8.10526e-05
6.13365e-05
5.34495e-05
6.24186e-05
8.1801e-05
9.14911e-05
8.18034e-05
6.80184e-05
6.36642e-05
7.64118e-05
0.000112316
0.000174328
0.000235224
0.000251881
0.000226279
0.000184766
0.000148834
0.000125285
0.000109246
9.27661e-05
7.54002e-05
6.91736e-05
7.06724e-05
9.99854e-06
8.75251e-06
4.90845e-05
0.000126535
0.000138829
0.0001277
0.00010607
8.50411e-05
7.33848e-05
7.20403e-05
7.58261e-05
7.40881e-05
6.0744e-05
4.58353e-05
4.17648e-05
5.23452e-05
8.35956e-05
0.000139168
0.00017127
0.000148029
0.000113004
9.44405e-05
9.87595e-05
0.000129102
0.000183718
0.000233582
0.000240871
0.000212667
0.000174171
0.00014085
0.000116606
0.000100448
9.30477e-05
9.68113e-05
6.0077e-05
9.18605e-06
8.73249e-06
4.67553e-05
0.000124675
0.00014402
0.000137853
0.000120978
9.7485e-05
7.64339e-05
6.64483e-05
7.00001e-05
8.73178e-05
0.00010948
0.000106486
6.80185e-05
2.7976e-05
1.88418e-05
3.48056e-05
7.78138e-05
0.000142604
0.000154744
0.000123031
9.24594e-05
7.76085e-05
8.06415e-05
0.000103849
0.000143487
0.000177842
0.000188986
0.000182777
0.000168857
0.000153813
0.000144659
0.000143213
8.4812e-05
9.69634e-06
8.55702e-06
4.4495e-05
0.000122183
0.000146384
0.000143035
0.00013116
0.000116168
9.84998e-05
8.02691e-05
6.8924e-05
6.8991e-05
8.06391e-05
9.78528e-05
9.45254e-05
4.76956e-05
6.80441e-06
3.6345e-06
1.30623e-05
6.24422e-05
0.000173984
0.000212499
0.000172415
0.00011831
8.51382e-05
7.6712e-05
9.27387e-05
0.000131885
0.000167288
0.00016976
0.000156287
0.000147769
0.00014964
0.000154481
8.74779e-05
1.00203e-05
8.37557e-06
4.28322e-05
0.000122198
0.000148864
0.000143625
0.000126927
0.000109044
9.46895e-05
8.23521e-05
7.11345e-05
6.44153e-05
6.60383e-05
8.04878e-05
0.000117129
0.000173653
0.000143864
4.81344e-05
4.99601e-06
8.11516e-06
3.92907e-05
0.000122702
0.000220234
0.000185968
0.000120403
7.88975e-05
6.19733e-05
6.42759e-05
8.7868e-05
0.000133253
0.000169264
0.000176098
0.000168757
0.000146405
6.31478e-05
8.96341e-06
8.37835e-06
4.05352e-05
0.000115948
0.000149253
0.00014422
0.000126807
0.000110954
0.000102104
9.67126e-05
8.98614e-05
8.27739e-05
8.08065e-05
8.56935e-05
9.37936e-05
0.000100137
0.000105225
0.000113655
9.49483e-05
2.99255e-05
1.29945e-06
9.0366e-07
3.22235e-05
0.00011123
0.000180116
0.000152819
0.000101271
6.85631e-05
5.70448e-05
6.67682e-05
0.000102567
0.000145221
0.000158733
0.00015077
8.32631e-05
9.93546e-06
8.4417e-06
4.06542e-05
0.000118627
0.000148742
0.000136863
0.000111943
9.41591e-05
8.90299e-05
9.16016e-05
9.35765e-05
8.94861e-05
8.40873e-05
8.64084e-05
0.000101327
0.000127836
0.000155748
0.000170039
0.000162234
0.000118971
4.365e-05
4.23205e-06
5.65801e-06
2.39707e-05
8.65855e-05
0.000203597
0.000257986
0.000206312
0.000119253
6.27797e-05
4.5779e-05
5.88773e-05
9.08428e-05
0.000126981
0.000101374
1.12642e-05
8.60417e-06
4.06976e-05
0.000117812
0.000147358
0.000129044
9.96555e-05
8.36228e-05
8.20913e-05
8.85866e-05
9.71241e-05
0.000103275
0.000105517
0.000107184
0.00011362
0.000126637
0.000142651
0.000154926
0.000158524
0.00015158
0.000126112
7.07328e-05
2.0946e-05
9.42592e-07
3.65708e-06
2.37426e-05
5.73966e-05
8.96101e-05
9.6244e-05
7.34873e-05
5.51038e-05
6.55834e-05
0.00010401
0.000132162
6.17387e-05
1.03893e-05
8.86484e-06
4.17986e-05
0.000120433
0.000141744
0.00011218
8.10454e-05
7.06272e-05
7.60419e-05
8.87888e-05
0.00010099
0.000108764
0.000113338
0.000118044
0.000125739
0.000137756
0.000153158
0.000168368
0.000177626
0.000175411
0.000161667
0.000142037
0.000116887
8.04501e-05
4.62313e-05
2.68846e-05
1.93564e-05
1.91606e-05
2.3298e-05
2.81929e-05
3.2537e-05
4.46412e-05
8.29068e-05
0.000120225
4.54383e-05
8.83665e-06
9.04073e-06
4.32481e-05
0.000122492
0.000133183
9.45778e-05
6.56759e-05
6.14034e-05
7.3951e-05
9.44143e-05
0.000112996
0.000125023
0.000133138
0.00014257
0.000156502
0.000174536
0.000193416
0.000208525
0.000215201
0.000210568
0.000196721
0.000180966
0.000167037
0.000146849
0.000111347
7.3345e-05
4.67297e-05
2.89066e-05
1.55188e-05
9.70265e-06
1.53982e-05
2.99721e-05
5.88345e-05
0.000105803
4.42069e-05
8.49644e-06
9.20945e-06
4.49639e-05
0.000122562
0.000122538
7.91144e-05
5.41372e-05
5.47547e-05
7.3719e-05
0.000101749
0.000126113
0.000141641
0.000151902
0.000163175
0.000180411
0.000205575
0.000237155
0.000269286
0.000288441
0.00027081
0.000207035
0.000140359
0.000108526
0.000105593
0.000115031
0.000116137
9.66247e-05
6.47919e-05
3.37031e-05
1.08429e-05
3.56821e-06
1.5657e-05
4.75605e-05
9.21008e-05
4.91315e-05
9.35629e-06
9.26462e-06
4.57479e-05
0.000120049
0.000114165
7.04268e-05
4.64602e-05
4.76282e-05
6.84519e-05
0.000100572
0.000129378
0.000149029
0.000163179
0.000177396
0.00019579
0.000219981
0.000247829
0.000269498
0.000261476
0.000204748
0.000137139
0.000106876
0.000114599
0.000147237
0.00017965
0.000184272
0.000157426
0.000113058
6.64528e-05
2.78386e-05
5.10893e-06
6.1041e-06
2.63138e-05
7.81939e-05
4.97721e-05
9.99547e-06
9.20968e-06
4.46149e-05
0.000115193
0.000113886
7.20857e-05
4.24959e-05
3.86866e-05
5.55814e-05
8.83926e-05
0.000122572
0.00014786
0.000165857
0.000181588
0.000198629
0.000218342
0.000239648
0.000257499
0.000258829
0.000222906
0.000153609
0.000101947
9.43428e-05
0.000125089
0.000178979
0.000213721
0.000209093
0.000174152
0.000121638
6.56722e-05
2.33217e-05
5.0183e-06
8.78306e-06
5.64812e-05
4.37933e-05
9.85571e-06
9.05171e-06
4.18938e-05
0.000109752
0.000116642
7.91219e-05
4.09772e-05
2.99948e-05
4.0128e-05
6.96401e-05
0.000108979
0.000143375
0.00016958
0.000191503
0.000212366
0.00023299
0.000252246
0.000266982
0.000270225
0.000248829
0.000192339
0.000123646
8.69718e-05
9.41142e-05
0.000141737
0.000205784
0.000233908
0.000221121
0.000183238
0.00012791
6.64513e-05
2.40367e-05
1.13137e-05
3.422e-05
4.76215e-05
9.66924e-06
8.94645e-06
3.98936e-05
0.000107293
0.000118893
8.27373e-05
4.11438e-05
2.53592e-05
3.0199e-05
5.49389e-05
9.57673e-05
0.000137569
0.000172426
0.000202532
0.000230888
0.000258011
0.00028252
0.000301831
0.000311282
0.000301453
0.000258696
0.000183459
0.000112392
8.17789e-05
9.41823e-05
0.000145834
0.000208213
0.000233468
0.000221231
0.000184797
0.000125847
5.93195e-05
2.64111e-05
3.17388e-05
7.37428e-05
1.01419e-05
9.02788e-06
4.03335e-05
0.000110698
0.000115486
7.06079e-05
3.6186e-05
2.33876e-05
2.74189e-05
5.09506e-05
9.28078e-05
0.000137687
0.000177308
0.000214088
0.000250844
0.000287287
0.000320947
0.000348379
0.000364798
0.000361941
0.000327755
0.000256482
0.000168098
0.000102737
8.10829e-05
0.000100086
0.00015332
0.00020418
0.000217054
0.000195114
0.000143122
7.47062e-05
3.69235e-05
4.16729e-05
9.6079e-05
1.09108e-05
9.33146e-06
4.45423e-05
0.00011687
0.000100506
5.1211e-05
2.73706e-05
2.23308e-05
3.12839e-05
5.9154e-05
0.00010151
0.000142065
0.000178566
0.000215975
0.000256885
0.000300043
0.000341905
0.000378034
0.000402823
0.000407733
0.000381158
0.000315787
0.000223403
0.000137273
8.69419e-05
7.79265e-05
0.00010576
0.000156071
0.000181363
0.000163831
0.00011596
6.66783e-05
4.49264e-05
6.41127e-05
8.79135e-05
1.11624e-05
9.54563e-06
5.03943e-05
0.000115356
8.39435e-05
4.02858e-05
2.22045e-05
2.21165e-05
3.81561e-05
7.05281e-05
0.000106399
0.000136716
0.000165664
0.00019895
0.000238811
0.000283701
0.000329473
0.000370711
0.00040144
0.000415125
0.00040326
0.00035696
0.000277282
0.000184469
0.000110153
7.30101e-05
7.17445e-05
9.98662e-05
0.000131769
0.000127723
9.44814e-05
6.38361e-05
5.75666e-05
9.6099e-05
7.03497e-05
1.07661e-05
9.46135e-06
5.29862e-05
0.000111804
8.4916e-05
4.48776e-05
2.42344e-05
2.17272e-05
3.65378e-05
6.60037e-05
9.58038e-05
0.000120843
0.00014511
0.000173775
0.000209543
0.000251859
0.00029722
0.000340291
0.00037506
0.000395352
0.000395022
0.000368826
0.00031448
0.000236702
0.00015332
9.09765e-05
6.31407e-05
6.57211e-05
8.68252e-05
9.69894e-05
8.24629e-05
6.59902e-05
7.12653e-05
0.000117902
6.17445e-05
1.03094e-05
9.12854e-06
4.95944e-05
0.000113679
0.000108099
7.29821e-05
3.7465e-05
2.2003e-05
2.3394e-05
4.05599e-05
6.91991e-05
9.91474e-05
0.000126914
0.000156817
0.00019296
0.000236144
0.000283496
0.000329393
0.000367213
0.000391044
0.000396434
0.000380258
0.00034048
0.00027733
0.000197549
0.000120651
7.08529e-05
5.45026e-05
6.18429e-05
7.4263e-05
7.29187e-05
6.83122e-05
8.2376e-05
0.000127407
5.93855e-05
1.01932e-05
8.82005e-06
4.41586e-05
0.000111537
0.000126382
0.000113217
7.38362e-05
3.50131e-05
1.9091e-05
1.91012e-05
3.40492e-05
6.41204e-05
0.00010031
0.000137238
0.000178018
0.0002257
0.000279186
0.00033363
0.000381767
0.000415119
0.000426026
0.000413315
0.000374994
0.000312589
0.000230339
0.00014332
7.82966e-05
4.98474e-05
5.00593e-05
6.30464e-05
6.90655e-05
7.34732e-05
9.48289e-05
0.000134543
5.80502e-05
1.02107e-05
8.66317e-06
4.04557e-05
0.000108028
0.000130548
0.000120666
0.000100616
6.81977e-05
3.32043e-05
1.67035e-05
1.60128e-05
3.23798e-05
6.68148e-05
0.00011072
0.000158766
0.000213499
0.000277308
0.000347786
0.00041127
0.000423261
0.000424869
0.000424173
0.000408308
0.000340914
0.000252332
0.000157986
8.31676e-05
4.63077e-05
4.21289e-05
5.88386e-05
7.47526e-05
8.59023e-05
0.000110861
0.000140119
5.56866e-05
1.01032e-05
8.72573e-06
3.92156e-05
0.000105726
0.000128637
0.000108747
8.08929e-05
6.77542e-05
5.58672e-05
2.87363e-05
1.44561e-05
1.86123e-05
4.37105e-05
8.90353e-05
0.000145039
0.000208468
0.000282906
0.000366073
0.000415406
0.000421009
0.000423967
0.000424321
0.00042144
0.000353782
0.000268061
0.000175702
9.51492e-05
4.84037e-05
3.57239e-05
5.07201e-05
8.46763e-05
0.000107859
0.000131606
0.000146131
5.5414e-05
1.0015e-05
9.035e-06
4.07058e-05
0.000107508