/*--------------------------------*- C++ -*----------------------------------*\
| =========                 |                                                 |
| \\      /  F ield         | OpenFOAM: The Open Source CFD Toolbox           |
|  \\    /   O peration     | Version:  v2006                                 |
|   \\  /    A nd           | Website:  www.openfoam.com                      |
|    \\/     M anipulation  |                                                 |
\*---------------------------------------------------------------------------*/
FoamFile
{
    version     2.0;
    format      ascii;
    class       volScalarField;
    location    "32";
    object      omega;
}
// * * * * * * * * * * * * * * * * * * * * * * * * * * * * * * * * * * * * * //

dimensions      [0 0 -1 0 0 0 0];


internalField   nonuniform List<scalar> 
78750
(
1138.36
163.665
110.974
60.621
29.8947
16.9802
18.1865
16.4096
17.4212
16.1807
17.0227
16.2223
16.4509
16.1802
16.1401
16.0227
15.942
15.8621
15.7911
15.7264
15.6669
15.6106
15.555
15.4996
15.4434
15.3845
15.3202
15.2475
15.1633
15.062
14.9342
14.7638
14.537
14.0572
497.876
411.663
11.5942
10.017
9.57865
11.1693
10.5651
10.5571
10.6082
10.4979
10.4926
10.4023
10.3541
10.2838
10.2206
10.1543
10.0892
10.0255
9.96406
9.90546
9.84972
9.79686
9.74687
9.69864
9.65067
9.60239
9.55329
9.5026
9.44846
9.38866
9.32245
9.24981
9.16809
9.03851
8.40294
738.552
399.21
8.07234
9.03245
9.60986
9.61726
9.91637
10.1879
10.3842
10.4894
10.5075
10.4835
10.4349
10.3797
10.3252
10.274
10.2248
10.1753
10.1225
10.0655
10.005
9.94226
9.87769
9.8099
9.7369
9.6576
9.57195
9.4803
9.38246
9.27848
9.17293
9.07216
8.95325
8.97963
9.86321
744.381
399.184
7.99383
10.1992
11.6363
12.649
13.3109
13.718
13.9128
13.925
13.7908
13.5519
13.2512
12.9276
12.6138
12.3339
12.1008
11.9168
11.7748
11.6665
11.5831
11.5167
11.4599
11.4067
11.3493
11.2782
11.1809
11.0438
10.8526
10.5979
10.2336
9.5837
8.68827
7.96751
8.8921
745.243
404.101
13.5961
16.0301
17.146
17.6424
17.8033
17.74
17.4842
17.0444
16.4633
15.8088
15.138
14.4945
13.9152
13.436
13.0771
12.8243
12.6334
12.4759
12.3459
12.2394
12.1519
12.0789
12.0142
11.9521
11.8866
11.8132
11.7316
11.6359
11.5104
11.3227
10.7221
9.25596
10.6732
750.028
410.913
16.2486
17.5994
17.8406
17.7384
17.4648
17.0073
16.2603
15.2052
14.0705
13.1544
12.6141
12.3844
12.3094
12.2893
12.2875
12.2919
12.2963
12.2972
12.2922
12.2799
12.2598
12.2313
12.193
12.1433
12.0805
12.0012
11.898
11.7561
11.5535
11.274
10.8486
10.0731
11.1688
751.868
417.673
16.8198
17.4378
17.5947
17.5987
17.4608
17.0962
16.377
15.3572
14.2663
13.3105
12.606
12.1693
11.9407
11.8436
11.8214
11.8438
11.8959
11.9682
12.0534
12.1448
12.2362
12.3211
12.392
12.4392
12.4512
12.4155
12.3176
12.1463
11.9031
11.6059
11.248
10.6932
11.7714
753.579
417.759
16.8143
17.7686
18.1844
18.394
18.4742
18.4339
18.2344
17.772
16.9833
15.9516
14.8209
13.729
12.7987
12.1099
11.6661
11.4085
11.2735
11.2198
11.2274
11.2858
11.3874
11.5242
11.6841
11.8507
12.0032
12.119
12.1738
12.1448
12.0145
11.7817
11.4358
10.8786
12.4246
756.024
415.319
16.3133
17.5474
18.1533
18.5255
18.7817
18.9543
19.0459
19.029
18.8253
18.3389
17.5303
16.4292
15.1308
13.8063
12.6717
11.8718
11.3925
11.1311
10.9972
10.9415
10.9405
10.9812
11.0523
11.1415
11.2335
11.308
11.3431
11.3176
11.2155
11.0409
10.8548
11.2072
13.782
758.276
414.307
15.9155
17.3279
17.9849
18.3295
18.5154
18.5992
18.6209
18.6234
18.6341
18.6187
18.4621
18.0039
17.1122
15.7535
14.0691
12.3861
11.0756
10.3064
9.98084
9.9373
10.0594
10.2833
10.5612
10.8449
11.0923
11.2714
11.3568
11.3191
11.1246
10.7361
10.1317
10.0675
13.6092
759.717
417.589
16.968
18.092
18.487
18.6068
18.5732
18.4229
18.1832
17.8899
17.612
17.4509
17.4583
17.5459
17.4853
16.9929
15.8792
14.2079
12.3171
10.6899
9.64319
9.19131
9.25694
9.61068
10.0571
10.5278
11.0039
11.4693
11.8887
12.1838
12.2631
12.0411
11.3661
11.0878
14.7026
762.044
427.256
19.1713
19.4951
19.4384
19.2488
18.965
18.6329
18.2869
17.8903
17.3891
16.8227
16.3692
16.1977
16.2556
16.3433
16.2433
15.742
14.7619
13.359
11.6748
9.96941
8.5992
7.54561
7.20247
7.63548
8.34188
9.1571
9.93601
10.7247
11.5127
12.1422
12.2871
12.2335
15.4678
762.668
434.289
19.4007
19.0888
18.7362
18.293
17.8096
17.4511
17.3014
17.2302
17.0728
16.7532
16.2994
15.8545
15.5294
15.3017
15.0975
14.8247
14.368
13.658
12.7116
11.6232
10.5246
9.49598
8.47355
7.29125
5.81052
4.30489
4.49182
4.70386
5.99426
7.94756
10.6319
12.9587
16.4721
762.696
434.709
19.1103
18.8175
18.4649
17.986
17.4478
17.0024
16.7313
16.5913
16.5082
16.4304
16.3155
16.1367
15.9058
15.6498
15.3729
15.0522
14.646
14.1059
13.4178
12.62
11.7797
10.9238
10.0226
9.06579
8.12555
7.18098
6.03958
4.28616
4.27592
4.86666
6.2422
12.1124
16.5788
762.588
429.423
18.7489
19.0066
19.0996
19.095
18.9769
18.727
18.3584
17.925
17.4857
17.0761
16.7108
16.3881
16.0965
15.8254
15.5656
15.3023
15.0078
14.6359
14.1281
13.4552
12.6569
11.822
11.003
10.1849
9.33658
8.4725
7.55907
6.4026
4.62355
4.2193
4.40255
12.3594
17.1401
763.272
423.154
18.3619
19.0835
19.43
19.6551
19.7926
19.8318
19.7493
19.5281
19.176
18.7226
18.2084
17.6748
17.157
16.6791
16.2522
15.8741
15.529
15.1878
14.8049
14.3131
13.6451
12.7965
11.8631
10.9488
10.062
9.15477
8.19381
7.06836
5.45671
4.83834
4.71892
11.7061
17.1925
763.7
422.861
18.3908
19.2607
19.6626
19.9145
20.0928
20.2154
20.2804
20.2696
20.1539
19.9076
19.5221
19.012
18.4128
17.774
17.1494
16.5847
16.1045
15.7024
15.3456
14.9832
14.5436
13.9232
13.036
11.9328
10.7709
9.65256
8.55488
7.34593
5.72704
3.6845
4.94943
10.6716
16.9744
764.304
421.523
18.041
19.1761
19.6736
19.9487
20.1197
20.2241
20.284
20.315
20.3208
20.2847
20.1687
19.9266
19.527
18.9673
18.2786
17.5247
16.7932
16.1659
15.6759
15.2933
14.9531
14.5747
14.0449
13.193
11.937
10.4705
9.00247
7.52961
5.76543
4.97756
4.08305
9.65779
16.7799
765.175
424.966
19.1344
20.0587
20.4005
20.5433
20.5766
20.5244
20.4008
20.2253
20.0348
19.879
19.7839
19.7183
19.6116
19.3904
18.9925
18.3873
17.6087
16.769
16.0207
15.4572
15.059
14.7383
14.399
13.9219
13.0946
11.7226
9.91409
7.87568
5.51966
4.62372
4.03578
9.10664
16.7164
766.091
428.495
19.7241
20.5182
20.8679
21.0537
21.1415
21.1429
21.0545
20.8656
20.573
20.2144
19.8708
19.6074
19.4201
19.2541
19.0417
18.7041
18.151
17.35
16.4228
15.5904
14.9915
14.5952
14.2892
13.9586
13.4732
12.6102
11.1241
8.95206
5.73226
3.83042
5.92958
8.45683
16.4853
766.812
430.309
19.9843
20.6891
20.9892
21.133
21.1826
21.1523
21.0455
20.8624
20.6099
20.3063
19.9759
19.6494
19.3547
19.092
18.8348
18.5401
18.1396
17.5306
16.6588
15.6768
14.8528
14.3038
13.9538
13.6638
13.3023
12.7029
11.6445
9.87561
6.81396
3.93284
6.02853
9.1172
16.906
768.289
433.95
20.7834
21.3599
21.599
21.6996
21.7004
21.6052
21.4083
21.1058
20.7273
20.3515
20.0354
19.7622
19.4915
19.2025
18.8863
18.5287
18.0962
17.5216
16.7084
15.6498
14.5799
13.7825
13.3015
12.997
12.6975
12.2258
11.3858
9.93083
7.40968
4.49802
3.64439
11.4568
18.0041
767.923
434.683
20.9878
21.6001
21.8674
21.9872
21.9984
21.9018
21.6856
21.3336
20.8607
20.3651
19.9797
19.7367
19.5616
19.3718
19.1222
18.7911
18.3539
17.7595
16.914
15.7204
14.274
12.949
12.0424
11.5207
11.134
10.6211
9.77979
8.30317
4.61305
3.95989
4.09923
9.68908
17.579
767.923
436.052
21.4339
22.0123
22.2528
22.3544
22.3527
22.2463
22.0203
21.6542
21.1451
20.5524
20.0177
19.67
19.5036
19.4155
19.3094
19.1298
18.8416
18.398
17.7036
16.5767
14.8815
12.7747
10.6402
8.95177
7.83823
6.92535
5.64408
5.45978
4.096
4.81336
3.85816
9.92271
17.5061
768.366
436.181
21.6054
22.2104
22.4485
22.5408
22.5295
22.4162
22.1913
21.8437
21.3807
20.8327
20.2617
19.7863
19.5057
19.4029
19.3836
19.361
19.2841
19.1211
18.8334
18.3342
17.4148
15.7915
13.3574
10.1718
6.22134
3.92022
5.0744
3.81246
4.50816
3.72474
5.78026
8.50232
17.4317
770.235
437.472
21.9764
22.5091
22.6809
22.7106
22.6319
22.4406
22.1231
21.6799
21.1682
20.6752
20.2263
19.8278
19.5323
19.3806
19.3443
19.3586
19.3689
19.3423
19.2601
19.1049
18.8421
18.3774
17.469
15.7712
13.0534
8.70432
3.90626
3.84255
4.82936
3.95367
8.80991
15.5985
19.5071
768.77
441.243
22.4221
22.7187
22.7882
22.7525
22.6125
22.3453
21.9206
21.3366
20.6982
20.1833
19.8504
19.6395
19.5042
19.4382
19.431
19.4534
19.4733
19.4688
19.426
19.3323
19.1681
18.8961
18.4346
17.5958
16.0638
13.4061
8.99069
3.64412
5.54656
4.64127
11.8565
19.8609
23.0887
767.166
445.238
22.6893
22.7669
22.7683
22.7016
22.5372
22.2358
21.7542
21.0811
20.3283
19.7296
19.4141
19.321
19.3401
19.4054
19.4877
19.5708
19.6412
19.6884
19.7058
19.6879
19.6277
19.5161
19.3388
19.0677
18.6394
17.9196
16.7644
15.2205
14.0001
12.1998
7.7922
8.19103
12.9448
747.884
444.993
22.5805
22.7593
22.84
22.8432
22.7465
22.5155
22.1078
21.4826
20.6584
19.8111
19.2032
18.9369
18.9247
19.0394
19.1965
19.3542
19.4933
19.6066
19.6882
19.7318
19.7308
19.6789
19.5706
19.3873
19.1247
19.0019
18.8372
18.3389
15.3782
9.0444
6.35431
6.27904
7.12903
774.547
442.261
22.4264
22.784
22.9484
23.023
23.013
22.8972
22.6386
22.1773
21.4381
20.4285
19.3842
18.6453
18.339
18.3478
18.504
18.6904
18.8484
18.9644
19.0216
18.9815
18.7982
18.4213
17.7577
16.4205
13.1373
11.1637
17.4404
21.392
21.25
19.438
18.2412
19.2679
23.0627
786.749
441.251
22.4643
22.8549
23.0122
23.0797
23.0827
23.0189
22.8735
22.6121
22.1566
21.3754
20.2214
18.9749
18.08
17.6838
17.6346
17.7477
17.9227
18.1205
18.3242
18.4985
18.5678
18.3988
17.7946
16.5906
15.1531
15.4122
18.6522
21.1386
21.6196
21.4189
21.1779
21.5058
22.3575
755.607
442.143
22.6694
23.03
23.1467
23.1617
23.1002
22.9659
22.7623
22.4987
22.1725
21.7221
20.9857
19.8463
18.5934
17.7105
17.3068
17.2097
17.2556
17.3638
17.5084
17.6806
17.8686
18.1213
18.3781
18.1597
17.2967
15.9877
14.8477
14.1893
14.0502
15.5133
17.5023
18.6671
16.7308
738.926
443.545
22.9465
23.2349
23.303
23.2742
23.1617
22.9589
22.6621
22.2808
21.8312
21.2996
20.5986
19.5672
18.2401
17.1075
16.5093
16.3167
16.3051
16.3669
16.5005
16.7252
16.9002
16.7522
17.5255
19.4619
20.6016
20.5763
19.7044
18.0212
15.5894
13.681
13.6286
13.8776
13.1073
753.972
446.748
23.3181
23.4239
23.4162
23.339
23.1776
22.9099
22.5201
22.0217
21.4518
20.8166
20.0218
18.8824
17.3416
15.9041
15.1631
14.995
15.0131
15.0906
15.6161
17.84
22.0738
25.9539
27.6382
28.0185
27.8896
27.3511
26.3066
24.5473
21.9343
18.7716
16.0083
15.1306
16.8337
762.303
450.512
23.532
23.4788
23.4256
23.3212
23.1258
22.8062
22.3385
21.7251
21.0092
20.2551
19.4742
18.5642
17.2909
15.6242
14.245
13.8276
14.2463
14.9646
15.5676
16.0669
16.9832
18.8315
21.0778
22.9433
24.314
25.301
25.9317
26.0656
25.458
23.9557
21.6467
19.3928
19.0987
760.405
453.568
23.6992
23.5782
23.5065
23.3733
23.1211
22.7043
22.0892
21.2728
20.2827
19.1182
17.6898
15.9373
14.0774
12.747
12.6267
13.3947
14.2295
14.8236
15.2594
15.4932
15.485
15.3514
15.5609
16.5565
17.8917
19.1381
20.2548
21.3136
22.2635
22.7572
22.4372
21.6773
21.5921
764.863
453.006
23.5069
23.488
23.4689
23.3521
23.0753
22.5759
21.7943
20.7032
19.3237
17.6249
15.423
12.3096
8.08436
6.93245
12.8894
18.707
22.2275
23.2971
23.2673
22.9729
22.4783
21.7739
20.9324
20.1629
19.5796
19.1286
18.8021
18.8064
19.5376
20.7304
21.4949
21.753
22.063
765.498
450.711
23.4736
23.6335
23.7105
23.6836
23.5056
23.1122
22.4268
21.3835
19.9649
18.1976
16.043
13.4941
11.9743
14.9734
20.3571
23.8791
25.3619
25.6032
25.5423
25.3744
25.0948
24.6747
24.1021
23.3938
22.5767
21.6667
20.7145
19.9374
19.8419
20.5305
20.9999
20.9305
20.8834
762.696
447.833
23.33
23.6556
23.8291
23.9116
23.8852
23.705
23.3076
22.6201
21.5906
20.2378
18.62
16.5565
13.2118
7.02994
7.44798
9.19917
13.378
21.8501
25.339
26.1644
26.2265
26.0351
25.6829
25.1576
24.4038
23.3494
21.9426
20.2892
18.8998
18.568
19.1162
19.6567
20.4968
765.066
445.35
23.3048
23.7616
23.9988
24.1461
24.2129
24.1742
23.984
23.5793
22.8824
21.819
20.4008
18.8185
17.2072
15.1234
11.0413
7.95857
5.03992
8.05104
14.2984
21.1131
25.1755
26.8508
27.299
27.1276
26.5365
25.5082
23.8803
21.5321
18.8027
16.906
17.1105
18.4433
20.1649
764.024
443.922
23.3341
23.8466
24.1051
24.2774
24.3939
24.4492
24.4223
24.2803
23.9797
23.457
22.6096
21.34
19.7187
17.9829
16.1688
13.5619
8.75191
4.35901
7.46812
7.90048
10.0678
17.8497
22.8485
25.9148
27.3169
27.5099
26.7787
25.2763
23.2025
21.0995
19.8056
19.4417
19.5882
756.679
444.597
23.5619
24.0304
24.2627
24.4174
24.5236
24.5783
24.5679
24.4739
24.2755
23.9562
23.496
22.8401
21.8828
20.5688
19.076
17.7056
16.4067
14.5518
11.5442
6.65638
7.07475
5.87866
7.45472
10.7779
15.4548
19.3676
21.9073
22.9667
22.8899
22.3526
21.918
21.56
20.6885
750.911
446.631
23.8044
24.1473
24.3259
24.4537
24.5509
24.612
24.6216
24.5623
24.4245
24.2061
23.9059
23.5124
22.99
22.255
21.2043
19.8878
18.5625
17.4445
16.4239
15.1546
13.3203
10.6801
6.62328
5.13192
7.32104
5.13413
8.39103
12.7552
15.9164
17.4686
17.9419
18.0517
17.7497
751.135
450.798
24.1945
24.3151
24.3896
24.448
24.4903
24.5065
24.4799
24.3901
24.2203
23.9645
23.6232
23.1972
22.6833
22.0734
21.3587
20.5639
19.8379
19.3142
18.9023
18.476
17.9046
17.0705
15.8757
14.2758
12.1993
9.47576
7.78538
4.77989
6.61843
5.75198
7.61405
8.47215
10.7288
748.309
454.822
24.4589
24.3657
24.3438
24.3359
24.3153
24.2582
24.1401
23.9413
23.6574
23.2942
22.8539
22.3244
21.6745
20.8567
19.8735
18.995
19.018
19.9295
20.8051
21.4117
21.6125
21.4122
20.8724
20.007
18.8642
17.5129
15.8109
13.9583
12.0978
10.3546
9.47636
8.26803
8.5465
748.871
457.634
24.528
24.2922
24.2091
24.1528
24.0746
23.9382
23.7141
23.3791
22.9263
22.3622
21.6867
20.8832
19.9037
18.6264
17.0426
16.6518
20.8308
26.5211
29.148
29.8644
29.9447
29.687
29.1087
28.1554
26.7945
25.137
23.3878
21.6206
19.7693
17.7538
15.3868
11.2252
10.0802
761.663
458.784
24.4327
24.1627
24.071
23.9947
23.8736
23.671
23.3684
22.9553
22.4309
21.8115
21.135
20.5086
20.1427
19.9813
19.3995
18.2867
18.0772
21.163
25.8015
29.0996
30.6422
31.219
31.3287
31.0892
30.4692
29.4218
28.0233
26.4689
24.7874
22.7459
20.0466
16.871
17.4708
767.858
457.752
24.1791
23.9989
23.9483
23.8777
23.7275
23.4597
23.0568
22.5086
21.809
20.9788
20.1104
19.5269
19.9014
21.3289
22.5601
22.7352
21.8618
20.4417
20.1319
22.2527
25.348
27.7708
29.1084
29.6653
29.6701
29.1634
28.1727
26.8512
25.3555
23.6466
21.6802
20.0648
20.5055
766.264
453.945
23.8869
23.9154
23.9544
23.9337
23.809
23.5455
23.1291
22.5568
21.8056
20.8715
19.8956
19.4049
20.2052
22.1386
23.8937
24.6197
24.5239
23.9896
23.2843
23.0625
24.1165
26.2648
28.3761
29.6892
30.1961
30.0416
29.2707
27.9283
26.1602
24.1868
22.3009
21.0023
20.7945
762.237
451.898
23.8441
23.9762
24.0953
24.1709
24.1704
24.063
23.8365
23.5199
23.1302
22.5733
21.6755
20.2182
17.9744
15.3469
15.6687
20.3446
23.333
24.4187
24.6034
24.3558
23.8893
23.6714
24.3196
25.9057
27.6249
28.7378
29.166
29.001
28.2719
27.0401
25.5142
24.0964
23.0512
763.762
450.68
23.7185
23.9676
24.1572
24.2937
24.3522
24.2935
24.0765
23.6938
23.2256
22.7704
22.2694
21.4816
19.9767
16.6347
8.2484
8.225
14
21.6387
23.6654
24.2629
24.3524
24.1268
23.8175
23.9865
25.0678
26.5155
27.4355
27.6822
27.515
27.0371
26.2868
25.4254
24.5181
765.623
449.031
23.7161
24.0537
24.2758
24.4499
24.577
24.6267
24.5414
24.2616
23.7902
23.2662
22.8895
22.706
22.5218
22.0506
20.7957
16.8282
8.22311
11.3454
20.0338
23.4026
24.2279
24.2644
23.9817
23.5629
23.4916
24.3772
26.0927
27.4825
27.7003
27.1903
26.3476
25.3136
23.9627
761.591
448.731
23.7748
24.0951
24.3045
24.484
24.6592
24.8266
24.9435
24.935
24.7225
24.2651
23.6238
22.906
22.1831
21.4766
20.8049
20.1318
18.7806
14.6827
5.78178
5.30436
18.3465
22.4986
23.3816
23.3683
22.9979
22.5653
22.6418
23.8809
25.8616
26.8205
26.7038
26.0018
24.9146
767.224
450.181
23.9807
24.1966
24.3307
24.4481
24.5814
24.7461
24.905
24.985
24.9358
24.7458
24.4539
24.1314
23.7771
23.295
22.603
21.6594
20.4195
18.724
15.5343
7.6552
9.46528
16.1201
22.5936
25.1264
25.8272
25.6177
24.6432
22.8701
21.7765
23.5381
25.2154
25.8247
26.1196
776.417
451.443
24.1783
24.2719
24.3257
24.3867
24.5042
24.725
24.9979
25.2118
25.2929
25.2127
24.9767
24.6413
24.2933
23.9674
23.6319
23.2125
22.6106
21.7044
20.3066
17.9399
13.1919
5.4202
7.38896
15.1994
20.6608
23.9484
25.6177
25.5809
24.0612
23.8701
24.7223
25.2704
25.6329
772.386
454.346
24.4301
24.3027
24.2223
24.1776
24.2386
24.5055
24.882
25.2032
25.4106
25.5124
25.5256
25.4624
25.3389
25.1744
24.9774
24.7436
24.4591
24.0965
23.6105
22.9295
21.8883
20.1406
17.5605
14.6885
12.7602
12.8073
15.0674
18.666
21.6162
23.088
24.2498
24.8073
24.9558
766.487
456.961
24.5965
24.2604
24.0397
23.8709
23.8751
24.2519
24.7987
25.2427
25.5165
25.6465
25.674
25.6412
25.5821
25.5145
25.4415
25.3581
25.2556
25.1235
24.9502
24.7187
24.3876
23.852
22.9203
21.2926
18.8302
15.732
12.4233
10.9905
14.9251
20.0435
22.2209
23.2662
23.6426
766.962
459.292
24.6823
24.1414
23.7715
23.4419
23.3362
23.8174
24.5592
25.1639
25.5661
25.7986
25.8922
25.8771
25.7903
25.6704
25.5471
25.4381
25.3511
25.2913
25.2814
25.4023
25.7379
25.9868
25.6723
24.6361
22.8037
20.1083
16.3937
11.2896
7.75939
14.2946
19.75
21.5977
22.7902
771.438
460.338
24.6283
23.9837
23.507
23.0086
22.6902
23.1643
24.1031
24.9098
25.4852
25.8671
26.0815
26.1441
26.0788
25.9218
25.7158
25.5003
25.3059
25.1744
25.25
25.8652
26.921
27.5282
27.4465
26.7983
25.5729
23.5986
20.6541
16.2492
9.36171
10.1727
16.4738
20.0541
22.4869
773.462
459.783
24.5588
23.9374
23.4141
22.7635
22.0576
22.1751
23.2545
24.3542
25.2
25.8193
26.2422
26.4779
26.5371
26.4432
26.2308
25.9404
25.6113
25.2797
25.027
25.1785
26.2844
27.6579
28.2163
28.1026
27.4673
26.2598
24.2837
21.2397
16.4719
10.1429
11.2132
17.7537
21.5909
771.797
458.266
24.5577
24.0333
23.5076
22.7611
21.6368
20.9475
21.9425
23.3956
24.5992
25.5228
26.2118
26.6788
26.9298
26.9824
26.8659
26.6151
26.2648
25.845
25.3858
25.0002
25.1997
26.6205
28.0462
28.6073
28.5662
28.0463
26.9947
25.2428
22.4821
18.1625
13.5473
16.5143
20.5137
770.56
457.622
24.7321
24.2337
23.6824
22.8811
21.5403
20.0482
20.6219
22.3366
23.8867
25.1106
26.0661
26.775
27.241
27.4781
27.5135
27.38
27.1101
26.7315
26.2591
25.7023
25.1768
25.2982
26.7177
28.0948
28.7051
28.7714
28.4017
27.5603
26.0847
23.5447
19.4516
18.3598
21.2322
772.847
459.215
24.9086
24.2283
23.537
22.574
21.0844
19.4834
19.8211
21.6485
23.3756
24.7719
25.9
26.7799
27.4092
27.7992
27.977
27.9744
27.8213
27.5406
27.1448
26.629
25.9885
25.3736
25.5118
26.8644
28.0539
28.5948
28.6584
28.3033
27.4283
25.6381
22.3924
21.011
23.2071
776.732
463.136
25.0325
24.0228
23.0785
21.7491
19.9601
18.9401
19.7732
21.634
23.2832
24.6583
25.8238
26.7727
27.4839
27.9614
28.23
28.3199
28.2575
28.0614
27.7399
27.2845
26.6666
25.8805
25.188
25.4901
26.8413
27.8227
28.2013
28.0976
27.4336
25.889
23.5531
22.9684
24.6325
777.639
465.717
24.87
23.6801
22.5493
20.8502
18.7425
18.317
19.8526
21.6551
23.1388
24.435
25.596
26.5879
27.3687
27.9288
28.2868
28.47
28.5013
28.396
28.1616
27.7921
27.2611
26.5213
25.574
24.8017
25.179
26.4152
27.1981
27.3897
26.9743
25.7926
24.3055
24.1014
25.085
775.28
464.028
24.5121
23.5327
22.535
20.9268
18.7217
17.8314
19.3173
21.0966
22.608
23.9531
25.173
26.2388
27.1071
27.7611
28.2142
28.4917
28.6173
28.6074
28.4698
28.2022
27.7885
27.1914
26.351
25.2723
24.4284
24.7995
25.7726
26.3168
26.2764
25.6121
24.7627
24.6195
25.0972
773.29
458.634
24.2083
23.7489
23.2108
22.2309
20.4083
18.1011
17.7935
19.3631
21.2398
22.9501
24.4501
25.7282
26.7578
27.5363
28.0889
28.451
28.6547
28.7212
28.6619
28.4785
28.162
27.688
27.0041
26.03
24.803
24.0623
24.5974
25.2413
25.4827
25.2446
24.8461
24.7801
25.102
773.296
453.9
24.2571
24.2144
24.0726
23.719
22.8165
20.6449
17.6089
16.7786
18.4966
20.8211
22.9049
24.6271
25.9898
27.0165
27.7501
28.2455
28.551
28.7003
28.7132
28.5967
28.3465
27.9439
27.3452
26.4635
25.2087
23.9576
24.0409
24.6837
24.9813
24.9353
24.7931
24.8241
25.1594
773.672
452.078
24.2807
24.2837
24.1941
24.0278
23.7287
22.9659
20.6166
16.8911
15.6991
17.9179
20.6457
22.9793
24.8206
26.1994
27.191
27.871
28.3091
28.5621
28.6591
28.6069
28.4078
28.0469
27.4807
26.6287
25.3744
23.9148
23.7068
24.7137
24.9853
24.9331
24.8347
24.8609
25.1334
773.033
453.311
24.4179
24.2376
23.9793
23.6319
23.198
22.8099
22.2776
19.821
15.7783
15.9201
18.78
21.5485
23.7724
25.4478
26.6599
27.5023
28.0647
28.4254
28.6152
28.6363
28.4925
28.173
27.639
26.8226
25.6104
24.038
23.2361
24.5605
25.3432
25.3185
25.158
25.0625
25.1527
772.254
457.274
24.7921
24.3276
23.8736
23.2851
22.4149
21.4162
20.9932
20.4995
17.4759
15.7334
18.0706
20.8735
23.1964
24.9946
26.3146
27.2467
27.9014
28.3588
28.6399
28.7442
28.674
28.4217
27.9527
27.2145
26.1143
24.5704
23.0679
23.4722
25.1885
25.7151
25.6843
25.5446
25.4833
772.454
462.342
25.0091
24.1932
23.5373
22.7151
21.4763
19.9227
18.9433
18.8385
17.9131
16.9853
18.9622
21.3634
23.3973
25.0315
26.2956
27.2321
27.9217
28.4326
28.781
28.9602
28.9672
28.793
28.4087
27.7734
26.8198
25.4387
23.6656
22.5166
23.6319
25.2464
25.778
25.8693
25.8536
773.003
465.024
24.7284
23.6749
22.8172
21.6261
19.8206
17.9214
16.9539
17.1646
17.8184
18.8409
20.7896
22.5739
24.1035
25.4296
26.5466
27.4429
28.1366
28.6607
29.0406
29.2816
29.3726
29.2929
29.0146
28.5058
27.7208
26.576
24.9562
23.0535
22.1738
23.3815
24.7374
25.3125
25.6319
773.095
463.398
24.2819
23.307
22.3836
20.8802
18.4334
15.8407
14.9481
16.2306
18.3791
20.463
22.1734
23.5021
24.6748
25.7626
26.7496
27.6009
28.3028
28.864
29.2998
29.6163
29.8047
29.8441
29.707
29.3646
28.785
27.9203
26.6777
24.9561
23.0416
22.1887
23.0526
23.9917
24.8392
773.302
459.388
24.1501
23.4759
22.7427
21.4662
19.1249
15.6995
13.1926
14.553
17.8312
20.5367
22.3839
23.7281
24.8523
25.8704
26.8028
27.6348
28.3521
28.9542
29.4503
29.8467
30.1382
30.3083
30.3318
30.1803
29.8259
29.2383
28.3698
27.1305
25.4297
23.5684
22.7691
23.3701
24.5349
774.401
456.626
24.2592
23.7946
23.3166
22.5642
21.062
18.0691
13.6409
11.2656
14.5385
18.4828
21.1198
22.9092
24.2631
25.4104
26.4306
27.3366
28.1246
28.7976
29.3682
29.8482
30.2399
30.534
30.7103
30.7415
30.599
30.2547
29.6766
28.8094
27.549
25.8132
24.2032
24.1273
25.1493
775.876
456.46
24.3172
23.8315
23.3813
22.778
21.7808
19.9319
16.4133
10.7219
8.99647
14.5365
18.6791
21.296
23.1209
24.5279
25.7165
26.751
27.6453
28.4085
29.0591
29.6166
30.0936
30.4901
30.7921
30.9746
31.0066
30.8564
30.4908
29.8619
28.8802
27.4256
25.8332
25.4073
26.0639
776.959
458.03
24.3658
23.7659
23.2225
22.4689
21.2852
19.6118
17.3502
13.3025
6.49821
9.55186
15.7851
19.4535
21.8128
23.5407
24.9111
26.0699
27.062
27.9044
28.6189
29.2313
29.7642
30.2292
30.622
30.9209
31.0901
31.089
30.8756
30.3969
29.5722
28.3289
26.994
26.4915
26.788
777.361
459.255
24.3921
23.789
23.2662
22.4879
21.0904
18.8865
16.3909
13.625
8.79644
5.1211
12.3368
17.5697
20.5839
22.6299
24.1873
25.4525
26.5187
27.4174
28.1715
28.8094
29.3606
29.8481
30.282
30.6525
30.924
31.0406
30.9416
30.5659
29.8516
28.8019
27.7461
27.2344
27.224
777.025
458.628
24.2671
23.7553
23.3271
22.6787
21.4526
19.2387
16.1274
12.7602
9.4489
6.3587
8.92189
15.7619
19.4886
21.878
23.6214
24.9827
26.1085
27.0478
27.8253
28.4687
29.0096
29.4776
29.8958
30.2739
30.594
30.7962
30.7917
30.5015
29.8901
29.0231
28.1784
27.6491
27.3754
776.006
457.481
24.1684
23.7077
23.3256
22.7843
21.8336
20.0917
17.2497
13.425
9.03018
7.0522
5.89938
13.4
18.2702
21.1386
23.1195
24.6228
25.8276
26.8141
27.6168
28.2649
28.7898
29.2216
29.5882
29.9133
30.2066
30.4374
30.5136
30.3234
29.8298
29.1208
28.4044
27.8429
27.3696
774.906
457.384
24.1622
23.6606
23.2471
22.6937
21.8065
20.3448
18.0397
14.7037
10.3259
7.34239
4.26038
10.142
16.7597
20.3249
22.6459
24.3467
25.654
26.6982
27.5345
28.199
28.7228
29.1331
29.4541
29.7095
29.922
30.0993
30.198
30.1121
29.7668
29.2124
28.5945
28.0246
27.4496
774.829
457.963
24.1358
23.5509
23.081
22.472
21.5538
20.2043
18.2626
15.4863
11.6141
6.62557
4.44612
7.25628
14.6436
19.2836
22.1166
24.0782
25.5241
26.6387
27.5147
28.2056
28.7479
29.1669
29.4805
29.7036
29.8527
29.9443
29.9801
29.9161
29.68
29.2607
28.7433
28.2225
27.6881
776.283
458.556
24.0426
23.3601
22.8156
22.1168
21.1188
19.8137
18.0825
15.6767
12.2326
7.60488
6.38524
6.96774
12.051
18.0922
21.5004
23.7612
25.3811
26.5739
27.4887
28.2053
28.7713
29.215
29.5531
29.7942
29.943
30.0022
29.9737
29.8522
29.6164
29.2559
28.8252
28.4081
28.0512
778.65
458.691
23.912
23.1709
22.5699
21.7778
20.6605
19.332
17.7764
15.7673
13.0423
9.46044
5.99184
5.33985
9.11393
16.4159
20.6259
23.3097
25.1534
26.4446
27.4025
28.1422
28.7262
29.1892
29.5508
29.8218
30.0057
30.0955
30.0722
29.9179
29.6373
29.2673
28.8787
28.543
28.3276
779.947
458.08
23.7544
23.0208
22.413
21.5879
20.3978
19.0007
17.5249
15.811
13.5464
10.3674
6.53419
7.12447
6.15297
13.0684
19.0746
22.4073
24.6356
26.1587
27.2209
28.0096
28.6225
29.1076
29.4887
29.7786
29.9862
30.1154
30.153
30.0652
29.8321
29.4972
29.1399
28.8189
28.5549
779.528
456.817
23.6238
22.9467
22.3747
21.5919
20.4374
19.0431
17.6119
16.0783
14.2336
11.7115
8.03065
7.52586
4.83286
8.24589
15.659
20.3846
23.4081
25.4424
26.7713
27.6855
28.3643
28.8953
29.3167
29.6415
29.8716
30.0088
30.061
30.0274
29.881
29.6255
29.311
28.9803
28.6133
778.67
456.054
23.6119
22.962
22.4083
21.6595
20.5463
19.17
17.7767
16.3735
14.8297
12.9314
10.3057
6.52909
5.37674
6.72708
9.83084
16.9197
21.1945
24.098
26.0294
27.2343
28.0353
28.6195
29.0779
29.4492
29.7387
29.9283
30.0001
29.9638
29.8342
29.6195
29.3468
29.0522
28.744
780.065
456.037
23.621
22.9454
22.3789
21.6345
20.5533
19.2173
17.8554
16.539
15.1815
13.6575
11.7886
9.35119
6.03249
6.83951
4.72008
12.3524
18.1493
22.0517
24.8429
26.6736
27.7633
28.4447
28.9136
29.2711
29.5674
29.8088
29.9524
29.9477
29.8013
29.5674
29.3074
29.0738
28.9469
782.517
456.817
23.6255
22.8633
22.2377
21.4306
20.3091
19.0096
17.7168
16.4621
15.1698
13.7319
11.9636
9.60303
6.61853
5.10437
6.16034
10.262
15.6181
19.9214
23.2841
25.8523
27.5436
28.5241
29.0872
29.4254
29.6519
29.8427
30.0211
30.1139
30.0467
29.8561
29.628
29.4317
29.3668
783.838
457.658
23.5437
22.6961
22.0093
21.1111
19.8756
18.5255
17.2785
16.1062
14.9052
13.5781
11.9651
9.83003
7.09061
4.99718
6.06787
9.8973
14.3712
18.1876
21.4817
24.3837
26.7154
28.2761
29.1835
29.6612
29.8842
29.9795
30.0587
30.1492
30.1608
30.0557
29.8797
29.6807
29.4962
782.642
457.793
23.4025
22.5506
21.8623
20.9304
19.5963
18.1
16.7538
15.5341
14.3069
12.9424
11.252
8.98176
6.35157
6.18834
7.05334
11.6964
15.5936
18.2935
20.6949
23.1021
25.4182
27.3822
28.7941
29.6466
30.0722
30.2177
30.2223
30.2057
30.1779
30.0936
29.9481
29.7533
29.4933
781.669
456.835
23.2222
22.4649
21.8563
20.998
19.6699
18.0168
16.4539
15.0764
13.7353
12.2375
10.3318
7.71866
5.26206
6.21942
7.32575
13.1759
17.2533
19.4415
21.0415
22.6035
24.3199
26.1394
27.8245
29.1191
29.9259
30.3076
30.3888
30.3093
30.1701
30.0027
29.8114
29.5909
29.3004
780.801
455.442
23.1033
22.4935
22.0176
21.3223
20.1369
18.4123
16.5628
14.9181
13.3932
11.7344
9.63201
6.99625
6.72119
5.42124
8.21315
14.9296
19.5674
21.458
22.5517
23.4518
24.45
25.6858
27.1259
28.5486
29.6777
30.3692
30.6527
30.6512
30.4948
30.2719
30.0233
29.7493
29.376
780.067
454.042
23.0017
22.5282
22.188
21.6852
20.7513
19.1665
17.1472
15.2045
13.4711
11.7148
9.57473
6.79702
5.67643
4.50337
6.69399
14.4192
20.6779
22.8447
23.883
24.5561
25.1596
25.8798
26.8378
28.0112
29.1911
30.1048
30.6128
30.7556
30.6552
30.4203
30.1171
29.7608
29.2598
779.207
453.161
22.9285
22.5348
22.2932
21.9543
21.2903
20.0272
18.1034
15.9542
13.9931
12.161
10.1188
7.52726
6.702
5.21126
5.30695
9.81032
19.4221
23.6762
25.0589
25.7749
26.2529
26.6625
27.1472
27.8237
28.6897
29.5743
30.2498
30.5985
30.6511
30.4961
30.2135
29.8548
29.4004
781.075
452.719
22.8155
22.4359
22.2421
22.0082
21.5508
20.6378
19.0672
16.9866
14.8872
12.9734
11.0555
8.69641
5.3009
5.51247
6.26985
4.97474
13.4452
22.4064
25.1059
26.3234
27.0187
27.4697
27.8071
28.1469
28.5873
29.1435
29.7093
30.1278
30.3109
30.2749
30.09
29.8427
29.6436
784.293
452.696
22.7075
22.306
22.1258
21.9443
21.6063
20.9355
19.7583
18.0033
15.9612
13.9975
12.1291
10.0866
7.52693
5.91596
7.3302
6.2277
8.29928
17.041
24.2121
26.3571
27.405
28.0407
28.444
28.7039
28.9147
29.1653
29.4895
29.8321
30.0818
30.1817
30.1655
30.1227
30.2333
787.594
452.498
22.5427
22.1303
21.9688
21.8295
21.5736
21.0653
20.1904
18.8472
17.0894
15.2057
13.3757
11.4998
9.24224
6.02266
6.0628
7.29044
5.63866
8.38532
21.0257
25.6086
27.3819
28.307
28.8623
29.19
29.3582
29.4467
29.545
29.7017
29.8758
29.9978
30.0617
30.1241
30.3428
787.534
451.989
22.3457
21.9504
21.8249
21.7344
21.545
21.1539
20.4918
19.4999
18.1362
16.4956
14.7744
13.0139
11.0457
8.47701
7.92849
6.2902
7.68824
7.31643
12.1482
22.8642
26.3195
28.028
28.995
29.5618
29.8744
30.0204
30.0919
30.1745
30.2852
30.3782
30.4334
30.4724
30.5627
786.131
450.879
22.0831
21.7434
21.679
21.6598
21.5529
21.2725
20.7791
20.047
19.043
17.7503
16.2381
14.6091
12.8331
10.7074
7.86241
5.33481
6.90944
5.05
9.75716
17.8471
24.7105
27.0558
28.4767
29.3516
29.8519
30.1212
30.2752
30.3988
30.5167
30.5969
30.6158
30.5672
30.4139
783.516
449.51
21.8365
21.5689
21.573
21.6349
21.6219
21.4503
21.1027
20.5746
19.8497
18.8994
17.7081
16.2973
14.7086
12.8676
10.4662
6.92608
6.98019
5.38915
7.28642
9.24137
21.4602
25.9459
27.6965
28.9727
29.803
30.2684
30.5135
30.6379
30.691
30.6843
30.614
30.464
30.1544
782.062
448.083
21.5989
21.3951
21.4655
21.6192
21.721
21.6717
21.4586
21.0929
20.5837
19.9111
19.0467
17.9683
16.6542
15.1054
13.2232
10.6131
6.48019
6.09562
8.20781
8.61127
13.498
23.9792
27.222
28.3951
29.3844
30.0546
30.4288
30.6256
30.698
30.6657
30.5434
30.3244
29.9138
780.701
447.043
21.4067
21.2221
21.3383
21.5895
21.83
21.9233
21.8431
21.6251
21.2777
20.8119
20.2085
19.4417
18.4856
17.2962
15.8363
14.0018
11.373
6.99338
6.73513
7.89309
7.93889
14.3166
24.6449
28.1207
29.1674
29.9681
30.5161
30.8401
31.0174
31.0752
31.0165
30.8262
30.363
780.731
446.396
21.1941
20.9603
21.0883
21.4435
21.8609
22.145
22.2347
22.1612
21.9678
21.6635
21.2528
20.723
20.0562
19.2282
18.197
16.8898
15.2137
12.8205
8.73228
5.24313
5.0772
8.77229
12.9674
23.8477
28.0808
29.5136
30.2637
30.6047
30.7161
30.7223
30.6504
30.4661
29.9977
779.899
446.165
20.9733
20.6209
20.7128
21.1603
21.7711
22.2701
22.5606
22.6641
22.6237
22.4734
22.2258
21.8676
21.4051
20.8233
20.1027
19.207
18.0557
16.5361
14.3576