/*--------------------------------*- C++ -*----------------------------------*\
| =========                 |                                                 |
| \\      /  F ield         | OpenFOAM: The Open Source CFD Toolbox           |
|  \\    /   O peration     | Version:  v2006                                 |
|   \\  /    A nd           | Website:  www.openfoam.com                      |
|    \\/     M anipulation  |                                                 |
\*---------------------------------------------------------------------------*/
FoamFile
{
    version     2.0;
    format      ascii;
    class       surfaceScalarField;
    location    "32";
    object      phi;
}
// * * * * * * * * * * * * * * * * * * * * * * * * * * * * * * * * * * * * * //

dimensions      [1 0 -1 0 0 0 0];
oriented        oriented;


internalField   nonuniform List<scalar> 
228225
(
-0.000227522
-1.71048e-05
-4.20578e-06
-0.000208305
-1.51718e-05
-3.86795e-06
-0.000189001
-1.51788e-05
-3.94524e-06
-0.000169803
-1.47015e-05
-4.33914e-06
-0.000152037
-1.29031e-05
-4.65137e-06
-0.000135423
-1.16313e-05
-4.80264e-06
-0.000120549
-9.98407e-06
-4.7235e-06
-0.000107009
-8.86163e-06
-4.53062e-06
-9.48806e-05
-7.78329e-06
-4.20889e-06
-8.39704e-05
-6.9604e-06
-3.81547e-06
-7.42503e-05
-6.2046e-06
-3.39253e-06
-6.55697e-05
-5.57909e-06
-2.98432e-06
-5.77896e-05
-5.04964e-06
-2.61871e-06
-5.08047e-05
-4.58947e-06
-2.28849e-06
-4.45108e-05
-4.20155e-06
-1.98982e-06
-3.88269e-05
-3.86373e-06
-1.72124e-06
-3.36821e-05
-3.56853e-06
-1.48061e-06
-2.90016e-05
-3.32116e-06
-1.26607e-06
-2.47053e-05
-3.12878e-06
-1.076e-06
-2.07255e-05
-2.98026e-06
-9.09023e-07
-1.70017e-05
-2.87049e-06
-7.63664e-07
-1.34793e-05
-2.79503e-06
-6.38312e-07
-1.01159e-05
-2.74422e-06
-5.31218e-07
-6.87573e-06
-2.71285e-06
-4.40526e-07
-3.72406e-06
-2.7015e-06
-3.64166e-07
-6.34733e-07
-2.70398e-06
-2.99931e-07
2.40206e-06
-2.7063e-06
-2.45463e-07
5.37227e-06
-2.68936e-06
-1.98112e-07
8.2413e-06
-2.63485e-06
-1.54703e-07
1.09437e-05
-2.51537e-06
-1.1102e-07
1.33542e-05
-2.27769e-06
-6.0828e-08
1.52448e-05
-1.83288e-06
9.41635e-09
1.62076e-05
-9.88775e-07
8.86905e-08
1.45569e-05
1.46037e-06
2.57966e-07
1.40963e-05
4.14909e-07
-1.31371e-05
-6.71634e-06
2.73814e-06
-2.49177e-05
-6.28446e-06
3.08156e-06
-3.26314e-05
-9.53127e-06
2.29457e-06
-3.74961e-05
-1.12992e-05
1.73857e-06
-3.98789e-05
-1.13856e-05
1.19279e-06
-4.07055e-05
-1.1226e-05
7.61285e-07
-4.01333e-05
-1.0566e-05
3.57737e-07
-3.88947e-05
-9.75796e-06
2.36669e-09
-3.7133e-05
-8.96507e-06
-2.41447e-07
-3.5119e-05
-8.18631e-06
-4.62922e-07
-3.29507e-05
-7.41361e-06
-6.49701e-07
-3.07657e-05
-6.66866e-06
-8.02695e-07
-2.86391e-05
-5.97747e-06
-9.239e-07
-2.66289e-05
-5.32821e-06
-1.0154e-06
-2.47956e-05
-4.71814e-06
-1.07902e-06
-2.31527e-05
-4.16839e-06
-1.11755e-06
-2.16853e-05
-3.69491e-06
-1.13557e-06
-2.03635e-05
-3.31283e-06
-1.13797e-06
-1.91433e-05
-3.03926e-06
-1.12794e-06
-1.79524e-05
-2.88883e-06
-1.10771e-06
-1.67072e-05
-2.86507e-06
-1.07931e-06
-1.53331e-05
-2.95346e-06
-1.04456e-06
-1.37759e-05
-3.1237e-06
-1.00545e-06
-1.19978e-05
-3.35277e-06
-9.6407e-07
-9.96457e-06
-3.63567e-06
-9.22387e-07
-7.63594e-06
-3.97031e-06
-8.82082e-07
-4.9663e-06
-4.34529e-06
-8.44747e-07
-1.92442e-06
-4.726e-06
-8.11913e-07
1.47267e-06
-5.04554e-06
-7.85922e-07
5.14858e-06
-5.21373e-06
-7.69859e-07
8.97455e-06
-5.12124e-06
-7.65738e-07
1.26182e-05
-4.48108e-06
-7.72615e-07
1.3883e-05
-1.26272e-06
-7.87005e-07
7.35985e-06
8.71953e-06
-6.55435e-07
2.11558e-05
2.03428e-07
-8.1754e-06
4.74165e-07
9.47391e-07
-1.08988e-05
-5.1944e-06
1.60153e-06
-1.18646e-05
-1.03525e-05
1.80336e-06
-1.08384e-05
-1.41645e-05
1.90528e-06
-7.4493e-06
-1.66177e-05
1.97252e-06
-2.566e-06
-1.79506e-05
2.02453e-06
3.38745e-06
-1.83869e-05
2.08105e-06
9.73241e-06
-1.80004e-05
2.12231e-06
1.59441e-05
-1.70655e-05
2.1251e-06
2.16382e-05
-1.57269e-05
2.09125e-06
2.65763e-05
-1.41278e-05
2.02548e-06
3.06658e-05
-1.2438e-05
1.93238e-06
3.39204e-05
-1.07959e-05
1.81933e-06
3.64425e-05
-9.28714e-06
1.69554e-06
3.83635e-05
-7.94636e-06
1.57019e-06
3.97791e-05
-6.76525e-06
1.45063e-06
4.07244e-05
-5.70593e-06
1.34177e-06
4.11965e-05
-4.75127e-06
1.24679e-06
4.11685e-05
-3.89638e-06
1.16487e-06
4.06036e-05
-3.14473e-06
1.0939e-06
3.94649e-05
-2.49826e-06
1.03412e-06
3.77239e-05
-1.94929e-06
9.87588e-07
3.53673e-05
-1.48228e-06
9.56532e-07
3.2394e-05
-1.08821e-06
9.41696e-07
2.8819e-05
-7.79244e-07
9.42151e-07
2.46749e-05
-5.69352e-07
9.55493e-07
2.00147e-05
-4.63235e-07
9.7787e-07
1.50102e-05
-5.32096e-07
1.00368e-06
9.95622e-06
-8.18905e-07
1.02406e-06
5.30385e-06
-1.37653e-06
1.02761e-06
2.28865e-06
-2.86212e-06
1.00615e-06
2.15468e-06
-4.95279e-06
9.3288e-07
3.94585e-06
-3.1576e-06
5.55702e-07
1.92874e-06
1.14413e-05
-1.46938e-07
2.31528e-05
6.42509e-08
6.85055e-06
-8.11302e-06
1.7874e-06
1.82797e-05
-1.93343e-05
2.96068e-06
3.07152e-05
-2.58407e-05
3.46606e-06
4.30055e-05
-2.95771e-05
3.64543e-06
5.48289e-05
-3.1509e-05
3.65495e-06
6.60528e-05
-3.2138e-05
3.58186e-06
7.65105e-05
-3.16884e-05
3.4711e-06
8.59679e-05
-3.01883e-05
3.35156e-06
9.39078e-05
-2.76412e-05
3.23708e-06
9.99442e-05
-2.43181e-05
3.12082e-06
0.00010403
-2.06852e-05
2.98398e-06
0.00010634
-1.71183e-05
2.81037e-06
0.000107147
-1.38444e-05
2.59537e-06
0.000106822
-1.1054e-05
2.34744e-06
0.000105841
-8.89394e-06
2.08297e-06
0.000104624
-7.30441e-06
1.8181e-06
0.000103376
-6.04423e-06
1.5649e-06
0.000102122
-4.92194e-06
1.33553e-06
0.000100807
-3.86795e-06
1.14144e-06
9.93282e-05
-2.84982e-06
9.97217e-07
9.75469e-05
-1.84744e-06
9.16047e-07
9.53302e-05
-8.63323e-07
9.02255e-07
9.26195e-05
4.62703e-08
9.52627e-07
8.90314e-05
1.22339e-06
1.06166e-06
8.45401e-05
2.31328e-06
1.2216e-06
7.90661e-05
3.37379e-06
1.42099e-06
7.2571e-05
4.37435e-06
1.64207e-06
6.50088e-05
5.25974e-06
1.86618e-06
5.63277e-05
5.99961e-06
2.08119e-06
4.64936e-05
6.54656e-06
2.29938e-06
3.5391e-05
6.21442e-06
2.57097e-06
2.32651e-05
4.84923e-06
2.79867e-06
1.2742e-05
4.98085e-06
2.55844e-06
4.8095e-06
1.80073e-05
1.18664e-06
2.73863e-05
4.81153e-07
6.3735e-06
-1.6397e-05
2.05073e-06
1.70549e-05
-3.28161e-05
3.07623e-06
2.79994e-05
-3.97294e-05
3.24259e-06
3.81137e-05
-4.24144e-05
2.9953e-06
4.7204e-05
-4.30066e-05
2.63828e-06
5.51821e-05
-4.22052e-05
2.28189e-06
6.17902e-05
-4.00772e-05
1.94727e-06
6.63696e-05
-3.62656e-05
1.65631e-06
6.80794e-05
-3.0621e-05
1.44533e-06
6.67648e-05
-2.40823e-05
1.29675e-06
6.33168e-05
-1.8106e-05
1.14666e-06
5.91092e-05
-1.35207e-05
9.48217e-07
5.51633e-05
-1.0208e-05
6.87978e-07
5.18695e-05
-7.76746e-06
3.88552e-07
4.92099e-05
-5.99757e-06
1.0656e-07
4.70764e-05
-4.74296e-06
-1.39407e-07
4.5384e-05
-3.77696e-06
-3.31692e-07
4.40757e-05
-2.92452e-06
-4.81364e-07
4.31132e-05
-2.12273e-06
-6.08076e-07
4.2463e-05
-1.34081e-06
-7.17833e-07
4.20778e-05
-5.4581e-07
-8.08846e-07
4.18849e-05
2.75978e-07
-8.70593e-07
4.18253e-05
1.03962e-06
-8.86958e-07
4.20325e-05
1.87884e-06
-8.41323e-07
4.22909e-05
2.7789e-06
-7.23946e-07
4.24377e-05
3.73589e-06
-5.25788e-07
4.22523e-05
4.7551e-06
-2.26022e-07
4.14452e-05
5.85433e-06
1.68451e-07
3.96619e-05
7.089e-06
6.24875e-07
3.6463e-05
8.5412e-06
1.08024e-06
3.07855e-05
1.02146e-05
1.491e-06
2.17504e-05
1.18062e-05
1.93808e-06
1.06475e-05
1.36367e-05
2.37434e-06
2.40659e-06
2.44496e-05
1.47856e-06
2.91195e-05
4.63446e-07
7.71189e-06
-2.56041e-05
1.52843e-06
1.39845e-05
-4.17131e-05
2.58387e-06
1.75753e-05
-4.62925e-05
2.8695e-06
1.95913e-05
-4.73088e-05
2.73617e-06
2.08884e-05
-4.69423e-05
2.47921e-06
2.19081e-05
-4.5555e-05
2.16543e-06
2.2704e-05
-4.28229e-05
1.78454e-06
2.28467e-05
-3.79518e-05
1.38416e-06
2.19095e-05
-3.08591e-05
1.02809e-06
1.99963e-05
-2.29786e-05
6.6949e-07
1.76237e-05
-1.61254e-05
2.58192e-07
1.54752e-05
-1.13169e-05
-1.74234e-07
1.40931e-05
-8.37091e-06
-5.54632e-07
1.36635e-05
-6.574e-06
-8.45143e-07
1.40246e-05
-5.35586e-06
-1.06893e-06
1.48695e-05
-4.39591e-06
-1.24646e-06
1.59681e-05
-3.5346e-06
-1.38676e-06
1.72015e-05
-2.70317e-06
-1.49404e-06
1.84917e-05
-1.8746e-06
-1.57172e-06
1.9783e-05
-1.03709e-06
-1.62318e-06
2.10507e-05
-1.85317e-07
-1.65108e-06
2.22653e-05
7.00421e-07
-1.65672e-06
2.32913e-05
1.6392e-06
-1.63871e-06
2.41118e-05
2.64114e-06
-1.59227e-06
2.46733e-05
3.72016e-06
-1.51039e-06
2.48921e-05
4.89065e-06
-1.3814e-06
2.46468e-05
6.1757e-06
-1.18561e-06
2.37711e-05
7.60606e-06
-8.92271e-07
2.20866e-05
9.20593e-06
-4.58621e-07
1.95261e-05
1.09321e-05
1.35319e-07
1.62785e-05
1.26367e-05
8.02929e-07
1.23886e-05
1.43161e-05
1.41586e-06
7.32577e-06
1.69667e-05
1.94247e-06
2.60852e-06
2.76389e-05
1.78785e-06
3.101e-05
6.80695e-07
1.81388e-06
-2.90913e-05
1.74252e-06
3.331e-07
-4.3062e-05
2.92021e-06
-2.24309e-06
-4.67624e-05
3.14535e-06
-4.70311e-06
-4.79064e-05
3.1768e-06
-6.6863e-06
-4.79899e-05
3.16754e-06
-8.00574e-06
-4.72351e-05
3.13935e-06
-8.331e-06
-4.54617e-05
3.09052e-06
-6.97833e-06
-4.21933e-05
3.00191e-06
-3.32603e-06
-3.72246e-05
2.83597e-06
2.27278e-06
-3.09864e-05
2.55981e-06
8.5467e-06
-2.44e-05
2.17313e-06
1.40501e-05
-1.83702e-05
1.71999e-06
1.79577e-05
-1.33968e-05
1.26261e-06
2.02507e-05
-9.60029e-06
8.41944e-07
2.13578e-05
-6.85493e-06
4.68096e-07
2.17761e-05
-4.8952e-06
1.3291e-07
2.18515e-05
-3.4258e-06
-1.49628e-07
2.17873e-05
-2.21723e-06
-3.99891e-07
2.16762e-05
-1.1335e-06
-6.18393e-07
2.15344e-05
-8.66459e-08
-8.05243e-07
2.14523e-05
8.54655e-07
-9.60605e-07
2.1432e-05
1.79726e-06
-1.0841e-06
2.14756e-05
2.75882e-06
-1.17398e-06
2.15752e-05
3.75527e-06
-1.2267e-06
2.17076e-05
4.80987e-06
-1.23653e-06
2.18214e-05
5.95509e-06
-1.19411e-06
2.1826e-05
7.23466e-06
-1.08111e-06
2.15808e-05
8.70558e-06
-8.74435e-07
2.08907e-05
1.04313e-05
-5.59391e-07
1.94919e-05
1.2448e-05
-1.45545e-07
1.70243e-05
1.47119e-05
3.65211e-07
1.3146e-05
1.72862e-05
9.15924e-07
7.32833e-06
2.14585e-05
1.51145e-06
2.25429e-06
3.13243e-05
1.80134e-06
3.24579e-05
8.76802e-07
-3.62759e-06
-2.71802e-05
1.66483e-06
-6.87719e-06
-4.21667e-05
2.15057e-06
-8.87861e-06
-4.72545e-05
2.24826e-06
-1.00867e-05
-4.92562e-05
2.30466e-06
-1.07084e-05
-4.99503e-05
2.32378e-06
-1.07232e-05
-4.98036e-05
2.31762e-06
-9.82751e-06
-4.89345e-05
2.2989e-06
-7.31067e-06
-4.72893e-05
2.28622e-06
-2.54975e-06
-4.45704e-05
2.30184e-06
4.35055e-06
-4.04519e-05
2.3467e-06
1.24885e-05
-3.50358e-05
2.37931e-06
2.05274e-05
-2.87807e-05
2.35546e-06
2.72259e-05
-2.22827e-05
2.25593e-06
3.18427e-05
-1.61788e-05
2.08385e-06
3.42954e-05
-1.10235e-05
1.85629e-06
3.50399e-05
-7.10773e-06
1.60058e-06
3.47382e-05
-4.35428e-06
1.34414e-06
3.39333e-05
-2.41892e-06
1.10126e-06
3.29325e-05
-9.30716e-07
8.75354e-07
3.1881e-05
3.61741e-07
6.64422e-07
3.07201e-05
1.59687e-06
4.65114e-07
2.94582e-05
2.81701e-06
2.75016e-07
2.81052e-05
4.04077e-06
9.2148e-08
2.6686e-05
5.25004e-06
-6.45734e-08
2.52543e-05
6.43442e-06
-1.90274e-07
2.38763e-05
7.61228e-06
-2.84033e-07
2.2597e-05
8.83458e-06
-3.32885e-07
2.14203e-05
1.01837e-05
-3.22295e-07
2.02752e-05
1.17765e-05
-2.3405e-07
1.89772e-05
1.3757e-05
-6.65348e-08
1.71237e-05
1.6263e-05
2.10564e-07
1.40114e-05
1.96649e-05
5.84085e-07
8.16951e-06
2.59325e-05
1.13118e-06
2.30096e-06
3.55145e-05
1.56791e-06
3.38408e-05
8.78254e-07
-2.32788e-06
-2.61413e-05
9.84116e-07
-1.04939e-06
-4.46751e-05
8.43553e-07
1.5525e-06
-5.10925e-05
9.80491e-07
4.15228e-06
-5.32359e-05
1.22636e-06
6.40268e-06
-5.37051e-05
1.42143e-06
8.2025e-06
-5.31844e-05
1.55326e-06
9.51719e-06
-5.18569e-05
1.62185e-06
1.04527e-05
-4.98257e-05
1.63286e-06
1.15134e-05
-4.72182e-05
1.59704e-06
1.35489e-05
-4.40754e-05
1.54281e-06
1.71368e-05
-4.02304e-05
1.5144e-06
2.21567e-05
-3.54341e-05
1.53225e-06
2.78052e-05
-2.95806e-05
1.5776e-06
3.29369e-05
-2.29347e-05
1.60687e-06
3.65626e-05
-1.61807e-05
1.57178e-06
3.8285e-05
-1.01988e-05
1.44795e-06
3.84419e-05
-5.67577e-06
1.25602e-06
3.77858e-05
-2.72064e-06
1.04437e-06
3.69541e-05
-8.71008e-07
8.50077e-07
3.62301e-05
4.68382e-07
6.87688e-07
3.5505e-05
1.82379e-06
5.60354e-07
3.46908e-05
3.21641e-06
4.66624e-07
3.36223e-05
4.74911e-06
4.00678e-07
3.21709e-05
6.37702e-06
3.54725e-07
3.03167e-05
7.98802e-06
3.2355e-07
2.81385e-05
9.502e-06
3.0754e-07
2.57609e-05
1.09172e-05
3.13232e-07
2.33102e-05
1.23008e-05
3.53652e-07
2.08932e-05
1.37747e-05
4.41786e-07
1.85762e-05
1.55159e-05
5.80819e-07
1.62801e-05
1.77997e-05
7.70862e-07
1.3544e-05
2.13524e-05
1.01789e-06
8.83545e-06
2.91251e-05
1.35924e-06
3.06879e-06
3.95643e-05
1.4994e-06
3.598e-05
8.18019e-07
3.33012e-06
-2.97844e-05
5.16411e-08
9.63737e-06
-5.00875e-05
-9.4811e-07
1.55401e-05
-5.58398e-05
-1.03055e-06
2.01505e-05
-5.70159e-05
-6.35152e-07
2.34663e-05
-5.66002e-05
-1.97414e-07
2.55235e-05
-5.51856e-05
1.83687e-07
2.63155e-05
-5.28915e-05
4.96312e-07
2.58808e-05
-4.98554e-05
7.31785e-07
2.44038e-05
-4.6359e-05
8.92151e-07
2.23523e-05
-4.27558e-05
9.92342e-07
2.05317e-05
-3.92522e-05
1.05823e-06
1.98213e-05
-3.57061e-05
1.13267e-06
2.07305e-05
-3.16677e-05
1.2684e-06
2.3047e-05
-2.66804e-05
1.49127e-06
2.5821e-05
-2.06459e-05
1.76261e-06
2.78326e-05
-1.40839e-05
1.97712e-06
2.82932e-05
-8.02854e-06
2.02024e-06
2.73071e-05
-3.47911e-06
1.8709e-06
2.56609e-05
-7.24101e-07
1.61024e-06
2.41086e-05
7.93948e-07
1.3207e-06
2.31603e-05
1.80638e-06
1.04235e-06
2.28034e-05
2.84325e-06
7.86953e-07
2.28272e-05
4.20257e-06
5.56905e-07
2.2909e-05
5.9507e-06
3.56161e-07
2.27105e-05
7.9881e-06
1.89615e-07
2.19952e-05
1.01282e-05
6.19056e-08
2.06838e-05
1.22064e-05
-1.87198e-08
1.88403e-05
1.41409e-05
-4.25035e-08
1.66368e-05
1.5937e-05
2.03739e-09
1.42851e-05
1.76953e-05
1.53421e-07
1.19737e-05
1.97161e-05
4.10114e-07
9.62697e-06
2.29787e-05
7.91535e-07
6.27348e-06
3.12724e-05
1.31677e-06
2.1166e-06
4.2113e-05
1.5303e-06
3.7162e-05
8.09111e-07
8.04411e-06
-3.69113e-05
-7.38617e-07
1.53298e-05
-5.53424e-05
-1.49891e-06
2.06545e-05
-5.89628e-05
-1.67742e-06
2.4553e-05
-5.89641e-05
-1.47808e-06
2.71492e-05
-5.75646e-05
-1.18928e-06
2.83619e-05
-5.50527e-05
-9.19799e-07
2.81971e-05
-5.16131e-05
-7.12079e-07
2.68889e-05
-4.7617e-05
-5.73468e-07
2.47131e-05
-4.34089e-05
-4.755e-07
2.17699e-05
-3.91778e-05
-3.8938e-07
1.81296e-05
-3.50991e-05
-3.10827e-07
1.41926e-05
-3.13711e-05
-2.36424e-07
1.07973e-05
-2.8025e-05
-1.28817e-07
8.84517e-06
-2.47167e-05
6.54464e-08
8.6928e-06
-2.08777e-05
4.36493e-07
9.85261e-06
-1.61679e-05
9.80792e-07
1.11744e-05
-1.08207e-05
1.55265e-06
1.15782e-05
-5.73573e-06
1.95511e-06
1.06989e-05
-1.83483e-06
2.08736e-06
8.84558e-06
7.37541e-07
2.01216e-06
6.76291e-06
2.18423e-06
1.81299e-06
5.21334e-06
2.93172e-06
1.5484e-06
4.73078e-06
3.46418e-06
1.27914e-06
5.59512e-06
4.10099e-06
1.02116e-06
7.49402e-06
5.34339e-06
7.65994e-07
9.77841e-06
7.33543e-06
5.10572e-07
1.16415e-05
1.00573e-05
2.58359e-07
1.25279e-05
1.31623e-05
2.0616e-08
1.22563e-05
1.62438e-05
-1.53946e-07
1.08825e-05
1.91458e-05
-2.29816e-07
8.7209e-06
2.18724e-05
-1.60722e-07
6.20777e-06
2.5215e-05
1.45749e-07
3.15994e-06
3.34707e-05
8.60155e-07
6.32237e-07
4.3271e-05
1.33222e-06
3.69578e-05
7.25152e-07
8.29644e-06
-4.43206e-05
-3.43561e-07
1.19067e-05
-5.82978e-05
-1.05641e-07
1.33722e-05
-5.97204e-05
-3.51256e-07
1.38414e-05
-5.8577e-05
-5.6851e-07
1.32003e-05
-5.59282e-05
-7.03295e-07
1.12375e-05
-5.19527e-05
-8.26556e-07
8.22692e-06
-4.73197e-05
-9.78426e-07
4.93105e-06
-4.29342e-05
-1.1235e-06
2.05062e-06
-3.91312e-05
-1.1895e-06
-2.07747e-07
-3.56086e-05
-1.15354e-06
-2.11075e-06
-3.20204e-05
-1.05695e-06
-4.03274e-06
-2.83901e-05
-9.68224e-07
-5.98641e-06
-2.50865e-05
-9.16497e-07
-7.50045e-06
-2.22973e-05
-8.58605e-07
-7.89513e-06
-1.97288e-05
-7.30565e-07
-6.74137e-06
-1.6855e-05
-4.64528e-07
-4.32785e-06
-1.32497e-05
3.75226e-09
-1.70301e-06
-8.96155e-06
5.76825e-07
-2.20603e-07
-4.54492e-06
1.17769e-06
-5.17595e-07
-7.32378e-07
1.67574e-06
-2.42692e-06
1.98453e-06
1.99635e-06
-5.09593e-06
3.39813e-06
2.14623e-06
-7.71959e-06
3.94685e-06
2.17705e-06
-9.65736e-06
4.04261e-06
2.08572e-06
-1.04217e-05
4.29087e-06
1.93483e-06
-9.59591e-06
4.92398e-06
1.74383e-06
-6.86486e-06
6.01701e-06
1.49934e-06
-2.45456e-06
7.72083e-06
1.21984e-06
2.4611e-06
1.05799e-05
9.06666e-07
6.29641e-06
1.48291e-05
5.75531e-07
7.62355e-06
2.02455e-05
2.96258e-07
5.57657e-06
2.69574e-05
2.16123e-07
2.44564e-06
3.59448e-05
6.31268e-07
6.34743e-07
4.40295e-05
1.10055e-06
3.69197e-05
6.45466e-07
3.13784e-06
-4.75545e-05
6.13442e-07
1.20723e-06
-5.73357e-05
1.17904e-06
-1.87313e-06
-5.73907e-05
8.36368e-07
-5.30045e-06
-5.54707e-05
3.87527e-07
-9.16717e-06
-5.19371e-05
-4.33135e-08
-1.33247e-05
-4.7224e-05
-5.04144e-07
-1.72722e-05
-4.23674e-05
-9.8579e-07
-2.05657e-05
-3.82922e-05
-1.37073e-06
-2.30242e-05
-3.51513e-05
-1.55562e-06
-2.45662e-05
-3.25406e-05
-1.55386e-06
-2.51309e-05
-3.00439e-05
-1.42921e-06
-2.48167e-05
-2.74677e-05
-1.24602e-06
-2.39328e-05
-2.49114e-05
-1.06529e-06
-2.27685e-05
-2.25601e-05
-9.08778e-07
-2.13502e-05
-2.03986e-05
-7.5976e-07
-1.94132e-05
-1.82179e-05
-5.91691e-07
-1.66153e-05
-1.57072e-05
-3.65152e-07
-1.29845e-05
-1.25817e-05
-4.1326e-08
-9.12408e-06
-8.83351e-06
3.91043e-07
-5.91742e-06
-4.83816e-06
8.48696e-07
-4.09742e-06
-1.16266e-06
1.25461e-06
-3.89876e-06
1.5408e-06
1.562e-06
-5.25022e-06
3.39995e-06
1.78473e-06
-7.90586e-06
4.60912e-06
1.96629e-06
-1.11488e-05
5.27765e-06
2.13381e-06
-1.40471e-05
5.43169e-06
2.2831e-06
-1.55516e-05
5.10107e-06
2.37653e-06
-1.48027e-05
4.70042e-06
2.36771e-06
-1.13186e-05
5.07607e-06
2.25248e-06
-5.05033e-06
6.86734e-06
2.00958e-06
2.02681e-06
1.18688e-05
1.61087e-06
4.62097e-06
2.34921e-05
1.07146e-06
2.10306e-06
3.76509e-05
9.15673e-07
6.07778e-07
4.45567e-05
1.0417e-06
3.68791e-05
6.20544e-07
-5.25222e-06
-4.39276e-05
1.79769e-06
-1.22163e-05
-5.2955e-05
2.59046e-06
-1.8585e-05
-5.33937e-05
2.31116e-06
-2.38717e-05
-5.21594e-05
1.87463e-06
-2.75876e-05
-4.97908e-05
1.40745e-06
-2.92453e-05
-4.66848e-05
8.97925e-07
-2.89133e-05
-4.32945e-05
3.65154e-07
-2.73973e-05
-3.99161e-05
-8.04332e-08
-2.56038e-05
-3.66848e-05
-3.92154e-07
-2.39546e-05
-3.36653e-05
-6.09435e-07
-2.24339e-05
-3.08808e-05
-7.35136e-07
-2.08469e-05
-2.83042e-05
-7.78811e-07
-1.91305e-05
-2.58902e-05
-7.5135e-07
-1.73924e-05
-2.36315e-05
-6.71796e-07
-1.56919e-05
-2.15406e-05
-5.59808e-07
-1.39114e-05
-1.95743e-05
-4.24617e-07
-1.17553e-05
-1.76012e-05
-2.63677e-07
-8.85663e-06
-1.54142e-05
-6.87166e-08
-5.11679e-06
-1.27956e-05
2.20611e-07
-8.74772e-07
-9.65919e-06
5.79448e-07
3.18803e-06
-6.17463e-06
9.4979e-07
6.17262e-06
-2.73454e-06
1.28599e-06
7.73559e-06
2.54607e-07
1.56606e-06
8.01346e-06
2.50636e-06
1.79507e-06
7.21907e-06
4.04613e-06
1.98747e-06
5.53692e-06
4.91337e-06
2.15689e-06
2.99143e-06
5.27637e-06
2.31742e-06
-1.2347e-07
5.27677e-06
2.47534e-06
-2.62248e-06
4.89705e-06
2.62171e-06
-2.67928e-06
4.24775e-06
2.70457e-06
1.1318e-06
5.61537e-06
2.61945e-06
5.60247e-06
1.70778e-05
2.16414e-06
3.33225e-06
3.84713e-05
1.45003e-06
1.19591e-06
4.54462e-05
1.20664e-06
3.72989e-05
6.9023e-07
-9.53531e-06
-3.7007e-05
2.28981e-06
-1.62786e-05
-4.93084e-05
2.67974e-06
-2.07863e-05
-5.18394e-05
2.45409e-06
-2.33332e-05
-5.24195e-05
2.2246e-06
-2.3683e-05
-5.21338e-05
2.05173e-06
-2.17926e-05
-5.11305e-05
1.92348e-06
-1.81089e-05
-4.93416e-05
1.80509e-06
-1.34109e-05
-4.67216e-05
1.65545e-06
-8.49116e-06
-4.34026e-05
1.45723e-06
-3.96209e-06
-3.96602e-05
1.22552e-06
-1.99737e-07
-3.57848e-05
9.84281e-07
2.6538e-06
-3.20035e-05
7.52056e-07
4.6332e-06
-2.84623e-05
5.44438e-07
5.84855e-06
-2.52409e-05
3.75726e-07
6.43403e-06
-2.23817e-05
2.55185e-07
6.57505e-06
-1.98943e-05
1.88205e-07
6.54758e-06
-1.77348e-05
1.75466e-07
6.72244e-06
-1.57892e-05
2.18297e-07
7.49854e-06
-1.38715e-05
3.22978e-07
9.11402e-06
-1.17485e-05
5.04475e-07
1.14388e-05
-9.22765e-06
7.67699e-07
1.39659e-05
-6.29549e-06
1.07958e-06
1.60664e-05
-3.18495e-06
1.38466e-06
1.723e-05
-2.66063e-07
1.6473e-06
1.73928e-05
2.04723e-06
1.86342e-06
1.65711e-05
3.70659e-06
2.04549e-06
1.49081e-05
4.7378e-06
2.21107e-06
1.253e-05
5.28246e-06
2.37505e-06
9.44673e-06
5.43576e-06
2.54074e-06
5.84571e-06
5.15153e-06
2.69331e-06
3.74979e-06
4.9705e-06
2.79513e-06
5.38487e-06
1.29175e-05
2.68148e-06
3.48755e-06
3.84632e-05
1.90494e-06
1.2766e-06
4.61361e-05
1.40878e-06
3.76389e-05
7.78274e-07
-5.33549e-06
-3.4004e-05
1.9035e-06
-6.90128e-06
-5.03894e-05
2.15214e-06
-6.53221e-06
-5.46884e-05
2.05182e-06
-5.22658e-06
-5.60689e-05
1.94647e-06
-3.33172e-06
-5.62957e-05
1.87212e-06
-1.00215e-06
-5.56939e-05
1.82218e-06
1.75532e-06
-5.43309e-05
1.79424e-06
5.00912e-06
-5.22142e-05
1.78762e-06
8.73953e-06
-4.93584e-05
1.79086e-06
1.27396e-05
-4.58317e-05
1.7854e-06
1.66686e-05
-4.17863e-05
1.75717e-06
2.01735e-05
-3.74405e-05
1.69654e-06
2.2979e-05
-3.30235e-05
1.59767e-06
2.4916e-05
-2.87312e-05
1.46219e-06
2.59087e-05
-2.47164e-05
1.30282e-06
2.59709e-05
-2.1101e-05
1.14042e-06
2.52306e-05
-1.79752e-05
9.97113e-07
2.39473e-05
-1.53697e-05
8.90571e-07
2.24965e-05
-1.32211e-05
8.32329e-07
2.13168e-05
-1.13633e-05
8.31644e-07
2.0785e-05
-9.5526e-06
9.03232e-07
2.10093e-05
-7.52527e-06
1.06562e-06
2.17036e-05
-5.1187e-06
1.31149e-06
2.23158e-05
-2.3932e-06
1.58934e-06
2.22624e-05
3.23626e-07
1.84306e-06
2.12836e-05
2.68513e-06
2.05257e-06
1.9421e-05
4.41083e-06
2.2297e-06
1.68259e-05
5.51373e-06
2.39544e-06
1.36137e-05
6.10867e-06
2.56334e-06
9.79715e-06
6.2512e-06
2.73025e-06
5.91852e-06
6.01755e-06
2.87517e-06
4.81614e-06
1.1329e-05
2.91954e-06
4.06591e-06
3.72527e-05
2.37991e-06
1.67496e-06
4.68685e-05
1.73219e-06
3.81803e-05
9.5617e-07
-1.435e-06
-3.43909e-05
1.44626e-06
-1.40077e-07
-5.34757e-05
1.58352e-06
2.18391e-06
-5.84987e-05
1.4901e-06
4.62265e-06
-5.9773e-05
1.37698e-06
6.96085e-06
-5.97418e-05
1.27312e-06
9.18681e-06
-5.89141e-05
1.17913e-06
1.13624e-05
-5.74352e-05
1.09999e-06
1.35837e-05
-5.5359e-05
1.04784e-06
1.59467e-05
-5.27057e-05
1.03674e-06
1.85189e-05
-4.9507e-05
1.07642e-06
2.13136e-05
-4.58438e-05
1.16916e-06
2.42774e-05
-4.18421e-05
1.30246e-06
2.72774e-05
-3.76182e-05
1.44801e-06
3.01002e-05
-3.32537e-05
1.56897e-06
3.24737e-05
-2.88175e-05
1.63206e-06
3.41088e-05
-2.44081e-05
1.61962e-06
3.4769e-05
-2.01843e-05
1.53641e-06
3.43623e-05
-1.63562e-05
1.40895e-06
3.30138e-05
-1.31169e-05
1.27536e-06
3.10571e-05
-1.05394e-05
1.16991e-06
2.89473e-05
-8.51768e-06
1.11494e-06
2.71472e-05
-6.80509e-06
1.12585e-06
2.59558e-05
-5.09159e-06
1.22355e-06
2.53109e-05
-3.09809e-06
1.42648e-06
2.47636e-05
-7.48712e-07
1.70546e-06
2.37082e-05
1.83208e-06
1.98799e-06
2.18084e-05
4.14988e-06
2.22488e-06
1.90965e-05
5.85684e-06
2.41784e-06
1.57252e-05
6.92533e-06
2.59121e-06
1.17928e-05
7.44728e-06
2.75825e-06
7.52158e-06
7.39649e-06
2.91109e-06
4.95565e-06
1.1084e-05
3.01685e-06
4.39242e-06
3.56414e-05
2.72289e-06
1.90397e-06
4.752e-05
2.04767e-06
3.88185e-05
1.14102e-06
1.86569e-06
-3.69141e-05
5.69337e-07
4.29698e-06
-5.64063e-05
6.20909e-07
6.57536e-06
-6.12548e-05
6.75002e-07
8.69458e-06
-6.23534e-05
6.74631e-07
1.0735e-05
-6.22049e-05
6.41331e-07
1.2738e-05
-6.12654e-05
5.79414e-07
1.46907e-05
-5.96208e-05
4.88187e-07
1.65244e-05
-5.72744e-05
3.69605e-07
1.81246e-05
-5.42239e-05
2.34131e-07
1.93918e-05
-5.05558e-05
1.04872e-07
2.0349e-05
-4.6526e-05
2.16491e-08
2.1196e-05
-4.24996e-05
4.73452e-08
2.22623e-05
-3.87181e-05
1.92221e-07
2.38103e-05
-3.51543e-05
4.34622e-07
2.58833e-05
-3.16026e-05
7.35623e-07
2.82746e-05
-2.78472e-05
1.03873e-06
3.05724e-05
-2.37809e-05
1.28323e-06
3.22721e-05
-1.94822e-05
1.42228e-06
3.29657e-05
-1.52423e-05
1.44487e-06
3.25274e-05
-1.14608e-05
1.38525e-06
3.11564e-05
-8.41711e-06
1.30124e-06
2.92549e-05
-6.11195e-06
1.24073e-06
2.72841e-05
-4.31661e-06
1.23122e-06
2.56459e-05
-2.70781e-06
1.29357e-06
2.44565e-05
-9.52618e-07
1.45906e-06
2.34493e-05
1.1834e-06
1.73942e-06
2.20071e-05
3.60973e-06
2.06509e-06
1.97546e-05
5.82859e-06
2.34778e-06
1.67215e-05
7.43845e-06
2.56872e-06
1.30658e-05
8.37941e-06
2.74967e-06
9.06208e-06
8.52249e-06
2.90093e-06
5.98235e-06
1.12817e-05
3.01108e-06
4.61455e-06
3.45456e-05
2.87548e-06
1.94355e-06
4.81072e-05
2.25377e-06
3.94172e-05
1.25076e-06
2.70806e-06
-3.98751e-05
3.49712e-07
4.7549e-06
-5.90022e-05
5.9773e-07
6.5476e-06
-6.38224e-05
7.26778e-07
8.38966e-06
-6.5068e-05
7.72076e-07
1.0323e-05
-6.50524e-05
7.80434e-07
1.23601e-05
-6.42231e-05
7.6149e-07
1.4506e-05
-6.26524e-05
7.11821e-07
1.6728e-05
-6.02856e-05
6.21697e-07
1.88999e-05
-5.69992e-05
4.76595e-07
2.07582e-05
-5.27277e-05
2.65079e-07
2.1984e-05
-4.76985e-05
-3.93602e-09
2.23829e-05
-4.25272e-05
-2.38434e-07
2.215e-05
-3.78971e-05
-4.11796e-07
2.17652e-05
-3.41246e-05
-4.65599e-07
2.17478e-05
-3.10513e-05
-3.80501e-07
2.24353e-05
-2.82632e-05
-1.59683e-07
2.38587e-05
-2.53254e-05
1.91462e-07
2.57453e-05
-2.19106e-05
5.83819e-07
2.75532e-05
-1.79375e-05
9.17977e-07
2.87e-05
-1.36975e-05
1.11987e-06
2.88655e-05
-9.73752e-06
1.18576e-06
2.80954e-05
-6.48824e-06
1.17515e-06
2.66716e-05
-4.02211e-06
1.15485e-06
2.49485e-05
-2.12714e-06
1.16638e-06
2.32796e-05
-4.91016e-07
1.23593e-06
2.18844e-05
1.2233e-06
1.3999e-06
2.05797e-05
3.28642e-06
1.69603e-06
1.88369e-05
5.57621e-06
2.07133e-06
1.63249e-05
7.60433e-06
2.40962e-06
1.30612e-05
9.01614e-06
2.66367e-06
9.44329e-06
9.32284e-06
2.84166e-06
6.27677e-06
1.16099e-05
2.94744e-06
4.54161e-06
3.38198e-05
2.87331e-06
1.95963e-06
4.86051e-05
2.3507e-06
4.00551e-05
1.29949e-06
2.36694e-06
-4.22566e-05
4.15593e-08
4.54479e-06
-6.12583e-05
3.53607e-08
6.52075e-06
-6.60083e-05
1.48988e-07
8.378e-06
-6.72073e-05
2.18502e-07
1.01493e-05
-6.71477e-05
2.58261e-07
1.18468e-05
-6.62725e-05
2.80422e-07
1.3478e-05
-6.46572e-05
2.89408e-07
1.50484e-05
-6.22473e-05
2.85083e-07
1.65558e-05
-5.89027e-05
2.60552e-07
1.7983e-05
-5.45095e-05
1.9768e-07
1.92678e-05
-4.91998e-05
6.99603e-08
2.02351e-05
-4.34729e-05
-1.18143e-07
2.068e-05
-3.80349e-05
-3.35679e-07
2.05712e-05
-3.34646e-05
-5.23169e-07
2.0139e-05
-2.99249e-05
-6.33311e-07
1.97676e-05
-2.71732e-05
-6.44695e-07
1.98346e-05
-2.47827e-05
-5.36891e-07
2.05658e-05
-2.22947e-05
-2.85731e-07
2.18874e-05
-1.93066e-05
9.43219e-08
2.33902e-05
-1.56632e-05
5.00699e-07
2.45541e-05
-1.16657e-05
7.98622e-07
2.50452e-05
-7.89664e-06
9.49326e-07
2.48202e-05
-4.77077e-06
1.00158e-06
2.40256e-05
-2.33404e-06
1.02511e-06
2.2879e-05
-3.91165e-07
1.06807e-06
2.16075e-05
1.35689e-06
1.16215e-06
2.04123e-05
3.17559e-06
1.34389e-06
1.91632e-05
5.23369e-06
1.65311e-06
1.74531e-05
7.33793e-06
2.05194e-06
1.50392e-05
9.06485e-06
2.43337e-06
1.21062e-05
9.58608e-06
2.70329e-06
8.5715e-06
1.23049e-05
2.82847e-06
5.09515e-06
3.45645e-05
2.75494e-06
1.9828e-06
4.94864e-05
2.30695e-06
4.0715e-05
1.24892e-06
3.13869e-06
-4.51081e-05
-2.17472e-07
6.23008e-06
-6.38734e-05
-3.86069e-07
8.68851e-06
-6.81145e-05
-2.74689e-07
1.07649e-05
-6.90334e-05
-1.8307e-07
1.25705e-05
-6.87629e-05
-1.28762e-07
1.4132e-05
-6.76716e-05
-1.04761e-07
1.54367e-05
-6.58002e-05
-1.07369e-07
1.64304e-05
-6.30554e-05
-1.35782e-07
1.70247e-05
-5.92666e-05
-1.89715e-07
1.71818e-05
-5.4381e-05
-2.64733e-07
1.70605e-05
-4.87378e-05
-3.5126e-07
1.69497e-05
-4.29565e-05
-4.4363e-07
1.69762e-05
-3.75611e-05
-5.43739e-07
1.70124e-05
-3.28847e-05
-6.43736e-07
1.68927e-05
-2.90882e-05
-7.22174e-07
1.66012e-05
-2.6109e-05
-7.59888e-07
1.62862e-05
-2.37e-05
-7.43296e-07
1.62047e-05
-2.153e-05
-6.51209e-07
1.66097e-05
-1.92304e-05
-4.45902e-07
1.75508e-05
-1.64541e-05
-1.16229e-07
1.87642e-05
-1.31114e-05
2.62463e-07
1.98739e-05
-9.53461e-06
5.54617e-07
2.06083e-05
-6.20433e-06
7.21791e-07
2.08632e-05
-3.37613e-06
8.06539e-07
2.06418e-05
-1.02121e-06
8.6861e-07
2.0047e-05
1.01682e-06
9.52443e-07
1.92138e-05
2.94167e-06
1.09052e-06
1.82355e-05
4.93319e-06
1.3179e-06
1.70035e-05
6.9738e-06
1.65818e-06
1.53034e-05
8.76986e-06
2.0759e-06
1.29353e-05
9.548e-06
2.45067e-06
9.20862e-06
1.32866e-05
2.63042e-06
3.58661e-06
3.70598e-05
2.52984e-06
9.25486e-07
4.96477e-05
2.1487e-06
4.04141e-05
1.11089e-06
1.92565e-06
-4.66982e-05
-2.87802e-07
4.1539e-06
-6.55319e-05
-5.33867e-07
6.16322e-06
-6.96611e-05
-4.41189e-07
8.0156e-06
-7.05352e-05
-3.31159e-07
9.74092e-06
-7.02198e-05
-2.46627e-07
1.13473e-05
-6.90674e-05
-1.87372e-07
1.28323e-05
-6.71101e-05
-1.53902e-07
1.41674e-05
-6.42238e-05
-1.51712e-07
1.52661e-05
-6.01633e-05
-1.93367e-07
1.59667e-05
-5.478e-05
-2.94145e-07
1.61367e-05
-4.84519e-05
-4.47565e-07
1.58752e-05
-4.20839e-05
-6.09856e-07
1.54785e-05
-3.64423e-05
-7.35917e-07
1.51603e-05
-3.1779e-05
-8.12334e-07
1.49228e-05
-2.80316e-05
-8.45384e-07
1.46769e-05
-2.50415e-05
-8.42335e-07
1.43766e-05
-2.2607e-05
-8.05203e-07
1.40667e-05
-2.04962e-05
-7.28121e-07
1.3888e-05
-1.84527e-05
-5.92954e-07
1.40197e-05
-1.61974e-05
-3.70619e-07
1.45053e-05
-1.35072e-05
-6.37066e-08
1.51694e-05
-1.04298e-05
2.57382e-07
1.57899e-05
-7.29212e-06
4.88512e-07
1.61941e-05
-4.3866e-06
6.22537e-07
1.62678e-05
-1.78773e-06
7.06674e-07
1.59209e-05
5.85465e-07
7.92563e-07
1.51153e-05
2.84624e-06
9.19212e-07
1.3911e-05
5.0446e-06
1.11941e-06
1.23602e-05
7.14537e-06
1.41885e-06
1.0324e-05
9.05269e-06
1.8092e-06
7.89905e-06
9.82887e-06
2.21794e-06
5.18324e-06
1.37668e-05
2.46182e-06
2.37536e-06
3.76463e-05
2.28903e-06
6.75244e-07
4.93593e-05
1.87615e-06
4.00622e-05
9.58339e-07
1.32874e-06
-4.77152e-05
-3.2735e-07
3.26526e-06
-6.68216e-05
-6.81363e-07
5.15261e-06
-7.08809e-05
-6.94511e-07
6.902e-06
-7.16757e-05
-6.24509e-07
8.49513e-06
-7.12747e-05
-5.43663e-07
9.91173e-06
-7.00185e-05
-4.63653e-07
1.11365e-05
-6.79428e-05
-3.88287e-07
1.21754e-05
-6.49428e-05
-3.22347e-07
1.30791e-05
-6.08074e-05
-2.77148e-07
1.39166e-05
-5.53687e-05
-2.80596e-07
1.46287e-05
-4.88256e-05
-3.68452e-07
1.50024e-05
-4.19335e-05
-5.36286e-07
1.49293e-05
-3.56433e-05
-7.22061e-07
1.4526e-05
-3.05049e-05
-8.63134e-07
1.39666e-05
-2.65325e-05
-9.36407e-07
1.33473e-05
-2.34774e-05
-9.47048e-07
1.26984e-05
-2.10574e-05
-9.06322e-07
1.20429e-05
-1.90269e-05
-8.19489e-07
1.1436e-05
-1.71673e-05
-6.80641e-07
1.09755e-05
-1.52579e-05
-4.71954e-07
1.07427e-05
-1.30728e-05
-1.79998e-07
1.06717e-05
-1.0486e-05
1.59569e-07
1.06003e-05
-7.63373e-06
4.4403e-07
1.04267e-05
-4.80267e-06
6.12309e-07
1.01168e-05
-2.1569e-06
6.95266e-07
9.66574e-06
2.92304e-07
7.60159e-07
9.13492e-06
2.53306e-06
8.65353e-07
8.51962e-06