/*--------------------------------*- C++ -*----------------------------------*\
| =========                 |                                                 |
| \\      /  F ield         | OpenFOAM: The Open Source CFD Toolbox           |
|  \\    /   O peration     | Version:  v2006                                 |
|   \\  /    A nd           | Website:  www.openfoam.com                      |
|    \\/     M anipulation  |                                                 |
\*---------------------------------------------------------------------------*/
FoamFile
{
    version     2.0;
    format      ascii;
    class       volVectorField;
    location    "32";
    object      U;
}
// * * * * * * * * * * * * * * * * * * * * * * * * * * * * * * * * * * * * * //

dimensions      [0 1 -1 0 0 0 0];


internalField   nonuniform List<vector> 
78750
(
(-0.295434 -0.140761 -0.0870967)
(-0.261622 -0.127159 -0.0837611)
(-0.254267 -0.106012 -0.0760957)
(-0.219139 -0.0848125 -0.0669788)
(-0.182051 -0.0682134 -0.0593081)
(-0.167584 -0.0625714 -0.0575626)
(-0.152632 -0.0534021 -0.0549059)
(-0.136607 -0.0486411 -0.0530347)
(-0.121891 -0.0421937 -0.0504541)
(-0.107099 -0.0382249 -0.0484607)
(-0.0952659 -0.0338551 -0.0466692)
(-0.0838779 -0.0302729 -0.0449682)
(-0.0738074 -0.0271938 -0.0436042)
(-0.0650167 -0.0243474 -0.042388)
(-0.0568937 -0.0219297 -0.0413533)
(-0.0497474 -0.0197593 -0.0404664)
(-0.043226 -0.017898 -0.0397025)
(-0.0373508 -0.0163076 -0.0390372)
(-0.0319827 -0.0149923 -0.038445)
(-0.0270425 -0.0139449 -0.0379056)
(-0.0224566 -0.0131455 -0.0373969)
(-0.0181415 -0.0125721 -0.0368978)
(-0.0140352 -0.0121969 -0.0363944)
(-0.0101012 -0.0119929 -0.0358825)
(-0.00629595 -0.011922 -0.0353591)
(-0.00258156 -0.0119229 -0.0348229)
(0.00106444 -0.0119119 -0.0342749)
(0.00464177 -0.0117908 -0.0337171)
(0.00812125 -0.0114728 -0.033154)
(0.0114506 -0.0108346 -0.032588)
(0.0145171 -0.00969763 -0.0320214)
(0.0171007 -0.00786801 -0.0314677)
(0.0184465 -0.00558513 -0.0309886)
(0.0216394 -0.00257385 -0.0305171)
(0.0152344 0.0806205 -0.0163457)
(0.029893 -0.162419 0.0402013)
(-0.0515375 -0.135254 0.0201258)
(-0.0306687 -0.153251 0.0114467)
(-0.0473947 -0.156296 0.00536733)
(-0.0519084 -0.134745 -0.0021925)
(-0.0531218 -0.11836 -0.00629811)
(-0.0531716 -0.101755 -0.0106698)
(-0.0515958 -0.0894459 -0.0139229)
(-0.0493544 -0.0795118 -0.0168635)
(-0.0466294 -0.0710994 -0.0193701)
(-0.0437284 -0.0640621 -0.0215641)
(-0.0407453 -0.0582097 -0.0234535)
(-0.0378529 -0.0533492 -0.0250394)
(-0.035081 -0.0493568 -0.0263422)
(-0.0325447 -0.0461121 -0.0273811)
(-0.0302686 -0.0434876 -0.0281594)
(-0.0282463 -0.0413532 -0.0286764)
(-0.0264451 -0.039612 -0.0289384)
(-0.0248147 -0.0381948 -0.0289578)
(-0.0232767 -0.0370585 -0.0287547)
(-0.0217331 -0.0361897 -0.0283539)
(-0.0200925 -0.0355772 -0.0277773)
(-0.0182549 -0.0351195 -0.0270573)
(-0.0161479 -0.0347624 -0.0262326)
(-0.0137518 -0.0345525 -0.0253451)
(-0.0110185 -0.0344563 -0.0244348)
(-0.0079253 -0.0343497 -0.0235479)
(-0.00439007 -0.0340361 -0.0227418)
(-0.000362993 -0.0332975 -0.0221306)
(0.0041096 -0.031841 -0.0218985)
(0.00887556 -0.0291107 -0.0222533)
(0.0132211 -0.023852 -0.0234329)
(0.0168975 -0.0120836 -0.0260166)
(0.0167045 0.028214 -0.0288783)
(0.00601523 0.21185 -0.0129841)
(-0.0091656 0.0498314 -0.00396311)
(-0.0131468 0.0157131 0.00604192)
(-0.016623 -0.0267209 0.0118112)
(-0.015397 -0.0601034 0.0151362)
(-0.0123251 -0.0825489 0.0179513)
(-0.00704419 -0.0940767 0.0208987)
(0.000309862 -0.097011 0.0243917)
(0.00905627 -0.0927958 0.0274053)
(0.0176784 -0.0862698 0.0290402)
(0.0258153 -0.0784503 0.0295403)
(0.0331058 -0.0694078 0.0291631)
(0.0392716 -0.0597064 0.0280799)
(0.0442626 -0.0499892 0.0265094)
(0.0481632 -0.0407085 0.0246848)
(0.0511183 -0.032133 0.0227845)
(0.0532814 -0.0244423 0.0209088)
(0.0547554 -0.0178381 0.0190893)
(0.0555686 -0.0126169 0.0173097)
(0.0556939 -0.00912269 0.0155364)
(0.0550842 -0.00763676 0.0137732)
(0.0537153 -0.00820448 0.0120921)
(0.0515948 -0.0105284 0.010621)
(0.0487353 -0.014128 0.00949599)
(0.0450935 -0.0186514 0.00880921)
(0.040652 -0.0240094 0.00861141)
(0.0354442 -0.0302494 0.00891885)
(0.029537 -0.0373487 0.0097142)
(0.023023 -0.0449886 0.0109281)
(0.0160242 -0.0523387 0.0123742)
(0.00929183 -0.0579547 0.013752)
(0.00465614 -0.0600192 0.0148164)
(0.00206912 -0.0548653 0.0149308)
(0.00415522 -0.0108869 0.00527498)
(0.00566907 0.129569 -0.0159991)
(0.000713435 0.2993 -0.010998)
(0.00230925 -0.0383757 0.0116549)
(0.0161085 -0.0953742 0.018098)
(0.0317783 -0.142358 0.0205544)
(0.0487833 -0.177778 0.0219538)
(0.0657951 -0.202207 0.0232097)
(0.0819152 -0.21749 0.0245153)
(0.0972812 -0.224885 0.0258296)
(0.111402 -0.224683 0.0272569)
(0.123843 -0.216916 0.0287965)
(0.133982 -0.20295 0.0299373)
(0.141354 -0.185291 0.0299305)
(0.146001 -0.166427 0.028252)
(0.14831 -0.148184 0.0248441)
(0.148779 -0.131639 0.0201172)
(0.14798 -0.117031 0.0147441)
(0.146528 -0.103863 0.00937031)
(0.144931 -0.0914202 0.00448305)
(0.14344 -0.0792779 0.000491733)
(0.142005 -0.0670131 -0.00240397)
(0.140456 -0.0543739 -0.00410726)
(0.138589 -0.0413535 -0.00463119)
(0.136195 -0.0281465 -0.004099)
(0.133085 -0.0149909 -0.00270313)
(0.129029 -0.00206862 -0.000557193)
(0.123652 0.0105508 0.00223489)
(0.116791 0.02251 0.00554957)
(0.108359 0.0330092 0.00921519)
(0.0982862 0.0407541 0.0131786)
(0.0867045 0.0442977 0.0175128)
(0.0739522 0.0411494 0.0230105)
(0.0574982 0.017615 0.0326308)
(0.0404994 -0.0240599 0.0438908)
(0.0236766 -0.0384385 0.0439065)
(0.011184 0.106229 0.0102904)
(0.00243395 0.311408 -0.000869005)
(0.00223149 -0.107812 0.02781)
(0.0162757 -0.255034 0.0362936)
(0.0317905 -0.335091 0.0340287)
(0.0468683 -0.376404 0.0314465)
(0.0608709 -0.394544 0.0301251)
(0.0735509 -0.396818 0.0301705)
(0.0843837 -0.386066 0.0316672)
(0.0928906 -0.362332 0.0347664)
(0.0984084 -0.32504 0.039123)
(0.0998047 -0.277204 0.0427082)
(0.0967041 -0.225085 0.0426638)
(0.0906009 -0.173936 0.037303)
(0.0838253 -0.127124 0.026752)
(0.0778499 -0.0879797 0.0128643)
(0.0729834 -0.0595151 -0.00118642)
(0.0691266 -0.041138 -0.012802)
(0.0662471 -0.0288946 -0.0214741)
(0.063956 -0.0193669 -0.0280053)
(0.0620879 -0.0113665 -0.0327997)
(0.0607662 -0.00435819 -0.0359932)
(0.0599264 0.00213392 -0.0377692)
(0.0594575 0.00848828 -0.0383449)
(0.0592407 0.014969 -0.0379439)
(0.0593603 0.0217055 -0.0367697)
(0.059738 0.0287915 -0.0350996)
(0.0601065 0.0362521 -0.033227)
(0.0601247 0.0440774 -0.0314402)
(0.0595438 0.0523128 -0.0299987)
(0.05813 0.0616075 -0.0285091)
(0.0551536 0.0737354 -0.0256859)
(0.0492541 0.0907097 -0.0196284)
(0.039674 0.108564 -0.00535535)
(0.0228001 0.127172 0.022134)
(0.00788257 0.246658 0.0193608)
(-0.000401937 0.380484 0.00348292)
(0.0053138 -0.186827 0.0183737)
(0.0165721 -0.354141 0.00601479)
(0.0227379 -0.413682 -0.00457236)
(0.0262264 -0.42935 -0.00952894)
(0.0283833 -0.427369 -0.0112676)
(0.0299595 -0.414188 -0.0107035)
(0.0311051 -0.388226 -0.00753207)
(0.0318592 -0.342145 -0.0008231)
(0.0321575 -0.272652 0.00820288)
(0.0309849 -0.194586 0.0136893)
(0.0277195 -0.130353 0.0112927)
(0.0238239 -0.0912465 0.00336943)
(0.0210916 -0.0719631 -0.00501785)
(0.0198992 -0.0618985 -0.0117009)
(0.0198627 -0.0546935 -0.0170338)
(0.020693 -0.0480187 -0.0215961)
(0.0221155 -0.041184 -0.0255557)
(0.0238239 -0.0340252 -0.0289051)
(0.0256359 -0.0265102 -0.031626)
(0.027469 -0.0186449 -0.0337329)
(0.029284 -0.0104375 -0.035257)
(0.0310278 -0.0018876 -0.0362386)
(0.0325917 0.00709964 -0.0366886)
(0.0338978 0.0166692 -0.0365765)
(0.0348713 0.0268364 -0.0358946)
(0.0354252 0.0376339 -0.0346446)
(0.035442 0.0492602 -0.0327793)
(0.0347244 0.0621179 -0.0301802)
(0.0329867 0.0766566 -0.0266895)
(0.0298805 0.0923918 -0.0223409)
(0.0257538 0.107113 -0.0172678)
(0.0215292 0.119703 -0.0105207)
(0.0153366 0.139835 0.00180258)
(0.00668459 0.274102 0.0151484)
(0.00121905 0.401011 0.00679247)
(0.00325957 -0.25938 0.0116651)
(0.00190656 -0.407155 0.00806652)
(-0.00154505 -0.446598 0.00854383)
(-0.00506528 -0.457913 0.00954248)
(-0.00826904 -0.458065 0.010489)
(-0.0108378 -0.448675 0.0116714)
(-0.0124856 -0.425469 0.013731)
(-0.0121349 -0.380129 0.0174562)
(-0.0083309 -0.313583 0.0217248)
(-0.00090801 -0.239246 0.0238306)
(0.00837208 -0.171319 0.0220385)
(0.0170177 -0.118651 0.0168409)
(0.0236549 -0.0826842 0.0100414)
(0.0278845 -0.0597415 0.00314607)
(0.0301276 -0.0448347 -0.00320791)
(0.0310979 -0.034059 -0.00895073)
(0.0313656 -0.0251155 -0.0141837)
(0.0313063 -0.0169184 -0.0189845)
(0.0311272 -0.00903227 -0.0233773)
(0.0309069 -0.0012319 -0.027365)
(0.0307158 0.00668975 -0.0309322)
(0.0306112 0.0149321 -0.0340579)
(0.0306041 0.0236866 -0.0367041)
(0.03069 0.0331415 -0.0388077)
(0.0308482 0.0434874 -0.0402982)
(0.0310281 0.0549375 -0.0411106)
(0.0311372 0.0677104 -0.0411636)
(0.0310277 0.082006 -0.040377)
(0.0304545 0.0979462 -0.0387214)
(0.0290246 0.115351 -0.036285)
(0.0264131 0.133535 -0.0332421)
(0.0227542 0.15318 -0.0289555)
(0.0159944 0.187284 -0.0183036)
(0.00616733 0.311986 0.00403729)
(0.000746827 0.421656 0.00835049)
(-0.00223748 -0.252129 0.0136839)
(-0.00837969 -0.382619 0.0207515)
(-0.0115228 -0.425687 0.0205718)
(-0.0135645 -0.443909 0.0187844)
(-0.0149056 -0.45128 0.0167686)
(-0.0155398 -0.451233 0.0148458)
(-0.0150685 -0.444626 0.0133959)
(-0.0128141 -0.430238 0.0132471)
(-0.0077424 -0.402801 0.0158278)
(0.000860425 -0.357509 0.0217363)
(0.0121605 -0.29831 0.0290082)
(0.0242647 -0.234208 0.0349649)
(0.0353072 -0.173707 0.0379846)
(0.0437249 -0.122976 0.0376867)
(0.0487759 -0.0846923 0.0347149)
(0.0508139 -0.057673 0.0302657)
(0.0508384 -0.0384494 0.0253973)
(0.0498038 -0.0236156 0.0206374)
(0.0483243 -0.0110093 0.0160754)
(0.0467133 0.00039028 0.0115696)
(0.0450236 0.0109907 0.00690665)
(0.0432077 0.0209868 0.0018979)
(0.0412603 0.0305705 -0.00354937)
(0.0392038 0.0399916 -0.00937124)
(0.0371005 0.0495568 -0.0153482)
(0.0350467 0.0597089 -0.0211914)
(0.0331346 0.0710948 -0.0266515)
(0.0313928 0.0846334 -0.031551)
(0.0297827 0.101462 -0.035683)
(0.0281291 0.12256 -0.0387139)
(0.0261104 0.147979 -0.0401487)
(0.0234868 0.179007 -0.0387129)
(0.0174177 0.233393 -0.0275854)
(0.00719121 0.364134 -0.00373908)
(0.0002193 0.447429 0.00689215)
(-0.00376434 -0.231342 0.0112082)
(-0.00311179 -0.392493 0.0108452)
(0.000423876 -0.455074 0.00669659)
(0.00412563 -0.481624 0.00364564)
(0.00757787 -0.493152 0.00128911)
(0.0105409 -0.495602 -0.00089023)
(0.0128215 -0.490485 -0.00321295)
(0.0144332 -0.47808 -0.00573399)
(0.0157543 -0.457938 -0.00790485)
(0.0177187 -0.428071 -0.00824631)
(0.0215693 -0.385615 -0.00498839)
(0.0278926 -0.33 0.00215087)
(0.0360589 -0.264423 0.011467)
(0.0445118 -0.195638 0.0201315)
(0.0513733 -0.132448 0.0253279)
(0.0553333 -0.0822598 0.0257585)
(0.0563859 -0.0472759 0.0225597)
(0.055631 -0.0241352 0.018077)
(0.0542648 -0.00764545 0.01394)
(0.0529473 0.00613033 0.0107347)
(0.0518046 0.019428 0.00852895)
(0.0506676 0.0331881 0.00716908)
(0.0492933 0.0473562 0.00627269)
(0.0474344 0.0613451 0.00532469)
(0.0449788 0.0746402 0.0038871)
(0.0419869 0.0871642 0.00174075)
(0.0386264 0.0992897 -0.00112)
(0.0351048 0.11175 -0.00458052)
(0.0316092 0.125759 -0.0084983)
(0.0282604 0.143258 -0.0127216)
(0.0251115 0.167218 -0.0169093)
(0.0221963 0.204794 -0.0198882)
(0.0176386 0.286274 -0.0158685)
(0.00940597 0.421223 -0.00267433)
(0.00171836 0.472341 0.0063846)
(-0.000489908 -0.23816 0.00209825)
(0.00922418 -0.427187 -0.00369312)
(0.0182739 -0.495583 -0.00537054)
(0.0255493 -0.518614 -0.0058174)
(0.0311624 -0.523984 -0.00637599)
(0.0353288 -0.518974 -0.00765922)
(0.0377324 -0.505403 -0.010128)
(0.0382068 -0.484667 -0.0139166)
(0.0368644 -0.459467 -0.0185142)
(0.0341999 -0.432665 -0.0228327)
(0.0311016 -0.404054 -0.0253812)
(0.0288291 -0.369294 -0.0241464)
(0.0287208 -0.322794 -0.0170443)
(0.0312997 -0.262552 -0.00363244)
(0.0356703 -0.193064 0.0132877)
(0.0398235 -0.124644 0.0279596)
(0.0417328 -0.0693469 0.0347618)
(0.040881 -0.033187 0.032791)
(0.0384538 -0.0121199 0.0258352)
(0.0357933 0.00141224 0.0176323)
(0.0338078 0.0127654 0.00990121)
(0.0327939 0.025078 0.00304851)
(0.0326032 0.0399012 -0.00296354)
(0.0328324 0.0569706 -0.00812673)
(0.032878 0.0746314 -0.0124238)
(0.0322458 0.0912859 -0.0158839)
(0.0307466 0.106361 -0.0185375)
(0.028417 0.120321 -0.0203721)
(0.0254352 0.134292 -0.0213337)
(0.0221199 0.149809 -0.0213561)
(0.018856 0.169405 -0.0203046)
(0.0156648 0.201516 -0.0172805)
(0.0119832 0.28853 -0.00804841)
(0.00694109 0.4493 0.00301806)
(0.00105959 0.489896 0.00782325)
(0.00387389 -0.280597 -0.00326037)
(0.0173338 -0.478923 0.00409398)
(0.0262699 -0.539464 0.00912045)
(0.0324772 -0.553845 0.0109014)
(0.037017 -0.551468 0.0103007)
(0.04015 -0.538277 0.00708498)
(0.0413562 -0.515166 0.000758254)
(0.040572 -0.483147 -0.0083095)
(0.0381575 -0.444693 -0.0185881)
(0.0344321 -0.403939 -0.0285247)
(0.0294978 -0.365634 -0.0373946)
(0.0237178 -0.331857 -0.0445725)
(0.018 -0.299648 -0.04821)
(0.0136759 -0.262116 -0.0449441)
(0.0120847 -0.212759 -0.031554)
(0.0133845 -0.151411 -0.00898044)
(0.0159433 -0.0867609 0.0156856)
(0.0173687 -0.0332498 0.032948)
(0.0165571 -0.000949482 0.0382424)
(0.0142946 0.0144705 0.0348082)
(0.0111998 0.0225208 0.0265637)
(0.00815568 0.0296347 0.0161223)
(0.00660729 0.0398527 0.00611908)
(0.00690099 0.0552797 -0.00287329)
(0.00901806 0.0760931 -0.0113643)
(0.0123328 0.100282 -0.0196649)
(0.0156685 0.125151 -0.0276792)
(0.0178714 0.148396 -0.0348992)
(0.0182712 0.168743 -0.0404355)
(0.0169735 0.186524 -0.0434273)
(0.0145578 0.205366 -0.0430635)
(0.0113512 0.238517 -0.0365135)
(0.00669638 0.336662 -0.0159359)
(0.0029312 0.492563 0.0035933)
(-0.000476226 0.509007 0.0081775)
(0.00659303 -0.366232 0.0110053)
(0.0155401 -0.540606 0.0321974)
(0.0186669 -0.574203 0.0372376)
(0.0197419 -0.574561 0.0369593)
(0.019683 -0.560597 0.0330774)
(0.0180488 -0.533895 0.0245022)
(0.0144971 -0.496897 0.0109143)
(0.00971918 -0.455471 -0.00471105)
(0.00503656 -0.414111 -0.0178029)
(0.00127021 -0.372944 -0.0263948)
(-0.00169473 -0.331246 -0.0318967)
(-0.00452048 -0.29144 -0.0372717)
(-0.00756589 -0.257584 -0.0437424)
(-0.0102526 -0.229899 -0.0491555)
(-0.0117706 -0.203531 -0.0504339)
(-0.0113731 -0.171707 -0.0444684)
(-0.00850281 -0.130103 -0.0289013)
(-0.00419665 -0.0821303 -0.0063442)
(-0.000688197 -0.0363198 0.0167976)
(0.0002988 -0.000501302 0.0349506)
(-0.00184312 0.0203768 0.0448286)
(-0.00516546 0.0280614 0.0471727)
(-0.0089938 0.028475 0.0446381)
(-0.0129025 0.0256689 0.0374916)
(-0.014766 0.0288969 0.0288598)
(-0.0148213 0.0428933 0.0194801)
(-0.0123609 0.0700679 0.00867082)
(-0.00693764 0.106516 -0.00264195)
(0.000157113 0.146045 -0.0141615)
(0.00691366 0.185234 -0.0256568)
(0.0109492 0.220838 -0.0352877)
(0.0106486 0.258019 -0.0383893)
(0.00615243 0.352304 -0.0230713)
(0.00215282 0.504054 -0.000710164)
(6.0628e-05 0.506651 0.007032)
(0.00460085 -0.426359 0.0312575)
(0.00313861 -0.553186 0.0447086)
(-0.000444197 -0.566725 0.0455181)
(-0.00497531 -0.55637 0.043056)
(-0.0105924 -0.529014 0.0360324)
(-0.0166629 -0.48637 0.0221196)
(-0.0227692 -0.437878 0.00207227)
(-0.0282949 -0.395397 -0.0177808)
(-0.0326086 -0.3622 -0.0312249)
(-0.0355313 -0.333368 -0.0376588)
(-0.0370849 -0.303394 -0.03916)
(-0.0372221 -0.270567 -0.0381374)
(-0.0362351 -0.238311 -0.0370782)
(-0.0346778 -0.210363 -0.0367789)
(-0.0327904 -0.185847 -0.0363427)
(-0.0303952 -0.161058 -0.0345135)
(-0.026982 -0.131728 -0.029485)
(-0.022057 -0.0951094 -0.0192829)
(-0.0161055 -0.0533872 -0.00434269)
(-0.0105209 -0.0131589 0.0118518)
(-0.00666128 0.0185519 0.0253887)
(-0.0052816 0.0383204 0.0341816)
(-0.00625964 0.0485088 0.0390521)
(-0.00905919 0.0534727 0.0420008)
(-0.0132238 0.0554957 0.0442177)
(-0.0178278 0.0541264 0.0457025)
(-0.0216244 0.0484334 0.0452048)
(-0.0225837 0.0451326 0.0413276)
(-0.0192958 0.0602205 0.0345761)
(-0.0119447 0.101803 0.0245882)
(-0.00169536 0.171578 0.00994552)
(0.00741581 0.272695 -0.0102173)
(0.00545264 0.394678 -0.0138749)
(0.0019928 0.517372 -0.00113818)
(0.000383093 0.503434 0.0065762)
(-0.00279743 -0.424172 0.0437681)
(-0.0135715 -0.521273 0.0486928)
(-0.0224138 -0.527166 0.0481374)
(-0.0307852 -0.511508 0.0462811)
(-0.0385415 -0.478981 0.0419477)
(-0.0428049 -0.435775 0.0337323)
(-0.0433886 -0.392358 0.0219064)
(-0.0416807 -0.356166 0.00914868)
(-0.0391811 -0.328193 -0.00204935)
(-0.0366859 -0.305876 -0.0111742)
(-0.0343714 -0.286582 -0.0183362)
(-0.0320921 -0.268327 -0.0233722)
(-0.0296571 -0.249898 -0.0261631)
(-0.0270926 -0.231286 -0.0270884)
(-0.0245644 -0.212868 -0.0267167)
(-0.0220468 -0.194042 -0.0252436)
(-0.0192198 -0.173013 -0.0223391)
(-0.015548 -0.147277 -0.0171524)
(-0.0105683 -0.115008 -0.00870806)
(-0.00444014 -0.0774145 0.00274609)
(0.00193621 -0.0391344 0.0150962)
(0.00725795 -0.0055486 0.0258114)
(0.010601 0.0203863 0.0337382)
(0.0118692 0.0380608 0.0391125)
(0.0112723 0.0480484 0.0426045)
(0.00930284 0.0517689 0.044778)
(0.00634402 0.051317 0.0461887)
(0.00222951 0.0478166 0.0472693)
(-0.00244543 0.0406748 0.0483184)
(-0.00485923 0.0340714 0.048523)
(-0.00310611 0.0617353 0.044963)
(0.00692544 0.193255 0.0293875)
(0.00830607 0.398819 0.00455528)
(0.00346347 0.527723 0.00509735)
(0.0011956 0.503887 0.00889658)
(-0.0088975 -0.365586 0.036571)
(-0.0199573 -0.473013 0.031098)
(-0.0271902 -0.490722 0.0286691)
(-0.0320086 -0.491833 0.0289308)
(-0.0344944 -0.485398 0.0316884)
(-0.0335262 -0.472842 0.036305)
(-0.0294407 -0.453116 0.0411069)
(-0.0232056 -0.425547 0.043932)
(-0.0160292 -0.392157 0.0433935)
(-0.00899031 -0.356683 0.0395939)
(-0.00281621 -0.322198 0.0334013)
(0.00210566 -0.290326 0.0257792)
(0.0056717 -0.261562 0.0176935)
(0.00799449 -0.235864 0.0100674)
(0.00926632 -0.213117 0.00359295)
(0.00972841 -0.193037 -0.00135246)
(0.00973791 -0.17478 -0.00459249)
(0.00975707 -0.156742 -0.00592237)
(0.0103283 -0.136555 -0.00482134)
(0.011999 -0.111626 -0.000390867)
(0.0149578 -0.0810045 0.00772004)
(0.0186984 -0.047231 0.0180032)
(0.0222429 -0.0150289 0.0278079)
(0.0246847 0.0117486 0.0353398)
(0.0255875 0.0313339 0.0403096)
(0.0249228 0.0437226 0.0432549)
(0.0229648 0.0502944 0.0449086)
(0.0200465 0.0529036 0.0459185)
(0.0162449 0.0522786 0.046751)
(0.0114395 0.0474097 0.0477716)
(0.0056508 0.0472582 0.049299)
(0.00621203 0.143994 0.0471577)
(0.00856326 0.421845 0.0216853)
(0.00369506 0.548797 0.0142257)
(0.00149767 0.514635 0.0131954)
(-0.00622896 -0.304038 0.0221094)
(-0.00946557 -0.449038 0.0150805)
(-0.00979835 -0.489809 0.0137355)
(-0.00836966 -0.506725 0.0146049)
(-0.00606261 -0.513878 0.0168486)
(-0.0031125 -0.51304 0.0202099)
(0.000451007 -0.503869 0.0246816)
(0.00476098 -0.485769 0.0302191)
(0.00989939 -0.458833 0.036326)
(0.015682 -0.42442 0.0420097)
(0.0216849 -0.385103 0.0461826)
(0.0273616 -0.3439 0.047995)
(0.0322019 -0.303485 0.0470022)
(0.0358389 -0.265772 0.0432841)
(0.0380695 -0.231952 0.0374765)
(0.0388379 -0.202672 0.0306086)
(0.0382579 -0.178003 0.0237919)
(0.0366546 -0.157295 0.0179312)
(0.0345355 -0.139149 0.0136313)
(0.032471 -0.121459 0.0113812)
(0.0310241 -0.10148 0.0119303)
(0.0306682 -0.0767327 0.0162212)
(0.0313972 -0.0473754 0.0239866)
(0.0324894 -0.0171654 0.032848)
(0.0329569 0.00924489 0.0401254)
(0.0321107 0.0292298 0.0447552)
(0.0298561 0.042523 0.0471838)
(0.0265059 0.0502893 0.0483365)
(0.0223847 0.053798 0.0489642)
(0.0174657 0.053228 0.0496038)
(0.0112401 0.0504291 0.0509987)
(0.00677444 0.113534 0.0532547)
(0.00779796 0.411406 0.0387224)
(0.00484762 0.55962 0.0268503)
(0.0021616 0.521179 0.0207843)
(-0.00326497 -0.307285 0.0110737)
(-0.00128285 -0.485872 0.00067208)
(0.00142552 -0.53745 -0.00276893)
(0.00480887 -0.554502 -0.00448453)
(0.00823306 -0.558657 -0.00562478)
(0.0115842 -0.554744 -0.00632112)
(0.0148031 -0.544324 -0.00628375)
(0.0180123 -0.52794 -0.00494958)
(0.0213727 -0.505426 -0.00163201)
(0.025021 -0.47633 0.0042011)
(0.0290408 -0.440715 0.0125405)
(0.0334235 -0.399669 0.0225762)
(0.038032 -0.355051 0.0327768)
(0.0425894 -0.308986 0.0413031)
(0.0466933 -0.263565 0.0465517)
(0.0498739 -0.220859 0.0476417)
(0.0516811 -0.182909 0.0447446)
(0.0518321 -0.151262 0.0390862)
(0.0503851 -0.126241 0.0324557)
(0.0477821 -0.106677 0.026456)
(0.0446721 -0.0903498 0.0221133)
(0.0416451 -0.0743976 0.020144)
(0.0391979 -0.0555202 0.0215633)
(0.0377186 -0.0313641 0.0273003)
(0.0369313 -0.00359504 0.0360053)
(0.0358193 0.0226206 0.0441927)
(0.0335452 0.0430084 0.0494857)
(0.0300134 0.056527 0.0519669)
(0.025578 0.064228 0.0528121)
(0.0204925 0.0670815 0.0530434)
(0.014238 0.0651941 0.0536243)
(0.00854503 0.109411 0.0564928)
(0.00733453 0.391117 0.0518043)
(0.00574547 0.567036 0.0395731)
(0.00240205 0.529869 0.0289167)
(0.000383568 -0.308186 -0.0028438)
(0.00462637 -0.501711 -0.00812192)
(0.00795156 -0.560577 -0.00894061)
(0.0109125 -0.578651 -0.00983102)
(0.0138602 -0.582491 -0.0112894)
(0.0169129 -0.577912 -0.0135506)
(0.019933 -0.566285 -0.0167571)
(0.0228243 -0.548179 -0.0208647)
(0.0254473 -0.524202 -0.0254172)
(0.0276316 -0.495408 -0.0292879)
(0.029296 -0.463228 -0.0306863)
(0.0306045 -0.428947 -0.0277883)
(0.0319849 -0.392965 -0.0197126)
(0.0339338 -0.354772 -0.00707265)
(0.0367295 -0.313648 0.00820056)
(0.0402643 -0.269479 0.0233603)
(0.0440389 -0.223461 0.035456)
(0.0472714 -0.178433 0.0421885)
(0.0491523 -0.138248 0.0429673)
(0.0492317 -0.105848 0.0393596)
(0.047671 -0.0815341 0.0340462)
(0.0450921 -0.0632414 0.0292133)
(0.042166 -0.0479275 0.0260657)
(0.0393431 -0.032209 0.025535)
(0.0370035 -0.0125948 0.029095)
(0.0353363 0.0118962 0.0372318)
(0.0335971 0.0367433 0.0466044)
(0.0308048 0.056349 0.053169)
(0.0268843 0.0690032 0.0561669)
(0.0221743 0.0755803 0.0568852)
(0.0163958 0.0757688 0.0567602)
(0.0109531 0.105914 0.0581983)
(0.00782569 0.368615 0.0588894)
(0.00588787 0.571148 0.0489542)
(0.00238865 0.539579 0.034626)
(0.00165036 -0.338944 0.000892947)
(0.00552376 -0.533861 0.00717965)
(0.00824757 -0.590104 0.0104488)
(0.0106821 -0.607178 0.0117553)
(0.0133429 -0.610539 0.0120618)
(0.0163213 -0.605336 0.0114728)
(0.0195039 -0.592332 0.00972742)
(0.0228658 -0.571027 0.0063115)
(0.0263142 -0.540592 0.000494701)
(0.0295387 -0.501445 -0.0082612)
(0.0320226 -0.457107 -0.0193144)
(0.0332912 -0.413718 -0.0301561)
(0.0333568 -0.376087 -0.0375178)
(0.0327936 -0.344547 -0.0392421)
(0.0323564 -0.315932 -0.0345146)
(0.0327331 -0.286137 -0.0233563)
(0.0343272 -0.251768 -0.00713431)
(0.037007 -0.211394 0.0107845)
(0.0400686 -0.166926 0.0257228)
(0.0424716 -0.123541 0.0340229)
(0.0434089 -0.0867648 0.0354628)
(0.0427495 -0.0588693 0.032825)
(0.0409364 -0.0383927 0.0291954)
(0.0385539 -0.0221788 0.0264162)
(0.0359973 -0.00684498 0.0255865)
(0.0335179 0.0110949 0.0282647)
(0.0313688 0.0337433 0.0361395)
(0.0291304 0.0573332 0.0467937)
(0.0260541 0.0755191 0.0549828)
(0.0219049 0.0862507 0.0588531)
(0.0166631 0.0876426 0.0595529)
(0.0118083 0.112938 0.0597358)
(0.00767885 0.363148 0.061443)
(0.00574129 0.579537 0.0549643)
(0.00259371 0.549568 0.0383883)
(0.00126686 -0.367621 -0.000479044)
(0.00498081 -0.558872 0.00199108)
(0.00804656 -0.615061 0.00310541)
(0.0106615 -0.634082 0.00369817)
(0.0132513 -0.639671 0.00405775)
(0.0158556 -0.636955 0.00429393)
(0.0183723 -0.626951 0.00440739)
(0.0207933 -0.609231 0.0042741)
(0.0231534 -0.582095 0.00349502)
(0.02548 -0.543321 0.00116497)
(0.027715 -0.493033 -0.00398071)
(0.0296275 -0.43674 -0.0123712)
(0.0308202 -0.38351 -0.0223278)
(0.0310733 -0.340134 -0.030897)
(0.0306232 -0.307298 -0.0359352)
(0.0299586 -0.281179 -0.036513)
(0.0295864 -0.256624 -0.0317089)
(0.0300376 -0.228579 -0.0203168)
(0.0316432 -0.19344 -0.0032681)
(0.034023 -0.151746 0.0143261)
(0.0362259 -0.108929 0.0264397)
(0.0374533 -0.0714557 0.031097)
(0.0374871 -0.0423579 0.0306123)
(0.0365649 -0.0206229 0.0282469)
(0.0350631 -0.00332269 0.0261357)
(0.0332516 0.0127133 0.0255609)
(0.0312774 0.0305031 0.028112)
(0.0292819 0.0515906 0.0356813)
(0.027176 0.0724346 0.0466234)
(0.024281 0.0879975 0.056243)
(0.0200675 0.090996 0.0608812)
(0.0157548 0.1113 0.0612042)
(0.00951034 0.34766 0.0609691)
(0.00598035 0.57745 0.0559507)
(0.00234514 0.555853 0.0382073)
(0.00186539 -0.384388 0.000691359)
(0.00689979 -0.576045 0.00357445)
(0.0109084 -0.630202 0.00409285)
(0.014 -0.646835 0.00377859)
(0.0168019 -0.64977 0.00299287)
(0.0193905 -0.643918 0.00172775)
(0.0216305 -0.630113 -8.81998e-05)
(0.0234546 -0.607911 -0.00256523)
(0.0247609 -0.576325 -0.00579674)
(0.0254314 -0.535109 -0.00967365)
(0.0255196 -0.486088 -0.0138264)
(0.0253961 -0.432874 -0.0180944)
(0.0254318 -0.380185 -0.0226697)
(0.0255777 -0.333267 -0.0272476)
(0.0255493 -0.29548 -0.0308715)
(0.0252365 -0.266373 -0.0327157)
(0.0247704 -0.242797 -0.0322344)
(0.0243931 -0.220662 -0.0284953)
(0.0244755 -0.195536 -0.0197232)
(0.0254603 -0.163806 -0.00529083)
(0.0272528 -0.126118 0.0105975)
(0.0291399 -0.0877468 0.021914)
(0.0305205 -0.0540052 0.0267358)
(0.0311666 -0.026829 0.0270758)
(0.031092 -0.00513202 0.0256687)
(0.0304376 0.0134311 0.0244383)
(0.0293466 0.0312926 0.0248199)
(0.027907 0.0502797 0.0285098)
(0.0262255 0.0700176 0.0367987)
(0.0242585 0.0870548 0.0483448)
(0.0209194 0.0924512 0.0581879)
(0.0168454 0.125882 0.0616164)
(0.00951323 0.378055 0.0598642)
(0.00306972 0.599233 0.0552445)
(0.000902146 0.567468 0.0360459)
(0.00107617 -0.414409 0.00381986)
(0.0044515 -0.608216 0.00727545)
(0.00752818 -0.657912 0.00812527)
(0.0101617 -0.672493 0.00832042)
(0.0127542 -0.674366 0.0081785)
(0.0152905 -0.667639 0.00767806)
(0.0176555 -0.652732 0.00665647)
(0.0198404 -0.628393 0.00474539)
(0.0218012 -0.592155 0.00124761)
(0.0233392 -0.542821 -0.00464365)
(0.0241405 -0.484767 -0.0126905)
(0.0241099 -0.426481 -0.0208892)
(0.0235961 -0.373791 -0.0271504)
(0.0230603 -0.328395 -0.0308689)
(0.022669 -0.290569 -0.0324074)
(0.0223243 -0.259908 -0.0322075)
(0.0219176 -0.234867 -0.0304808)
(0.0214556 -0.212986 -0.0270661)
(0.0210389 -0.19129 -0.0211965)
(0.020885 -0.166492 -0.011547)
(0.0213068 -0.136358 0.00182707)
(0.0222548 -0.102507 0.0148738)
(0.0232768 -0.0693053 0.0231166)
(0.0240316 -0.0398444 0.026048)
(0.0243407 -0.0146064 0.0257814)
(0.0240989 0.00752606 0.0245648)
(0.023242 0.0282055 0.0241184)
(0.0217491 0.0488305 0.026012)
(0.0196924 0.0694333 0.0317151)
(0.0171355 0.0875038 0.0413827)
(0.0136619 0.0968189 0.0526386)
(0.00954738 0.139564 0.0598704)
(0.00619974 0.421313 0.0569232)
(0.0017778 0.603014 0.0494698)
(0.00116518 0.560302 0.0322973)
(0.000554781 -0.41933 0.00433736)
(0.0032869 -0.613529 0.00404753)
(0.00614778 -0.664231 0.00292724)
(0.00866006 -0.679463 0.00233997)
(0.0111048 -0.681572 0.00208947)
(0.0134106 -0.674752 0.0020934)
(0.0154399 -0.65954 0.00227143)
(0.0171899 -0.63488 0.00242563)
(0.0187309 -0.598299 0.00200677)
(0.0201641 -0.547452 -0.000303824)
(0.0214896 -0.484591 -0.00622914)
(0.0224343 -0.418942 -0.0156238)
(0.0226907 -0.360475 -0.0255571)
(0.0223003 -0.313202 -0.0330224)
(0.0215394 -0.276057 -0.0369432)
(0.0206277 -0.246551 -0.0376408)
(0.0196577 -0.222371 -0.0357569)
(0.0186689 -0.201421 -0.03166)
(0.0177095 -0.181566 -0.0251843)
(0.0168551 -0.160466 -0.0155803)
(0.0162475 -0.135873 -0.00226711)
(0.0160024 -0.107255 0.012739)
(0.0159192 -0.0769987 0.0244541)
(0.0157201 -0.0479151 0.0299854)
(0.0153182 -0.02088 0.0306289)
(0.0147242 0.00455572 0.0293081)
(0.013977 0.0288873 0.0285104)
(0.0131059 0.0518493 0.0297541)
(0.0121738 0.0724211 0.0336714)
(0.011101 0.091066 0.0414325)
(0.010636 0.0965791 0.0509634)
(0.00815307 0.135714 0.0562299)
(0.00492546 0.398291 0.0608691)
(0.00378361 0.601894 0.0526684)
(0.00231216 0.55796 0.0340974)
(-0.000304146 -0.429033 0.00239122)
(0.00217652 -0.629979 -0.00476632)
(0.00539815 -0.680179 -0.0080089)
(0.00853882 -0.694307 -0.00946134)
(0.0117299 -0.695143 -0.0101686)
(0.0148015 -0.686752 -0.0103777)
(0.0175228 -0.669624 -0.0101118)
(0.0198149 -0.642824 -0.00931341)
(0.0216361 -0.604551 -0.00794407)
(0.023006 -0.553495 -0.00637798)
(0.0241306 -0.490827 -0.00623218)
(0.0252159 -0.42201 -0.00999338)
(0.0260482 -0.356293 -0.0180316)
(0.0262114 -0.301331 -0.0275238)
(0.0255864 -0.259061 -0.0352977)
(0.0243566 -0.227267 -0.0399207)
(0.0227668 -0.202691 -0.0413361)
(0.0210108 -0.182516 -0.0398425)
(0.0192329 -0.164456 -0.0354467)
(0.0175383 -0.14636 -0.0274839)
(0.0160199 -0.125942 -0.0145555)
(0.0148082 -0.101434 0.00388956)
(0.013888 -0.0736389 0.0239037)
(0.0130011 -0.0458102 0.038556)
(0.0120661 -0.0203765 0.0448283)
(0.0113183 0.0021229 0.0451614)
(0.0111609 0.0220062 0.0438229)
(0.0117006 0.0400781 0.043581)
(0.0130369 0.0557301 0.0456196)
(0.0154905 0.0655227 0.0496119)
(0.0175475 0.0681647 0.0534575)
(0.0189914 0.145625 0.0533994)
(0.0111982 0.392728 0.0565644)
(0.0075371 0.596185 0.053882)
(0.00226607 0.561876 0.0348778)
(-0.000427469 -0.428391 -0.00592905)
(0.00292506 -0.639349 -0.0134787)
(0.00679822 -0.693352 -0.0152574)
(0.0107255 -0.708136 -0.0159547)
(0.0147657 -0.708565 -0.0164228)
(0.0187442 -0.699129 -0.0168799)
(0.0223453 -0.68035 -0.017394)
(0.0254201 -0.651193 -0.0179582)
(0.0277856 -0.609929 -0.0184229)
(0.0292212 -0.556462 -0.0182864)
(0.0297725 -0.493974 -0.0170196)
(0.0299515 -0.426695 -0.0158014)
(0.0302337 -0.359445 -0.0175595)
(0.0305324 -0.298622 -0.0234742)
(0.0304957 -0.249039 -0.0315475)
(0.0299735 -0.211282 -0.0390145)
(0.0290351 -0.183048 -0.0443234)
(0.0278182 -0.161425 -0.0470952)
(0.0264696 -0.143954 -0.0473807)
(0.025145 -0.128665 -0.0450779)
(0.0239852 -0.113665 -0.0394157)
(0.0231176 -0.0967735 -0.0283279)
(0.0226857 -0.0760905 -0.00906997)
(0.0226235 -0.0524387 0.0167794)
(0.0225317 -0.0296979 0.0413673)
(0.0220891 -0.0100974 0.0581889)
(0.0214358 0.00518687 0.0642165)
(0.0215807 0.0154391 0.064021)
(0.0228947 0.0218885 0.0631885)
(0.0262466 0.0250769 0.062642)
(0.0270268 0.032509 0.0612698)
(0.0264363 0.143037 0.0561986)
(0.0122107 0.434091 0.05168)
(0.00543557 0.648002 0.0439614)
(0.00297002 0.595976 0.0251107)
(0.00129243 -0.440793 -0.0104718)
(0.00631405 -0.662623 -0.0129064)
(0.00991136 -0.71864 -0.01333)
(0.0131938 -0.732524 -0.0135826)
(0.016472 -0.731153 -0.0139144)
(0.0196665 -0.719203 -0.0144151)
(0.0224986 -0.697077 -0.015218)
(0.0248198 -0.663234 -0.0166217)
(0.0264333 -0.615133 -0.0191229)
(0.0270735 -0.553212 -0.0228082)
(0.0266815 -0.484427 -0.0261541)