/*--------------------------------*- C++ -*----------------------------------*\
| =========                 |                                                 |
| \\      /  F ield         | OpenFOAM: The Open Source CFD Toolbox           |
|  \\    /   O peration     | Version:  v2006                                 |
|   \\  /    A nd           | Website:  www.openfoam.com                      |
|    \\/     M anipulation  |                                                 |
\*---------------------------------------------------------------------------*/
FoamFile
{
    version     2.0;
    format      ascii;
    class       volScalarField;
    location    "38";
    object      omega;
}
// * * * * * * * * * * * * * * * * * * * * * * * * * * * * * * * * * * * * * //

dimensions      [0 0 -1 0 0 0 0];


internalField   nonuniform List<scalar> 
78750
(
354.384
13.7374
13.7458
13.747
13.7448
13.741
13.737
13.7336
13.7309
13.7289
13.7273
13.726
13.7248
13.7236
13.7222
13.7206
13.7186
13.7161
13.7132
13.7096
13.7055
13.7008
13.6954
13.6894
13.6828
13.6756
13.6681
13.6601
13.6521
13.6442
13.637
13.6325
13.6353
13.6519
356.918
519.888
4.20636
4.29712
4.35394
4.38614
4.40496
4.41751
4.42714
4.43509
4.44169
4.44696
4.45084
4.45326
4.45415
4.45348
4.45124
4.44741
4.442
4.43501
4.42646
4.41636
4.4047
4.39146
4.37662
4.36018
4.34216
4.32264
4.30173
4.2796
4.25667
4.23308
4.20852
4.18384
4.16242
524.169
519.905
4.18035
4.24587
4.29676
4.33722
4.37116
4.40139
4.42831
4.45187
4.47289
4.49162
4.50777
4.52136
4.53247
4.54117
4.54749
4.55143
4.55295
4.55198
4.54839
4.54206
4.5328
4.52038
4.50452
4.48492
4.46128
4.43341
4.4012
4.36459
4.32403
4.28168
4.24272
4.21379
4.19815
524.955
519.886
4.12028
4.15492
4.18309
4.20759
4.23298
4.26339
4.30004
4.34016
4.37936
4.4146
4.44558
4.47288
4.49669
4.51726
4.53478
4.54934
4.56101
4.56978
4.57562
4.57844
4.57813
4.57449
4.56732
4.55618
4.54021
4.5185
4.49046
4.45593
4.4153
4.36896
4.31974
4.27565
4.24467
525.452
519.881
4.10743
4.13887
4.168
4.19607
4.22512
4.25701
4.29208
4.32873
4.36525
4.40022
4.43227
4.46114
4.48726
4.51053
4.53071
4.54763
4.56117
4.57124
4.57778
4.58069
4.57988
4.57521
4.56657
4.55347
4.53493
4.51024
4.47985
4.44626
4.41293
4.37971
4.34566
4.31353
4.28794
526.045
519.878
4.09677
4.12263
4.1469
4.17057
4.19574
4.22491
4.25901
4.29752
4.33915
4.38188
4.42316
4.46067
4.49429
4.52442
4.55076
4.57317
4.59161
4.60607
4.6165
4.62282
4.62484
4.62233
4.61506
4.60243
4.58308
4.55581
4.52059
4.48001
4.4407
4.40566
4.37384
4.34478
4.31928
526.418
519.877
4.09205
4.11636
4.14076
4.16678
4.19629
4.23043
4.26909
4.31121
4.35494
4.39785
4.43742
4.47288
4.50459
4.53256
4.55675
4.57719
4.59396
4.60711
4.61661
4.62234
4.62408
4.62147
4.61409
4.60088
4.58003
4.55037
4.51261
4.47191
4.43708
4.41008
4.38861
4.36907
4.34962
526.867
519.877
4.09041
4.11528
4.14215
4.17248
4.2074
4.24698
4.2904
4.33609
4.38197
4.42579
4.46569
4.50145
4.53348
4.56166
4.58599
4.6065
4.62327
4.63633
4.64569
4.65127
4.65291
4.65032
4.64311
4.63032
4.61
4.58044
4.54128
4.49665
4.45736
4.4278
4.40705
4.39031
4.37304
527.177
519.879
4.09719
4.12903
4.16454
4.20463
4.24914
4.29695
4.34617
4.39453
4.43968
4.47999
4.51578
4.54768
4.57567
4.59979
4.62014
4.63681
4.64985
4.6593
4.6651
4.66716
4.66528
4.65922
4.6484
4.63154
4.60707
4.57407
4.53373
4.49275
4.45991
4.43726
4.42298
4.41147
4.39802
527.52
519.881
4.10713
4.14744
4.19125
4.2385
4.28816
4.33858
4.3879
4.43437
4.47666
4.51481
4.54938
4.58044
4.60792
4.6318
4.65209
4.66879
4.6819
4.6914
4.69717
4.69908
4.69687
4.69025
4.67851
4.66013
4.63349
4.59752
4.55342
4.50855
4.47342
4.45068
4.43849
4.42999
4.41906
527.784
519.885
4.11747
4.16535
4.21578
4.26829
4.32177
4.37471
4.4255
4.4725
4.51493
4.5532
4.5876
4.61793
4.64414
4.66625
4.68433
4.6985
4.70885
4.71545
4.71829
4.71728
4.71227
4.70283
4.688
4.66633
4.63653
4.59817
4.55386
4.51288
4.48235
4.46385
4.45529
4.44972
4.44118
528.054
519.888
4.12706
4.18176
4.23872
4.29743
4.35664
4.41461
4.4694
4.51922
4.5637
4.60335
4.63827
4.6684
4.69381
4.71465
4.73115
4.74352
4.75192
4.75649
4.75724
4.75409
4.74687
4.73504
4.71742
4.69251
4.65889
4.61625
4.5679
4.52481
4.49415
4.47722
4.47114
4.46793
4.46123
528.283
519.892
4.13799
4.2016
4.26824
4.33659
4.40432
4.46875
4.52742
4.57871
4.62318
4.66172
4.69451
4.72176
4.74382
4.76104
4.77379
4.78241
4.78717
4.78825
4.78572
4.77956
4.76953
4.75488
4.7344
4.70671
4.6705
4.62581
4.57696
4.53576
4.50704
4.49217
4.4882
4.48682
4.48172
528.507
519.896
4.15418
4.23039
4.30876
4.38665
4.46079
4.52836
4.58757
4.63788
4.68063
4.71705
4.74751
4.77241
4.79214
4.80709
4.81762
4.82402
4.82655
4.82534
4.82047
4.81191
4.79925
4.78166
4.75809
4.72727
4.688
4.64067
4.59054
4.5497
4.52187
4.50816
4.5055
4.50531
4.50126
528.704
519.9
4.16963
4.2564
4.34304
4.42653
4.50388
4.57291
4.63259
4.6829
4.72527
4.76104
4.79067
4.81453
4.83301
4.84648
4.8553
4.85978
4.86018
4.8567
4.84945
4.83825
4.82262
4.80193
4.77527
4.74151
4.69981
4.65113
4.60211
4.56338
4.53744
4.52527
4.52377
4.52444
4.52114
528.895
519.905
4.18447
4.28103
4.37576
4.46576
4.54821
4.62108
4.68348
4.73561
4.77883
4.81463
4.8438
4.86674
4.8839
4.8957
4.90254
4.90478
4.9027
4.8965
4.88621
4.87156
4.85224
4.8277
4.79716
4.75969
4.71487
4.66441
4.61621
4.5791
4.55465
4.54348
4.54252
4.54353
4.54062
529.067
519.909
4.19807
4.30439
4.40824
4.50615
4.59472
4.67163
4.73622
4.78919
4.83223
4.86714
4.89495
4.91621
4.93146
4.94118
4.94582
4.94575
4.94123
4.93235
4.91905
4.90114
4.87832
4.85009
4.81574
4.77455
4.72663
4.67482
4.62863
4.59416
4.57211
4.56253
4.56221
4.56337
4.56058
529.233
519.914
4.21559
4.33436
4.44909
4.55532
4.64914
4.72855
4.79373
4.84633
4.88833
4.92178
4.94794
4.96744
4.98085
4.98867
4.99133
4.98913
4.98223
4.97067
4.95438
4.93322
4.9069
4.87494
4.83672
4.79177
4.74072
4.68749
4.64286
4.61059
4.59056
4.58222
4.58225
4.5833
4.58025
529.386
519.919
4.23353
4.3642
4.48841
4.60111
4.69848
4.77921
4.84445
4.89657
4.93793
4.97049
4.99555
5.01387
5.02602
5.0325
5.03366
5.02968
5.02068
5.00667
4.98759
4.9633
4.9335
4.89774
4.85546
4.80653
4.75228
4.69807
4.65561
4.62629
4.60906
4.60253
4.60305
4.60383
4.60016
529.535
519.925
4.25282
4.39553
4.52901
4.64797
4.74886
4.83112
4.89676
4.94877
4.98981
5.02179
5.04602
5.06339
5.0745
5.07975
5.0794
5.07361
5.06249
5.04603
5.02414
4.99671
4.96343
4.92382
4.87744
4.82442
4.7668
4.71135
4.67005
4.64284
4.62789
4.62297
4.62395
4.62436
4.61983
529.672
519.931
4.27103
4.42493
4.56718
4.69213
4.79643
4.8802
4.94623
4.9981
5.03873
5.07016
5.09373
5.1103
5.12044
5.12451
5.12275
5.11533
5.1023
5.08359
5.05912
5.02874
4.99211
4.94874
4.89825
4.84111
4.78024
4.7241
4.68416
4.65935
4.647
4.64391
4.64541
4.64538
4.63977
529.805
519.938
4.29084
4.45663
4.60795
4.7388
4.84617
4.93104
4.99717
5.04871
5.08883
5.11964
5.14248
5.15819
5.16733
5.17024
5.16713
5.15814
5.14331
5.12249
5.09563
5.06254
5.02285
4.97601
4.92167
4.86059
4.79643
4.73926
4.69982
4.67659
4.6663
4.66486
4.66691
4.6665
4.65976
529.928
519.944
4.31015
4.48708
4.64664
4.78269
4.89268
4.97851
5.04481
5.09619
5.136
5.1664
5.18872
5.20377
5.21207
5.21394
5.20958
5.19911
5.18256
5.1597
5.13051
5.09479
5.05211
5.00187
4.9438
4.87893
4.81185
4.75431
4.7158
4.69442
4.68627
4.68643
4.68899
4.68813
4.68013
530.047
519.952
4.33023
4.51836
4.6861
4.82728
4.93987
5.02676
5.09335
5.14472
5.18436
5.21444
5.23628
5.25068
5.25811
5.2589
5.25325
5.24126
5.22294
5.19811
5.1667
5.12849
5.08298
5.02952
4.96782
4.89915
4.82893
4.77055
4.73253
4.71268
4.7065
4.70819
4.71127
4.70998
4.70069
530.159
519.959
4.34947
4.54808
4.72349
4.8695
4.98463
5.07265
5.13973
5.19128
5.23093
5.26086
5.28234
5.29614
5.30274
5.30243
5.29543
5.28185
5.26166
5.23475
5.20109
5.1604
5.11211
5.0555
4.99028
4.91801
4.84498
4.78627
4.74918
4.73127
4.72731
4.73062
4.73416
4.73232
4.72155
530.271
519.966
4.36948
4.57867
4.76171
4.91245
5.03007
5.11927
5.18697
5.23891
5.27878
5.30873
5.33001
5.34333
5.34914
5.34774
5.33934
5.32407
5.3019
5.27281
5.23679
5.19353
5.1424
5.08258
5.01372
4.93761
4.86138
4.80181
4.76536
4.74945
4.74797
4.75312
4.7572
4.7548
4.74236
530.385
519.974
4.38871
4.60766
4.79771
4.95286
5.07294
5.16354
5.23219
5.2849
5.32537
5.35571
5.37709
5.39018
5.39539
5.39299
5.38322
5.3662
5.34199
5.31064
5.27217
5.22628
5.17227
5.10924
5.03679
4.95683
4.87733
4.81667
4.78067
4.76686
4.76827
4.77566
4.78044
4.7774
4.763
530.504
519.982
4.40811
4.63662
4.83356
4.99312
5.11577
5.20794
5.27781
5.3316
5.37301
5.40408
5.42588
5.43903
5.44388
5.44067
5.42963
5.4109
5.38467
5.35104
5.31007
5.26147
5.20453
5.13827
5.06218
4.97823
4.895
4.83217
4.79544
4.78301
4.78729
4.79732
4.80317
4.79961
4.78311
530.627
519.991
4.42669
4.66409
4.86747
5.03115
5.15623
5.25003
5.32128
5.37639
5.41903
5.45115
5.47375
5.48733
5.4922
5.48855
5.47658
5.45644
5.42842
5.3927
5.34939
5.29826
5.23858
5.16935
5.08997
5.00236
4.91547
4.84966
4.81073
4.79833
4.80493
4.81783
4.82517
4.82131
4.80273
530.754
520
4.44578
4.69193
4.90147
5.06894
5.19618
5.29144
5.36406
5.42057
5.46459
5.49797
5.52162
5.53597
5.54124
5.53755
5.52505
5.50391
5.47447
5.43696
5.39158
5.33813
5.27599
5.20418
5.12208
5.03148
4.94134
4.87176
4.82867
4.81382
4.82109
4.83653
4.84583
4.84224
4.822
530.878
520.009
4.46431
4.7185
4.93358
5.10436
5.23346
5.33008
5.40404
5.46196
5.50742
5.54218
5.56707
5.58245
5.58846
5.58518
5.57264
5.55106
5.52078
5.48201
5.435
5.37966
5.31544
5.24152
5.1574
5.06491
4.97292
4.90009
4.85178
4.83194
4.83726
4.85398
4.86527
4.86242
4.8413
530.997
520.018
4.48346
4.74554
4.96585
5.13956
5.27019
5.36793
5.44306
5.50228
5.54907
5.58513
5.61123
5.62769
5.63458
5.6319
5.61965
5.59801
5.56732
5.52774
5.47954
5.42266
5.3567
5.28105
5.1955
5.10216
5.00997
4.9353
4.882
4.85529
4.85552
4.87123
4.8839
4.88248
4.86103
531.103
520.028
4.50233
4.77164
4.9966
5.1728
5.30474
5.4035
5.47975
5.5402
5.58825
5.62555
5.65281
5.67031
5.67809
5.67612
5.6643
5.64285
5.61203
5.57194
5.5228
5.46458
5.397
5.31969
5.23294
5.13957
5.04913
4.97527
4.91939
4.88611
4.87893
4.8906
4.90335
4.90302
4.88133
531.197
520.039
4.52169
4.79798
5.02734
5.20585
5.33895
5.43865
5.51596
5.57753
5.62672
5.6651
5.69335
5.71174
5.72028
5.7189
5.70749
5.68623
5.65533
5.61475
5.56464
5.50492
5.43539
5.35593
5.26744
5.17389
5.08629
5.01583
4.96105
4.92408
4.90949
4.91478
4.92546
4.92483
4.902
531.278
520.05
4.54059
4.82327
5.05667
5.2373
5.37153
5.47218
5.55052
5.61318
5.66343
5.7028
5.73194
5.7511
5.76029
5.75942
5.74839
5.72736
5.69639
5.65532
5.60413
5.54264
5.47061
5.38809
5.29668
5.20192
5.11726
5.05212
5.00235
4.96624
4.9469
4.94526
4.95167
4.94848
4.92231
531.358
520.061
4.5596
4.84851
5.08587
5.26854
5.40385
5.50539
5.58469
5.64835
5.69954
5.73975
5.76965
5.78947
5.79923
5.7988
5.78815
5.76737
5.73641
5.69489
5.64258
5.57909
5.50401
5.41743
5.32149
5.22348
5.14023
5.08045
5.03825
5.0076
4.98789
4.98094
4.98193
4.97377
4.94125
531.444
520.073
4.57782
4.87255
5.11363
5.29826
5.43462
5.53705
5.61728
5.68184
5.73388
5.77485
5.80544
5.82589
5.83624
5.83637
5.8263
5.80607
5.77547
5.73391
5.68087
5.61566
5.53757
5.44648
5.34476
5.24129
5.15673
5.10029
5.06594
5.04388
5.02821
5.01891
5.01453
4.9995
4.95777
531.543
520.084
4.59566
4.89614
5.14091
5.32748
5.46488
5.56816
5.64922
5.71454
5.76723
5.80878
5.83991
5.86092
5.8719
5.87272
5.86353
5.84432
5.81471
5.77388
5.721
5.65504
5.57487
5.47993
5.37234
5.2617
5.17201
5.11435
5.08535
5.07261
5.06413
5.05567
5.04703
5.02445
4.97206
531.653
520.095
4.6125
4.91844
5.16673
5.3552
5.49369
5.59787
5.67969
5.74555
5.79865
5.84057
5.8721
5.89361
5.90526
5.90702
5.89913
5.88155
5.85378
5.81478
5.76343
5.69838
5.61805
5.52133
5.40957
5.29189
5.19369
5.1281
5.09791
5.0921
5.09262
5.0886
5.07749
5.04816
4.98563
531.766
520.105
4.6289
4.94023
5.192
5.38237
5.52203
5.62729
5.70982
5.77579
5.82883
5.87076
5.90244
5.9243
5.93656
5.9394
5.93312
5.91766
5.89246
5.85633
5.80802
5.74584
5.6678
5.57232
5.4598
5.33784
5.23038
5.15085
5.10994
5.10368
5.11167
5.11469
5.10428
5.07075
5.00045
531.873
520.115
4.64469
4.96115
5.2161
5.40818
5.54899
5.65522
5.73817
5.80415
5.8567
5.89832
5.92992
5.95198
5.96479
5.96876
5.96429
5.95135
5.92933
5.89693
5.85276
5.79503
5.7217
5.63073
5.52172
5.40057
5.28705
5.19194
5.13178
5.11404
5.1231
5.13309
5.12647
5.09221
5.01757
531.97
520.124
4.66059
4.98197
5.23981
5.43333
5.57516
5.68167
5.76466
5.83045
5.88249
5.92349
5.95471
5.9767
5.9898
5.99472
5.99199
5.98164
5.96307
5.93491
5.8957
5.84354
5.77633
5.69216
5.59062
5.476
5.36234
5.25572
5.17354
5.13394
5.1335
5.14615
5.14445
5.1125
5.03683
532.054
520.134
4.6765
5.0024
5.26276
5.45738
5.59983
5.7064
5.78921
5.85457
5.90588
5.9458
5.97618
5.99763
6.01065
6.01617
6.01489
6.00697
5.99182
5.96804
5.93411
5.88808
5.82788
5.75173
5.65945
5.55574
5.44837
5.33809
5.23858
5.17296
5.15239
5.15943
5.16042
5.13185
5.05725
532.121
520.145
4.69287
5.02301
5.28569
5.48135
5.62383
5.73003
5.8123
5.87686
5.92706
5.96552
5.99461
6.01499
6.02739
6.03297
6.03262
6.02666
6.01461
5.99504
5.96634
5.9265
5.87348
5.80577
5.72378
5.63266
5.53551
5.42944
5.32161
5.23394
5.18789
5.18023
5.17846
5.15152
5.07787
532.177
520.156
4.70927
5.0432
5.30789
5.50438
5.64643
5.75197
5.83346
5.89701
5.94584
5.98251
6.00985
6.02856
6.03966
6.04454
6.04438
6.03973
6.03028
6.0146
5.99097
5.9572
5.91119
5.85176
5.78009
5.70207
5.61687
5.5193
5.41202
5.31124
5.24201
5.21433
5.20329
5.17364
5.09804
532.231
520.169
4.72597
5.06339
5.3297
5.52663
5.66806
5.77282
5.8534
5.91575
5.96302
5.9977
6.02271
6.03906
6.04804
6.0513
6.05037
6.04617
6.03867
6.02652
6.00783
5.98011
5.94106
5.8897
5.8281
5.76232
5.6888
5.60152
5.49985
5.39479
5.30932
5.2619
5.23699
5.19954
5.11737
532.295
520.181
4.74268
5.0833
5.35091
5.54789
5.68839
5.79212
5.87159
5.93257
5.9781
6.01059
6.03291
6.04639
6.0525
6.0532
6.05043
6.04566
6.03935
6.03038
6.01673
5.99548
5.96392
5.92105
5.86971
5.81475
5.75114
5.67335
5.57947
5.47624
5.38234
5.31904
5.27866
5.22931
5.13602
532.381
520.195
4.75945
5.10297
5.37154
5.56811
5.70742
5.81004
5.88837
5.94795
5.99167
6.02183
6.04126
6.05145
6.05399
6.05111
6.04527
6.03868
6.03254
6.02627
6.0179
6.00397
5.98108
5.94796
5.90777
5.86235
5.80635
5.73566
5.6488
5.55006
5.45353
5.37976
5.32491
5.26162
5.15393
532.488
520.208
4.7757
5.12175
5.3912
5.58679
5.72478
5.82632
5.90359
5.9619
6.00392
6.03184
6.04834
6.05498
6.05333
6.04586
6.03559
6.0256
6.01824
6.0139
6.01099
6.00557
5.99329
5.97215
5.94462
5.90834
5.85815
5.79182
5.70969
5.61554
5.51999
5.43978
5.37267
5.2951
5.17169
532.611
520.222
4.79141
5.13953
5.40956
5.60393
5.74064
5.84123
5.91764
5.97489
6.01546
6.04135
6.0551
6.05815
6.05192
6.03899
6.02287
6.00761
5.99705
5.99319
5.99543
5.99966
6.00034
5.99425
5.98135
5.9549
5.90986
5.84579
5.76558
5.6743
5.58086
5.49643
5.41943
5.32874
5.19008
532.74
520.235
4.80599
5.15552
5.42572
5.61892
5.75455
5.85446
5.9303
5.98684
6.02634
6.05065
6.06205
6.06177
6.05089
6.03192
6.00869
5.98616
5.96988
5.96415
5.97034
5.98474
6.00066
6.01306
6.01695
6.00203
5.96301
5.90055
5.82
5.72895
5.63642
5.54861
5.4637
5.36164
5.20899
532.865
520.248
4.81957
5.17012
5.4403
5.63234
5.76706
5.86651
5.94208
5.99827
6.03718
6.06044
6.07011
6.06704
6.0518
6.02662
5.99538
5.96366
5.9387
5.92772
5.93524
5.95908
5.99164
6.0253
6.04818
6.04714
6.01626
5.95648
5.87486
5.78175
5.68802
5.59645
5.50478
5.39285
5.22736
532.981
520.26
4.83174
5.18274
5.45266
5.64366
5.77772
5.87703
5.95268
6.00898
6.04788
6.07083
6.07961
6.07463
6.05581
6.0249
5.98542
5.94314
5.90659
5.88614
5.89079
5.92162
5.97088
6.02738
6.07117
6.08651
6.06652
6.0118
5.93008
5.83405
5.73716
5.64074
5.54253
5.4215
5.24375
533.083
520.272
4.84232
5.19339
5.46296
5.65312
5.7868
5.88625
5.96234
6.0192
6.05868
6.08209
6.09096
6.08519
6.06401
6.02849
5.98147
5.92824
5.87782
5.84333
5.83929
5.87241
5.93655
6.01601
6.08208
6.11599
6.10971
6.06306
5.98353
5.88516
5.78442
5.68228
5.57725
5.44718
5.2571
533.167
520.283
4.85103
5.20186
5.47106
5.66059
5.79416
5.89403
5.97088
6.02874
6.0694
6.09406
6.1041
6.09889
6.07696
6.03862
5.98575
5.92258
5.85745
5.80494
5.78517
5.81318
5.88768
5.98851
6.07755
6.13191
6.14197
6.10661
6.03263
5.93466
5.83007
5.72177
5.60948
5.46992
5.26712
533.236
520.292
4.85776
5.20817
5.47704
5.66622
5.79993
5.90045
5.97834
6.03759
6.07994
6.10661
6.11888
6.11567
6.09494
6.05617
6.00017
5.92958
5.85087
5.7781
5.73551
5.74807
5.82439
5.94263
6.05454
6.13099
6.15986
6.13898
6.07424
5.98011
5.87324
5.75946
5.63989
5.49044
5.27454
533.29
520.3
4.86233
5.21235
5.48097
5.67
5.80405
5.90539
5.98454
6.04547
6.08997
6.11928
6.13466
6.13463
6.11675
6.07991
6.02391
5.94981
5.86168
5.77049
5.70024
5.6852
5.74972
5.87765
6.01091
6.11087
6.16102
6.15768
6.10575
6.01901
5.91254
5.79494
5.66877
5.50947
5.28054
533.334
520.305
4.86501
5.21472
5.4832
5.67226
5.80679
5.90907
5.98958
6.05234
6.09919
6.13151
6.15063
6.15482
6.14144
6.10895
6.05627
5.98303
5.8907
5.78608
5.68919
5.63748
5.67181
5.79539
5.9451
6.06928
6.14328
6.16063
6.12509
6.04947
5.94689
5.82809
5.69684
5.52848
5.28702
533.374
520.308
4.86604
5.21548
5.48389
5.67314
5.80821
5.91145
5.99335
6.05796
6.10727
6.14278
6.16601
6.17508
6.16736
6.14113
6.09475
6.02675
5.93646
5.82639
5.70956
5.61903
5.60661
5.70398
5.85826
6.00479
6.10502
6.14639
6.13075
6.06982
5.9748
5.85793
5.72399
5.54842
5.29585
533.41
520.309
4.86583
5.21506
5.4835
5.67304
5.80869
5.91283
5.99602
6.0624
6.11406
6.1527
6.18007
6.19422
6.19277
6.17403
6.13611
6.07683
5.9941
5.88718
5.76196
5.64118
5.57482
5.62095
5.75759
5.91819
6.04524
6.1141
6.12226
6.07981
5.99614
5.88454
5.75082
5.57077
5.30904
533.441
520.309
4.86498
5.21404
5.48253
5.67237
5.80852
5.91342
5.99772
6.06563
6.11936
6.1608
6.19199
6.21108
6.21594
6.20514
6.1768
6.12842
6.05709
5.96017
5.8384
5.70342
5.59251
5.57196
5.66132
5.81573
5.9648
6.06305
6.09857
6.0784
6.01001
5.90724
5.77703
5.59568
5.32702
533.466
520.309
4.86409
5.21298
5.4815
5.67155
5.80803
5.9135
5.99865
6.06777
6.12321
6.16703
6.20146
6.22476
6.23543
6.2324
6.2138
6.17711
6.11914
6.03631
5.92651
5.79336
5.65855
5.57767
5.59806
5.71519
5.86899
5.9944
6.06027
6.06586
6.01621
5.92553
5.80208
5.62277
5.34959
533.486
520.309
4.86354
5.21219
5.4807
5.67077
5.80738
5.91315
5.99885
6.06882
6.12551
6.17118
6.20819
6.23501
6.25059
6.25421
6.2446
6.21948
6.17536
6.10832
6.01505
5.89477
5.75725
5.63962
5.59234
5.64509
5.77419
5.91275
6.00749
6.04216
6.01488
5.93931
5.82534
5.65095
5.37565
533.5
520.31
4.8638
5.21217
5.4805
5.67033
5.8068
5.91259
5.99849
6.06888
6.1263
6.1732
6.21202
6.24147
6.26096
6.27019
6.26823
6.25316
6.22205
6.17103
6.0959
5.99402
5.86842
5.74037
5.64772
5.63064
5.7058
5.83217
5.94513
6.00745
6.00497
5.94747
5.84581
5.67917
5.40409
533.51
520.312
4.86501
5.213
5.4809
5.67022
5.80627
5.9118
5.99757
6.06798
6.12564
6.17315
6.21302
6.24417
6.26642
6.2799
6.28417
6.27777
6.25807
6.22137
6.16397
6.08255
5.97621
5.85671
5.74646
5.67715
5.6867
5.77326
5.88442
5.96658
5.98782
5.94959
5.86212
5.70558
5.4327
533.518
520.315
4.86728
5.21466
5.48192
5.67042
5.80577
5.91076
5.99608
6.06613
6.12356
6.17108
6.2113
6.24322
6.26703
6.2833
6.29209
6.29255
6.2826
6.25887
6.21773
6.15566
6.07137
5.97108
5.86438
5.76917
5.72349
5.75477
5.84099
5.92829
5.96773
5.9474
5.87423
5.72881
5.45957
533.528
520.319
4.87053
5.21708
5.48347
5.67086
5.80526
5.90945
5.99406
6.06342
6.12023
6.16729
6.2072
6.23903
6.26327
6.28083
6.29234
6.29762
6.29535
6.28273
6.25647
6.21303
6.15056
6.07312
5.98241
5.88347
5.80428
5.78266
5.82759
5.90241
5.95023
5.94354
5.88289
5.74817
5.48332
533.541
520.324
4.87461
5.2201
5.48535
5.67135
5.80455
5.90774
5.99141
6.05982
6.1157
6.16191
6.20101
6.23205
6.25569
6.27316
6.28559
6.29359
6.29672
6.29309
6.28001
6.25414
6.21342
6.16022
6.08995
6.00128
5.91002
5.85028
5.85013
5.89788
5.94184
5.94199
5.89021
5.76431
5.50369
533.56
520.33
4.8793
5.22349
5.48737
5.67174
5.80356
5.90557
5.9881
6.05537
6.11009
6.15517
6.19309
6.22277
6.24495
6.26107
6.2727
6.28122
6.28729
6.29024
6.28839
6.27894
6.25971
6.23104
6.1836
6.11165
6.02273
5.94284
5.90496
5.91894
5.94791
5.94672
5.89876
5.77849
5.52092
533.589
520.338
4.88458
5.22725
5.48951
5.67203
5.80228
5.90295
5.9842
6.05017
6.1036
6.14743
6.18394
6.21193
6.23205
6.24579
6.25507
6.26198
6.26839
6.27516
6.28225
6.28787
6.28998
6.28563
6.26187
6.2101
6.13204
6.04562
5.98232
5.96413
5.97119
5.96102
5.91123
5.79237
5.53552
533.631
520.346
4.89025
5.23117
5.49153
5.67199
5.80052
5.89973
5.97957
6.04415
6.09622
6.13875
6.17381
6.19999
6.21771
6.22835
6.23398
6.23729
6.24134
6.24886
6.26203
6.28093
6.304
6.32382
6.32429
6.29452
6.2323
6.14903
6.07143
6.02728
6.01034
5.98574
5.92912
5.80731
5.54852
533.688
520.354
4.89639
5.23544
5.49359
5.67179
5.79847
5.89608
5.97442
6.03754
6.08826
6.12957
6.16329
6.18776
6.20305
6.21025
6.21133
6.20933
6.20833
6.21309
6.22873
6.25823
6.30123
6.34515
6.3706
6.3644
6.32139
6.248
6.16558
6.10291
6.06297
6.02085
5.95361
5.82522
5.56204
533.757
520.364
4.90255
5.23958
5.49529
5.67115
5.79592
5.89186
5.9686
6.03022
6.07964
6.11989
6.15251
6.17561
6.18879
6.19264
6.18881
6.18031
6.17192
6.17028
6.18393
6.22007
6.28064
6.34795
6.39897
6.41773
6.39656
6.33805
6.25858
6.18523
6.12571
6.06521
5.98485
5.84685
5.57682
533.844
520.374
4.90834
5.24322
5.49664
5.67027
5.79311
5.8873
5.96236
6.02246
6.07065
6.11007
6.14197
6.16422
6.17591
6.17699
6.1685
6.15307
6.13564
6.12423
6.13091
6.16835
6.24244
6.33122
6.40758
6.4521
6.45461
6.41468
6.34441
6.26837
6.19445
6.11681
6.02198
5.87148
5.59128
533.956
520.385
4.91335
5.24624
5.49755
5.66904
5.78994
5.88231
5.95563
6.01417
6.06122
6.10007
6.1317
6.15382
6.165
6.16445
6.15237
6.13063
6.1037
6.08011
6.07487
6.10696
6.1884
6.29495
6.39525
6.46546
6.49262
6.47409
6.41896
6.34636
6.26374
6.17193
6.06246
5.89677
5.60251
534.099
520.394
4.91728
5.24851
5.49804
5.66756
5.78659
5.8771
5.9486
6.00556
6.05153
6.09003
6.12187
6.14469
6.15661
6.15606
6.14229
6.11609
6.08083
6.04446
6.02339
6.04252
6.12233
6.24025
6.36162
6.45682
6.50903
6.51352
6.47727
6.41279
6.32695
6.22507
6.10209
5.91958
5.60853
534.263
520.401
4.91991
5.24999
5.49812
5.66591
5.78313
5.87178
5.94141
5.99672
6.04161
6.07993
6.11238
6.13672
6.15072
6.15212
6.1392
6.11155
6.07102
6.02382
5.9856
5.98469
6.05086
6.16952
6.30636
6.42506
6.50256
6.53112
6.51593
6.46303
6.37875
6.27121
6.13714
5.93828
5.61062
534.432
520.405
4.92154
5.25103
5.49812
5.66441
5.77991
5.86668
5.93438
5.98793
6.03163
6.06976
6.1031
6.12959
6.14682
6.15202
6.14266
6.11715
6.07573
6.02226
5.96947
5.94498
5.98511
6.08907
6.23081
6.36945
6.47269
6.52683
6.53435
6.4956
6.41681
6.30782
6.16617
5.95397
5.61275
534.584
520.408
4.92254
5.25191
5.49825
5.66324
5.77712
5.86202
5.9277
5.97933
6.02161
6.05935
6.09363
6.12259
6.1438
6.15419
6.15066
6.1307
6.09314
6.03952
5.97862
5.93336
5.94054
6.01309
6.14231
6.29154
6.41916
6.50141
6.53308
6.51117
6.44161
6.33529
6.19046
5.96984
5.6194
534.706
520.41
4.92355
5.25315
5.49892
5.66274
5.77508
5.85813
5.92171
5.97125
6.01187
6.0489
6.08384
6.11514
6.14048
6.1567
6.1604
6.14844
6.11863
6.07071
6.00987
5.95269
5.93011
5.96154
6.05805
6.1999
6.34385
6.45355
6.51171
6.51012
6.45375
6.35431
6.21107
5.9876
5.63214
534.794
520.411
4.92505
5.25505
5.50029
5.66297
5.7738
5.85498
5.91639
5.96365
6.00232
6.03826
6.0734
6.10659
6.1357
6.15771
6.1691
6.16644
6.14691
6.10905
6.05556
5.99757
5.95657
5.94994
6.00063
6.11277
6.25601
6.38622
6.47118
6.49308
6.45379
6.36523
6.22811
6.00685
5.64979
534.852
520.413
4.92737
5.25781
5.50242
5.6639
5.77321
5.85252
5.91168
5.9565
5.99291
6.02733
6.0621
6.09649
6.12865
6.15577
6.17447
6.18126
6.17301
6.14757
6.10613
6.05604
6.01067
5.97933
5.98604
6.05265
6.17261
6.30826
6.41513
6.46135
6.44195
6.36759
6.24033
6.02538
5.66937
534.882
520.415
4.9307
5.26145
5.50519
5.66532
5.77307
5.8505
5.90737
5.94964
5.98356
6.01611
6.04996
6.08478
6.11904
6.15025
6.1753
6.19087
6.19381
6.18165
6.15476
6.11827
6.07862
6.03835
6.0144
6.03454
6.11401
6.23446
6.35158
6.41869
6.41952
6.36109
6.24612
6.0403
5.68736
534.894
520.419
4.93502
5.26579
5.50835
5.66691
5.773
5.84854
5.90313
5.94279
5.97411
6.00452
6.03695
6.07143
6.10678
6.14085
6.17094
6.1941
6.20738
6.20832
6.19692
6.177
6.14942
6.11179
6.07364
6.05836
6.09291
6.18123
6.29241
6.37168
6.38977
6.34689
6.24505
6.04989
5.70116
534.887
520.424
4.94009
5.27055
5.51158
5.66831
5.77263
5.84623
5.89854
5.9356
5.96431
5.99248
6.02314
6.05665
6.09213
6.12782
6.16151
6.19076
6.21308
6.22627
6.23031
6.22814
6.21609
6.18851
6.14881
6.11362
6.11029
6.15904
6.24937
6.32882
6.35765
6.32728
6.23734
6.0527
5.70878
534.868
520.43
4.94569
5.27555
5.5147
5.66932
5.77167
5.84324
5.89324
5.92775
5.95388
5.97985
6.00855
6.04058
6.07536
6.11152
6.14735
6.18106
6.21083
6.235
6.25386
6.26945
6.27445
6.26113
6.22853
6.18654
6.15818
6.17002
6.23026
6.2982
6.32952
6.30689
6.22605
6.05042
5.7112
534.838
520.437
4.9517
5.28073
5.51772
5.66992
5.77007
5.83944
5.88706
5.91906
5.94275
5.96662
5.9933
6.02357
6.05707
6.09274
6.12937
6.1659
6.20136
6.23495
6.26755
6.30006
6.32236
6.32534
6.30514
6.26618
6.22528
6.20904
6.23706
6.28459
6.30969
6.28884
6.21316
6.04408
5.70904
534.807
520.444
4.958
5.28609
5.52067
5.67017
5.76783
5.83476
5.87982
5.90926
5.93063
5.95257
5.97733
6.00578
6.03765
6.07213
6.10847
6.1463
6.18565
6.22683
6.27172
6.31964
6.35859
6.37848
6.37348
6.34412
6.30127
6.26766
6.26795
6.2912
6.30314
6.27813
6.20315
6.03728
5.70483
534.779
520.451
4.96457
5.2917
5.52373
5.67029
5.7652
5.82941
5.8717
5.89851
5.91766
5.93784
5.96089
5.98767
6.01788
6.0508
6.08602
6.12384
6.16532
6.21211
6.26737
6.32869
6.38296
6.41934
6.43062
6.4146
6.37738
6.33649
6.31657
6.31592
6.31022
6.2759
6.19715
6.03078
5.69903
534.766
520.459
4.9712
5.29745
5.52687
5.67033
5.76227
5.8235
5.86274
5.88674
5.90379
5.92219
5.94378
5.9692
5.998
6.02937
6.0631
6.10001
6.14214
6.19257
6.25602
6.32835
6.39605
6.44773
6.47515
6.47425
6.44764
6.40793
6.37687
6.35671
6.33228
6.28535
6.19914
6.02852
5.69461
534.769
520.466
4.97784
5.30334
5.53015
5.67044
5.75926
5.81728
5.85322
5.87418
5.889
5.90575
5.92616
5.95066
5.97848
6.00865
6.04094
6.07651
6.11823
6.17057
6.2399
6.32058
6.39931
6.4644
6.5068
6.52104
6.50723
6.47408
6.4395
6.40579
6.36461
6.30391
6.20775
6.02981
5.69126
534.799
520.473
4.9843
5.30918
5.53342
5.67051
5.75611
5.81075
5.84315
5.86083
5.87329
5.88839
5.90786
5.93187
5.95931
5.98888
6.02021
6.05456
6.09538
6.14838
6.22145
6.30781
6.39495
6.4713
6.52719
6.55605
6.55619
6.53345
6.50064
6.45918
6.40498
6.33154
6.22451
6.03712
5.69168
534.848
520.479
4.99058
5.31498
5.53672
5.67061
5.75293
5.80404
5.8327
5.84688
5.85678
5.87021
5.88892
5.91284
5.9405
5.97025
6.00138
6.03511
6.07517
6.12818
6.20313
6.29255
6.3853
6.47038
6.5378
6.58004
6.59394
6.58305
6.55519
6.5104
6.44713
6.36308
6.24564
6.04819
5.69519
534.92
520.485
4.99668
5.3207
5.53997
5.67068
5.74965
5.79709
5.82177
5.83218
5.8393
5.85096
5.86901
5.89318
5.92165
5.95235
5.98423
6.01829
6.05831
6.11148
6.18705
6.27737
6.37311
6.46438
6.54127
6.59552
6.62269
6.62436
6.60365
6.55914
6.49064
6.39874
6.27241
6.06557
5.70472
535.002
520.49
5.00266
5.32634
5.5432
5.67077
5.74636
5.79
5.81049
5.81685
5.82089
5.8306
5.848
5.87264
5.90236
5.9347
5.96826
6.00374
6.0448
6.09889
6.17443
6.26416
6.36062
6.45549
6.5394
6.60367
6.64271
6.65642
6.64373
6.60184
6.53116
6.43407
6.30082
6.08606
5.71808
535.098
520.495
5.00864
5.33194
5.54642
5.67091
5.74311
5.78283
5.79888
5.80086
5.80145
5.80894
5.82558
5.85078
5.88203
5.91654
5.95256
5.99047
6.03377
6.08994
6.16562
6.2542
6.34998
6.44641
6.53522
6.60773
6.65743
6.68264
6.67845
6.64084
6.57039
6.47045
6.3323
6.11125
5.73655
535.194
520.5
5.01458
5.33739
5.5495
5.67102
5.73992
5.77571
5.78716
5.78444
5.78115
5.78605
5.80169
5.82737
5.8603
5.8973
5.93632
5.97749
6.02409
6.08348
6.15999
6.24757
6.34196
6.4383
6.52976
6.60819
6.66658
6.70211
6.70627
6.67385
6.60526
6.50432
6.36305
6.13727
5.75673
535.298
520.506
5.02054
5.34263
5.55235
5.67102
5.73675
5.76864
5.77542
5.76774
5.76017
5.76204
5.77631
5.80226
5.83681
5.87645
5.91882
5.96381
6.01454
6.07822
6.15657
6.24398
6.33721
6.43293
6.52584
6.60869
6.67442
6.71898
6.73098
6.70408
6.63834
6.5377
6.39465
6.1653
5.77917
535.395
520.512
5.02638
5.34743
5.55471
5.67068
5.73342
5.76157
5.76371
5.75097
5.73881
5.73721
5.74968
5.77557
5.81156
5.85382
5.89968
5.94884
6.00427
6.07297
6.15403
6.2421
6.33466
6.42956
6.52297
6.60887
6.68063
6.73244
6.75133
6.7298
6.66736
6.56786
6.42399
6.19188
5.80069
535.498
520.519
5.03202
5.35166
5.55642
5.66978
5.72971
5.75431
5.75198
5.73421
5.71732
5.7119
5.72211
5.7475
5.78463
5.82933
5.87866
5.93213
5.99263
6.06689
6.15142
6.24112
6.33394
6.42862
6.52258
6.61097
6.68788
6.74579
6.77066
6.754
6.69485
6.59683
6.45259
6.21799
5.82163
535.591
520.526
5.03735
5.35519
5.55729
5.66809
5.72536
5.74663
5.74006
5.71743
5.69591
5.68653
5.6941
5.71858
5.75649
5.80342
5.85613
5.91393
5.97964
6.05948
6.14772
6.23946
6.33302
6.42781
6.52226
6.61268
6.69392
6.75704
6.78712
6.77488
6.71889
6.6225
6.47811
6.24109
5.83961
535.689
520.533
5.0424
5.35802
5.55727
5.66547
5.72017
5.73828
5.72775
5.70058
5.67463
5.66124
5.66592
5.68912
5.72748
5.7764
5.83237
5.89451
5.96558
6.05094
6.14304
6.23722
6.33211
6.42762
6.52296
6.61544
6.70068
6.76835
6.80289
6.79442
6.74121
6.6463
6.50162
6.26185
5.85488
535.774
520.542
5.04714
5.36014
5.55631
5.66181
5.71394
5.72901
5.71474
5.68342
5.65342
5.63622
5.63798
5.6597
5.69827
5.74901
5.80815
5.8746
5.95105
6.04134
6.13686
6.23321
6.32932
6.42555
6.52184
6.61633
6.70537
6.77724
6.81585
6.81082
6.76016
6.66664
6.52156
6.27868
5.86597
535.861
520.551
5.05176
5.36175
5.55453
5.65717
5.70664
5.71865
5.70082
5.66565
5.63203
5.61135
5.61034
5.63052
5.66912
5.72151
5.78375
5.85458
5.9366
6.03154
6.13029
6.22869
6.32596
6.42288
6.52006
6.61643
6.709
6.78465
6.82682
6.82476
6.77631
6.68396
6.53823
6.29181
5.87301
535.928
520.56
5.05615
5.36274
5.55189
5.65153
5.69829
5.70724
5.68596
5.64729
5.61041
5.58668
5.58321
5.60201
5.64067
5.69464
5.7599
5.83499
5.92237
6.02143
6.12288
6.22279
6.3207
6.41782
6.51544
6.61331
6.70913
6.78836
6.83397
6.83481
6.78857
6.69743
6.55101
6.30078
5.8757
535.992
520.57
5.0603
5.36314
5.54843
5.64501
5.68903
5.69495
5.67029
5.62825
5.58837
5.56175
5.55608
5.57372
5.61259
5.66828
5.73669
5.81622
5.90912
6.01225
6.11626
6.21744