/*--------------------------------*- C++ -*----------------------------------*\
| =========                 |                                                 |
| \\      /  F ield         | OpenFOAM: The Open Source CFD Toolbox           |
|  \\    /   O peration     | Version:  v2006                                 |
|   \\  /    A nd           | Website:  www.openfoam.com                      |
|    \\/     M anipulation  |                                                 |
\*---------------------------------------------------------------------------*/
FoamFile
{
    version     2.0;
    format      ascii;
    class       surfaceScalarField;
    location    "38";
    object      phi;
}
// * * * * * * * * * * * * * * * * * * * * * * * * * * * * * * * * * * * * * //

dimensions      [1 0 -1 0 0 0 0];
oriented        oriented;


internalField   nonuniform List<scalar> 
228225
(
-5.81584e-06
-1.12973e-07
1.92178e-07
-5.41263e-06
-6.87483e-07
2.8517e-07
-4.79045e-06
-9.20387e-07
2.9863e-07
-4.07691e-06
-9.95078e-07
2.82145e-07
-3.34774e-06
-9.83343e-07
2.54757e-07
-2.63922e-06
-9.36047e-07
2.28106e-07
-1.95926e-06
-8.86496e-07
2.07137e-07
-1.29937e-06
-8.52042e-07
1.92763e-07
-6.53653e-07
-8.30065e-07
1.84955e-07
-1.96034e-08
-8.16084e-07
1.8263e-07
6.03691e-07
-8.06316e-07
1.83621e-07
1.21578e-06
-7.9754e-07
1.86056e-07
1.81458e-06
-7.87094e-07
1.88895e-07
2.39668e-06
-7.73054e-07
1.91566e-07
2.9576e-06
-7.54058e-07
1.93744e-07
3.49212e-06
-7.29198e-07
1.95285e-07
3.99448e-06
-6.97938e-07
1.96187e-07
4.45859e-06
-6.6004e-07
1.96552e-07
4.87816e-06
-6.15519e-07
1.96559e-07
5.24694e-06
-5.64606e-07
1.96442e-07
5.55883e-06
-5.07745e-07
1.96471e-07
5.80805e-06
-4.45586e-07
1.96976e-07
5.98924e-06
-3.79049e-07
1.98468e-07
6.09782e-06
-3.09342e-07
2.01353e-07
6.13045e-06
-2.37986e-07
2.05942e-07
6.08525e-06
-1.66746e-07
2.12508e-07
5.96151e-06
-9.7148e-08
2.21435e-07
5.75775e-06
-2.87667e-08
2.33052e-07
5.47107e-06
3.93828e-08
2.47801e-07
5.08412e-06
1.2125e-07
2.66178e-07
4.54345e-06
2.53425e-07
2.87724e-07
3.73772e-06
4.99537e-07
3.06651e-07
2.54838e-06
8.86782e-07
3.02845e-07
1.07705e-06
1.22918e-06
2.41963e-07
9.69784e-07
1.06199e-07
-7.72304e-07
5.67663e-07
9.15992e-08
-2.05163e-06
5.68556e-07
2.35232e-08
-3.29054e-06
4.1569e-07
-9.66966e-08
-4.28475e-06
2.18714e-07
-2.18973e-07
-4.95042e-06
-1.96334e-08
-2.97415e-07
-5.35056e-06
-2.02592e-07
-3.32702e-07
-5.50398e-06
-3.88132e-07
-3.44382e-07
-5.45267e-06
-5.58913e-07
-3.43919e-07
-5.23899e-06
-7.07026e-07
-3.36242e-07
-4.89776e-06
-8.33406e-07
-3.23489e-07
-4.45394e-06
-9.41741e-07
-3.08004e-07
-3.92641e-06
-1.03238e-06
-2.92329e-07
-3.331e-06
-1.10433e-06
-2.7783e-07
-2.68211e-06
-1.15675e-06
-2.64862e-07
-1.99317e-06
-1.18919e-06
-2.53481e-07
-1.27679e-06
-1.20164e-06
-2.43615e-07
-5.4502e-07
-1.19433e-06
-2.35045e-07
1.90449e-07
-1.16774e-06
-2.27427e-07
9.18022e-07
-1.12242e-06
-2.20323e-07
1.62595e-06
-1.05894e-06
-2.13223e-07
2.30199e-06
-9.77875e-07
-2.05531e-07
2.93304e-06
-8.79827e-07
-1.96404e-07
3.50475e-06
-7.6536e-07
-1.84972e-07
4.00165e-06
-6.35121e-07
-1.70662e-07
4.40713e-06
-4.897e-07
-1.53294e-07
4.70354e-06
-3.29911e-07
-1.32732e-07
4.87246e-06
-1.56743e-07
-1.08804e-07
4.89517e-06
3.0388e-08
-8.13129e-08
4.73516e-06
2.49774e-07
-4.98136e-08
4.35957e-06
5.10955e-07
-1.35225e-08
3.7202e-06
8.58202e-07
3.51684e-08
2.79365e-06
1.33433e-06
9.22719e-08
1.65937e-06
1.88161e-06
1.3972e-07
5.77011e-07
2.16886e-06
1.42424e-07
1.46956e-06
7.61292e-08
-1.78919e-07
6.27084e-07
1.19194e-07
-9.01725e-07
1.07521e-06
2.1678e-07
-1.90514e-06
1.15205e-06
2.6756e-07
-2.97559e-06
9.8979e-07
2.99898e-07
-3.99068e-06
6.78497e-07
3.17546e-07
-4.80899e-06
3.00774e-07
3.15412e-07
-5.40779e-06
-8.65641e-08
2.97501e-07
-5.76641e-06
-4.72702e-07
2.72531e-07
-5.90626e-06
-8.14284e-07
2.47119e-07
-5.8489e-06
-1.11465e-06
2.23839e-07
-5.62285e-06
-1.37074e-06
2.02849e-07
-5.25804e-06
-1.5815e-06
1.8417e-07
-4.78134e-06
-1.74911e-06
1.67899e-07
-4.21675e-06
-1.87561e-06
1.54069e-07
-3.58514e-06
-1.96361e-06
1.42605e-07
-2.90448e-06
-2.01591e-06
1.33401e-07
-2.19024e-06
-2.03516e-06
1.26382e-07
-1.45605e-06
-2.02364e-06
1.21513e-07
-7.14361e-07
-1.98311e-06
1.18819e-07
2.28882e-08
-1.91476e-06
1.18401e-07
7.43698e-07
-1.81924e-06
1.20403e-07
1.43515e-06
-1.69648e-06
1.25079e-07
2.08272e-06
-1.54581e-06
1.32783e-07
2.66962e-06
-1.36581e-06
1.43725e-07
3.17494e-06
-1.15307e-06
1.58044e-07
3.57232e-06
-9.02898e-07
1.75658e-07
3.83174e-06
-6.12092e-07
1.96069e-07
3.92073e-06
-2.76526e-07
2.18134e-07
3.81588e-06
1.15469e-07
2.39471e-07
3.48232e-06
5.89314e-07
2.55605e-07
2.90087e-06
1.18014e-06
2.59953e-07
2.09535e-06
1.89288e-06
2.47317e-07
1.18709e-06
2.57235e-06
2.17541e-07
3.91858e-07
2.79656e-06
1.6697e-07
1.77975e-06
8.02281e-08
1.02477e-07
4.28267e-07
9.61922e-08
1.82669e-07
7.94749e-07
2.00345e-07
1.7198e-07
9.00912e-07
2.62044e-07
5.0749e-08
8.18271e-07
2.93054e-07
-1.81809e-07
6.12116e-07
2.99272e-07
-4.95578e-07
3.29547e-07
2.85279e-07
-8.43068e-07
3.58446e-09
2.57526e-07
-1.16147e-06
-3.77225e-07
2.23e-07
-1.40343e-06
-7.59079e-07
1.86736e-07
-1.53898e-06
-1.13117e-06
1.51978e-07
-1.56009e-06
-1.4707e-06
1.20929e-07
-1.47574e-06
-1.76023e-06
9.42192e-08
-1.3016e-06
-1.99494e-06
7.1506e-08
-1.05267e-06
-2.17708e-06
5.23605e-08
-7.42517e-07
-2.31028e-06
3.63395e-08
-3.83194e-07
-2.39846e-06
2.30579e-08
1.4809e-08
-2.44554e-06
1.22121e-08
4.42605e-07
-2.45499e-06
3.38883e-09
8.90612e-07
-2.42959e-06
-1.69757e-09
1.35049e-06
-2.37112e-06
-3.68074e-09
1.81473e-06
-2.28041e-06
-3.24008e-09
2.27548e-06
-2.15724e-06
-1.60385e-10
2.7208e-06
-2.00023e-06
8.93347e-09
3.13901e-06
-1.8063e-06
2.21238e-08
3.51183e-06
-1.56665e-06
4.0612e-08
3.81069e-06
-1.26764e-06
6.57447e-08
3.99893e-06
-8.98829e-07
9.83788e-08
4.03485e-06
-4.51146e-07
1.38629e-07
3.87731e-06
8.76916e-08
1.85307e-07
3.47745e-06
7.55297e-07
2.33943e-07
2.83266e-06
1.55092e-06
2.74153e-07
2.00075e-06
2.4355e-06
2.89396e-07
1.12316e-06
3.18357e-06
2.66213e-07
3.73155e-07
3.34368e-06
2.022e-07
2.05919e-06
9.22139e-08
5.40659e-08
2.9001e-07
8.39766e-08
1.10048e-07
5.53425e-07
1.85149e-07
1.2127e-07
6.38e-07
2.51824e-07
7.39312e-08
5.7363e-07
2.92069e-07
-2.28568e-08
3.97675e-07
3.11226e-07
-1.46305e-07
1.38913e-07
3.1405e-07
-2.61386e-07
-1.86578e-07
3.05199e-07
-3.68384e-07
-5.5927e-07
2.88974e-07
-4.40405e-07
-9.55907e-07
2.68746e-07
-4.65838e-07
-1.35257e-06
2.46706e-07
-4.3578e-07
-1.72506e-06
2.24162e-07
-3.48749e-07
-2.04953e-06
2.02131e-07
-2.1236e-07
-2.31266e-06
1.81221e-07
-3.43736e-08
-2.51676e-06
1.61592e-07
1.79415e-07
-2.66744e-06
1.43286e-07
4.23361e-07
-2.76893e-06
1.26441e-07
6.91992e-07
-2.82548e-06
1.11239e-07
9.80023e-07
-2.84097e-06
9.78839e-08
1.28228e-06
-2.8185e-06
8.65981e-08
1.59367e-06
-2.76019e-06
7.76252e-08
1.90901e-06
-2.66704e-06
7.12478e-08
2.22275e-06
-2.53883e-06
6.78155e-08
2.52866e-06
-2.37395e-06
6.77804e-08
2.81958e-06
-2.16909e-06
7.18312e-08
3.08442e-06
-1.91252e-06
8.10139e-08
3.3043e-06
-1.58382e-06
9.62828e-08
3.45159e-06
-1.16446e-06
1.1833e-07
3.48741e-06
-6.34936e-07
1.47986e-07
3.35492e-06
3.4645e-08
1.8557e-07
3.0267e-06
8.54967e-07
2.28602e-07
2.46932e-06
1.84019e-06
2.68153e-07
1.7261e-06
2.89172e-06
2.86941e-07
9.40944e-07
3.70173e-06
2.66646e-07
2.92857e-07
3.78961e-06
2.01266e-07
2.26219e-06
8.81735e-08
5.89946e-08
1.57184e-07
7.36036e-08
1.59138e-07
2.84566e-07
1.68573e-07
2.60738e-07
3.02082e-07
2.34251e-07
3.46858e-07
2.10516e-07
2.76952e-07
4.16141e-07
2.73312e-08
3.01023e-07
4.83686e-07
-2.38705e-07
3.10032e-07
5.57801e-07
-5.67739e-07
3.06993e-07
6.44378e-07
-9.40672e-07
2.94749e-07
7.45559e-07
-1.33308e-06
2.75889e-07
8.5992e-07
-1.71961e-06
2.52551e-07
9.84655e-07
-2.07644e-06
2.26493e-07
1.11817e-06
-2.3825e-06
1.99289e-07
1.26023e-06
-2.62736e-06
1.72462e-07
1.41138e-06
-2.81503e-06
1.46951e-07
1.57207e-06
-2.95154e-06
1.23241e-07
1.74221e-06
-3.04103e-06
1.01798e-07
1.92102e-06
-3.08749e-06
8.30201e-08
2.10707e-06
-3.09441e-06
6.72127e-08
2.29824e-06
-3.06446e-06
5.46168e-08
2.49173e-06
-2.99928e-06
4.54353e-08
2.68404e-06
-2.89937e-06
3.98613e-08
2.87093e-06
-2.76397e-06
3.81022e-08
3.0473e-06
-2.59089e-06
4.04311e-08
3.20671e-06
-2.37585e-06
4.72272e-08
3.33815e-06
-2.10322e-06
5.91292e-08
3.42543e-06
-1.74783e-06
7.66194e-08
3.4485e-06
-1.28769e-06
1.00062e-07
3.37953e-06
-6.96074e-07
1.30044e-07
3.19137e-06
5.56454e-08
1.67121e-07
2.82804e-06
1.00812e-06
2.10169e-07
2.28217e-06
2.13346e-06
2.52583e-07
1.59206e-06
3.30347e-06
2.78249e-07
8.76261e-07
4.15239e-06
2.64732e-07
2.79475e-07
4.18441e-06
2.01063e-07
2.45377e-06
8.62008e-08
4.65178e-08
4.1112e-08
6.94411e-08
1.53184e-07
1.5844e-08
1.61794e-07
2.9805e-07
-6.99067e-08
2.26907e-07
4.6628e-07
-2.28624e-07
2.70835e-07
6.52547e-07
-4.56438e-07
2.97479e-07
8.50259e-07
-7.4614e-07
3.09674e-07
1.05609e-06
-1.08326e-06
3.09602e-07
1.26245e-06
-1.44665e-06
2.99504e-07
1.46062e-06
-1.81317e-06
2.81797e-07
1.64289e-06
-2.16082e-06
2.58825e-07
1.80401e-06
-2.47041e-06
2.32734e-07
1.94256e-06
-2.72665e-06
2.05491e-07
2.06489e-06
-2.92836e-06
1.78557e-07
2.17824e-06
-3.08116e-06
1.52655e-07
2.28697e-06
-3.18874e-06
1.28358e-07
2.3942e-06
-3.25449e-06
1.06124e-07
2.50182e-06
-3.28152e-06
8.63118e-08
2.61052e-06
-3.2724e-06
6.92002e-08
2.71989e-06
-3.22894e-06
5.50223e-08
2.82862e-06
-3.15209e-06
4.40024e-08
2.93455e-06
-3.04179e-06
3.63908e-08
3.0348e-06
-2.8968e-06
3.24924e-08
3.12562e-06
-2.71452e-06
3.27115e-08
3.20226e-06
-2.49013e-06
3.75573e-08
3.25664e-06
-2.20558e-06
4.78813e-08
3.27631e-06
-1.83193e-06
6.43433e-08
3.24431e-06
-1.34299e-06
8.72149e-08
3.1349e-06
-7.03382e-07
1.16647e-07
2.90691e-06
1.31192e-07
1.52374e-07
2.54211e-06
1.18023e-06
1.92603e-07
2.01989e-06
2.42417e-06
2.31391e-07
1.37942e-06
3.68842e-06
2.55281e-07
7.35702e-07
4.55199e-06
2.43579e-07
2.21577e-07
4.51302e-06
1.84489e-07
2.596e-06
7.75715e-08
3.50493e-08
-5.81173e-08
6.39535e-08
1.38161e-07
-2.37964e-07
1.5049e-07
2.97654e-07
-4.40698e-07
2.11142e-07
5.022e-07
-6.84751e-07
2.51479e-07
7.4303e-07
-9.72643e-07
2.75307e-07
1.00866e-06
-1.29719e-06
2.85357e-07
1.2843e-06
-1.64285e-06
2.83886e-07
1.55509e-06
-1.99066e-06
2.73174e-07
1.80803e-06
-2.32175e-06
2.55595e-07
2.03296e-06
-2.61928e-06
2.33483e-07
2.22434e-06
-2.8708e-06
2.08976e-07
2.38617e-06
-3.0724e-06
1.83869e-07
2.52642e-06
-3.22787e-06
1.5921e-07
2.65086e-06
-3.34131e-06
1.35657e-07
2.7638e-06
-3.41546e-06
1.13702e-07
2.86837e-06
-3.45283e-06
9.37031e-08
2.96642e-06
-3.45555e-06
7.59064e-08
3.05868e-06
-3.42521e-06
6.04818e-08
3.14484e-06
-3.36274e-06
4.75615e-08
3.22375e-06
-3.26836e-06
3.72804e-08
3.29352e-06
-3.14146e-06
2.98174e-08
3.35168e-06
-2.98049e-06
2.54336e-08
3.39519e-06
-2.78265e-06
2.45299e-08
3.41735e-06
-2.54006e-06
2.76631e-08
3.40856e-06
-2.23255e-06
3.56656e-08
3.35963e-06
-1.83262e-06
4.95235e-08
3.25818e-06
-1.31184e-06
7.0203e-08
3.08732e-06
-6.31281e-07
9.86564e-08
2.82841e-06
2.54962e-07
1.35038e-07
2.44784e-06
1.38362e-06
1.7709e-07
1.94011e-06
2.714e-06
2.1778e-07
1.33593e-06
4.04905e-06
2.43308e-07
7.28404e-07
4.92539e-06
2.33595e-07
2.29498e-07
4.83405e-06
1.76862e-07
2.75016e-06
7.35901e-08
2.78853e-08
-1.43487e-07
5.71985e-08
1.17216e-07
-4.62042e-07
1.34642e-07
2.65711e-07
-7.76752e-07
1.87409e-07
4.65935e-07
-1.10572e-06
2.20575e-07
7.05949e-07
-1.45068e-06
2.37885e-07
9.69281e-07
-1.8031e-06
2.42506e-07
1.23868e-06
-2.14957e-06
2.37278e-07
1.49886e-06
-2.47574e-06
2.24864e-07
1.73794e-06
-2.7686e-06
2.07736e-07
1.94805e-06
-3.01752e-06
1.88073e-07
2.12841e-06
-3.21885e-06
1.67622e-07
2.28539e-06
-3.3769e-06
1.47457e-07
2.42517e-06
-3.49585e-06
1.28142e-07
2.55171e-06
-3.57793e-06
1.10037e-07
2.66799e-06
-3.62514e-06
9.33553e-08
2.7761e-06
-3.6392e-06
7.82257e-08
2.8772e-06
-3.62143e-06
6.47374e-08
2.97165e-06
-3.57267e-06
5.29719e-08
3.05905e-06
-3.49321e-06
4.30209e-08
3.13836e-06
-3.38271e-06
3.50021e-08
3.20787e-06
-3.24009e-06
2.90768e-08
3.26525e-06
-3.06339e-06
2.54736e-08
3.30756e-06
-2.84953e-06
2.45208e-08
3.32723e-06
-2.58658e-06
2.68023e-08
3.31304e-06
-2.25138e-06
3.29614e-08
3.25509e-06
-1.81847e-06
4.37274e-08
3.13987e-06
-1.25675e-06
6.0035e-08
2.94909e-06
-5.23717e-07
8.31227e-08
2.66114e-06
4.28768e-07
1.14035e-07
2.26407e-06
1.62867e-06
1.51901e-07
1.75726e-06
3.02981e-06
1.90821e-07
1.17934e-06
4.40927e-06
2.17396e-07
6.22171e-07
5.2708e-06
2.11166e-07
1.84955e-07
5.11025e-06
1.59945e-07
2.86786e-06
6.54682e-08
3.49832e-08
-2.2549e-07
4.67741e-08
1.32528e-07
-6.69054e-07
1.09265e-07
2.84351e-07
-1.07878e-06
1.50014e-07
4.79118e-07
-1.47407e-06
1.73416e-07
7.02562e-07
-1.85759e-06
1.83335e-07
9.39787e-07
-2.22372e-06
1.83283e-07
1.17755e-06
-2.56374e-06
1.76312e-07
1.40544e-06
-2.86867e-06
1.6497e-07
1.61605e-06
-3.13055e-06
1.51258e-07
1.80695e-06
-3.34514e-06
1.36644e-07
1.98176e-06
-3.51575e-06
1.22024e-07
2.14394e-06
-3.64693e-06
1.07785e-07
2.29476e-06
-3.74087e-06
9.41446e-08
2.43498e-06
-3.7994e-06
8.12182e-08
2.56497e-06
-3.82427e-06
6.91047e-08
2.68482e-06
-3.81701e-06
5.79181e-08
2.79442e-06
-3.77886e-06
4.77937e-08
2.8935e-06
-3.71068e-06
3.88843e-08
2.98165e-06
-3.61276e-06
3.13587e-08
3.05826e-06
-3.48478e-06
2.54073e-08
3.1225e-06
-3.32563e-06
2.12509e-08
3.17314e-06
-3.13324e-06
1.9163e-08
3.2066e-06
-2.9025e-06
1.9454e-08
3.21545e-06
-2.61815e-06
2.26543e-08
3.19126e-06
-2.25667e-06
2.94139e-08
3.12536e-06
-1.79302e-06
4.03888e-08
3.00555e-06
-1.19341e-06
5.64015e-08
2.81636e-06
-4.1302e-07
7.84327e-08
2.53991e-06
5.9792e-07
1.07214e-07
2.16088e-06
1.86573e-06
1.41888e-07
1.68147e-06
3.33171e-06
1.77375e-07
1.13701e-06
4.75155e-06
2.01907e-07
6.09344e-07
5.60144e-06
1.9646e-07
1.86849e-07
5.38297e-06
1.48738e-07
2.99241e-06
6.05332e-08
4.4714e-08
-3.07284e-07
3.68076e-08
1.60218e-07
-8.69285e-07
8.4467e-08
3.29876e-07
-1.36285e-06
1.14244e-07
5.3826e-07
-1.81293e-06
1.30338e-07
7.70688e-07
-2.22667e-06
1.36512e-07
1.01415e-06
-2.60329e-06
1.35974e-07
1.25783e-06
-2.9387e-06
1.31169e-07
1.49319e-06
-3.22791e-06
1.23793e-07
1.71405e-06
-3.46639e-06
1.14921e-07
1.91894e-06
-3.6553e-06
1.05228e-07
2.10856e-06
-3.80044e-06
9.50597e-08
2.28279e-06
-3.9058e-06
8.46309e-08
2.44156e-06
-3.97375e-06
7.41212e-08
2.58496e-06
-4.00655e-06
6.37497e-08
2.71326e-06
-4.00632e-06
5.3759e-08
2.82674e-06
-3.97487e-06
4.43875e-08
2.92571e-06
-3.91367e-06
3.5846e-08
3.0104e-06
-3.82368e-06
2.83123e-08
3.08097e-06
-3.70527e-06
2.19421e-08
3.13743e-06
-3.55813e-06
1.68905e-08
3.17957e-06
-3.38112e-06
1.33361e-08
3.20688e-06
-3.17209e-06
1.15181e-08
3.21557e-06
-2.92301e-06
1.17816e-08
3.19894e-06
-2.61612e-06
1.45561e-08
3.15079e-06
-2.22893e-06
2.03549e-08
3.06245e-06
-1.73452e-06
2.97665e-08
2.92117e-06
-1.09586e-06
4.36515e-08
2.71023e-06
-2.65317e-07
6.3158e-08
2.41417e-06
8.04555e-07
8.93365e-08
2.02432e-06
2.13371e-06
1.21754e-07
1.54919e-06
3.65087e-06
1.5581e-07
1.02819e-06
5.09188e-06
1.80379e-07
5.39052e-07
5.91284e-06
1.77147e-07
1.59159e-07
5.6276e-06
1.34204e-07
3.09574e-06
5.40561e-08
4.40695e-08
-3.8005e-07
2.8441e-08
1.59811e-07
-1.04907e-06
6.38167e-08
3.29087e-07
-1.61764e-06
8.5337e-08
5.35016e-07
-2.11591e-06
9.69122e-08
7.62407e-07
-2.55588e-06
1.01715e-07
9.98112e-07
-2.94115e-06
1.02095e-07
1.23131e-06
-3.27149e-06
9.95558e-08
1.45395e-06
-3.5455e-06
9.49566e-08
1.66142e-06
-3.76262e-06
8.87866e-08
1.85363e-06
-3.9289e-06
8.14472e-08
2.03154e-06
-4.0515e-06
7.31992e-08
2.19557e-06
-4.13409e-06
6.43305e-08
2.3462e-06
-4.17948e-06
5.51554e-08
2.48385e-06
-4.19015e-06
4.60199e-08
2.60868e-06
-4.16834e-06
3.72547e-08
2.72065e-06
-4.11592e-06
2.9143e-08
2.81948e-06
-4.03435e-06
2.19094e-08
2.90476e-06
-3.92464e-06
1.57294e-08
2.97597e-06
-3.78719e-06
1.07481e-08
3.03255e-06
-3.62179e-06
7.10663e-09
3.07388e-06
-3.4274e-06
4.97112e-09
3.09807e-06
-3.20084e-06
4.57033e-09
3.10037e-06
-2.93156e-06
6.24114e-09
3.07561e-06
-2.60172e-06
1.03526e-08
3.0197e-06
-2.19029e-06
1.72458e-08
2.92615e-06
-1.66835e-06
2.73447e-08
2.78456e-06
-9.95533e-07
4.12322e-08
2.58082e-06
-1.21289e-07
5.96624e-08
2.2984e-06
1.00358e-06
8.33388e-08
1.92775e-06
2.39233e-06
1.11946e-07
1.47663e-06
3.95996e-06
1.41884e-07
9.83472e-07
5.42096e-06
1.638e-07
5.19849e-07
6.21485e-06
1.61042e-07
1.56041e-07
5.86842e-06
1.21939e-07
3.20114e-06
4.888e-08
4.39776e-08
-4.47181e-07
2.29553e-08
1.5801e-07
-1.214e-06
5.06822e-08
3.23036e-07
-1.85054e-06
6.76871e-08
5.22029e-07
-2.39239e-06
7.7375e-08
7.39784e-07
-2.85577e-06
8.20872e-08
9.63587e-07
-3.24828e-06
8.33311e-08
1.18381e-06
-3.57366e-06
8.1977e-08
1.39442e-06
-3.8346e-06
7.85308e-08
1.5931e-06
-4.03463e-06
7.33602e-08
1.78042e-06
-4.18306e-06
6.68703e-08
1.95716e-06
-4.28752e-06
5.93401e-08
2.12355e-06
-4.35149e-06
5.10579e-08
2.27962e-06
-4.37785e-06
4.23604e-08
2.42509e-06
-4.36917e-06
3.35967e-08
2.5594e-06
-4.3277e-06
2.50912e-08
2.68175e-06
-4.25534e-06
1.71171e-08
2.79118e-06
-4.15363e-06
9.88306e-09
2.88672e-06
-4.02364e-06
3.49432e-09
2.96706e-06
-3.86591e-06
-1.59769e-09
3.03078e-06
-3.68034e-06
-5.15738e-09
3.07673e-06
-3.46591e-06
-7.43298e-09
3.10092e-06
-3.21693e-06
-8.10911e-09
3.09734e-06
-2.9211e-06
-6.89053e-09
3.06197e-06
-2.56292e-06
-3.4522e-09
2.99077e-06
-2.12189e-06
2.77181e-09
2.87748e-06
-1.56789e-06
1.27885e-08
2.71394e-06
-8.58602e-07
2.65645e-08
2.48839e-06
5.92211e-08
4.49885e-08
2.19174e-06
1.23159e-06
6.85766e-08
1.81791e-06
2.66946e-06
9.6624e-08
1.37738e-06
4.27493e-06
1.25414e-07
9.07937e-07
5.74371e-06
1.4642e-07
4.7436e-07
6.50322e-06
1.44632e-07
1.3951e-07
6.0928e-06
1.09433e-07
3.29536e-06
4.35376e-08
3.50569e-08
-5.01865e-07
1.94019e-08
1.28624e-07
-1.35032e-06
4.25628e-08
2.65082e-07
-2.04407e-06
5.69324e-08
4.29915e-07
-2.6227e-06
6.53877e-08
6.1106e-07
-3.1067e-06
6.97458e-08
7.99179e-07
-3.50759e-06
7.11729e-08
9.87801e-07
-3.83269e-06
7.04003e-08
1.17336e-06
-4.08806e-06
6.7904e-08
1.35477e-06
-4.28005e-06
6.4017e-08
1.53153e-06
-4.41884e-06
5.90366e-08
1.7029e-06
-4.51207e-06
5.31831e-08
1.86818e-06
-4.56338e-06
4.66331e-08
2.0265e-06
-4.57576e-06
3.96086e-08
2.17687e-06
-4.55186e-06
3.23527e-08
2.31818e-06
-4.49409e-06
2.51074e-08
2.44929e-06
-4.40452e-06
1.8097e-08
2.56904e-06
-4.28487e-06
1.15189e-08
2.67631e-06
-4.1364e-06
5.52295e-09
2.7702e-06
-3.95985e-06
5.21594e-11
2.84842e-06
-3.7551e-06
-3.44824e-09
2.90787e-06
-3.51924e-06
-6.11251e-09
2.94297e-06
-3.24459e-06
-7.42903e-09
2.94925e-06
-2.92033e-06
-7.04052e-09
2.92343e-06
-2.5325e-06
-4.60852e-09
2.86146e-06
-2.05984e-06
-9.14292e-11
2.75582e-06
-1.471e-06
8.74062e-09
2.59861e-06
-7.22276e-07
2.08529e-08
2.38086e-06
2.3963e-07
3.73157e-08
2.09209e-06
1.46166e-06
5.86711e-08
1.73016e-06
2.94703e-06
8.43139e-08
1.30737e-06
4.58679e-06
1.10819e-07
8.61474e-07
6.05892e-06
1.30431e-07
4.50902e-07
6.78386e-06
1.29392e-07
1.33308e-07
6.31156e-06
9.78209e-08
3.3883e-06
3.86415e-08
3.71712e-08
-5.56107e-07
1.68075e-08
1.29835e-07
-1.48014e-06
3.69866e-08
2.61896e-07
-2.22623e-06
4.99594e-08
4.21855e-07
-2.84098e-06
5.81949e-08
6.00603e-07
-3.34872e-06
6.31695e-08
7.90638e-07
-3.76352e-06
6.58154e-08
9.85837e-07
-4.09461e-06
6.66792e-08
1.18172e-06
-4.35001e-06
6.60429e-08
1.37557e-06
-4.53794e-06
6.40258e-08
1.56486e-06
-4.66884e-06
6.07211e-08
1.74734e-06
-4.75082e-06
5.6282e-08
1.92143e-06
-4.78829e-06
5.08427e-08
2.08574e-06
-4.78466e-06
4.46235e-08
2.23907e-06
-4.74305e-06
3.78859e-08
2.38039e-06
-4.66627e-06
3.08925e-08
2.50884e-06
-4.55681e-06
2.38855e-08
2.62366e-06
-4.41674e-06
1.70804e-08
2.72423e-06
-4.2476e-06
1.06619e-08
2.80971e-06
-4.05005e-06
4.76497e-09
2.87776e-06
-3.82269e-06
-4.32722e-10
2.92348e-06
-3.56091e-06
-4.02912e-09
2.94345e-06
-3.25784e-06
-6.70697e-09
2.93531e-06
-2.90425e-06
-7.94454e-09
2.89565e-06
-2.48555e-06
-7.28996e-09
2.81967e-06
-1.97962e-06
-4.26577e-09
2.70116e-06
-1.35417e-06
1.67067e-09
2.53145e-06
-5.64935e-07
1.23466e-08
2.30264e-06
4.41104e-07
2.7312e-08
2.00848e-06
1.70855e-06
4.72517e-08
1.64882e-06
3.23521e-06
7.14372e-08
1.23767e-06
4.90139e-06
9.64491e-08
8.11831e-07
6.3694e-06
1.1511e-07
4.22915e-07
7.05734e-06
1.14898e-07
1.24212e-07
6.52243e-06
8.68518e-08
3.47668e-06
3.41262e-08
3.39704e-08
-6.05912e-07
1.559e-08
1.23381e-07
-1.60455e-06
3.48065e-08
2.55702e-07
-2.40663e-06
4.79199e-08
4.20599e-07
-3.06313e-06
5.71338e-08
6.08464e-07
-3.60029e-06
6.36208e-08
8.09732e-07
-4.03286e-06
6.80247e-08
1.01568e-06
-4.37121e-06
7.06346e-08
1.21978e-06
-4.62563e-06
7.15316e-08
1.41822e-06
-4.80707e-06
7.07199e-08
1.6083e-06
-4.92714e-06
6.82674e-08
1.78817e-06
-4.99505e-06
6.44248e-08
1.95678e-06
-5.01628e-06
5.94574e-08
2.11335e-06
-4.99483e-06
5.3676e-08
2.25732e-06
-4.93431e-06
4.73824e-08
2.38827e-06
-4.83797e-06
4.08328e-08
2.50592e-06
-4.7086e-06
3.42358e-08
2.61003e-06
-4.54852e-06
2.77626e-08
2.6999e-06
-4.35895e-06
2.15639e-08
2.77367e-06
-4.1395e-06
1.57556e-08
2.82846e-06
-3.88788e-06
1.04774e-08
2.8621e-06
-3.60028e-06
5.78375e-09
2.87332e-06
-3.27076e-06
1.75009e-09
2.85932e-06
-2.88933e-06
-8.83915e-10
2.81611e-06
-2.44042e-06
-1.88586e-09
2.73839e-06
-1.90082e-06
-1.06522e-09
2.61888e-06
-1.2373e-06
2.63536e-09
2.44905e-06
-4.05248e-07
1.0136e-08
2.22126e-06
6.4698e-07
2.19161e-08
1.93055e-06
1.96049e-06
3.87608e-08
1.57876e-06
3.52676e-06
6.02159e-08
1.18139e-06
5.21556e-06
8.31212e-08
7.74638e-07
6.67519e-06
1.00741e-07
4.0378e-07
7.3263e-06
1.01389e-07
1.18921e-07
6.72963e-06
7.67064e-08
3.56398e-06
2.99593e-08
3.90624e-08
-6.60793e-07
1.55838e-08
1.39177e-07
-1.74052e-06
3.56378e-08
2.85792e-07
-2.60361e-06
5.02112e-08
4.66616e-07
-3.30525e-06
6.12085e-08
6.69e-07
-3.87214e-06
6.94341e-08
8.80605e-07
-4.3197e-06
7.52362e-08
1.09139e-06
-4.66071e-06
7.87351e-08
1.29513e-06
-4.9093e-06
7.9984e-08
1.48919e-06
-5.08014e-06
7.908e-08
1.67229e-06
-5.18641e-06
7.62483e-08
1.84369e-06
-5.23828e-06
7.19233e-08
2.00292e-06
-5.24194e-06
6.65263e-08
2.14962e-06
-5.20187e-06
6.0448e-08
2.28347e-06
-5.12206e-06
5.40066e-08
2.40423e-06
-5.00605e-06
4.74358e-08
2.51166e-06
-4.85683e-06
4.09013e-08
2.60498e-06
-4.67626e-06
3.45215e-08
2.68262e-06
-4.46486e-06
2.83638e-08
2.74289e-06
-4.22219e-06
2.25186e-08
2.78473e-06
-3.94671e-06
1.70736e-08
2.80746e-06
-3.63504e-06
1.2106e-08
2.80956e-06
-3.28049e-06
7.6953e-09
2.78827e-06
-2.87207e-06
4.08502e-09
2.73936e-06
-2.39311e-06
1.65012e-09
2.6568e-06
-1.81929e-06
1.06747e-09
2.5329e-06
-1.11654e-06
3.16808e-09
2.35951e-06
-2.40253e-07
8.40881e-09
2.12972e-06
8.59143e-07
1.76457e-08
1.84023e-06
2.21833e-06
3.16737e-08
1.49497e-06
3.82173e-06
5.02911e-08
1.11115e-06
5.52852e-06
7.08007e-08
7.24491e-07
6.97449e-06
8.71449e-08
3.74465e-07
7.58732e-06
8.85214e-08
1.08672e-07
6.92746e-06
6.70508e-08
3.64499e-06
2.60241e-08
3.70751e-08
-7.15037e-07
1.69359e-08
1.36593e-07
-1.87973e-06
3.95096e-08
2.84086e-07
-2.80745e-06
5.62262e-08
4.65036e-07
-3.55509e-06
6.88276e-08
6.64899e-07
-4.14999e-06
7.79739e-08
8.70723e-07
-4.6095e-06
8.40051e-08
1.07326e-06
-4.95036e-06
8.71697e-08
1.26769e-06
-5.19142e-06
8.77421e-08
1.45248e-06
-5.35092e-06
8.60689e-08
1.62705e-06
-5.44347e-06
8.25766e-08
1.79083e-06
-5.47978e-06
7.78071e-08
1.94328e-06
-5.46655e-06
7.22656e-08
2.0839e-06
-5.40868e-06
6.63095e-08
2.21228e-06
-5.31052e-06
6.01903e-08
2.32782e-06
-5.17555e-06
5.40748e-08
2.42946e-06
-5.00639e-06
4.80273e-08
2.51596e-06
-4.80476e-06
4.20993e-08
2.58636e-06
-4.57149e-06
3.63335e-08
2.64036e-06
-4.30689e-06
3.07978e-08
2.67788e-06
-4.00966e-06
2.55251e-08
2.69814e-06
-3.67576e-06
2.05422e-08
2.69951e-06
-3.29769e-06
1.59136e-08
2.67902e-06
-2.86335e-06
1.18413e-08
2.63206e-06
-2.35474e-06
8.641e-09
2.55228e-06
-1.74622e-06
6.75671e-09
2.43178e-06
-1.0028e-06
6.80441e-09
2.26222e-06
-8.0219e-08
9.57429e-09
2.03697e-06
1.06844e-06
1.5992e-08
1.75389e-06
2.47453e-06
2.69282e-08
1.41859e-06
4.11464e-06
4.24194e-08
1.04978e-06
5.83708e-06
6.02332e-08
6.82728e-07
7.26633e-06
7.50251e-08
3.51637e-07
7.84106e-06
7.69083e-08
1.01693e-07
7.11814e-06
5.83925e-08
3.72248e-06
2.26041e-08
3.97148e-08
-7.73529e-07
1.85516e-08
1.42811e-07
-2.02664e-06
4.36457e-08
2.92666e-07
-3.01941e-06
6.19889e-08
4.73937e-07
-3.81179e-06
7.53561e-08
6.71885e-07
-4.43249e-06
8.45317e-08
8.74173e-07
-4.90185e-06
9.00829e-08
1.07263e-06
-5.2413e-06
9.25235e-08
1.26327e-06
-5.47437e-06
9.2371e-08
1.44467e-06
-5.6224e-06
9.01562e-08
1.61624e-06
-5.70135e-06
8.6405e-08
1.77714e-06
-5.72219e-06
8.16079e-08
1.92655e-06
-5.6921e-06
7.62415e-08
2.06368e-06
-5.61632e-06
7.06115e-08
2.1876e-06
-5.49921e-06
6.4888e-08
2.29722e-06
-5.34423e-06
5.91713e-08
2.3914e-06
-5.15396e-06
5.35233e-08
2.46951e-06
-4.93073e-06
4.79724e-08
2.53165e-06
-4.67609e-06
4.25859e-08
2.57785e-06
-4.39042e-06
3.74377e-08
2.60797e-06
-4.07218e-06
3.25112e-08
2.62137e-06
-3.71683e-06
2.77598e-08
2.61662e-06
-3.31609e-06
2.32413e-08
2.591e-06
-2.85676e-06
1.91098e-08
2.5401e-06
-2.31938e-06
1.55985e-08
2.4577e-06
-1.67678e-06
1.30332e-08
2.33601e-06
-8.92929e-07
1.18823e-08
2.1667e-06
7.63273e-08
1.28292e-08
1.94409e-06
1.27433e-06
1.67935e-08
1.66662e-06
2.72734e-06
2.47349e-08
1.3412e-06
4.40317e-06
3.69561e-08
9.87492e-07
6.13902e-06
5.17714e-08
6.39915e-07
7.54909e-06
6.46547e-08
3.27809e-07
8.086e-06
6.67367e-08
9.41924e-08
7.30002e-06
5.09039e-08
3.79527e-06
1.98471e-08
3.78055e-08
-8.31782e-07
2.02212e-08
1.38645e-07
-2.17517e-06
4.75271e-08
2.8666e-07
-3.23449e-06
6.69494e-08
4.66262e-07
-4.07201e-06
8.0564e-08
6.62613e-07
-4.71833e-06
8.9485e-08
8.63494e-07
-5.19728e-06
9.45757e-08
1.06099e-06
-5.5353e-06
9.65634e-08
1.25121e-06
-5.76061e-06
9.6097e-08
1.43249e-06
-5.89736e-06
9.3776e-08
1.60381e-06
-5.96272e-06
9.01458e-08
1.76407e-06
-5.968e-06
8.5655e-08
1.91222e-06
-5.9208e-06
8.06698e-08
2.04722e-06
-5.82664e-06
7.54402e-08
2.16784e-06
-5.68981e-06
7.01107e-08
2.273e-06
-5.514e-06
6.47532e-08
2.36214e-06
-5.30241e-06
5.94468e-08
2.43499e-06
-5.05771e-06
5.42585e-08
2.49151e-06
-4.78172e-06
4.92455e-08
2.53172e-06
-4.47495e-06
4.44381e-08
2.55557e-06
-4.13572e-06
3.98086e-08
2.56266e-06
-3.75911e-06
3.52911e-08
2.55187e-06
-3.33613e-06
3.09252e-08
2.52082e-06
-2.85244e-06
2.6825e-08
2.46545e-06
-2.28709e-06
2.31572e-08
2.37983e-06
-1.61124e-06
2.01515e-08
2.25646e-06
-7.87642e-07
1.81528e-08
2.08791e-06
2.27253e-07
1.77147e-08
1.86819e-06
1.47448e-06
1.96701e-08
1.59684e-06
2.97382e-06
2.49903e-08
1.28138e-06
4.68458e-06
3.41565e-08
9.41635e-07
6.43285e-06
4.5963e-08
6.10544e-07
7.82335e-06
5.67059e-08
3.13315e-07
8.32422e-06
5.86293e-08
9.0735e-08
7.47678e-06
4.5033e-08
3.8666e-06
1.78899e-08
3.94056e-08
-8.92826e-07
2.14054e-08
1.4285e-07
-2.3289e-06
5.01185e-08
2.93483e-07
-3.45537e-06
7.01485e-08
4.75232e-07
-4.33773e-06
8.39287e-08
6.72811e-07
-5.00874e-06
9.28323e-08
8.7397e-07
-5.49627e-06
9.78619e-08
1.07116e-06
-5.83223e-06
9.98042e-08
1.26087e-06
-6.0496e-06
9.93444e-08
1.44159e-06
-6.1751e-06
9.71157e-08
1.61223e-06
-6.22693e-06
9.36792e-08
1.77161e-06
-6.21674e-06
8.94767e-08
1.91843e-06
-6.15232e-06
8.48132e-08
2.05136e-06
-6.03933e-06
7.98888e-08
2.16921e-06
-5.88236e-06
7.48387e-08
2.27099e-06
-5.6854e-06
6.97623e-08
2.35601e-06
-5.45203e-06
6.47346e-08
2.4239e-06
-5.18528e-06
5.98165e-08
2.47462e-06
-4.88736e-06
5.50677e-08
2.50834e-06
-4.55904e-06
5.0499e-08
2.52518e-06
-4.19852e-06
4.60838e-08
2.52502e-06
-3.8006e-06
4.17787e-08
2.507e-06
-3.35562e-06
3.76197e-08
2.46909e-06
-2.84812e-06
3.36917e-08
2.40759e-06
-2.25559e-06
3.01042e-08
2.3169e-06
-1.54745e-06
2.6994e-08
2.18994e-06
-6.85163e-07
2.45671e-08
2.01962e-06
3.74469e-07
2.3208e-08
1.80111e-06
1.6695e-06
2.3604e-08
1.53445e-06
3.21394e-06
2.66895e-08
1.22769e-06
4.95839e-06
3.30978e-08
9.00434e-07
6.71812e-06
4.20758e-08
5.83848e-07
8.0892e-06
5.06663e-08
2.99759e-07
8.55579e-06
5.21937e-08
8.71129e-08
7.64827e-06
4.04185e-08
3.93578e-06
1.6463e-08
3.77436e-08
-9.53307e-07
2.25114e-08
1.39433e-07
-2.48332e-06
5.25682e-08
2.88639e-07
-3.67802e-06
7.33461e-08
4.68813e-07
-4.60552e-06
8.75748e-08
6.64473e-07
-5.30115e-06
9.67526e-08
8.63621e-07
-5.79729e-06
1.01912e-07
1.05921e-06
-6.13164e-06
1.03873e-07
1.24805e-06
-6.34176e-06
1.03394e-07
1.42862e-06
-6.45677e-06
1.01186e-07
1.59964e-06
-6.49569e-06
9.784e-08
1.75967e-06
-6.47045e-06
9.37835e-08
1.90715e-06
-6.38898e-06
8.92955e-08
2.04051e-06
-6.25712e-06
8.45536e-08
2.1583e-06
-6.07971e-06
7.96759e-08
2.25937e-06
-5.86109e-06
7.47491e-08
2.34291e-06
-5.60528e-06
6.98442e-08
2.40858e-06
-5.31584e-06
6.50246e-08
2.45637e-06
-4.99538e-06
6.03574e-08
2.4866e-06
-4.64497e-06
5.5845e-08
2.49953e-06
-4.26278e-06
5.1463e-08
2.49521e-06
-3.84335e-06
4.7198e-08
2.47299e-06
-3.37637e-06
4.30922e-08
2.43103e-06
-2.84529e-06
3.92231e-08
2.36582e-06
-2.22597e-06
3.56798e-08
2.27193e-06
-1.48602e-06
3.25515e-08
2.14249e-06
-5.85585e-07
2.99526e-08
1.9709e-06
5.18053e-07
2.81212e-08
1.7531e-06
1.85987e-06
2.75654e-08
1.48993e-06
3.4482e-06
2.90769e-08
1.18994e-06
5.22526e-06
3.33102e-08
8.72339e-07
6.99601e-06
3.98539e-08
5.66563e-07
8.34852e-06
4.64174e-08
2.91889e-07
8.78282e-06
4.73553e-08
8.55552e-08
7.817e-06
3.69203e-08
4.0045e-06
1.54008e-08
3.79582e-08
-1.01488e-06
2.33845e-08
1.39483e-07
-2.63963e-06
5.46139e-08
2.87863e-07
-3.90268e-06
7.61783e-08
4.6669e-07
-4.87534e-06
9.09535e-08
6.60805e-07
-5.59572e-06
1.00455e-07
8.58729e-07
-6.10092e-06
1.05736e-07
1.05387e-06
-6.43443e-06
1.07704e-07
1.24316e-06
-6.63823e-06
1.07242e-07
1.42488e-06
-6.74355e-06
1.0513e-07
1.59746e-06
-6.77015e-06
1.01956e-07
1.75917e-06
-6.73017e-06
9.81088e-08
1.90818e-06
-6.63171e-06
9.38268e-08
2.04267e-06
-6.48077e-06
8.92625e-08
2.16103e-06
-6.28247e-06
8.45224e-08
2.26197e-06
-6.04158e-06
7.96912e-08
2.3446e-06
-5.76263e-06
7.48438e-08
2.40856e-06
-5.44971e-06
7.00509e-08
2.45389e-06
-5.10596e-06
6.53883e-08
2.48092e-06
-4.73274e-06
6.08733e-08
2.49008e-06
-4.32828e-06
5.64655e-08
2.48163e-06
-3.88695e-06
5.21706e-08
2.45521e-06
-3.39787e-06
4.80346e-08
2.4093e-06
-2.84339e-06
4.4125e-08
2.34061e-06
-2.19769e-06
4.05098e-08
2.24381e-06
-1.42637e-06
3.724e-08
2.11196e-06
-4.88e-07
3.43653e-08
1.93844e-06
6.59656e-07
3.20304e-08
1.71963e-06
2.04819e-06
3.06395e-08
1.45726e-06
3.67986e-06
3.09004e-08
1.16078e-06
5.48849e-06
3.34585e-08
8.49534e-07
7.26934e-06
3.80928e-08
5.51682e-07
8.6034e-06
4.29775e-08
2.84419e-07
9.00651e-06
4.33297e-08
8.36153e-08
7.98324e-06