/*--------------------------------*- C++ -*----------------------------------*\
| =========                 |                                                 |
| \\      /  F ield         | OpenFOAM: The Open Source CFD Toolbox           |
|  \\    /   O peration     | Version:  v2006                                 |
|   \\  /    A nd           | Website:  www.openfoam.com                      |
|    \\/     M anipulation  |                                                 |
\*---------------------------------------------------------------------------*/
FoamFile
{
    version     2.0;
    format      ascii;
    class       volVectorField;
    location    "38";
    object      U;
}
// * * * * * * * * * * * * * * * * * * * * * * * * * * * * * * * * * * * * * //

dimensions      [0 1 -1 0 0 0 0];


internalField   nonuniform List<vector> 
78750
(
(-0.00963256 -0.00669653 0.00247773)
(-0.0106149 -0.0145818 0.00412292)
(-0.00882855 -0.0154225 0.00421187)
(-0.00726808 -0.0149221 0.00424286)
(-0.00607833 -0.0140393 0.00434284)
(-0.00490861 -0.0130718 0.00448941)
(-0.00376861 -0.012154 0.00463542)
(-0.0026645 -0.0113379 0.00475518)
(-0.00159 -0.0106307 0.00484207)
(-0.000539724 -0.0100192 0.00489839)
(0.000496574 -0.00948331 0.00492944)
(0.00151966 -0.00900418 0.00494055)
(0.00252047 -0.00856371 0.00493734)
(0.00349634 -0.00814641 0.00492479)
(0.00444124 -0.00773948 0.00490712)
(0.00534727 -0.00733267 0.00488796)
(0.00620533 -0.00691823 0.00487034)
(0.00700552 -0.00649074 0.00485687)
(0.00773752 -0.00604694 0.00484975)
(0.00839089 -0.00558567 0.00485088)
(0.00895535 -0.00510775 0.0048618)
(0.00942101 -0.00461619 0.0048837)
(0.00977857 -0.00411638 0.0049172)
(0.0100197 -0.00361642 0.00496198)
(0.0101377 -0.00312728 0.00501655)
(0.0101281 -0.0026622 0.00507801)
(0.00998873 -0.00223407 0.00514174)
(0.00971896 -0.0018469 0.0052007)
(0.00931811 -0.00147413 0.00524476)
(0.00877705 -0.00101443 0.00525756)
(0.00804463 -0.000214044 0.00520477)
(0.00697178 0.00138575 0.00500273)
(0.00532146 0.00410369 0.00446817)
(0.00306471 0.00684343 0.00332504)
(0.000747451 0.00571808 0.00143559)
(-0.000586429 0.00308365 0.00209818)
(-0.00218182 -0.00286187 0.00237119)
(-0.00450252 -0.00684989 0.00162279)
(-0.00646595 -0.00850176 0.000819667)
(-0.00783129 -0.0086612 0.000406404)
(-0.00866918 -0.00819994 0.000331591)
(-0.00909003 -0.00769466 0.000408997)
(-0.00914964 -0.00746312 0.000505891)
(-0.00891269 -0.00749719 0.000587781)
(-0.00843824 -0.00769254 0.000657644)
(-0.00777886 -0.00795345 0.000719044)
(-0.00696743 -0.00820952 0.000776009)
(-0.0060316 -0.00841108 0.000834123)
(-0.004996 -0.0085245 0.000898931)
(-0.00388347 -0.00852778 0.000974758)
(-0.00271544 -0.00840775 0.001065)
(-0.00151225 -0.00815784 0.00117262)
(-0.000293446 -0.0077765 0.00130038)
(0.000921765 -0.00726599 0.00145095)
(0.00211417 -0.00663159 0.00162703)
(0.00326402 -0.00588121 0.00183151)
(0.00435044 -0.00502578 0.00206803)
(0.00535087 -0.00407929 0.00234078)
(0.00624079 -0.00305948 0.00264941)
(0.00699366 -0.00198806 0.0029889)
(0.00758137 -0.000890825 0.00334875)
(0.00797486 0.000207567 0.00371135)
(0.00814246 0.00130093 0.00405038)
(0.0080375 0.00244402 0.00432982)
(0.00761067 0.00383079 0.00451216)
(0.00681433 0.00592914 0.00457369)
(0.00553758 0.00954781 0.00446527)
(0.00374609 0.0148951 0.00404801)
(0.00182526 0.0189574 0.00312436)
(0.00023357 0.0139915 0.00146501)
(-5.41072e-06 0.0087941 0.00229164)
(-0.000711802 0.0143794 0.00450247)
(-0.00226311 0.0148811 0.00559189)
(-0.00405912 0.0123278 0.0058334)
(-0.00585952 0.00784399 0.00532341)
(-0.00740006 0.00263403 0.00431344)
(-0.00857024 -0.00228144 0.00319324)
(-0.00935232 -0.0064463 0.00221989)
(-0.00974928 -0.00975066 0.00148163)
(-0.00980239 -0.0123619 0.000924699)
(-0.00955528 -0.0144736 0.000485161)
(-0.00905463 -0.0161696 0.000143651)
(-0.00834855 -0.0174858 -0.000113667)
(-0.00747876 -0.0184442 -0.000296895)
(-0.00648193 -0.0190629 -0.00041357)
(-0.00538989 -0.0193588 -0.000468854)
(-0.00423009 -0.0193475 -0.000465519)
(-0.00302635 -0.0190428 -0.000403914)
(-0.00179974 -0.018456 -0.000281983)
(-0.000569928 -0.0175958 -9.53337e-05)
(0.000641673 -0.0164676 0.000162705)
(0.00181483 -0.0150729 0.000501332)
(0.00292969 -0.0134094 0.00093189)
(0.00396 -0.0114717 0.00146718)
(0.00487307 -0.00924955 0.00212095)
(0.00562966 -0.00673338 0.00290132)
(0.00618357 -0.00391156 0.00380358)
(0.00648521 -0.0007378 0.00480316)
(0.00649059 0.00292038 0.00583229)
(0.00614986 0.00734806 0.00673429)
(0.00540621 0.0129699 0.0072178)
(0.0042286 0.0199067 0.00694445)
(0.0027334 0.0267054 0.00582883)
(0.00125179 0.0290985 0.00408756)
(0.000163488 0.0186748 0.0017458)
(3.98631e-05 0.00578497 0.00122243)
(0.000284481 0.0104068 0.00242323)
(0.000332063 0.0115978 0.00306665)
(0.00021944 0.0104969 0.00330852)
(-8.02178e-05 0.0079714 0.00326318)
(-0.000547087 0.00461518 0.00302837)
(-0.00111402 0.000741685 0.0026526)
(-0.00167987 -0.00342061 0.00215501)
(-0.00215587 -0.00766593 0.00156313)
(-0.00247609 -0.0117375 0.000936314)
(-0.00260526 -0.0153474 0.000353545)
(-0.00254924 -0.018378 -0.000154207)
(-0.00232841 -0.020835 -0.000590604)
(-0.0019727 -0.0227386 -0.000962347)
(-0.00150571 -0.0241263 -0.00128011)
(-0.000948044 -0.025042 -0.00155446)
(-0.000318107 -0.0255283 -0.00179328)
(0.000368414 -0.0256217 -0.00200064)
(0.00109637 -0.0253503 -0.00217652)
(0.00185071 -0.0247318 -0.00231637)
(0.00261873 -0.0237748 -0.00241148)
(0.00338839 -0.0224778 -0.00244879)
(0.0041441 -0.0208291 -0.00241039)
(0.0048631 -0.0188033 -0.00227184)
(0.00552164 -0.0163357 -0.00199695)
(0.00609076 -0.0133296 -0.00153505)
(0.0065127 -0.00972091 -0.000832026)
(0.00671794 -0.00545972 0.00015866)
(0.00663945 -0.000416517 0.00146166)
(0.00620247 0.00567602 0.00301127)
(0.00534589 0.0132066 0.00453019)
(0.00407513 0.0221597 0.0054801)
(0.00257631 0.0305551 0.00535245)
(0.00117895 0.03331 0.00409088)
(0.000177694 0.0211889 0.00178873)
(1.08074e-05 0.00400546 0.000993067)
(0.000156999 0.00759644 0.00200633)
(0.000215911 0.00874436 0.00259926)
(0.000182422 0.00800913 0.00294923)
(5.47527e-05 0.00595791 0.00315006)
(-0.00013881 0.00300596 0.00323913)
(-0.000348408 -0.000619984 0.00320988)
(-0.000540101 -0.00469245 0.00305759)
(-0.000691311 -0.00897748 0.00280691)
(-0.000771016 -0.0132399 0.00249864)
(-0.000763143 -0.0172295 0.00217216)
(-0.000666338 -0.0206723 0.00186543)
(-0.000482092 -0.023464 0.00159631)
(-0.000217988 -0.025638 0.0013608)
(0.000109176 -0.0272359 0.00114766)
(0.000490049 -0.0283012 0.000948936)
(0.000916154 -0.0288793 0.00075912)
(0.00137867 -0.0290117 0.000574819)
(0.00186903 -0.0287319 0.000394463)
(0.00237881 -0.0280627 0.000218221)
(0.00289963 -0.0270149 4.83929e-05)
(0.00342313 -0.0255854 -0.000109694)
(0.00394028 -0.0237559 -0.000246172)
(0.00443498 -0.0214869 -0.000343444)
(0.00489544 -0.0186523 -0.000371533)
(0.00530785 -0.0150458 -0.000291562)
(0.00562783 -0.0104948 -5.00014e-05)
(0.00579703 -0.00483222 0.000430494)
(0.00574131 0.00216633 0.00123848)
(0.00538504 0.0107099 0.00239549)
(0.00465973 0.020772 0.00371016)
(0.00352636 0.0314541 0.00468797)
(0.00220189 0.0397661 0.0047659)
(0.000967981 0.0407276 0.003748)
(0.000113498 0.0244899 0.00161946)
(1.29453e-05 0.00250766 0.000838413)
(0.00018134 0.00479049 0.00176506)
(0.0003526 0.00550195 0.00233025)
(0.000506908 0.00478986 0.00267993)
(0.000631124 0.00291847 0.00289495)
(0.00073871 0.000116124 0.00300844)
(0.000852261 -0.00347297 0.00301706)
(0.000984598 -0.0076477 0.0029106)
(0.00114192 -0.012138 0.00269393)
(0.00132393 -0.0166532 0.00238608)
(0.00152629 -0.0209122 0.00201502)
(0.00174352 -0.0246581 0.00161624)
(0.00196856 -0.0276949 0.00122971)
(0.00220878 -0.030041 0.000871211)
(0.0024682 -0.0317818 0.000541476)
(0.00274247 -0.0329668 0.000243785)
(0.00303151 -0.033644 -1.93693e-05)
(0.00333401 -0.0338573 -0.000246822)
(0.00364714 -0.0336417 -0.00043833)
(0.00396676 -0.033021 -0.000594274)
(0.00428771 -0.0320062 -0.000715372)
(0.00460401 -0.0305949 -0.000802308)
(0.0049084 -0.0287697 -0.00085522)
(0.00518754 -0.0264944 -0.000872092)
(0.00542922 -0.023632 -0.000839902)
(0.00561956 -0.0199359 -0.000738331)
(0.00572239 -0.0151714 -0.000539959)
(0.00569856 -0.00907798 -0.000191855)
(0.00550263 -0.00131435 0.000398268)
(0.00506693 0.0084702 0.00132154)
(0.00432309 0.0203115 0.0025229)
(0.00324826 0.033037 0.00361297)
(0.00203228 0.0428416 0.00397282)
(0.000909106 0.0440213 0.00326831)
(0.000124365 0.0262697 0.00142994)
(8.47352e-08 0.00108073 0.000917887)
(0.000152435 0.00165897 0.00203842)
(0.000364499 0.00133362 0.00274175)
(0.000624971 1.01442e-05 0.0031651)
(0.000918292 -0.00222744 0.00339586)
(0.00123603 -0.0052643 0.00347985)
(0.00157294 -0.00895047 0.00343108)
(0.00191805 -0.0130423 0.00325784)
(0.00225752 -0.0172616 0.0029778)
(0.00257698 -0.0213343 0.00261965)
(0.00286441 -0.0250111 0.00222158)
(0.0031103 -0.0280794 0.0018274)
(0.00332457 -0.0304984 0.00146492)
(0.00351731 -0.0323359 0.00113563)
(0.00369988 -0.0336419 0.000840569)
(0.00387778 -0.03446 0.00057821)
(0.00405517 -0.0348306 0.00034559)
(0.00423421 -0.0347875 0.00013967)
(0.00441514 -0.0343547 -4.15567e-05)
(0.00459645 -0.0335449 -0.000198369)
(0.0047753 -0.0323584 -0.000328975)
(0.00494769 -0.0307807 -0.000429449)
(0.00510815 -0.028781 -0.000493942)
(0.00524762 -0.026302 -0.000514127)
(0.0053582 -0.0231378 -0.000469111)
(0.00542749 -0.0189768 -0.000337528)
(0.0054268 -0.0135616 -0.000108859)
(0.00532169 -0.0065525 0.00023418)
(0.00506005 0.00244392 0.000724114)
(0.00458754 0.0136719 0.00139969)
(0.00385505 0.0268082 0.00223736)
(0.00283202 0.0401325 0.00300843)
(0.00173466 0.049346 0.00326731)
(0.000749109 0.0490708 0.00270967)
(7.85843e-05 0.0284356 0.00118555)
(-7.47782e-06 -0.000111499 0.000899886)
(0.000122594 -0.00125282 0.00205214)
(0.000343549 -0.00281778 0.00276977)
(0.000647138 -0.00498733 0.00316262)
(0.00101843 -0.00778871 0.00331197)
(0.00144218 -0.0111649 0.00326698)
(0.00189571 -0.0149453 0.00306335)
(0.00235374 -0.0189055 0.00273972)
(0.00279227 -0.0228113 0.00234029)
(0.00319124 -0.0264491 0.00191199)
(0.00353778 -0.0296417 0.00149925)
(0.00382902 -0.0322595 0.00113599)
(0.00407501 -0.0343158 0.000825847)
(0.00429283 -0.035869 0.000564459)
(0.00448848 -0.0369509 0.000345362)
(0.00466794 -0.0375929 0.000159935)
(0.00483542 -0.0378234 -9.32968e-07)
(0.00499311 -0.0376655 -0.000145418)
(0.00514134 -0.0371354 -0.000279823)
(0.00527883 -0.0362411 -0.000407949)
(0.00540307 -0.0349811 -0.000530644)
(0.00551082 -0.0333423 -0.00064541)
(0.00559766 -0.031298 -0.000746076)
(0.00565187 -0.0287948 -0.00082152)
(0.00566746 -0.0256346 -0.000851257)
(0.00562616 -0.0214894 -0.000798136)
(0.00550803 -0.0160409 -0.000622915)
(0.00529113 -0.00885075 -0.00027633)
(0.00494669 0.000616832 0.000284879)
(0.00443202 0.0127707 0.00106065)
(0.00370132 0.0273071 0.00195166)
(0.00272692 0.0421647 0.00270208)
(0.00169361 0.0523242 0.0029404)
(0.000756328 0.0519706 0.00244105)
(9.78162e-05 0.0298935 0.00106908)
(-9.25253e-06 -0.00115579 0.000829918)
(9.88181e-05 -0.00398793 0.00188906)
(0.00029733 -0.00691839 0.00249744)
(0.000589464 -0.01016 0.00275572)
(0.000958724 -0.0137413 0.00274926)
(0.00138146 -0.017561 0.00255423)
(0.0018285 -0.0214459 0.00224268)
(0.00227215 -0.0252007 0.00188117)
(0.00268977 -0.0286413 0.00152559)
(0.00306354 -0.0316086 0.00121633)
(0.00338448 -0.0340027 0.000974767)
(0.0036621 -0.0358663 0.000797422)
(0.00390704 -0.0372689 0.000670467)
(0.00412649 -0.0382427 0.000580818)
(0.0043268 -0.0388164 0.000515611)
(0.00451227 -0.0390148 0.000463456)
(0.00468552 -0.0388564 0.000415258)
(0.00484773 -0.038353 0.000364386)
(0.00499883 -0.0375091 0.000306483)
(0.00513763 -0.0363212 0.000239132)
(0.00526198 -0.0347775 0.000161609)
(0.00536903 -0.0328565 7.48303e-05)
(0.00545412 -0.0305237 -1.80645e-05)
(0.00550547 -0.0276598 -0.000105953)
(0.00551572 -0.0240187 -0.000179864)
(0.00546308 -0.0193164 -0.00022424)
(0.00532714 -0.0132353 -0.000211992)
(0.00508243 -0.00534012 -9.00675e-05)
(0.00469646 0.00487785 0.00021777)
(0.00413924 0.0177402 0.000768581)
(0.00338781 0.0327857 0.00150935)
(0.00242921 0.0477189 0.00219461)
(0.00147159 0.0572601 0.00244791)
(0.000633453 0.0558132 0.00205748)
(6.10592e-05 0.0315666 0.000896568)
(-1.23244e-06 -0.00204455 0.000642919)
(0.000118815 -0.00628304 0.00142757)
(0.000327733 -0.0103296 0.00182259)
(0.000618973 -0.0143819 0.0019223)
(0.000970488 -0.0184488 0.00182359)
(0.00135699 -0.0224418 0.00161494)
(0.00175452 -0.026236 0.00136856)
(0.00214344 -0.029709 0.0011349)
(0.00250896 -0.0327566 0.000941512)
(0.00284076 -0.0353023 0.000797474)
(0.00314261 -0.037365 0.000696622)
(0.00342101 -0.038999 0.000624031)
(0.0036803 -0.0402279 0.00056879)
(0.00392157 -0.0410689 0.000521246)
(0.00414563 -0.0415372 0.000474292)
(0.00435286 -0.0416461 0.000423467)
(0.00454325 -0.0414061 0.000366675)
(0.00471647 -0.0408241 0.000303727)
(0.00487194 -0.0399022 0.000235822)
(0.0050089 -0.038636 0.00016506)
(0.00512657 -0.0370134 9.40434e-05)
(0.00522382 -0.0350126 2.5558e-05)
(0.00529395 -0.0325984 -3.71553e-05)
(0.00533026 -0.0296227 -8.61406e-05)
(0.00532281 -0.0258173 -0.000109105)
(0.00525405 -0.0209033 -9.50194e-05)
(0.00510686 -0.0145107 -2.65291e-05)
(0.00485921 -0.00613676 0.000128125)
(0.00448344 0.00478917 0.000416137)
(0.00395054 0.0186073 0.000876061)
(0.00323772 0.0347468 0.00147165)
(0.00233103 0.0506063 0.00201456)
(0.00142742 0.060449 0.00219712)
(0.000629203 0.0585872 0.00183533)
(7.0901e-05 0.032851 0.00079945)
(6.00337e-06 -0.00296177 0.000489452)
(0.000149618 -0.00855814 0.00105283)
(0.000388928 -0.0135911 0.00130832)
(0.000706886 -0.0183 0.0013523)
(0.00107676 -0.0227341 0.00127867)
(0.00147497 -0.0268574 0.00116161)
(0.00188207 -0.0306013 0.00104856)
(0.00228262 -0.0338898 0.000961656)
(0.00266214 -0.0366504 0.000904716)
(0.00301418 -0.0388663 0.000873475)
(0.00334037 -0.0405929 0.00085835)
(0.00364287 -0.0418757 0.000850703)
(0.00391923 -0.0427382 0.000842016)
(0.00416974 -0.0432041 0.000825982)
(0.00439496 -0.0432961 0.000798394)
(0.00459539 -0.0430351 0.000756964)
(0.00477153 -0.042438 0.000701021)
(0.00492384 -0.0415162 0.000631179)
(0.00505263 -0.0402746 0.000549019)
(0.00515817 -0.03871 0.000456837)
(0.00524069 -0.0368098 0.000357462)
(0.00529968 -0.0345502 0.000254263)
(0.00532916 -0.0318539 0.00015434)
(0.00532554 -0.0285317 6.27256e-05)
(0.00527632 -0.0243303 -1.17834e-05)
(0.00516839 -0.0189711 -5.93476e-05)
(0.00498486 -0.0120718 -6.01805e-05)
(0.00470141 -0.00313151 2.29696e-05)
(0.00429046 0.00838301 0.000244659)
(0.00372976 0.0227343 0.000648501)
(0.00300786 0.0392377 0.0011984)
(0.00212145 0.0551134 0.00170896)
(0.00127676 0.0644369 0.00189077)
(0.000550179 0.061699 0.00158826)
(4.97317e-05 0.0341945 0.000688958)
(6.67259e-06 -0.00382224 0.000364816)
(0.000148837 -0.0106681 0.000762126)
(0.000388325 -0.0165722 0.000948735)
(0.000704289 -0.0218381 0.00101551)
(0.00106816 -0.0265751 0.00103423)
(0.00145596 -0.0308021 0.00104757)
(0.00184815 -0.0344976 0.00107144)
(0.00222944 -0.0376264 0.00110432)
(0.00258602 -0.0401602 0.00113783)
(0.00291614 -0.0421396 0.00116726)
(0.00322251 -0.0436377 0.00118594)
(0.00350642 -0.0446972 0.00119016)
(0.00376739 -0.0453472 0.00117688)
(0.00400637 -0.0456141 0.00114521)
(0.00422405 -0.0455214 0.00109593)
(0.00442056 -0.0450889 0.00103103)
(0.00459561 -0.0443319 0.000953218)
(0.00474859 -0.0432602 0.000865574)
(0.00487872 -0.0418776 0.000771233)
(0.00498533 -0.0401799 0.000673236)
(0.00506787 -0.0381547 0.000574468)
(0.0051228 -0.0357777 0.000477885)
(0.00514494 -0.032947 0.000388376)
(0.00512939 -0.0294576 0.000311749)
(0.00506598 -0.0250643 0.000254822)
(0.00494602 -0.0194489 0.000224363)
(0.00475673 -0.0121718 0.000231394)
(0.00447823 -0.00267907 0.000297008)
(0.00408484 0.00957467 0.000456816)
(0.00355243 0.0247799 0.000748084)
(0.0028669 0.0420766 0.00115735)
(0.00202329 0.0584212 0.00154698)
(0.00122468 0.067633 0.00167451)
(0.000535556 0.064306 0.00139844)
(5.24327e-05 0.0353427 0.000606056)
(8.21604e-06 -0.00459061 0.000326367)
(0.000147826 -0.0125606 0.000700681)
(0.000382724 -0.0192538 0.000924308)
(0.000689655 -0.0250316 0.00107118)
(0.00103976 -0.0300507 0.00118359)
(0.00140944 -0.0343715 0.00127692)
(0.00178068 -0.038009 0.00135105)
(0.00214089 -0.0409661 0.00140144)
(0.00247859 -0.0432577 0.00142593)
(0.00279682 -0.0449767 0.00142989)
(0.00309942 -0.0462081 0.00141484)
(0.00338431 -0.0469907 0.00138172)
(0.00365184 -0.047357 0.00133209)
(0.00390208 -0.047336 0.00126788)
(0.00413441 -0.0469534 0.00119107)
(0.00434767 -0.0462309 0.0011036)
(0.0045404 -0.0451857 0.00100727)
(0.00471091 -0.0438298 0.000903725)
(0.00485746 -0.0421693 0.000794548)
(0.00497824 -0.0402027 0.000681283)
(0.00507089 -0.0379198 0.000565706)
(0.00512863 -0.0352749 0.000451556)
(0.00514767 -0.0321366 0.000339927)
(0.00511868 -0.0283143 0.00023679)
(0.00503349 -0.0235854 0.000150241)
(0.00488422 -0.0176254 9.30319e-05)
(0.00465937 -0.00997587 8.4684e-05)
(0.00434262 -5.98909e-05 0.000152767)
(0.00391673 0.0126694 0.000328446)
(0.00336786 0.0283524 0.00062905)
(0.00268776 0.0460009 0.00102061)
(0.00187352 0.0623612 0.00137186)
(0.00112405 0.0711151 0.00147853)
(0.000486591 0.0670168 0.00123111)
(4.10896e-05 0.0364986 0.000530902)
(4.47009e-06 -0.0052856 0.000319086)
(0.000119225 -0.0142885 0.000713679)
(0.00031286 -0.0217051 0.000981153)
(0.000566796 -0.0279446 0.00117783)
(0.000857182 -0.0332077 0.00132923)
(0.00116588 -0.0376011 0.00144334)
(0.00148037 -0.0411901 0.0015221)
(0.00179291 -0.0440303 0.0015678)
(0.00209584 -0.046184 0.00158459)
(0.00239105 -0.0477648 0.00158032)
(0.00268108 -0.0488574 0.00156094)
(0.00296102 -0.0495001 0.00152817)
(0.00322977 -0.0497243 0.00148366)
(0.00348614 -0.0495578 0.00142884)
(0.00372848 -0.049025 0.00136493)
(0.00395488 -0.0481465 0.00129302)
(0.00416339 -0.046939 0.00121404)
(0.00435224 -0.0454143 0.00112883)
(0.00452025 -0.0435783 0.00103808)
(0.00466505 -0.0414304 0.000942436)
(0.00477922 -0.0389582 0.000842525)
(0.00485811 -0.036081 0.000738227)
(0.00489532 -0.0326568 0.000630873)
(0.00488195 -0.0285326 0.000523297)
(0.00481212 -0.0234759 0.000420805)
(0.00467699 -0.0171423 0.000332966)
(0.00446398 -0.00904937 0.000277205)
(0.00415854 0.00139686 0.000282068)
(0.00374478 0.0147347 0.000384012)
(0.00321129 0.031044 0.000607786)
(0.00255464 0.0491996 0.000926014)
(0.00177534 0.0657354 0.00121792)
(0.00106651 0.0741961 0.00129957)
(0.000464766 0.069455 0.00107681)
(3.97962e-05 0.0375435 0.000461568)
(7.49642e-06 -0.00585233 0.000329243)
(0.000122819 -0.0156566 0.000765495)
(0.000311112 -0.0236166 0.00107738)
(0.000556405 -0.0302072 0.00130901)
(0.000840177 -0.0356794 0.00147955)
(0.00114848 -0.0401799 0.00159753)
(0.00147045 -0.0438045 0.00166903)
(0.00179755 -0.0466322 0.00170068)
(0.00212021 -0.0487414 0.0016996)
(0.0024364 -0.0502448 0.00167456)
(0.00274642 -0.0512261 0.00163525)
(0.00304339 -0.0517277 0.00158447)
(0.0033246 -0.0517836 0.00152447)
(0.0035884 -0.0514252 0.00145709)
(0.0038331 -0.0506813 0.00138382)
(0.00405713 -0.0495773 0.00130582)
(0.00425926 -0.0481343 0.00122391)
(0.00443881 -0.0463686 0.00113864)
(0.0045945 -0.0442905 0.00105028)
(0.00472194 -0.0418986 0.000958247)
(0.00481639 -0.0391408 0.000861635)
(0.00487319 -0.0359268 0.000758835)
(0.00488505 -0.0321582 0.000650789)
(0.0048476 -0.0276786 0.000540023)
(0.00475473 -0.0222488 0.0004317)
(0.00459738 -0.015516 0.000335766)
(0.004363 -0.00699063 0.000270277)
(0.0040374 0.00392321 0.000263734)
(0.00360872 0.0177444 0.000350009)
(0.00307125 0.0344947 0.000548367)
(0.00242526 0.0529268 0.000828513)
(0.00167409 0.0693914 0.00107951)
(0.00100242 0.077398 0.00114266)
(0.000436103 0.0719248 0.000942576)
(3.47451e-05 0.0385841 0.000402558)
(4.3936e-06 -0.00644311 0.000339116)
(0.000113753 -0.0171041 0.000806367)
(0.000298638 -0.0256845 0.00114489)
(0.000548237 -0.0327279 0.00139184)
(0.00084461 -0.038521 0.00156475)
(0.00117104 -0.0432275 0.00167487)
(0.00151206 -0.0469556 0.00173288)
(0.00185499 -0.0498032 0.00174996)
(0.00218919 -0.0518729 0.00173626)
(0.00250982 -0.0532832 0.0017008)
(0.0028174 -0.0541299 0.00165419)
(0.00310772 -0.0544689 0.00160021)
(0.00337786 -0.0543414 0.00154115)
(0.00362724 -0.0537848 0.00147883)
(0.00385534 -0.0528329 0.00141454)
(0.00406179 -0.0515151 0.0013491)
(0.0042465 -0.0498559 0.00128285)
(0.00440812 -0.0478737 0.00121576)
(0.00454387 -0.0455732 0.00114605)
(0.00465057 -0.0429241 0.00107211)
(0.00472549 -0.0398758 0.000991872)
(0.00476402 -0.0363665 0.000904876)
(0.00476324 -0.0322905 0.000810326)
(0.00471807 -0.0274801 0.00070777)
(0.00462102 -0.0216833 0.000598415)
(0.00446163 -0.0145353 0.000487784)
(0.00422648 -0.00553968 0.000390798)
(0.00390153 0.00589165 0.000336796)
(0.003476 0.020248 0.000366105)
(0.00294699 0.03749 0.000507134)
(0.00231815 0.0562549 0.000736119)
(0.00159631 0.0727228 0.000948116)
(0.00095677 0.080377 0.000997158)
(0.00041779 0.0742495 0.000819403)
(3.29915e-05 0.0395734 0.000347958)
(6.92039e-06 -0.00699114 0.000358326)
(0.000129159 -0.0184614 0.000864514)
(0.000335443 -0.0276577 0.00122985)
(0.000611483 -0.0351706 0.0014873)
(0.000934437 -0.0412932 0.00165537)
(0.00128229 -0.0461874 0.00175009)
(0.00163589 -0.0499735 0.00178807)
(0.0019818 -0.05278 0.00178524)
(0.00231183 -0.0547462 0.00175395)
(0.00262285 -0.0560105 0.00170279)
(0.00291702 -0.0566811 0.00164164)
(0.00319244 -0.056823 0.00157464)
(0.00344657 -0.0564839 0.00150426)
(0.00367937 -0.0557062 0.00143248)
(0.00389087 -0.0545277 0.00136084)
(0.00408092 -0.0529812 0.00129032)
(0.00424765 -0.0510936 0.00122126)
(0.00438943 -0.0488743 0.00115193)
(0.00450414 -0.0463092 0.0010813)
(0.00458975 -0.0433781 0.00100825)
(0.00464412 -0.040047 0.000933291)
(0.00466566 -0.0362464 0.000855958)
(0.00465127 -0.0318605 0.000775299)
(0.00459544 -0.0267109 0.000690342)
(0.00448978 -0.0205343 0.000600724)
(0.00432278 -0.0129566 0.000508667)
(0.00408079 -0.00348038 0.000423409)
(0.00375078 0.00846145 0.000366871)
(0.00332395 0.0233112 0.000373845)
(0.00280038 0.0409541 0.000474448)
(0.00218718 0.05991 0.000655363)
(0.00149623 0.0762153 0.000827499)
(0.000891544 0.083421 0.000862331)
(0.00038556 0.0765716 0.000705006)
(2.70013e-05 0.0405395 0.000297356)
(4.17853e-06 -0.00762276 0.00038099)
(0.000124873 -0.0200651 0.000920486)
(0.0003322 -0.030003 0.00129945)
(0.000609849 -0.0380545 0.00155303)
(0.000931252 -0.0445153 0.0017061)
(0.00127211 -0.0495625 0.00178232)
(0.0016134 -0.0533565 0.00180422)
(0.0019438 -0.0560803 0.00179049)
(0.00225873 -0.0579185 0.0017536)
(0.00255529 -0.0590247 0.00170015)
(0.00283547 -0.059517 0.00163741)
(0.00309905 -0.0594671 0.00157135)
(0.00334276 -0.058927 0.00150409)
(0.00356646 -0.0579426 0.00143726)
(0.0037693 -0.0565544 0.0013723)
(0.00394948 -0.0547965 0.00130785)
(0.00410552 -0.0526831 0.00124306)
(0.0042362 -0.0502161 0.00117695)
(0.00433988 -0.0473993 0.0011091)
(0.00441617 -0.0442199 0.00104025)
(0.00446466 -0.0406367 0.000970222)
(0.00448357 -0.0365705 0.00089788)
(0.00446931 -0.0318939 0.000821671)
(0.00441582 -0.0264145 0.000739867)
(0.00431416 -0.0198554 0.000651139)
(0.00415237 -0.0118329 0.000556571)
(0.00391635 -0.00185058 0.000463938)
(0.00359306 0.010635 0.000393078)
(0.00317484 0.0260159 0.000376103)
(0.00266395 0.0440981 0.000442017)
(0.00207037 0.0632828 0.000581927)
(0.00141121 0.0794663 0.000718899)
(0.000838817 0.0862813 0.000740887)
(0.000361339 0.0787503 0.000602297)
(2.45966e-05 0.0414364 0.000253099)
(5.91525e-06 -0.00822711 0.000403834)
(0.000132306 -0.0215949 0.000971478)
(0.00034513 -0.0322232 0.00135826)
(0.000625246 -0.0407554 0.00160569)
(0.00094524 -0.0474979 0.00174639)
(0.00128134 -0.052655 0.00181009)
(0.00161597 -0.0564351 0.00182236)
(0.00193941 -0.0590717 0.00180243)
(0.00224811 -0.0607846 0.00176229)
(0.00254035 -0.0617434 0.00170813)
(0.00281582 -0.0620676 0.00164362)
(0.00307425 -0.061834 0.00157562)
(0.00331311 -0.0610989 0.00150724)
(0.00352994 -0.059913 0.00143905)
(0.00372369 -0.0583133 0.00137122)
(0.00389305 -0.0563234 0.00130391)
(0.00403648 -0.053967 0.00123631)
(0.00415307 -0.0512608 0.00116979)
(0.00424305 -0.0482083 0.00110536)
(0.00430665 -0.0447935 0.00104324)
(0.00434326 -0.0409683 0.00098259)
(0.00435133 -0.0366447 0.000921885)
(0.00432766 -0.0316824 0.000858969)
(0.00426655 -0.0258736 0.000790933)
(0.00415934 -0.0189254 0.000714414)
(0.00399422 -0.0104434 0.000627538)
(0.00375725 6.33716e-05 0.000534458)
(0.00343605 0.0131039 0.000451405)
(0.00302424 0.0290043 0.000408193)
(0.00252538 0.047477 0.000434964)
(0.00195137 0.0668017 0.000529876)
(0.00132463 0.0827576 0.000629689)
(0.000784404 0.0891295 0.000638366)
(0.000335581 0.0808761 0.000516848)
(2.17134e-05 0.0422951 0.00021957)
(3.94369e-06 -0.00889423 0.000422118)
(0.00012723 -0.0232885 0.00100624)
(0.000336629 -0.0346729 0.00139155)
(0.00061382 -0.0437209 0.00162889)
(0.000931258 -0.0507589 0.00175868)
(0.00126499 -0.0560293 0.00181469)
(0.0015976 -0.0597964 0.00182322)
(0.0019197 -0.0623469 0.00180249)
(0.00222777 -0.0639337 0.00176344)
(0.00252038 -0.0647409 0.00171192)
(0.00279579 -0.0648918 0.00165086)
(0.00305223 -0.0644692 0.00158397)
(0.00328774 -0.063533 0.00151416)
(0.00350024 -0.0621292 0.00144283)
(0.00368805 -0.060297 0.00137008)
(0.00384963 -0.0580704 0.00129778)
(0.00398426 -0.0554773 0.00122784)
(0.00409174 -0.0525361 0.00116167)
(0.0041721 -0.0492513 0.00110014)
(0.00422548 -0.0456048 0.00104333)
(0.00425155 -0.0415443 0.000990379)
(0.00424927 -0.0369736 0.000939759)
(0.00421597 -0.0317402 0.000889096)
(0.00414652 -0.0256198 0.000834675)
(0.00403275 -0.0183016 0.000771478)
(0.00386339 -0.00937768 0.0006951)
(0.00362539 0.0016411 0.000606541)
(0.00330692 0.0152345 0.000518625)
(0.0029023 0.0316681 0.000458105)
(0.0024161 0.0505594 0.00045401)
(0.00186103 0.0700617 0.000509162)
(0.00126316 0.0858365 0.000573541)
(0.000749347 0.0918212 0.000567739)
(0.000321407 0.0828885 0.000458436)
(2.19933e-05 0.04311 0.000199881)
(4.92254e-06 -0.00953723 0.000434638)
(0.000131766 -0.0249143 0.00102907)
(0.000345707 -0.037017 0.00141584)
(0.000627171 -0.0465503 0.0016541)
(0.000947702 -0.0538612 0.00178817)
(0.00128277 -0.0592313 0.00185163)
(0.00161515 -0.0629802 0.00186869)
(0.00193633 -0.0654452 0.00185553)
(0.00224346 -0.0669084 0.0018218)
(0.00253511 -0.0675661 0.001773)
(0.00280939 -0.0675459 0.00171258)
(0.00306406 -0.0669334 0.00164291)
(0.00329681 -0.0657905 0.0015662)
(0.00350549 -0.0641667 0.00148484)
(0.00368823 -0.0621046 0.00140151)
(0.00384361 -0.0596414 0.00131878)
(0.00397075 -0.0568085 0.00123901)
(0.00406928 -0.0536278 0.00116433)
(0.00413942 -0.0501063 0.00109649)
(0.00418151 -0.0462247 0.00103651)
(0.00419566 -0.0419268 0.000984518)
(0.00418128 -0.0371087 0.000939824)
(0.0041362 -0.031605 0.000900439)
(0.00405585 -0.0251743 0.000862096)
(0.00393263 -0.0174867 0.000817737)
(0.00375582 -0.00812075 0.000759026)
(0.00351307 0.00340712 0.000681684)
(0.00319373 0.0175412 0.000593628)
(0.00279355 0.0344803 0.00051899)
(0.00231786 0.0537445 0.000487486)
(0.00177957 0.073366 0.000507451)
(0.0012079 0.0889073 0.000540761)
(0.000717456 0.0944902 0.000522007)
(0.000307705 0.0848674 0.000421306)
(2.13597e-05 0.043911 0.000189563)
(3.2985e-06 -0.0102274 0.000446883)
(0.000127481 -0.0266695 0.00105435)
(0.000338911 -0.0395468 0.00145086)
(0.000618 -0.0495946 0.00170179)
(0.000935759 -0.0571862 0.00185198)
(0.00126752 -0.0626527 0.00193233)
(0.00159667 -0.066379 0.00196428)
(0.00191562 -0.0687569 0.00196241)
(0.00222193 -0.0700969 0.00193571)
(0.0025139 -0.0706058 0.00188954)
(0.00278919 -0.0704148 0.00182747)
(0.0030451 -0.0696108 0.00175242)
(0.00327889 -0.0682577 0.00166713)
(0.00348799 -0.0664075 0.00157439)
(0.00367019 -0.0641063 0.0014771)
(0.00382382 -0.0613961 0.00137834)
(0.0039479 -0.0583134 0.00128124)
(0.00404213 -0.054885 0.0011889)
(0.00410691 -0.0511208 0.00110413)
(0.00414279 -0.047001 0.00102911)
(0.00415019 -0.0424663 0.000965303)
(0.00412882 -0.0374058 0.000913491)
(0.00407685 -0.0316422 0.000873159)
(0.00399004 -0.0249164 0.000841217)
(0.00386102 -0.0168787 0.000810738)
(0.00367935 -0.00709212 0.000771507)
(0.00343322 0.00492469 0.000714709)
(0.00311294 0.0195863 0.000641679)
(0.00271571 0.0370313 0.000569996)
(0.00224797 0.0566855 0.000525973)
(0.00172266 0.0764606 0.000521243)
(0.00117134 0.0918193 0.000529253)
(0.000698178 0.0970513 0.000498122)
(0.000300457 0.0867811 0.000400883)
(2.19626e-05 0.0446928 0.000184398)
(3.53082e-06 -0.0108907 0.000460244)
(0.000127824 -0.0283558 0.00108894)
(0.000338457 -0.0419725 0.00150859)
(0.000615703 -0.0525087 0.00178681)
(0.000931075 -0.0603671 0.00196502)
(0.0012605 -0.0659292 0.00206985)
(0.00158811 -0.0696426 0.00212052)
(0.00190695 -0.0719474 0.00213142)
(0.00221464 -0.0731781 0.00211214)
(0.00250904 -0.0735496 0.00206868)
(0.00278719 -0.0731958 0.00200512)
(0.00304589 -0.0722052 0.00192468)
(0.00328201 -0.0706435 0.00183036)
(0.00349263 -0.0685659 0.00172524)
(0.00367527 -0.0660226 0.00161268)
(0.00382808 -0.0630612 0.00149634)
(0.00395001 -0.0597237 0.00138007)
(0.00404077 -0.056042 0.00126778)
(0.00410084 -0.0520295 0.00116301)
(0.00413087 -0.0476661 0.00106871)
(0.00413162 -0.0428896 0.000987391)
(0.00410326 -0.0375822 0.000921035)
(0.00404444 -0.0315537 0.000870376)
(0.0039514 -0.024527 0.000833398)
(0.00381707 -0.0161316 0.000803608)
(0.00363096 -0.00591619 0.000769982)
(0.00338114 0.0065929 0.00072145)
(0.00305811 0.0217725 0.000656245)
(0.00266012 0.0396965 0.00058852)
(0.0021952 0.0596996 0.000541111)
(0.0016773 0.0795844 0.000524577)
(0.00114103 0.0947295 0.000517857)
(0.000681001 0.0996041 0.000478578)
(0.00029281 0.0886818 0.000383169)
(2.16614e-05 0.0454712 0.000177478)
(2.45663e-06 -0.0115829 0.00047918)
(0.000124508 -0.0301229 0.00114194)
(0.000332126 -0.0445193 0.0015961)
(0.000606796 -0.0555728 0.00190789)
(0.000920647 -0.0637176 0.00211434)
(0.00124973 -0.0693888 0.00223957)
(0.00157832 -0.0730998 0.00230326)
(0.00189958 -0.07534 0.00232145)
(0.00221095 -0.076467 0.00230514)
(0.00250968 -0.0767041 0.00226123)
(0.00279228 -0.0761873 0.0021943)
(0.00305516 -0.075007 0.00210782)
(0.00329488 -0.073231 0.00200487)
(0.00350828 -0.0709178 0.00188854)
(0.00369267 -0.0681225 0.00176222)
(0.00384606 -0.0648985 0.00162968)