/*--------------------------------*- C++ -*----------------------------------*\
| =========                 |                                                 |
| \\      /  F ield         | OpenFOAM: The Open Source CFD Toolbox           |
|  \\    /   O peration     | Version:  v2012                                 |
|   \\  /    A nd           | Website:  www.openfoam.com                      |
|    \\/     M anipulation  |                                                 |
\*---------------------------------------------------------------------------*/
FoamFile
{
    version     2.0;
    format      ascii;
    class       volVectorField;
    location    "300/bottomAir";
    object      U;
}
// * * * * * * * * * * * * * * * * * * * * * * * * * * * * * * * * * * * * * //

dimensions      [0 1 -1 0 0 0 0];


internalField   nonuniform List<vector> 
1460
(
(0.008610851 -0.01291145 0.0008140093)
(0.01974349 -0.008155975 0.001459577)
(0.02627327 -0.003378542 0.001497583)
(0.02753876 -0.0001103988 0.001274428)
(0.02543465 0.001544524 0.00102547)
(0.02225357 0.002117844 0.0008157424)
(0.01908167 0.00213118 0.0006319948)
(0.01633997 0.001916803 0.0004616957)
(0.01413378 0.001656831 0.0003053068)
(0.01237718 0.00143003 0.0001740335)
(0.01088653 0.001235538 7.978956e-05)
(0.009432523 0.001029514 3.780945e-05)
(0.007795169 0.0008211236 1.894067e-05)
(0.005639065 0.0007456592 -1.497032e-05)
(0.003005013 0.0009444474 -0.0003985691)
(-0.0002153775 0.001302485 -0.0005879188)
(-0.003394601 0.001323672 -0.0003275521)
(-0.005921831 0.001240897 -0.0001571146)
(-0.007936734 0.001295181 -9.516412e-05)
(-0.009648684 0.001400292 -2.489029e-05)
(-0.0113327 0.001538947 8.40632e-05)
(-0.01323002 0.001729831 0.0002309896)
(-0.0155373 0.001955908 0.0004083453)
(-0.01834956 0.002136633 0.0006056339)
(-0.02157221 0.002087317 0.0008213976)
(-0.0247871 0.001474601 0.001065805)
(-0.02689609 -0.0002130872 0.001346938)
(-0.02565705 -0.003474897 0.001589949)
(-0.01924527 -0.008157897 0.001558397)
(-0.008356066 -0.0127122 0.0009145636)
(0.004719341 -0.02681819 3.024913e-05)
(0.01289082 -0.01882118 0.001121186)
(0.01748233 -0.009231019 0.001549946)
(0.01918834 -0.002017388 0.001548807)
(0.01861251 0.002040144 0.001395179)
(0.01734597 0.003430252 0.00126996)
(0.0163674 0.003297902 0.001181849)
(0.01551563 0.002584533 0.001135207)
(0.0145694 0.001817964 0.001143407)
(0.01331717 0.00126643 0.001206719)
(0.01154104 0.001074399 0.001281311)
(0.009118212 0.001296774 0.001287762)
(0.006184507 0.001881365 0.001049573)
(0.003035661 0.002613257 0.0004582633)
(0.0005005147 0.003253684 -0.0005961754)
(-0.001102792 0.003609912 -0.0006681376)
(-0.003054064 0.003299322 0.0003176214)
(-0.005727749 0.002534879 0.0009685996)
(-0.008398601 0.001890381 0.001256034)
(-0.01069685 0.001577906 0.001287206)
(-0.01246453 0.00165943 0.001229679)
(-0.0137778 0.002096043 0.001174039)
(-0.01479899 0.002753441 0.001171281)
(-0.01570798 0.003369102 0.001224204)
(-0.01672737 0.003411087 0.001323772)
(-0.01799891 0.001936591 0.00146604)
(-0.01849875 -0.002172614 0.00163204)
(-0.01685804 -0.009309022 0.001621023)
(-0.01240205 -0.01866807 0.001177727)
(-0.004540262 -0.0262615 0.000103742)
(0.0002039763 -0.03425312 -0.000394287)
(0.001347715 -0.02479516 0.001089148)
(0.0002090464 -0.01253226 0.002093555)
(-0.0001273418 -0.003476009 0.002610906)
(0.0007027894 0.0008576264 0.002469003)
(0.001670935 0.002367704 0.002121529)
(0.002186189 0.002825759 0.001967064)
(0.002131553 0.003131125 0.002016615)
(0.001422646 0.003608608 0.002202258)
(0.0001749223 0.004282657 0.002498985)
(-0.001346733 0.004926384 0.002763766)
(-0.002675171 0.005191456 0.002783373)
(-0.003396465 0.00504471 0.002463641)
(-0.003198232 0.004635614 0.001914973)
(-0.002058728 0.004500989 0.001153134)
(-0.0002427769 0.004543048 0.001049649)
(0.001158743 0.004797201 0.001769426)
(0.001692418 0.005096035 0.002366004)
(0.001392154 0.005156288 0.002718316)
(0.0004948644 0.004866277 0.002734102)
(-0.0006066496 0.004257723 0.002533121)
(-0.00150666 0.003645569 0.002293976)
(-0.001984502 0.003156593 0.002118048)
(-0.001884112 0.002794967 0.002056771)
(-0.001294732 0.002250004 0.002198004)
(-0.0002392984 0.0006215248 0.002537298)
(0.0004313196 -0.003742359 0.002643672)
(1.721761e-05 -0.0125617 0.002112166)
(-0.001154195 -0.02447309 0.001088223)
(-0.0001979771 -0.03340439 -0.0003508608)
(-0.005129376 -0.02885328 -0.001076012)
(-0.01211708 -0.01964152 0.0005529262)
(-0.019103 -0.01117411 0.001788176)
(-0.02280065 -0.006769003 0.002473256)
(-0.02483561 -0.004994349 0.002735678)
(-0.0259377 -0.004354315 0.002746373)
(-0.02648419 -0.004382219 0.002590058)
(-0.02654399 -0.004939868 0.002324536)
(-0.02604579 -0.005890366 0.001938027)
(-0.02482211 -0.007115483 0.001368604)
(-0.02273452 -0.008497599 0.0005677783)
(-0.01971168 -0.009894504 -0.000437419)
(-0.01565112 -0.01106209 -0.001501446)
(-0.01055758 -0.01161512 -0.002303635)
(-0.005098404 -0.01120812 -0.003159274)
(0.003235605 -0.01124643 -0.003239791)
(0.008839852 -0.01175591 -0.002422652)
(0.01397783 -0.01130128 -0.001637198)
(0.0181374 -0.01019119 -0.0005735482)
(0.02126961 -0.00882055 0.000427227)
(0.02347158 -0.007440265 0.00122855)
(0.02482435 -0.006205356 0.00180994)
(0.02547058 -0.005246962 0.002209216)
(0.02555885 -0.004682199 0.002478734)
(0.02514331 -0.004643885 0.002626406)
(0.02415155 -0.00525233 0.002606446)
(0.02220181 -0.007002474 0.00234566)
(0.01859302 -0.01128388 0.001679068)
(0.01179993 -0.01942522 0.0004756)
(0.004922184 -0.02811869 -0.001068412)
(-0.0118074 -0.01497776 -0.002793946)
(-0.02365616 -0.009319577 -0.002126397)
(-0.03191047 -0.005798521 -0.001745024)
(-0.03602758 -0.004225178 -0.001841068)
(-0.03830484 -0.00361808 -0.002297506)
(-0.03937028 -0.00347462 -0.003018363)
(-0.03955841 -0.003550582 -0.003976842)
(-0.0389889 -0.003717321 -0.005172661)
(-0.0376681 -0.003880313 -0.006622422)
(-0.03548148 -0.003964726 -0.008345909)
(-0.0322274 -0.003907635 -0.01033956)
(-0.02765056 -0.003640227 -0.01252954)
(-0.02146277 -0.003095853 -0.01469882)
(-0.01403465 -0.002179203 -0.01616959)
(-0.0068223 -0.0003772647 -0.01828647)
(0.00497355 7.007113e-05 -0.01858905)
(0.01253864 -0.001779895 -0.01644879)
(0.02012182 -0.002810063 -0.01499837)
(0.02646046 -0.003476217 -0.01280309)
(0.03112747 -0.003835009 -0.01059711)
(0.03443587 -0.00395535 -0.008590212)
(0.03666068 -0.00391127 -0.006852953)
(0.038011 -0.003776525 -0.00539026)
(0.03860099 -0.003631795 -0.004184101)
(0.03842499 -0.003571811 -0.003217139)
(0.03737119 -0.003722658 -0.00248749)
(0.03511352 -0.004322514 -0.002017986)
(0.03103718 -0.00585119 -0.001898376)
(0.02294614 -0.009244341 -0.002239567)
(0.01135674 -0.01460022 -0.002820481)
(0.00888173 -0.01249396 0.001908281)
(0.02073137 -0.007264536 0.002289363)
(0.02807613 -0.002622806 0.00198197)
(0.03043425 0.0004203944 0.001518176)
(0.02954221 0.001963385 0.001195284)
(0.02746457 0.002522495 0.001006084)
(0.0251258 0.002561882 0.0008944012)
(0.02291304 0.002361914 0.0008287487)
(0.02096091 0.00206569 0.0008121574)
(0.01925043 0.00172184 0.000882334)
(0.01767706 0.001298063 0.001103538)
(0.01602895 0.0007296066 0.001588792)
(0.01402287 5.758925e-06 0.002435718)
(0.01082943 -0.0005707303 0.003753614)
(0.006279564 -0.0005874975 0.004562518)
(-0.001636314 -1.187906e-06 0.004593364)
(-0.007940002 0.0001504287 0.003561449)
(-0.01173072 0.0003889574 0.002363565)
(-0.01429894 0.0009034708 0.001519737)
(-0.01625148 0.001355606 0.00105553)
(-0.01803834 0.00171416 0.0008591521)
(-0.01989016 0.002016026 0.0008255933)
(-0.0219406 0.002279909 0.0008890123)
(-0.02422395 0.002453339 0.001009837)
(-0.02661877 0.002392275 0.001184137)
(-0.02874479 0.00181596 0.001440664)
(-0.02967399 0.0002674748 0.001826469)
(-0.02738501 -0.002744487 0.002324559)
(-0.0201962 -0.007276071 0.002627592)
(-0.008627387 -0.01228552 0.002196785)
(0.004320229 -0.02641168 0.001393956)
(0.01351294 -0.01749692 0.002623121)
(0.01915472 -0.008168235 0.002768332)
(0.02218067 -0.001536124 0.002392573)
(0.02293225 0.002137604 0.002069314)
(0.02284096 0.003424834 0.00192911)
(0.02274337 0.00334935 0.001895791)
(0.02258264 0.002661618 0.001956255)
(0.02220255 0.001763752 0.002131818)
(0.0214 0.0008783394 0.002450388)
(0.01992772 0.0001432032 0.002902958)
(0.01747064 -0.0003334557 0.003479314)
(0.01385474 -0.0004642364 0.003899919)
(0.008848436 -6.849501e-06 0.004189434)
(0.003193149 0.0015513 0.003011746)
(-0.003794859 0.002367885 0.002648218)
(-0.00859412 0.001053466 0.003673888)
(-0.0130933 0.0002336801 0.003665546)
(-0.01650994 0.0001520989 0.003375995)
(-0.01891707 0.0004572392 0.002890775)
(-0.02043408 0.001047411 0.002476916)
(-0.0213121 0.001811205 0.002177555)
(-0.02176689 0.002614891 0.002018258)
(-0.0219879 0.00323642 0.001977368)
(-0.022135 0.003270669 0.002038281)
(-0.02226014 0.0019616 0.002216425)
(-0.02150556 -0.001693975 0.00257637)
(-0.01856107 -0.008221661 0.002944235)
(-0.01305786 -0.0173168 0.0027639)
(-0.004192285 -0.02582041 0.001515197)
(-0.0009113239 -0.03412027 0.001092253)
(0.001032669 -0.02337668 0.003332443)
(0.0009998172 -0.01109823 0.004586898)
(0.002228676 -0.002577012 0.004989464)
(0.004575643 0.001696102 0.00461854)
(0.006319111 0.003381627 0.004287932)
(0.007252968 0.003850736 0.004343654)
(0.007639695 0.004056635 0.004718672)
(0.007306121 0.004438349 0.005360168)
(0.00629694 0.005073001 0.006258592)
(0.004729713 0.005816978 0.00734216)
(0.00265198 0.006329801 0.008477777)
(0.0003999909 0.006219308 0.008939907)
(-0.001318124 0.005694227 0.008373387)
(-0.001611766 0.005727815 0.006114759)
(-0.001771918 0.005864396 0.005887429)
(-0.00161908 0.005827012 0.007956524)
(-0.002574039 0.00623503 0.008497539)
(-0.004153175 0.00634984 0.008116364)
(-0.005683818 0.005902093 0.007129914)
(-0.006825065 0.005202144 0.006169431)
(-0.007514148 0.004567201 0.00535411)
(-0.007629422 0.004143797 0.004751989)
(-0.007108101 0.003879625 0.004393226)
(-0.006110952 0.003355305 0.004350305)
(-0.004298859 0.001626804 0.0047138)
(-0.002066234 -0.0026661 0.005068817)
(-0.0008916664 -0.01105219 0.004619236)
(-0.0009325714 -0.02300505 0.003314043)
(0.0008346418 -0.03323615 0.001098982)
(-0.007014889 -0.02879977 0.0004153098)
(-0.01377274 -0.01855357 0.002995292)
(-0.02006149 -0.01003443 0.004970947)
(-0.02249419 -0.005687528 0.006253882)
(-0.02326043 -0.003794951 0.006971316)
(-0.02295103 -0.00288306 0.007371369)
(-0.02235081 -0.002641484 0.00766268)
(-0.02180054 -0.002944442 0.007957347)
(-0.0211699 -0.003610212 0.008169936)
(-0.02030398 -0.004539967 0.00815409)
(-0.01899879 -0.005623682 0.007731948)
(-0.01700982 -0.006681318 0.006714442)
(-0.01378488 -0.007330396 0.004879422)
(-0.009143793 -0.006138978 0.002620835)
(-0.003999213 -0.001614553 -0.001772145)
(0.001227768 -0.0012202 -0.001977324)
(0.006632012 -0.006292373 0.002802885)
(0.01152437 -0.007587454 0.00489075)
(0.01496201 -0.006972471 0.006565286)
(0.01715269 -0.005908928 0.007483168)
(0.01866914 -0.004804657 0.007867839)
(0.01974935 -0.003851076 0.007889419)
(0.02058892 -0.00316322 0.007697409)
(0.02132289 -0.00283868 0.007422214)
(0.02207524 -0.003054295 0.007142602)
(0.02247828 -0.003914613 0.006745961)
(0.02180487 -0.005765862 0.006032118)
(0.01945671 -0.01002044 0.004763996)
(0.013359 -0.01828361 0.002812538)
(0.006718778 -0.02806502 0.0003196659)
(-0.01506107 -0.01457116 -0.002394735)
(-0.02805214 -0.007870046 -0.00222057)
(-0.03685305 -0.003996554 -0.002577009)
(-0.0408517 -0.00211718 -0.003362812)
(-0.0428443 -0.001112163 -0.004509199)
(-0.04356936 -0.0004448126 -0.006000416)
(-0.043454 0.0001590517 -0.007877127)
(-0.04267959 0.0008184462 -0.01018867)
(-0.04128873 0.001627136 -0.01300124)
(-0.03917389 0.00269423 -0.01640765)
(-0.03609827 0.004097392 -0.02049251)
(-0.03171327 0.005836539 -0.02524049)
(-0.02528115 0.007742295 -0.03018008)
(-0.01765928 0.009661583 -0.03267647)
(-0.009086215 0.01280399 -0.03600774)
(0.006832617 0.01366888 -0.03640966)
(0.01616755 0.01056315 -0.03335981)
(0.0240186 0.008427865 -0.03079625)
(0.03059709 0.006310264 -0.02572805)
(0.03506036 0.00441543 -0.02091705)
(0.03818235 0.002901532 -0.01680334)
(0.04031944 0.001753129 -0.01337865)
(0.04171461 0.0008841803 -0.01055084)
(0.04248102 0.0001829717 -0.00822804)
(0.04258111 -0.0004435992 -0.006342046)
(0.04184529 -0.001122752 -0.004840734)
(0.03985946 -0.00213018 -0.003683933)
(0.03589646 -0.003985372 -0.002879882)
(0.02725922 -0.007762392 -0.002488631)
(0.01452041 -0.01420148 -0.002565011)
(0.008736564 -0.01130045 0.0009274689)
(0.02047763 -0.006343041 0.0007053804)
(0.0279129 -0.002127152 0.0001302267)
(0.03061432 0.0006029982 -0.0003627319)
(0.03024742 0.001981288 -0.0005402719)
(0.0286846 0.002470656 -0.0004905109)
(0.02680237 0.002485892 -0.0002699547)
(0.02498962 0.002276445 0.000100287)
(0.02341976 0.001953647 0.0006470922)
(0.02212082 0.001533956 0.001481454)
(0.02106763 0.0009344903 0.002804468)
(0.0201193 9.079522e-05 0.005041619)
(0.01893734 -0.0008162609 0.008740086)
(0.01584005 -0.000471669 0.0140598)
(0.00985739 0.001140029 0.01818183)
(-0.004058775 0.002213067 0.01869374)
(-0.01280389 0.0004096165 0.01432821)
(-0.01656499 -0.0005316869 0.009046884)
(-0.01837377 0.0001566042 0.005223721)
(-0.01958258 0.0009246639 0.002992092)
(-0.0208209 0.001497861 0.001699241)
(-0.0222348 0.001904238 0.0009201233)
(-0.02388201 0.002218934 0.0004433185)
(-0.02574684 0.002425937 0.0001531267)
(-0.02767659 0.002411205 1.323373e-05)
(-0.02928812 0.001930424 3.951388e-05)
(-0.02971783 0.0005756324 0.0002763776)
(-0.0271259 -0.002104871 0.0007777048)
(-0.01989356 -0.006220032 0.001301494)
(-0.008462851 -0.01098841 0.001397271)
(0.00450899 -0.0248197 0.001837011)
(0.01407257 -0.01623177 0.002233861)
(0.02014531 -0.007617847 0.002003339)
(0.02356263 -0.001635711 0.001556592)
(0.02486157 0.001682266 0.001307877)
(0.02518266 0.002889896 0.001334302)
(0.02541643 0.002849871 0.001525073)
(0.02560923 0.002200722 0.001870252)
(0.02566139 0.001283939 0.002403907)
(0.02537876 0.0002908131 0.003197028)
(0.02453959 -0.0006562045 0.004310485)
(0.02263125 -0.001301618 0.005864778)
(0.01969513 -0.001039087 0.007586086)
(0.01461942 0.002502452 0.009074443)
(0.007568521 0.009066785 0.007856941)
(-0.006185894 0.01078963 0.007320874)
(-0.01360188 0.004108449 0.008206262)
(-0.01856459 -0.000333598 0.0071309)
(-0.02160404 -0.0009648028 0.005604249)
(-0.02354429 -0.0004904613 0.004185027)
(-0.02446799 0.0003488646 0.003141836)
(-0.02483072 0.001266113 0.002393494)
(-0.0248482 0.002133057 0.001895346)
(-0.02470813 0.002758638 0.001584166)
(-0.0245141 0.00280261 0.001427799)
(-0.02422316 0.001633592 0.001439586)
(-0.02295946 -0.001603564 0.001718823)
(-0.01960142 -0.007460882 0.002168709)
(-0.01364553 -0.01585496 0.002362023)
(-0.004379094 -0.02408369 0.001918256)
(-0.0004737336 -0.0327354 0.002606249)
(0.002412042 -0.02219652 0.003791425)
(0.003355503 -0.01063806 0.004657129)
(0.00513355 -0.002784617 0.004853446)
(0.007502413 0.001384357 0.004564717)
(0.009261474 0.003021982 0.004589024)
(0.0104939 0.003370134 0.004951991)
(0.01130034 0.003407248 0.005606648)
(0.01153593 0.003580294 0.006581714)
(0.01118331 0.004006638 0.007930216)
(0.01030761 0.004668849 0.009589147)
(0.008520433 0.005489464 0.01135098)
(0.006478188 0.006903843 0.01122358)
(0.004504231 0.01101404 0.00742351)
(0.002351948 0.01783425 0.0001763049)
(-0.004289638 0.01870411 -0.000429147)
(-0.006577517 0.01165222 0.006019385)
(-0.00817304 0.006986373 0.01007369)
(-0.009797745 0.005433229 0.01048797)
(-0.01111714 0.004697751 0.009010031)
(-0.01167107 0.004104513 0.007533951)
(-0.01179651 0.003691204 0.006311547)
(-0.01142099 0.003500308 0.005416045)
(-0.01053692 0.003442435 0.004813559)
(-0.009265659 0.003090308 0.004494177)
(-0.007527205 0.001470699 0.004526852)
(-0.00515894 -0.002667874 0.004826031)
(-0.003379962 -0.01039446 0.004583704)
(-0.002377278 -0.02165393 0.003674814)
(0.0003936138 -0.03173162 0.00249339)
(-0.00630768 -0.02835405 0.002781148)
(-0.01182569 -0.01814231 0.004087097)
(-0.01698724 -0.009528046 0.005763005)
(-0.01848258 -0.005066816 0.007032542)
(-0.01846301 -0.003061543 0.007761308)
(-0.01734824 -0.002086056 0.008235676)
(-0.01636742 -0.001799528 0.008585664)
(-0.01563661 -0.00201597 0.008811741)
(-0.01502406 -0.00251257 0.00877457)
(-0.01442045 -0.003007953 0.008107858)
(-0.01361338 -0.002931932 0.006238713)
(-0.01240287 -0.001329988 0.00241569)
(-0.009361923 0.003609002 -0.004508756)
(-0.005922595 0.01095581 -0.01025452)
(-0.001681294 0.02106026 -0.01689382)
(-0.0003666914 0.02229795 -0.0173992)
(0.003829982 0.01195867 -0.01107629)
(0.007545003 0.003936651 -0.005388607)
(0.01057088 -0.001663024 0.00164847)
(0.01191535 -0.003339802 0.005559262)
(0.01285299 -0.00334538 0.007505129)
(0.01359003 -0.002767451 0.008239279)
(0.01433675 -0.002205638 0.00833781)
(0.01519141 -0.001938657 0.008165535)
(0.01630527 -0.002163735 0.007849835)
(0.01755021 -0.003080434 0.007418236)
(0.01768678 -0.005030814 0.006706522)
(0.01631181 -0.00939844 0.005446248)
(0.01137866 -0.01777934 0.003785194)
(0.006018498 -0.02755737 0.002527109)
(-0.01470948 -0.01420702 0.0006151595)
(-0.02756174 -0.006899979 -0.0009599022)
(-0.03629973 -0.002587566 -0.00233227)
(-0.0403725 -0.0003279967 -0.00376502)
(-0.04254798 0.001084246 -0.005394653)
(-0.04359361 0.002192015 -0.007327039)
(-0.04393787 0.003259574 -0.009651037)
(-0.0438567 0.004431843 -0.01251661)
(-0.04345455 0.005857607 -0.01608301)
(-0.04260394 0.007661919 -0.02050342)
(-0.04098443 0.009930104 -0.02598328)
(-0.03788405 0.01265171 -0.03264145)
(-0.03071745 0.01562841 -0.03936681)
(-0.02247971 0.01859202 -0.03973504)
(-0.01146808 0.02544636 -0.04421692)
(0.008596205 0.0270661 -0.04481868)
(0.02101939 0.01984643 -0.04064222)
(0.02991968 0.01641827 -0.04014377)
(0.03724465 0.01320839 -0.03335775)
(0.04034438 0.01034743 -0.02661385)
(0.04194023 0.007970916 -0.02106404)
(0.04276402 0.006074026 -0.01659365)
(0.04313184 0.004572162 -0.01298647)
(0.04317152 0.003340311 -0.01008526)
(0.04276687 0.002227364 -0.007718674)
(0.04167654 0.001097 -0.005756852)
(0.03948026 -0.0003181065 -0.004116383)
(0.03542531 -0.002552374 -0.002685233)
(0.02683331 -0.006769135 -0.001324126)
(0.01421635 -0.01381965 0.0002602949)
(0.008728619 -0.01171001 -0.0006195373)
(0.02040683 -0.007176009 -0.001092863)
(0.02801047 -0.003200516 -0.001514521)
(0.0309962 -0.0004905626 -0.001708898)
(0.03104289 0.001037921 -0.001606369)
(0.02977895 0.001710014 -0.001296738)
(0.02817193 0.001883685 -0.0008593785)
(0.02670045 0.001790405 -0.0003014089)
(0.02565017 0.00152508 0.0004261244)
(0.02523792 0.001061069 0.001459572)
(0.0258014 0.0002753395 0.003037648)
(0.02754412 -0.0005650424 0.005757446)
(0.02961749 0.0005679339 0.009779507)
(0.02667323 0.01102372 0.0131201)
(0.0172055 0.02289932 0.01785578)
(-0.01063195 0.02541373 0.01879465)
(-0.02376397 0.01276558 0.01393823)
(-0.0273074 0.0008870251 0.01080315)
(-0.02593366 -0.0005650553 0.006407502)
(-0.02433139 0.0002448736 0.00351463)
(-0.02389641 0.001051883 0.001867371)
(-0.02438232 0.001538645 0.0008219469)
(-0.02547998 0.001823191 0.0001172071)
(-0.02698497 0.001935135 -0.0003996337)
(-0.02861538 0.001791809 -0.000783689)
(-0.029917 0.00116915 -0.001038634)
(-0.02995239 -0.0002903986 -0.001102973)
(-0.02710283 -0.002917145 -0.0008955292)
(-0.01975017 -0.00678167 -0.000498169)
(-0.008420729 -0.01116828 -0.0001285669)
(0.004781889 -0.02496868 0.001371602)
(0.01443481 -0.01697668 0.001431856)
(0.02059308 -0.008878591 0.001175634)
(0.02405626 -0.003274577 0.0008703032)
(0.02578413 2.249062e-06 0.000749141)
(0.02637847 0.00146727 0.0009135962)
(0.0268568 0.001732312 0.001190543)
(0.02739423 0.001342292 0.001573183)
(0.02796639 0.0006041019 0.002080647)
(0.02844205 -0.0003135439 0.002749852)
(0.02870249 -0.001241578 0.003461435)
(0.02808797 -0.001153153 0.004371918)
(0.02606452 0.004890736 0.002923597)
(0.02004571 0.02866861 0.007301162)
(0.01211569 0.05097323 0.0115677)
(-0.007987297 0.05447086 0.01226651)
(-0.01769174 0.03191666 0.007732603)
(-0.02412933 0.00585776 0.003287246)
(-0.02687432 -0.0008889533 0.004478967)
(-0.02768274 -0.001138905 0.003517817)
(-0.02758328 -0.0002527277 0.002790655)
(-0.02721023 0.0006475612 0.002124996)
(-0.0267153 0.001383264 0.001629973)
(-0.02623046 0.00178986 0.001266542)
(-0.02578392 0.00157066 0.001014022)
(-0.02521827 0.0001920996 0.0008758992)
(-0.02353445 -0.002975631 0.001009897)
(-0.02010417 -0.00844456 0.001304867)
(-0.01403307 -0.01632806 0.001525876)
(-0.004647681 -0.02401079 0.001425484)
(0.0001330266 -0.03266714 0.002554943)
(0.003690629 -0.02264221 0.003201976)
(0.005071587 -0.01159368 0.003708465)
(0.007012963 -0.004133428 0.003801618)
(0.008703372 5.027831e-05 0.003744544)
(0.01072021 0.001893325 0.003921997)
(0.01231629 0.002513016 0.00437952)
(0.01376372 0.002740043 0.005041292)
(0.01495519 0.003013252 0.005945913)
(0.01579925 0.003525109 0.007144465)
(0.01627393 0.00456319 0.008358884)
(0.01491154 0.007345586 0.009225065)
(0.01186883 0.01707995 0.00315411)
(0.008543229 0.04499798 0.004639103)
(0.006301587 0.07167513 0.00679949)
(-0.004378904 0.07564403 0.007255123)
(-0.007618877 0.04871831 0.004428916)
(-0.01144165 0.01795163 0.002535932)
(-0.01522069 0.007423326 0.008469505)
(-0.01662476 0.004551513 0.007788648)
(-0.01612804 0.003566881 0.006728817)
(-0.0152392 0.003091672 0.005646879)
(-0.01403253 0.002837114 0.004820306)
(-0.01258232 0.002627342 0.00421501)
(-0.01097928 0.002047344 0.003805158)
(-0.009021233 0.0002674912 0.003651977)
(-0.007207657 -0.00383242 0.00371567)
(-0.005214851 -0.01114188 0.003586958)
(-0.003705809 -0.0218881 0.003046115)
(-0.0002130509 -0.03148906 0.002405992)
(-0.005372867 -0.02866357 0.003153378)
(-0.00974158 -0.01870742 0.003877546)
(-0.01403079 -0.009824142 0.005073887)
(-0.01478569 -0.004941599 0.006071388)
(-0.01412335 -0.002620586 0.006625513)
(-0.01282826 -0.001572222 0.006927853)
(-0.01136244 -0.001252901 0.007275759)
(-0.01013946 -0.001401073 0.007501443)
(-0.009215757 -0.001688263 0.007374501)
(-0.008778253 -0.001484006 0.006425117)
(-0.00902932 0.0007497562 0.003875175)
(-0.0109394 0.007400653 -0.000593872)
(-0.009806665 0.02323307 -0.008552743)
(-0.008248302 0.04481338 -0.00224547)
(-0.001378963 0.06889439 -0.001537505)
(0.001305712 0.07265103 -0.001177345)
(0.008143195 0.04813651 -0.002504871)
(0.009899193 0.02424029 -0.009024388)
(0.01039335 0.007761415 -0.001416046)
(0.008219694 0.0006215797 0.003031319)
(0.007805813 -0.00169579 0.005711484)
(0.008152481 -0.001845447 0.006779514)
(0.009038302 -0.001491195 0.006994986)
(0.01026261 -0.001287595 0.006834438)
(0.01174104 -0.00155348 0.006544117)
(0.01314728 -0.002566071 0.006303641)
(0.01392298 -0.004827297 0.005768207)
(0.01330662 -0.009599121 0.004764252)
(0.009278366 -0.01824053 0.003562064)
(0.005090638 -0.02776731 0.002872005)
(-0.01394949 -0.01428993 0.00204947)
(-0.0265393 -0.006559364 0.0005064861)
(-0.03524186 -0.00177414 -0.0008777169)
(-0.03937755 0.0009066169 -0.002196827)
(-0.04168198 0.002690003 -0.003610997)
(-0.04289944 0.004060527 -0.005205438)
(-0.04384984 0.005457833 -0.007188307)
(-0.0447927 0.007176452 -0.009701383)
(-0.0458802 0.009399514 -0.01290688)
(-0.04709512 0.0123318 -0.01703168)
(-0.04805817 0.01622904 -0.02242868)
(-0.04687894 0.02143836 -0.02898097)
(-0.03603987 0.02854402 -0.03343444)
(-0.02806382 0.03437178 -0.02173622)
(-0.0143513 0.04960845 -0.02167313)
(0.01099757 0.05287494 -0.02143033)
(0.0271709 0.03664168 -0.02207032)
(0.03626462 0.02940065 -0.033743)
(0.04698425 0.02188037 -0.02943324)
(0.04807243 0.01654071 -0.02293448)
(0.04693725 0.01258016 -0.01751307)
(0.04555825 0.009585165 -0.0133447)
(0.04433711 0.007300656 -0.01009157)
(0.0432782 0.005530284 -0.007531374)
(0.04222537 0.00408958 -0.005507341)
(0.04092148 0.00269522 -0.00389015)
(0.03855853 0.0009151838 -0.002479275)
(0.0344138 -0.001727802 -0.00118538)
(0.02584708 -0.006401421 0.0001558846)
(0.01347784 -0.01385877 0.001691489)
(0.008676942 -0.01300727 -0.0004625406)
(0.02032097 -0.008834773 -0.0007028026)
(0.02807921 -0.004890125 -0.000875236)
(0.03128967 -0.002053707 -0.0009402172)
(0.03161708 -0.0002318095 -0.0008877709)
(0.03054296 0.0007596921 -0.0007505849)
(0.02904875 0.00117662 -0.0005600004)
(0.02770866 0.001229161 -0.0003237448)
(0.0269185 0.0009783141 -2.947558e-05)
(0.02703964 0.0003592601 0.0003898714)
(0.02881066 -0.0006069403 0.00104532)
(0.03160558 0.001362881 0.002394817)
(0.0275269 0.02523726 0.004416182)
(-0.02682119 0.02514668 0.005489294)
(-0.03081234 0.001392662 0.003152642)
(-0.02777879 -0.0006137257 0.001573809)
(-0.02589031 0.0003661849 0.0008125842)
(-0.02570329 0.001015534 0.0003483369)
(-0.02646263 0.001297293 4.326716e-05)
(-0.02778626 0.001284292 -0.0001858504)
(-0.0292827 0.0009237873 -0.0003653911)
(-0.03040047 8.599783e-06 -0.0004958753)
(-0.03015481 -0.001724563 -0.0005522245)
(-0.02710183 -0.004459569 -0.0005094034)
(-0.01962069 -0.008277684 -0.0003770216)
(-0.008351493 -0.01230675 -0.0002032804)
(0.004833646 -0.02614325 0.000593882)
(0.01430122 -0.01877274 0.0005504725)
(0.0203199 -0.01089388 0.0004284504)
(0.02369729 -0.005313729 0.0002861763)
(0.02530336 -0.001880552 0.0002426342)
(0.02629423 -0.0001012449 0.0003012055)
(0.0269771 0.0005271916 0.0004008229)
(0.02769846 0.0004207132 0.0005329504)
(0.02844003 -0.0001556221 0.0006902573)
(0.02883573 -0.0009876872 0.0008519912)
(0.02883299 -0.001241382 0.0008373774)
(0.02388975 0.007207182 0.0008998756)
(0.01977761 0.05618067 0.0007212993)
(-0.01932842 0.05606403 0.001650706)
(-0.0234405 0.007396473 0.001360294)
(-0.02822923 -0.001127861 0.001071129)
(-0.02823285 -0.0008845099 0.001006622)
(-0.02785404 -3.492203e-05 0.0008139881)
(-0.02714707 0.0005661377 0.0006421215)
(-0.02645516 0.0007156217 0.0005006094)
(-0.02579475 0.0001580373 0.0003923854)
(-0.02484222 -0.001532969 0.0003213035)
(-0.02321795 -0.004849047 0.0003432432)
(-0.01986079 -0.01027102 0.0004513199)
(-0.01391513 -0.01791998 0.0005402684)
(-0.004701156 -0.02500664 0.0005638924)
(0.0005001596 -0.03337515 0.001219362)
(0.004226416 -0.02397386 0.001393946)
(0.005726229 -0.01321565 0.001611559)
(0.00761935 -0.005911126 0.00169938)
(0.00920738 -0.001784145 0.001679569)
(0.01103149 0.0004066112 0.001774153)
(0.01287455 0.001487193 0.00202177)
(0.0147879 0.002063415 0.002358658)
(0.01668763 0.002629181 0.002793723)
(0.01818627 0.0035947 0.003320277)
(0.0194716 0.006501157 0.003554167)
(0.0132056 0.02001295 0.003012033)
(0.0127586 0.08047389 -0.001057062)
(-0.01250241 0.08036105 -0.0003432999)
(-0.01330602 0.02012101 0.002932143)
(-0.01967618 0.00651529 0.003260526)
(-0.01851742 0.003642275 0.003049746)
(-0.01707452 0.002726402 0.002578143)
(-0.01522288 0.002203218 0.002184015)
(-0.01332435 0.001673387 0.00187679)
(-0.01145528 0.0006674321 0.001650803)
(-0.009573396 -0.001446519 0.001544176)
(-0.00788063 -0.005490462 0.001531613)
(-0.005901002 -0.01261672 0.001419698)
(-0.004256068 -0.02305613 0.001187102)
(-0.0005753235 -0.03205966 0.00102912)
(-0.004642903 -0.02921573 0.001567246)
(-0.008330195 -0.01968786 0.001749935)
(-0.01201997 -0.01064175 0.002297534)
(-0.01213544 -0.005336039 0.002844743)
(-0.0108477 -0.00255751 0.003176639)
(-0.009413714 -0.001192942 0.003338384)
(-0.007091882 -0.0008259447 0.00356726)
(-0.005034105 -0.0008511287 0.003745246)
(-0.003241183 -0.0008992393 0.003765591)
(-0.00255169 0.0001949438 0.003358156)
(-0.003109807 0.006856551 0.002066934)
(-0.01049442 0.02750508 0.0003172226)
(0.002662552 0.08277505 -0.004722887)
(-0.002448925 0.08268176 -0.004208345)
(0.01042702 0.02760259 0.000266568)
(0.002850119 0.00687333 0.001756302)
(0.001980508 0.0001142013 0.002976912)
(0.002440454 -0.0009379649 0.003412006)
(0.00410493 -0.0008477391 0.0034302)
(0.006091753 -0.0007968582 0.003284824)
(0.008367061 -0.001147737 0.003081353)
(0.009891128 -0.002484516 0.002950691)
(0.01129316 -0.005188857 0.00261479)
(0.01131242 -0.01035642 0.002038604)
(0.007882045 -0.01913341 0.001468125)
(0.004373576 -0.02823931 0.001292268)
(-0.01299596 -0.01452282 0.001225943)
(-0.02512039 -0.006514104 0.0004072126)
(-0.03354808 -0.001254335 -0.0002784084)
(-0.03752273 0.001850086 -0.0009117625)
(-0.03962315 0.00397367 -0.001575417)
(-0.04066429 0.005640771 -0.002315852)
(-0.04180108 0.007512197 -0.003259284)
(-0.04325214 0.01003067 -0.00446213)
(-0.04529172 0.013512 -0.005997914)
(-0.04806643 0.01844116 -0.007953946)
(-0.05046942 0.02577745 -0.01050731)
(-0.04740624 0.03819029 -0.01360846)
(-0.02119783 0.06333143 -0.01624387)
(0.02136795 0.06325155 -0.01587767)
(0.04750175 0.03819896 -0.01353149)
(0.05059661 0.02583135 -0.01057686)
(0.04808466 0.01852413 -0.008079449)
(0.04514408 0.01358591 -0.006136997)
(0.04295326 0.01007264 -0.004595196)
(0.04136669 0.007519075 -0.003378074)
(0.04010416 0.005613509 -0.002420646)
(0.03894959 0.003927653 -0.001679658)
(0.03675902 0.001813837 -0.001036975)
(0.0327576 -0.001236001 -0.0004459555)
(0.02444757 -0.006356171 0.0001764301)
(0.0125408 -0.01406731 0.0009345407)
(0.008680198 -0.01290377 0.0007030173)
(0.02031839 -0.008729307 0.0009777367)
(0.02806606 -0.00479678 0.001157496)
(0.0312638 -0.00197843 0.001208028)
(0.03158323 -0.0001768624 0.001127877)
(0.03050699 0.0007953853 0.0009591621)
(0.02901769 0.001197358 0.0007406282)
(0.02768407 0.001238676 0.0004824046)
(0.02690337 0.0009778046 0.0001738868)
(0.02703697 0.0003487559 -0.0002518561)
(0.02882858 -0.0006282961 -0.0009021718)
(0.03165229 0.001345728 -0.002226051)
(0.02758691 0.02528108 -0.004216685)
(-0.02688534 0.02537597 -0.004880526)
(-0.03088299 0.001459177 -0.002541893)
(-0.02779189 -0.000599371 -0.0009948966)
(-0.02585367 0.0003736455 -0.0002343676)
(-0.0256289 0.001026432 0.000241134)
(-0.02635784 0.00131958 0.0005683373)
(-0.02766663 0.001320166 0.0008297173)
(-0.02915823 0.0009754752 0.00104184)
(-0.03028614 7.849926e-05 0.001195196)
(-0.03005954 -0.001639049 0.001248155)
(-0.02703489 -0.004363063 0.001172949)
(-0.01958482 -0.008173468 0.0009729093)
(-0.00833991 -0.01220655 0.0006884664)
(0.004853767 -0.02602994 -0.0005326893)
(0.01434614 -0.01865012 -0.0004886038)
(0.02038668 -0.01077935 -0.0003533706)
(0.02377095 -0.005220058 -0.0002064543)
(0.02537646 -0.001817821 -0.00017456)
(0.02636092 -6.782797e-05 -0.0002438636)