/*--------------------------------*- C++ -*----------------------------------*\
| =========                 |                                                 |
| \\      /  F ield         | OpenFOAM: The Open Source CFD Toolbox           |
|  \\    /   O peration     | Version:  v2006                                 |
|   \\  /    A nd           | Website:  www.openfoam.com                      |
|    \\/     M anipulation  |                                                 |
\*---------------------------------------------------------------------------*/
FoamFile
{
    version     2.0;
    format      ascii;
    class       volScalarField;
    location    "84";
    object      alphat;
}
// * * * * * * * * * * * * * * * * * * * * * * * * * * * * * * * * * * * * * //

dimensions      [1 -1 -1 0 0 0 0];


internalField   nonuniform List<scalar> 
78750
(
1.81998e-09
2.66664e-07
5.37068e-07
8.3462e-07
1.14702e-06
1.46226e-06
1.77093e-06
2.0663e-06
2.34377e-06
2.60017e-06
2.83333e-06
3.04189e-06
3.2251e-06
3.38235e-06
3.51272e-06
3.61638e-06
3.69345e-06
3.74394e-06
3.76775e-06
3.76463e-06
3.73413e-06
3.67591e-06
3.58837e-06
3.47034e-06
3.32088e-06
3.13921e-06
2.92421e-06
2.67651e-06
2.39771e-06
2.08942e-06
1.75134e-06
1.38111e-06
9.82572e-07
5.75371e-07
7.02258e-09
4.73128e-09
3.31324e-06
5.75699e-06
7.62909e-06
9.18968e-06
1.07049e-05
1.22357e-05
1.37905e-05
1.53745e-05
1.6999e-05
1.8672e-05
2.04155e-05
2.23008e-05
2.3818e-05
2.41536e-05
2.43592e-05
2.44435e-05
2.4414e-05
2.42773e-05
2.40383e-05
2.36999e-05
2.32625e-05
2.27217e-05
2.20708e-05
2.13013e-05
2.02719e-05
1.79405e-05
1.56554e-05
1.33988e-05
1.10144e-05
8.43212e-06
6.03067e-06
4.54839e-06
2.48101e-06
2.23451e-08
7.98493e-09
2.47719e-06
5.2975e-06
8.34424e-06
1.13888e-05
1.42557e-05
1.68343e-05
1.91019e-05
2.10849e-05
2.28153e-05
2.43102e-05
2.55716e-05
2.66288e-05
2.75134e-05
2.77169e-05
2.752e-05
2.72078e-05
2.67977e-05
2.63077e-05
2.57567e-05
2.48746e-05
2.34193e-05
2.18422e-05
2.029e-05
1.88612e-05
1.75787e-05
1.63912e-05
1.51577e-05
1.36348e-05
1.15914e-05
9.17851e-06
7.30831e-06
6.82972e-06
2.41301e-06
3.83411e-08
1.18391e-08
2.34878e-06
5.32632e-06
9.45799e-06
1.45113e-05
1.94056e-05
2.32789e-05
2.61024e-05
2.81132e-05
2.94761e-05
3.02788e-05
3.05748e-05
3.04142e-05
2.98634e-05
2.89948e-05
2.78713e-05
2.65576e-05
2.51185e-05
2.36095e-05
2.20735e-05
2.05408e-05
1.90561e-05
1.76844e-05
1.64808e-05
1.54883e-05
1.47191e-05
1.41019e-05
1.3427e-05
1.23663e-05
1.07237e-05
8.90809e-06
8.04316e-06
8.52176e-06
2.20674e-06
5.11039e-08
1.68825e-08
2.28953e-06
5.45463e-06
1.0459e-05
1.7126e-05
2.33662e-05
2.7727e-05
3.04495e-05
3.19458e-05
3.24368e-05
3.20869e-05
3.10679e-05
2.95718e-05
2.77992e-05
2.59311e-05
2.41015e-05
2.23859e-05
2.08081e-05
1.93574e-05
1.80091e-05
1.67438e-05
1.55637e-05
1.44995e-05
1.35952e-05
1.28878e-05
1.2383e-05
1.20041e-05
1.15449e-05
1.073e-05
9.51011e-06
8.42642e-06
8.5879e-06
9.00989e-06
2.07288e-06
5.98673e-08
2.1887e-08
2.31752e-06
5.68421e-06
1.14232e-05
1.95118e-05
2.69329e-05
3.16121e-05
3.40134e-05
3.47482e-05
3.41892e-05
3.26544e-05
3.04774e-05
2.80017e-05
2.55281e-05
2.32595e-05
2.12878e-05
1.96187e-05
1.82073e-05
1.69876e-05
1.58957e-05
1.48881e-05
1.39504e-05
1.3087e-05
1.23138e-05
1.16561e-05
1.11222e-05
1.06537e-05
1.00996e-05
9.3059e-06
8.36429e-06
7.84256e-06
8.82226e-06
8.88759e-06
2.01063e-06
6.6627e-08
2.66171e-08
2.35128e-06
5.86009e-06
1.2086e-05
2.10666e-05
2.90598e-05
3.36975e-05
3.56645e-05
3.56716e-05
3.41893e-05
3.16917e-05
2.86888e-05
2.56467e-05
2.28875e-05
2.05551e-05
1.86553e-05
1.71278e-05
1.58962e-05
1.48843e-05
1.40291e-05
1.32919e-05
1.2651e-05
1.20699e-05
1.15104e-05
1.09564e-05
1.04e-05
9.80679e-06
9.11013e-06
8.29425e-06
7.55278e-06
7.43515e-06
8.9955e-06
8.43532e-06
1.96548e-06
7.26709e-08
3.09019e-08
2.38447e-06
5.96992e-06
1.24753e-05
2.20771e-05
3.05674e-05
3.51982e-05
3.67768e-05
3.61512e-05
3.39403e-05
3.07849e-05
2.73214e-05
2.40491e-05
2.12353e-05
1.89435e-05
1.71256e-05
1.5697e-05
1.45704e-05
1.36705e-05
1.2945e-05
1.23666e-05
1.1907e-05
1.15e-05
1.10696e-05
1.05602e-05
9.94389e-06
9.2113e-06
8.37627e-06
7.52818e-06
6.91154e-06
7.0449e-06
8.97067e-06
8.07835e-06
1.94524e-06
7.89224e-08
3.47119e-08
2.40788e-06
6.03479e-06
1.27024e-05
2.26557e-05
3.13559e-05
3.58603e-05
3.70871e-05
3.59751e-05
3.32584e-05
2.96991e-05
2.60039e-05
2.26563e-05
1.98592e-05
1.76186e-05
1.58565e-05
1.44825e-05
1.34169e-05
1.25958e-05
1.19842e-05
1.15738e-05
1.13215e-05
1.11236e-05
1.08584e-05
1.04219e-05
9.76172e-06
8.89928e-06
7.93408e-06
7.04434e-06
6.50365e-06
6.80487e-06
8.97452e-06
7.71004e-06
1.92828e-06
8.5623e-08
3.86601e-08
2.43203e-06
6.08411e-06
1.28559e-05
2.3061e-05
3.19356e-05
3.6357e-05
3.73204e-05
3.58599e-05
3.28135e-05
2.90255e-05
2.52246e-05
2.18582e-05
1.90782e-05
1.68571e-05
1.51044e-05
1.37278e-05
1.26554e-05
1.18368e-05
1.12534e-05
1.09154e-05
1.07772e-05
1.07201e-05
1.05913e-05
1.02411e-05
9.58282e-06
8.65014e-06
7.60503e-06
6.69134e-06
6.20176e-06
6.61392e-06
8.94602e-06
7.41478e-06
1.91849e-06
9.26228e-08
4.22447e-08
2.44748e-06
6.11144e-06
1.29475e-05
2.33039e-05
3.22439e-05
3.65441e-05
3.72709e-05
3.55327e-05
3.22498e-05
2.83255e-05
2.44894e-05
2.11461e-05
1.8404e-05
1.62119e-05
1.44732e-05
1.30983e-05
1.20206e-05
1.12015e-05
1.06412e-05
1.03655e-05
1.03216e-05
1.03805e-05
1.03665e-05
1.00941e-05
9.44984e-06
8.4773e-06
7.38488e-06
6.46274e-06
6.01714e-06
6.52109e-06
8.98536e-06
7.13331e-06
1.91007e-06
9.96886e-08
4.63221e-08
2.46853e-06
6.15483e-06
1.30784e-05
2.3594e-05
3.25629e-05
3.6727e-05
3.72459e-05
3.52966e-05
3.18607e-05
2.78689e-05
2.40319e-05
2.07147e-05
1.79953e-05
1.58095e-05
1.40592e-05
1.26594e-05
1.15499e-05
1.07005e-05
1.01242e-05
9.86156e-06
9.8602e-06
9.98906e-06
1.00605e-05
9.86327e-06
9.25995e-06
8.29391e-06
7.19945e-06
6.29334e-06
5.8927e-06
6.47695e-06
9.05316e-06
6.89564e-06
1.90547e-06
1.06671e-07
5.01093e-08
2.48421e-06
6.1876e-06
1.31793e-05
2.3806e-05
3.27675e-05
3.67944e-05
3.7122e-05
3.49889e-05
3.14335e-05
2.74074e-05
2.35969e-05
2.03259e-05
1.7644e-05
1.54761e-05
1.37241e-05
1.23071e-05
1.11714e-05
1.02949e-05
9.70248e-06
9.44505e-06
9.46867e-06
9.6415e-06
9.76903e-06
9.62593e-06
9.06172e-06
8.12048e-06
7.04985e-06
6.17841e-06
5.83007e-06
6.49749e-06
9.17907e-06
6.67966e-06
1.90297e-06
1.13428e-07
5.43943e-08
2.50524e-06
6.23838e-06
1.33324e-05
2.41012e-05
3.3024e-05
3.68838e-05
3.70265e-05
3.47461e-05
3.11181e-05
2.70926e-05
2.33215e-05
2.00932e-05
1.74371e-05
1.52733e-05
1.35059e-05
1.20591e-05
1.0885e-05
9.96803e-06
9.34151e-06
9.06672e-06
9.08956e-06
9.28005e-06
9.44182e-06
9.34337e-06
8.82634e-06
7.93205e-06
6.91006e-06
6.09053e-06
5.80143e-06
6.55336e-06
9.33146e-06
6.4991e-06
1.90366e-06
1.19944e-07
5.84492e-08
2.5234e-06
6.28448e-06
1.34692e-05
2.43492e-05
3.32199e-05
3.69241e-05
3.68979e-05
3.44871e-05
3.08036e-05
2.67941e-05
2.30757e-05
1.9901e-05
1.72806e-05
1.51292e-05
1.3353e-05
1.18809e-05
1.06708e-05
9.7136e-06
9.05028e-06
8.7514e-06
8.76284e-06
8.95391e-06
9.13066e-06
9.06122e-06
8.58637e-06
7.74634e-06
6.78632e-06
6.03022e-06
5.8081e-06
6.65131e-06
9.51823e-06
6.3415e-06
1.90652e-06
1.26176e-07
6.28835e-08
2.54524e-06
6.34281e-06
1.36427e-05
2.46582e-05
3.34571e-05
3.6988e-05
3.68014e-05
3.42873e-05
3.05777e-05
2.66016e-05
2.29391e-05
1.98128e-05
1.72198e-05
1.50727e-05
1.32804e-05
1.17761e-05
1.05229e-05
9.51732e-06
8.80544e-06
8.4667e-06
8.4507e-06
8.62784e-06
8.8066e-06
8.7596e-06
8.32934e-06
7.55312e-06
6.66645e-06
5.98266e-06
5.83338e-06
6.77209e-06
9.71796e-06
6.21198e-06
1.9118e-06
1.32147e-07
6.71492e-08
2.56571e-06
6.39978e-06
1.3809e-05
2.49398e-05
3.3661e-05
3.70313e-05
3.66984e-05
3.40938e-05
3.0368e-05
2.64331e-05
2.28333e-05
1.97624e-05
1.72042e-05
1.50683e-05
1.32651e-05
1.17316e-05
1.0436e-05
9.38078e-06
8.61647e-06
8.23079e-06
8.17798e-06
8.33005e-06
8.49944e-06
8.46508e-06
8.07515e-06
7.36459e-06
6.55632e-06
5.95032e-06
5.8794e-06
6.91976e-06
9.93313e-06
6.10222e-06
1.9188e-06
1.37839e-07
7.16741e-08
2.58848e-06
6.46436e-06
1.39986e-05
2.52604e-05
3.38945e-05
3.70999e-05
3.66324e-05
3.39568e-05
3.02311e-05
2.63436e-05
2.28044e-05
1.97838e-05
1.72554e-05
1.51268e-05
1.33098e-05
1.17442e-05
1.04028e-05
9.29259e-06
8.46824e-06
8.02402e-06
7.92278e-06
8.03904e-06
8.19076e-06
8.16505e-06
7.81586e-06
7.17422e-06
6.44853e-06
5.92422e-06
5.93547e-06
7.08132e-06
1.01502e-05
6.01248e-06
1.9273e-06
1.43265e-07
7.6079e-08
2.61062e-06
6.52914e-06
1.41866e-05
2.55675e-05
3.41119e-05
3.71635e-05
3.65728e-05
3.38349e-05
3.01142e-05
2.62772e-05
2.28024e-05
1.98376e-05
1.73456e-05
1.5231e-05
1.34054e-05
1.1811e-05
1.04245e-05
9.25739e-06
8.36886e-06
7.85864e-06
7.70049e-06
7.77198e-06
7.89764e-06
7.8745e-06
7.5634e-06
6.99051e-06
6.34795e-06
5.90708e-06
6.00389e-06
7.26004e-06
1.03713e-05
5.93861e-06
1.93713e-06
1.48419e-07
8.06504e-08
2.63404e-06
6.59868e-06
1.43906e-05
2.59022e-05
3.43541e-05
3.72543e-05
3.65505e-05
3.37616e-05
3.0052e-05
2.6265e-05
2.28509e-05
1.99383e-05
1.74813e-05
1.53811e-05
1.35481e-05
1.19258e-05
1.04935e-05
9.26677e-06
8.30842e-06
7.7232e-06
7.49916e-06
7.51781e-06
7.61108e-06
7.58677e-06
7.31248e-06
6.80872e-06
6.25035e-06
5.89352e-06
6.07785e-06
7.44695e-06
1.05874e-05
5.87841e-06
1.94773e-06
1.53301e-07
8.51347e-08
2.65698e-06
6.66857e-06
1.45959e-05
2.62337e-05
3.45945e-05
3.73523e-05
3.65429e-05
3.37062e-05
3.00081e-05
2.62715e-05
2.29205e-05
2.00651e-05
1.76497e-05
1.55706e-05
1.37364e-05
1.20902e-05
1.06133e-05
9.32491e-06
8.29222e-06
7.62461e-06
7.32696e-06
7.28552e-06
7.34025e-06
7.31027e-06
7.06983e-06
6.63299e-06
6.15764e-06
5.88558e-06
6.15891e-06
7.64404e-06
1.08005e-05
5.83054e-06
1.95926e-06
1.57923e-07
8.97166e-08
2.68033e-06
6.74092e-06
1.48126e-05
2.65889e-05
3.48626e-05
3.74819e-05
3.65703e-05
3.36874e-05
2.99991e-05
2.63097e-05
2.3019e-05
2.022e-05
1.78479e-05
1.57938e-05
1.39631e-05
1.22974e-05
1.0778e-05
9.42717e-06
8.31596e-06
7.55811e-06
7.17906e-06
7.07068e-06
7.08149e-06
7.04213e-06
6.83304e-06
6.46105e-06
6.06687e-06
5.87917e-06
6.24362e-06
7.84613e-06
1.10058e-05
5.79307e-06
1.97133e-06
1.62285e-07
9.4234e-08
2.70307e-06
6.81267e-06
1.50297e-05
2.69462e-05
3.51367e-05
3.76263e-05
3.66153e-05
3.36828e-05
3.00023e-05
2.63602e-05
2.31324e-05
2.03944e-05
1.80718e-05
1.60496e-05
1.42295e-05
1.25497e-05
1.09908e-05
9.57686e-06
8.38315e-06
7.52812e-06
7.0604e-06
6.87846e-06
6.83989e-06
6.78687e-06
6.6056e-06
6.29522e-06
5.97943e-06
5.8743e-06
6.33014e-06
8.05242e-06
1.12047e-05
5.76523e-06
1.98412e-06
1.66402e-07
9.87968e-08
2.72569e-06
6.88465e-06
1.52491e-05
2.73042e-05
3.54015e-05
3.77641e-05
3.66676e-05
3.36923e-05
3.0021e-05
2.64254e-05
2.32595e-05
2.05834e-05
1.83136e-05
1.63295e-05
1.45273e-05
1.28407e-05
1.12475e-05
9.77223e-06
8.4937e-06
7.53559e-06
6.97205e-06
6.70983e-06
6.61602e-06
6.54436e-06
6.38651e-06
6.13383e-06
5.8934e-06
5.86935e-06
6.41717e-06
8.26229e-06
1.14033e-05
5.74633e-06
1.99713e-06
1.70274e-07
1.03313e-07
2.74792e-06
6.9564e-06
1.54669e-05
2.76502e-05
3.56538e-05
3.78948e-05
3.67172e-05
3.37107e-05
3.00493e-05
2.64988e-05
2.33957e-05
2.07847e-05
1.85729e-05
1.66335e-05
1.4857e-05
1.31709e-05
1.1549e-05
1.00147e-05
8.64991e-06
7.58412e-06
6.9179e-06
6.56903e-06
6.41415e-06
6.31834e-06
6.17854e-06
5.97858e-06
5.80951e-06
5.86411e-06
6.50334e-06
8.47263e-06
1.15975e-05
5.73841e-06
2.01111e-06
1.7393e-07
1.07838e-07
2.76967e-06
7.02848e-06
1.56902e-05
2.79907e-05
3.58974e-05
3.80177e-05
3.67611e-05
3.37282e-05
3.00779e-05
2.65731e-05
2.35339e-05
2.09903e-05
1.88409e-05
1.6953e-05
1.52107e-05
1.35347e-05
1.18923e-05
1.0304e-05
8.85376e-06
7.67749e-06
6.90178e-06
6.45943e-06
6.23696e-06
6.11058e-06
5.98239e-06
5.82916e-06
5.72687e-06
5.85787e-06
6.59008e-06
8.69013e-06
1.17918e-05
5.74252e-06
2.02644e-06
1.77379e-07
1.1232e-07
2.79044e-06
7.0978e-06
1.5907e-05
2.83174e-05
3.61265e-05
3.81302e-05
3.67988e-05
3.37431e-05
3.01084e-05
2.66511e-05
2.36761e-05
2.12012e-05
1.91177e-05
1.7287e-05
1.55866e-05
1.39295e-05
1.22749e-05
1.06388e-05
9.10591e-06
7.81877e-06
6.92751e-06
6.38511e-06
6.08842e-06
5.92459e-06
5.80082e-06
5.6875e-06
5.64665e-06
5.85114e-06
6.67653e-06
8.90996e-06
1.19848e-05
5.75548e-06
2.04279e-06
1.80639e-07
1.16788e-07
2.81074e-06
7.16621e-06
1.61221e-05
2.86374e-05
3.63458e-05
3.82332e-05
3.68274e-05
3.375e-05
3.01376e-05
2.67261e-05
2.38138e-05
2.14092e-05
1.93958e-05
1.76289e-05
1.59791e-05
1.43508e-05
1.26943e-05
1.10186e-05
9.40778e-06
8.01104e-06
6.99849e-06
6.34921e-06
5.97127e-06
5.76243e-06
5.63512e-06
5.55423e-06
5.56904e-06
5.84363e-06
6.7614e-06
9.12923e-06
1.21758e-05
5.77582e-06
2.05995e-06
1.83716e-07
1.21225e-07
2.83046e-06
7.23317e-06
1.63334e-05
2.89469e-05
3.65521e-05
3.83249e-05
3.68463e-05
3.37484e-05
3.01612e-05
2.6796e-05
2.39475e-05
2.16154e-05
1.96753e-05
1.79769e-05
1.63844e-05
1.47938e-05
1.31452e-05
1.1439e-05
9.75666e-06
8.25317e-06
7.11565e-06
6.354e-06
5.88831e-06
5.62689e-06
5.48769e-06
5.43122e-06
5.4953e-06
5.83602e-06
6.84459e-06
9.34644e-06
1.23637e-05
5.80174e-06
2.07763e-06
1.8662e-07
1.25632e-07
2.84977e-06
7.29924e-06
1.65424e-05
2.92482e-05
3.67468e-05
3.84048e-05
3.68532e-05
3.37345e-05
3.01722e-05
2.6855e-05
2.40724e-05
2.18152e-05
1.99519e-05
1.8327e-05
1.67991e-05
1.52555e-05
1.36253e-05
1.18982e-05
1.01515e-05
8.54444e-06
7.27946e-06
6.40078e-06
5.84125e-06
5.51972e-06
5.36005e-06
5.31959e-06
5.42606e-06
5.82816e-06
6.92478e-06
9.56008e-06
1.25483e-05
5.83235e-06
2.0957e-06
1.89355e-07
1.30015e-07
2.86889e-06
7.36491e-06
1.67492e-05
2.95405e-05
3.69292e-05
3.84724e-05
3.68483e-05
3.37097e-05
3.01734e-05
2.69057e-05
2.41902e-05
2.20092e-05
2.02243e-05
1.86762e-05
1.72181e-05
1.57294e-05
1.41276e-05
1.23903e-05
1.05875e-05
8.88145e-06
7.48866e-06
6.4898e-06
5.83136e-06
5.44274e-06
5.25422e-06
5.22121e-06
5.36289e-06
5.82162e-06
7.00443e-06
9.76994e-06
1.27292e-05
5.86654e-06
2.11397e-06
1.91935e-07
1.34361e-07
2.88783e-06
7.43035e-06
1.69532e-05
2.9823e-05
3.70979e-05
3.85252e-05
3.68277e-05
3.36689e-05
3.01597e-05
2.69439e-05
2.42977e-05
2.21947e-05
2.04909e-05
1.90231e-05
1.76402e-05
1.62139e-05
1.465e-05
1.29127e-05
1.10626e-05
9.26275e-06
7.74287e-06
6.62135e-06
5.85926e-06
5.39693e-06
5.17132e-06
5.13719e-06
5.30687e-06
5.81762e-06
7.08476e-06
9.97643e-06
1.29077e-05
5.90392e-06
2.13237e-06
1.94369e-07
1.38686e-07
2.90692e-06
7.49723e-06
1.71551e-05
3.00963e-05
3.72536e-05
3.85636e-05
3.6792e-05
3.36132e-05
3.01324e-05
2.69711e-05
2.43955e-05
2.23712e-05
2.07493e-05
1.93639e-05
1.80601e-05
1.67023e-05
1.51852e-05
1.34582e-05
1.15709e-05
9.68418e-06
8.04018e-06
6.79504e-06
5.92559e-06
5.38352e-06
5.11298e-06
5.0693e-06
5.25961e-06
5.81712e-06
7.16524e-06
1.01799e-05
1.30838e-05
5.94374e-06
2.15076e-06
1.96667e-07
1.42963e-07
2.92534e-06
7.56329e-06
1.7352e-05
3.03577e-05
3.73934e-05
3.85845e-05
3.67374e-05
3.35382e-05
3.00872e-05
2.69865e-05
2.44826e-05
2.25375e-05
2.09994e-05
1.96991e-05
1.84781e-05
1.71944e-05
1.57315e-05
1.40243e-05
1.21092e-05
1.01433e-05
8.3793e-06
7.01051e-06
6.0306e-06
5.4032e-06
5.08023e-06
5.01874e-06
5.22215e-06
5.82062e-06
7.24553e-06
1.03801e-05
1.32583e-05
5.98589e-06
2.16914e-06
1.98842e-07
1.47188e-07
2.94291e-06
7.62731e-06
1.75464e-05
3.06101e-05
3.75186e-05
3.85887e-05
3.66653e-05
3.34457e-05
3.00249e-05
2.6986e-05
2.45552e-05
2.26909e-05
2.12381e-05
2.00248e-05
1.88893e-05
1.76839e-05
1.62819e-05
1.46035e-05
1.26706e-05
1.06346e-05
8.75696e-06
7.26632e-06
6.17416e-06
5.45668e-06
5.07431e-06
4.98703e-06
5.196e-06
5.82931e-06
7.32634e-06
1.05774e-05
1.34314e-05
6.02987e-06
2.18742e-06
2.00907e-07
1.51332e-07
2.9598e-06
7.68928e-06
1.77348e-05
3.08501e-05
3.76278e-05
3.85724e-05
3.65695e-05
3.33296e-05
2.99417e-05
2.69686e-05
2.46143e-05
2.28332e-05
2.14676e-05
2.03431e-05
1.92954e-05
1.81716e-05
1.68354e-05
1.51929e-05
1.32512e-05
1.1154e-05
9.17003e-06
7.56045e-06
6.35536e-06
5.54399e-06
5.09589e-06
4.97513e-06
5.18211e-06
5.84389e-06
7.40801e-06
1.07719e-05
1.36042e-05
6.07581e-06
2.20567e-06
2.02874e-07
1.55434e-07
2.97595e-06
7.75009e-06
1.79239e-05
3.10863e-05
3.77246e-05
3.85412e-05
3.64591e-05
3.31997e-05
2.98432e-05
2.69318e-05
2.4654e-05
2.29597e-05
2.16841e-05
2.06499e-05
1.96916e-05
1.86519e-05
1.73858e-05
1.57857e-05
1.38439e-05
1.16951e-05
9.61366e-06
7.88972e-06
6.57255e-06
5.66478e-06
5.14569e-06
4.98439e-06
5.18197e-06
5.86562e-06
7.49144e-06
1.09642e-05
1.37767e-05
6.12329e-06
2.22382e-06
2.04755e-07
1.59477e-07
2.99153e-06
7.80966e-06
1.81099e-05
3.1311e-05
3.78048e-05
3.84898e-05
3.63254e-05
3.30458e-05
2.97242e-05
2.6881e-05
2.46827e-05
2.3073e-05
2.1888e-05
2.0947e-05
2.00802e-05
1.91268e-05
1.79338e-05
1.63809e-05
1.44457e-05
1.22539e-05
1.00839e-05
8.25074e-06
6.82328e-06
5.81766e-06
5.22334e-06
5.01531e-06
5.19655e-06
5.89556e-06
7.57734e-06
1.11545e-05
1.395e-05
6.17256e-06
2.24195e-06
2.06565e-07
1.63472e-07
3.00664e-06
7.86863e-06
1.8296e-05
3.15278e-05
3.7869e-05
3.84191e-05
3.61721e-05
3.28735e-05
2.95875e-05
2.68124e-05
2.46958e-05
2.31742e-05
2.2079e-05
2.12301e-05
2.04562e-05
1.95908e-05
1.84734e-05
1.69719e-05
1.50501e-05
1.28241e-05
1.05751e-05
8.6395e-06
7.10507e-06
6.0015e-06
5.32879e-06
5.06862e-06
5.22707e-06
5.93506e-06
7.66702e-06
1.13437e-05
1.41242e-05
6.22339e-06
2.26002e-06
2.08315e-07
1.67399e-07
3.02105e-06
7.92588e-06
1.84777e-05
3.17323e-05
3.79157e-05
3.83277e-05
3.59962e-05
3.26793e-05
2.94312e-05
2.67272e-05
2.46949e-05
2.32635e-05
2.22608e-05
2.15044e-05
2.08228e-05
2.00462e-05
1.90059e-05
1.75584e-05
1.56546e-05
1.34015e-05
1.10825e-05
9.05141e-06
7.41427e-06
6.21397e-06
5.46111e-06
5.14454e-06
5.27442e-06
5.98522e-06
7.7615e-06
1.15327e-05
1.43003e-05
6.27601e-06
2.27811e-06
2.10021e-07
1.71274e-07
3.03495e-06
7.98226e-06
1.86581e-05
3.19268e-05
3.7945e-05
3.82152e-05
3.57982e-05
3.24643e-05
2.92559e-05
2.66245e-05
2.46781e-05
2.33382e-05
2.24288e-05
2.17662e-05
2.11767e-05
2.04885e-05
1.95264e-05
1.81354e-05
1.62539e-05
1.39808e-05
1.16007e-05
9.48212e-06
7.74757e-06
6.45284e-06
5.61922e-06
5.24313e-06
5.3396e-06
6.04771e-06
7.86284e-06
1.17235e-05
1.44786e-05
6.33034e-06
2.29623e-06
2.1169e-07
1.75086e-07
3.04826e-06
8.03721e-06
1.88346e-05
3.21084e-05
3.7956e-05
3.80817e-05
3.55786e-05
3.22291e-05
2.90628e-05
2.65064e-05
2.46483e-05
2.34012e-05
2.2586e-05
2.20175e-05
2.15205e-05
2.09198e-05
2.00349e-05
1.8701e-05
1.68446e-05
1.45569e-05
1.21241e-05
9.92654e-06
8.10091e-06
6.71527e-06
5.80152e-06
5.36396e-06
5.42313e-06
6.12364e-06
7.97249e-06
1.19176e-05
1.46601e-05
6.3865e-06
2.31443e-06
2.13335e-07
1.7883e-07
3.06086e-06
8.09052e-06
1.90076e-05
3.22781e-05
3.79486e-05
3.79261e-05
3.53359e-05
3.19724e-05
2.88505e-05
2.63711e-05
2.4603e-05
2.345e-05
2.27294e-05
2.2255e-05
2.18505e-05
2.13371e-05
2.05284e-05
1.92515e-05
1.74223e-05
1.51251e-05
1.26476e-05
1.038e-05
8.47044e-06
6.99845e-06
6.00635e-06
5.50658e-06
5.52579e-06
6.21496e-06
8.0934e-06
1.21183e-05
1.48459e-05
6.44453e-06
2.33274e-06
2.14958e-07
1.82505e-07
3.07285e-06
8.14239e-06
1.91771e-05
3.24352e-05
3.79227e-05
3.77493e-05
3.5072e-05
3.16968e-05
2.86222e-05
2.6222e-05
2.45459e-05
2.3488e-05
2.28624e-05
2.24816e-05
2.21683e-05
2.17409e-05
2.10067e-05
1.97847e-05
1.79835e-05
1.56805e-05
1.31656e-05
1.0837e-05
8.85147e-06
7.29887e-06
6.23142e-06
5.66981e-06
5.64735e-06
6.32229e-06
8.22706e-06
1.23277e-05
1.50366e-05
6.50446e-06
2.35119e-06
2.16567e-07
1.86107e-07
3.08412e-06
8.19253e-06
1.93425e-05
3.25792e-05
3.78776e-05
3.75499e-05
3.47852e-05
3.14005e-05
2.83758e-05
2.60571e-05
2.44747e-05
2.3513e-05
2.29825e-05
2.26951e-05
2.24721e-05
2.21289e-05
2.14676e-05
2.02989e-05
1.85243e-05
1.62194e-05
1.36741e-05
1.12931e-05
9.23958e-06
7.61284e-06
6.4743e-06
5.85268e-06
5.78838e-06
6.44769e-06
8.37692e-06
1.25498e-05
1.52327e-05
6.56629e-06
2.36983e-06
2.18158e-07
1.89645e-07
3.09484e-06
8.24146e-06
1.95051e-05
3.27111e-05
3.78142e-05
3.73295e-05
3.44779e-05
3.10867e-05
2.81152e-05
2.58802e-05
2.43933e-05
2.35286e-05
2.30932e-05
2.28983e-05
2.27637e-05
2.25022e-05
2.19104e-05
2.07923e-05
1.90429e-05
1.67362e-05
1.41675e-05
1.17434e-05
9.63047e-06
7.93664e-06
6.73197e-06
6.05305e-06
5.94761e-06
6.59087e-06
8.54395e-06
1.27865e-05
1.54344e-05
6.63e-06
2.38869e-06
2.19735e-07
1.93108e-07
3.10488e-06
8.28882e-06
1.96638e-05
3.28297e-05
3.77312e-05
3.70864e-05
3.41486e-05
3.0754e-05
2.78388e-05
2.56897e-05
2.42998e-05
2.35329e-05
2.31928e-05
2.30897e-05
2.30423e-05
2.286e-05
2.23347e-05
2.12638e-05
1.95381e-05
1.72317e-05
1.46444e-05
1.21844e-05
1.00201e-05
8.26658e-06
7.00176e-06
6.2696e-06
6.12529e-06
6.75359e-06
8.73111e-06
1.30412e-05
1.5642e-05
6.6956e-06
2.40782e-06
2.21294e-07
1.96509e-07
3.11445e-06
8.33529e-06
1.98203e-05
3.29365e-05
3.76299e-05
3.68225e-05
3.38001e-05
3.0406e-05
2.75505e-05
2.54895e-05
2.41979e-05
2.35291e-05
2.32838e-05
2.32713e-05
2.33088e-05
2.32026e-05
2.27395e-05
2.1712e-05
2.00078e-05
1.77031e-05
1.5103e-05
1.26142e-05
1.04057e-05
8.59956e-06
7.28062e-06
6.49971e-06
6.3194e-06
6.9347e-06
8.93893e-06
1.33154e-05
1.58557e-05
6.76326e-06
2.4273e-06
2.22842e-07
1.99834e-07
3.12338e-06
8.38032e-06
1.99732e-05
3.30297e-05
3.75089e-05
3.65367e-05
3.34315e-05
3.0042e-05
2.72497e-05
2.52787e-05
2.40867e-05
2.35164e-05
2.33656e-05
2.34428e-05
2.35635e-05
2.35306e-05
2.31258e-05
2.21373e-05
2.04517e-05
1.81495e-05
1.55417e-05
1.303e-05
1.07846e-05
8.93294e-06
7.56625e-06
6.74171e-06
6.52938e-06
7.13516e-06
9.16861e-06
1.36108e-05
1.60754e-05
6.83294e-06
2.44714e-06
2.24384e-07
2.03092e-07
3.1319e-06
8.42464e-06
2.01241e-05
3.31109e-05
3.73699e-05
3.62313e-05
3.30461e-05
2.96662e-05
2.69406e-05
2.50614e-05
2.39695e-05
2.34974e-05
2.34401e-05
2.36054e-05
2.38068e-05
2.38437e-05
2.3493e-05
2.2539e-05
2.08691e-05
1.85701e-05
1.59595e-05
1.34306e-05
1.11545e-05
9.26414e-06
7.856e-06
6.99339e-06
6.75396e-06
7.35504e-06
9.42084e-06
1.39282e-05
1.63013e-05
6.90495e-06
2.46746e-06
2.25929e-07
2.06261e-07
3.13976e-06
8.46743e-06
2.0271e-05
3.3178e-05
3.72115e-05
3.59052e-05
3.26435e-05
2.9278e-05
2.66229e-05
2.48374e-05
2.38463e-05
2.34721e-05
2.35073e-05
2.37591e-05
2.40391e-05
2.41426e-05
2.38419e-05
2.29179e-05
2.12606e-05
1.89648e-05
1.63558e-05
1.38146e-05
1.1514e-05
9.59122e-06
8.14811e-06
7.25329e-06
6.99198e-06
7.59331e-06
9.69582e-06
1.4268e-05
1.6533e-05
6.97906e-06
2.48824e-06
2.27482e-07
2.0935e-07
3.14716e-06
8.50931e-06
2.04151e-05
3.32325e-05
3.70355e-05
3.55612e-05
3.22271e-05
2.88817e-05
2.63009e-05
2.46105e-05
2.37204e-05
2.34431e-05
2.35692e-05
2.39051e-05
2.42606e-05
2.44272e-05
2.41721e-05
2.3274e-05
2.16264e-05
1.93342e-05
1.67303e-05
1.41815e-05
1.18616e-05
9.91252e-06
8.4403e-06
7.51897e-06
7.24122e-06
7.84829e-06
9.99275e-06
1.46296e-05
1.677e-05
7.05541e-06
2.50954e-06
2.29053e-07
2.12337e-07
3.15386e-06
8.54947e-06
2.05545e-05
3.32724e-05
3.68403e-05
3.51978e-05
3.1796e-05
2.84766e-05
2.59742e-05
2.43808e-05
2.35922e-05
2.34113e-05
2.36265e-05
2.40444e-05
2.44725e-05
2.46984e-05
2.44847e-05
2.36082e-05
2.19675e-05
1.96789e-05
1.70835e-05
1.4531e-05
1.21967e-05
1.02267e-05
8.73116e-06
7.7891e-06
7.50044e-06
8.11888e-06
1.03109e-05
1.50122e-05
1.70113e-05
7.1336e-06
2.5313e-06
2.30644e-07
2.15229e-07
3.16003e-06
8.58838e-06
2.06903e-05
3.32993e-05
3.66279e-05
3.48176e-05
3.13533e-05
2.8066e-05
2.5646e-05
2.41515e-05
2.34647e-05
2.33789e-05
2.36813e-05
2.41781e-05
2.46753e-05
2.49564e-05
2.47797e-05
2.39208e-05
2.22848e-05
2.00003e-05
1.74164e-05
1.48637e-05
1.25192e-05
1.05332e-05
9.01935e-06
8.06151e-06
7.76737e-06
8.40311e-06
1.06486e-05
1.5414e-05
1.72558e-05
7.21343e-06
2.55351e-06
2.3226e-07
2.1801e-07
3.16546e-06
8.62542e-06
2.08212e-05
3.33114e-05
3.63962e-05
3.44184e-05
3.08971e-05
2.76486e-05
2.53158e-05
2.39227e-05
2.33386e-05
2.33475e-05
2.37352e-05
2.43082e-05
2.48709e-05
2.52029e-05
2.50585e-05
2.42132e-05
2.25797e-05
2.02998e-05
1.77302e-05
1.51806e-05
1.28297e-05
1.08318e-05
9.3044e-06
8.33574e-06
8.04111e-06
8.69951e-06
1.10039e-05
1.58325e-05
1.75023e-05
7.29451e-06
2.57611e-06
2.33907e-07
2.20691e-07
3.17033e-06
8.66111e-06
2.09483e-05
3.33104e-05
3.61469e-05
3.40019e-05
3.04295e-05
2.72265e-05
2.49857e-05
2.36968e-05
2.32164e-05
2.33193e-05
2.37904e-05
2.44366e-05
2.50608e-05
2.5439e-05
2.53221e-05
2.44865e-05
2.28536e-05
2.05791e-05
1.80262e-05
1.54824e-05
1.31283e-05
1.11222e-05
9.58544e-06
8.61028e-06
8.31957e-06
9.00658e-06
1.13758e-05
1.62662e-05
1.77496e-05
7.37639e-06
2.59901e-06
2.35579e-07
2.23265e-07
3.17453e-06
8.69519e-06
2.10713e-05
3.32951e-05
3.58774e-05
3.35653e-05
2.9948e-05
2.67978e-05
2.46545e-05
2.3474e-05
2.3099e-05
2.32958e-05
2.3849e-05
2.45659e-05
2.52479e-05
2.56677e-05
2.55733e-05
2.47433e-05
2.31091e-05
2.08408e-05
1.83065e-05
1.57708e-05
1.3416e-05
1.14049e-05
9.86224e-06
8.88469e-06
8.60263e-06
9.32298e-06
1.17621e-05
1.67125e-05
1.7996e-05
7.45849e-06
2.6221e-06
2.37278e-07
2.25745e-07
3.17822e-06
8.72813e-06
2.11914e-05
3.32665e-05
3.55886e-05
3.31097e-05
2.94539e-05
2.63633e-05
2.4323e-05
2.32569e-05
2.29879e-05
2.32781e-05
2.39123e-05
2.4698e-05
2.54343e-05
2.58908e-05
2.58139e-05
2.49854e-05
2.33486e-05
2.10877e-05
1.85732e-05
1.60472e-05
1.36941e-05
1.16807e-05
1.01352e-05
9.15877e-06
8.88934e-06
9.64774e-06
1.21612e-05
1.71688e-05
1.82412e-05
7.54065e-06
2.64532e-06
2.39002e-07
2.28127e-07
3.18136e-06
8.7599e-06
2.13084e-05
3.32235e-05
3.52779e-05
3.26323e-05
2.89451e-05
2.59217e-05
2.39892e-05
2.30408e-05
2.28805e-05
2.3266e-05
2.39823e-05
2.48358e-05
2.56234e-05
2.61121e-05
2.60473e-05
2.52165e-05
2.35757e-05
2.13236e-05
1.88287e-05
1.63129e-05
1.39629e-05
1.19494e-05
1.04038e-05
9.43172e-06
9.17898e-06
9.9804e-06
1.2572e-05
1.76338e-05
1.84825e-05
7.62163e-06
2.66844e-06
2.40726e-07
2.30428e-07
3.1841e-06
8.79099e-06
2.14235e-05
3.31667e-05
3.49458e-05
3.2134e-05
2.84231e-05
2.54744e-05
2.36548e-05
2.28278e-05
2.27786e-05
2.32611e-05
2.40601e-05
2.49806e-05
2.58169e-05
2.63333e-05
2.62758e-05
2.54391e-05
2.37941e-05
2.15532e-05
1.90763e-05
1.65701e-05
1.42239e-05
1.2212e-05
1.06687e-05
9.70367e-06
9.47109e-06
1.03202e-05
1.29938e-05
1.81044e-05
1.87191e-05
7.7011e-06
2.69144e-06
2.42446e-07
2.32638e-07
3.18637e-06
8.8212e-06
2.1536e-05
3.30945e-05
3.45898e-05
3.1613e-05
2.78867e-05
2.50204e-05
2.33184e-05
2.2616e-05
2.26806e-05
2.32625e-05
2.4146e-05
2.51338e-05
2.60171e-05
2.65575e-05
2.65024e-05
2.56562e-05
2.40066e-05
2.17793e-05
1.93179e-05
1.68198e-05
1.44775e-05
1.24685e-05
1.09296e-05
9.97448e-06
9.76559e-06
1.06668e-05
1.34265e-05
1.85818e-05
1.89509e-05
7.77939e-06
2.71435e-06
2.44172e-07
2.34773e-07
3.1883e-06
8.85094e-06
2.1647e-05
3.30073e-05
3.42108e-05
3.10711e-05
2.73384e-05
2.4562e-05
2.29817e-05
2.24064e-05
2.25869e-05
2.32703e-05
2.42397e-05
2.52954e-05
2.62243e-05
2.67855e-05
2.67287e-05
2.58697e-05
2.42148e-05
2.20026e-05
1.95547e-05
1.70632e-05
1.47248e-05
1.27195e-05
1.11866e-05
1.02437e-05
1.00617e-05
1.10191e-05
1.3868e-05
1.90629e-05
1.9177e-05
7.85622e-06
2.73726e-06
2.459e-07
2.36823e-07
3.18981e-06
8.87987e-06
2.17551e-05
3.29031e-05
3.38069e-05
3.0508e-05
2.67788e-05
2.40994e-05
2.26444e-05
2.21985e-05
2.24967e-05
2.32835e-05
2.43409e-05
2.54656e-05
2.64398e-05
2.70194e-05
2.69572e-05
2.6082e-05
2.44206e-05
2.22236e-05
1.97872e-05
1.73014e-05
1.49667e-05
1.29658e-05
1.14404e-05
1.0512e-05
1.03599e-05
1.13774e-05
1.43178e-05
1.95459e-05
1.93975e-05
7.93157e-06
2.76018e-06
2.47621e-07
2.38795e-07
3.19096e-06
8.90815e-06
2.18607e-05
3.27821e-05
3.33794e-05
2.99264e-05
2.6211e-05
2.36352e-05
2.23083e-05
2.19927e-05
2.24096e-05
2.33011e-05
2.4448e-05
2.56429e-05
2.66625e-05
2.72592e-05
2.7189e-05
2.62952e-05
2.4626e-05
2.24438e-05
2.00174e-05
1.75363e-05
1.52049e-05
1.32085e-05
1.16911e-05
1.07785e-05
1.06587e-05
1.17398e-05
1.47738e-05
2.00286e-05
1.96113e-05
8.00509e-06
2.78285e-06
2.49328e-07
2.40673e-07
3.19157e-06
8.93506e-06
2.19615e-05
3.26419e-05
3.29274e-05
2.93271e-05
2.56365e-05
2.31707e-05
2.19741e-05
2.17895e-05
2.23254e-05
2.33226e-05
2.45602e-05
2.58264e-05
2.68917e-05
2.75044e-05
2.74244e-05
2.65104e-05
2.48327e-05
2.26639e-05
2.02458e-05
1.77687e-05
1.54405e-05
1.34491e-05
1.19406e-05
1.10453e-05
1.09601e-05
1.21071e-05
1.52353e-05
2.05092e-05
1.98189e-05
8.07683e-06
2.80521e-06
2.51021e-07
2.42463e-07
3.19169e-06
8.96072e-06
2.20576e-05
3.24828e-05
3.24524e-05
2.87132e-05
2.50584e-05
2.27084e-05
2.16433e-05
2.15891e-05
2.22436e-05
2.33463e-05
2.46754e-05
2.60139e-05
2.71256e-05
2.77543e-05
2.7664e-05
2.67295e-05
2.50434e-05
2.28863e-05
2.04744e-05
1.8e-05
1.56746e-05
1.36882e-05
1.21887e-05
1.13108e-05
1.12613e-05
1.24775e-05
1.57008e-05
2.09864e-05
2.00201e-05
8.14676e-06
2.82722e-06
2.52699e-07
2.44146e-07
3.19113e-06
8.98417e-06
2.21463e-05
3.2303e-05
3.19543e-05
2.80863e-05
2.44786e-05
2.22496e-05
2.13171e-05
2.13924e-05
2.21639e-05
2.33714e-05
2.4792e-05
2.62033e-05
2.73619e-05
2.8007e-05
2.79069e-05
2.69533e-05
2.52604e-05
2.31123e-05
2.07041e-05
1.82309e-05
1.5908e-05
1.39267e-05
1.2437e-05
1.15783e-05
1.15672e-05
1.28518e-05
1.61692e-05
2.14588e-05
2.0215e-05
8.21485e-06
2.84886e-06
2.54358e-07
2.45725e-07
3.18984e-06
9.00517e-06
2.22271e-05
3.21026e-05
3.14345e-05
2.74487e-05
2.38991e-05
2.17961e-05
2.09974e-05
2.12001e-05
2.20859e-05
2.33965e-05
2.4908e-05
2.63925e-05
2.75986e-05
2.8261e-05
2.81529e-05
2.71834e-05
2.5487e-05
2.33445e-05
2.09364e-05
1.84624e-05
1.61413e-05
1.41653e-05
1.26863e-05
1.18486e-05
1.18782e-05
1.3231e-05
1.66407e-05
2.19261e-05
2.04044e-05
8.28135e-06
2.87016e-06
2.56e-07
2.4719e-07
3.18764e-06
9.02279e-06
2.2298e-05
3.18806e-05
3.08927e-05
2.68006e-05
2.33199e-05
2.13477e-05
2.06869e-05
2.10137e-05
2.20101e-05
2.34215e-05
2.50229e-05
2.65802e-05
2.7834e-05
2.85145e-05
2.84006e-05
2.74193e-05
2.57237e-05
2.35834e-05
2.11719e-05
1.86952e-05
1.63752e-05
1.44049e-05
1.29374e-05
1.21221e-05
1.21938e-05
1.36153e-05
1.71151e-05
2.2388e-05
2.0589e-05
8.34633e-06
2.89111e-06
2.57624e-07
2.48547e-07
3.18447e-06
9.03677e-06
2.23587e-05
3.16368e-05
3.03283e-05
2.61422e-05
2.27409e-05
2.0903e-05
2.03809e-05
2.08304e-05
2.19363e-05
2.34475e-05
2.51378e-05
2.67673e-05
2.80687e-05
2.87678e-05
2.865e-05
2.76606e-05
2.59696e-05
2.38287e-05
2.1411e-05
1.89297e-05
1.66101e-05
1.46455e-05
1.31904e-05
1.23988e-05
1.25142e-05
1.40052e-05
1.75926e-05
2.28448e-05
2.07696e-05
8.41021e-06
2.91179e-06
2.59234e-07
2.49804e-07