/*--------------------------------*- C++ -*----------------------------------*\
| =========                 |                                                 |
| \\      /  F ield         | OpenFOAM: The Open Source CFD Toolbox           |
|  \\    /   O peration     | Version:  v2006                                 |
|   \\  /    A nd           | Website:  www.openfoam.com                      |
|    \\/     M anipulation  |                                                 |
\*---------------------------------------------------------------------------*/
FoamFile
{
    version     2.0;
    format      ascii;
    class       volScalarField;
    location    "84";
    object      nut;
}
// * * * * * * * * * * * * * * * * * * * * * * * * * * * * * * * * * * * * * //

dimensions      [0 2 -1 0 0 0 0];


internalField   nonuniform List<scalar> 
78750
(
1.50881e-09
2.21117e-07
4.45434e-07
6.92375e-07
9.5174e-07
1.21356e-06
1.46999e-06
1.71546e-06
1.94612e-06
2.15932e-06
2.35325e-06
2.52675e-06
2.67922e-06
2.81012e-06
2.91868e-06
3.00504e-06
3.06929e-06
3.11144e-06
3.1314e-06
3.12895e-06
3.10372e-06
3.05543e-06
2.98273e-06
2.88466e-06
2.76044e-06
2.60941e-06
2.43065e-06
2.22468e-06
1.99286e-06
1.73657e-06
1.45567e-06
1.14833e-06
8.17728e-07
4.79715e-07
5.87047e-09
3.92273e-09
2.748e-06
4.77637e-06
6.33141e-06
7.62854e-06
8.88846e-06
1.01618e-05
1.14553e-05
1.27734e-05
1.41254e-05
1.55179e-05
1.69692e-05
1.85386e-05
1.9802e-05
2.0083e-05
2.02557e-05
2.03274e-05
2.03044e-05
2.01919e-05
1.99941e-05
1.97134e-05
1.93502e-05
1.89007e-05
1.83593e-05
1.77191e-05
1.68624e-05
1.49225e-05
1.30211e-05
1.11434e-05
9.16005e-06
7.01314e-06
5.01783e-06
3.78826e-06
2.07008e-06
1.86923e-08
6.62064e-09
2.05486e-06
4.39615e-06
6.92706e-06
9.45767e-06
1.18419e-05
1.39875e-05
1.58752e-05
1.75268e-05
1.89686e-05
2.02146e-05
2.12665e-05
2.21484e-05
2.28866e-05
2.3058e-05
2.2896e-05
2.26378e-05
2.22978e-05
2.18911e-05
2.14333e-05
2.06997e-05
1.94889e-05
1.81766e-05
1.68847e-05
1.56953e-05
1.46275e-05
1.36387e-05
1.26115e-05
1.13438e-05
9.64377e-06
7.63757e-06
6.08451e-06
5.69219e-06
2.01477e-06
3.20974e-08
9.81682e-09
1.94865e-06
4.42118e-06
7.85426e-06
1.20554e-05
1.61267e-05
1.93508e-05
2.1703e-05
2.33798e-05
2.45177e-05
2.51893e-05
2.54392e-05
2.53087e-05
2.4853e-05
2.41323e-05
2.3199e-05
2.21069e-05
2.09101e-05
1.96546e-05
1.83764e-05
1.71006e-05
1.58645e-05
1.47223e-05
1.37199e-05
1.28931e-05
1.2252e-05
1.17374e-05
1.11749e-05
1.02917e-05
8.92506e-06
7.41585e-06
6.70006e-06
7.10691e-06
1.84376e-06
4.28117e-08
1.39993e-08
1.89972e-06
4.52852e-06
8.68756e-06
1.42313e-05
1.94232e-05
2.30545e-05
2.53242e-05
2.65741e-05
2.69875e-05
2.67006e-05
2.58563e-05
2.46142e-05
2.31412e-05
2.15882e-05
2.00665e-05
1.86392e-05
1.73262e-05
1.61188e-05
1.49963e-05
1.39428e-05
1.296e-05
1.20736e-05
1.13202e-05
1.07307e-05
1.03097e-05
9.99365e-06
9.61082e-06
8.93243e-06
7.9178e-06
7.01807e-06
7.15788e-06
7.51877e-06
1.73309e-06
5.01886e-08
1.81498e-08
1.92313e-06
4.71985e-06
9.49031e-06
1.62173e-05
2.23931e-05
2.62911e-05
2.8295e-05
2.89125e-05
2.84527e-05
2.718e-05
2.53717e-05
2.33137e-05
2.12566e-05
1.93694e-05
1.77287e-05
1.63395e-05
1.51644e-05
1.41488e-05
1.32393e-05
1.23999e-05
1.16186e-05
1.08992e-05
1.02548e-05
9.70655e-06
9.26144e-06
8.87086e-06
8.40931e-06
7.74877e-06
6.96603e-06
6.53447e-06
7.35689e-06
7.42087e-06
1.68206e-06
5.58905e-08
2.20729e-08
1.9513e-06
4.86648e-06
1.00424e-05
1.75125e-05
2.41656e-05
2.80304e-05
2.96739e-05
2.96863e-05
2.84583e-05
2.6384e-05
2.38877e-05
2.13576e-05
1.9062e-05
1.71211e-05
1.55397e-05
1.42679e-05
1.32422e-05
1.23993e-05
1.16867e-05
1.10722e-05
1.0538e-05
1.00534e-05
9.58688e-06
9.12499e-06
8.66118e-06
8.16688e-06
7.58679e-06
6.90801e-06
6.29214e-06
6.19752e-06
7.505e-06
7.04709e-06
1.64527e-06
6.09979e-08
2.56267e-08
1.97897e-06
4.95816e-06
1.03671e-05
1.83549e-05
2.54231e-05
2.92832e-05
3.06044e-05
3.00906e-05
2.82562e-05
2.56339e-05
2.27537e-05
2.00313e-05
1.76897e-05
1.5782e-05
1.42684e-05
1.30786e-05
1.21401e-05
1.13902e-05
1.07853e-05
1.0303e-05
9.91952e-06
9.57984e-06
9.22079e-06
8.79592e-06
8.28224e-06
7.67196e-06
6.97676e-06
6.27128e-06
5.75951e-06
5.8743e-06
7.48745e-06
6.7521e-06
1.62919e-06
6.62811e-08
2.87869e-08
1.9985e-06
5.01245e-06
1.0557e-05
1.88383e-05
2.60822e-05
2.98382e-05
3.08671e-05
2.99486e-05
2.76929e-05
2.4734e-05
2.16603e-05
1.88747e-05
1.65466e-05
1.46811e-05
1.32136e-05
1.20691e-05
1.11811e-05
1.04965e-05
9.98649e-06
9.64394e-06
9.43305e-06
9.26745e-06
9.04588e-06
8.68168e-06
8.13142e-06
7.41302e-06
6.60948e-06
5.8694e-06
5.42105e-06
5.67606e-06
7.49365e-06
6.44717e-06
1.61579e-06
7.19451e-08
3.20617e-08
2.01865e-06
5.0538e-06
1.06856e-05
1.91774e-05
2.65676e-05
3.02553e-05
3.10655e-05
2.98571e-05
2.73266e-05
2.41769e-05
2.10147e-05
1.8213e-05
1.58987e-05
1.40491e-05
1.25892e-05
1.14422e-05
1.05484e-05
9.86572e-06
9.37896e-06
9.09667e-06
8.98076e-06
8.93238e-06
8.8244e-06
8.53202e-06
7.98333e-06
7.2064e-06
6.33631e-06
5.57633e-06
5.17065e-06
5.51846e-06
7.47253e-06
6.2028e-06
1.6083e-06
7.78626e-08
3.50351e-08
2.03156e-06
5.07684e-06
1.07627e-05
1.93813e-05
2.68271e-05
3.04147e-05
3.10283e-05
2.95887e-05
2.68611e-05
2.35975e-05
2.04055e-05
1.76226e-05
1.53394e-05
1.35138e-05
1.20652e-05
1.09194e-05
1.00209e-05
9.33777e-06
8.87021e-06
8.63973e-06
8.60234e-06
8.65057e-06
8.63818e-06
8.4106e-06
7.87351e-06
7.06335e-06
6.15383e-06
5.38684e-06
5.01792e-06
5.44259e-06
7.50795e-06
5.96964e-06
1.60192e-06
8.38389e-08
3.84174e-08
2.04913e-06
5.11325e-06
1.08725e-05
1.96246e-05
2.70955e-05
3.05705e-05
3.10113e-05
2.9396e-05
2.65408e-05
2.32205e-05
2.00274e-05
1.72658e-05
1.50012e-05
1.31805e-05
1.17221e-05
1.05553e-05
9.63017e-06
8.92161e-06
8.44053e-06
8.22089e-06
8.21895e-06
8.32552e-06
8.38427e-06
8.21932e-06
7.71629e-06
6.91149e-06
6.00025e-06
5.24662e-06
4.91526e-06
5.40725e-06
7.56703e-06
5.77282e-06
1.59869e-06
8.97477e-08
4.15588e-08
2.06222e-06
5.14079e-06
1.09572e-05
1.98027e-05
2.72684e-05
3.06299e-05
3.09118e-05
2.91434e-05
2.61883e-05
2.28392e-05
1.96678e-05
1.69444e-05
1.47107e-05
1.29046e-05
1.14445e-05
1.02632e-05
9.31608e-06
8.5848e-06
8.0902e-06
7.87483e-06
7.8937e-06
8.03693e-06
8.14244e-06
8.02258e-06
7.55211e-06
6.76794e-06
5.87652e-06
5.15179e-06
4.86413e-06
5.42588e-06
7.67466e-06
5.59394e-06
1.5972e-06
9.54693e-08
4.51134e-08
2.07978e-06
5.18332e-06
1.10854e-05
2.00502e-05
2.74847e-05
3.07077e-05
3.08358e-05
2.89446e-05
2.59289e-05
2.25799e-05
1.9441e-05
1.67528e-05
1.45404e-05
1.27375e-05
1.12643e-05
1.00579e-05
9.07859e-06
8.31346e-06
7.79038e-06
7.56049e-06
7.57871e-06
7.73668e-06
7.87077e-06
7.78813e-06
7.35695e-06
6.61186e-06
5.76094e-06
5.07948e-06
4.84135e-06
5.474e-06
7.80441e-06
5.44453e-06
1.59835e-06
1.00991e-07
4.84772e-08
2.09493e-06
5.22194e-06
1.12e-05
2.02583e-05
2.76504e-05
3.07444e-05
3.07321e-05
2.87323e-05
2.56701e-05
2.23341e-05
1.92387e-05
1.6595e-05
1.4412e-05
1.26192e-05
1.11385e-05
9.91083e-06
8.90133e-06
8.10247e-06
7.5486e-06
7.29859e-06
7.30732e-06
7.4658e-06
7.6124e-06
7.55396e-06
7.15794e-06
6.45804e-06
5.65874e-06
5.03017e-06
4.84802e-06
5.55729e-06
7.96295e-06
5.3142e-06
1.6013e-06
1.06276e-07
5.21558e-08
2.11315e-06
5.27074e-06
1.13452e-05
2.05171e-05
2.78505e-05
3.08008e-05
3.0655e-05
2.85691e-05
2.54849e-05
2.21765e-05
1.91274e-05
1.65237e-05
1.43634e-05
1.25739e-05
1.10795e-05
9.82484e-06
8.77922e-06
7.93991e-06
7.34545e-06
7.06216e-06
7.048e-06
7.1949e-06
7.34322e-06
7.30352e-06
6.94466e-06
6.29792e-06
5.55974e-06
4.99148e-06
4.87025e-06
5.65969e-06
8.13238e-06
5.20728e-06
1.60627e-06
1.11342e-07
5.56945e-08
2.13022e-06
5.31838e-06
1.14843e-05
2.07532e-05
2.80227e-05
3.08397e-05
3.05725e-05
2.8411e-05
2.53131e-05
2.20387e-05
1.90416e-05
1.64839e-05
1.43523e-05
1.25719e-05
1.10683e-05
9.7891e-06
8.70798e-06
7.82712e-06
7.18883e-06
6.86634e-06
6.82148e-06
6.94752e-06
7.08807e-06
7.05893e-06
6.73371e-06
6.14169e-06
5.46886e-06
4.9655e-06
4.90981e-06
5.78461e-06
8.31479e-06
5.11682e-06
1.61267e-06
1.16176e-07
5.94484e-08
2.14921e-06
5.37237e-06
1.16428e-05
2.10217e-05
2.82195e-05
3.08998e-05
3.05205e-05
2.82999e-05
2.52019e-05
2.19667e-05
1.90199e-05
1.65038e-05
1.43969e-05
1.26225e-05
1.11072e-05
9.801e-06
8.68149e-06
7.75463e-06
7.06615e-06
6.69478e-06
6.60953e-06
6.70572e-06
6.83158e-06
6.80969e-06
6.51845e-06
5.98389e-06
5.3799e-06
4.94473e-06
4.95778e-06
5.92119e-06
8.49886e-06
5.04305e-06
1.62032e-06
1.20788e-07
6.31029e-08
2.16768e-06
5.42651e-06
1.18e-05
2.12789e-05
2.8403e-05
3.09556e-05
3.04739e-05
2.82012e-05
2.51072e-05
2.19139e-05
1.90206e-05
1.65507e-05
1.44741e-05
1.27111e-05
1.11885e-05
9.85812e-06
8.70078e-06
7.72633e-06
6.9842e-06
6.55771e-06
6.42497e-06
6.48385e-06
6.58801e-06
6.56831e-06
6.30884e-06
5.8316e-06
5.29694e-06
4.93143e-06
5.01609e-06
6.07219e-06
8.68633e-06
4.98252e-06
1.62907e-06
1.25171e-07
6.68955e-08
2.18721e-06
5.48462e-06
1.19705e-05
2.15591e-05
2.86071e-05
3.10341e-05
3.04583e-05
2.8143e-05
2.50581e-05
2.19062e-05
1.90632e-05
1.66368e-05
1.45892e-05
1.2838e-05
1.1309e-05
9.95527e-06
8.75963e-06
7.73524e-06
6.93473e-06
6.44559e-06
6.25786e-06
6.27267e-06
6.34986e-06
6.32921e-06
6.10046e-06
5.68088e-06
5.21645e-06
4.92111e-06
5.07905e-06
6.2301e-06
8.86967e-06
4.93339e-06
1.63847e-06
1.29326e-07
7.0616e-08
2.20633e-06
5.54301e-06
1.21421e-05
2.18367e-05
2.88096e-05
3.11184e-05
3.04548e-05
2.80997e-05
2.50241e-05
2.19141e-05
1.91235e-05
1.67447e-05
1.47315e-05
1.29979e-05
1.14677e-05
1.00938e-05
8.86079e-06
7.78483e-06
6.92217e-06
6.36419e-06
6.11502e-06
6.07971e-06
6.12478e-06
6.09943e-06
5.89893e-06
5.53517e-06
5.14001e-06
4.91549e-06
5.14797e-06
6.39657e-06
9.05062e-06
4.89454e-06
1.64863e-06
1.33264e-07
7.44175e-08
2.22581e-06
5.60346e-06
1.23232e-05
2.2134e-05
2.90352e-05
3.12291e-05
3.04804e-05
2.80867e-05
2.50192e-05
2.19483e-05
1.92079e-05
1.68759e-05
1.48987e-05
1.31858e-05
1.16585e-05
1.02681e-05
8.99952e-06
7.87128e-06
6.94294e-06
6.30957e-06
5.99242e-06
5.90126e-06
5.90971e-06
5.87657e-06
5.70223e-06
5.39258e-06
5.06517e-06
4.91115e-06
5.21996e-06
6.56729e-06
9.22497e-06
4.86437e-06
1.65923e-06
1.36981e-07
7.81657e-08
2.24477e-06
5.6634e-06
1.25046e-05
2.2433e-05
2.92658e-05
3.1352e-05
3.05206e-05
2.80856e-05
2.50245e-05
2.19928e-05
1.93047e-05
1.70235e-05
1.50874e-05
1.3401e-05
1.18824e-05
1.04801e-05
9.17837e-06
7.99734e-06
7e-06
6.28541e-06
5.8942e-06
5.74165e-06
5.70891e-06
5.66439e-06
5.51328e-06
5.25505e-06
4.99309e-06
4.90808e-06
5.29348e-06
6.74157e-06
9.39404e-06
4.84223e-06
1.67044e-06
1.40493e-07
8.19515e-08
2.26363e-06
5.72354e-06
1.2688e-05
2.27327e-05
2.94886e-05
3.14695e-05
3.0567e-05
2.80961e-05
2.50425e-05
2.20495e-05
1.94129e-05
1.71832e-05
1.52911e-05
1.36363e-05
1.21326e-05
1.07245e-05
9.39397e-06
8.16157e-06
7.09328e-06
6.29253e-06
5.82127e-06
5.60169e-06
5.52286e-06
5.46281e-06
5.33125e-06
5.12118e-06
4.92214e-06
4.90493e-06
5.36744e-06
6.9189e-06
9.56284e-06
4.82754e-06
1.68181e-06
1.43798e-07
8.56986e-08
2.28217e-06
5.78348e-06
1.28701e-05
2.30224e-05
2.9701e-05
3.15809e-05
3.0611e-05
2.81142e-05
2.50686e-05
2.2113e-05
1.95286e-05
1.73531e-05
1.55093e-05
1.38919e-05
1.24094e-05
1.10017e-05
9.64705e-06
8.36521e-06
7.22472e-06
6.33393e-06
5.77688e-06
5.48493e-06
5.35512e-06
5.27492e-06
5.15846e-06
4.99239e-06
4.85296e-06
4.90152e-06
5.44069e-06
7.09667e-06
9.72795e-06
4.82203e-06
1.694e-06
1.4692e-07
8.94536e-08
2.30031e-06
5.84371e-06
1.30567e-05
2.33075e-05
2.99062e-05
3.16859e-05
3.06502e-05
2.81313e-05
2.50949e-05
2.21773e-05
1.96461e-05
1.75267e-05
1.57349e-05
1.41603e-05
1.27064e-05
1.1307e-05
9.93508e-06
8.60799e-06
7.39598e-06
6.4128e-06
5.76424e-06
5.3942e-06
5.20796e-06
5.10225e-06
4.99547e-06
4.86842e-06
4.78478e-06
4.89726e-06
5.51443e-06
7.28046e-06
9.89319e-06
4.82659e-06
1.7073e-06
1.49868e-07
9.31724e-08
2.31764e-06
5.90163e-06
1.32379e-05
2.35811e-05
3.00992e-05
3.17822e-05
3.06842e-05
2.81462e-05
2.51227e-05
2.22446e-05
1.97668e-05
1.77047e-05
1.59679e-05
1.4441e-05
1.30219e-05
1.16382e-05
1.0256e-05
8.88885e-06
7.60764e-06
6.53172e-06
5.78655e-06
5.33291e-06
5.08468e-06
4.9477e-06
4.84462e-06
4.7509e-06
4.7186e-06
4.89258e-06
5.58793e-06
7.46626e-06
1.00573e-05
4.83855e-06
1.72146e-06
1.52656e-07
9.688e-08
2.33458e-06
5.95881e-06
1.34176e-05
2.38492e-05
3.02842e-05
3.18706e-05
3.07106e-05
2.81546e-05
2.51495e-05
2.23094e-05
1.98838e-05
1.78803e-05
1.6202e-05
1.47283e-05
1.33514e-05
1.19916e-05
1.06077e-05
9.2073e-06
7.86089e-06
6.69326e-06
5.84668e-06
5.3037e-06
4.98758e-06
4.81301e-06
4.70697e-06
4.64035e-06
4.65457e-06
4.88724e-06
5.66011e-06
7.65161e-06
1.02198e-05
4.85669e-06
1.73629e-06
1.5529e-07
1.00562e-07
2.35104e-06
6.01478e-06
1.35943e-05
2.41086e-05
3.04582e-05
3.19495e-05
3.0729e-05
2.81558e-05
2.51715e-05
2.237e-05
1.99976e-05
1.80545e-05
1.64373e-05
1.50207e-05
1.36916e-05
1.23633e-05
1.09859e-05
9.5598e-06
8.15349e-06
6.89651e-06
5.9454e-06
5.30848e-06
4.91903e-06
4.70052e-06
4.58455e-06
4.53833e-06
4.59374e-06
4.88179e-06
5.7309e-06
7.83528e-06
1.03796e-05
4.8795e-06
1.75156e-06
1.57776e-07
1.0422e-07
2.36715e-06
6.07002e-06
1.37691e-05
2.43611e-05
3.06227e-05
3.20185e-05
3.07373e-05
2.81467e-05
2.51831e-05
2.24215e-05
2.01039e-05
1.82233e-05
1.66701e-05
1.53149e-05
1.40397e-05
1.27506e-05
1.13885e-05
9.94489e-06
8.48458e-06
7.14088e-06
6.08313e-06
5.34834e-06
4.88045e-06
4.6117e-06
4.47863e-06
4.44578e-06
4.53666e-06
4.87611e-06
5.79918e-06
8.01599e-06
1.05367e-05
4.90622e-06
1.76715e-06
1.60121e-07
1.07857e-07
2.38311e-06
6.12493e-06
1.39421e-05
2.46062e-05
3.07769e-05
3.20774e-05
3.07358e-05
2.81284e-05
2.51864e-05
2.2466e-05
2.02044e-05
1.83872e-05
1.68996e-05
1.56085e-05
1.43916e-05
1.31483e-05
1.18098e-05
1.03574e-05
8.85015e-06
7.42354e-06
6.25883e-06
5.42352e-06
4.87291e-06
4.54809e-06
4.3909e-06
4.36428e-06
4.48462e-06
4.87154e-06
5.86701e-06
8.19356e-06
1.06907e-05
4.93595e-06
1.7829e-06
1.62334e-07
1.11463e-07
2.39892e-06
6.17965e-06
1.41127e-05
2.48431e-05
3.09197e-05
3.21239e-05
3.07211e-05
2.80969e-05
2.51773e-05
2.25001e-05
2.02962e-05
1.85442e-05
1.71242e-05
1.59001e-05
1.47461e-05
1.35548e-05
1.22479e-05
1.07955e-05
9.24849e-06
7.74329e-06
6.47221e-06
5.53426e-06
4.89697e-06
4.5105e-06
4.32231e-06
4.29476e-06
4.43854e-06
4.86907e-06
5.93542e-06
8.36836e-06
1.08427e-05
4.96834e-06
1.79876e-06
1.64423e-07
1.15053e-07
2.41485e-06
6.23556e-06
1.42816e-05
2.50724e-05
3.10516e-05
3.21584e-05
3.06939e-05
2.80529e-05
2.51569e-05
2.2525e-05
2.038e-05
1.86936e-05
1.7342e-05
1.61868e-05
1.50987e-05
1.39648e-05
1.26968e-05
1.1253e-05
9.6746e-06
8.09667e-06
6.72166e-06
5.68026e-06
4.95314e-06
4.49999e-06
4.27422e-06
4.23871e-06
4.39977e-06
4.86954e-06
6.00397e-06
8.54066e-06
1.09927e-05
5.00279e-06
1.81461e-06
1.66398e-07
1.18602e-07
2.43023e-06
6.29081e-06
1.44464e-05
2.52918e-05
3.11704e-05
3.21782e-05
3.06508e-05
2.79927e-05
2.51215e-05
2.25401e-05
2.04548e-05
1.88346e-05
1.75529e-05
1.64688e-05
1.54499e-05
1.43778e-05
1.31552e-05
1.17277e-05
1.0126e-05
8.48165e-06
7.00614e-06
5.86123e-06
5.04168e-06
4.51714e-06
4.24752e-06
4.19712e-06
4.36918e-06
4.87334e-06
6.07237e-06
8.71025e-06
1.11414e-05
5.03918e-06
1.83045e-06
1.68268e-07
1.22109e-07
2.44491e-06
6.34436e-06
1.4609e-05
2.55038e-05
3.12769e-05
3.21842e-05
3.05932e-05
2.7918e-05
2.50718e-05
2.25419e-05
2.05176e-05
1.89648e-05
1.77543e-05
1.67429e-05
1.57956e-05
1.47889e-05
1.3617e-05
1.22135e-05
1.05968e-05
8.89362e-06
7.32292e-06
6.07598e-06
5.16247e-06
4.56256e-06
4.24325e-06
4.17129e-06
4.34805e-06
4.88148e-06
6.14123e-06
8.87743e-06
1.12889e-05
5.07712e-06
1.84621e-06
1.70045e-07
1.25549e-07
2.45902e-06
6.39622e-06
1.47667e-05
2.57054e-05
3.13702e-05
3.21731e-05
3.05158e-05
2.78236e-05
2.50047e-05
2.25296e-05
2.05691e-05
1.90857e-05
1.79481e-05
1.70109e-05
1.61369e-05
1.51984e-05
1.40816e-05
1.2708e-05
1.10837e-05
9.3292e-06
7.66939e-06
6.32283e-06
5.31477e-06
4.63627e-06
4.26197e-06
4.16201e-06
4.33716e-06
4.89455e-06
6.21081e-06
9.04233e-06
1.14362e-05
5.1167e-06
1.86194e-06
1.7174e-07
1.28953e-07
2.47251e-06
6.44711e-06
1.49251e-05
2.59039e-05
3.14531e-05
3.21495e-05
3.04262e-05
2.77175e-05
2.49248e-05
2.25011e-05
2.06044e-05
1.91934e-05
1.81311e-05
1.72693e-05
1.64701e-05
1.56019e-05
1.45437e-05
1.32055e-05
1.15809e-05
9.78305e-06
8.04152e-06
6.59913e-06
5.49721e-06
4.73802e-06
4.30431e-06
4.17045e-06
4.33777e-06
4.91362e-06
6.28189e-06
9.20541e-06
1.15832e-05
5.15759e-06
1.87758e-06
1.73362e-07
1.32309e-07
2.48554e-06
6.49697e-06
1.50809e-05
2.60928e-05
3.15222e-05
3.21092e-05
3.03172e-05
2.75916e-05
2.48278e-05
2.24609e-05
2.06305e-05
1.92903e-05
1.83036e-05
1.75197e-05
1.67971e-05
1.6001e-05
1.50038e-05
1.3705e-05
1.20859e-05
1.02519e-05
8.43596e-06
6.90207e-06
5.70776e-06
4.86663e-06
4.36995e-06
4.19701e-06
4.35071e-06
4.93956e-06
6.35505e-06
9.36683e-06
1.1731e-05
5.19998e-06
1.89321e-06
1.74925e-07
1.35625e-07
2.49817e-06
6.54634e-06
1.52367e-05
2.62752e-05
3.1578e-05
3.20527e-05
3.01917e-05
2.74502e-05
2.4716e-05
2.24058e-05
2.06435e-05
1.93769e-05
1.84653e-05
1.77585e-05
1.71135e-05
1.6391e-05
1.54571e-05
1.42011e-05
1.25931e-05
1.07302e-05
8.84811e-06
7.2283e-06
5.94435e-06
5.02118e-06
4.45888e-06
4.24231e-06
4.377e-06
4.97351e-06
6.43141e-06
9.52741e-06
1.18796e-05
5.24369e-06
1.90879e-06
1.76436e-07
1.38884e-07
2.51023e-06
6.59429e-06
1.53889e-05
2.64473e-05
3.16192e-05
3.19789e-05
3.00475e-05
2.72905e-05
2.45878e-05
2.23368e-05
2.0645e-05
1.94537e-05
1.86193e-05
1.79899e-05
1.74221e-05
1.6774e-05
1.59045e-05
1.46936e-05
1.31005e-05
1.12148e-05
9.27386e-06
7.57398e-06
6.20394e-06
5.19974e-06
4.57031e-06
4.30655e-06
4.41739e-06
5.01641e-06
6.51179e-06
9.68783e-06
1.20297e-05
5.28891e-06
1.92439e-06
1.7791e-07
1.42101e-07
2.52185e-06
6.64152e-06
1.55401e-05
2.66112e-05
3.16459e-05
3.18875e-05
2.98847e-05
2.71134e-05
2.44437e-05
2.22532e-05
2.06331e-05
1.95182e-05
1.87619e-05
1.82109e-05
1.77202e-05
1.7146e-05
1.63419e-05
1.51783e-05
1.36037e-05
1.1701e-05
9.70877e-06
7.93548e-06
6.48378e-06
5.40044e-06
4.70337e-06
4.3898e-06
4.47273e-06
5.06965e-06
6.59797e-06
9.84983e-06
1.21818e-05
5.33558e-06
1.94002e-06
1.79354e-07
1.45266e-07
2.533e-06
6.68756e-06
1.5688e-05
2.67643e-05
3.16573e-05
3.17786e-05
2.97039e-05
2.69194e-05
2.42847e-05
2.21568e-05
2.06103e-05
1.9573e-05
1.88955e-05
1.84232e-05
1.80099e-05
1.75089e-05
1.67694e-05
1.56535e-05
1.40998e-05
1.21848e-05
1.01482e-05
8.30856e-06
6.78046e-06
5.62092e-06
4.85673e-06
4.49169e-06
4.54345e-06
5.13417e-06
6.69113e-06
1.00146e-05
1.23366e-05
5.3838e-06
1.95571e-06
1.80776e-07
1.48374e-07
2.54355e-06
6.73224e-06
1.5833e-05
2.69076e-05
3.16534e-05
3.16512e-05
2.95038e-05
2.67074e-05
2.41097e-05
2.2046e-05
2.05747e-05
1.96159e-05
1.90176e-05
1.86241e-05
1.82881e-05
1.78602e-05
1.71845e-05
1.61162e-05
1.45851e-05
1.26619e-05
1.05877e-05
8.68929e-06
7.09077e-06
5.85883e-06
5.02898e-06
4.61186e-06
4.63023e-06
5.21163e-06
6.79378e-06
1.0185e-05
1.2495e-05
5.4336e-06
1.9715e-06
1.82182e-07
1.51425e-07
2.5536e-06
6.77574e-06
1.59751e-05
2.70403e-05
3.16342e-05
3.15062e-05
2.9286e-05
2.64797e-05
2.39212e-05
2.19236e-05
2.05291e-05
1.96499e-05
1.91309e-05
1.88158e-05
1.85562e-05
1.82002e-05
1.75869e-05
1.65645e-05
1.50567e-05
1.31285e-05
1.10228e-05
9.07309e-06
7.4108e-06
6.11124e-06
5.21825e-06
4.74933e-06
4.73288e-06
5.30253e-06
6.90717e-06
1.03628e-05
1.26576e-05
5.48503e-06
1.98741e-06
1.83575e-07
1.54416e-07
2.56305e-06
6.81779e-06
1.61139e-05
2.71622e-05
3.15988e-05
3.13423e-05
2.90491e-05
2.62346e-05
2.37177e-05
2.1788e-05
2.04717e-05
1.96729e-05
1.92336e-05
1.89966e-05
1.88126e-05
1.85272e-05
1.79748e-05
1.6997e-05
1.55114e-05
1.35814e-05
1.145e-05
9.45623e-06
7.73685e-06
6.37509e-06
5.42248e-06
4.90331e-06
4.85188e-06
5.40863e-06
7.03419e-06
1.05513e-05
1.28248e-05
5.53807e-06
2.00349e-06
1.84954e-07
1.57353e-07
2.57204e-06
6.85885e-06
1.62503e-05
2.72739e-05
3.15483e-05
3.11608e-05
2.8795e-05
2.59749e-05
2.35022e-05
2.16423e-05
2.04058e-05
1.96881e-05
1.93283e-05
1.91687e-05
1.90588e-05
1.88419e-05
1.83477e-05
1.74122e-05
1.59475e-05
1.4016e-05
1.18647e-05
9.83463e-06
8.06532e-06
6.64723e-06
5.63918e-06
5.07201e-06
4.98619e-06
5.52968e-06
7.17568e-06
1.07521e-05
1.29968e-05
5.59272e-06
2.01977e-06
1.86321e-07
1.60229e-07
2.58047e-06
6.8986e-06
1.63835e-05
2.73746e-05
3.14813e-05
3.09604e-05
2.85224e-05
2.56994e-05
2.32735e-05
2.14853e-05
2.03298e-05
1.96939e-05
1.94138e-05
1.93311e-05
1.92942e-05
1.91437e-05
1.87051e-05
1.78091e-05
1.63643e-05
1.44327e-05
1.22657e-05
1.02054e-05
8.39281e-06
6.92461e-06
5.86609e-06
5.25432e-06
5.13601e-06
5.66717e-06
7.33414e-06
1.09681e-05
1.31738e-05
5.64897e-06
2.03628e-06
1.87674e-07
1.63053e-07
2.58851e-06
6.93762e-06
1.65149e-05
2.74655e-05
3.13991e-05
3.07426e-05
2.82338e-05
2.5411e-05
2.30348e-05
2.13201e-05
2.02468e-05
1.96929e-05
1.94922e-05
1.94854e-05
1.95196e-05
1.94327e-05
1.90464e-05
1.81866e-05
1.67596e-05
1.48294e-05
1.26514e-05
1.05668e-05
8.71704e-06
7.20461e-06
6.10069e-06
5.44806e-06
5.29967e-06
5.82017e-06
7.51003e-06
1.12008e-05
1.3356e-05
5.70701e-06
2.05309e-06
1.89019e-07
1.65813e-07
2.59602e-06
6.97545e-06
1.66433e-05
2.75451e-05
3.13005e-05
3.05065e-05
2.79284e-05
2.51092e-05
2.27856e-05
2.1146e-05
2.01559e-05
1.96844e-05
1.95629e-05
1.96312e-05
1.97351e-05
1.97097e-05
1.93721e-05
1.8545e-05
1.71335e-05
1.52051e-05
1.30206e-05
1.09165e-05
9.03569e-06
7.48504e-06
6.34103e-06
5.65185e-06
5.47671e-06
5.98946e-06
7.70436e-06
1.14512e-05
1.35434e-05
5.76677e-06
2.07023e-06
1.90359e-07
1.68519e-07
2.60319e-06
7.01269e-06
1.67701e-05
2.76146e-05
3.11868e-05
3.02539e-05
2.7609e-05
2.47975e-05
2.25295e-05
2.09665e-05
2.00601e-05
1.96707e-05
1.96274e-05
1.97695e-05
1.99411e-05
1.99742e-05
1.9682e-05
1.88837e-05
1.74853e-05
1.55594e-05
1.33724e-05
1.12537e-05
9.34702e-06
7.76373e-06
6.58491e-06
5.86382e-06
5.66608e-06
6.17514e-06
7.91773e-06
1.17203e-05
1.37361e-05
5.82853e-06
2.08777e-06
1.91702e-07
1.71151e-07
2.6098e-06
7.04867e-06
1.68935e-05
2.76725e-05
3.10569e-05
2.99842e-05
2.72751e-05
2.44754e-05
2.22662e-05
2.07813e-05
1.99592e-05
1.96517e-05
1.96859e-05
1.99005e-05
2.01379e-05
2.02269e-05
1.99765e-05
1.92035e-05
1.78154e-05
1.58921e-05
1.37061e-05
1.1577e-05
9.64956e-06
8.03904e-06
6.83084e-06
6.08277e-06
5.86678e-06
6.37634e-06
8.15032e-06
1.20084e-05
1.39337e-05
5.8921e-06
2.10571e-06
1.93054e-07
1.73716e-07
2.61605e-06
7.08389e-06
1.70146e-05
2.77199e-05
3.09124e-05
2.96993e-05
2.69297e-05
2.41465e-05
2.19992e-05
2.05937e-05
1.9856e-05
1.96297e-05
1.974e-05
2.00251e-05
2.03259e-05
2.04676e-05
2.02556e-05
1.95041e-05
1.81241e-05
1.62036e-05
1.40218e-05
1.18861e-05
9.94233e-06
8.3096e-06
7.07693e-06
6.30663e-06
6.07699e-06
6.59165e-06
8.40146e-06
1.23149e-05
1.4136e-05
5.95759e-06
2.1241e-06
1.94421e-07
1.76197e-07
2.6217e-06
7.11768e-06
1.71319e-05
2.77551e-05
3.07518e-05
2.93984e-05
2.65719e-05
2.38102e-05
2.17282e-05
2.04038e-05
1.97509e-05
1.96052e-05
1.97902e-05
2.0144e-05
2.05057e-05
2.06972e-05
2.05198e-05
1.97864e-05
1.84122e-05
1.64945e-05
1.43196e-05
1.21806e-05
1.02246e-05
8.5743e-06
7.32199e-06
6.53433e-06
6.29565e-06
6.82017e-06
8.67051e-06
1.26393e-05
1.43419e-05
6.02466e-06
2.1429e-06
1.95806e-07
1.786e-07
2.62692e-06
7.15044e-06
1.72461e-05
2.77794e-05
3.05769e-05
2.90833e-05
2.62044e-05
2.34693e-05
2.14559e-05
2.02141e-05
1.96463e-05
1.95803e-05
1.98383e-05
2.02583e-05
2.0678e-05
2.09158e-05
2.07694e-05
2.00507e-05
1.86804e-05
1.6766e-05
1.46005e-05
1.24612e-05
1.04965e-05
8.83253e-06
7.56488e-06
6.76401e-06
6.52088e-06
7.06024e-06
8.95617e-06
1.298e-05
1.45507e-05
6.09316e-06
2.16208e-06
1.97212e-07
1.80909e-07
2.63153e-06
7.18165e-06
1.73563e-05
2.77914e-05
3.03859e-05
2.87523e-05
2.58256e-05
2.31226e-05
2.11819e-05
2.00249e-05
1.9543e-05
1.95562e-05
1.98857e-05
2.03696e-05
2.08442e-05
2.11248e-05
2.10055e-05
2.02982e-05
1.89297e-05
1.70191e-05
1.48655e-05
1.27285e-05
1.07583e-05
9.08429e-06
7.80521e-06
6.9953e-06
6.75191e-06
7.31064e-06
9.2568e-06
1.33348e-05
1.47611e-05
6.16273e-06
2.1816e-06
1.98646e-07
1.83137e-07
2.63567e-06
7.21173e-06
1.74634e-05
2.77926e-05
3.01801e-05
2.84068e-05
2.54371e-05
2.2772e-05
2.0908e-05
1.9838e-05
1.94429e-05
1.95348e-05
1.99342e-05
2.04795e-05
2.10057e-05
2.13251e-05
2.12289e-05
2.05297e-05
1.91616e-05
1.72553e-05
1.51155e-05
1.29833e-05
1.10102e-05
9.32931e-06
8.04226e-06
7.22692e-06
6.98699e-06
7.5701e-06
9.57143e-06
1.37027e-05
1.49724e-05
6.23302e-06
2.20138e-06
2.00102e-07
1.85275e-07
2.63925e-06
7.24049e-06
1.7567e-05
2.77818e-05
2.99574e-05
2.80446e-05
2.50371e-05
2.24157e-05
2.06332e-05
1.96537e-05
1.93467e-05
1.95174e-05
1.99856e-05
2.05902e-05
2.11649e-05
2.15192e-05
2.14419e-05
2.07474e-05
1.93781e-05
1.74769e-05
1.53525e-05
1.32269e-05
1.12531e-05
9.56786e-06
8.27583e-06
7.45852e-06
7.22602e-06
7.83752e-06
9.89837e-06
1.40812e-05
1.5183e-05
6.30351e-06
2.22134e-06
2.0158e-07
1.87335e-07
2.64242e-06
7.26831e-06
1.76682e-05
2.776e-05
2.97187e-05
2.76664e-05
2.46264e-05
2.20547e-05
2.0358e-05
1.94741e-05
1.92559e-05
1.95047e-05
2.0041e-05
2.07033e-05
2.13235e-05
2.17087e-05
2.1646e-05
2.09528e-05
1.95812e-05
1.76861e-05
1.55782e-05
1.34605e-05
1.1488e-05
9.80071e-06
8.50628e-06
7.68992e-06
7.4682e-06
8.11206e-06
1.02362e-05
1.44684e-05
1.53926e-05
6.37408e-06
2.2414e-06
2.03081e-07
1.89315e-07
2.64512e-06
7.29515e-06
1.77669e-05
2.77261e-05
2.94617e-05
2.727e-05
2.42035e-05
2.16876e-05
2.00809e-05
1.92954e-05
1.91681e-05
1.94969e-05
2.01019e-05
2.08212e-05
2.14845e-05
2.18967e-05
2.18443e-05
2.1149e-05
1.9774e-05
1.78861e-05
1.57944e-05
1.36852e-05
1.17151e-05
1.00276e-05
8.7331e-06
7.92045e-06
7.71292e-06
8.39333e-06
1.05839e-05
1.4863e-05
1.55991e-05
6.44367e-06
2.26139e-06
2.04581e-07
1.91227e-07
2.64749e-06
7.32144e-06
1.7864e-05
2.76808e-05
2.91867e-05
2.68561e-05
2.37694e-05
2.13157e-05
1.98032e-05
1.91193e-05
1.90851e-05
1.94951e-05
2.01695e-05
2.09449e-05
2.16492e-05
2.20847e-05
2.20384e-05
2.13381e-05
1.99595e-05
1.80809e-05
1.60041e-05
1.39028e-05
1.19358e-05
1.02495e-05
8.95684e-06
8.15021e-06
7.95981e-06
8.68068e-06
1.09411e-05
1.52624e-05
1.58016e-05
6.51201e-06
2.28128e-06
2.06079e-07
1.93064e-07
2.64948e-06
7.347e-06
1.79591e-05
2.76226e-05
2.88919e-05
2.64231e-05
2.33232e-05
2.09382e-05
1.95239e-05
1.89441e-05
1.90051e-05
1.94985e-05
2.02438e-05
2.10758e-05
2.18195e-05
2.22752e-05
2.2231e-05
2.15227e-05
2.01401e-05
1.82727e-05
1.62089e-05
1.41141e-05
1.21503e-05
1.04663e-05
9.17734e-06
8.37908e-06
8.20879e-06
8.9739e-06
1.13075e-05
1.56678e-05
1.60002e-05
6.57937e-06
2.3011e-06
2.07582e-07
1.94839e-07
2.65119e-06
7.37219e-06
1.80528e-05
2.75519e-05
2.85777e-05
2.59727e-05
2.28671e-05
2.05568e-05
1.92442e-05
1.87708e-05
1.89289e-05
1.95073e-05
2.03247e-05
2.12137e-05
2.19958e-05
2.2469e-05
2.24233e-05
2.17042e-05
2.03172e-05
1.84623e-05
1.64095e-05
1.43202e-05
1.23595e-05
1.06786e-05
9.39461e-06
8.6067e-06
8.45919e-06
9.27203e-06
1.16815e-05
1.60764e-05
1.61939e-05
6.6455e-06
2.32092e-06
2.09086e-07
1.96543e-07
2.65254e-06
7.3967e-06
1.81442e-05
2.7467e-05
2.82428e-05
2.55045e-05
2.24015e-05
2.0172e-05
1.89641e-05
1.85989e-05
1.88556e-05
1.95207e-05
2.04119e-05
2.13589e-05
2.21791e-05
2.26678e-05
2.26176e-05
2.18849e-05
2.04922e-05
1.865e-05
1.66067e-05
1.45221e-05
1.25643e-05
1.0887e-05
9.60927e-06
8.83359e-06
8.71148e-06
9.57526e-06
1.20626e-05
1.64867e-05
1.63829e-05
6.71039e-06
2.34075e-06
2.10585e-07
1.98182e-07
2.6536e-06
7.42069e-06
1.82336e-05
2.73681e-05
2.78881e-05
2.50208e-05
2.19289e-05
1.97858e-05
1.86849e-05
1.84288e-05
1.87849e-05
1.95379e-05
2.05042e-05
2.15101e-05
2.23685e-05
2.28715e-05
2.28146e-05
2.20662e-05
2.0667e-05
1.8837e-05
1.6802e-05
1.47211e-05
1.2766e-05
1.10924e-05
9.8214e-06
9.05904e-06
8.96433e-06
9.88206e-06
1.24491e-05
1.68968e-05
1.65665e-05
6.77376e-06
2.36037e-06
2.12072e-07
1.99744e-07
2.65421e-06
7.44354e-06
1.83189e-05
2.72533e-05
2.75129e-05
2.45222e-05
2.14506e-05
1.93993e-05
1.84072e-05
1.82607e-05
1.87166e-05
1.95582e-05
2.06007e-05
2.16665e-05
2.25633e-05
2.30798e-05
2.30148e-05
2.22494e-05
2.08428e-05
1.9024e-05
1.69958e-05
1.49181e-05
1.29656e-05
1.12961e-05
1.00326e-05
9.28482e-06
9.21938e-06
1.01931e-05
1.28403e-05
1.73053e-05
1.67446e-05
6.83561e-06
2.37973e-06
2.13547e-07
2.01232e-07
2.65442e-06
7.46536e-06
1.84004e-05
2.71227e-05
2.71185e-05
2.40114e-05
2.09693e-05
1.90145e-05
1.81324e-05
1.80951e-05
1.86503e-05
1.95805e-05
2.06997e-05
2.18263e-05
2.27621e-05
2.32922e-05
2.32184e-05
2.24359e-05
2.10222e-05
1.92129e-05
1.71899e-05
1.51142e-05
1.3164e-05
1.14985e-05
1.02426e-05
9.50963e-06
9.47443e-06
1.05068e-05
1.3235e-05
1.77111e-05
1.69175e-05
6.89594e-06
2.3988e-06
2.15009e-07
2.02632e-07
2.65405e-06
7.48533e-06
1.84757e-05
2.69747e-05
2.67048e-05
2.34896e-05
2.04865e-05
1.86326e-05
1.78614e-05
1.79324e-05
1.85858e-05
1.96039e-05
2.08e-05
2.19878e-05
2.29631e-05
2.35069e-05
2.3425e-05
2.26263e-05
2.12067e-05
1.9405e-05
1.73848e-05
1.53101e-05
1.33618e-05
1.17006e-05
1.04528e-05
9.73609e-06
9.73345e-06
1.0824e-05
1.36323e-05
1.81128e-05
1.7085e-05
6.95471e-06
2.41754e-06
2.16456e-07
2.03946e-07
2.65309e-06
7.50328e-06
1.85445e-05
2.68096e-05
2.62728e-05
2.29587e-05
2.00038e-05
1.82551e-05
1.75957e-05
1.77735e-05
1.85227e-05
1.96273e-05
2.08998e-05
2.21491e-05
2.31644e-05
2.37228e-05
2.36342e-05
2.28221e-05
2.13994e-05
1.96022e-05
1.7582e-05
1.55065e-05
1.35596e-05
1.19028e-05
1.0664e-05
9.96501e-06
9.99684e-06
1.11453e-05
1.40323e-05
1.85104e-05
1.7248e-05
7.01215e-06
2.43601e-06
2.17887e-07
2.05165e-07
2.65136e-06
7.51842e-06
1.8605e-05
2.66263e-05
2.58224e-05
2.24191e-05
1.95213e-05
1.78817e-05
1.73377e-05
1.76194e-05
1.84614e-05
1.96507e-05
2.09987e-05
2.23092e-05
2.33646e-05
2.39383e-05
2.38448e-05
2.30227e-05
2.16007e-05
1.98052e-05
1.7782e-05
1.57041e-05
1.37579e-05
1.21058e-05
1.08767e-05
1.01966e-05
1.02642e-05
1.1471e-05
1.44347e-05
1.89035e-05
1.74068e-05
7.06829e-06
2.45417e-06
2.19302e-07
2.06294e-07
2.64884e-06
7.53052e-06
1.8657e-05
2.64249e-05
2.53531e-05
2.18707e-05
1.90389e-05
1.75115e-05
1.70834e-05
1.7468e-05
1.84018e-05
1.96749e-05
2.10977e-05
2.24689e-05
2.35643e-05
2.41537e-05
2.40569e-05
2.3228e-05
2.18097e-05
2.00136e-05
1.7985e-05
1.5903e-05
1.39571e-05
1.23098e-05
1.10911e-05
1.0431e-05
1.05357e-05
1.18015e-05
1.484e-05
1.92924e-05
1.75623e-05
7.1235e-06
2.4721e-06
2.20706e-07
2.0734e-07