/*--------------------------------*- C++ -*----------------------------------*\
| =========                 |                                                 |
| \\      /  F ield         | OpenFOAM: The Open Source CFD Toolbox           |
|  \\    /   O peration     | Version:  v2006                                 |
|   \\  /    A nd           | Website:  www.openfoam.com                      |
|    \\/     M anipulation  |                                                 |
\*---------------------------------------------------------------------------*/
FoamFile
{
    version     2.0;
    format      ascii;
    class       volScalarField;
    location    "84";
    object      omega;
}
// * * * * * * * * * * * * * * * * * * * * * * * * * * * * * * * * * * * * * //

dimensions      [0 0 -1 0 0 0 0];


internalField   nonuniform List<scalar> 
78750
(
352.38
13.547
13.5751
13.6056
13.6374
13.6692
13.7001
13.7296
13.7572
13.7827
13.8059
13.8266
13.8449
13.8606
13.8738
13.8843
13.8923
13.8978
13.9006
13.9009
13.8986
13.8936
13.8858
13.8751
13.8613
13.8444
13.8243
13.8011
13.7748
13.746
13.7157
13.6863
13.6624
13.6497
355.877
517.082
4.15662
4.24487
4.32608
4.40053
4.46791
4.52796
4.58069
4.62631
4.66517
4.69766
4.72419
4.74511
4.76083
4.77195
4.77887
4.78185
4.78115
4.77696
4.76945
4.75873
4.74482
4.72761
4.7069
4.68246
4.65416
4.62149
4.58351
4.53953
4.48876
4.42994
4.36209
4.28858
4.2179
522.64
517.094
4.21468
4.34542
4.46103
4.55998
4.64233
4.70946
4.76325
4.80546
4.83764
4.8611
4.87695
4.88614
4.88952
4.88788
4.88185
4.87203
4.85899
4.84334
4.82571
4.80668
4.7866
4.76567
4.74391
4.72098
4.69617
4.66838
4.63621
4.59803
4.55187
4.49529
4.42716
4.35312
4.27996
523.085
517.109
4.27985
4.45329
4.59934
4.71504
4.80328
4.86967
4.9191
4.95501
4.97973
4.99498
5.00201
5.00183
4.99524
4.98294
4.96564
4.94405
4.91896
4.89124
4.86187
4.83189
4.8024
4.77434
4.74827
4.72406
4.70079
4.67681
4.64996
4.61775
4.57737
4.52588
4.46292
4.39552
4.32703
523.495
517.127
4.33667
4.53906
4.70127
4.82138
4.90708
4.96823
5.01166
5.04137
5.05981
5.06857
5.06865
5.06078
5.04551
5.02344
4.99529
4.96201
4.92475
4.88488
4.84401
4.80396
4.76674
4.73407
4.70688
4.68504
4.66738
4.65165
4.63482
4.61331
4.58328
4.54128
4.48744
4.428
4.3634
523.896
517.146
4.38763
4.6141
4.79004
4.91512
5.00121
5.0612
5.103
5.1307
5.14656
5.15184
5.14724
5.1332
5.11015
5.07871
5.03988
4.995
4.94571
4.89391
4.84177
4.79176
4.74655
4.70813
4.67734
4.65407
4.63736
4.62523
4.61463
4.60156
4.58135
4.54971
4.50596
4.45425
4.39271
524.247
517.163
4.43031
4.67462
4.85977
4.98749
5.07316
5.13172
5.17162
5.19695
5.2098
5.21119
5.20153
5.18105
5.15018
5.10975
5.06114
5.00613
4.94687
4.88579
4.82571
4.76985
4.72124
4.68124
4.64994
4.62698
4.61158
4.60222
4.59631
4.59002
4.57837
4.55621
4.52165
4.47655
4.41754
524.589
517.179
4.46867
4.72955
4.92454
5.05672
5.14395
5.20285
5.24244
5.26686
5.27803
5.27673
5.26315
5.23744
5.20009
5.15219
5.09542
5.03195
4.96429
4.89529
4.82828
4.76714
4.71491
4.67222
4.63873
4.61396
4.59734
4.58789
4.58375
4.58164
4.57659
4.56262
4.53615
4.49697
4.44075
524.894
517.193
4.50116
4.77552
4.97829
5.11392
5.20233
5.26141
5.30054
5.32386
5.33316
5.32906
5.31158
5.28087
5.23755
5.18298
5.11915
5.04858
4.97419
4.8993
4.82792
4.76461
4.7117
4.66877
4.63496
4.60958
4.59216
4.58216
4.57848
4.57865
4.57807
4.57033
4.5504
4.51633
4.46324
525.184
517.207
4.53474
4.82291
5.03384
5.17331
5.26325
5.32276
5.36165
5.3841
5.3918
5.38519
5.36421
5.32897
5.28024
5.21957
5.14922
5.07201
4.99123
4.91063
4.8349
4.76924
4.71537
4.67209
4.63807
4.61229
4.5942
4.58345
4.5795
4.58065
4.58291
4.57978
4.5651
4.53554
4.48573
525.451
517.221
4.56329
4.86279
5.08044
5.2232
5.31456
5.37458
5.41335
5.43505
5.44127
5.43232
5.40806
5.36864
5.31495
5.24874
5.17253
5.08946
5.00315
4.91787
4.83906
4.77253
4.71902
4.67666
4.64362
4.61855
4.60074
4.58992
4.58587
4.58749
4.59147
4.59148
4.58073
4.55487
4.50813
525.703
517.235
4.59517
4.9067
5.13106
5.27674
5.36918
5.42945
5.46789
5.48869
5.49332
5.48198
5.45447
5.41097
5.35246
5.28087
5.19894
5.11006
5.01822
4.92809
4.8458
4.77785
4.72438
4.68288
4.65103
4.62711
4.61014
4.59979
4.59598
4.59801
4.60309
4.60526
4.59744
4.57459
4.5305
525.94
517.249
4.62266
4.94402
5.17397
5.32228
5.4159
5.47663
5.51501
5.53517
5.5385
5.52508
5.49466
5.44748
5.38462
5.30817
5.22104
5.12689
5.03003
4.9356
4.85043
4.78165
4.72875
4.68867
4.65862
4.6365
4.62108
4.61192
4.60892
4.61159
4.6175
4.62112
4.61535
4.59475
4.55268
526.166
517.265
4.65318
4.98496
5.22039
5.37091
5.46532
5.52623
5.56433
5.5837
5.58561
5.57005
5.53676
5.486
5.41896
5.33783
5.24567
5.14633
5.04439
4.9454
4.85682
4.78656
4.73372
4.69481
4.66651
4.64637
4.63287
4.62536
4.62365
4.62726
4.63399
4.63864
4.63429
4.61533
4.57465
526.381
517.28
4.6802
5.02065
5.26072
5.41328
5.50862
5.56995
5.60803
5.62688
5.62765
5.61027
5.57447
5.52056
5.44981
5.36449
5.26781
5.16375
5.05716
4.95393
4.86214
4.79052
4.73789
4.70025
4.67395
4.65614
4.64499
4.63962
4.63969
4.64461
4.65225
4.65766
4.65422
4.63629
4.59632
526.588
517.296
4.70926
5.05875
5.30336
5.45769
5.55371
5.61528
5.65322
5.67146
5.67106
5.65189
5.61369
5.55681
5.48258
5.39335
5.29238
5.18375
5.07248
4.96479
4.86921
4.79542
4.74234
4.70561
4.6811
4.66562
4.65702
4.65413
4.65638
4.66298
4.6717
4.67778
4.6749
4.65752
4.61769
526.787
517.311
4.73576
5.09299
5.34157
5.49757
5.59441
5.6564
5.6944
5.71224
5.7109
5.69021
5.64992
5.59044
5.51317
5.4205
5.31571
5.20295
5.08738
4.9755
4.87621
4.80011
4.74641
4.71045
4.68774
4.6747
4.66885
4.66875
4.67354
4.68213
4.69214
4.69883
4.69623
4.67898
4.6387
526.978
517.327
4.76342
5.12857
5.38106
5.53859
5.63612
5.69847
5.73646
5.75387
5.7516
5.72946
5.68722
5.62538
5.54535
5.44954
5.34122
5.22454
5.10472
4.98848
4.88505
4.80585
4.75083
4.71513
4.69392
4.68323
4.68022
4.68312
4.69073
4.70163
4.71313
4.72047
4.71797
4.70049
4.6593
527.162
517.343
4.78926
5.16144
5.41747
5.57652
5.67487
5.73771
5.77584
5.79294
5.7899
5.76649
5.72257
5.65867
5.57627
5.47777
5.36639
5.24623
5.12258
5.00222
4.89466
4.81204
4.75533
4.71955
4.69962
4.69121
4.69112
4.69722
4.7079
4.72137
4.73456
4.74261
4.74009
4.72209
4.67951
527.34
517.36
4.81563
5.19489
5.45446
5.61502
5.71418
5.77748
5.81569
5.83245
5.82862
5.80401
5.75856
5.69284
5.60837
5.50751
5.39339
5.27006
5.14273
5.01822
4.90622
4.81947
4.76036
4.72392
4.70488
4.69855
4.70137
4.7108
4.7248
4.74105
4.75612
4.76492
4.76229
4.74353
4.69919
527.511
517.376
4.84065
5.22638
5.48935
5.65155
5.75171
5.81558
5.8539
5.87032
5.86575
5.84007
5.79329
5.72605
5.63987
5.53707
5.42068
5.29464
5.16402
5.03559
4.91914
4.82789
4.76587
4.7283
4.70977
4.70532
4.71101
4.72384
4.74133
4.76061
4.77771
4.78737
4.7846
4.7649
4.71842
527.675
517.392
4.86572
5.25788
5.5243
5.68836
5.78975
5.85416
5.89237
5.90828
5.9029
5.87621
5.82826
5.75974
5.67217
5.56778
5.4495
5.32108
5.18744
5.0552
4.93415
4.8378
4.77219
4.73284
4.71434
4.71148
4.71992
4.73621
4.75731
4.77981
4.79918
4.80975
4.80678
4.78598
4.73709
527.832
517.408
4.88971
5.28782
5.55766
5.72394
5.82686
5.89192
5.92987
5.94508
5.9389
5.91131
5.8624
5.79289
5.70428
5.59871
5.47898
5.34865
5.2124
5.07662
4.95099
4.84917
4.77942
4.7377
4.71871
4.71708
4.72812
4.74786
4.77269
4.79854
4.82028
4.83192
4.82885
4.80685
4.75531
527.983
517.425
4.91344
5.31728
5.59041
5.75892
5.86296
5.92872
5.96686
5.98141
5.97451
5.94615
5.89647
5.82622
5.73685
5.63045
5.50967
5.37784
5.23935
5.10029
4.97011
4.86248
4.78796
4.74317
4.72306
4.72222
4.7356
4.75873
4.78734
4.81669
4.84102
4.85395
4.85114
4.82738
4.77291
528.127
517.441
4.93636
5.34562
5.62191
5.79246
5.89766
5.96418
6.00267
6.017
6.00931
5.98026
5.92997
5.85922
5.76942
5.66257
5.54115
5.40828
5.26801
5.12606
4.99153
4.87793
4.79809
4.74957
4.72769
4.72711
4.7425
4.76887
4.80127
4.8342
4.86122
4.87562
4.87334
4.848
4.79015
528.266
517.457
4.95882
5.37335
5.65304
5.82512
5.93129
5.99856
6.03748
6.05177
6.04339
6.01381
5.96313
5.89211
5.80216
5.69519
5.57353
5.44006
5.29848
5.15407
5.0155
4.89596
4.81029
4.75732
4.73293
4.73196
4.74892
4.7783
4.81444
4.85107
4.88109
4.89758
4.89568
4.86883
4.80716
528.398
517.473
4.98045
5.39983
5.68276
5.85635
5.96358
6.03171
6.07119
6.08562
6.07677
6.04679
5.99585
5.92475
5.83488
5.7281
5.60658
5.47295
5.33056
5.18422
5.04207
4.91687
4.82496
4.7669
4.73921
4.73715
4.75514
4.78719
4.82694
4.86732
4.90056
4.91947
4.918
4.88962
4.82389
528.525
517.489
5.00155
5.42552
5.71149
5.8865
5.99474
6.06373
6.10384
6.11857
6.10959
6.07915
6.02803
5.95703
5.8675
5.7612
5.64018
5.50682
5.36414
5.21644
5.07128
4.94089
4.84248
4.77872
4.74696
4.74302
4.76139
4.79571
4.83888
4.88301
4.91962
4.94113
4.94018
4.91026
4.84029
528.647
517.504
5.02203
5.45026
5.73912
5.91549
6.02475
6.09463
6.13541
6.15054
6.1416
6.11079
6.05964
5.98892
5.89995
5.7944
5.67419
5.5415
5.39899
5.2505
5.10296
4.96797
4.86302
4.79315
4.75663
4.75
4.76804
4.8041
4.8504
4.89821
4.93826
4.96244
4.96209
4.93062
4.85632
528.765
517.52
5.04196
5.47417
5.76571
5.94334
6.05359
6.12435
6.16584
6.18141
6.1726
6.14157
6.09056
6.02031
5.9321
5.82754
5.70843
5.57676
5.43489
5.28616
5.13688
4.99792
4.8866
4.81041
4.76856
4.75847
4.7754
4.81261
4.86167
4.91298
4.95641
4.98335
4.98365
4.95067
4.87197
528.879
517.535
5.06142
5.49737
5.79139
5.97017
6.08137
6.15303
6.19526
6.21134
6.20275
6.17163
6.12088
6.05124
5.96394
5.86056
5.74279
5.61244
5.47159
5.32314
5.17274
5.03047
4.91317
4.83065
4.78305
4.76879
4.78385
4.82152
4.87288
4.92746
4.97432
5.00384
5.0048
4.97032
4.8872
528.99
517.551
5.08039
5.51983
5.81603
5.99584
6.10794
6.18048
6.22348
6.24014
6.23187
6.20079
6.15044
6.08153
5.99531
5.89329
5.77708
5.64833
5.50888
5.36119
5.21028
5.06538
4.94263
4.85393
4.80031
4.78128
4.79368
4.8311
4.88425
4.94186
4.99218
5.02401
5.02554
4.98957
4.90202
529.097
517.566
5.09901
5.54192
5.83985
6.02051
6.13346
6.20688
6.25068
6.26796
6.26012
6.22922
6.17933
6.11124
6.02619
5.92566
5.81118
5.68427
5.54652
5.40001
5.24916
5.10234
4.97481
4.88027
4.82055
4.79624
4.80524
4.84166
4.89601
4.9563
5.0099
5.04386
5.04587
5.00838
4.9164
529.202
517.581
5.11698
5.56321
5.86253
6.04395
6.15772
6.23202
6.27664
6.29461
6.28731
6.25683
6.20738
6.14016
6.05639
5.95749
5.84492
5.72006
5.5843
5.43937
5.28913
5.14109
5.00953
4.90963
4.84388
4.81392
4.81883
4.85349
4.90839
4.97091
5.02752
5.0634
5.06579
5.02677
4.93038
529.305
517.596
5.13431
5.58359
5.88422
6.06637
6.18093
6.2561
6.30151
6.32015
6.3134
6.28342
6.23448
6.16822
6.08583
5.98868
5.87815
5.75551
5.62197
5.47897
5.32983
5.18125
5.04652
4.94187
4.87034
4.83452
4.83474
4.86685
4.92159
4.98582
5.04507
5.08264
5.0853
5.04472
4.94397
529.405
517.611
5.151
5.60305
5.90483
6.08762
6.20292
6.27891
6.32512
6.34444
6.33828
6.30886
6.26053
6.19534
6.11444
6.01915
5.91078
5.7905
5.65938
5.51858
5.37098
5.22253
5.08548
4.9768
4.8999
4.85817
4.8532
4.88201
4.93584
5.00117
5.06264
5.10164
5.10445
5.06227
4.9572
529.504
517.625
5.16713
5.62176
5.92452
6.10784
6.22383
6.30063
6.34761
6.3676
6.36201
6.33315
6.28553
6.22152
6.14219
6.04884
5.94271
5.8249
5.69635
5.55799
5.4123
5.26457
5.12605
5.01412
4.9324
4.88489
4.87439
4.89922
4.95134
5.01711
5.0803
5.12043
5.12324
5.07945
4.97008
529.601
517.639
5.18268
5.63961
5.94314
6.12691
6.24355
6.32113
6.36888
6.38955
6.38457
6.35632
6.30942
6.2466
6.16896
6.07764
5.97386
5.85863
5.73278
5.59705
5.4536
5.30711
5.16794
5.05353
4.9676
4.9146
4.89839
4.91865
4.96832
5.03381
5.09816
5.13909
5.14174
5.09627
4.98267
529.696
517.653
5.19774
5.65666
5.96079
6.14491
6.26215
6.34048
6.38896
6.4103
6.40592
6.37833
6.33226
6.2707
6.19471
6.10549
6.00412
5.89154
5.76848
5.63554
5.49459
5.34981
5.21075
5.09465
5.00524
4.94718
4.92523
4.94045
4.98692
5.0514
5.11631
5.15767
5.15997
5.11278
4.99499
529.791
517.667
5.21216
5.67282
5.9774
6.16179
6.27957
6.35862
6.40782
6.42981
6.42604
6.39914
6.35395
6.29373
6.21949
6.13237
6.03346
5.9236
5.80343
5.6734
5.53517
5.39248
5.25418
5.13713
5.04498
4.98241
4.95487
4.96473
5.00735
5.07005
5.13488
5.17625
5.178
5.12903
5.00707
529.884
517.681
5.22605
5.68818
5.99303
6.1776
6.29588
6.37559
6.42547
6.44808
6.44491
6.41869
6.37445
6.31561
6.24316
6.15819
6.06173
5.95462
5.8374
5.71038
5.57505
5.43479
5.29784
5.18058
5.08644
5.01998
4.98716
4.99149
5.02971
5.08991
5.154
5.19495
5.1959
5.14506
5.01896
529.976
517.694
5.23936
5.70269
6.00765
6.19232
6.31104
6.39138
6.44191
6.46511
6.46253
6.43703
6.39378
6.33637
6.26574
6.18295
6.08899
5.98462
5.87037
5.74644
5.61414
5.47657
5.34147
5.22468
5.12929
5.05961
5.02193
5.02073
5.0541
5.11113
5.1738
5.21384
5.21375
5.16092
5.0307
530.067
517.707
5.25206
5.71635
6.02127
6.20596
6.32507
6.40599
6.45713
6.48089
6.47887
6.45408
6.41186
6.3559
6.28711
6.20651
6.11505
6.01344
5.90215
5.78136
5.65219
5.51754
5.38473
5.26905
5.17314
5.10097
5.05894
5.05235
5.08059
5.13385
5.19445
5.23309
5.23164
5.17668
5.04231
530.158
517.72
5.26419
5.7292
6.03394
6.21857
6.33801
6.41948
6.47117
6.49546
6.49399
6.46992
6.42876
6.37428
6.30734
6.22894
6.13996
6.0411
5.93276
5.81508
5.68914
5.55757
5.4274
5.31341
5.21766
5.14372
5.09793
5.0862
5.10913
5.15812
5.21603
5.25277
5.24966
5.1924
5.05383
530.25
517.733
5.27571
5.7412
6.04562
6.23012
6.34984
6.43179
6.484
6.50878
6.50782
6.48446
6.4444
6.39141
6.32632
6.2501
6.16359
6.06745
5.96205
5.84746
5.72474
5.59644
5.46924
5.35743
5.26246
5.18746
5.13857
5.12213
5.13975
5.18407
5.23873
5.27304
5.26791
5.20815
5.06529
530.341
517.746
5.2867
5.75245
6.05641
6.24069
6.36063
6.44303
6.49571
6.52094
6.52047
6.49782
6.45889
6.40739
6.34415
6.27009
6.18601
6.09255
5.99003
5.87852
5.759
5.63398
5.51005
5.40089
5.30726
5.23185
5.18053
5.15982
5.17223
5.21161
5.26252
5.29394
5.28646
5.22398
5.07674
530.433
517.758
5.29709
5.76286
6.06623
6.25022
6.37033
6.45311
6.50623
6.53186
6.53184
6.5099
6.47212
6.42213
6.36074
6.28881
6.20713
6.1163
6.01663
5.90815
5.79186
5.67021
5.54975
5.44358
5.35176
5.27654
5.22345
5.19905
5.20651
5.24083
5.28756
5.3156
5.30541
5.23994
5.08817
530.526
517.77
5.30698
5.77257
6.07521
6.25883
6.37905
6.46218
6.51568
6.54167
6.54208
6.52084
6.48424
6.43577
6.3762
6.30637
6.22705
6.13879
6.0419
5.93641
5.82331
5.70511
5.58834
5.48543
5.39578
5.32126
5.26701
5.23946
5.24228
5.27149
5.31376
5.33804
5.3248
5.2561
5.09965
530.62
517.782
5.31627
5.78145
6.08323
6.26641
6.38669
6.47013
6.52397
6.55028
6.5511
6.53056
6.49516
6.44821
6.39046
6.32272
6.2457
6.15996
6.06579
5.96324
5.85333
5.73862
5.62575
5.52629
5.43914
5.36577
5.31091
5.28079
5.27937
5.3036
5.34112
5.36128
5.34468
5.27249
5.11119
530.715
517.793
5.32507
5.78963
6.09042
6.2731
6.3934
6.47711
6.53125
6.55785
6.55906
6.53922
6.50503
6.45961
6.40365
6.33795
6.26319
6.17991
6.08839
5.98871
5.88195
5.77077
5.66196
5.56612
5.4817
5.40986
5.35487
5.32272
5.31755
5.3371
5.36963
5.38535
5.3651
5.28917
5.12285
530.811
517.804
5.33324
5.79697
6.09666
6.27877
6.39906
6.483
6.53742
6.56429
6.56588
6.54675
6.51381
6.46991
6.41574
6.35204
6.27949
6.19861
6.10969
6.01282
5.90917
5.80155
5.69695
5.60484
5.52336
5.45333
5.39868
5.36504
5.3566
5.37175
5.3992
5.41022
5.38606
5.30617
5.13464
530.908
517.815
5.34088
5.80359
6.10207
6.28356
6.40381
6.48797
6.54265
6.56977
6.57173
6.55332
6.52165
6.47927
6.42684
6.3651
6.29471
6.21616
6.12976
6.03564
5.93506
5.831
5.73071
5.64242
5.56401
5.49606
5.44209
5.40743
5.3962
5.40728
5.42969
5.43586
5.40759
5.32351
5.14661
531.006
517.826
5.34788
5.80935
6.10651
6.28735
6.40754
6.4919
6.54684
6.57422
6.57656
6.5589
6.52855
6.48769
6.43698
6.37715
6.30886
6.23258
6.14864
6.05721
5.95965
5.85915
5.76325
5.67883
5.6036
5.53791
5.48495
5.44969
5.43612
5.44347
5.46093
5.46218
5.42965
5.34121
5.15876
531.105
517.836
5.35432
5.81437
6.11013
6.29028
6.41039
6.49495
6.55015
6.5778
6.58055
6.56366
6.53465
6.4953
6.44628
6.38831
6.32204
6.24797
6.16641
6.0776
5.98302
5.88609
5.79463
5.71411
5.64211
5.57882
5.52711
5.49158
5.47608
5.48006
5.49275
5.48909
5.45221
5.35925
5.17111
531.204
517.846
5.3601
5.81854
6.11281
6.29224
6.41225
6.49702
6.55249
6.58043
6.58364
6.5676
6.53998
6.50215
6.45478
6.39861
6.33431
6.26236
6.18312
6.09687
6.00523
5.91185
5.82487
5.74826
5.67954
5.61874
5.56847
5.53299
5.51592
5.51684
5.52497
5.51646
5.47519
5.37761
5.18364
531.304
517.856
5.36534
5.822
6.11469
6.29337
6.41327
6.49824
6.55398
6.58226
6.58599
6.57087
6.54468
6.50835
6.4626
6.40818
6.34577
6.27588
6.19888
6.11513
6.02639
5.93656
5.85407
5.78136
5.71592
5.65767
5.60898
5.57376
5.55537
5.5536
5.55742
5.54419
5.49854
5.39626
5.19636
531.403
517.865
5.36996
5.82468
6.1157
6.29356
6.41335
6.49851
6.55455
6.58322
6.58757
6.57348
6.54877
6.51395
6.46977
6.41706
6.35648
6.28858
6.21376
6.13245
6.04658
5.9603
5.8823
5.81346
5.75127
5.69558
5.64856
5.61381
5.59442
5.59019
5.58995
5.57215
5.52216
5.41515
5.20923
531.503
517.874
5.37409
5.82669
6.11595
6.29296
6.4126
6.49794
6.55428
6.58337
6.58846
6.57567
6.55236
6.519
6.47639
6.42535
6.36656
6.30059
6.22788
6.14898
6.06595
5.98326
5.90969
5.84467
5.78569
5.73256
5.68726
5.65311
5.63293
5.62651
5.62243
5.60024
5.546
5.43423
5.22225
531.602
517.882
5.37769
5.828
6.11538
6.29148
6.41092
6.49644
6.55307
6.58259
6.58847
6.57708
6.55525
6.52344
6.48244
6.43307
6.37606
6.31197
6.24135
6.16482
6.08465
6.00562
5.93637
5.87505
5.8192
5.76858
5.72502
5.69157
5.67078
5.66245
5.65471
5.62832
5.56993
5.45343
5.23532
531.7
517.891
5.38085
5.82872
6.1141
6.28922
6.40844
6.49409
6.55102
6.58101
6.58776
6.57789
6.55763
6.52742
6.48805
6.44036
6.38509
6.32287
6.2543
6.18014
6.10288
6.02766
5.96256
5.90479
5.85193
5.80374
5.76189
5.7292
5.70794
5.69791
5.68678
5.65632
5.59388
5.47269
5.24844
531.799
517.899
5.38354
5.82877
6.11204
6.28609
6.40503
6.4908
6.54801
6.5785
6.58618
6.57794
6.55935
6.53082
6.49315
6.44718
6.39367
6.33331
6.26678
6.19501
6.12074
6.04947
5.98833
5.93392
5.88391
5.83805
5.79789
5.76598
5.74439
5.73285
5.71853
5.68422
5.61784
5.49199
5.26159
531.896
517.907
5.38582
5.82826
6.10928
6.28219
6.40081
6.48666
6.54414
6.57514
6.58384
6.57734
6.56051
6.53375
6.49783
6.45361
6.40188
6.34339
6.27891
6.20954
6.13831
6.07112
6.01375
5.96253
5.91522
5.87156
5.833
5.80189
5.78003
5.76715
5.74985
5.71188
5.6417
5.51126
5.27479
531.992
517.914
5.38765
5.8271
6.10574
6.27743
6.39567
6.48157
6.53931
6.57084
6.58062
6.57598
6.56101
6.53611
6.50203
6.45963
6.40972
6.35312
6.2907
6.22374
6.15559
6.09253
6.03881
5.99064
5.94589
5.90433
5.8673
5.83698
5.81494
5.80086
5.78074
5.7393
5.66544
5.53049
5.28803
532.087
517.921
5.38907
5.82537
6.1015
6.27189
6.38971
6.47563
6.53361
6.5657
6.57662
6.57393
6.56092
6.53794
6.50577
6.46525
6.41722
6.36255
6.30222
6.23771
6.17267
6.11375
6.06355
6.0183
5.97598
5.93637
5.90076
5.87115
5.84894
5.8338
5.81107
5.76636
5.68897
5.5496
5.30121
532.181
517.928
5.39001
5.82296
6.09647
6.26549
6.38285
6.46876
6.52697
6.55966
6.57179
6.57115
6.56016
6.5392
6.50901
6.47044
6.42436
6.37168
6.31349
6.25147
6.18959
6.13479
6.08801
6.04557
6.00556
5.96781
5.93355
5.90462
5.88228
5.86611
5.84088
5.79305
5.71226
5.56856
5.31429
532.273
517.935
5.39051
5.81995
6.09071
6.2583
6.37516
6.46104
6.5195
6.55281
6.56623
6.5677
6.55879
6.53988
6.51173
6.4752
6.43114
6.38053
6.32456
6.26512
6.20649
6.15575
6.11226
6.0725
6.03469
5.99866
5.9656
5.93722
5.91464
5.89761
5.87007
5.81931
5.73526
5.58733
5.32726
532.365
517.941
5.39049
5.81624
6.08415
6.25025
6.36658
6.45243
6.51115
6.54516
6.55995
6.56359
6.55678
6.53996
6.51391
6.47947
6.43752
6.38908
6.33544
6.2787
6.22347
6.17668
6.13636
6.09916
6.06341
6.02901
5.99708
5.96925
5.94663
5.92849
5.89867
5.84512
5.75794
5.60588
5.34009
532.454
517.947
5.38997
5.81186
6.07684
6.24141
6.35719
6.44299
6.50202
6.53683
6.55312
6.55893
6.55419
6.53946
6.51553
6.48325
6.4435
6.39733
6.34618
6.29232
6.24069
6.19771
6.16039
6.12558
6.09178
6.05891
6.02806
6.00079
5.97826
5.95887
5.92676
5.8705
5.7803
5.6242
5.35278
532.543
517.953
5.3889
5.80678
6.06875
6.23174
6.34694
6.4327
6.49207
6.52784
6.54598
6.55376
6.55103
6.53837
6.51659
6.48652
6.44904
6.40526
6.35673
6.30595
6.2582
6.21885
6.18438
6.15183
6.11985
6.08842
6.05859
6.03188
6.00943
5.98875
5.95437
5.89547
5.80233
5.64228
5.36532
532.629
517.958
5.38735
5.80106
6.05994
6.22131
6.33589
6.42159
6.48131
6.51808
6.53819
6.54797
6.54729
6.53675
6.51715
6.48932
6.45417
6.41287
6.36708
6.31956
6.27587
6.24004
6.20829
6.17789
6.14762
6.11754
6.08869
6.06251
6.04016
6.01818
5.98155
5.92008
5.82408
5.66016
5.37773
532.714
517.963
5.38535
5.79474
6.05043
6.21011
6.32404
6.40966
6.46977
6.50763
6.52983
6.5417
6.54312
6.53471
6.5173
6.49172
6.45893
6.42015
6.3772
6.33307
6.29358
6.26117
6.23206
6.20372
6.17509
6.1463
6.11837
6.0927
6.07042
6.04714
6.0083
5.94435
5.84554
5.67782
5.39002
532.798
517.968
5.38304
5.78791
6.04029
6.19818
6.31139
6.39689
6.45739
6.49644
6.52087
6.53494
6.53855
6.53233
6.51712
6.49382
6.4634
6.42719
6.38714
6.34649
6.31123
6.28217
6.25563
6.2293
6.20225
6.17469
6.14763
6.12245
6.10024
6.07569
6.0347
5.96832
5.86678
5.69533
5.40223
532.88
517.972
5.38041
5.78062
6.02954
6.18553
6.29792
6.38324
6.44414
6.48446
6.51126
6.52769
6.5336
6.52965
6.51671
6.49569
6.46768
6.43407
6.39698
6.35991
6.32884
6.30304
6.27899
6.25459
6.22907
6.20269
6.17648
6.15175
6.12961
6.1038
6.06072
5.99199
5.88778
5.71266
5.41434
532.96
517.977
5.37759
5.77296
6.01825
6.1722
6.28365
6.36867
6.42992
6.47157
6.5009
6.51985
6.52823
6.52668
6.51609
6.49744
6.47188
6.44093
6.40689
6.3735
6.34649
6.3238
6.30213
6.27958
6.25552
6.23028
6.20489
6.18061
6.15856
6.13153
6.08643
6.01542
5.9086
5.72987
5.42639
533.038
517.981
5.37461
5.76493
6.00643
6.15819
6.26856
6.35316
6.41469
6.45769
6.48964
6.51126
6.52228
6.52331
6.51522
6.49906
6.47606
6.44788
6.41702
6.38749
6.36434
6.34457
6.32513
6.30432
6.28163
6.25746
6.23283
6.20899
6.18702
6.15881
6.11176
6.03855
5.92921
5.74694
5.43836
533.115
517.986
5.37143
5.7565
5.99406
6.14352
6.25269
6.33674
6.39846
6.4428
6.47739
6.50176
6.51558
6.51936
6.51396
6.50046
6.48018
6.45492
6.42742
6.40194
6.38242
6.36539
6.34803
6.32884
6.30744
6.28427
6.26037
6.23694
6.21507
6.18572
6.1368
6.06149
5.94968
5.76393
5.4503
533.191
517.99
5.36794
5.74759
5.98112
6.12822
6.23609
6.31948
6.38131
6.42696
6.4641
6.49122
6.50791
6.51461
6.51211
6.50146
6.48409
6.46195
6.438
6.41673
6.40068
6.38624
6.37083
6.35316
6.33293
6.31068
6.28744
6.26439
6.2426
6.21217
6.16147
6.08414
5.96994
5.78078
5.46215
533.264
517.994
5.36402
5.73811
5.9676
6.11232
6.21885
6.3015
6.36342
6.41048
6.44988
6.47959
6.49918
6.50891
6.50946
6.50188
6.48762
6.46879
6.44859
6.43164
6.41897
6.40704
6.39351
6.37727
6.35817
6.33678
6.31415
6.29144
6.26973
6.23827
6.18587
6.10662
5.99011
5.79759
5.47398
533.337
517.998
5.35961
5.72805
5.95352
6.09587
6.201
6.28285
6.34485
6.39344
6.43478
6.46694
6.48938
6.5022
6.50594
6.50158
6.49064
6.47535
6.45911
6.44655
6.4372
6.42772
6.41602
6.40115
6.3831
6.36251
6.34045
6.31805
6.29638
6.2639
6.20988
6.12878
6.01003
5.81423
5.4857
533.408
518.002
5.35477
5.71749
5.93892
6.07889
6.18262
6.26365
6.3257
6.37576
6.419
6.45354
6.47876
6.49463
6.50159
6.50058
6.49312
6.48158
6.46954
6.46136
6.4553
6.44824
6.43834
6.42483
6.40779
6.38795
6.36637
6.34418
6.32261
6.28921
6.23366
6.15081
6.0299
5.83086
5.49744
533.479
518.005
5.34965
5.70655
5.92385
6.06136
6.16363
6.24386
6.30609
6.35774
6.40291
6.43974
6.46763
6.48646
6.49662
6.499
6.49516
6.48757
6.47998
6.4761
6.47324
6.46856
6.46043
6.44825
6.4322
6.41307
6.392
6.37026
6.34846
6.31407
6.25703
6.1725
6.04948
5.84728
5.50904
533.548
518.009
5.34449
5.69539
5.90837
6.04324
6.14392
6.22331
6.28583
6.3393
6.38657
6.42578
6.45629
6.47801
6.49128
6.49704
6.49688
6.49341
6.49051
6.49079
6.49105
6.48871
6.48234
6.47149
6.45643
6.43802
6.41751
6.39627
6.37415
6.33873
6.28025
6.19409
6.06903
5.86372
5.52066
533.617
518.013
5.33951
5.68416
5.89248
6.02443
6.12329
6.20173
6.26467
6.32027
6.36998
6.41179
6.44501
6.46958
6.4859
6.49498
6.49852
6.49925
6.50116
6.50542
6.5087
6.50865
6.50403
6.4945
6.48042
6.46274
6.44277
6.42202
6.39949
6.36298
6.30305
6.2153
6.08824
5.87987
5.53208
533.684
518.017
5.33485
5.6729
5.87619
6.00484
6.10154
6.17882
6.24223
6.30025
6.35281
6.39759
6.43375
6.46126
6.48064
6.493
6.50022
6.50519
6.5119
6.52
6.52621
6.52842
6.52555
6.51736
6.50429
6.48736
6.46796
6.4477
6.42473
6.38712
6.32577
6.23647
6.10744
5.89605
5.5435
533.752
518.022
5.33049
5.6616
5.85945
5.98442
6.07856
6.15437
6.21823
6.27892
6.33472
6.38288
6.42233
6.45301
6.47556
6.49127
6.5022
6.51144
6.52282
6.53456
6.54358
6.54799
6.54684
6.53998
6.52793
6.51176
6.49289
6.47308
6.44963
6.41087
6.34808
6.25723
6.12625
5.91186
5.55462
533.818
518.028
5.32633
5.65019
5.84222
5.9631
6.05422
6.12821
6.19237
6.25583
6.31516
6.36711
6.41026
6.44446
6.47044
6.48969
6.50446
6.51809
6.53394
6.54914
6.56085
6.5674
6.56796
6.56246
6.55146
6.53607
6.51779
6.49844
6.47449
6.43459
6.37038
6.278
6.14509
5.9277
5.56572
533.885
518.033
5.32229
5.63861
5.82451
5.94092
6.02857
6.10034
6.16466
6.23086
6.29387
6.3499
6.39713
6.43524
6.465
6.48806
6.50694
6.52516
6.54526
6.56372
6.57799
6.58659
6.58882
6.58466
6.57471
6.5601
6.54239
6.52346
6.49897
6.45789
6.39225
6.29833
6.16348
5.94311
5.57644
533.95
518.039
5.31833
5.62689
5.80634
5.91786
6.00156
6.07079
6.13517
6.20396
6.27067
6.33096
6.38255
6.42489
6.45878
6.486
6.50931
6.53238
6.55658
6.57818
6.59493
6.60555
6.60945
6.60667
6.59781
6.58404
6.56694
6.54847
6.52346
6.48121
6.41415
6.31871
6.18192
5.95855
5.58713
534.017
518.045
5.31458
5.61517
5.78782
5.89397
5.97316
6.03953
6.10424
6.17525
6.24563
6.31031
6.36646
6.41329
6.45157
6.48324
6.51124
6.53935
6.56757
6.59225
6.61146
6.6241
6.62968
6.62828
6.62053
6.60761
6.59112
6.57308
6.54751
6.50408
6.43559
6.33862
6.19987
5.9735
5.59738
534.082
518.052
5.31123
5.60361
5.76903
5.86922
5.94316
6.00607
6.07087
6.14431
6.21864
6.28793
6.34884
6.40034
6.44322
6.47957
6.51252
6.54576
6.57796
6.60573
6.62744
6.64215
6.64948
6.64954
6.643
6.63101
6.61521
6.59766
6.57157
6.52698
6.45708
6.35859
6.21789
5.98849
5.60763
534.149
518.059
5.30848
5.59235
5.75009
5.84368
5.91161
5.97049
6.03526
6.11125
6.18976
6.2639
6.32974
6.38608
6.43373
6.47495
6.51306
6.55139
6.58751
6.61837
6.6426
6.65944
6.66858
6.67017
6.66488
6.65388
6.63878
6.62172
6.59511
6.54935
6.47806
6.37804
6.23537
6.00295
5.61739
534.215
518.068
5.30632
5.58138
5.73106
5.81737
5.87831
5.9323
5.99667
6.07535
6.15843
6.23782
6.3089
6.37031
6.42296
6.46927
6.51277
6.55605
6.59602
6.62998
6.65681
6.67588
6.68695
6.69022
6.68633
6.67645
6.66221
6.64571
6.61862
6.57174
6.49908
6.39755
6.25291
6.01745
5.62714
534.282
518.076
5.30468
5.57081
5.71217
5.79064
5.84362
5.89174
5.95506
6.03635
6.12429
6.2093
6.28599
6.35277
6.41065
6.4623
6.51139
6.55948
6.60322
6.64028
6.66976
6.69114
6.70425
6.70928
6.70687
6.69816
6.68477
6.66893
6.64144
6.59349
6.51949
6.41646
6.26985
6.03136
5.63635
534.348
518.085
5.30319
5.56039
5.69337
5.76364
5.80782
5.84901
5.91032
5.99379
6.08662
6.17758
6.26027
6.33278
6.39624
6.45351
6.50841
6.56123
6.60877
6.64901
6.68126
6.70511
6.72042
6.7274
6.72669
6.71943
6.70732
6.692
6.66413
6.61517
6.5399
6.43541
6.28684
6.04531
5.64554
534.416
518.094
5.30179
5.55023
5.67487
5.7367
5.77153
5.80482
5.86309
5.94795
6.04533
6.14228
6.23122
6.30982
6.37917
6.44237
6.50323
6.56081
6.61222
6.65576
6.69092
6.71739
6.73506
6.74416
6.74532
6.73969
6.72904
6.71423
6.68599
6.63607
6.55959
6.45367
6.30316
6.05861
5.65418
534.482
518.102
5.30047
5.54036
5.65668
5.70977
5.73467
5.75947
5.81382
5.89925
6.00063
6.10337
6.19864
6.28353
6.35906
6.42848
6.49542
6.55785
6.61327
6.6603
6.69859
6.72791
6.74819
6.75966
6.76296
6.75924
6.75028
6.73612
6.70761
6.65684
6.57922
6.47194
6.31953
6.07197
5.6628
534.551
518.111
5.29955
5.53101
5.63889
5.68291
5.69739
5.71329
5.76323
5.84863
5.95342
6.06153
6.16294
6.25411
6.33594
6.41177
6.48474
6.55205
6.6116
6.66227
6.70388
6.73625
6.75934
6.77339
6.77903
6.77738
6.77026
6.75685
6.72815
6.67661
6.59794
6.48936
6.3351
6.08458
5.67081
534.617
518.12
5.29953
5.52245
5.62147
5.65575
5.65905
5.66569
5.71123
5.79653
5.90443
6.01754
6.12478
6.22208
6.31021
6.39255
6.47135
6.54348
6.60724
6.66173
6.70687
6.74253
6.76869
6.78559
6.79383
6.79454
6.78949
6.77702
6.74831
6.69614
6.61655
6.50675
6.35068
6.09723
5.6788
534.688
518.131
5.30074
5.51485
5.60446
5.62817
5.61928
5.61618
5.65755
5.74302
5.85411
5.972
6.08477
6.18795
6.2822
6.37097
6.4553
6.53215
6.60011
6.65849
6.70727
6.74638
6.77578
6.7957
6.80673
6.80993
6.80708
6.79568
6.76707
6.71439
6.63397
6.52306
6.36525
6.10894
5.686
534.754
518.143
5.30333
5.50834
5.588
5.60014
5.57767
5.56388
5.60108
5.68734
5.80214
5.92496
6.04314
6.15198
6.25216
6.34717
6.43679
6.51823
6.5904
6.65276
6.70535
6.74809
6.78095
6.80414
6.81819
6.82415
6.82373
6.81361
6.78529
6.73229
6.6512
6.53926
6.37979
6.12065
5.69314
534.826
518.156
5.30706
5.50288
5.57234
5.57215
5.53466
5.50871
5.54127
5.62871
5.74766
5.87574
5.99943
6.11386
6.21984
6.32085
6.41555
6.5015
6.57787
6.64425
6.70072
6.74721
6.78366
6.81024
6.82746
6.83629
6.83839
6.82964
6.80175
6.74856
6.66692
6.55406
6.39303
6.13116
5.69924
534.892
518.17
5.31155
5.49845
5.55783
5.5449
5.49111
5.45113
5.47745
5.56559
5.68916
5.8231
5.9527
6.07294
6.18477
6.2917
6.39142
6.4819
6.56257
6.63311
6.69364
6.74406
6.78432
6.81454
6.83516
6.84711
6.85196
6.8448
6.81756
6.76437
6.68234
6.56871
6.40621
6.14164
5.70524
534.965
518.184
5.31631
5.49492
5.54485
5.51931
5.44839
5.39236
5.41013
5.4977
5.62573
5.76587
5.90181
6.02816
6.14605
6.25886
6.36366
6.45878
6.54389
6.61874
6.68347
6.73799
6.78219
6.81617
6.84032
6.85549
6.86316
6.85769
6.83122
6.77819
6.69593
6.58166
6.4178
6.15068
5.71001
535.03
518.197
5.32106
5.49227
5.53363
5.49609
5.40777
5.33386
5.34014
5.425
5.55672
5.70318
5.84587
5.97875
6.10301
6.22185
6.33192
6.43195
6.52177
6.60121
6.67043
6.72932
6.77777
6.8158
6.84376
6.86241
6.87315
6.8696
6.84413
6.79146
6.70916
6.59438
6.42929
6.15969
5.7147
535.104
518.209
5.3257
5.49043
5.52423
5.4756
5.37022
5.27721
5.26903
5.3485
5.48239
5.63476
5.78434
5.92403
6.05496
6.17996
6.29556
6.40077
6.49557
6.57985
6.65379
6.71727
6.77013
6.81238
6.84427
6.86652
6.88039
6.87888
6.85457
6.80245
6.72028
6.60517
6.439
6.16709
5.71809
535.169
518.22
5.3304
5.48934
5.5164
5.45762
5.33591
5.22324
5.19847
5.26985
5.40398
5.56135
5.71758
5.86416
6.00193
6.13327