/*--------------------------------*- C++ -*----------------------------------*\
| =========                 |                                                 |
| \\      /  F ield         | OpenFOAM: The Open Source CFD Toolbox           |
|  \\    /   O peration     | Version:  v2006                                 |
|   \\  /    A nd           | Website:  www.openfoam.com                      |
|    \\/     M anipulation  |                                                 |
\*---------------------------------------------------------------------------*/
FoamFile
{
    version     2.0;
    format      ascii;
    class       volScalarField;
    location    "84";
    object      T;
}
// * * * * * * * * * * * * * * * * * * * * * * * * * * * * * * * * * * * * * //

dimensions      [0 0 0 1 0 0 0];


internalField   nonuniform List<scalar> 
78750
(
300.028
300.09
300.157
300.225
300.29
300.351
300.407
300.457
300.503
300.545
300.583
300.617
300.649
300.677
300.703
300.726
300.746
300.765
300.781
300.795
300.807
300.817
300.824
300.828
300.829
300.827
300.821
300.811
300.798
300.788
300.805
300.907
301.189
301.738
302.531
300.057
300.164
300.259
300.345
300.424
300.496
300.562
300.621
300.676
300.726
300.771
300.812
300.849
300.883
300.912
300.939
300.963
300.984
301.002
301.018
301.03
301.039
301.045
301.046
301.044
301.036
301.024
301.006
300.987
300.976
301.002
301.123
301.422
301.963
302.744
300.069
300.204
300.327
300.438
300.538
300.626
300.703
300.772
300.832
300.886
300.933
300.975
301.012
301.044
301.071
301.095
301.116
301.132
301.146
301.156
301.163
301.166
301.167
301.164
301.157
301.145
301.129
301.11
301.094
301.095
301.145
301.302
301.626
302.176
302.969
300.085
300.25
300.402
300.538
300.654
300.752
300.835
300.907
300.969
301.024
301.072
301.114
301.151
301.184
301.211
301.235
301.254
301.269
301.28
301.287
301.29
301.29
301.285
301.276
301.263
301.245
301.223
301.202
301.188
301.202
301.279
301.47
301.817
302.375
303.18
300.097
300.285
300.457
300.608
300.731
300.832
300.915
300.987
301.048
301.103
301.151
301.194
301.231
301.263
301.291
301.314
301.331
301.345
301.354
301.359
301.36
301.358
301.352
301.342
301.328
301.31
301.291
301.275
301.273
301.308
301.416
301.64
302.008
302.579
303.394
300.107
300.314
300.503
300.665
300.796
300.9
300.985
301.058
301.122
301.179
301.23
301.274
301.313
301.347
301.374
301.395
301.41
301.419
301.424
301.423
301.419
301.411
301.401
301.388
301.372
301.356
301.34
301.333
301.346
301.403
301.539
301.79
302.177
302.762
303.584
300.115
300.338
300.539
300.709
300.844
300.951
301.038
301.112
301.178
301.237
301.29
301.337
301.378
301.412
301.44
301.46
301.473
301.48
301.48
301.475
301.466
301.454
301.439
301.424
301.408
301.393
301.384
301.386
301.416
301.496
301.66
301.936
302.342
302.942
303.77
300.121
300.356
300.567
300.745
300.885
300.994
301.084
301.161
301.23
301.291
301.347
301.396
301.439
301.475
301.503
301.522
301.533
301.536
301.532
301.523
301.509
301.492
301.474
301.456
301.439
301.426
301.422
301.434
301.478
301.579
301.767
302.064
302.487
303.101
303.934
300.127
300.371
300.591
300.776
300.921
301.033
301.125
301.204
301.275
301.34
301.398
301.45
301.495
301.532
301.561
301.58
301.591
301.592
301.585
301.572
301.554
301.533
301.511
301.489
301.471
301.459
301.459
301.48
301.538
301.658
301.867
302.183
302.622
303.25
304.088
300.132
300.386
300.614
300.805
300.954
301.069
301.163
301.245
301.319
301.385
301.446
301.5
301.547
301.586
301.615
301.635
301.644
301.644
301.636
301.62
301.599
301.575
301.549
301.525
301.505
301.494
301.497
301.525
301.595
301.73
301.958
302.291
302.745
303.386
304.228
300.136
300.398
300.634
300.831
300.983
301.102
301.199
301.283
301.359
301.428
301.492
301.548
301.597
301.637
301.668
301.688
301.697
301.696
301.686
301.668
301.644
301.617
301.589
301.562
301.541
301.53
301.537
301.571
301.651
301.801
302.046
302.394
302.861
303.514
304.36
300.141
300.412
300.654
300.857
301.013
301.134
301.234
301.32
301.399
301.47
301.535
301.594
301.645
301.686
301.717
301.738
301.747
301.745
301.734
301.715
301.689
301.66
301.629
301.601
301.579
301.569
301.578
301.617
301.707
301.869
302.129
302.49
302.97
303.633
304.483
300.145
300.423
300.672
300.88
301.04
301.164
301.266
301.355
301.436
301.51
301.577
301.638
301.69
301.733
301.765
301.786
301.795
301.793
301.781
301.76
301.733
301.702
301.669
301.64
301.618
301.609
301.62
301.666
301.763
301.938
302.211
302.584
303.074
303.747
304.6
300.149
300.436
300.692
300.905
301.068
301.194
301.298
301.39
301.472
301.548
301.618
301.68
301.734
301.778
301.811
301.832
301.842
301.839
301.827
301.805
301.776
301.743
301.71
301.68
301.658
301.649
301.664
301.715
301.821
302.006
302.291
302.674
303.174
303.855
304.711
300.153
300.447
300.709
300.927
301.094
301.222
301.329
301.422
301.507
301.585
301.657
301.721
301.777
301.822
301.855
301.877
301.887
301.884
301.871
301.848
301.819
301.785
301.75
301.72
301.698
301.691
301.709
301.765
301.88
302.075
302.371
302.763
303.271
303.96
304.819
300.157
300.459
300.728
300.95
301.12
301.25
301.359
301.454
301.541
301.622
301.695
301.761
301.817
301.864
301.898
301.921
301.931
301.928
301.915
301.891
301.861
301.826
301.791
301.76
301.739
301.734
301.755
301.817
301.939
302.144
302.45
302.849
303.364
304.06
304.921
300.161
300.47
300.744
300.971
301.144
301.277
301.387
301.485
301.574
301.656
301.732
301.799
301.857
301.905
301.94
301.963
301.973
301.971
301.957
301.934
301.903
301.867
301.832
301.801
301.78
301.777
301.802
301.87
301.999
302.214
302.528
302.934
303.455
304.158
305.021
300.165
300.481
300.762
300.993
301.168
301.303
301.416
301.515
301.606
301.69
301.767
301.836
301.896
301.944
301.981
302.004
302.015
302.013
302
301.976
301.944
301.908
301.873
301.842
301.822
301.821
301.85
301.923
302.06
302.283
302.606
303.017
303.544
304.252
305.116
300.169
300.492
300.778
301.013
301.191
301.328
301.443
301.544
301.637
301.723
301.802
301.873
301.933
301.983
302.02
302.045
302.056
302.055
302.041
302.018
301.986
301.95
301.914
301.883
301.864
301.866
301.898
301.977
302.121
302.353
302.683
303.099
303.631
304.343
305.209
300.173
300.502
300.795
301.034
301.214
301.353
301.469
301.573
301.668
301.756
301.836
301.908
301.97
302.02
302.059
302.084
302.096
302.096
302.083
302.059
302.027
301.991
301.955
301.925
301.907
301.911
301.947
302.031
302.183
302.422
302.759
303.18
303.715
304.431
305.298
300.176
300.513
300.811
301.053
301.236
301.377
301.495
301.601
301.697
301.787
301.869
301.942
302.006
302.057
302.097
302.123
302.136
302.136
302.124
302.1
302.069
302.033
301.997
301.967
301.951
301.956
301.996
302.086
302.244
302.491
302.834
303.258
303.797
304.517
305.383
300.18
300.523
300.827
301.073
301.258
301.401
301.521
301.628
301.726
301.818
301.901
301.976
302.04
302.093
302.134
302.161
302.175
302.176
302.164
302.142
302.11
302.075
302.039
302.01
301.994
302.002
302.046
302.141
302.306
302.559
302.908
303.335
303.876
304.599
305.465
300.184
300.533
300.842
301.092
301.279
301.424
301.546
301.655
301.755
301.848
301.933
302.009
302.075
302.129
302.17
302.198
302.213
302.215
302.204
302.183
302.152
302.117
302.081
302.053
302.038
302.049
302.096
302.195
302.366
302.626
302.98
303.41
303.953
304.678
305.544
300.187
300.543
300.857
301.111
301.3
301.447
301.57
301.681
301.783
301.877
301.964
302.041
302.108
302.163
302.206
302.235
302.251
302.254
302.244
302.223
302.194
302.159
302.124
302.096
302.083
302.095
302.145
302.25
302.427
302.692
303.05
303.483
304.028
304.754
305.62
300.191
300.553
300.872
301.129
301.321
301.469
301.594
301.706
301.81
301.906
301.995
302.073
302.142
302.198
302.241
302.271
302.288
302.292
302.284
302.264
302.235
302.201
302.167
302.14
302.128
302.142
302.195
302.304
302.486
302.757
303.119
303.553
304.1
304.827
305.692
300.194
300.563
300.887
301.147
301.341
301.491
301.618
301.732
301.837
301.935
302.025
302.105
302.174
302.231
302.276
302.307
302.325
302.33
302.323
302.305
302.277
302.244
302.21
302.184
302.173
302.189
302.245
302.358
302.545
302.821
303.186
303.621
304.169
304.897
305.762
300.197
300.572
300.902
301.165
301.361
301.513
301.641
301.757
301.864
301.964
302.055
302.136
302.206
302.265
302.31
302.342
302.361
302.368
302.362
302.345
302.318
302.286
302.254
302.228
302.218
302.236
302.295
302.411
302.603
302.884
303.251
303.688
304.236
304.964
305.829
300.201
300.582
300.916
301.183
301.381
301.534
301.664
301.782
301.891
301.992
302.084
302.167
302.238
302.298
302.344
302.377
302.397
302.405
302.4
302.385
302.36
302.329
302.297
302.273
302.264
302.283
302.344
302.464
302.66
302.945
303.315
303.752
304.3
305.029
305.893
300.204
300.591
300.93
301.2
301.4
301.555
301.687
301.807
301.917
302.02
302.114
302.198
302.27
302.33
302.377
302.411
302.433
302.441
302.438
302.424
302.401
302.371
302.341
302.317
302.31
302.33
302.394
302.517
302.717
303.005
303.377
303.814
304.362
305.092
305.955
300.207
300.6
300.944
301.218
301.42
301.576
301.71
301.831
301.943
302.048
302.143
302.228
302.302
302.363
302.411
302.446
302.468
302.478
302.476
302.463
302.442
302.414
302.385
302.362
302.356
302.378
302.443
302.569
302.772
303.064
303.437
303.875
304.423
305.153
306.016
300.21
300.61
300.958
301.235
301.439
301.597
301.733
301.856
301.97
302.075
302.172
302.259
302.333
302.395
302.444
302.48
302.503
302.514
302.513
302.502
302.482
302.456
302.428
302.407
302.402
302.425
302.493
302.621
302.827
303.122
303.497
303.934
304.482
305.212
306.074
300.214
300.619
300.972
301.252
301.458
301.618
301.755
301.88
301.996
302.103
302.201
302.289
302.364
302.427
302.477
302.513
302.537
302.549
302.55
302.541
302.522
302.498
302.472
302.452
302.448
302.473
302.542
302.673
302.882
303.179
303.555
303.991
304.539
305.269
306.131
300.217
300.628
300.986
301.269
301.477
301.639
301.778
301.904
302.022
302.131
302.23
302.319
302.396
302.459
302.51
302.547
302.572
302.585
302.587
302.579
302.562
302.54
302.515
302.497
302.494
302.52
302.591
302.725
302.936
303.235
303.612
304.048
304.595
305.325
306.187
300.22
300.637
301
301.286
301.496
301.66
301.801
301.929
302.048
302.158
302.259
302.349
302.427
302.491
302.542
302.58
302.606
302.62
302.623
302.617
302.602
302.581
302.559
302.542
302.54
302.568
302.641
302.776
302.99
303.291
303.668
304.104
304.651
305.38
306.242
300.223
300.646
301.014
301.303
301.515
301.681
301.823
301.953
302.074
302.186
302.289
302.38
302.458
302.523
302.575
302.614
302.64
302.655
302.66
302.655
302.641
302.622
302.602
302.586
302.587
302.616
302.69
302.827
303.043
303.346
303.724
304.159
304.705
305.434
306.296
300.227
300.655
301.028
301.32
301.534
301.702
301.846
301.978
302.101
302.214
302.318
302.41
302.49
302.556
302.608
302.647
302.674
302.69
302.696
302.692
302.68
302.663
302.645
302.631
302.633
302.663
302.739
302.878
303.096
303.4
303.779
304.213
304.758
305.487
306.348
300.23
300.664
301.042
301.337
301.553
301.722
301.869
302.003
302.127
302.242
302.348
302.441
302.521
302.588
302.641
302.68
302.708
302.725
302.731
302.729
302.719
302.704
302.687
302.675
302.679
302.711
302.788
302.929
303.149
303.454
303.833
304.266
304.811
305.54
306.4
300.233
300.673
301.056
301.354
301.573
301.743
301.892
302.027
302.154
302.271
302.377
302.472
302.553
302.62
302.673
302.714
302.742
302.76
302.767
302.766
302.758
302.744
302.729
302.719
302.725
302.758
302.837
302.98
303.201
303.508
303.887
304.319
304.863
305.591
306.452
300.236
300.682
301.07
301.371
301.592
301.764
301.915
302.052
302.18
302.299
302.407
302.503
302.584
302.652
302.706
302.747
302.776
302.794
302.803
302.803
302.796
302.784
302.771
302.763
302.77
302.806
302.886
303.03
303.253
303.561
303.94
304.371
304.914
305.642
306.502
300.239
300.692
301.083
301.389
301.611
301.785
301.938
302.077
302.207
302.328
302.437
302.534
302.616
302.685
302.739
302.78
302.81
302.829
302.838
302.839
302.834
302.824
302.813
302.807
302.816
302.853
302.935
303.081
303.305
303.614
303.992
304.423
304.964
305.692
306.552
300.243
300.701
301.098
301.406
301.63
301.807
301.961
302.102
302.234
302.356
302.467
302.565
302.648
302.717
302.772
302.814
302.844
302.863
302.873
302.876
302.872
302.863
302.854
302.85
302.861
302.9
302.984
303.131
303.356
303.666
304.045
304.474
305.014
305.742
306.602
300.246
300.71
301.112
301.423
301.65
301.828
301.984
302.127
302.261
302.385
302.497
302.596
302.68
302.75
302.805
302.847
302.878
302.898
302.909
302.912
302.91
302.903
302.896
302.894
302.906
302.947
303.032
303.181
303.408
303.718
304.096
304.524
305.064
305.791
306.651
300.249
300.719
301.126
301.44
301.669
301.849
302.007
302.153
302.289
302.414
302.528
302.628
302.713
302.782
302.838
302.881
302.911
302.932
302.944
302.948
302.947
302.942
302.937
302.937
302.951
302.994
303.081
303.23
303.459
303.77
304.148
304.575
305.113
305.84
306.7
300.252
300.729
301.14
301.457
301.688
301.87
302.031
302.178
302.316
302.444
302.559
302.659
302.745
302.815
302.871
302.914
302.945
302.966
302.979
302.984
302.984
302.981
302.978
302.98
302.996
303.041
303.129
303.28
303.51
303.822
304.199
304.625
305.162
305.889
306.75
300.256
300.738
301.154
301.475
301.708
301.892
302.054
302.204
302.344
302.473
302.589
302.691
302.777
302.848
302.904
302.948
302.979
303.001
303.014
303.021
303.022
303.02
303.018
303.022
303.041
303.088
303.178
303.33
303.561
303.873
304.25
304.675
305.212
305.938
306.799
300.259
300.747
301.168
301.492
301.727
301.913
302.078
302.23
302.372
302.503
302.621
302.723
302.81
302.881
302.938
302.981
303.013
303.035
303.049
303.056
303.059
303.059
303.059
303.065
303.086
303.135
303.227
303.381
303.612
303.925
304.301
304.725
305.261
305.988
306.849
300.262
300.757
301.183
301.51
301.747
301.935
302.102
302.256
302.4
302.533
302.652
302.755
302.843
302.914
302.971
303.015
303.047
303.069
303.084
303.092
303.096
303.097
303.099
303.108
303.131
303.182
303.276
303.432
303.664
303.977
304.353
304.776
305.311
306.037
306.899
300.266
300.766
301.197
301.527
301.767
301.957
302.126
302.282
302.429
302.563
302.683
302.788
302.876
302.948
303.004
303.048
303.081
303.104
303.119
303.128
303.133
303.136
303.14
303.151
303.176
303.229
303.326
303.483
303.717
304.03
304.405
304.826
305.361
306.088
306.95
300.269
300.776
301.212
301.545
301.786
301.979
302.15
302.309
302.457
302.594
302.715
302.821
302.909
302.981
303.038
303.082
303.114
303.138
303.154
303.164
303.17
303.174
303.18
303.193
303.221
303.277
303.375
303.535
303.77
304.084
304.458
304.878
305.411
306.139
307.002
300.272
300.785
301.226
301.562
301.806
302.001
302.174
302.336
302.486
302.624
302.747
302.853
302.942
303.014
303.071
303.115
303.148
303.172
303.189
303.2
303.207
303.213
303.221
303.236
303.267
303.325
303.426
303.587
303.823
304.138
304.511
304.93
305.463
306.19
307.054
300.276
300.795
301.241
301.58
301.826
302.023
302.199
302.363
302.516
302.655
302.78
302.886
302.976
303.048
303.105
303.149
303.182
303.206
303.223
303.235
303.244
303.251
303.261
303.278
303.312
303.373
303.476
303.64
303.878
304.192
304.565
304.982
305.514
306.242
307.107
300.279
300.805
301.256
301.598
301.847
302.046
302.224
302.39
302.545
302.687
302.812
302.92
303.009
303.082
303.139
303.183
303.216
303.24
303.258
303.271
303.28
303.289
303.301
303.321
303.357
303.421
303.527
303.693
303.932
304.248
304.619
305.036
305.567
306.295
307.16
300.283
300.815
301.27
301.616
301.867
302.068
302.249
302.418
302.575
302.718
302.845
302.953
303.043
303.115
303.172
303.217
303.25
303.275
303.293
303.306
303.317
303.327
303.341
303.363
303.402
303.469
303.578
303.747
303.988
304.304
304.674
305.089
305.62
306.348
307.214
300.286
300.824
301.285
301.634
301.887
302.091
302.274
302.446
302.605
302.75
302.878
302.987
303.076
303.149
303.206
303.25
303.284
303.309
303.327
303.342
303.353
303.365
303.381
303.406
303.447
303.517
303.63
303.801
304.044
304.36
304.73
305.143
305.673
306.401
307.268
300.29
300.834
301.3
301.653
301.908
302.114
302.3
302.474
302.636
302.782
302.911
303.02
303.11
303.183
303.24
303.284
303.317
303.343
303.362
303.377
303.39
303.403
303.421
303.448
303.492
303.565
303.681
303.855
304.1
304.417
304.785
305.197
305.727
306.455
307.321
300.293
300.844
301.315
301.671
301.929
302.137
302.326
302.502
302.666
302.815
302.944
303.054
303.144
303.217
303.273
303.317
303.351
303.377
303.396
303.412
303.426
303.441
303.461
303.49
303.537
303.614
303.732
303.909
304.157
304.474
304.841
305.252
305.78
306.509
307.376
300.297
300.854
301.331
301.689
301.95
302.161
302.352
302.531
302.698
302.847
302.978
303.088
303.178
303.25
303.307
303.351
303.385
303.411
303.431
303.447
303.462
303.479
303.5
303.532
303.582
303.662
303.784
303.964
304.213
304.531
304.897
305.307
305.834
306.562
307.429
300.3
300.864
301.346
301.708
301.971
302.185
302.379
302.561
302.729
302.881
303.012
303.123
303.213
303.284
303.341
303.385
303.418
303.444
303.465
303.482
303.499
303.516
303.54
303.574
303.627
303.71
303.835
304.018
304.27
304.588
304.953
305.361
305.888
306.616
307.483
300.304
300.875
301.362
301.727
301.992
302.209
302.406
302.59
302.761
302.915
303.047
303.157
303.247
303.319
303.375
303.418
303.452
303.478
303.499
303.517
303.535
303.554
303.579
303.616
303.672
303.758
303.887
304.073
304.326
304.645
305.009
305.416
305.942
306.669
307.536
300.307
300.885
301.378
301.746
302.014
302.233
302.433
302.621
302.794
302.949
303.082
303.192
303.282
303.353
303.409
303.452
303.486
303.512
303.534
303.552
303.571
303.591
303.619
303.658
303.717
303.806
303.938
304.127
304.383
304.702
305.065
305.47
305.995
306.723
307.589
300.311
300.896
301.394
301.766
302.036
302.258
302.462
302.652
302.828
302.984
303.117
303.228
303.317
303.387
303.443
303.486
303.519
303.546
303.568
303.587
303.607
303.629
303.658
303.699
303.761
303.853
303.989
304.181
304.439
304.759
305.12
305.524
306.048
306.775
307.642
300.315
300.906
301.41
301.786
302.059
302.284
302.49
302.684
302.862
303.019
303.153
303.263
303.352
303.422
303.477
303.52
303.553
303.58
303.602
303.622
303.642
303.666
303.697
303.741
303.805
303.901
304.04
304.235
304.495
304.815
305.175
305.578
306.101
306.827
307.693
300.319
300.917
301.427
301.806
302.082
302.31
302.519
302.716
302.896
303.055
303.189
303.299
303.388
303.457
303.511
303.553
303.587
303.613
303.636
303.657
303.678
303.703
303.736
303.782
303.849
303.948
304.091
304.289
304.55
304.871
305.23
305.631
306.153
306.879
307.745
300.323
300.928
301.444
301.826
302.105
302.336
302.549
302.749
302.931
303.091
303.226
303.336
303.423
303.492
303.546
303.587
303.62
303.647
303.67
303.692
303.714
303.74
303.775
303.823
303.893
303.995
304.141
304.342
304.606
304.926
305.284
305.683
306.205
306.93
307.795
300.327
300.94
301.461
301.847
302.129
302.363
302.579
302.782
302.967
303.128
303.263
303.372
303.459
303.527
303.58
303.622
303.654
303.681
303.704
303.726
303.75
303.777
303.814
303.864
303.937
304.042
304.191
304.395
304.66
304.981
305.337
305.735
306.256
306.981
307.845
300.331
300.951
301.478
301.868
302.152
302.39
302.61
302.816
303.003
303.165
303.3
303.409
303.496
303.563
303.615
303.656
303.688
303.715
303.738
303.761
303.785
303.814
303.852
303.905
303.981
304.089
304.241
304.447
304.714
305.035
305.39
305.786
306.307
307.03
307.894
300.335
300.963
301.495
301.889
302.177
302.417
302.641
302.85
303.039
303.203
303.338
303.447
303.532
303.598
303.65
303.69
303.722
303.749
303.772
303.796
303.821
303.851
303.891
303.946
304.024
304.135
304.29
304.499
304.768
305.089
305.442
305.837
306.356
307.079
307.943
300.339
300.974
301.513
301.91
302.201
302.445
302.672
302.885
303.076
303.24
303.376
303.484
303.568
303.634
303.685
303.724
303.756
303.783
303.807
303.83
303.856
303.888
303.929
303.986
304.067
304.181
304.339
304.551
304.821
305.141
305.493
305.887
306.405
307.128
307.99
300.343
300.986
301.531
301.932
302.225
302.473
302.704
302.92
303.114
303.279
303.414
303.521
303.605
303.67
303.72
303.759
303.79
303.817
303.841
303.865
303.892
303.924
303.967
304.027
304.11
304.226
304.387
304.601
304.873
305.193
305.543
305.936
306.453
307.175
308.037
300.347
300.998
301.548
301.953
302.25
302.502
302.737
302.956
303.151
303.317
303.452
303.559
303.642
303.705
303.755
303.793
303.824
303.851
303.875
303.899
303.927
303.961
304.005
304.067
304.152
304.272
304.435
304.652
304.924
305.244
305.593
305.984
306.501
307.221
308.083
300.351
301.01
301.566
301.975
302.275
302.531
302.77
302.992
303.19
303.356
303.491
303.597
303.678
303.741
303.79
303.828
303.858
303.885
303.909
303.934
303.962
303.997
304.043
304.107
304.194
304.316
304.482
304.701
304.975
305.294
305.642
306.031
306.547
307.267
308.127
300.355
301.021
301.584
301.997
302.301
302.56
302.804
303.029
303.229
303.396
303.53
303.635
303.715
303.777
303.825
303.862
303.892
303.919
303.943
303.969
303.998
304.034
304.081
304.146
304.236
304.361
304.529
304.75
305.025
305.344
305.689
306.078
306.593
307.311
308.171
300.359
301.034
301.603
302.019
302.327
302.59
302.838
303.067
303.269
303.436
303.569
303.673
303.753
303.813
303.86
303.897
303.927
303.953
303.977
304.003
304.033
304.07
304.119
304.186
304.278
304.405
304.576
304.798
305.074
305.392
305.736
306.123
306.637
307.355
308.214
300.364
301.046
301.621
302.042
302.353
302.621
302.874
303.106
303.309
303.477
303.609
303.712
303.79
303.85
303.896
303.932
303.961
303.987
304.012
304.038
304.068
304.106
304.156
304.225
304.319
304.448
304.622
304.846
305.122
305.44
305.782
306.168
306.681
307.398
308.256
300.368
301.058
301.64
302.066
302.38
302.653
302.91
303.146
303.351
303.518
303.65
303.752
303.828
303.887
303.931
303.967
303.996
304.021
304.046
304.073
304.104
304.142
304.194
304.264
304.36
304.492
304.667
304.893
305.169
305.486
305.827
306.211
306.724
307.439
308.297
300.373
301.071
301.66
302.089
302.408
302.685
302.947
303.186
303.393
303.56
303.691
303.791
303.867
303.924
303.967
304.002
304.03
304.056
304.081
304.107
304.139
304.179
304.231
304.303
304.401
304.534
304.712
304.939
305.216
305.532
305.871
306.254
306.766
307.481
308.337
300.377
301.084
301.679
302.113
302.436
302.718
302.984
303.227
303.435
303.603
303.733
303.831
303.905
303.961
304.004
304.037
304.065
304.091
304.115
304.142
304.174
304.215
304.269
304.342
304.442
304.577
304.756
304.984
305.262
305.577
305.914
306.296
306.807
307.521
308.376
300.382
301.097
301.699
302.137
302.464
302.751
303.022
303.268
303.477
303.645
303.774
303.872
303.944
303.999
304.04
304.073
304.101
304.126
304.15
304.177
304.21
304.251
304.306
304.381
304.482
304.619
304.799
305.029
305.307
305.621
305.957
306.337
306.847
307.56
308.415
300.386
301.11
301.718
302.161
302.493
302.785
303.06
303.31
303.52
303.687
303.816
303.912
303.983
304.036
304.077
304.109
304.136
304.161
304.185
304.213
304.246
304.288
304.343
304.419
304.522
304.661
304.843
305.073
305.351
305.664
305.998
306.377
306.886
307.598
308.453
300.391
301.122
301.738
302.186
302.522
302.819
303.1
303.352
303.563
303.73
303.857
303.952
304.022
304.074
304.114
304.145
304.171
304.196
304.221
304.248
304.281
304.324
304.381
304.458
304.562
304.702
304.886
305.117
305.395
305.706
306.039
306.417
306.925
307.636
308.491
300.395
301.136
301.759
302.211
302.552
302.855
303.14
303.395
303.607
303.773
303.899
303.992
304.061
304.112
304.15
304.181
304.207
304.231
304.256
304.284
304.317
304.361
304.418
304.496
304.602
304.743
304.928
305.16
305.437
305.748
306.079
306.455
306.963
307.673
308.527
300.4
301.149
301.78
302.238
302.584
302.892
303.183
303.44
303.652
303.818
303.942
304.033
304.1
304.15
304.187
304.217
304.243
304.267
304.291
304.319
304.353
304.397
304.456
304.535
304.642
304.785
304.97
305.203
305.48
305.789
306.118
306.494
307
307.71
308.564
300.405
301.163
301.802
302.266
302.617
302.932
303.227
303.487
303.699
303.863
303.986
304.075
304.14
304.188
304.225
304.254
304.279
304.303
304.327
304.355
304.39
304.434
304.494
304.574
304.682
304.826
305.012
305.245
305.522
305.829
306.157
306.531
307.037
307.746
308.599
300.41
301.178
301.825
302.295
302.652
302.973
303.274
303.536
303.748
303.911
304.031
304.118
304.181
304.227
304.262
304.291
304.315
304.339
304.363
304.391
304.426
304.471
304.532
304.613
304.722
304.867
305.054
305.288
305.563
305.869
306.195
306.569
307.074
307.783
308.635
300.415
301.194
301.849
302.325
302.688
303.016
303.322
303.587
303.799
303.959
304.077
304.161
304.222
304.267
304.301
304.328
304.352
304.375
304.399
304.428
304.463
304.509
304.57
304.652
304.762
304.908
305.096
305.329
305.604
305.909
306.233
306.605
307.11
307.818
308.671
300.421
301.21
301.875
302.357
302.726
303.061
303.373
303.64
303.851
304.009
304.124
304.206
304.264
304.307
304.339
304.366
304.389
304.412
304.436
304.464
304.5
304.546
304.608
304.691
304.802
304.949
305.138
305.372
305.646
305.949
306.271
306.642
307.146
307.854
308.707
300.427
301.227
301.901
302.389
302.766
303.108
303.425
303.693
303.904
304.06
304.171
304.251
304.307
304.347
304.378
304.404
304.426
304.449
304.473
304.501
304.537
304.584
304.647
304.731
304.843
304.991
305.18
305.413
305.687
305.988
306.309
306.679
307.182
307.889
308.742
300.433
301.245
301.928
302.423
302.806
303.156
303.478
303.748
303.958
304.111
304.22
304.296
304.35
304.389
304.418
304.442
304.464
304.486
304.51
304.539
304.575
304.622
304.686
304.771
304.884
305.033
305.222
305.456
305.728
306.027
306.347
306.716
307.218
307.926
308.778
300.439
301.263
301.956
302.458
302.849
303.206
303.533
303.805
304.013
304.163
304.269
304.342
304.393
304.43
304.458
304.481
304.502
304.524
304.548
304.576
304.613
304.661
304.725
304.811
304.925
305.074
305.265
305.498
305.769
306.066
306.384
306.752
307.254
307.961
308.813
300.445
301.282
301.985
302.495
302.893
303.259
303.591
303.864
304.07
304.217
304.319
304.389
304.438
304.472
304.499
304.521
304.541
304.562
304.586
304.614
304.651
304.7
304.765
304.852
304.967
305.117
305.308
305.54
305.81
306.106
306.422
306.789
307.291
307.998
308.85
300.452
301.301
302.015
302.533
302.939
303.313
303.651
303.924
304.128
304.272
304.37
304.437
304.482
304.515
304.54
304.56
304.58
304.6
304.624
304.653
304.69
304.739
304.805
304.893
305.009
305.159
305.35
305.583
305.851
306.145
306.46
306.825
307.327
308.033
308.886
300.459
301.322
302.047
302.573
302.987
303.37
303.712
303.986
304.188
304.328
304.422
304.485
304.528
304.558
304.581
304.601
304.62
304.639
304.663
304.692
304.729
304.779
304.846
304.934
305.051
305.203
305.394
305.626
305.893
306.186
306.499
306.863
307.365
308.071
308.923
300.467
301.343
302.08
302.614
303.036
303.427
303.775
304.049
304.248
304.384
304.475
304.534
304.574
304.602
304.623
304.642
304.659
304.679
304.702
304.731
304.769
304.819
304.887
304.976
305.094
305.246
305.437
305.669
305.935
306.225
306.536
306.9
307.401
308.107
308.96
300.474
301.365
302.113
302.655
303.086
303.486
303.837
304.112
304.309
304.442
304.528
304.584
304.621
304.646
304.666
304.683
304.7
304.719
304.742
304.771
304.809
304.86
304.928
305.019
305.138
305.291
305.482
305.713
305.978
306.266
306.576
306.939
307.439
308.145
308.998
300.482
301.387
302.146
302.697
303.137
303.545
303.901
304.176
304.37
304.499
304.581
304.634
304.668
304.691
304.709
304.725
304.741
304.759
304.782
304.811
304.85
304.901
304.97
305.061
305.181
305.334
305.526
305.756
306.019
306.306
306.614
306.976
307.476
308.182
309.035
300.49
301.41
302.181
302.741
303.189
303.605
303.965
304.239
304.431
304.556
304.635
304.684
304.715
304.736
304.752
304.767
304.782
304.8
304.823
304.852
304.891
304.943
305.013
305.105
305.225
305.38
305.572
305.801
306.063
306.348
306.654
307.016
307.516
308.221
309.074
300.498
301.433
302.216
302.785
303.243
303.667
304.03
304.304
304.493
304.614
304.689
304.735
304.763
304.782
304.796
304.81
304.824
304.841
304.864
304.893
304.932
304.985
305.055
305.148
305.269
305.424
305.616
305.845
306.105
306.388
306.693
307.053
307.553
308.258
309.111
300.507
301.457
302.253
302.833
303.3
303.733
304.1
304.372
304.557
304.674
304.744
304.786
304.811
304.828
304.841
304.853
304.866
304.883
304.905
304.935
304.974
305.028
305.099
305.193
305.315
305.471
305.663
305.891
306.149
306.431
306.734
307.094
307.593
308.298
309.152
300.515
301.482
302.292
302.882
303.36
303.802
304.172
304.443
304.623
304.735
304.8
304.838
304.86
304.874
304.886
304.896
304.909
304.925
304.947
304.976
305.016
305.07
305.142
305.237
305.36
305.516
305.708
305.935
306.192
306.471
306.773
307.132
307.631
308.336
309.19
300.525
301.509
302.333
302.935
303.423
303.875
304.248
304.517
304.693
304.798
304.858
304.891
304.91
304.922
304.931
304.941
304.953
304.968
304.99
305.019
305.06
305.114
305.187
305.283
305.407
305.563
305.755
305.982
306.237
306.515
306.816
307.174
307.673
308.378
309.231
300.535
301.538
302.376
302.988
303.488
303.949
304.326
304.593
304.763
304.863
304.917
304.946
304.961
304.97
304.977
304.985
304.996
305.011
305.032
305.062
305.103
305.158
305.231
305.328
305.452
305.609
305.801
306.026
306.28
306.556
306.855
307.213
307.711
308.416
309.27
300.545
301.567
302.419
303.043
303.553
304.023
304.404
304.67
304.835
304.929
304.977
305.001
305.013
305.019
305.024
305.031
305.041
305.055
305.076
305.106
305.147
305.203
305.277
305.375
305.5
305.658
305.85
306.074
306.327
306.601
306.899
307.256
307.755
308.459
309.313
300.556
301.596
302.463
303.097
303.618
304.097
304.481
304.746
304.907
304.995
305.038
305.057
305.065
305.068
305.072
305.077
305.086
305.099
305.12
305.149
305.191
305.247
305.322
305.42
305.547
305.704
305.896
306.12
306.37
306.643
306.939
307.295
307.794
308.498
309.352
300.566
301.626
302.506
303.151
303.683
304.17
304.558
304.822
304.98
305.062
305.1
305.114
305.118
305.119
305.12
305.124
305.131
305.144
305.165
305.194
305.236
305.293
305.369
305.469
305.596
305.754
305.946
306.169
306.418
306.689
306.984
307.34
307.838
308.543
309.397
300.577
301.655
302.549
303.206
303.747
304.243
304.635
304.898
305.052
305.13
305.162
305.172
305.172
305.17
305.169
305.171
305.177
305.189
305.209
305.239
305.281
305.338
305.415
305.515
305.643
305.801
305.992
306.214
306.462
306.731
307.025
307.38
307.878
308.582
309.436
300.587
301.684
302.593
303.261
303.813
304.317
304.713
304.976
305.126
305.199
305.226
305.231
305.227
305.222
305.219
305.219
305.224
305.235
305.255
305.285