/*--------------------------------*- C++ -*----------------------------------*\
| =========                 |                                                 |
| \\      /  F ield         | OpenFOAM: The Open Source CFD Toolbox           |
|  \\    /   O peration     | Version:  v2012                                 |
|   \\  /    A nd           | Website:  www.openfoam.com                      |
|    \\/     M anipulation  |                                                 |
\*---------------------------------------------------------------------------*/
FoamFile
{
    version     2.0;
    format      ascii;
    class       volVectorField;
    location    "9";
    object      U;
}
// * * * * * * * * * * * * * * * * * * * * * * * * * * * * * * * * * * * * * //

dimensions      [0 1 -1 0 0 0 0];


internalField   nonuniform List<vector> 
78750
(
(-2.92096e-06 -8.94657e-05 0.000143499)
(-1.33206e-05 -8.47951e-05 0.000324686)
(-4.41822e-05 -5.16463e-05 0.000457199)
(-8.90655e-05 -6.45243e-06 0.000585138)
(-0.000144078 4.21354e-05 0.000703217)
(-0.000206712 9.00609e-05 0.000807048)
(-0.000273997 0.000134858 0.00089172)
(-0.00034364 0.000175721 0.000953514)
(-0.000413874 0.000212706 0.000989955)
(-0.000484032 0.000246603 0.00100017)
(-0.000552847 0.000277559 0.000985078)
(-0.000619245 0.000305207 0.000946574)
(-0.00068257 0.000328135 0.000887271)
(-0.00074073 0.000343719 0.000811169)
(-0.000791861 0.000350026 0.000722164)
(-0.00083485 0.000346687 0.000623346)
(-0.000868602 0.00033431 0.00051688)
(-0.000892512 0.000314288 0.00040478)
(-0.000906282 0.000288463 0.000288446)
(-0.000909586 0.000258682 0.000169389)
(-0.000902111 0.000226738 4.96009e-05)
(-0.00088367 0.000194193 -6.81972e-05)
(-0.000854309 0.000162319 -0.000180919)
(-0.000814418 0.000132064 -0.000285245)
(-0.000764695 0.000104003 -0.000378062)
(-0.000706178 7.82719e-05 -0.000456593)
(-0.000640016 5.46347e-05 -0.000518705)
(-0.000567373 3.27831e-05 -0.000562691)
(-0.000489415 1.25893e-05 -0.000587005)
(-0.000407338 -5.83492e-06 -0.000590101)
(-0.000321998 -2.18918e-05 -0.000570295)
(-0.000233966 -3.4434e-05 -0.000525993)
(-0.000145916 -4.12676e-05 -0.000455365)
(-7.45249e-05 -3.94851e-05 -0.000357333)
(-2.32922e-05 -2.38901e-05 -0.000181255)
(-3.80369e-05 0.000347885 -3.14563e-05)
(-0.0001033 0.000670416 8.56109e-05)
(-0.000193792 0.000840008 0.000184917)
(-0.00031813 0.000967 0.000256715)
(-0.000446939 0.00105225 0.000297413)
(-0.000571141 0.00109711 0.000312743)
(-0.000686913 0.0011143 0.000298437)
(-0.000790481 0.00111595 0.000248377)
(-0.000878529 0.0011128 0.000157775)
(-0.000948811 0.00110904 2.67758e-05)
(-0.00100047 0.00110476 -0.00013671)
(-0.00103365 0.00109312 -0.000308963)
(-0.00104745 0.00106383 -0.000447905)
(-0.00104337 0.0010121 -0.000528918)
(-0.00102766 0.000946679 -0.000563183)
(-0.00100251 0.000873019 -0.000563573)
(-0.000969498 0.000795708 -0.000539194)
(-0.000931204 0.000718525 -0.000496979)
(-0.000889856 0.000642788 -0.00045731)
(-0.000846241 0.000567791 -0.000439002)
(-0.000800245 0.000492777 -0.00044692)
(-0.000751757 0.000418081 -0.000475955)
(-0.000700606 0.000344876 -0.000516674)
(-0.000646928 0.000275106 -0.000558732)
(-0.000590995 0.000211003 -0.000593219)
(-0.000533316 0.000154009 -0.000615703)
(-0.00047426 0.000103239 -0.000628763)
(-0.000414431 5.80595e-05 -0.000633388)
(-0.000354244 1.75229e-05 -0.000629584)
(-0.000294085 -1.8663e-05 -0.000615747)
(-0.000234218 -5.11071e-05 -0.000589878)
(-0.000174089 -7.87125e-05 -0.000545622)
(-0.000114345 -9.98019e-05 -0.000468534)
(-6.78063e-05 -0.000105824 -0.000335632)
(-3.34025e-05 -5.29535e-05 -7.06594e-05)
(-8.36882e-05 0.000883702 0.000620003)
(-0.000185936 0.00150467 0.00101559)
(-0.00032493 0.00178041 0.00121893)
(-0.00050782 0.0019553 0.00135099)
(-0.00068586 0.00204458 0.00140459)
(-0.000845466 0.00206175 0.00138668)
(-0.000985249 0.00202451 0.00129958)
(-0.00109997 0.0019491 0.00115191)
(-0.00118703 0.00184975 0.00095234)
(-0.00124472 0.00173668 0.000713779)
(-0.00127276 0.00161618 0.000452214)
(-0.00127289 0.0014921 0.000188526)
(-0.00124841 0.00136819 -5.73299e-05)
(-0.00120389 0.001246 -0.000268151)
(-0.00114383 0.00112671 -0.000433619)
(-0.00107241 0.00101123 -0.000550624)
(-0.000993684 0.000901092 -0.000620502)
(-0.000912476 0.000799504 -0.000649165)
(-0.000831311 0.00070732 -0.000651237)
(-0.000751731 0.000623713 -0.000640822)
(-0.000675102 0.000548702 -0.000624898)
(-0.000602149 0.000481829 -0.000606999)
(-0.000533493 0.00042268 -0.000588537)
(-0.000469427 0.000370345 -0.000569441)
(-0.000410078 0.000324079 -0.00054977)
(-0.000355267 0.000282801 -0.000529685)
(-0.000304728 0.000245838 -0.000509299)
(-0.000258149 0.000212403 -0.000488353)
(-0.000215204 0.000182229 -0.000466178)
(-0.000175612 0.000154891 -0.000441404)
(-0.000138948 0.000130614 -0.00041187)
(-0.000104408 0.000109573 -0.000373617)
(-7.12554e-05 9.28255e-05 -0.000319512)
(-4.44034e-05 8.18565e-05 -0.000240176)
(-2.5193e-05 8.11489e-05 -6.03257e-05)
(-0.000122301 0.00126401 0.000963354)
(-0.000235939 0.0020931 0.00150178)
(-0.000373459 0.00243587 0.00173036)
(-0.000546909 0.00258506 0.00186754)
(-0.000711783 0.00258293 0.00193016)
(-0.000863708 0.00247364 0.00191953)
(-0.000998075 0.00230921 0.00184148)
(-0.00110839 0.00211506 0.00169901)
(-0.00118741 0.00190995 0.00150155)
(-0.00123227 0.00170273 0.00125926)
(-0.00124308 0.00150165 0.000985727)
(-0.00122428 0.00131117 0.000696643)
(-0.00118075 0.00113186 0.00041502)
(-0.00111825 0.000965443 0.000170012)
(-0.00104264 0.000817134 7.22659e-08)
(-0.000962102 0.000694639 -0.000107372)
(-0.000878053 0.000597811 -0.000173161)
(-0.000794161 0.000525232 -0.000212697)
(-0.000711977 0.000470506 -0.000239144)
(-0.000632249 0.000427338 -0.000261985)
(-0.000556903 0.000393281 -0.000279477)
(-0.00048673 0.000367517 -0.000289855)
(-0.000421704 0.000348079 -0.000294298)
(-0.000362599 0.000334297 -0.000293065)
(-0.000309354 0.000324631 -0.000287281)
(-0.000262022 0.000317956 -0.000278049)
(-0.000220374 0.000312987 -0.000266239)
(-0.000184085 0.000308717 -0.000252923)
(-0.000152658 0.000303943 -0.000239006)
(-0.000125546 0.000297792 -0.000225153)
(-0.000101799 0.000289074 -0.00021202)
(-8.0026e-05 0.000276923 -0.00020267)
(-5.80894e-05 0.000259953 -0.000203248)
(-3.89795e-05 0.000237067 -0.000207247)
(-2.30314e-05 0.000189457 -0.000130251)
(-8.2017e-05 0.0010233 0.000789795)
(-0.000137656 0.00157946 0.00118588)
(-0.000196529 0.00181558 0.00133099)
(-0.000263481 0.00194946 0.00141929)
(-0.000326396 0.00198927 0.00146937)
(-0.000388793 0.00194755 0.00147761)
(-0.000450689 0.0018413 0.00144897)
(-0.000507318 0.0016872 0.00138483)
(-0.000553431 0.00150156 0.00129069)
(-0.000584277 0.00129911 0.00117168)
(-0.000597885 0.00109292 0.00103704)
(-0.000594805 0.000893808 0.000896203)
(-0.000579127 0.000711283 0.000758786)
(-0.000554509 0.00055175 0.000633265)
(-0.000524608 0.000419473 0.000525911)
(-0.000492258 0.000315891 0.000438818)
(-0.000458528 0.000240122 0.000369875)
(-0.000423854 0.000189593 0.000316194)
(-0.000388728 0.000161042 0.000275161)
(-0.000353946 0.000150799 0.000245173)
(-0.000320306 0.000155523 0.000225016)
(-0.000288387 0.000171821 0.000213705)
(-0.000258495 0.000196523 0.000209652)
(-0.000230982 0.000226603 0.000211387)
(-0.000205777 0.000259576 0.000217063)
(-0.000182943 0.000292945 0.000225047)
(-0.000162338 0.000324566 0.000233333)
(-0.000143708 0.000352548 0.000240145)
(-0.000126672 0.000375076 0.000243709)
(-0.00011082 0.000390311 0.000242328)
(-9.55409e-05 0.000396284 0.000233948)
(-7.98594e-05 0.000390383 0.000213594)
(-6.18675e-05 0.000369369 0.000169306)
(-4.44842e-05 0.000330175 0.000104014)
(-2.44963e-05 0.000230917 5.48157e-05)
(-1.47865e-05 0.000656897 0.000530977)
(-7.51048e-06 0.000953269 0.000753025)
(6.51042e-06 0.00107966 0.000816894)
(3.38167e-05 0.00115067 0.000853644)
(6.63459e-05 0.001168 0.000870761)
(9.99297e-05 0.00113762 0.000865137)
(0.000131955 0.00106946 0.000839519)
(0.000161135 0.000973431 0.000797851)
(0.000186134 0.000861001 0.000745074)
(0.000206223 0.000742162 0.000685316)
(0.000220572 0.00062565 0.000622839)
(0.000228747 0.00051736 0.000560956)
(0.000230395 0.000421563 0.000502826)
(0.000225676 0.000340922 0.000450752)
(0.00021503 0.00027725 0.000406875)
(0.000199386 0.000231067 0.000372117)
(0.000179799 0.000201683 0.00034679)
(0.000157471 0.000187301 0.000330266)
(0.000133547 0.000185653 0.000321888)
(0.000109069 0.00019422 0.000320577)
(8.49535e-05 0.000210574 0.000325357)
(6.18844e-05 0.000232346 0.000334829)
(4.0448e-05 0.000257417 0.000347656)
(2.1128e-05 0.000284017 0.000362191)
(4.22598e-06 0.0003106 0.000376996)
(-1.00761e-05 0.000335629 0.000390448)
(-2.16351e-05 0.00035786 0.000401145)
(-3.04231e-05 0.000375951 0.000407411)
(-3.64185e-05 0.000388604 0.000407575)
(-3.96619e-05 0.000394126 0.000399927)
(-4.0107e-05 0.000390838 0.00038271)
(-3.75864e-05 0.00037656 0.000351012)
(-3.12844e-05 0.000348972 0.000293773)
(-2.36073e-05 0.000303539 0.000212007)
(-1.21494e-05 0.000188594 0.000122017)
(1.21775e-05 0.000212372 0.000382494)
(3.7265e-05 0.000296757 0.000478853)
(6.5148e-05 0.000341277 0.000483915)
(0.000105695 0.000375211 0.000483901)
(0.000147598 0.000397653 0.000482956)
(0.000187742 0.000410512 0.00047666)
(0.000224341 0.000417138 0.00046468)
(0.000256074 0.000420258 0.000447971)
(0.000281897 0.000422118 0.00042685)
(0.000301239 0.000424119 0.000401243)
(0.000313585 0.000427177 0.000371606)
(0.000318635 0.000432474 0.000339619)
(0.000316361 0.000440862 0.000307832)
(0.000307155 0.000452665 0.000279169)
(0.000291973 0.000467089 0.00025571)
(0.000271978 0.000483 0.000238296)
(0.000248242 0.000498985 0.0002264)
(0.000222146 0.000513958 0.0002196)
(0.000194659 0.000526938 0.000217125)
(0.000166717 0.000537375 0.000218432)
(0.000139081 0.000544732 0.000222705)
(0.000112337 0.000549045 0.000229336)
(8.69747e-05 0.000550194 0.00023745)
(6.33897e-05 0.00054832 0.000246462)
(4.18661e-05 0.00054345 0.000255466)
(2.2676e-05 0.000535943 0.00026374)
(6.03073e-06 0.000525706 0.000270194)
(-7.91469e-06 0.00051274 0.000273882)
(-1.89247e-05 0.000496437 0.00027329)
(-2.68976e-05 0.000475979 0.00026739)
(-3.16703e-05 0.000449679 0.00025441)
(-3.3194e-05 0.000415833 0.00023008)
(-3.05898e-05 0.000371865 0.000184017)
(-2.55233e-05 0.000311034 0.00011793)
(-1.44944e-05 0.00016392 5.55709e-05)
(-7.42269e-07 6.72888e-05 0.000339163)
(4.31395e-06 0.000178651 0.000355029)
(2.8593e-06 0.000230385 0.000321414)
(3.10737e-06 0.000270554 0.00029033)
(3.57653e-06 0.000301911 0.000267567)
(4.00893e-06 0.000325866 0.000247071)
(4.1817e-06 0.000343935 0.000226764)
(4.13004e-06 0.000355875 0.000207933)
(4.20566e-06 0.000365455 0.000189887)
(4.57952e-06 0.00038009 0.000167307)
(5.59636e-06 0.000405277 0.000137021)
(7.56471e-06 0.000441153 0.000100031)
(1.07642e-05 0.000484532 6.09003e-05)
(1.51098e-05 0.000528925 2.51526e-05)
(2.00134e-05 0.000568317 -2.8878e-06)
(2.53269e-05 0.000602249 -2.45542e-05)
(3.11946e-05 0.000631183 -4.0401e-05)
(3.70984e-05 0.000654891 -5.10128e-05)
(4.27604e-05 0.000673848 -5.65063e-05)
(4.78036e-05 0.000687808 -5.72886e-05)
(5.19369e-05 0.000697168 -5.35403e-05)
(5.48256e-05 0.000701646 -4.58927e-05)
(5.62514e-05 0.000701619 -3.47447e-05)
(5.60017e-05 0.000696728 -2.10054e-05)
(5.3995e-05 0.000687316 -5.37146e-06)
(5.0216e-05 0.000672881 1.09107e-05)
(4.47229e-05 0.000653652 2.68502e-05)
(3.78064e-05 0.000629015 4.0833e-05)
(2.97583e-05 0.000598666 5.17077e-05)
(2.09445e-05 0.000561471 5.774e-05)
(1.19474e-05 0.000517816 5.77105e-05)
(3.44802e-06 0.00046684 4.73939e-05)
(-2.93645e-06 0.000406906 1.77287e-05)
(-5.84162e-06 0.000327421 -3.00494e-05)
(-5.39219e-06 0.000139414 -6.23385e-05)
(-8.65006e-06 1.93267e-05 0.000209902)
(-1.49543e-05 0.000163141 0.000242496)
(-2.51854e-05 0.000227572 0.00023711)
(-3.75975e-05 0.000277099 0.000224668)
(-4.96332e-05 0.00031527 0.000208111)
(-6.09545e-05 0.000345705 0.000186)
(-7.14774e-05 0.000370399 0.000157462)
(-8.10155e-05 0.000391748 0.000123808)
(-8.95326e-05 0.000411121 8.77646e-05)
(-9.66158e-05 0.00043031 5.30557e-05)
(-0.000101684 0.000449744 2.17271e-05)
(-0.000103922 0.000470111 -5.59519e-06)
(-0.000102801 0.00049103 -2.97385e-05)
(-9.81253e-05 0.000512738 -5.09147e-05)
(-9.0292e-05 0.000534533 -6.90914e-05)
(-7.98646e-05 0.000556468 -8.35535e-05)
(-6.76018e-05 0.00057771 -9.42614e-05)
(-5.4053e-05 0.000598318 -0.000100792)
(-3.98642e-05 0.000617501 -0.000103332)
(-2.55857e-05 0.000635367 -0.00010165)
(-1.1786e-05 0.000651128 -9.60893e-05)
(1.05036e-06 0.000664928 -8.65477e-05)
(1.24453e-05 0.000675942 -7.353e-05)
(2.19814e-05 0.000684283 -5.71983e-05)
(2.9333e-05 0.000689019 -3.86173e-05)
(3.42712e-05 0.000690233 -1.87936e-05)
(3.67104e-05 0.000686739 4.67785e-07)
(3.66152e-05 0.000678222 1.77952e-05)
(3.4167e-05 0.000662936 3.15042e-05)
(2.95443e-05 0.000639715 4.07869e-05)
(2.31822e-05 0.000605597 4.40673e-05)
(1.56409e-05 0.000557717 3.83679e-05)
(8.24064e-06 0.00049057 1.75245e-05)
(3.52107e-06 0.000397363 -1.69981e-05)
(1.67266e-07 0.000180469 -4.86269e-05)
(-1.08655e-05 3.3245e-05 0.000152156)
(-2.06169e-05 0.00018574 0.000209692)
(-3.25732e-05 0.000252971 0.000227673)
(-4.77302e-05 0.000303355 0.000232194)
(-6.20331e-05 0.000341801 0.000226457)
(-7.51598e-05 0.000371352 0.000211916)
(-8.69683e-05 0.000394861 0.000189376)
(-9.71987e-05 0.000413775 0.000159578)
(-0.000105445 0.000429906 0.000124932)
(-0.000111436 0.00044397 8.87837e-05)
(-0.000114987 0.000457278 5.46499e-05)
(-0.000116073 0.000470048 2.44648e-05)
(-0.000114748 0.000483158 -8.58519e-07)
(-0.000111169 0.000496355 -2.1565e-05)
(-0.000105565 0.000510204 -3.78532e-05)
(-9.82171e-05 0.000524228 -5.02161e-05)
(-8.94129e-05 0.000538828 -5.85719e-05)
(-7.94741e-05 0.000553345 -6.31631e-05)
(-6.87496e-05 0.000568097 -6.37903e-05)
(-5.7604e-05 0.000582296 -6.0662e-05)
(-4.6411e-05 0.000596197 -5.35299e-05)
(-3.55511e-05 0.00060888 -4.2575e-05)
(-2.54057e-05 0.000620511 -2.76022e-05)
(-1.62814e-05 0.000629998 -9.16419e-06)
(-8.4481e-06 0.000637389 1.22069e-05)
(-2.11121e-06 0.000641325 3.49205e-05)
(2.62324e-06 0.000641615 5.72953e-05)
(5.78913e-06 0.00063656 7.68798e-05)
(7.47708e-06 0.000625458 9.20435e-05)
(7.9023e-06 0.0006058 0.00010132)
(7.26722e-06 0.000575746 0.000104083)
(5.78853e-06 0.000531121 9.83753e-05)
(3.75676e-06 0.00046773 8.09624e-05)
(2.1899e-06 0.000378051 5.17054e-05)
(9.74773e-07 0.000168905 7.35108e-06)
(-1.0464e-05 3.96691e-05 0.000111518)
(-1.98913e-05 0.000184608 0.000183534)
(-3.12552e-05 0.000247825 0.00021428)
(-4.55086e-05 0.000294814 0.000228866)
(-5.88138e-05 0.000329825 0.000230052)
(-7.0858e-05 0.000356241 0.000220965)
(-8.14832e-05 0.000376132 0.000202975)
(-9.04524e-05 0.000391482 0.000177242)
(-9.74149e-05 0.000403332 0.000145758)
(-0.000102162 0.000412974 0.000111854)
(-0.000104562 0.000420939 7.87124e-05)
(-0.000104673 0.000428192 4.87622e-05)
(-0.000102571 0.000434952 2.3117e-05)
(-9.84844e-05 0.000442013 2.04977e-06)
(-9.25918e-05 0.000449365 -1.46197e-05)
(-8.51857e-05 0.000457576 -2.70573e-05)
(-7.65102e-05 0.000466414 -3.54813e-05)
(-6.69039e-05 0.000476257 -3.99227e-05)
(-5.66478e-05 0.00048665 -4.04424e-05)
(-4.61125e-05 0.000497807 -3.69132e-05)
(-3.55978e-05 0.000509055 -2.92816e-05)
(-2.54725e-05 0.00052045 -1.73554e-05)
(-1.60242e-05 0.000531107 -1.15641e-06)
(-7.58197e-06 0.00054092 1.91712e-05)
(-3.77879e-07 0.000548776 4.28345e-05)
(5.36893e-06 0.000554359 6.84629e-05)
(9.57595e-06 0.000556262 9.3788e-05)
(1.22348e-05 0.000553829 0.000116324)
(1.34681e-05 0.000545168 0.000133665)
(1.34522e-05 0.000528947 0.000144396)
(1.23785e-05 0.000502328 0.000147455)
(1.03742e-05 0.000462562 0.0001414)
(7.57321e-06 0.000404963 0.00012297)
(4.95709e-06 0.000323947 9.12159e-05)
(3.01071e-06 0.000135364 3.20674e-05)
(-8.76917e-06 4.02222e-05 6.73934e-05)
(-1.72587e-05 0.000173287 0.00014081)
(-2.82804e-05 0.000230752 0.000177025)
(-4.21627e-05 0.000272429 0.000196249)
(-5.52957e-05 0.000302634 0.000200596)
(-6.71146e-05 0.00032401 0.000193774)
(-7.73897e-05 0.000338945 0.000177648)
(-8.57556e-05 0.0003489 0.000153387)
(-9.18723e-05 0.000355357 0.000123084)
(-9.54715e-05 0.000359165 8.97326e-05)
(-9.64806e-05 0.000361439 5.65592e-05)
(-9.49175e-05 0.000362732 2.59865e-05)
(-9.09869e-05 0.000363949 -5.02848e-07)
(-8.48907e-05 0.000365423 -2.24654e-05)
(-7.69623e-05 0.000367835 -3.97508e-05)
(-6.74885e-05 0.000371283 -5.25003e-05)
(-5.68588e-05 0.000376242 -6.0803e-05)
(-4.53985e-05 0.000382564 -6.47614e-05)
(-3.35329e-05 0.000390489 -6.43422e-05)
(-2.16075e-05 0.000399615 -5.94928e-05)
(-1.00548e-05 0.000409949 -5.00563e-05)
(7.85221e-07 0.00042084 -3.59211e-05)
(1.04964e-05 0.000432059 -1.70512e-05)
(1.87882e-05 0.000442716 6.27343e-06)
(2.53291e-05 0.000452349 3.32681e-05)
(2.99494e-05 0.000459825 6.23684e-05)
(3.25197e-05 0.000464416 9.12254e-05)
(3.30996e-05 0.000464685 0.000117036)
(3.18231e-05 0.00045951 0.000137214)
(2.8948e-05 0.000446928 0.000149961)
(2.47328e-05 0.000425056 0.000154073)
(1.938e-05 0.000390809 0.000147769)
(1.32258e-05 0.000340784 0.000127418)
(8.01096e-06 0.000269649 9.18559e-05)
(4.3115e-06 0.000103812 2.59401e-05)
(-7.29058e-06 4.9603e-05 1.49549e-05)
(-1.59399e-05 0.000180533 8.01842e-05)
(-2.79575e-05 0.000236149 0.000117699)
(-4.35066e-05 0.000274984 0.000137954)
(-5.85911e-05 0.000300873 0.00014176)
(-7.22548e-05 0.000316861 0.000133457)
(-8.40257e-05 0.000325071 0.00011511)
(-9.33903e-05 0.000327548 8.82145e-05)
(-9.98969e-05 0.000325614 5.48537e-05)
(-0.000103224 0.000320835 1.81378e-05)
(-0.000103253 0.000314175 -1.8815e-05)
(-0.000100037 0.000306943 -5.32774e-05)
(-9.37936e-05 0.000299867 -8.35855e-05)
(-8.48372e-05 0.000293998 -0.000108836)
(-7.35578e-05 0.000289756 -0.000128741)
(-6.04246e-05 0.000287916 -0.00014316)
(-4.59115e-05 0.000288602 -0.00015221)
(-3.05563e-05 0.00029227 -0.000155862)
(-1.48743e-05 0.000298717 -0.00015417)
(5.76399e-07 0.000308054 -0.000147009)
(1.5278e-05 0.000319743 -0.000134324)
(2.86841e-05 0.000333547 -0.000115985)
(4.03267e-05 0.000348608 -9.21136e-05)
(4.97377e-05 0.000364361 -6.30737e-05)
(5.65773e-05 0.000379638 -2.99244e-05)
(6.05611e-05 0.000393511 5.49794e-06)
(6.16062e-05 0.000404531 4.05414e-05)
(5.97523e-05 0.000411478 7.22022e-05)
(5.52723e-05 0.000412572 9.76213e-05)
(4.8519e-05 0.000406124 0.000114765)
(3.99418e-05 0.000389763 0.000122219)
(2.99419e-05 0.000360838 0.000117888)
(1.92929e-05 0.000315764 9.76593e-05)
(1.08786e-05 0.000249959 6.1007e-05)
(4.9804e-06 9.44776e-05 -1.30475e-06)
(-6.48485e-06 8.25642e-05 -3.48876e-05)
(-1.6382e-05 0.000227166 1.6102e-05)
(-3.01583e-05 0.0002871 5.0909e-05)
(-4.84863e-05 0.000326075 6.84138e-05)
(-6.65531e-05 0.0003487 6.82333e-05)
(-8.29777e-05 0.00035821 5.48394e-05)
(-9.70704e-05 0.000357669 3.05731e-05)
(-0.000108127 0.000349289 -2.99774e-06)
(-0.000115575 0.0003354 -4.35543e-05)
(-0.000119024 0.000317753 -8.7864e-05)
(-0.000118343 0.000298322 -0.00013236)
(-0.000113623 0.000278427 -0.000174145)
(-0.000105155 0.000259689 -0.000211029)
(-9.33732e-05 0.000243116 -0.000241805)
(-7.87928e-05 0.000229936 -0.000265921)
(-6.20043e-05 0.000220731 -0.00028327)
(-4.36234e-05 0.000216296 -0.000293862)
(-2.43031e-05 0.000216765 -0.000297773)
(-4.68449e-06 0.000222466 -0.000294984)
(1.45518e-05 0.000233055 -0.000285448)
(3.27451e-05 0.000248373 -0.000269021)
(4.92414e-05 0.000267609 -0.000245639)
(6.34082e-05 0.000290104 -0.000215419)
(7.46634e-05 0.000314582 -0.000178959)
(8.25247e-05 0.000339941 -0.000137465)
(8.66316e-05 0.000364485 -9.31076e-05)
(8.68231e-05 0.000386621 -4.89696e-05)
(8.31775e-05 0.000404252 -8.55868e-06)
(7.60206e-05 0.000415363 2.49654e-05)
(6.58657e-05 0.0004174 4.93078e-05)
(5.33507e-05 0.000407838 6.28604e-05)
(3.91169e-05 0.000383371 6.34383e-05)
(2.43745e-05 0.000340336 4.69239e-05)
(1.31658e-05 0.000273711 1.38045e-05)
(5.15579e-06 0.000112628 -3.60176e-05)
(-5.8478e-06 0.000143372 -6.14819e-05)
(-1.66713e-05 0.000318249 -2.64667e-05)
(-3.13003e-05 0.00038917 1.0674e-06)
(-5.11163e-05 0.000432505 1.21424e-05)
(-7.07014e-05 0.000453655 5.44773e-06)
(-8.84438e-05 0.00045721 -1.50859e-05)
(-0.000103468 0.000446923 -4.74201e-05)
(-0.000114981 0.000426288 -9.00241e-05)
(-0.000122323 0.000398282 -0.000140294)
(-0.000125105 0.000365937 -0.000194473)
(-0.000123261 0.000331603 -0.000248591)
(-0.00011703 0.000297717 -0.000298987)
(-0.000106878 0.000266083 -0.000343094)
(-9.33933e-05 0.000238407 -0.000379578)
(-7.72066e-05 0.000215818 -0.000407927)
(-5.89475e-05 0.000199408 -0.000428178)
(-3.92354e-05 0.000189722 -0.000440492)
(-1.86846e-05 0.00018732 -0.000445024)
(2.10604e-06 0.000192227 -0.000441793)
(2.2523e-05 0.000204487 -0.000430668)
(4.19451e-05 0.000223617 -0.000411389)
(5.97531e-05 0.000249124 -0.000383679)
(7.52694e-05 0.000279949 -0.000347431)
(8.78143e-05 0.000314946 -0.000303116)
(9.67157e-05 0.000352342 -0.000252204)
(0.000101416 0.000390172 -0.000197404)
(0.000101588 0.000425945 -0.000142338)
(9.72329e-05 0.000456947 -9.12846e-05)
(8.86853e-05 0.000479985 -4.80311e-05)
(7.6583e-05 0.000491883 -1.51472e-05)
(6.16823e-05 0.000488945 5.87112e-06)
(4.48332e-05 0.00046714 1.32167e-05)
(2.75307e-05 0.000421672 3.37936e-06)
(1.46583e-05 0.000346845 -2.2378e-05)
(5.11892e-06 0.000161884 -5.69185e-05)
(-5.78512e-06 0.00021899 -5.86623e-05)
(-1.68815e-05 0.000430265 -3.61593e-05)
(-3.10621e-05 0.000514819 -1.76582e-05)
(-5.03585e-05 0.000564077 -1.40069e-05)
(-6.93286e-05 0.000584965 -2.6852e-05)
(-8.63399e-05 0.000583171 -5.35344e-05)
(-0.000100425 0.000563795 -9.29044e-05)
(-0.00011071 0.000531392 -0.000143785)
(-0.000116396 0.000490324 -0.000203555)
(-0.000117117 0.000444607 -0.000267742)
(-0.000113125 0.000397985 -0.000331153)
(-0.000105148 0.00035365 -0.000388739)
(-9.40024e-05 0.000313918 -0.000437422)
(-8.04075e-05 0.000280085 -0.000476249)
(-6.49103e-05 0.000253123 -0.000505579)
(-4.80098e-05 0.000233477 -0.000526111)
(-3.01509e-05 0.00022157 -0.000538526)
(-1.17786e-05 0.000217584 -0.000543182)
(6.72707e-06 0.000221761 -0.000540184)
(2.49286e-05 0.000233812 -0.000529365)
(4.24506e-05 0.000253617 -0.000510261)
(5.88296e-05 0.00028078 -0.000482111)
(7.36001e-05 0.000315163 -0.000444008)
(8.62259e-05 0.000356005 -0.000395401)
(9.59178e-05 0.000402189 -0.000337179)
(0.000101777 0.000451423 -0.000272554)
(0.000102978 0.000500215 -0.000206866)
(9.92174e-05 0.000544319 -0.000145812)
(9.08022e-05 0.000579323 -9.40348e-05)
(7.85669e-05 0.000600659 -5.40356e-05)
(6.33898e-05 0.000603601 -2.68329e-05)
(4.62e-05 0.000582937 -1.34032e-05)
(2.85677e-05 0.000532882 -1.60617e-05)
(1.5544e-05 0.000446422 -3.31834e-05)
(5.30235e-06 0.000229436 -5.51769e-05)
(-5.42157e-06 0.000297046 -4.2274e-05)
(-1.57951e-05 0.000543304 -2.66493e-05)
(-2.86633e-05 0.000641217 -1.46997e-05)
(-4.61999e-05 0.000696901 -1.60113e-05)
(-6.34565e-05 0.000718411 -3.22571e-05)
(-7.89062e-05 0.000712252 -6.22121e-05)
(-9.1413e-05 0.000684397 -0.00010569)
(-0.00010037 0.000640405 -0.000162338)
(-0.000104548 0.000585098 -0.000229591)
(-0.000103508 0.000526596 -0.000301246)
(-9.82948e-05 0.000473356 -0.000369214)
(-8.9913e-05 0.000428649 -0.00042765)
(-7.88618e-05 0.000390955 -0.000474621)
(-6.60621e-05 0.000359153 -0.000510579)
(-5.20942e-05 0.000333867 -0.000536617)
(-3.71039e-05 0.000315519 -0.00055426)
(-2.14757e-05 0.000304455 -0.000564574)
(-5.51387e-06 0.000300802 -0.000568268)
(1.04702e-05 0.000304611 -0.000565512)
(2.61601e-05 0.000315769 -0.000556165)
(4.12462e-05 0.000334087 -0.000539524)
(5.53673e-05 0.000359159 -0.000514486)
(6.84337e-05 0.000390466 -0.000479467)
(7.97654e-05 0.000427336 -0.000433388)
(8.86576e-05 0.000471726 -0.000375479)
(9.44992e-05 0.000525531 -0.000307555)
(9.63209e-05 0.000585943 -0.000235352)
(9.32175e-05 0.000644244 -0.000167139)
(8.5191e-05 0.000690593 -0.000109731)
(7.37365e-05 0.000720013 -6.57446e-05)
(5.94283e-05 0.000727236 -3.53655e-05)
(4.32835e-05 0.000706143 -1.86274e-05)
(2.68534e-05 0.000650288 -1.65513e-05)
(1.4766e-05 0.000551572 -2.74326e-05)
(5.00051e-06 0.000302143 -4.21349e-05)
(-5.01067e-06 0.000368652 -2.65722e-05)
(-1.45012e-05 0.000646519 -1.25452e-05)
(-2.61365e-05 0.000756941 -3.33355e-06)
(-4.20969e-05 0.000819446 -6.52515e-06)
(-5.79292e-05 0.000842686 -2.38954e-05)
(-7.2075e-05 0.000833887 -5.49014e-05)
(-8.41465e-05 0.000799475 -0.000100194)
(-9.24962e-05 0.000744406 -0.000159946)
(-9.62712e-05 0.000679272 -0.000229685)
(-9.58512e-05 0.00061608 -0.000301215)
(-9.17252e-05 0.000561909 -0.000366559)
(-8.4254e-05 0.000517726 -0.00042116)
(-7.41164e-05 0.000481074 -0.000464029)
(-6.18121e-05 0.000449643 -0.000496415)
(-4.82509e-05 0.000424397 -0.000519385)
(-3.35702e-05 0.000405924 -0.000534632)
(-1.81521e-05 0.000394699 -0.000543385)
(-2.36224e-06 0.000390951 -0.00054632)
(1.34418e-05 0.000394807 -0.000543641)
(2.88971e-05 0.000406116 -0.000535165)
(4.36314e-05 0.000424629 -0.000520239)
(5.72573e-05 0.000449847 -0.000497655)
(6.96285e-05 0.000481142 -0.000465788)
(7.97988e-05 0.000517509 -0.000423683)
(8.72972e-05 0.000561446 -0.000370034)
(9.14821e-05 0.000615621 -0.000305667)
(9.20468e-05 0.000679225 -0.000234813)
(8.85715e-05 0.000745402 -0.000165222)
(8.07337e-05 0.000801955 -0.000105203)
(6.91731e-05 0.000837462 -5.96019e-05)
(5.56184e-05 0.000846939 -2.82866e-05)
(4.0417e-05 0.000824062 -1.05101e-05)
(2.5067e-05 0.000761552 -6.70671e-06)
(1.38941e-05 0.000650777 -1.50542e-05)
(4.74082e-06 0.000370834 -2.79935e-05)
(-4.93927e-06 0.000433534 -1.01521e-05)
(-1.38221e-05 0.000740561 6.80278e-06)
(-2.47293e-05 0.000863019 1.63326e-05)
(-3.98357e-05 0.000932693 1.3542e-05)
(-5.4801e-05 0.000958843 -3.13808e-06)
(-6.85558e-05 0.000949725 -3.3383e-05)
(-8.06687e-05 0.000911282 -7.82599e-05)
(-8.9003e-05 0.000849775 -0.000137311)
(-9.38565e-05 0.000779849 -0.000204573)
(-9.48959e-05 0.000713181 -0.000272078)
(-9.19286e-05 0.000655008 -0.000333509)
(-8.5242e-05 0.000606633 -0.000385265)
(-7.54605e-05 0.000566442 -0.000426075)
(-6.2983e-05 0.000532237 -0.000456964)
(-4.89808e-05 0.00050478 -0.000478701)
(-3.37524e-05 0.000484731 -0.000492926)
(-1.76851e-05 0.000472548 -0.00050099)
(-1.21341e-06 0.000468481 -0.000503632)
(1.52629e-05 0.000472601 -0.000501101)
(3.13464e-05 0.000484827 -0.000493164)
(4.66004e-05 0.000504903 -0.000479097)
(6.06346e-05 0.000532358 -0.000457571)
(7.31449e-05 0.000566527 -0.000426987)
(8.29555e-05 0.000606644 -0.000386634)
(8.967e-05 0.00065496 -0.0003355)
(9.26779e-05 0.000713159 -0.000274798)
(9.16872e-05 0.000780019 -0.000207984)
(8.69567e-05 0.000850438 -0.000141164)
(7.88549e-05 0.000912699 -8.22502e-05)
(6.69937e-05 0.000951823 -3.73578e-05)
(5.35286e-05 0.000961384 -7.00741e-06)
(3.89124e-05 0.000935501 9.91535e-06)
(2.41415e-05 0.000865868 1.31563e-05)
(1.34931e-05 0.000743218 4.30882e-06)
(4.7891e-06 0.000434527 -1.16494e-05)
(-5.20229e-06 0.000489915 7.77332e-06)
(-1.36975e-05 0.000822352 3.10893e-05)
(-2.41947e-05 0.000955641 4.29781e-05)
(-3.8704e-05 0.00103214 4.21997e-05)
(-5.3157e-05 0.00106171 2.75217e-05)
(-6.67668e-05 0.00105291 -8.32571e-07)
(-7.87892e-05 0.00101177 -4.37926e-05)
(-8.75781e-05 0.000947299 -9.99597e-05)
(-9.33174e-05 0.000873931 -0.000163312)
(-9.53839e-05 0.000802279 -0.000226793)
(-9.32736e-05 0.000737325 -0.000285199)
(-8.71745e-05 0.00068125 -0.000335227)
(-7.75761e-05 0.000634008 -0.000375164)
(-6.50406e-05 0.000594758 -0.000405179)
(-5.05262e-05 0.000563529 -0.00042626)
(-3.47021e-05 0.000540837 -0.000439869)
(-1.79653e-05 0.000527056 -0.000447512)
(-7.87706e-07 0.00052244 -0.000449997)
(1.63951e-05 0.000527097 -0.000447567)
(3.31414e-05 0.000540915 -0.000439989)
(4.89787e-05 0.000563641 -0.000426466)
(6.35107e-05 0.000594895 -0.000405508)
(7.60657e-05 0.000634163 -0.000375677)
(8.5687e-05 0.000681417 -0.000336015)
(9.18124e-05 0.000737521 -0.000286366)
(9.39573e-05 0.000802549 -0.000228428)
(9.19437e-05 0.000874353 -0.000165449)
(8.62819e-05 0.000947981 -0.000102516)
(7.76115e-05 0.00101284 -4.65922e-05)
(6.57682e-05 0.00105443 -3.72054e-06)
(5.23455e-05 0.00106354 2.46414e-05)
(3.81065e-05 0.00103413 3.94461e-05)
(2.38163e-05 0.000957655 4.0538e-05)
(1.34906e-05 0.000824255 2.91682e-05)
(5.10564e-06 0.000490367 6.62151e-06)
(-5.52584e-06 0.000537521 2.50811e-05)
(-1.3698e-05 0.000890697 5.62012e-05)
(-2.38545e-05 0.00103312 7.12868e-05)
(-3.78252e-05 0.0011157 7.31151e-05)
(-5.17961e-05 0.00114881 6.08982e-05)
(-6.51397e-05 0.0011411 3.4974e-05)
(-7.69865e-05 0.00109888 -5.32092e-06)
(-8.61444e-05 0.00103272 -5.81202e-05)
(-9.24621e-05 0.000955921 -0.00011765)
(-9.51935e-05 0.000878172 -0.000177619)
(-9.3764e-05 0.000804748 -0.000233406)
(-8.82354e-05 0.000738872 -0.000281879)
(-7.89617e-05 0.00068215 -0.000321042)
(-6.65825e-05 0.000635272 -0.000350462)
(-5.17733e-05 0.000598455 -0.000371313)
(-3.55318e-05 0.000571998 -0.000384613)
(-1.83011e-05 0.000556085 -0.000391942)
(-5.89999e-07 0.000550773 -0.000394294)
(1.71213e-05 0.000556112 -0.000391976)
(3.43579e-05 0.000572051 -0.000384688)
(5.06089e-05 0.000598535 -0.00037144)
(6.5431e-05 0.00063538 -0.000350661)
(7.78248e-05 0.00068229 -0.000321352)
(8.71193e-05 0.000739053 -0.000282354)
(9.26774e-05 0.000804987 -0.000234114)
(9.41416e-05 0.000878497 -0.000178623)
(9.1462e-05 0.000956376 -0.000118987)
(8.52119e-05 0.00103336 -5.97713e-05)
(7.61452e-05 0.00109977 -7.19918e-06)
(6.44266e-05 0.00114227 3.2974e-05)
(5.12219e-05 0.00115017 5.88697e-05)
(3.74062e-05 0.00111717 7.11676e-05)
(2.35911e-05 0.00103462 6.9567e-05)
(1.356e-05 0.00089215 5.48666e-05)
(5.46039e-06 0.000537669 2.42783e-05)
(-5.77071e-06 0.000575897 3.8562e-05)
(-1.36352e-05 0.000944886 7.65134e-05)
(-2.35203e-05 0.00109446 9.4501e-05)
(-3.70285e-05 0.00118201 9.86515e-05)
(-5.05456e-05 0.00121824 8.85292e-05)
(-6.35549e-05 0.00121193 6.46537e-05)
(-7.51323e-05 0.00116958 2.66143e-05)
(-8.43799e-05 0.00110234 -2.34081e-05)
(-9.09408e-05 0.00102221 -7.97824e-05)
(-9.40306e-05 0.000938121 -0.000136714)
(-9.30736e-05 0.000855635 -0.000190014)
(-8.80422e-05 0.000778953 -0.000236813)
(-7.919e-05 0.000711182 -0.000275139)
(-6.71288e-05 0.000654632 -0.000304221)
(-5.23634e-05 0.000610716 -0.000324884)
(-3.59368e-05 0.000579474 -0.000338139)
(-1.84582e-05 0.000560788 -0.000345385)
(-4.55162e-07 0.000554569 -0.000347701)