/*--------------------------------*- C++ -*----------------------------------*\
| =========                 |                                                 |
| \\      /  F ield         | OpenFOAM: The Open Source CFD Toolbox           |
|  \\    /   O peration     | Version:  v2006                                 |
|   \\  /    A nd           | Website:  www.openfoam.com                      |
|    \\/     M anipulation  |                                                 |
\*---------------------------------------------------------------------------*/
FoamFile
{
    version     2.0;
    format      ascii;
    class       volScalarField;
    location    "59";
    object      nut;
}
// * * * * * * * * * * * * * * * * * * * * * * * * * * * * * * * * * * * * * //

dimensions      [0 2 -1 0 0 0 0];


internalField   nonuniform List<scalar> 
78750
(
4.49137e-09
5.86284e-07
1.75027e-06
1.29716e-06
6.77852e-07
1.11961e-06
7.65128e-08
8.13706e-07
1.33268e-06
1.47923e-06
2.85941e-06
2.4509e-06
4.11541e-07
1.34089e-06
2.3389e-06
5.18564e-06
6.01928e-06
1.34917e-05
9.60701e-06
1.22705e-05
1.24248e-05
5.63347e-06
5.80842e-06
1.81783e-06
2.29976e-06
6.70354e-06
1.47463e-06
1.23131e-05
3.30172e-05
5.99466e-05
8.02421e-05
8.4591e-05
0.00010307
7.90751e-05
1.59449e-05
2.89556e-06
3.83186e-06
3.13963e-05
2.80105e-05
3.9224e-05
5.05566e-05
5.8501e-05
6.85821e-05
8.08951e-05
9.51067e-05
0.000118239
0.000154482
0.000191574
0.000212584
0.000220375
0.000225013
0.000233136
0.000247596
0.000267238
0.00029149
0.000319932
0.000352424
0.000387198
0.000421443
0.000455326
0.000491664
0.000532861
0.000566771
0.000566556
0.000473558
0.000248989
0.000104578
4.91284e-05
2.51101e-05
1.3196e-05
1.17065e-05
3.84828e-05
7.46743e-05
0.000180127
0.000390515
0.000545547
0.000513604
0.000292725
0.000206923
0.000184652
0.00019054
0.000206132
0.000219301
0.000224067
0.000222062
0.000218022
0.00021528
0.000214248
0.000212518
0.000206139
0.000193285
0.000176729
0.000161557
0.000151384
0.000147602
0.000150705
0.00016137
0.000180514
0.000208058
0.000237004
0.000241554
0.000170598
7.01174e-05
3.77404e-05
1.58566e-05
9.19759e-06
3.44152e-05
4.53153e-05
0.000100216
0.000281435
0.000373217
0.000116688
4.97207e-05
4.65116e-05
6.98882e-05
9.16199e-05
0.0001072
0.000118498
0.00012564
0.000131331
0.000138505
0.000148349
0.000159175
0.000167863
0.000173354
0.000175222
0.000172792
0.000166291
0.00015756
0.000148908
0.000141918
0.000137484
0.000136252
0.000138365
0.00014249
0.000144616
0.000136016
0.000114247
0.000101447
1.15363e-05
3.9393e-06
1.03426e-05
4.14355e-06
1.00264e-05
8.45992e-05
4.03934e-05
8.14619e-06
4.4762e-06
2.81588e-05
5.0881e-05
6.77816e-05
8.02161e-05
8.95965e-05
9.69559e-05
0.000103854
0.000110946
0.00011762
0.000122892
0.000125759
0.000126156
0.000124686
0.000122547
0.00012157
0.000123979
0.000129545
0.000134958
0.000136894
0.000135674
0.000133114
0.000129701
0.000123747
0.000109603
7.73639e-05
3.69358e-05
5.62482e-06
2.09655e-06
6.8112e-06
5.21833e-05
0.000158892
0.000179112
0.000172816
0.00014925
0.000152829
0.000176384
0.000195105
0.000208661
0.000220608
0.000230947
0.000238833
0.000244315
0.000247102
0.000246238
0.00024057
0.00022889
0.000209941
0.000183456
0.000152111
0.000121888
0.000101639
9.53462e-05
0.000107507
0.000142537
0.000181205
0.000199698
0.000203159
0.00019837
0.000177825
0.000120456
4.86442e-05
2.59833e-06
1.42307e-05
0.000341127
0.000424945
0.000470527
0.000461444
0.000435736
0.00041426
0.00041427
0.000440778
0.000488346
0.000554452
0.000628803
0.000685556
0.000688717
0.000687261
0.000680505
0.000652153
0.000627515
0.000610963
0.000588824
0.000516428
0.000347889
0.000175806
0.000104603
8.71099e-05
7.22943e-05
7.28957e-05
0.000100409
0.000137232
0.00015829
0.000163168
0.000158659
0.000134196
6.39259e-05
3.09002e-06
1.59419e-05
0.000162273
0.000223799
0.000268966
0.000319466
0.000366689
0.000406978
0.000439765
0.000464036
0.000478313
0.000482638
0.000479527
0.000472286
0.000462343
0.000453389
0.000452159
0.000455189
0.00044067
0.000381305
0.000295076
0.000242707
0.0002488
0.000161067
3.98083e-05
1.03515e-05
1.88282e-05
4.03281e-05
6.85209e-05
0.000128332
0.000197109
0.000216433
0.000193539
0.00015134
7.94726e-05
2.88307e-06
8.66578e-06
8.88683e-05
0.000146551
0.000184644
0.000215301
0.000238416
0.00025223
0.00025699
0.000254002
0.00024593
0.0002367
0.000229733
0.000226308
0.000225008
0.000219521
0.000203433
0.00017179
0.000119631
6.08609e-05
2.77572e-05
3.75651e-05
8.66619e-05
0.000112925
0.000129884
0.000166547
0.000177134
0.000201828
0.000237747
0.000239805
0.000213059
0.000176193
0.000138588
0.000104342
5.90937e-05
2.8695e-06
2.71541e-06
9.09637e-05
0.000125507
0.000147209
0.000165759
0.000179154
0.000188177
0.000195172
0.000203004
0.00021537
0.00023504
0.000257784
0.000267856
0.000255714
0.000234188
0.000217523
0.000208906
0.000203109
0.000193109
0.000178698
0.000167481
0.000167795
0.000181942
0.000207382
0.000224048
0.00021824
0.000209474
0.000207927
0.00020586
0.000190981
0.000154359
0.000105425
6.91407e-05
4.10926e-05
1.89209e-06
3.15335e-06
0.000188125
0.000231495
0.000265918
0.000295802
0.00030922
0.000319872
0.000328211
0.000334606
0.000339384
0.000342855
0.000321406
0.000297322
0.000278667
0.00026267
0.000247491
0.000233477
0.000221428
0.000211538
0.000203481
0.00019659
0.000190525
0.000185569
0.000181939
0.00017935
0.000176638
0.000172081
0.000164422
0.000152434
0.00013383
0.000104306
6.7396e-05
4.2468e-05
2.64829e-05
1.33553e-06
2.89984e-06
0.000176948
0.000255199
0.000275972
0.000292095
0.000304739
0.000314624
0.000322243
0.000327987
0.000332205
0.000335226
0.000337363
0.000338907
0.000318154
0.000283007
0.000252196
0.000226193
0.000204705
0.000188067
0.000176729
0.000170778
0.000169415
0.000170548
0.000171246
0.000169095
0.000163378
0.00015475
0.000143868
0.000130224
0.000111184
8.1762e-05
4.67691e-05
2.67691e-05
1.87859e-05
1.43119e-06
3.51101e-06
0.000223659
0.00025177
0.00027218
0.000287782
0.000300022
0.000309744
0.000317505
0.000323707
0.00032866
0.000332609
0.000335747
0.00033822
0.000298753
0.00025255
0.000219029
0.000196579
0.000182289
0.000174514
0.000171979
0.000172883
0.000174592
0.000174316
0.000170465
0.000163343
0.000154496
0.000145556
0.000137044
0.00012677
0.000108212
7.51403e-05
4.01536e-05
2.06953e-05
1.29763e-05
1.5023e-06
3.41636e-06
0.000220983
0.000249523
0.000270425
0.000286464
0.000299067
0.000309088
0.000317091
0.000323472
0.000328517
0.000332433
0.000335372
0.000309331
0.000268249
0.000235018
0.000213006
0.000200799
0.000196721
0.000199533
0.000207585
0.000217838
0.000225828
0.000227581
0.00022216
0.00021197
0.000200663
0.000190919
0.000183189
0.000174347
0.000154909
0.000112212
5.89325e-05
2.52707e-05
1.1178e-05
1.43673e-06
3.62661e-06
0.000223344
0.000251044
0.000270998
0.000285977
0.000297459
0.000306309
0.000299978
0.000283015
0.000264363
0.000245417
0.000226717
0.000209427
0.000195553
0.000186731
0.00018359
0.000186272
0.000194576
0.000207834
0.000224339
0.000240992
0.000254392
0.000262508
0.000265127
0.000263118
0.000257891
0.000251049
0.000243913
0.000237221
0.000232885
0.000228081
0.000179839
6.89174e-05
1.90106e-05
9.06496e-07
2.98682e-06
0.000126553
0.000151911
0.000171129
0.000186345
0.000197555
0.000204882
0.000208216
0.000207431
0.00020271
0.00019472
0.000184993
0.000176069
0.000170708
0.000170623
0.000176071
0.000185948
0.000198545
0.000211953
0.000222964
0.000228628
0.000230295
0.000232451
0.000237836
0.000245864
0.000253578
0.000258413
0.000258868
0.000253567
0.000240706
0.000218761
0.000187327
0.000134814
5.08093e-05
1.54179e-06
3.46034e-06
0.000128889
0.000157674
0.000175783
0.000191177
0.000203809
0.000213943
0.000221473
0.000225126
0.000222885
0.000214541
0.000205024
0.000204191
0.000222256
0.000263605
0.000310634
0.000308156
0.000305952
0.000302041
0.000246029
0.000201878
0.000188217
0.000205071
0.000248037
0.000303464
0.000316524
0.000318293
0.000319413
0.000319564
0.000318354
0.000279509
0.000196066
0.000111878
4.60097e-05
1.96978e-06
5.02133e-06
0.000214185
0.000244502
0.000217837
0.000201938
0.000195232
0.00019353
0.000195003
0.000197976
0.000199863
0.000197261
0.000189207
0.000181236
0.000180929
0.000188663
0.000195851
0.000194548
0.000184447
0.000165674
0.000136145
0.000106207
9.08611e-05
9.11615e-05
0.000102112
0.00012021
0.000145442
0.000178121
0.000209666
0.000213681
0.000182356
0.000142057
0.000103274
6.82915e-05
3.37595e-05
1.74499e-06
3.15951e-06
6.32567e-05
7.79808e-05
8.0533e-05
8.33321e-05
8.66288e-05
8.99598e-05
9.3322e-05
9.68002e-05
0.000100376
0.000103857
0.000106781
0.000108351
0.000107919
0.000105639
0.000102106
9.77159e-05
9.2647e-05
8.70164e-05
8.0765e-05
7.34525e-05
6.57716e-05
6.13383e-05
6.55812e-05
8.23406e-05
0.000103908
0.000115067
0.000118239
0.000124772
0.00013749
0.000146976
0.000133844
4.39899e-05
2.24097e-05
1.77876e-06
2.99141e-06
1.49631e-05
2.65428e-05
3.44732e-05
4.04505e-05
4.58239e-05
5.10329e-05
5.59957e-05
6.04971e-05
6.4389e-05
6.76999e-05
7.06918e-05
7.37927e-05
7.74531e-05
8.20049e-05
8.75319e-05
9.3679e-05
9.95093e-05
0.000103901
0.00010641
0.00010663
0.000103594
9.78286e-05
9.19815e-05
9.01898e-05
8.77548e-05
8.54338e-05
8.64973e-05
7.665e-05
0.000111071
0.000120525
2.13543e-05
1.43384e-05
1.05024e-05
8.3009e-07
4.89926e-06
2.31414e-05
6.7187e-05
0.000117836
0.000109272
8.9984e-05
8.13505e-05
8.04218e-05
8.37317e-05
8.94968e-05
9.65721e-05
0.000103366
0.000107946
0.000108185
0.000102672
9.37318e-05
8.78661e-05
9.26961e-05
0.000113254
0.000128686
0.000104466
7.91063e-05
7.80187e-05
0.000108196
0.000179789
0.00022512
0.000156516
7.33732e-05
4.03073e-05
3.40572e-05
4.55079e-05
5.51187e-05
4.73921e-05
1.96647e-05
9.61206e-07
7.54634e-06
6.99521e-05
0.000158133
7.95769e-05
5.35351e-05
5.29656e-05
6.77936e-05
9.83943e-05
0.000148278
0.000211401
0.000259995
0.000267432
0.000236675
0.000192477
0.000156839
0.000140715
0.00015046
0.000186418
0.00020719
0.000170284
0.000100456
5.95675e-05
5.47288e-05
7.50656e-05
9.04281e-05
8.29351e-05
6.71186e-05
5.25214e-05
4.50955e-05
5.21549e-05
8.21566e-05
0.000101182
5.24692e-05
1.15869e-05
6.79566e-07
8.04227e-06
6.9367e-05
6.80009e-05
3.69779e-05
3.41294e-05
5.08505e-05
8.24247e-05
0.000107012
0.000118814
0.000125169
0.000130473
0.000135792
0.00014061
0.000144204
0.000146504
0.000148418
0.000151853
0.000158641
0.000168559
0.000180634
0.000193952
0.00020554
0.000209838
0.000203155
0.000191532
0.000184149
0.000185954
0.000190516
0.000175908
0.00014021
0.000114986
0.000101399
6.4811e-05
2.28571e-05
1.32546e-06
8.78608e-06
0.000132602
4.9465e-05
3.59583e-05
5.446e-05
0.000110889
0.00017126
0.000205127
0.000226161
0.000243623
0.000259431
0.000273469
0.000285799
0.000296831
0.000306933
0.000316477
0.000326496
0.000335616
0.000332969
0.000330199
0.000327423
0.000324746
0.000322259
0.000320035
0.000318109
0.000297844
0.000252031
0.000226385
0.000229541
0.00026382
0.000291937
0.000280249
0.000264705
0.000115471
2.52083e-06
8.90916e-06
0.000131318
3.77694e-05
3.53897e-05
8.37704e-05
0.00019776
0.000251951
0.000276211
0.000295138
0.000313471
0.000326591
0.000330709
0.00033416
0.000336867
0.000338818
0.000340034
0.000340564
0.000340473
0.000339844
0.000338771
0.000337342
0.000335625
0.000333659
0.000331444
0.000328934
0.00032603
0.000322573
0.00031834
0.000313058
0.000277749
0.000258239
0.000257692
0.000260858
0.000165006
3.49994e-06
7.89748e-06
9.79604e-05
6.80805e-05
3.66697e-05
4.3101e-05
8.10564e-05
0.00012713
0.000161839
0.000191854
0.000222899
0.000255972
0.00029121
0.000327273
0.000342955
0.000346321
0.000348953
0.000350849
0.000352033
0.00035255
0.000352462
0.000351831
0.000350708
0.000349128
0.000347104
0.000344632
0.000341694
0.000338239
0.00033415
0.000329247
0.00032335
0.000316345
0.000308234
0.000209268
0.000105998
2.48485e-06
8.23045e-06
8.87722e-05
6.78028e-05
3.3853e-05
3.58394e-05
7.07369e-05
0.000146412
0.000228711
0.000291789
0.00032307
0.000328384
0.000333818
0.000339091
0.000343976
0.000348293
0.000351917
0.000354764
0.00035678
0.00035793
0.000358195
0.000357543
0.00035592
0.000353243
0.00034942
0.000344603
0.000339428
0.000334516
0.000329725
0.000324108
0.00026762
0.000188128
0.000107703
6.0235e-05
4.68467e-05
2.18197e-06
7.14307e-06
4.99791e-05
7.0926e-05
3.07656e-05
2.95441e-05
5.42689e-05
0.000108621
0.000166212
0.000210978
0.00025063
0.000293216
0.000331758
0.000336632
0.000341351
0.000345697
0.00034944
0.000352343
0.000354168
0.000354666
0.000353569
0.000350549
0.000345169
0.000263445
0.000188245
0.000198156
0.000278917
0.000211818
0.000129388
0.00013081
0.000159565
0.00017778
0.000184152
0.000186689
0.000177728
3.14713e-06
7.54985e-06
5.22425e-05
8.43115e-05
3.61154e-05
2.62399e-05
4.02451e-05
9.0319e-05
0.000170311
0.000234281
0.000272186
0.000298617
0.000323108
0.000336985
0.000341495
0.000345928
0.000350131
0.000353907
0.000357027
0.000359231
0.000360243
0.00035975
0.000357394
0.000352755
0.00030769
0.000204098
0.000137404
0.000118143
0.000159546
0.000203711
0.000185117
6.87809e-05
3.17599e-05
2.45201e-05
2.44298e-05
1.10411e-06
7.18633e-06
4.08847e-05
8.11435e-05
4.31173e-05
2.49296e-05
2.76889e-05
5.16587e-05
0.000106503
0.000180936
0.000243234
0.000285001
0.000313533
0.000335387
0.000341344
0.000345353
0.000349381
0.000353371
0.000357221
0.000360788
0.000363886
0.000366294
0.000367749
0.000367949
0.000366559
0.000363205
0.000357474
0.000347092
0.000291097
0.000248624
0.00022265
0.00020888
0.000191624
0.000133931
6.8172e-05
1.17785e-06
7.01684e-06
3.92165e-05
8.94725e-05
7.83844e-05
3.27469e-05
1.89179e-05
2.70659e-05
5.82663e-05
0.000123793
0.000215961
0.000300138
0.00033369
0.000337933
0.000341973
0.00034587
0.000349674
0.000353411
0.000357078
0.000360627
0.000363964
0.000366945
0.000369375
0.00037101
0.000371567
0.000370727
0.000368147
0.000363464
0.000356302
0.00034628
0.000333078
0.000316424
0.000277622
0.000240961
0.000210371
2.74927e-06
6.82902e-06
3.39534e-05
8.8397e-05
9.26334e-05
4.74591e-05
1.69667e-05
1.45465e-05
3.15761e-05
7.32027e-05
0.000152162
0.000254501
0.000332516
0.000337102
0.000341283
0.000345133
0.000348722
0.000352115
0.000355352
0.000358448
0.000361377
0.000364065
0.000366387
0.000368164
0.000369165
0.000369115
0.0003677
0.000364574
0.000359367
0.000351683
0.000341091
0.000327086
0.000309007
0.000285915
0.000220259
3.6286e-06
7.16591e-06
4.0548e-05
0.000113405
0.000109266
5.82562e-05
2.10482e-05
1.33783e-05
2.94639e-05
7.33725e-05
0.00016184
0.000271706
0.000336303
0.000340694
0.000344506
0.000347824
0.000350731
0.000353307
0.000355614
0.000357699
0.000359576
0.000361223
0.000362574
0.000363512
0.000363868
0.00036342
0.000361901
0.000359002
0.000354372
0.000347619
0.000338296
0.00032587
0.000309653
0.000288679
0.000227718
4.1676e-06
7.74398e-06
4.41707e-05
0.000116255
7.65701e-05
3.15034e-05
1.52645e-05
1.28064e-05
3.25722e-05
8.62976e-05
0.000204585
0.000317982
0.000342033
0.000346252
0.00034973
0.000352563
0.000354839
0.000356639
0.000358035
0.000359086
0.00035983
0.00036028
0.000360415
0.000360173
0.000359449
0.000358089
0.000355891
0.000352599
0.000347907
0.000341453
0.00033281
0.000321457
0.000306723
0.000287679
0.000226893
4.49348e-06
7.94641e-06
4.90883e-05
9.53184e-05
3.77351e-05
1.49574e-05
1.18596e-05
2.25028e-05
5.72803e-05
0.000133393
0.000296936
0.00034638
0.000350594
0.000354099
0.00035691
0.00035908
0.00036067
0.00036174
0.000362346
0.000362536
0.000362345
0.000361792
0.000360872
0.000359554
0.000357774
0.00035543
0.000352378
0.000348426
0.000343327
0.000336772
0.00032838
0.000317665
0.000303999
0.000286504
0.000216841
4.65296e-06
8.04725e-06
5.92424e-05
4.32181e-05
1.36094e-05
5.4749e-06
1.34837e-05
4.94451e-05
0.000125781
0.000282758
0.000352663
0.000356453
0.000359713
0.000362414
0.000364546
0.00036612
0.000367157
0.000367685
0.000367737
0.000367343
0.000366528
0.000365307
0.000363679
0.00036162
0.000359081
0.000355982
0.000352213
0.00034762
0.000342011
0.000335139
0.000326681
0.000316205
0.000303109
0.000286535
0.000207209
4.7207e-06
7.7364e-06
5.93993e-05
2.37123e-05
1.09924e-05
1.46311e-05
4.1219e-05
9.865e-05
0.000191425
0.0002642
0.000298858
0.000314272
0.00032494
0.00033611
0.000348435
0.000360194
0.000369657
0.00037103
0.000371246
0.000370955
0.000370181
0.000368948
0.000367265
0.000365122
0.000362485
0.000359291
0.000355445
0.000348739
0.000336229
0.000323622
0.000314508
0.00031087
0.000305966
0.000289914
0.000202365
4.86161e-06
7.32198e-06
6.65943e-05
6.69557e-05
3.91562e-05
3.07822e-05
3.85477e-05
6.0016e-05
9.33179e-05
0.000141345
0.000193946
0.000235145
0.000263322
0.000285689
0.0003068
0.000326681
0.00034315
0.000354767
0.000362059
0.0003663
0.000368452
0.000368988
0.000368243
0.000366073
0.000361722
0.000354324
0.000343326
0.00032904
0.000312975
0.000297158
0.000283562
0.000273424
0.000265496
0.000250726
0.000174135
4.93502e-06
7.28547e-06
4.51754e-05
9.64551e-05
0.000109957
8.33143e-05
4.40593e-05
2.67725e-05
2.26187e-05
2.99227e-05
5.26331e-05
9.43111e-05
0.000159775
0.000237555
0.000311173
0.000361725
0.000365827
0.000368811
0.000370765
0.000371773
0.000371915
0.000371274
0.000369928
0.00036795
0.000365395
0.000359158
0.000327921
0.000297256
0.000273063
0.000255478
0.000243294
0.000234571
0.000225833
0.000208938
0.000135146
4.74561e-06
7.00666e-06
3.40773e-05
9.07019e-05
8.27389e-05
6.32374e-05
6.61329e-05
7.0045e-05
2.67664e-05
7.34041e-06
1.0502e-05
2.96189e-05
6.39626e-05
0.000137501
0.000269046
0.000356934
0.000362601
0.000366827
0.000369762
0.000371525
0.000372209
0.00037189
0.00037063
0.000368486
0.000365507
0.000361734
0.00033132
0.000277476
0.000239778
0.000221942
0.000218135
0.000219973
0.00021834
0.000202041
0.000111501
4.464e-06
7.38028e-06
3.75576e-05
9.3644e-05
6.82802e-05
3.53866e-05
2.44672e-05
2.88976e-05
4.6704e-05
2.05711e-05
8.76337e-06
2.67867e-05
5.64238e-05
0.000132955
0.000277536
0.000360002
0.000365342
0.000369353
0.000372169
0.000373886
0.000374569
0.000374255
0.000372969
0.000370726
0.000367538
0.000363414
0.000335889
0.000278223
0.000235613
0.000217114
0.000220059
0.000235382
0.000246608
0.000232033
0.000111688
4.50119e-06
7.20136e-06
3.57283e-05
9.12075e-05
7.54146e-05
4.95328e-05
3.31404e-05
2.47261e-05
2.17576e-05
2.00594e-05
8.55731e-06
9.22095e-06
3.24561e-05
7.7225e-05
0.000189233
0.000342119
0.000370205
0.00037428
0.000377071
0.000378736
0.000379377
0.000379055
0.000377801
0.000375624
0.000372521
0.000368484
0.000343948
0.000296859
0.000259158
0.00024191
0.000246506
0.000266661
0.000284101
0.000267982
0.000124178
4.88763e-06
7.27391e-06
3.91921e-05
9.55292e-05
7.85241e-05
5.16569e-05
3.87278e-05
3.46629e-05
3.11355e-05
2.48021e-05
1.49161e-05
9.03984e-07
5.42706e-07
2.43812e-05
6.00228e-05
0.000155386
0.000325465
0.000377047
0.000380382
0.000382415
0.000383356
0.000383351
0.000382488
0.00038081
0.000378329
0.000375037
0.000357909
0.000325519
0.000296642
0.000280294
0.000278979
0.000288168
0.000293774
0.000270464
0.000135389
5.51203e-06
7.39908e-06
4.43073e-05
0.000110564
0.000115863
9.2823e-05
5.92811e-05
3.94236e-05
3.22291e-05
3.06588e-05
2.92122e-05
2.15103e-05
5.48517e-06
8.55659e-08
8.77383e-06
3.23574e-05
7.76648e-05
0.000197333
0.000382601
0.000384755
0.000385329
0.000384786
0.000383384
0.000381311
0.000378685
0.000375577
0.000360387
0.000333411
0.000307456
0.000290161
0.000283188
0.000282491
0.000278404
0.000252959
0.000134201
6.05712e-06
7.53193e-06
5.22369e-05
0.000134962
0.000155848
0.000152759
0.000131758
9.0219e-05
5.51949e-05
3.78259e-05
3.07078e-05
2.86584e-05
2.75245e-05
1.66613e-05
4.90478e-06
7.09831e-06
1.0704e-05
3.3227e-05
7.01878e-05
0.00015771
0.000328245
0.00039716
0.000393928
0.000389349
0.000382458
0.000345566
0.000309925
0.000282689
0.000265332
0.000258507
0.000260822
0.000266354
0.000263674
0.000232575
0.000103505
5.59303e-06
7.67536e-06
5.68155e-05
0.000164823
0.000195025
0.000195098
0.000187953
0.000173549
0.000137296
8.72427e-05
5.31522e-05
3.58007e-05
2.79728e-05
2.61395e-05
2.62138e-05
1.96356e-05
5.48715e-06
6.78044e-06
9.72738e-06
2.86647e-05
5.4512e-05
0.000103528
0.000201128
0.000310786
0.000364684
0.000370834
0.000350792
0.000319919
0.000291026
0.000273059
0.000268747
0.000272988
0.000270493
0.0002304
8.89051e-05
5.1018e-06
7.843e-06
5.79893e-05
0.000167902
0.000195731
0.000192699
0.000185369
0.000184055
0.00018969
0.000188371
0.000151461
9.08951e-05
5.13851e-05
3.25047e-05
2.49326e-05
2.40579e-05
2.59973e-05
2.4635e-05
1.77442e-05
8.17395e-06
8.03679e-06
1.94235e-05
4.21548e-05
7.91653e-05
0.000136781
0.000198176
0.000239622
0.000263196
0.00027917
0.000292602
0.000303419
0.000307501
0.000296712
0.00025372
0.000113351
6.3077e-06
7.8718e-06
5.38223e-05
0.000150415
0.000172793
0.00016567
0.000151032
0.000139484
0.000138855
0.000152665
0.000177235
0.000189271
0.000143309
7.41009e-05
4.00475e-05
2.83459e-05
2.70189e-05
3.07009e-05
3.46908e-05
3.31331e-05
1.20818e-05
1.15357e-06
3.25671e-06
1.4858e-05
3.50803e-05
7.09496e-05
0.000132667
0.000209474
0.000267825
0.000296229
0.000302557
0.000293783
0.000274022
0.000238807
0.00012204
7.68556e-06
8.12858e-06
5.76952e-05
0.000155262
0.000175751
0.000169865
0.000155451
0.000139688
0.000129444
0.000129834
0.000142472
0.000162332
0.000168107
0.000123204
6.32127e-05
3.66685e-05
3.10507e-05
3.63519e-05
4.48303e-05
3.79823e-05
1.02411e-05
9.81208e-07
2.52858e-06
2.35116e-05
4.95915e-05
9.7386e-05
0.000187281
0.000285169
0.000326777
0.000324961
0.00031009
0.000294538
0.0002753
0.000222467
6.63318e-05
6.60312e-06
8.23123e-06
6.31674e-05
0.000169335
0.000184112
0.000173009
0.000155565
0.000139507
0.000128061
0.000123059
0.000125954
0.000135029
0.000140112
0.000121793
7.73203e-05
4.47416e-05
3.40741e-05
3.79858e-05
4.61259e-05
3.80162e-05
1.69861e-05
7.26772e-06
1.55877e-05
3.83971e-05
6.50605e-05
9.8488e-05
0.00014252
0.000192063
0.000228753
0.000244647
0.000248424
0.000246679
0.000233164
0.000162851
4.22109e-05
5.06473e-06
8.214e-06
6.49694e-05
0.000174649
0.000180585
0.000162553
0.000143315
0.000131213
0.000125391
0.000121476
0.000116592
0.000110625
0.000103174
9.17431e-05
7.4668e-05
5.59939e-05
4.50551e-05
4.5817e-05
5.47723e-05
5.96832e-05
4.90171e-05
3.16275e-05
2.49888e-05
3.41198e-05
5.0709e-05
7.05191e-05
9.30605e-05
0.000116573
0.000139533
0.000161541
0.000181913
0.000197002
0.000198198
0.000161003
5.51984e-05
5.56741e-06
7.89359e-06
5.77268e-05
0.000155717
0.000157333
0.000137622
0.000118305
0.000107842
0.000105895
0.000107953
0.000108036
0.000102035
9.07272e-05
7.83569e-05
6.88753e-05
6.40772e-05
6.41796e-05
6.91676e-05
7.77418e-05
8.49567e-05
8.46433e-05
7.4489e-05
5.95022e-05
4.8772e-05
4.56985e-05
4.965e-05
6.16867e-05
7.95994e-05
9.50289e-05
0.000109909
0.000129196
0.000150652
0.00016484
0.000157668
8.82485e-05
8.15234e-06
7.68608e-06
5.29658e-05
0.000140498
0.000142855
0.000126049
0.000107797
9.57854e-05
9.09166e-05
9.03321e-05
8.99449e-05
8.69542e-05
8.18932e-05
7.7682e-05
7.70378e-05
8.12986e-05
9.02421e-05
0.000101813
0.000112657
0.000119337
0.000119615
0.000113068
0.000100979
8.63118e-05
7.23597e-05
5.89035e-05
3.96458e-05
3.26446e-05
4.74861e-05
8.28434e-05
0.000126624
0.000159169
0.000177733
0.000181347
0.000122588
9.76299e-06
7.60445e-06
5.30872e-05
0.000140363
0.000144978
0.000128958
0.000109347
9.44653e-05
8.66715e-05
8.42893e-05
8.39248e-05
8.26983e-05
8.06619e-05
8.05376e-05
8.49934e-05
9.51858e-05
0.000110963
0.000131022
0.000152695
0.000171737
0.000182508
0.000179801
0.000161505
0.000128426
8.37073e-05
3.8407e-05
1.38528e-05
1.92468e-05
6.27173e-05
0.00013566
0.000188951
0.000217028
0.00022703
0.00020541
8.53858e-05
7.43341e-06
7.62647e-06
5.48245e-05
0.000148534
0.00015696
0.000141947
0.000120593
0.000101716
8.95666e-05
8.41635e-05
8.30884e-05
8.29043e-05
8.13352e-05
7.977e-05
8.22582e-05
9.22826e-05
0.00011134
0.000138522
0.000170528
0.000201907
0.000224853
0.000229063
0.00020447
0.000150344
8.4921e-05
3.59492e-05
1.31256e-05
1.26826e-05
4.92469e-05
0.000152777
0.000205497
0.000219833
0.000212136
0.000155385
5.30302e-05
4.75121e-06
7.65779e-06
5.64566e-05
0.000153937
0.000165079
0.000151962
0.000132068
0.000113132
9.91142e-05
9.09852e-05
8.76622e-05
8.66214e-05
8.48237e-05
8.13077e-05
7.91106e-05
8.30334e-05
9.66062e-05
0.000120746
0.000152358
0.000183723
0.000205285
0.000210295
0.000196879
0.000165977
0.000120303
7.02884e-05
3.38956e-05
1.90636e-05
2.37326e-05
5.15025e-05
0.000115974
0.000167839
0.000169561
0.000121403
3.85477e-05
3.60843e-06
7.76793e-06
5.95455e-05
0.000157622
0.000169286
0.000157546
0.000139217
0.000121689
0.000108544
0.000100539
9.68382e-05
9.56165e-05
9.41578e-05
8.99979e-05
8.38076e-05
8.02258e-05
8.44446e-05
9.95265e-05
0.000125304
0.000156351
0.000182574
0.000195536
0.000193387
0.000178684
0.000154013
0.000120752
8.32487e-05
5.28963e-05
3.7355e-05
3.46614e-05
4.49558e-05
7.79279e-05
0.000124269
0.00010874
2.93287e-05
3.20301e-06
8.00264e-06
6.71906e-05
0.000167018
0.000177746
0.000166478
0.000148753
0.000131634
0.000118855
0.000111499
0.000108761
0.000108683
0.000108493
0.000105117
9.72056e-05
8.77774e-05
8.29395e-05
8.77102e-05
0.000104413
0.000131646
0.000161896
0.000183929
0.000191206
0.000184899
0.000169313
0.000147842
0.000122299
9.46947e-05
6.91401e-05
5.02187e-05
4.16194e-05
4.87061e-05
8.30999e-05
0.000107193
2.55414e-05
3.05614e-06
8.31344e-06
8.00541e-05
0.000183347
0.000191184
0.000178674
0.000160778
0.000144109
0.000131769
0.000124869
0.000123022
0.000124449
0.000126207
0.000124699
0.000117103
0.000104209
9.16741e-05
8.63155e-05
9.22907e-05
0.000110824
0.000138559
0.000165409
0.000180168
0.000179446
0.000167074
0.00014836
0.000127113
0.000105112
8.31514e-05
6.368e-05
5.22048e-05
5.61679e-05
8.7114e-05
0.000116171
2.66225e-05
2.94548e-06
8.56964e-06
9.45241e-05
0.000199215
0.000202566
0.000187462
0.000169834
0.000155709
0.000146267
0.000141377
0.000140733
0.000143272
0.000146595
0.000147132
0.000141184
0.000127354
0.00010933
9.46286e-05
8.94682e-05
9.66855e-05
0.000115872
0.000140916
0.000160004
0.000164422
0.00015457
0.00013602
0.00011486
9.56053e-05
8.01748e-05
6.90894e-05
6.50965e-05
7.55116e-05
0.000108095
0.000123472
2.93507e-05
2.85978e-06
8.61813e-06
0.000102087
0.000206745
0.000205597
0.000187259
0.000170434
0.000160738
0.000157064
0.000157086
0.00015949
0.000163621
0.000168227
0.000170727
0.000167489
0.000155441
0.000135242
0.000113093
9.7083e-05
9.21807e-05
9.97214e-05
0.000117289
0.000136446
0.00014597
0.000140953
0.000124596
0.000103639
8.48955e-05
7.27185e-05
6.84752e-05
7.3433e-05
9.15987e-05
0.000120969
0.000121911
3.11302e-05
2.83411e-06
8.44712e-06
9.97476e-05
0.000205192
0.000200418
0.000178891
0.000162938
0.000157717
0.000160267
0.000166447
0.000173597
0.000180717
0.000187316
0.000192151
0.000192612
0.000185162
0.000167518
0.000142192
0.000116999
9.98406e-05
9.45192e-05
0.000100993
0.000115063
0.000127442
0.000129023
0.000117998
9.91944e-05
8.00755e-05
6.7157e-05
6.385e-05
7.20547e-05
9.34587e-05
0.000119626
0.000115952
3.1682e-05
2.87088e-06
8.12806e-06
9.03834e-05
0.000196773
0.000187646
0.000162042
0.000146785
0.000145761
0.000154198
0.000166698
0.000179591
0.000191253
0.000201293
0.000209345
0.000214065
0.000212716
0.000201808
0.000179717
0.000150295
0.000122277
0.00010343
9.67239e-05
0.000100927
0.000110651
0.000116939
0.000112936
9.88335e-05
8.04521e-05
6.54221e-05
5.93301e-05
6.53205e-05
8.55971e-05
0.00011175
0.000110532
3.18449e-05
2.97189e-06
7.7387e-06
7.49115e-05
0.000177784
0.00016372
0.000134321
0.000120709
0.000124316
0.000138885
0.000158135
0.000177514
0.000194778
0.000209421
0.000221513
0.000230656
0.000235292
0.000232506
0.000218892
0.000193282
0.000160217
0.000129143
0.000107946
9.90762e-05
0.000100316
0.000105691
0.000107076
9.94235e-05
8.42236e-05
6.80009e-05
5.80383e-05
5.90589e-05
7.4486e-05
0.000101262
0.00010767
3.2335e-05
3.13956e-06
7.32456e-06
5.57763e-05
0.000144503
0.000129429
9.96395e-05
8.83301e-05
9.53523e-05
0.000115051
0.00014155
0.000169186
0.000194166
0.000215156
0.000232309
0.000245941
0.000255568
0.000259413
0.000254501
0.000237607
0.000208007
0.000170918
0.000136408
0.000112444
0.000100899
9.87201e-05
9.95671e-05
9.62708e-05
8.55894e-05
7.06685e-05
5.86566e-05
5.58641e-05
6.68221e-05
9.28071e-05
0.00010641
3.27573e-05
3.31986e-06
7.00303e-06
4.07751e-05
0.000111217
0.000101485
7.31624e-05
6.13863e-05
6.70257e-05
8.63771e-05
0.000116332
0.000151778
0.000186627
0.000216916
0.000241599
0.000261129
0.00027587
0.000285172
0.000287016
0.000278341
0.000256352
0.000221443
0.000179937
0.000142132
0.000115502
0.000101182
9.5385e-05
9.15609e-05
8.36864e-05
7.08998e-05
5.85812e-05
5.37696e-05
6.19173e-05
8.66938e-05
0.000105503
3.28999e-05
3.50723e-06
6.88493e-06
3.43925e-05
9.41885e-05
9.33625e-05
6.6e-05
4.85504e-05
4.76231e-05
6.01668e-05
8.5434e-05
0.00012203
0.000164781
0.00020659
0.000242717
0.000271834
0.000294218
0.000309864
0.000317556
0.000314918
0.000299448
0.000270043
0.000229036
0.000183572
0.000143285
0.000114531
9.75727e-05
8.80595e-05
7.97877e-05
6.88389e-05
5.74468e-05
5.20263e-05
5.87835e-05
8.30223e-05
0.000105143
3.25271e-05
3.68696e-06
7.01857e-06
3.53157e-05
9.58711e-05
0.00010551
8.25722e-05
5.43762e-05
4.13134e-05
4.29224e-05
5.72433e-05
8.49721e-05
0.000125705
0.000174392
0.000223146
0.000266284
0.000301632
0.000328066
0.000343521
0.000344826
0.000334652
0.000310109
0.000273337
0.000227422
0.000179233
0.000137414
0.000107037
8.73856e-05
7.3983e-05
6.25899e-05
5.32352e-05
4.99607e-05
5.82119e-05
8.33641e-05
0.000104016
3.10478e-05
3.78941e-06
7.29529e-06
3.9157e-05
0.000108896
0.000128194
0.000113527
8.10105e-05
5.22264e-05
3.93991e-05
4.08234e-05
5.54356e-05
8.48569e-05
0.000129648
0.000185457
0.000244768
0.00030121
0.000345107
0.000352629
0.000348615
0.000343131
0.000336389
0.000314417
0.000270117
0.000218274
0.000167186
0.000124281
9.32143e-05
7.23978e-05
5.80637e-05
4.88813e-05
4.71249e-05
5.72398e-05
8.37721e-05
0.000101422
2.92719e-05
3.87892e-06
7.64804e-06
4.22499e-05
0.000122938
0.000144365
0.000129577
0.000104517
7.79185e-05
5.45939e-05
4.19996e-05
4.32764e-05
5.95025e-05
9.32025e-05
0.000146709
0.000218855
0.000299782
0.000353641
0.000352879
0.000350273
0.000345969
0.000340149
0.00033302
0.00031362
0.000260554
0.000201075
0.000145916
0.000102206
7.23827e-05
5.4288e-05
4.5163e-05
4.4834e-05
5.66646e-05
8.41937e-05
9.72277e-05
2.70731e-05
3.90736e-06
8.11712e-06