/*--------------------------------*- C++ -*----------------------------------*\
| =========                 |                                                 |
| \\      /  F ield         | OpenFOAM: The Open Source CFD Toolbox           |
|  \\    /   O peration     | Version:  v2006                                 |
|   \\  /    A nd           | Website:  www.openfoam.com                      |
|    \\/     M anipulation  |                                                 |
\*---------------------------------------------------------------------------*/
FoamFile
{
    version     2.0;
    format      ascii;
    class       volVectorField;
    location    "59";
    object      U;
}
// * * * * * * * * * * * * * * * * * * * * * * * * * * * * * * * * * * * * * //

dimensions      [0 1 -1 0 0 0 0];


internalField   nonuniform List<vector> 
78750
(
(0.0410708 1.54487 -4.32308)
(0.758986 1.81103 -4.41896)
(0.953201 1.65307 -3.92624)
(0.989595 1.55478 -3.60445)
(0.908351 1.41112 -3.25924)
(0.787113 1.22547 -2.88621)
(0.674177 1.00606 -2.4896)
(0.608735 0.767142 -2.08618)
(0.578697 0.524666 -1.69983)
(0.559992 0.297172 -1.35136)
(0.542282 0.101512 -1.05569)
(0.522007 -0.0556993 -0.815873)
(0.500897 -0.174298 -0.626929)
(0.487292 -0.260393 -0.48416)
(0.480052 -0.31871 -0.376826)
(0.476009 -0.353357 -0.296736)
(0.473676 -0.369195 -0.238426)
(0.471535 -0.370513 -0.198186)
(0.469526 -0.360448 -0.172446)
(0.464373 -0.338716 -0.158848)
(0.455672 -0.307376 -0.154511)
(0.445783 -0.267678 -0.157845)
(0.433082 -0.223522 -0.171272)
(0.413983 -0.175949 -0.20007)
(0.388738 -0.127422 -0.242929)
(0.359711 -0.0835476 -0.291321)
(0.326663 -0.0486659 -0.331898)
(0.291628 -0.0268472 -0.361716)
(0.254094 -0.0143749 -0.385611)
(0.214727 -0.00547875 -0.416632)
(0.176714 -0.00378459 -0.44564)
(0.136508 0.0262159 -0.496093)
(0.0980726 0.142195 -0.614087)
(0.0483002 0.341917 -0.671447)
(0.0189138 0.352854 -0.0180258)
(0.178733 1.76293 -2.95605)
(0.0510578 -0.331999 0.249437)
(0.0784454 -0.449893 0.134266)
(0.0823188 -0.132054 -0.291697)
(0.103298 0.134084 -0.501364)
(0.129471 0.283058 -0.546352)
(0.15582 0.356839 -0.515193)
(0.180183 0.386362 -0.453271)
(0.195577 0.388175 -0.379036)
(0.200391 0.367547 -0.298994)
(0.196869 0.335943 -0.226934)
(0.187246 0.307616 -0.177517)
(0.172317 0.286609 -0.152807)
(0.152753 0.270292 -0.147599)
(0.129863 0.256382 -0.15625)
(0.10467 0.244339 -0.174018)
(0.078967 0.233824 -0.197191)
(0.054608 0.226312 -0.222991)
(0.0326994 0.222907 -0.250134)
(0.0136354 0.22394 -0.278175)
(-0.00239697 0.229471 -0.307065)
(-0.0150754 0.239044 -0.336621)
(-0.0237699 0.252415 -0.366527)
(-0.0283424 0.269535 -0.396282)
(-0.0293725 0.289516 -0.42442)
(-0.0279878 0.311576 -0.448908)
(-0.0258722 0.335053 -0.467822)
(-0.0250308 0.359382 -0.480194)
(-0.0270304 0.383999 -0.485389)
(-0.0320763 0.407472 -0.480932)
(-0.0412768 0.424913 -0.452997)
(-0.0552493 0.418693 -0.354814)
(-0.0591893 0.360211 -0.1316)
(-0.0320285 0.25363 0.207305)
(0.000158909 0.25662 0.487096)
(0.111598 0.589991 0.0716005)
(0.0255694 0.164153 0.192083)
(-0.0518595 0.161996 -0.0719473)
(-0.0914056 0.216475 -0.061764)
(-0.104721 0.242408 -0.0756901)
(-0.104167 0.259513 -0.0818052)
(-0.0953478 0.267791 -0.0819331)
(-0.0799635 0.264606 -0.0766661)
(-0.0571572 0.243499 -0.0552537)
(-0.0363006 0.211375 -0.0179711)
(-0.019716 0.17834 0.0215603)
(-0.00764814 0.148586 0.0573851)
(-0.00010422 0.122594 0.0889936)
(0.00353677 0.0989459 0.116722)
(0.00412935 0.0765597 0.140703)
(0.00230305 0.055019 0.160746)
(-0.00139598 0.0349578 0.176399)
(-0.00634198 0.0177341 0.187177)
(-0.0118571 0.00510262 0.192618)
(-0.0173792 -0.00134291 0.192116)
(-0.0224983 -0.000396113 0.184786)
(-0.0268591 0.00865552 0.169532)
(-0.0300356 0.0259187 0.145432)
(-0.0314662 0.0506193 0.112368)
(-0.0305696 0.0812977 0.0714283)
(-0.0269133 0.115966 0.0251634)
(-0.0203515 0.152263 -0.0222354)
(-0.011159 0.187528 -0.0650798)
(-8.35962e-05 0.218782 -0.0969512)
(0.0115398 0.242317 -0.111944)
(0.0217437 0.253738 -0.105328)
(0.0290129 0.247503 -0.0684289)
(0.0328184 0.20417 0.0364482)
(0.0303275 0.0712988 0.29335)
(0.0196885 0.0553902 0.536758)
(0.0396506 0.508122 0.251484)
(0.0565313 0.414729 0.151239)
(0.0781778 0.416312 -0.00190628)
(0.0721496 0.360018 -0.17196)
(0.062146 0.320634 -0.223962)
(0.0533547 0.299715 -0.229204)
(0.0438337 0.283133 -0.192962)
(0.0390526 0.25373 -0.0196041)
(0.0329171 0.228361 0.121997)
(0.0233209 0.215502 0.191956)
(0.0123438 0.205643 0.237124)
(0.000768563 0.193326 0.272869)
(-0.0105558 0.176637 0.301008)
(-0.0211845 0.15567 0.321442)
(-0.0307927 0.132094 0.334643)
(-0.0392386 0.108548 0.341941)
(-0.046637 0.0874244 0.345367)
(-0.0527254 0.0702498 0.347129)
(-0.0574646 0.0571961 0.348203)
(-0.061307 0.048098 0.34864)
(-0.0642816 0.0428937 0.348023)
(-0.0661873 0.041538 0.345571)
(-0.0667427 0.0439775 0.340395)
(-0.0656878 0.050099 0.331889)
(-0.0627645 0.0596566 0.319993)
(-0.0576748 0.0723101 0.305284)
(-0.0501493 0.0876499 0.288935)
(-0.0401778 0.105018 0.272721)
(-0.0282093 0.123232 0.259176)
(-0.014586 0.140063 0.251704)
(-0.000267273 0.153161 0.254253)
(0.0130742 0.161046 0.271689)
(0.0224572 0.16371 0.310927)
(0.0215442 0.168122 0.370961)
(0.0127944 0.211868 0.415789)
(0.0168179 -0.0863114 0.0039322)
(0.0349312 -0.25891 0.039757)
(0.0318381 -0.114328 0.216124)
(0.0470764 0.335967 0.201767)
(0.0270078 0.432143 0.15394)
(0.0211006 0.433653 0.179558)
(0.00368677 0.377783 0.317639)
(-0.0167399 0.292511 0.397052)
(-0.0366339 0.233563 0.362981)
(-0.0503247 0.191192 0.322997)
(-0.0607314 0.149774 0.287149)
(-0.0669394 0.106959 0.255169)
(-0.0692608 0.0630209 0.22726)
(-0.0678827 0.0186264 0.204068)
(-0.064144 -0.0252189 0.185054)
(-0.0588766 -0.0666926 0.171171)
(-0.052132 -0.104505 0.163355)
(-0.0447277 -0.137498 0.162196)
(-0.0372558 -0.165173 0.167462)
(-0.0295659 -0.187116 0.178488)
(-0.0217817 -0.202803 0.194359)
(-0.0141656 -0.211798 0.213692)
(-0.00716154 -0.213954 0.234468)
(-0.00155876 -0.20984 0.254082)
(0.00173275 -0.201365 0.270115)
(0.00241698 -0.190673 0.281855)
(0.00120531 -0.178576 0.290008)
(-0.00055245 -0.16491 0.295981)
(-0.00143879 -0.14948 0.30101)
(-0.00113878 -0.132603 0.305869)
(5.15776e-05 -0.114071 0.310982)
(0.00173636 -0.0920248 0.316529)
(0.00387263 -0.0607461 0.322428)
(0.002349 -0.0037936 0.32523)
(0.00496977 0.110877 0.288763)
(-0.0130262 0.195479 0.0306114)
(-0.116992 0.27181 0.161874)
(-0.176691 0.290495 0.0923667)
(-0.191373 0.317436 0.0761784)
(-0.209873 0.306263 0.0576354)
(-0.213797 0.283201 0.037647)
(-0.21862 0.247218 0.0126167)
(-0.222092 0.208909 -0.0270558)
(-0.224547 0.172693 -0.0644181)
(-0.224891 0.134053 -0.0944382)
(-0.222966 0.0926782 -0.119273)
(-0.21869 0.0498597 -0.138244)
(-0.212166 0.00704602 -0.151075)
(-0.204266 -0.0346229 -0.157706)
(-0.194848 -0.0741272 -0.158905)
(-0.1837 -0.11071 -0.15499)
(-0.171248 -0.143904 -0.145959)
(-0.157949 -0.173461 -0.13187)
(-0.144137 -0.198964 -0.112569)
(-0.129946 -0.219695 -0.0876303)
(-0.115305 -0.234357 -0.0563854)
(-0.0997328 -0.240885 -0.0182503)
(-0.0825109 -0.236008 0.0259086)
(-0.0643008 -0.213793 0.0717238)
(-0.0472864 -0.174662 0.10701)
(-0.0344706 -0.132144 0.128051)
(-0.0267822 -0.100805 0.139448)
(-0.0232759 -0.0821035 0.146128)
(-0.0222015 -0.0701591 0.151014)
(-0.0220526 -0.0605794 0.155422)
(-0.021778 -0.0506363 0.159825)
(-0.0207363 -0.0380762 0.164107)
(-0.0186546 -0.0189797 0.167705)
(-0.015173 0.0171699 0.168704)
(-0.00624825 0.0956127 0.149519)
(0.000106747 0.507123 -0.0550282)
(-0.0085148 0.512294 -0.0293525)
(-0.0129356 0.491662 -0.0344886)
(-0.0169168 0.464268 -0.0467375)
(-0.019375 0.431458 -0.0650946)
(-0.0202913 0.393118 -0.089243)
(-0.0206549 0.348505 -0.118699)
(-0.0205526 0.297302 -0.151634)
(-0.0198998 0.240381 -0.183857)
(-0.0186304 0.179495 -0.211961)
(-0.0169665 0.117047 -0.234022)
(-0.0151314 0.0552075 -0.249597)
(-0.0131695 -0.00501004 -0.259491)
(-0.0102257 -0.0637396 -0.26476)
(-0.00509416 -0.120596 -0.266116)
(0.00227527 -0.174506 -0.263993)
(0.0116082 -0.224855 -0.258663)
(0.0221328 -0.271383 -0.250034)
(0.032555 -0.314414 -0.238002)
(0.0415506 -0.354981 -0.222638)
(0.0483327 -0.394485 -0.203599)
(0.0531348 -0.435337 -0.177332)
(0.0566967 -0.480967 -0.129218)
(0.0586986 -0.513276 -0.0295535)
(0.0550903 -0.493954 0.0725311)
(0.0434049 -0.428977 0.12125)
(0.0278638 -0.346496 0.136618)
(0.0170846 -0.287116 0.137561)
(0.0101498 -0.251765 0.134195)
(0.00495979 -0.227797 0.130148)
(0.00067508 -0.207756 0.126505)
(-0.00280127 -0.188362 0.123911)
(-0.00516282 -0.16745 0.122433)
(-0.00627729 -0.136742 0.120233)
(-0.00469717 -0.0595392 0.103599)
(0.0273675 0.407924 -0.0831153)
(0.0537311 0.45695 -0.0915611)
(0.0820667 0.462122 -0.095111)
(0.110573 0.451763 -0.0983877)
(0.135531 0.431228 -0.102285)
(0.156787 0.403305 -0.107271)
(0.175005 0.369494 -0.113457)
(0.190476 0.330688 -0.120606)
(0.203314 0.287558 -0.128135)
(0.213694 0.240645 -0.135329)
(0.221907 0.190408 -0.141486)
(0.228307 0.137355 -0.145946)
(0.233224 0.0822726 -0.148067)
(0.237131 0.0263448 -0.147047)
(0.240598 -0.0289891 -0.142452)
(0.244072 -0.0815423 -0.134498)
(0.247664 -0.128666 -0.124036)
(0.2512 -0.168619 -0.111519)
(0.253888 -0.201107 -0.094991)
(0.254102 -0.226073 -0.0700334)
(0.247104 -0.241358 -0.037174)
(0.232627 -0.240921 -0.0123624)
(0.213515 -0.240676 -0.0291811)
(0.18187 -0.271322 0.0375919)
(0.141497 -0.168692 0.276883)
(0.106516 -0.0479641 0.344145)
(0.0815362 -0.0455348 0.26694)
(0.0636712 -0.0871995 0.19532)
(0.0506912 -0.11607 0.158345)
(0.0405339 -0.128384 0.139743)
(0.0314977 -0.130343 0.127891)
(0.0227522 -0.124173 0.118451)
(0.0144786 -0.110062 0.110301)
(0.00685982 -0.0856549 0.102424)
(0.000484251 -0.0307029 0.0852109)
(0.0151078 0.123391 0.0292528)
(0.0415792 0.19918 0.0196976)
(0.0683952 0.231152 0.0131579)
(0.0955833 0.244424 0.00785377)
(0.12111 0.244977 0.002982)
(0.143908 0.235531 -0.00173955)
(0.164064 0.217743 -0.00634669)
(0.181818 0.192627 -0.0106844)
(0.197395 0.160875 -0.0144298)
(0.211044 0.123169 -0.0171767)
(0.223027 0.0806792 -0.0185991)
(0.233388 0.035362 -0.0185265)
(0.24195 -0.0101471 -0.0167947)
(0.247981 -0.0533767 -0.012691)
(0.249844 -0.0924262 -0.00552407)
(0.2465 -0.126824 0.00532728)
(0.237636 -0.156185 0.0196268)
(0.22299 -0.18225 0.0381138)
(0.201532 -0.203672 0.0778465)
(0.173533 -0.203066 0.146395)
(0.145814 -0.182679 0.192702)
(0.121645 -0.163917 0.197725)
(0.0975331 -0.156454 0.178424)
(0.0753764 -0.170026 0.143119)
(0.0614033 -0.199405 0.120709)
(0.0555021 -0.219574 0.123936)
(0.054854 -0.22755 0.13271)
(0.0538509 -0.228045 0.137646)
(0.0504987 -0.224678 0.137766)
(0.045408 -0.218108 0.133647)
(0.0394271 -0.207127 0.125816)
(0.032631 -0.189588 0.115007)
(0.0245851 -0.163559 0.102653)
(0.0151175 -0.126394 0.0902678)
(0.00494828 -0.0540505 0.0725353)
(0.00348644 0.0195665 0.0264267)
(0.015109 0.0477647 0.0257995)
(0.0298164 0.0639662 0.023671)
(0.0468415 0.0738299 0.0211113)
(0.0639881 0.0776669 0.018452)
(0.0804796 0.0761581 0.0158972)
(0.0960722 0.0700405 0.0136231)
(0.110442 0.0601339 0.0118338)
(0.123136 0.047482 0.0107369)
(0.133646 0.033534 0.0104731)
(0.141473 0.0201071 0.0110202)
(0.146314 0.00865656 0.0122838)
(0.148153 -0.000571621 0.0143794)
(0.147214 -0.0083497 0.0178448)
(0.143746 -0.0153254 0.02336)
(0.138027 -0.0214817 0.0312704)
(0.130595 -0.0265521 0.0412928)
(0.121917 -0.0312244 0.0526616)
(0.112451 -0.0382567 0.0646269)
(0.103077 -0.0512011 0.077781)
(0.0947842 -0.0701883 0.0935522)
(0.0882068 -0.0915868 0.110687)
(0.0828757 -0.111708 0.126269)
(0.077608 -0.128746 0.138258)
(0.0713067 -0.142987 0.145521)
(0.0637014 -0.156324 0.147962)
(0.0558221 -0.169281 0.146295)
(0.0487153 -0.180036 0.141321)
(0.0426251 -0.18642 0.133879)
(0.0374081 -0.186999 0.124685)
(0.0328059 -0.180095 0.114)
(0.0282267 -0.161775 0.101626)
(0.0225939 -0.126028 0.088108)
(0.0153581 -0.0711229 0.0754051)
(0.00599743 0.0132749 0.0593039)
(0.00036727 -0.000691521 0.0285297)
(0.0044231 0.00602029 0.0234646)
(0.0102307 0.0109645 0.0191533)
(0.0173802 0.0150578 0.0150865)
(0.0246525 0.0179239 0.011566)
(0.0317538 0.0193657 0.00865883)
(0.0384781 0.0193269 0.00641829)
(0.0445556 0.0179036 0.00493315)
(0.0498316 0.0152712 0.00429748)
(0.0542199 0.0116434 0.00461667)
(0.0576755 0.00723728 0.0059911)
(0.0603178 0.00185157 0.00868999)
(0.0622975 -0.00477054 0.0130807)
(0.0637158 -0.0124035 0.0193054)
(0.0646267 -0.0209581 0.0273927)
(0.0649803 -0.0306225 0.0373406)
(0.0647974 -0.0416922 0.0490408)
(0.0641741 -0.0544161 0.0621911)
(0.0631093 -0.0689425 0.0763186)
(0.0614541 -0.0853532 0.090719)
(0.0590928 -0.103727 0.10448)
(0.0560333 -0.123994 0.116567)
(0.0524964 -0.145677 0.126004)
(0.0488304 -0.16788 0.132071)
(0.0453385 -0.18944 0.134417)
(0.0421809 -0.209178 0.133058)
(0.0393644 -0.226126 0.128246)
(0.0368414 -0.239339 0.120346)
(0.0345779 -0.247642 0.109818)
(0.0325206 -0.249476 0.0972317)
(0.0305194 -0.242238 0.0830811)
(0.0280654 -0.219657 0.0678411)
(0.0237338 -0.170605 0.0541727)
(0.0164551 -0.0937118 0.0465121)
(0.00593391 0.016599 0.0418293)
(-0.000235995 -0.00932489 -0.00866996)
(0.00214941 -0.000331153 -0.0178183)
(0.00524651 0.00603992 -0.0218599)
(0.00892689 0.0115571 -0.0244438)
(0.0129202 0.0162396 -0.0259702)
(0.0169269 0.0198745 -0.0265077)
(0.0208706 0.0224124 -0.026103)
(0.0246983 0.0238781 -0.0247755)
(0.0283711 0.0243258 -0.022515)
(0.0318693 0.0238149 -0.0192885)
(0.0351899 0.0223909 -0.015052)
(0.0383096 0.0200747 -0.00976879)
(0.0411411 0.0168518 -0.00342476)
(0.0436821 0.0124358 0.00427732)
(0.0459605 0.00627468 0.013841)
(0.04796 -0.00205603 0.0253538)
(0.0497079 -0.0129758 0.0386432)
(0.0512335 -0.0269504 0.0533846)
(0.0525408 -0.0443454 0.0689691)
(0.053558 -0.0651958 0.084451)
(0.0541733 -0.089016 0.0985756)
(0.0542999 -0.114771 0.110016)
(0.0538831 -0.141195 0.117749)
(0.0529297 -0.167189 0.121231)
(0.0515129 -0.191952 0.120272)
(0.0497517 -0.214759 0.114822)
(0.0477711 -0.234622 0.104919)
(0.0456437 -0.250133 0.0908375)
(0.0433568 -0.259533 0.0732687)
(0.0408428 -0.260791 0.0532475)
(0.0379471 -0.250729 0.0315885)
(0.0341763 -0.220468 0.00907597)
(0.0283406 -0.150663 -0.00771506)
(0.0195875 -0.0423578 -0.00645282)
(0.00691861 0.0819026 0.015317)
(-0.000871657 0.0173682 -0.00299739)
(-0.00111884 0.022932 -0.00550504)
(-0.0011229 0.0263151 -0.00690051)
(-0.000777019 0.0293366 -0.0078335)
(-4.70108e-05 0.0317868 -0.0080318)
(0.00101874 0.033504 -0.00732188)
(0.0023685 0.0343682 -0.00559846)
(0.00395951 0.0342774 -0.00280932)
(0.00575949 0.0331364 0.00105461)
(0.00775097 0.030853 0.00596268)
(0.00993653 0.0273445 0.0118404)
(0.0123327 0.0225576 0.0185575)
(0.0148837 0.016489 0.0259052)
(0.0176536 0.00858938 0.0342985)
(0.0207665 -0.00220784 0.0444795)
(0.0240964 -0.0164191 0.0563815)
(0.0275828 -0.0340847 0.0693242)
(0.031118 -0.0550042 0.0823974)
(0.0344965 -0.078687 0.0945278)
(0.0374833 -0.104299 0.104584)
(0.0398239 -0.130814 0.111632)
(0.0413186 -0.157311 0.115106)
(0.0418611 -0.183183 0.114767)
(0.0414396 -0.208069 0.110499)
(0.0401126 -0.231576 0.102135)
(0.0379735 -0.252967 0.0894617)
(0.0351259 -0.270944 0.0724314)
(0.0316995 -0.283661 0.051503)
(0.0278624 -0.289124 0.0277482)
(0.0238123 -0.28538 0.0021929)
(0.0196483 -0.268755 -0.025287)
(0.0154462 -0.228295 -0.055052)
(0.0123454 -0.143231 -0.0805056)
(0.00997218 -0.0113429 -0.0831864)
(0.00422183 0.124481 -0.0395199)
(0.000678334 0.0153964 0.0197977)
(0.00134274 0.0214878 0.0214947)
(0.00193194 0.0252713 0.0222458)
(0.00241726 0.0285857 0.0232344)
(0.00281081 0.0310426 0.0247976)
(0.00332999 0.0323923 0.0271494)
(0.00409798 0.0324827 0.0304086)
(0.00516594 0.0312209 0.0346144)
(0.00655599 0.0285355 0.0397378)
(0.00828427 0.0243392 0.0456845)
(0.0103945 0.018573 0.0522829)
(0.0129025 0.0112387 0.0592594)
(0.0158196 0.00214338 0.0665971)
(0.0191946 -0.00940194 0.074683)
(0.023029 -0.0240668 0.0836159)
(0.0271395 -0.0419067 0.0928724)
(0.0312387 -0.0624685 0.101604)
(0.0350268 -0.0849356 0.108889)
(0.0381967 -0.108253 0.113926)
(0.0404609 -0.131329 0.116185)
(0.0415966 -0.153297 0.115492)
(0.0414663 -0.173696 0.111952)
(0.0399968 -0.192415 0.105754)
(0.0371487 -0.209461 0.0970258)
(0.032913 -0.224688 0.0858082)
(0.0273438 -0.23762 0.0721807)
(0.0206085 -0.247425 0.0564441)
(0.013049 -0.253088 0.0391995)
(0.00520492 -0.253642 0.0211519)
(-0.00231983 -0.24802 0.00261229)
(-0.00897078 -0.233757 -0.0172095)
(-0.0136619 -0.203367 -0.0404202)
(-0.0135901 -0.138735 -0.0676861)
(-0.00677776 -0.0161626 -0.0879795)
(-1.37064e-05 0.134898 -0.0591005)
(0.00203635 0.00948635 0.0387197)
(0.00322165 0.0126758 0.0440769)
(0.00436159 0.013975 0.0464466)
(0.00553459 0.0139462 0.0488025)
(0.00669182 0.0124672 0.0515246)
(0.00808543 0.00955423 0.0547401)
(0.00981889 0.00528919 0.0584083)
(0.0118905 -0.00024701 0.0624343)
(0.0143147 -0.0071406 0.0668465)
(0.0171159 -0.015598 0.0716948)
(0.0202874 -0.0257805 0.0769126)
(0.0238458 -0.0378724 0.0823814)
(0.0278012 -0.0520726 0.0879133)
(0.0321213 -0.0684273 0.0931982)
(0.0366826 -0.0866077 0.0977668)
(0.0412474 -0.105936 0.101072)
(0.0455235 -0.125499 0.102625)
(0.0492193 -0.144316 0.102105)
(0.0520863 -0.161511 0.099418)
(0.053943 -0.176475 0.0947122)
(0.054681 -0.18895 0.0883009)
(0.0542476 -0.198974 0.0805827)
(0.0526122 -0.206742 0.071992)
(0.0497471 -0.212498 0.0629818)
(0.0456298 -0.216518 0.054002)
(0.0402678 -0.219132 0.0454465)
(0.0337383 -0.22071 0.0375564)
(0.0262189 -0.221548 0.0303273)
(0.017958 -0.221673 0.0234964)
(0.00931854 -0.220641 0.0167136)
(0.00119514 -0.21748 0.00976816)
(-0.00554459 -0.209895 0.00192053)
(-0.0109391 -0.188002 -0.0103371)
(-0.0118534 -0.112068 -0.0336182)
(-0.00439846 0.0680473 -0.0442855)
(0.00225662 -0.0343995 0.0482809)
(0.00350201 -0.0369842 0.0534154)
(0.00459842 -0.037882 0.0550533)
(0.00571364 -0.0398068 0.0566674)
(0.00677357 -0.0429621 0.0586015)
(0.00790906 -0.0473064 0.0608582)
(0.0091849 -0.0528328 0.0633305)
(0.0106393 -0.0596236 0.0658787)
(0.0123074 -0.0678421 0.0683691)
(0.0142392 -0.077668 0.070689)
(0.0164889 -0.0893092 0.0727162)
(0.0191137 -0.10293 0.0742822)
(0.0221324 -0.118471 0.0751199)
(0.0254519 -0.135406 0.0748266)
(0.0288303 -0.152693 0.0729368)
(0.0319615 -0.169082 0.0691589)
(0.0346197 -0.183499 0.0635282)
(0.0365971 -0.195315 0.0560638)
(0.0378507 -0.204225 0.0469208)
(0.0384202 -0.210214 0.0363552)
(0.0383381 -0.213491 0.0244805)
(0.0376909 -0.214327 0.0116254)
(0.036577 -0.212986 -0.00149584)
(0.0350964 -0.20973 -0.0140201)
(0.0333378 -0.20485 -0.0252583)
(0.0313419 -0.198639 -0.0348071)
(0.0290785 -0.191316 -0.0426125)
(0.0264482 -0.183043 -0.0487159)
(0.0233234 -0.173882 -0.0531609)
(0.0195745 -0.163682 -0.0558986)
(0.0150204 -0.151954 -0.0567784)
(0.00961621 -0.137821 -0.0557327)
(0.00381812 -0.119484 -0.0524504)
(-0.00148508 -0.0875534 -0.0453585)
(-0.00466615 0.00863395 -0.0329191)
(0.00162471 -0.0579271 -0.0576295)
(0.00307622 -0.0662474 -0.0654101)
(0.0056435 -0.0703114 -0.0641445)
(0.00886337 -0.0745647 -0.0595243)
(0.0121785 -0.0795011 -0.0528422)
(0.0152604 -0.0855018 -0.044837)
(0.0179289 -0.0928589 -0.0360422)
(0.0200869 -0.101791 -0.0268974)
(0.0216815 -0.112495 -0.0177026)
(0.0226835 -0.125203 -0.00852686)
(0.0230703 -0.140169 0.000808002)
(0.0228005 -0.15745 0.0105409)
(0.0217705 -0.176287 0.0204708)
(0.0197752 -0.194592 0.029411)
(0.0166729 -0.209807 0.0356102)
(0.0127325 -0.220875 0.0381264)
(0.0079557 -0.228642 0.0370781)
(0.00239278 -0.233544 0.0324275)
(-0.00331125 -0.235698 0.0239915)
(-0.00907627 -0.235464 0.0111296)
(-0.0149316 -0.232706 -0.00713405)
(-0.0203793 -0.227504 -0.0294691)
(-0.0250692 -0.220596 -0.0518022)
(-0.0287862 -0.2128 -0.0706876)
(-0.0313325 -0.204574 -0.0853666)
(-0.0327384 -0.195861 -0.0971133)
(-0.0329046 -0.186364 -0.10681)
(-0.0317153 -0.175919 -0.114728)
(-0.0292372 -0.164309 -0.121148)
(-0.0257432 -0.15131 -0.126298)
(-0.0215548 -0.136319 -0.130403)
(-0.0167616 -0.117392 -0.133254)
(-0.0115411 -0.0902174 -0.133144)
(-0.0064342 -0.0454793 -0.123615)
(-0.00248049 0.0365174 -0.0800039)
(-0.00126269 -0.0905873 -0.0100162)
(0.0011584 -0.103028 -0.00502133)
(0.0055099 -0.108599 -0.000109811)
(0.0122894 -0.113221 0.00637517)
(0.0207676 -0.117338 0.0146689)
(0.0299435 -0.121148 0.0244014)
(0.0392186 -0.124943 0.0351121)
(0.0481351 -0.129038 0.0464401)
(0.0562938 -0.133746 0.0582142)
(0.0633573 -0.139331 0.0705169)
(0.0690517 -0.145939 0.0837568)
(0.0731221 -0.15355 0.0985715)
(0.0752137 -0.161894 0.115141)
(0.0749301 -0.170382 0.132015)
(0.0722383 -0.178395 0.146529)
(0.0674861 -0.185557 0.157064)
(0.060973 -0.191514 0.163512)
(0.0529002 -0.195913 0.165874)
(0.0435361 -0.1983 0.163482)
(0.0330791 -0.197812 0.154559)
(0.0216323 -0.193674 0.135781)
(0.00993635 -0.187103 0.106014)
(-0.00137898 -0.181361 0.0710296)
(-0.0122732 -0.17832 0.038049)
(-0.0224743 -0.177703 0.0103338)
(-0.0313645 -0.17847 -0.011652)
(-0.0382125 -0.179689 -0.0288728)
(-0.0425458 -0.18042 -0.0429335)
(-0.0443593 -0.179537 -0.0555231)
(-0.0436142 -0.17576 -0.0682611)
(-0.0401315 -0.167808 -0.0820428)
(-0.0340293 -0.154233 -0.0968209)
(-0.0257978 -0.132154 -0.114069)
(-0.0156688 -0.0909621 -0.128109)
(-0.00560831 -0.00621635 -0.102487)
(-0.000937635 -0.0710205 0.00954956)
(0.00654933 -0.107759 0.0314752)
(0.0184117 -0.132769 0.045199)
(0.034176 -0.15603 0.0576934)
(0.0518762 -0.1769 0.06919)
(0.0699303 -0.194579 0.079139)
(0.0875718 -0.209028 0.0872634)
(0.104322 -0.220593 0.0935823)
(0.119811 -0.229725 0.0982705)
(0.133747 -0.236839 0.101541)
(0.145916 -0.242237 0.103546)
(0.156157 -0.246015 0.104309)
(0.16437 -0.248012 0.103774)
(0.170537 -0.24795 0.10206)
(0.174685 -0.245653 0.0996351)
(0.176852 -0.241115 0.0971185)
(0.177103 -0.234414 0.0950464)
(0.175514 -0.225607 0.093888)
(0.172142 -0.214707 0.0941348)
(0.167083 -0.20173 0.0964182)
(0.160434 -0.186576 0.101899)
(0.152134 -0.168706 0.111982)
(0.142021 -0.147829 0.125235)
(0.130059 -0.126976 0.136016)
(0.116735 -0.113604 0.137879)
(0.102785 -0.112573 0.130063)
(0.08862 -0.122898 0.117348)
(0.0744547 -0.140831 0.102758)
(0.060214 -0.161373 0.0909549)
(0.046725 -0.180471 0.082431)
(0.0346413 -0.195548 0.0736567)
(0.0230296 -0.204393 0.0724388)
(0.0112908 -0.205863 0.0566662)
(0.00564344 -0.177104 -0.0235869)
(0.00195747 -0.0785413 -0.0662376)
(-0.000785516 -0.150531 0.0906461)
(0.0178608 -0.289076 0.107375)
(0.039312 -0.359817 0.0998327)
(0.0627649 -0.400332 0.0886323)
(0.0859167 -0.422509 0.0760493)
(0.107021 -0.431824 0.0622002)
(0.125118 -0.431873 0.0471703)
(0.139982 -0.425444 0.0313652)
(0.151803 -0.414631 0.0152614)
(0.160938 -0.400905 -0.000714947)
(0.167803 -0.385287 -0.0162105)
(0.172816 -0.368443 -0.0309179)
(0.176393 -0.350899 -0.0445227)
(0.178946 -0.333053 -0.0566686)
(0.180848 -0.315198 -0.0669771)
(0.182427 -0.297507 -0.0751482)
(0.183926 -0.28003 -0.0810834)
(0.185462 -0.262714 -0.0850805)
(0.187025 -0.24541 -0.0878095)
(0.188485 -0.228005 -0.0898865)
(0.189638 -0.210541 -0.0919158)
(0.190063 -0.193062 -0.0938727)
(0.189215 -0.175931 -0.0958006)
(0.186722 -0.159437 -0.0970822)
(0.181906 -0.144245 -0.0947143)
(0.174825 -0.130354 -0.0939154)
(0.163992 -0.117603 -0.0843765)
(0.151328 -0.107169 -0.0790144)
(0.135592 -0.0954385 -0.0677461)
(0.116618 -0.086714 -0.0347019)
(0.104398 -0.0794128 -0.0618295)
(0.0917749 -0.062277 -0.00460712)
(0.0607528 -0.076516 0.239869)
(0.030152 -0.0633287 0.183116)
(0.00835103 0.0459076 0.0246952)
(0.00923592 -0.24759 0.00470339)
(0.0292956 -0.414781 0.000811894)
(0.0422341 -0.469554 -0.00542476)
(0.0484736 -0.479766 -0.0129141)
(0.050061 -0.46717 -0.0251063)
(0.0471219 -0.439946 -0.0424966)
(0.0394848 -0.40398 -0.0631784)
(0.0282322 -0.365104 -0.0845358)
(0.0147512 -0.327281 -0.104595)
(0.000148135 -0.292725 -0.122047)
(-0.014534 -0.262673 -0.136011)
(-0.0287378 -0.237781 -0.145823)
(-0.0423324 -0.218023 -0.150731)
(-0.0551934 -0.202689 -0.149692)
(-0.0673125 -0.190747 -0.141647)
(-0.0785074 -0.181175 -0.126563)
(-0.088451 -0.172841 -0.107029)
(-0.0968322 -0.163973 -0.0888567)
(-0.103169 -0.152147 -0.0781593)
(-0.107123 -0.135571 -0.0768001)
(-0.109539 -0.113289 -0.0838241)
(-0.111237 -0.0831331 -0.0998791)
(-0.112393 -0.0435247 -0.123398)
(-0.112829 0.000812192 -0.143821)
(-0.112258 0.0395464 -0.149734)
(-0.110579 0.067756 -0.143295)
(-0.107912 0.0862935 -0.128594)
(-0.103376 0.0881655 -0.10117)
(-0.0952708 0.0564673 -0.0569699)
(-0.0830531 -0.00447061 -0.0146429)
(-0.065978 -0.0485807 0.00225249)
(-0.0472828 -0.0532765 -0.0018073)
(-0.0304094 -0.0415998 -0.00737002)
(-0.0147761 -0.00433584 -0.0098643)
(-0.00157871 0.0964177 -0.029786)
(0.00563462 -0.359614 0.0259065)
(0.00676715 -0.450491 0.0698515)
(0.00403702 -0.443022 0.0764244)
(-0.000102793 -0.414003 0.0680061)
(-0.00776323 -0.356591 0.0413542)
(-0.0174939 -0.285357 0.00698301)
(-0.0262849 -0.219452 -0.0225112)
(-0.0328379 -0.167324 -0.0420763)
(-0.0370396 -0.129667 -0.0512148)
(-0.0392972 -0.103892 -0.0520197)
(-0.0402844 -0.0860304 -0.0472605)
(-0.0406412 -0.0728125 -0.0381804)
(-0.0408786 -0.0625288 -0.0242413)
(-0.0414881 -0.0551176 -0.00387355)
(-0.0430033 -0.0523221 0.0239288)
(-0.0459575 -0.0569755 0.0564928)
(-0.0506683 -0.0697498 0.085416)
(-0.0566546 -0.0861638 0.102596)
(-0.0628383 -0.1008 0.109308)
(-0.0688225 -0.111243 0.11047)
(-0.0747337 -0.114619 0.107302)
(-0.0801635 -0.106156 0.0975432)
(-0.0827828 -0.088468 0.0816671)
(-0.079777 -0.0775352 0.0679817)
(-0.0728079 -0.0793911 0.0614733)
(-0.0637015 -0.0894064 0.0608097)
(-0.0520042 -0.109045 0.0659755)
(-0.0386831 -0.143115 0.0767106)
(-0.0261428 -0.194371 0.0910643)
(-0.0165845 -0.254223 0.103969)
(-0.0125228 -0.295027 0.110852)
(-0.0117193 -0.309549 0.114766)
(-0.0105212 -0.304311 0.119244)
(-0.00848165 -0.246679 0.121313)
(-0.00222593 -0.0381268 0.0450965)
(0.00129667 -0.365193 0.0792098)
(-0.00209717 -0.441949 0.0951234)
(-0.00915956 -0.444418 0.0789838)
(-0.0175269 -0.406137 0.0315589)
(-0.0276714 -0.341936 -0.0334556)
(-0.0332639 -0.290729 -0.0756314)
(-0.0333892 -0.261154 -0.0926707)
(-0.029942 -0.243052 -0.0981525)
(-0.0241617 -0.22878 -0.0998368)
(-0.0167462 -0.215481 -0.100333)
(-0.0083377 -0.202495 -0.100528)
(0.000600668 -0.189958 -0.100832)
(0.00980237 -0.178115 -0.101513)
(0.0190894 -0.167047 -0.102764)
(0.0282248 -0.156686 -0.104745)
(0.0368144 -0.146908 -0.107538)
(0.044345 -0.137605 -0.110929)
(0.05035 -0.128845 -0.114183)
(0.0546145 -0.121028 -0.116446)
(0.057351 -0.11483 -0.117158)
(0.0591558 -0.111278 -0.115547)
(0.0607923 -0.111518 -0.110573)
(0.0628147 -0.115905 -0.101944)
(0.0653097 -0.123776 -0.0903365)
(0.0679305 -0.134549 -0.0766662)
(0.0700394 -0.148076 -0.0623322)
(0.070922 -0.163433 -0.0498737)
(0.0698157 -0.178245 -0.0420534)
(0.0661075 -0.189757 -0.0401167)
(0.0589315 -0.19579 -0.0437977)
(0.0475389 -0.197029 -0.0507113)
(0.0339998 -0.197786 -0.0547659)
(0.0203216 -0.198315 -0.0453434)
(0.00463293 -0.177941 0.00717059)
(-0.00380448 -0.0351705 0.0590155)
(-0.000258616 -0.387915 0.0715648)
(-0.00159424 -0.42169 0.0679147)
(-0.00766501 -0.400058 0.0393147)
(-0.0169752 -0.320279 -0.043558)
(-0.0242012 -0.248288 -0.117667)
(-0.0269327 -0.211424 -0.147804)
(-0.0268185 -0.189865 -0.158657)
(-0.0256159 -0.172812 -0.163328)
(-0.0236507 -0.157239 -0.165027)
(-0.0210919 -0.142623 -0.164584)
(-0.0180761 -0.128958 -0.162382)
(-0.0147128 -0.116268 -0.158699)
(-0.011108 -0.104578 -0.153763)
(-0.00737301 -0.0939308 -0.147774)
(-0.0036118 -0.0843924 -0.140921)
(9.17667e-05 -0.0760314 -0.133405)
(0.00368713 -0.0689118 -0.125463)
(0.00711956 -0.063093 -0.117421)
(0.0103581 -0.0585956 -0.109497)
(0.0133734 -0.0554924 -0.101768)
(0.0160508 -0.0539139 -0.0943754)
(0.0182217 -0.0540106 -0.0875333)
(0.0196823 -0.0559592 -0.0815225)
(0.0202373 -0.0599062 -0.0766744)
(0.0197827 -0.0658133 -0.0733092)
(0.0183198 -0.0737157 -0.0714873)
(0.0157828 -0.0841668 -0.0711595)
(0.0122015 -0.0970655 -0.0725298)
(0.00796058 -0.110116 -0.075594)
(0.0037955 -0.120242 -0.0796254)
(0.000270323 -0.126029 -0.0838204)
(-0.00291569 -0.127866 -0.0880652)
(-0.00561212 -0.126004 -0.0919209)
(-0.0077043 -0.119156 -0.0937701)
(-0.00778141 -0.0895077 -0.0708829)
(-0.010154 -0.353879 0.136283)
(-0.0164852 -0.375207 0.149793)
(-0.0258088 -0.333562 0.120832)
(-0.0362225 -0.228277 0.0286169)
(-0.0364759 -0.184431 -0.0259593)
(-0.036221 -0.174913 -0.0439506)
(-0.0356676 -0.168732 -0.0550862)
(-0.0345061 -0.162301 -0.064515)
(-0.0326458 -0.155257 -0.0730093)
(-0.0301336 -0.147805 -0.0805917)
(-0.0270223 -0.140143 -0.0872126)
(-0.0233259 -0.132363 -0.0928593)
(-0.0190814 -0.12458 -0.0974796)
(-0.0143812 -0.11695 -0.101004)
(-0.00931374 -0.109586 -0.103428)
(-0.00398255 -0.102591 -0.104795)
(0.0014893 -0.0960789 -0.10516)
(0.00698024 -0.090184 -0.104591)
(0.0123735 -0.0850568 -0.103171)
(0.0175484 -0.0808583 -0.100992)
(0.0223824 -0.0777522 -0.0981531)
(0.0267486 -0.0758979 -0.0947552)
(0.0305153 -0.075439 -0.0908954)
(0.0335504 -0.0764893 -0.0866637)
(0.0357278 -0.0791197 -0.0821378)
(0.0369133 -0.0833457 -0.0773816)
(0.0369342 -0.0891327 -0.0724234)
(0.0356212 -0.0964044 -0.0672632)
(0.0330183 -0.104984 -0.0619496)
(0.0292026 -0.114786 -0.0562776)
(0.0242634 -0.125154 -0.0503358)
(0.0186626 -0.134286 -0.0449324)
(0.0131924 -0.140466 -0.0405585)
(0.0082367 -0.141637 -0.0363863)
(0.00331274 -0.122808 -0.0294822)
(-0.003905 -0.329447 0.100212)
(-0.00513194 -0.38843 0.120449)
(-0.00535578 -0.384008 0.106167)
(-0.00340071 -0.332735 0.0494468)
(-2.48878e-06 -0.262092 -0.0273289)
(0.000545825 -0.220534 -0.0644355)
(0.000221256 -0.194773 -0.0808823)
(-7.66427e-06 -0.174696 -0.0899356)
(1.01003e-05 -0.157174 -0.0957519)
(0.000378503 -0.141529 -0.0998119)
(0.00114278 -0.127526 -0.102838)
(0.00232885 -0.114992 -0.105221)
(0.00390794 -0.103866 -0.107141)
(0.00584977 -0.0939191 -0.108706)
(0.00816812 -0.0847667 -0.109937)
(0.0108405 -0.0762658 -0.110795)
(0.0138051 -0.0684614 -0.111239)
(0.0170144 -0.0613872 -0.111227)
(0.020413 -0.0550712 -0.110725)
(0.0239359 -0.0495405 -0.10971)
(0.0275115 -0.0448233 -0.108163)
(0.0310639 -0.040947 -0.106076)
(0.0345167 -0.0379329 -0.103445)
(0.0377877 -0.0357771 -0.100275)
(0.0407726 -0.0344276 -0.0965852)
(0.0433275 -0.0338054 -0.0924149)
(0.0452706 -0.0338545 -0.0878043)
(0.0464137 -0.0345508 -0.0827671)
(0.0466115 -0.0359159 -0.0773181)