/*--------------------------------*- C++ -*----------------------------------*\
| =========                 |                                                 |
| \\      /  F ield         | OpenFOAM: The Open Source CFD Toolbox           |
|  \\    /   O peration     | Version:  v2012                                 |
|   \\  /    A nd           | Website:  www.openfoam.com                      |
|    \\/     M anipulation  |                                                 |
\*---------------------------------------------------------------------------*/
FoamFile
{
    version     2.0;
    format      ascii;
    class       volVectorField;
    location    "5";
    object      U;
}
// * * * * * * * * * * * * * * * * * * * * * * * * * * * * * * * * * * * * * //

dimensions      [0 1 -1 0 0 0 0];


internalField   nonuniform List<vector> 
78750
(
(8.37796e-06 -9.93369e-05 0.000325871)
(2.6831e-05 -0.000100157 0.000734555)
(2.95427e-05 -6.0456e-05 0.00101871)
(2.38518e-05 -1.71202e-06 0.00127386)
(6.46009e-06 6.49366e-05 0.00148619)
(-2.23412e-05 0.000133249 0.00164791)
(-6.12173e-05 0.000198456 0.00175319)
(-0.000108041 0.000257234 0.00180118)
(-0.000161356 0.000308182 0.00179503)
(-0.000219329 0.000350813 0.00174124)
(-0.00027989 0.00038501 0.00164855)
(-0.000341201 0.000410847 0.00152663)
(-0.00040102 0.00042789 0.00138541)
(-0.000457565 0.000436003 0.00123315)
(-0.0005099 0.00043577 0.00107476)
(-0.000557205 0.000427995 0.000913678)
(-0.000598389 0.000413349 0.000753021)
(-0.000632948 0.000393042 0.000594245)
(-0.000659919 0.00036817 0.000438677)
(-0.000678402 0.000339955 0.00028766)
(-0.00068745 0.000309729 0.000142611)
(-0.000686197 0.000278946 5.14043e-06)
(-0.000674243 0.000249441 -0.000121337)
(-0.000651881 0.000222193 -0.000236026)
(-0.00061895 0.000197521 -0.000339121)
(-0.000576605 0.000176243 -0.000426211)
(-0.000526629 0.000158109 -0.000494814)
(-0.000469446 0.000141748 -0.000545235)
(-0.000406808 0.000126282 -0.000575446)
(-0.000339813 0.000110702 -0.000583754)
(-0.000269145 9.41408e-05 -0.000568662)
(-0.00019534 7.64759e-05 -0.000528115)
(-0.00012075 5.84648e-05 -0.000460095)
(-6.01856e-05 4.18113e-05 -0.000363082)
(-1.71605e-05 1.9277e-05 -0.000186086)
(-4.48181e-05 2.94476e-05 0.000436748)
(-0.000111935 0.000175828 0.000858933)
(-0.00021316 0.000270398 0.00112085)
(-0.000353611 0.000359509 0.00131737)
(-0.00049917 0.000442252 0.00143637)
(-0.000638406 0.000514611 0.001483)
(-0.000765023 0.000579329 0.00145823)
(-0.000876025 0.000641108 0.00136506)
(-0.000967042 0.000702372 0.00121029)
(-0.00103608 0.000761872 0.00100534)
(-0.00108296 0.000816225 0.00076852)
(-0.00110788 0.000859442 0.000528846)
(-0.00111289 0.000886727 0.000321442)
(-0.00110146 0.000896988 0.000172602)
(-0.00107832 0.000893569 8.48118e-05)
(-0.00104825 0.000880659 4.04205e-05)
(-0.00101431 0.000860366 1.45823e-05)
(-0.000977995 0.000832309 -1.29399e-05)
(-0.000940002 0.000795246 -5.44565e-05)
(-0.000900025 0.000748122 -0.000114282)
(-0.000857371 0.000690816 -0.00019046)
(-0.000811117 0.000624599 -0.000276821)
(-0.000760744 0.000552318 -0.000365085)
(-0.000706212 0.000478003 -0.00044696)
(-0.000648044 0.000406183 -0.000515087)
(-0.000586787 0.000340694 -0.000564607)
(-0.000523084 0.000283084 -0.000595762)
(-0.000457545 0.000232204 -0.000613003)
(-0.000391004 0.000186853 -0.000617788)
(-0.00032402 0.000145761 -0.000609672)
(-0.000257056 0.000107704 -0.000586467)
(-0.000189817 7.25466e-05 -0.000541207)
(-0.000123286 4.17019e-05 -0.000456711)
(-7.2127e-05 2.3939e-05 -0.000309258)
(-3.48813e-05 3.79302e-05 -4.94494e-05)
(-0.000126928 0.000840001 0.00103169)
(-0.000279043 0.001435 0.00170022)
(-0.000490073 0.00171128 0.00203658)
(-0.000773546 0.00188463 0.00225008)
(-0.00105202 0.00196707 0.00233167)
(-0.00129871 0.0019716 0.00229133)
(-0.00151055 0.00191681 0.00214135)
(-0.0016771 0.00181999 0.00190404)
(-0.00179527 0.00169691 0.00160415)
(-0.00186482 0.0015608 0.00127117)
(-0.00188804 0.00142267 0.000934635)
(-0.00187032 0.00129096 0.00062207)
(-0.00181794 0.00117141 0.00035384)
(-0.00173842 0.00106603 0.000140203)
(-0.00163959 0.00097554 -1.93754e-05)
(-0.00152826 0.000898189 -0.000135718)
(-0.00141118 0.00083211 -0.000219505)
(-0.00129266 0.000773139 -0.000280829)
(-0.00117572 0.000717074 -0.000329144)
(-0.00106238 0.000660365 -0.000372482)
(-0.000953351 0.000600769 -0.00041535)
(-0.000849151 0.000538956 -0.000455112)
(-0.00075078 0.000479718 -0.000483602)
(-0.000659074 0.000427683 -0.00049547)
(-0.000573246 0.000381765 -0.000495853)
(-0.0004942 0.000341355 -0.000488345)
(-0.000421629 0.000306121 -0.000475455)
(-0.000355063 0.000274999 -0.000458834)
(-0.000294162 0.000247589 -0.000438848)
(-0.000238483 0.000222865 -0.000415108)
(-0.000187452 0.000200508 -0.000386172)
(-0.000139935 0.000179858 -0.000348914)
(-9.47936e-05 0.000161232 -0.000297467)
(-5.90062e-05 0.000145242 -0.000222813)
(-3.18996e-05 0.000131462 -4.86525e-05)
(-0.000201868 0.00144963 0.00134143)
(-0.000407001 0.00233474 0.00211385)
(-0.000663983 0.00273755 0.00245942)
(-0.000998884 0.00290225 0.00265101)
(-0.00131205 0.00284136 0.0026976)
(-0.00159415 0.00262543 0.00261981)
(-0.00182958 0.00232837 0.00244068)
(-0.00200678 0.00199443 0.00218209)
(-0.00211491 0.00165161 0.0018664)
(-0.00215539 0.00131984 0.0015156)
(-0.00213534 0.00101573 0.00115103)
(-0.00206803 0.000749319 0.000796442)
(-0.00196473 0.000521517 0.000481182)
(-0.00183497 0.000337135 0.000262406)
(-0.00169614 0.000211046 0.000170768)
(-0.00155461 0.000140843 0.000139867)
(-0.00141136 0.000109311 0.00011275)
(-0.0012698 0.000102394 7.27895e-05)
(-0.00113274 0.000109828 2.22695e-05)
(-0.00100188 0.000124403 -3.11588e-05)
(-0.000878636 0.000140972 -8.08199e-05)
(-0.000764109 0.000156957 -0.000121876)
(-0.000659101 0.000172129 -0.00015051)
(-0.0005642 0.000188233 -0.000164444)
(-0.000479473 0.000206764 -0.00016472)
(-0.000404001 0.000227227 -0.000156052)
(-0.000337175 0.000248283 -0.000142427)
(-0.000278757 0.000269008 -0.000126126)
(-0.000227792 0.000287699 -0.000109868)
(-0.000183401 0.000302787 -9.53595e-05)
(-0.000144677 0.000312349 -8.34575e-05)
(-0.000109873 0.00031348 -7.95107e-05)
(-7.62923e-05 0.000302336 -9.58222e-05)
(-4.90982e-05 0.000279959 -0.000124579)
(-2.73584e-05 0.000228665 -8.08929e-05)
(-0.000131194 0.00154444 0.0010946)
(-0.000244206 0.00232034 0.0016627)
(-0.000379504 0.00260642 0.00187923)
(-0.000546839 0.00269635 0.00197557)
(-0.000705723 0.00260685 0.00197502)
(-0.000855236 0.00236855 0.00188994)
(-0.000991976 0.00202277 0.00173697)
(-0.0011066 0.0016127 0.00153449)
(-0.00118884 0.00117896 0.00130237)
(-0.00123257 0.000756336 0.00106082)
(-0.00123794 0.000371117 0.000828665)
(-0.00121229 4.24188e-05 0.000622248)
(-0.00116543 -0.000220276 0.00045109)
(-0.00110636 -0.000413182 0.000318813)
(-0.00104102 -0.000541312 0.000219941)
(-0.000972806 -0.000611547 0.00014594)
(-0.000901768 -0.000634349 8.94263e-05)
(-0.000829184 -0.000619247 5.01186e-05)
(-0.000756827 -0.000575779 2.95816e-05)
(-0.000686334 -0.000512288 2.80147e-05)
(-0.000618881 -0.000435882 4.30555e-05)
(-0.00055557 -0.000352476 7.08802e-05)
(-0.000496972 -0.000266543 0.000106961)
(-0.000443071 -0.000181408 0.00014693)
(-0.000393559 -9.94382e-05 0.000186953)
(-0.000347873 -2.22874e-05 0.000224185)
(-0.000305564 4.8814e-05 0.000256429)
(-0.000266179 0.000112841 0.000281976)
(-0.000229018 0.000169041 0.000299292)
(-0.000193819 0.000215963 0.000306877)
(-0.000160079 0.000251872 0.000303064)
(-0.000126773 0.000274366 0.000282977)
(-9.24091e-05 0.000280241 0.000234526)
(-6.32162e-05 0.000265478 0.0001601)
(-3.30444e-05 0.000198257 8.97116e-05)
(1.4832e-06 0.00090116 0.000668326)
(3.67436e-05 0.0012803 0.000975589)
(8.02216e-05 0.00139957 0.00106975)
(0.00014531 0.00140688 0.00109844)
(0.000211285 0.00131024 0.0010698)
(0.000272249 0.00112809 0.000987534)
(0.00032416 0.000886253 0.000863579)
(0.000366106 0.000613008 0.000713322)
(0.000396654 0.000336065 0.000552646)
(0.000415681 7.84738e-05 0.000395126)
(0.000422224 -0.000142354 0.000252002)
(0.000416495 -0.000317782 0.000129956)
(0.000399446 -0.000445829 3.24458e-05)
(0.000372387 -0.000527573 -3.86448e-05)
(0.000337386 -0.00056644 -8.27374e-05)
(0.000296956 -0.000568598 -0.000101516)
(0.000253064 -0.000541895 -9.8107e-05)
(0.000207844 -0.000494581 -7.63826e-05)
(0.000163087 -0.000433836 -4.02145e-05)
(0.000120117 -0.000365836 6.23356e-06)
(8.01015e-05 -0.000295407 5.88668e-05)
(4.39786e-05 -0.000225952 0.000113856)
(1.22801e-05 -0.000159631 0.000168021)
(-1.46364e-05 -9.76579e-05 0.00021878)
(-3.6453e-05 -4.04066e-05 0.000264276)
(-5.30889e-05 1.20968e-05 0.000303082)
(-6.46242e-05 5.99903e-05 0.000334212)
(-7.14035e-05 0.000103193 0.000356666)
(-7.38045e-05 0.000141404 0.000369468)
(-7.21375e-05 0.000173546 0.000371505)
(-6.66745e-05 0.000198063 0.000361672)
(-5.74758e-05 0.000212769 0.000335537)
(-4.42301e-05 0.000215164 0.000282065)
(-3.14335e-05 0.000199228 0.000202019)
(-1.54536e-05 0.000126972 0.000113384)
(3.76573e-05 0.000127838 0.000389112)
(9.4907e-05 0.000159508 0.000487387)
(0.000158287 0.000168773 0.000486279)
(0.000244325 0.000161833 0.000470904)
(0.000327623 0.000139126 0.000447309)
(0.000402512 0.000105559 0.000413448)
(0.000465838 6.8888e-05 0.000371629)
(0.000515545 3.57635e-05 0.000324933)
(0.000549538 1.13243e-05 0.000276501)
(0.000566761 -1.6705e-06 0.000228599)
(0.00056751 -1.76428e-06 0.000183313)
(0.000552913 1.19465e-05 0.000143024)
(0.00052456 3.89285e-05 0.00011099)
(0.00048474 7.65904e-05 8.90908e-05)
(0.000436234 0.000120461 7.76497e-05)
(0.000382248 0.000165985 7.51774e-05)
(0.000325726 0.000209422 7.94981e-05)
(0.000269154 0.000248037 8.89878e-05)
(0.000214186 0.000279688 0.00010226)
(0.000161989 0.000303243 0.000118345)
(0.000113308 0.0003182 0.000136332)
(6.88091e-05 0.000324999 0.000155477)
(2.88884e-05 0.00032476 0.000174844)
(-6.07635e-06 0.000319125 0.00019368)
(-3.57819e-05 0.000309785 0.000211123)
(-5.98087e-05 0.000298717 0.000226431)
(-7.76708e-05 0.000287558 0.000238542)
(-8.91571e-05 0.000277537 0.000246617)
(-9.43916e-05 0.000268755 0.000249502)
(-9.37567e-05 0.000260492 0.000246182)
(-8.76692e-05 0.000250978 0.000235196)
(-7.65122e-05 0.000238078 0.000212599)
(-6.02431e-05 0.000219081 0.000168105)
(-4.45065e-05 0.000185314 0.000103233)
(-2.31495e-05 8.17558e-05 4.27765e-05)
(6.0903e-06 -9.29622e-05 0.000361459)
(1.97619e-05 -2.95488e-05 0.000367364)
(2.50652e-05 -7.76699e-06 0.000323683)
(3.383e-05 -6.31507e-07 0.000286459)
(4.07038e-05 -6.45927e-06 0.000263779)
(4.44078e-05 -2.54336e-05 0.000250535)
(4.48146e-05 -5.05154e-05 0.000239983)
(4.23521e-05 -6.83155e-05 0.000223906)
(3.77821e-05 -6.69937e-05 0.00019728)
(3.20782e-05 -4.07397e-05 0.0001598)
(2.63123e-05 1.11452e-05 0.000114371)
(2.14391e-05 8.42091e-05 6.48586e-05)
(1.8287e-05 0.000170437 1.56277e-05)
(1.72607e-05 0.000258653 -2.88533e-05)
(1.82984e-05 0.000337638 -6.42925e-05)
(2.08363e-05 0.000400988 -8.93701e-05)
(2.50619e-05 0.000451068 -0.000106213)
(3.03388e-05 0.00048914 -0.000116149)
(3.61285e-05 0.00051661 -0.000119733)
(4.17516e-05 0.00053405 -0.000117572)
(4.6621e-05 0.000542215 -0.000109948)
(5.01132e-05 0.000541154 -9.75157e-05)
(5.18325e-05 0.000531092 -8.05705e-05)
(5.13585e-05 0.000511522 -6.01444e-05)
(4.87797e-05 0.000482776 -3.7455e-05)
(4.39604e-05 0.000443716 -1.40648e-05)
(3.7058e-05 0.000396473 8.54288e-06)
(2.88586e-05 0.000345988 2.80559e-05)
(1.99646e-05 0.000296885 4.31287e-05)
(1.08969e-05 0.000250733 5.2527e-05)
(2.32608e-06 0.000208474 5.51252e-05)
(-4.98383e-06 0.000169671 4.68117e-05)
(-9.38505e-06 0.000134403 1.8232e-05)
(-1.05899e-05 9.10116e-05 -3.02133e-05)
(-7.44459e-06 -2.40866e-05 -6.62967e-05)
(-1.03702e-05 -0.000160049 0.000246511)
(-1.74437e-05 -6.29268e-05 0.000287869)
(-2.87927e-05 -2.19429e-05 0.000282618)
(-4.29561e-05 8.61382e-06 0.0002673)
(-5.78322e-05 3.18056e-05 0.000245748)
(-7.38042e-05 5.12031e-05 0.00021652)
(-9.1422e-05 6.91057e-05 0.000179434)
(-0.000110166 8.81386e-05 0.000137098)
(-0.000128772 0.000109424 9.36159e-05)
(-0.00014544 0.000134006 5.27183e-05)
(-0.000158505 0.000161431 1.59883e-05)
(-0.000166416 0.000191516 -1.65786e-05)
(-0.00016807 0.000223257 -4.61401e-05)
(-0.000163004 0.000256171 -7.29826e-05)
(-0.000151804 0.000289009 -9.70661e-05)
(-0.000135662 0.000321161 -0.000117411)
(-0.000115895 0.000351456 -0.000133567)
(-9.37085e-05 0.000379532 -0.000144901)
(-7.01663e-05 0.000404484 -0.000151514)
(-4.61606e-05 0.000426274 -0.000153031)
(-2.26096e-05 0.000444157 -0.000149667)
(-3.17281e-07 0.000458285 -0.00014106)
(1.99312e-05 0.000468007 -0.000127572)
(3.74083e-05 0.000473646 -0.000109175)
(5.13927e-05 0.000474641 -8.68356e-05)
(6.12304e-05 0.000471533 -6.13003e-05)
(6.63251e-05 0.000463706 -3.44868e-05)
(6.64525e-05 0.00045166 -8.22587e-06)
(6.19792e-05 0.000434736 1.47476e-05)
(5.35454e-05 0.000412795 3.23193e-05)
(4.21779e-05 0.000383869 4.17394e-05)
(2.89005e-05 0.000345783 3.90038e-05)
(1.58194e-05 0.000293832 1.64285e-05)
(6.93634e-06 0.000221663 -2.468e-05)
(1.29545e-06 4.81823e-05 -6.56084e-05)
(-1.54681e-05 -0.000130549 0.000180338)
(-2.95723e-05 -3.10625e-05 0.000250194)
(-4.58858e-05 9.828e-06 0.000270964)
(-6.65205e-05 3.98516e-05 0.000274683)
(-8.60946e-05 6.31702e-05 0.000264944)
(-0.000104235 8.18905e-05 0.000242964)
(-0.000120742 9.83231e-05 0.000209709)
(-0.000135176 0.000113391 0.000167239)
(-0.000146946 0.000128504 0.000120055)
(-0.000155608 0.000143883 7.30636e-05)
(-0.000160947 0.000160382 3.01397e-05)
(-0.000162901 0.000177652 -6.95281e-06)
(-0.000161536 0.00019604 -3.77237e-05)
(-0.000157019 0.000214866 -6.2898e-05)
(-0.0001496 0.000234238 -8.29392e-05)
(-0.000139631 0.000253317 -9.8544e-05)
(-0.000127501 0.00027226 -0.00010982)
(-0.000113649 0.000290259 -0.000117096)
(-9.85356e-05 0.000307531 -0.000120154)
(-8.2675e-05 0.000323257 -0.000119084)
(-6.65922e-05 0.000337725 -0.000113439)
(-5.08012e-05 0.00035008 -0.000103174)
(-3.58114e-05 0.000360691 -8.78207e-05)
(-2.211e-05 0.000368678 -6.76297e-05)
(-1.01351e-05 0.000374464 -4.28084e-05)
(-2.71673e-07 0.000377022 -1.47861e-05)
(7.22845e-06 0.000376763 1.46514e-05)
(1.22743e-05 0.000372525 4.24252e-05)
(1.49381e-05 0.000364385 6.58438e-05)
(1.549e-05 0.000350478 8.20794e-05)
(1.42441e-05 0.000329832 8.95443e-05)
(1.15824e-05 0.000298948 8.57344e-05)
(7.98118e-06 0.000254593 6.71523e-05)
(4.97049e-06 0.000189879 3.41512e-05)
(2.26514e-06 3.07431e-05 -1.51493e-05)
(-1.24868e-05 -0.000102999 0.000129443)
(-2.41384e-05 -8.61107e-06 0.000212938)
(-3.84696e-05 2.97204e-05 0.000247374)
(-5.65987e-05 5.76266e-05 0.000262206)
(-7.36369e-05 7.85542e-05 0.000260403)
(-8.91253e-05 9.49131e-05 0.000245016)
(-0.00010282 0.000108096 0.000217769)
(-0.000114377 0.000119331 0.000180989)
(-0.000123343 0.000129147 0.000138576)
(-0.000129473 0.000138274 9.51653e-05)
(-0.000132634 0.000146891 5.46235e-05)
(-0.000132927 0.000155554 1.91509e-05)
(-0.00013047 0.000164291 -1.06791e-05)
(-0.000125519 0.000173486 -3.49742e-05)
(-0.0001183 0.000183011 -5.42208e-05)
(-0.000109151 0.000193197 -6.88748e-05)
(-9.8366e-05 0.000203765 -7.92414e-05)
(-8.63501e-05 0.000214954 -8.54677e-05)
(-7.34414e-05 0.000226342 -8.75518e-05)
(-6.00842e-05 0.000238087 -8.53533e-05)
(-4.6656e-05 0.000249631 -7.86111e-05)
(-3.36163e-05 0.000261071 -6.69785e-05)
(-2.13397e-05 0.000271719 -5.01273e-05)
(-1.02636e-05 0.000281606 -2.79034e-05)
(-7.24961e-07 0.000289914 -6.41491e-07)
(6.93941e-06 0.000296571 3.05053e-05)
(1.25445e-05 0.000300563 6.3265e-05)
(1.60169e-05 0.000301591 9.44493e-05)
(1.74716e-05 0.00029826 0.000120537)
(1.7148e-05 0.000289705 0.000138638)
(1.5331e-05 0.000273708 0.000146661)
(1.22794e-05 0.000248077 0.000142559)
(8.31627e-06 0.000208883 0.000122821)
(4.86143e-06 0.000151156 8.69398e-05)
(2.76143e-06 8.73632e-06 2.11394e-05)
(-1.04724e-05 -0.000101654 6.86722e-05)
(-2.086e-05 -2.00048e-05 0.000151199)
(-3.45746e-05 1.21577e-05 0.000191833)
(-5.18637e-05 3.43122e-05 0.000212148)
(-6.82565e-05 4.97134e-05 0.000214014)
(-8.29783e-05 6.01417e-05 0.00020151)
(-9.56753e-05 6.71718e-05 0.000177044)
(-0.00010588 7.16543e-05 0.000142953)
(-0.000113169 7.45094e-05 0.000102796)
(-0.00011726 7.62106e-05 6.07009e-05)
(-0.000118111 7.74462e-05 2.04757e-05)
(-0.000115827 7.85496e-05 -1.54986e-05)
(-0.000110661 8.00977e-05 -4.61531e-05)
(-0.000102904 8.22512e-05 -7.1296e-05)
(-9.29495e-05 8.54729e-05 -9.10416e-05)
(-8.11484e-05 8.97925e-05 -0.000105692)
(-6.79589e-05 9.55324e-05 -0.000115415)
(-5.378e-05 0.000102554 -0.000120336)
(-3.91015e-05 0.000111028 -0.000120439)
(-2.43431e-05 0.00012062 -0.000115627)
(-1.00257e-05 0.000131327 -0.000105699)
(3.44957e-06 0.000142659 -9.04129e-05)
(1.5571e-05 0.000154448 -6.95721e-05)
(2.59649e-05 0.000166046 -4.31478e-05)
(3.41945e-05 0.00017712 -1.16187e-05)
(4.00121e-05 0.00018684 2.3712e-05)
(4.31901e-05 0.000194678 6.03687e-05)
(4.37509e-05 0.00019961 9.50019e-05)
(4.18282e-05 0.000200824 0.000123911)
(3.77726e-05 0.000196881 0.000144101)
(3.19398e-05 0.000186378 0.000153225)
(2.46581e-05 0.000166911 0.00014875)
(1.6465e-05 0.000135791 0.000126255)
(9.63168e-06 8.8552e-05 8.51352e-05)
(4.95227e-06 -2.95439e-05 1.15269e-05)
(-8.60126e-06 -7.86449e-05 5.82694e-06)
(-1.9619e-05 7.74229e-06 8.13941e-05)
(-3.53436e-05 4.08291e-05 0.000126307)
(-5.58193e-05 6.14107e-05 0.000149481)
(-7.56739e-05 7.25265e-05 0.00015129)
(-9.3582e-05 7.64923e-05 0.00013728)
(-0.000108888 7.49106e-05 0.000110459)
(-0.000120872 6.93774e-05 7.34969e-05)
(-0.000128955 6.09702e-05 2.96861e-05)
(-0.000132776 5.09787e-05 -1.69211e-05)
(-0.000132251 4.01935e-05 -6.2549e-05)
(-0.00012752 2.97764e-05 -0.000104248)
(-0.000118909 2.03189e-05 -0.000140493)
(-0.000106859 1.27306e-05 -0.000170439)
(-9.19037e-05 7.32392e-06 -0.000193977)
(-7.46235e-05 4.78029e-06 -0.000211007)
(-5.56423e-05 5.17762e-06 -0.000221698)
(-3.5583e-05 8.93591e-06 -0.000226039)
(-1.51046e-05 1.58504e-05 -0.000224104)
(5.10665e-06 2.60493e-05 -0.000215726)
(2.4403e-05 3.90747e-05 -0.000200833)
(4.20931e-05 5.47564e-05 -0.000179212)
(5.75429e-05 7.2381e-05 -0.000150919)
(7.01039e-05 9.1474e-05 -0.000116203)
(7.92642e-05 0.00011105 -7.59887e-05)
(8.45852e-05 0.000130243 -3.20228e-05)
(8.5882e-05 0.000147721 1.27451e-05)
(8.31566e-05 0.000162338 5.47203e-05)
(7.67203e-05 0.000172509 8.99561e-05)
(6.70569e-05 0.000176696 0.000115277)
(5.48245e-05 0.000172933 0.000128151)
(4.06286e-05 0.000158931 0.000125398)
(2.5609e-05 0.000131733 0.000101533)
(1.39286e-05 8.73344e-05 5.65093e-05)
(5.92499e-06 -2.67239e-05 -1.6404e-05)
(-9.13864e-06 -2.86339e-05 -4.9815e-05)
(-2.34101e-05 8.15088e-05 1.39472e-05)
(-4.29598e-05 0.000122226 5.88651e-05)
(-6.88867e-05 0.00014357 8.04559e-05)
(-9.41291e-05 0.000149716 7.79278e-05)
(-0.000116743 0.000143628 5.75323e-05)
(-0.000135698 0.000128299 2.28672e-05)
(-0.000150049 0.000105951 -2.35418e-05)
(-0.000158985 7.91282e-05 -7.8179e-05)
(-0.000162098 4.97635e-05 -0.000136703)
(-0.000159423 2.00016e-05 -0.000194671)
(-0.00015139 -8.71357e-06 -0.000248473)
(-0.000138676 -3.47314e-05 -0.000295631)
(-0.000122081 -5.71342e-05 -0.000334832)
(-0.000102392 -7.48126e-05 -0.000365492)
(-8.03512e-05 -8.7325e-05 -0.000387554)
(-5.66213e-05 -9.39549e-05 -0.000401136)
(-3.18578e-05 -9.4594e-05 -0.000406382)
(-6.66155e-06 -8.88897e-05 -0.00040329)
(1.83254e-05 -7.70851e-05 -0.000391698)
(4.24851e-05 -5.91997e-05 -0.000371278)
(6.51844e-05 -3.58172e-05 -0.000341635)
(8.56992e-05 -7.32176e-06 -0.000302607)
(0.000103085 2.52446e-05 -0.000254832)
(0.00011617 6.06931e-05 -0.000200117)
(0.00012391 9.7051e-05 -0.000141401)
(0.000125733 0.000132445 -8.25242e-05)
(0.000121631 0.000164563 -2.7853e-05)
(0.000112015 0.000191118 1.84719e-05)
(9.76569e-05 0.000209281 5.30791e-05)
(7.9503e-05 0.000216326 7.33903e-05)
(5.85919e-05 0.000208967 7.60277e-05)
(3.66642e-05 0.000183711 5.51938e-05)
(1.99727e-05 0.00013584 1.17767e-05)
(7.7357e-06 7.35645e-06 -5.10687e-05)
(-9.94987e-06 7.0112e-05 -6.1579e-05)
(-2.65553e-05 0.000225983 -1.10465e-05)
(-4.79899e-05 0.000281882 2.66306e-05)
(-7.64283e-05 0.000307252 4.08555e-05)
(-0.000103566 0.000308011 2.99993e-05)
(-0.000127098 0.000289104 -7.34641e-07)
(-0.000145549 0.000255093 -4.84906e-05)
(-0.000157541 0.000210307 -0.00011117)
(-0.000162189 0.000158666 -0.000185231)
(-0.000159754 0.000104799 -0.00026463)
(-0.000151531 5.27989e-05 -0.000342272)
(-0.000138974 6.09391e-06 -0.000412164)
(-0.000123412 -3.30661e-05 -0.000470658)
(-0.00010572 -6.41932e-05 -0.000517003)
(-8.65326e-05 -8.77862e-05 -0.000551935)
(-6.61839e-05 -0.000104241 -0.000576517)
(-4.49429e-05 -0.000114165 -0.000591566)
(-2.31992e-05 -0.000117491 -0.000597576)
(-1.19361e-06 -0.000114391 -0.000594618)
(2.07053e-05 -0.00010503 -0.000582462)
(4.22674e-05 -8.93913e-05 -0.000560223)
(6.3291e-05 -6.75698e-05 -0.000526975)
(8.31248e-05 -3.89301e-05 -0.000481868)
(0.000101433 7.93664e-07 -0.000423621)
(0.000117394 5.35524e-05 -0.000352718)
(0.00012942 0.000115013 -0.000273177)
(0.000135547 0.000177258 -0.000191799)
(0.000134875 0.000235967 -0.000115796)
(0.000126769 0.000286693 -5.15301e-05)
(0.000111942 0.000324939 -2.71601e-06)
(9.19792e-05 0.00034643 2.8755e-05)
(6.82433e-05 0.000346329 4.04413e-05)
(4.29949e-05 0.00031951 2.76488e-05)
(2.38107e-05 0.00025977 -7.93848e-06)
(8.89439e-06 9.28853e-05 -5.75541e-05)
(-8.995e-06 0.000174568 -4.20775e-05)
(-2.41945e-05 0.000374144 -5.61754e-06)
(-4.28497e-05 0.000442821 1.912e-05)
(-6.75201e-05 0.000468822 2.23214e-05)
(-9.05635e-05 0.000459635 1.52046e-06)
(-0.000109569 0.000421973 -4.07087e-05)
(-0.000123231 0.000361462 -0.000103711)
(-0.000129554 0.000283495 -0.000185166)
(-0.000128785 0.000202495 -0.000277536)
(-0.000122425 0.000132884 -0.000369696)
(-0.000112233 8.14133e-05 -0.000452722)
(-9.98693e-05 4.75538e-05 -0.000521561)
(-8.64293e-05 2.56291e-05 -0.000575164)
(-7.20269e-05 8.17447e-06 -0.000615591)
(-5.71955e-05 -5.85344e-06 -0.000644551)
(-4.19179e-05 -1.59942e-05 -0.000663832)
(-2.62207e-05 -2.21171e-05 -0.000675163)
(-1.03306e-05 -2.40385e-05 -0.000679381)
(5.58775e-06 -2.17791e-05 -0.000676876)
(2.13329e-05 -1.55003e-05 -0.000667293)
(3.66804e-05 -5.57052e-06 -0.000649791)
(5.15848e-05 7.65249e-06 -0.000622709)
(6.5928e-05 2.34112e-05 -0.000584494)
(7.93792e-05 4.39456e-05 -0.000532999)
(9.20524e-05 7.7417e-05 -0.000465714)
(0.000103174 0.000129994 -0.000383275)
(0.000111028 0.000202258 -0.000290569)
(0.000113763 0.000287837 -0.000196508)
(0.000109794 0.000371587 -0.000112794)
(9.83701e-05 0.000436451 -4.79798e-05)
(8.17234e-05 0.000476692 -4.45104e-06)
(6.11598e-05 0.000487211 1.75576e-05)
(3.88331e-05 0.000461065 1.58498e-05)
(2.19071e-05 0.000390811 -7.01633e-06)
(8.05363e-06 0.000185655 -4.19826e-05)
(-6.82971e-06 0.00026221 -2.59836e-05)
(-1.89577e-05 0.000497669 -1.13218e-06)
(-3.39079e-05 0.000578287 1.3122e-05)
(-5.37575e-05 0.000606893 8.05249e-06)
(-7.24195e-05 0.000592567 -1.93088e-05)
(-8.83679e-05 0.000541672 -6.88194e-05)
(-9.88798e-05 0.000459829 -0.000140319)
(-0.000104023 0.000368723 -0.000226883)
(-0.000104515 0.000287868 -0.000317549)
(-0.00010125 0.000227074 -0.000402095)
(-9.49268e-05 0.000187642 -0.000474329)
(-8.61783e-05 0.000164397 -0.000531896)
(-7.54991e-05 0.000149048 -0.000575588)
(-6.2964e-05 0.000134507 -0.000608268)
(-4.94541e-05 0.000122084 -0.000631105)
(-3.49551e-05 0.000112566 -0.00064606)
(-1.97976e-05 0.000106658 -0.000654571)
(-4.30217e-06 0.000104715 -0.000657439)
(1.12138e-05 0.000106874 -0.000654899)
(2.64271e-05 0.000112943 -0.000646759)
(4.09945e-05 0.000122508 -0.000632271)
(5.45556e-05 0.000134807 -0.000610078)
(6.71032e-05 0.00014896 -0.000578351)
(7.77017e-05 0.000163607 -0.000536055)
(8.6378e-05 0.000186356 -0.000480128)
(9.27064e-05 0.000225804 -0.000409507)
(9.61382e-05 0.000287255 -0.000326242)
(9.60634e-05 0.000369419 -0.000236178)
(9.16782e-05 0.000462607 -0.000149357)
(8.22669e-05 0.000546877 -7.70509e-05)
(6.75035e-05 0.000599441 -2.6747e-05)
(5.01272e-05 0.000614574 1.41995e-06)
(3.15921e-05 0.0005861 7.55354e-06)
(1.76056e-05 0.000504855 -5.33982e-06)
(6.24743e-06 0.00026649 -2.85492e-05)
(-6.17912e-06 0.000336796 -1.51534e-05)
(-1.69855e-05 0.000604802 4.67126e-06)
(-3.03878e-05 0.000697621 1.42274e-05)
(-4.8299e-05 0.000731609 5.83206e-06)
(-6.58526e-05 0.000716968 -2.34499e-05)
(-8.12739e-05 0.000659604 -7.40053e-05)
(-9.2418e-05 0.000571575 -0.000144051)
(-9.99257e-05 0.000478792 -0.000225172)
(-0.000103505 0.000399503 -0.00030715)
(-0.000102899 0.000340143 -0.000382734)
(-9.83472e-05 0.000300845 -0.000447572)
(-9.02339e-05 0.000276305 -0.000499824)
(-7.92944e-05 0.000259185 -0.000539838)
(-6.59307e-05 0.000243059 -0.000569849)
(-5.12622e-05 0.000229271 -0.000590717)
(-3.5462e-05 0.000218724 -0.000604261)
(-1.89254e-05 0.000212159 -0.000611922)
(-2.02624e-06 0.000209949 -0.000614447)
(1.4883e-05 0.000212268 -0.000612066)
(3.14455e-05 0.000218921 -0.000604576)
(4.72828e-05 0.000229516 -0.000591261)
(6.19896e-05 0.00024329 -0.000570725)
(7.53908e-05 0.000259313 -0.00054122)
(8.63489e-05 0.000276212 -0.000501985)
(9.44665e-05 0.000300512 -0.000450777)
(9.90386e-05 0.000339713 -0.000387138)
(9.97231e-05 0.00039923 -0.00031271)
(9.63124e-05 0.000478975 -0.000231638)
(8.90955e-05 0.000572521 -0.000150979)
(7.83878e-05 0.000661596 -8.09144e-05)
(6.3529e-05 0.00072006 -3.00577e-05)
(4.65701e-05 0.0007353 -3.19201e-07)
(2.92799e-05 0.000701449 8.79651e-06)
(1.63521e-05 0.000608353 2.65521e-07)
(5.88889e-06 0.000338416 -1.80174e-05)
(-5.91229e-06 0.000406661 -2.67948e-06)
(-1.59894e-05 0.000706569 1.79306e-05)
(-2.86421e-05 0.000812645 2.69694e-05)
(-4.57913e-05 0.000854631 1.88826e-05)
(-6.30505e-05 0.000843135 -9.01416e-06)
(-7.85906e-05 0.000784531 -5.68711e-05)
(-9.09209e-05 0.000696195 -0.000121768)
(-0.000100102 0.000603243 -0.000195854)
(-0.000105375 0.000522014 -0.000270591)
(-0.000106124 0.000458493 -0.000340035)
(-0.000102386 0.000412875 -0.000400722)
(-9.4506e-05 0.000381127 -0.000450675)
(-8.32633e-05 0.000357644 -0.000489428)
(-6.92862e-05 0.000337439 -0.00051833)
(-5.36534e-05 0.000320626 -0.000538385)
(-3.68054e-05 0.000308002 -0.000551288)
(-1.91474e-05 0.00030021 -0.000558511)
(-1.09605e-06 0.000297589 -0.00056086)
(1.69603e-05 0.000300294 -0.00055856)
(3.46309e-05 0.000308163 -0.000551403)
(5.14969e-05 0.000320851 -0.000538606)
(6.71517e-05 0.000337706 -0.000518721)
(8.11557e-05 0.000357922 -0.000490091)
(9.24234e-05 0.000381355 -0.000451771)
(0.000100327 0.000413033 -0.000402426)
(0.000104099 0.000458632 -0.000342481)
(0.000103409 0.000522237 -0.000273828)
(9.82334e-05 0.00060369 -0.000199815)
(8.92036e-05 0.000697031 -0.00012625)
(7.70785e-05 0.000785936 -6.15876e-05)
(6.1819e-05 0.000845198 -1.37228e-05)
(4.48695e-05 0.000857057 1.43638e-05)
(2.80476e-05 0.00081516 2.28998e-05)
(1.56567e-05 0.000708921 1.45918e-05)
(5.75313e-06 0.000407405 -4.83545e-06)
(-6.2173e-06 0.000468235 1.35086e-05)
(-1.5979e-05 0.000796785 3.96197e-05)
(-2.82537e-05 0.000915386 5.08072e-05)
(-4.49601e-05 0.000965773 4.50886e-05)
(-6.1994e-05 0.000958994 2.0291e-05)
(-7.76663e-05 0.000901951 -2.331e-05)
(-9.07605e-05 0.00081416 -8.26181e-05)
(-0.000100944 0.000719731 -0.000150499)
(-0.000107239 0.000633822 -0.000219666)
(-0.000108887 0.000562334 -0.000285067)
(-0.000105791 0.000506563 -0.00034331)
(-9.82222e-05 0.000464285 -0.000392158)
(-8.68903e-05 0.000431675 -0.000430583)
(-7.25592e-05 0.000405197 -0.000459074)
(-5.61701e-05 0.00038385 -0.000478841)
(-3.84452e-05 0.000368198 -0.00049138)
(-1.98187e-05 0.000358638 -0.000498321)
(-7.56883e-07 0.000355433 -0.00050056)
(1.83097e-05 0.000358697 -0.000498356)
(3.69436e-05 0.000368315 -0.000491458)
(5.468e-05 0.000384022 -0.000478982)
(7.1089e-05 0.000405417 -0.000459311)
(8.54472e-05 0.000431935 -0.00043097)
(9.68047e-05 0.000464558 -0.000392788)
(0.000104404 0.000506847 -0.000344283)
(0.000107538 0.000562651 -0.000286483)
(0.000105945 0.00063422 -0.000221586)
(9.97272e-05 0.000720283 -0.000152922)
(8.96476e-05 0.000814954 -8.54587e-05)
(7.66912e-05 0.000903097 -2.64056e-05)
(6.12016e-05 0.000960556 1.71172e-05)
(4.43684e-05 0.000967571 4.19971e-05)
(2.7877e-05 0.000917248 4.80183e-05)
(1.5779e-05 0.000798558 3.73627e-05)
(6.11962e-06 0.00046858 1.20921e-05)
(-6.52787e-06 0.000522404 3.03653e-05)
(-1.59822e-05 0.000875218 6.40578e-05)
(-2.78818e-05 0.00100492 7.84822e-05)
(-4.40802e-05 0.00106328 7.57512e-05)
(-6.06621e-05 0.00106179 5.42838e-05)
(-7.61328e-05 0.00100775 1.47116e-05)
(-8.94333e-05 0.000920993 -3.98542e-05)
(-0.000100081 0.000824419 -0.000102813)
(-0.000106994 0.000732437 -0.000167568)
(-0.000109349 0.000651235 -0.000229528)
(-0.00010694 0.000583211 -0.000285545)
(-9.99228e-05 0.00052792 -0.00033331)
(-8.88651e-05 0.000483655 -0.000371376)
(-7.45878e-05 0.000448427 -0.000399571)
(-5.78196e-05 0.00042076 -0.000419373)
(-3.95613e-05 0.000400836 -0.000431864)
(-2.031e-05 0.000388827 -0.000438667)
(-5.76961e-07 0.000384818 -0.000440837)
(1.91587e-05 0.000388861 -0.000438689)
(3.84152e-05 0.000400903 -0.000431913)
(5.6688e-05 0.000420861 -0.000419457)
(7.34731e-05 0.000448561 -0.000399708)
(8.77685e-05 0.00048382 -0.000371595)
(9.88522e-05 0.000528119 -0.000333658)
(0.000105898 0.000583451 -0.000286083)
(0.000108342 0.000651531 -0.000230321)
(0.000106039 0.000732815 -0.00016867)
(9.91924e-05 0.000824917 -0.000104247)
(8.86283e-05 0.000921664 -4.15903e-05)
(7.54347e-05 0.00100866 1.27638e-05)
(6.00975e-05 0.00106297 5.22448e-05)
(4.36638e-05 0.00106463 7.37454e-05)
(2.76197e-05 0.00100633 7.668e-05)
(1.58467e-05 0.000876599 6.26335e-05)
(6.46114e-06 0.000522497 2.94839e-05)
(-6.71606e-06 0.000566803 4.34742e-05)
(-1.58111e-05 0.00093847 8.37995e-05)
(-2.73463e-05 0.00107713 0.000101121)
(-4.29874e-05 0.00114228 0.000100887)
(-5.89851e-05 0.00114573 8.19506e-05)
(-7.3997e-05 0.0010951 4.52322e-05)
(-8.7075e-05 0.00100974 -6.05231e-06)
(-9.77067e-05 0.000911216 -6.54995e-05)
(-0.000104809 0.000813188 -0.000126868)
(-0.000107552 0.000722114 -0.000185895)
(-0.000105679 0.000641412 -0.000239645)
(-9.92565e-05 0.000572244 -0.000285929)
(-8.87242e-05 0.000514765 -0.000323315)
(-7.48061e-05 0.000468575 -0.000351394)
(-5.81797e-05 0.000433134 -0.000371145)
(-3.97951e-05 0.000408056 -0.000383732)
(-2.03673e-05 0.000393106 -0.000390529)