/*--------------------------------*- C++ -*----------------------------------*\
| =========                 |                                                 |
| \\      /  F ield         | OpenFOAM: The Open Source CFD Toolbox           |
|  \\    /   O peration     | Version:  v2012                                 |
|   \\  /    A nd           | Website:  www.openfoam.com                      |
|    \\/     M anipulation  |                                                 |
\*---------------------------------------------------------------------------*/
FoamFile
{
    version     2.0;
    format      ascii;
    class       surfaceScalarField;
    location    "33";
    object      phi;
}
// * * * * * * * * * * * * * * * * * * * * * * * * * * * * * * * * * * * * * //

dimensions      [1 0 -1 0 0 0 0];
oriented        oriented;


internalField   nonuniform List<scalar> 
228225
(
-6.16262e-09
8.87709e-09
-2.9603e-09
-2.24245e-08
2.49979e-08
-8.73733e-09
-4.60162e-08
3.42205e-08
-1.06292e-08
-7.58721e-08
4.145e-08
-1.15922e-08
-1.10674e-07
4.70041e-08
-1.22022e-08
-1.48873e-07
5.08596e-08
-1.26598e-08
-1.89063e-07
5.32331e-08
-1.30452e-08
-2.29819e-07
5.41789e-08
-1.34193e-08
-2.69949e-07
5.39414e-08
-1.38115e-08
-3.0838e-07
5.26991e-08
-1.42715e-08
-3.44281e-07
5.07286e-08
-1.4824e-08
-3.76947e-07
4.81693e-08
-1.55053e-08
-4.05811e-07
4.51867e-08
-1.63225e-08
-4.3035e-07
4.1824e-08
-1.72849e-08
-4.50178e-07
3.82059e-08
-1.83793e-08
-4.64976e-07
3.44073e-08
-1.9608e-08
-4.74623e-07
3.05293e-08
-2.08818e-08
-4.78985e-07
2.65973e-08
-2.22357e-08
-4.78045e-07
2.26926e-08
-2.36322e-08
-4.71862e-07
1.88456e-08
-2.50283e-08
-4.60575e-07
1.51013e-08
-2.63889e-08
-4.44377e-07
1.14831e-08
-2.76829e-08
-4.23515e-07
8.02041e-09
-2.88775e-08
-3.98306e-07
4.73075e-09
-2.99433e-08
-3.69089e-07
1.63617e-09
-3.08514e-08
-3.36269e-07
-1.24632e-09
-3.15748e-08
-3.00283e-07
-3.89751e-09
-3.20875e-08
-2.61633e-07
-6.28639e-09
-3.2363e-08
-2.2088e-07
-8.37988e-09
-3.23737e-08
-1.78669e-07
-1.01284e-08
-3.20817e-08
-1.35783e-07
-1.14669e-08
-3.14213e-08
-9.32585e-08
-1.22853e-08
-3.02362e-08
-5.27748e-08
-1.2381e-08
-2.81019e-08
-1.75784e-08
-1.14185e-08
-2.37803e-08
-7.10466e-09
-1.04726e-08
-1.83115e-08
4.7643e-08
-2.04555e-08
-5.84598e-08
8.67493e-08
-2.16023e-08
-1.05876e-07
1.0394e-07
-2.23049e-08
-1.56293e-07
1.15357e-07
-2.34871e-08
-2.06627e-07
1.21992e-07
-2.46559e-08
-2.54672e-07
1.24622e-07
-2.5718e-08
-2.98598e-07
1.23892e-07
-2.67324e-08
-3.37081e-07
1.20383e-07
-2.77221e-08
-3.69457e-07
1.15024e-07
-2.87054e-08
-3.95697e-07
1.08589e-07
-2.96497e-08
-4.15991e-07
1.01555e-07
-3.05329e-08
-4.3065e-07
9.41585e-08
-3.13295e-08
-4.3993e-07
8.65165e-08
-3.20504e-08
-4.442e-07
7.88014e-08
-3.27069e-08
-4.43838e-07
7.11485e-08
-3.33065e-08
-4.39239e-07
6.36512e-08
-3.38408e-08
-4.30783e-07
5.63876e-08
-3.43153e-08
-4.18875e-07
4.9416e-08
-3.47259e-08
-4.03899e-07
4.27944e-08
-3.50793e-08
-3.86227e-07
3.6546e-08
-3.53726e-08
-3.66206e-07
3.06887e-08
-3.5607e-08
-3.44174e-07
2.52315e-08
-3.57811e-08
-3.20437e-07
2.01775e-08
-3.58947e-08
-2.95286e-07
1.55257e-08
-3.59455e-08
-2.68992e-07
1.12717e-08
-3.59305e-08
-2.41804e-07
7.41031e-09
-3.58445e-08
-2.13959e-07
3.93699e-09
-3.5679e-08
-1.85673e-07
8.48204e-10
-3.54209e-08
-1.57162e-07
-1.84392e-09
-3.50472e-08
-1.28637e-07
-4.12947e-09
-3.45249e-08
-1.00314e-07
-5.97606e-09
-3.38131e-08
-7.24313e-08
-7.31589e-09
-3.28525e-08
-4.53616e-08
-8.02984e-09
-3.14213e-08
-2.01578e-08
-7.76062e-09
-2.88626e-08
-4.26432e-09
-2.29975e-08
-1.82535e-08
6.91077e-08
-3.21106e-09
-4.39598e-08
1.16463e-07
-4.00725e-09
-7.17386e-08
1.36213e-07
-4.49535e-09
-9.98554e-08
1.487e-07
-5.22555e-09
-1.26972e-07
1.55272e-07
-6.1639e-09
-1.52061e-07
1.5707e-07
-7.35996e-09
-1.74275e-07
1.54911e-07
-8.8054e-09
-1.93092e-07
1.49802e-07
-1.06013e-08
-2.08221e-07
1.42913e-07
-1.27592e-08
-2.1956e-07
1.35059e-07
-1.51322e-08
-2.27244e-07
1.26652e-07
-1.74137e-08
-2.31575e-07
1.17908e-07
-1.94185e-08
-2.3294e-07
1.08971e-07
-2.10899e-08
-2.31754e-07
1.00125e-07
-2.25099e-08
-2.28396e-07
9.14958e-08
-2.37049e-08
-2.23179e-07
8.31621e-08
-2.47292e-08
-2.16377e-07
7.51846e-08
-2.5598e-08
-2.08228e-07
6.75987e-08
-2.63323e-08
-1.98946e-07
6.045e-08
-2.69363e-08
-1.88726e-07
5.37534e-08
-2.74295e-08
-1.77737e-07
4.75192e-08
-2.78184e-08
-1.66122e-07
4.17303e-08
-2.81147e-08
-1.54003e-07
3.63823e-08
-2.83229e-08
-1.41502e-07
3.14757e-08
-2.84509e-08
-1.28728e-07
2.69974e-08
-2.85014e-08
-1.15764e-07
2.29269e-08
-2.84776e-08
-1.02698e-07
1.92474e-08
-2.83789e-08
-8.95858e-08
1.59386e-08
-2.82006e-08
-7.64861e-08
1.29869e-08
-2.79323e-08
-6.34402e-08
1.038e-08
-2.75545e-08
-5.04939e-08
8.11457e-09
-2.70372e-08
-3.76884e-08
6.19503e-09
-2.6317e-08
-2.50995e-08
4.63463e-09
-2.52521e-08
-1.28201e-08
3.4501e-09
-2.34921e-08
2.31727e-09
-1.94003e-08
-1.65859e-08
6.92019e-08
1.6493e-08
-2.77765e-08
1.11241e-07
1.64128e-08
-3.65636e-08
1.29334e-07
1.56638e-08
-4.41941e-08
1.4136e-07
1.49716e-08
-5.149e-08
1.48465e-07
1.41026e-08
-5.89306e-08
1.5147e-07
1.30403e-08
-6.68458e-08
1.51198e-07
1.16285e-08
-7.51737e-08
1.485e-07
9.62994e-09
-8.32644e-08
1.44077e-07
6.92656e-09
-9.03037e-08
1.38341e-07
3.75608e-09
-9.56542e-08
1.31638e-07
3.66507e-10
-9.90403e-08
1.2422e-07
-2.9272e-09
-1.00493e-07
1.16354e-07
-5.9305e-09
-1.00212e-07
1.08323e-07
-8.47816e-09
-9.84964e-08
1.00388e-07
-1.06102e-08
-9.56285e-08
9.27364e-08
-1.244e-08
-9.1902e-08
8.54937e-08
-1.40369e-08
-8.75733e-08
7.87018e-08
-1.54325e-08
-8.28233e-08
7.23639e-08
-1.66626e-08
-7.78188e-08
6.64788e-08
-1.77309e-08
-7.26866e-08
6.10431e-08
-1.8656e-08
-6.75368e-08
5.60255e-08
-1.94458e-08
-6.24515e-08
5.14113e-08
-2.01133e-08
-5.75083e-08
4.71908e-08
-2.06597e-08
-5.27427e-08
4.33284e-08
-2.1095e-08
-4.81838e-08
3.97907e-08
-2.14235e-08
-4.38232e-08
3.65387e-08
-2.16518e-08
-3.9634e-08
3.35312e-08
-2.17828e-08
-3.55406e-08
3.07138e-08
-2.18187e-08
-3.14378e-08
2.80312e-08
-2.17551e-08
-2.71523e-08
2.54099e-08
-2.15821e-08
-2.24215e-08
2.27706e-08
-2.13037e-08
-1.67815e-08
1.99783e-08
-2.09848e-08
-9.68819e-09
1.69385e-08
-2.05803e-08
1.12919e-08
-1.86638e-08
-1.27284e-08
5.89782e-08
2.29524e-08
-1.42289e-08
8.97551e-08
2.29864e-08
-1.11525e-08
1.03988e-07
2.22683e-08
-6.04817e-09
1.14386e-07
2.18703e-08
-3.21567e-10
1.21423e-07
2.13164e-08
5.12335e-09
1.25679e-07
2.03447e-08
9.70872e-09
1.27667e-07
1.8947e-08
1.32903e-08
1.27783e-07
1.7135e-08
1.60114e-08
1.26358e-07
1.49976e-08
1.80673e-08
1.23675e-07
1.26097e-08
1.96475e-08
1.19977e-07
1.00816e-08
2.08946e-08
1.15492e-07
7.47909e-09
2.19276e-08
1.10432e-07
4.89093e-09
2.28412e-08
1.05018e-07
2.39048e-09
2.37115e-08
9.94635e-08
5.58768e-11
2.45112e-08
9.39671e-08
-2.0319e-09
2.51752e-08
8.86965e-08
-3.86635e-09
2.56077e-08
8.37496e-08
-5.48138e-09
2.57352e-08
7.91501e-08
-6.91315e-09
2.54886e-08
7.49055e-08
-8.18051e-09
2.48114e-08
7.10105e-08
-9.29073e-09
2.36524e-08
6.74451e-08
-1.02598e-08
2.19707e-08
6.4185e-08
-1.10928e-08
1.97712e-08
6.11946e-08
-1.18033e-08
1.70684e-08
5.84279e-08
-1.2398e-08
1.39145e-08
5.58344e-08
-1.2889e-08
1.03768e-08
5.33587e-08
-1.32825e-08
6.57049e-09
5.09289e-08
-1.35914e-08
2.64945e-09
4.84592e-08
-1.38251e-08
-1.16658e-09
4.58413e-08
-1.39936e-08
-4.59488e-09
4.29395e-08
-1.41013e-08
-7.20111e-09
3.95735e-08
-1.41977e-08
-8.22398e-09
3.54877e-08
-1.44844e-08
-6.5825e-09
3.03819e-08
-1.50862e-08
1.95928e-08
-1.48835e-08
-6.14642e-09
4.69091e-08
1.82138e-08
-4.30003e-09
6.99051e-08
1.80065e-08
1.47383e-09
8.09475e-08
1.72654e-08
9.5697e-09
8.94294e-08
1.68607e-08
1.90253e-08
9.56327e-08
1.63359e-08
2.91831e-08
9.99456e-08
1.55725e-08
3.95032e-08
1.02758e-07
1.4592e-08
4.95296e-08
1.043e-07
1.34541e-08
5.89114e-08
1.04797e-07
1.21787e-08
6.73676e-08
1.04416e-07
1.08029e-08
7.46717e-08
1.03328e-07
9.34652e-09
8.06371e-08
1.0168e-07
7.8463e-09
8.51332e-08
9.96137e-08
6.32117e-09
8.81139e-08
9.72358e-08
4.80111e-09
8.96189e-08
9.46559e-08
3.30321e-09
8.97569e-08
9.19746e-08
1.85495e-09
8.86934e-08
8.92851e-08
4.7362e-10
8.65884e-08
8.66584e-08
-8.02721e-10
8.3555e-08
8.41479e-08
-1.96536e-09
7.96899e-08
8.1785e-08
-3.01425e-09
7.50743e-08
7.95778e-08
-3.95088e-09
6.97738e-08
7.75215e-08
-4.77742e-09
6.38674e-08
7.55943e-08
-5.50205e-09
5.7424e-08
7.37668e-08
-6.1296e-09
5.05284e-08
7.1994e-08
-6.66896e-09
4.32644e-08
7.02238e-08
-7.12687e-09
3.57527e-08
6.83842e-08
-7.5132e-09
2.81285e-08
6.63903e-08
-7.83907e-09
2.05824e-08
6.41263e-08
-8.11933e-09
1.33433e-08
6.14508e-08
-8.36934e-09
6.7052e-09
5.81672e-08
-8.5919e-09
1.08999e-09
5.40244e-08
-8.83604e-09
-2.77182e-09
4.86749e-08
-9.32406e-09
-3.85933e-09
4.17014e-08
-1.02322e-08
2.64774e-08
-1.07437e-08
-3.09644e-09
3.84719e-08
1.15326e-08
-1.91273e-09
5.83014e-08
1.04209e-08
2.06625e-09
6.76583e-08
9.30854e-09
7.8424e-09
7.49293e-08
8.72588e-09
1.47224e-08
8.04737e-08
8.27821e-09
2.22607e-08
8.46467e-08
7.75965e-09
3.0104e-08
8.77459e-08
7.16966e-09
3.79184e-08
8.99718e-08
6.51501e-09
4.5431e-08
9.14806e-08
5.80429e-09
5.24089e-08
9.23994e-08
5.03612e-09
5.86728e-08
9.28361e-08
4.23024e-09
6.40579e-08
9.28931e-08
3.40118e-09
6.84462e-08
9.26559e-08
2.56835e-09
7.17542e-08
9.21927e-08
1.73576e-09
7.39315e-08
9.15622e-08
9.16585e-10
7.49764e-08
9.08167e-08
1.14055e-10
7.4912e-08
8.99953e-08
-6.47258e-10
7.38068e-08
8.91347e-08
-1.36868e-09
7.17339e-08
8.82614e-08
-2.04332e-09
6.87975e-08
8.73876e-08
-2.66475e-09
6.5082e-08
8.65192e-08
-3.22545e-09
6.068e-08
8.56478e-08
-3.72506e-09
5.56772e-08
8.47592e-08
-4.16096e-09
5.01576e-08
8.38224e-08
-4.53694e-09
4.42078e-08
8.2799e-08
-4.85475e-09
3.79228e-08
8.16299e-08
-5.12178e-09
3.14095e-08
8.02428e-08
-5.3437e-09
2.47954e-08
7.85347e-08
-5.53189e-09
1.82426e-08
7.63763e-08
-5.69603e-09
1.19528e-08
7.35891e-08
-5.8479e-09
6.17505e-09
6.99398e-08
-5.99667e-09
1.27889e-09
6.51141e-08
-6.19229e-09
-2.13007e-09
5.86865e-08
-6.60287e-09
-3.17634e-09
5.01009e-08
-7.35259e-09
3.10988e-08
-7.79838e-09
-3.85812e-10
3.26352e-08
6.22331e-09
9.6204e-11
5.25531e-08
5.26528e-09
1.5192e-09
6.18171e-08
4.41784e-09
3.61702e-09
6.89144e-08
3.91819e-09
6.14955e-09
7.43925e-08
3.54714e-09
8.995e-09
7.86251e-08
3.1772e-09
1.20706e-08
8.18958e-08
2.77346e-09
1.52839e-08
8.44164e-08
2.34354e-09
1.85277e-08
8.63484e-08
1.88799e-09
2.16956e-08
8.78158e-08
1.41439e-09
2.46933e-08
8.89153e-08
9.24108e-10
2.74353e-08
8.97245e-08
4.26622e-10
2.98563e-08
9.03053e-08
-7.11797e-11
3.18904e-08
9.07093e-08
-5.49541e-10
3.34861e-08
9.09771e-08
-1.01221e-09
3.4608e-08
9.11424e-08
-1.44769e-09
3.52257e-08
9.12305e-08
-1.85261e-09
3.53212e-08
9.12612e-08
-2.22137e-09
3.48912e-08
9.12413e-08
-2.55174e-09
3.39454e-08
9.11747e-08
-2.83907e-09
3.24943e-08
9.10548e-08
-3.08604e-09
3.05645e-08
9.08693e-08
-3.29116e-09
2.81898e-08
9.0593e-08
-3.45931e-09
2.54088e-08
9.01938e-08
-3.59148e-09
2.22807e-08
8.96226e-08
-3.69438e-09
1.88632e-08
8.88182e-08
-3.7711e-09
1.52427e-08
8.76937e-08
-3.82999e-09
1.15141e-08
8.614e-08
-3.87637e-09
7.80437e-09
8.4005e-08
-3.92026e-09
4.26595e-09
8.10947e-08
-3.96652e-09
1.08851e-09
7.71401e-08
-4.02379e-09
-1.46936e-09
7.17936e-08
-4.12076e-09
-2.98727e-09
6.45714e-08
-4.3671e-09
-2.89546e-09
5.48402e-08
-4.83043e-09
3.32485e-08
-5.04659e-09
-8.94548e-10
2.97769e-08
3.75492e-09
-1.41157e-09
4.98036e-08
3.26432e-09
-1.53965e-09
5.91093e-08
2.83697e-09
-1.44081e-09
6.62459e-08
2.5694e-09
-1.14833e-09
7.17503e-08
2.34977e-09
-6.60663e-10
7.60209e-08
2.11586e-09
2.46824e-11
7.93515e-08
1.86011e-09
8.92537e-10
8.19646e-08
1.5836e-09
1.9193e-09
8.40271e-08
1.29493e-09
3.07236e-09
8.56667e-08
9.96119e-10
4.30946e-09
8.6981e-08
6.9618e-10
5.59302e-09
8.80453e-08
3.97716e-10
6.86952e-09
8.8918e-08
1.09696e-10
8.09647e-09
8.9644e-08
-1.61003e-10
9.22151e-09
9.02575e-08
-4.05235e-10
1.02072e-08
9.07834e-08
-6.26714e-10
1.10158e-08
9.12392e-08
-8.17081e-10
1.16199e-08
9.16349e-08
-9.77157e-10
1.19892e-08
9.19738e-08
-1.10228e-09
1.21069e-08
9.22515e-08
-1.19572e-09
1.19622e-08
9.24568e-08
-1.25558e-09
1.15483e-08
9.25709e-08
-1.28779e-09
1.08665e-08
9.25669e-08
-1.29248e-09
9.93173e-09
9.24065e-08
-1.27712e-09
8.76077e-09
9.20372e-08
-1.2435e-09
7.3886e-09
9.13895e-08
-1.20102e-09
5.86524e-09
9.03731e-08
-1.1531e-09
4.24489e-09
8.88692e-08
-1.11013e-09
2.60438e-09
8.67207e-08
-1.07665e-09
1.04313e-09
8.37215e-08
-1.06247e-09
-3.44591e-10
7.95954e-08
-1.07117e-09
-1.39909e-09
7.39787e-08
-1.12634e-09
-1.91718e-09
6.63774e-08
-1.29074e-09
-1.60399e-09
5.61331e-08
-1.60409e-09
3.34618e-08
-1.8186e-09
-1.70853e-09
2.8142e-08
3.34285e-09
-3.38469e-09
4.80892e-08
3.39175e-09
-4.92382e-09
5.73181e-08
3.33117e-09
-6.32421e-09
6.43635e-08
3.27944e-09
-7.54144e-09
6.97746e-08
3.19424e-09
-8.54702e-09
7.39546e-08
3.07208e-09
-9.31363e-09
7.72025e-08
2.91451e-09
-9.8239e-09
7.97439e-08
2.73318e-09
-1.00803e-08
8.17488e-08
2.53267e-09
-1.00838e-08
8.33463e-08
2.32378e-09
-9.84767e-09
8.46353e-08
2.11038e-09
-9.39473e-09
8.56909e-08
1.90302e-09
-8.75444e-09
8.65717e-08
1.70486e-09
-7.95635e-09
8.73211e-08
1.52553e-09
-7.03832e-09
8.7973e-08
1.36652e-09
-6.03953e-09
8.855e-08
1.23561e-09
-5.00248e-09
8.90683e-08
1.13265e-09
-3.96473e-09
8.95341e-08
1.06347e-09
-2.96462e-09
8.99496e-08
1.02465e-09
-2.04051e-09
9.03071e-08
1.01935e-09
-1.21905e-09
9.05941e-08
1.04179e-09
-5.27706e-10
9.07878e-08
1.09271e-09
1.63626e-11
9.08584e-08
1.16383e-09
4.07646e-10
9.07637e-08
1.25269e-09
6.43841e-10
9.04504e-08
1.34913e-09
7.36609e-10
8.98468e-08
1.4506e-09
7.02071e-10
8.88623e-08
1.54573e-09
5.6358e-10
8.73769e-08
1.63054e-09
3.5322e-10
8.52364e-08
1.69294e-09
1.1138e-10
8.22363e-08
1.72882e-09
-1.27144e-10
7.81086e-08
1.7259e-09
-3.18224e-10
7.24969e-08
1.67124e-09
-3.8186e-10
6.4926e-08
1.51672e-09
-2.47998e-10
5.47571e-08
1.24078e-09
3.23453e-08
8.6897e-10
-2.55249e-09
2.71036e-08
3.59241e-09
-4.95946e-09
4.64257e-08
4.06819e-09
-7.24678e-09
5.5342e-08
4.26378e-09
-9.36866e-09
6.21271e-08
4.35824e-09
-1.12699e-08
6.73083e-08
4.36813e-09
-1.29099e-08
7.12795e-08
4.31421e-09
-1.42555e-08
7.43339e-08
4.21509e-09
-1.52874e-08
7.66951e-08
4.07925e-09
-1.59885e-08
7.85298e-08
3.92067e-09
-1.6356e-08
7.99684e-08
3.74567e-09
-1.63964e-08
8.11078e-08
3.56688e-09
-1.61196e-08
8.20263e-08
3.38921e-09
-1.55525e-08
8.27806e-08
3.22397e-09
-1.47242e-08
8.34176e-08
3.07439e-09
-1.36714e-08
8.39692e-08
2.95e-09
-1.24323e-08
8.44614e-08
2.85172e-09
-1.10592e-08
8.49078e-08
2.78664e-09
-9.59758e-09
8.53183e-08
2.75288e-09
-8.09209e-09
8.56913e-08
2.7547e-09
-6.59612e-09
8.60221e-08
2.78711e-09
-5.14669e-09
8.6294e-08
2.85145e-09
-3.78519e-09
8.64859e-08
2.94003e-09
-2.54062e-09
8.65627e-08
3.05196e-09
-1.439e-09
8.64835e-08
3.17729e-09
-4.91789e-10
8.61913e-08
3.31285e-09
2.88368e-10
8.56185e-08
3.44667e-09
9.04988e-10
8.46729e-08
3.57428e-09
1.35628e-09
8.32417e-08
3.68254e-09
1.65484e-09
8.11737e-08
3.76583e-09
1.80131e-09
7.8278e-08
3.81021e-09
1.80284e-09
7.42987e-08
3.80876e-09
1.65655e-09
6.89034e-08
3.73993e-09
1.36608e-09
6.1646e-08
3.57005e-09
9.28723e-10
5.19332e-08
3.26083e-09
3.05932e-08
2.6814e-09
-2.7093e-09
2.63182e-08
3.49417e-09
-5.3438e-09
4.48635e-08
4.19813e-09
-7.91766e-09
5.3395e-08
4.51915e-09
-1.03287e-08
5.98554e-08
4.68294e-09
-1.2504e-08
6.47544e-08
4.72897e-09
-1.4389e-08
6.84666e-08
4.69975e-09
-1.59498e-08
7.12801e-08
4.6126e-09
-1.71473e-08
7.34094e-08
4.48451e-09
-1.7964e-08
7.50218e-08
4.32473e-09
-1.83873e-08
7.62436e-08
4.14796e-09
-1.84172e-08
7.71759e-08
3.96185e-09
-1.80645e-08
7.78947e-08
3.77955e-09
-1.73552e-08
7.84628e-08
3.60694e-09
-1.63177e-08
7.89259e-08
3.45529e-09
-1.4998e-08
7.93217e-08
3.32816e-09
-1.34462e-08
7.96745e-08
3.23431e-09
-1.17168e-08
8.00038e-08
3.17434e-09
-9.86893e-09
8.03164e-08
3.15392e-09
-7.96166e-09
8.06153e-08
3.17024e-09
-6.05758e-09
8.08912e-08
3.22566e-09
-4.20879e-09
8.11311e-08
3.31395e-09
-2.46527e-09
8.13087e-08
3.43425e-09
-8.71806e-10
8.13932e-08
3.57724e-09
5.32701e-10
8.13385e-08
3.73935e-09
1.72504e-09
8.10918e-08
3.90881e-09
2.68231e-09
8.05804e-08
4.08001e-09
3.39664e-09
7.97188e-08
4.23948e-09
3.86554e-09
7.83927e-08
4.38024e-09
4.08885e-09
7.64628e-08
4.48751e-09
4.07076e-09
7.3743e-08
4.55327e-09
3.81045e-09
6.99987e-08
4.56099e-09
3.30392e-09
6.49138e-08
4.49523e-09
2.55698e-09
5.80803e-08
4.31426e-09
1.56771e-09
4.89438e-08
3.97746e-09
2.88973e-08
3.26436e-09
-2.34425e-09
2.6009e-08
2.65362e-09
-4.85452e-09
4.40117e-08
3.36156e-09
-7.41852e-09
5.22644e-08
3.69572e-09
-9.89121e-09
5.84764e-08
3.85079e-09
-1.21589e-08
6.31395e-08
3.88289e-09
-1.4145e-08
6.66207e-08
3.83287e-09
-1.5791e-08
6.92006e-08
3.72403e-09
-1.70436e-08
7.10946e-08
3.56795e-09
-1.78698e-08
7.24674e-08
3.37994e-09
-1.82464e-08
7.34507e-08
3.17024e-09
-1.81691e-08
7.41455e-08
2.95362e-09
-1.76497e-08
7.46359e-08
2.73914e-09
-1.67128e-08
7.49855e-08
2.54006e-09
-1.53979e-08
7.52485e-08
2.3632e-09
-1.37593e-08
7.5463e-08
2.21921e-09
-1.18572e-08
7.5661e-08
2.11185e-09
-9.76246e-09
7.5861e-08
2.04847e-09
-7.55228e-09
7.6076e-08
2.02915e-09
-5.30007e-09
7.63061e-08
2.05745e-09
-3.08384e-09
7.65462e-08
2.12946e-09
-9.77216e-10
7.67781e-08
2.24479e-09
9.61091e-10
7.69783e-08
2.39571e-09
2.66472e-09
7.7109e-08
2.57825e-09
4.09518e-09
7.71266e-08
2.78139e-09
5.21845e-09
7.69704e-08
2.99825e-09
6.01226e-09
7.65708e-08
3.21537e-09
6.47198e-09
7.58361e-08
3.42392e-09
6.5978e-09
7.46574e-08
3.60914e-09
6.40769e-09
7.28927e-08
3.76139e-09
5.91803e-09
7.03664e-08
3.86566e-09
5.15738e-09
6.68482e-08
3.91132e-09
4.15169e-09
6.20407e-08
3.87685e-09
2.95235e-09
5.55538e-08
3.72751e-09
1.61828e-09
4.68672e-08
3.41165e-09
2.77905e-08
2.72412e-09
-1.62911e-09
2.64226e-08
1.21409e-09
-3.8238e-09
4.44505e-08
1.75695e-09
-6.25622e-09
5.26792e-08
2.0189e-09
-8.71701e-09
5.88221e-08
2.11356e-09
-1.10436e-08
6.33767e-08
2.09037e-09
-1.31259e-08
6.67113e-08
1.99082e-09
-1.48703e-08
6.91143e-08
1.83128e-09
-1.62058e-08
7.08037e-08
1.62635e-09
-1.70806e-08
7.19542e-08
1.38645e-09
-1.7456e-08
7.2701e-08
1.12688e-09
-1.73268e-08
7.31562e-08
8.59101e-10
-1.6696e-08
7.34079e-08
5.98321e-10
-1.55975e-08
7.35309e-08
3.5521e-10
-1.40746e-08
7.35819e-08
1.43212e-10
-1.21891e-08
7.36094e-08
-3.17322e-11
-1.00152e-08
7.36474e-08
-1.59766e-10
-7.64002e-09
7.37228e-08
-2.36874e-10
-5.15491e-09
7.38478e-08
-2.57599e-10
-2.65332e-09
7.40279e-08
-2.22836e-10
-2.28749e-10
7.42541e-08
-1.31786e-10
2.02778e-09
7.45105e-08
1.00244e-11
4.04132e-09
7.47666e-08
1.98226e-10
5.74309e-09
7.49848e-08
4.23366e-10
7.07863e-09
7.51121e-08
6.77708e-10
8.01458e-09
7.50868e-08
9.47795e-10
8.53293e-09
7.48293e-08
1.22316e-09
8.63374e-09
7.42469e-08
1.48856e-09
8.33622e-09
7.32217e-08
1.73238e-09
7.67632e-09
7.16123e-08
1.93968e-09
6.70465e-09
6.9237e-08
2.10136e-09
5.4819e-09
6.58692e-08
2.20335e-09
4.08084e-09
6.12099e-08
2.23095e-09
2.60699e-09
5.48772e-08
2.14917e-09
1.2043e-09
4.63558e-08
1.91503e-09
2.75968e-08
1.39812e-09
-8.94136e-10
2.76937e-08
-3.76798e-10
-2.74217e-09
4.63795e-08
-8.12931e-11
-5.00198e-09
5.48702e-08
6.97315e-11
-7.41568e-09
6.11557e-08
7.89291e-11
-9.77867e-09
6.57531e-08
-1.23471e-11
-1.19448e-08
6.90526e-08
-1.75829e-10
-1.37922e-08
7.13549e-08
-3.93709e-10
-1.52241e-08
7.28955e-08
-6.57719e-10
-1.61744e-08
7.38583e-08
-9.5504e-10
-1.6592e-08
7.43937e-08
-1.27386e-09
-1.64617e-08
7.46216e-08
-1.5987e-09
-1.57776e-08
7.4644e-08
-1.91662e-09
-1.45783e-08
7.45421e-08
-2.21235e-09
-1.2907e-08
7.43864e-08
-2.47417e-09
-1.0841e-08
7.42302e-08
-2.68767e-09
-8.46623e-09
7.41181e-08
-2.84553e-09
-5.88149e-09
7.40783e-08
-2.93984e-09
-3.1958e-09
7.41301e-08
-2.96799e-09
-5.18556e-10
7.42769e-08
-2.92718e-09
2.04528e-09
7.45128e-08
-2.82039e-09
4.38967e-09
7.48161e-08
-2.65038e-09
6.42557e-09
7.51557e-08
-2.42559e-09
8.08095e-09
7.54847e-08
-2.1538e-09
9.29324e-09
7.57468e-08
-1.84797e-09
1.00308e-08
7.5869e-08
-1.51973e-09
1.02775e-08
7.57668e-08
-1.18476e-09
1.0047e-08
7.5335e-08
-8.56273e-10
9.36666e-09
7.44503e-08
-5.49536e-10
8.2986e-09
7.29583e-08
-2.76324e-10
6.91493e-09
7.06708e-08
-4.96904e-11
5.31703e-09
6.73473e-08
1.19057e-10
3.62752e-09
6.26807e-08
2.18393e-10
2.00976e-09
5.62727e-08
2.23376e-10
6.68007e-10
4.75966e-08
9.94667e-11
2.8432e-08
-1.66588e-10
-3.45989e-10
2.97284e-08
-1.68894e-09
-1.90011e-09
4.95541e-08
-1.62083e-09
-3.98473e-09
5.85319e-08
-1.57727e-09
-6.30627e-09
6.51284e-08
-1.649e-09
-8.64693e-09
6.9898e-08
-1.80705e-09
-1.0824e-08
7.32586e-08
-2.02696e-09
-1.27068e-08
7.55362e-08
-2.29976e-09
-1.41778e-08
7.69837e-08
-2.61591e-09
-1.51588e-08
7.78049e-08
-2.96612e-09
-1.5592e-08
7.81626e-08
-3.33615e-09
-1.54502e-08
7.81931e-08
-3.71217e-09
-1.47369e-08
7.80077e-08
-4.07737e-09
-1.34799e-08
7.77026e-08
-4.41706e-09
-1.17344e-08
7.73566e-08
-4.71569e-09
-9.5791e-09
7.70355e-08
-4.96151e-09
-7.10399e-09
7.67879e-08
-5.14291e-09
-4.42512e-09
7.66506e-08
-5.25338e-09
-1.64807e-09
7.66433e-08
-5.28724e-09
1.09594e-09
7.67738e-08
-5.24397e-09
3.70157e-09
7.70327e-08
-5.12388e-09
6.05208e-09
7.73983e-08
-4.93249e-09
8.05133e-09
7.78322e-08
-4.67619e-09
9.61952e-09
7.82838e-08
-4.3665e-09
1.06959e-08
7.86857e-08
-4.01568e-09
1.12475e-08
7.89581e-08
-3.64021e-09
1.12656e-08
7.90034e-08
-3.25526e-09
1.07715e-08
7.87081e-08
-2.87753e-09
9.80715e-09
7.79339e-08
-2.52077e-09
8.44952e-09
7.65158e-08
-2.19909e-09
6.79525e-09
7.42474e-08
-1.92157e-09
4.96633e-09
7.08724e-08
-1.69708e-09
3.12014e-09
6.6061e-08
-1.53337e-09
1.44994e-09
5.93908e-08
-1.45021e-09
2.17317e-10
5.0303e-08
-1.47189e-09
3.0169e-08
-1.52e-09
-9.73703e-11
3.22732e-08
-2.44826e-09
-1.47301e-09
5.34671e-08
-2.53574e-09
-3.41706e-09
6.30417e-08
-2.56798e-09
-5.63021e-09
7.00396e-08
-2.69517e-09
-7.89211e-09
7.50531e-08
-2.8957e-09
-1.00164e-08
7.8536e-08
-3.1533e-09
-1.18569e-08
8.08385e-08
-3.46025e-09
-1.33019e-08
8.22383e-08
-3.81051e-09
-1.42588e-08
8.29557e-08
-4.19431e-09
-1.46678e-08
8.31722e-08
-4.59982e-09
-1.44991e-08
8.30367e-08
-5.01224e-09
-1.3753e-08
8.26759e-08
-5.41544e-09
-1.24561e-08
8.21956e-08
-5.78976e-09
-1.06686e-08
8.16872e-08
-6.11795e-09
-8.4713e-09
8.12233e-08
-6.38549e-09
-5.96116e-09
8.08623e-08
-6.58299e-09
-3.25448e-09
8.06442e-08
-6.70291e-09
-4.60988e-10
8.05943e-08
-6.74192e-09
2.28974e-09
8.07194e-08
-6.69801e-09
4.88456e-09
8.10117e-08
-6.57304e-09
7.20641e-09
8.14448e-08
-6.37017e-09
9.15816e-09
8.19779e-08
-6.09668e-09
1.0652e-08
8.25516e-08
-5.76176e-09
1.16268e-08
8.30918e-08
-5.37998e-09
1.20469e-08
8.35062e-08
-4.96929e-09
1.19116e-08
8.36878e-08
-4.55007e-09
1.1251e-08
8.35088e-08
-4.13883e-09
1.0116e-08
8.28192e-08
-3.74996e-09
8.58878e-09
8.14363e-08
-3.39513e-09
6.78355e-09
7.91382e-08
-3.08395e-09
4.83238e-09
7.56456e-08
-2.82238e-09
2.90284e-09
7.06065e-08
-2.61722e-09
1.21153e-09
6.35651e-08
-2.48172e-09
2.24029e-11
5.39258e-08
-2.434e-09
3.25235e-08
-2.33217e-09
-9.92721e-11
3.50167e-08
-2.64363e-09
-1.43713e-09
5.75909e-08
-2.78638e-09
-3.31998e-09
6.77741e-08
-2.84947e-09
-5.47039e-09
7.51863e-08
-2.99752e-09
-7.66219e-09
8.04604e-08
-3.21407e-09
-9.72397e-09
8.40817e-08
-3.48493e-09
-1.15072e-08
8.64278e-08
-3.80479e-09
-1.28997e-08
8.77973e-08
-4.16764e-09
-1.38091e-08
8.84304e-08
-4.56554e-09
-1.41722e-08
8.85237e-08
-4.9874e-09
-1.39569e-08
8.82415e-08
-5.42018e-09
-1.316e-08
8.77222e-08
-5.84354e-09
-1.18148e-08
8.7085e-08
-6.23441e-09
-9.98422e-09
8.64302e-08
-6.57263e-09
-7.75668e-09
8.58409e-08
-6.84608e-09
-5.22935e-09
8.53808e-08
-7.0464e-09
-2.51163e-09
8.50962e-08
-7.1686e-09
2.78556e-10
8.50137e-08
-7.20903e-09
3.02019e-09
8.5143e-08
-7.16698e-09
5.60265e-09
8.54738e-08
-7.04305e-09
7.90858e-09
8.59789e-08
-6.84074e-09
9.84009e-09
8.66113e-08
-6.56489e-09
1.13084e-08
8.73069e-08
-6.22357e-09
1.22488e-08
8.79816e-08
-5.82882e-09
1.26201e-08
8.85344e-08
-5.40104e-09
1.24263e-08
8.88456e-08
-4.96391e-09
1.16984e-08
8.87759e-08
-4.53819e-09
1.04926e-08
8.81604e-08
-4.13705e-09
8.89964e-09
8.68018e-08
-3.77121e-09
7.02809e-09
8.44589e-08
-3.44852e-09
5.01666e-09
8.08325e-08
-3.17482e-09
3.03271e-09
7.55437e-08
-2.95491e-09
1.29356e-09
6.81061e-08
-2.80099e-09
6.14925e-11
5.78854e-08
-2.72741e-09
3.51589e-08
-2.57419e-09
-2.77723e-10
3.76751e-08
-2.38071e-09
-1.68575e-09
6.14866e-08
-2.48863e-09
-3.58597e-09
7.2215e-08
-2.5401e-09
-5.71824e-09
7.99976e-08
-2.67928e-09
-7.87072e-09
8.55015e-08
-2.8882e-09
-9.87872e-09
8.92415e-08
-3.15275e-09
-1.16022e-08
9.16182e-08
-3.46704e-09
-1.29297e-08
9.29509e-08
-3.82568e-09
-1.37732e-08
9.34959e-08
-4.2212e-09
-1.40727e-08
9.34663e-08
-4.64477e-09
-1.37874e-08
9.30389e-08
-5.08143e-09
-1.29241e-08
9.23657e-08
-5.50763e-09
-1.15179e-08
9.15763e-08
-5.89703e-09
-9.63928e-09
9.07819e-08
-6.23071e-09
-7.3729e-09
9.00733e-08
-6.49811e-09
-4.82042e-09
8.95213e-08
-6.69352e-09
-2.08638e-09
8.91761e-08
-6.8125e-09
7.11335e-10
8.90679e-08
-6.85261e-09
3.46049e-09
8.92064e-08
-6.81274e-09
6.04768e-09
8.95815e-08
-6.69391e-09
8.36154e-09
9.01627e-08
-6.49848e-09
1.03043e-08
9.08994e-08
-6.23073e-09
1.17879e-08
9.17204e-08
-5.89619e-09
1.27392e-08
9.25344e-08
-5.5053e-09
1.31233e-08
9.32298e-08
-5.07714e-09
1.29284e-08
9.36764e-08
-4.63838e-09
1.21963e-08
9.37219e-08
-4.21289e-09
1.09823e-08
9.3189e-08
-3.81572e-09
9.37631e-09
9.18642e-08
-3.45553e-09
7.48395e-09
8.94906e-08
-3.13961e-09
5.44085e-09
8.57483e-08
-2.87329e-09
3.41071e-09
8.02364e-08
-2.66202e-09
1.59594e-09
7.24391e-08
-2.51865e-09
2.52609e-10
6.16888e-08
-2.45965e-09
3.77546e-08
-2.34329e-09
-5.60655e-10
4.00497e-08
-1.81428e-09
-2.10963e-09
6.48593e-08
-1.82296e-09
-4.08529e-09
7.60239e-08
-1.83265e-09
-6.24349e-09
8.40957e-08
-1.94134e-09
-8.38551e-09
8.97695e-08
-2.12628e-09
-1.03562e-08
9.35826e-08
-2.37032e-09
-1.20271e-08
9.59558e-08
-2.66654e-09
-1.32919e-08
9.72249e-08
-3.00905e-09
-1.40667e-08
9.7662e-08
-3.39148e-09
-1.42888e-08
9.74935e-08
-3.80493e-09
-1.39266e-08
9.69093e-08
-4.23254e-09
-1.29867e-08
9.60729e-08
-4.64821e-09
-1.1509e-08
9.51253e-08
-5.02533e-09
-9.56888e-09
9.41868e-08
-5.34592e-09
-7.25047e-09
9.33569e-08
-5.60158e-09
-4.65437e-09
9.27121e-08
-5.78779e-09
-1.88371e-09
9.23076e-08
-5.90124e-09
9.48248e-10
9.21757e-08
-5.93968e-09
3.72743e-09
9.23278e-08
-5.9024e-09
6.34733e-09
9.27524e-08
-5.79005e-09
8.69849e-09
9.34169e-08
-5.60481e-09
1.06827e-08
9.42658e-08
-5.34991e-09
1.22092e-08
9.52222e-08
-5.02972e-09
1.32098e-08
9.61865e-08
-4.65255e-09
1.36395e-08
9.70382e-08
-4.23648e-09
1.34864e-08
9.76358e-08
-3.80827e-09
1.27881e-08
9.78155e-08
-3.39421e-09
1.1601e-08
9.73872e-08
-3.01121e-09
1.00089e-08
9.61243e-08
-2.66813e-09
8.11587e-09
9.37542e-08
-2.37115e-09
6.04987e-09
8.99407e-08
-2.12606e-09
3.9627e-09
8.4263e-08
-1.93944e-09
2.04733e-09
7.61831e-08
-1.82752e-09
5.37568e-10
6.50058e-08
-1.81197e-09
4.00913e-08
-1.79592e-09
-8.733e-10
4.20411e-08
-1.11796e-09
-2.5945e-09
6.75765e-08
-9.97159e-10
-4.67172e-09
7.9052e-08
-9.50048e-10
-6.87563e-09
8.7318e-08
-1.01776e-09
-9.02543e-09
9.30887e-08
-1.17059e-09
-1.09738e-08
9.69183e-08
-1.38716e-09
-1.26014e-08
9.92428e-08
-1.65859e-09
-1.38109e-08
1.00412e-07
-1.97847e-09
-1.45178e-08
1.00711e-07
-2.34087e-09
-1.46664e-08
1.00379e-07
-2.73635e-09
-1.4229e-08
9.96166e-08
-3.14656e-09
-1.32107e-08
9.85995e-08
-3.54433e-09
-1.16602e-08
9.74791e-08
-3.90348e-09
-9.65179e-09
9.63849e-08
-4.20726e-09
-7.26883e-09
9.54248e-08
-4.44868e-09
-4.61494e-09
9.46814e-08
-4.6242e-09
-1.79007e-09
9.42145e-08
-4.73109e-09
1.09356e-09
9.40592e-08
-4.76741e-09
3.92419e-09
9.42282e-08
-4.73254e-09
6.59665e-09
9.47087e-08
-4.62707e-09
9.0003e-09
9.54655e-08
-4.45289e-09
1.10418e-08
9.64386e-08
-4.21266e-09
1.26263e-08
9.75451e-08
-3.90985e-09
1.3689e-08
9.86771e-08
-3.55137e-09
1.41769e-08
9.9705e-08
-3.15399e-09
1.40797e-08
1.00476e-07
-2.74402e-09
1.34256e-08
1.00817e-07
-2.34869e-09
1.22768e-08
1.00524e-07
-1.98636e-09
1.0707e-08
9.93602e-08
-1.66645e-09
8.81696e-09
9.70387e-08
-1.39474e-09
6.72478e-09
9.32101e-08
-1.17753e-09
4.57351e-09
8.74382e-08
-1.02347e-09
2.54101e-09
7.91684e-08
-9.53172e-10
8.56625e-10
6.76868e-08
-9.95497e-10
4.20583e-08
-1.10998e-09
-1.14545e-09
4.36408e-08
-4.54115e-10
-3.02282e-09
6.96615e-08
-2.08062e-10
-5.2025e-09
8.13353e-08
-1.04415e-10
-7.46098e-09
8.9709e-08
-1.31072e-10
-9.62978e-09
9.55082e-08
-2.51439e-10
-1.15693e-08
9.92993e-08
-4.39967e-10
-1.31731e-08
1.0153e-07
-6.85599e-10
-1.43386e-08
1.0256e-07
-9.81364e-10
-1.49947e-08
1.02688e-07
-1.32129e-09
-1.5082e-08
1.02162e-07
-1.6955e-09
-1.45776e-08
1.01196e-07
-2.08465e-09
-1.34922e-08
9.99752e-08
-2.46149e-09
-1.18749e-08
9.86618e-08
-2.80057e-09
-9.79686e-09
9.73952e-08
-3.08649e-09
-7.35046e-09
9.62912e-08
-3.313e-09
-4.63075e-09
9.54397e-08
-3.47715e-09
-1.74692e-09
9.49053e-08
-3.57714e-09
1.19886e-09
9.4726e-08
-3.6112e-09
4.09101e-09
9.49146e-08
-3.57856e-09
6.82218e-09
9.54581e-08
-3.47997e-09
9.28584e-09
9.63185e-08
-3.31717e-09
1.13863e-08
9.74312e-08
-3.09192e-09
1.30311e-08
9.87061e-08
-2.80713e-09
1.41518e-08
1.00028e-07
-2.46898e-09
1.46918e-08
1.01256e-07
-2.09289e-09
1.46465e-08
1.02229e-07
-1.70435e-09
1.40313e-08
1.0276e-07
-1.33062e-09
1.29109e-08
1.02637e-07
-9.91071e-10
1.13556e-08
1.01611e-07
-6.9552e-10
9.46069e-09
9.93832e-08
-4.49844e-10
7.34129e-09
9.55939e-08
-2.60925e-10
5.12086e-09
8.97952e-08
-1.39639e-10
2.98009e-09
8.14211e-08
-1.10905e-10
1.13146e-09
6.97458e-08
-2.10663e-10
4.36411e-08
-4.51611e-10
-1.32819e-09
4.49057e-08
6.37399e-11
-3.31833e-09
7.12456e-08
4.05278e-10
-5.57595e-09
8.30386e-08
5.55631e-10
-7.88689e-09
9.1456e-08
5.63005e-10
-1.0082e-08
9.72319e-08
4.70105e-10
-1.20281e-08
1.0094e-07
3.05983e-10
-1.36207e-08
1.03038e-07
8.3446e-11
-1.47658e-08
1.03896e-07
-1.90413e-10
-1.53892e-08
1.03821e-07
-5.09206e-10
-1.54378e-08
1.03072e-07
-8.62177e-10
-1.48863e-08
1.01875e-07
-1.22989e-09
-1.37498e-08
1.00425e-07
-1.58535e-09
-1.208e-08
9.88971e-08
-1.90463e-09
-9.95033e-09
9.74392e-08
-2.17394e-09
-7.44961e-09
9.61766e-08
-2.38801e-09
-4.67021e-09
9.52055e-08
-2.54421e-09
-1.72175e-09
9.45967e-08
-2.63953e-09
1.28477e-09
9.43907e-08
-2.67186e-09
4.23697e-09
9.46025e-08
-2.64081e-09
7.02608e-09
9.52171e-08
-2.54676e-09
9.54099e-09
9.61939e-08
-2.39175e-09
1.16885e-08
9.7462e-08
-2.17884e-09
1.33812e-08
9.89253e-08
-1.9105e-09
1.45425e-08
1.00458e-07
-1.592e-09
1.51214e-08
1.01913e-07
-1.23756e-09
1.51065e-08