/*--------------------------------*- C++ -*----------------------------------*\
| =========                 |                                                 |
| \\      /  F ield         | OpenFOAM: The Open Source CFD Toolbox           |
|  \\    /   O peration     | Version:  v2006                                 |
|   \\  /    A nd           | Website:  www.openfoam.com                      |
|    \\/     M anipulation  |                                                 |
\*---------------------------------------------------------------------------*/
FoamFile
{
    version     2.0;
    format      ascii;
    class       volScalarField;
    location    "42";
    object      k;
}
// * * * * * * * * * * * * * * * * * * * * * * * * * * * * * * * * * * * * * //

dimensions      [0 2 -2 0 0 0 0];


internalField   nonuniform List<scalar> 
78750
(
1.36082e-05
1.25106e-05
1.2455e-05
1.2307e-05
1.19224e-05
1.1339e-05
1.06516e-05
9.9442e-06
9.27187e-06
8.66472e-06
8.1358e-06
7.68812e-06
7.3176e-06
7.01624e-06
6.77417e-06
6.58086e-06
6.42586e-06
6.29929e-06
6.19235e-06
6.09752e-06
6.00831e-06
5.91904e-06
5.82525e-06
5.7251e-06
5.61341e-06
5.4847e-06
5.33115e-06
5.13949e-06
4.88635e-06
4.53208e-06
4.01786e-06
3.30233e-06
2.44256e-06
1.68343e-06
1.47836e-06
1.04023e-06
8.85112e-06
1.52625e-05
1.96486e-05
2.22663e-05
2.36642e-05
2.42857e-05
2.44491e-05
2.43708e-05
2.41834e-05
2.39567e-05
2.37205e-05
2.34832e-05
2.32433e-05
2.29964e-05
2.27372e-05
2.24609e-05
2.21633e-05
2.18407e-05
2.14892e-05
2.11047e-05
2.06813e-05
2.02118e-05
1.96893e-05
1.9101e-05
1.84314e-05
1.76587e-05
1.67506e-05
1.56622e-05
1.43434e-05
1.27179e-05
1.08025e-05
9.03211e-06
8.34617e-06
9.81099e-06
1.34386e-06
6.4171e-06
1.06085e-05
1.37793e-05
1.59779e-05
1.74346e-05
1.84177e-05
1.91334e-05
1.97137e-05
2.02408e-05
2.07537e-05
2.12611e-05
2.17528e-05
2.22079e-05
2.26025e-05
2.29139e-05
2.31248e-05
2.32249e-05
2.3212e-05
2.30927e-05
2.28816e-05
2.25954e-05
2.22454e-05
2.1835e-05
2.13604e-05
2.08139e-05
2.01781e-05
1.94277e-05
1.85161e-05
1.7366e-05
1.59377e-05
1.43933e-05
1.32761e-05
1.34541e-05
1.58676e-05
5.82753e-07
3.55799e-06
6.12666e-06
8.18782e-06
9.73453e-06
1.08746e-05
1.17959e-05
1.2709e-05
1.37804e-05
1.51043e-05
1.66863e-05
1.84644e-05
2.03389e-05
2.21993e-05
2.39427e-05
2.54844e-05
2.67625e-05
2.77373e-05
2.83894e-05
2.87158e-05
2.8727e-05
2.84443e-05
2.78997e-05
2.71356e-05
2.62069e-05
2.51801e-05
2.41099e-05
2.30244e-05
2.19106e-05
2.07055e-05
1.93445e-05
1.79569e-05
1.71113e-05
1.76678e-05
2.05875e-05
2.89327e-07
2.13374e-06
3.89614e-06
5.5802e-06
7.23134e-06
8.93681e-06
1.07982e-05
1.2896e-05
1.52584e-05
1.78557e-05
2.06106e-05
2.34133e-05
2.61416e-05
2.86784e-05
3.09242e-05
3.28036e-05
3.42674e-05
3.52908e-05
3.58695e-05
3.60151e-05
3.57496e-05
3.51029e-05
3.41123e-05
3.28275e-05
3.13229e-05
2.96754e-05
2.79867e-05
2.64067e-05
2.50374e-05
2.38727e-05
2.28072e-05
2.18354e-05
2.14042e-05
2.2365e-05
2.58816e-05
3.21883e-07
2.84493e-06
5.56275e-06
8.58482e-06
1.19493e-05
1.56414e-05
1.96017e-05
2.37155e-05
2.78209e-05
3.17793e-05
3.5473e-05
3.87856e-05
4.16269e-05
4.3935e-05
4.56763e-05
4.68431e-05
4.74493e-05
4.75258e-05
4.71147e-05
4.62642e-05
4.5024e-05
4.34418e-05
4.15649e-05
3.94489e-05
3.71434e-05
3.46983e-05
3.22429e-05
2.99969e-05
2.81572e-05
2.68198e-05
2.59262e-05
2.53794e-05
2.54148e-05
2.67561e-05
3.06447e-05
5.77421e-07
5.19742e-06
1.01342e-05
1.54839e-05
2.11639e-05
2.69743e-05
3.26405e-05
3.79282e-05
4.27279e-05
4.69595e-05
5.05402e-05
5.34232e-05
5.55928e-05
5.70596e-05
5.78546e-05
5.80236e-05
5.76222e-05
5.67117e-05
5.53543e-05
5.36107e-05
5.15369e-05
4.9185e-05
4.66075e-05
4.38588e-05
4.09533e-05
3.79493e-05
3.5062e-05
3.25478e-05
3.06156e-05
2.93971e-05
2.8864e-05
2.88577e-05
2.9397e-05
3.1026e-05
3.49403e-05
1.02094e-06
7.98792e-06
1.52698e-05
2.28569e-05
3.04866e-05
3.77806e-05
4.43587e-05
5.01297e-05
5.51219e-05
5.92856e-05
6.25927e-05
6.50455e-05
6.66715e-05
6.75168e-05
6.76412e-05
6.7114e-05
6.60094e-05
6.44027e-05
6.23671e-05
5.99709e-05
5.72759e-05
5.43394e-05
5.12169e-05
4.79062e-05
4.44051e-05
4.08476e-05
3.75168e-05
3.47221e-05
3.26964e-05
3.16025e-05
3.1431e-05
3.19527e-05
3.29315e-05
3.4697e-05
3.83648e-05
1.54907e-06
1.10071e-05
2.07232e-05
3.05682e-05
4.01097e-05
4.88441e-05
5.6368e-05
6.27342e-05
6.80722e-05
7.23592e-05
7.55951e-05
7.78087e-05
7.90514e-05
7.9393e-05
7.89158e-05
7.77108e-05
7.58727e-05
7.34967e-05
7.0675e-05
6.74932e-05
6.40357e-05
6.03574e-05
5.64629e-05
5.23601e-05
4.81128e-05
4.39025e-05
4.00758e-05
3.69616e-05
3.48054e-05
3.37968e-05
3.39337e-05
3.49034e-05
3.62275e-05
3.80745e-05
4.15573e-05
2.14013e-06
1.42841e-05
2.6566e-05
3.87384e-05
5.02209e-05
6.04267e-05
6.89643e-05
7.59425e-05
8.1594e-05
8.59813e-05
8.91306e-05
9.10956e-05
9.19521e-05
9.17921e-05
9.07186e-05
8.8841e-05
8.62707e-05
8.31191e-05
7.95035e-05
7.55111e-05
7.11998e-05
6.66317e-05
6.18548e-05
5.69172e-05
5.19093e-05
4.70536e-05
4.27519e-05
3.93324e-05
3.70318e-05
3.60515e-05
3.63994e-05
3.77015e-05
3.92796e-05
4.11789e-05
4.45304e-05
2.74298e-06
1.7582e-05
3.24367e-05
4.69579e-05
6.04293e-05
7.21861e-05
8.18383e-05
8.94695e-05
9.54521e-05
9.99861e-05
0.000103121
0.000104931
0.00010551
0.000104964
0.000103408
0.000100963
9.77455e-05
9.38391e-05
8.93314e-05
8.43431e-05
7.89924e-05
7.33793e-05
6.75847e-05
6.16866e-05
5.58129e-05
5.02461e-05
4.54442e-05
4.17234e-05
3.93051e-05
3.8375e-05
3.89144e-05
4.04781e-05
4.22389e-05
4.41758e-05
4.74717e-05
3.41137e-06
2.11305e-05
3.86881e-05
5.5608e-05
7.10309e-05
8.42348e-05
9.4871e-05
0.000103017
0.000109206
0.000113788
0.000116853
0.000118494
0.000118821
0.000117951
0.000116006
0.000113069
0.000109186
0.000104463
9.90375e-05
9.30615e-05
8.66864e-05
8.00476e-05
7.326e-05
6.64346e-05
5.97364e-05
5.35048e-05
4.82366e-05
4.42222e-05
4.16712e-05
4.07612e-05
4.14493e-05
4.32208e-05
4.51285e-05
4.71116e-05
5.04002e-05
4.12315e-06
2.46677e-05
4.47643e-05
6.38123e-05
8.08584e-05
9.51756e-05
0.000106509
0.000115076
0.000121425
0.000126006
0.000129009
0.000130543
0.000130719
0.000129654
0.000127417
0.000124036
0.000119583
0.000114171
0.000107947
0.000101082
9.3751e-05
8.61271e-05
7.83693e-05
7.06395e-05
6.31659e-05
5.63693e-05
5.07738e-05
4.66117e-05
4.40472e-05
4.32247e-05
4.40697e-05
4.60146e-05
4.8034e-05
5.00434e-05
5.32842e-05
4.87778e-06
2.79873e-05
5.0344e-05
7.12466e-05
8.96781e-05
0.000104921
0.000116818
0.000125721
0.00013221
0.000136822
0.000139813
0.000141298
0.000141392
0.000140185
0.0001377
0.000133975
0.000129079
0.00012312
0.000116243
0.000108618
0.000100435
9.18927e-05
8.3192e-05
7.4554e-05
6.6289e-05
5.89274e-05
5.304e-05
4.88056e-05
4.6325e-05
4.56761e-05
4.67237e-05
4.884e-05
5.09491e-05
5.29545e-05
5.60848e-05
5.67869e-06
3.11087e-05
5.55413e-05
7.81648e-05
9.78705e-05
0.000113929
0.000126282
0.000135436
0.000142053
0.000146709
0.000149696
0.000151142
0.000151168
0.00014982
0.000147121
0.000143107
0.000137845
0.000131436
0.000124016
0.000115749
0.000106823
9.74494e-05
8.78582e-05
7.83264e-05
6.92559e-05
6.13121e-05
5.51341e-05
5.086e-05
4.85244e-05
4.81172e-05
4.94139e-05
5.17117e-05
5.38964e-05
5.58647e-05
5.88116e-05
6.56007e-06
3.42574e-05
6.07134e-05
8.49797e-05
0.000105843
0.000122582
0.000135281
0.000144619
0.000151363
0.000156071
0.000159054
0.000160481
0.000160434
0.000158945
0.000156035
0.000151741
0.00014613
0.000139302
0.000131384
0.000122533
0.000112932
0.000102792
9.23596e-05
8.19586e-05
7.20805e-05
6.35401e-05
5.70661e-05
5.27707e-05
5.06276e-05
5.05251e-05
5.21212e-05
5.46146e-05
5.68605e-05
5.87531e-05
6.14452e-05
7.48901e-06
3.734e-05
6.57222e-05
9.15402e-05
0.000113474
0.000130828
0.000143845
0.000153368
0.000160246
0.000165047
0.000168086
0.000169522
0.000169423
0.000167818
0.000164728
0.000160192
0.000154275
0.000147075
0.000138713
0.000129337
0.000119119
0.000108261
9.7018e-05
8.57466e-05
7.50252e-05
6.58286e-05
5.89995e-05
5.46438e-05
5.26852e-05
5.29086e-05
5.48354e-05
5.75414e-05
5.98442e-05
6.16339e-05
6.40213e-05
8.49437e-06
4.05235e-05
7.08274e-05
9.81425e-05
0.000121047
0.00013891
0.000152165
0.000161827
0.000168809
0.000173686
0.000176763
0.000178189
0.000178027
0.000176302
0.000173035
0.000168266
0.000162064
0.000154523
0.000145759
0.000135915
0.00012515
0.000113654
0.000101674
8.95871e-05
7.80441e-05
6.81798e-05
6.09644e-05
5.65172e-05
5.47307e-05
5.52889e-05
5.75627e-05
6.0485e-05
6.28334e-05
6.4493e-05
6.6534e-05
9.54017e-06
4.37044e-05
7.58593e-05
0.000104579
0.000128363
0.000146672
0.000160145
0.000169948
0.000177048
0.000182018
0.000185154
0.000186594
0.000186394
0.000184577
0.000181163
0.000176195
0.00016974
0.000161893
0.000152763
0.000142486
0.000131213
0.00011912
0.00010645
9.35887e-05
8.12474e-05
7.07074e-05
6.3067e-05
5.84731e-05
5.68103e-05
5.76804e-05
6.0302e-05
6.3445e-05
6.58348e-05
6.73441e-05
6.90029e-05
1.06363e-05
4.69316e-05
8.09074e-05
0.00011098
0.000135586
0.000154299
0.000167972
0.000177915
0.000185134
0.000190199
0.000193395
0.000194849
0.000194613
0.000192706
0.000189152
0.000183996
0.000177306
0.000169177
0.000159709
0.000149031
0.000137281
0.000124624
0.000111293
9.76876e-05
8.45738e-05
7.33762e-05
6.5308e-05
6.05438e-05
5.89697e-05
6.0119e-05
6.30661e-05
6.64137e-05
6.88304e-05
7.01671e-05
7.14165e-05
1.17547e-05
5.01259e-05
8.58644e-05
0.000117233
0.000142614
0.000161712
0.000175591
0.000185691
0.000193047
0.000198223
0.000201493
0.000202975
0.000202715
0.000200733
0.000197054
0.000191727
0.000184825
0.000176442
0.000166671
0.000155631
0.000143448
0.000130269
0.000116315
0.000101992
8.81187e-05
7.62586e-05
6.77358e-05
6.27587e-05
6.12257e-05
6.26154e-05
6.58645e-05
6.94029e-05
7.1835e-05
7.29811e-05
7.38023e-05
1.29148e-05
5.33602e-05
9.08284e-05
0.000123435
0.000149532
0.000168977
0.000183051
0.000193309
0.00020081
0.000206107
0.000209461
0.000210981
0.000210707
0.000208657
0.000204861
0.000199369
0.000192261
0.000183631
0.000173571
0.00016219
0.0001496
0.000135934
0.000121398
0.000106401
9.18095e-05
7.93223e-05
7.03548e-05
6.51468e-05
6.36145e-05
6.51946e-05
6.87015e-05
7.23992e-05
7.48277e-05
7.5766e-05
7.61432e-05
1.40859e-05
5.65164e-05
9.56278e-05
0.000129406
0.000156186
0.00017598
0.000190271
0.000200715
0.000208387
0.000213829
0.00021729
0.00021887
0.000218606
0.000216513
0.000212624
0.00020699
0.000199698
0.000190841
0.000180511
0.000168813
0.000155841
0.000141712
0.000126617
0.000110968
9.56772e-05
8.25769e-05
7.31613e-05
6.77022e-05
6.61376e-05
6.78702e-05
7.15995e-05
7.54286e-05
7.78327e-05
7.85406e-05
7.84539e-05
1.52899e-05
5.96712e-05
0.000100389
0.000135301
0.000162735
0.000182866
0.000197376
0.000208014
0.000215864
0.000221457
0.000225031
0.000226678
0.000226428
0.000224298
0.000220321
0.000214553
0.000207086
0.000198016
0.000187433
0.000175436
0.000162109
0.000147546
0.000131927
0.000115662
9.97111e-05
8.60324e-05
7.61787e-05
7.04516e-05
6.88142e-05
7.06456e-05
7.45452e-05
7.84674e-05
8.08243e-05
8.12891e-05
8.07215e-05
1.65087e-05
6.27645e-05
0.000105018
0.000141013
0.000169073
0.000189541
0.000204287
0.000215138
0.000223185
0.000228948
0.000232651
0.00023438
0.000234161
0.00023201
0.000227961
0.000222078
0.000214453
0.000205188
0.000194367
0.000182085
0.000168416
0.00015344
0.000137315
0.00012046
0.000103876
8.96532e-05
7.93791e-05
7.33815e-05
7.16492e-05
7.3543e-05
7.75713e-05
8.15496e-05
8.38328e-05
8.4027e-05
8.29552e-05
1.77573e-05
6.58419e-05
0.000109589
0.000146631
0.000175297
0.000196101
0.000211092
0.000222168
0.000230422
0.000236361
0.0002402
0.000242016
0.000241834
0.000239668
0.000235556
0.000229566
0.000221798
0.000212353
0.000201313
0.000188767
0.000174777
0.00015941
0.000142809
0.000125391
0.000108207
9.34737e-05
8.27932e-05
7.65143e-05
7.46511e-05
7.65554e-05
8.066e-05
8.46556e-05
8.68396e-05
8.67408e-05
8.51471e-05
1.90251e-05
6.88698e-05
0.000114054
0.000152103
0.000181359
0.000202501
0.00021775
0.000229064
0.000237534
0.000243657
0.000247637
0.000249546
0.000249406
0.000247234
0.000243067
0.000236982
0.000229084
0.000219474
0.00020823
0.000195434
0.000181141
0.000165401
0.000148345
0.000130389
0.000112638
9.74381e-05
8.63831e-05
7.98355e-05
7.78285e-05
7.97059e-05
8.38348e-05
8.77994e-05
8.98528e-05
8.94368e-05
8.73028e-05
2.03253e-05
7.18906e-05
0.000118476
0.000157508
0.000187341
0.000208826
0.000224342
0.000235901
0.000244593
0.000250899
0.000255019
0.000257019
0.000256921
0.000254744
0.000250527
0.000244356
0.000236341
0.000226582
0.000215152
0.000202127
0.00018755
0.000171458
0.000153969
0.000135503
0.000117213
0.000101581
9.01726e-05
8.33582e-05
8.11861e-05
8.2996e-05
8.71042e-05
9.10014e-05
9.28853e-05
9.21233e-05
8.94159e-05
2.16469e-05
7.48699e-05
0.000122809
0.000162796
0.000193198
0.000215031
0.000230826
0.000242639
0.000251552
0.000258039
0.000262291
0.000264375
0.000264315
0.000262132
0.000257869
0.000251622
0.000243502
0.000233609
0.000222009
0.000208772
0.00019393
0.000177504
0.0001596
0.000140647
0.000121851
0.000105835
9.41125e-05
8.70579e-05
8.47221e-05
8.64324e-05
9.04581e-05
9.42215e-05
9.59358e-05
9.47829e-05
9.14791e-05
2.30026e-05
7.78505e-05
0.000127118
0.000168045
0.000199015
0.000221208
0.000237292
0.000249362
0.000258492
0.000265146
0.000269515
0.000271669
0.000271634
0.000269439
0.000265133
0.000258818
0.000250607
0.000240598
0.000228848
0.00021542
0.000200334
0.000183597
0.000165302
0.000145885
0.000126607
0.000110235
9.82182e-05
9.0935e-05
8.84333e-05
9.00219e-05
9.39363e-05
9.75873e-05
9.90691e-05
9.74406e-05
9.34808e-05
2.43783e-05
8.07925e-05
0.000131346
0.000173196
0.000204738
0.000227308
0.000243699
0.000256031
0.000265365
0.000272163
0.000276623
0.000278824
0.000278802
0.000276588
0.000272241
0.000265866
0.000257578
0.00024747
0.00023559
0.000221994
0.000206688
0.000189663
0.000171
0.000151141
0.000131413
0.000114727
0.000102446
9.49576e-05
9.23012e-05
9.37584e-05
9.75388e-05
0.000101064
0.000102264
0.00010009
9.54108e-05
2.57862e-05
8.37345e-05
0.000135552
0.000178313
0.000210438
0.000233416
0.000250147
0.000262746
0.000272256
0.000279155
0.000283667
0.000285887
0.000285859
0.000283619
0.000279233
0.00027281
0.000264461
0.000254275
0.000242291
0.000228553
0.000213058
0.000195776
0.000176777
0.000156507
0.000136357
0.000119373
0.000106827
9.91277e-05
9.63165e-05
9.76412e-05
0.000101276
0.000104655
0.000105525
0.000102737
9.72637e-05
2.72102e-05
8.66303e-05
0.000139663
0.000183313
0.00021603
0.000239462
0.000256614
0.000269491
0.000279118
0.000286037
0.000290551
0.000292762
0.000292715
0.000290447
0.000286027
0.000279567
0.000271174
0.000260932
0.000248868
0.00023502
0.000219367
0.000201867
0.000182575
0.000161943
0.000141421
0.000124175
0.000111365
0.000103438
0.000100455
0.000101635
0.000105111
0.000108321
0.000108823
0.000105366
9.90463e-05
2.8664e-05
8.95191e-05
0.000143732
0.000188245
0.000221547
0.000245468
0.00026295
0.00027607
0.000285854
0.000292803
0.000297296
0.000299485
0.000299416
0.000297119
0.000292672
0.000286186
0.000277766
0.000267488
0.00025537
0.000241441
0.000225668
0.000207996
0.000188464
0.000167532
0.000146704
0.000129231
0.000116139
0.000107934
0.000104729
0.000105734
0.000109029
0.000112055
0.000112158
0.000107988
0.000100786
3.01334e-05
9.23573e-05
0.000147696
0.000193032
0.000226892
0.000251257
0.000269044
0.0002824
0.000292348
0.000299375
0.000303821
0.000305975
0.000305876
0.000303552
0.000299084
0.000292584
0.000284151
0.000273855
0.000261705
0.00024772
0.000231861
0.00021406
0.00019435
0.0001732
0.00015217
0.000134547
0.000121195
0.00011267
0.000109168
0.000109935
0.000113031
0.000115836
0.00011552
0.000110612
0.000102515
3.16346e-05
9.51847e-05
0.000151613
0.000197758
0.000232212
0.000256924
0.000274975
0.000288543
0.000298641
0.000305738
0.000310153
0.000312266
0.000312135
0.000309784
0.000305302
0.000298798
0.000290368
0.000280067
0.000267898
0.000253876
0.000237955
0.00022006
0.000200226
0.000178942
0.000157835
0.000140153
0.000126584
0.000117711
0.000113828
0.000114278
0.000117158
0.000119675
0.000118912
0.000113251
0.000104258
3.3153e-05
9.79461e-05
0.000155385
0.00020227
0.000237268
0.000262298
0.000280599
0.000294374
0.000304624
0.000311812
0.000316247
0.000318286
0.000318107
0.000315727
0.000311235
0.000304733
0.000296308
0.000286014
0.000273839
0.000259793
0.00024382
0.000225848
0.000205927
0.000184586
0.000163547
0.00014594
0.000132274
0.000123101
0.000118796
0.000118841
0.000121437
0.000123597
0.000122347
0.000115906
0.000105999
3.47093e-05
0.000100699
0.000159105
0.000206683
0.000242182
0.000267498
0.000286023
0.000299985
0.00031037
0.000317629
0.000322069
0.000324039
0.000323826
0.000321435
0.000316951
0.000310469
0.000302064
0.000291778
0.000279588
0.000265498
0.000249459
0.000231404
0.000211398
0.000190036
0.000169173
0.000151764
0.000138149
0.000128795
0.000124096
0.000123677
0.000125897
0.000127621
0.000125828
0.00011856
0.000107685
3.62864e-05
0.000103393
0.000162703
0.000210927
0.000246851
0.000272403
0.000291125
0.000305255
0.000315767
0.0003231
0.000327552
0.000329466
0.000329225
0.000326832
0.000322366
0.000315916
0.000307544
0.000297277
0.000285078
0.000270943
0.000254819
0.000236645
0.000216525
0.000195141
0.000174522
0.000157417
0.000144026
0.000134678
0.000129703
0.000128823
0.000130592
0.000131781
0.000129362
0.00012118
0.000109233
3.78875e-05
0.000106042
0.000166218
0.000215071
0.000251325
0.000277068
0.000295963
0.00031025
0.000320882
0.000328287
0.000332756
0.000334626
0.000334363
0.000331975
0.000327541
0.000321139
0.000312818
0.000302588
0.000290389
0.000276207
0.00025998
0.000241654
0.000221367
0.0001999
0.0001795
0.000162721
0.000149677
0.000140543
0.000135482
0.000134223
0.000135504
0.000136065
0.000132919
0.000123708
0.000110549
3.94782e-05
0.000108579
0.000169544
0.000218988
0.000255493
0.000281393
0.000300443
0.000314873
0.000325616
0.000333092
0.000337591
0.000339451
0.000339162
0.000336789
0.000332407
0.000326083
0.000317848
0.00030769
0.000295526
0.000281321
0.000265003
0.000246515
0.000226021
0.000204403
0.000184141
0.000167609
0.000154938
0.000146177
0.000141259
0.000139782
0.0001406
0.000140458
0.000136475
0.000126099
0.000111575
4.10425e-05
0.000110995
0.000172667
0.000222637
0.000259372
0.00028542
0.000304617
0.000319182
0.000330029
0.000337571
0.000342103
0.000343968
0.000343662
0.000341322
0.00033702
0.00033081
0.000322707
0.000312674
0.000300602
0.000286432
0.000270071
0.000251454
0.000230757
0.000208938
0.000188692
0.000172212
0.000159768
0.000151395
0.000146788
0.00014529
0.000145739
0.000144879
0.00013998
0.000128326
0.000112328
4.25479e-05
0.000113276
0.000175592
0.000226028
0.000262945
0.000289107
0.000308427
0.000323108
0.000334045
0.000341646
0.000346207
0.000348083
0.000347781
0.000345503
0.000341317
0.000335268
0.000327356
0.000317521
0.000305628
0.000291592
0.000275296
0.000256655
0.000235841
0.000213852
0.000193536
0.000176862
0.000164339
0.000156173
0.000151907
0.000150545
0.000150757
0.000149225
0.000143387
0.000130405
0.00011291
4.39868e-05
0.000115419
0.000178309
0.000229151
0.000266218
0.00029248
0.000311911
0.0003267
0.000337722
0.000345379
0.00034997
0.000351864
0.000351581
0.000349382
0.000345336
0.000339484
0.000331814
0.000322249
0.000310629
0.000296847
0.000280762
0.000262266
0.000241511
0.000219489
0.000199105
0.000182007
0.000169001
0.00016065
0.000156543
0.000155365
0.00015548
0.000153395
0.000146682
0.000132409
0.000113485
4.53446e-05
0.000117414
0.000180809
0.000231998
0.000269177
0.000295511
0.000315032
0.000329908
0.000340997
0.000348697
0.000353312
0.000355226
0.000354974
0.000352871
0.00034899
0.000343368
0.000335986
0.000326756
0.000315503
0.000302102
0.000286395
0.000268256
0.000247812
0.00022602
0.000205726
0.000188118
0.000174252
0.000165192
0.000160852
0.000159779
0.000159825
0.000157323
0.000149862
0.000134418
0.000114203
4.66424e-05
0.000119302
0.000183142
0.000234622
0.000271876
0.000298257
0.000317845
0.000332787
0.000343925
0.00035165
0.000356278
0.000358204
0.000357982
0.000355976
0.000352264
0.000346882
0.000339809
0.000330953
0.00032013
0.000307211
0.000292032
0.000274461
0.000254613
0.000233402
0.000213495
0.000195514
0.000180592
0.000170307
0.000165168
0.000163874
0.000163804
0.000161001
0.000152948
0.000136495
0.000115137
4.78848e-05
0.00012106
0.000185274
0.000236987
0.000274279
0.00030068
0.000320311
0.000335296
0.000346459
0.000354192
0.000358815
0.000360741
0.000360544
0.000358631
0.000355082
0.000349932
0.000343163
0.000334684
0.000324314
0.000311933
0.000297386
0.000280559
0.000261583
0.000241362
0.000222217
0.000204196
0.000188306
0.000176473
0.000169946
0.000167925
0.000167541
0.000164471
0.000155956
0.000138644
0.000116261
4.91083e-05
0.000122752
0.000187289
0.000239186
0.000276474
0.000302861
0.000322503
0.000337499
0.000348658
0.000356368
0.000360958
0.000362857
0.000362675
0.000360839
0.00035743
0.000352485
0.000345989
0.000337855
0.000327914
0.000316063
0.000302182
0.000286198
0.000268305
0.000249457
0.000231451
0.000213853
0.000197386
0.00018401
0.000175666
0.000172352
0.000171297
0.000167864
0.000158927
0.000140845
0.000117458
5.03152e-05
0.000124348
0.000189142
0.000241166
0.000278412
0.000304755
0.000324379
0.000339358
0.000350484
0.000358145
0.00036268
0.000364531
0.000364344
0.000362561
0.000359263
0.000354488
0.00034822
0.000340379
0.000330805
0.000319426
0.000306166
0.000291028
0.000274312
0.00025709
0.000240559
0.000223891
0.000207398
0.000192862
0.000182617
0.000177549
0.000175363
0.000171321
0.000161878
0.000143014
0.000118557
5.15198e-05
0.000125887
0.000190899
0.000243006
0.000280173
0.00030644
0.000326015
0.000340944
0.000352007
0.000359589
0.000364038
0.000365814
0.0003656
0.000363843
0.000360624
0.000355978
0.000349889
0.000342276
0.00033299
0.000321986
0.000309245
0.000294866
0.000279297
0.000263787
0.00024894
0.00023363
0.000217739
0.000202651
0.000190786
0.000183794
0.000180056
0.000175057
0.000164886
0.000145089
0.000119402
5.2697e-05
0.000127333
0.000192515
0.000244657
0.000281709
0.000307872
0.000327372
0.000342227
0.000353201
0.000360679
0.00036502
0.0003667
0.000366442
0.000364691
0.000361526
0.000356981
0.000351035
0.000343603
0.000334536
0.000323814
0.00031147
0.000297711
0.000283166
0.000269301
0.000256169
0.000242458
0.000227676
0.000212713
0.000199775
0.000190994
0.000185467
0.00017918
0.000167989
0.000147014
0.000119892
5.38334e-05
0.000128702
0.00019403
0.000246166
0.000283074
0.00030911
0.000328514
0.000343274
0.000354139
0.000361492
0.000365702
0.000367265
0.000366946
0.00036518
0.000362049
0.000357586
0.000351764
0.000344492
0.000335613
0.000325116
0.000313077
0.000299805
0.000286123
0.000273717
0.000262155
0.000250065
0.00023669
0.000222435
0.000209085
0.000198896
0.000191536
0.000183719
0.000171213
0.000148778
0.000120013
5.48943e-05
0.000129958
0.00019542
0.00024749
0.000284228
0.000310122
0.000329418
0.000344072
0.000354815
0.000362029
0.000366096
0.000367529
0.000367139
0.000365345
0.000362235
0.000357849
0.000352159
0.000345062
0.000336388
0.000326123
0.000314368
0.000301517
0.000288572
0.000277366
0.000267081
0.000256411
0.000244483
0.000231301
0.000218131
0.000207071
0.000198054
0.000188597
0.000174554
0.000150424
0.00011988
5.58651e-05
0.000131102
0.000196681
0.000248657
0.000285214
0.000310962
0.000330145
0.000344686
0.0003553
0.000362367
0.000366277
0.000367568
0.000367095
0.000365256
0.000362155
0.000357846
0.000352306
0.000345429
0.000337029
0.000327079
0.000315689
0.000303309
0.000291097
0.000280824
0.000271442
0.000261827
0.000251143
0.000239126
0.000226534
0.000215099
0.000204754
0.00019372
0.000178031
0.000152082
0.000119758
5.67308e-05
0.000132109
0.000197769
0.000249641
0.000286017
0.00031162
0.000330691
0.000345121
0.000355605
0.000362522
0.000366271
0.00036741
0.00036684
0.000364936
0.000361825
0.000357585
0.000352212
0.000345607
0.000337575
0.000328074
0.000317209
0.000305467
0.000294117
0.000284591
0.00027578
0.000266795
0.000256976
0.000245965
0.000234098
0.000222659
0.000211355
0.000198945
0.000181665
0.000153922
0.000119887
5.75108e-05
0.000133029
0.000198752
0.000250501
0.00028669
0.000312146
0.000331108
0.00034543
0.000355789
0.000362556
0.000366141
0.00036712
0.000366436
0.000364437
0.000361282
0.000357085
0.000351876
0.000345579
0.000338002
0.000329094
0.000318948
0.00030807
0.000297791
0.000288993
0.000280572
0.00027187
0.000262486
0.000252138
0.000240908
0.000229649
0.00021771
0.000204191
0.000185492
0.000156072
0.000120396
5.82192e-05
0.000133858
0.00019961
0.000251216
0.000287213
0.000312527
0.000331386
0.000345609
0.000355852
0.000362476
0.000365898
0.000366711
0.000365892
0.00036376
0.000360512
0.000356308
0.000351228
0.000345239
0.000338172
0.00032998
0.000320747
0.000310979
0.000302019
0.000294081
0.000286049
0.000277435
0.00026812
0.000258039
0.000247201
0.00023614
0.000223787
0.000209416
0.000189516
0.000158563
0.000121292
5.88903e-05
0.000134634
0.00020039
0.000251835
0.000287632
0.000312804
0.000331566
0.000345701
0.000355838
0.000362332
0.000365598
0.000366243
0.000365269
0.00036296
0.000359555
0.000355269
0.00035025
0.000344524
0.000337975
0.000330578
0.00032242
0.000314002
0.000306619
0.000299766
0.000292271
0.000283727
0.000274244
0.000264042
0.000253265
0.000242264
0.000229605
0.000214584
0.000193686
0.000161335
0.000122481
5.95399e-05
0.000135357
0.000201081
0.000252338
0.000287923
0.000312952
0.000331625
0.000345683
0.000355731
0.00036211
0.000365237
0.000365722
0.000364574
0.000362044
0.000358411
0.000353952
0.000348891
0.000343342
0.000337265
0.00033069
0.000323724
0.000316874
0.000311287
0.000305774
0.00029906
0.00029073
0.000281031
0.000270472
0.000259475
0.000248273
0.000235274
0.000219705
0.000197948
0.000164286
0.000123834
6.01931e-05
0.000136055
0.000201717
0.000252761
0.000288121
0.000313006
0.000331594
0.000345586
0.000355563
0.000361852
0.000364866
0.000365218
0.000363878
0.000361083
0.00035715
0.000352417
0.000347193
0.000341697
0.000335996
0.000330213
0.000324509
0.000319412
0.000315774
0.000311824
0.000306156
0.000298275
0.000288467
0.000277461
0.000266011
0.000254361
0.000240905
0.000224793
0.000202236
0.000167299
0.000125225
6.08472e-05
0.000136706
0.000202268
0.000253071
0.000288192
0.000312929
0.000331439
0.000345379
0.000355303
0.000361529
0.000364463
0.000364719
0.00036318
0.000360091
0.000355798
0.000350694
0.000345175
0.00033958
0.000334118
0.000329043
0.000324613
0.000321406
0.000319801
0.000317593
0.000313227
0.000306081
0.00029639
0.000285012
0.000273008
0.000260705
0.000246634
0.000229907
0.000206525
0.000170293
0.000126564
6.15097e-05
0.000137326
0.000202754
0.000253292
0.000288162
0.00031275
0.000331186
0.000345087
0.000354979
0.000361166
0.00036405
0.000364241
0.000362525
0.00035914
0.000354449
0.000348892
0.000342947
0.000337085
0.000331683
0.00032717
0.00032395
0.000322683
0.000323141
0.000322801
0.000319946
0.000313805
0.000304509
0.000292945
0.00028042
0.000267352
0.000252524
0.000235074
0.000210789
0.000173202
0.000127787
6.21659e-05
0.000137886
0.000203143
0.000253391
0.000288001
0.000312438
0.000330808
0.000344685
0.000354571
0.000360754
0.000363629
0.000363802
0.000361944
0.000358277
0.000353173
0.000347101
0.000340615
0.000334319
0.000328776
0.000324633
0.00032249
0.000323122
0.000325629
0.00032723
0.000326047
0.000321153
0.000312541
0.000301055
0.000288156
0.000274307
0.000258626
0.000240338
0.000215035
0.000176004
0.000128871
6.28115e-05
0.000138393
0.000203448
0.000253387
0.000287729
0.000312017
0.000330329
0.000344197
0.000354101
0.000360317
0.000363232
0.000363442
0.000361494
0.000357583
0.000352074
0.000345455
0.000338337
0.000331448
0.000325555
0.000321559
0.000320306
0.000322716
0.000327201
0.000330751
0.000331328
0.000327854
0.000320176
0.000309048
0.000296
0.000281454
0.000264894
0.000245687
0.000219252
0.00017869
0.000129819
6.34299e-05
0.000138822
0.000203639
0.00025325
0.00028732
0.000311462
0.000329723
0.000343597
0.000353544
0.00035983
0.000362837
0.000363148
0.000361177
0.000357084
0.000351213
0.00034405
0.000336245
0.000328632
0.000322182
0.000318087
0.000317498
0.000321511
0.000327866
0.000333336
0.000335714
0.000333775
0.000327224
0.000316703
0.000303754
0.000288664
0.000271276
0.000251111
0.000223457
0.000181289
0.000130667
6.40152e-05
0.000139176
0.000203727
0.000252998
0.000286795
0.000310794
0.000329012
0.000342908
0.000352923
0.000359316
0.000362466
0.000362947
0.00036103
0.000356835
0.000350671
0.000343005
0.000334497
0.000326059
0.00031886
0.000314404
0.000314207
0.000319585
0.000327655
0.000334975
0.000339156
0.000338828
0.000333557
0.000323866
0.000311248
0.000295792
0.000277671
0.000256563
0.000227646
0.000183834
0.000131462
6.45568e-05
0.000139438
0.00020369
0.00025261
0.000286135
0.000309995
0.000328178
0.000342107
0.000352213
0.000358751
0.000362098
0.000362821
0.000361046
0.000356847
0.000350488
0.000342397
0.000333214
0.000323898
0.000315783
0.000310702
0.000310597
0.000317049
0.000326645
0.000335724
0.000341685
0.000342994
0.00033908
0.000330355
0.000318307
0.000302705
0.000284002
0.000262011
0.000231833
0.000186368
0.000132245
6.50541e-05
0.000139617
0.000203545
0.000252105
0.00028536
0.000309084
0.000327236
0.000341209
0.000351422
0.000358136
0.000361731
0.000362765
0.000361224
0.000357133
0.000350702
0.000342301
0.000332522
0.000322324
0.000313165
0.000307189
0.000306829
0.000313984
0.000324868
0.00033559
0.000343303
0.000346287
0.000343848
0.000336329
0.00032491
0.000309317
0.000290183
0.000267407
0.000236016
0.000188922
0.000133052
6.55019e-05
0.000139706
0.000203284
0.000251478
0.000284463
0.000308054
0.000326176
0.000340199
0.000350535
0.000357451
0.000361337
0.000362749
0.000361534
0.000357672
0.000351312
0.000342751
0.000332509
0.000321496
0.000311227
0.000304119
0.000303129
0.000310543
0.000322415
0.000334638
0.000344072
0.000348769
0.000347897
0.000341724
0.00033104
0.000315596
0.000296175
0.000272725
0.000240195
0.000191515
0.000133891
6.58994e-05
0.000139713
0.000202919
0.000250741
0.000283458
0.000306913
0.000325005
0.000339079
0.000349546
0.000356686
0.0003609
0.000362745
0.000361942
0.000358431
0.000352296
0.000343754
0.000333227
0.000321535
0.000310171
0.000301743
0.000299722
0.000306872
0.000319343
0.000332868
0.00034397
0.000350416
0.000351194
0.00034648
0.000336654
0.000321508
0.000301949
0.000277951
0.000244381
0.000194167