/*--------------------------------*- C++ -*----------------------------------*\
| =========                 |                                                 |
| \\      /  F ield         | OpenFOAM: The Open Source CFD Toolbox           |
|  \\    /   O peration     | Version:  v2006                                 |
|   \\  /    A nd           | Website:  www.openfoam.com                      |
|    \\/     M anipulation  |                                                 |
\*---------------------------------------------------------------------------*/
FoamFile
{
    version     2.0;
    format      ascii;
    class       volScalarField;
    location    "42";
    object      nut;
}
// * * * * * * * * * * * * * * * * * * * * * * * * * * * * * * * * * * * * * //

dimensions      [0 2 -1 0 0 0 0];


internalField   nonuniform List<scalar> 
78750
(
3.84433e-08
9.14307e-07
9.10202e-07
8.99437e-07
8.71521e-07
8.29154e-07
7.79212e-07
7.2777e-07
6.78841e-07
6.34623e-07
5.96077e-07
5.63433e-07
5.36403e-07
5.1441e-07
4.96739e-07
4.82625e-07
4.71308e-07
4.62066e-07
4.54258e-07
4.47334e-07
4.40821e-07
4.34303e-07
4.27454e-07
4.2014e-07
4.11981e-07
4.02576e-07
3.9135e-07
3.77328e-07
3.58791e-07
3.32818e-07
2.95067e-07
2.42462e-07
1.79173e-07
1.23229e-07
4.13277e-09
2.00326e-09
9.3883e-07
2.39565e-06
4.17994e-06
5.1744e-06
5.56746e-06
5.70712e-06
5.74377e-06
5.72619e-06
5.68411e-06
5.63316e-06
5.58004e-06
5.52661e-06
5.4726e-06
5.41695e-06
5.35848e-06
5.29612e-06
5.2289e-06
5.15592e-06
5.07635e-06
4.98918e-06
4.89305e-06
4.78627e-06
4.66721e-06
4.53288e-06
4.37958e-06
4.20212e-06
3.99285e-06
3.74089e-06
3.43396e-06
1.99368e-06
1.17454e-06
9.44223e-07
1.22938e-06
1.8672e-08
2.58797e-09
1.56036e-06
2.55799e-06
3.30183e-06
3.81226e-06
4.14809e-06
4.3737e-06
4.53744e-06
4.66989e-06
4.78996e-06
4.90658e-06
5.02172e-06
5.13307e-06
5.23599e-06
5.32504e-06
5.39523e-06
5.44271e-06
5.4652e-06
5.46226e-06
5.43538e-06
5.38778e-06
5.32324e-06
5.24425e-06
5.1515e-06
5.04404e-06
4.92005e-06
4.77544e-06
4.60417e-06
3.85918e-06
2.56389e-06
1.71975e-06
1.33035e-06
1.5934e-06
1.51206e-06
3.01572e-08
1.12226e-09
8.70157e-07
1.49054e-06
1.98372e-06
2.35115e-06
2.62053e-06
2.83735e-06
3.05148e-06
3.30186e-06
3.60986e-06
3.97592e-06
4.38477e-06
4.8129e-06
5.23489e-06
5.62772e-06
5.97302e-06
6.25776e-06
6.47401e-06
6.61816e-06
6.69005e-06
6.69226e-06
6.62956e-06
6.50879e-06
6.3391e-06
6.1323e-06
5.90288e-06
5.20702e-06
4.05299e-06
2.99958e-06
2.16342e-06
1.61131e-06
1.41495e-06
2.03686e-06
1.55356e-06
3.90897e-08
5.57186e-10
5.23362e-07
9.52191e-07
1.35911e-06
1.75544e-06
2.16212e-06
2.60295e-06
3.09601e-06
3.64661e-06
4.24632e-06
4.87614e-06
5.51037e-06
6.12158e-06
6.68453e-06
7.17862e-06
7.58904e-06
7.90673e-06
8.12774e-06
8.25218e-06
8.2831e-06
8.22543e-06
8.08538e-06
7.87053e-06
7.59093e-06
7.26203e-06
5.93748e-06
4.59858e-06
3.48782e-06
2.6152e-06
1.9858e-06
1.61138e-06
1.58903e-06
2.67291e-06
1.52456e-06
4.90998e-08
6.19882e-10
6.96833e-07
1.3551e-06
2.07881e-06
2.87462e-06
3.64729e-06
4.40916e-06
5.35115e-06
6.49684e-06
7.36835e-06
8.17074e-06
8.8817e-06
9.48506e-06
9.97085e-06
1.03347e-05
1.05772e-05
1.07024e-05
1.07176e-05
1.06317e-05
1.04541e-05
1.01947e-05
9.86248e-06
9.46626e-06
9.0167e-06
7.91422e-06
6.1941e-06
4.66968e-06
3.43847e-06
2.52214e-06
1.91347e-06
1.60003e-06
1.68513e-06
3.16389e-06
1.55887e-06
5.81006e-08
1.11199e-09
9.32147e-07
1.95722e-06
3.04351e-06
4.20343e-06
5.53244e-06
7.15232e-06
8.69979e-06
9.71921e-06
1.06045e-05
1.1344e-05
1.1933e-05
1.23726e-05
1.26677e-05
1.28267e-05
1.28598e-05
1.27783e-05
1.25943e-05
1.23194e-05
1.19649e-05
1.1541e-05
1.1057e-05
1.05225e-05
9.70167e-06
7.7714e-06
5.97974e-06
4.47336e-06
3.28513e-06
2.42532e-06
1.88049e-06
1.6418e-06
1.85826e-06
3.87467e-06
1.56343e-06
6.62078e-08
1.96611e-09
1.02269e-06
2.20956e-06
3.61747e-06
5.28532e-06
7.34889e-06
9.8916e-06
1.12616e-05
1.22804e-05
1.31177e-05
1.37749e-05
1.42579e-05
1.45756e-05
1.47397e-05
1.4763e-05
1.46591e-05
1.44421e-05
1.41256e-05
1.37228e-05
1.32457e-05
1.27051e-05
1.21111e-05
1.12909e-05
9.39826e-06
7.49778e-06
5.7626e-06
4.28621e-06
3.13444e-06
2.32283e-06
1.83231e-06
1.6566e-06
1.98607e-06
4.44805e-06
1.57619e-06
7.26624e-08
2.98312e-09
1.13145e-06
2.49768e-06
4.22653e-06
6.38343e-06
9.11403e-06
1.2405e-05
1.38056e-05
1.48529e-05
1.56817e-05
1.63002e-05
1.67195e-05
1.69533e-05
1.70165e-05
1.69253e-05
1.66963e-05
1.63462e-05
1.58913e-05
1.53473e-05
1.47286e-05
1.405e-05
1.268e-05
1.09294e-05
9.10131e-06
7.2898e-06
5.60193e-06
4.16112e-06
3.046e-06
2.27411e-06
1.82594e-06
1.70297e-06
2.14196e-06
4.97805e-06
1.5819e-06
7.86748e-08
4.12131e-09
1.24897e-06
2.78397e-06
4.77968e-06
7.31319e-06
1.05122e-05
1.42989e-05
1.63696e-05
1.7436e-05
1.82518e-05
1.8831e-05
1.91893e-05
1.93441e-05
1.93137e-05
1.91166e-05
1.87715e-05
1.82966e-05
1.77102e-05
1.68725e-05
1.53959e-05
1.38787e-05
1.23153e-05
1.06644e-05
8.92631e-06
7.16338e-06
5.50063e-06
4.08217e-06
2.99306e-06
2.24993e-06
1.83303e-06
1.75254e-06
2.28898e-06
5.38352e-06
1.58867e-06
8.42703e-08
5.28218e-09
1.35136e-06
3.01085e-06
5.18473e-06
7.9636e-06
1.14674e-05
1.56189e-05
1.88965e-05
1.99831e-05
2.07948e-05
2.13499e-05
2.16678e-05
2.17682e-05
2.16709e-05
2.13952e-05
2.09607e-05
1.97075e-05
1.80095e-05
1.6418e-05
1.4939e-05
1.34985e-05
1.20191e-05
1.04435e-05
8.76318e-06
7.04e-06
5.40759e-06
4.01933e-06
2.96067e-06
2.24687e-06
1.85898e-06
1.81761e-06
2.44827e-06
5.69517e-06
1.59552e-06
8.98037e-08
6.56924e-09
1.44142e-06
3.19539e-06
5.4976e-06
8.46054e-06
1.22043e-05
1.66513e-05
2.11375e-05
2.24183e-05
2.32098e-05
2.37335e-05
2.40118e-05
2.40659e-05
2.39166e-05
2.33187e-05
2.13281e-05
1.939e-05
1.76429e-05
1.60665e-05
1.46107e-05
1.32063e-05
1.17768e-05
1.02599e-05
8.6349e-06
6.95381e-06
5.35148e-06
3.98732e-06
2.94972e-06
2.25659e-06
1.89162e-06
1.8854e-06
2.60604e-06
5.92197e-06
1.60393e-06
9.53115e-08
7.9398e-09
1.50894e-06
3.32202e-06
5.70611e-06
8.80913e-06
1.27703e-05
1.74449e-05
2.20887e-05
2.45104e-05
2.52778e-05
2.5776e-05
2.60282e-05
2.60559e-05
2.53719e-05
2.32903e-05
2.11681e-05
1.91944e-05
1.74055e-05
1.57881e-05
1.4298e-05
1.28729e-05
1.14449e-05
9.95615e-06
8.38262e-06
6.76712e-06
5.23392e-06
3.93017e-06
2.9366e-06
2.27404e-06
1.93428e-06
1.96332e-06
2.77585e-06
6.08939e-06
1.61348e-06
1.00733e-07
9.39283e-09
1.5456e-06
3.38589e-06
5.82632e-06
9.06143e-06
1.32575e-05
1.81997e-05
2.30222e-05
2.63055e-05
2.70584e-05
2.75419e-05
2.77799e-05
2.74284e-05
2.5475e-05
2.33035e-05
2.11681e-05
1.91732e-05
1.73523e-05
1.56913e-05
1.41481e-05
1.26688e-05
1.11992e-05
9.69232e-06
8.13005e-06
6.55458e-06
5.08273e-06
3.84498e-06
2.90649e-06
2.28439e-06
1.97623e-06
2.04454e-06
2.95316e-06
6.20476e-06
1.62397e-06
1.05996e-07
1.09349e-08
1.5625e-06
3.419e-06
5.9224e-06
9.32329e-06
1.38181e-05
1.90945e-05
2.40947e-05
2.77402e-05
2.86477e-05
2.91196e-05
2.93229e-05
2.77322e-05
2.56815e-05
2.34885e-05
2.13392e-05
1.93279e-05
1.7477e-05
1.57652e-05
1.41522e-05
1.25949e-05
1.10523e-05
9.49175e-06
7.90725e-06
6.34701e-06
4.92365e-06
3.74912e-06
2.86863e-06
2.29133e-06
2.01848e-06
2.12932e-06
3.13885e-06
6.27896e-06
1.63579e-06
1.11117e-07
1.26319e-08
1.5759e-06
3.45664e-06
6.04816e-06
9.65563e-06
1.44828e-05
2.00643e-05
2.5122e-05
2.86052e-05
3.01206e-05
3.05162e-05
2.95744e-05
2.7891e-05
2.58237e-05
2.36433e-05
2.15197e-05
1.95279e-05
1.76762e-05
1.59351e-05
1.4265e-05
1.26309e-05
1.10039e-05
9.36772e-06
7.73333e-06
6.16158e-06
4.76684e-06
3.64545e-06
2.82139e-06
2.292e-06
2.05897e-06
2.2173e-06
3.33496e-06
6.31755e-06
1.64809e-06
1.1606e-07
1.44205e-08
1.58783e-06
3.49586e-06
6.18155e-06
9.99872e-06
1.5139e-05
2.09573e-05
2.59905e-05
2.92657e-05
3.07418e-05
3.07523e-05
2.97e-05
2.79774e-05
2.59229e-05
2.3787e-05
2.17163e-05
1.97678e-05
1.79355e-05
1.61832e-05
1.44716e-05
1.27695e-05
1.10571e-05
9.33366e-06
7.63007e-06
6.0242e-06
4.63675e-06
3.55236e-06
2.77523e-06
2.29011e-06
2.09703e-06
2.30516e-06
3.53524e-06
6.33101e-06
1.66137e-06
1.20893e-07
1.6356e-08
1.60311e-06
3.54563e-06
6.338e-06
1.03806e-05
1.58303e-05
2.18261e-05
2.67573e-05
2.97861e-05
3.10212e-05
3.08563e-05
2.97094e-05
2.79667e-05
2.59485e-05
2.38793e-05
2.18815e-05
1.99936e-05
1.81975e-05
1.64518e-05
1.47167e-05
1.29621e-05
1.11741e-05
9.36479e-06
7.58442e-06
5.93043e-06
4.53425e-06
3.473e-06
2.73375e-06
2.28881e-06
2.13527e-06
2.3955e-06
3.74362e-06
6.32363e-06
1.67492e-06
1.25605e-07
1.83694e-08
1.62051e-06
3.60011e-06
6.50136e-06
1.07687e-05
1.65111e-05
2.26447e-05
2.74533e-05
3.02505e-05
3.12698e-05
3.09513e-05
2.97254e-05
2.79736e-05
2.59978e-05
2.39981e-05
2.20743e-05
2.02461e-05
1.84851e-05
1.67469e-05
1.4991e-05
1.31883e-05
1.13301e-05
9.43974e-06
7.58391e-06
5.87758e-06
4.463e-06
3.41279e-06
2.70079e-06
2.28929e-06
2.17262e-06
2.48553e-06
3.95483e-06
6.30438e-06
1.68903e-06
1.30231e-07
2.04797e-08
1.63993e-06
3.65925e-06
6.67352e-06
1.11699e-05
1.71921e-05
2.342e-05
2.80733e-05
3.06349e-05
3.14481e-05
3.09884e-05
2.96957e-05
2.79446e-05
2.60185e-05
2.40947e-05
2.22521e-05
2.04926e-05
1.87772e-05
1.70569e-05
1.52882e-05
1.34424e-05
1.15165e-05
9.54575e-06
7.61422e-06
5.85387e-06
4.41681e-06
3.37104e-06
2.67912e-06
2.29533e-06
2.2124e-06
2.57783e-06
4.17141e-06
6.2757e-06
1.70323e-06
1.34752e-07
2.26326e-08
1.65998e-06
3.71869e-06
6.84286e-06
1.15586e-05
1.78328e-05
2.41156e-05
2.86027e-05
3.09441e-05
3.1573e-05
3.0993e-05
2.96499e-05
2.79098e-05
2.60381e-05
2.41911e-05
2.24276e-05
2.07361e-05
1.90706e-05
1.73752e-05
1.56021e-05
1.37207e-05
1.17323e-05
9.68375e-06
7.67649e-06
5.85961e-06
4.39505e-06
3.3468e-06
2.66794e-06
2.30633e-06
2.25392e-06
2.67122e-06
4.39068e-06
6.24415e-06
1.71781e-06
1.39219e-07
2.48658e-08
1.68125e-06
3.77997e-06
7.01397e-06
1.19454e-05
1.84484e-05
2.47452e-05
2.90473e-05
3.1173e-05
3.16309e-05
3.09456e-05
2.9565e-05
2.78445e-05
2.60314e-05
2.42622e-05
2.25779e-05
2.09552e-05
1.9342e-05
1.76774e-05
1.59074e-05
1.39987e-05
1.19554e-05
9.83554e-06
7.75732e-06
5.88646e-06
4.39412e-06
3.33994e-06
2.66909e-06
2.32471e-06
2.29928e-06
2.76717e-06
4.61354e-06
6.21063e-06
1.73241e-06
1.43599e-07
2.71199e-08
1.70148e-06
3.83753e-06
7.17514e-06
1.23102e-05
1.90201e-05
2.53155e-05
2.94451e-05
3.13789e-05
3.16866e-05
3.09107e-05
2.95003e-05
2.78008e-05
2.60426e-05
2.4345e-05
2.27331e-05
2.11741e-05
1.96108e-05
1.79769e-05
1.62127e-05
1.42805e-05
1.21865e-05
9.99879e-06
7.85238e-06
5.92906e-06
4.40865e-06
3.34612e-06
2.67981e-06
2.34929e-06
2.34842e-06
2.86624e-06
4.84055e-06
6.17876e-06
1.74728e-06
1.47921e-07
2.94376e-08
1.72139e-06
3.89398e-06
7.33414e-06
1.26695e-05
1.95688e-05
2.58381e-05
2.97903e-05
3.15409e-05
3.17108e-05
3.08554e-05
2.94231e-05
2.77484e-05
2.60456e-05
2.44169e-05
2.28745e-05
2.13781e-05
1.98659e-05
1.82658e-05
1.65117e-05
1.45617e-05
1.24226e-05
1.01723e-05
7.9618e-06
5.98844e-06
4.44016e-06
3.36694e-06
2.70152e-06
2.38105e-06
2.40172e-06
2.96799e-06
5.06982e-06
6.14906e-06
1.76227e-06
1.5216e-07
3.17834e-08
1.74039e-06
3.94782e-06
7.48667e-06
1.30132e-05
2.0082e-05
2.63109e-05
3.00939e-05
3.16778e-05
3.17251e-05
3.08015e-05
2.93532e-05
2.77044e-05
2.60543e-05
2.44898e-05
2.30118e-05
2.15749e-05
2.01124e-05
1.85456e-05
1.68024e-05
1.48363e-05
1.26552e-05
1.03461e-05
8.07558e-06
6.0558e-06
4.48194e-06
3.39803e-06
2.73201e-06
2.41959e-06
2.46016e-06
3.07457e-06
5.30475e-06
6.12295e-06
1.77747e-06
1.56334e-07
3.41866e-08
1.75878e-06
3.99996e-06
7.63549e-06
1.33473e-05
2.05668e-05
2.67369e-05
3.03512e-05
3.17782e-05
3.17139e-05
3.07312e-05
2.92727e-05
2.76515e-05
2.60534e-05
2.4551e-05
2.31359e-05
2.17586e-05
2.03473e-05
1.88172e-05
1.70891e-05
1.51113e-05
1.28922e-05
1.05277e-05
8.19996e-06
6.13566e-06
4.53681e-06
3.44099e-06
2.77201e-06
2.46491e-06
2.52306e-06
3.18447e-06
5.54216e-06
6.10172e-06
1.79282e-06
1.60427e-07
3.66265e-08
1.77637e-06
4.05018e-06
7.78025e-06
1.36716e-05
2.10265e-05
2.71283e-05
3.05811e-05
3.18631e-05
3.16977e-05
3.06626e-05
2.91963e-05
2.76014e-05
2.60514e-05
2.46063e-05
2.32501e-05
2.19296e-05
2.05685e-05
1.90756e-05
1.73642e-05
1.53771e-05
1.31228e-05
1.07063e-05
8.32476e-06
6.21948e-06
4.59863e-06
3.49212e-06
2.82005e-06
2.51731e-06
2.59198e-06
3.30028e-06
5.78561e-06
6.08334e-06
1.80816e-06
1.64452e-07
3.91289e-08
1.79361e-06
4.09959e-06
7.92336e-06
1.39898e-05
2.14642e-05
2.74845e-05
3.07784e-05
3.19239e-05
3.16658e-05
3.05846e-05
2.91133e-05
2.75446e-05
2.60408e-05
2.46506e-05
2.33518e-05
2.20884e-05
2.07794e-05
1.93266e-05
1.76358e-05
1.56432e-05
1.33569e-05
1.08906e-05
8.45701e-06
6.31194e-06
4.66976e-06
3.55225e-06
2.87608e-06
2.57633e-06
2.66635e-06
3.42157e-06
6.03485e-06
6.07102e-06
1.8239e-06
1.68395e-07
4.16722e-08
1.81024e-06
4.14773e-06
8.06422e-06
1.43022e-05
2.18836e-05
2.78157e-05
3.09564e-05
3.19733e-05
3.16288e-05
3.05047e-05
2.90285e-05
2.74836e-05
2.60216e-05
2.46821e-05
2.3438e-05
2.22305e-05
2.09739e-05
1.9563e-05
1.78952e-05
1.58998e-05
1.35842e-05
1.10705e-05
8.5875e-06
6.40536e-06
4.74462e-06
3.61796e-06
2.9387e-06
2.64221e-06
2.74751e-06
3.55011e-06
6.29124e-06
6.06069e-06
1.83936e-06
1.72242e-07
4.42811e-08
1.82674e-06
4.19579e-06
8.20567e-06
1.46138e-05
2.22903e-05
2.8125e-05
3.1115e-05
3.20094e-05
3.15836e-05
3.04192e-05
2.89385e-05
2.74159e-05
2.59925e-05
2.47008e-05
2.35107e-05
2.23596e-05
2.11572e-05
1.97909e-05
1.815e-05
1.6156e-05
1.38145e-05
1.12558e-05
8.72427e-06
6.50511e-06
4.82562e-06
3.68951e-06
3.00712e-06
2.714e-06
2.83501e-06
3.68744e-06
6.56303e-06
6.05863e-06
1.85535e-06
1.75973e-07
4.69282e-08
1.84276e-06
4.2431e-06
8.34674e-06
1.49243e-05
2.26874e-05
2.84206e-05
3.12643e-05
3.20409e-05
3.1536e-05
3.03308e-05
2.88427e-05
2.73387e-05
2.59503e-05
2.47034e-05
2.35649e-05
2.24693e-05
2.13211e-05
2.00012e-05
1.839e-05
1.64012e-05
1.40377e-05
1.14374e-05
8.86008e-06
6.60604e-06
4.90939e-06
3.76474e-06
3.08016e-06
2.79154e-06
2.92985e-06
3.83602e-06
6.85184e-06
6.05983e-06
1.87154e-06
1.79567e-07
4.96372e-08
1.85869e-06
4.29058e-06
8.48974e-06
1.52383e-05
2.30803e-05
2.87067e-05
3.14065e-05
3.20677e-05
3.1484e-05
3.02368e-05
2.87392e-05
2.72513e-05
2.58953e-05
2.46911e-05
2.36031e-05
2.25626e-05
2.147e-05
2.01991e-05
1.86216e-05
1.6643e-05
1.42629e-05
1.16255e-05
9.00464e-06
6.71581e-06
5.00036e-06
3.84516e-06
3.1574e-06
2.87364e-06
3.03104e-06
3.99516e-06
7.15536e-06
6.06641e-06
1.88826e-06
1.83015e-07
5.23772e-08
1.87412e-06
4.3373e-06
8.63289e-06
1.55536e-05
2.34703e-05
2.89923e-05
3.15522e-05
3.20976e-05
3.143e-05
3.01361e-05
2.86257e-05
2.71508e-05
2.58245e-05
2.46603e-05
2.36205e-05
2.26336e-05
2.1596e-05
2.03749e-05
1.88337e-05
1.68697e-05
1.44791e-05
1.18113e-05
9.15303e-06
6.83307e-06
5.09933e-06
3.93196e-06
3.23944e-06
2.96028e-06
3.13828e-06
4.16468e-06
7.47166e-06
6.07551e-06
1.9052e-06
1.86329e-07
5.51744e-08
1.88942e-06
4.38424e-06
8.77824e-06
1.58722e-05
2.38527e-05
2.92513e-05
3.16695e-05
3.21071e-05
3.13631e-05
3.00249e-05
2.85023e-05
2.70404e-05
2.57423e-05
2.46162e-05
2.36224e-05
2.26876e-05
2.17044e-05
2.05339e-05
1.90316e-05
1.70867e-05
1.4692e-05
1.20013e-05
9.31218e-06
6.9649e-06
5.21223e-06
4.0292e-06
3.32813e-06
3.05132e-06
3.25001e-06
4.34128e-06
7.79414e-06
6.0907e-06
1.92276e-06
1.89562e-07
5.80015e-08
1.90429e-06
4.43084e-06
8.92444e-06
1.61883e-05
2.42151e-05
2.94834e-05
3.17621e-05
3.20955e-05
3.12847e-05
2.99047e-05
2.83698e-05
2.69196e-05
2.56478e-05
2.45573e-05
2.36069e-05
2.27215e-05
2.17903e-05
2.0669e-05
1.92059e-05
1.72824e-05
1.48886e-05
1.2183e-05
9.47298e-06
7.10714e-06
5.33935e-06
4.13977e-06
3.42673e-06
3.14894e-06
3.36701e-06
4.52513e-06
8.1199e-06
6.11132e-06
1.94088e-06
1.92773e-07
6.08894e-08
1.91911e-06
4.47833e-06
9.07585e-06
1.65133e-05
2.45643e-05
2.96927e-05
3.18311e-05
3.2063e-05
3.11896e-05
2.9775e-05
2.82315e-05
2.67938e-05
2.55473e-05
2.44907e-05
2.35818e-05
2.27444e-05
2.18637e-05
2.07901e-05
1.93652e-05
1.74634e-05
1.50725e-05
1.23571e-05
9.6341e-06
7.25894e-06
5.48097e-06
4.26553e-06
3.53772e-06
3.25495e-06
3.48986e-06
4.71563e-06
8.44477e-06
6.13938e-06
1.95966e-06
1.96012e-07
6.38105e-08
1.9334e-06
4.52514e-06
9.22611e-06
1.68301e-05
2.48881e-05
2.98724e-05
3.18749e-05
3.20105e-05
3.10797e-05
2.96403e-05
2.80894e-05
2.66629e-05
2.54405e-05
2.44163e-05
2.35462e-05
2.27519e-05
2.19175e-05
2.08894e-05
1.95017e-05
1.76206e-05
1.52318e-05
1.25082e-05
9.77931e-06
7.40681e-06
5.62864e-06
4.40393e-06
3.66321e-06
3.37389e-06
3.62375e-06
4.91766e-06
8.77643e-06
6.17214e-06
1.97877e-06
1.99244e-07
6.68042e-08
1.94799e-06
4.57371e-06
9.38028e-06
1.71462e-05
2.51979e-05
3.00328e-05
3.19002e-05
3.19435e-05
3.09603e-05
2.95001e-05
2.79457e-05
2.65319e-05
2.53334e-05
2.43409e-05
2.35085e-05
2.27566e-05
2.19668e-05
2.09806e-05
1.9625e-05
1.77598e-05
1.53699e-05
1.26359e-05
9.90265e-06
7.54047e-06
5.77155e-06
4.54721e-06
3.80001e-06
3.50649e-06
3.77176e-06
5.13598e-06
9.12145e-06
6.20645e-06
1.99769e-06
2.02374e-07
6.98378e-08
1.96268e-06
4.62339e-06
9.53724e-06
1.74586e-05
2.54863e-05
3.01677e-05
3.19048e-05
3.18612e-05
3.08301e-05
2.93527e-05
2.7798e-05
2.63986e-05
2.52241e-05
2.4262e-05
2.3465e-05
2.2752e-05
2.20034e-05
2.10571e-05
1.97327e-05
1.78817e-05
1.54855e-05
1.27356e-05
9.99602e-06
7.64863e-06
5.8979e-06
4.6861e-06
3.94356e-06
3.65336e-06
3.93926e-06
5.38129e-06
9.49267e-06
6.2376e-06
2.01588e-06
2.05241e-07
7.29174e-08
1.97757e-06
4.67503e-06
9.69967e-06
1.77666e-05
2.5756e-05
3.02826e-05
3.18932e-05
3.17672e-05
3.0693e-05
2.9203e-05
2.76522e-05
2.62686e-05
2.51173e-05
2.41837e-05
2.34194e-05
2.27429e-05
2.20332e-05
2.11251e-05
1.98317e-05
1.79952e-05
1.55916e-05
1.28202e-05
1.0066e-05
7.7289e-06
5.9986e-06
4.80922e-06
4.08465e-06
3.80995e-06
4.127e-06
5.66003e-06
9.89537e-06
6.26113e-06
2.03265e-06
2.07673e-07
7.5977e-08
1.99217e-06
4.72655e-06
9.86178e-06
1.80626e-05
2.60012e-05
3.03741e-05
3.18633e-05
3.16594e-05
3.05453e-05
2.90453e-05
2.75032e-05
2.61354e-05
2.50055e-05
2.40983e-05
2.33643e-05
2.27215e-05
2.20485e-05
2.1178e-05
1.99183e-05
1.81018e-05
1.56961e-05
1.29032e-05
1.01275e-05
7.79094e-06
6.07482e-06
4.91095e-06
4.21555e-06
3.97099e-06
4.33481e-06
5.97806e-06
1.03299e-05
6.27577e-06
2.04796e-06
2.09557e-07
7.89854e-08
2.00621e-06
4.77636e-06
1.00191e-05
1.83466e-05
2.62252e-05
3.04456e-05
3.18171e-05
3.15387e-05
3.03875e-05
2.88801e-05
2.73492e-05
2.59981e-05
2.48889e-05
2.40063e-05
2.33e-05
2.2688e-05
2.20494e-05
2.12168e-05
1.99956e-05
1.82103e-05
1.58159e-05
1.30095e-05
1.02083e-05
7.85806e-06
6.13969e-06
4.99292e-06
4.32982e-06
4.12716e-06
4.55427e-06
6.32778e-06
1.07776e-05
6.28461e-06
2.06222e-06
2.1093e-07
8.18805e-08
2.01988e-06
4.82505e-06
1.01722e-05
1.86166e-05
2.64266e-05
3.04965e-05
3.1753e-05
3.14018e-05
3.0215e-05
2.87009e-05
2.71818e-05
2.5848e-05
2.47594e-05
2.39002e-05
2.32194e-05
2.26354e-05
2.20288e-05
2.12345e-05
2.00586e-05
1.83201e-05
1.596e-05
1.31602e-05
1.03386e-05
7.96172e-06
6.2182e-06
5.06822e-06
4.42867e-06
4.27166e-06
4.77431e-06
6.69301e-06
1.12126e-05
6.29376e-06
2.07635e-06
2.1198e-07
8.46476e-08
2.03275e-06
4.87104e-06
1.03184e-05
1.88714e-05
2.66063e-05
3.05275e-05
3.16714e-05
3.12495e-05
3.00294e-05
2.8511e-05
2.70055e-05
2.56898e-05
2.46213e-05
2.37834e-05
2.31249e-05
2.25651e-05
2.19873e-05
2.12307e-05
2.01056e-05
1.84302e-05
1.61318e-05
1.33681e-05
1.05428e-05
8.13296e-06
6.33957e-06
5.15707e-06
4.51929e-06
4.39903e-06
4.97899e-06
7.04618e-06
1.16091e-05
6.31239e-06
2.09162e-06
2.1302e-07
8.72586e-08
2.04471e-06
4.91446e-06
1.04582e-05
1.91109e-05
2.67641e-05
3.05382e-05
3.15714e-05
3.10801e-05
2.9828e-05
2.83068e-05
2.68157e-05
2.55192e-05
2.44707e-05
2.36531e-05
2.30144e-05
2.24754e-05
2.19228e-05
2.12016e-05
2.013e-05
1.853e-05
1.63194e-05
1.36275e-05
1.08279e-05
8.39231e-06
6.53162e-06
5.28538e-06
4.61809e-06
4.51295e-06
5.15939e-06
7.3615e-06
1.19529e-05
6.3463e-06
2.10878e-06
2.14329e-07
8.97542e-08
2.05603e-06
4.95584e-06
1.05928e-05
1.93377e-05
2.69031e-05
3.0531e-05
3.14552e-05
3.08965e-05
2.96146e-05
2.80924e-05
2.66171e-05
2.53405e-05
2.43121e-05
2.35134e-05
2.28919e-05
2.23696e-05
2.18374e-05
2.11471e-05
2.01265e-05
1.86064e-05
1.65013e-05
1.39142e-05
1.11786e-05
8.73988e-06
6.80994e-06
5.47618e-06
4.74585e-06
4.62431e-06
5.31176e-06
7.62304e-06
1.22447e-05
6.39748e-06
2.12794e-06
2.16049e-07
9.21431e-08
2.06634e-06
4.99477e-06
1.07217e-05
1.95501e-05
2.70212e-05
3.05046e-05
3.1322e-05
3.06981e-05
2.93886e-05
2.78673e-05
2.64091e-05
2.51535e-05
2.41459e-05
2.33653e-05
2.27581e-05
2.2248e-05
2.17305e-05
2.10644e-05
2.00878e-05
1.86432e-05
1.66491e-05
1.4191e-05
1.15604e-05
9.15364e-06
7.17129e-06
5.74242e-06
4.92323e-06
4.75219e-06
5.44738e-06
7.83473e-06
1.24993e-05
6.46246e-06
2.1483e-06
2.18127e-07
9.44955e-08
2.0764e-06
5.03341e-06
1.08495e-05
1.97547e-05
2.71246e-05
3.04638e-05
3.1176e-05
3.04885e-05
2.91531e-05
2.76342e-05
2.61931e-05
2.49596e-05
2.39736e-05
2.32099e-05
2.26136e-05
2.21105e-05
2.16008e-05
2.09502e-05
2.00068e-05
1.86257e-05
1.67359e-05
1.44169e-05
1.19254e-05
9.59092e-06
7.59082e-06
6.08131e-06
5.16397e-06
4.91903e-06
5.59135e-06
8.02382e-06
1.27422e-05
6.53592e-06
2.16906e-06
2.20342e-07
9.6816e-08
2.086e-06
5.07121e-06
1.09743e-05
1.99471e-05
2.72093e-05
3.0406e-05
3.10157e-05
3.02665e-05
2.89064e-05
2.7391e-05
2.59685e-05
2.47584e-05
2.37942e-05
2.30458e-05
2.24568e-05
2.19553e-05
2.14462e-05
2.08022e-05
1.98796e-05
1.85459e-05
1.67439e-05
1.45582e-05
1.22239e-05
9.99905e-06
8.0273e-06
6.47078e-06
5.4682e-06
5.1425e-06
5.7741e-06
8.23233e-06
1.30019e-05
6.61004e-06
2.18898e-06
2.22377e-07
9.91319e-08
2.0957e-06
5.10973e-06
1.10992e-05
2.01326e-05
2.7281e-05
3.03363e-05
3.0845e-05
3.00352e-05
2.86509e-05
2.71395e-05
2.5736e-05
2.45501e-05
2.36075e-05
2.28724e-05
2.22867e-05
2.17809e-05
2.12653e-05
2.06192e-05
1.97065e-05
1.84042e-05
1.66695e-05
1.45998e-05
1.24219e-05
1.03307e-05
8.43304e-06
6.87759e-06
5.82229e-06
5.43e-06
6.0241e-06
8.50964e-06
1.33096e-05
6.68041e-06
2.2076e-06
2.23935e-07
1.01395e-07
2.10529e-06
5.14801e-06
1.12209e-05
2.03057e-05
2.73358e-05
3.02522e-05
3.06619e-05
2.97922e-05
2.8384e-05
2.6877e-05
2.54932e-05
2.43325e-05
2.34115e-05
2.26879e-05
2.21015e-05
2.15859e-05
2.10578e-05
2.04034e-05
1.94932e-05
1.82112e-05
1.65261e-05
1.45503e-05
1.25132e-05
1.05604e-05
8.76906e-06
7.26324e-06
6.20091e-06
5.77461e-06
6.35506e-06
8.89157e-06
1.36807e-05
6.74374e-06
2.22488e-06
2.24826e-07
1.0358e-07
2.11497e-06
5.18645e-06
1.13403e-05
2.04696e-05
2.73786e-05
3.01575e-05
3.04684e-05
2.95385e-05
2.81063e-05
2.66038e-05
2.52403e-05
2.41055e-05
2.32056e-05
2.2491e-05
2.18998e-05
2.13695e-05
2.08241e-05
2.01585e-05
1.92494e-05
1.79851e-05
1.63402e-05
1.44396e-05
1.25191e-05
1.06915e-05
9.0186e-06
7.59978e-06
6.57859e-06
6.16328e-06
6.77033e-06
9.39588e-06
1.41118e-05
6.80052e-06
2.24148e-06
2.25023e-07
1.05619e-07
2.12444e-06
5.22421e-06
1.1454e-05
2.06205e-05
2.74073e-05
3.00504e-05
3.02629e-05
2.92725e-05
2.78166e-05
2.63192e-05
2.49767e-05
2.38684e-05
2.2989e-05
2.22811e-05
2.16814e-05
2.11317e-05
2.05656e-05
1.98889e-05
1.89859e-05
1.77466e-05
1.61452e-05
1.43107e-05
1.24812e-05
1.07524e-05
9.18884e-06
7.87467e-06
6.93328e-06
6.57608e-06
7.25938e-06
1.0016e-05
1.45766e-05
6.85516e-06
2.25875e-06
2.24743e-07
1.07485e-07
2.13339e-06
5.26015e-06
1.15621e-05
2.07616e-05
2.74258e-05
2.99339e-05
3.00474e-05
2.89966e-05
2.75175e-05
2.6026e-05
2.47054e-05
2.3624e-05
2.2764e-05
2.20603e-05
2.14481e-05
2.08751e-05
2.02862e-05
1.96007e-05
1.87134e-05
1.75158e-05
1.59752e-05
1.42124e-05
1.2453e-05
1.07906e-05
9.31029e-06
8.0959e-06
7.25443e-06
6.99279e-06
7.79815e-06
1.07205e-05
1.50443e-05
6.91958e-06
2.27897e-06
2.24485e-07
1.09149e-07
2.14131e-06
5.2928e-06
1.16633e-05
2.08923e-05
2.74343e-05
2.98083e-05
2.98231e-05
2.87128e-05
2.72125e-05
2.57287e-05
2.44311e-05
2.33773e-05
2.25358e-05
2.18336e-05
2.12052e-05
2.06049e-05
1.99911e-05
1.92996e-05
1.84388e-05
1.73033e-05
1.58491e-05
1.4177e-05
1.24781e-05
1.08544e-05
9.42334e-06
8.28499e-06
7.54123e-06
7.39372e-06
8.35034e-06
1.14521e-05
1.54891e-05
7.0017e-06
2.30349e-06
2.24696e-07
1.10648e-07
2.14865e-06
5.32347e-06
1.17604e-05
2.10166e-05
2.74365e-05
2.9677e-05
2.95939e-05
2.84265e-05
2.69077e-05
2.54342e-05
2.41613e-05
2.31356e-05
2.23115e-05
2.1608e-05
2.09592e-05
2.0327e-05
1.96849e-05
1.89881e-05
1.81621e-05
1.71073e-05
1.57668e-05
1.42115e-05
1.25784e-05
1.09781e-05
9.56499e-06
8.46941e-06
7.80271e-06
7.76698e-06
8.88366e-06
1.21609e-05
1.59055e-05
7.10315e-06
2.3324e-06
2.25621e-07
1.1201e-07
2.15517e-06
5.35186e-06
1.18537e-05
2.11354e-05
2.74325e-05
2.95406e-05
2.93617e-05
2.81406e-05
2.66075e-05
2.51476e-05
2.39019e-05
2.29055e-05
2.2098e-05
2.13904e-05
2.07164e-05
2.00462e-05
1.93702e-05
1.86653e-05
1.78772e-05
1.69154e-05
1.5712e-05
1.43013e-05
1.27523e-05
1.11751e-05
9.75873e-06
8.67295e-06
8.05263e-06
8.10959e-06
9.37629e-06
1.28133e-05
1.62977e-05
7.2201e-06
2.36466e-06
2.27271e-07
1.133e-07
2.16119e-06
5.37931e-06
1.1947e-05
2.12535e-05
2.74258e-05
2.94015e-05
2.91289e-05
2.78581e-05
2.63153e-05
2.48729e-05
2.36573e-05
2.26916e-05
2.19002e-05
2.11854e-05
2.04806e-05
1.97649e-05
1.90467e-05
1.83268e-05
1.75738e-05
1.67103e-05
1.56604e-05
1.44197e-05
1.29809e-05
1.14406e-05
1.00142e-05
8.91339e-06
8.30744e-06
8.42883e-06
9.82261e-06
1.34e-05
1.667e-05
7.34343e-06
2.39833e-06
2.29474e-07
1.14548e-07
2.16675e-06
5.40599e-06
1.20401e-05
2.137e-05
2.7415e-05
2.92589e-05
2.88954e-05
2.75793e-05
2.60316e-05
2.46113e-05
2.34297e-05
2.24968e-05
2.17213e-05
2.09965e-05
2.02549e-05
1.94845e-05
1.87131e-05
1.79673e-05
1.72412e-05
1.64742e-05
1.55866e-05
1.45341e-05
1.32328e-05
1.17536e-05
1.03253e-05
9.19885e-06
8.58406e-06
8.74331e-06
1.02359e-05
1.39339e-05
1.70286e-05
7.46527e-06
2.43169e-06
2.31981e-07
1.15804e-07
2.17213e-06
5.43313e-06
1.21368e-05
2.14894e-05
2.74028e-05
2.91141e-05
2.86616e-05
2.73044e-05
2.57567e-05
2.43631e-05
2.32209e-05
2.23234e-05
2.15639e-05
2.08271e-05
2.0043e-05
1.92083e-05
1.8371e-05
1.75856e-05
1.68743e-05
1.61962e-05
1.54725e-05
1.46168e-05
1.34764e-05
1.20869e-05
1.06769e-05
9.52841e-06
8.89354e-06
9.07115e-06
1.06404e-05
1.44427e-05
1.73787e-05
7.57933e-06
2.46342e-06
2.34561e-07
1.17061e-07
2.17718e-06
5.4601e-06
1.22346e-05
2.16077e-05
2.73859e-05
2.89648e-05
2.84255e-05
2.70308e-05
2.54874e-05
2.41254e-05
2.30283e-05
2.21693e-05
2.14277e-05
2.06782e-05
1.98475e-05
1.89393e-05
1.80227e-05
1.71821e-05
1.64701e-05
1.58687e-05
1.53038e-05
1.46445e-05
1.36816e-05
1.24108e-05
1.10474e-05
9.8938e-06
9.24175e-06
9.43045e-06
1.10643e-05
1.49585e-05
1.77251e-05
7.68345e-06
2.49311e-06
2.37041e-07
1.18334e-07
2.18212e-06
5.48757e-06
1.23353e-05
2.17266e-05
2.73652e-05
2.8811e-05
2.81865e-05
2.67579e-05
2.52231e-05
2.38966e-05
2.2849e-05
2.20334e-05
2.13139e-05
2.05543e-05
1.9675e-05
1.86857e-05
1.76766e-05
1.6764e-05
1.60329e-05
1.54912e-05
1.50726e-05
1.46021e-05
1.38261e-05
1.2699e-05
1.14131e-05
1.02803e-05
9.62639e-06
9.83221e-06
1.15309e-05
1.55087e-05
1.80677e-05
7.77615e-06
2.52053e-06
2.39304e-07
1.19595e-07
2.18665e-06
5.51443e-06
1.24354e-05
2.18412e-05
2.73375e-05
2.86507e-05
2.79431e-05
2.64839e-05
2.49616e-05
2.36751e-05
2.26819e-05
2.1915e-05
2.12234e-05
2.04582e-05
1.95315e-05
1.8456e-05
1.73427e-05
1.63411e-05
1.55712e-05
1.50685e-05
1.47776e-05
1.44826e-05
1.38957e-05
1.29317e-05
1.17537e-05
1.06729e-05
1.00421e-05
1.02831e-05
1.20583e-05
1.61133e-05
1.8406e-05
7.85897e-06
2.5461e-06
2.41304e-07
1.20836e-07
2.19087e-06
5.54087e-06
1.25351e-05
2.19514e-05
2.73022e-05
2.84831e-05
2.76943e-05
2.62077e-05
2.47019e-05
2.34597e-05
2.2526e-05
2.18142e-05
2.11578e-05
2.03945e-05
1.9425e-05
1.82617e-05
1.70345e-05
1.59278e-05
1.50987e-05
1.46123e-05
1.44265e-05
1.42895e-05
1.38873e-05
1.30983e-05
1.20536e-05
1.10561e-05
1.04786e-05
1.07809e-05
1.26516e-05
1.67769e-05
1.87342e-05
7.93334e-06
2.57027e-06
2.43048e-07
1.22024e-07
2.19448e-06
5.56566e-06
1.26308e-05
2.20522e-05
2.72564e-05
2.83064e-05
2.74386e-05
2.59276e-05
2.44416e-05
2.32474e-05
2.23779e-05
2.17276e-05
2.11154e-05
2.03647e-05
1.93615e-05
1.81131e-05
1.67654e-05
1.55383e-05
1.46291e-05
1.4135e-05
1.40291e-05
1.40301e-05
1.38039e-05
1.31962e-05
1.23049e-05
1.14193e-05
1.09266e-05
1.13205e-05
1.331e-05
1.74952e-05
1.90475e-05
8.00184e-06
2.5937e-06
2.44603e-07
1.23149e-07
2.19754e-06
5.58883e-06
1.27222e-05
2.21435e-05
2.72003e-05
2.81211e-05
2.71766e-05
2.56441e-05
2.41811e-05
2.30381e-05
2.22371e-05
2.16546e-05
2.10964e-05
2.03714e-05
1.9348e-05
1.80225e-05
1.65517e-05
1.51908e-05
1.41804e-05
1.36529e-05
1.35991e-05
1.37154e-05
1.36535e-05
1.32289e-05
1.25057e-05
1.17564e-05
1.13773e-05
1.18923e-05
1.40214e-05
1.82494e-05
1.93416e-05
8.06744e-06
2.61693e-06
2.46059e-07
1.24189e-07
2.19977e-06
5.60927e-06
1.28062e-05
2.22212e-05
2.71311e-05
2.79254e-05
2.69068e-05
2.53556e-05
2.39183e-05
2.28295e-05
2.21006e-05
2.1592e-05
2.10979e-05
2.04137e-05
1.93876e-05
1.79984e-05
1.64067e-05
1.49009e-05
1.3768e-05
1.31801e-05
1.31484e-05
1.33561e-05
1.34449e-05
1.32021e-05
1.26569e-05
1.20621e-05
1.1821e-05
1.2485e-05
1.47712e-05
1.90207e-05
1.96151e-05
8.13199e-06
2.64041e-06
2.47494e-07
1.25145e-07
2.20126e-06
5.62714e-06
1.28827e-05
2.2285e-05
2.70491e-05
2.77195e-05
2.66296e-05
2.50626e-05
2.36535e-05
2.26211e-05
2.19672e-05
2.15377e-05
2.11177e-05
2.04908e-05
1.94835e-05
1.80503e-05
1.63461e-05
1.46875e-05
1.34106e-05
1.27328e-05
1.26893e-05
1.29605e-05
1.31835e-05
1.31189e-05
1.27597e-05
1.23369e-05
1.22572e-05
1.30856e-05
1.55377e-05
1.97852e-05
1.98677e-05
8.19631e-06
2.66421e-06
2.48972e-07
1.26005e-07
2.20188e-06
5.64183e-06
1.29499e-05
2.23333e-05
2.69531e-05
2.75026e-05
2.63439e-05
2.47637e-05
2.33848e-05
2.24107e-05
2.18339e-05
2.14876e-05
2.11506e-05
2.05972e-05
1.96328e-05
1.81813e-05
1.63808e-05
1.45672e-05
1.31268e-05
1.23282e-05
1.22353e-05
1.25387e-05
1.28767e-05
1.29848e-05
1.28178e-05
1.25809e-05
1.26795e-05
1.36856e-05
1.63057e-05
2.0527e-05
2.01021e-05
8.2614e-06
2.6885e-06
2.5051e-07
1.26769e-07
2.20168e-06
5.65332e-06
1.30076e-05
2.23653e-05
2.68425e-05
2.72738e-05
2.6049e-05
2.44581e-05
2.31115e-05
2.21972e-05
2.16986e-05
2.14381e-05
2.11913e-05
2.07266e-05
1.98302e-05
1.83917e-05
1.65194e-05
1.45566e-05
1.29364e-05
1.19845e-05
1.18008e-05
1.20984e-05
1.25256e-05
1.27968e-05
1.28257e-05
1.2786e-05
1.30768e-05
1.42711e-05
1.70574e-05
2.12328e-05
2.032e-05
8.32676e-06
2.71315e-06
2.52133e-07
1.27435e-07