/*--------------------------------*- C++ -*----------------------------------*\
| =========                 |                                                 |
| \\      /  F ield         | OpenFOAM: The Open Source CFD Toolbox           |
|  \\    /   O peration     | Version:  v2006                                 |
|   \\  /    A nd           | Website:  www.openfoam.com                      |
|    \\/     M anipulation  |                                                 |
\*---------------------------------------------------------------------------*/
FoamFile
{
    version     2.0;
    format      ascii;
    class       surfaceScalarField;
    location    "42";
    object      phi;
}
// * * * * * * * * * * * * * * * * * * * * * * * * * * * * * * * * * * * * * //

dimensions      [1 0 -1 0 0 0 0];
oriented        oriented;


internalField   nonuniform List<scalar> 
228225
(
-7.03513e-06
-1.12338e-07
1.03304e-07
-6.40289e-06
-6.88008e-07
5.52252e-08
-5.50061e-06
-9.20362e-07
1.81046e-08
-4.50363e-06
-9.93105e-07
-4.05752e-09
-3.52602e-06
-9.56268e-07
-2.14875e-08
-2.63168e-06
-8.60437e-07
-3.40427e-08
-1.83446e-06
-7.47823e-07
-4.95686e-08
-1.12734e-06
-6.41853e-07
-6.54385e-08
-4.95992e-07
-5.50821e-07
-8.069e-08
7.37416e-08
-4.75197e-07
-9.4702e-08
5.93458e-07
-4.1261e-07
-1.07281e-07
1.0722e-06
-3.60363e-07
-1.1857e-07
1.51653e-06
-3.15717e-07
-1.28803e-07
1.93099e-06
-2.76431e-07
-1.38221e-07
2.31858e-06
-2.40784e-07
-1.47011e-07
2.68117e-06
-2.07499e-07
-1.55292e-07
3.01972e-06
-1.75649e-07
-1.63107e-07
3.33419e-06
-1.4425e-07
-1.7044e-07
3.62413e-06
-1.12928e-07
-1.7723e-07
3.88892e-06
-8.16236e-08
-1.8338e-07
4.12779e-06
-5.03224e-08
-1.88765e-07
4.3396e-06
-1.87828e-08
-1.93239e-07
4.52411e-06
1.19127e-08
-1.96633e-07
4.68285e-06
3.98046e-08
-1.98758e-07
4.81426e-06
6.77598e-08
-1.99369e-07
4.91619e-06
9.60381e-08
-1.98151e-07
4.98411e-06
1.26576e-07
-1.94679e-07
5.00827e-06
1.64077e-07
-1.88398e-07
4.96803e-06
2.18531e-07
-1.78431e-07
4.82168e-06
3.0956e-07
-1.6333e-07
4.48745e-06
4.75261e-07
-1.41125e-07
3.82607e-06
7.71864e-07
-1.10549e-07
2.70002e-06
1.19979e-06
-7.38052e-08
1.18794e-06
1.54852e-06
-3.66213e-08
1.1886e-06
-1.12147e-09
-4.66794e-07
2.61268e-07
9.28746e-08
-1.16332e-06
-3.31511e-08
4.12264e-08
-1.85042e-06
-1.88894e-07
-4.46442e-08
-2.44923e-06
-2.56597e-07
-1.38098e-07
-2.90649e-06
-2.65285e-07
-2.34067e-07
-3.2053e-06
-2.44349e-07
-3.17608e-07
-3.35444e-06
-2.16893e-07
-3.82155e-07
-3.37363e-06
-1.95154e-07
-4.27887e-07
-3.28406e-06
-1.82807e-07
-4.57962e-07
-3.10426e-06
-1.78929e-07
-4.76445e-07
-2.8494e-06
-1.80796e-07
-4.87062e-07
-2.53216e-06
-1.85239e-07
-4.92768e-07
-2.16339e-06
-1.89201e-07
-4.9569e-07
-1.7529e-06
-1.90108e-07
-4.97238e-07
-1.30987e-06
-1.85981e-07
-4.98255e-07
-8.43138e-07
-1.75467e-07
-4.99185e-07
-3.61195e-07
-1.57807e-07
-5.00211e-07
1.28246e-07
-1.32773e-07
-5.01351e-07
6.18028e-07
-1.00621e-07
-5.02525e-07
1.10168e-06
-6.21163e-08
-5.03594e-07
1.57459e-06
-1.92904e-08
-5.04389e-07
2.02389e-06
3.62309e-08
-5.04752e-07
2.4395e-06
1.00341e-07
-5.0447e-07
2.8152e-06
1.66813e-07
-5.03137e-07
3.14495e-06
2.37839e-07
-5.0025e-07
3.41981e-06
3.15935e-07
-4.95177e-07
3.62675e-06
4.06374e-07
-4.8714e-07
3.74637e-06
5.19251e-07
-4.75184e-07
3.74821e-06
6.73791e-07
-4.57469e-07
3.58356e-06
9.04004e-07
-4.30141e-07
3.18518e-06
1.25921e-06
-3.85871e-07
2.49779e-06
1.77486e-06
-3.15897e-07
1.55397e-06
2.36315e-06
-2.19824e-07
5.71084e-07
2.64474e-06
-1.13696e-07
1.77787e-06
-1.87678e-08
-8.54636e-08
2.61102e-07
8.55401e-08
-5.73217e-07
3.41804e-07
1.12119e-07
-1.25376e-06
3.85956e-07
1.05418e-07
-1.97347e-06
3.81008e-07
8.18903e-08
-2.62121e-06
3.30153e-07
5.19974e-08
-3.13514e-06
2.46889e-07
2.23665e-08
-3.4945e-06
1.45319e-07
-3.12834e-09
-3.71292e-06
3.76636e-08
-1.46621e-08
-3.78538e-06
-8.82365e-08
-2.23865e-08
-3.72567e-06
-2.12626e-07
-2.63028e-08
-3.55235e-06
-3.26878e-07
-2.75272e-08
-3.28252e-06
-4.27997e-07
-2.73712e-08
-2.93266e-06
-5.12329e-07
-2.70317e-08
-2.51871e-06
-5.77004e-07
-2.7354e-08
-2.05595e-06
-6.20244e-07
-2.88167e-08
-1.55877e-06
-6.41321e-07
-3.16491e-08
-1.04063e-06
-6.40367e-07
-3.59086e-08
-5.14073e-07
-6.18136e-07
-4.15338e-08
9.11644e-09
-5.75779e-07
-4.83791e-08
5.17537e-07
-5.14654e-07
-5.62391e-08
9.98774e-07
-4.36038e-07
-6.48528e-08
1.44961e-06
-3.41019e-07
-7.39618e-08
1.86326e-06
-2.30384e-07
-8.33082e-08
2.22612e-06
-1.03903e-07
-9.25465e-08
2.52513e-06
3.98982e-08
-1.01475e-07
2.75351e-06
1.9737e-07
-1.10225e-07
2.89495e-06
3.83952e-07
-1.19429e-07
2.93156e-06
6.12115e-07
-1.29882e-07
2.84137e-06
9.05656e-07
-1.42063e-07
2.59814e-06
1.30234e-06
-1.55471e-07
2.17895e-06
1.84353e-06
-1.6546e-07
1.59185e-06
2.52139e-06
-1.59709e-07
9.17177e-07
3.16218e-06
-1.24622e-07
3.08741e-07
3.31605e-06
-6.3186e-08
2.08797e-06
-1.89163e-09
3.53841e-08
1.29499e-07
9.59834e-08
6.43615e-08
1.36368e-07
1.75943e-07
8.94816e-08
1.41438e-07
2.19118e-07
1.05827e-07
1.23082e-07
2.41338e-07
1.10293e-07
7.30655e-08
2.52325e-07
1.05845e-07
-7.01767e-09
2.58058e-07
1.11455e-07
-1.2202e-07
2.61473e-07
1.41432e-07
-2.56043e-07
2.63497e-07
1.91994e-07
-4.03231e-07
2.64204e-07
2.69855e-07
-5.54094e-07
2.63368e-07
3.8118e-07
-6.99192e-07
2.60743e-07
5.26989e-07
-8.30207e-07
2.56154e-07
7.05432e-07
-9.40568e-07
2.49554e-07
9.12815e-07
-1.0257e-06
2.41066e-07
1.14433e-06
-1.08297e-06
2.30954e-07
1.39456e-06
-1.11137e-06
2.19567e-07
1.65772e-06
-1.11109e-06
2.07299e-07
1.9279e-06
-1.08313e-06
1.9455e-07
2.19905e-06
-1.0289e-06
1.81699e-07
2.46491e-06
-9.49874e-07
1.69093e-07
2.71893e-06
-8.47355e-07
1.57028e-07
2.95406e-06
-7.2217e-07
1.45742e-07
3.1624e-06
-5.74403e-07
1.35398e-07
3.33523e-06
-4.03081e-07
1.2605e-07
3.46294e-06
-2.05726e-07
1.17617e-07
3.52856e-06
2.15824e-08
1.09872e-07
3.50378e-06
3.06547e-07
1.01878e-07
3.37219e-06
6.52022e-07
9.13675e-08
3.11518e-06
1.08727e-06
7.51008e-08
2.72108e-06
1.64568e-06
5.04773e-08
2.19405e-06
2.35187e-06
1.84443e-08
1.56264e-06
3.16137e-06
-8.78321e-09
8.9941e-07
3.83826e-06
-1.30415e-08
3.12601e-07
3.8977e-06
4.9259e-09
2.37252e-06
2.7629e-08
3.00895e-08
7.62936e-09
9.14622e-08
1.00066e-07
-1.22353e-07
1.88533e-07
2.14845e-07
-2.25173e-07
2.51398e-07
3.77171e-07
-3.31662e-07
2.92107e-07
5.85825e-07
-4.53987e-07
3.18195e-07
8.37955e-07
-5.93991e-07
3.34649e-07
1.11926e-06
-7.47999e-07
3.44452e-07
1.42252e-06
-9.08765e-07
3.49243e-07
1.73585e-06
-1.0667e-06
3.49934e-07
2.0473e-06
-1.21287e-06
3.47128e-07
2.34695e-06
-1.34033e-06
3.41301e-07
2.62748e-06
-1.44379e-06
3.32867e-07
2.88421e-06
-1.51969e-06
3.22198e-07
3.1148e-06
-1.56614e-06
3.0964e-07
3.31869e-06
-1.58262e-06
2.95553e-07
3.49648e-06
-1.56971e-06
2.80336e-07
3.64939e-06
-1.52868e-06
2.6445e-07
3.77887e-06
-1.46126e-06
2.48415e-07
3.88619e-06
-1.36924e-06
2.3279e-07
3.97218e-06
-1.25426e-06
2.18147e-07
4.03699e-06
-1.11747e-06
2.05037e-07
4.07982e-06
-9.59233e-07
1.93962e-07
4.09857e-06
-7.78779e-07
1.85352e-07
4.08934e-06
-5.73677e-07
1.79544e-07
4.04417e-06
-3.37708e-07
1.76857e-07
3.94537e-06
-5.7003e-08
1.77086e-07
3.78636e-06
2.86586e-07
1.78663e-07
3.54473e-06
7.14614e-07
1.78726e-07
3.20107e-06
1.25715e-06
1.73472e-07
2.73973e-06
1.94806e-06
1.58684e-07
2.1611e-06
2.79789e-06
1.32385e-07
1.49918e-06
3.72337e-06
9.97491e-08
8.36606e-07
4.42596e-06
7.47623e-08
2.76329e-07
4.39461e-06
6.32428e-08
2.60399e-06
4.45462e-08
1.01749e-08
-8.87247e-08
8.58759e-08
6.29855e-08
-3.60861e-07
1.85421e-07
1.86491e-07
-6.00383e-07
2.51365e-07
3.8903e-07
-8.28755e-07
2.94313e-07
6.67255e-07
-1.05361e-06
3.2124e-07
1.00903e-06
-1.27298e-06
3.37083e-07
1.39541e-06
-1.4796e-06
3.45101e-07
1.80394e-06
-1.66479e-06
3.47381e-07
2.21375e-06
-1.82198e-06
3.4536e-07
2.60815e-06
-1.94739e-06
3.40051e-07
2.97482e-06
-2.03918e-06
3.32128e-07
3.30562e-06
-2.0967e-06
3.2206e-07
3.5961e-06
-2.12043e-06
3.10212e-07
3.84472e-06
-2.11169e-06
2.96867e-07
4.05215e-06
-2.0724e-06
2.82275e-07
4.22049e-06
-2.00481e-06
2.66702e-07
4.35254e-06
-1.91131e-06
2.50489e-07
4.45132e-06
-1.79421e-06
2.34087e-07
4.5195e-06
-1.65559e-06
2.18068e-07
4.55911e-06
-1.49708e-06
2.03099e-07
4.57125e-06
-1.31964e-06
1.89888e-07
4.55597e-06
-1.12325e-06
1.79144e-07
4.51212e-06
-9.06642e-07
1.7153e-07
4.43649e-06
-6.65992e-07
1.67752e-07
4.32122e-06
-3.90861e-07
1.68203e-07
4.15762e-06
-6.62858e-08
1.72652e-07
3.93126e-06
3.32573e-07
1.80119e-07
3.62943e-06
8.27427e-07
1.88738e-07
3.23592e-06
1.45505e-06
1.95323e-07
2.73635e-06
2.25225e-06
1.95115e-07
2.13159e-06
3.21917e-06
1.83256e-07
1.4581e-06
4.23789e-06
1.58837e-07
8.01729e-07
4.95306e-06
1.29209e-07
2.58653e-07
4.83852e-06
9.91052e-08
2.80906e-06
5.33519e-08
3.59405e-08
-1.95083e-07
6.99704e-08
1.39161e-07
-6.17506e-07
1.53239e-07
3.13132e-07
-9.82526e-07
2.08022e-07
5.55231e-07
-1.31405e-06
2.42984e-07
8.54457e-07
-1.61709e-06
2.64056e-07
1.19317e-06
-1.8873e-06
2.75466e-07
1.54881e-06
-2.11546e-06
2.80136e-07
1.90107e-06
-2.29728e-06
2.80172e-07
2.23656e-06
-2.43447e-06
2.7695e-07
2.54693e-06
-2.52912e-06
2.71314e-07
2.82727e-06
-2.58338e-06
2.63822e-07
3.07542e-06
-2.59978e-06
2.54877e-07
3.29132e-06
-2.58115e-06
2.44773e-07
3.47629e-06
-2.53042e-06
2.33728e-07
3.63245e-06
-2.45052e-06
2.21923e-07
3.76232e-06
-2.34427e-06
2.0954e-07
3.86841e-06
-2.21427e-06
1.96803e-07
3.95295e-06
-2.06285e-06
1.84022e-07
4.01754e-06
-1.89189e-06
1.71615e-07
4.06297e-06
-1.70273e-06
1.60113e-07
4.08899e-06
-1.49591e-06
1.50135e-07
4.0942e-06
-1.27095e-06
1.42351e-07
4.07563e-06
-1.02571e-06
1.37492e-07
4.02633e-06
-7.53046e-07
1.36184e-07
3.93576e-06
-4.39325e-07
1.38844e-07
3.79106e-06
-6.73201e-08
1.45524e-07
3.58656e-06
3.81051e-07
1.55786e-07
3.3058e-06
9.39316e-07
1.68636e-07
2.93123e-06
1.64748e-06
1.81897e-07
2.451e-06
2.54079e-06
1.91475e-07
1.87289e-06
3.60554e-06
1.91585e-07
1.24324e-06
4.69018e-06
1.77292e-07
6.54746e-07
5.39192e-06
1.49648e-07
1.95608e-07
5.18642e-06
1.11268e-07
2.95159e-06
5.29334e-08
3.98035e-08
-2.92873e-07
5.7594e-08
1.56115e-07
-8.6018e-07
1.26146e-07
3.3989e-07
-1.33727e-06
1.70786e-07
5.77409e-07
-1.75072e-06
1.98959e-07
8.51972e-07
-2.10752e-06
2.15705e-07
1.14534e-06
-2.40533e-06
2.24566e-07
1.44007e-06
-2.63826e-06
2.28027e-07
1.7258e-06
-2.81098e-06
2.27967e-07
1.99765e-06
-2.93175e-06
2.25433e-07
2.25271e-06
-3.00518e-06
2.20998e-07
2.48939e-06
-3.03508e-06
2.15034e-07
2.70692e-06
-3.02509e-06
2.07793e-07
2.90505e-06
-2.97872e-06
1.99466e-07
3.08376e-06
-2.89934e-06
1.90226e-07
3.2432e-06
-2.7902e-06
1.80259e-07
3.38352e-06
-2.65437e-06
1.6979e-07
3.50482e-06
-2.49468e-06
1.59092e-07
3.60711e-06
-2.31367e-06
1.48504e-07
3.69019e-06
-2.11344e-06
1.38431e-07
3.75353e-06
-1.89547e-06
1.29338e-07
3.79628e-06
-1.66048e-06
1.2174e-07
3.8162e-06
-1.40717e-06
1.16211e-07
3.80824e-06
-1.1312e-06
1.13341e-07
3.76502e-06
-8.23618e-07
1.13658e-07
3.67987e-06
-4.71812e-07
1.17474e-07
3.54733e-06
-5.97944e-08
1.24842e-07
3.35502e-06
4.37452e-07
1.35705e-07
3.08926e-06
1.05524e-06
1.49624e-07
2.73409e-06
1.8372e-06
1.65254e-07
2.27902e-06
2.81623e-06
1.79451e-07
1.73353e-06
3.96427e-06
1.86642e-07
1.14519e-06
5.09857e-06
1.79928e-07
6.01334e-07
5.78015e-06
1.55703e-07
1.79572e-07
5.49384e-06
1.14427e-07
3.08e-06
5.10694e-08
4.03267e-08
-3.82702e-07
4.9229e-08
1.49519e-07
-1.07826e-06
1.08547e-07
3.14315e-07
-1.64992e-06
1.47672e-07
5.20782e-07
-2.13029e-06
1.73034e-07
7.54702e-07
-2.5303e-06
1.88837e-07
1.00319e-06
-2.85183e-06
1.97994e-07
1.25658e-06
-3.09422e-06
2.02563e-07
1.50909e-06
-3.26757e-06
2.04102e-07
1.75708e-06
-3.38311e-06
2.03408e-07
1.99803e-06
-3.44687e-06
2.00801e-07
2.22975e-06
-3.46323e-06
1.96493e-07
2.45029e-06
-3.4362e-06
1.90641e-07
2.65787e-06
-3.36963e-06
1.83405e-07
2.85083e-06
-3.26723e-06
1.74978e-07
3.02767e-06
-3.1326e-06
1.656e-07
3.18696e-06
-2.96918e-06
1.55563e-07
3.32728e-06
-2.78018e-06
1.45216e-07
3.44721e-06
-2.56854e-06
1.34953e-07
3.54552e-06
-2.33697e-06
1.25216e-07
3.62025e-06
-2.08671e-06
1.16483e-07
3.66843e-06
-1.81794e-06
1.0924e-07
3.68644e-06
-1.52934e-06
1.04078e-07
3.66978e-06
-1.21609e-06
1.01464e-07
3.61479e-06
-8.70456e-07
1.01716e-07
3.51838e-06
-4.80641e-07
1.05108e-07
3.37427e-06
-2.7735e-08
1.11888e-07
3.17407e-06
5.15311e-07
1.22165e-07
2.90486e-06
1.18857e-06
1.35707e-07
2.55319e-06
2.03715e-06
1.51544e-07
2.11186e-06
3.09028e-06
1.67139e-07
1.59302e-06
4.3056e-06
1.77445e-07
1.04361e-06
5.47295e-06
1.75077e-07
5.42555e-07
6.12748e-06
1.53858e-07
1.59532e-07
5.76458e-06
1.12414e-07
3.19119e-06
4.83037e-08
2.99889e-08
-4.57945e-07
4.49482e-08
1.17543e-07
-1.26675e-06
1.00639e-07
2.53827e-07
-1.92496e-06
1.38581e-07
4.28834e-07
-2.46994e-06
1.64559e-07
6.32415e-07
-2.91607e-06
1.82142e-07
8.5534e-07
-3.26845e-06
1.93678e-07
1.09076e-06
-3.53036e-06
2.00722e-07
1.33205e-06
-3.71324e-06
2.04412e-07
1.57427e-06
-3.83075e-06
2.05473e-07
1.81439e-06
-3.89108e-06
2.04163e-07
2.04972e-06
-3.89916e-06
2.007e-07
2.27766e-06
-3.85937e-06
1.95325e-07
2.49579e-06
-3.77597e-06
1.88298e-07
2.70177e-06
-3.65304e-06
1.79907e-07
2.89337e-06
-3.49457e-06
1.70457e-07
3.06829e-06
-3.30432e-06
1.60277e-07
3.2239e-06
-3.08545e-06
1.49721e-07
3.35653e-06
-2.84027e-06
1.39154e-07
3.46227e-06
-2.57164e-06
1.2896e-07
3.53801e-06
-2.28204e-06
1.19605e-07
3.58092e-06
-1.97247e-06
1.11606e-07
3.58888e-06
-1.64272e-06
1.05386e-07
3.56092e-06
-1.28947e-06
1.01287e-07
3.49601e-06
-9.05277e-07
9.96436e-08
3.39141e-06
-4.77019e-07
1.00866e-07
3.24177e-06
1.63919e-08
1.05375e-07
3.03831e-06
6.05142e-07
1.13481e-07
2.76971e-06
1.3318e-06
1.25208e-07
2.42444e-06
2.24238e-06
1.39895e-07
1.9975e-06
3.36173e-06
1.55392e-07
1.50226e-06
4.63383e-06
1.67004e-07
9.83634e-07
5.8244e-06
1.67274e-07
5.11633e-07
6.45104e-06
1.48631e-07
1.50906e-07
6.01714e-06
1.08353e-07
3.29657e-06
4.55352e-08
2.83771e-08
-5.29627e-07
4.30225e-08
1.10746e-07
-1.44787e-06
9.85488e-08
2.40329e-07
-2.19269e-06
1.37959e-07
4.09816e-07
-2.80592e-06
1.66363e-07
6.10432e-07
-3.30338e-06
1.86648e-07
8.33211e-07
-3.69185e-06
2.00641e-07
1.07104e-06
-3.97768e-06
2.09553e-07
1.3161e-06
-4.17257e-06
2.14349e-07
1.56313e-06
-4.29365e-06
2.15955e-07
1.80921e-06
-4.3519e-06
2.14828e-07
2.05175e-06
-4.35295e-06
2.11343e-07
2.28823e-06
-4.30164e-06
2.05895e-07
2.51613e-06
-4.20261e-06
1.98859e-07
2.73293e-06
-4.0603e-06
1.90579e-07
2.93585e-06
-3.87875e-06
1.81373e-07
3.12048e-06
-3.66039e-06
1.71543e-07
3.28102e-06
-3.40722e-06
1.61335e-07
3.41244e-06
-3.12265e-06
1.51049e-07
3.51058e-06
-2.8107e-06
1.41001e-07
3.57299e-06
-2.47594e-06
1.31536e-07
3.59902e-06
-2.12156e-06
1.23097e-07
3.58861e-06
-1.74829e-06
1.15988e-07
3.54188e-06
-1.35322e-06
1.10454e-07
3.45833e-06
-9.2866e-07
1.06879e-07
3.33598e-06
-4.60498e-07
1.05744e-07
3.17071e-06
7.40137e-08
1.07539e-07
2.9548e-06
7.08234e-07
1.1268e-07
2.67868e-06
1.48641e-06
1.21374e-07
2.33259e-06
2.45507e-06
1.33281e-07
1.91331e-06
3.63419e-06
1.46753e-07
1.43481e-06
4.95468e-06
1.57672e-07
9.39421e-07
6.16102e-06
1.58914e-07
4.88845e-07
6.75964e-06
1.42205e-07
1.4442e-07
6.25815e-06
1.03637e-07
3.39803e-06
4.29907e-08
2.70041e-08
-5.9945e-07
4.25273e-08
1.08733e-07
-1.6293e-06
9.94754e-08
2.40008e-07
-2.46492e-06
1.40766e-07
4.13473e-07
-3.15042e-06
1.70913e-07
6.19194e-07
-3.7016e-06
1.92439e-07
8.46427e-07
-4.12618e-06
2.07087e-07
1.08647e-06
-4.43384e-06
2.16146e-07
1.33253e-06
-4.63926e-06
2.20684e-07
1.57977e-06
-4.76258e-06
2.2176e-07
1.82513e-06
-4.81734e-06
2.20147e-07
2.06642e-06
-4.81051e-06
2.16354e-07
2.30155e-06
-4.74754e-06
2.10867e-07
2.5284e-06
-4.63345e-06
2.04088e-07
2.74442e-06
-4.47255e-06
1.96344e-07
2.94522e-06
-4.26733e-06
1.87897e-07
3.12477e-06
-4.01876e-06
1.78951e-07
3.27759e-06
-3.72962e-06
1.69689e-07
3.40004e-06
-3.40525e-06
1.60261e-07
3.4899e-06
-3.05135e-06
1.50895e-07
3.54535e-06
-2.67319e-06
1.4189e-07
3.56505e-06
-2.27467e-06
1.33471e-07
3.54813e-06
-1.85716e-06
1.25817e-07
3.49407e-06
-1.41835e-06
1.19212e-07
3.40209e-06
-9.50808e-07
1.14111e-07
3.2705e-06
-4.40019e-07
1.11059e-07
3.09589e-06
1.37906e-07
1.1063e-07
2.87243e-06
8.18269e-07
1.13325e-07
2.59226e-06
1.64703e-06
1.19436e-07
2.24764e-06
2.67085e-06
1.28755e-07
1.83687e-06
3.90501e-06
1.39923e-07
1.37413e-06
5.26813e-06
1.49366e-07
8.99296e-07
6.48546e-06
1.50589e-07
4.6745e-07
7.05652e-06
1.35235e-07
1.37741e-07
6.48964e-06
9.84901e-08
3.49541e-06
4.04113e-08
3.08834e-08
-6.72713e-07
4.20227e-08
1.20667e-07
-1.81899e-06
9.96794e-08
2.62491e-07
-2.74833e-06
1.4143e-07
4.47294e-07
-3.50678e-06
1.71437e-07
6.62933e-07
-4.10959e-06
1.92264e-07
8.96553e-07
-4.56576e-06
2.05898e-07
1.1381e-06
-4.88932e-06
2.13902e-07
1.38207e-06
-5.10077e-06
2.17526e-07
1.62418e-06
-5.22246e-06
2.17796e-07
1.86171e-06
-5.27051e-06
2.15689e-07
2.09298e-06
-5.25353e-06
2.11815e-07
2.31648e-06
-5.17764e-06
2.06669e-07
2.53045e-06
-5.04798e-06
2.00634e-07
2.73167e-06
-4.86767e-06
1.93997e-07
2.91512e-06
-4.63762e-06
1.86942e-07
3.07698e-06
-4.3601e-06
1.79594e-07
3.21506e-06
-4.03966e-06
1.72074e-07
3.32713e-06
-3.68168e-06
1.64482e-07
3.41082e-06
-3.29185e-06
1.56922e-07
3.46375e-06
-2.87549e-06
1.49468e-07
3.48361e-06
-2.43657e-06
1.4213e-07
3.46832e-06
-1.97675e-06
1.34937e-07
3.41609e-06
-1.49421e-06
1.28131e-07
3.32501e-06
-9.81877e-07
1.22143e-07
3.19267e-06
-4.2527e-07
1.1755e-07
3.01557e-06
1.99926e-07
1.15023e-07
2.78878e-06
9.29745e-07
1.15228e-07
2.50617e-06
1.8109e-06
1.18658e-07
2.16245e-06
2.8892e-06
1.25303e-07
1.75839e-06
4.17502e-06
1.34049e-07
1.3094e-06
5.5755e-06
1.41725e-07
8.53921e-07
6.79873e-06
1.42433e-07
4.41374e-07
7.34137e-06
1.28003e-07
1.28698e-07
6.70958e-06
9.30159e-08
3.58647e-06
3.7719e-08
3.56758e-08
-7.49445e-07
4.07071e-08
1.36654e-07
-2.01734e-06
9.71276e-08
2.93282e-07
-3.0424e-06
1.37268e-07
4.93268e-07
-3.87214e-06
1.65228e-07
7.21324e-07
-4.52163e-06
1.83868e-07
9.62372e-07
-5.00238e-06
1.95497e-07
1.2055e-06
-5.33438e-06
2.01889e-07
1.44527e-06
-5.54492e-06
2.04368e-07
1.67858e-06
-5.65969e-06
2.03938e-07
1.90381e-06
-5.69723e-06
2.01518e-07
2.11991e-06
-5.66732e-06
1.97738e-07
2.32591e-06
-5.57662e-06
1.93051e-07
2.51995e-06
-5.42977e-06
1.87824e-07
2.69873e-06
-5.22863e-06
1.8227e-07
2.85978e-06
-4.97512e-06
1.7656e-07
3.00182e-06
-4.67289e-06
1.70859e-07
3.12344e-06
-4.32645e-06
1.6528e-07
3.22298e-06
-3.94098e-06
1.59882e-07
3.29842e-06
-3.52186e-06
1.54693e-07
3.34736e-06
-3.07391e-06
1.4959e-07
3.36713e-06
-2.6006e-06
1.44359e-07
3.35489e-06
-2.10336e-06
1.38918e-07
3.30768e-06
-1.5803e-06
1.33342e-07
3.22236e-06
-1.02443e-06
1.2789e-07
3.0954e-06
-4.21326e-07
1.23013e-07
2.92259e-06
2.53343e-07
1.19353e-07
2.699e-06
1.03559e-06
1.17677e-07
2.41945e-06
1.97169e-06
1.18702e-07
2.08045e-06
3.10545e-06
1.22719e-07
1.68494e-06
4.44163e-06
1.28947e-07
1.24978e-06
5.87617e-06
1.34637e-07
8.12605e-07
7.10168e-06
1.34479e-07
4.18185e-07
7.61547e-06
1.20652e-07
1.21066e-07
6.91962e-06
8.73878e-08
3.67257e-06
3.50496e-08
4.27631e-08
-8.30736e-07
3.82288e-08
1.58543e-07
-2.22476e-06
9.13501e-08
3.32504e-07
-3.34503e-06
1.28453e-07
5.47855e-07
-4.24127e-06
1.53637e-07
7.85922e-07
-4.92975e-06
1.6996e-07
1.0302e-06
-5.42657e-06
1.79854e-07
1.27024e-06
-5.75956e-06
1.85117e-07
1.50175e-06
-5.96347e-06
1.87026e-07
1.72348e-06
-6.06792e-06
1.86503e-07
1.93473e-06
-6.09274e-06
1.84289e-07
2.13496e-06
-6.04852e-06
1.81005e-07
2.32323e-06
-5.94188e-06
1.7704e-07
2.49761e-06
-5.77674e-06
1.72658e-07
2.65637e-06
-5.55536e-06
1.68058e-07
2.79869e-06
-5.2808e-06
1.63454e-07
2.92373e-06
-4.95686e-06
1.59021e-07
3.03062e-06
-4.58812e-06
1.54888e-07
3.11829e-06
-4.17967e-06
1.51144e-07
3.18527e-06
-3.73649e-06
1.47757e-07
3.22948e-06
-3.26259e-06
1.4457e-07
3.24826e-06
-2.76064e-06
1.41363e-07
3.23832e-06
-2.2313e-06
1.37962e-07
3.19585e-06
-1.67203e-06
1.3427e-07
3.11654e-06
-1.0754e-06
1.30309e-07
2.99564e-06
-4.26703e-07
1.26283e-07
2.82803e-06
2.98313e-07
1.22618e-07
2.60853e-06
1.13506e-06
1.19989e-07
2.33264e-06
2.12833e-06
1.19208e-07
1.99854e-06
3.31867e-06
1.20863e-07
1.61136e-06
4.70426e-06
1.24611e-07
1.18959e-06
6.1699e-06
1.28219e-07
7.7035e-07
7.39423e-06
1.26976e-07
3.9418e-07
7.87851e-06
1.13484e-07
1.13123e-07
7.11917e-06
8.18259e-08
3.75334e-06
3.24432e-08
4.70768e-08
-9.13326e-07
3.52029e-08
1.7218e-07
-2.43421e-06
8.40702e-08
3.56158e-07
-3.64692e-06
1.17699e-07
5.78505e-07
-4.60385e-06
1.40094e-07
8.18584e-07
-5.32423e-06
1.54315e-07
1.06e-06
-5.83079e-06
1.62762e-07
1.29373e-06
-6.16051e-06
1.67177e-07
1.5168e-06
-6.35533e-06
1.68777e-07
1.72872e-06
-6.44824e-06
1.68401e-07
1.92893e-06
-6.45958e-06
1.66646e-07
2.11694e-06
-6.40053e-06
1.64032e-07
2.29165e-06
-6.27743e-06
1.60886e-07
2.45163e-06
-6.09405e-06
1.57395e-07
2.59608e-06
-5.8535e-06
1.53771e-07
2.72431e-06
-5.55914e-06
1.50196e-07
2.83586e-06
-5.21513e-06
1.46819e-07
2.93039e-06
-4.82632e-06
1.43773e-07
3.00747e-06
-4.3978e-06
1.41152e-07
3.06623e-06
-3.93409e-06
1.38948e-07
3.1052e-06
-3.43848e-06
1.37028e-07
3.1221e-06
-2.9127e-06
1.35251e-07
3.11371e-06
-2.35627e-06
1.33455e-07
3.07577e-06
-1.76551e-06
1.31473e-07
3.00313e-06
-1.13188e-06
1.29176e-07
2.88985e-06
-4.39941e-07
1.2653e-07
2.72971e-06
3.34758e-07
1.23684e-07
2.51688e-06
1.22682e-06
1.21048e-07
2.24703e-06
2.27885e-06
1.19308e-07
1.91957e-06
3.52698e-06
1.19164e-07
1.54151e-06
4.96175e-06
1.20656e-07
1.13299e-06
6.45646e-06
1.22152e-07
7.3088e-07
7.677e-06
1.19647e-07
3.72058e-07
8.13141e-06
1.06288e-07
1.06046e-07
7.30933e-06
7.6185e-08
3.82963e-06
2.98487e-08
5.18024e-08
-9.97332e-07
3.18839e-08
1.85825e-07
-2.64445e-06
7.59806e-08
3.78644e-07
-3.94589e-06
1.05964e-07
6.07004e-07
-4.95798e-06
1.25625e-07
8.49133e-07
-5.70434e-06
1.37891e-07
1.08919e-06
-6.21596e-06
1.45062e-07
1.31951e-06
-6.53966e-06
1.48794e-07
1.53802e-06
-6.72405e-06
1.50207e-07
1.7443e-06
-6.80456e-06
1.50047e-07
1.93782e-06
-6.8019e-06
1.48828e-07
2.11773e-06
-6.72733e-06
1.46932e-07
2.28296e-06
-6.58722e-06
1.44607e-07
2.43256e-06
-6.38565e-06
1.42062e-07
2.56577e-06
-6.12609e-06
1.39463e-07
2.68217e-06
-5.81241e-06
1.36945e-07
2.78174e-06
-5.44923e-06
1.34627e-07
2.8646e-06
-5.04171e-06
1.32621e-07
2.93084e-06
-4.59494e-06
1.30991e-07
2.98013e-06
-4.11302e-06
1.29737e-07
3.01158e-06
-3.59862e-06
1.28792e-07
3.02343e-06
-3.05254e-06
1.28083e-07
3.01282e-06
-2.47308e-06
1.27496e-07
2.97554e-06
-1.85504e-06
1.26877e-07
2.90602e-06
-1.18836e-06
1.2604e-07
2.79754e-06
-4.56248e-07
1.24808e-07
2.6429e-06
3.66319e-07
1.23087e-07
2.43552e-06
1.31319e-06
1.20998e-07
2.17107e-06
2.42431e-06
1.18979e-07
1.84979e-06
3.73062e-06
1.17666e-07
1.48024e-06
5.21409e-06
1.17324e-07
1.08385e-06
6.73621e-06
1.16855e-07
6.97086e-07
7.95107e-06
1.12999e-07
3.53633e-07
8.37567e-06
9.95643e-08
1.0049e-07
7.49193e-06
7.08653e-08
3.90275e-06
2.74412e-08
5.41419e-08
-1.08063e-06
2.88373e-08
1.93083e-07
-2.85203e-06
6.84026e-08
3.90541e-07
-4.23848e-06
9.49511e-08
6.21161e-07
-5.30078e-06
1.12051e-07
8.62471e-07
-6.06822e-06
1.22483e-07
1.09932e-06
-6.5813e-06
1.28438e-07
1.32521e-06
-6.89704e-06
1.3147e-07
1.53867e-06
-7.07011e-06
1.32594e-07
1.73937e-06
-7.13772e-06
1.32463e-07
1.92668e-06
-7.12071e-06
1.31524e-07
2.09961e-06
-7.03033e-06
1.30093e-07
2.25705e-06
-6.87302e-06
1.28396e-07
2.39807e-06
-6.65321e-06
1.266e-07
2.52208e-06
-6.37488e-06
1.24839e-07
2.62896e-06
-6.04244e-06
1.2322e-07
2.71901e-06
-5.66103e-06
1.21836e-07
2.79272e-06
-5.23609e-06
1.20763e-07
2.85045e-06
-4.77263e-06
1.20048e-07
2.89223e-06
-4.27437e-06
1.19662e-07
2.91752e-06
-3.74339e-06
1.1957e-07
2.92496e-06
-3.17964e-06
1.19738e-07
2.91203e-06
-2.58017e-06
1.20103e-07
2.87475e-06
-1.93826e-06
1.20561e-07
2.80753e-06
-1.24204e-06
1.20948e-07
2.70327e-06
-4.72995e-07
1.21034e-07
2.55408e-06
3.94955e-07
1.20563e-07
2.3527e-06
1.3952e-06
1.19381e-07
2.09449e-06
2.56491e-06
1.17619e-07
1.78023e-06
3.92922e-06
1.15715e-07
1.41967e-06
5.46076e-06
1.14012e-07
1.03541e-06
7.00883e-06
1.11857e-07
6.63589e-07
8.21651e-06
1.06703e-07
3.35142e-07
8.61139e-06
9.30935e-08
9.47469e-08
7.66693e-06
6.57067e-08
3.97244e-06
2.51341e-08
5.56225e-08
-1.16275e-06
2.61745e-08
1.97184e-07
-3.05548e-06
6.16423e-08
3.96343e-07
-4.52289e-06
8.50817e-08
6.26504e-07
-5.63096e-06
9.99146e-08
8.65075e-07
-6.41565e-06
1.08794e-07
1.09781e-06
-6.92785e-06
1.13778e-07
1.31919e-06
-7.23474e-06
1.16281e-07
1.52814e-06
-7.39626e-06
1.17193e-07
1.72425e-06
-7.4509e-06
1.17083e-07
1.9067e-06
-7.41949e-06
1.1634e-07
2.07439e-06
-7.31323e-06
1.15239e-07
2.22616e-06
-7.13872e-06
1.13976e-07
2.36107e-06
-6.90077e-06
1.12701e-07
2.47863e-06
-6.60391e-06
1.11534e-07
2.57885e-06
-6.25317e-06
1.10574e-07
2.6622e-06
-5.85421e-06
1.09902e-07
2.72941e-06
-5.41279e-06
1.09567e-07
2.78101e-06
-4.93375e-06
1.09605e-07
2.81726e-06
-4.42051e-06
1.09977e-07
2.83789e-06
-3.87458e-06
1.10643e-07
2.84177e-06
-3.295e-06
1.11569e-07
2.82661e-06
-2.67764e-06
1.12707e-07
2.78863e-06
-2.0142e-06
1.13986e-07
2.72234e-06
-1.29098e-06
1.15287e-07
2.62058e-06
-4.876e-07
1.164e-07
2.4752e-06
4.23329e-07
1.17017e-07
2.2786e-06
1.475e-06
1.16808e-07
2.02597e-06
2.70195e-06
1.15619e-07
1.71835e-06
4.12329e-06
1.13604e-07
1.3663e-06
5.70192e-06
1.11023e-07
9.93209e-07
7.27464e-06
1.07514e-07
6.34767e-07
8.47412e-06
1.01162e-07
3.19619e-07
8.83962e-06
8.72789e-08
9.0183e-08
7.83563e-06
6.10501e-08
4.03957e-06
2.31029e-08
5.58893e-08
-1.24293e-06
2.39765e-08
1.97789e-07
-3.25359e-06
5.59674e-08
3.96294e-07
-4.79835e-06
7.67854e-08
6.24187e-07
-5.94872e-06
8.976e-08
8.59091e-07
-6.74804e-06
9.7407e-08
1.08764e-06
-7.25807e-06
1.01627e-07
1.30507e-06
-7.5559e-06
1.03699e-07
1.51043e-06
-7.70606e-06
1.04417e-07
1.70315e-06
-7.7479e-06
1.04284e-07
1.88219e-06
-7.70218e-06
1.03646e-07
2.04629e-06
-7.58004e-06
1.02744e-07
2.19418e-06
-7.38832e-06
1.01748e-07
2.32487e-06
-7.13222e-06
1.00792e-07
2.4379e-06
-6.81687e-06
9.9984e-08
2.53332e-06
-6.44795e-06
9.94166e-08
2.61168e-06
-6.03168e-06
9.9174e-08
2.67372e-06
-5.57408e-06
9.93167e-08
2.72016e-06
-5.07997e-06
9.98538e-08
2.7515e-06
-4.55253e-06
1.00761e-07
2.76771e-06
-3.99273e-06
1.02009e-07
2.76795e-06
-3.39873e-06
1.0356e-07
2.75018e-06
-2.76516e-06
1.05363e-07
2.71082e-06
-2.08213e-06
1.0735e-07
2.6445e-06
-1.33403e-06
1.09411e-07
2.54411e-06
-4.98528e-07
1.11353e-07
2.40141e-06
4.53197e-07
1.12855e-07
2.20864e-06
1.55429e-06
1.13499e-07
1.96095e-06
2.83673e-06
1.12936e-07
1.65964e-06
4.3136e-06
1.11065e-07
1.31585e-06
5.93786e-06
1.07986e-07
9.53508e-07
7.53374e-06
1.03479e-07
6.0772e-07
8.7241e-06
9.61285e-08
3.05098e-07
9.06062e-06
8.19817e-08
8.59342e-08
7.99827e-06
5.68175e-08
4.10423e-06
2.13079e-08
5.59445e-08
-1.32139e-06
2.2202e-08
1.97491e-07
-3.44669e-06
5.13152e-08
3.94482e-07
-5.06549e-06
6.99853e-08
6.19425e-07
-6.25524e-06
8.14608e-08
8.50337e-07
-7.06713e-06
8.81165e-08
1.07474e-06
-7.57423e-06
9.17135e-08
1.28848e-06
-7.86309e-06
9.34198e-08
1.49065e-06
-8.0022e-06
9.3954e-08
1.68047e-06
-8.0315e-06
9.37744e-08
1.85673e-06
-7.97162e-06
9.31927e-08
2.01801e-06
-7.83373e-06
9.24237e-08
2.16298e-06
-7.62488e-06
9.16204e-08
2.29064e-06
-7.35075e-06
9.09004e-08
2.40052e-06
-7.01706e-06
9.03597e-08
2.49269e-06
-6.63015e-06
9.00815e-08
2.56772e-06
-6.19678e-06
9.01346e-08
2.62628e-06
-5.72317e-06
9.05901e-08
2.66912e-06
-5.21418e-06
9.14436e-08
2.69681e-06
-4.67284e-06
9.26837e-08
2.70949e-06
-4.09964e-06
9.42981e-08
2.70652e-06
-3.49195e-06
9.62614e-08
2.68609e-06
-2.84321e-06
9.85365e-08
2.64487e-06
-2.14192e-06
1.01065e-07
2.57771e-06
-1.37057e-06
1.03747e-07
2.47765e-06
-5.04818e-07
1.06389e-07
2.33655e-06
4.85658e-07
1.08659e-07
2.14672e-06
1.63407e-06
1.10077e-07
1.90334e-06
2.96999e-06
1.10151e-07
1.6079e-06
4.50055e-06
1.08568e-07
1.27188e-06
6.16878e-06
1.05248e-07
9.19409e-07
7.78643e-06
1.00022e-07
5.84904e-07
8.96707e-06
9.18552e-08
2.93227e-07
9.27519e-06
7.74595e-08
8.26686e-08
8.15588e-06
5.32335e-08
4.16708e-06
1.985e-08
5.53428e-08
-1.39791e-06
2.08695e-08
1.95283e-07
-3.63459e-06
4.77194e-08
3.8947e-07
-5.32447e-06
6.46221e-08
6.1046e-07
-6.55113e-06
7.47856e-08
8.36798e-07
-7.37405e-06
8.05002e-08
1.05681e-06
-7.87773e-06
8.34412e-08
1.26678e-06
-8.15781e-06
8.47043e-08
1.46578e-06
-8.28618e-06
8.49594e-08
1.65281e-06
-8.30318e-06
8.46326e-08
1.82649e-06
-8.22932e-06
8.40096e-08
1.98531e-06
-8.07582e-06
8.32844e-08
2.12786e-06
-7.85001e-06
8.25952e-08
2.25313e-06
-7.55803e-06
8.20479e-08
2.36062e-06
-7.20624e-06
8.17276e-08
2.45041e-06
-6.8016e-06
8.17069e-08
2.52302e-06
-6.35137e-06
8.20376e-08
2.5791e-06
-5.86196e-06
8.27739e-08
2.61937e-06
-5.3383e-06
8.39095e-08
2.64441e-06
-4.78325e-06
8.54339e-08
2.65444e-06
-4.19694e-06
8.73373e-08
2.64893e-06
-3.57599e-06
8.96054e-08
2.62624e-06
-2.91268e-06
9.22171e-08
2.58323e-06
-2.194e-06
9.51337e-08
2.51496e-06
-1.40053e-06
9.8272e-08
2.41467e-06
-5.05948e-07
1.01455e-07
2.27444e-06
5.21567e-07
1.04344e-07
2.08679e-06
1.71533e-06
1.06424e-07
1.84712e-06
3.1026e-06
1.07101e-07
1.55717e-06
4.68468e-06
1.05892e-07
1.2287e-06
6.39485e-06
1.02547e-07
8.85899e-07
8.03259e-06
9.68793e-08
5.62333e-07
9.20282e-06
8.81236e-08
2.81283e-07
9.48303e-06
7.35535e-08
7.92212e-08
8.30804e-06
5.01711e-08
4.22767e-06
1.86421e-08
5.48613e-08
-1.47289e-06
1.9807e-08
1.93247e-07
-3.81796e-06
4.47453e-08
3.84752e-07
-5.57623e-06
6.00838e-08
6.0211e-07
-6.83766e-06
6.90568e-08
8.24391e-07
-7.67033e-06
7.39185e-08
1.04061e-06
-8.17029e-06
7.62752e-08
1.24739e-06
-8.44178e-06
7.71525e-08
1.44371e-06
-8.55968e-06
7.71671e-08
1.62841e-06
-8.5646e-06
7.67081e-08
1.79998e-06
-8.47692e-06
7.60336e-08
1.95682e-06
-8.30796e-06
7.53189e-08
2.09748e-06
-8.06533e-06
7.4691e-08
2.22092e-06
-7.75569e-06
7.42495e-08
2.32664e-06
-7.38599e-06
7.40746e-08
2.41467e-06
-6.96383e-06
7.42365e-08
2.48546e-06
-6.4969e-06
7.4788e-08
2.5396e-06
-5.99181e-06
7.57616e-08
2.57779e-06
-5.45358e-06
7.71467e-08
2.60063e-06
-4.88496e-06
7.8932e-08
2.60837e-06
-4.28572e-06
8.11053e-08
2.60056e-06
-3.65178e-06
8.36545e-08
2.57571e-06
-2.97434e-06
8.65665e-08
2.53084e-06
-2.23889e-06
8.98161e-08
2.4612e-06
-1.42418e-06
9.33367e-08
2.36026e-06
-5.01942e-07
9.69665e-08
2.22037e-06
5.61105e-07
1.00373e-07
2.03433e-06
1.79838e-06
1.03019e-07
1.79782e-06
3.2349e-06
1.04239e-07
1.51284e-06
4.86633e-06
1.03417e-07
1.1913e-06
6.61639e-06
1.00157e-07
8.57275e-07
8.27263e-06
9.42305e-08
5.43428e-07
9.43191e-06
8.50599e-08
2.71617e-07
9.68479e-06
7.03761e-08