/*--------------------------------*- C++ -*----------------------------------*\
| =========                 |                                                 |
| \\      /  F ield         | OpenFOAM: The Open Source CFD Toolbox           |
|  \\    /   O peration     | Version:  v2006                                 |
|   \\  /    A nd           | Website:  www.openfoam.com                      |
|    \\/     M anipulation  |                                                 |
\*---------------------------------------------------------------------------*/
FoamFile
{
    version     2.0;
    format      ascii;
    class       volVectorField;
    location    "42";
    object      U;
}
// * * * * * * * * * * * * * * * * * * * * * * * * * * * * * * * * * * * * * //

dimensions      [0 1 -1 0 0 0 0];


internalField   nonuniform List<vector> 
78750
(
(-0.0129181 -0.006038 -0.000332175)
(-0.0125497 -0.0122186 -0.0013327)
(-0.0101867 -0.0125752 -0.00193201)
(-0.0081583 -0.0120868 -0.00239708)
(-0.00655371 -0.0112549 -0.00274085)
(-0.00503326 -0.0102694 -0.00296579)
(-0.00364169 -0.00926666 -0.00310237)
(-0.00239843 -0.00831785 -0.00318217)
(-0.00129624 -0.00744927 -0.00322965)
(-0.000314114 -0.00666397 -0.00326106)
(0.00058167 -0.00595627 -0.0032865)
(0.00140892 -0.00532017 -0.0033128)
(0.0021699 -0.00474646 -0.00334263)
(0.00287632 -0.0042259 -0.00337645)
(0.00353631 -0.00375078 -0.00341384)
(0.00415413 -0.00331457 -0.00345369)
(0.00473191 -0.00291177 -0.00349444)
(0.0052703 -0.00253794 -0.00353415)
(0.00576885 -0.00218962 -0.0035707)
(0.00622658 -0.0018643 -0.00360182)
(0.00664222 -0.00156033 -0.00362521)
(0.00701412 -0.00127654 -0.00363843)
(0.00734135 -0.00101302 -0.00363908)
(0.00762434 -0.000770497 -0.00362518)
(0.00786358 -0.000550454 -0.00359387)
(0.00805678 -0.000352495 -0.00354212)
(0.00819879 -0.000170733 -0.00346622)
(0.00827921 1.36877e-05 -0.0033609)
(0.00827648 0.000248988 -0.00321787)
(0.00814721 0.00064479 -0.00302423)
(0.00779409 0.00142553 -0.00276269)
(0.00703015 0.00297888 -0.00241742)
(0.00557206 0.00558915 -0.00196641)
(0.00333949 0.00826385 -0.00133048)
(0.000832958 0.00682008 -0.000356971)
(-0.000532621 0.00198984 0.00105967)
(-0.00115903 -0.00633067 -0.000555343)
(-0.00251497 -0.0109427 -0.00277031)
(-0.00367581 -0.0125777 -0.00486552)
(-0.00456746 -0.0121041 -0.00644042)
(-0.00517662 -0.0105286 -0.00745289)
(-0.00552265 -0.00866729 -0.00800979)
(-0.00563888 -0.00696611 -0.00824587)
(-0.00556211 -0.0055744 -0.0082774)
(-0.00532523 -0.00448884 -0.00819091)
(-0.00495545 -0.00365334 -0.00804585)
(-0.0044747 -0.00300464 -0.0078808)
(-0.00390146 -0.00248574 -0.0077195)
(-0.00325221 -0.00205127 -0.00757543)
(-0.00254228 -0.00166673 -0.00745526)
(-0.00178638 -0.00130695 -0.00736115)
(-0.000998739 -0.000954515 -0.00729234)
(-0.000192711 -0.00059839 -0.00724614)
(0.000619456 -0.000232642 -0.00721862)
(0.00142695 0.000144748 -0.00720508)
(0.00222067 0.000532454 -0.00720065)
(0.00298567 0.000927918 -0.00720235)
(0.00370373 0.00132923 -0.007207)
(0.00436113 0.00173575 -0.00720526)
(0.00494726 0.0021518 -0.0071884)
(0.00545062 0.00259336 -0.00714809)
(0.00585439 0.00310074 -0.00707559)
(0.00613286 0.00375995 -0.00695957)
(0.00624252 0.00473981 -0.0067803)
(0.00612956 0.00635166 -0.00649177)
(0.00571056 0.0091615 -0.0059881)
(0.0048439 0.0138819 -0.00512853)
(0.00345831 0.0201549 -0.00385308)
(0.00178618 0.024291 -0.0022634)
(0.000208868 0.0173587 -0.000515166)
(-3.59248e-06 0.00431645 0.00111888)
(-0.000371966 0.00568291 0.00116783)
(-0.00145362 0.00629427 0.000917528)
(-0.00269284 0.00613419 0.000672245)
(-0.00386891 0.0053375 0.000555285)
(-0.00484375 0.00419273 0.000586421)
(-0.00556552 0.00295498 0.00073355)
(-0.00603759 0.00176642 0.00095081)
(-0.00626634 0.000679337 0.00119702)
(-0.0062662 -0.000294101 0.00143716)
(-0.00606372 -0.00114769 0.00164956)
(-0.00568852 -0.00187041 0.00182298)
(-0.00516856 -0.00244773 0.00195228)
(-0.00453045 -0.0028661 0.00203631)
(-0.00379975 -0.0031159 0.00207628)
(-0.00300084 -0.00319278 0.00207463)
(-0.00215658 -0.00309777 0.00203439)
(-0.00128818 -0.00283658 0.00195876)
(-0.000414941 -0.00241858 0.00185095)
(0.000442007 -0.00185559 0.00171409)
(0.001263 -0.00116062 0.00155129)
(0.00203761 -0.000346312 0.00136359)
(0.00275619 0.000577415 0.00115124)
(0.00340184 0.00160615 0.000919075)
(0.00395433 0.00274836 0.000668321)
(0.00439671 0.00403321 0.000397728)
(0.00470708 0.00553048 9.95442e-05)
(0.00485816 0.00737161 -0.000232421)
(0.00482682 0.00981045 -0.000599258)
(0.00457222 0.0132868 -0.0010012)
(0.00403942 0.0183235 -0.00139641)
(0.00319279 0.0250052 -0.00162613)
(0.00210366 0.0317925 -0.00144749)
(0.000989254 0.0340187 -0.000787757)
(0.000100991 0.0219588 7.7884e-05)
(-1.51358e-05 0.00214855 0.00138648)
(0.000106467 0.00273625 0.00239153)
(0.000132149 0.00311663 0.00285066)
(0.00016124 0.00312808 0.00307689)
(0.000175384 0.00271942 0.00324727)
(0.000171286 0.00191279 0.00344295)
(0.000168185 0.000763067 0.00368161)
(0.000194204 -0.000655989 0.00394473)
(0.000261177 -0.00225595 0.00420288)
(0.000367987 -0.0039353 0.00442567)
(0.000525019 -0.00558659 0.00459465)
(0.000738995 -0.00710953 0.00470497)
(0.00100904 -0.00842209 0.00476188)
(0.00133007 -0.00946599 0.00477587)
(0.00169489 -0.0102065 0.0047586)
(0.00209505 -0.010629 0.00472023)
(0.00252136 -0.0107336 0.00466835)
(0.00296425 -0.0105306 0.00460788)
(0.00341391 -0.0100359 0.00454141)
(0.00386022 -0.00926764 0.00446986)
(0.00429268 -0.00824264 0.00439293)
(0.00470008 -0.00697465 0.00430948)
(0.00507019 -0.00547249 0.00421756)
(0.00539002 -0.00373624 0.00411429)
(0.00564449 -0.00175211 0.00399566)
(0.00580873 0.000517481 0.00385793)
(0.00585135 0.00317182 0.00369199)
(0.00573572 0.00640134 0.00347385)
(0.0054263 0.0104873 0.00315604)
(0.00489755 0.0158246 0.00268405)
(0.00413562 0.0228091 0.00204855)
(0.00314538 0.0312069 0.001373)
(0.00203284 0.0387542 0.000918921)
(0.000971832 0.040158 0.000793683)
(0.000142152 0.0249528 0.000671414)
(-1.60312e-05 0.000809973 0.0013555)
(0.000100055 0.000404106 0.00270381)
(0.000246103 0.000136044 0.00347712)
(0.000472226 -0.000285211 0.00390487)
(0.000778849 -0.000998109 0.00413632)
(0.001161 -0.00203738 0.00425751)
(0.00160502 -0.00337213 0.00431099)
(0.00209279 -0.00492911 0.00431423)
(0.00260727 -0.00660779 0.00427509)
(0.00312914 -0.00829478 0.00420069)
(0.00363921 -0.00988633 0.00409969)
(0.00412265 -0.0112956 0.00398296)
(0.00456941 -0.0124569 0.0038619)
(0.00497378 -0.0133264 0.00374668)
(0.0053336 -0.0138799 0.003645)
(0.00564915 -0.0141094 0.00356165)
(0.00592221 -0.0140188 0.00349876)
(0.00615521 -0.0136197 0.00345641)
(0.00635055 -0.0129273 0.00343348)
(0.00651015 -0.0119569 0.00342848)
(0.00663494 -0.0107201 0.00344023)
(0.00672453 -0.00922124 0.00346837)
(0.00677672 -0.00745346 0.00351371)
(0.00678625 -0.00539388 0.00357836)
(0.00674383 -0.00299358 0.00366684)
(0.00663213 -0.000120966 0.00378901)
(0.0064278 0.00341329 0.003942)
(0.00610588 0.0078064 0.00409155)
(0.00563287 0.0133437 0.00417254)
(0.00497668 0.0203726 0.00408752)
(0.00411484 0.0290627 0.00374284)
(0.00304606 0.0387018 0.00314759)
(0.00191773 0.0463522 0.00249198)
(0.00088602 0.0464997 0.0018758)
(0.000116736 0.0279505 0.00101973)
(-2.33056e-05 -0.000553096 0.00127735)
(4.47833e-05 -0.00284033 0.00266142)
(0.000179435 -0.00478543 0.00343516)
(0.000447426 -0.00668495 0.00380555)
(0.0008484 -0.00865875 0.00392369)
(0.00136612 -0.0107109 0.00389268)
(0.00197516 -0.0127887 0.0037779)
(0.00264202 -0.014805 0.00362058)
(0.00332544 -0.0166462 0.00344946)
(0.00399488 -0.0182237 0.00328334)
(0.00462915 -0.019486 0.00313288)
(0.00520933 -0.0204008 0.00300287)
(0.00572517 -0.0209536 0.00289506)
(0.00617206 -0.021145 0.00280883)
(0.00654955 -0.0209871 0.00274209)
(0.0068601 -0.0204997 0.00269185)
(0.007108 -0.0197072 0.0026549)
(0.00729827 -0.0186354 0.00262819)
(0.00743577 -0.0173091 0.0026093)
(0.00752453 -0.0157492 0.00259683)
(0.00756725 -0.0139698 0.00259087)
(0.00756494 -0.0119748 0.00259333)
(0.00751651 -0.00975424 0.00260841)
(0.00741911 -0.00727702 0.0026435)
(0.00726387 -0.00445411 0.00271331)
(0.00704 -0.00111362 0.00283818)
(0.00672446 0.0029639 0.00303254)
(0.00629504 0.00805273 0.00329409)
(0.0057284 0.0145393 0.00359316)
(0.0049983 0.0228377 0.00384716)
(0.00408361 0.0330356 0.00391732)
(0.00297936 0.0440387 0.00368008)
(0.00185125 0.0521872 0.00315899)
(0.000839041 0.0515986 0.00238067)
(0.000110103 0.0303761 0.00113917)
(-6.14192e-06 -0.00151171 0.00100529)
(0.000120218 -0.00529825 0.0021063)
(0.000348957 -0.0086569 0.00270707)
(0.0006954 -0.0118147 0.00298876)
(0.00114884 -0.0148235 0.00308414)
(0.00168539 -0.0176355 0.00307981)
(0.00226722 -0.0201415 0.00303062)
(0.00285708 -0.0222352 0.0029732)
(0.00342931 -0.0238842 0.0029245)
(0.00396715 -0.0250922 0.00288856)
(0.00445769 -0.0258685 0.00286308)
(0.00489577 -0.0262312 0.00284391)
(0.00528 -0.0262057 0.00282643)
(0.00561162 -0.0258212 0.00280647)
(0.00589359 -0.0251083 0.00278088)
(0.00612987 -0.0240975 0.00274765)
(0.00632472 -0.0228175 0.00270591)
(0.00648214 -0.021294 0.00265587)
(0.00660539 -0.0195484 0.00259864)
(0.00669653 -0.0175959 0.00253625)
(0.00675614 -0.0154435 0.00247164)
(0.00678306 -0.0130873 0.00240884)
(0.00677371 -0.0105082 0.00235349)
(0.00671918 -0.00765412 0.00231495)
(0.00660828 -0.00438116 0.00230976)
(0.00642029 -0.000491162 0.00235656)
(0.00613782 0.00422214 0.00246987)
(0.00574336 0.0100734 0.00266546)
(0.00520979 0.0174897 0.0029467)
(0.00451017 0.0268777 0.00327167)
(0.00362948 0.0381791 0.00351758)
(0.00257473 0.0499205 0.00350522)
(0.00154592 0.0578875 0.00313696)
(0.000662407 0.056193 0.00236698)
(6.60813e-05 0.0323739 0.0010537)
(-5.72443e-06 -0.00272585 0.00086461)
(0.000138031 -0.00825504 0.00186295)
(0.000388925 -0.0129796 0.00247038)
(0.000742583 -0.0171685 0.00283691)
(0.00117353 -0.0208794 0.00306015)
(0.00165255 -0.0240632 0.00319695)
(0.00214041 -0.0266233 0.00328161)
(0.00262099 -0.0285674 0.00334207)
(0.00308528 -0.0299649 0.00338766)
(0.00352308 -0.0308592 0.0034183)
(0.00393081 -0.0312889 0.00343276)
(0.00430724 -0.0312921 0.00343021)
(0.00465176 -0.030906 0.00341039)
(0.00496414 -0.0301667 0.00337368)
(0.00524448 -0.0291085 0.00332095)
(0.005493 -0.0277634 0.00325343)
(0.00570993 -0.0261609 0.00317256)
(0.00589536 -0.0243267 0.00308005)
(0.00604916 -0.0222817 0.00297781)
(0.0061709 -0.02004 0.00286812)
(0.00625989 -0.0176068 0.00275364)
(0.00631273 -0.0149757 0.00263797)
(0.00632339 -0.0121187 0.00252576)
(0.00628322 -0.00892801 0.00242607)
(0.00618187 -0.00524573 0.00234806)
(0.00600651 -0.000907896 0.00229934)
(0.00574331 0.00434135 0.00229379)
(0.00537167 0.0108773 0.00235389)
(0.00486654 0.0191738 0.00250469)
(0.0042035 0.0296225 0.00274494)
(0.00336921 0.0420088 0.00299495)
(0.00237124 0.0544888 0.0030763)
(0.00141817 0.0623557 0.0028249)
(0.000608475 0.0597763 0.00214549)
(6.37439e-05 0.0338657 0.000925205)
(-1.39181e-06 -0.0037555 0.000829385)
(0.000136496 -0.0107798 0.00186852)
(0.000366463 -0.0166197 0.00255888)
(0.000678105 -0.0215912 0.00301773)
(0.00104826 -0.0257894 0.00331753)
(0.00145491 -0.0292099 0.00350341)
(0.00186944 -0.0318173 0.00360938)
(0.00228593 -0.0337073 0.00366998)
(0.00270365 -0.0349936 0.00370391)
(0.00311048 -0.0357338 0.00371577)
(0.00350289 -0.0359737 0.00370892)
(0.00387829 -0.0357557 0.00368568)
(0.00423374 -0.03512 0.00364767)
(0.00456636 -0.0341054 0.00359611)
(0.00487347 -0.0327493 0.00353193)
(0.00515265 -0.0310878 0.00345606)
(0.00540154 -0.0291543 0.00336957)
(0.0056179 -0.026979 0.00327371)
(0.00579982 -0.0245878 0.00317012)
(0.00594385 -0.0219994 0.00306115)
(0.00604626 -0.0192256 0.00294842)
(0.00610192 -0.0162443 0.00283583)
(0.00610423 -0.0129863 0.00272878)
(0.00604783 -0.00936039 0.00263031)
(0.00592535 -0.00524493 0.00254286)
(0.00572973 -0.000447432 0.00246942)
(0.00544965 0.0053259 0.00241591)
(0.00506767 0.0124917 0.00239541)
(0.00456157 0.021549 0.00242977)
(0.00391166 0.0328536 0.00253388)
(0.00310935 0.0460329 0.00266998)
(0.00216433 0.0589244 0.00270476)
(0.001285 0.0664886 0.00248082)
(0.000547995 0.0630161 0.00188214)
(5.20627e-05 0.0352118 0.000798195)
(-6.34011e-06 -0.00466991 0.000821375)
(0.000103568 -0.0130247 0.00190395)
(0.000291149 -0.0198491 0.00264683)
(0.000551426 -0.025526 0.00315461)
(0.000869036 -0.0301998 0.00349466)
(0.0012288 -0.0339142 0.00371265)
(0.00160932 -0.036688 0.00384363)
(0.00200064 -0.0386485 0.00392144)
(0.00240367 -0.0399311 0.00397294)
(0.00280602 -0.0406115 0.00400422)
(0.00320118 -0.0407409 0.00401721)
(0.0035859 -0.0403658 0.00401271)
(0.00395641 -0.0395309 0.00399076)
(0.00430877 -0.0382797 0.00395119)
(0.00463927 -0.0366544 0.00389393)
(0.00494436 -0.0346953 0.00381933)
(0.00521962 -0.0324399 0.00372847)
(0.00545951 -0.0299239 0.00362211)
(0.00565768 -0.0271825 0.00350063)
(0.00580892 -0.0242243 0.00336741)
(0.00590819 -0.0210405 0.00322702)
(0.00595124 -0.0176235 0.00308312)
(0.00593586 -0.0139356 0.00294002)
(0.0058602 -0.0098972 0.002802)
(0.00572177 -0.00536937 0.00267288)
(0.00551447 -0.000131828 0.00255609)
(0.00522689 0.00614491 0.00245605)
(0.00484229 0.0139139 0.00238146)
(0.00434122 0.0236915 0.00234771)
(0.0037076 0.0357909 0.00236731)
(0.00293572 0.0496838 0.00241604)
(0.00203588 0.0629168 0.00239349)
(0.0012105 0.0702001 0.00217204)
(0.0005198 0.0659275 0.00164114)
(4.90012e-05 0.0364255 0.000691404)
(-5.93768e-06 -0.00545865 0.000830194)
(9.64018e-05 -0.0150047 0.00197421)
(0.000273419 -0.0227593 0.00278653)
(0.000523084 -0.0291606 0.00336205)
(0.000833501 -0.0343794 0.0037606)
(0.00119071 -0.0384828 0.00402418)
(0.0015764 -0.0415228 0.00418665)
(0.00197226 -0.0436254 0.00428085)
(0.00238022 -0.044957 0.00434235)
(0.00279243 -0.0456229 0.00438264)
(0.00319886 -0.0456806 0.0044046)
(0.00359658 -0.0451809 0.00441007)
(0.00398226 -0.0441729 0.00439983)
(0.00435224 -0.0427038 0.00437411)
(0.00470249 -0.040819 0.00433294)
(0.00502466 -0.0385623 0.00427633)
(0.00531133 -0.0359675 0.00420115)
(0.00555498 -0.0330499 0.00410671)
(0.005747 -0.0298367 0.00399249)
(0.0058814 -0.0263737 0.0038582)
(0.00595516 -0.0226921 0.00370719)
(0.00596828 -0.0187957 0.00354453)
(0.00592114 -0.0146494 0.00337549)
(0.0058139 -0.0101677 0.00320494)
(0.00564496 -0.00519843 0.00303667)
(0.00540953 0.000500982 0.00287279)
(0.00509806 0.00728821 0.00271458)
(0.00469618 0.015642 0.00256628)
(0.00418744 0.0260821 0.00243972)
(0.00355881 0.0388697 0.00234974)
(0.00280651 0.0533321 0.00228733)
(0.00194125 0.0667702 0.00218297)
(0.0011565 0.0737397 0.00194078)
(0.000499155 0.0686979 0.00145544)
(4.57955e-05 0.0375935 0.000612464)
(-7.70573e-06 -0.00624102 0.000851338)
(9.23631e-05 -0.0170133 0.00205943)
(0.000270204 -0.025759 0.00292057)
(0.000525179 -0.0329527 0.00352074)
(0.000843618 -0.03877 0.00391957)
(0.00120846 -0.0432908 0.00416667)
(0.00160232 -0.0466007 0.00430531)
(0.00200171 -0.0488311 0.00437203)
(0.00240727 -0.050196 0.00440273)
(0.00281952 -0.0508334 0.0044195)
(0.00322477 -0.0508098 0.00442715)
(0.00362038 -0.0501815 0.00442859)
(0.00400479 -0.049002 0.00442502)
(0.00437441 -0.0473221 0.00441655)
(0.00471947 -0.0451867 0.00440141)
(0.00503493 -0.0426069 0.0043759)
(0.0053134 -0.0395918 0.00433558)
(0.00554403 -0.0362007 0.00427358)
(0.00572124 -0.0324961 0.00418627)
(0.00584226 -0.0285346 0.00407241)
(0.005905 -0.0243569 0.00393341)
(0.00590767 -0.0199749 0.0037729)
(0.00584926 -0.0153595 0.0035966)
(0.00572903 -0.0104256 0.00341169)
(0.00554527 -0.00501221 0.00322524)
(0.00529398 0.00114255 0.00304224)
(0.00496771 0.008424 0.00286424)
(0.00455523 0.0173381 0.00269074)
(0.00404348 0.0284097 0.00252387)
(0.00342261 0.0418468 0.00237024)
(0.00269021 0.0568335 0.00222609)
(0.00185728 0.0704428 0.00204915)
(0.00110744 0.0771236 0.00177905)
(0.000478197 0.071354 0.00131996)
(4.21014e-05 0.0387205 0.000553461)
(-6.37369e-06 -0.00702649 0.000861578)
(0.000103914 -0.0190536 0.00209621)
(0.000297789 -0.0288201 0.00295144)
(0.000572174 -0.0368236 0.00351382)
(0.000909359 -0.0432331 0.00385598)
(0.00128772 -0.0481372 0.00404362)
(0.00168682 -0.0516619 0.00413193)
(0.00208892 -0.0539989 0.00416185)
(0.00248779 -0.0553805 0.0041614)
(0.00288671 -0.0559694 0.00415668)
(0.00327795 -0.0558529 0.00415482)
(0.00365681 -0.0550947 0.0041587)
(0.00402129 -0.0537527 0.00416967)
(0.00436438 -0.0518719 0.00418754)
(0.0046829 -0.0494628 0.00420908)
(0.00497213 -0.0465347 0.00422942)
(0.00522271 -0.0431395 0.00424307)
(0.00543119 -0.0393379 0.00424316)
(0.00559441 -0.0351943 0.00422201)
(0.00570863 -0.0307689 0.00417254)
(0.00576994 -0.0261077 0.0040894)
(0.00577459 -0.0212291 0.00397012)
(0.00571952 -0.0161115 0.00381641)
(0.00560193 -0.0106753 0.00363432)
(0.00541851 -0.00475937 0.00343305)
(0.00516445 0.00190528 0.00322274)
(0.00483283 0.0097172 0.00301165)
(0.00441459 0.0191967 0.00280408)
(0.00390035 0.030867 0.00260085)
(0.00328469 0.0448875 0.00240143)
(0.00256843 0.0603151 0.00219909)
(0.00176564 0.0740211 0.00196618)
(0.00104945 0.0803963 0.00166925)
(0.000450027 0.0739031 0.00122249)
(3.69499e-05 0.039791 0.000507887)
(-4.89453e-06 -0.00785781 0.000837929)
(0.000119371 -0.0212075 0.00202821)
(0.000335681 -0.0320304 0.00281138)
(0.000636426 -0.0408424 0.00328449)
(0.000997823 -0.0478068 0.00353839)
(0.00139295 -0.0530307 0.00365222)
(0.00179863 -0.056696 0.00368614)
(0.00219976 -0.0590635 0.00367936)
(0.00258806 -0.0603952 0.00365412)
(0.00296769 -0.0608858 0.00362955)
(0.00333701 -0.0606386 0.00361382)
(0.00368926 -0.0597249 0.00360958)
(0.00401968 -0.0582013 0.00361952)
(0.00432783 -0.0560913 0.0036424)
(0.00461172 -0.0534044 0.00367769)
(0.00486442 -0.0501813 0.00372516)
(0.00508388 -0.0464721 0.00378204)
(0.00526804 -0.0423352 0.00384237)
(0.005414 -0.0378326 0.00389732)
(0.00551823 -0.0330221 0.0039359)
(0.00557635 -0.0279462 0.00394601)
(0.00558379 -0.0226239 0.00391681)
(0.00553585 -0.0170363 0.00384118)
(0.00542767 -0.0111067 0.0037174)
(0.00525385 -0.00467482 0.00354967)
(0.00500798 0.00253056 0.0033476)
(0.00468244 0.0109127 0.00312422)
(0.00426886 0.0209937 0.00289226)
(0.00376016 0.0332818 0.0026595)
(0.00315439 0.0478776 0.00242601)
(0.00245554 0.0637116 0.00218278)
(0.00168215 0.0774726 0.00190955)
(0.000997115 0.0835373 0.00159089)
(0.000425011 0.0763294 0.00115005)
(3.35363e-05 0.0407966 0.000472415)
(-1.13659e-06 -0.00873026 0.00077906)
(0.000142209 -0.0234518 0.00187052)
(0.000386342 -0.0353384 0.00255819)
(0.000715746 -0.0449232 0.00294911)
(0.00109928 -0.0523708 0.00314274)
(0.00150547 -0.0578239 0.00321887)
(0.00191018 -0.0615396 0.00323281)
(0.00230148 -0.0638597 0.0032175)
(0.00267403 -0.0650904 0.00318925)
(0.00303214 -0.0654485 0.00315855)
(0.00337692 -0.0650471 0.00313564)
(0.00369902 -0.0639626 0.0031232)
(0.0039984 -0.0622406 0.00312159)
(0.00427601 -0.0598986 0.0031323)
(0.00452671 -0.0569702 0.00315926)
(0.00474909 -0.0534953 0.00320518)
(0.00494199 -0.0495237 0.00327049)
(0.00510391 -0.0451121 0.00335283)
(0.00523291 -0.040318 0.00344644)
(0.0053261 -0.0351907 0.00354169)
(0.00537951 -0.0297652 0.00362545)
(0.00538824 -0.0240547 0.00368279)
(0.00534649 -0.0180365 0.00369915)
(0.00524765 -0.0116327 0.00366274)
(0.00508425 -0.00468319 0.00356685)
(0.00484798 0.00308139 0.0034119)
(0.00453013 0.0120595 0.00320686)
(0.00412253 0.0227628 0.00296803)
(0.00362006 0.0356719 0.00271268)
(0.00302406 0.0508236 0.00244999)
(0.00234194 0.0670274 0.00217517)
(0.00159757 0.0808066 0.00187303)
(0.000943212 0.0865572 0.00153749)
(0.000398768 0.0786433 0.00109809)
(3.00364e-05 0.0417453 0.000444795)
(1.55253e-06 -0.00964697 0.000709986)
(0.000157029 -0.025786 0.00169584)
(0.000417891 -0.0387221 0.0023055)
(0.000762322 -0.0490134 0.00264698)
(0.00115386 -0.056848 0.00281541)
(0.00155911 -0.0624336 0.00288243)
(0.00195522 -0.0661252 0.00289579)
(0.00233319 -0.068349 0.00288331)
(0.00269229 -0.0694544 0.00285861)
(0.00303398 -0.0696643 0.00282789)
(0.00335663 -0.0691009 0.00279955)
(0.00365738 -0.0678346 0.00277712)
(0.00393576 -0.0659055 0.00276115)
(0.00418894 -0.0633467 0.00275644)
(0.00441567 -0.0601929 0.00276739)
(0.00461499 -0.0564874 0.00279751)
(0.00478627 -0.0522826 0.00284918)
(0.00492895 -0.0476349 0.00292301)
(0.00504214 -0.042597 0.00301703)
(0.00512393 -0.0372093 0.00312574)
(0.0051713 -0.0314964 0.00323976)
(0.00517978 -0.0254602 0.00334601)
(0.00514326 -0.0190675 0.00342857)
(0.00505404 -0.0122314 0.00347025)
(0.0049029 -0.00478587 0.00345495)
(0.00467952 0.00353885 0.00337113)
(0.00437355 0.0131331 0.00321634)
(0.00397632 0.0244871 0.00300052)
(0.00348371 0.0380377 0.00274298)
(0.00289958 0.053742 0.00246173)
(0.00223446 0.0702835 0.00216213)
(0.00151841 0.084037 0.00183813)
(0.000893116 0.0894594 0.00149009)
(0.000374718 0.080842 0.0010519)
(2.7396e-05 0.0426361 0.000419521)
(4.95616e-06 -0.0105647 0.000646176)
(0.000172208 -0.0280985 0.00154151)
(0.000448296 -0.0420346 0.00209466)
(0.000805772 -0.0529674 0.00240576)
(0.00120441 -0.0611253 0.00255982)
(0.00161002 -0.0667972 0.00262051)
(0.0020015 -0.0704423 0.00263101)
(0.0023724 -0.0725628 0.00261674)
(0.00272348 -0.0735396 0.00259043)
(0.0030549 -0.0736009 0.00255854)
(0.00336504 -0.072872 0.00252618)
(0.00365198 -0.0714228 0.00249629)
(0.00391376 -0.0692971 0.00247327)
(0.00414892 -0.0665306 0.00246122)
(0.00435643 -0.0631631 0.00246387)
(0.00453587 -0.0592428 0.00248444)
(0.00468735 -0.0548253 0.00252546)
(0.0048112 -0.0499673 0.00258847)
(0.00490733 -0.0447166 0.0026734)
(0.00497482 -0.0391061 0.00277798)
(0.00501158 -0.03315 0.00289715)
(0.00501391 -0.0268366 0.00302224)
(0.0049761 -0.0201173 0.00314036)
(0.00489017 -0.0128903 0.00323428)
(0.00474589 -0.00497841 0.00328355)
(0.00453135 0.00389185 0.0032676)
(0.00423465 0.0141017 0.00317207)
(0.00384634 0.0261145 0.00299615)
(0.00336286 0.0403153 0.00275445)
(0.0027899 0.0565724 0.00246843)
(0.00214049 0.0734405 0.00215264)
(0.00145035 0.087155 0.00181205)
(0.000850945 0.0922557 0.00145349)
(0.000355084 0.0829495 0.00101493)
(2.58026e-05 0.0434867 0.000398532)
(6.5914e-06 -0.0114971 0.000596269)
(0.000180196 -0.0304295 0.00142036)
(0.000464639 -0.0453355 0.00192706)
(0.000828441 -0.0568548 0.00220766)
(0.00122862 -0.0652716 0.00234029)
(0.00163059 -0.070975 0.00238536)
(0.00201506 -0.0745378 0.00238435)
(0.00237776 -0.0765338 0.0023611)
(0.00272015 -0.0773671 0.00232719)
(0.00304206 -0.0772686 0.0022888)
(0.00334147 -0.076363 0.00225033)
(0.00361622 -0.0747211 0.00221588)
(0.00386447 -0.0723897 0.00218937)
(0.00408487 -0.0694101 0.00217453)
(0.00427677 -0.0658279 0.0021747)
(0.00444031 -0.0616972 0.00219258)
(0.0045762 -0.057077 0.00223011)
(0.00468531 -0.0520239 0.0022883)
(0.00476803 -0.0465813 0.0023672)
(0.00482405 -0.0407758 0.00246584)
(0.00485191 -0.0346115 0.00258196)
(0.00484853 -0.0280628 0.00271104)
(0.00480872 -0.0210635 0.00284491)
(0.00472471 -0.0134922 0.00297009)
(0.00458594 -0.00515351 0.00306673)
(0.00437963 0.00423572 0.0031097)
(0.00409263 0.0150494 0.0030745)
(0.00371449 0.02772 0.00294782)
(0.00324166 0.0425701 0.00273498)
(0.00268104 0.0593686 0.00245626)
(0.00204778 0.0765371 0.00213326)
(0.00138327 0.0901834 0.00178227)
(0.000808994 0.0949562 0.00141651)
(0.000335131 0.0849685 0.000978648)
(2.38413e-05 0.0442978 0.000378306)
(7.88268e-06 -0.0124097 0.000557486)
(0.000185037 -0.0326976 0.00132224)
(0.000473389 -0.0485205 0.00178533)
(0.000838613 -0.0605707 0.00203384)
(0.00123631 -0.0692003 0.00214337)
(0.00163223 -0.0749082 0.00217261)
(0.00200896 -0.0783798 0.0021609)
(0.00236399 -0.0802513 0.00212978)
(0.00269902 -0.0809435 0.00208938)
(0.00301333 -0.080688 0.00204535)
(0.00330452 -0.0796091 0.002002)
(0.00357031 -0.0777792 0.00196338)
(0.00380883 -0.0752491 0.00193351)
(0.00401882 -0.0720658 0.00191625)
(0.00419982 -0.0682815 0.00191498)
(0.00435222 -0.0639558 0.00193233)
(0.00447712 -0.0591507 0.00196993)
(0.00457566 -0.0539208 0.00202828)
(0.00464863 -0.0483059 0.00210679)
(0.00469611 -0.0423259 0.00220428)
(0.00471707 -0.0359757 0.00231903)
(0.00470882 -0.0292164 0.00244831)
(0.00466651 -0.0219652 0.00258723)
(0.00458264 -0.0140803 0.0027267)
(0.00444671 -0.00534625 0.00285083)
(0.00424566 0.00453424 0.00293533)
(0.00396584 0.0159324 0.00295093)
(0.00359629 0.0292513 0.00287395)
(0.00313336 0.0447482 0.00269791)
(0.00258457 0.0620859 0.00243656)
(0.0019664 0.0795478 0.00211424)
(0.00132529 0.0931197 0.00175742)
(0.00077339 0.0975717 0.00138616)
(0.000318635 0.0869161 0.000948634)
(2.27341e-05 0.0450785 0.000361895)
(8.45277e-06 -0.0133121 0.000525663)
(0.000186049 -0.0349319 0.00123885)
(0.000474288 -0.0516359 0.00166375)
(0.000837332 -0.0641751 0.00188619)
(0.00123023 -0.0729798 0.00197944)
(0.00161926 -0.078668 0.00199918)
(0.00198873 -0.0820377 0.00198176)
(0.00233742 -0.0837802 0.00194632)
(0.00266693 -0.084328 0.00190182)
(0.00297583 -0.0839116 0.00185347)
(0.00326135 -0.082655 0.00180544)
(0.00352102 -0.0806325 0.00176178)
(0.00375289 -0.0778992 0.00172652)
(0.00395565 -0.0745086 0.00170362)
(0.00412891 -0.0705201 0.00169664)
(0.00427318 -0.0659996 0.00170849)
(0.00438963 -0.0610128 0.00174107)
(0.00447956 -0.0556132 0.00179518)
(0.00454408 -0.0498372 0.00187061)
(0.00458373 -0.0436984 0.00196645)
(0.0045979 -0.0371815 0.00208118)
(0.00458437 -0.030234 0.00221248)
(0.00453869 -0.022755 0.00235652)
(0.00445361 -0.0145824 0.00250626)
(0.00431877 -0.00547927 0.00264868)
(0.00412105 0.00486679 0.00276179)
(0.0038466 0.0168259 0.00281558)
(0.00348427 0.0307725 0.00278065)
(0.00303045 0.0468977 0.00264105)
(0.00249308 0.0647552 0.00240233)
(0.00188957 0.0824888 0.00208764)
(0.00127086 0.0959696 0.00173054)
(0.000740064 0.100101 0.00135696)
(0.000303234 0.0887887 0.00092114)
(2.17087e-05 0.045828 0.000347822)
(8.98369e-06 -0.0141858 0.000501321)
(0.000186166 -0.0370876 0.00117374)
(0.00047295 -0.054628 0.0015689)
(0.000832484 -0.0676207 0.00177121)
(0.00121969 -0.0765791 0.00185142)
(0.00160158 -0.0822427 0.00186294)
(0.00196412 -0.0855162 0.00184016)
(0.00230708 -0.0871379 0.00180064)
(0.00263178 -0.0875481 0.00175258)
(0.00293617 -0.0869764 0.00170099)
(0.00321716 -0.0855467 0.00164997)
(0.00347214 -0.0833356 0.00160345)
(0.00369911 -0.0804032 0.00156529)
(0.00389677 -0.0768097 0.00153915)
(0.00406474 -0.0726218 0.00152832)
(0.00420358 -0.0679113 0.00153544)
(0.00431439 -0.0627464 0.00156232)
(0.00439844 -0.057181 0.00160989)
(0.00445693 -0.0512495 0.0016785)
(0.00449057 -0.0449602 0.0017681)
(0.00449908 -0.0382882 0.00187817)
(0.0044806 -0.0311674 0.00200746)
(0.00443108 -0.0234791 0.0021533)
(0.00434368 -0.0150397 0.00231008)
(0.00420832 -0.00558975 0.00246651)
(0.00401212 0.00519967 0.00260217)
(0.00374135 0.0176993 0.00268701)
(0.00338494 0.0322565 0.00268815)
(0.0029394 0.0489959 0.00258243)
(0.00241281 0.067361 0.00236759)
(0.001823 0.0853553 0.00206385)
(0.00122467 0.0987408 0.00170962)
(0.000712517 0.102559 0.00133549)
(0.000290915 0.0906059 0.000901446)
(2.12649e-05 0.0465566 0.000338463)
(9.04087e-06 -0.0150472 0.000482803)
(0.000184206 -0.0392074 0.00112047)
(0.000467327 -0.0575566 0.00148606)
(0.000821408 -0.0709741 0.0016643)
(0.00120157 -0.0800629 0.00172611)
(0.00157563 -0.0856899 0.00172459)
(0.00193102 -0.0888637 0.00169277)
(0.00226826 -0.0903636 0.00164665)
(0.00258826 -0.0906351 0.00159361)
(0.00288837 -0.0899062 0.00153837)
(0.00316528 -0.0883011 0.00148494)
(0.00341628 -0.0858994 0.00143718)
(0.0036393 -0.0827663 0.00139879)
(0.00383303 -0.0789689 0.00137313)
(0.00399707 -0.074581 0.00136306)
(0.00413194 -0.0696805 0.00137068)
(0.0042387 -0.0643376 0.00139728)
(0.00431857 -0.0586069 0.00144341)
(0.00437273 -0.0525211 0.00150936)
(0.00440195 -0.0460839 0.00159535)
(0.00440611 -0.0392619 0.00170156)
(0.0043836 -0.031976 0.00182785)
(0.00433066 -0.0240902 0.00197296)
(0.00424078 -0.0153997 0.00213299)
(0.0041042 -0.00562277 0.00229849)
(0.00390839 0.00558639 0.00245066)
(0.00364 0.0186 0.00255997)
(0.00328831 0.03374 0.00259157)
(0.00285021 0.0510665 0.00251698)
(0.00233395 0.0699145 0.00232701)
(0.00175762 0.0881492 0.0020378)
(0.00117912 0.10143 0.00169031)
(0.000685052 0.10494 0.00131817)
(0.000278341 0.0923594 0.000886598)
(2.05119e-05 0.0472599 0.000332014)
(9.19275e-06 -0.0158815 0.000466757)
(0.000182421 -0.0412526 0.00107094)
(0.000461994 -0.0603721 0.0014057)
(0.000811014 -0.0741878 0.00155862)
(0.00118484 -0.0833949 0.00160199)
(0.00155203 -0.0889862 0.00158822)
(0.00190128 -0.0920673 0.00154827)
(0.00223371 -0.0934528 0.00149627)
(0.00254978 -0.0935918 0.00143873)
(0.00284636 -0.0927113 0.00138004)
(0.00311996 -0.0909362 0.00132413)
(0.00336781 -0.0883492 0.00127482)
(0.00358779 -0.0850212 0.00123579)
(0.00377855 -0.0810257 0.00121036)
(0.00393968 -0.0764436 0.00120123)
(0.00407162 -0.0713582 0.0012102)
(0.00417528 -0.0658415 0.00123822)
(0.00425184 -0.059949 0.00128553)
(0.00430245 -0.0537121 0.00135217)
(0.00432794 -0.0471301 0.00143828)
(0.00432827 -0.0401619 0.00154422)
(0.00430202 -0.0327159 0.00167037)
(0.00424568 -0.0246393 0.00181644)
(0.00415304 -0.0157063 0.00197992)
(0.00401467 -0.00561342 0.00215301)
(0.00381846 0.00600189 0.00231853)
(0.00355151 0.0195131 0.00244778)
(0.00320363 0.0352172 0.0025048)
(0.00277209 0.0531106 0.00245732)
(0.00226526 0.0724211 0.00229052)
(0.00170125 0.090879 0.00201654)
(0.00114065 0.104048 0.00167757)
(0.000662503 0.107255 0.00130878)
(0.000268386 0.0940619 0.000879485)
(2.03049e-05 0.0479434 0.000329865)
(9.27463e-06 -0.0167061 0.00045076)
(0.000180701 -0.0432684 0.00102096)
(0.000457099 -0.0631377 0.00132512)
(0.000801587 -0.0773315 0.00145426)
(0.0011696 -0.0866416 0.0014814)
(0.00153039 -0.09219 0.00145743)
(0.00187392 -0.0951764 0.00141084)
(0.00220182 -0.0964466 0.00135396)
(0.00251411 -0.0964519 0.00129246)
(0.00280727 -0.0954181 0.00123045)
(0.0030777 -0.0934711 0.00117174)
(0.00332258 -0.0906971 0.00112011)
(0.00353974 -0.0871724 0.00107924)
(0.00372782 -0.0829777 0.00105246)
(0.00388638 -0.0782006 0.00104247)
(0.00401573 -0.0729289 0.00105101)
(0.00411666 -0.0672373 0.00107893)
(0.00419026 -0.0611822 0.00112646)
(0.00423769 -0.0547941 0.00119363)
(0.00425975 -0.0480686 0.00128055)
(0.0042565 -0.0409569 0.00138764)
(0.0042266 -0.0333558 0.0015155)
(0.00416674 -0.0250962 0.0016644)
(0.00407094 -0.0159321 0.00183268)
(0.00393013 -0.00553871 0.00201382)
(0.00373266 0.00646257 0.00219201)