/*--------------------------------*- C++ -*----------------------------------*\
| =========                 |                                                 |
| \\      /  F ield         | OpenFOAM: The Open Source CFD Toolbox           |
|  \\    /   O peration     | Version:  v2006                                 |
|   \\  /    A nd           | Website:  www.openfoam.com                      |
|    \\/     M anipulation  |                                                 |
\*---------------------------------------------------------------------------*/
FoamFile
{
    version     2.0;
    format      ascii;
    class       volScalarField;
    location    "91";
    object      nut;
}
// * * * * * * * * * * * * * * * * * * * * * * * * * * * * * * * * * * * * * //

dimensions      [0 2 -1 0 0 0 0];


internalField   nonuniform List<scalar> 
78750
(
3.18233e-09
3.18656e-07
5.50556e-07
7.8081e-07
1.00474e-06
1.2171e-06
1.41458e-06
1.59514e-06
1.75754e-06
1.90118e-06
2.02588e-06
2.13174e-06
2.21905e-06
2.28829e-06
2.33995e-06
2.37373e-06
2.39024e-06
2.39009e-06
2.37385e-06
2.34191e-06
2.29523e-06
2.23259e-06
2.1545e-06
2.06092e-06
1.95152e-06
1.82576e-06
1.68301e-06
1.5219e-06
1.34149e-06
1.14091e-06
9.18487e-07
6.75751e-07
4.32618e-07
2.36982e-07
5.02017e-09
3.1402e-09
1.8014e-06
4.53358e-06
7.3341e-06
9.58044e-06
1.11168e-05
1.22251e-05
1.31202e-05
1.39165e-05
1.46761e-05
1.54354e-05
1.62177e-05
1.7045e-05
1.79479e-05
1.88906e-05
1.8936e-05
1.87769e-05
1.85353e-05
1.82199e-05
1.7839e-05
1.73997e-05
1.69045e-05
1.63577e-05
1.57611e-05
1.51139e-05
1.44136e-05
1.36594e-05
1.21849e-05
1.02946e-05
8.34297e-06
6.2318e-06
4.24873e-06
3.10237e-06
2.07425e-06
2.22833e-08
5.06783e-09
1.95579e-06
4.31303e-06
7.19587e-06
1.0428e-05
1.35792e-05
1.61925e-05
1.80996e-05
1.93983e-05
2.02569e-05
2.08111e-05
2.11496e-05
2.13277e-05
2.13821e-05
2.13369e-05
2.11943e-05
2.09438e-05
2.05893e-05
2.01422e-05
1.9612e-05
1.90066e-05
1.83409e-05
1.76258e-05
1.68578e-05
1.60262e-05
1.51071e-05
1.4053e-05
1.27934e-05
1.12308e-05
9.28209e-06
7.12437e-06
5.49517e-06
5.25561e-06
2.28555e-06
3.80774e-08
8.58542e-09
1.83924e-06
4.15947e-06
7.35699e-06
1.1363e-05
1.54728e-05
1.88156e-05
2.10969e-05
2.24677e-05
2.31478e-05
2.33113e-05
2.30905e-05
2.25891e-05
2.18903e-05
2.10611e-05
2.01552e-05
1.9212e-05
1.82601e-05
1.73204e-05
1.64111e-05
1.55525e-05
1.47694e-05
1.4086e-05
1.35149e-05
1.30466e-05
1.26338e-05
1.21703e-05
1.14831e-05
1.03813e-05
8.82402e-06
7.19194e-06
6.35094e-06
7.17329e-06
2.12212e-06
4.96659e-08
1.2606e-08
1.82893e-06
4.28985e-06
8.05008e-06
1.31475e-05
1.84243e-05
2.24724e-05
2.49555e-05
2.61201e-05
2.62665e-05
2.56746e-05
2.4599e-05
2.32554e-05
2.181e-05
2.03756e-05
1.90155e-05
1.77553e-05
1.65948e-05
1.55216e-05
1.45227e-05
1.35962e-05
1.27574e-05
1.20323e-05
1.14441e-05
1.10013e-05
1.06774e-05
1.0378e-05
9.9249e-06
9.13128e-06
8.01765e-06
7.02652e-06
7.01695e-06
8.2053e-06
1.99994e-06
5.76748e-08
1.69619e-08
1.85578e-06
4.48995e-06
8.83161e-06
1.50254e-05
2.12759e-05
2.55602e-05
2.76852e-05
2.81541e-05
2.74441e-05
2.59732e-05
2.41061e-05
2.21327e-05
2.02487e-05
1.85561e-05
1.70855e-05
1.58223e-05
1.47295e-05
1.37656e-05
1.28977e-05
1.21095e-05
1.14023e-05
1.07842e-05
1.02608e-05
9.83423e-06
9.48768e-06
9.15499e-06
8.71287e-06
8.05938e-06
7.29054e-06
6.84961e-06
7.57589e-06
8.34591e-06
1.90604e-06
6.30435e-08
2.11471e-08
1.8906e-06
4.65913e-06
9.42992e-06
1.64013e-05
2.31982e-05
2.7455e-05
2.92033e-05
2.90842e-05
2.76693e-05
2.54996e-05
2.30546e-05
2.06837e-05
1.85814e-05
1.68094e-05
1.53503e-05
1.41535e-05
1.31586e-05
1.23104e-05
1.15682e-05
1.09138e-05
1.03474e-05
9.85733e-06
9.42253e-06
9.02743e-06
8.65197e-06
8.25402e-06
7.77455e-06
7.20211e-06
6.68784e-06
6.65857e-06
7.93549e-06
7.94487e-06
1.83228e-06
6.70457e-08
2.48789e-08
1.92811e-06
4.79665e-06
9.88421e-06
1.74611e-05
2.46642e-05
2.88103e-05
3.0122e-05
2.93993e-05
2.73504e-05
2.46484e-05
2.18463e-05
1.92935e-05
1.71352e-05
1.53804e-05
1.39771e-05
1.28581e-05
1.19591e-05
1.12263e-05
1.06247e-05
1.01386e-05
9.74822e-06
9.40249e-06
9.04718e-06
8.64913e-06
8.19657e-06
7.68645e-06
7.12755e-06
6.57983e-06
6.22216e-06
6.45942e-06
8.08454e-06
7.43755e-06
1.77546e-06
7.07755e-08
2.83315e-08
1.95637e-06
4.87942e-06
1.01515e-05
1.80848e-05
2.54625e-05
2.94433e-05
3.04197e-05
2.92902e-05
2.68526e-05
2.38581e-05
2.08892e-05
1.82723e-05
1.61081e-05
1.43687e-05
1.29858e-05
1.18898e-05
1.10209e-05
1.03356e-05
9.81392e-06
9.4565e-06
9.23097e-06
9.05173e-06
8.82311e-06
8.47331e-06
7.9795e-06
7.37303e-06
6.72941e-06
6.16853e-06
5.88768e-06
6.27381e-06
8.08138e-06
6.97757e-06
1.73171e-06
7.49125e-08
3.15057e-08
1.98238e-06
4.94605e-06
1.03538e-05
1.85572e-05
2.60716e-05
2.99177e-05
3.06094e-05
2.91416e-05
2.64046e-05
2.32131e-05
2.01556e-05
1.75223e-05
1.5373e-05
1.36558e-05
1.22905e-05
1.12066e-05
1.03519e-05
9.69306e-06
9.22472e-06
8.96081e-06
8.85691e-06
8.80906e-06
8.69212e-06
8.39835e-06
7.88598e-06
7.20626e-06
6.48775e-06
5.89866e-06
5.64998e-06
6.11571e-06
8.01118e-06
6.58822e-06
1.69708e-06
7.9448e-08
3.46903e-08
2.00341e-06
4.99065e-06
1.04868e-05
1.88635e-05
2.64222e-05
3.01219e-05
3.05954e-05
2.8905e-05
2.59945e-05
2.27067e-05
1.96192e-05
1.69907e-05
1.48538e-05
1.31428e-05
1.17745e-05
1.06799e-05
9.81139e-06
9.14845e-06
8.70194e-06
8.4974e-06
8.48421e-06
8.54944e-06
8.54576e-06
8.33069e-06
7.83654e-06
7.12112e-06
6.34968e-06
5.73008e-06
5.48967e-06
5.99769e-06
7.93782e-06
6.27049e-06
1.67067e-06
8.4281e-08
3.78311e-08
2.02424e-06
5.03727e-06
1.06216e-05
1.91581e-05
2.67543e-05
3.03244e-05
3.06012e-05
2.87127e-05
2.56573e-05
2.23008e-05
1.92044e-05
1.65941e-05
1.4478e-05
1.27784e-05
1.14092e-05
1.03035e-05
9.41884e-06
8.74102e-06
8.29457e-06
8.11723e-06
8.15564e-06
8.29532e-06
8.37736e-06
8.2347e-06
7.77574e-06
7.05532e-06
6.2596e-06
5.6232e-06
5.3889e-06
5.9295e-06
7.90371e-06
6.00529e-06
1.65084e-06
8.91794e-08
4.10932e-08
2.04331e-06
5.07785e-06
1.0738e-05
1.94016e-05
2.69957e-05
3.04307e-05
3.05429e-05
2.85112e-05
2.53676e-05
2.19823e-05
1.88947e-05
1.63047e-05
1.42034e-05
1.2507e-05
1.11291e-05
1.00052e-05
9.09749e-06
8.39781e-06
7.93992e-06
7.76982e-06
7.83515e-06
8.02368e-06
8.17169e-06
8.09642e-06
7.68617e-06
6.98695e-06
6.19363e-06
5.55728e-06
5.33489e-06
5.90933e-06
7.91784e-06
5.78851e-06
1.63729e-06
9.40376e-08
4.43908e-08
2.0633e-06
5.12492e-06
1.0872e-05
1.9669e-05
2.72567e-05
3.05579e-05
3.05113e-05
2.83468e-05
2.51292e-05
2.17294e-05
1.86616e-05
1.60989e-05
1.40169e-05
1.23263e-05
1.09407e-05
9.79825e-06
8.86489e-06
8.13795e-06
7.65913e-06
7.48172e-06
7.55289e-06
7.76383e-06
7.95146e-06
7.9262e-06
7.56376e-06
6.90064e-06
6.13151e-06
5.51433e-06
5.31613e-06
5.93346e-06
7.98143e-06
5.61124e-06
1.6293e-06
9.87703e-08
4.77854e-08
2.08239e-06
5.16991e-06
1.09996e-05
1.99146e-05
2.7477e-05
3.06463e-05
3.04631e-05
2.81991e-05
2.49385e-05
2.15424e-05
1.84997e-05
1.5962e-05
1.38943e-05
1.22045e-05
1.08073e-05
9.64319e-06
8.68143e-06
7.92338e-06
7.41641e-06
7.22099e-06
7.28551e-06
7.50358e-06
7.71565e-06
7.73056e-06
7.41622e-06
6.80002e-06
6.07123e-06
5.48836e-06
5.32601e-06
5.99622e-06
8.08591e-06
5.46825e-06
1.6261e-06
1.03366e-07
5.12311e-08
2.10262e-06
5.22073e-06
1.11433e-05
2.01834e-05
2.77154e-05
3.07527e-05
3.04395e-05
2.80872e-05
2.47961e-05
2.14141e-05
1.84031e-05
1.58941e-05
1.38426e-05
1.21545e-05
1.07452e-05
9.55761e-06
8.56411e-06
7.77003e-06
7.22652e-06
7.00157e-06
7.0458e-06
7.25561e-06
7.4755e-06
7.5173e-06
7.24652e-06
6.68256e-06
6.00556e-06
5.46946e-06
5.35404e-06
6.08738e-06
8.22052e-06
5.35508e-06
1.62707e-06
1.07824e-07
5.47296e-08
2.12218e-06
5.27069e-06
1.12847e-05
2.0441e-05
2.79326e-05
3.08438e-05
3.0418e-05
2.7999e-05
2.46944e-05
2.13343e-05
1.83559e-05
1.58735e-05
1.38358e-05
1.21474e-05
1.07247e-05
9.51211e-06
8.48506e-06
7.65213e-06
7.06704e-06
6.80536e-06
6.82124e-06
7.01406e-06
7.23323e-06
7.29515e-06
7.06555e-06
6.5572e-06
5.93951e-06
5.45913e-06
5.3996e-06
6.20511e-06
8.37942e-06
5.26651e-06
1.63149e-06
1.12154e-07
5.82827e-08
2.14278e-06
5.32523e-06
1.14389e-05
2.07172e-05
2.81655e-05
3.09528e-05
3.04226e-05
2.79476e-05
2.46391e-05
2.13076e-05
1.83655e-05
1.59119e-05
1.38896e-05
1.22019e-05
1.07655e-05
9.5265e-06
8.46267e-06
7.58527e-06
6.95052e-06
6.64116e-06
6.61703e-06
6.7808e-06
6.988e-06
7.06198e-06
6.87059e-06
6.4199e-06
5.86691e-06
5.44894e-06
5.45226e-06
6.33697e-06
8.55026e-06
5.19912e-06
1.63867e-06
1.1637e-07
6.18538e-08
2.16279e-06
5.37971e-06
1.15945e-05
2.09912e-05
2.83901e-05
3.10587e-05
3.04353e-05
2.79158e-05
2.46109e-05
2.13103e-05
1.84044e-05
1.59794e-05
1.39733e-05
1.22879e-05
1.08397e-05
9.57571e-06
8.47539e-06
7.55218e-06
6.8646e-06
6.50156e-06
6.43083e-06
6.55867e-06
6.74715e-06
6.82773e-06
6.67186e-06
6.27945e-06
5.79419e-06
5.44299e-06
5.51476e-06
6.485e-06
8.73173e-06
5.14834e-06
1.64811e-06
1.20474e-07
6.54819e-08
2.18359e-06
5.43777e-06
1.17612e-05
2.12826e-05
2.86309e-05
3.11844e-05
3.04754e-05
2.79195e-05
2.46237e-05
2.13571e-05
1.84893e-05
1.60947e-05
1.41069e-05
1.24258e-05
1.09671e-05
9.67817e-06
8.53941e-06
7.56604e-06
6.81845e-06
6.39145e-06
6.26371e-06
6.34567e-06
6.50675e-06
6.58774e-06
6.46444e-06
6.13031e-06
5.71494e-06
5.43405e-06
5.57836e-06
6.63866e-06
8.91563e-06
5.1132e-06
1.65948e-06
1.24483e-07
6.9106e-08
2.20368e-06
5.49599e-06
1.1932e-05
2.15793e-05
2.88735e-05
3.13146e-05
3.05241e-05
2.79345e-05
2.46482e-05
2.14154e-05
1.85864e-05
1.62246e-05
1.42587e-05
1.25865e-05
1.11222e-05
9.81242e-06
8.63766e-06
7.61446e-06
6.80514e-06
6.3092e-06
6.11868e-06
6.14873e-06
6.27639e-06
6.35242e-06
6.25787e-06
5.98017e-06
5.63461e-06
5.42545e-06
5.64527e-06
6.79897e-06
9.09907e-06
5.08751e-06
1.67192e-06
1.28388e-07
7.27909e-08
2.22416e-06
5.5566e-06
1.21124e-05
2.18944e-05
2.91377e-05
3.14701e-05
3.06009e-05
2.79793e-05
2.4704e-05
2.15063e-05
1.87177e-05
1.63908e-05
1.44494e-05
1.27889e-05
1.13218e-05
9.99282e-06
8.78197e-06
7.70649e-06
6.83034e-06
6.25672e-06
5.99485e-06
5.96498e-06
6.05215e-06
6.11759e-06
6.04796e-06
5.82476e-06
5.54876e-06
5.41255e-06
5.71045e-06
6.96108e-06
9.28224e-06
5.07425e-06
1.68593e-06
1.32207e-07
7.64576e-08
2.2437e-06
5.61648e-06
1.22953e-05
2.22142e-05
2.94003e-05
3.16248e-05
3.06796e-05
2.80226e-05
2.47562e-05
2.15943e-05
1.8849e-05
1.65614e-05
1.46504e-05
1.30083e-05
1.15451e-05
1.0203e-05
8.96027e-06
7.83415e-06
6.89014e-06
6.23481e-06
5.89677e-06
5.80184e-06
5.84323e-06
5.89277e-06
5.84319e-06
5.6706e-06
5.46167e-06
5.39743e-06
5.77382e-06
7.12223e-06
9.45773e-06
5.06547e-06
1.70011e-06
1.35918e-07
8.01853e-08
2.2634e-06
5.67737e-06
1.2481e-05
2.25329e-05
2.96511e-05
3.17701e-05
3.07599e-05
2.80777e-05
2.48264e-05
2.17035e-05
1.90033e-05
1.67573e-05
1.48795e-05
1.32594e-05
1.18041e-05
1.04524e-05
9.18003e-06
8.00308e-06
6.98809e-06
6.24472e-06
5.82368e-06
5.65719e-06
5.6468e-06
5.67493e-06
5.64056e-06
5.51482e-06
5.37073e-06
5.3779e-06
5.83384e-06
7.28221e-06
9.63074e-06
5.06567e-06
1.71536e-06
1.39543e-07
8.38859e-08
2.28232e-06
5.73793e-06
1.26676e-05
2.28435e-05
2.98867e-05
3.18989e-05
3.08235e-05
2.81258e-05
2.4888e-05
2.18027e-05
1.91502e-05
1.69508e-05
1.51127e-05
1.35223e-05
1.2083e-05
1.07294e-05
9.43328e-06
8.20888e-06
7.12324e-06
6.28934e-06
5.78091e-06
5.5382e-06
5.47101e-06
5.47224e-06
5.44728e-06
5.36306e-06
5.27973e-06
5.35596e-06
5.89065e-06
7.43872e-06
9.7948e-06
5.06859e-06
1.73056e-06
1.43057e-07
8.7645e-08
2.30118e-06
5.79986e-06
1.28612e-05
2.31498e-05
3.01115e-05
3.20173e-05
3.08799e-05
2.81704e-05
2.49523e-05
2.19099e-05
1.93086e-05
1.71584e-05
1.53633e-05
1.38065e-05
1.23881e-05
1.10378e-05
9.72273e-06
8.45364e-06
7.29732e-06
6.36984e-06
5.76873e-06
5.44432e-06
5.31481e-06
5.28338e-06
5.2619e-06
5.21376e-06
5.18707e-06
5.32989e-06
5.94245e-06
7.59057e-06
9.954e-06
5.07612e-06
1.74598e-06
1.46473e-07
9.13618e-08
2.3187e-06
5.85884e-06
1.30491e-05
2.34435e-05
3.03176e-05
3.21159e-05
3.09166e-05
2.81968e-05
2.50025e-05
2.20046e-05
1.94563e-05
1.73592e-05
1.56129e-05
1.40973e-05
1.2708e-05
1.13694e-05
1.00428e-05
8.73439e-06
7.51016e-06
6.48954e-06
5.79226e-06
5.38189e-06
5.18516e-06
5.11528e-06
5.09075e-06
5.07225e-06
5.09707e-06
5.30334e-06
5.99274e-06
7.7422e-06
1.01128e-05
5.08717e-06
1.76143e-06
1.49772e-07
9.51377e-08
2.33645e-06
5.91902e-06
1.32401e-05
2.37349e-05
3.05146e-05
3.22049e-05
3.0945e-05
2.82176e-05
2.50559e-05
2.21021e-05
1.9606e-05
1.75638e-05
1.58696e-05
1.43995e-05
1.30447e-05
1.17241e-05
1.03924e-05
9.05026e-06
7.76163e-06
6.64907e-06
5.85172e-06
5.35076e-06
5.08183e-06
4.96774e-06
4.93348e-06
4.93786e-06
5.00849e-06
5.27431e-06
6.03894e-06
7.89088e-06
1.02668e-05
5.10202e-06
1.77682e-06
1.52955e-07
9.88709e-08
2.35317e-06
5.97715e-06
1.34269e-05
2.40138e-05
3.06925e-05
3.22727e-05
3.09507e-05
2.82141e-05
2.5084e-05
2.21779e-05
1.97396e-05
1.77581e-05
1.61219e-05
1.47037e-05
1.33909e-05
1.20964e-05
1.07675e-05
9.39845e-06
8.05046e-06
6.84921e-06
5.94957e-06
5.35465e-06
5.0094e-06
4.84576e-06
4.79516e-06
4.81547e-06
4.92607e-06
5.24794e-06
6.08774e-06
8.04589e-06
1.04214e-05
5.12195e-06
1.79259e-06
1.56012e-07
1.02657e-07
2.37023e-06
6.03672e-06
1.3617e-05
2.42909e-05
3.08621e-05
3.23313e-05
3.0948e-05
2.82038e-05
2.51072e-05
2.22501e-05
1.98705e-05
1.79505e-05
1.63743e-05
1.50113e-05
1.37452e-05
1.24831e-05
1.11644e-05
9.77537e-06
8.37353e-06
7.08697e-06
6.08352e-06
5.39198e-06
4.96687e-06
4.74881e-06
4.67561e-06
4.70494e-06
4.84944e-06
5.22343e-06
6.13742e-06
8.2033e-06
1.05756e-05
5.14562e-06
1.80865e-06
1.5894e-07
1.06402e-07
2.38665e-06
6.09515e-06
1.38037e-05
2.45553e-05
3.10128e-05
3.23687e-05
3.09221e-05
2.81692e-05
2.51067e-05
2.23019e-05
1.9985e-05
1.8131e-05
1.66193e-05
1.53168e-05
1.41035e-05
1.28809e-05
1.15799e-05
1.01781e-05
8.72807e-06
7.3599e-06
6.2528e-06
5.46334e-06
4.95593e-06
4.67952e-06
4.57808e-06
4.60989e-06
4.78238e-06
5.20455e-06
6.19143e-06
8.36559e-06
1.07293e-05
5.17155e-06
1.82482e-06
1.61724e-07
1.10189e-07
2.40357e-06
6.15558e-06
1.39932e-05
2.48167e-05
3.11545e-05
3.23955e-05
3.08853e-05
2.81244e-05
2.5097e-05
2.23463e-05
2.0093e-05
1.83054e-05
1.68593e-05
1.56196e-05
1.4463e-05
1.32853e-05
1.20089e-05
1.06018e-05
9.10985e-06
7.66416e-06
6.45443e-06
5.56637e-06
4.97478e-06
4.63671e-06
4.50207e-06
4.53037e-06
4.72523e-06
5.19167e-06
6.2499e-06
8.53234e-06
1.08828e-05
5.19968e-06
1.84104e-06
1.64363e-07
1.13932e-07
2.42014e-06
6.21642e-06
1.41782e-05
2.50638e-05
3.12771e-05
3.24015e-05
3.08261e-05
2.80561e-05
2.50648e-05
2.23727e-05
2.01859e-05
1.84674e-05
1.70903e-05
1.59173e-05
1.4822e-05
1.36947e-05
1.24493e-05
1.10435e-05
9.51573e-06
7.99693e-06
6.68681e-06
5.70045e-06
5.02354e-06
4.62114e-06
4.44892e-06
4.46807e-06
4.67955e-06
5.18564e-06
6.31271e-06
8.70332e-06
1.1034e-05
5.22865e-06
1.85709e-06
1.66846e-07
1.17667e-07
2.43633e-06
6.27722e-06
1.43631e-05
2.53065e-05
3.139e-05
3.23955e-05
3.07547e-05
2.79764e-05
2.50214e-05
2.23901e-05
2.02695e-05
1.86204e-05
1.73136e-05
1.62093e-05
1.51782e-05
1.41053e-05
1.28965e-05
1.14985e-05
9.9412e-06
8.35439e-06
6.947e-06
5.86328e-06
5.10036e-06
4.63139e-06
4.4177e-06
4.42263e-06
4.64577e-06
5.18847e-06
6.38454e-06
8.87938e-06
1.11842e-05
5.25862e-06
1.87293e-06
1.69176e-07
1.21314e-07
2.45152e-06
6.33519e-06
1.45423e-05
2.55369e-05
3.14863e-05
3.23704e-05
3.06601e-05
2.78706e-05
2.49528e-05
2.23857e-05
2.03361e-05
1.87604e-05
1.75273e-05
1.64949e-05
1.55312e-05
1.45166e-05
1.33488e-05
1.1964e-05
1.03829e-05
8.73326e-06
7.2327e-06
6.0535e-06
5.20467e-06
4.66749e-06
4.40902e-06
4.3952e-06
4.62537e-06
5.20129e-06
6.46485e-06
9.06152e-06
1.13332e-05
5.28929e-06
1.88849e-06
1.71354e-07
1.24957e-07
2.46651e-06
6.3938e-06
1.47251e-05
2.57655e-05
3.15746e-05
3.23361e-05
3.05578e-05
2.77586e-05
2.48765e-05
2.23688e-05
2.0388e-05
1.8888e-05
1.77313e-05
1.67726e-05
1.58786e-05
1.49252e-05
1.38025e-05
1.24361e-05
1.08369e-05
9.12978e-06
7.54067e-06
6.26846e-06
5.33435e-06
4.72791e-06
4.4219e-06
4.3853e-06
4.61812e-06
5.22367e-06
6.55245e-06
9.24871e-06
1.14812e-05
5.32093e-06
1.90381e-06
1.73385e-07
1.28528e-07
2.48084e-06
6.45072e-06
1.49033e-05
2.59811e-05
3.1646e-05
3.22822e-05
3.04328e-05
2.76228e-05
2.47787e-05
2.23361e-05
2.04281e-05
1.90028e-05
1.79236e-05
1.70422e-05
1.62209e-05
1.53319e-05
1.42578e-05
1.29138e-05
1.13013e-05
9.54178e-06
7.86897e-06
6.5066e-06
5.48828e-06
4.81194e-06
4.45611e-06
4.39312e-06
4.62444e-06
5.25595e-06
6.64745e-06
9.44092e-06
1.16282e-05
5.3534e-06
1.91887e-06
1.75278e-07
1.32058e-07
2.49471e-06
6.50707e-06
1.50813e-05
2.61905e-05
3.17064e-05
3.22164e-05
3.02965e-05
2.74762e-05
2.46693e-05
2.22905e-05
2.0456e-05
1.91078e-05
1.81053e-05
1.73008e-05
1.65544e-05
1.57325e-05
1.47104e-05
1.33933e-05
1.17724e-05
9.96589e-06
8.21472e-06
6.76551e-06
5.66448e-06
4.91804e-06
4.51057e-06
4.41799e-06
4.64394e-06
5.29774e-06
6.74917e-06
9.6372e-06
1.17744e-05
5.38684e-06
1.93371e-06
1.77042e-07
1.35523e-07
2.50809e-06
6.56236e-06
1.52564e-05
2.63884e-05
3.17506e-05
3.21322e-05
3.01403e-05
2.731e-05
2.4542e-05
2.22292e-05
2.04706e-05
1.92019e-05
1.82791e-05
1.75523e-05
1.68812e-05
1.61283e-05
1.51609e-05
1.38737e-05
1.22487e-05
1.03999e-05
8.57573e-06
7.0433e-06
5.86142e-06
5.04511e-06
4.58466e-06
4.45975e-06
4.67676e-06
5.34929e-06
6.8577e-06
9.83726e-06
1.192e-05
5.4212e-06
1.94832e-06
1.78686e-07
1.38927e-07
2.52096e-06
6.61652e-06
1.5429e-05
2.6577e-05
3.17823e-05
3.20345e-05
2.99703e-05
2.71305e-05
2.44018e-05
2.21551e-05
2.04729e-05
1.9284e-05
1.84415e-05
1.77937e-05
1.71983e-05
1.65155e-05
1.56052e-05
1.43515e-05
1.27265e-05
1.0841e-05
8.94941e-06
7.33777e-06
6.07724e-06
5.19162e-06
4.67725e-06
4.51775e-06
4.72261e-06
5.41044e-06
6.97275e-06
1.00405e-05
1.2065e-05
5.4565e-06
1.96273e-06
1.80217e-07
1.42239e-07
2.53316e-06
6.66899e-06
1.55973e-05
2.67535e-05
3.17984e-05
3.19196e-05
2.97827e-05
2.69345e-05
2.4247e-05
2.20683e-05
2.04643e-05
1.93565e-05
1.8595e-05
1.80268e-05
1.7508e-05
1.68951e-05
1.60432e-05
1.48255e-05
1.32042e-05
1.12866e-05
9.33342e-06
7.64692e-06
6.31028e-06
5.35629e-06
4.7875e-06
4.59158e-06
4.78154e-06
5.4815e-06
7.09464e-06
1.0247e-05
1.221e-05
5.49282e-06
1.97695e-06
1.81643e-07
1.45473e-07
2.54482e-06
6.7201e-06
1.57623e-05
2.69198e-05
3.18013e-05
3.17903e-05
2.95806e-05
2.67248e-05
2.40795e-05
2.19695e-05
2.04445e-05
1.94183e-05
1.87379e-05
1.82495e-05
1.78076e-05
1.72654e-05
1.64716e-05
1.52925e-05
1.36791e-05
1.17345e-05
9.72569e-06
7.96897e-06
6.55899e-06
5.53779e-06
4.91436e-06
4.6806e-06
4.85324e-06
5.56243e-06
7.22333e-06
1.04564e-05
1.23551e-05
5.53016e-06
1.991e-06
1.82972e-07
1.48601e-07
2.55577e-06
6.76919e-06
1.5922e-05
2.70735e-05
3.17892e-05
3.1645e-05
2.93626e-05
2.65009e-05
2.38998e-05
2.18604e-05
2.0416e-05
1.94721e-05
1.88729e-05
1.84637e-05
1.8098e-05
1.76263e-05
1.68912e-05
1.57503e-05
1.41479e-05
1.21819e-05
1.01237e-05
8.30189e-06
6.82173e-06
5.73484e-06
5.05695e-06
4.78437e-06
4.93778e-06
5.65366e-06
7.3594e-06
1.06693e-05
1.2501e-05
5.56868e-06
2.00492e-06
1.84213e-07
1.51638e-07
2.56611e-06
6.81667e-06
1.60779e-05
2.72164e-05
3.17634e-05
3.14843e-05
2.91291e-05
2.62629e-05
2.37078e-05
2.17404e-05
2.0378e-05
1.95172e-05
1.89994e-05
1.86691e-05
1.8379e-05
1.7977e-05
1.73005e-05
1.61993e-05
1.461e-05
1.26272e-05
1.05261e-05
8.64437e-06
7.09727e-06
5.94626e-06
5.21418e-06
4.90203e-06
5.03459e-06
5.75493e-06
7.50277e-06
1.08853e-05
1.26479e-05
5.60841e-06
2.01873e-06
1.85375e-07
1.54568e-07
2.57574e-06
6.8621e-06
1.62285e-05
2.73469e-05
3.17224e-05
3.13074e-05
2.88798e-05
2.60113e-05
2.35046e-05
2.16112e-05
2.03324e-05
1.95557e-05
1.91194e-05
1.88674e-05
1.86516e-05
1.83177e-05
1.76984e-05
1.66367e-05
1.50625e-05
1.30679e-05
1.09309e-05
8.99488e-06
7.38448e-06
6.1712e-06
5.38548e-06
5.03329e-06
5.14372e-06
5.86663e-06
7.654e-06
1.11051e-05
1.27964e-05
5.64958e-06
2.0325e-06
1.86471e-07
1.574e-07
2.58474e-06
6.9057e-06
1.63746e-05
2.74662e-05
3.16668e-05
3.11137e-05
2.86138e-05
2.5745e-05
2.32891e-05
2.14717e-05
2.02785e-05
1.95872e-05
1.9233e-05
1.90591e-05
1.89167e-05
1.86493e-05
1.80857e-05
1.70629e-05
1.55051e-05
1.35023e-05
1.1336e-05
9.35164e-06
7.68191e-06
6.40849e-06
5.56982e-06
5.17728e-06
5.26454e-06
5.98839e-06
7.81302e-06
1.13287e-05
1.29471e-05
5.69227e-06
2.04627e-06
1.87513e-07
1.60129e-07
2.59309e-06
6.94738e-06
1.65156e-05
2.75734e-05
3.15958e-05
3.09024e-05
2.83308e-05
2.54644e-05
2.30622e-05
2.13232e-05
2.02175e-05
1.96128e-05
1.93413e-05
1.92453e-05
1.91751e-05
1.89722e-05
1.84619e-05
1.74766e-05
1.59363e-05
1.39298e-05
1.17409e-05
9.71395e-06
7.98891e-06
6.65763e-06
5.7669e-06
5.33391e-06
5.39723e-06
6.12071e-06
7.98052e-06
1.15566e-05
1.31006e-05
5.73677e-06
2.06012e-06
1.88514e-07
1.62759e-07
2.6008e-06
6.98715e-06
1.66518e-05
2.76689e-05
3.15093e-05
3.06731e-05
2.80301e-05
2.51688e-05
2.28232e-05
2.1165e-05
2.01487e-05
1.96322e-05
1.94442e-05
1.94263e-05
1.94276e-05
1.92874e-05
1.8828e-05
1.7878e-05
1.63553e-05
1.43486e-05
1.21437e-05
1.00802e-05
8.30418e-06
6.91765e-06
5.97597e-06
5.50257e-06
5.5412e-06
6.26316e-06
8.15631e-06
1.1789e-05
1.32573e-05
5.7832e-06
2.07411e-06
1.89485e-07
1.65295e-07
2.60795e-06
7.02522e-06
1.67836e-05
2.77529e-05
3.14067e-05
3.04254e-05
2.77121e-05
2.48592e-05
2.25734e-05
2.09981e-05
2.00729e-05
1.96458e-05
1.95421e-05
1.96024e-05
1.96744e-05
1.95951e-05
1.91838e-05
1.82669e-05
1.67613e-05
1.47575e-05
1.25428e-05
1.04483e-05
8.62627e-06
7.18768e-06
6.19663e-06
5.68322e-06
5.69705e-06
6.4172e-06
8.34117e-06
1.20266e-05
1.34181e-05
5.83178e-06
2.08832e-06
1.90439e-07
1.67739e-07
2.61448e-06
7.06143e-06
1.69107e-05
2.78249e-05
3.12877e-05
3.01589e-05
2.73767e-05
2.45359e-05
2.2313e-05
2.08226e-05
1.99902e-05
1.96535e-05
1.96349e-05
1.97738e-05
1.99159e-05
1.98959e-05
1.95301e-05
1.86434e-05
1.71539e-05
1.51552e-05
1.29363e-05
1.08167e-05
8.95345e-06
7.46629e-06
6.42787e-06
5.87531e-06
5.86445e-06
6.5824e-06
8.53557e-06
1.22699e-05
1.35832e-05
5.88256e-06
2.10279e-06
1.91384e-07
1.70099e-07
2.62053e-06
7.09615e-06
1.70339e-05
2.78851e-05
3.11521e-05
2.98738e-05
2.70252e-05
2.42004e-05
2.20435e-05
2.06399e-05
1.99012e-05
1.96556e-05
1.97225e-05
1.99399e-05
2.01518e-05
2.01895e-05
1.98669e-05
1.90077e-05
1.75329e-05
1.5541e-05
1.3323e-05
1.11838e-05
9.28434e-06
7.75245e-06
6.66909e-06
6.0786e-06
6.04347e-06
6.75898e-06
8.74003e-06
1.25196e-05
1.37535e-05
5.93567e-06
2.11756e-06
1.92332e-07
1.72374e-07
2.62598e-06
7.12909e-06
1.71525e-05
2.79329e-05
3.09992e-05
2.95701e-05
2.66579e-05
2.38537e-05
2.17659e-05
2.04506e-05
1.98065e-05
1.96523e-05
1.98048e-05
2.01008e-05
2.03818e-05
2.04759e-05
2.01939e-05
1.93596e-05
1.7898e-05
1.59141e-05
1.37011e-05
1.15475e-05
9.61684e-06
8.04435e-06
6.91899e-06
6.29229e-06
6.2337e-06
6.94703e-06
8.95532e-06
1.27769e-05
1.39292e-05
5.99125e-06
2.13271e-06
1.93293e-07
1.74574e-07
2.63093e-06
7.16049e-06
1.72668e-05
2.79684e-05
3.08294e-05
2.92487e-05
2.62766e-05
2.34977e-05
2.14821e-05
2.02564e-05
1.9707e-05
1.96438e-05
1.98816e-05
2.02557e-05
2.06052e-05
2.07543e-05
2.05108e-05
1.96988e-05
1.82487e-05
1.62738e-05
1.40696e-05
1.19064e-05
9.94971e-06
8.34116e-06
7.17703e-06
6.51609e-06
6.4349e-06
7.14621e-06
9.18131e-06
1.30416e-05
1.411e-05
6.04932e-06
2.14827e-06
1.94277e-07
1.76695e-07
2.6353e-06
7.19007e-06
1.7376e-05
2.79906e-05
3.06422e-05
2.89098e-05
2.58823e-05
2.31337e-05
2.11935e-05
2.00587e-05
1.96038e-05
1.96308e-05
1.99529e-05
2.04045e-05
2.08216e-05
2.10244e-05
2.08171e-05
2.00248e-05
1.85848e-05
1.66195e-05
1.44274e-05
1.22587e-05
1.02806e-05
8.64028e-06
7.44082e-06
6.74824e-06
6.64621e-06
7.3567e-06
9.41909e-06
1.33151e-05
1.42959e-05
6.10981e-06
2.16428e-06
1.95288e-07
1.78742e-07
2.63914e-06
7.21793e-06
1.74802e-05
2.79998e-05
3.04384e-05
2.85549e-05
2.5477e-05
2.27637e-05
2.09017e-05
1.98599e-05
1.94981e-05
1.96133e-05
2.00181e-05
2.05461e-05
2.10297e-05
2.12847e-05
2.11118e-05
2.03372e-05
1.8906e-05
1.69511e-05
1.47735e-05
1.26032e-05
1.06084e-05
8.94088e-06
7.71005e-06
6.98847e-06
6.86751e-06
7.57863e-06
9.66892e-06
1.35978e-05
1.44866e-05
6.17273e-06
2.1808e-06
1.96332e-07
1.80716e-07
2.64239e-06
7.24386e-06
1.75789e-05
2.79953e-05
3.02176e-05
2.81845e-05
2.50621e-05
2.23891e-05
2.06077e-05
1.96602e-05
1.93901e-05
1.95914e-05
2.00775e-05
2.06805e-05
2.12295e-05
2.15351e-05
2.13946e-05
2.06359e-05
1.92126e-05
1.72691e-05
1.5108e-05
1.29393e-05
1.09316e-05
9.24109e-06
7.98249e-06
7.23485e-06
7.0976e-06
7.81171e-06
9.93139e-06
1.38906e-05
1.4682e-05
6.23792e-06
2.19783e-06
1.97411e-07
1.82621e-07
2.64505e-06
7.26784e-06
1.76721e-05
2.79776e-05
2.99807e-05
2.78001e-05
2.46393e-05
2.20119e-05
2.0313e-05
1.94593e-05
1.92796e-05
1.95657e-05
2.01314e-05
2.08077e-05
2.14202e-05
2.17746e-05
2.16647e-05
2.09204e-05
1.9505e-05
1.75744e-05
1.5431e-05
1.32662e-05
1.12493e-05
9.53986e-06
8.25757e-06
7.4875e-06
7.33649e-06
8.05599e-06
1.02067e-05
1.41935e-05
1.48815e-05
6.30522e-06
2.21537e-06
1.98524e-07
1.84462e-07
2.64709e-06
7.28989e-06
1.776e-05
2.79466e-05
2.97272e-05
2.74017e-05
2.42093e-05
2.1633e-05
2.00192e-05
1.92599e-05
1.91698e-05
1.9539e-05
2.0182e-05
2.09292e-05
2.16028e-05
2.20037e-05
2.19224e-05
2.11916e-05
1.97848e-05
1.78695e-05
1.5744e-05
1.35845e-05
1.15612e-05
9.83651e-06
8.53409e-06
7.7447e-06
7.58285e-06
8.31089e-06
1.04949e-05
1.4507e-05
1.50849e-05
6.37462e-06
2.23346e-06
1.99675e-07
1.86245e-07
2.64852e-06
7.31001e-06
1.78429e-05
2.79026e-05
2.94573e-05
2.69895e-05
2.37724e-05
2.12526e-05
1.97263e-05
1.90618e-05
1.90608e-05
1.95117e-05
2.02304e-05
2.10462e-05
2.17782e-05
2.22228e-05
2.2168e-05
2.145e-05
2.00533e-05
1.81566e-05
1.60481e-05
1.38945e-05
1.18671e-05
1.01303e-05
8.81144e-06
8.00634e-06
7.8371e-06
8.57642e-06
1.0796e-05
1.48307e-05
1.52912e-05
6.44574e-06
2.25204e-06
2.00862e-07
1.8798e-07
2.64941e-06
7.3286e-06
1.79217e-05
2.78459e-05
2.91701e-05
2.65625e-05
2.33282e-05
2.08708e-05
1.9435e-05
1.88667e-05
1.89549e-05
1.94871e-05
2.02797e-05
2.11617e-05
2.19489e-05
2.24338e-05
2.24026e-05
2.16961e-05
2.03111e-05
1.8436e-05
1.6344e-05
1.41965e-05
1.21667e-05
1.04209e-05
9.08889e-06
8.27148e-06
8.09819e-06
8.85232e-06
1.11101e-05
1.51648e-05
1.55003e-05
6.51861e-06
2.27117e-06
2.02087e-07
1.89676e-07
2.64982e-06
7.34586e-06
1.79971e-05
2.77767e-05
2.88653e-05
2.61207e-05
2.28767e-05
2.04875e-05
1.91449e-05
1.8674e-05
1.88521e-05
1.94655e-05
2.03314e-05
2.12776e-05
2.21169e-05
2.26384e-05
2.26274e-05
2.19308e-05
2.05579e-05
1.87068e-05
1.66313e-05
1.44908e-05
1.24605e-05
1.07082e-05
9.36631e-06
8.53998e-06
8.36623e-06
9.1389e-06
1.1437e-05
1.55088e-05
1.57113e-05
6.59293e-06
2.29078e-06
2.03347e-07
1.91344e-07
2.64991e-06
7.36248e-06
1.80704e-05
2.76948e-05
2.8542e-05
2.56641e-05
2.24189e-05
2.01035e-05
1.88567e-05
1.84843e-05
1.87531e-05
1.94483e-05
2.03873e-05
2.13962e-05
2.22849e-05
2.2839e-05
2.28441e-05
2.21547e-05
2.07937e-05
1.89677e-05
1.69092e-05
1.47767e-05
1.27478e-05
1.09919e-05
9.64315e-06
8.81115e-06
8.64044e-06
9.4356e-06
1.17769e-05
1.58622e-05
1.59242e-05
6.6687e-06
2.3109e-06
2.04645e-07
1.92998e-07
2.64977e-06
7.37884e-06
1.81423e-05
2.75999e-05
2.82005e-05
2.51944e-05
2.19563e-05
1.97196e-05
1.85703e-05
1.8297e-05
1.8657e-05
1.94346e-05
2.04472e-05
2.15183e-05
2.24542e-05
2.30374e-05
2.30548e-05
2.23696e-05
2.10195e-05
1.92189e-05
1.71777e-05
1.50543e-05
1.30289e-05
1.12718e-05
9.91941e-06
9.08521e-06
8.92124e-06
9.74282e-06
1.213e-05
1.6225e-05
1.61383e-05
6.74557e-06
2.33146e-06
2.05974e-07
1.94635e-07
2.64948e-06
7.39509e-06
1.82126e-05
2.74912e-05
2.78415e-05
2.47139e-05
2.1492e-05
1.93385e-05
1.82872e-05
1.81123e-05
1.85631e-05
1.94234e-05
2.05099e-05
2.16432e-05
2.26249e-05
2.32342e-05
2.326e-05
2.25761e-05
2.12357e-05
1.94599e-05
1.74362e-05
1.53233e-05
1.33034e-05
1.15479e-05
1.01947e-05
9.36147e-06
9.20802e-06
1.00603e-05
1.24966e-05
1.65975e-05
1.63535e-05
6.8234e-06
2.35246e-06
2.07335e-07
1.9625e-07
2.64898e-06
7.41106e-06
1.82806e-05
2.7368e-05
2.74659e-05
2.42253e-05
2.10285e-05
1.89617e-05
1.80083e-05
1.79303e-05
1.84704e-05
1.94129e-05
2.05735e-05
2.17692e-05
2.2796e-05
2.34295e-05
2.3461e-05
2.27762e-05
2.14446e-05
1.96919e-05
1.76852e-05
1.55841e-05
1.3572e-05
1.18207e-05
1.04695e-05
9.64013e-06
9.50032e-06
1.03873e-05
1.2875e-05
1.69777e-05
1.65689e-05
6.90212e-06
2.37386e-06
2.08726e-07
1.9782e-07
2.64809e-06
7.42591e-06
1.83438e-05
2.72297e-05
2.70753e-05
2.37311e-05
2.05685e-05
1.8592e-05
1.77359e-05
1.77522e-05
1.83789e-05
1.94014e-05
2.06354e-05
2.18932e-05
2.29647e-05
2.36213e-05
2.36571e-05
2.29703e-05
2.16473e-05
1.99149e-05
1.79238e-05
1.58348e-05
1.38326e-05
1.20887e-05
1.0743e-05
9.92102e-06
9.79883e-06
1.0725e-05
1.32668e-05
1.73668e-05
1.67842e-05
6.98134e-06
2.39563e-06
2.10151e-07
1.99324e-07
2.64665e-06
7.43898e-06
1.84011e-05
2.70759e-05
2.66701e-05
2.32321e-05
2.0113e-05
1.82304e-05
1.74717e-05
1.75797e-05
1.82894e-05
1.9389e-05
2.06944e-05
2.20136e-05
2.31295e-05
2.38089e-05
2.38488e-05
2.31608e-05
2.18475e-05
2.01317e-05
1.81535e-05
1.60763e-05
1.40854e-05
1.23513e-05
1.10141e-05
1.02028e-05
1.01021e-05
1.10718e-05
1.36703e-05
1.77626e-05
1.69975e-05
7.06017e-06
2.41753e-06
2.11598e-07
2.00749e-07
2.64448e-06
7.44955e-06
1.84512e-05
2.69067e-05
2.625e-05
2.27279e-05
1.96613e-05
1.7877e-05
1.72186e-05
1.74154e-05
1.82039e-05
1.93769e-05
2.07508e-05
2.21294e-05
2.32887e-05
2.39905e-05
2.40349e-05
2.33474e-05
2.20458e-05
2.03429e-05
1.83748e-05
1.63085e-05
1.433e-05
1.26082e-05
1.12831e-05
1.04868e-05
1.0412e-05
1.14296e-05
1.40866e-05
1.81656e-05
1.72094e-05
7.13885e-06
2.43962e-06
2.13077e-07
2.02097e-07
2.64155e-06
7.45754e-06
1.84946e-05
2.67214e-05
2.58125e-05
2.22157e-05
1.9211e-05
1.753e-05
1.69747e-05
1.72598e-05
1.81254e-05
1.93692e-05
2.08085e-05
2.22436e-05
2.34443e-05
2.41673e-05
2.42165e-05
2.35311e-05
2.22427e-05
2.05498e-05
1.85892e-05
1.65328e-05
1.4567e-05
1.28594e-05
1.15489e-05
1.07707e-05
1.0726e-05
1.17962e-05
1.45139e-05
1.85736e-05
1.74188e-05
7.21695e-06
2.46179e-06
2.14586e-07
2.03388e-07
2.63794e-06
7.46331e-06
1.85326e-05
2.65194e-05
2.53543e-05
2.1692e-05
1.87594e-05
1.71877e-05
1.67389e-05
1.71144e-05
1.80576e-05
1.93708e-05
2.08726e-05
2.23606e-05
2.3599e-05
2.43409e-05
2.4394e-05
2.37113e-05
2.24366e-05
2.07514e-05
1.87963e-05
1.67487e-05
1.47962e-05
1.31044e-05
1.18114e-05
1.10554e-05
1.10458e-05
1.21723e-05
1.49523e-05
1.89866e-05
1.76259e-05
7.2945e-06
2.48404e-06
2.16136e-07
2.04646e-07