/*--------------------------------*- C++ -*----------------------------------*\
| =========                 |                                                 |
| \\      /  F ield         | OpenFOAM: The Open Source CFD Toolbox           |
|  \\    /   O peration     | Version:  v2006                                 |
|   \\  /    A nd           | Website:  www.openfoam.com                      |
|    \\/     M anipulation  |                                                 |
\*---------------------------------------------------------------------------*/
FoamFile
{
    version     2.0;
    format      ascii;
    class       volVectorField;
    location    "91";
    object      U;
}
// * * * * * * * * * * * * * * * * * * * * * * * * * * * * * * * * * * * * * //

dimensions      [0 1 -1 0 0 0 0];


internalField   nonuniform List<vector> 
78750
(
(-0.00338605 -0.00133332 0.00108376)
(-0.00356907 -0.00432066 0.00143931)
(-0.00266587 -0.00559415 0.00195612)
(-0.000856528 -0.00635434 0.00241451)
(0.000777153 -0.00683578 0.00279425)
(0.002585 -0.00711172 0.00310491)
(0.00447651 -0.00721963 0.00335786)
(0.00641588 -0.0071833 0.00356316)
(0.00835502 -0.00701986 0.00372889)
(0.0102535 -0.00674321 0.00386108)
(0.0120771 -0.00636557 0.00396409)
(0.0137958 -0.00589804 0.00404105)
(0.0153832 -0.00535102 0.00409426)
(0.0168165 -0.00473469 0.00412535)
(0.0180765 -0.00405825 0.00413558)
(0.0191459 -0.00332663 0.004127)
(0.0200116 -0.0025519 0.00410084)
(0.0206628 -0.00174723 0.00405821)
(0.0210918 -0.000925486 0.00400021)
(0.0212946 -9.91518e-05 0.00392815)
(0.0212718 0.000718683 0.00384365)
(0.0210237 0.00151491 0.00374714)
(0.0205505 0.0022763 0.00364016)
(0.0198603 0.00298924 0.00352407)
(0.0189661 0.00363918 0.00339992)
(0.017883 0.00421083 0.0032685)
(0.0166295 0.00468776 0.00313071)
(0.015227 0.00504655 0.00298572)
(0.0137014 0.00527083 0.00283392)
(0.0120762 0.00538764 0.00267506)
(0.0103518 0.0055537 0.00249569)
(0.00845064 0.00616297 0.00224623)
(0.00618086 0.00764048 0.0018406)
(0.00349731 0.00923435 0.00123392)
(0.000871037 0.00703621 0.000519412)
(-0.000126728 -0.00213179 0.00148389)
(0.000295952 -0.00909278 0.00270621)
(0.000903047 -0.0136348 0.00353223)
(0.00182402 -0.0168735 0.00407287)
(0.00298311 -0.0191422 0.00443499)
(0.0043255 -0.0206581 0.00468633)
(0.00579061 -0.021556 0.00486556)
(0.00732341 -0.0219313 0.00499625)
(0.00887943 -0.0218554 0.00509399)
(0.010422 -0.0213858 0.00516887)
(0.0119197 -0.0205708 0.00522712)
(0.0133453 -0.0194524 0.00527218)
(0.0146754 -0.0180689 0.00530513)
(0.0158879 -0.0164587 0.00532395)
(0.0169606 -0.0146611 0.005324)
(0.0178883 -0.0126984 0.00531239)
(0.0186592 -0.0105909 0.00529664)
(0.019253 -0.00837415 0.00527468)
(0.0196612 -0.00608014 0.00524592)
(0.0198772 -0.00373964 0.00520953)
(0.0198946 -0.00138289 0.00516521)
(0.0197122 0.000960175 0.0051126)
(0.0193284 0.00325896 0.00505182)
(0.0187403 0.00548374 0.0049829)
(0.0179493 0.00760412 0.00490551)
(0.0169566 0.00958826 0.00481828)
(0.0157755 0.0114016 0.00471735)
(0.0144141 0.0130362 0.00460727)
(0.0128597 0.0145263 0.00449605)
(0.0111122 0.0159927 0.00437632)
(0.0091617 0.0177836 0.00421661)
(0.00696048 0.0205232 0.00393126)
(0.00454231 0.0243162 0.00336838)
(0.00218731 0.0264148 0.00240494)
(0.000279093 0.0181544 0.00101909)
(2.6753e-05 -0.00355675 0.00128731)
(0.000517266 -0.0119394 0.0026095)
(0.00128231 -0.0186031 0.00341655)
(0.0023287 -0.0237969 0.00386873)
(0.00355701 -0.0276383 0.00410148)
(0.00488752 -0.0302749 0.00421498)
(0.00626369 -0.0318826 0.00427309)
(0.00764578 -0.0326266 0.0043107)
(0.00900293 -0.0326435 0.00434408)
(0.0103107 -0.0320415 0.00437946)
(0.0115498 -0.0309069 0.00441819)
(0.0127042 -0.0293099 0.00445965)
(0.0137599 -0.0273099 0.00450272)
(0.0147038 -0.0249593 0.00454641)
(0.0155238 -0.0223071 0.00458983)
(0.0162098 -0.0194004 0.00463177)
(0.0167526 -0.0162799 0.0046722)
(0.0171458 -0.0129848 0.00471137)
(0.0173836 -0.00955459 0.00474896)
(0.0174608 -0.00602897 0.00478433)
(0.0173723 -0.00244775 0.0048163)
(0.0171151 0.00114871 0.00484316)
(0.0166892 0.00471784 0.00486255)
(0.0160937 0.00821678 0.00487183)
(0.0153269 0.0116032 0.00486891)
(0.0143887 0.014838 0.00485269)
(0.0132814 0.0178936 0.00482346)
(0.0120087 0.0207731 0.00478355)
(0.0105738 0.0235401 0.0047339)
(0.00897469 0.0263851 0.00466626)
(0.00719001 0.0296906 0.00454296)
(0.00519564 0.0338004 0.00426229)
(0.00319217 0.03783 0.00367965)
(0.0014007 0.0379977 0.00264566)
(0.000131342 0.0237841 0.00108772)
(2.82728e-05 -0.00648262 0.00122338)
(0.000595925 -0.0184773 0.00246774)
(0.00150099 -0.0276939 0.00310511)
(0.00265178 -0.0344239 0.00339646)
(0.00390456 -0.0389566 0.0035115)
(0.00516947 -0.0417212 0.00354864)
(0.00640678 -0.0431413 0.00355873)
(0.0075991 -0.0435314 0.00356338)
(0.00873385 -0.0430997 0.00356924)
(0.00980125 -0.041985 0.0035769)
(0.0107937 -0.040285 0.00358526)
(0.0117036 -0.0380727 0.0035934)
(0.0125224 -0.0354071 0.00360146)
(0.0132407 -0.0323398 0.00361103)
(0.013849 -0.028919 0.00362525)
(0.0143389 -0.0251917 0.00364855)
(0.0147034 -0.0212046 0.00368613)
(0.014938 -0.0170041 0.00374329)
(0.01504 -0.0126347 0.00382471)
(0.0150087 -0.00813853 0.00393366)
(0.0148437 -0.00355551 0.00407063)
(0.014545 0.00107501 0.00423217)
(0.0141122 0.00571068 0.00441009)
(0.0135437 0.0103033 0.00459113)
(0.012837 0.0147977 0.00475848)
(0.0119903 0.0191368 0.00489471)
(0.011003 0.0232767 0.00498605)
(0.00987692 0.0272195 0.00502578)
(0.00861382 0.0310619 0.00501273)
(0.00720924 0.0350426 0.00494048)
(0.00564648 0.0394884 0.00477342)
(0.00393364 0.0443215 0.004424)
(0.00233478 0.0478867 0.00380181)
(0.00096971 0.0460661 0.00275782)
(6.06042e-05 0.0271545 0.00113515)
(5.00166e-05 -0.00903855 0.000913187)
(0.000614709 -0.0243079 0.00176569)
(0.00147676 -0.0355315 0.00213983)
(0.00251461 -0.0432053 0.00228189)
(0.00359302 -0.0479413 0.00231863)
(0.0046445 -0.0505299 0.00231123)
(0.00565545 -0.0516301 0.00228765)
(0.00662651 -0.0516524 0.0022566)
(0.00755475 -0.0508292 0.00221837)
(0.00843541 -0.049297 0.00217105)
(0.00926212 -0.0471418 0.00211297)
(0.0100254 -0.0444246 0.00204381)
(0.0107131 -0.0411964 0.00196514)
(0.0113114 -0.0375082 0.00188083)
(0.0118076 -0.0334165 0.00179734)
(0.0121912 -0.0289848 0.00172375)
(0.0124555 -0.0242803 0.00167155)
(0.0125979 -0.0193695 0.00165417)
(0.0126196 -0.014313 0.00168629)
(0.0125249 -0.00916094 0.00178244)
(0.0123191 -0.00395118 0.00195532)
(0.0120078 0.00128872 0.00221306)
(0.0115961 0.00653622 0.00255574)
(0.0110872 0.0117667 0.0029715)
(0.0104798 0.0169464 0.00343441)
(0.00977004 0.0220316 0.00390553)
(0.008952 0.0269834 0.00433942)
(0.0080191 0.0318095 0.00469467)
(0.00696395 0.0366185 0.00494027)
(0.00577643 0.0416347 0.00504795)
(0.00444777 0.0470219 0.00497042)
(0.00302379 0.0522381 0.00463459)
(0.00175177 0.0552 0.00399606)
(0.000694388 0.0516621 0.00291876)
(2.95517e-05 0.029227 0.00117876)
(4.94857e-05 -0.0113488 0.000623388)
(0.000539669 -0.0294393 0.00121835)
(0.00126946 -0.0422046 0.00151535)
(0.00213066 -0.0504764 0.00166391)
(0.00301054 -0.055238 0.00172615)
(0.00386149 -0.0576195 0.00173788)
(0.00468445 -0.0584523 0.00172043)
(0.00548559 -0.0581874 0.00168124)
(0.00626194 -0.0570485 0.00162121)
(0.00700742 -0.0551516 0.00153951)
(0.00771358 -0.0525613 0.00143518)
(0.00836845 -0.0493224 0.00130782)
(0.00895703 -0.0454795 0.00115808)
(0.00946357 -0.0410914 0.000988335)
(0.00987414 -0.0362368 0.00080336)
(0.010179 -0.0310115 0.000610984)
(0.0103725 -0.0255204 0.000422567)
(0.010454 -0.0198657 0.000253352)
(0.0104275 -0.0141362 0.000122215)
(0.0103005 -0.00840096 5.1523e-05)
(0.0100822 -0.0027057 6.59417e-05)
(0.00978177 0.00292593 0.000189974)
(0.00940708 0.00848799 0.00044382)
(0.0089633 0.0139852 0.000837469)
(0.00845176 0.0194251 0.0013637)
(0.00786903 0.0248136 0.0019925)
(0.00720652 0.0301641 0.0026713)
(0.00645138 0.0355293 0.00333318)
(0.0055884 0.0410374 0.00390708)
(0.00460327 0.0468544 0.00431763)
(0.00349419 0.0529096 0.00447537)
(0.00233784 0.0582311 0.00429188)
(0.00132851 0.0605841 0.00373634)
(0.000501988 0.0555779 0.00270656)
(1.56693e-05 0.030549 0.0010293)
(4.72332e-05 -0.0132701 0.000427833)
(0.00045549 -0.033666 0.000881568)
(0.00105761 -0.0476606 0.00115501)
(0.00176747 -0.0564215 0.00132029)
(0.00249206 -0.0612476 0.00140385)
(0.00319514 -0.0635292 0.00143269)
(0.0038816 -0.0642097 0.00142763)
(0.00455618 -0.0637565 0.00139715)
(0.0052137 -0.0623809 0.00134351)
(0.00584683 -0.0601792 0.00126681)
(0.0064464 -0.0571959 0.0011663)
(0.00700003 -0.0534603 0.00104086)
(0.00749309 -0.0490147 0.000889677)
(0.00791091 -0.0439331 0.000713104)
(0.00824109 -0.0383255 0.000513419)
(0.00847528 -0.032327 0.000295311)
(0.00861042 -0.0260837 6.66843e-05)
(0.00864817 -0.0197347 -0.000160536)
(0.00859443 -0.0133974 -0.000369773)
(0.00845793 -0.00715816 -0.000539797)
(0.00824774 -0.00106851 -0.000645197)
(0.00797624 0.00485244 -0.000657778)
(0.00765485 0.0106125 -0.000549457)
(0.00728829 0.0162433 -0.000296785)
(0.00687736 0.021792 0.000112336)
(0.00641641 0.0273167 0.000671136)
(0.00589337 0.0328922 0.00134808)
(0.00529097 0.0386269 0.00208577)
(0.00458997 0.0446653 0.00280287)
(0.00377501 0.0510943 0.00339304)
(0.00284901 0.0576049 0.00372644)
(0.00190294 0.0628968 0.00368787)
(0.00107987 0.0647261 0.003243)
(0.000403093 0.0584949 0.00231801)
(1.67647e-05 0.0315304 0.000829996)
(3.6627e-05 -0.014793 0.000287682)
(0.00036443 -0.0370408 0.000667399)
(0.000860123 -0.0520618 0.000955735)
(0.00145556 -0.0612741 0.00115644)
(0.00206982 -0.0662035 0.00126966)
(0.00267085 -0.0684414 0.0013189)
(0.00326353 -0.0690193 0.00132683)
(0.00385054 -0.0684167 0.00130375)
(0.00442483 -0.0668325 0.00125318)
(0.00497818 -0.0643443 0.00117607)
(0.00550134 -0.0609783 0.0010721)
(0.00598257 -0.0567528 0.000940076)
(0.00640898 -0.0517147 0.000778686)
(0.00676854 -0.045958 0.00058722)
(0.00705155 -0.0396221 0.00036605)
(0.00725161 -0.0328784 0.000117361)
(0.00736555 -0.0259105 -0.000153575)
(0.00739386 -0.0188945 -0.00043671)
(0.00734061 -0.0119804 -0.0007159)
(0.00721361 -0.00528026 -0.000968491)
(0.00702501 0.00113734 -0.0011664)
(0.00678492 0.00725037 -0.00127862)
(0.00650277 0.0130828 -0.001274)
(0.00618816 0.0187014 -0.00112541)
(0.00584349 0.024205 -0.000814204)
(0.00546373 0.0297148 -0.000335862)
(0.00503659 0.0353722 0.000293107)
(0.00454247 0.0413397 0.0010291)
(0.00395973 0.0477707 0.00179507)
(0.00327179 0.0546667 0.00247415)
(0.00248107 0.0615082 0.00291558)
(0.00167795 0.0667583 0.00298707)
(0.000969803 0.0681875 0.00265381)
(0.000373524 0.0609724 0.00186629)
(2.35188e-05 0.0324585 0.00062746)
(3.14522e-05 -0.0160796 0.000252881)
(0.000312422 -0.0399971 0.00065717)
(0.000745882 -0.0560213 0.000985865)
(0.00127306 -0.0657386 0.00121601)
(0.00181972 -0.0708488 0.00134633)
(0.00235609 -0.0731133 0.00140556)
(0.00288652 -0.0736433 0.00142034)
(0.00341207 -0.0729336 0.0014036)
(0.00392487 -0.0711774 0.00136077)
(0.00441692 -0.0684396 0.00129428)
(0.00487977 -0.0647337 0.00120475)
(0.00530326 -0.0600729 0.00109144)
(0.00567693 -0.0545102 0.00095265)
(0.00599142 -0.0481552 0.000785918)
(0.00623916 -0.0411692 0.000588376)
(0.00641606 -0.0337455 0.000357632)
(0.00652056 -0.0260931 9.30452e-05)
(0.00655189 -0.0184147 -0.000202006)
(0.00651219 -0.010889 -0.000517475)
(0.00640651 -0.00365651 -0.000834625)
(0.00624306 0.00318657 -0.00112552)
(0.00603221 0.00959681 -0.00135516)
(0.00578501 0.0155952 -0.00148593)
(0.00551034 0.0212674 -0.00148259)
(0.00521183 0.0267534 -0.00131697)
(0.00488536 0.0322337 -0.000972943)
(0.00451852 0.0379188 -0.000452817)
(0.00409329 0.0440295 0.000213451)
(0.00358918 0.050737 0.000956142)
(0.00298798 0.0579794 0.00165608)
(0.00228836 0.0650757 0.00215252)
(0.00157388 0.070316 0.00230292)
(0.000929767 0.0714512 0.00207373)
(0.000370764 0.0634147 0.00143742)
(2.78115e-05 0.0334792 0.000455438)
(2.53803e-05 -0.0171801 0.000236671)
(0.000273262 -0.042575 0.000650886)
(0.000665196 -0.0595109 0.000995529)
(0.0011477 -0.0696996 0.00123862)
(0.00165001 -0.0749864 0.00137851)
(0.0021435 -0.0772815 0.00144504)
(0.00263212 -0.077768 0.00146562)
(0.00311597 -0.0769563 0.00145396)
(0.00358665 -0.0750351 0.00141617)
(0.00403617 -0.0720592 0.00135536)
(0.00445653 -0.0680331 0.00127284)
(0.00483872 -0.0629688 0.00116861)
(0.00517403 -0.056928 0.00104149)
(0.00545538 -0.0500357 0.000889262)
(0.00567769 -0.0424712 0.000708911)
(0.0058374 -0.0344471 0.000497261)
(0.00593293 -0.0261892 0.000252023)
(0.00596436 -0.0179195 -2.67116e-05)
(0.00593309 -0.00983944 -0.000334132)
(0.0058424 -0.00211347 -0.000657993)
(0.00569873 0.00513697 -0.00097653)
(0.00551107 0.0118498 -0.00125893)
(0.00528954 0.0180409 -0.00146871)
(0.00504283 0.0238079 -0.00156848)
(0.00477524 0.0293201 -0.00152441)
(0.00448431 0.0348038 -0.00131044)
(0.0041593 0.0405245 -0.000914901)
(0.00378215 0.0467549 -0.000351862)
(0.00333313 0.0536851 0.000322428)
(0.00279447 0.0612087 0.000995063)
(0.00216009 0.0685232 0.00150519)
(0.00150564 0.0737822 0.00170661)
(0.000902154 0.0746825 0.00156677)
(0.000365742 0.065901 0.00107547)
(2.80052e-05 0.0345655 0.000323185)
(2.26707e-05 -0.0182218 0.000263193)
(0.000254857 -0.0450864 0.000731003)
(0.000624408 -0.0629621 0.00110827)
(0.00107913 -0.0736551 0.00136592)
(0.00155088 -0.0791471 0.00151076)
(0.00201301 -0.0814957 0.00157907)
(0.00246986 -0.0819559 0.00160113)
(0.0029212 -0.0810563 0.00159207)
(0.00335855 -0.0789846 0.00155909)
(0.00377419 -0.0757898 0.00150614)
(0.00416066 -0.0714718 0.00143521)
(0.00450997 -0.066044 0.00134652)
(0.00481489 -0.0595765 0.00123848)
(0.00507006 -0.0522065 0.00110776)
(0.0052721 -0.0441251 0.000949683)
(0.00541904 -0.0355561 0.000758978)
(0.00550955 -0.0267365 0.000530988)
(0.0055427 -0.0179001 0.000263345)
(0.00551972 -0.00926275 -4.19197e-05)
(0.00544372 -0.00101422 -0.000375888)
(0.00531863 0.00669635 -0.000720125)
(0.00515123 0.0137824 -0.00104646)
(0.00495007 0.0202478 -0.00131998)
(0.00472314 0.026194 -0.00150353)
(0.00447508 0.0318114 -0.00156166)
(0.0042049 0.0373621 -0.00146352)
(0.00390431 0.0431574 -0.00118818)
(0.00355783 0.0495144 -0.000736289)
(0.00314576 0.0566472 -0.000149411)
(0.00264954 0.0644203 0.000471593)
(0.00206108 0.0719374 0.000972321)
(0.00144949 0.0772345 0.00120695)
(0.000875395 0.0779294 0.00114269)
(0.000356763 0.0684308 0.000781824)
(2.69021e-05 0.0356793 0.000223243)
(2.05792e-05 -0.0192038 0.000285225)
(0.000242156 -0.047452 0.000776447)
(0.000594857 -0.0661938 0.00115783)
(0.00102737 -0.077335 0.00141229)
(0.00147387 -0.0829988 0.00155395)
(0.00190954 -0.0853829 0.00162098)
(0.00233912 -0.085807 0.00164346)
(0.00276216 -0.0848144 0.0016366)
(0.00317025 -0.0825916 0.00160789)
(0.00355595 -0.0791823 0.00156184)
(0.00391231 -0.0745839 0.00150107)
(0.00423215 -0.0688144 0.00142637)
(0.00450943 -0.0619545 0.00133654)
(0.00474009 -0.054155 0.00122833)
(0.00492198 -0.0456189 0.00109677)
(0.00505416 -0.0365791 0.000935742)
(0.00513631 -0.027279 0.000739042)
(0.00516835 -0.0179586 0.000501749)
(0.00515053 -0.00884274 0.00022218)
(0.0050844 -0.000132999 -9.5373e-05)
(0.00497369 0.00800055 -0.000437571)
(0.00482369 0.0154508 -0.000780491)
(0.00464099 0.0222091 -0.00109169)
(0.00443205 0.0283762 -0.00133469)
(0.00420099 0.0341557 -0.00147307)
(0.00394738 0.0398351 -0.00147295)
(0.00366475 0.045759 -0.00130694)
(0.00334024 0.0522781 -0.000964876)
(0.00295611 0.0596239 -0.000474043)
(0.0024938 0.067637 7.9493e-05)
(0.00194407 0.0753405 0.000552776)
(0.00137173 0.0806652 0.000804089)
(0.000828835 0.0811464 0.000799726)
(0.000335166 0.070925 0.000549521)
(2.33754e-05 0.0367634 0.000148453)
(1.89478e-05 -0.0201839 0.000317669)
(0.000232957 -0.0498286 0.00084865)
(0.000572081 -0.0694462 0.00124593)
(0.000985842 -0.0810394 0.0015027)
(0.00141043 -0.086878 0.00164196)
(0.00182294 -0.0893016 0.00170672)
(0.00222867 -0.0896937 0.00172842)
(0.00262713 -0.0886132 0.00172276)
(0.00301004 -0.0862466 0.0016978)
(0.00337032 -0.0826349 0.00165856)
(0.00370148 -0.0777756 0.00160813)
(0.0039972 -0.0716921 0.00154745)
(0.00425246 -0.0644755 0.00147498)
(0.00446432 -0.0562872 0.00138671)
(0.00463154 -0.0473391 0.00127662)
(0.00475387 -0.0378697 0.00113747)
(0.00483144 -0.028126 0.000962008)
(0.00486442 -0.0183518 0.000744402)
(0.00485305 -0.00877806 0.000481812)
(0.00479786 0.000382293 0.000176549)
(0.00470083 0.00894206 -0.00016117)
(0.00456612 0.016776 -0.000511268)
(0.00439919 0.0238622 -0.000844948)
(0.00420512 0.0302985 -0.00112828)
(0.00398712 0.036297 -0.0013259)
(0.00374489 0.0421644 -0.00140323)
(0.00347322 0.0482712 -0.00132942)
(0.0031616 0.0549933 -0.0010866)
(0.00279504 0.0625729 -0.000689517)
(0.00235588 0.0708273 -0.000208717)
(0.00183556 0.0787045 0.000227294)
(0.00129669 0.0840409 0.000483602)
(0.000783052 0.0842949 0.000525589)
(0.000314478 0.0733456 0.000366897)
(2.11619e-05 0.0377977 9.22238e-05)
(1.8234e-05 -0.0211393 0.000341617)
(0.00022642 -0.0521211 0.000889434)
(0.00055339 -0.0725499 0.0012818)
(0.000949203 -0.0845411 0.00152696)
(0.00135226 -0.0905204 0.00165668)
(0.00174178 -0.0929656 0.0017159)
(0.00212366 -0.0933163 0.00173539)
(0.00249739 -0.092143 0.00173053)
(0.00285504 -0.089632 0.00170958)
(0.00318993 -0.0858219 0.0016781)
(0.00349615 -0.0807125 0.00163978)
(0.00376817 -0.0743351 0.00159606)
(0.00400195 -0.0667925 0.00154557)
(0.00419549 -0.0582578 0.00148398)
(0.00434831 -0.0489508 0.00140434)
(0.00446077 -0.0391136 0.00129789)
(0.0045334 -0.028994 0.00115535)
(0.00456656 -0.018835 0.000968532)
(0.00456043 -0.0088687 0.000732287)
(0.00451517 0.000686048 0.000446786)
(0.00443175 0.00962989 0.00012002)
(0.0043122 0.0178235 -0.000230447)
(0.00416069 0.025235 -0.000578162)
(0.00398159 0.0319585 -0.000891166)
(0.00377694 0.0382114 -0.00113521)
(0.0035461 0.0443137 -0.00127576)
(0.00328448 0.0506539 -0.00128023)
(0.00298335 0.0576238 -0.00112569)
(0.00263053 0.0654663 -0.000816988)
(0.00221147 0.0739683 -0.000410172)
(0.0017188 0.0820047 -1.83899e-05)
(0.00121259 0.0873285 0.000232706)
(0.000729904 0.0873353 0.000308282)
(0.000289998 0.0756559 0.000223329)
(1.83107e-05 0.038769 4.94957e-05)
(1.67886e-05 -0.0220913 0.000365711)
(0.000218142 -0.0544006 0.00093426)
(0.000532516 -0.0756288 0.00132754)
(0.000911286 -0.0880071 0.0015654)
(0.00129489 -0.0941216 0.00168752)
(0.00166424 -0.0965871 0.00174178)
(0.00202558 -0.0968977 0.001759)
(0.00237824 -0.0956354 0.00175452)
(0.00271451 -0.0929866 0.00173688)
(0.00302811 -0.0889902 0.00171205)
(0.00331367 -0.0836493 0.00168418)
(0.00356648 -0.0770034 0.00165495)
(0.00378345 -0.0691661 0.00162299)
(0.00396335 -0.0603196 0.00158361)
(0.00410636 -0.0506894 0.00152928)
(0.0042132 -0.0405196 0.00145037)
(0.0042846 -0.0300568 0.00133634)
(0.00432085 -0.0195422 0.00117743)
(0.00432182 -0.00920742 0.000966616)
(0.00428707 0.000724888 0.000702)
(0.00421669 0.0100452 0.000389428)
(0.00411182 0.0186012 4.41338e-05)
(0.00397465 0.0263511 -0.000309996)
(0.00380796 0.0333855 -0.000643052)
(0.0036136 0.0399252 -0.000922207)
(0.00339076 0.0463011 -0.00111355)
(0.00313532 0.0529153 -0.00118376)
(0.00283998 0.0601687 -0.00110656)
(0.00249513 0.0682973 -0.000879014)
(0.00208948 0.07705 -0.000544235)
(0.00161801 0.0852288 -0.000200058)
(0.00113934 0.0905159 3.8517e-05)
(0.000684208 0.0902594 0.000137281)
(0.000270017 0.0778551 0.00011108)
(1.67825e-05 0.0396813 1.74207e-05)
(1.65144e-05 -0.0230251 0.00038315)
(0.000213064 -0.0566155 0.000957764)
(0.000516633 -0.0785927 0.0013384)
(0.000879434 -0.0913163 0.00155931)
(0.0012441 -0.0975399 0.00166851)
(0.00159353 -0.100013 0.00171512)
(0.00193434 -0.100277 0.00172879)
(0.00226586 -0.0989227 0.00172432)
(0.0025807 -0.0961376 0.00171035)
(0.00287304 -0.0919611 0.00169335)
(0.0031381 -0.0864016 0.00167801)
(0.00337193 -0.0795086 0.00166648)
(0.00357225 -0.0714071 0.00165751)
(0.00373858 -0.0622886 0.00164615)
(0.00387165 -0.0523833 0.00162409)
(0.00397266 -0.0419349 0.00158036)
(0.00404255 -0.0311864 0.00150257)
(0.0040817 -0.0203733 0.00137864)
(0.00408971 -0.00972294 0.00119901)
(0.00406555 0.000542617 0.000959327)
(0.00400834 0.0102078 0.000663367)
(0.003918 0.0191098 0.00032481)
(0.00379549 0.0271973 -3.36572e-05)
(0.00364219 0.0345559 -0.000383181)
(0.00345896 0.0414083 -0.000691787)
(0.00324477 0.0480923 -0.000926176)
(0.00299586 0.055019 -0.00105298)
(0.0027061 0.0625919 -0.00104394)
(0.0023681 0.0710321 -0.00089026)
(0.00197377 0.0800438 -0.000624055)
(0.00152156 0.0883543 -0.00032879)
(0.00106873 0.0935878 -0.000108308)
(0.000639886 0.0930585 4.62188e-06)
(0.000250613 0.0799429 2.40202e-05)
(1.51062e-05 0.0405395 -6.56132e-06)
(1.51237e-05 -0.023946 0.0003976)
(0.000205142 -0.0587894 0.000975716)
(0.000497473 -0.0814897 0.0013446)
(0.000845392 -0.094539 0.00155049)
(0.00119331 -0.100862 0.00164809)
(0.00152562 -0.103338 0.00168759)
(0.0018491 -0.103555 0.00169768)
(0.00216292 -0.102113 0.00169266)
(0.00245991 -0.0991977 0.00168128)
(0.00273466 -0.0948521 0.00167035)
(0.00298293 -0.0890907 0.00166498)
(0.00320145 -0.0819727 0.00166776)
(0.00338865 -0.0736335 0.00167769)
(0.00354466 -0.0642723 0.00168998)
(0.00367071 -0.054123 0.00169622)
(0.00376833 -0.0434281 0.00168496)
(0.00383867 -0.0324256 0.00164274)
(0.00388208 -0.021344 0.00155561)
(0.00389789 -0.0104044 0.00141135)
(0.00388446 0.000173859 0.00120245)
(0.0038399 0.0101714 0.000929452)
(0.00376288 0.0194158 0.000603531)
(0.00365314 0.0278462 0.000245873)
(0.00351106 0.0355425 -0.000115354)
(0.0033368 0.0427276 -0.000448438)
(0.00312901 0.0497449 -0.000720186)
(0.00288429 0.0570113 -0.000897012)
(0.00259763 0.064928 -0.00094914)
(0.00226364 0.0736945 -0.000863147)
(0.00187718 0.0829641 -0.00066175)
(0.00144027 0.0913896 -0.000415315)
(0.00100915 0.0965509 -0.000216617)
(0.000602814 0.0957405 -9.65469e-05)
(0.000234878 0.0819287 -4.22309e-05)
(1.41012e-05 0.0413498 -2.36097e-05)
(1.48819e-05 -0.0248516 0.00040688)
(0.00020068 -0.0609121 0.000979155)
(0.000484167 -0.0842986 0.00132829)
(0.000818927 -0.0976432 0.00151354)
(0.00115122 -0.104046 0.00159641)
(0.0014672 -0.106517 0.00162718)
(0.00177398 -0.106684 0.00163285)
(0.00207065 -0.105152 0.001627)
(0.00235033 -0.10211 0.00161836)
(0.002608 -0.0976026 0.0016141)
(0.0028399 -0.0916529 0.00161979)
(0.00304335 -0.0843305 0.00163841)
(0.00321738 -0.0757815 0.00166927)
(0.0033627 -0.0662131 0.00170763)
(0.00348106 -0.0558617 0.00174486)
(0.00357441 -0.0449672 0.00176895)
(0.00364426 -0.0337603 0.00176533)
(0.00369111 -0.0224596 0.00171829)
(0.00371417 -0.011276 0.00161313)
(0.00371128 -0.00042194 0.00143921)
(0.00367959 0.00988368 0.00119367)
(0.00361648 0.0194609 0.0008848)
(0.00352027 0.0282385 0.000532012)
(0.00339015 0.0362885 0.000162815)
(0.0032255 0.043831 -0.000191028)
(0.00302474 0.051211 -0.000496041)
(0.00278474 0.0588476 -0.000718204)
(0.00250142 0.0671354 -0.000826394)
(0.00217121 0.0762472 -0.000803281)
(0.00179165 0.0857815 -0.00066346)
(0.00136802 0.0943167 -0.000465414)
(0.000955886 0.0993993 -0.000291276)
(0.000569578 0.0983088 -0.00017001)
(0.000220767 0.0838218 -9.01307e-05)
(1.31347e-05 0.0421187 -3.45625e-05)
(1.38295e-05 -0.0257384 0.000411998)
(0.000194129 -0.0629783 0.000973023)
(0.000468498 -0.0870176 0.00130076)
(0.000791241 -0.100633 0.00146572)
(0.00110998 -0.107103 0.00153447)
(0.00141212 -0.109563 0.00155673)
(0.00170488 -0.109677 0.00155776)
(0.00198721 -0.108057 0.00155034)
(0.00225246 -0.104892 0.00154315)
(0.00249595 -0.100232 0.00154357)
(0.00271434 -0.0941061 0.00155757)
(0.00290545 -0.0865954 0.00158858)
(0.0030688 -0.0778563 0.00163639)
(0.00320555 -0.0681032 0.00169677)
(0.00331785 -0.0575752 0.00176152)
(0.00340802 -0.0465096 0.00181869)
(0.00347787 -0.0351292 0.00185326)
(0.00352809 -0.0236416 0.00184817)
(0.00355782 -0.0122456 0.00178628)
(0.00356454 -0.00114343 0.00165343)
(0.00354452 0.00944946 0.0014426)
(0.00349395 0.0193481 0.00115821)
(0.00340981 0.0284715 0.000817062)
(0.00329017 0.0368828 0.000445635)
(0.00313369 0.0447971 7.58456e-05)
(0.00293854 0.0525589 -0.000258131)
(0.00270196 0.0605856 -0.000521379)
(0.0024209 0.0692609 -0.00068123)
(0.00209328 0.0787264 -0.000716783)
(0.00171882 0.0885217 -0.000635315)
(0.00130604 0.097153 -0.00048453)
(0.000910164 0.102145 -0.000336615)
(0.000541238 0.100773 -0.000218881)
(0.000208934 0.0856285 -0.000121478)
(1.24769e-05 0.0428493 -3.98182e-05)
(1.36469e-05 -0.0266129 0.00041308)
(0.000190531 -0.0650053 0.000957162)
(0.000458124 -0.0896703 0.00125962)
(0.000770773 -0.103533 0.0014019)
(0.00107739 -0.110057 0.00145528)
(0.00136681 -0.112498 0.00146838)
(0.00164652 -0.112558 0.00146442)
(0.00191541 -0.11085 0.00145529)
(0.00216708 -0.107566 0.00144954)
(0.00239718 -0.10276 0.00145471)
(0.00260268 -0.0964712 0.00147708)
(0.00278178 -0.0887901 0.00152045)
(0.00293446 -0.0798842 0.00158501)
(0.0030623 -0.0699753 0.00166692)
(0.00316786 -0.0593048 0.00175834)
(0.00325394 -0.0481064 0.00184759)
(0.00332277 -0.0365939 0.00191951)
(0.00337534 -0.0249615 0.00195626)
(0.00341093 -0.0133928 0.00193888)
(0.00342675 -0.00207605 0.00185011)
(0.0034183 0.00878167 0.00167871)
(0.00338055 0.0189929 0.00142464)
(0.00330901 0.0284664 0.00110127)
(0.00320051 0.0372543 0.000733326)
(0.00305283 0.0455632 0.000352544)
(0.00286384 0.0537328 -6.15394e-06)
(0.00263107 0.0621753 -0.000306696)
(0.00235235 0.07126 -0.000514635)
(0.00202724 0.0810934 -0.000605518)
(0.00165753 0.0911551 -0.000579917)
(0.00125412 0.0998813 -0.000475549)
(0.000871902 0.104784 -0.000355289)
(0.000517569 0.103136 -0.000245203)
(0.000199169 0.0873587 -0.000137511)
(1.20717e-05 0.0435473 -3.97631e-05)
(1.29891e-05 -0.0274666 0.000409909)
(0.00018594 -0.0669703 0.000931174)
(0.000446972 -0.0922249 0.00120592)
(0.00075065 -0.106308 0.00132516)
(0.00104683 -0.112869 0.00136335)
(0.00132544 -0.115285 0.00136727)
(0.00159414 -0.115286 0.00135793)
(0.00185174 -0.11349 0.0013463)
(0.00209207 -0.110091 0.00134069)
(0.002311 -0.105144 0.00134875)
(0.00250572 -0.0986986 0.00137703)
(0.00267478 -0.0908569 0.00142975)
(0.00281844 -0.081797 0.00150765)
(0.00293865 -0.0717484 0.00160755)
(0.00303833 -0.0609551 0.00172231)
(0.00312061 -0.0496481 0.00184089)
(0.0031881 -0.0380324 0.00194848)
(0.00324216 -0.0262883 0.00202695)
(0.00328225 -0.0145824 0.0020559)
(0.00330554 -0.00308547 0.00201518)
(0.00330696 0.0080079 0.00188916)
(0.00328045 0.0185118 0.00167266)
(0.00322019 0.0283268 0.00137471)
(0.00312175 0.0374931 0.00101744)
(0.00298202 0.0462068 0.000631941)
(0.00279854 0.0547991 0.000253832)
(0.00256908 0.0636734 -7.94171e-05)
(0.00229227 0.0731798 -0.000331297)
(0.00196901 0.0833864 -0.000473756)
(0.00160305 0.0937106 -0.000500963)
(0.0012079 0.102522 -0.00044142)
(0.000837829 0.107329 -0.000349467)
(0.000496378 0.105409 -0.000250438)
(0.000190332 0.0890154 -0.000139061)
(1.16733e-05 0.0442134 -3.46562e-05)
(1.29561e-05 -0.028312 0.000403871)
(0.000183505 -0.0689072 0.000899218)
(0.000439715 -0.0947302 0.001145)
(0.00073602 -0.109015 0.00124091)
(0.00102318 -0.115602 0.00126395)
(0.00129232 -0.117986 0.00125874)
(0.00155133 -0.117927 0.00124402)
(0.00179886 -0.116045 0.00122978)
(0.00202895 -0.112533 0.00122411)
(0.00223767 -0.107452 0.00123469)
(0.00242236 -0.100861 0.00126828)
(0.00258181 -0.0928724 0.00132941)
(0.00271663 -0.0836765 0.00141923)
(0.00282908 -0.07351 0.00153507)
(0.00292246 -0.0626196 0.00167044)
(0.00300032 -0.0512331 0.00181506)
(0.00306569 -0.0395461 0.00195486)
(0.00312034 -0.0277245 0.00207202)
(0.00316406 -0.0159156 0.00214559)
(0.00319407 -0.00426987 0.00215331)
(0.00320485 0.00703528 0.00207558)
(0.00318939 0.0178193 0.00190186)
(0.0031405 0.0279753 0.00163595)
(0.00305241 0.0375304 0.00129633)
(0.00292102 0.046667 0.000912599)
(0.00274346 0.0557041 0.000520686)
(0.00251767 0.0650319 0.000159466)
(0.00224309 0.0749783 -0.000132311)
(0.00192182 0.08557 -0.000322894)
(0.00155914 0.0961616 -0.000400243)
(0.00117063 0.105059 -0.000384151)
(0.000810208 0.109774 -0.000321077)
(0.000479087 0.107591 -0.000236195)
(0.000183162 0.0906055 -0.000127351)
(1.15037e-05 0.0448518 -2.50895e-05)
(1.26933e-05 -0.0291366 0.000394032)
(0.000180588 -0.0707812 0.000858108)
(0.000432252 -0.0971358 0.00107247)
(0.000722171 -0.111596 0.00114451)
(0.00100183 -0.118192 0.00115252)
(0.00126339 -0.120537 0.0011382)
(0.00151479 -0.120414 0.0011177)
(0.0017543 -0.118444 0.00110001)
(0.001976 -0.11482 0.00109302)
(0.00217618 -0.109607 0.00110447)
(0.00235238 -0.102871 0.00114133)
(0.0025036 -0.0947412 0.00120849)
(0.00263067 -0.0854166 0.00130756)
(0.00273611 -0.0751428 0.00143648)
(0.0028235 -0.06417 0.00158951)
(0.00289668 -0.0527235 0.00175725)
(0.00295911 -0.0409907 0.00192653)
(0.003013 -0.0291227 0.0020802)
(0.00305855 -0.0172467 0.00219727)
(0.00309325 -0.00549 0.00225407)
(0.00311144 0.0059919 0.00222756)
(0.00310537 0.0170288 0.00210183)
(0.00306665 0.0275096 0.00187483)
(0.00298817 0.0374489 0.00156044)
(0.00286475 0.0470132 0.00118585)
(0.00269297 0.0565061 0.000786764)
(0.00247087 0.0662997 0.000403322)
(0.00219858 0.0766955 7.66213e-05)
(0.00187929 0.0876761 -0.000157831)
(0.00151969 0.0985327 -0.000281967)
(0.00113722 0.107511 -0.000307331)
(0.000785346 0.112134 -0.00027314)
(0.000463283 0.10969 -0.000204921)
(0.000176409 0.0921304 -0.000104084)
(1.12826e-05 0.0454617 -1.16679e-05)
(1.27508e-05 -0.0299555 0.000382129)
(0.000178831 -0.0726332 0.000813411)
(0.00042703 -0.0995016 0.000996518)
(0.000711687 -0.114123 0.00104542)
(0.000985097 -0.120721 0.00103902)
(0.00124043 -0.123024 0.00101593)
(0.00148561 -0.122835 0.000989788)
(0.00171842 -0.120775 0.0009686)
(0.00193291 -0.11704 0.000960007)
(0.00212552 -0.111698 0.000971811)
(0.00229409 -0.104827 0.00101109)
(0.00243779 -0.0965644 0.00108295)
(0.00255763 -0.0871237 0.00118935)
(0.00265634 -0.0767577 0.00132876)
(0.00273777 -0.0657197 0.00149614)
(0.00280609 -0.0542331 0.00168299)
(0.00286514 -0.0424771 0.00187725)
(0.00291755 -0.0305883 0.00206284)
(0.00296402 -0.0186736 0.00221943)
(0.00300238 -0.00683517 0.00232284)
(0.00302697 0.00479724 0.00234747)
(0.00302951 0.0160684 0.00227249)
(0.0030005 0.0268656 0.00208963)
(0.00293148 0.0371916 0.00180724)
(0.00281608 0.0471954 0.001449)
(0.00265021 0.0571608 0.00104956)
(0.00243192 0.0674382 0.000649977)
(0.00216195 0.0782986 0.000293619)
(0.00184451 0.089678 1.97618e-05)
(0.0014875 0.100804 -0.000147654)