/*--------------------------------*- C++ -*----------------------------------*\
| =========                 |                                                 |
| \\      /  F ield         | OpenFOAM: The Open Source CFD Toolbox           |
|  \\    /   O peration     | Version:  v2012                                 |
|   \\  /    A nd           | Website:  www.openfoam.com                      |
|    \\/     M anipulation  |                                                 |
\*---------------------------------------------------------------------------*/
FoamFile
{
    version     2.0;
    format      ascii;
    class       surfaceScalarField;
    location    "600/bottomAir";
    object      phi;
}
// * * * * * * * * * * * * * * * * * * * * * * * * * * * * * * * * * * * * * //

dimensions      [1 0 -1 0 0 0 0];
oriented        oriented;


internalField   nonuniform List<scalar> 
3858
(
9.91692e-07
-1.078279e-06
8.646287e-08
1.697755e-06
-8.284356e-07
1.223743e-07
2.017717e-06
-4.438981e-07
1.239396e-07
2.046779e-06
-1.360667e-07
1.070064e-07
1.910256e-06
5.009937e-08
8.642499e-08
1.710504e-06
1.314108e-07
6.83398e-08
1.509536e-06
1.480445e-07
5.292228e-08
1.333658e-06
1.358011e-07
4.00744e-08
1.18666e-06
1.16678e-07
3.031896e-08
1.060178e-06
1.015168e-07
2.496283e-08
9.40493e-07
9.389024e-08
2.579548e-08
8.104801e-07
9.422018e-08
3.57971e-08
6.52741e-07
1.016786e-07
5.60715e-08
4.462141e-07
1.196244e-07
8.692218e-08
1.927153e-07
1.556722e-07
9.785143e-08
-9.667925e-08
2.001906e-07
8.92321e-08
-3.59141e-07
1.992243e-07
6.325726e-08
-5.699359e-07
1.630727e-07
4.773434e-08
-7.373276e-07
1.369634e-07
3.043137e-08
-8.824028e-07
1.223526e-07
2.272114e-08
-1.025047e-06
1.196257e-07
2.301338e-08
-1.181493e-06
1.268998e-07
2.954168e-08
-1.361774e-06
1.395111e-07
4.076521e-08
-1.563345e-06
1.460659e-07
5.550265e-08
-1.761081e-06
1.246201e-07
7.311535e-08
-1.894767e-06
4.022579e-08
9.346036e-08
-1.867244e-06
-1.430829e-07
1.155607e-07
-1.564053e-06
-4.354461e-07
1.322558e-07
-9.035141e-07
-7.899669e-07
1.294286e-07
-9.963155e-07
9.280132e-08
6.669031e-07
-1.7831e-06
3.791757e-08
1.154241e-06
-1.420061e-06
1.042884e-07
1.39333e-06
-8.16876e-07
1.338901e-07
1.458991e-06
-3.358745e-07
1.341487e-07
1.431908e-06
-4.319536e-08
1.203772e-07
1.365313e-06
9.158775e-08
1.064176e-07
1.289481e-06
1.259667e-07
9.790738e-08
1.205387e-06
1.246202e-07
9.527348e-08
1.101451e-06
1.216367e-07
9.897461e-08
9.662389e-07
1.274028e-07
1.093254e-07
7.941668e-07
1.412085e-07
1.247561e-07
5.868526e-07
1.592206e-07
1.423199e-07
3.601327e-07
1.767663e-07
1.516464e-07
1.356697e-07
1.947713e-07
1.493399e-07
-3.432667e-08
2.222562e-07
1.034418e-07
-1.593888e-07
2.480664e-07
7.721606e-08
-3.118763e-07
2.419302e-07
1.098039e-07
-4.940746e-07
2.140547e-07
1.312289e-07
-6.77153e-07
1.868366e-07
1.332115e-07
-8.399541e-07
1.614835e-07
1.236686e-07
-9.754254e-07
1.425776e-07
1.12516e-07
-1.085298e-06
1.323207e-07
1.04446e-07
-1.177357e-06
1.296286e-07
1.019371e-07
-1.259841e-06
1.231324e-07
1.054142e-07
-1.328901e-06
7.896495e-08
1.147143e-07
-1.356526e-06
-6.171013e-08
1.295612e-07
-1.294817e-06
-3.468981e-07
1.421069e-07
-1.06889e-06
-8.000596e-07
1.386874e-07
-6.127807e-07
-1.353011e-06
1.069347e-07
-1.65225e-06
4.315386e-08
1.251114e-07
-1.905669e-06
-2.542759e-09
9.013927e-08
-1.479123e-06
9.403409e-08
-1.392343e-08
-8.799081e-07
1.67096e-07
-1.009727e-07
-4.559232e-07
2.070985e-07
-1.285507e-07
-2.325817e-07
2.169643e-07
-1.125219e-07
-1.289264e-07
2.044828e-07
-1.08134e-07
-7.725146e-08
1.988285e-07
-1.420981e-07
-5.494569e-08
2.135258e-07
-2.108123e-07
-5.096978e-08
2.413195e-07
-2.958417e-07
-6.26541e-08
2.750846e-07
-3.728845e-07
-8.860927e-08
3.068638e-07
-4.186297e-07
-1.248394e-07
3.298115e-07
-4.052106e-07
-1.60505e-07
3.23866e-07
-3.25248e-07
-1.754341e-07
2.902639e-07
-1.793764e-07
-1.450572e-07
2.214685e-07
-7.119116e-09
-1.228089e-07
1.986484e-07
1.28059e-07
-1.445653e-07
2.513398e-07
1.984667e-07
-1.481927e-07
2.918556e-07
2.106134e-07
-1.280808e-07
3.027761e-07
1.871128e-07
-1.028694e-07
2.878538e-07
1.4806e-07
-8.201074e-08
2.636354e-07
1.145755e-07
-7.1266e-08
2.370646e-07
1.035705e-07
-7.421851e-08
2.148453e-07
1.183823e-07
-9.539742e-08
2.03714e-07
1.330753e-07
-1.458159e-07
2.10086e-07
1.014525e-07
-2.491235e-07
2.190365e-07
1.43792e-08
-4.648769e-07
2.050524e-07
-8.637005e-08
-8.623403e-07
1.630298e-07
-1.18124e-07
-1.410795e-06
8.953677e-08
-1.769706e-06
-6.68618e-10
-5.23526e-07
-1.319043e-06
-6.310025e-08
-1.102932e-06
-9.419305e-07
4.221384e-08
-1.524618e-06
-5.858556e-07
1.276338e-07
-1.770379e-06
-3.921906e-07
1.820292e-07
-1.906564e-06
-3.082906e-07
2.118921e-07
-1.982459e-06
-2.825106e-07
2.294785e-07
-2.01269e-06
-2.858716e-07
2.388494e-07
-1.999813e-06
-3.101043e-07
2.422802e-07
-1.939276e-06
-3.503274e-07
2.388191e-07
-1.823284e-06
-4.022733e-07
2.23627e-07
-1.64355e-06
-4.608854e-07
1.925429e-07
-1.392785e-06
-5.190099e-07
1.4341e-07
-1.064748e-06
-5.65966e-07
7.743308e-08
-6.719743e-07
-5.835944e-07
1.540378e-08
-1.776697e-07
-5.498877e-07
-8.945088e-08
3.39204e-07
-5.385084e-07
-1.011506e-07
7.653098e-07
-5.811382e-07
1.048624e-08
1.118106e-06
-5.708194e-07
6.984017e-08
1.390928e-06
-5.313002e-07
1.304021e-07
1.591351e-06
-4.776758e-07
1.74383e-07
1.727293e-06
-4.212269e-07
2.032726e-07
1.807318e-06
-3.698039e-07
2.18508e-07
1.838909e-06
-3.290506e-07
2.232389e-07
1.826051e-06
-3.035182e-07
2.209763e-07
1.765797e-06
-2.979876e-07
2.124241e-07
1.642325e-06
-3.212736e-07
1.956221e-07
1.410639e-06
-3.999403e-07
1.667493e-07
1.014226e-06
-5.799976e-07
1.140699e-07
4.766127e-07
-9.049612e-07
3.1779e-08
-1.228991e-06
-6.410327e-08
-1.129748e-06
-1.892951e-07
-1.920136e-06
-1.515427e-07
-2.372157e-06
-1.338339e-07
-2.621731e-06
-1.426175e-07
-2.758082e-06
-1.71939e-07
-2.823098e-06
-2.174965e-07
-2.829532e-06
-2.794376e-07
-2.780802e-06
-3.58836e-07
-2.673085e-06
-4.580455e-07
-2.496072e-06
-5.792871e-07
-2.233788e-06
-7.231677e-07
-1.867821e-06
-8.849751e-07
-1.389731e-06
-1.04405e-06
-8.432885e-07
-1.130028e-06
-1.654893e-07
-1.227676e-06
5.492956e-07
-1.253281e-06
1.128117e-06
-1.159952e-06
1.639649e-06
-1.082346e-06
2.028003e-06
-9.196532e-07
2.304411e-06
-7.54084e-07
2.490409e-06
-6.072275e-07
2.604118e-06
-4.835146e-07
2.657163e-06
-3.820977e-07
2.654216e-06
-3.00572e-07
2.592803e-06
-2.365749e-07
2.460616e-06
-1.89087e-07
2.218405e-06
-1.577296e-07
1.784813e-06
-1.464066e-07
1.040165e-06
-1.603131e-07
-1.888261e-07
1.060465e-06
-1.062861e-06
8.885825e-08
1.823125e-06
-7.489165e-07
1.086313e-07
2.212694e-06
-3.637227e-07
9.809393e-08
2.324328e-06
-8.158662e-08
7.695944e-08
2.270721e-06
8.160881e-08
5.842373e-08
2.144139e-06
1.487172e-07
4.620311e-08
1.99934e-06
1.582639e-07
3.94561e-08
1.861015e-06
1.403782e-07
3.801699e-08
1.735655e-06
1.123969e-07
4.327875e-08
1.618993e-06
8.266564e-08
5.895514e-08
1.499953e-06
5.351298e-08
9.132016e-08
1.357111e-06
2.582416e-08
1.528167e-07
1.155868e-06
2.086629e-09
2.552378e-07
8.34307e-07
5.302072e-09
4.032002e-07
3.445994e-07
6.661649e-08
5.209681e-07
-2.705876e-07
1.59674e-07
5.447731e-07
-7.440775e-07
1.275021e-07
4.092625e-07
-1.042133e-06
7.495817e-08
2.708403e-07
-1.241965e-06
6.869102e-08
1.615705e-07
-1.396067e-06
7.809861e-08
9.871908e-08
-1.534614e-06
9.53366e-08
6.621631e-08
-1.673695e-06
1.164744e-07
5.214135e-08
-1.82039e-06
1.376618e-07
4.97927e-08
-1.970044e-06
1.499429e-07
5.521169e-08
-2.099344e-06
1.357632e-07
6.665037e-08
-2.155645e-06
6.612557e-08
8.363598e-08
-2.051832e-06
-9.418579e-08
1.059342e-07
-1.68406e-06
-3.636911e-07
1.281753e-07
-9.696786e-07
-7.21778e-07
1.368249e-07
-9.884735e-07
1.115959e-07
6.898795e-07
-1.786168e-06
7.134469e-08
1.24618e-06
-1.323416e-06
1.224873e-07
1.581802e-06
-7.036059e-07
1.381519e-07
1.761213e-06
-2.566357e-07
1.297877e-07
1.833655e-06
1.569558e-08
1.138481e-07
1.84895e-06
1.328002e-07
1.070388e-07
1.842507e-06
1.550058e-07
1.076056e-07
1.815849e-06
1.465001e-07
1.158076e-07
1.758045e-06
1.35756e-07
1.33415e-07
1.653417e-06
1.337316e-07
1.628843e-07
1.485309e-06
1.41248e-07
2.051278e-07
1.236514e-06
1.555871e-07
2.613544e-07
9.025858e-07
1.712915e-07
3.16382e-07
4.790402e-07
2.093986e-07
3.688114e-07
1.016915e-08
3.019705e-07
3.369899e-07
-4.17769e-07
3.67522e-07
2.973354e-07
-7.741589e-07
2.871425e-07
3.065731e-07
-1.075769e-06
2.214163e-07
2.863905e-07
-1.313604e-06
1.919251e-07
2.478133e-07
-1.484667e-06
1.701768e-07
2.026489e-07
-1.599012e-06
1.560513e-07
1.661406e-07
-1.669195e-06
1.512152e-07
1.39881e-07
-1.708191e-06
1.54239e-07
1.243504e-07
-1.725422e-06
1.546109e-07
1.179738e-07
-1.718358e-06
1.240524e-07
1.193604e-07
-1.651091e-06
4.46931e-10
1.279721e-07
-1.478704e-06
-2.684633e-07
1.439983e-07
-1.160477e-06
-6.931343e-07
1.499032e-07
-6.386067e-07
-1.267608e-06
1.308945e-07
-1.662551e-06
7.862474e-08
6.309866e-08
-1.915597e-06
6.378664e-08
6.243034e-08
-1.378189e-06
1.494752e-07
6.326606e-08
-7.540722e-07
2.167274e-07
1.076231e-07
-3.473972e-07
2.535031e-07
2.056336e-07
-1.253734e-07
2.600222e-07
3.058521e-07
-1.580787e-08
2.528696e-07
3.510113e-07
4.341905e-08
2.652533e-07
3.451415e-07
6.883918e-08
2.970517e-07
2.939864e-07
8.309719e-08
3.451295e-07
2.037981e-07
9.208222e-08
4.069168e-07
8.127079e-08
9.523549e-08
4.754038e-07
-6.061658e-08
8.865805e-08
5.386326e-07
-1.714189e-07
8.015616e-08
5.258193e-07
-2.313087e-07
1.284464e-07
4.311305e-07
-2.230384e-07
2.766791e-07
2.385184e-07
-1.824535e-07
3.360222e-07
1.895936e-07
-1.602125e-07
1.789632e-07
3.373006e-07
-1.933264e-07
9.717112e-08
4.492294e-07
-2.59906e-07
8.52841e-08
4.759988e-07
-3.204411e-07
8.540718e-08
4.33155e-07
-3.627627e-07
8.227728e-08
3.797225e-07
-3.781027e-07
7.418417e-08
3.29428e-07
-3.587484e-07
6.031644e-08
2.894064e-07
-2.967598e-07
3.36379e-08
2.626939e-07
-1.9089e-07
-2.537043e-08
2.536367e-07
-9.949962e-08
-1.329167e-07
2.610098e-07
-6.301666e-08
-3.508199e-07
2.509262e-07
-6.468492e-08
-7.384763e-07
2.100398e-07
-6.48247e-08
-1.318545e-06
1.406128e-07
-1.786848e-06
5.880286e-08
-6.990049e-07
-1.320604e-06
4.091242e-08
-1.313601e-06
-8.511665e-07
1.297885e-07
-1.682603e-06
-4.7456e-07
2.171233e-07
-1.85296e-06
-2.757938e-07
2.807835e-07
-1.904818e-06
-1.820629e-07
3.204384e-07
-1.89517e-06
-1.406692e-07
3.446909e-07
-1.85346e-06
-1.204351e-07
3.609913e-07
-1.797803e-06
-1.146119e-07
3.700719e-07
-1.72617e-06
-1.1804e-07
3.683204e-07
-1.628274e-06
-1.244496e-07
3.422601e-07
-1.488873e-06
-1.271143e-07
2.754905e-07
-1.287278e-06
-1.18366e-07
1.488421e-07
-9.878504e-07
-8.827653e-08
-5.354932e-08
-6.346305e-07
2.768431e-10
-2.096264e-07
-2.28975e-07
2.101921e-07
-4.285943e-07
1.929073e-07
2.745736e-07
-4.61557e-07
5.973352e-07
3.962497e-08
-2.545813e-07
9.360482e-07
-7.218e-08
-9.951012e-08
1.177664e-06
-1.209689e-07
9.504283e-08
1.35362e-06
-1.376791e-07
2.2151e-07
1.485301e-06
-1.383685e-07
2.92233e-07
1.587237e-06
-1.332395e-07
3.239899e-07
1.668799e-06
-1.29986e-07
3.319754e-07
1.730549e-06
-1.347093e-07
3.275705e-07
1.755603e-06
-1.527797e-07
3.147775e-07
1.716984e-06
-1.916441e-07
2.92968e-07
1.559796e-06
-2.81505e-07
2.546223e-07
1.21312e-06
-4.70098e-07
1.923668e-07
6.391634e-07
-8.203222e-07
1.075123e-07
-1.237572e-06
2.578351e-08
-1.437307e-06
-7.259253e-08
-2.337947e-06
-1.020691e-07
-2.811352e-06
-1.349883e-07
-3.047983e-06
-1.817808e-07
-3.158604e-06
-2.433811e-07
-3.195238e-06
-3.215321e-07
-3.175905e-06
-4.192068e-07
-3.108678e-06
-5.406765e-07
-2.991641e-06
-6.931244e-07
-2.813434e-06
-8.819454e-07
-2.552072e-06
-1.111644e-06
-2.177021e-06
-1.378391e-06
-1.67033e-06
-1.639012e-06
-1.077429e-06
-1.722644e-06
-2.015823e-07
-1.893319e-06
7.528683e-07
-1.933148e-06
1.419224e-06
-1.786676e-06
1.969295e-06
-1.704593e-06
2.365522e-06
-1.436849e-06
2.63772e-06
-1.163961e-06
2.821303e-06
-9.291822e-07
2.94045e-06
-7.359034e-07
3.0078e-06
-5.79435e-07
3.026062e-06
-4.53545e-07
2.988531e-06
-3.518242e-07
2.878436e-06
-2.706367e-07
2.646269e-06
-2.070677e-07
2.188881e-06
-1.59117e-07
1.333758e-06
-1.255128e-07
-9.264002e-08
1.049649e-06
-9.823804e-07
2.158922e-08
1.808532e-06
-6.714827e-07
2.123042e-08
2.208523e-06
-3.107968e-07
8.899844e-09
2.344196e-06
-5.52448e-08
-3.469287e-09
2.32329e-06
8.829274e-08
-8.964439e-09
2.231752e-06
1.444101e-07
-6.670135e-09
2.120694e-06
1.485418e-07
1.968948e-09
2.01476e-06
1.267073e-07
1.723883e-08
1.923159e-06
9.319811e-08
4.167616e-08
1.846229e-06
5.410168e-08
8.177537e-08
1.778901e-06
9.939525e-09
1.48702e-07
1.697851e-06
-3.272043e-08
2.665871e-07
1.548882e-06
-4.761314e-08
4.518281e-07
1.184165e-06
8.121206e-08
6.867246e-07
4.452656e-07
3.433283e-07
9.165658e-07
-5.152927e-07
5.23669e-07
9.816876e-07
-1.110075e-06
2.597684e-07
7.442952e-07
-1.380977e-06
2.729766e-08
5.144486e-07
-1.52179e-06
-8.750306e-10
3.032543e-07
-1.62112e-06
2.381783e-08
1.742206e-07
-1.716257e-06
5.876609e-08
1.025748e-07
-1.81824e-06
9.189832e-08
6.221774e-08
-1.929737e-06
1.209485e-07
4.033333e-08
-2.04357e-06
1.395234e-07
2.951797e-08
-2.137063e-06
1.33622e-07
2.651953e-08
-2.162019e-06
7.841692e-08
3.01748e-08
-2.037372e-06
-5.917603e-08
4.046334e-08
-1.663205e-06
-3.008171e-07
5.482554e-08
-9.564809e-07
-6.350336e-07
6.513316e-08
-9.018033e-07
5.691779e-08
7.163309e-07
-1.694557e-06
6.718983e-08
1.307368e-06
-1.23091e-06
9.087673e-08
1.680868e-06
-6.394069e-07
9.326224e-08
1.89735e-06
-2.263989e-07
8.44594e-08
2.004927e-06
1.885914e-08
7.570439e-08
2.054029e-06
1.242109e-07
7.813358e-08
2.08122e-06
1.410309e-07
8.792284e-08
2.091952e-06
1.265135e-07
1.052653e-07
2.077734e-06
1.087107e-07
1.321139e-07
2.022276e-06
1.008786e-07
1.715597e-07
1.904844e-06
1.095579e-07
2.229359e-07
1.699325e-06
1.449411e-07
2.892129e-07
1.405091e-06
2.436394e-07
3.193738e-07
9.1254e-07
5.196746e-07
4.229215e-07
1.636248e-07
9.577246e-07
4.715359e-07
-6.266936e-07
1.140408e-06
4.709399e-07
-1.164155e-06
6.991911e-07
4.046291e-07
-1.492279e-06
3.187211e-07
3.230993e-07
-1.715837e-06
1.798687e-07
2.906251e-07
-1.848209e-06
1.31644e-07
2.271869e-07
-1.918439e-06
1.179629e-07
1.771638e-07
-1.946326e-06
1.210063e-07
1.386518e-07
-1.947366e-06
1.335315e-07
1.128011e-07
-1.929731e-06
1.428682e-07
9.699005e-08
-1.887993e-06
1.218383e-07
8.940475e-08
-1.78671e-06
1.574672e-08
8.935833e-08
-1.578775e-06
-2.223277e-07
9.921576e-08
-1.222424e-06
-6.137707e-07
1.06505e-07
-6.653245e-07
-1.162167e-06
1.009281e-07
-1.562465e-06
7.396142e-08
1.228845e-07
-1.8546e-06
1.009448e-07
2.004188e-07
-1.311374e-06
1.524052e-07
2.740664e-07
-6.937308e-07
1.974041e-07
3.754093e-07
-2.991807e-07
2.249418e-07
5.036903e-07
-8.198081e-08
2.325799e-07
6.185145e-07
2.511113e-08
2.371428e-07
6.891306e-07
7.427256e-08
2.613918e-07
7.189966e-07
9.295062e-08
3.007429e-07
7.091988e-07
1.078935e-07
3.557375e-07
6.59698e-07
1.305521e-07
4.267364e-07
5.66785e-07
1.762245e-07
5.016462e-07
4.267123e-07
2.69816e-07
5.538323e-07
3.194313e-07
4.782665e-07
3.98488e-07
1.639695e-07
8.341716e-07
2.72118e-07
-9.700318e-08
1.339198e-06
1.180444e-07
-3.734441e-07
1.504727e-06
1.0174e-07
-5.204633e-07
9.885104e-07
1.950209e-07
-6.035009e-07
5.320107e-07
3.18988e-07
-6.981043e-07
2.724696e-07
4.780017e-07
-7.474242e-07
1.648219e-07
4.492902e-07
-7.622687e-07
1.210131e-07
3.915066e-07
-7.468922e-07
1.021524e-07
3.328961e-07
-7.004517e-07
9.021227e-08
2.862773e-07
-6.209952e-07
7.346037e-08
2.526408e-07
-5.045315e-07
2.619193e-08
2.328167e-07
-3.788284e-07
-7.858153e-08
2.296343e-07
-2.793076e-07
-2.904774e-07
2.195548e-07
-2.048664e-07
-6.6656e-07
1.883876e-07
-1.252692e-07
-1.242175e-06
1.410227e-07
-1.72005e-06
9.111801e-08
-6.140657e-07
-1.312541e-06
1.129199e-07
-1.14418e-06
-8.174175e-07
1.65947e-07
-1.435832e-06
-4.18065e-07
2.3311e-07
-1.539573e-06
-2.028942e-07
2.88238e-07
-1.529417e-06
-9.395818e-08
3.22259e-07
-1.466862e-06
-3.554942e-08
3.427945e-07
-1.394523e-06
3.06086e-09
3.598602e-07
-1.329763e-06
2.892808e-08
3.693304e-07
-1.266411e-06
5.07243e-08
3.621321e-07
-1.195736e-06
8.317031e-08
3.189613e-07
-1.101841e-06
1.470829e-07
2.107336e-07
-9.61946e-07
2.693312e-07
9.434734e-09
-6.962077e-07
4.879449e-07
-3.28953e-07
-4.27057e-07
7.639237e-07
-4.08511e-07
-1.470393e-07
1.213088e-06
-5.824809e-07
1.24293e-07
1.370462e-06
-5.986027e-07
4.297297e-07
8.96392e-07
-4.678804e-07
7.010567e-07
5.501398e-07
-3.889552e-07
8.474046e-07
2.870492e-07
-6.58827e-08
9.570123e-07
1.428838e-07
1.338347e-07
1.046293e-06
7.31973e-08
2.507606e-07
1.12864e-06
3.931782e-08
3.044696e-07
1.212891e-06
1.690119e-08
3.210296e-07
1.303856e-06
-8.447338e-09
3.185093e-07
1.382212e-06
-4.506961e-08
3.076815e-07
1.405964e-06
-1.006821e-07
2.913155e-07
1.316518e-06
-2.05244e-07
2.588341e-07
1.047673e-06
-4.100793e-07
2.047313e-07
5.570964e-07
-7.832753e-07
1.391883e-07
-1.22795e-06
9.078009e-08
-1.421777e-06
3.664336e-08
-2.318611e-06
-2.265182e-08
-2.791495e-06
-8.016995e-08
-3.035083e-06
-1.410863e-07
-3.161634e-06
-2.107895e-07
-3.225131e-06
-2.935849e-07
-3.245679e-06
-3.955999e-07
-3.234333e-06
-5.230959e-07
-3.191798e-06
-6.849379e-07
-3.100315e-06
-8.902599e-07
-2.916725e-06
-1.148152e-06
-2.570552e-06
-1.455229e-06
-1.992277e-06
-1.729337e-06
-1.352323e-06
-1.598665e-06
-2.47011e-07
-1.78553e-06
1.013924e-06
-1.823611e-06
1.801081e-06
-1.677432e-06
2.440088e-06
-1.793457e-06
2.807385e-06
-1.517096e-06
2.993804e-06
-1.207498e-06
3.082312e-06
-9.444962e-07
3.119285e-06
-7.335606e-07
3.122782e-06
-5.66033e-07
3.093256e-06
-4.324682e-07
3.02189e-06
-3.255288e-07
2.889996e-06
-2.394244e-07
2.646018e-06
-1.683345e-07
2.184556e-06
-1.077339e-07
1.327959e-06
-5.219131e-08
7.368491e-09
1.043833e-06
-1.000611e-06
-2.163392e-08
1.805802e-06
-7.119182e-07
-2.882102e-08
2.217e-06
-3.662121e-07
-3.608688e-08
2.370947e-06
-1.179492e-07
-3.946828e-08
2.370159e-06
2.877967e-08
-3.695749e-08
2.298586e-06
9.4146e-08
-2.924586e-08
2.210837e-06
1.079975e-07
-1.828349e-08
2.138187e-06
9.386276e-08
-3.980007e-09
2.101226e-06
6.343656e-08
1.519351e-08
2.1185e-06
2.0623e-08
4.386842e-08
2.210444e-06
-3.256236e-08
8.93143e-08
2.349245e-06
-4.955981e-08
1.773446e-07
2.319139e-06
1.921145e-07
2.898266e-07
1.788527e-06
1.217354e-06
4.816691e-07
2.22344e-06
-1.101653e-06
2.56503e-06
-1.896376e-06
1.539026e-06
-2.058265e-06
2.867043e-07
3.896392e-07
-1.970926e-06
-2.594648e-08
2.418558e-07
-1.900408e-06
-2.60706e-08
1.297611e-07
-1.8934e-06
2.293033e-08
7.262441e-08
-1.934559e-06
6.420715e-08
3.915801e-08
-2.007702e-06
9.417544e-08
1.929379e-08
-2.094287e-06
1.093166e-07
6.781229e-09
-2.1656e-06
9.872392e-08
-8.928042e-10
-2.171134e-06
4.043418e-08
-4.726403e-09
-2.031717e-06
-9.475767e-08
-4.196623e-09
-1.650924e-06
-3.263753e-07
4.078856e-10
-9.462008e-07
-6.458058e-07
6.214129e-09
-8.964917e-07
7.207754e-09
7.354364e-07
-1.704507e-06
3.564899e-08
1.337542e-06
-1.266917e-06
4.377049e-08
1.718396e-06
-6.957974e-07
4.199282e-08
1.943481e-06
-2.952561e-07
3.668042e-08
2.070728e-06
-5.686144e-08
3.409688e-08
2.147456e-06
5.67094e-08
3.883973e-08
2.205407e-06
9.050893e-08
4.745719e-08
2.256716e-06
8.882169e-08
5.899157e-08
2.299574e-06
7.879041e-08
7.389506e-08
2.322699e-06
7.739229e-08
9.165815e-08
2.307151e-06
1.050531e-07
1.008642e-07
2.196519e-06
2.44018e-07
1.062675e-07
1.886785e-06
8.191551e-07
2.07607e-09
1.265998e-06
2.261076e-06
2.974871e-07
3.663501e-06
-7.514437e-07
4.084914e-06
-1.506404e-06
2.698625e-06
-1.927045e-06
9.500346e-07
8.041617e-08
-2.102038e-06
2.896076e-07
1.500621e-07
-2.152741e-06
1.270106e-07
1.248e-07
-2.152586e-06
9.362275e-08
1.063057e-07
-2.126264e-06
9.230419e-08
8.422369e-08
-2.087234e-06
1.004653e-07
6.747416e-08
-2.038438e-06
1.018332e-07
5.567383e-08
-1.96915e-06
7.043905e-08
4.839973e-08
-1.846787e-06
-3.748003e-08
4.490861e-08
-1.626289e-06
-2.636371e-07
4.759729e-08
-1.258058e-06
-6.397881e-07
5.16856e-08
-6.859635e-07
-1.168147e-06
5.117357e-08
-1.549134e-06
4.063949e-08
1.872584e-07
-1.863303e-06
7.248312e-08
3.16181e-07
-1.340315e-06
9.68806e-08
4.226949e-07
-7.237433e-07
1.188357e-07
5.404516e-07
-3.220134e-07
1.339417e-07
6.747611e-07
-9.825352e-08
1.396605e-07
8.056865e-07
1.514652e-08
1.477771e-07
9.177576e-07
7.108012e-08
1.687447e-07
1.010746e-06
9.912684e-08
1.974427e-07
1.083051e-06
1.278198e-07
2.343953e-07
1.125999e-06
1.822512e-07
2.789227e-07
1.109314e-06
3.169241e-07
3.064559e-07
9.737529e-07
6.498767e-07
2.835384e-07
7.631331e-07
1.462763e-06
-3.448936e-08
5.222773e-07
2.774063e-06
1.313894e-07
4.172447e-06
-2.896918e-07
4.607749e-06
-6.080783e-07
3.212044e-06
-9.263377e-07
1.594181e-06
-6.89027e-09
-1.121188e-06
6.954098e-07
2.670512e-07
-1.153806e-06
3.268273e-07
2.82084e-07
-1.111727e-06
1.839978e-07
2.59043e-07
-1.037369e-06
1.303894e-07
2.204423e-07
-9.432867e-07
1.044342e-07
1.882185e-07
-8.314161e-07
7.930164e-08
1.632965e-07
-7.009373e-07
2.734574e-08
1.454289e-07
-5.647931e-07
-8.126897e-08
1.372783e-07
-4.413217e-07
-2.969484e-07
1.293944e-07
-3.269602e-07
-6.774457e-07
1.116832e-07
-1.907829e-07
-1.251231e-06
8.792922e-08
-1.713235e-06
6.443596e-08
-5.059491e-07
-1.33856e-06
9.412582e-08
-9.576581e-07
-8.431264e-07
1.204675e-07
-1.187535e-06
-4.206246e-07
1.598681e-07
-1.23876e-06
-1.780332e-07
1.954826e-07
-1.188197e-06
-4.349924e-08
2.169403e-07
-1.093008e-06
3.355612e-08
2.291929e-07
-9.883298e-07
8.349891e-08
2.427594e-07
-8.970423e-07
1.245639e-07
2.526e-07
-8.30285e-07
1.735822e-07
2.496056e-07
-8.031451e-07
2.570008e-07
2.170653e-07
-8.232953e-07
4.257409e-07
1.220646e-07
-8.655876e-07
7.437875e-07
-4.21768e-08
-6.944321e-07
1.357721e-06
-3.950557e-07
-4.447552e-07
2.115888e-06
-2.980947e-08
3.175035e-06
4.280684e-07
3.551282e-06
7.299748e-07
2.442269e-06
8.462176e-07
1.471776e-06
-3.827849e-07
7.526925e-07
7.922211e-07
-6.916673e-08
6.94806e-07
4.404613e-07
7.808154e-08
6.993679e-07
2.592877e-07
1.708997e-07
7.541864e-07
1.715814e-07
2.084494e-07
8.407831e-07
1.212979e-07
2.17562e-07
9.452079e-07
7.985561e-08
2.135257e-07
1.04663e-06
2.957322e-08
2.040296e-07
1.108536e-06
-4.590521e-08
1.940449e-07
1.071593e-06
-1.749197e-07
1.737483e-07
8.653809e-07
-4.051117e-07
1.386089e-07
4.531097e-07
-7.999184e-07
1.001471e-07
-1.246273e-06
7.692819e-08
-1.366331e-06
6.44146e-08
-2.251325e-06
1.921586e-08
-2.727523e-06
-2.45962e-08
-2.978592e-06
-6.805042e-08
-3.117131e-06
-1.157503e-07
-3.205957e-06
-1.712043e-07
-3.278351e-06
-2.397082e-07
-3.350171e-06
-3.267151e-07
-3.422763e-06
-4.387651e-07
-3.471808e-06
-5.842168e-07
-3.413758e-06
-7.804595e-07
-3.08967e-06
-1.035528e-06
-2.221199e-06
-1.24008e-06
-1.703967e-06
-3.144527e-07
1.413228e-06
2.178068e-06
3.089313e-06
-1.232922e-06
3.415925e-06
-1.051486e-06
3.456874e-06
-8.079884e-07
3.386135e-06
-6.144721e-07
3.292084e-06
-4.679305e-07
3.20061e-06
-3.532637e-07
3.11102e-06
-2.630237e-07
3.006842e-06
-1.917789e-07
2.856013e-06
-1.345002e-07
2.599249e-06
-8.649028e-08
2.130562e-06
-4.415924e-08
1.281058e-06
-2.605139e-09
4.215302e-08
1.034039e-06
-1.060869e-06
5.19573e-09
1.800343e-06
-8.010139e-07
5.887727e-09
2.221225e-06
-4.629686e-07
5.998931e-09
2.387648e-06
-2.116051e-07
5.712261e-09
2.398778e-06
-5.323139e-08
5.141193e-09
2.336184e-06
2.889663e-08
4.447817e-09
2.256541e-06
5.756102e-08
3.794121e-09
2.196135e-06
5.318463e-08
3.235206e-09
2.183312e-06
2.519936e-08
2.810547e-09
2.246762e-06
-2.211057e-08
2.52168e-09
2.390806e-06
-5.717195e-08
2.438698e-09
2.270195e-06
2.952277e-07
2.724456e-09
2.556984e-06
3.036459e-09
-2.170018e-06
2.548462e-06
1.119956e-08
-2.253773e-06
3.139857e-07
1.161972e-08
-2.084552e-06
-5.039069e-08
1.092118e-08
-2.003592e-06
-1.908838e-08
1.074061e-08
-2.004235e-06
2.895066e-08
1.084031e-08
-2.055253e-06
5.917874e-08
1.112573e-08
-2.127634e-06
6.765464e-08
1.150297e-08
-2.187162e-06
4.674668e-08
1.188682e-08
-2.180437e-06
-2.3546e-08
1.20932e-08
-2.029167e-06
-1.673221e-07
1.185458e-08
-1.640828e-06
-3.990782e-07
1.114657e-08
-9.348598e-07
-7.097519e-07
9.995885e-09
-9.358668e-07
8.213597e-09
7.285383e-07
-1.754888e-06
1.128875e-09
1.323869e-06
-1.353626e-06
1.051679e-09
1.697396e-06
-7.957996e-07
1.296465e-09
1.916726e-06
-3.957128e-07
1.456755e-09
2.050866e-06
-1.546224e-07
1.345199e-09
2.145381e-06
-2.789372e-08
1.112173e-09
2.221544e-06
2.788491e-08
9.657286e-10
2.28726e-06
4.550221e-08
9.523688e-10
2.333871e-06
5.148307e-08
9.943771e-10
2.327068e-06
7.524425e-08
1.102191e-09
2.161083e-06
2.083631e-07
1.312489e-09
1.578187e-06
9.825277e-07
1.862828e-09
4.134831e-06
2.415326e-09
-1.510415e-06
4.132374e-06
6.923938e-09
-2.065035e-06
1.01341e-06
5.25665e-09
-2.223293e-06
2.282109e-07
4.448464e-09
-2.232162e-06
9.155409e-08
4.523417e-09
-2.191495e-06
6.78505e-08
4.647789e-09
-2.132848e-06
6.33261e-08
4.67399e-09
-2.063595e-06
4.951928e-08
4.551548e-09
-1.972333e-06
-3.851794e-10
4.267941e-09
-1.836816e-06
-1.179157e-07
3.760907e-09
-1.617401e-06
-3.420968e-07
2.956165e-09
-1.252236e-06
-7.143899e-07
1.830792e-09
-6.829637e-07
-1.22871e-06
8.581937e-10
-1.579051e-06
8.593192e-10
2.138092e-07
-1.894987e-06
-1.22766e-09
3.623939e-07
-1.403288e-06
-2.042546e-09
4.785748e-07
-7.910958e-07
-2.049731e-09
5.994969e-07
-3.808025e-07
-1.891997e-09
7.342194e-07
-1.477784e-07
-1.908657e-09
8.742323e-07
-1.804227e-08
-2.091313e-09
1.01765e-06
5.539663e-08
-2.190038e-09
1.160484e-06
1.022121e-07
-2.106924e-09
1.291596e-06
1.567236e-07
-1.962287e-09
1.3768e-06
2.706824e-07
-1.724201e-09
1.271181e-06
6.216018e-07
-1.163471e-09
8.102305e-07
1.726688e-06
3.320795e-10
4.908704e-06
1.869085e-09
-7.899055e-07
4.911928e-06
3.467056e-09
-1.265405e-06
1.756332e-06
-3.709667e-10
-1.394781e-06
6.424794e-07
-2.81294e-09
-1.324569e-06
2.835825e-07
-3.205729e-09
-1.203173e-06
1.700335e-07
-3.146056e-09
-1.066782e-06
1.181684e-07
-3.023188e-09
-9.256392e-07
7.460803e-08
-2.940032e-09
-7.839695e-07
6.298765e-09
-2.927232e-09
-6.422962e-07
-1.190432e-07
-3.268613e-09
-5.099805e-07
-3.409299e-07
-4.088821e-09
-3.804941e-07
-7.272803e-07
-4.913251e-09
-2.201452e-07
-1.295866e-06
-5.263465e-09
-1.730917e-06
-3.843734e-09
-4.329325e-07
-1.365164e-06
-2.764528e-09
-8.310576e-07
-8.805538e-07
-4.141763e-09
-1.013852e-06
-4.434723e-07
-4.961518e-09
-1.017627e-06
-1.760055e-07
-5.540628e-09
-9.290865e-07
-1.36682e-08
-5.712133e-09
-7.964122e-07
8.383997e-08
-5.367168e-09
-6.401934e-07
1.468322e-07
-4.90021e-09
-4.916466e-07
2.105781e-07
-4.318632e-09
-3.812986e-07
2.993791e-07
-3.402936e-09
-3.600857e-07
4.686848e-07
-2.152946e-09
-4.78721e-07
8.630169e-07
-7.107598e-10
-5.506335e-07
1.755849e-06
5.785874e-10
3.961767e-06
1.249736e-09
5.647338e-07
3.963515e-06
9.010148e-10
4.779071e-07
1.775579e-06
-1.583233e-09
3.226862e-07
8.792982e-07
-3.519976e-09
3.054768e-07
4.76467e-07
-4.785221e-09
3.872815e-07
3.022945e-07
-5.62695e-09
5.17786e-07
2.113457e-07
-6.127879e-09
6.661982e-07
1.461056e-07
-6.389456e-09
7.997294e-07
8.328126e-08
-6.486417e-09
8.935531e-07
-1.214794e-08
-6.674781e-09
9.014332e-07
-1.678351e-07
-7.226626e-09
7.413568e-07
-4.208456e-07
-7.748856e-09
3.823384e-07
-8.287053e-07
-7.995712e-09
-1.265158e-06
-6.492475e-09
-1.297203e-06
-3.546086e-09
-2.154493e-06
-4.047619e-09
-2.618628e-06
-3.93368e-09
-2.858994e-06
-3.690961e-09
-2.985038e-06
-3.374841e-09
-3.069322e-06
-3.081981e-09
-3.15951e-06
-2.689412e-09
-3.27342e-06
-2.229425e-09
-3.411082e-06
-1.725548e-09
-3.525414e-06
-1.199205e-09
-3.442179e-06
-6.769056e-10
-2.721623e-06
-2.31736e-10
6.419603e-11
2.73474e-06
-4.141409e-09
3.463243e-06
-4.409822e-09
3.53888e-06
-4.328242e-09
3.405126e-06
-4.253705e-09
3.243694e-06
-4.207244e-09
3.105963e-06
-4.188612e-09
2.993256e-06
-4.213157e-09
2.889112e-06
-4.353517e-09
2.747223e-06
-4.760161e-09
2.498313e-06
-5.414976e-09
2.039637e-06
-6.328685e-09
1.215712e-06
-7.384863e-09
-7.293096e-09
1.033958e-06
-1.056531e-06
2.776796e-08
1.799664e-06
-7.961205e-07
3.630119e-08
2.219832e-06
-4.584245e-07
4.425385e-08
2.385612e-06
-2.077905e-07
4.7721e-08
2.396382e-06
-5.040349e-08
4.477241e-08
2.333817e-06
3.058982e-08
3.641868e-08
2.254479e-06
5.833322e-08
2.479406e-08
2.194516e-06
5.327771e-08
9.914671e-09
2.182275e-06
2.472175e-08
-9.67741e-09
2.246495e-06
-2.312995e-08
-3.857415e-08
2.39164e-06
-5.869256e-08
-8.401985e-08
2.271879e-06
2.941848e-07
-1.717022e-07
2.558667e-06
-2.837523e-07
-2.174085e-06
2.560937e-06
-3.756507e-07
-2.256558e-06
3.198817e-07
-2.257941e-07
-2.084845e-06
-4.776816e-08
-1.130335e-07
-2.001901e-06
-1.715415e-08
-5.506156e-08
-2.00111e-06
3.066271e-08
-2.062225e-08
-2.051146e-06
6.08672e-08
2.866309e-10
-2.123068e-06
6.953139e-08
1.389029e-08
-2.182675e-06
4.895478e-08
2.253602e-08
-2.176534e-06
-2.095456e-08
2.690621e-08
-2.026231e-06
-1.644917e-07
2.604317e-08
-1.638987e-06
-3.961417e-07
2.004321e-08
-9.341505e-07
-7.067849e-07
1.194249e-08
-9.333155e-07
7.377631e-09
7.300004e-07
-1.750432e-06
-3.497132e-08
1.326425e-06
-1.348267e-06
-4.322764e-08
1.70062e-06
-7.904868e-07
-4.083729e-08
1.920208e-06
-3.910051e-07
-3.491813e-08
2.054309e-06
-1.510569e-07
-3.210566e-08
2.14852e-06
-2.56755e-08
-3.683714e-08
2.224206e-06
2.891326e-08
-4.530376e-08
2.289539e-06
4.557016e-08
-5.667835e-08
2.335785e-06
5.083911e-08
-7.137452e-08
2.328584e-06
7.402271e-08
-8.885423e-08
2.162077e-06
2.067318e-07
-9.76081e-08
1.578697e-06
9.81645e-07
-1.022183e-07
4.136726e-06
3.053319e-09
-1.508899e-06
4.146938e-06
-7.017539e-08
-2.062883e-06
1.021136e-06
-1.42016e-07
-2.221191e-06
2.324929e-07
-1.175122e-07
-2.230024e-06
9.503322e-08
-9.88404e-08
-2.189236e-06
7.098379e-08
-7.646874e-08
-2.130518e-06
6.637189e-08
-5.955503e-08
-2.061373e-06
5.276357e-08
-4.783051e-08
-1.970529e-06
3.325137e-09
-4.094845e-08
-1.835469e-06
-1.140963e-07
-3.815811e-08
-1.616249e-06
-3.385553e-07
-4.219982e-08
-1.25145e-06
-7.10941e-07
-4.817046e-08
-6.826658e-07
-1.2253e-06
-4.941126e-08
-1.576182e-06
-3.894037e-08
2.155755e-07
-1.892018e-06
-7.521769e-08
3.658962e-07
-1.399494e-06
-1.011367e-07
4.833897e-07
-7.868428e-07
-1.231882e-07
6.049428e-07
-3.766386e-07
-1.378133e-07
7.395877e-07
-1.443443e-07
-1.432694e-07
8.787381e-07
-1.551805e-08
-1.514032e-07
1.020781e-06
5.690135e-08
-1.722264e-07
1.162077e-06
1.029476e-07
-2.007859e-07
1.291686e-06
1.569214e-07
-2.376591e-07
1.375609e-06
2.704668e-07
-2.820951e-07
1.26918e-06
6.211865e-07
-3.091893e-07
8.08729e-07
1.726879e-06
-2.844499e-07
4.910536e-06
3.678957e-08
-7.882125e-07
4.925663e-06