/*--------------------------------*- C++ -*----------------------------------*\
| =========                 |                                                 |
| \\      /  F ield         | OpenFOAM: The Open Source CFD Toolbox           |
|  \\    /   O peration     | Version:  v2012                                 |
|   \\  /    A nd           | Website:  www.openfoam.com                      |
|    \\/     M anipulation  |                                                 |
\*---------------------------------------------------------------------------*/
FoamFile
{
    version     2.0;
    format      ascii;
    class       volScalarField;
    location    "600/bottomAir";
    object      rho;
}
// * * * * * * * * * * * * * * * * * * * * * * * * * * * * * * * * * * * * * //

dimensions      [1 -3 0 0 0 0 0];


internalField   nonuniform List<scalar> 
1460
(
1.168168
1.167572
1.167122
1.166925
1.166854
1.166784
1.166713
1.166629
1.166519
1.16637
1.166169
1.165899
1.165536
1.165054
1.164452
1.163881
1.163787
1.164041
1.164325
1.164562
1.164744
1.16488
1.164981
1.165058
1.165124
1.16519
1.165267
1.165483
1.165937
1.166544
1.168241
1.166575
1.16519
1.164519
1.164471
1.164575
1.164635
1.1646
1.164454
1.164202
1.163851
1.163418
1.162926
1.162433
1.162035
1.161836
1.161872
1.162074
1.162361
1.162659
1.162922
1.163122
1.163237
1.163257
1.163192
1.163089
1.16318
1.16384
1.165113
1.166603
1.168426
1.165478
1.162622
1.1608
1.160103
1.160098
1.159979
1.159564
1.158929
1.158171
1.15739
1.156688
1.156182
1.155989
1.156152
1.15632
1.156209
1.156248
1.156547
1.157022
1.157593
1.158179
1.158694
1.159041
1.159157
1.159253
1.159972
1.161662
1.1642
1.166757
1.168808
1.164982
1.161438
1.158875
1.156987
1.155433
1.154016
1.15268
1.151427
1.150281
1.149278
1.148463
1.147887
1.147602
1.147625
1.147682
1.147631
1.1479
1.148452
1.149233
1.150191
1.151283
1.152475
1.15374
1.155076
1.156536
1.158291
1.160627
1.163773
1.167085
1.17093
1.168054
1.165367
1.162924
1.160576
1.158263
1.155981
1.153753
1.151618
1.149623
1.147825
1.146298
1.145131
1.144424
1.144059
1.144035
1.144349
1.144966
1.146055
1.147493
1.149185
1.151061
1.153066
1.155152
1.157283
1.159434
1.161609
1.16386
1.166311
1.168879
1.167468
1.167021
1.166761
1.166703
1.166705
1.166706
1.166705
1.166695
1.166668
1.166613
1.166518
1.166358
1.166085
1.165612
1.164889
1.164121
1.164185
1.164557
1.164807
1.164955
1.165043
1.165092
1.165115
1.165121
1.165118
1.165113
1.16511
1.165185
1.165457
1.165921
1.167289
1.16581
1.164805
1.164449
1.164565
1.164718
1.164832
1.164872
1.164825
1.164687
1.164455
1.164121
1.163672
1.163109
1.162536
1.162229
1.162433
1.162743
1.163025
1.163254
1.163422
1.163521
1.163547
1.163497
1.163381
1.163234
1.163138
1.163492
1.164419
1.165744
1.167262
1.164431
1.162094
1.160856
1.160552
1.160858
1.160869
1.160591
1.160125
1.159555
1.158962
1.158427
1.158083
1.158028
1.158203
1.15831
1.158166
1.1581
1.15825
1.158557
1.158952
1.159364
1.159716
1.159921
1.159873
1.159623
1.159985
1.161147
1.163231
1.165697
1.16745
1.163654
1.160482
1.158295
1.156728
1.155481
1.154391
1.15333
1.152322
1.151425
1.150706
1.150238
1.150113
1.1504
1.150618
1.150798
1.150618
1.150275
1.150264
1.150618
1.151251
1.152073
1.153011
1.154
1.155033
1.156209
1.157673
1.159679
1.16252
1.165843
1.16965
1.166642
1.163919
1.161427
1.158996
1.15656
1.154112
1.151672
1.149282
1.147001
1.144905
1.143098
1.141748
1.141112
1.140991
1.141063
1.141134
1.141643
1.142899
1.144596
1.14657
1.148724
1.150981
1.153283
1.155588
1.157875
1.160148
1.162466
1.164975
1.167689
1.167232
1.166857
1.16666
1.166636
1.166653
1.166674
1.166696
1.166714
1.166722
1.166712
1.166663
1.166505
1.166059
1.164809
1.163095
1.161846
1.163043
1.164494
1.164982
1.165123
1.16516
1.165161
1.165143
1.165117
1.165086
1.165058
1.165035
1.165063
1.16526
1.165645
1.167073
1.16572
1.164865
1.164591
1.164709
1.164854
1.16497
1.165031
1.165026
1.164947
1.164784
1.164512
1.163944
1.162589
1.160935
1.160123
1.161467
1.162819
1.163343
1.163569
1.163687
1.163735
1.163721
1.163649
1.163527
1.16338
1.163265
1.163512
1.164276
1.16547
1.167061
1.164378
1.162282
1.16126
1.161062
1.161315
1.161346
1.16116
1.160814
1.160371
1.159888
1.1594
1.158829
1.157933
1.157231
1.157052
1.157811
1.158687
1.159087
1.159389
1.159713
1.160034
1.160291
1.160422
1.160372
1.160145
1.160345
1.161267
1.163106
1.165426
1.167257
1.163554
1.160487
1.158452
1.157084
1.156072
1.155191
1.154272
1.15339
1.152605
1.151919
1.151204
1.150018
1.148806
1.147948
1.147914
1.148837
1.150104
1.151247
1.151844
1.15242
1.153121
1.153929
1.154768
1.155575
1.156506
1.157764
1.159609
1.162339
1.165572
1.169257
1.166131
1.163276
1.160633
1.158024
1.155377
1.152685
1.149973
1.147276
1.144662
1.142211
1.140017
1.138287
1.13764
1.137075
1.136998
1.137644
1.138232
1.139838
1.141873
1.144169
1.146637
1.149193
1.15177
1.154325
1.156827
1.159285
1.161758
1.164405
1.167242
1.16739
1.167007
1.166778
1.166712
1.166723
1.166736
1.166753
1.166769
1.16678
1.166774
1.166682
1.166207
1.163473
1.149419
1.139914
1.137202
1.146325
1.161599
1.16462
1.165126
1.165202
1.165189
1.165159
1.165125
1.165092
1.165064
1.165045
1.165095
1.165301
1.165679
1.167292
1.165975
1.165103
1.16476
1.16477
1.164891
1.164998
1.165065
1.165081
1.165035
1.164891
1.164328
1.161311
1.147331
1.137364
1.134691
1.144319
1.15974
1.16306
1.163655
1.163783
1.163809
1.163778
1.163701
1.163587
1.163459
1.163411
1.163684
1.164426
1.165563
1.167317
1.164739
1.162708
1.161681
1.161381
1.161484
1.161505
1.161386
1.161143
1.160807
1.160367
1.159511
1.15587
1.142324
1.133655
1.13149
1.140078
1.155242
1.158956
1.159746
1.160099
1.160364
1.160556
1.160644
1.160609
1.160497
1.160733
1.161606
1.163345
1.165552
1.167536
1.163915
1.160862
1.158844
1.157524
1.156567
1.155732
1.154831
1.153895
1.152907
1.151623
1.149201
1.143621
1.135428
1.130201
1.128742
1.134311
1.14334
1.149
1.151395
1.152617
1.153546
1.15443
1.155279
1.156055
1.156909
1.158088
1.15988
1.162566
1.165713
1.169253
1.166008
1.163018
1.160236
1.15747
1.154644
1.151732
1.148716
1.145623
1.142481
1.13926
1.135787
1.131969
1.129912
1.127634
1.126825
1.129503
1.131738
1.135487
1.138822
1.141896
1.144896
1.147851
1.15073
1.153501
1.156179
1.15879
1.161402
1.164177
1.167125
1.167668
1.167235
1.166932
1.166794
1.166762
1.166766
1.166772
1.166781
1.166785
1.166736
1.166348
1.163083
1.132228
1.130948
1.161472
1.16477
1.165151
1.165179
1.165155
1.165125
1.165099
1.165079
1.165082
1.165183
1.165439
1.165848
1.167634
1.166294
1.165333
1.164874
1.16475
1.164814
1.164912
1.164982
1.165007
1.164961
1.164556
1.161005
1.128978
1.127972
1.159722
1.163317
1.163727
1.163765
1.16373
1.163653
1.163549
1.163442
1.1635
1.163852
1.164646
1.165786
1.167703
1.165174
1.16311
1.161987
1.161554
1.161493
1.161473
1.161396
1.161244
1.161011
1.160444
1.156768
1.125328
1.124401
1.155895
1.159691
1.160268
1.160483
1.160615
1.160673
1.160664
1.16068
1.161005
1.161926
1.163664
1.165814
1.167954
1.164413
1.161352
1.159297
1.157954
1.156968
1.156166
1.15535
1.154495
1.153507
1.151602
1.145288
1.120551
1.119767
1.144525
1.151031
1.153042
1.154049
1.154895
1.155683
1.156406
1.157291
1.158466
1.160263
1.162933
1.166004
1.1695
1.166222
1.163165
1.160309
1.157462
1.154537
1.151468
1.148218
1.144769
1.141048
1.136708
1.130495
1.11863
1.117935
1.129763
1.135959
1.140241
1.143873
1.147216
1.150349
1.153287
1.156064
1.158757
1.161441
1.164283
1.167269
1.167649
1.16722
1.166922
1.166787
1.166758
1.166763
1.16677
1.16678
1.166783
1.166735
1.166347
1.163078
1.132196
1.13081
1.161411
1.16474
1.16513
1.165162
1.16514
1.165112
1.165086
1.165065
1.165066
1.165164
1.165417
1.165824
1.16761
1.166276
1.165323
1.164871
1.164754
1.164821
1.16492
1.16499
1.165016
1.164971
1.164567
1.161012
1.128965
1.127837
1.159672
1.16329
1.163707
1.163749
1.163716
1.16364
1.163536
1.163427
1.163482
1.16383
1.164621
1.165759
1.167679
1.165152
1.163093
1.161979
1.161556
1.161503
1.161485
1.161408
1.161255
1.161022
1.160455
1.156777
1.125317
1.124307
1.155867
1.15968
1.160262
1.16048
1.160613
1.160671
1.16066
1.160669
1.160989
1.161906
1.163639
1.165787
1.167932
1.164389
1.161325
1.159268
1.157927
1.156945
1.156147
1.15533
1.154476
1.153492
1.151593
1.145283
1.120544
1.119703
1.144509
1.151035
1.15305
1.15406
1.154907
1.155696
1.156419
1.157299
1.158467
1.160254
1.162915
1.16598
1.169487
1.166213
1.163158
1.160304
1.157457
1.154533
1.151464
1.148213
1.144764
1.141042
1.136701
1.130488
1.118622
1.11789
1.129741
1.135948
1.140233
1.143866
1.147208
1.150339
1.153275
1.15605
1.158742
1.161425
1.164265
1.167249
1.167355
1.166979
1.166758
1.166698
1.16671
1.166724
1.166742
1.16676
1.166773
1.166769
1.166681
1.166208
1.163479
1.149448
1.139945
1.137111
1.146196
1.161492
1.164542
1.165062
1.165145
1.165137
1.165109
1.165077
1.165045
1.165015
1.164995
1.165039
1.165241
1.165617
1.167251
1.165943
1.165082
1.164754
1.164777
1.1649
1.165007
1.165075
1.165092
1.165047
1.164905
1.164344
1.161308
1.147369
1.137416
1.134633
1.14422
1.159659
1.163001
1.163609
1.163745
1.163775
1.163746
1.163669
1.163556
1.163427
1.163369
1.163634
1.16437
1.165503
1.167279
1.164703
1.162678
1.161665
1.161384
1.161497
1.161519
1.161397
1.161151
1.16081
1.160367
1.159507
1.155849
1.142347
1.133698
1.13145
1.140009
1.155154
1.158934
1.159738
1.160097
1.160366
1.16056
1.160649
1.160609
1.160482
1.160704
1.161567
1.163296
1.165495
1.167504
1.163879
1.160821
1.158803
1.157487
1.156538
1.155702
1.154799
1.153864
1.152881
1.151604
1.149189
1.143607
1.135437
1.13023
1.128716
1.134284
1.143333
1.149015
1.151411
1.152634
1.153566
1.154452
1.155302
1.156076
1.15692
1.158087
1.159862
1.162527
1.165661
1.169233
1.165996
1.163012
1.160235
1.157474
1.154652
1.151742
1.148727
1.145634
1.14249
1.139263
1.135779
1.131949
1.129904
1.127641
1.126805
1.129494
1.131737
1.135477
1.138803
1.141869
1.144862
1.147811
1.150686
1.153453
1.156129
1.158739
1.161349
1.164124
1.167073
1.167188
1.166823
1.166637
1.166622
1.166643
1.166666
1.16669
1.16671
1.166719
1.166709
1.166661
1.166501
1.166054
1.164806
1.163089
1.161788
1.162942
1.164401
1.164899
1.165044
1.165082
1.165082
1.165062
1.165033
1.165
1.16497
1.164948
1.164972
1.165165
1.165549
1.167033
1.165684
1.164839
1.16458
1.164707
1.164856
1.164974
1.165036
1.16503
1.164951
1.164787
1.164515
1.163945
1.162587
1.160929
1.160078
1.161401
1.162759
1.163288
1.16352
1.16364
1.16369
1.163677
1.163604
1.163481
1.16333
1.16321
1.163444
1.164198
1.165386
1.167023
1.164338
1.162245
1.161235
1.161063
1.161319
1.161347
1.161157
1.160805
1.160356
1.159868
1.159373
1.158798
1.157907
1.157213
1.157024
1.157779
1.158662
1.159073
1.159382
1.159713
1.160039
1.160301
1.160435
1.160386
1.160153
1.160316
1.161216
1.16304
1.165348
1.167224
1.163517
1.160445
1.158412
1.157048
1.156041
1.155159
1.154239
1.153359
1.152577
1.151897
1.151188
1.15001
1.148795
1.147933
1.14789
1.148816
1.150097
1.151239
1.151838
1.152419
1.153125
1.153938
1.15478
1.155586
1.156507
1.157752
1.159577
1.162283
1.165497
1.169233
1.166117
1.163271
1.160636
1.158034
1.155393
1.152706
1.149997
1.1473
1.144684
1.142229
1.140025
1.138282
1.137628
1.137051
1.136966
1.137609
1.138195
1.139791
1.141816
1.144103
1.146565
1.149116
1.151691
1.154244
1.156745
1.159202
1.161676
1.164321
1.167156
1.167437
1.166995
1.166741
1.166689
1.166694
1.166697
1.166696
1.166685
1.166656
1.166599
1.166501
1.166338
1.166063
1.165586
1.164859
1.164078
1.164126
1.164496
1.164746
1.164892
1.164975
1.165019
1.165037
1.165039
1.165031
1.165023
1.165019
1.165085
1.165348
1.165806
1.16726
1.165778
1.164778
1.164431
1.164554
1.16471
1.164825
1.164864
1.164814
1.164674
1.164438
1.164101
1.163649
1.163081
1.162503
1.162189
1.16239
1.1627
1.162985
1.163215
1.163384
1.163484
1.16351
1.16346
1.163342
1.16319
1.163083
1.163416
1.164325
1.165638
1.167233
1.164396
1.162056
1.160824
1.16054
1.160851
1.160856
1.160573
1.1601
1.159525
1.158927
1.158387
1.158044
1.157989
1.158166
1.158277
1.158138
1.158078
1.158236
1.158551
1.158954
1.159374
1.159732
1.159943
1.159907
1.159643
1.159953
1.161084
1.163145
1.165594
1.167421
1.163622
1.160449
1.158264
1.156702
1.155458
1.154372
1.153312
1.152304
1.151409
1.150691
1.150222
1.150097
1.150382
1.150595
1.150772
1.150591
1.150248
1.150235
1.150592
1.151226
1.152051
1.152992
1.153984
1.155008
1.156175
1.157625
1.159615
1.162436
1.165739
1.169626
1.166625
1.163908
1.161424
1.159
1.15657
1.154128
1.151693
1.149305
1.147025
1.144927
1.143114
1.141752
1.141102
1.140956
1.141019
1.141076
1.141569
1.142812
1.144499
1.146467
1.148616
1.150871
1.153172
1.155477
1.157764
1.160037
1.162353
1.164861
1.167572
1.168183
1.16757
1.16711
1.166905
1.166827
1.166751
1.166675
1.166586
1.166471
1.166318
1.166114
1.165841
1.165478
1.164997
1.164402
1.163847
1.163773
1.164033
1.164319
1.164553
1.164731
1.164863
1.164958
1.165028
1.165086
1.165144
1.165213
1.16541
1.165846
1.166438
1.168249
1.166566
1.16517
1.164494
1.164443
1.164543
1.1646
1.164562
1.164414
1.16416
1.163809
1.163375
1.162884
1.162392
1.161996
1.161803
1.161847
1.162054
1.162347
1.162648
1.162915
1.163117
1.163236
1.16326
1.163197
1.163094
1.163152
1.163775
1.165016
1.166485
1.168429
1.165466
1.162598
1.160786
1.160092
1.160087
1.159967
1.159553
1.158917
1.158159
1.157376
1.156673
1.156165
1.155969
1.156128
1.156298
1.156195
1.156238
1.156544
1.157028
1.157609
1.158205
1.158728
1.159083
1.159198
1.159249
1.159928
1.161589
1.16409
1.16663
1.168805
1.16497
1.16143
1.158873
1.156988
1.155436
1.15402
1.152684
1.15143
1.150284
1.149279
1.148459
1.147877
1.147584
1.147596
1.147641
1.147571
1.147832
1.148376
1.149151
1.150105
1.151195
1.152384
1.153647
1.154979
1.15643
1.158174
1.160501
1.16364
1.166948
1.170921
1.168039
1.165354
1.162915
1.160572
1.158263
1.155986
1.153762
1.151629
1.149635
1.147836
1.146303
1.145127
1.144407
1.144017
1.143975
1.144264
1.144863
1.145937
1.147364
1.14905
1.150922
1.152925
1.155011
1.157142
1.159294
1.161468
1.163718
1.166167
1.168728
)
;

boundaryField
{
    minX
    {
        type            calculated;
        value           nonuniform List<scalar> 
50
(
1.168168
1.168241
1.168426
1.168808
1.17093
1.167468
1.167289
1.167262
1.16745
1.16965
1.167232
1.167073
1.167061
1.167257
1.169257
1.16739
1.167292
1.167317
1.167536
1.169253
1.167668
1.167634
1.167703
1.167954
1.1695
1.167649
1.16761
1.167679
1.167932
1.169487
1.167355
1.167251
1.167279
1.167504
1.169233
1.167188
1.167033
1.167023
1.167224
1.169233
1.167437
1.16726
1.167233
1.167421
1.169626
1.168183
1.168249
1.168429
1.168805
1.170921
)
;
    }
    maxX
    {
        type            calculated;
        value           nonuniform List<scalar> 
50
(
1.166544
1.166603
1.166757
1.167085
1.168879
1.165921
1.165744
1.165697
1.165843
1.167689
1.165645
1.16547
1.165426
1.165572
1.167242
1.165679
1.165563
1.165552
1.165713
1.167125
1.165848
1.165786
1.165814
1.166004
1.167269
1.165824
1.165759
1.165787
1.16598
1.167249
1.165617
1.165503
1.165495
1.165661
1.167073
1.165549
1.165386
1.165348
1.165497
1.167156
1.165806
1.165638
1.165594
1.165739
1.167572
1.166438
1.166485
1.16663
1.166948
1.168728
)
;
    }
    minY
    {
        type            calculated;
        value           nonuniform List<scalar> 
292
(
1.168168
1.167468
1.167232
1.16739
1.167668
1.167649
1.167356
1.167189
1.167437
1.168183
1.167573
1.167022
1.166857
1.167007
1.167235
1.16722
1.16698
1.166823
1.166995
1.167571
1.167123
1.166761
1.16666
1.166779
1.166933
1.166922
1.166759
1.166637
1.166741
1.16711
1.166925
1.166703
1.166637
1.166713
1.166794
1.166788
1.166699
1.166623
1.166689
1.166905
1.166854
1.166705
1.166653
1.166724
1.166762
1.166758
1.16671
1.166643
1.166694
1.166827
1.166785
1.166706
1.166674
1.166737
1.166766
1.166763
1.166725
1.166667
1.166697
1.166752
1.166714
1.166706
1.166696
1.166753
1.166773
1.166771
1.166743
1.16669
1.166696
1.166675
1.16663
1.166696
1.166714
1.166769
1.166782
1.16678
1.16676
1.16671
1.166685
1.166586
1.16652
1.166668
1.166723
1.16678
1.166785
1.166784
1.166773
1.166719
1.166656
1.166472
1.166371
1.166614
1.166712
1.166774
1.166736
1.166735
1.16677
1.166709
1.166599
1.166319
1.16617
1.166518
1.166664
1.166683
1.166349
1.166348
1.166681
1.166661
1.166501
1.166114
1.165899
1.166358
1.166505
1.166207
1.163083
1.163078
1.166208
1.166501
1.166338
1.165842
1.165536
1.166086
1.16606
1.163474
1.132229
1.132196
1.163479
1.166055
1.166063
1.165478
1.165054
1.165612
1.164809
1.149419
1.149448
1.164807
1.165586
1.164997
1.164452
1.164889
1.163096
1.139915
1.139945
1.16309
1.164859
1.164402
1.163881
1.164121
1.161847
1.137202
1.137111
1.161788
1.164078
1.163847
1.163787
1.164185
1.163044
1.146325
1.146196
1.162942
1.164126
1.163773
1.164041
1.164558
1.164495
1.161599
1.130948
1.13081
1.161492
1.164402
1.164497
1.164034
1.164326
1.164808
1.164982
1.16462
1.161473
1.161411
1.164542
1.164899
1.164747
1.164319
1.164562
1.164956
1.165123
1.165126
1.164771
1.16474
1.165063
1.165044
1.164892
1.164553
1.164744
1.165043
1.165161
1.165202
1.165152
1.165131
1.165145
1.165083
1.164976
1.164732
1.164881
1.165092
1.165161
1.165189
1.165179
1.165162
1.165137
1.165082
1.16502
1.164863
1.164982
1.165115
1.165144
1.165159
1.165155
1.16514
1.16511
1.165062
1.165038
1.164958
1.165059
1.165122
1.165117
1.165125
1.165126
1.165112
1.165078
1.165033
1.165039
1.165028
1.165125
1.165119
1.165087
1.165092
1.165099
1.165086
1.165045
1.165001
1.165032
1.165087
1.165191
1.165114
1.165058
1.165065
1.165079
1.165065
1.165016
1.164971
1.165023
1.165145
1.165268
1.165111
1.165035
1.165045
1.165082
1.165066
1.164995
1.164949
1.165019
1.165213
1.165483
1.165186
1.165063
1.165095
1.165183
1.165164
1.16504
1.164972
1.165085
1.16541
1.165937
1.165457
1.16526
1.165302
1.165439
1.165417
1.165242
1.165165
1.165348
1.165846
1.166545
1.165922
1.165645
1.165679
1.165848
1.165824
1.165617
1.165549
1.165807
1.166438
)
;
    }
    minZ
    {
        type            calculated;
        value           nonuniform List<scalar> 
150
(
1.168168
1.168241
1.168426
1.168808
1.17093
1.167572
1.166575
1.165478
1.164982
1.168054
1.167122
1.16519
1.162622
1.161438
1.165367
1.166925
1.164519
1.1608
1.158875
1.162924
1.166854
1.164471
1.160103
1.156987
1.160576
1.166784
1.164575
1.160098
1.155433
1.158263
1.166713
1.164635
1.159979
1.154016
1.155981
1.166629
1.1646
1.159564
1.15268
1.153753
1.166519
1.164454
1.158929
1.151427
1.151618
1.16637
1.164202
1.158171
1.150281
1.149623
1.166169
1.163851
1.15739
1.149278
1.147825
1.165899
1.163418
1.156688
1.148463
1.146298
1.165536
1.162926
1.156182
1.147887
1.145131
1.165054
1.162433
1.155989
1.147602
1.144424
1.164452
1.162035
1.156152
1.147625
1.144059
1.163881
1.161836
1.15632
1.147682
1.144035
1.163787
1.161872
1.156209
1.147631
1.144349
1.164041
1.162074
1.156248
1.1479
1.144966
1.164325
1.162361
1.156547
1.148452
1.146055
1.164562
1.162659
1.157022
1.149233
1.147493
1.164744
1.162922
1.157593
1.150191
1.149185
1.16488
1.163122
1.158179
1.151283
1.151061
1.164981
1.163237
1.158694
1.152475
1.153066
1.165058
1.163257
1.159041
1.15374
1.155152
1.165124
1.163192
1.159157
1.155076
1.157283
1.16519
1.163089
1.159253
1.156536
1.159434
1.165267
1.16318
1.159972
1.158291
1.161609
1.165483
1.16384
1.161662
1.160627
1.16386
1.165937
1.165113
1.1642
1.163773
1.166311
1.166544
1.166603
1.166757
1.167085
1.168879
)
;
    }
    maxZ
    {
        type            calculated;
        value           nonuniform List<scalar> 
150
(
1.168183
1.168249
1.168429
1.168805
1.170921
1.16757
1.166566
1.165466
1.16497
1.168039
1.16711
1.16517
1.162598
1.16143
1.165354
1.166905
1.164494
1.160786
1.158873
1.162915
1.166827
1.164443
1.160092
1.156988
1.160572
1.166751
1.164543
1.160087
1.155436
1.158263
1.166675
1.1646
1.159967
1.15402
1.155986
1.166586
1.164562
1.159553
1.152684
1.153762
1.166471
1.164414
1.158917
1.15143
1.151629
1.166318
1.16416
1.158159
1.150284
1.149635
1.166114
1.163809
1.157376
1.149279
1.147836
1.165841
1.163375
1.156673
1.148459
1.146303
1.165478
1.162884
1.156165
1.147877
1.145127
1.164997
1.162392
1.155969
1.147584
1.144407
1.164402
1.161996
1.156128
1.147596
1.144017
1.163847
1.161803
1.156298
1.147641
1.143975
1.163773
1.161847
1.156195
1.147571
1.144264
1.164033
1.162054
1.156238
1.147832
1.144863
1.164319
1.162347
1.156544
1.148376
1.145937
1.164553
1.162648
1.157028
1.149151
1.147364
1.164731
1.162915
1.157609
1.150105
1.14905
1.164863
1.163117
1.158205
1.151195
1.150922
1.164958
1.163236
1.158728
1.152384
1.152925
1.165028
1.16326
1.159083
1.153647
1.155011
1.165086
1.163197
1.159198
1.154979
1.157142
1.165144
1.163094
1.159249
1.15643
1.159294
1.165213
1.163152
1.159928
1.158174
1.161468
1.16541
1.163775
1.161589
1.160501
1.163718
1.165846
1.165016
1.16409
1.16364
1.166167
1.166438
1.166485
1.16663
1.166948
1.168728
)
;
    }
    bottomAir_to_rightSolid
    {
        type            calculated;
        value           nonuniform List<scalar> 
130
(
1.153356
1.155584
1.158275
1.161207
1.164194
1.167092
1.169786
1.172191
1.174245
1.175907
1.177143
1.177935
1.178271
1.150957
1.15371
1.156893
1.160237
1.163545
1.166683
1.16955
1.172077
1.174215
1.175931
1.1772
1.178006
1.178336
1.145885
1.149887
1.15414
1.158318
1.162238
1.165812
1.168983
1.171719
1.173997
1.175805
1.177131
1.177969
1.178313
1.138119
1.144587
1.15061
1.155984
1.160698
1.164793
1.168307
1.171267
1.173692
1.175595
1.17698
1.177851
1.17821
1.128865
1.139525
1.147689
1.154225
1.159601
1.164089
1.167844
1.170953
1.173472
1.175433
1.176854
1.177746
1.178115
1.128852
1.139513
1.147677
1.154213
1.159588
1.164076
1.167829
1.170938
1.173456
1.175417
1.176837
1.177729
1.178098
1.138083
1.144552
1.150574
1.155947
1.160659
1.164752
1.168263
1.171222
1.173644
1.175545
1.176929
1.177799
1.178158
1.145827
1.149828
1.154081
1.158256
1.162173
1.165743
1.16891
1.171642
1.173916
1.175721
1.177045
1.17788
1.178223
1.150878
1.153631
1.15681
1.16015
1.163454
1.166587
1.169449
1.171971
1.174103
1.175814
1.177078
1.177878
1.178205
1.153276
1.155498
1.158183
1.16111
1.164091
1.166983
1.169672
1.172071
1.174118
1.175771
1.176998
1.177777
1.178095
)
;
    }
    bottomAir_to_leftSolid
    {
        type            calculated;
        value           nonuniform List<scalar> 
130
(
1.182168
1.181793
1.180887
1.179489
1.177628
1.175339
1.172671
1.16969
1.166485
1.163171
1.159899
1.15686
1.154279
1.182264
1.181867
1.180935
1.179499
1.177581
1.175208
1.172418
1.169264
1.165819
1.162183
1.158499
1.154967
1.151857
1.182259
1.181845
1.180877
1.179381
1.177369
1.174853
1.171854
1.168394
1.164511
1.160258
1.155738
1.151131
1.146769
1.182218
1.181787
1.180782
1.179223
1.177113
1.174446
1.171216
1.167406
1.162994
1.157938
1.15221
1.145823
1.138983
1.18218
1.181738
1.18071
1.179111
1.176937
1.17417
1.170784
1.166726
1.161912
1.156185
1.149286
1.140742
1.129686
1.182168
1.181726
1.180698
1.179098
1.176924
1.174157
1.17077
1.166713
1.161898
1.156171
1.149272
1.140727
1.129672
1.182183
1.181751
1.180746
1.179185
1.177073
1.174406
1.171175
1.167365
1.162952
1.157896
1.152167
1.145779
1.138943
1.182202
1.181787
1.180817
1.179318
1.177304
1.174787
1.171786
1.168325
1.164442
1.160189
1.155668
1.151062
1.146704
1.182191
1.181788
1.180852
1.179411
1.17749
1.175114
1.172323
1.169168
1.165723
1.162086
1.158402
1.154872
1.151764
1.18212
1.18171
1.180793
1.179389
1.177524
1.175232
1.172562
1.169579
1.166374
1.163059
1.159787
1.156748
1.154165
)
;
    }
    bottomAir_to_heater
    {
        type            calculated;
        value           nonuniform List<scalar> 
92
(
1.152428
1.15125
1.151071
1.151891
1.14956
1.148125
1.147946
1.149021
1.143282
1.141175
1.141001
1.142755
1.002809
1.002779
1.002778
1.002808
1.023377
1.023338
1.023334
1.023372
1.044567
1.044503
1.044492
1.044548
1.066453
1.066211
1.066184
1.066397
1.132576
1.089294
1.129043
1.08814
1.128879
1.088079
1.132075
1.089141
1.002799
1.002799
1.023366
1.023362
1.044557
1.044539
1.066444
1.066388
1.089291
1.089138
1.002801
1.002811
1.002781
1.002779
1.0028
1.002809
1.023372
1.023382
1.023342
1.023336
1.023363
1.023374
1.044565
1.044575
1.044506
1.044494
1.044539
1.044548
1.066452
1.066461
1.066213
1.066185
1.066386
1.066395
1.089295
1.089299
1.088138
1.088075
1.089131
1.089135
1.132532
1.128999
1.128839
1.132039
1.143216
1.141111
1.14094
1.142697
1.149473
1.14804
1.147863
1.148942
1.152338
1.151157
1.150974
1.151791
)
;
    }
}


// ************************************************************************* //
