/*--------------------------------*- C++ -*----------------------------------*\
| =========                 |                                                 |
| \\      /  F ield         | OpenFOAM: The Open Source CFD Toolbox           |
|  \\    /   O peration     | Version:  v2012                                 |
|   \\  /    A nd           | Website:  www.openfoam.com                      |
|    \\/     M anipulation  |                                                 |
\*---------------------------------------------------------------------------*/
FoamFile
{
    version     2.0;
    format      ascii;
    class       volVectorField;
    location    "600/bottomAir";
    object      U;
}
// * * * * * * * * * * * * * * * * * * * * * * * * * * * * * * * * * * * * * //

dimensions      [0 1 -1 0 0 0 0];


internalField   nonuniform List<vector> 
1460
(
(0.006063151 -0.009115505 0.0007631311)
(0.01484615 -0.00669321 0.001386129)
(0.02062387 -0.003338449 0.001522708)
(0.0224432 -0.0007191898 0.001364022)
(0.02158046 0.0007809285 0.001101549)
(0.01949966 0.001380301 0.0008439171)
(0.01721831 0.001469696 0.0006123805)
(0.01515599 0.001347988 0.0004114463)
(0.01343254 0.001176378 0.0002462231)
(0.01199806 0.001015975 0.0001250863)
(0.01072149 0.0008676238 5.569606e-05)
(0.009428123 0.0007229837 4.820425e-05)
(0.007942404 0.0006032231 8.185085e-05)
(0.006016933 0.0006110496 0.0001159667)
(0.003581039 0.0008697382 -0.0001113622)
(0.0005639135 0.001326704 -0.0003566979)
(-0.002644739 0.001400591 -0.000324768)
(-0.005096682 0.001164085 -0.0001428747)
(-0.007098795 0.001052963 -9.063717e-05)
(-0.008716024 0.0010411 -3.05978e-05)
(-0.01021309 0.001095236 6.057312e-05)
(-0.01178205 0.001200148 0.0001944229)
(-0.01357907 0.001335054 0.0003708714)
(-0.01566857 0.001428804 0.0005857811)
(-0.01794244 0.001318081 0.000834361)
(-0.01998636 0.000709127 0.001110216)
(-0.02081103 -0.0007586417 0.001384536)
(-0.0190777 -0.003240379 0.001541807)
(-0.01364622 -0.006327619 0.001405537)
(-0.005477107 -0.008337537 0.0008061516)
(0.003761287 -0.02005003 -1.349314e-05)
(0.01004861 -0.01604959 0.0008843637)
(0.01404678 -0.009316046 0.001410765)
(0.0156832 -0.003790385 0.001557962)
(0.01586267 -0.0001512113 0.001461767)
(0.01511614 0.001640425 0.001284057)
(0.01425289 0.00210024 0.001142054)
(0.01341368 0.001933294 0.001063236)
(0.01244121 0.001613541 0.001051702)
(0.01118608 0.001400145 0.001099801)
(0.009550901 0.001410258 0.00117252)
(0.007498214 0.001667286 0.00121303)
(0.005127004 0.002096351 0.001104725)
(0.002606859 0.002604018 0.0007984118)
(0.0004110012 0.003189633 0.0001263789)
(-0.001064689 0.003710779 -9.903567e-05)
(-0.002460343 0.003578727 0.0004009082)
(-0.004306209 0.002940873 0.000867317)
(-0.006337231 0.00235378 0.001089634)
(-0.008222694 0.001947588 0.001136892)
(-0.009825031 0.001794301 0.001113219)
(-0.01112482 0.001867848 0.001091422)
(-0.01218204 0.002054743 0.001115864)
(-0.01311023 0.002099844 0.00120294)
(-0.01403481 0.001533827 0.001352614)
(-0.01474391 -0.0003100358 0.001537322)
(-0.01459529 -0.003867022 0.001612353)
(-0.01305065 -0.009106122 0.001436079)
(-0.009287766 -0.01530671 0.0009054006)
(-0.003464666 -0.01858076 6.316002e-05)
(0.0006790204 -0.02572247 -0.0005581282)
(0.00122982 -0.02070784 0.0005389819)
(0.0002693168 -0.0120368 0.001507714)
(-0.0006270516 -0.00509844 0.002073288)
(-0.001434664 -0.001195834 0.002232445)
(-0.001169199 0.0006037416 0.002102551)
(-0.001070746 0.001381021 0.001964829)
(-0.001240961 0.00184002 0.002052537)
(-0.001834497 0.00227247 0.002269725)
(-0.002725311 0.002665115 0.002498407)
(-0.003665238 0.002904698 0.002620087)
(-0.004404426 0.002904458 0.002573147)
(-0.004624277 0.002685285 0.002313825)
(-0.004108606 0.002455216 0.001915041)
(-0.002841711 0.002525979 0.001373955)
(-0.001003398 0.002748708 0.001177371)
(0.0008042072 0.00287612 0.001587123)
(0.001916553 0.002908244 0.002047402)
(0.002331616 0.002948046 0.002355355)
(0.00221642 0.002829907 0.002450302)
(0.001825145 0.002556197 0.00238886)
(0.001379694 0.002175667 0.002234289)
(0.001101768 0.001750338 0.002080741)
(0.001102473 0.001256006 0.002031297)
(0.001287364 0.0004001448 0.002162138)
(0.001442969 -0.001470059 0.002234906)
(0.0006469544 -0.005272931 0.00203549)
(-0.0002781377 -0.01178722 0.00146415)
(-0.001164374 -0.01973027 0.0005163595)
(-0.0007085083 -0.02388438 -0.0004876633)
(-0.003199173 -0.02173119 -0.001311991)
(-0.009024624 -0.0162163 -0.0001804341)
(-0.01467369 -0.009852018 0.0008709727)
(-0.01809088 -0.006173097 0.001489103)
(-0.02005282 -0.004526098 0.00177056)
(-0.02115688 -0.003941258 0.001872907)
(-0.02174712 -0.003850721 0.001832498)
(-0.02187251 -0.004164637 0.001666447)
(-0.02151673 -0.004818405 0.001370477)
(-0.02060018 -0.005741161 0.0009092691)
(-0.01903128 -0.006836297 0.0002687022)
(-0.01672199 -0.007961848 -0.0005203459)
(-0.01355826 -0.008898817 -0.001373984)
(-0.009561058 -0.009321749 -0.002071858)
(-0.005029557 -0.008927727 -0.002714572)
(0.001159715 -0.00883168 -0.002860765)
(0.006194176 -0.009319683 -0.002269555)
(0.0104255 -0.009061671 -0.00157309)
(0.01385532 -0.008241926 -0.0007042377)
(0.01639896 -0.007185598 9.103078e-05)
(0.0181899 -0.006119943 0.0007330298)
(0.0193239 -0.005198178 0.001198527)
(0.01989191 -0.004525558 0.001501719)
(0.01996684 -0.00417814 0.001669085)
(0.01956207 -0.004216705 0.001708814)
(0.01861289 -0.004755087 0.001608431)
(0.01678807 -0.006316954 0.001338422)
(0.01355046 -0.009759107 0.0007482583)
(0.008287995 -0.01558548 -0.0002496883)
(0.002821438 -0.02028536 -0.001253944)
(-0.007865385 -0.010868 -0.002648304)
(-0.01718585 -0.00733552 -0.002163865)
(-0.02370543 -0.004742432 -0.001701895)
(-0.02718261 -0.003536684 -0.001636467)
(-0.02918483 -0.003080186 -0.001879247)
(-0.03027376 -0.003001646 -0.002346856)
(-0.03070604 -0.003098138 -0.003025622)
(-0.0305382 -0.003278171 -0.003917049)
(-0.02976481 -0.003481544 -0.005040814)
(-0.02830012 -0.00365244 -0.006414272)
(-0.02599228 -0.003730134 -0.008032545)
(-0.02263397 -0.003648288 -0.009837567)
(-0.0179783 -0.003340899 -0.01166838)
(-0.01226258 -0.002721383 -0.01300405)
(-0.006293342 -0.001511893 -0.01456919)
(0.002732408 -0.0009189358 -0.0150217)
(0.009312651 -0.00217917 -0.01341081)
(0.01531591 -0.002952359 -0.0121164)
(0.02028694 -0.003439191 -0.01022859)
(0.02384893 -0.003650866 -0.008376361)
(0.02628388 -0.003655556 -0.006722956)
(0.02783304 -0.003533108 -0.005319708)
(0.02866732 -0.003356473 -0.004168708)
(0.02888258 -0.003188886 -0.003251394)
(0.02849413 -0.003094262 -0.002547978)
(0.02745106 -0.003165905 -0.002056523)
(0.02550835 -0.003591258 -0.001786248)
(0.02213949 -0.004708699 -0.001813925)
(0.01593789 -0.007078831 -0.00221715)
(0.0071316 -0.01014159 -0.002582293)
(0.006455719 -0.008937313 0.001753318)
(0.01589282 -0.005898723 0.00232149)
(0.02233546 -0.002518628 0.002288421)
(0.02497014 -8.291645e-05 0.001960759)
(0.02499381 0.001246641 0.001596059)
(0.02378779 0.001744273 0.001291757)
(0.02221488 0.001783885 0.001046054)
(0.02065219 0.001619168 0.0008554262)
(0.019235 0.001375404 0.0007318431)
(0.01795727 0.001093493 0.0007090636)
(0.01673617 0.0007551787 0.0008385767)
(0.0153961 0.0003338804 0.001211119)
(0.01368984 -0.0001509124 0.001893956)
(0.01099966 -0.0004508281 0.00297516)
(0.007010501 -0.0002472135 0.00373285)
(0.0003902442 0.0005725855 0.003804875)
(-0.006203078 0.0006460649 0.002790265)
(-0.009868037 0.0004426201 0.001915264)
(-0.0124286 0.0006093738 0.001211988)
(-0.014215 0.0008589126 0.0008452292)
(-0.01573283 0.001101574 0.0007237724)
(-0.01719345 0.00132587 0.0007685221)
(-0.01872598 0.001529022 0.0009269794)
(-0.02035785 0.001662799 0.001164233)
(-0.02196919 0.001601523 0.001464176)
(-0.02319462 0.001099253 0.001823456)
(-0.02319572 -0.0001984 0.002229292)
(-0.02071056 -0.002519548 0.002562878)
(-0.01464998 -0.005651494 0.002572438)
(-0.005866637 -0.008239942 0.001965774)
(0.00358386 -0.02003266 0.001027463)
(0.01061798 -0.0149128 0.002209969)
(0.01553404 -0.008078147 0.002675228)
(0.01831725 -0.002961312 0.002603806)
(0.01969727 0.0002677289 0.002308365)
(0.01987707 0.001762608 0.002082051)
(0.01984628 0.002059583 0.001963811)
(0.01968475 0.00178745 0.001961756)
(0.01926943 0.001319 0.002092161)
(0.01844258 0.0008621921 0.002374162)
(0.01703546 0.0005244574 0.002795913)
(0.01483216 0.0003723585 0.003331452)
(0.01174646 0.0004386032 0.003765922)
(0.007592864 0.0009699832 0.004115044)
(0.002954622 0.002375946 0.003404941)
(-0.002633684 0.003707953 0.002735907)
(-0.006593922 0.002668509 0.003191991)
(-0.0101066 0.001555391 0.003337413)
(-0.01302406 0.001126715 0.003153923)
(-0.01519728 0.001032678 0.002786697)
(-0.01669294 0.001182168 0.002451878)
(-0.0176472 0.001483402 0.002216581)
(-0.01820119 0.001820175 0.002112761)
(-0.01849097 0.001982888 0.002135163)
(-0.01862474 0.001595565 0.002273034)
(-0.01850542 5.246139e-05 0.002517365)
(-0.01715195 -0.003103106 0.002800324)
(-0.01451188 -0.007973531 0.002815655)
(-0.009864697 -0.01432132 0.00229929)
(-0.003355627 -0.0186567 0.001138265)
(-0.000211895 -0.0259917 0.0003922499)
(0.0005863676 -0.01949345 0.002240184)
(0.0004189712 -0.0103994 0.003577778)
(0.0009117233 -0.003851592 0.004270086)
(0.001502736 8.561879e-06 0.004403059)
(0.003127419 0.001765927 0.004181879)
(0.003680405 0.002452257 0.004204176)
(0.003866122 0.002798243 0.004582716)
(0.003549004 0.003199651 0.00522841)
(0.002764382 0.003716947 0.006055909)
(0.001618204 0.004234534 0.006942218)
(8.957594e-05 0.004533349 0.007744757)
(-0.001386906 0.004418699 0.007787603)
(-0.00233702 0.004400107 0.00709812)
(-0.002435794 0.005091424 0.005340466)
(-0.002308645 0.005558807 0.004745723)
(-0.00177388 0.004875885 0.006093799)
(-0.001771828 0.004619576 0.006956394)
(-0.002415618 0.00461444 0.00703187)
(-0.003165968 0.004324393 0.006458281)
(-0.003736841 0.003843773 0.005763918)
(-0.004070022 0.003337676 0.005096682)
(-0.004061248 0.002906444 0.00456708)
(-0.003670645 0.002486673 0.004260626)
(-0.002934975 0.001710899 0.004271516)
(-0.001343868 -0.0001197051 0.004460868)
(-0.000875869 -0.003963172 0.004248577)
(-0.0004602716 -0.01020314 0.003495342)
(-0.0005976065 -0.01864525 0.002130087)
(5.905542e-05 -0.02423298 0.0003847223)
(-0.004962445 -0.02185616 -0.0004754121)
(-0.01133679 -0.01499246 0.001515073)
(-0.01678861 -0.008385339 0.003144285)
(-0.01941454 -0.004766759 0.004230183)
(-0.02050268 -0.00312448 0.004879775)
(-0.02068343 -0.002431427 0.005285628)
(-0.02031892 -0.002118224 0.005559599)
(-0.01981774 -0.002212999 0.00576503)
(-0.01917028 -0.002609433 0.005855341)
(-0.0182998 -0.003217875 0.005702477)
(-0.01706997 -0.003923737 0.00518096)
(-0.01530942 -0.004538441 0.00416514)
(-0.01258948 -0.00465772 0.002514272)
(-0.008867917 -0.003328968 0.0007730831)
(-0.004712407 2.850931e-05 -0.002378845)
(-0.0002887682 0.0008713661 -0.002841524)
(0.004377329 -0.002910048 0.0004200633)
(0.008529759 -0.004698486 0.002212336)
(0.01172084 -0.004846298 0.003738848)
(0.0138995 -0.004308134 0.004645636)
(0.01551115 -0.00360823 0.005137178)
(0.01673453 -0.002980586 0.005314013)
(0.01768984 -0.002553593 0.005277024)
(0.01845977 -0.002421991 0.00512724)
(0.01899467 -0.002670017 0.004891236)
(0.01897555 -0.003289892 0.004510881)
(0.01802595 -0.004858391 0.003879827)
(0.01555737 -0.008300489 0.002820027)
(0.0104686 -0.01445516 0.00123985)
(0.004429957 -0.02051108 -0.0005904629)
(-0.0106846 -0.01066657 -0.002605262)
(-0.02134877 -0.006185382 -0.002375827)
(-0.02847657 -0.003339372 -0.002456114)
(-0.03191847 -0.001957551 -0.002917945)
(-0.03369825 -0.001250482 -0.003697458)
(-0.03449045 -0.00083974 -0.004771319)
(-0.03462991 -0.0004880006 -0.006169569)
(-0.0342264 -7.844191e-05 -0.007944633)
(-0.03331432 0.0004462745 -0.01016444)
(-0.0318105 0.001160492 -0.01289863)
(-0.02953893 0.002125031 -0.01619531)
(-0.02623037 0.003350864 -0.02001213)
(-0.02129391 0.004745562 -0.02395959)
(-0.01529344 0.006254466 -0.02611874)
(-0.00827586 0.00863704 -0.02859353)
(0.00397031 0.009832652 -0.02919774)
(0.0123082 0.00736692 -0.02700614)
(0.01887062 0.005613003 -0.02493167)
(0.02411372 0.003918137 -0.02083808)
(0.02758458 0.002469044 -0.01689866)
(0.02994445 0.00135234 -0.01352208)
(0.03149345 0.0005355444 -0.01072931)
(0.03242429 -5.747413e-05 -0.008460614)
(0.03282845 -0.0005047985 -0.00664006)
(0.03268286 -0.0008781528 -0.005197705)
(0.03189225 -0.001300512 -0.004084528)
(0.03013851 -0.001999149 -0.003269637)
(0.02677708 -0.003323796 -0.002771214)
(0.01995046 -0.005988432 -0.002642303)
(0.009780741 -0.01002068 -0.002740903)
(0.006367746 -0.008027462 0.001003746)
(0.01576117 -0.005030934 0.001129492)
(0.02220766 -0.001902597 0.0008948522)
(0.02501909 0.0002681436 0.0005793905)
(0.02535732 0.001411286 0.0003603338)
(0.02453792 0.001808454 0.0002705986)
(0.02334021 0.001796934 0.000295679)
(0.02212829 0.001595981 0.0004380651)
(0.02105587 0.001306005 0.0007345501)
(0.02015603 0.000942479 0.001278024)
(0.0194148 0.0004518602 0.002231115)
(0.01869565 -0.0001802459 0.003934029)
(0.01773129 -0.0007822843 0.006781842)
(0.01526673 -0.0003870445 0.01079913)
(0.0103022 0.001112974 0.01403996)
(-0.0008023542 0.0027046 0.01476735)
(-0.01014479 0.001084778 0.01126842)
(-0.01378804 -0.0002748928 0.007308143)
(-0.01576792 -4.897722e-05 0.00422505)
(-0.01689228 0.0004466415 0.00246513)
(-0.01789154 0.0008813976 0.00149784)
(-0.01893444 0.001215552 0.0009838552)
(-0.02008845 0.001484291 0.0007460971)
(-0.02134174 0.001670723 0.0006845806)
(-0.0225596 0.001679524 0.0007550212)
(-0.023399 0.001302306 0.0009417696)
(-0.02311693 0.0002200886 0.001238309)
(-0.0204968 -0.001816907 0.001578737)
(-0.01447868 -0.004696937 0.001772491)
(-0.005761711 -0.007274052 0.001509829)
(0.003698555 -0.01877744 0.001296328)
(0.01110154 -0.0136618 0.001824572)
(0.0164074 -0.007194379 0.001905775)
(0.01958609 -0.002508046 0.00171921)
(0.02131852 0.0003438939 0.001489425)
(0.02189466 0.001610376 0.001467616)
(0.02222325 0.001804683 0.001583561)
(0.02243115 0.001466544 0.00184018)
(0.02244574 0.0009082705 0.002275633)
(0.02211659 0.0003104256 0.002952327)
(0.02127521 -0.0002136776 0.003919395)
(0.01956103 -0.00046093 0.005253289)
(0.0170389 5.990975e-05 0.006704137)
(0.01290586 0.00303075 0.007926965)
(0.00708408 0.008241412 0.007170264)
(-0.003390031 0.0110923 0.0064622)
(-0.01043563 0.005907006 0.006794817)
(-0.01461529 0.001414968 0.00616529)
(-0.01749406 0.0002192685 0.005002145)
(-0.01934013 0.0001582164 0.003857584)
(-0.02035435 0.0005055474 0.002988329)
(-0.02083729 0.0009778789 0.0023668)
(-0.02096141 0.00144168 0.001969486)
(-0.02086828 0.001714015 0.001749008)
(-0.0206267 0.001487164 0.001674083)
(-0.02010794 0.0002462479 0.001738852)
(-0.01844114 -0.002480945 0.001979587)
(-0.01539576 -0.00690891 0.002132887)
(-0.01035628 -0.0129045 0.001989275)
(-0.003462922 -0.01728928 0.001405443)
(6.90205e-05 -0.02496089 0.001626157)
(0.001648224 -0.01840506 0.00264439)
(0.002359107 -0.009644345 0.003540854)
(0.003511694 -0.003522969 0.004076786)
(0.004692676 8.341705e-05 0.004187227)
(0.006333264 0.001740308 0.00416027)
(0.007141307 0.00226757 0.004496696)
(0.007679269 0.002436613 0.005131253)
(0.007793503 0.002682062 0.006049187)
(0.007466773 0.003115004 0.007245942)
(0.006755434 0.003735547 0.008606365)
(0.005332418 0.004542541 0.009866152)
(0.003935444 0.006031731 0.009305826)
(0.002748967 0.009755755 0.006256525)
(0.001234169 0.01552828 0.001067066)
(-0.003194556 0.01746091 4.686742e-05)
(-0.005235706 0.01155256 0.004112158)
(-0.006009579 0.006574792 0.00756519)
(-0.007042733 0.004638759 0.008506897)
(-0.007905948 0.003815304 0.007714118)
(-0.008207818 0.003271803 0.006665233)
(-0.008209896 0.002873492 0.0056886)
(-0.007875243 0.002620281 0.004918584)
(-0.007205111 0.002410628 0.004380676)
(-0.006318677 0.001832544 0.004117337)
(-0.004713163 0.0001423497 0.004165744)
(-0.003555587 -0.003413772 0.004007184)
(-0.002436455 -0.009251307 0.003401763)
(-0.001673851 -0.01740152 0.002461482)
(-0.0002107785 -0.02310611 0.001470798)
(-0.004504188 -0.02154375 0.00159467)
(-0.009955088 -0.01457074 0.002625797)
(-0.01452223 -0.007769804 0.003888992)
(-0.01636793 -0.004011972 0.004899558)
(-0.01678018 -0.002251553 0.005541191)
(-0.01626821 -0.001450051 0.005949172)
(-0.01541752 -0.001069645 0.006258852)
(-0.01474865 -0.001057785 0.006395286)
(-0.01408342 -0.001240145 0.006288269)
(-0.01340378 -0.001377429 0.005643141)
(-0.01258758 -0.00103146 0.004043885)
(-0.01151938 0.0004874752 0.0009690347)
(-0.00906099 0.004395097 -0.004268314)
(-0.006189224 0.009870103 -0.008366074)
(-0.002685966 0.01725565 -0.01303209)
(-0.0005284261 0.01941093 -0.01377256)
(0.002949181 0.01184751 -0.009609245)
(0.006343445 0.005097908 -0.005469205)
(0.008645382 0.0003989919 -0.0003109668)
(0.009899892 -0.001474019 0.002851798)
(0.01091699 -0.001841874 0.00459873)
(0.01180466 -0.001640078 0.005397145)
(0.01267117 -0.001384042 0.005645046)
(0.01356993 -0.001315638 0.005597006)
(0.01460471 -0.001610808 0.005367274)
(0.01527528 -0.002332743 0.005021238)
(0.01500868 -0.004008444 0.004407442)
(0.01333219 -0.007585817 0.003418549)
(0.009127041 -0.01394565 0.002188241)
(0.004006505 -0.02014646 0.001237928)
(-0.0105651 -0.0104964 -5.054068e-05)
(-0.0211677 -0.005558149 -0.00101874)
(-0.02826123 -0.002386428 -0.001935111)
(-0.03174196 -0.0007454314 -0.0029569)
(-0.03364674 0.0002354777 -0.004166467)
(-0.034672 0.000967707 -0.00563698)
(-0.03518081 0.001686731 -0.007440813)
(-0.03528577 0.002497206 -0.009654683)
(-0.03510667 0.003499563 -0.01244874)
(-0.03452646 0.004810776 -0.01594272)
(-0.0332849 0.006521116 -0.02026775)
(-0.03082048 0.008650819 -0.02546867)
(-0.02520311 0.01107986 -0.03066171)
(-0.01874065 0.01354599 -0.03120256)
(-0.01030897 0.01863909 -0.03471847)
(0.005265532 0.02098535 -0.0355937)
(0.01600715 0.01543153 -0.0325836)
(0.02364206 0.01226316 -0.03192463)
(0.02957341 0.009405782 -0.02662983)
(0.03214512 0.007042483 -0.0213295)
(0.03337211 0.005169007 -0.01689448)
(0.03390437 0.003728006 -0.01329954)
(0.03402365 0.002618745 -0.01041305)
(0.03382457 0.001723294 -0.00809214)
(0.03322741 0.0009504536 -0.006196803)
(0.03213466 0.0001922635 -0.004664287)
(0.03019785 -0.0007838715 -0.003422128)
(0.02674888 -0.002368427 -0.002393018)
(0.01990507 -0.005358098 -0.001493522)
(0.009743738 -0.009849743 -0.0005179688)
(0.00634834 -0.008289107 -0.0002132085)
(0.01569677 -0.005525826 -0.0003782462)
(0.02221313 -0.002526637 -0.0005828234)
(0.02517454 -0.0003925882 -0.0007021327)
(0.02575392 0.0008454257 -0.0006805222)
(0.02514586 0.00137279 -0.0005272125)
(0.02416803 0.00146957 -0.0002879426)
(0.02323801 0.001341838 3.955513e-05)
(0.022605 0.001074118 0.0004930063)
(0.02244446 0.0006568144 0.001175824)
(0.02302349 2.204602e-05 0.002262931)
(0.02445099 -0.0005589841 0.004188491)
(0.02597166 0.0005490754 0.006850287)
(0.02341432 0.008171331 0.009445797)
(0.01575634 0.01710497 0.01322528)
(-0.005297275 0.02070626 0.01455913)
(-0.01855026 0.01094049 0.01073557)
(-0.02221266 0.001143177 0.008426604)
(-0.02182085 -0.0005377662 0.005153485)
(-0.02062604 -5.366628e-05 0.002892043)
(-0.02021285 0.0005815215 0.001649438)
(-0.02043968 0.001017162 0.0009173892)
(-0.02109452 0.001305964 0.0004812868)
(-0.02201576 0.001465761 0.0002132175)
(-0.02297797 0.001423567 5.910307e-05)
(-0.02359295 0.0009886208 7.911286e-07)
(-0.02310564 -0.0001150311 5.271401e-05)
(-0.0203749 -0.002078269 0.0002028373)
(-0.01434536 -0.004828288 0.0003696394)
(-0.005704544 -0.00724157 0.0003844872)
(0.003864377 -0.01893192 0.0008893546)
(0.01139238 -0.01414838 0.001113982)
(0.01677344 -0.007934957 0.001083119)
(0.02002058 -0.003413602 0.0009558662)
(0.02183499 -0.0006342616 0.0008787569)
(0.02276524 0.00071763 0.0009702839)
(0.02337948 0.001077872 0.0011697)
(0.02394757 0.0008845366 0.001458192)
(0.02447152 0.0004079877 0.0018564)
(0.02485364 -0.0001861683 0.002388987)
(0.02500934 -0.000718316 0.002940183)
(0.0244394 -0.0002551267 0.003532932)
(0.02270464 0.005056971 0.00214447)
(0.01767161 0.02236993 0.005313696)
(0.01089178 0.03928013 0.008505244)
(-0.003965202 0.04452738 0.009516648)
(-0.0135033 0.0276733 0.006157815)
(-0.01914139 0.006886438 0.003022297)
(-0.02206591 0.0003732533 0.003954211)
(-0.02305084 -0.0004345294 0.003204153)
(-0.02320124 -2.398925e-05 0.002571229)
(-0.0230199 0.0005041359 0.002000888)
(-0.02264841 0.0009464992 0.001591822)
(-0.02219039 0.001141486 0.001315709)
(-0.02165166 0.0008295774 0.001151941)
(-0.0208035 -0.0004113892 0.001092484)
(-0.01900781 -0.003004304 0.001187427)
(-0.01584818 -0.007233359 0.001294462)
(-0.01068462 -0.01297904 0.001277063)
(-0.003617873 -0.01712209 0.0009967813)
(0.0004924531 -0.02500618 0.001626512)
(0.002664238 -0.01877004 0.00225242)
(0.003829722 -0.01028317 0.00278611)
(0.005239221 -0.004321459 0.003127592)
(0.006539963 -0.000806156 0.003247574)
(0.008135159 0.0009301083 0.003392975)
(0.009331824 0.001639205 0.003818949)
(0.01042914 0.001950886 0.004439349)
(0.01133789 0.002275479 0.005265269)
(0.01196755 0.002818993 0.006303744)
(0.01230337 0.00388231 0.007239183)
(0.01122006 0.006584722 0.007515502)
(0.009524524 0.01543051 0.002257798)
(0.007231341 0.03539319 0.003315221)
(0.005195623 0.05531571 0.004754397)
(-0.001935977 0.06131075 0.005429204)
(-0.005476053 0.04152632 0.00328802)
(-0.008324932 0.01696585 0.001757307)
(-0.01127753 0.007056732 0.006615058)
(-0.0125527 0.004063935 0.006533952)
(-0.01229759 0.003002864 0.005804977)
(-0.01163933 0.002482697 0.004929476)
(-0.01071268 0.002168862 0.004218353)
(-0.009609753 0.001864645 0.003682681)
(-0.008407669 0.001181707 0.003324441)
(-0.006830873 -0.0005127677 0.003197116)
(-0.005467216 -0.003913712 0.003041836)
(-0.004013624 -0.009556408 0.002647063)
(-0.002724459 -0.01744022 0.002075307)
(-0.0006155256 -0.02290688 0.001467587)
(-0.003800606 -0.02187832 0.002002788)
(-0.008324939 -0.01513751 0.002665972)
(-0.0121607 -0.008107706 0.003564916)
(-0.01337462 -0.003992522 0.004346315)
(-0.0132363 -0.001922075 0.004824606)
(-0.01239045 -0.0009452038 0.005103358)
(-0.01120765 -0.0005162517 0.005347125)
(-0.01016064 -0.0004366547 0.005508744)
(-0.009294472 -0.0004065454 0.005379963)
(-0.008780819 6.847356e-05 0.004618823)
(-0.008805449 0.002108883 0.002660189)
(-0.01000019 0.007488819 -0.0008210154)
(-0.008285955 0.01956267 -0.006901213)
(-0.006678696 0.03507137 -0.002390549)
(-0.001802379 0.05286334 -0.002004968)
(0.001524849 0.0585169 -0.001484218)
(0.006535656 0.04053845 -0.002565945)
(0.008700734 0.02135054 -0.007390768)
(0.009424588 0.008158495 -0.001859002)
(0.00777907 0.002144766 0.001447015)
(0.007457884 -0.0001120915 0.003510183)
(0.007793244 -0.0006004934 0.004443752)
(0.008577461 -0.00058047 0.004729656)
(0.009609723 -0.0006023941 0.004701302)
(0.01079469 -0.0009786252 0.004562666)
(0.01178213 -0.001891187 0.004346095)
(0.01204775 -0.003860566 0.003894753)
(0.01100881 -0.00776204 0.00312719)
(0.007546262 -0.01433122 0.002248527)
(0.003347812 -0.02033331 0.0016528)
(-0.01005493 -0.01066833 0.001160204)
(-0.0204558 -0.005476873 0.0002412317)
(-0.02754744 -0.001953387 -0.0006918756)
(-0.03109295 1.309324e-05 -0.001638498)
(-0.03310781 0.001295725 -0.002691935)
(-0.03429629 0.002287947 -0.003922233)
(-0.03519138 0.003278777 -0.005440123)
(-0.03605958 0.004503671 -0.007383108)
(-0.03697813 0.006124116 -0.009881796)
(-0.03789983 0.008330571 -0.01311347)
(-0.03849132 0.01136032 -0.01730395)
(-0.03727183 0.01549227 -0.02229578)
(-0.02863394 0.02117813 -0.02560863)
(-0.0223864 0.02580615 -0.01728168)
(-0.01264397 0.03689961 -0.01757621)
(0.007054449 0.04158607 -0.01729319)
(0.02061701 0.02937136 -0.01773492)
(0.02878997 0.02262417 -0.02613503)
(0.03734048 0.01622888 -0.02303257)
(0.03846645 0.01183595 -0.01814297)
(0.03765253 0.008673611 -0.01392704)
(0.0364825 0.006362477 -0.01062034)
(0.03534066 0.004650201 -0.008031321)
(0.03427713 0.003348699 -0.005997995)
(0.03321532 0.002295864 -0.004408236)
(0.0318746 0.001267836 -0.003127385)
(0.02976033 -4.664077e-06 -0.002056582)
(0.02619549 -0.001898171 -0.001122684)
(0.01931723 -0.005216736 -0.0002286593)
(0.009309657 -0.009954398 0.0007004835)
(0.006294361 -0.009068904 -0.0002509806)
(0.01559007 -0.006598401 -0.0003616733)
(0.02218691 -0.003636935 -0.0004489516)
(0.02527021 -0.001422392 -0.0004845751)
(0.02599658 -1.849639e-06 -0.0004605246)
(0.02551375 0.0007459207 -0.0003870052)
(0.02461313 0.001015189 -0.0002811785)
(0.02377643 0.0009840875 -0.0001495758)
(0.02331795 0.0007174141 1.792193e-05)
(0.02349944 0.000181592 0.0002640828)
(0.02483286 -0.0005271201 0.0006504224)
(0.02644065 0.001299169 0.001472044)
(0.02192931 0.01968707 0.002551862)
(-0.02089431 0.01962767 0.003982929)
(-0.0252161 0.001362966 0.002434429)
(-0.02323779 -0.0005702945 0.001245369)
(-0.02168623 0.0001272942 0.0006752082)
(-0.02134774 0.0006957025 0.0003453204)
(-0.02169549 0.001008644 0.0001494714)
(-0.02244029 0.001106201 2.14912e-05)
(-0.02327532 0.0009439927 -6.343637e-05)
(-0.02375995 0.0003442379 -0.000112886)
(-0.02312339 -0.00090865 -0.0001201005)
(-0.02028675 -0.002914026 -8.484895e-05)
(-0.01420828 -0.005605238 -2.057635e-05)
(-0.005639336 -0.007763651 2.534399e-05)
(0.003867227 -0.01968429 0.0003527682)
(0.01128863 -0.01535951 0.0003980467)
(0.01657874 -0.009301575 0.0003619436)
(0.01975615 -0.004778753 0.0003011696)
(0.02150451 -0.001913615 0.0002722462)
(0.02264165 -0.0003767724 0.0003065399)
(0.02347534 0.0002125508 0.0003779978)
(0.02420746 0.000205112 0.00047398)
(0.02486511 -0.0001618999 0.0005851311)
(0.02514124 -0.0006594728 0.0006821798)
(0.02488032 -0.0004512716 0.0005902538)
(0.02046899 0.00702754 0.0003750683)
(0.01567889 0.0444529 -0.0003959374)
(-0.01496898 0.04438859 0.001012716)
(-0.01960757 0.007445388 0.001194342)
(-0.02378834 -0.0002108642 0.001011683)
(-0.0240566 -0.0005016904 0.0009302376)
(-0.02382694 -2.147979e-05 0.0007535304)
(-0.02324249 0.0003598244 0.0006052065)
(-0.02257678 0.0004214206 0.0004948523)
(-0.02182692 -6.185935e-05 0.0004241778)
(-0.02067338 -0.001429226 0.0003928558)
(-0.01890096 -0.004057835 0.0004076398)
(-0.01576193 -0.008250161 0.0004456066)
(-0.01064454 -0.01383241 0.0004534686)
(-0.003633613 -0.0175903 0.0003854196)
(0.0007114646 -0.02546733 0.0007544114)
(0.003075385 -0.0196955 0.000958465)
(0.00439514 -0.01142166 0.001159598)
(0.005855339 -0.005516289 0.001310818)
(0.007212147 -0.002038582 0.001371093)
(0.008726183 -0.0001511777 0.0014677)
(0.01019308 0.0008682436 0.001696154)
(0.01173168 0.001461628 0.002003236)
(0.01326714 0.002051937 0.002386579)
(0.01445447 0.003067903 0.002813185)
(0.01527156 0.005941825 0.002892343)
(0.01048362 0.01773218 0.002019409)
(0.00971073 0.0633212 -0.001660476)
(-0.009268144 0.06342622 -0.0004971971)
(-0.01039118 0.01813628 0.002246863)
(-0.0153496 0.006178976 0.002740948)
(-0.01476475 0.003288177 0.002629038)
(-0.01369022 0.002302835 0.002243496)
(-0.01224073 0.001750109 0.001903966)
(-0.01075158 0.001207963 0.001634453)
(-0.009276902 0.0002541352 0.001433446)
(-0.007730288 -0.001568827 0.001319793)
(-0.006255176 -0.004868709 0.001225578)
(-0.004687749 -0.01041229 0.001045255)
(-0.003188816 -0.01807753 0.0008297335)
(-0.0008346423 -0.02315182 0.0006429246)
(-0.003298353 -0.02228531 0.0009914723)
(-0.007241691 -0.01592656 0.001211807)
(-0.01055402 -0.008827674 0.001602714)
(-0.01124153 -0.004413569 0.002000286)
(-0.01052343 -0.001992472 0.00226142)
(-0.009467025 -0.0007353369 0.002393596)
(-0.007747987 -0.0002316338 0.002562235)
(-0.006071295 -3.784661e-05 0.0026938)
(-0.004609232 0.0002556399 0.002689874)
(-0.003899527 0.001654009 0.002360205)
(-0.004145064 0.007290188 0.001357112)
(-0.008714129 0.02332722 -0.0002772832)
(0.001340517 0.06429407 -0.004337996)
(-0.0009714937 0.06436386 -0.003503305)
(0.008749421 0.02372693 -0.0001397262)
(0.003978638 0.007594604 0.001108352)
(0.003272385 0.001750554 0.001935853)
(0.003606773 0.0002930656 0.002253771)
(0.004829815 9.402472e-06 0.002301369)
(0.006344336 -0.0001645088 0.002227652)
(0.008063652 -0.0006273621 0.002102864)
(0.009147067 -0.001834207 0.001995277)
(0.009963249 -0.004141574 0.001743027)
(0.009432513 -0.008316011 0.001349544)
(0.006486528 -0.0149443 0.000970513)
(0.00286851 -0.02060878 0.0007855858)
(-0.009452545 -0.01087217 0.0007297796)
(-0.0195091 -0.005543755 0.0002751013)
(-0.02642676 -0.001698464 -0.0001754263)
(-0.0298654 0.0005917794 -0.0006215998)
(-0.03176528 0.002172326 -0.001110685)
(-0.03277361 0.003412841 -0.001671898)
(-0.03376091 0.004765281 -0.002391872)
(-0.03494704 0.00658915 -0.003315451)
(-0.0365028 0.009167641 -0.00451369)
(-0.03843986 0.01292928 -0.006063314)
(-0.0398581 0.01869022 -0.008088499)
(-0.03685253 0.02842366 -0.01052099)
(-0.01668324 0.04750246 -0.0124673)
(0.01693691 0.04756096 -0.01188906)
(0.03702296 0.02857701 -0.01034016)
(0.04009998 0.01885397 -0.008146254)
(0.03854107 0.01308616 -0.006238764)
(0.03634604 0.009289758 -0.004733659)
(0.03452134 0.006656592 -0.003540041)
(0.03308431 0.00477348 -0.002599998)
(0.03186935 0.003377685 -0.001859768)
(0.03066993 0.002119546 -0.001286346)
(0.02863277 0.0005675144 -0.0007995394)
(0.02514968 -0.001624762 -0.0003714486)
(0.01842017 -0.005235261 4.911164e-05)
(0.008743058 -0.01009918 0.0004865822)
(0.006294654 -0.009016348 0.0004027867)
(0.01558785 -0.006540041 0.0005395997)
(0.02217694 -0.003584035 0.0006343482)
(0.02525178 -0.001378898 0.0006640304)
(0.02597214 3.049184e-05 0.0006242709)
(0.02548685 0.0007661917 0.0005303622)
(0.02458881 0.001026023 0.0004044118)
(0.02375632 0.0009883372 0.0002552446)
(0.02330343 0.0007162689 7.446065e-05)
(0.0234919 0.0001753749 -0.0001805276)
(0.02483541 -0.000538084 -0.0005692541)
(0.0264564 0.001290805 -0.001382302)
(0.02194847 0.01970714 -0.00245021)
(-0.02093533 0.01975335 -0.003629412)
(-0.02526104 0.001404226 -0.002070316)
(-0.02325474 -0.0005591514 -0.0009008641)
(-0.02167745 0.0001336425 -0.0003344571)
(-0.02132124 0.000701233 -1.393883e-07)
(-0.02165588 0.001015576 0.0002051483)
(-0.0223923 0.001117224 0.0003452651)
(-0.02322514 0.0009608935 0.0004424235)
(-0.02371417 0.0003682665 0.0004977155)
(-0.02308669 -0.0008791994 0.0004959499)
(-0.02026224 -0.002881673 0.0004365555)
(-0.01419567 -0.005572537 0.0003339849)
(-0.005635304 -0.007735209 0.0002292517)