/*--------------------------------*- C++ -*----------------------------------*\
| =========                 |                                                 |
| \\      /  F ield         | OpenFOAM: The Open Source CFD Toolbox           |
|  \\    /   O peration     | Version:  v2006                                 |
|   \\  /    A nd           | Website:  www.openfoam.com                      |
|    \\/     M anipulation  |                                                 |
\*---------------------------------------------------------------------------*/
FoamFile
{
    version     2.0;
    format      ascii;
    class       volScalarField;
    location    "61";
    object      alphat;
}
// * * * * * * * * * * * * * * * * * * * * * * * * * * * * * * * * * * * * * //

dimensions      [1 -1 -1 0 0 0 0];


internalField   nonuniform List<scalar> 
78750
(
0.00124571
0.00273123
0.00188271
0.00064928
0.000180152
3.10446e-05
2.30807e-05
1.75982e-05
2.73713e-05
2.28801e-05
2.98898e-05
2.90685e-05
3.5383e-05
3.68162e-05
4.18878e-05
4.6403e-05
5.18265e-05
5.82067e-05
6.56387e-05
7.45448e-05
8.38341e-05
8.56485e-05
8.4526e-05
8.32727e-05
8.18613e-05
8.02608e-05
7.84134e-05
7.62504e-05
7.3706e-05
7.06653e-05
6.69551e-05
5.97104e-05
4.86704e-05
1.16536e-05
1.87505e-07
3.19825e-05
8.93161e-05
0.000118919
2.17933e-05
2.4968e-05
3.05982e-05
3.10066e-05
4.05688e-05
4.37148e-05
5.12041e-05
5.56965e-05
6.26609e-05
6.77037e-05
7.38689e-05
7.95639e-05
8.53556e-05
9.13729e-05
9.76493e-05
0.000104489
0.000112222
0.000121195
0.000131486
0.000142411
0.000152731
0.000161027
0.000165431
0.000164597
0.000159165
0.000150056
0.000137058
0.000118129
8.69689e-05
3.75448e-05
9.50703e-06
1.49528e-06
9.90635e-06
1.50776e-05
4.64369e-05
4.80379e-05
7.25007e-05
0.000165837
0.000120544
8.99698e-05
8.14654e-05
7.55207e-05
7.26089e-05
7.16013e-05
7.22649e-05
7.37469e-05
7.5849e-05
7.80664e-05
7.97912e-05
8.06183e-05
8.04717e-05
7.96945e-05
7.90225e-05
7.95393e-05
8.21197e-05
8.67929e-05
9.25128e-05
9.78172e-05
0.000101987
0.000105245
0.000107303
0.000105135
9.23319e-05
6.2171e-05
2.67427e-05
1.19411e-05
2.76527e-06
1.46542e-06
1.09557e-05
3.03001e-05
9.29262e-05
0.000142627
0.000148954
0.000142834
0.000129567
0.000114732
0.000103391
9.58483e-05
9.12473e-05
8.88366e-05
8.82391e-05
8.92184e-05
9.14682e-05
9.41981e-05
9.58909e-05
9.48815e-05
9.07058e-05
8.47083e-05
7.91477e-05
7.60477e-05
7.6573e-05
8.04726e-05
8.56825e-05
8.9075e-05
8.87779e-05
8.58774e-05
8.23969e-05
7.66401e-05
5.89866e-05
2.81205e-05
1.49162e-05
3.6961e-06
2.72584e-06
5.15284e-05
6.97146e-05
6.74531e-05
8.09861e-05
0.000127718
0.000202475
0.000234442
0.000201521
0.000160371
0.000132719
0.000115664
0.000104165
9.55883e-05
8.90194e-05
8.4383e-05
8.21026e-05
8.28333e-05
8.67009e-05
9.15609e-05
9.15095e-05
8.1038e-05
6.57491e-05
5.93625e-05
6.65782e-05
8.45614e-05
0.00010532
0.00011505
0.000108333
9.43381e-05
7.86531e-05
5.28474e-05
2.13145e-05
1.22711e-05
5.05464e-06
1.80524e-06
1.21271e-05
2.67819e-05
5.18691e-05
8.83107e-05
0.000124495
0.000145605
0.000147924
0.000139359
0.000129106
0.00012127
0.000116518
0.000114328
0.000113674
0.000112745
0.000108963
0.000100882
9.01651e-05
8.07783e-05
7.63225e-05
7.78293e-05
8.20187e-05
8.17975e-05
6.80221e-05
5.48509e-05
6.37994e-05
8.61233e-05
9.80904e-05
8.69845e-05
6.3193e-05
4.25737e-05
2.97402e-05
2.32785e-05
2.90842e-05
6.20148e-06
3.30545e-06
2.08317e-05
6.86755e-05
0.000129502
0.000160561
0.000181225
0.000193769
0.00018708
0.000164754
0.000140464
0.00012158
0.000109085
0.000101966
9.92805e-05
0.000100497
0.000104843
0.000109966
0.00011027
9.97797e-05
8.16813e-05
6.59725e-05
5.76488e-05
5.82692e-05
6.90567e-05
7.11736e-05
4.62571e-05
4.70412e-05
7.47429e-05
0.000114961
0.00011272
7.02683e-05
3.51915e-05
2.48621e-05
3.62634e-05
6.24771e-06
6.0269e-06
2.99432e-05
9.58896e-05
0.000170575
0.000188895
0.000180015
0.000163268
0.000145063
0.000129806
0.000119986
0.000116053
0.000117083
0.000120786
0.000123827
0.000123706
0.000120638
0.000117026
0.000115615
0.000117758
0.00012117
0.000119256
0.000108075
9.40691e-05
8.60119e-05
8.75046e-05
9.99634e-05
0.000106756
7.53221e-05
5.36443e-05
5.76215e-05
6.62617e-05
3.59274e-05
1.00146e-05
1.08008e-05
7.49967e-06
8.0991e-06
5.30647e-05
0.000187978
0.000205171
0.000181521
0.000148815
0.000117695
9.5069e-05
8.22324e-05
7.78287e-05
8.14395e-05
9.42605e-05
0.000116562
0.00014286
0.000162071
0.000166437
0.000157283
0.00014325
0.000133132
0.000128576
0.000120756
9.72557e-05
6.45565e-05
4.57271e-05
5.14755e-05
4.6457e-05
3.41559e-05
4.4181e-05
5.4696e-05
5.96771e-05
6.52413e-05
4.6574e-05
2.41956e-05
3.68792e-05
9.76477e-06
7.85782e-06
4.29603e-05
0.000143483
0.000202961
0.000188633
0.000144328
0.000104164
7.97974e-05
6.78387e-05
6.36612e-05
6.4835e-05
7.13271e-05
8.4734e-05
0.000105496
0.000129103
0.000146586
0.000151238
0.000143265
0.000128791
0.000114846
0.000104369
9.55409e-05
8.41744e-05
7.11122e-05
6.80299e-05
9.06199e-05
0.000110153
7.36482e-05
4.22583e-05
2.67698e-05
2.35459e-05
3.07599e-05
5.33432e-05
0.000103362
9.09169e-06
7.27429e-06
4.00654e-05
0.00014009
0.000202716
0.000186693
0.000143195
0.000103385
7.79727e-05
6.48525e-05
5.98699e-05
6.04302e-05
6.53894e-05
7.39228e-05
8.49872e-05
9.75397e-05
0.000110134
0.000120511
0.000126496
0.000127097
0.000122613
0.000114101
0.000103517
9.30921e-05
8.41203e-05
7.69904e-05
7.25753e-05
7.0767e-05
6.3935e-05
4.87673e-05
3.2122e-05
1.63656e-05
1.47e-05
2.65591e-05
9.88444e-05
7.67257e-06
7.38733e-06
3.64243e-05
0.000116714
0.00018493
0.000182064
0.000144117
0.000101244
7.2098e-05
5.71221e-05
5.11493e-05
5.0617e-05
5.44518e-05
6.31644e-05
7.66626e-05
9.14284e-05
0.000102528
0.000109972
0.000116905
0.000123872
0.000128374
0.00012793
0.000122186
0.000112466
0.000100498
8.76316e-05
7.47843e-05
6.23948e-05
5.40641e-05
5.0102e-05
4.49768e-05
4.41593e-05
2.60805e-05
1.3103e-05
2.59166e-05
7.9779e-06
7.5834e-06
3.62245e-05
0.000108736
0.000173145
0.000179472
0.000150005
0.000107074
7.41957e-05
5.64343e-05
4.86884e-05
4.67081e-05
4.89546e-05
5.61978e-05
7.00739e-05
8.93502e-05
0.000105312
0.000108733
0.000105506
0.00010691
0.00011496
0.000125087
0.000132763
0.000136781
0.000138309
0.000136988
0.000124434
8.12347e-05
4.2181e-05
2.53441e-05
2.78853e-05
4.42535e-05
3.0651e-05
9.9218e-06
2.06275e-05
9.92662e-06
7.42026e-06
3.39298e-05
0.000102135
0.000167916
0.000172993
0.000140389
9.57043e-05
6.42077e-05
4.83221e-05
4.1865e-05
4.02705e-05
4.12669e-05
4.56428e-05
5.87918e-05
9.30502e-05
0.000161668
0.000227409
0.000227011
0.000208728
0.00016941
0.000144112
0.000128797
0.000116075
0.000102642
8.64249e-05
6.72849e-05
4.85154e-05
3.7542e-05
4.12841e-05
6.11473e-05
7.28172e-05
3.96438e-05
2.79194e-05
6.98078e-05
1.12463e-05
7.46139e-06
3.11715e-05
8.98492e-05
0.000157114
0.000163521
0.000131817
8.99149e-05
6.03599e-05
4.53289e-05
4.00571e-05
4.1199e-05
4.60435e-05
5.19812e-05
5.94436e-05
7.41948e-05
0.000103417
0.000142574
0.000170877
0.000180279
0.000173044
0.000146703
0.000110031
8.0836e-05
6.09041e-05
4.61694e-05
3.67584e-05
3.26722e-05
3.5406e-05
5.02254e-05
8.16945e-05
9.39443e-05
7.01493e-05
7.01991e-05
0.000121102
1.05392e-05
8.22962e-06
3.28712e-05
9.90567e-05
0.000163462
0.000157384
0.000115171
7.1439e-05
4.56007e-05
3.32883e-05
2.86835e-05
2.96447e-05
3.54915e-05
4.47227e-05
5.46348e-05
6.53171e-05
8.21404e-05
0.000111271
0.00014624
0.000164184
0.000160284
0.000142753
0.000118178
9.48751e-05
7.77746e-05
6.30293e-05
4.60502e-05
3.29559e-05
2.78117e-05
2.99772e-05
3.86239e-05
5.38141e-05
7.55129e-05
0.000103374
7.04183e-05
8.95786e-06
9.23149e-06
3.63666e-05
0.000111757
0.000165035
0.000143445
9.1511e-05
5.17168e-05
3.20835e-05
2.40895e-05
2.30068e-05
2.74646e-05
3.71857e-05
5.1129e-05
6.74735e-05
8.50676e-05
0.000102303
0.000116423
0.000125361
0.000127186
0.00012139
0.000113202
0.000109894
0.000111564
0.000110018
0.000100133
8.33343e-05
6.27557e-05
4.3681e-05
3.15733e-05
2.77615e-05
3.08001e-05
4.31744e-05
7.39856e-05
6.32156e-05
8.37424e-06
9.91568e-06
4.25169e-05
0.000133456
0.000160198
0.000121643
6.78878e-05
3.50243e-05
1.91313e-05
1.22261e-05
1.21716e-05
1.92749e-05
3.23153e-05
4.6503e-05
5.76817e-05
6.91859e-05
8.98985e-05
0.000126854
0.000165256
0.000175409
0.00016035
0.000136508
0.000115987
0.000104668
0.000101601
0.000101028
9.6112e-05
8.34009e-05
6.46531e-05
4.63711e-05
3.53415e-05
3.08398e-05
3.04329e-05
4.23948e-05
7.50334e-05
8.74419e-06
9.54479e-06
4.41089e-05
0.000127846
0.000148225
0.000113925
6.63314e-05
3.56956e-05
1.9288e-05
1.08411e-05
1.04184e-05
2.08567e-05
3.67153e-05
4.81216e-05
5.5929e-05
6.03964e-05
6.0054e-05
6.09549e-05
6.98403e-05
8.72196e-05
0.00010636
0.000119843
0.000127471
0.00013273
0.000136336
0.000135516
0.000123306
9.01976e-05
5.67871e-05
4.36478e-05
4.2027e-05
4.01509e-05
2.99999e-05
3.10901e-05
8.39393e-05
9.25901e-06
9.35536e-06
4.40378e-05
0.000132005
0.000150218
0.000117208
7.37413e-05
4.27883e-05
2.46603e-05
1.49989e-05
1.31946e-05
2.54636e-05
5.94031e-05
5.27203e-05
3.74369e-05
3.98412e-05
6.25323e-05
0.000110113
0.000160294
0.000171522
0.000154462
0.000135587
0.000123848
0.000119971
0.000121633
0.000121232
0.000106405
7.64602e-05
5.56517e-05
5.26822e-05
5.81254e-05
5.40372e-05
3.76427e-05
4.10526e-05
0.000105225
9.89204e-06
9.33381e-06
3.87984e-05
0.000116194
0.000156769
0.000146088
0.000122464
9.18768e-05
5.80051e-05
3.31623e-05
1.87863e-05
1.10691e-05
1.05309e-05
1.98393e-05
5.23983e-05
0.000157124
0.000142203
6.93596e-05
5.35314e-05
7.11782e-05
0.000118564
0.00016
0.000163262
0.000143481
0.000118127
9.61821e-05
7.8789e-05
6.59772e-05
6.17013e-05
6.75632e-05
7.44501e-05
6.54239e-05
5.07342e-05
6.29268e-05
0.000121739
1.05e-05
9.97574e-06
4.07628e-05
0.000119719
0.000151829
0.000126454
8.8842e-05
6.183e-05
4.88271e-05
4.52349e-05
4.13019e-05
2.98462e-05
1.9087e-05
9.15323e-06
2.33996e-06
1.05051e-05
3.87661e-05
0.000111312
0.000134268
0.000111326
0.000116273
0.000149368
0.000169289
0.00015541
0.000121232
8.70298e-05
6.81255e-05
6.54077e-05
7.53365e-05
8.95508e-05
9.18857e-05
7.89598e-05
7.08857e-05
9.3163e-05
0.000115016
1.07395e-05
1.01619e-05
4.47187e-05
0.000132167
0.000151451
0.000126716
8.97203e-05
5.86282e-05
3.82315e-05
2.58029e-05
1.85544e-05
1.50264e-05
1.11339e-05
4.08373e-06
2.25921e-07
8.10731e-06
4.08855e-05
0.000183332
0.000248265
0.000165995
0.000110279
0.000100184
0.000119963
0.000137282
0.000118795
8.44582e-05
6.28977e-05
5.94393e-05
7.24052e-05
9.49444e-05
0.000103662
9.49695e-05
9.43545e-05
0.00012008
9.43988e-05
1.04541e-05
1.02344e-05
4.55259e-05
0.000133669
0.000150625
0.000119552
8.38306e-05
5.99495e-05
4.52854e-05
3.47394e-05
2.6198e-05
1.89982e-05
1.2482e-05
5.63154e-06
1.26892e-06
2.13484e-06
6.14436e-06
2.63711e-05
9.53513e-05
0.0001691
0.000141539
0.000100315
8.44631e-05
9.19709e-05
0.000103343
9.14551e-05
6.87721e-05
5.67572e-05
5.85576e-05
7.28534e-05
9.30766e-05
0.000103384
0.000108303
0.00012546
7.97123e-05
1.0069e-05
1.02557e-05
4.60913e-05
0.000137752
0.000144904
0.00010944
7.31167e-05
4.99501e-05
3.69406e-05
2.90308e-05
2.36217e-05
1.94686e-05
1.45943e-05
7.40417e-06
3.21387e-06
4.2301e-07
5.3606e-08
2.14506e-06
1.1798e-05
4.58061e-05
0.000119258
0.000131732
0.000100855
8.05611e-05
8.32977e-05
9.44106e-05
8.86256e-05
7.03206e-05
5.77002e-05
5.53198e-05
6.35742e-05
8.21641e-05
0.00010368
0.000121033
7.00924e-05
1.00398e-05
1.03061e-05
4.69623e-05
0.000135877
0.000144175
0.000111689
7.69157e-05
5.37129e-05
4.05821e-05
3.30032e-05
2.76087e-05
2.29282e-05
1.84352e-05
1.26218e-05
4.7282e-06
2.23565e-06
3.28079e-07
1.34875e-06
6.73573e-07
4.47974e-06
2.31862e-05
7.02539e-05
9.65286e-05
7.6262e-05
6.35158e-05
7.35151e-05
9.53439e-05
0.00010063
8.28163e-05
6.18453e-05
5.11927e-05
5.4924e-05
7.687e-05
0.000110888
6.23067e-05
9.91119e-06
1.01202e-05
4.64704e-05
0.000138254
0.000145175
0.000112353
7.65924e-05
5.24715e-05
3.85608e-05
3.07201e-05
2.65574e-05
2.42265e-05
2.16028e-05
1.68085e-05
8.78574e-06
2.96679e-06
4.33442e-07
9.6989e-07
1.40375e-06
1.0739e-06
4.31114e-06
2.18337e-05
5.85127e-05
7.01477e-05
6.06901e-05
6.35416e-05
8.35274e-05
0.000108317
0.000117153
0.000100145
7.00952e-05
5.26993e-05
5.82324e-05
9.28362e-05
6.45399e-05
9.97862e-06
9.80456e-06
4.42303e-05
0.000129989
0.000148658
0.000123029
8.70542e-05
6.07889e-05
4.56235e-05
3.62319e-05
2.98661e-05
2.61885e-05
2.43758e-05
2.1932e-05
1.53522e-05
4.05166e-06
7.85398e-07
5.47999e-07
9.75869e-07
6.22849e-07
8.77063e-07
1.35131e-05
5.68198e-05
0.000110394
0.000102594
8.72522e-05
8.14995e-05
8.16148e-05
8.34437e-05
8.34223e-05
7.73119e-05
7.05354e-05
7.82724e-05
0.000109151
7.02814e-05
1.06979e-05
9.66855e-06
4.52611e-05
0.000133118
0.000150206
0.000122152
8.33686e-05
5.69888e-05
4.38866e-05
3.75467e-05
3.32366e-05
2.98409e-05
2.79708e-05
2.65028e-05
2.11808e-05
8.99519e-06
2.21873e-06
8.64315e-07
7.27386e-07
5.41792e-08
2.74409e-06
1.48795e-05
6.32467e-05
0.000178408
0.000178764
0.000156625
0.000124119
8.87622e-05
6.61279e-05
5.82272e-05
6.16314e-05
7.645e-05
0.000106971
0.000135596
6.51883e-05
1.08142e-05
9.3514e-06
4.29985e-05
0.000126891
0.000156476
0.000137627
9.71149e-05
6.41712e-05
4.67594e-05
3.84233e-05
3.38014e-05
3.08326e-05
2.95515e-05
2.9504e-05
2.72643e-05
1.77124e-05
4.15848e-06
5.60697e-07
1.05505e-06
4.60599e-07
1.8501e-06
9.71212e-06
3.17055e-05
7.95664e-05
0.000157172
0.000198804
0.000182335
0.000148032
0.000114901
9.22893e-05
8.33309e-05
8.71309e-05
0.000102145
0.000114439
5.05265e-05
9.3171e-06
9.31957e-06
4.25742e-05
0.000125784
0.000156805
0.000132267
9.02117e-05
6.14555e-05
4.80675e-05
4.23525e-05
3.84525e-05
3.43153e-05
3.11848e-05
3.04109e-05
3.083e-05
2.791e-05
1.84331e-05
6.34754e-06
3.25407e-06
1.26148e-06
6.71816e-07
3.39717e-06
1.12813e-05
2.42196e-05
4.36104e-05
6.98465e-05
9.98775e-05
0.000125471
0.000136933
0.000140602
0.000147159
0.000154869
0.000145835
0.000105645
3.64452e-05
7.52329e-06
9.44651e-06
4.17809e-05
0.000126107
0.000164038
0.000139022
9.20977e-05
5.99968e-05
4.54007e-05
4.01923e-05
3.88715e-05
3.77914e-05
3.54539e-05
3.32599e-05
3.29706e-05
3.39535e-05
3.28058e-05
2.69541e-05
1.75981e-05
7.29212e-06
1.58183e-07
1.2023e-06
5.61528e-07
3.6848e-06
1.03625e-05
1.95629e-05
3.03775e-05
4.39006e-05
5.94725e-05
7.62212e-05
9.31839e-05
0.000107296
0.000116617
9.1507e-05
3.07537e-05
6.65669e-06
9.67735e-06
4.08473e-05
0.000123795
0.000161782
0.000127
7.94489e-05
5.37686e-05
4.45495e-05
4.25077e-05
4.23811e-05
4.19884e-05
4.07413e-05
3.8958e-05
3.78032e-05
3.82579e-05
4.00009e-05
4.1191e-05
3.95801e-05
3.4339e-05
2.65177e-05
1.77056e-05
9.05448e-06
2.41406e-06
5.17366e-06
4.77649e-06
5.62388e-06
8.18623e-06
1.26873e-05
1.934e-05
2.94342e-05
4.40079e-05
4.85855e-05
5.207e-05
3.6173e-05
5.90005e-06
1.02247e-05
4.23663e-05
0.000129431
0.000158996
0.000113479
6.66659e-05
4.54995e-05
3.98631e-05
4.11667e-05
4.45145e-05
4.69616e-05
4.75296e-05
4.69293e-05
4.64729e-05
4.72322e-05
4.97206e-05
5.35319e-05
5.70605e-05
5.78851e-05
5.47433e-05
4.8435e-05
4.04469e-05
3.17816e-05
2.31411e-05
1.55076e-05
9.27414e-06
4.27304e-06
1.2307e-06
3.14711e-06
2.53291e-06
3.61976e-06
7.10211e-06
1.15573e-05
2.57328e-05
6.68386e-06
1.08807e-05
4.61509e-05
0.000137748
0.000146131
9.17754e-05
5.22854e-05
3.81093e-05
3.77223e-05
4.37412e-05
5.05308e-05
5.48597e-05
5.64679e-05
5.66008e-05
5.68722e-05
5.85012e-05
6.2133e-05
6.77109e-05
7.38036e-05
7.76775e-05
7.7417e-05
7.34522e-05
6.72454e-05
5.98545e-05
5.17755e-05
4.32349e-05
3.45324e-05
2.64817e-05
1.80762e-05
1.053e-05
4.63698e-06
9.11156e-07
4.57177e-06
6.18967e-07
4.17178e-07
1.12192e-05
1.14399e-05
5.204e-05
0.000143927
0.000131598
7.8563e-05
4.57976e-05
3.499e-05
3.69973e-05
4.58727e-05
5.51378e-05
6.10138e-05
6.40402e-05
6.60802e-05
6.86934e-05
7.2935e-05
7.93327e-05
8.78151e-05
9.72262e-05
0.000104825
0.000107827
0.000105925
0.000100654
9.3265e-05
8.41819e-05
7.35165e-05
6.15843e-05
4.95135e-05
3.72875e-05
2.47116e-05
4.99224e-06
1.2783e-06
2.62087e-08
3.36496e-06
2.46359e-05
1.27383e-05
1.16708e-05
5.69662e-05
0.000142189
0.000127197
8.27593e-05
5.07741e-05
3.72501e-05
3.63055e-05
4.34862e-05
5.3656e-05
6.21037e-05
6.75847e-05
7.1663e-05
7.64524e-05
8.36077e-05
9.4034e-05
0.000107983
0.000125194
0.000144785
0.000163924
0.000177466
0.000182598
0.000180584
0.000171968
0.000155282
0.000130781
0.000101392
6.76428e-05
1.81021e-05
1.23929e-06
1.54095e-06
7.40634e-06
2.9405e-05
0.000108072
1.15227e-05
1.14777e-05
5.6205e-05
0.000139263
0.000143598
0.000115474
7.6509e-05
4.90591e-05
3.72034e-05
3.5994e-05
4.15618e-05
5.09613e-05
6.11175e-05
7.012e-05
7.83997e-05
8.76768e-05
9.95972e-05
0.00011515
0.000134578
0.000157237
0.000181251
0.000203183
0.000218315
0.0002224
0.000213013
0.00018978
0.000155262
0.000114464
6.89076e-05
2.1296e-05
1.73977e-06
1.37025e-06
6.28829e-06
4.14911e-05
5.92198e-05
9.83943e-06
1.09957e-05
5.08616e-05
0.000133803
0.00015819
0.000150726
0.000121989
8.04925e-05
5.09342e-05
3.7233e-05
3.35383e-05
3.65889e-05
4.5118e-05
5.73437e-05
7.07045e-05
8.40048e-05
9.80245e-05
0.00011382
0.000131543
0.000150136
0.000167354
0.000179827
0.000184002
0.000178386
0.000164337
0.000144467
0.000121047
9.57723e-05
6.90102e-05
3.92895e-05
1.14592e-05
1.08084e-06
1.46778e-06
1.88426e-05
6.37504e-05
9.20588e-06
1.05841e-05
4.64203e-05
0.000129557
0.000166951
0.000167144
0.000154957
0.000130118
9.08386e-05
5.76788e-05
3.98127e-05
3.25568e-05
3.26505e-05
3.94741e-05
5.27216e-05
7.05934e-05
9.07195e-05
0.000112185
0.000135043
0.000158503
0.000180008
0.000195608
0.000201419
0.000195709
0.000180227
0.000158605
0.000133873
0.000107811
8.08417e-05
5.13395e-05
2.02114e-05
3.83857e-06
9.09904e-07
1.26754e-05
8.27688e-05
9.4955e-06
1.03567e-05
4.38547e-05
0.000127621
0.0001714
0.000167844
0.000151994
0.000138464
0.000126645
0.00010137
6.73707e-05
4.41935e-05
3.31525e-05
3.0892e-05
3.65082e-05
5.05154e-05
7.27198e-05
0.000101382
0.000134645
0.000170959
0.00020697
0.000235537
0.000245716
0.000243661
0.000224076
0.000195326
0.000162672
0.000128414
9.23117e-05
5.21399e-05
1.7281e-05
4.4767e-06
3.47236e-06
1.55297e-05
8.59787e-05
9.68542e-06
1.05229e-05
4.39905e-05
0.000125893
0.000171345
0.000166713
0.000142553
0.000117657
0.000106553
0.000108752
0.000104477
7.59667e-05
4.80196e-05
3.39179e-05
3.06608e-05
3.64836e-05
5.20974e-05
7.84891e-05
0.000114821
0.000157895
0.000201343
0.000234863
0.000246576
0.000241611
0.000219924
0.000191214
0.000159707
0.000126816
9.1443e-05
5.06987e-05
1.70814e-05
5.23538e-06
5.9277e-06
2.26206e-05
6.48164e-05
9.23452e-06
1.08947e-05
4.63688e-05
0.000130036
0.000172359
0.000166556
0.000141153
0.000110145
8.97022e-05
8.66071e-05
9.75623e-05
0.000103179
7.80363e-05
4.83214e-05
3.40429e-05
3.20321e-05
3.99635e-05
5.86767e-05
8.9317e-05
0.000129728
0.000171281
0.000200365
0.000208278
0.000198226
0.000178712
0.000155795
0.000132084
0.000108139
8.35847e-05
5.68258e-05
2.77909e-05
9.25942e-06
6.03449e-06
2.15123e-05
6.01819e-05
8.7515e-06
1.14045e-05
5.07188e-05
0.000140753
0.000174552
0.000163122
0.000136985
0.000108917
8.85159e-05
8.0471e-05
8.49904e-05
9.61524e-05
9.48928e-05
6.85529e-05
4.4202e-05
3.45093e-05
3.649e-05
4.87751e-05
7.20379e-05
0.000104881
0.000139485
0.000163669
0.00017084
0.000164401
0.000150983
0.000134827
0.000117901
0.000101029
8.37484e-05
6.49355e-05
4.51137e-05
2.41106e-05
7.44481e-06
1.36341e-05
8.44597e-05
8.65322e-06
1.17469e-05
5.53571e-05
0.0001502
0.00017151
0.000153883
0.000125817
0.000101198
8.66883e-05
8.21628e-05
8.5528e-05
9.2796e-05
9.4488e-05
7.93711e-05
5.53386e-05
4.06517e-05
3.84863e-05
4.73817e-05
6.71477e-05
9.55652e-05
0.000124217
0.000142974
0.000148836
0.000145306
0.000136391
0.000124543
0.000111388
9.85271e-05
8.61846e-05
6.90604e-05
5.0055e-05
3.6475e-05
1.17191e-05
8.31397e-06
3.77977e-05
9.28382e-06
1.18345e-05
5.80322e-05
0.000152025
0.000167025
0.000150328
0.000124163
9.99847e-05
8.50992e-05
8.03754e-05
8.33418e-05
8.94853e-05
9.14588e-05
8.18891e-05
6.29692e-05
4.77935e-05
4.35324e-05
5.09858e-05
7.03505e-05
9.94648e-05
0.000129097
0.000147999
0.000153388
0.000149246
0.000139715
0.000127262
0.000113715
0.000100143
8.33244e-05
5.46641e-05
3.44618e-05
2.38938e-05
1.17476e-05
1.16306e-05
5.39328e-05
1.03656e-05
1.16192e-05
5.75627e-05
0.00014933
0.000165093
0.000152816
0.000130912
0.000106771
8.77306e-05
7.78554e-05
7.69444e-05
8.17859e-05
8.59827e-05
8.19448e-05
6.86363e-05
5.51383e-05
5.02234e-05
5.7373e-05
7.87149e-05
0.000114952
0.000158235
0.000190366
0.000201177
0.000195689
0.000179719
0.000156102
0.000126863
9.04797e-05
4.84854e-05
2.62002e-05
2.18186e-05
2.00131e-05
1.6829e-05
2.81394e-05
0.000113963
1.08699e-05
1.12913e-05
5.47309e-05
0.00014685
0.000167753
0.000159521
0.00014158
0.000118353
9.46731e-05
7.72295e-05
6.94685e-05
7.05483e-05
7.62938e-05
7.91364e-05
7.33883e-05
6.31671e-05
5.79659e-05
6.39981e-05
8.52107e-05
0.000125801
0.000187571
0.000246627
0.000246579
0.000246088
0.000245028
0.000183804
0.000111079
5.46292e-05
2.47052e-05
1.62758e-05
2.07109e-05
2.74025e-05
3.17419e-05
6.23731e-05
8.3155e-05
1.03953e-05
1.10111e-05
5.18333e-05
0.000144451
0.000170161
0.000162103
0.000145202
0.000125619
0.0001042
8.31538e-05
6.83143e-05
6.29099e-05
6.57505e-05
7.17952e-05
7.36136e-05
6.90971e-05
6.5096e-05
6.96776e-05
8.83353e-05
0.000124386
0.000175354
0.000226033
0.000246903
0.000237815
0.000194906
0.000139718
8.486e-05
4.26763e-05
1.9884e-05
1.26972e-05
1.75569e-05
3.54583e-05
6.15674e-05
0.000103739
5.71023e-05
9.31562e-06
1.09786e-05
5.07444e-05
0.00014421
0.000170585
0.000158321
0.000138038
0.000120256
0.000105709
8.98326e-05
7.30672e-05
6.20182e-05
5.99421e-05
6.48872e-05
7.09218e-05
7.23223e-05
7.08378e-05
7.37511e-05
8.71354e-05
0.000113305
0.00014785
0.000177089
0.000186531
0.000174159
0.000147366
0.000113825
7.90808e-05
4.76749e-05
2.45801e-05
1.30383e-05
1.23535e-05
2.52726e-05
6.70597e-05
0.000107128
4.42812e-05
8.51558e-06
1.11596e-05
5.23782e-05
0.000146827
0.000168821
0.000151543
0.000127049
0.000108666
9.82971e-05
8.99427e-05
7.77034e-05
6.48988e-05
5.85495e-05
6.02424e-05
6.65847e-05
7.21502e-05
7.50093e-05
7.9145e-05
8.99585e-05
0.00010975
0.000134882
0.000155007
0.000159866
0.000148398
0.000126622
0.000100541
7.51465e-05
5.38228e-05
3.60201e-05
2.07891e-05
1.25886e-05
1.51494e-05
3.5913e-05
8.99648e-05
4.18948e-05
8.37965e-06
1.13745e-05
5.52137e-05
0.000150203
0.000165675
0.000144324
0.000117359
9.87156e-05
9.00708e-05
8.59081e-05
7.91131e-05
6.85095e-05
6.0589e-05
5.98318e-05
6.51398e-05
7.22253e-05
7.80842e-05
8.42074e-05
9.43589e-05
0.000110339
0.00012926
0.000143577
0.00014604
0.000135401
0.000115523
9.14302e-05
6.88268e-05
5.29788e-05
4.36491e-05
3.4539e-05
2.19252e-05
1.44719e-05
2.04247e-05
5.25923e-05
4.93322e-05
8.77713e-06
1.15046e-05
5.80328e-05
0.000153312
0.000161623
0.000136087
0.000108474
9.16235e-05
8.50466e-05
8.30064e-05
7.89942e-05
7.06286e-05
6.26945e-05
6.06841e-05
6.54327e-05
7.39855e-05
8.31394e-05
9.27426e-05
0.000104851
0.000120176
0.000135593
0.000144846
0.000142847
0.000129001
0.000106101
7.9373e-05
5.77753e-05
4.74532e-05
4.60064e-05
4.64231e-05
3.79284e-05
2.1819e-05
1.73206e-05
3.48406e-05
6.39951e-05
9.44262e-06
1.14821e-05
5.91115e-05
0.000154747
0.000156453
0.000126112
9.88307e-05
8.5476e-05
8.26316e-05
8.34885e-05
8.15758e-05
7.44878e-05
6.64397e-05
6.34965e-05
6.79383e-05
7.78953e-05
8.99591e-05
0.00010276
0.000117279
0.000133684
0.000148517
0.000155038
0.000147496
0.000125218
9.31561e-05
6.24447e-05
4.54139e-05
4.26928e-05
4.8617e-05
5.51695e-05
4.9083e-05
2.95696e-05
2.05736e-05
3.797e-05
7.2857e-05
9.97023e-06
1.1466e-05
6.02438e-05
0.000155276
0.000149058
0.00011393
8.76686e-05
7.79742e-05
7.92854e-05
8.38209e-05
8.44024e-05
7.85338e-05
7.04677e-05
6.68567e-05
7.13662e-05
8.36153e-05
0.000100369
0.00011871
0.000137864
0.000157019
0.000171684
0.000172755
0.000152662
0.000114625
7.34347e-05
4.55095e-05
3.59431e-05
4.01885e-05
5.22432e-05
6.08083e-05
5.31009e-05
3.55973e-05
2.97203e-05
5.70688e-05
6.92043e-05
1.00434e-05
1.14291e-05
6.1498e-05
0.000154173
0.00014035
0.00010254
7.8007e-05
7.10255e-05
7.54878e-05
8.36762e-05
8.75559e-05
8.38194e-05
7.64471e-05
7.24274e-05
7.63909e-05
8.91163e-05
0.000107895
0.00012908
0.000150575
0.000170417
0.000182756
0.000176746
0.000145945
0.000100143
5.9241e-05
3.57742e-05
2.96208e-05
3.69439e-05
5.29289e-05
6.23359e-05
5.53052e-05
4.39125e-05
4.65064e-05
8.95794e-05
6.20685e-05
9.74827e-06
1.13395e-05
6.22826e-05
0.000152307
0.000133083
9.43624e-05
7.10335e-05
6.47121e-05
6.9436e-05
7.86733e-05
8.50782e-05
8.47563e-05
8.03934e-05
7.82043e-05
8.32445e-05
9.72808e-05
0.000117956
0.000140326
0.00016004
0.000173578
0.000176122
0.000162135
0.000130903
9.03587e-05
5.39847e-05
3.18417e-05
2.47873e-05
3.06755e-05
4.82394e-05
6.31094e-05
6.00596e-05
5.56658e-05
6.85432e-05
0.000115363
5.71008e-05
9.36084e-06
1.11307e-05
6.07851e-05
0.000150897
0.00013059
9.08631e-05
6.72716e-05
6.00978e-05
6.33564e-05
7.1986e-05
8.03341e-05
8.42332e-05
8.42467e-05
8.47257e-05
9.02501e-05
0.000103021
0.000121576
0.000141423
0.000157477
0.000165562
0.0001627
0.000147885
0.000122726
9.0874e-05
5.83018e-05
3.39136e-05
2.2527e-05
2.32081e-05
3.6144e-05
5.75202e-05
6.61723e-05
6.88793e-05
8.815e-05
0.000125099
5.47044e-05
9.07569e-06
1.09577e-05
5.79214e-05
0.000150547
0.000131116
8.8925e-05
6.43692e-05
5.59331e-05
5.67333e-05
6.30356e-05
7.1675e-05
7.9463e-05
8.53574e-05
9.12465e-05
0.000100089
0.00011354
0.000130488
0.000147183
0.000158988
0.000162207
0.000155465
0.000140253
0.000119464
9.51312e-05
6.83056e-05
4.2738e-05
2.53578e-05
1.92509e-05
2.41072e-05
4.1112e-05
6.42249e-05
7.93544e-05
0.000101352
0.000127169
5.38173e-05
8.94503e-06
1.09101e-05
5.50484e-05
0.000148738
0.00012749
8.29499e-05
6.05923e-05
5.40518e-05
5.44233e-05
5.867e-05
6.6035e-05
7.52008e-05
8.47476e-05
9.46282e-05
0.00010612
0.000120281
0.000136463
0.00015187
0.000162471
0.000164594
0.000156853
0.000141215
0.000121584
0.000100848
7.93385e-05
5.65165e-05
3.51391e-05
2.13664e-05
1.80255e-05
2.56402e-05
4.56209e-05
7.45963e-05
0.000104484
0.000125554
5.38377e-05
8.97851e-06
1.10324e-05
5.32208e-05
0.000144959
0.000116296
7.05589e-05
5.29239e-05
5.12867e-05
5.44077e-05
5.80374e-05
6.32189e-05
7.14132e-05
8.27733e-05
9.67399e-05
0.000112643
0.000129728
0.00014679
0.000161704
0.000171411
0.000172658
0.000163903
0.000147019
0.00012639
0.00010586
8.67447e-05
6.80483e-05
4.848e-05
3.02026e-05
1.89702e-05
1.81659e-05
2.86322e-05
5.34447e-05
9.15438e-05
0.000120831
5.51745e-05
9.16346e-06
1.12202e-05
5.23994e-05
0.000139002
0.000102312
5.83472e-05
4.47583e-05
4.76151e-05
5.58427e-05
6.19432e-05
6.59283e-05
7.14534e-05
8.08127e-05
9.45348e-05
0.000112059
0.00013198
0.00015216
0.000169854
0.00018177
0.000184393
0.000175693
0.000157398
0.000134526
0.000112037
9.22274e-05
7.46636e-05
5.75747e-05
4.00523e-05
2.47649e-05
1.72512e-05
2.05539e-05
3.56674e-05
6.83157e-05
0.000111432
5.79218e-05
9.48128e-06
1.137e-05
5.2368e-05
0.000132233
9.34111e-05
5.20492e-05
3.92044e-05
4.24833e-05
5.32179e-05
6.31087e-05
6.87338e-05
7.33731e-05
8.11802e-05
9.42041e-05
0.0001125
0.000134568
0.000157876
0.000179329
0.000195248
0.00020121
0.000193683
0.000173509
0.000146703
0.000120144
9.73913e-05
7.8302e-05
6.08059e-05
4.36051e-05
2.85014e-05
1.90294e-05
1.81831e-05
2.78549e-05
5.46153e-05
0.000104656
5.94249e-05
9.85585e-06
1.13833e-05
5.22957e-05
0.000127658
9.71937e-05
5.62199e-05
3.90109e-05
3.77948e-05
4.59005e-05
5.76066e-05
6.71613e-05
7.36073e-05
8.06236e-05
9.19474e-05
0.000109346
0.000132498
0.000159355
0.000186672
0.00021011
0.00022349
0.000219935
0.000197724
0.000164386
0.000130662
0.000102485
7.97933e-05
5.96484e-05
4.0747e-05
2.65749e-05
1.97381e-05
1.88563e-05
2.71304e-05
5.47404e-05
0.000111047
5.71536e-05
1.0076e-05
1.12566e-05
5.12011e-05
0.000127005
0.000116497
7.64608e-05
4.68192e-05
3.5143e-05
3.52298e-05
4.31797e-05
5.53464e-05
6.73214e-05
7.79985e-05
9.02207e-05
0.000107227
0.000130457
0.000159175
0.000190707
0.000220486
0.000240928
0.000241855
0.000218272
0.000178765
0.000138095
0.00010478
7.90106e-05
5.69173e-05
3.68221e-05
2.30701e-05
1.89752e-05
2.18856e-05
3.23417e-05
6.3447e-05
0.00011997
5.22183e-05
9.92494e-06
1.10746e-05
4.93164e-05
0.000127285
0.000137946
0.000112889
7.08358e-05
4.21147e-05
3.08395e-05
3.06534e-05
3.85769e-05
5.19652e-05
6.69994e-05
8.23007e-05
0.00010003
0.000122735
0.000150896
0.000182225
0.000211782
0.000231929
0.000233759
0.00021315
0.000176764
0.00013739
0.000103924
7.82477e-05
5.71442e-05
3.74266e-05
2.23527e-05
1.70176e-05
2.2621e-05
4.09379e-05
7.94356e-05
0.000121614
4.71459e-05
9.52174e-06
1.09986e-05
4.82653e-05
0.000130068
0.000151898
0.000140605
0.000109201
6.51829e-05
3.7274e-05
2.67297e-05
2.70632e-05
3.57208e-05
5.07774e-05
6.91419e-05
8.92131e-05
0.000112055
0.000138622
0.000167238
0.000193112
0.000209361
0.000209661
0.000192572
0.000163283
0.000130348
0.000100785
7.77718e-05
6.03291e-05
4.41068e-05
2.76058e-05
1.73505e-05
1.84734e-05
3.60846e-05
8.65881e-05
0.000117498
4.44746e-05
9.25421e-06
1.10959e-05
4.88482e-05
0.000136095
0.000158432
0.000146946
0.000128303
9.7009e-05
5.66544e-05
3.24616e-05
2.42631e-05
2.6335e-05
3.64589e-05
5.30205e-05
7.37015e-05
9.71626e-05
0.000123169
0.000150438
0.000174903
0.000190104
0.000190365
0.000175196
0.000150065
0.000122041
9.63252e-05
7.5782e-05
6.12368e-05
5.06785e-05
3.88477e-05
2.46664e-05
1.75356e-05
2.50155e-05
5.99546e-05
0.000114838
4.80239e-05
9.41523e-06
1.12997e-05
5.05868e-05
0.000139624
0.000156821
0.000140609
0.00012075
0.000102623
7.65003e-05
4.57713e-05
2.82925e-05
2.38476e-05
2.87187e-05
4.12847e-05
6.00615e-05
8.32609e-05
0.00010934
0.000136403
0.000160523
0.000175664
0.000176785
0.000163595
0.000141
0.00011547
9.17734e-05
7.25043e-05
5.8943e-05
5.12467e-05
4.66479e-05
3.80749e-05
2.44269e-05
2.1262e-05
3.53599e-05
8.31925e-05
5.99826e-05
1.00402e-05
1.1431e-05
5.23734e-05
0.000141063
0.000156183
0.000139673
0.000117446
9.91121e-05
8.32043e-05
6.04922e-05
3.76071e-05
2.61207e-05
2.55292e-05
3.37187e-05
4.95935e-05
7.18638e-05
9.87738e-05
0.000127641
0.000153666
0.000170375
0.000172594
0.000159981
0.000137254
0.000110836
8.61789e-05
6.64235e-05
5.30807e-05
4.70867e-05
4.68148e-05
4.5719e-05
3.33802e-05
2.25483e-05
2.76192e-05
6.29099e-05
7.2815e-05
1.09036e-05
1.14382e-05
5.38895e-05