/*--------------------------------*- C++ -*----------------------------------*\
| =========                 |                                                 |
| \\      /  F ield         | OpenFOAM: The Open Source CFD Toolbox           |
|  \\    /   O peration     | Version:  v2006                                 |
|   \\  /    A nd           | Website:  www.openfoam.com                      |
|    \\/     M anipulation  |                                                 |
\*---------------------------------------------------------------------------*/
FoamFile
{
    version     2.0;
    format      ascii;
    class       volScalarField;
    location    "61";
    object      nut;
}
// * * * * * * * * * * * * * * * * * * * * * * * * * * * * * * * * * * * * * //

dimensions      [0 2 -1 0 0 0 0];


internalField   nonuniform List<scalar> 
78750
(
0.00086155
0.00189448
0.00130837
0.000452093
0.000125601
2.16267e-05
1.60826e-05
1.2255e-05
1.9064e-05
1.59308e-05
2.08141e-05
2.02413e-05
2.46422e-05
2.56441e-05
2.91833e-05
3.23372e-05
3.61265e-05
4.05848e-05
4.57785e-05
5.20017e-05
5.84929e-05
5.97676e-05
5.89902e-05
5.81186e-05
5.71336e-05
5.60139e-05
5.47192e-05
5.32021e-05
5.14176e-05
4.92865e-05
4.66888e-05
4.16282e-05
3.39379e-05
8.19009e-06
1.79731e-07
2.14473e-05
6.13809e-05
8.27122e-05
1.52904e-05
1.76018e-05
2.15657e-05
2.1854e-05
2.85716e-05
3.07585e-05
3.59939e-05
3.91152e-05
4.39729e-05
4.7484e-05
5.17903e-05
5.57781e-05
5.98494e-05
6.40972e-05
6.85467e-05
7.34118e-05
7.89233e-05
8.53221e-05
9.26603e-05
0.000100448
0.000107805
0.00011372
0.000116866
0.000116286
0.000112434
0.000105971
9.67618e-05
8.33939e-05
6.14618e-05
2.67068e-05
7.12515e-06
1.50194e-06
6.77384e-06
1.05545e-05
3.27691e-05
3.41171e-05
5.16886e-05
0.000118533
8.62927e-05
6.44473e-05
5.83192e-05
5.39777e-05
5.17738e-05
5.09038e-05
5.1203e-05
5.20689e-05
5.33691e-05
5.47589e-05
5.58261e-05
5.63021e-05
5.61456e-05
5.56021e-05
5.51853e-05
5.56491e-05
5.76013e-05
6.10587e-05
6.528e-05
6.9224e-05
7.23697e-05
7.48645e-05
7.64999e-05
7.51282e-05
6.61883e-05
4.48519e-05
1.96788e-05
9.54393e-06
2.87801e-06
9.69121e-07
7.37578e-06
2.09078e-05
6.52686e-05
0.000101319
0.000106706
0.000103012
9.39436e-05
8.3537e-05
7.55119e-05
7.01319e-05
6.67955e-05
6.49636e-05
6.43634e-05
6.48218e-05
6.6115e-05
6.76786e-05
6.84473e-05
6.72828e-05
6.39227e-05
5.93725e-05
5.52451e-05
5.29549e-05
5.33012e-05
5.60948e-05
5.98833e-05
6.2461e-05
6.24833e-05
6.06788e-05
5.84522e-05
5.46019e-05
4.231e-05
2.05933e-05
1.19336e-05
3.84266e-06
1.84809e-06
3.60648e-05
4.93539e-05
4.80361e-05
5.79041e-05
9.16031e-05
0.00014563
0.000169105
0.000145838
0.000116512
9.6838e-05
8.47483e-05
7.65994e-05
7.0479e-05
6.57202e-05
6.22669e-05
6.04249e-05
6.0662e-05
6.30518e-05
6.6035e-05
6.54227e-05
5.74448e-05
4.62575e-05
4.15469e-05
4.65055e-05
5.91109e-05
7.3792e-05
8.08649e-05
7.64383e-05
6.68658e-05
5.60078e-05
3.77877e-05
1.54467e-05
9.79656e-06
5.30617e-06
1.19272e-06
8.16899e-06
1.83064e-05
3.58649e-05
6.16449e-05
8.76135e-05
0.000103203
0.000105518
9.99876e-05
9.31257e-05
8.79035e-05
8.48516e-05
8.36357e-05
8.35397e-05
8.32471e-05
8.08292e-05
7.51511e-05
6.73662e-05
6.03717e-05
5.68147e-05
5.74239e-05
5.97733e-05
5.88233e-05
4.83187e-05
3.86237e-05
4.47759e-05
6.04733e-05
6.9075e-05
6.16046e-05
4.52395e-05
3.11056e-05
2.25372e-05
1.87289e-05
2.58093e-05
6.71281e-06
2.1989e-06
1.43538e-05
4.84751e-05
9.27619e-05
0.000116135
0.000132023
0.000141935
0.000137628
0.000121629
0.00010399
9.0195e-05
8.10207e-05
7.57524e-05
7.37203e-05
7.45601e-05
7.77373e-05
8.15493e-05
8.18725e-05
7.42335e-05
6.08841e-05
4.91473e-05
4.26823e-05
4.26049e-05
4.97633e-05
5.06441e-05
3.25923e-05
3.29756e-05
5.23352e-05
8.05692e-05
7.92842e-05
4.99293e-05
2.57352e-05
1.96253e-05
3.24408e-05
6.71668e-06
4.03048e-06
2.09056e-05
6.84198e-05
0.000123069
0.000137291
0.000131634
0.000120056
0.000107243
9.64623e-05
8.96061e-05
8.70616e-05
8.81719e-05
9.12198e-05
9.36586e-05
9.35672e-05
9.11044e-05
8.81287e-05
8.67741e-05
8.81211e-05
9.05057e-05
8.90168e-05
8.06685e-05
7.01718e-05
6.39524e-05
6.45823e-05
7.30847e-05
7.73013e-05
5.3933e-05
3.79138e-05
4.0151e-05
4.53869e-05
2.40938e-05
6.75369e-06
8.51138e-06
7.88008e-06
5.53253e-06
3.78787e-05
0.000135928
0.00014932
0.000132794
0.000109397
8.69385e-05
7.05631e-05
6.13116e-05
5.82621e-05
6.11804e-05
7.10313e-05
8.80627e-05
0.000108131
0.000122795
0.000126106
0.000119042
0.000108178
0.000100221
9.64629e-05
9.03062e-05
7.24804e-05
4.78389e-05
3.3478e-05
3.70216e-05
3.30561e-05
2.45361e-05
3.25524e-05
4.13026e-05
4.59196e-05
5.04312e-05
3.5344e-05
1.83143e-05
3.12219e-05
1.03629e-05
5.3536e-06
3.02737e-05
0.000102424
0.000145929
0.00013642
0.000104982
7.6222e-05
5.87321e-05
5.01744e-05
4.72479e-05
4.82256e-05
5.3141e-05
6.32367e-05
7.8888e-05
9.67471e-05
0.000110076
0.000113773
0.000107911
9.70457e-05
8.64709e-05
7.84287e-05
7.15733e-05
6.27555e-05
5.25765e-05
4.96278e-05
6.51735e-05
7.86739e-05
5.27661e-05
3.07924e-05
2.0313e-05
1.91555e-05
2.69943e-05
4.91343e-05
0.00010033
9.89971e-06
4.94072e-06
2.83669e-05
0.000100829
0.000147179
0.000136466
0.000105351
7.65685e-05
5.81318e-05
4.86384e-05
4.5098e-05
4.56172e-05
4.93545e-05
5.57028e-05
6.39025e-05
7.32059e-05
8.2562e-05
9.03012e-05
9.47992e-05
9.52979e-05
9.19925e-05
8.56437e-05
7.76985e-05
6.98227e-05
6.29817e-05
5.74497e-05
5.3861e-05
5.21177e-05
4.65992e-05
3.50884e-05
2.29312e-05
1.19247e-05
1.16062e-05
2.40927e-05
9.84509e-05
8.46537e-06
4.99918e-06
2.56007e-05
8.33531e-05
0.000133168
0.000131892
0.000104982
7.41853e-05
5.31745e-05
4.24206e-05
3.82374e-05
3.80513e-05
4.10838e-05
4.77138e-05
5.78567e-05
6.88587e-05
7.70417e-05
8.2476e-05
8.75643e-05
9.27262e-05
9.60813e-05
9.57534e-05
9.14552e-05
8.41631e-05
7.51635e-05
6.54692e-05
5.5778e-05
4.64361e-05
4.0125e-05
3.69862e-05
3.29002e-05
3.19267e-05
1.8686e-05
9.83153e-06
2.29544e-05
8.66824e-06
5.14221e-06
2.55345e-05
7.79531e-05
0.000125255
0.000130689
0.000109881
7.89014e-05
5.50052e-05
4.20678e-05
3.64548e-05
3.50975e-05
3.68943e-05
4.24304e-05
5.29089e-05
6.73561e-05
7.9196e-05
8.15621e-05
7.89906e-05
7.99854e-05
8.60513e-05
9.37374e-05
9.96028e-05
0.000102682
0.000103794
0.00010262
9.28643e-05
6.01972e-05
3.1016e-05
1.86658e-05
2.04909e-05
3.18665e-05
2.1187e-05
6.82599e-06
1.67568e-05
1.04684e-05
5.02713e-06
2.38861e-05
7.31575e-05
0.00012141
0.000125956
0.000102897
7.06506e-05
4.77755e-05
3.62291e-05
3.157e-05
3.04693e-05
3.126e-05
3.45487e-05
4.4369e-05
6.9884e-05
0.000120808
0.000169197
0.000168256
0.00015421
0.000124897
0.000106211
9.51171e-05
8.61199e-05
7.67143e-05
6.52427e-05
5.14268e-05
3.76182e-05
2.95034e-05
3.24434e-05
4.70199e-05
5.41604e-05
2.85731e-05
2.07319e-05
5.88426e-05
1.15409e-05
5.0323e-06
2.18191e-05
6.40972e-05
0.000113255
0.000118747
9.63691e-05
6.6197e-05
4.47754e-05
3.38808e-05
3.01425e-05
3.11685e-05
3.49672e-05
3.9568e-05
4.52885e-05
5.6504e-05
7.86488e-05
0.000108221
0.000129412
0.000136172
0.00013031
0.000110098
8.22967e-05
6.03582e-05
4.56538e-05
3.50933e-05
2.86686e-05
2.63876e-05
2.96077e-05
4.27912e-05
6.93175e-05
7.85826e-05
5.83015e-05
6.03457e-05
0.000112978
1.13093e-05
5.56293e-06
2.3142e-05
7.11242e-05
0.000118631
0.000115133
8.49056e-05
5.31132e-05
3.42043e-05
2.51556e-05
2.17735e-05
2.25428e-05
2.70077e-05
3.40569e-05
4.16319e-05
4.97739e-05
6.2542e-05
8.4593e-05
0.000110968
0.00012432
0.000121069
0.000107511
8.86944e-05
7.09503e-05
5.80401e-05
4.71563e-05
3.48347e-05
2.55079e-05
2.2309e-05
2.5097e-05
3.36636e-05
4.85661e-05
7.04217e-05
9.99032e-05
7.17452e-05
1.0115e-05
6.25548e-06
2.56756e-05
8.04189e-05
0.000120033
0.000105224
6.77295e-05
3.86726e-05
2.42509e-05
1.83744e-05
1.76455e-05
2.10876e-05
2.84972e-05
3.90869e-05
5.14888e-05
6.48392e-05
7.7911e-05
8.8596e-05
9.53122e-05
9.65889e-05
9.2042e-05
8.56403e-05
8.28777e-05
8.3819e-05
8.23503e-05
7.47503e-05
6.21851e-05
4.70066e-05
3.30888e-05
2.44894e-05
2.24009e-05
2.6195e-05
3.90146e-05
7.0956e-05
6.43018e-05
9.39471e-06
6.75648e-06
3.02365e-05
9.66196e-05
0.000117197
8.98168e-05
5.06439e-05
2.64363e-05
1.45988e-05
9.39711e-06
9.38775e-06
1.48825e-05
2.49278e-05
3.57934e-05
4.4278e-05
5.29519e-05
6.85905e-05
9.65047e-05
0.000125417
0.000132847
0.000121189
0.000102924
8.71996e-05
7.84302e-05
7.5887e-05
7.52698e-05
7.15101e-05
6.20618e-05
4.82146e-05
3.4785e-05
2.68975e-05
2.41272e-05
2.48846e-05
3.71992e-05
7.16784e-05
9.48284e-06
6.51604e-06
3.14405e-05
9.27648e-05
0.000108715
8.43777e-05
4.96631e-05
2.70573e-05
1.47951e-05
8.37601e-06
8.05173e-06
1.60886e-05
2.8304e-05
3.70926e-05
4.30995e-05
4.64997e-05
4.61497e-05
4.67133e-05
5.33393e-05
6.63679e-05
8.06429e-05
9.05465e-05
9.59619e-05
9.95451e-05
0.000101861
0.000100882
9.15089e-05
6.6796e-05
4.20819e-05
3.24912e-05
3.14692e-05
3.0318e-05
2.30783e-05
2.54071e-05
7.56266e-05
9.70334e-06
6.39639e-06
3.14111e-05
9.57216e-05
0.000109998
8.65668e-05
5.49503e-05
3.22027e-05
1.87698e-05
1.154e-05
1.0199e-05
1.96179e-05
4.56122e-05
4.04196e-05
2.87363e-05
3.06966e-05
4.83228e-05
8.51004e-05
0.000123643
0.000131885
0.000118284
0.000103342
9.39309e-05
9.05712e-05
9.14608e-05
9.0849e-05
7.94896e-05
5.69687e-05
4.14296e-05
3.92654e-05
4.33946e-05
4.04989e-05
2.86803e-05
3.32614e-05
9.33165e-05
1.01248e-05
6.33752e-06
2.7487e-05
8.39857e-05
0.000114614
0.000107731
9.09759e-05
6.86826e-05
4.36092e-05
2.51019e-05
1.4354e-05
8.53562e-06
8.15409e-06
1.53263e-05
4.02773e-05
0.000120399
0.000108798
5.30228e-05
4.09611e-05
5.45934e-05
9.10372e-05
0.000122754
0.000125011
0.00010958
8.99822e-05
7.31303e-05
5.98528e-05
5.00687e-05
4.66968e-05
5.09286e-05
5.59723e-05
4.93612e-05
3.91561e-05
5.17056e-05
0.000108445
1.06745e-05
6.78818e-06
2.90061e-05
8.69427e-05
0.000111586
9.38626e-05
6.66043e-05
4.68222e-05
3.72881e-05
3.46978e-05
3.16989e-05
2.29004e-05
1.46526e-05
7.02455e-06
1.79875e-06
8.08497e-06
2.96617e-05
8.47754e-05
0.000102027
8.45682e-05
8.84887e-05
0.000113998
0.000129494
0.000119077
9.30732e-05
6.70568e-05
5.28049e-05
5.09735e-05
5.87162e-05
6.9498e-05
7.11075e-05
6.14581e-05
5.66649e-05
7.87478e-05
0.000104629
1.11198e-05
6.95544e-06
3.20471e-05
9.64924e-05
0.00011179
9.44243e-05
6.74899e-05
4.45244e-05
2.9302e-05
1.99335e-05
1.44104e-05
1.16918e-05
8.64871e-06
3.15903e-06
1.74353e-07
6.27042e-06
3.14521e-05
0.000139954
0.000188713
0.000125807
8.34385e-05
7.58792e-05
9.12218e-05
0.000104933
9.13475e-05
6.54998e-05
4.94155e-05
4.74223e-05
5.84064e-05
7.69109e-05
8.42448e-05
7.80047e-05
7.96209e-05
0.000106052
8.89872e-05
1.11859e-05
7.01474e-06
3.26276e-05
9.75767e-05
0.000111195
8.91533e-05
6.31663e-05
4.56256e-05
3.47468e-05
2.68038e-05
2.02809e-05
1.47316e-05
9.68113e-06
4.36006e-06
9.79099e-07
1.64644e-06
4.7512e-06
2.03595e-05
7.31058e-05
0.000128854
0.000107374
7.58487e-05
6.38059e-05
6.96862e-05
7.87975e-05
7.03625e-05
5.36294e-05
4.5127e-05
4.75953e-05
6.03426e-05
7.82235e-05
8.82866e-05
9.49527e-05
0.000114471
7.72673e-05
1.10389e-05
7.03456e-06
3.30655e-05
0.000100602
0.000106989
8.16298e-05
5.51259e-05
3.80737e-05
2.84294e-05
2.24982e-05
1.83795e-05
1.51665e-05
1.13561e-05
5.74403e-06
2.48203e-06
3.25388e-07
4.12517e-08
1.6576e-06
9.13866e-06
3.53506e-05
9.14231e-05
0.00010043
7.65394e-05
6.09662e-05
6.3113e-05
7.193e-05
6.81529e-05
5.48851e-05
4.60465e-05
4.54273e-05
5.38629e-05
7.17398e-05
9.33256e-05
0.00011308
6.93172e-05
1.11782e-05
7.07843e-06
3.37248e-05
9.93225e-05
0.00010655
8.33895e-05
5.80506e-05
4.09874e-05
3.12662e-05
2.55991e-05
2.14963e-05
1.7882e-05
1.43779e-05
9.82644e-06
3.6676e-06
1.72547e-06
2.52226e-07
1.03728e-06
5.20293e-07
3.4744e-06
1.79601e-05
5.41213e-05
7.39723e-05
5.81697e-05
4.83085e-05
5.60042e-05
7.30219e-05
7.77124e-05
6.48267e-05
4.95172e-05
4.24503e-05
4.76906e-05
7.00019e-05
0.000105431
6.26227e-05
1.11348e-05
6.95536e-06
3.33423e-05
0.000100831
0.000106953
8.35693e-05
5.75705e-05
3.9894e-05
2.96461e-05
2.38303e-05
2.07134e-05
1.89347e-05
1.68818e-05
1.3115e-05
6.83598e-06
2.29914e-06
3.34516e-07
7.4722e-07
1.08412e-06
8.33883e-07
3.3593e-06
1.69571e-05
4.5131e-05
5.37571e-05
4.62937e-05
4.84718e-05
6.40365e-05
8.36038e-05
9.11103e-05
7.87251e-05
5.62251e-05
4.39395e-05
5.14252e-05
8.68267e-05
6.4311e-05
1.11128e-05
6.71984e-06
3.16697e-05
9.47266e-05
0.000109492
9.14875e-05
6.5392e-05
4.61565e-05
3.50049e-05
2.80488e-05
2.32736e-05
2.04826e-05
1.90838e-05
1.71559e-05
1.1984e-05
3.15323e-06
6.09298e-07
4.24666e-07
7.5875e-07
4.87739e-07
6.90626e-07
1.05888e-05
4.38566e-05
8.41661e-05
7.76336e-05
6.58805e-05
6.18239e-05
6.25774e-05
6.49601e-05
6.61674e-05
6.27743e-05
5.92361e-05
6.89189e-05
0.000101157
6.92841e-05
1.18102e-05
6.6348e-06
3.24307e-05
9.6971e-05
0.000110518
9.07091e-05
6.25389e-05
4.32354e-05
3.36675e-05
2.90718e-05
2.59072e-05
2.33532e-05
2.19216e-05
2.07617e-05
1.65659e-05
7.01971e-06
1.72832e-06
6.74037e-07
5.71253e-07
4.30811e-08
2.20568e-06
1.19353e-05
4.97865e-05
0.000137725
0.000136133
0.000118206
9.34253e-05
6.72393e-05
5.10188e-05
4.63566e-05
5.11478e-05
6.64518e-05
9.7269e-05
0.000128474
6.51003e-05
1.20281e-05
6.40346e-06
3.07541e-05
9.2347e-05
0.000115038
0.00010206
7.26723e-05
4.8513e-05
3.57367e-05
2.96638e-05
2.63076e-05
2.41283e-05
2.31877e-05
2.31574e-05
2.13742e-05
1.386e-05
3.24859e-06
4.38273e-07
8.29965e-07
3.67523e-07
1.50378e-06
7.99919e-06
2.61184e-05
6.49415e-05
0.000126791
0.000158618
0.000144196
0.000116526
9.07221e-05
7.39301e-05
6.85973e-05
7.44873e-05
9.12905e-05
0.000107449
5.08008e-05
1.06208e-05
6.37565e-06
3.04466e-05
9.16187e-05
0.000115442
9.82705e-05
6.76595e-05
4.65501e-05
3.67538e-05
3.26555e-05
2.98616e-05
2.68034e-05
2.44565e-05
2.38952e-05
2.42248e-05
2.19038e-05
1.44416e-05
4.96658e-06
2.54885e-06
9.94663e-07
5.37338e-07
2.77068e-06
9.37432e-06
2.04187e-05
3.71684e-05
6.00188e-05
8.6392e-05
0.000109226
0.000120169
0.000124857
0.000132904
0.000142979
0.000138362
0.000104055
3.83148e-05
8.88913e-06
6.45912e-06
2.98728e-05
9.18898e-05
0.000120838
0.000103343
6.91035e-05
4.54662e-05
3.47335e-05
3.10043e-05
3.01905e-05
2.95078e-05
2.77901e-05
2.61359e-05
2.59384e-05
2.67104e-05
2.57853e-05
2.11589e-05
1.37977e-05
5.71603e-06
1.24299e-07
9.51517e-07
4.49977e-07
3.00327e-06
8.619e-06
1.6644e-05
2.64851e-05
3.92869e-05
5.47212e-05
7.22625e-05
9.12217e-05
0.000108558
0.000122125
9.92508e-05
3.4709e-05
7.99165e-06
6.60762e-06
2.92059e-05
9.03771e-05
0.00011955
9.48133e-05
5.99464e-05
4.09917e-05
3.42395e-05
3.2865e-05
3.29301e-05
3.27705e-05
3.19167e-05
3.06053e-05
2.97502e-05
3.01315e-05
3.15044e-05
3.24249e-05
3.11316e-05
2.6985e-05
2.08234e-05
1.3902e-05
7.11786e-06
1.90405e-06
4.10641e-06
3.82887e-06
4.57085e-06
6.77354e-06
1.07311e-05
1.67772e-05
2.62368e-05
4.03955e-05
4.56887e-05
5.08314e-05
3.76933e-05
6.65843e-06
6.98692e-06
3.03566e-05
9.47313e-05
0.000117849
8.50646e-05
5.05924e-05
3.49427e-05
3.0877e-05
3.20543e-05
3.47805e-05
3.67906e-05
3.73206e-05
3.69191e-05
3.66111e-05
3.724e-05
3.92135e-05
4.22146e-05
4.49807e-05
4.56072e-05
4.31063e-05
3.81152e-05
3.18105e-05
2.4985e-05
1.81914e-05
1.21978e-05
7.30625e-06
3.37611e-06
9.76692e-07
2.51909e-06
2.03631e-06
2.92988e-06
5.82276e-06
9.40186e-06
2.19016e-05
6.91976e-06
7.45777e-06
3.3208e-05
0.000101225
0.000108804
6.92109e-05
4.00018e-05
2.95302e-05
2.94496e-05
3.42697e-05
3.96702e-05
4.31391e-05
4.44681e-05
4.46279e-05
4.48841e-05
4.6197e-05
4.90768e-05
5.34806e-05
5.82799e-05
6.13192e-05
6.10901e-05
5.79363e-05
5.3015e-05
4.71632e-05
4.07744e-05
3.40292e-05
2.71649e-05
2.08226e-05
1.4203e-05
8.29445e-06
3.63093e-06
7.12999e-07
3.6185e-06
4.75479e-07
3.23656e-07
1.1276e-05
7.87799e-06
3.76091e-05
0.000106108
9.8307e-05
5.95103e-05
3.52451e-05
2.72987e-05
2.90846e-05
3.6168e-05
4.35202e-05
4.81872e-05
5.06041e-05
5.22422e-05
5.43302e-05
5.76992e-05
6.27649e-05
6.94697e-05
7.68995e-05
8.28881e-05
8.5236e-05
8.37038e-05
7.9508e-05
7.36392e-05
6.64352e-05
5.79869e-05
4.85464e-05
3.90064e-05
2.93559e-05
1.94515e-05
3.91381e-06
1.02348e-06
2.12225e-08
2.68363e-06
2.05853e-05
1.30311e-05
8.07549e-06
4.12875e-05
0.000104956
9.50661e-05
6.26741e-05
3.90253e-05
2.90313e-05
2.85592e-05
3.43615e-05
4.24743e-05
4.91963e-05
5.35548e-05
5.67962e-05
6.05975e-05
6.62694e-05
7.45275e-05
8.55688e-05
9.91862e-05
0.000114677
0.0001298
0.000140481
0.000144496
0.000142849
0.000135976
0.000122724
0.000103307
8.00499e-05
5.3387e-05
1.43004e-05
9.89933e-07
1.28963e-06
6.52162e-06
2.60634e-05
0.000101407
1.24217e-05
7.95199e-06
4.06901e-05
0.000102538
0.000106895
8.68689e-05
5.8235e-05
3.78439e-05
2.90629e-05
2.83669e-05
3.29116e-05
4.044e-05
4.85357e-05
5.5694e-05
6.22669e-05
6.96255e-05
7.90774e-05
9.14063e-05
0.000106804
0.000124756
0.000143772
0.000161126
0.000173076
0.00017626
0.000168763
0.000150296
0.000122902
9.05592e-05
5.44938e-05
1.68541e-05
1.38881e-06
1.13814e-06
5.70753e-06
3.95214e-05
5.97854e-05
1.11087e-05
7.59158e-06
3.66538e-05
9.807e-05
0.000117121
0.000112535
9.18357e-05
6.11906e-05
3.91934e-05
2.90113e-05
2.63957e-05
2.89821e-05
3.58564e-05
4.56316e-05
5.62789e-05
6.68553e-05
7.79897e-05
9.05276e-05
0.00010459
0.000119338
0.000132988
0.000142862
0.000146141
0.000141644
0.000130453
0.000114647
9.60302e-05
7.59527e-05
5.47108e-05
3.11466e-05
9.10037e-06
8.69635e-07
1.25507e-06
1.79338e-05
6.52471e-05
1.04044e-05
7.27222e-06
3.33395e-05
9.48717e-05
0.000123666
0.000124922
0.000116693
9.86431e-05
6.9348e-05
4.44243e-05
3.09805e-05
2.55811e-05
2.5844e-05
3.13835e-05
4.20013e-05
5.62746e-05
7.23161e-05
8.94017e-05
0.00010758
0.000126225
0.000143305
0.000155679
0.000160262
0.000155679
0.000143329
0.000126103
0.000106415
8.56814e-05
6.42432e-05
4.08117e-05
1.60962e-05
3.08394e-06
7.55034e-07
1.17412e-05
8.30831e-05
1.05147e-05
7.09144e-06
3.14554e-05
9.35601e-05
0.000127313
0.000125989
0.000115162
0.000105747
9.73089e-05
7.82527e-05
5.22692e-05
3.45161e-05
2.60913e-05
2.4478e-05
2.90602e-05
4.03006e-05
5.80578e-05
8.09408e-05
0.000107466
0.000136399
0.000165071
0.000187795
0.000195855
0.000194166
0.000178516
0.000155577
0.000129543
0.000102251
7.35164e-05
4.15691e-05
1.38464e-05
3.66135e-06
2.96986e-06
1.43497e-05
8.58664e-05
1.07014e-05
7.19509e-06
3.15596e-05
9.24151e-05
0.000127512
0.000125439
0.000108378
9.0349e-05
8.25327e-05
8.47283e-05
8.16502e-05
5.94967e-05
3.77344e-05
2.67903e-05
2.43496e-05
2.90882e-05
4.16211e-05
6.27484e-05
9.17948e-05
0.000126198
0.000160872
0.000187593
0.000196889
0.000192871
0.000175513
0.000152566
0.000127401
0.000101151
7.29482e-05
4.04975e-05
1.3737e-05
4.33324e-06
5.27689e-06
2.17416e-05
6.6605e-05
1.04302e-05
7.45881e-06
3.33407e-05
9.56657e-05
0.000128539
0.000125584
0.000107547
8.48172e-05
6.98e-05
6.79626e-05
7.69377e-05
8.15271e-05
6.16972e-05
3.82518e-05
2.7032e-05
2.55304e-05
3.19389e-05
4.69574e-05
7.15067e-05
0.000103854
0.00013709
0.000160325
0.000166612
0.000158529
0.000142888
0.000124539
0.000105566
8.64187e-05
6.6797e-05
4.5434e-05
2.22862e-05
7.54824e-06
5.2499e-06
2.11673e-05
6.30253e-05
9.92108e-06
7.83207e-06
3.66118e-05
0.000103903
0.000130596
0.000123409
0.00010474
8.41609e-05
6.90988e-05
6.33729e-05
6.73381e-05
7.64222e-05
7.55067e-05
5.45565e-05
3.52006e-05
2.75379e-05
2.91866e-05
3.90732e-05
5.77476e-05
8.40881e-05
0.000111822
0.000131186
0.000136906
0.000131717
0.000120944
0.000107986
9.44203e-05
8.09074e-05
6.70732e-05
5.20168e-05
3.6159e-05
1.93739e-05
6.0933e-06
1.25127e-05
8.48922e-05
9.64045e-06
8.11101e-06
4.01788e-05
0.000111335
0.000128778
0.000116843
9.65958e-05
7.85667e-05
6.80073e-05
6.50048e-05
6.80605e-05
7.40877e-05
7.55512e-05
6.34882e-05
4.42626e-05
3.25337e-05
3.08413e-05
3.80145e-05
5.39067e-05
7.67357e-05
9.97406e-05
0.000114789
0.000119478
0.000116627
0.000109459
9.99446e-05
8.93905e-05
7.90833e-05
6.91994e-05
5.54767e-05
4.02595e-05
2.93865e-05
9.39383e-06
7.06952e-06
3.58698e-05
1.02098e-05
8.20433e-06
4.22108e-05
0.000112744
0.00012537
0.000114054
9.52206e-05
7.75364e-05
6.67166e-05
6.36038e-05
6.63972e-05
7.15877e-05
7.33264e-05
6.57146e-05
5.05417e-05
3.8366e-05
3.49655e-05
4.09807e-05
5.6569e-05
7.99906e-05
0.000103819
0.00011901
0.000123331
0.00011999
0.000112324
0.00010232
9.14511e-05
8.05803e-05
6.71106e-05
4.41262e-05
2.79624e-05
1.94509e-05
9.55556e-06
9.99606e-06
5.10611e-05
1.12476e-05
8.06564e-06
4.18662e-05
0.000110653
0.000123757
0.00011572
0.000100117
8.2492e-05
6.85045e-05
6.14172e-05
6.12119e-05
6.54436e-05
6.90381e-05
6.59084e-05
5.52391e-05
4.43811e-05
4.04324e-05
4.62025e-05
6.34021e-05
9.25938e-05
0.000127451
0.000153319
0.000162014
0.000157588
0.000144736
0.000125746
0.000102256
7.30387e-05
3.92938e-05
2.14774e-05
1.81195e-05
1.67305e-05
1.43678e-05
2.56975e-05
0.000112305
1.18904e-05
7.82142e-06
3.97172e-05
0.000108597
0.000125488
0.000120485
0.00010789
9.09825e-05
7.34554e-05
6.05235e-05
5.49814e-05
5.62928e-05
6.1216e-05
6.37003e-05
5.91641e-05
5.09502e-05
4.67596e-05
5.16293e-05
6.87458e-05
0.00010149
0.000151312
0.000198934
0.000198879
0.000198476
0.000197637
0.000148306
8.97282e-05
4.42877e-05
2.02547e-05
1.36995e-05
1.78958e-05
2.39232e-05
2.86336e-05
5.9715e-05
8.50179e-05
1.17163e-05
7.6062e-06
3.75772e-05
0.000106879
0.000127459
0.000122651
0.000110848
9.66737e-05
8.07968e-05
6.4982e-05
5.38484e-05
5.00224e-05
5.26567e-05
5.77735e-05
5.93968e-05
5.58216e-05
5.26088e-05
5.6313e-05
7.13877e-05
0.000100513
0.000141684
0.000182612
0.000199454
0.000192097
0.000157437
0.000112889
6.8645e-05
3.46692e-05
1.63823e-05
1.08381e-05
1.57549e-05
3.26737e-05
5.82043e-05
0.000102298
5.96111e-05
1.07482e-05
7.56961e-06
3.67999e-05
0.000106913
0.000128166
0.000120272
0.000105911
9.30755e-05
8.24096e-05
7.04581e-05
5.76521e-05
4.92655e-05
4.79425e-05
5.21814e-05
5.72365e-05
5.84799e-05
5.73277e-05
5.96985e-05
7.05302e-05
9.17033e-05
0.00011965
0.000143298
0.000150927
0.000140906
0.000119226
9.20973e-05
6.40187e-05
3.86816e-05
2.01181e-05
1.0969e-05
1.10204e-05
2.4057e-05
6.6088e-05
0.000108791
4.70272e-05
9.94369e-06
7.70459e-06
3.81104e-05
0.000109304
0.000127445
0.000115765
9.8126e-05
8.47588e-05
7.72795e-05
7.1118e-05
6.17056e-05
5.17532e-05
4.69125e-05
4.84906e-05
5.37809e-05
5.84008e-05
6.0782e-05
6.41599e-05
7.293e-05
8.89681e-05
0.000109331
0.000125634
0.000129567
0.000120271
0.000102627
8.14977e-05
6.09302e-05
4.36757e-05
2.93182e-05
1.71226e-05
1.07554e-05
1.39242e-05
3.55113e-05
9.23994e-05
4.4879e-05
9.80087e-06
7.87419e-06
4.03003e-05
0.00011214
0.000125435
0.000110607
9.09919e-05
7.7361e-05
7.12092e-05
6.83495e-05
6.32142e-05
5.49187e-05
4.87227e-05
4.82699e-05
5.26959e-05
5.85371e-05
6.33538e-05
6.83557e-05
7.66074e-05
8.95799e-05
0.000104935
0.000116554
0.000118553
0.000109923
9.37991e-05
7.42579e-05
5.59272e-05
4.30817e-05
3.55369e-05
2.82162e-05
1.81535e-05
1.25026e-05
1.91603e-05
5.28161e-05
5.24055e-05
1.01665e-05
7.99248e-06
4.25183e-05
0.000114854
0.000122781
0.000104671
8.44314e-05
7.20957e-05
6.75132e-05
6.63163e-05
6.3389e-05
5.68545e-05
5.05993e-05
4.90965e-05
5.30486e-05
6.00709e-05
6.7562e-05
7.53976e-05
8.5253e-05
9.77149e-05
0.000110247
0.000117769
0.000116149
0.000104906
8.63089e-05
6.46058e-05
4.70792e-05
3.87323e-05
3.7613e-05
3.80144e-05
3.11955e-05
1.82838e-05
1.54313e-05
3.39432e-05
6.68186e-05
1.07734e-05
7.99773e-06
4.34438e-05
0.000116288
0.000119245
9.73635e-05
7.72546e-05
6.75489e-05
6.58475e-05
6.69178e-05
6.56468e-05
6.01182e-05
5.37503e-05
5.14778e-05
5.51764e-05
6.33427e-05
7.32084e-05
8.36584e-05
9.54921e-05
0.000108853
0.000120932
0.000126245
0.000120117
0.000102
7.59259e-05
5.09576e-05
3.71494e-05
3.50363e-05
4.00084e-05
4.55006e-05
4.06314e-05
2.48122e-05
1.81343e-05
3.654e-05
7.53103e-05
1.12775e-05
8.00656e-06
4.44206e-05
0.00011708
0.00011403
8.83524e-05
6.88954e-05
6.19683e-05
6.3507e-05
6.74727e-05
6.81562e-05
6.35618e-05
5.71424e-05
5.43094e-05
5.80603e-05
6.81e-05
8.17989e-05
9.67803e-05
0.000112412
0.000128037
0.000139998
0.000140881
0.000124518
9.35334e-05
5.99848e-05
3.72658e-05
2.95721e-05
3.32545e-05
4.34305e-05
5.07794e-05
4.46768e-05
3.05197e-05
2.67391e-05
5.52058e-05
7.15283e-05
1.13786e-05
8.00299e-06
4.54794e-05
0.000116569
0.000107683
7.98047e-05
6.15754e-05
5.67263e-05
6.07607e-05
6.76499e-05
7.09608e-05
6.80381e-05
6.21324e-05
5.89389e-05
6.22384e-05
7.26747e-05
8.80431e-05
0.000105367
0.000122934
0.000139144
0.000149225
0.00014433
0.000119205
8.18427e-05
4.84887e-05
2.93913e-05
2.45175e-05
3.08688e-05
4.45706e-05
5.29233e-05
4.75796e-05
3.87655e-05
4.30263e-05
8.76046e-05
6.43499e-05
1.11098e-05
7.96049e-06
4.6165e-05
0.000115367
0.000102287
7.359e-05
5.62121e-05
5.18417e-05
5.60857e-05
6.38408e-05
6.92006e-05
6.90224e-05
6.55204e-05
6.37826e-05
6.79447e-05
7.94542e-05
9.63872e-05
0.000114701
0.000130838
0.000141918
0.000144005
0.00013258
0.000107064
7.39475e-05
4.42516e-05
2.62109e-05
2.05923e-05
2.5843e-05
4.11778e-05
5.45261e-05
5.28108e-05
5.03981e-05
6.47464e-05
0.000113865
5.93784e-05
1.07226e-05
7.81911e-06
4.50848e-05
0.000114334
0.000100375
7.08517e-05
5.3226e-05
4.81519e-05
5.122e-05
5.85119e-05
6.54843e-05
6.87575e-05
6.88148e-05
6.92366e-05
7.37834e-05
8.42607e-05
9.9474e-05
0.000115744
0.000128906
0.000135539
0.000133206
0.000121086
0.000100502
7.44501e-05
4.78225e-05
2.79105e-05
1.86936e-05
1.95707e-05
3.11092e-05
5.04078e-05
5.91677e-05
6.33904e-05
8.42072e-05
0.0001241
5.69778e-05
1.04223e-05
7.68918e-06
4.29289e-05
0.000113985
0.000100691
6.92698e-05
5.08702e-05
4.47621e-05
4.58375e-05
5.12561e-05
5.85012e-05
6.49855e-05
6.98699e-05
7.47214e-05
8.19823e-05
9.30203e-05
0.000106928
0.00012063
0.000130324
0.000132978
0.000127462
0.000114999
9.79648e-05
7.80316e-05
5.60666e-05
3.51481e-05
2.09661e-05
1.61244e-05
2.06708e-05
3.62284e-05
5.80201e-05
7.37193e-05
9.72986e-05
0.000126339
5.60339e-05
1.02729e-05
7.64215e-06
4.07483e-05
0.00011254
9.78887e-05
6.46484e-05
4.79248e-05
4.32643e-05
4.39499e-05
4.76857e-05
5.39047e-05
6.15461e-05
6.94549e-05
7.7604e-05
8.70567e-05
9.86926e-05
0.000111988
0.000124648
0.000133366
0.000135124
0.000128782
0.000115955
9.98478e-05
8.28349e-05
6.51924e-05
4.64836e-05
2.89762e-05
1.77473e-05
1.52407e-05
2.23643e-05
4.11818e-05
6.94999e-05
0.000100434
0.000124621
5.59186e-05
1.0288e-05
7.72203e-06
3.93713e-05
0.000109679
8.93833e-05
5.51511e-05
4.20461e-05
4.12172e-05
4.40497e-05
4.72345e-05
5.16521e-05
5.85043e-05
6.7922e-05
7.94527e-05
9.25541e-05
0.000106616
0.000120653
0.000132926
0.000140919
0.000141958
0.000134773
0.000120905
0.000103955
8.70871e-05
7.13854e-05
5.60331e-05
3.99713e-05
2.49839e-05
1.58393e-05
1.55253e-05
2.54324e-05
4.93868e-05
8.75986e-05
0.000119436
5.70292e-05
1.04558e-05
7.853e-06
3.87205e-05
0.000105069
7.8638e-05
4.57199e-05
3.57377e-05
3.84798e-05
4.54142e-05
5.05601e-05
5.39571e-05
5.8603e-05
6.63813e-05
7.77299e-05
9.21927e-05
0.000108617
0.00012525
0.000139834
0.00014966
0.000151836
0.000144689
0.000129639
0.00011082
9.2317e-05
7.60222e-05
6.15814e-05
4.75357e-05
3.31342e-05
2.05829e-05
1.45269e-05
1.78625e-05
3.23787e-05
6.46644e-05
0.000109388
5.95613e-05
1.07746e-05
7.95439e-06
3.86003e-05
9.96648e-05
7.16284e-05
4.07563e-05
3.13599e-05
3.44621e-05
4.34674e-05
5.17114e-05
5.64225e-05
6.03112e-05
6.67999e-05
7.75779e-05
9.26935e-05
0.000110912
0.000130151
0.000147859
0.000161005
0.000165942
0.000159754
0.000143135
0.000121046
9.91606e-05
8.04181e-05
6.47034e-05
5.03088e-05
3.61573e-05
2.37309e-05
1.59843e-05
1.56315e-05
2.49855e-05
5.13285e-05
0.000102392
6.10431e-05
1.11942e-05
7.94964e-06
3.83984e-05
9.5768e-05
7.41268e-05
4.37375e-05
3.10271e-05
3.05834e-05
3.75101e-05
4.72976e-05
5.526e-05
6.06308e-05
6.64593e-05
7.58371e-05
9.02263e-05
0.000109364
0.000131561
0.000154141
0.00017352
0.000184596
0.000181686
0.000163366
0.000135853
0.000108019
8.47717e-05
6.6064e-05
4.94699e-05
3.39052e-05
2.22537e-05
1.6707e-05
1.62826e-05
2.4399e-05
5.16577e-05
0.000109102
5.89649e-05
1.14937e-05
7.83875e-06
3.74465e-05
9.4797e-05
8.81981e-05
5.8795e-05
3.67016e-05
2.81094e-05
2.86209e-05
3.54043e-05
4.55846e-05
5.55562e-05
6.4422e-05
7.4549e-05
8.86258e-05
0.000107849
0.000131614
0.00015771
0.000182362
0.000199298
0.000200096
0.00018062
0.000147966
0.000114347
8.68153e-05
6.55371e-05
4.73135e-05
3.07508e-05
1.94616e-05
1.62966e-05
1.92312e-05
2.94459e-05
6.04463e-05
0.000118816
5.42956e-05
1.14124e-05
7.68708e-06
3.59679e-05
9.47166e-05
0.000103911
8.59804e-05
5.46623e-05
3.30756e-05
2.46946e-05
2.49336e-05
3.1681e-05
4.28787e-05
5.53971e-05
6.81051e-05
8.28056e-05
0.000101621
0.000124955
0.000150918
0.00017542
0.000192136
0.000193683
0.000176643
0.000146528
0.000113933
8.62339e-05
6.49973e-05
4.75654e-05
3.12989e-05
1.89093e-05
1.4759e-05
2.03321e-05
3.80804e-05
7.66622e-05
0.000121564
4.94462e-05
1.10255e-05
7.61702e-06
3.51928e-05
9.69137e-05
0.000114615
0.000107156
8.39933e-05
5.06906e-05
2.94405e-05
2.14926e-05
2.20822e-05
2.94077e-05
4.19863e-05
5.72775e-05
7.3958e-05
9.29201e-05
0.000114967
0.000138715
0.000160194
0.000173695
0.000173972
0.000159824
0.000135552
0.000108252
8.37495e-05
6.46848e-05
5.0254e-05
3.68552e-05
2.32519e-05
1.49279e-05
1.66029e-05
3.41224e-05
8.48301e-05
0.000118628
4.68649e-05
1.07152e-05
7.68168e-06
3.56587e-05
0.000101659
0.000120012
0.000112605
9.93121e-05
7.57592e-05
4.46736e-05
2.59363e-05
1.96742e-05
2.16036e-05
3.01135e-05
4.39378e-05
6.1163e-05
8.06795e-05
0.000102299
0.000124965
0.000145305
0.000157953
0.000158194
0.000145617
0.000124763
0.000101504
8.01626e-05
6.31222e-05
5.10727e-05
4.23473e-05
3.25802e-05
2.08989e-05
1.52996e-05
2.31138e-05
5.83072e-05
0.000115431
5.02098e-05
1.08006e-05
7.82961e-06
3.69097e-05
0.000104171
0.000118676
0.000107774
9.37012e-05
8.05425e-05
6.06406e-05
3.66418e-05
2.2913e-05
1.95311e-05
2.37063e-05
3.4226e-05
4.98929e-05
6.9225e-05
9.09426e-05
0.000113473
0.000133557
0.000146174
0.00014713
0.000136181
0.000117406
9.61885e-05
7.64992e-05
6.04989e-05
4.92577e-05
4.29088e-05
3.91429e-05
3.20612e-05
2.07963e-05
1.87754e-05
3.31064e-05
8.16502e-05
6.17475e-05
1.1365e-05
7.92149e-06
3.81384e-05
0.000104935
0.000117786
0.000106665
9.0842e-05
7.76506e-05
6.59748e-05
4.84864e-05
3.04606e-05
2.13792e-05
2.10698e-05
2.79691e-05
4.12399e-05
5.98258e-05
8.22685e-05
0.000106338
0.00012804
0.000141984
0.000143859
0.000133377
0.000114467
9.24832e-05
7.19707e-05
5.55517e-05
4.44953e-05
3.95929e-05
3.94771e-05
3.86317e-05
2.83018e-05
1.94843e-05
2.51544e-05
6.07159e-05
7.43899e-05
1.22641e-05