/*--------------------------------*- C++ -*----------------------------------*\
| =========                 |                                                 |
| \\      /  F ield         | OpenFOAM: The Open Source CFD Toolbox           |
|  \\    /   O peration     | Version:  v2006                                 |
|   \\  /    A nd           | Website:  www.openfoam.com                      |
|    \\/     M anipulation  |                                                 |
\*---------------------------------------------------------------------------*/
FoamFile
{
    version     2.0;
    format      ascii;
    class       surfaceScalarField;
    location    "61";
    object      phi;
}
// * * * * * * * * * * * * * * * * * * * * * * * * * * * * * * * * * * * * * //

dimensions      [1 0 -1 0 0 0 0];
oriented        oriented;


internalField   nonuniform List<scalar> 
228225
(
-0.00043173
-4.74235e-05
-9.79217e-06
-0.000382386
-4.20237e-05
-7.19805e-06
-0.000334618
-4.18827e-05
-5.77281e-06
-0.000287252
-4.19963e-05
-5.28e-06
-0.000246517
-3.55092e-05
-5.14738e-06
-0.000210984
-3.03496e-05
-5.15026e-06
-0.000180197
-2.56664e-05
-5.08952e-06
-0.000153351
-2.18215e-05
-5.0077e-06
-0.000129748
-1.87476e-05
-4.84444e-06
-0.000108976
-1.61757e-05
-4.59601e-06
-9.05342e-05
-1.40338e-05
-4.41352e-06
-7.40928e-05
-1.22293e-05
-4.22355e-06
-5.94306e-05
-1.06711e-05
-4.00664e-06
-4.63787e-05
-9.31396e-06
-3.75659e-06
-3.48167e-05
-8.10684e-06
-3.4754e-06
-2.45815e-05
-7.08485e-06
-3.17114e-06
-1.55615e-05
-6.18361e-06
-2.85669e-06
-7.6662e-06
-5.36633e-06
-2.548e-06
-8.07005e-07
-4.61526e-06
-2.26124e-06
5.10828e-06
-3.92114e-06
-2.00964e-06
1.01679e-05
-3.27416e-06
-1.79931e-06
1.44473e-05
-2.66041e-06
-1.63148e-06
1.80057e-05
-2.06361e-06
-1.50619e-06
2.08914e-05
-1.47393e-06
-1.42264e-06
2.3146e-05
-8.87676e-07
-1.37778e-06
2.48106e-05
-3.10204e-07
-1.36576e-06
2.58756e-05
2.99595e-07
-1.37705e-06
2.63156e-05
9.45549e-07
-1.3997e-06
2.61443e-05
1.57602e-06
-1.4213e-06
2.53512e-05
2.20231e-06
-1.42892e-06
2.39039e-05
2.83385e-06
-1.41031e-06
2.17131e-05
3.50715e-06
-1.34432e-06
1.85095e-05
4.38474e-06
-1.21399e-06
1.28677e-05
6.5444e-06
-9.58809e-07
1.29112e-05
-1.90626e-08
-2.26764e-05
-2.53645e-05
1.25408e-06
-3.78205e-05
-2.98032e-05
3.22303e-06
-4.90732e-05
-3.41673e-05
3.86239e-06
-5.89907e-05
-3.58011e-05
4.04603e-06
-6.44721e-05
-3.35494e-05
3.87005e-06
-6.7047e-05
-3.08706e-05
3.4016e-06
-6.70366e-05
-2.82708e-05
2.85488e-06
-6.53891e-05
-2.5568e-05
2.32255e-06
-6.24775e-05
-2.33134e-05
1.84337e-06
-5.86669e-05
-2.12534e-05
1.42477e-06
-5.42547e-05
-1.93738e-05
1.05578e-06
-4.94644e-05
-1.7651e-05
7.31898e-07
-4.44309e-05
-1.60708e-05
4.417e-07
-3.92549e-05
-1.46056e-05
1.68893e-07
-3.40243e-05
-1.32368e-05
-6.66868e-08
-2.89281e-05
-1.19237e-05
-2.3989e-07
-2.40465e-05
-1.06387e-05
-4.22422e-07
-1.94335e-05
-9.37077e-06
-6.14794e-07
-1.51309e-05
-8.11056e-06
-8.20553e-07
-1.11729e-05
-6.85657e-06
-1.04011e-06
-7.57896e-06
-5.61647e-06
-1.27117e-06
-4.34197e-06
-4.40818e-06
-1.50923e-06
-1.42456e-06
-3.25166e-06
-1.74907e-06
1.22221e-06
-2.15391e-06
-1.98614e-06
3.63116e-06
-1.09907e-06
-2.2169e-06
5.75623e-06
-1.72034e-08
-2.43777e-06
7.75471e-06
9.23573e-07
-2.64273e-06
9.58601e-06
1.91799e-06
-2.82466e-06
1.11817e-05
2.93169e-06
-2.97297e-06
1.24586e-05
3.97552e-06
-3.07273e-06
1.32659e-05
5.1041e-06
-3.1027e-06
1.32826e-05
6.48634e-06
-3.02853e-06
1.16503e-05
8.73635e-06
-2.77848e-06
6.10225e-06
1.40373e-05
-2.05212e-06
1.93862e-05
-3.64059e-07
-2.96368e-05
3.97019e-06
5.66345e-07
-4.42692e-05
-1.49945e-05
1.80584e-07
-5.43261e-05
-2.25661e-05
-1.23542e-06
-6.03624e-05
-2.77219e-05
-1.74854e-06
-6.07919e-05
-3.10424e-05
-1.76534e-06
-5.80912e-05
-3.16388e-05
-1.60541e-06
-5.33994e-05
-3.12757e-05
-1.34853e-06
-4.74449e-05
-3.01185e-05
-1.05458e-06
-4.10836e-05
-2.85312e-05
-7.84586e-07
-3.47756e-05
-2.66584e-05
-5.40312e-07
-2.88763e-05
-2.45922e-05
-3.22218e-07
-2.35808e-05
-2.2465e-05
-1.3674e-07
-1.89695e-05
-2.037e-05
8.67969e-09
-1.50941e-05
-1.83697e-05
1.75622e-07
-1.18657e-05
-1.64993e-05
2.79915e-07
-9.1488e-06
-1.47747e-05
3.34622e-07
-6.78558e-06
-1.31853e-05
3.37242e-07
-4.63405e-06
-1.16955e-05
2.82132e-07
-2.58725e-06
-1.02498e-05
1.60306e-07
-5.92038e-07
-8.78547e-06
-3.34579e-08
1.29364e-06
-7.24946e-06
-2.48307e-07
3.0337e-06
-5.6215e-06
-5.42353e-07
4.5865e-06
-3.93949e-06
-8.91529e-07
5.96175e-06
-2.29205e-06
-1.26697e-06
7.22328e-06
-7.49196e-07
-1.64021e-06
8.45236e-06
7.19083e-07
-1.99233e-06
9.50121e-06
2.16127e-06
-2.31286e-06
1.03699e-05
3.6161e-06
-2.59394e-06
1.09761e-05
5.11894e-06
-2.82194e-06
1.12203e-05
6.68224e-06
-2.98017e-06
1.10074e-05
8.34114e-06
-3.05305e-06
1.01651e-05
1.03178e-05
-3.01792e-06
8.13633e-06
1.35364e-05
-2.78948e-06
3.89515e-06
2.03804e-05
-2.01766e-06
2.38209e-05
-3.75373e-07
1.12398e-05
-9.4566e-06
2.19859e-06
1.11617e-05
-1.88374e-05
3.8771e-06
9.25367e-06
-2.43903e-05
3.66856e-06
6.0675e-06
-2.76133e-05
3.01845e-06
2.44997e-06
-2.98121e-05
2.33442e-06
1.23508e-07
-3.10927e-05
1.74021e-06
-9.41232e-07
-3.14841e-05
1.25339e-06
-7.23758e-07
-3.11996e-05
8.76679e-07
5.28596e-07
-3.03199e-05
5.97129e-07
2.50657e-06
-2.89037e-05
3.88671e-07
4.93613e-06
-2.70634e-05
2.3012e-07
7.55685e-06
-2.49363e-05
1.06164e-07
1.01438e-05
-2.26426e-05
2.24238e-09
1.24716e-05
-2.0277e-05
-5.46946e-08
1.43785e-05
-1.79211e-05
-8.70466e-08
1.57685e-05
-1.56512e-05
-1.03677e-07
1.66272e-05
-1.35382e-05
-1.0687e-07
1.70368e-05
-1.1638e-05
-9.97659e-08
1.71641e-05
-9.97051e-06
-8.6713e-08
1.72033e-05
-8.48647e-06
-7.6214e-08
1.72867e-05
-7.04995e-06
-8.43937e-08
1.74068e-05
-5.46801e-06
-1.39828e-07
1.73909e-05
-3.57097e-06
-2.78875e-07
1.70445e-05
-1.40216e-06
-5.15628e-07
1.64163e-05
6.97298e-07
-8.16923e-07
1.57257e-05
2.52968e-06
-1.12992e-06
1.51542e-05
4.13915e-06
-1.41966e-06
1.46824e-05
5.74787e-06
-1.67486e-06
1.41608e-05
7.51867e-06
-1.89495e-06
1.33738e-05
9.52972e-06
-2.07517e-06
1.21479e-05
1.17729e-05
-2.19561e-06
1.04504e-05
1.43365e-05
-2.22326e-06
8.15895e-06
1.82471e-05
-2.09485e-06
4.17005e-06
2.64251e-05
-1.51274e-06
2.84655e-05
-2.0269e-07
-4.01945e-07
-1.06683e-05
1.50491e-06
-7.63133e-07
-2.00524e-05
1.38947e-06
-1.13628e-06
-2.52698e-05
1.00233e-06
-9.34843e-07
-2.89048e-05
7.93331e-07
-3.10293e-07
-3.15017e-05
7.57111e-07
4.58983e-07
-3.29405e-05
7.82193e-07
1.33289e-06
-3.34375e-05
7.96015e-07
2.37954e-06
-3.32949e-05
7.73306e-07
3.71673e-06
-3.26331e-05
7.10029e-07
5.43169e-06
-3.14773e-05
6.11136e-07
7.53733e-06
-2.98781e-05
4.93969e-07
9.9814e-06
-2.79265e-05
3.77909e-07
1.26592e-05
-2.57075e-05
2.79775e-07
1.54172e-05
-2.32834e-05
2.1564e-07
1.80585e-05
-2.07065e-05
1.98395e-07
2.03518e-05
-1.80274e-05
2.32787e-07
2.20465e-05
-1.52999e-05
3.1255e-07
2.29161e-05
-1.26008e-05
4.19051e-07
2.28389e-05
-1.00449e-05
5.23989e-07
2.19209e-05
-7.79007e-06
5.98562e-07
2.05685e-05
-5.97581e-06
6.25713e-07
1.93413e-05
-4.54323e-06
5.97877e-07
1.86219e-05
-3.11824e-06
4.86302e-07
1.83444e-05
-1.21036e-06
2.1286e-07
1.80383e-05
1.27183e-06
-2.15816e-07
1.76383e-05
3.62348e-06
-6.82258e-07
1.75344e-05
5.3359e-06
-1.10275e-06
1.78804e-05
6.81404e-06
-1.44113e-06
1.84715e-05
8.57263e-06
-1.70644e-06
1.87844e-05
1.09984e-05
-1.91232e-06
1.79081e-05
1.44332e-05
-2.05694e-06
1.46778e-05
1.91493e-05
-2.11746e-06
8.61401e-06
2.53625e-05
-2.01206e-06
2.73606e-06
3.2701e-05
-1.35813e-06
3.10803e-05
-1.19494e-07
3.21084e-06
-1.4857e-05
8.09352e-07
1.20981e-05
-2.90721e-05
-4.66471e-08
2.25669e-05
-3.47841e-05
-1.03317e-06
3.19189e-05
-3.68081e-05
-1.45142e-06
3.8823e-05
-3.71846e-05
-1.18148e-06
4.33257e-05
-3.67885e-05
-5.93981e-07
4.59598e-05
-3.59633e-05
-3.91035e-08
4.71474e-05
-3.47992e-05
3.8584e-07
4.72644e-05
-3.32932e-05
6.03589e-07
4.66078e-05
-3.14513e-05
6.72134e-07
4.54312e-05
-2.93201e-05
6.28695e-07
4.39401e-05
-2.69726e-05
5.04007e-07
4.23147e-05
-2.44878e-05
3.22345e-07
4.07327e-05
-2.1935e-05
1.01711e-07
3.93346e-05
-1.93664e-05
-1.11075e-07
3.82061e-05
-1.68024e-05
-2.80782e-07
3.73444e-05
-1.42165e-05
-3.87142e-07
3.65866e-05
-1.15509e-05
-3.90586e-07
3.55909e-05
-8.76042e-06
-2.64608e-07
3.39095e-05
-5.89428e-06
-3.00001e-08
3.10906e-05
-3.13306e-06
2.98812e-07
2.70987e-05
-7.14983e-07
5.44828e-07
2.26519e-05
1.02394e-06
6.70069e-07
1.87137e-05
2.36876e-06
6.55212e-07
1.56181e-05
4.12233e-06
4.10724e-07
1.29887e-05
6.40157e-06
-8.65367e-08
1.01073e-05
8.83844e-06
-5.78151e-07
7.23434e-06
1.07421e-05
-9.90286e-07
4.98954e-06
1.22397e-05
-1.32666e-06
3.6701e-06
1.40524e-05
-1.61397e-06
3.14064e-06
1.69289e-05
-1.86936e-06
2.51223e-06
2.17389e-05
-2.07513e-06
3.25254e-07
2.89925e-05
-2.06666e-06
-8.78686e-07
3.46821e-05
-1.4638e-06
3.0576e-05
-3.26542e-07
5.84204e-06
-2.03149e-05
-3.57239e-07
1.33988e-05
-3.42531e-05
-2.03124e-06
2.01466e-05
-3.79071e-05
-3.18013e-06
2.59622e-05
-3.85408e-05
-3.65758e-06
3.08405e-05
-3.81814e-05
-3.48692e-06
3.46137e-05
-3.72719e-05
-2.91817e-06
3.71361e-05
-3.59343e-05
-2.19427e-06
3.84022e-05
-3.42091e-05
-1.50573e-06
3.85373e-05
-3.21237e-05
-9.54558e-07
3.7726e-05
-2.97386e-05
-5.49012e-07
3.61726e-05
-2.71552e-05
-2.58965e-07
3.41019e-05
-2.4486e-05
-7.05385e-08
3.17305e-05
-2.18233e-05
3.02307e-08
2.92544e-05
-1.92214e-05
4.41194e-08
2.68337e-05
-1.67036e-05
-2.29661e-08
2.45783e-05
-1.42704e-05
-1.34944e-07
2.25974e-05
-1.18997e-05
-2.76641e-07
2.09838e-05
-9.54772e-06
-4.0729e-07
1.97734e-05
-7.15016e-06
-4.78599e-07
1.88336e-05
-4.631e-06
-4.27614e-07
1.77955e-05
-1.97194e-06
-1.92433e-07
1.6158e-05
6.91978e-07
2.4694e-07
1.32426e-05
3.27994e-06
7.43968e-07
9.36653e-06
5.24635e-06
1.06736e-06
5.65446e-06
6.71447e-06
1.14061e-06
2.76532e-06
8.31031e-06
9.41698e-07
6.33712e-07
1.04427e-05
4.27196e-07
-9.57391e-07
1.23933e-05
-1.2015e-07
-2.46541e-06
1.43127e-05
-4.5914e-07
-3.57577e-06
1.62328e-05
-6.81274e-07
-3.01889e-06
1.80754e-05
-8.29637e-07
6.41407e-07
2.07517e-05
-9.34658e-07
5.28048e-06
2.80096e-05
-1.02755e-06
3.80652e-06
3.90889e-05
-8.75516e-07
3.51769e-05
-1.70867e-07
7.64257e-06
-2.70733e-05
-6.1008e-07
1.35035e-05
-3.84379e-05
-1.33513e-06
1.80648e-05
-4.03489e-05
-1.94273e-06
2.22995e-05
-4.03202e-05
-2.40112e-06
2.62817e-05
-3.9502e-05
-2.68108e-06
2.98129e-05
-3.80785e-05
-2.78922e-06
3.26144e-05
-3.60637e-05
-2.76234e-06
3.44277e-05
-3.34822e-05
-2.64016e-06
3.51397e-05
-3.04689e-05
-2.46387e-06
3.4847e-05
-2.72633e-05
-2.2668e-06
3.38196e-05
-2.41236e-05
-2.06673e-06
3.2418e-05
-2.1252e-05
-1.86582e-06
3.09978e-05
-1.87407e-05
-1.66123e-06
2.98181e-05
-1.65451e-05
-1.45735e-06
2.89986e-05
-1.45377e-05
-1.26748e-06
2.85416e-05
-1.25882e-05
-1.10985e-06
2.83887e-05
-1.06052e-05
-1.00331e-06
2.84888e-05
-8.55075e-06
-9.60796e-07
2.88713e-05
-6.44968e-06
-9.78657e-07
2.96921e-05
-4.36757e-06
-1.03254e-06
3.11364e-05
-2.33634e-06
-1.08608e-06
3.32277e-05
-3.61084e-07
-1.09656e-06
3.53164e-05
2.11382e-06
-1.0051e-06
3.6686e-05
4.62295e-06
-7.61953e-07
3.73409e-05
6.63207e-06
-4.24141e-07
3.771e-05
8.34528e-06
-1.66992e-07
3.78352e-05
1.05962e-05
-5.97484e-08
3.69534e-05
1.35154e-05
-9.91988e-08
3.43839e-05
1.71241e-05
-3.79921e-07
2.97388e-05
2.11332e-05
-7.94995e-07
2.33894e-05
2.49042e-05
-1.1403e-06
1.68922e-05
2.84553e-05
-1.34231e-06
1.14171e-05
3.54184e-05
-1.20724e-06
5.3606e-06
4.64516e-05
-5.1173e-07
4.04211e-05
2.37228e-07
2.32601e-06
-2.88811e-05
-3.39218e-07
3.44775e-06
-3.87492e-05
-8.7207e-07
4.48202e-06
-4.00983e-05
-1.45257e-06
5.7445e-06
-3.99595e-05
-1.82415e-06
7.2493e-06
-3.91259e-05
-2.09143e-06
8.86615e-06
-3.76034e-05
-2.3004e-06
1.03412e-05
-3.52684e-05
-2.47011e-06
1.13794e-05
-3.20944e-05
-2.61616e-06
1.18084e-05
-2.83307e-05
-2.75284e-06
1.16555e-05
-2.44125e-05
-2.88618e-06
1.10837e-05
-2.07443e-05
-3.00294e-06
1.0286e-05
-1.75902e-05
-3.06578e-06
9.42269e-06
-1.50496e-05
-3.03051e-06
8.62495e-06
-1.30555e-05
-2.8882e-06
8.01427e-06
-1.14327e-05
-2.67407e-06
7.69124e-06
-9.98807e-06
-2.42767e-06
7.70668e-06
-8.55753e-06
-2.17094e-06
8.03182e-06
-7.01544e-06
-1.91753e-06
8.54414e-06
-5.29056e-06
-1.68449e-06
9.04867e-06
-3.38641e-06
-1.47959e-06
9.31183e-06
-1.31948e-06
-1.28377e-06
9.21147e-06
7.52864e-07
-1.04194e-06
9.26571e-06
2.66053e-06
-6.35072e-07
9.18399e-06
4.66043e-06
9.58308e-08
8.86887e-06
6.43664e-06
7.85914e-07
8.70431e-06
8.0732e-06
8.32134e-07
9.21224e-06
1.01946e-05
4.43974e-08
1.06618e-05
1.28858e-05
-1.0497e-06
1.27743e-05
1.62088e-05
-1.84473e-06
1.38889e-05
2.11487e-05
-2.51445e-06
1.10102e-05
2.82031e-05
-3.0689e-06
2.8823e-06
3.58536e-05
-3.33411e-06
-5.13027e-06
4.20083e-05
-3.02939e-06
-4.17748e-06
4.51945e-05
-2.16657e-06
3.69925e-05
-8.60167e-07
-2.57616e-06
-2.66913e-05
1.96889e-07
-3.26346e-06
-3.83525e-05
1.36871e-07
-2.60647e-06
-4.06208e-05
-2.20664e-07
-1.20294e-06
-4.08658e-05
-5.53256e-07
6.71719e-07
-4.02188e-05
-8.23982e-07
2.77847e-06
-3.86957e-05
-1.0474e-06
4.83383e-06
-3.61128e-05
-1.23399e-06
6.54246e-06
-3.24151e-05
-1.39966e-06
7.6993e-06
-2.79219e-05
-1.56833e-06
8.2599e-06
-2.32085e-05
-1.76606e-06
8.31108e-06
-1.88009e-05
-2.00771e-06
7.98612e-06
-1.50272e-05
-2.27454e-06
7.39023e-06
-1.20062e-05
-2.51152e-06
6.58262e-06
-9.67282e-06
-2.66278e-06
5.59531e-06
-7.84677e-06
-2.70365e-06
4.45167e-06
-6.32256e-06
-2.63789e-06
3.18759e-06
-4.92888e-06
-2.48541e-06
1.8642e-06
-3.54184e-06
-2.2679e-06
5.4999e-07
-2.07978e-06
-2.00206e-06
-7.07396e-07
-5.11214e-07
-1.70656e-06
-1.99245e-06
1.28323e-06
-1.39853e-06
-3.47038e-06
3.20509e-06
-1.0744e-06
-5.46815e-06
5.19021e-06
-6.93616e-07
-8.06267e-06
7.184e-06
-1.96432e-07
-1.14345e-05
9.04859e-06
4.06777e-07
-1.5092e-05
1.06415e-05
8.63479e-07
-1.78048e-05
1.19876e-05
1.01217e-06
-1.85888e-05
1.31946e-05
9.76415e-07
-1.6685e-05
1.46345e-05
8.17739e-07
-1.18075e-05
1.75964e-05
4.13726e-07
-6.01531e-06
2.41199e-05
-3.78495e-07
-3.71702e-06
3.40812e-05
-1.1886e-06
-5.1827e-06
4.22947e-05
-1.64843e-06
-2.92934e-06
4.2684e-05
-1.93664e-06
3.46381e-05
-1.09082e-06
-9.98876e-07
-2.60859e-05
2.88324e-07
-4.47196e-07
-3.92772e-05
2.93344e-07
9.71805e-07
-4.21918e-05
7.6728e-08
2.85807e-06
-4.26693e-05
-1.68288e-07
5.08568e-06
-4.21539e-05
-3.95335e-07
7.60999e-06
-4.07406e-05
-6.00982e-07
1.03731e-05
-3.82244e-05
-7.87459e-07
1.31917e-05
-3.44161e-05
-9.53999e-07
1.57801e-05
-2.95251e-05
-1.0984e-06
1.78947e-05
-2.41643e-05
-1.22657e-06
1.94014e-05
-1.89577e-05
-1.36351e-06
2.02884e-05
-1.43433e-05
-1.54207e-06
2.06594e-05
-1.05593e-05
-1.77208e-06
2.06723e-05
-7.62005e-06
-2.02731e-06
2.0454e-05
-5.34654e-06
-2.26515e-06
2.0066e-05
-3.49177e-06
-2.45129e-06
1.95211e-05
-1.84769e-06
-2.56764e-06
1.87967e-05
-2.5844e-07
-2.60812e-06
1.79834e-05
1.24316e-06
-2.5708e-06
1.70794e-05
2.78314e-06
-2.45702e-06
1.61514e-05
4.42021e-06
-2.27557e-06
1.51524e-05
6.17907e-06
-2.03888e-06
1.3947e-05
8.08532e-06
-1.75724e-06
1.23277e-05
1.01451e-05
-1.43371e-06
9.95196e-06
1.23423e-05
-1.06842e-06
6.40244e-06
1.46356e-05
-6.81833e-07
1.43827e-06
1.69368e-05
-3.0662e-07
-4.91162e-06
1.91259e-05
7.42017e-08
-1.19894e-05
2.09181e-05
6.58091e-07
-1.74062e-05
2.24627e-05
1.29646e-06
-1.71881e-05
2.52228e-05
1.58332e-06
-9.16502e-06
3.02979e-05
1.18832e-06
-8.72445e-07
3.83016e-05
4.80225e-07
7.17282e-07
4.31696e-05
-1.97981e-07
3.56844e-05
-1.82488e-07
5.57367e-07
-2.704e-05
3.1073e-07
1.72729e-06
-4.11207e-05
5.13456e-07
3.43514e-06
-4.46275e-05
5.65834e-07
5.47936e-06
-4.53627e-05
4.87367e-07
7.7771e-06
-4.49758e-05
3.55256e-07
1.02977e-05
-4.36439e-05
1.98981e-07
1.2989e-05
-4.11373e-05
1.66547e-08
1.56752e-05
-3.71478e-05
-1.80837e-07
1.81409e-05
-3.18332e-05
-3.96886e-07
2.02424e-05
-2.58985e-05
-6.0159e-07
2.1902e-05
-2.00445e-05
-7.7458e-07
2.3073e-05
-1.47306e-05
-9.25681e-07
2.38149e-05
-1.02847e-05
-1.0903e-06
2.43471e-05
-6.87625e-06
-1.29566e-06
2.49221e-05
-4.36929e-06
-1.5397e-06
2.56838e-05
-2.42548e-06
-1.80309e-06
2.66713e-05
-7.51924e-07
-2.06214e-06
2.7786e-05
9.23083e-07
-2.29037e-06
2.87505e-05
2.7287e-06
-2.46361e-06
2.96003e-05
4.46935e-06
-2.56678e-06
3.04039e-05
6.16937e-06
-2.5953e-06
3.12083e-05
7.87504e-06
-2.54847e-06
3.20353e-05
9.63799e-06
-2.42688e-06
3.28812e-05
1.1493e-05
-2.23444e-06
3.37123e-05
1.34555e-05
-1.97463e-06
3.44412e-05
1.55365e-05
-1.64958e-06
3.4911e-05
1.77197e-05
-1.26068e-06
3.45078e-05
2.03413e-05
-8.25994e-07
3.11217e-05
2.45472e-05
-3.28967e-07
2.39459e-05
2.93032e-05
2.27721e-07
1.60464e-05
3.28799e-05
6.66383e-07
1.25499e-05
3.55443e-05
7.76041e-07
1.30433e-05
4.25671e-05
8.55399e-07
6.9987e-06
5.19829e-05
9.06398e-07
4.24563e-05
7.69243e-07
1.14939e-06
-2.83662e-05
9.87526e-08
3.67466e-06
-4.38164e-05
8.81809e-08
6.68983e-06
-4.77968e-05
9.76015e-08
9.86213e-06
-4.86855e-05
1.09473e-07
1.3119e-05
-4.83689e-05
1.03176e-07
1.64379e-05
-4.70694e-05
7.73792e-08
1.9752e-05
-4.45119e-05
3.25458e-08
2.28739e-05
-4.02408e-05
-5.30199e-08
2.55549e-05
-3.43404e-05
-1.93043e-07
2.76674e-05
-2.76637e-05
-3.77459e-07
2.92215e-05
-2.10788e-05
-5.79462e-07
3.0197e-05
-1.50283e-05
-7.62888e-07
3.05022e-05
-9.75732e-06
-9.1409e-07
3.02271e-05
-5.59629e-06
-1.05466e-06
2.98169e-05
-2.7518e-06
-1.21694e-06
2.97449e-05
-9.10238e-07
-1.41811e-06
3.02172e-05
4.87157e-07
-1.66411e-06
3.13055e-05
1.83368e-06
-1.95395e-06
3.30683e-05
3.24673e-06
-2.26466e-06
3.5319e-05
4.75474e-06
-2.55653e-06
3.78983e-05
6.34252e-06
-2.79947e-06
4.07019e-05
7.99221e-06
-2.98082e-06
4.36321e-05
9.73847e-06
-3.09292e-06
4.6537e-05
1.16567e-05
-3.12642e-06
4.916e-05
1.38531e-05
-3.07022e-06
5.11195e-05
1.64588e-05
-2.90532e-06
5.18396e-05
1.95709e-05
-2.55112e-06
5.00526e-05
2.36071e-05
-1.85074e-06
4.50523e-05
2.97799e-05
-1.2461e-06
3.82827e-05
3.64525e-05
-1.12969e-06
3.11004e-05
4.14065e-05
-1.22398e-06
2.34255e-05
4.55692e-05
-1.32059e-06
1.36908e-05
5.34665e-05
-6.15387e-07
5.82415e-06
6.01994e-05
4.38069e-07
4.86892e-05
5.77967e-07
-4.52452e-07
-2.8138e-05
8.27841e-08
1.21385e-06
-4.59084e-05
2.12976e-07
4.02545e-06
-5.10373e-05
2.26926e-07
7.21315e-06
-5.22343e-05
1.68579e-07
1.04795e-05
-5.19307e-05
1.03548e-07
1.36283e-05
-5.04614e-05
4.49817e-08
1.64255e-05
-4.75144e-05
-1.43864e-09
1.86572e-05
-4.26071e-05
-6.5972e-08
2.02188e-05
-3.59236e-05
-1.39439e-07
2.11763e-05
-2.84869e-05
-2.32114e-07
2.17708e-05
-2.13766e-05
-3.37585e-07
2.22932e-05
-1.51148e-05
-4.43447e-07
2.28184e-05
-9.73389e-06
-5.37755e-07
2.31287e-05
-5.26654e-06
-6.12616e-07
2.30342e-05
-1.94245e-06
-6.75535e-07
2.26663e-05
2.5669e-07
-7.44105e-07
2.25238e-05
1.54345e-06
-8.28385e-07
2.28888e-05
2.52037e-06
-9.31708e-07
2.39395e-05
3.39473e-06
-1.05831e-06
2.5727e-05
4.31234e-06
-1.21245e-06
2.81571e-05
5.40016e-06
-1.39898e-06
3.09978e-05
6.78473e-06
-1.61976e-06
3.38653e-05
8.64958e-06
-1.87478e-06
3.6249e-05
1.11627e-05
-2.15531e-06
3.75153e-05
1.44839e-05
-2.43119e-06
3.68319e-05
1.8837e-05
-2.64594e-06
3.32611e-05
2.43352e-05
-2.75727e-06
2.66582e-05
3.07995e-05
-2.8773e-06
1.92693e-05
3.75131e-05
-3.1704e-06
1.30338e-05
4.30834e-05
-3.41385e-06
7.40883e-06
4.73519e-05
-3.44647e-06
8.61663e-07
5.16888e-05
-3.18942e-06
-4.56637e-06
5.71772e-05
-2.27951e-06
-3.18979e-06
5.819e-05
-1.47338e-06
4.64747e-05
-8.61584e-07
2.85218e-06
-3.07781e-05
-3.4177e-07
7.12626e-06
-5.00263e-05
-2.80401e-07
1.14708e-05
-5.52851e-05
-1.77765e-07
1.56566e-05
-5.62929e-05
-1.82191e-07
1.95898e-05
-5.56728e-05
-2.34501e-07
2.30925e-05
-5.36973e-05
-3.09352e-07
2.58268e-05
-4.99047e-05
-3.96702e-07
2.74222e-05
-4.37817e-05
-4.95411e-07
2.78181e-05
-3.58008e-05
-6.2159e-07
2.72434e-05
-2.72572e-05
-7.78357e-07
2.60343e-05
-1.93696e-05
-9.20486e-07
2.45851e-05
-1.27631e-05
-1.00308e-06
2.32452e-05
-7.43085e-06
-1.03308e-06
2.20603e-05
-3.07861e-06
-1.049e-06
2.06901e-05
4.67238e-07
-1.0787e-06
1.86712e-05
3.34236e-06
-1.11654e-06
1.59898e-05
5.2976e-06
-1.14008e-06
1.29799e-05
6.58197e-06
-1.13321e-06
9.90729e-06
7.46668e-06
-1.08721e-06
6.96679e-06
8.16444e-06
-9.94905e-07
4.30247e-06
8.84983e-06
-8.47193e-07
1.98643e-06
9.723e-06
-6.34177e-07
3.98631e-08
1.10482e-05
-3.77736e-07
-1.52396e-06
1.3087e-05
-1.82272e-07
-2.61501e-06
1.60477e-05
-2.04729e-07
-3.13908e-06
2.01591e-05
-5.01627e-07
-3.23184e-06
2.55894e-05
-1.04195e-06
-3.25484e-06
3.21182e-05
-1.7882e-06
-3.69036e-06
3.88162e-05
-2.56081e-06
-5.20997e-06
4.44282e-05
-3.02282e-06
-8.12225e-06
4.87822e-05
-3.11651e-06
-1.13985e-05
5.23086e-05
-2.96315e-06
-1.09265e-05
5.44004e-05
-2.72158e-06
-6.04923e-06
5.25419e-05
-2.67737e-06
4.01957e-05
-1.81762e-06
4.74108e-06
-3.50893e-05
-4.76604e-07
9.63313e-06
-5.47374e-05
-1.81191e-07
1.37938e-05
-5.9382e-05
-3.84449e-08
1.7509e-05
-5.98817e-05
-8.53797e-08
2.07885e-05
-5.87157e-05
-1.81255e-07
2.33676e-05
-5.59099e-05
-2.93475e-07
2.46738e-05
-5.07022e-05
-4.12146e-07
2.4226e-05
-4.26742e-05
-5.4037e-07
2.2277e-05
-3.30087e-05
-7.16813e-07
1.96329e-05
-2.35284e-05
-9.79877e-07
1.69707e-05
-1.53669e-05
-1.28551e-06
1.45461e-05
-8.80882e-06
-1.52954e-06
1.23667e-05
-3.63695e-06
-1.65097e-06
1.042e-05
4.85057e-07
-1.66923e-06
8.61939e-06
3.8572e-06
-1.64446e-06
6.95292e-06
6.58292e-06
-1.62929e-06
5.10331e-06
8.72659e-06
-1.63756e-06
2.88669e-06
1.03823e-05
-1.64792e-06
1.96568e-07
1.17214e-05
-1.63789e-06
-3.0447e-06
1.29111e-05
-1.59047e-06
-6.88284e-06
1.40749e-05
-1.48273e-06
-1.12505e-05
1.5279e-05
-1.28278e-06
-1.58364e-05
1.65504e-05
-9.65055e-07
-2.00825e-05
1.79908e-05
-5.52675e-07
-2.32646e-05
1.98094e-05
-1.39809e-07
-2.45289e-05
2.22701e-05
1.64257e-07
-2.31172e-05
2.56972e-05
2.6603e-07
-1.90082e-05
3.03617e-05
6.70073e-08
-1.36252e-05
3.61673e-05
-4.05136e-07
-9.32667e-06
4.23339e-05
-8.62897e-07
-7.30748e-06
4.7705e-05
-1.10652e-06
-6.91291e-06
5.13526e-05
-1.12451e-06
-5.81799e-06
5.23353e-05
-1.25479e-06
-3.15042e-06
4.99317e-05
-1.77591e-06
3.75677e-05
-1.14303e-06
5.68206e-06
-4.02504e-05
-5.15644e-07
9.43577e-06
-5.8376e-05
-6.59915e-08
1.1876e-05
-6.18154e-05
4.25908e-08
1.37997e-05
-6.17102e-05
-4.04058e-08
1.52863e-05
-5.9933e-05
-1.99053e-07
1.5931e-05
-5.60941e-05
-3.6502e-07
1.49639e-05
-4.90751e-05
-5.36335e-07
1.19476e-05
-3.87843e-05
-7.47566e-07
7.41499e-06
-2.73139e-05
-1.06801e-06
2.67268e-06
-1.72586e-05
-1.47456e-06
-1.1702e-06
-9.65646e-06
-1.85365e-06
-3.7378e-06
-4.13742e-06
-2.12229e-06
-5.22237e-06
6.79979e-08
-2.25895e-06
-6.09427e-06
3.59342e-06
-2.28539e-06
-6.64938e-06
6.6046e-06
-2.24467e-06
-7.06516e-06
9.12564e-06
-2.17884e-06
-7.39013e-06
1.11109e-05
-2.11109e-06
-7.69078e-06
1.26724e-05
-2.04388e-06
-8.09198e-06
1.40354e-05
-1.9738e-06
-8.74213e-06
1.53916e-05
-1.90268e-06
-9.80294e-06
1.68842e-05
-1.83518e-06
-1.14198e-05
1.85703e-05
-1.76893e-06
-1.36357e-05
2.03665e-05
-1.68157e-06
-1.62809e-05
2.2142e-05
-1.54027e-06
-1.89541e-05
2.38872e-05
-1.32904e-06
-2.10676e-05
2.57418e-05
-1.04527e-06
-2.18471e-05
2.79576e-05
-6.91462e-07
-2.0452e-05
3.08852e-05
-2.96381e-07
-1.65705e-05
3.49618e-05
4.00632e-08
-1.12683e-05
4.03412e-05
3.03815e-07
-6.00305e-06
4.59944e-05
4.33671e-07
-1.96189e-06
5.05013e-05
5.66829e-07
-1.92826e-07
5.26383e-05
6.01356e-07
4.8504e-07
5.08353e-05
1.66665e-07
3.90016e-05
1.21871e-07
2.9593e-06
-4.31507e-05
-1.28018e-08
3.45715e-06
-5.92732e-05
5.2596e-07
2.75253e-06
-6.171e-05
7.33056e-07
1.69388e-06
-6.12394e-05
7.35946e-07
3.69062e-07
-5.91053e-05
6.749e-07
-1.48445e-06
-5.46225e-05
6.01357e-07
-4.17533e-06
-4.66423e-05
5.09831e-07
-7.68795e-06
-3.53133e-05
2.72913e-07
-1.14608e-05
-2.30293e-05
-3.73198e-07
-1.42668e-05
-1.31111e-05
-1.31664e-06
-1.53382e-05
-6.58385e-06
-2.0512e-06
-1.4912e-05
-2.19395e-06
-2.45727e-06
-1.34886e-05
1.2043e-06
-2.66389e-06
-1.15883e-05
4.33421e-06
-2.75622e-06
-9.56245e-06
7.22824e-06
-2.77318e-06
-7.77731e-06
9.96034e-06
-2.73938e-06
-6.5297e-06
1.24513e-05
-2.68488e-06
-5.88004e-06
1.45795e-05
-2.62708e-06
-5.65732e-06
1.63191e-05
-2.55676e-06
-5.66413e-06
1.78191e-05
-2.45753e-06
-5.76025e-06
1.92755e-05
-2.32213e-06
-5.86688e-06
2.08184e-05
-2.15862e-06
-5.97132e-06
2.24569e-05
-1.98885e-06
-6.07632e-06
2.40979e-05
-1.83247e-06
-6.12317e-06
2.56781e-05
-1.69329e-06
-5.9804e-06
2.7266e-05
-1.56162e-06
-5.52236e-06
2.91179e-05
-1.4115e-06
-4.87323e-06
3.18319e-05
-1.18002e-06
-4.17058e-06
3.59134e-05
-7.79816e-07
-2.78172e-06
4.09384e-05
-2.41907e-07
-1.8309e-07
4.61076e-05
3.14883e-07
3.02869e-06
5.08832e-05
9.01877e-07
4.1927e-06
5.48548e-05
1.42305e-06
2.79574e-06
5.39883e-05
1.5964e-06
4.21368e-05
1.11199e-06
-1.05865e-06
-4.24604e-05
4.17274e-07
-3.31449e-06
-5.76846e-05
7.28505e-07
-6.24282e-06
-5.96743e-05
9.28748e-07
-9.25598e-06
-5.92725e-05
1.07281e-06
-1.20566e-05
-5.74675e-05
1.18923e-06
-1.43483e-05
-5.36294e-05
1.32392e-06
-1.57651e-05
-4.66771e-05
1.4686e-06
-1.64037e-05
-3.60984e-05
1.43138e-06
-1.70654e-05
-2.32035e-05
8.2321e-07
-1.80506e-05
-1.17798e-05
-3.97634e-07
-1.81341e-05
-5.13271e-06
-1.42617e-06
-1.66936e-05
-1.77708e-06
-1.90667e-06
-1.42132e-05
8.44439e-07
-2.17183e-06
-1.13503e-05
3.77057e-06
-2.36912e-06
-8.96071e-06
7.26606e-06
-2.53236e-06
-6.97739e-06
1.04879e-05
-2.6562e-06
-5.1163e-06
1.31502e-05
-2.73631e-06
-3.27715e-06
1.53425e-05
-2.78773e-06
-1.44062e-06
1.71384e-05
-2.82996e-06
3.68695e-07
1.87221e-05
-2.8653e-06
2.11974e-06
2.02782e-05
-2.88214e-06
3.81653e-06
2.18886e-05
-2.8692e-06
5.48316e-06
2.35365e-05
-2.82251e-06
7.12153e-06
2.5151e-05
-2.74053e-06
8.70871e-06
2.66958e-05
-2.62085e-06
1.01799e-05
2.82879e-05
-2.46472e-06
1.1294e-05
3.03606e-05
-2.27414e-06
1.1404e-05
3.38421e-05
-2.05043e-06
1.02798e-05
3.88857e-05
-1.76907e-06
8.88407e-06
4.40622e-05
-1.35368e-06
8.07689e-06
4.87553e-05
-8.03289e-07
7.62218e-06
5.34913e-05
-6.50177e-08
6.20665e-06
5.82336e-05
9.62224e-07
3.46638e-06
5.74417e-05
1.72267e-06
4.55692e-05
1.29241e-06
-5.75929e-06
-3.74321e-05
6.85947e-07
-1.01289e-05
-5.41317e-05
7.65129e-07
-1.34882e-05
-5.72957e-05
9.3905e-07
-1.64214e-05
-5.75102e-05
1.12807e-06
-1.89377e-05
-5.63351e-05
1.32252e-06
-2.0467e-05
-5.37568e-05
1.55152e-06
-1.98333e-05
-4.93241e-05
1.83524e-06
-1.60558e-05
-4.22081e-05
2.07598e-06
-9.68881e-06
-3.17466e-05
1.89819e-06
-3.24381e-06
-1.92325e-05
8.16752e-07
2.47624e-07
-8.26001e-06
-4.18155e-07
-6.21698e-08
-5.84261e-07
-8.85772e-07
-1.87562e-06
3.72977e-06
-1.05785e-06
-3.58949e-06
6.59001e-06
-1.08384e-06
-4.23005e-06
9.0286e-06
-1.12382e-06
-3.6351e-06
1.10863e-05
-1.255e-06
-2.1466e-06
1.29981e-05
-1.44619e-06
-6.6873e-07
1.54004e-05
-1.67132e-06
5.12049e-07
1.77243e-05
-1.91629e-06
1.80425e-06
1.94419e-05
-2.16934e-06
3.50768e-06
2.08316e-05
-2.41719e-06
5.64206e-06
2.22371e-05
-2.64462e-06
8.02369e-06
2.38239e-05
-2.83923e-06
1.0315e-05
2.56626e-05
-2.9976e-06
1.20995e-05
2.77948e-05
-3.11538e-06
1.29815e-05
3.03131e-05
-3.17798e-06
1.26278e-05
3.35767e-05
-3.17101e-06
1.1062e-05
3.8175e-05
-3.10162e-06
9.09462e-06
4.3558e-05
-2.95735e-06
7.42007e-06
4.83601e-05
-2.67705e-06
6.04848e-06
5.25346e-05
-2.22256e-06
4.50538e-06
5.69291e-05
-1.46809e-06
3.0449e-06
6.08097e-05
-2.85736e-07
1.55422e-06
5.92783e-05
7.25333e-07
4.73944e-05
6.99462e-07
2.10213e-08
-3.75834e-05
2.45759e-08
9.15236e-07
-5.50971e-05
-1.45942e-08
2.11642e-06
-5.87005e-05
1.69391e-07
3.11986e-06
-5.8854e-05
3.37536e-07
3.75154e-06
-5.74413e-05
4.96196e-07
3.99419e-06
-5.46232e-05
6.71918e-07
4.13204e-06
-5.03214e-05
9.22332e-07
5.14299e-06
-4.45658e-05
1.37476e-06
8.50084e-06
-3.73505e-05
2.16571e-06
1.43662e-05
-2.83366e-05
3.04991e-06
2.04813e-05
-1.77586e-05
3.17708e-06
2.51523e-05
-7.53651e-06
2.1657e-06
2.81485e-05
-7.65761e-08
8.17526e-07
2.79186e-05
7.07729e-06
-1.98737e-07
2.63028e-05
1.12445e-05
-5.2138e-07
2.53666e-05
1.27806e-05
-6.52236e-07
2.49575e-05
1.42466e-05
-7.1913e-07
2.45211e-05
1.66994e-05
-7.76045e-07
2.37628e-05
1.94316e-05
-9.22532e-07
2.26967e-05
2.16437e-05
-1.16682e-06
2.17235e-05
2.32138e-05
-1.47943e-06
2.12018e-05
2.44836e-05
-1.82684e-06
2.11541e-05
2.58991e-05
-2.16916e-06
2.12433e-05
2.78302e-05
-2.47265e-06
2.07966e-05
3.06125e-05
-2.73561e-06
1.90721e-05
3.44274e-05
-2.9922e-06
1.59574e-05
3.9104e-05
-3.26154e-06
1.23989e-05
4.42663e-05
-3.49163e-06
9.43633e-06
4.92088e-05
-3.58423e-06
7.06535e-06
5.34424e-05
-3.48889e-06
4.76889e-06
5.72892e-05
-3.18063e-06
2.45846e-06
6.108e-05
-2.55975e-06
1.33656e-06
6.32737e-05
-1.63731e-06
5.92952e-07
6.08259e-05
-7.67648e-07
4.84439e-05
-3.01611e-07
6.22308e-06
-4.34937e-05
-2.91298e-07
1.1132e-05
-5.97897e-05
-1.70192e-07
1.4744e-05
-6.21956e-05
-8.23812e-08
1.77006e-05
-6.17498e-05
-3.49397e-08
2.01967e-05
-5.99125e-05
-1.46106e-09
2.20974e-05
-5.65088e-05
2.15868e-08
2.2997e-05
-5.11606e-05
2.41881e-08
2.25887e-05
-4.39643e-05
-2.64201e-08
2.13956e-05
-3.58041e-05
-1.28294e-07
2.08415e-05
-2.7583e-05
-1.00768e-08
2.1892e-05
-1.94033e-05
6.75581e-07
2.36187e-05
-1.10263e-05
1.76866e-06
2.32452e-05
-2.51618e-06
2.80365e-06
2.07778e-05
6.85143e-06
2.62476e-06
1.62951e-05
1.47765e-05
8.22427e-07
1.20633e-05
1.73772e-05
-3.99024e-07
9.23943e-06
1.79043e-05
-7.74714e-07
8.20359e-06
1.87531e-05
-8.96542e-07
8.6272e-06
2.0138e-05
-9.63019e-07
9.3569e-06
2.21273e-05
-1.04436e-06
9.51793e-06
2.43567e-05
-1.20054e-06
9.11822e-06
2.63444e-05
-1.43706e-06
8.63008e-06
2.80571e-05
-1.71944e-06
8.29177e-06
3.00287e-05
-2.01181e-06
7.88654e-06
3.2982e-05
-2.31124e-06
6.83351e-06
3.74536e-05
-2.68252e-06
4.84047e-06
4.30531e-05
-3.16979e-06
2.5393e-06
4.85426e-05
-3.62841e-06
6.80101e-07
5.30636e-05
-3.86886e-06
-7.70534e-07
5.67845e-05
-3.86096e-06
-2.10128e-06
6.02221e-05
-3.61872e-06
-2.9322e-06
6.31897e-05
-3.13721e-06
-2.41053e-06
6.4068e-05
-2.54269e-06
-1.46342e-06
6.09727e-05
-1.93891e-06
4.73912e-05
-1.15965e-06
1.28226e-06
-4.45671e-05
-1.18811e-07
1.69229e-06
-6.02312e-05
1.11007e-07
1.74302e-06
-6.24124e-05
2.11344e-07
1.66999e-06
-6.19046e-05
2.58678e-07
1.46301e-06
-5.9971e-05
2.95444e-07
1.11292e-06
-5.64702e-05
3.46029e-07
7.36986e-07
-5.11937e-05
4.41245e-07
4.11974e-07
-4.42252e-05
6.09479e-07
-2.80788e-07
-3.58912e-05
8.13766e-07
-1.84139e-06
-2.6891e-05
9.26232e-07
-4.03296e-06
-1.81382e-05
9.72678e-07
-6.281e-06
-1.00641e-05
1.28901e-06
-8.43554e-06
-2.29753e-06
1.92258e-06
-9.01331e-06
5.35345e-06
2.07293e-06
-8.05408e-06
1.30266e-05
6.60281e-07
-8.36188e-06
1.80685e-05
-7.29247e-07
-9.86947e-06
2.02173e-05
-1.00344e-06
-1.10687e-05
2.0893e-05
-1.00111e-06
-1.13611e-05
2.1424e-05