/*--------------------------------*- C++ -*----------------------------------*\
| =========                 |                                                 |
| \\      /  F ield         | OpenFOAM: The Open Source CFD Toolbox           |
|  \\    /   O peration     | Version:  v2006                                 |
|   \\  /    A nd           | Website:  www.openfoam.com                      |
|    \\/     M anipulation  |                                                 |
\*---------------------------------------------------------------------------*/
FoamFile
{
    version     2.0;
    format      ascii;
    class       volVectorField;
    location    "61";
    object      U;
}
// * * * * * * * * * * * * * * * * * * * * * * * * * * * * * * * * * * * * * //

dimensions      [0 1 -1 0 0 0 0];


internalField   nonuniform List<vector> 
78750
(
(-0.625116 -0.352381 -0.082319)
(-0.543438 -0.324192 -0.071717)
(-0.522306 -0.279696 -0.0545557)
(-0.43591 -0.233943 -0.0364719)
(-0.334186 -0.178726 -0.0191309)
(-0.295843 -0.15207 -0.0139234)
(-0.26993 -0.129673 -0.0107672)
(-0.229194 -0.112935 -0.00890807)
(-0.199342 -0.0981717 -0.00690053)
(-0.165526 -0.0859291 -0.0054722)
(-0.140359 -0.0754919 -0.00415581)
(-0.11413 -0.0666974 -0.00316527)
(-0.0932145 -0.0590474 -0.00244232)
(-0.0735378 -0.0524762 -0.00196411)
(-0.0563233 -0.046692 -0.00183387)
(-0.0411954 -0.0415786 -0.00209153)
(-0.0277418 -0.0369679 -0.00277719)
(-0.0159718 -0.0327516 -0.00392939)
(-0.0056664 -0.0288536 -0.00552839)
(0.00319342 -0.0252263 -0.00750533)
(0.0106655 -0.0218073 -0.00969366)
(0.0170957 -0.018456 -0.0118969)
(0.0226101 -0.0150455 -0.0140322)
(0.0271279 -0.0115516 -0.0161042)
(0.0306996 -0.00799351 -0.0181115)
(0.0334118 -0.00441066 -0.0200374)
(0.0353041 -0.00087394 -0.0218506)
(0.0363605 0.00255682 -0.0235278)
(0.0365576 0.00583231 -0.0250757)
(0.0358846 0.00889051 -0.0265073)
(0.0343193 0.0116289 -0.0278432)
(0.0317249 0.0139881 -0.0291251)
(0.027963 0.0159125 -0.030489)
(0.0254687 0.0186613 -0.0339833)
(0.0127045 0.0773953 -0.0175673)
(0.0820599 -0.532351 0.0447229)
(-0.103713 -0.456541 0.04281)
(-0.0417021 -0.496806 0.0398188)
(-0.0717456 -0.52199 0.0435785)
(-0.0933477 -0.432554 0.0456154)
(-0.0933358 -0.361799 0.0469224)
(-0.0962667 -0.307165 0.047598)
(-0.0941722 -0.261476 0.0472266)
(-0.0902031 -0.226784 0.0459544)
(-0.0854341 -0.19738 0.0442169)
(-0.07908 -0.173064 0.0418426)
(-0.0726386 -0.152433 0.0389414)
(-0.0655734 -0.134641 0.0354785)
(-0.0583641 -0.119048 0.0314227)
(-0.0510792 -0.105218 0.0267618)
(-0.0438542 -0.0926878 0.0214299)
(-0.0368946 -0.0811553 0.0153862)
(-0.0302736 -0.0704233 0.00864751)
(-0.0240557 -0.0603821 0.00128934)
(-0.0182942 -0.0509741 -0.00653585)
(-0.013029 -0.0421437 -0.0145954)
(-0.00826905 -0.0338141 -0.022593)
(-0.00397552 -0.0258315 -0.030227)
(-8.28803e-05 -0.018032 -0.0372575)
(0.0034483 -0.0102861 -0.043529)
(0.00662046 -0.00249812 -0.0489466)
(0.00952219 0.00539408 -0.0534165)
(0.0122231 0.013405 -0.0568835)
(0.0146528 0.0215518 -0.0592627)
(0.0166858 0.0299028 -0.0604404)
(0.0181472 0.0386778 -0.0602715)
(0.0188627 0.0486299 -0.0584914)
(0.0185107 0.0632727 -0.0540897)
(0.0158148 0.105941 -0.0429292)
(0.0045085 0.230211 -0.0133373)
(-0.0485439 0.140903 -0.0222387)
(-0.037948 -0.0612721 -0.00677132)
(-0.0817406 -0.120725 -0.0116483)
(-0.0781548 -0.18078 -0.0142141)
(-0.0862013 -0.238886 -0.0112092)
(-0.0844324 -0.253379 -0.00679138)
(-0.0796767 -0.254449 -0.000294767)
(-0.0716424 -0.244776 0.00784696)
(-0.0627202 -0.231839 0.0156198)
(-0.0537172 -0.217434 0.0231337)
(-0.0449599 -0.201757 0.0303351)
(-0.0369195 -0.185934 0.0369421)
(-0.0298335 -0.170526 0.0427816)
(-0.0237924 -0.15575 0.0477006)
(-0.0187649 -0.141595 0.0515205)
(-0.0145956 -0.12796 0.0540668)
(-0.0110577 -0.114597 0.0551285)
(-0.00792623 -0.101237 0.0544542)
(-0.00501633 -0.0876715 0.0517467)
(-0.00220412 -0.0738369 0.0466976)
(0.00051262 -0.0598441 0.0390586)
(0.00304757 -0.0460109 0.0288502)
(0.00533373 -0.0327722 0.0166192)
(0.00736633 -0.0203899 0.00335724)
(0.00922257 -0.00877209 -0.00993892)
(0.0110011 0.00242298 -0.022675)
(0.0126641 0.0135485 -0.0345841)
(0.0140884 0.0247655 -0.0455047)
(0.0151779 0.0361204 -0.0550817)
(0.0158089 0.0478731 -0.0628266)
(0.0159038 0.0610142 -0.0682983)
(0.0154459 0.0784444 -0.0710257)
(0.0140882 0.110103 -0.0690271)
(0.0112019 0.189211 -0.0538329)
(0.00218099 0.306269 -0.0157639)
(0.00645595 -0.0779695 0.0093404)
(0.0183767 -0.204822 0.0160417)
(0.0156633 -0.29355 0.0129874)
(0.0100974 -0.32873 0.00264475)
(0.00612377 -0.337807 -0.00793993)
(0.00149761 -0.338888 -0.0162427)
(-0.00102623 -0.3335 -0.0221302)
(-0.00157648 -0.322927 -0.025074)
(-0.000461921 -0.3073 -0.0248042)
(0.00196897 -0.287359 -0.021836)
(0.00523758 -0.264483 -0.0168705)
(0.00897901 -0.240052 -0.0105562)
(0.0128234 -0.215345 -0.0034278)
(0.0164185 -0.191461 0.00411092)
(0.019459 -0.169278 0.0117675)
(0.0217453 -0.149388 0.0193259)
(0.0232063 -0.131983 0.026632)
(0.0239221 -0.116739 0.0335884)
(0.0241072 -0.102841 0.0400982)
(0.0240462 -0.089172 0.0459134)
(0.0239971 -0.074615 0.0503926)
(0.0240652 -0.0584329 0.0523103)
(0.0241124 -0.0407574 0.0501687)
(0.023857 -0.0227573 0.0433824)
(0.0231742 -0.00561196 0.0332074)
(0.0222601 0.0105799 0.0216406)
(0.0214343 0.0264795 0.0099507)
(0.020822 0.0429016 -0.00155693)
(0.020274 0.0604109 -0.0130404)
(0.019466 0.0789849 -0.0244788)
(0.0181184 0.0983019 -0.0352531)
(0.0162957 0.120009 -0.0445168)
(0.0140489 0.154887 -0.0513133)
(0.0112293 0.242889 -0.0480686)
(0.00295257 0.354983 -0.0167486)
(-1.82125e-06 -0.0941057 0.025829)
(-0.00133236 -0.141158 0.0166796)
(-0.00153019 -0.165345 -0.00248062)
(-0.00152401 -0.197911 -0.0218892)
(-0.000938051 -0.234108 -0.0367541)
(0.000176323 -0.260223 -0.0448466)
(0.00129633 -0.275183 -0.0484036)
(0.00263935 -0.282209 -0.0499109)
(0.00429643 -0.282918 -0.0502741)
(0.00650441 -0.277414 -0.0494999)
(0.00931608 -0.266069 -0.0473429)
(0.0126732 -0.249918 -0.0435807)
(0.0164641 -0.23 -0.0380181)
(0.0205071 -0.207138 -0.0304606)
(0.0245417 -0.182161 -0.0208026)
(0.0282276 -0.156127 -0.00915933)
(0.0311613 -0.13045 0.00400173)
(0.0329274 -0.106864 0.0177618)
(0.0332418 -0.0869223 0.030852)
(0.0321764 -0.0710144 0.0421054)
(0.0302185 -0.0576757 0.0509772)
(0.0280469 -0.0439115 0.0573439)
(0.0264009 -0.0262956 0.0600886)
(0.0256222 -0.00408708 0.0559561)
(0.02517 0.0175853 0.0439821)
(0.0246521 0.0344855 0.0289713)
(0.0243419 0.0480766 0.0152926)
(0.0245925 0.0613464 0.00384487)
(0.0253819 0.0766552 -0.00613473)
(0.0262315 0.0956287 -0.0155828)
(0.0261688 0.11874 -0.0249999)
(0.0240789 0.146628 -0.0343745)
(0.0178205 0.192413 -0.0423853)
(0.00914083 0.309389 -0.038798)
(-2.73825e-05 0.418976 -0.0106326)
(-0.000424964 -0.103873 0.0159608)
(0.00953879 -0.232908 0.00111776)
(0.0233686 -0.305868 -0.0149643)
(0.0378396 -0.34265 -0.0243683)
(0.0497903 -0.357334 -0.0288667)
(0.0581051 -0.360793 -0.0317542)
(0.0633886 -0.358245 -0.0345543)
(0.0664143 -0.351508 -0.0376953)
(0.0677073 -0.341013 -0.0413574)
(0.0676281 -0.327113 -0.0456825)
(0.0665215 -0.310389 -0.0507423)
(0.0647551 -0.291474 -0.0563971)
(0.0626544 -0.270868 -0.0621767)
(0.0604955 -0.248835 -0.0672294)
(0.0585188 -0.225426 -0.0704569)
(0.0568977 -0.200424 -0.0706579)
(0.0556839 -0.173348 -0.0665497)
(0.0547487 -0.143881 -0.0568739)
(0.0536654 -0.112741 -0.0408314)
(0.051668 -0.0829461 -0.0193675)
(0.0479376 -0.0593407 0.00369369)
(0.04237 -0.0443016 0.0235932)
(0.0357654 -0.0341596 0.0378993)
(0.0291008 -0.0203406 0.0459436)
(0.0237131 0.00427916 0.0439059)
(0.0197134 0.0306769 0.0307344)
(0.0158826 0.0485209 0.0157877)
(0.0119966 0.0627345 0.00377808)
(0.00845932 0.0807212 -0.00606445)
(0.00582971 0.108504 -0.0153872)
(0.00461896 0.153306 -0.0258629)
(0.00468411 0.223312 -0.0383886)
(0.00247583 0.319907 -0.0479535)
(-0.00115212 0.419888 -0.0401962)
(-0.00281372 0.456874 -0.0147856)
(0.00194104 -0.152394 -0.00257306)
(0.0141443 -0.286265 -0.0233919)
(0.02441 -0.330131 -0.0329322)
(0.0330578 -0.341095 -0.0368492)
(0.0407454 -0.341469 -0.0380107)
(0.0474659 -0.336892 -0.0377577)
(0.0524256 -0.328783 -0.0371401)
(0.0554659 -0.31736 -0.0368077)
(0.0567616 -0.302342 -0.0369777)
(0.056472 -0.283496 -0.0376885)
(0.0548087 -0.261062 -0.0389554)
(0.0521027 -0.235814 -0.0408226)
(0.0487241 -0.208919 -0.0434256)
(0.0450128 -0.181668 -0.0469487)
(0.0412635 -0.155237 -0.0514207)
(0.0377166 -0.130346 -0.0564372)
(0.0345669 -0.106898 -0.0610136)
(0.0319629 -0.0838219 -0.0636994)
(0.0299655 -0.0591811 -0.0625365)
(0.0285236 -0.0308635 -0.054708)
(0.0273005 0.00146108 -0.0372153)
(0.0254288 0.0335355 -0.0104143)
(0.0215746 0.0578616 0.018635)
(0.0161758 0.0713719 0.0393111)
(0.0106573 0.0812262 0.0485254)
(0.00564591 0.0989875 0.0458953)
(0.00224761 0.127907 0.029939)
(-0.000290733 0.149974 0.0127895)
(-0.00258386 0.160926 0.00287992)
(-0.00445672 0.169875 -0.0022306)
(-0.00538143 0.186124 -0.00580942)
(-0.00268825 0.223819 -0.0108289)
(0.00559132 0.309866 -0.0217754)
(0.00993092 0.421124 -0.0309287)
(0.00423851 0.452273 -0.0153023)
(0.00479037 -0.211764 -0.00518715)
(0.0155697 -0.34936 -0.00685825)
(0.023087 -0.38961 -0.00825104)
(0.0291439 -0.399422 -0.0107183)
(0.0348974 -0.397928 -0.0139608)
(0.0405883 -0.389581 -0.0179646)
(0.0455976 -0.375662 -0.0227367)
(0.0493793 -0.356913 -0.0283547)
(0.0516157 -0.334214 -0.0349374)
(0.0522315 -0.308874 -0.042408)
(0.0514451 -0.282431 -0.050235)
(0.0497214 -0.256187 -0.0574065)
(0.0476299 -0.230816 -0.0628622)
(0.0456591 -0.206293 -0.0660857)
(0.0440998 -0.182176 -0.0673071)
(0.0430448 -0.158032 -0.067339)
(0.0424523 -0.133771 -0.0672794)
(0.0422552 -0.109781 -0.0680424)
(0.0424897 -0.0867266 -0.06976)
(0.0433264 -0.0649069 -0.071546)
(0.0449541 -0.0436927 -0.0718825)
(0.0475015 -0.0218131 -0.0689023)
(0.0506475 0.00151839 -0.0599856)
(0.0533468 0.0239847 -0.0431194)
(0.0544986 0.0402622 -0.0216064)
(0.0545635 0.0506134 -0.00389287)
(0.054185 0.0601021 0.00738248)
(0.0533136 0.0739813 0.0129429)
(0.0506206 0.0991425 0.00837976)
(0.0446722 0.126254 -0.00209321)
(0.0365883 0.144332 -0.0103824)
(0.0280125 0.15943 -0.0159635)
(0.0184023 0.230725 -0.0166525)
(0.0142366 0.432685 -0.0120659)
(0.00456421 0.517089 0.000912767)
(0.00264014 -0.266484 -0.00402834)
(0.00425568 -0.366118 -0.00795448)
(0.00563408 -0.377463 -0.0108753)
(0.00720465 -0.374877 -0.0129305)
(0.00927628 -0.365747 -0.0149513)
(0.0116408 -0.350583 -0.0174288)
(0.0140258 -0.328833 -0.0209951)
(0.0160542 -0.300355 -0.0264579)
(0.0173211 -0.266863 -0.0345289)
(0.0176475 -0.23175 -0.045381)
(0.0171426 -0.198616 -0.0580835)
(0.0160843 -0.17014 -0.0704065)
(0.0147862 -0.147331 -0.079893)
(0.0135219 -0.129252 -0.085434)
(0.0124687 -0.113897 -0.087337)
(0.0117615 -0.099282 -0.0863597)
(0.0115048 -0.0838761 -0.083244)
(0.0117417 -0.0667324 -0.0787975)
(0.0123665 -0.0478311 -0.0739102)
(0.0131045 -0.0281699 -0.0689646)
(0.0136422 -0.0085861 -0.0630573)
(0.0137533 0.0114846 -0.0536135)
(0.0136732 0.0332967 -0.0353235)
(0.0136165 0.0562847 -0.0016657)
(0.0131025 0.0757688 0.0325585)
(0.0123023 0.0953487 0.036982)
(0.0120565 0.126969 0.00316598)
(0.0140437 0.169243 -0.0400713)
(0.0175901 0.21482 -0.0713268)
(0.02093 0.26732 -0.0948139)
(0.0207994 0.322465 -0.10751)
(0.0124497 0.368236 -0.0992301)
(-0.00422946 0.430499 -0.0680055)
(-0.00954075 0.550082 -0.0407711)
(-0.00692395 0.571712 -0.0222703)
(-0.00236593 -0.253438 8.95933e-05)
(-0.00491184 -0.362152 0.00177442)
(-0.00431867 -0.385849 0.00270185)
(-0.0028061 -0.390561 0.00296311)
(-0.000547429 -0.386891 0.00313935)
(0.00234337 -0.37511 0.00316705)
(0.00551012 -0.353383 0.00268574)
(0.00845688 -0.321178 0.00101409)
(0.0107067 -0.281586 -0.00285939)
(0.0120311 -0.239963 -0.0101337)
(0.0124629 -0.201102 -0.0215063)
(0.0122015 -0.167904 -0.0360574)
(0.01147 -0.141386 -0.0510919)
(0.010414 -0.120932 -0.0637946)
(0.00908875 -0.104805 -0.0728618)
(0.00752189 -0.0910026 -0.0783102)
(0.00574502 -0.0778389 -0.0805151)
(0.00381028 -0.0640051 -0.079748)
(0.00180775 -0.0485305 -0.0762771)
(-0.000120061 -0.030978 -0.0706561)
(-0.00196334 -0.0117303 -0.0635183)
(-0.00391759 0.00834016 -0.0546258)
(-0.0063103 0.0283047 -0.0420493)
(-0.00943047 0.0469823 -0.0229185)
(-0.013859 0.0624714 0.00119044)
(-0.0193826 0.0739706 0.0185884)
(-0.0239174 0.0845653 0.0226705)
(-0.0266177 0.0991646 0.0191209)
(-0.0267899 0.126009 0.0106907)
(-0.022644 0.183554 -0.00808011)
(-0.0135699 0.292951 -0.0441444)
(-0.00546978 0.435809 -0.0794707)
(-0.00817822 0.532561 -0.0784404)
(-0.00919041 0.56894 -0.0592696)
(-0.00455356 0.52638 -0.0377916)
(-0.00173665 -0.232881 0.00202951)
(-0.00130125 -0.359593 0.00250589)
(0.000365221 -0.388634 0.00237164)
(0.00267603 -0.394694 0.00196934)
(0.00555812 -0.391072 0.00143439)
(0.0090828 -0.378543 0.000784685)
(0.0131333 -0.355312 5.67759e-05)
(0.0174773 -0.320119 -0.000675687)
(0.0216989 -0.275152 -0.00131286)
(0.0253572 -0.225909 -0.00215649)
(0.0281317 -0.178252 -0.00447619)
(0.0298888 -0.136466 -0.00996277)
(0.0307279 -0.102529 -0.0192027)
(0.0309076 -0.0761383 -0.0310331)
(0.0306751 -0.0555875 -0.0434846)
(0.0301797 -0.0388168 -0.0549355)
(0.0294749 -0.0240485 -0.0644639)
(0.0285462 -0.00998559 -0.0716359)
(0.0274225 0.00424979 -0.0762327)
(0.0261689 0.0192514 -0.0781322)
(0.0248156 0.035427 -0.0773075)
(0.0233847 0.0530965 -0.0738496)
(0.0217708 0.0722927 -0.0678614)
(0.0197311 0.0925573 -0.0592164)
(0.0168291 0.112906 -0.0477478)
(0.0124218 0.132133 -0.0343802)
(0.00606002 0.148559 -0.0206737)
(-0.00213092 0.159306 -0.00545109)
(-0.011925 0.163548 0.0149138)
(-0.0216817 0.171695 0.037475)
(-0.0279055 0.213627 0.0446272)
(-0.0219871 0.321978 0.0225061)
(-0.00545207 0.484565 -0.012366)
(0.00176976 0.541813 -0.0267075)
(0.00164014 0.491715 -0.0186447)
(-6.13961e-05 -0.239653 -0.000247383)
(0.00149116 -0.378147 0.00126932)
(0.00380963 -0.41556 0.00272058)
(0.00637912 -0.425137 0.00324832)
(0.00938068 -0.423834 0.00323074)
(0.0129127 -0.413621 0.00275005)
(0.0168785 -0.392385 0.00160708)
(0.0210622 -0.357221 -0.000548202)
(0.0250637 -0.309203 -0.00358801)
(0.0286055 -0.254316 -0.00646361)
(0.0315571 -0.199063 -0.00818621)
(0.0337801 -0.148432 -0.00922196)
(0.0352152 -0.106038 -0.0113818)
(0.0360783 -0.0731179 -0.0161398)
(0.0367793 -0.0480246 -0.0235829)
(0.0376603 -0.0278556 -0.0329728)
(0.0388973 -0.0101985 -0.043353)
(0.0404426 0.00632494 -0.0535999)
(0.0420006 0.0223637 -0.0626391)
(0.0433745 0.0383248 -0.0697512)
(0.0446009 0.0546367 -0.0746359)
(0.0457749 0.0717753 -0.0771861)
(0.0469619 0.0901815 -0.0773077)
(0.0481682 0.110212 -0.0748487)
(0.0493457 0.132142 -0.0695371)
(0.0503418 0.156195 -0.0610246)
(0.0509969 0.182538 -0.0490065)
(0.0512149 0.212022 -0.0340829)
(0.0494696 0.23986 -0.0151329)
(0.0419361 0.259088 0.00757019)
(0.0291261 0.273771 0.0233891)
(0.0195584 0.291377 0.0231805)
(0.0179973 0.368214 0.017323)
(0.019796 0.528556 0.00862291)
(0.00770297 0.535212 0.0100211)
(0.000151741 -0.250358 0.00113601)
(0.00313613 -0.39431 0.00592305)
(0.00758555 -0.435752 0.00842165)
(0.0119349 -0.447471 0.00945137)
(0.0164819 -0.447265 0.00986232)
(0.0213495 -0.437795 0.00988001)
(0.0264221 -0.417023 0.00937775)
(0.0314672 -0.381098 0.00780159)
(0.0359834 -0.330338 0.00435192)
(0.0396772 -0.271618 -0.00102511)
(0.0425579 -0.212369 -0.0070341)
(0.044644 -0.15718 -0.0119176)
(0.0457223 -0.109612 -0.014974)
(0.0456639 -0.0726681 -0.0172138)
(0.0449656 -0.0459395 -0.0202273)
(0.0443908 -0.0257058 -0.0249286)
(0.0444423 -0.00805952 -0.0317471)
(0.0454547 0.00948613 -0.040875)
(0.0475992 0.0274998 -0.0515263)
(0.0506719 0.0452089 -0.0620913)
(0.0543675 0.0621246 -0.0712991)
(0.058462 0.0784438 -0.0785908)
(0.0627955 0.0945692 -0.083674)
(0.0671274 0.110644 -0.0861807)
(0.0710336 0.126384 -0.0855886)
(0.0740262 0.141339 -0.0809362)
(0.075718 0.154738 -0.0684303)
(0.0750586 0.17262 -0.0413603)
(0.0717656 0.223394 -0.0204088)
(0.0621864 0.292668 -0.0221697)
(0.0498912 0.337781 -0.0321276)
(0.038658 0.356517 -0.0389009)
(0.0239136 0.430812 -0.014031)
(0.0164783 0.619428 0.0161623)
(0.00515529 0.638551 0.0201696)
(-0.00153009 -0.254294 -0.00044197)
(6.46945e-05 -0.421196 0.00230585)
(0.00380117 -0.471736 0.00466386)
(0.00814859 -0.486126 0.00585637)
(0.0127028 -0.486394 0.0065267)
(0.0174657 -0.475664 0.00690894)
(0.0221432 -0.450864 0.00701563)
(0.0262495 -0.406779 0.00664546)
(0.0292188 -0.34426 0.00527872)
(0.0310793 -0.272856 0.00258682)
(0.0322204 -0.202676 -0.00100186)
(0.0331063 -0.138537 -0.00476007)
(0.0340269 -0.0820651 -0.00797365)
(0.0346641 -0.0369971 -0.0101269)
(0.0344794 -0.00797951 -0.01146)
(0.0337968 0.00758807 -0.0127035)
(0.0332885 0.0170755 -0.0141994)
(0.0332964 0.025355 -0.0160057)
(0.0341343 0.0345335 -0.0183255)
(0.0360707 0.0455549 -0.0214467)
(0.0391926 0.0587535 -0.0257986)
(0.0432031 0.073784 -0.0317183)
(0.0476483 0.0910758 -0.0394693)
(0.0519556 0.112189 -0.0489911)
(0.0553399 0.139813 -0.0592727)
(0.0568407 0.177322 -0.0680353)
(0.0547719 0.22765 -0.073522)
(0.0473623 0.293091 -0.0811367)
(0.0362356 0.366718 -0.0980699)
(0.0246243 0.422916 -0.11154)
(0.0154597 0.456167 -0.112553)
(0.00622693 0.489491 -0.096829)
(-0.00451243 0.578627 -0.0530888)
(-0.00702116 0.692544 -0.0241309)
(-0.00567693 0.685933 -0.0184465)
(0.000545051 -0.255791 -0.0069529)
(0.00719384 -0.437913 -0.00187461)
(0.0137927 -0.498728 0.00185158)
(0.0196873 -0.516282 0.00349943)
(0.0253269 -0.516982 0.00421687)
(0.0309222 -0.50538 0.00440705)
(0.035978 -0.478677 0.00405159)
(0.0397072 -0.432067 0.00270495)
(0.0414387 -0.366889 -0.000617353)
(0.0413797 -0.292912 -0.00610377)
(0.0401237 -0.221957 -0.0116327)
(0.0381935 -0.160753 -0.0149839)
(0.0361393 -0.109296 -0.0163667)
(0.0343352 -0.0651473 -0.0175281)
(0.0325112 -0.0285252 -0.0197149)
(0.0299058 -0.00187309 -0.0225597)
(0.0262523 0.0155904 -0.0248683)
(0.0218838 0.0271574 -0.0257242)
(0.0171806 0.0356885 -0.0245786)
(0.0125904 0.0433512 -0.0210141)
(0.0083828 0.0524078 -0.0146082)
(0.00460329 0.0657694 -0.0050199)
(0.0012491 0.0868216 0.00641391)
(-0.00160474 0.117948 0.0145273)
(-0.00381823 0.161171 0.0129656)
(-0.00511929 0.22015 -0.00153854)
(-0.00528913 0.297018 -0.0301944)
(-0.00475409 0.385478 -0.0732314)
(-0.00474107 0.465737 -0.120484)
(-0.00692972 0.518935 -0.149199)
(-0.0110471 0.554132 -0.152939)
(-0.0167816 0.592316 -0.135012)
(-0.0198629 0.649958 -0.101345)
(-0.0173379 0.692183 -0.0773485)
(-0.00910694 0.631925 -0.0569198)
(0.00235179 -0.293703 -0.0054019)
(0.0107809 -0.493745 0.00349699)
(0.0174219 -0.552576 0.00666812)
(0.0228092 -0.566068 0.0077614)
(0.0276945 -0.56209 0.00831113)
(0.0322562 -0.543542 0.00880037)
(0.0356887 -0.504747 0.00931762)
(0.0368406 -0.439447 0.00904084)
(0.035148 -0.353257 0.00551059)
(0.0315577 -0.260683 -0.00318965)
(0.0275364 -0.174896 -0.0149765)
(0.0237937 -0.103131 -0.0248743)
(0.0204119 -0.0461229 -0.0298176)
(0.0173341 -0.000699056 -0.0305756)
(0.0145129 0.0367312 -0.029914)
(0.0118957 0.0670062 -0.0302746)
(0.00920402 0.0893466 -0.0322564)
(0.00613633 0.104191 -0.0347711)
(0.00249743 0.113892 -0.0365962)
(-0.00190452 0.120599 -0.0367514)
(-0.00716835 0.125677 -0.0340448)
(-0.0132676 0.130399 -0.0269711)
(-0.020025 0.136927 -0.0144604)
(-0.0268763 0.14863 0.00217999)
(-0.0328142 0.169068 0.0184228)
(-0.0367598 0.20201 0.0288712)
(-0.0375548 0.252747 0.028361)
(-0.034023 0.325408 0.0112292)
(-0.026692 0.414333 -0.0236555)
(-0.0190232 0.50161 -0.0646608)
(-0.0141977 0.575576 -0.0952384)
(-0.0132033 0.63369 -0.104802)
(-0.0128285 0.669595 -0.0952511)
(-0.0102452 0.674991 -0.0793775)
(-0.0037284 0.559179 -0.0473232)
(0.00447583 -0.340006 -0.00224046)
(0.0116089 -0.533775 0.00359882)
(0.0158062 -0.582909 0.00437444)
(0.018674 -0.590989 0.00462986)
(0.0210414 -0.581984 0.00500036)
(0.0228126 -0.555442 0.0058745)
(0.023012 -0.501867 0.00720505)
(0.0205104 -0.416643 0.00653022)
(0.0150224 -0.314722 -0.000664298)
(0.00773478 -0.217857 -0.0141894)
(0.000878908 -0.137864 -0.0282455)
(-0.00411456 -0.0757501 -0.0383481)
(-0.00703258 -0.0274261 -0.0432637)
(-0.00862932 0.0109203 -0.0438893)
(-0.00962573 0.0415889 -0.0421813)
(-0.0103559 0.0663453 -0.0400616)
(-0.0109075 0.0871029 -0.0385985)
(-0.0113507 0.105401 -0.0379866)
(-0.0118371 0.122284 -0.0380855)
(-0.0125541 0.138848 -0.0387703)
(-0.0137354 0.156089 -0.0399262)
(-0.0156619 0.173964 -0.0410435)
(-0.0185206 0.190987 -0.0406833)
(-0.0221702 0.206413 -0.0372031)
(-0.0261716 0.221819 -0.0300867)
(-0.0298534 0.24011 -0.0196869)
(-0.0323104 0.265036 -0.00669561)
(-0.0324202 0.302087 0.00706595)
(-0.0290971 0.358648 0.0165517)
(-0.0225535 0.437431 0.0144219)
(-0.0142797 0.526453 -0.000222547)
(-0.00623603 0.608021 -0.0187263)
(-0.00161019 0.659381 -0.0304056)
(0.000823947 0.667085 -0.0287426)
(0.00151044 0.555615 -0.0102884)
(0.00359649 -0.39487 0.00745546)
(0.00496022 -0.57138 0.0114746)
(0.00452185 -0.605611 0.0115474)
(0.00324767 -0.607218 0.0121629)
(0.00150467 -0.592362 0.0138978)
(-0.000752113 -0.555389 0.017552)
(-0.00409842 -0.482601 0.0225985)
(-0.00872355 -0.371729 0.0218907)
(-0.0143586 -0.246529 0.00380936)
(-0.0199576 -0.139491 -0.0281086)
(-0.0230859 -0.0628065 -0.0534636)
(-0.0233688 -0.010133 -0.0650378)
(-0.0217674 0.029178 -0.0681005)
(-0.0191311 0.0627612 -0.0666407)
(-0.016016 0.0934234 -0.0626034)
(-0.0129096 0.119793 -0.0572321)
(-0.0105529 0.13887 -0.0520029)
(-0.00920189 0.151543 -0.0477434)
(-0.00858073 0.161514 -0.0441446)
(-0.00841192 0.171615 -0.0407092)
(-0.00849022 0.183645 -0.0372952)
(-0.0086482 0.19862 -0.0342606)
(-0.00879994 0.216194 -0.0322901)
(-0.00893815 0.234604 -0.031629)
(-0.00904516 0.252551 -0.0316678)
(-0.00898073 0.270617 -0.0314329)
(-0.00852037 0.291076 -0.0296867)
(-0.00762355 0.317251 -0.0239502)
(-0.00669374 0.35399 -0.0110441)
(-0.00559315 0.40782 0.00625871)
(-0.00274237 0.476095 0.0190802)
(0.00254014 0.550626 0.0233734)
(0.00653578 0.62602 0.0216612)
(0.00771401 0.663272 0.0211292)
(0.00436581 0.583287 0.0234427)
(0.000236471 -0.390292 0.0144365)
(-0.00329811 -0.551337 0.01228)
(-0.00707141 -0.582811 0.0108749)
(-0.0112395 -0.584813 0.0114359)
(-0.0157406 -0.570163 0.0140598)
(-0.0202378 -0.533045 0.0197945)
(-0.0235994 -0.462274 0.0281298)
(-0.02452 -0.355847 0.0298294)
(-0.0245613 -0.234259 0.00533321)
(-0.0265451 -0.136629 -0.0474366)
(-0.0282073 -0.0770556 -0.0877196)
(-0.0269182 -0.0373353 -0.101053)
(-0.0237405 -0.00581323 -0.103235)
(-0.0196218 0.0228372 -0.101641)
(-0.0155682 0.0502309 -0.0982975)
(-0.0121258 0.0787553 -0.0933453)
(-0.00915697 0.109824 -0.0868504)
(-0.00632301 0.140074 -0.0796368)
(-0.00350322 0.164957 -0.0727117)
(-0.000758505 0.184386 -0.0663945)
(0.00188832 0.200485 -0.0605442)
(0.00447145 0.214958 -0.0551768)
(0.006986 0.228481 -0.0506285)
(0.00940971 0.241118 -0.0471351)
(0.0117177 0.253001 -0.0445117)
(0.0138562 0.264921 -0.0422946)
(0.0158762 0.279816 -0.0398114)
(0.0174127 0.307199 -0.0365851)
(0.0167294 0.354855 -0.031363)
(0.0141776 0.410849 -0.021014)
(0.012397 0.465753 -0.00729323)
(0.0123888 0.525284 0.00864085)
(0.0110652 0.612185 0.0304729)
(0.00904871 0.669326 0.0414822)
(0.00533903 0.609584 0.039092)
(-0.0050502 -0.359099 0.0131601)
(-0.0121722 -0.523061 0.00843023)
(-0.0175303 -0.55435 0.00725673)
(-0.0216417 -0.557594 0.00765187)
(-0.0258871 -0.545284 0.00960248)
(-0.0296216 -0.513146 0.0140742)
(-0.0310923 -0.452112 0.0217131)
(-0.0279206 -0.353297 0.0281714)
(-0.019455 -0.219672 0.0161387)
(-0.00852661 -0.0888859 -0.0371883)
(-0.000694104 -0.0171381 -0.0972429)
(0.000800186 0.00720633 -0.118114)
(-0.00135917 0.0266734 -0.121121)
(-0.00474835 0.0606293 -0.114613)
(-0.00675554 0.10565 -0.107029)
(-0.00621276 0.142599 -0.102425)
(-0.00424505 0.164339 -0.0993577)
(-0.0021249 0.17666 -0.0965942)
(-0.000211036 0.186029 -0.0933192)
(0.00167806 0.196407 -0.0889066)
(0.003896 0.209368 -0.0832014)
(0.00679345 0.224752 -0.076781)
(0.0102747 0.241623 -0.0708012)
(0.0138291 0.258679 -0.0664048)
(0.0168216 0.275136 -0.0638185)
(0.0187963 0.29241 -0.0622114)
(0.0193365 0.316068 -0.060623)
(0.0180298 0.355934 -0.0591983)
(0.0151691 0.409001 -0.0571192)
(0.0121271 0.458695 -0.0512041)
(0.00987648 0.503308 -0.040028)
(0.00822904 0.557785 -0.0197787)
(0.00592235 0.642042 0.0123268)
(0.00390202 0.68953 0.0278928)
(0.00255431 0.634841 0.0269719)
(-0.00116456 -0.325954 0.00272796)
(0.00105344 -0.505887 -0.000677628)
(0.00214363 -0.551946 -0.00176414)
(0.00390005 -0.562791 -0.00238764)
(0.00522279 -0.559789 -0.00270115)
(0.0060178 -0.546574 -0.0020716)
(0.00626984 -0.522749 0.001809)
(0.0066362 -0.481856 0.0148285)
(0.00924956 -0.408857 0.0439722)
(0.0161952 -0.291705 0.0791157)
(0.0260915 -0.14531 0.0810183)
(0.0353861 -0.0174049 0.0301255)
(0.0421663 0.0551201 -0.035553)
(0.0428659 0.0805494 -0.0835432)
(0.041115 0.0852432 -0.0977076)
(0.0395197 0.0906863 -0.0998324)
(0.0379043 0.108129 -0.0966881)
(0.0373952 0.143943 -0.090778)
(0.0368936 0.180761 -0.0866188)
(0.0353588 0.204049 -0.0839492)
(0.0337172 0.217882 -0.0812999)
(0.0325354 0.229586 -0.0779489)
(0.0319797 0.24342 -0.0737462)
(0.031959 0.262126 -0.0693295)
(0.0318316 0.28758 -0.0664019)
(0.0304755 0.320475 -0.0672081)
(0.0268798 0.361984 -0.0723077)
(0.021483 0.413165 -0.0786443)
(0.0162198 0.465708 -0.0813466)
(0.0121651 0.510387 -0.0782104)
(0.00881572 0.552477 -0.0683909)
(0.00530229 0.607713 -0.0481729)
(0.0028154 0.679718 -0.019935)
(0.00147768 0.713334 -0.00578388)
(0.000725392 0.65518 -0.00199993)
(0.00472646 -0.370536 -0.00203899)
(0.0131591 -0.549987 -0.00135605)
(0.0192356 -0.591068 -0.00134623)
(0.0236813 -0.596098 -0.00163615)
(0.0278355 -0.584605 -0.00228321)
(0.0315922 -0.556421 -0.00350655)
(0.0343062 -0.508562 -0.00626836)
(0.0352304 -0.445098 -0.0125456)
(0.0339085 -0.379111 -0.0214688)
(0.0316172 -0.315765 -0.0206298)
(0.0313482 -0.243883 0.00769779)
(0.0338885 -0.154863 0.0548791)
(0.035955 -0.0588922 0.0994423)
(0.0354306 0.0478556 0.0872734)
(0.030582 0.127547 -0.00240659)
(0.0203612 0.153535 -0.062693)
(0.0150221 0.165445 -0.0800192)
(0.0128921 0.179466 -0.0832262)
(0.0124492 0.1991 -0.081463)
(0.0135538 0.222838 -0.0775278)
(0.0144055 0.243141 -0.0737707)
(0.0141874 0.258391 -0.0704371)
(0.0134988 0.273372 -0.0668792)
(0.0128125 0.293519 -0.0632771)
(0.0122992 0.324848 -0.0616343)
(0.0115195 0.371428 -0.0665472)
(0.00940134 0.428037 -0.0804324)
(0.00579452 0.483137 -0.0956393)
(0.00235546 0.529605 -0.102552)
(-0.000140036 0.569844 -0.100189)
(-0.00230167 0.612442 -0.0897979)
(-0.00426229 0.665968 -0.0712916)
(-0.00460087 0.720135 -0.0509076)
(-0.00384634 0.740768 -0.0390967)
(-0.00244715 0.666248 -0.0295411)
(0.00165341 -0.406028 0.00232576)
(0.0021574 -0.574774 0.00575615)
(0.00243858 -0.605541 0.0066282)
(0.00249509 -0.606648 0.0070312)
(0.00230525 -0.59319 0.0074982)
(0.00184703 -0.564049 0.0086451)
(0.00123611 -0.514703 0.0117392)
(0.000757914 -0.441452 0.0181563)
(0.000341002 -0.347059 0.026101)
(-0.00137737 -0.244578 0.0291652)
(-0.00469921 -0.149083 0.0284202)
(-0.00813029 -0.0659442 0.0403391)
(-0.0118131 0.0118403 0.0669269)
(-0.0140918 0.0963761 0.069522)
(-0.0114924 0.177047 -0.00368136)
(-0.0118046 0.203717 -0.074536)
(-0.0144924 0.200702 -0.0889935)
(-0.0159597 0.202117 -0.0885042)
(-0.0168777 0.209876 -0.0845126)
(-0.0168246 0.226469 -0.0774788)
(-0.0155137 0.251632 -0.068797)
(-0.0143454 0.277445 -0.0613504)
(-0.014289 0.298612 -0.0560817)
(-0.014782 0.320828 -0.0522269)
(-0.0150972 0.353881 -0.0507316)
(-0.014522 0.406277 -0.0560815)
(-0.0129403 0.474592 -0.0730401)
(-0.0117588 0.539777 -0.0962275)
(-0.0118411 0.588579 -0.112066)
(-0.0124283 0.627228 -0.115072)
(-0.0127225 0.667649 -0.107244)
(-0.0120565 0.713498 -0.0921636)
(-0.0100378 0.75102 -0.0769556)
(-0.00717616 0.759644 -0.065371)
(-0.00375165 0.658493 -0.0491181)
(0.000949676 -0.407189 0.00312355)
(0.00178141 -0.572709 0.00704252)
(0.0020527 -0.604442 0.00773414)
(0.00207029 -0.606022 0.00759783)
(0.00175182 -0.591846 0.00699947)
(0.000818733 -0.560626 0.00603227)
(-0.00115444 -0.511461 0.00528487)
(-0.0042218 -0.448345 0.00649929)
(-0.00756431 -0.374976 0.012477)
(-0.0102227 -0.29352 0.0245728)
(-0.0121697 -0.209448 0.0392923)
(-0.0134128 -0.127999 0.0531309)
(-0.0134791 -0.0515156 0.0693417)
(-0.0124029 0.0233088 0.0846477)
(-0.00898132 0.104099 0.0696641)
(-0.0035912 0.178716 0.0129256)
(-0.00148421 0.220828 -0.0446826)
(-0.00509128 0.228996 -0.0724424)
(-0.00956569 0.229145 -0.0760883)
(-0.0132195 0.234745 -0.0730663)
(-0.01615 0.249622 -0.0667522)
(-0.0177307 0.27537 -0.0581819)
(-0.0186721 0.306284 -0.0499434)
(-0.0200854 0.334425 -0.0440259)
(-0.0214311 0.364196 -0.0401986)
(-0.0214544 0.4076 -0.0400242)
(-0.018943 0.47133 -0.0481951)
(-0.0141397 0.546264 -0.0670393)
(-0.00955299 0.613129 -0.0902847)
(-0.00726425 0.662619 -0.107963)
(-0.00673809 0.701499 -0.114358)
(-0.00617191 0.738624 -0.110421)
(-0.004976 0.766931 -0.101618)
(-0.00323786 0.76985 -0.0897618)
(-0.00204363 0.651973 -0.0626761)
(0.000338816 -0.420171 0.00873357)
(0.000201679 -0.587425 0.0161196)
(-0.000298319 -0.615786 0.0176513)
(-0.000956469 -0.614648 0.0179992)
(-0.00179969 -0.59691 0.0179431)
(-0.0028581 -0.559779 0.0176715)
(-0.00416613 -0.500449 0.0173594)
(-0.00589954 -0.423273 0.0175172)
(-0.00817951 -0.338147 0.0193682)
(-0.0106059 -0.253339 0.0244437)
(-0.0126669 -0.175418 0.0338492)
(-0.0142237 -0.108974 0.0474876)
(-0.0150693 -0.0520912 0.0641402)
(-0.0149613 0.000142384 0.0821299)
(-0.0130761 0.0532972 0.0924459)
(-0.00788357 0.117325 0.0783703)
(-0.000384346 0.190078 0.0373422)
(0.00512282 0.249357 -0.0145427)
(0.0045815 0.27678 -0.05453)
(-0.000107303 0.281198 -0.0680552)
(-0.00455412 0.28545 -0.0685783)
(-0.00846717 0.297343 -0.064193)
(-0.0113725 0.321097 -0.0562992)
(-0.013756 0.353733 -0.0475936)
(-0.0167207 0.384883 -0.0410744)
(-0.0192091 0.416995 -0.0363907)
(-0.0194782 0.46134 -0.0345779)
(-0.0161743 0.524423 -0.0387168)
(-0.00964848 0.602117 -0.0507863)
(-0.00269555 0.680622 -0.0690714)
(0.00131198 0.743392 -0.0874746)
(0.00196869 0.785205 -0.0979229)
(0.00144802 0.810076 -0.0984186)
(0.000598868 0.808276 -0.0894933)
(-0.000971624 0.671059 -0.055445)
(0.000534736 -0.422471 0.0125084)
(-0.000126473 -0.585347 0.0178004)
(-0.00101546 -0.614037 0.0184758)
(-0.00195421 -0.613564 0.0184846)