/*--------------------------------*- C++ -*----------------------------------*\
| =========                 |                                                 |
| \\      /  F ield         | OpenFOAM: The Open Source CFD Toolbox           |
|  \\    /   O peration     | Version:  v2006                                 |
|   \\  /    A nd           | Website:  www.openfoam.com                      |
|    \\/     M anipulation  |                                                 |
\*---------------------------------------------------------------------------*/
FoamFile
{
    version     2.0;
    format      ascii;
    class       volScalarField;
    location    "99";
    object      alphat;
}
// * * * * * * * * * * * * * * * * * * * * * * * * * * * * * * * * * * * * * //

dimensions      [1 -1 -1 0 0 0 0];


internalField   nonuniform List<scalar> 
78750
(
2.0022e-09
2.37012e-07
4.71922e-07
7.35939e-07
1.02123e-06
1.31643e-06
1.61089e-06
1.89637e-06
2.16709e-06
2.41909e-06
2.64969e-06
2.85712e-06
3.04031e-06
3.19833e-06
3.32986e-06
3.43481e-06
3.51304e-06
3.56435e-06
3.58843e-06
3.58488e-06
3.55311e-06
3.49311e-06
3.40234e-06
3.28046e-06
3.1268e-06
2.94093e-06
2.72254e-06
2.47329e-06
2.19589e-06
1.89312e-06
1.56585e-06
1.21409e-06
8.46828e-07
4.89328e-07
6.23227e-09
5.33152e-09
3.38448e-06
5.81231e-06
7.61222e-06
9.07002e-06
1.04889e-05
1.19395e-05
1.34316e-05
1.49698e-05
1.65646e-05
1.82231e-05
1.99672e-05
2.18775e-05
2.34884e-05
2.38349e-05
2.40546e-05
2.41551e-05
2.41428e-05
2.40226e-05
2.37983e-05
2.34716e-05
2.30419e-05
2.25027e-05
2.18478e-05
2.10691e-05
1.9895e-05
1.7613e-05
1.53829e-05
1.31723e-05
1.08358e-05
8.28488e-06
5.86073e-06
4.33885e-06
2.4102e-06
2.11684e-08
8.81648e-09
2.52314e-06
5.54748e-06
8.78967e-06
1.18419e-05
1.4556e-05
1.69231e-05
1.89888e-05
2.08073e-05
2.24186e-05
2.38412e-05
2.5074e-05
2.6118e-05
2.70232e-05
2.77759e-05
2.76472e-05
2.73537e-05
2.69636e-05
2.64933e-05
2.59602e-05
2.51982e-05
2.37828e-05
2.22198e-05
2.06693e-05
1.92264e-05
1.79173e-05
1.66948e-05
1.54161e-05
1.38398e-05
1.17422e-05
9.25464e-06
7.26175e-06
6.60737e-06
2.38392e-06
3.71174e-08
1.23597e-08
2.38863e-06
5.4909e-06
9.81757e-06
1.49451e-05
1.96452e-05
2.32198e-05
2.58029e-05
2.76634e-05
2.89575e-05
2.97624e-05
3.01203e-05
3.00637e-05
2.9636e-05
2.88992e-05
2.79096e-05
2.67135e-05
2.53642e-05
2.3916e-05
2.24176e-05
2.09086e-05
1.94353e-05
1.80603e-05
1.6846e-05
1.58431e-05
1.50686e-05
1.44561e-05
1.37956e-05
1.27432e-05
1.10686e-05
9.15377e-06
8.13194e-06
8.35942e-06
2.20406e-06
5.01143e-08
1.75057e-08
2.30734e-06
5.54458e-06
1.06995e-05
1.74192e-05
2.34269e-05
2.74993e-05
3.00367e-05
3.14541e-05
3.19578e-05
3.16963e-05
3.0819e-05
2.94885e-05
2.78756e-05
2.61391e-05
2.44033e-05
2.27452e-05
2.11968e-05
1.9757e-05
1.84087e-05
1.71373e-05
1.59462e-05
1.48641e-05
1.39341e-05
1.31997e-05
1.26775e-05
1.23038e-05
1.18757e-05
1.10945e-05
9.86346e-06
8.70516e-06
8.74293e-06
8.96852e-06
2.08539e-06
5.92256e-08
2.2451e-08
2.33048e-06
5.75227e-06
1.16303e-05
1.97923e-05
2.7007e-05
3.14423e-05
3.37121e-05
3.44214e-05
3.39238e-05
3.25122e-05
3.04842e-05
2.81464e-05
2.57755e-05
2.35693e-05
2.16277e-05
1.99679e-05
1.85544e-05
1.73276e-05
1.6227e-05
1.52099e-05
1.42606e-05
1.33824e-05
1.25912e-05
1.19167e-05
1.13762e-05
1.09219e-05
1.0404e-05
9.64581e-06
8.70469e-06
8.14746e-06
9.07074e-06
8.94323e-06
2.02847e-06
6.6139e-08
2.73157e-08
2.35753e-06
5.90598e-06
1.22516e-05
2.12974e-05
2.90876e-05
3.35052e-05
3.5368e-05
3.53752e-05
3.39737e-05
3.16029e-05
2.87285e-05
2.57859e-05
2.30913e-05
2.07941e-05
1.89123e-05
1.73971e-05
1.61751e-05
1.51705e-05
1.43191e-05
1.358e-05
1.29291e-05
1.23311e-05
1.17519e-05
1.11814e-05
1.06195e-05
1.00384e-05
9.36819e-06
8.57541e-06
7.83729e-06
7.71468e-06
9.27812e-06
8.54602e-06
1.98655e-06
7.21026e-08
3.16641e-08
2.38947e-06
6.01419e-06
1.26494e-05
2.23486e-05
3.06578e-05
3.50742e-05
3.65398e-05
3.5889e-05
3.37207e-05
3.06413e-05
2.72541e-05
2.4042e-05
2.12723e-05
1.90141e-05
1.72255e-05
1.58256e-05
1.47271e-05
1.3854e-05
1.31529e-05
1.25943e-05
1.21461e-05
1.17404e-05
1.13034e-05
1.07848e-05
1.01644e-05
9.43758e-06
8.61522e-06
7.77704e-06
7.16433e-06
7.31319e-06
9.28319e-06
8.19207e-06
1.96595e-06
7.81341e-08
3.55988e-08
2.41108e-06
6.07326e-06
1.28665e-05
2.29198e-05
3.14366e-05
3.57196e-05
3.68202e-05
3.56643e-05
3.29674e-05
2.94624e-05
2.58292e-05
2.25383e-05
1.979e-05
1.75919e-05
1.58703e-05
1.45368e-05
1.35102e-05
1.27271e-05
1.21524e-05
1.17746e-05
1.15454e-05
1.13586e-05
1.10931e-05
1.06492e-05
9.98088e-06
9.1146e-06
8.14902e-06
7.25876e-06
6.72078e-06
7.04601e-06
9.27579e-06
7.82573e-06
1.94866e-06
8.45799e-08
3.96144e-08
2.43508e-06
6.12355e-06
1.30271e-05
2.33454e-05
3.20361e-05
3.62196e-05
3.7027e-05
3.54833e-05
3.24177e-05
2.86563e-05
2.49066e-05
2.15999e-05
1.8879e-05
1.67133e-05
1.50122e-05
1.36864e-05
1.26652e-05
1.18985e-05
1.137e-05
1.10877e-05
1.09966e-05
1.0972e-05
1.08577e-05
1.05046e-05
9.83206e-06
8.88098e-06
7.81897e-06
6.89316e-06
6.4027e-06
6.84154e-06
9.23614e-06
7.51759e-06
1.93709e-06
9.1336e-08
4.33089e-08
2.45046e-06
6.14966e-06
1.31151e-05
2.35811e-05
3.23267e-05
3.63744e-05
3.69276e-05
3.50889e-05
3.17746e-05
2.78733e-05
2.40921e-05
2.08158e-05
1.81401e-05
1.60093e-05
1.43267e-05
1.30047e-05
1.19802e-05
1.12181e-05
1.07217e-05
1.05139e-05
1.05318e-05
1.06387e-05
1.06518e-05
1.0382e-05
9.71968e-06
8.71786e-06
7.59554e-06
6.65177e-06
6.20108e-06
6.72977e-06
9.24963e-06
7.22895e-06
1.9271e-06
9.81896e-08
4.74424e-08
2.47158e-06
6.19323e-06
1.32464e-05
2.38696e-05
3.26365e-05
3.65359e-05
3.68604e-05
3.47863e-05
3.12995e-05
2.73218e-05
2.35416e-05
2.02989e-05
1.76548e-05
1.55383e-05
1.38507e-05
1.25091e-05
1.14571e-05
1.06697e-05
1.01673e-05
9.98696e-06
1.0064e-05
1.02588e-05
1.03724e-05
1.01851e-05
9.56048e-06
8.55431e-06
7.41751e-06
6.48052e-06
6.06979e-06
6.67542e-06
9.29732e-06
6.98018e-06
1.92046e-06
1.04981e-07
5.13352e-08
2.48767e-06
6.22585e-06
1.33445e-05
2.40714e-05
3.28206e-05
3.65736e-05
3.66966e-05
3.443e-05
3.08197e-05
2.68089e-05
2.3059e-05
1.98668e-05
1.72638e-05
1.51677e-05
1.34795e-05
1.21212e-05
1.10434e-05
1.02302e-05
9.71478e-06
9.54561e-06
9.65669e-06
9.90704e-06
1.00888e-05
9.96327e-06
9.37842e-06
8.39173e-06
7.27125e-06
6.36254e-06
5.99977e-06
6.68422e-06
9.40018e-06
6.75711e-06
1.91619e-06
1.11567e-07
5.56723e-08
2.50882e-06
6.27608e-06
1.3494e-05
2.43548e-05
3.30594e-05
3.66419e-05
3.65705e-05
3.41449e-05
3.04529e-05
2.6439e-05
2.27296e-05
1.95837e-05
1.7011e-05
1.49232e-05
1.3223e-05
1.18373e-05
1.07231e-05
9.87207e-06
9.32737e-06
9.14671e-06
9.26484e-06
9.54268e-06
9.76895e-06
9.69519e-06
9.15881e-06
8.21535e-06
7.13788e-06
6.27607e-06
5.96882e-06
6.73381e-06
9.53534e-06
6.56925e-06
1.91516e-06
1.17925e-07
5.98276e-08
2.52748e-06
6.32203e-06
1.36274e-05
2.45908e-05
3.32374e-05
3.66625e-05
3.64191e-05
3.38603e-05
3.01118e-05
2.61136e-05
2.24568e-05
1.93646e-05
1.68278e-05
1.47528e-05
1.30443e-05
1.16335e-05
1.04833e-05
9.5924e-06
9.0125e-06
8.81061e-06
8.9211e-06
9.20546e-06
9.45311e-06
9.41412e-06
8.9231e-06
8.03397e-06
7.01653e-06
6.2156e-06
5.97267e-06
6.82497e-06
9.70491e-06
6.40685e-06
1.91658e-06
1.24019e-07
6.43122e-08
2.54944e-06
6.37933e-06
1.37952e-05
2.48843e-05
3.34578e-05
3.67134e-05
3.63081e-05
3.36421e-05
2.98629e-05
2.58946e-05
2.22916e-05
1.92471e-05
1.67385e-05
1.46692e-05
1.29459e-05
1.15041e-05
1.03114e-05
9.37285e-06
8.74558e-06
8.50645e-06
8.59227e-06
8.86638e-06
9.12134e-06
9.10998e-06
8.66732e-06
7.84371e-06
6.89957e-06
6.16977e-06
5.99776e-06
6.94226e-06
9.89185e-06
6.27318e-06
1.92065e-06
1.29869e-07
6.86702e-08
2.57031e-06
6.43582e-06
1.39572e-05
2.51533e-05
3.36477e-05
3.67466e-05
3.61973e-05
3.34415e-05
2.96457e-05
2.57162e-05
2.21725e-05
1.91804e-05
1.67047e-05
1.46458e-05
1.29115e-05
1.14404e-05
1.02053e-05
9.21651e-06
8.53589e-06
8.24996e-06
8.29909e-06
8.54899e-06
8.79708e-06
8.80272e-06
8.40529e-06
7.65145e-06
6.78824e-06
6.13699e-06
6.04252e-06
7.08561e-06
1.00942e-05
6.16023e-06
1.92658e-06
1.35461e-07
7.3249e-08
2.59318e-06
6.49932e-06
1.41411e-05
2.54595e-05
3.38687e-05
3.68101e-05
3.61294e-05
3.33028e-05
2.95044e-05
2.56179e-05
2.21301e-05
1.91849e-05
1.67371e-05
1.46852e-05
1.29376e-05
1.14351e-05
1.01544e-05
9.11015e-06
8.36818e-06
8.02388e-06
8.0242e-06
8.23814e-06
8.46972e-06
8.48715e-06
8.13517e-06
7.45519e-06
6.67833e-06
6.11075e-06
6.09874e-06
7.24546e-06
1.03026e-05
6.06845e-06
1.93437e-06
1.40811e-07
7.77455e-08
2.6157e-06
6.56377e-06
1.43258e-05
2.57569e-05
3.40777e-05
3.68719e-05
3.60727e-05
3.31861e-05
2.9392e-05
2.55522e-05
2.21234e-05
1.92289e-05
1.68143e-05
1.47746e-05
1.3018e-05
1.14868e-05
1.0161e-05
9.05913e-06
8.25084e-06
7.83947e-06
7.78103e-06
7.94836e-06
8.15347e-06
8.17566e-06
7.86642e-06
7.26089e-06
6.57219e-06
6.091e-06
6.16525e-06
7.42028e-06
1.05139e-05
5.99218e-06
1.9434e-06
1.45909e-07
8.23806e-08
2.63929e-06
6.63276e-06
1.45264e-05
2.6082e-05
3.4314e-05
3.69651e-05
3.60578e-05
3.31216e-05
2.93363e-05
2.55415e-05
2.21676e-05
1.93203e-05
1.69371e-05
1.49101e-05
1.31457e-05
1.15872e-05
1.02161e-05
9.05409e-06
8.17415e-06
7.68685e-06
7.56044e-06
7.67241e-06
7.84375e-06
7.866e-06
7.59777e-06
7.06708e-06
6.46787e-06
6.07472e-06
6.23841e-06
7.60583e-06
1.07241e-05
5.93073e-06
1.95357e-06
1.50753e-07
8.69602e-08
2.66263e-06
6.70291e-06
1.4731e-05
2.64093e-05
3.4553e-05
3.70688e-05
3.60604e-05
3.30784e-05
2.93032e-05
2.55544e-05
2.22378e-05
1.94421e-05
1.70961e-05
1.50875e-05
1.3321e-05
1.17386e-05
1.03234e-05
9.09962e-06
8.14385e-06
7.57269e-06
7.36983e-06
7.41818e-06
7.54844e-06
7.56532e-06
7.33465e-06
6.87673e-06
6.36617e-06
6.06158e-06
6.31637e-06
7.79889e-06
1.0929e-05
5.87992e-06
1.96439e-06
1.55347e-07
9.16151e-08
2.68623e-06
6.7754e-06
1.49472e-05
2.67617e-05
3.48238e-05
3.72086e-05
3.61009e-05
3.30728e-05
2.93055e-05
2.55995e-05
2.23377e-05
1.9593e-05
1.72859e-05
1.52995e-05
1.35353e-05
1.19333e-05
1.04762e-05
9.19039e-06
8.15538e-06
7.49288e-06
7.20601e-06
7.18372e-06
7.26698e-06
7.27399e-06
7.07761e-06
6.68989e-06
6.26625e-06
6.0504e-06
6.39877e-06
7.99988e-06
1.11316e-05
5.84176e-06
1.97619e-06
1.59695e-07
9.62281e-08
2.70938e-06
6.84784e-06
1.51655e-05
2.71177e-05
3.50951e-05
3.7356e-05
3.61555e-05
3.30806e-05
2.93208e-05
2.56592e-05
2.24554e-05
1.97664e-05
1.75041e-05
1.55463e-05
1.37909e-05
1.21745e-05
1.06783e-05
9.3299e-06
8.21203e-06
7.45109e-06
7.0729e-06
6.97315e-06
7.00348e-06
6.99567e-06
6.82934e-06
6.50802e-06
6.16815e-06
6.03924e-06
6.48125e-06
8.20088e-06
1.13208e-05
5.81001e-06
1.98821e-06
1.63798e-07
1.00867e-07
2.73234e-06
6.9205e-06
1.53854e-05
2.74718e-05
3.53585e-05
3.74986e-05
3.62169e-05
3.31019e-05
2.93514e-05
2.57337e-05
2.25873e-05
1.99551e-05
1.77412e-05
1.58181e-05
1.40786e-05
1.24548e-05
1.09247e-05
9.51566e-06
8.31298e-06
7.44794e-06
6.9719e-06
6.78839e-06
6.76009e-06
6.73226e-06
6.59105e-06
6.33155e-06
6.07189e-06
6.02822e-06
6.56494e-06
8.40743e-06
1.15122e-05
5.78921e-06
2.00096e-06
1.67665e-07
1.05477e-07
2.75509e-06
6.99395e-06
1.56079e-05
2.78178e-05
3.56112e-05
3.76336e-05
3.62745e-05
3.31324e-05
2.93919e-05
2.58169e-05
2.27296e-05
2.0158e-05
1.79978e-05
1.6116e-05
1.43999e-05
1.27758e-05
1.12171e-05
9.74954e-06
8.46048e-06
7.48629e-06
6.90589e-06
6.63256e-06
6.53989e-06
6.48641e-06
6.3646e-06
6.16142e-06
5.97751e-06
6.01633e-06
6.64693e-06
8.61332e-06
1.16991e-05
5.77605e-06
2.0141e-06
1.7131e-07
1.10075e-07
2.7771e-06
7.06693e-06
1.58339e-05
2.81567e-05
3.58537e-05
3.77593e-05
3.63243e-05
3.31582e-05
2.94301e-05
2.59e-05
2.28738e-05
2.03657e-05
1.82637e-05
1.64299e-05
1.47458e-05
1.31307e-05
1.15515e-05
1.00304e-05
8.65564e-06
7.5692e-06
6.87865e-06
6.50943e-06
6.3463e-06
6.26078e-06
6.15161e-06
5.99825e-06
5.88489e-06
6.00325e-06
6.72813e-06
8.82301e-06
1.18841e-05
5.77502e-06
2.0284e-06
1.74743e-07
1.14642e-07
2.79835e-06
7.13765e-06
1.60541e-05
2.84845e-05
3.60831e-05
3.78745e-05
3.63674e-05
3.31813e-05
2.94704e-05
2.59872e-05
2.30229e-05
2.05801e-05
1.85402e-05
1.67601e-05
1.51153e-05
1.35177e-05
1.19262e-05
1.03573e-05
8.89916e-06
7.69921e-06
6.89321e-06
6.42229e-06
6.18254e-06
6.05817e-06
5.95418e-06
5.8434e-06
5.79484e-06
5.98951e-06
6.80897e-06
9.03625e-06
1.20685e-05
5.78354e-06
2.04382e-06
1.77986e-07
1.19181e-07
2.81918e-06
7.20784e-06
1.62733e-05
2.88055e-05
3.63018e-05
3.79788e-05
3.63993e-05
3.31937e-05
2.9507e-05
2.60698e-05
2.31666e-05
2.07914e-05
1.88183e-05
1.70986e-05
1.55017e-05
1.39314e-05
1.23376e-05
1.07291e-05
9.19219e-06
7.87986e-06
6.95341e-06
6.37474e-06
6.05189e-06
5.8813e-06
5.7743e-06
5.69815e-06
5.70817e-06
5.9756e-06
6.88907e-06
9.25026e-06
1.2252e-05
5.79998e-06
2.06016e-06
1.81048e-07
1.23692e-07
2.83949e-06
7.27673e-06
1.64893e-05
2.91165e-05
3.65072e-05
3.80706e-05
3.64201e-05
3.31965e-05
2.95369e-05
2.61471e-05
2.33071e-05
2.10023e-05
1.90994e-05
1.74448e-05
1.59023e-05
1.43679e-05
1.27813e-05
1.11423e-05
9.53339e-06
8.11215e-06
7.06141e-06
6.36942e-06
5.95696e-06
5.73251e-06
5.61387e-06
5.56386e-06
5.62548e-06
5.96108e-06
6.96654e-06
9.46159e-06
1.24326e-05
5.82243e-06
2.07713e-06
1.83939e-07
1.28159e-07
2.85945e-06
7.34498e-06
1.67031e-05
2.94187e-05
3.67002e-05
3.81492e-05
3.64266e-05
3.31841e-05
2.95516e-05
2.62113e-05
2.34375e-05
2.12064e-05
1.93779e-05
1.77939e-05
1.6313e-05
1.48234e-05
1.32543e-05
1.15947e-05
9.92166e-06
8.39618e-06
7.21876e-06
6.40873e-06
5.90041e-06
5.61426e-06
5.475e-06
5.44228e-06
5.54843e-06
5.94777e-06
7.04318e-06
9.67103e-06
1.26113e-05
5.85012e-06
2.09458e-06
1.86664e-07
1.326e-07
2.87926e-06
7.4129e-06
1.69146e-05
2.97118e-05
3.68802e-05
3.82141e-05
3.64196e-05
3.3159e-05
2.95552e-05
2.62668e-05
2.35612e-05
2.14059e-05
1.96543e-05
1.81444e-05
1.67304e-05
1.5293e-05
1.37508e-05
1.20808e-05
1.03524e-05
8.72837e-06
7.42398e-06
6.49279e-06
5.88336e-06
5.52821e-06
5.35942e-06
5.3348e-06
5.4775e-06
5.93444e-06
7.11566e-06
9.87536e-06
1.27862e-05
5.8816e-06
2.11228e-06
1.89235e-07
1.3699e-07
2.89894e-06
7.48095e-06
1.71231e-05
2.99943e-05
3.70456e-05
3.82623e-05
3.6394e-05
3.31149e-05
2.95406e-05
2.63068e-05
2.36726e-05
2.15962e-05
1.99252e-05
1.84939e-05
1.71525e-05
1.57748e-05
1.42686e-05
1.25981e-05
1.08231e-05
9.10624e-06
7.67596e-06
6.62152e-06
5.90645e-06
5.47555e-06
5.26861e-06
5.24299e-06
5.41446e-06
5.92415e-06
7.1899e-06
1.00759e-05
1.29582e-05
5.91615e-06
2.13009e-06
1.91662e-07
1.41362e-07
2.91877e-06
7.55125e-06
1.73293e-05
3.02676e-05
3.7197e-05
3.82944e-05
3.63514e-05
3.30541e-05
2.95112e-05
2.63349e-05
2.3774e-05
2.17781e-05
2.01894e-05
1.88396e-05
1.75751e-05
1.62634e-05
1.48016e-05
1.31403e-05
1.13281e-05
9.52542e-06
7.97211e-06
6.79375e-06
5.96959e-06
5.45695e-06
5.20383e-06
5.16839e-06
5.36088e-06
5.91782e-06
7.26471e-06
1.02732e-05
1.31279e-05
5.95337e-06
2.14793e-06
1.93959e-07
1.45662e-07
2.93722e-06
7.61804e-06
1.75303e-05
3.05288e-05
3.73311e-05
3.83068e-05
3.62873e-05
3.29714e-05
2.94614e-05
2.63474e-05
2.38621e-05
2.19486e-05
2.04451e-05
1.91803e-05
1.79975e-05
1.67578e-05
1.5348e-05
1.37048e-05
1.18644e-05
9.9831e-06
8.31069e-06
7.00865e-06
6.07263e-06
5.47287e-06
5.16603e-06
5.11232e-06
5.31803e-06
5.91622e-06
7.33991e-06
1.04676e-05
1.32962e-05
5.99293e-06
2.16576e-06
1.96135e-07
1.49921e-07
2.95548e-06
7.68459e-06
1.77303e-05
3.07821e-05
3.74512e-05
3.8301e-05
3.62031e-05
3.28698e-05
2.93947e-05
2.63466e-05
2.39378e-05
2.21074e-05
2.06906e-05
1.95133e-05
1.84155e-05
1.72527e-05
1.59016e-05
1.42852e-05
1.24259e-05
1.04742e-05
8.68837e-06
7.2644e-06
6.21489e-06
5.52344e-06
5.15595e-06
5.07587e-06
5.28713e-06
5.92033e-06
7.41606e-06
1.06593e-05
1.34636e-05
6.03458e-06
2.18354e-06
1.98203e-07
1.54088e-07
2.97256e-06
7.74789e-06
1.79245e-05
3.10249e-05
3.75542e-05
3.82743e-05
3.60953e-05
3.27412e-05
2.93007e-05
2.63218e-05
2.39951e-05
2.22522e-05
2.09253e-05
1.98386e-05
1.88292e-05
1.77476e-05
1.6461e-05
1.48786e-05
1.30087e-05
1.09948e-05
9.10202e-06
7.55892e-06
6.39533e-06
5.6085e-06
5.17413e-06
5.05998e-06
5.26909e-06
5.93079e-06
7.49339e-06
1.08484e-05
1.36303e-05
6.07804e-06
2.20125e-06
2.00173e-07
1.58234e-07
2.98933e-06
7.81161e-06
1.81218e-05
3.12631e-05
3.76446e-05
3.82311e-05
3.59705e-05
3.25991e-05
2.91957e-05
2.62845e-05
2.40365e-05
2.23814e-05
2.11466e-05
2.01525e-05
1.9234e-05
1.8237e-05
1.70199e-05
1.54784e-05
1.36064e-05
1.1539e-05
9.54711e-06
7.88906e-06
6.61207e-06
5.72737e-06
5.22091e-06
5.0657e-06
5.26528e-06
5.94886e-06
7.57288e-06
1.10356e-05
1.37969e-05
6.12309e-06
2.21886e-06
2.02055e-07
1.62309e-07
3.00545e-06
7.87374e-06
1.83152e-05
3.14884e-05
3.77156e-05
3.8165e-05
3.58204e-05
3.24308e-05
2.9066e-05
2.62272e-05
2.40639e-05
2.24979e-05
2.13555e-05
2.04564e-05
1.96316e-05
1.87221e-05
1.75783e-05
1.60831e-05
1.42161e-05
1.21033e-05
1.00201e-05
8.25193e-06
6.86304e-06
5.87878e-06
5.29586e-06
5.09333e-06
5.27645e-06
5.97539e-06
7.65506e-06
1.12208e-05
1.39638e-05
6.16972e-06
2.2364e-06
2.03861e-07
1.66338e-07
3.02104e-06
7.93514e-06
1.85081e-05
3.17054e-05
3.77711e-05
3.808e-05
3.56509e-05
3.22454e-05
2.89213e-05
2.61555e-05
2.40774e-05
2.2602e-05
2.15519e-05
2.07461e-05
2.0016e-05
1.91967e-05
1.81298e-05
1.66861e-05
1.48311e-05
1.26815e-05
1.05161e-05
8.64389e-06
7.14593e-06
6.06169e-06
5.39897e-06
5.14361e-06
5.30376e-06
6.01165e-06
7.74119e-06
1.14051e-05
1.41313e-05
6.21782e-06
2.25386e-06
2.05604e-07
1.70293e-07
3.03593e-06
7.99487e-06
1.86967e-05
3.19087e-05
3.78069e-05
3.79723e-05
3.54579e-05
3.20376e-05
2.87566e-05
2.60664e-05
2.40765e-05
2.26939e-05
2.17383e-05
2.1027e-05
2.03903e-05
1.9662e-05
1.86746e-05
1.72859e-05
1.54484e-05
1.32696e-05
1.10307e-05
9.06099e-06
7.45764e-06
6.2741e-06
5.5294e-06
5.21668e-06
5.34795e-06
6.05862e-06
7.83224e-06
1.15893e-05
1.43002e-05
6.26758e-06
2.27131e-06
2.07295e-07
1.74196e-07
3.05031e-06
8.05371e-06
1.88836e-05
3.21014e-05
3.78253e-05
3.78443e-05
3.52443e-05
3.18112e-05
2.85754e-05
2.59626e-05
2.40618e-05
2.27723e-05
2.19111e-05
2.12947e-05
2.07519e-05
2.01132e-05
1.92063e-05
1.78763e-05
1.60617e-05
1.38616e-05
1.15587e-05
9.49919e-06
7.79522e-06
6.51411e-06
5.68633e-06
5.31278e-06
5.41007e-06
6.11782e-06
7.92988e-06
1.17749e-05
1.44708e-05
6.31877e-06
2.28872e-06
2.08942e-07
1.78013e-07
3.06386e-06
8.11035e-06
1.9065e-05
3.22792e-05
3.7824e-05
3.76942e-05
3.50086e-05
3.15649e-05
2.83775e-05
2.58445e-05
2.40351e-05
2.284e-05
2.20736e-05
2.15518e-05
2.11025e-05
2.05533e-05
1.97253e-05
1.84547e-05
1.66669e-05
1.44522e-05
1.20947e-05
9.95375e-06
8.15503e-06
6.77923e-06
5.86838e-06
5.43157e-06
5.49076e-06
6.19062e-06
8.03602e-06
1.1964e-05
1.46445e-05
6.3718e-06
2.30619e-06
2.10556e-07
1.81757e-07
3.0767e-06
8.16536e-06
1.92427e-05
3.24445e-05
3.78039e-05
3.75222e-05
3.47511e-05
3.12993e-05
2.81629e-05
2.57117e-05
2.39953e-05
2.28954e-05
2.22236e-05
2.17957e-05
2.14391e-05
2.09784e-05
2.02288e-05
1.90172e-05
1.72588e-05
1.50357e-05
1.2633e-05
1.04198e-05
8.53335e-06
7.06705e-06
6.07431e-06
5.57284e-06
5.59067e-06
6.27842e-06
8.15263e-06
1.21587e-05
1.48218e-05
6.42646e-06
2.32371e-06
2.12139e-07
1.85416e-07
3.08875e-06
8.21829e-06
1.94152e-05
3.2595e-05
3.7764e-05
3.73282e-05
3.44722e-05
3.10152e-05
2.79331e-05
2.55665e-05
2.39452e-05
2.29415e-05
2.23644e-05
2.20295e-05
2.17638e-05
2.13895e-05
2.07161e-05
1.95621e-05
1.78338e-05
1.56069e-05
1.31676e-05
1.08914e-05
8.92527e-06
7.37404e-06
6.30209e-06
5.73593e-06
5.71033e-06
6.38283e-06
8.28239e-06
1.23622e-05
1.50042e-05
6.48318e-06
2.34139e-06
2.137e-07
1.88998e-07
3.10003e-06
8.26933e-06
1.95833e-05
3.27317e-05
3.77042e-05
3.71114e-05
3.4171e-05
3.07119e-05
2.76874e-05
2.54077e-05
2.38833e-05
2.29769e-05
2.24946e-05
2.2252e-05
2.20755e-05
2.17851e-05
2.11854e-05
2.0087e-05
1.83883e-05
1.61621e-05
1.36942e-05
1.13639e-05
9.32626e-06
7.69657e-06
6.54932e-06
5.91967e-06
5.84968e-06
6.50476e-06
8.4271e-06
1.25767e-05
1.51916e-05
6.54171e-06
2.35921e-06
2.15239e-07
1.92506e-07
3.11066e-06
8.31879e-06
1.97474e-05
3.28548e-05
3.76247e-05
3.68722e-05
3.38485e-05
3.03911e-05
2.74277e-05
2.52376e-05
2.38122e-05
2.30042e-05
2.2617e-05
2.24658e-05
2.23766e-05
2.2167e-05
2.1637e-05
2.05905e-05
1.89202e-05
1.6696e-05
1.42074e-05
1.18321e-05
9.73151e-06
8.03058e-06
6.81316e-06
6.12276e-06
6.00897e-06
6.6459e-06
8.58985e-06
1.28061e-05
1.53854e-05
6.60247e-06
2.37731e-06
2.16761e-07
1.95941e-07
3.12057e-06
8.36657e-06
1.99074e-05
3.29638e-05
3.75247e-05
3.66098e-05
3.35043e-05
3.00523e-05
2.71536e-05
2.50553e-05
2.37306e-05
2.3022e-05
2.27303e-05
2.26701e-05
2.26665e-05
2.25349e-05
2.20707e-05
2.10724e-05
1.94281e-05
1.72076e-05
1.47037e-05
1.22914e-05
1.01365e-05
8.37207e-06
7.0904e-06
6.34294e-06
6.18697e-06
6.80614e-06
8.77178e-06
1.30522e-05
1.55853e-05
6.66538e-06
2.39571e-06
2.18267e-07
1.99309e-07
3.12995e-06
8.4132e-06
2.00643e-05
3.30594e-05
3.74048e-05
3.63253e-05
3.31403e-05
2.96982e-05
2.6868e-05
2.48639e-05
2.36413e-05
2.30328e-05
2.28363e-05
2.28663e-05
2.29466e-05
2.28897e-05
2.24869e-05
2.15318e-05
1.99105e-05
1.76948e-05
1.51813e-05
1.27389e-05
1.05376e-05
8.71743e-06
7.3781e-06
6.57844e-06
6.38342e-06
6.98674e-06
8.97536e-06
1.3318e-05
1.57926e-05
6.73081e-06
2.41452e-06
2.19766e-07
2.02601e-07
3.13864e-06
8.45817e-06
2.02169e-05
3.31401e-05
3.72642e-05
3.60184e-05
3.27566e-05
2.93291e-05
2.6571e-05
2.46629e-05
2.35434e-05
2.30353e-05
2.29341e-05
2.30536e-05
2.32161e-05
2.32312e-05
2.28856e-05
2.19691e-05
2.03673e-05
1.81564e-05
1.5638e-05
1.31721e-05
1.09319e-05
9.06351e-06
7.67322e-06
6.82659e-06
6.59623e-06
7.1865e-06
9.20113e-06
1.36051e-05
1.60072e-05
6.79883e-06
2.4338e-06
2.21262e-07
2.05819e-07
3.14679e-06
8.50192e-06
2.03659e-05
3.32068e-05
3.71041e-05
3.5691e-05
3.23561e-05
2.89485e-05
2.62661e-05
2.44558e-05
2.34402e-05
2.30321e-05
2.30251e-05
2.32327e-05
2.34755e-05
2.35595e-05
2.32668e-05
2.23841e-05
2.07982e-05
1.85918e-05
1.60727e-05
1.3589e-05
1.13168e-05
9.40752e-06
7.97306e-06
7.0852e-06
6.82419e-06
7.40571e-06
9.44952e-06
1.39143e-05
1.62292e-05
6.86968e-06
2.45366e-06
2.22767e-07
2.08943e-07
3.15414e-06
8.54352e-06
2.05092e-05
3.32576e-05
3.69234e-05
3.53425e-05
3.19386e-05
2.85564e-05
2.59536e-05
2.42429e-05
2.33316e-05
2.30231e-05
2.31092e-05
2.34031e-05
2.3724e-05
2.38739e-05
2.36304e-05
2.27771e-05
2.12035e-05
1.9001e-05
1.64844e-05
1.3988e-05
1.16902e-05
9.74691e-06
8.27518e-06
7.35228e-06
7.06619e-06
7.64444e-06
9.72118e-06
1.42463e-05
1.64579e-05
6.94314e-06
2.47408e-06
2.24287e-07
2.11977e-07
3.16084e-06
8.58338e-06
2.06474e-05
3.32937e-05
3.67238e-05
3.4975e-05
3.15066e-05
2.81557e-05
2.56367e-05
2.40277e-05
2.32212e-05
2.30114e-05
2.31887e-05
2.35665e-05
2.39623e-05
2.41746e-05
2.39759e-05
2.31478e-05
2.15835e-05
1.93847e-05
1.68735e-05
1.43687e-05
1.20508e-05
1.00799e-05
8.57731e-06
7.62557e-06
7.32024e-06
7.90092e-06
1.00156e-05
1.46009e-05
1.66932e-05
7.01924e-06
2.49511e-06
2.25832e-07
2.14907e-07
3.16666e-06
8.62078e-06
2.07791e-05
3.33137e-05
3.65038e-05
3.45868e-05
3.10588e-05
2.77454e-05
2.53148e-05
2.381e-05
2.31093e-05
2.29979e-05
2.32649e-05
2.3724e-05
2.41916e-05
2.44623e-05
2.43042e-05
2.34969e-05
2.19391e-05
1.97436e-05
1.72404e-05
1.47308e-05
1.23977e-05
1.04051e-05
8.87777e-06
7.9034e-06
7.58474e-06
8.1738e-06
1.0332e-05
1.49773e-05
1.69336e-05
7.09756e-06
2.51671e-06
2.27404e-07
2.17741e-07
3.17179e-06
8.65628e-06
2.09059e-05
3.33195e-05
3.62646e-05
3.4179e-05
3.05965e-05
2.73271e-05
2.49898e-05
2.35925e-05
2.29991e-05
2.29858e-05
2.33406e-05
2.38783e-05
2.44137e-05
2.47381e-05
2.46157e-05
2.38251e-05
2.22713e-05
2.00793e-05
1.75864e-05
1.50753e-05
1.27311e-05
1.07216e-05
9.17492e-06
8.18324e-06
7.8572e-06
8.46087e-06
1.06689e-05
1.53741e-05
1.71781e-05
7.1778e-06
2.53884e-06
2.2901e-07
2.20477e-07
3.17613e-06
8.68964e-06
2.10272e-05
3.33102e-05
3.60045e-05
3.37494e-05
3.01176e-05
2.68989e-05
2.46606e-05
2.3375e-05
2.2891e-05
2.29761e-05
2.34181e-05
2.40321e-05
2.46318e-05
2.50053e-05
2.49133e-05
2.41347e-05
2.25821e-05
2.03936e-05
1.7913e-05
1.54031e-05
1.30514e-05
1.10294e-05
9.46854e-06
8.46497e-06
8.13665e-06
8.76066e-06
1.10244e-05
1.57887e-05
1.74252e-05
7.25956e-06
2.56143e-06
2.30652e-07
2.23133e-07
3.17993e-06
8.72167e-06
2.11452e-05
3.32874e-05
3.5724e-05
3.32984e-05
2.96228e-05
2.64615e-05
2.43275e-05
2.31602e-05
2.27868e-05
2.29704e-05
2.34991e-05
2.41878e-05
2.48484e-05
2.52661e-05
2.51989e-05
2.44276e-05
2.28738e-05
2.06893e-05
1.82222e-05
1.57155e-05
1.3359e-05
1.13281e-05
9.75731e-06
8.74653e-06
8.42092e-06
9.07178e-06
1.13974e-05
1.622e-05
1.76736e-05
7.34227e-06
2.58439e-06
2.32326e-07
2.25708e-07
3.18312e-06
8.75224e-06
2.12596e-05
3.32499e-05
3.54209e-05
3.28239e-05
2.91107e-05
2.60138e-05
2.39887e-05
2.29425e-05
2.26828e-05
2.29678e-05
2.35849e-05
2.43482e-05
2.50673e-05
2.55245e-05
2.54766e-05
2.47076e-05
2.31503e-05
2.09704e-05
1.85171e-05
1.60149e-05
1.36558e-05
1.16189e-05
1.00417e-05
9.02794e-06
8.7099e-06
9.39208e-06
1.17849e-05
1.6664e-05
1.79217e-05
7.42542e-06
2.60762e-06
2.34036e-07
2.28214e-07
3.18592e-06
8.78201e-06
2.13715e-05
3.31984e-05
3.50956e-05
3.23267e-05
2.85827e-05
2.55574e-05
2.36461e-05
2.27246e-05
2.25811e-05
2.29694e-05
2.36762e-05
2.45139e-05
2.52894e-05
2.57822e-05
2.57483e-05
2.49772e-05
2.34148e-05
2.12406e-05
1.88001e-05
1.63022e-05
1.39418e-05
1.19015e-05
1.03211e-05
9.30815e-06
9.00233e-06
9.72156e-06
1.21865e-05
1.71202e-05
1.81687e-05
7.50865e-06
2.63103e-06
2.35768e-07
2.30645e-07
3.18823e-06
8.81065e-06
2.14803e-05
3.31315e-05
3.47465e-05
3.1806e-05
2.80387e-05
2.50921e-05
2.32989e-05
2.25049e-05
2.24801e-05
2.29741e-05
2.37727e-05
2.46859e-05
2.55168e-05
2.60417e-05
2.6017e-05
2.52397e-05
2.36709e-05
2.15042e-05
1.90745e-05
1.658e-05
1.42189e-05
1.21768e-05
1.05957e-05
9.58681e-06
9.29724e-06
1.00587e-05
1.25999e-05
1.7585e-05
1.84117e-05
7.5905e-06
2.65433e-06
2.37499e-07
2.33009e-07
3.19018e-06
8.83852e-06
2.15865e-05
3.30496e-05
3.43744e-05
3.12636e-05
2.74813e-05
2.46204e-05
2.29491e-05
2.22847e-05
2.23802e-05
2.29817e-05
2.38738e-05
2.48633e-05
2.57491e-05
2.63036e-05
2.62839e-05
2.54965e-05
2.39202e-05
2.17623e-05
1.9341e-05
1.68489e-05
1.44877e-05
1.24455e-05
1.08661e-05
9.86425e-06
9.59476e-06
1.04034e-05
1.30254e-05
1.80572e-05
1.86506e-05
7.67104e-06
2.67757e-06
2.39231e-07
2.35295e-07
3.19167e-06
8.86532e-06
2.16896e-05
3.29517e-05
3.39784e-05
3.06996e-05
2.69115e-05
2.41431e-05
2.25971e-05
2.20641e-05
2.22814e-05
2.2992e-05
2.39793e-05
2.50464e-05
2.59869e-05
2.65689e-05
2.65508e-05
2.57498e-05
2.41641e-05
2.20153e-05
1.96003e-05
1.71095e-05
1.47485e-05
1.27074e-05
1.1132e-05
1.01399e-05
9.8942e-06
1.07547e-05
1.34618e-05
1.85365e-05
1.88838e-05
7.74999e-06
2.70058e-06
2.40967e-07
2.37511e-07
3.19278e-06
8.89125e-06
2.17899e-05
3.28383e-05
3.35593e-05
3.01163e-05
2.63319e-05
2.36628e-05
2.22447e-05
2.18442e-05
2.21839e-05
2.30047e-05
2.40885e-05
2.52342e-05
2.62295e-05
2.68376e-05
2.68182e-05
2.60009e-05
2.44042e-05
2.22637e-05
1.9853e-05
1.73625e-05
1.50017e-05
1.29629e-05
1.13932e-05
1.04137e-05
1.01952e-05
1.1112e-05
1.39076e-05
1.90198e-05
1.91111e-05
7.82713e-06
2.72335e-06
2.42702e-07
2.39653e-07
3.19348e-06
8.91626e-06
2.18871e-05
3.2708e-05
3.31165e-05
2.95145e-05
2.57443e-05
2.31808e-05
2.18929e-05
2.16256e-05
2.20884e-05
2.30202e-05
2.42016e-05
2.54269e-05
2.6477e-05
2.71102e-05
2.70875e-05
2.62517e-05
2.4643e-05
2.25099e-05
2.01019e-05
1.76106e-05
1.52498e-05
1.32136e-05
1.16507e-05
1.06857e-05
1.04975e-05
1.14746e-05
1.43612e-05
1.95048e-05
1.93322e-05
7.90247e-06
2.74587e-06
2.44427e-07
2.41728e-07
3.19385e-06
8.94059e-06
2.19814e-05
3.25611e-05
3.26513e-05
2.88973e-05
2.51519e-05
2.26995e-05
2.15431e-05
2.14088e-05
2.19944e-05
2.30377e-05
2.43175e-05
2.56232e-05
2.67285e-05
2.7386e-05
2.73587e-05
2.65033e-05
2.4882e-05
2.27549e-05
2.03478e-05
1.78548e-05
1.54937e-05
1.34605e-05
1.19053e-05
1.09563e-05
1.08008e-05
1.18418e-05
1.48214e-05
1.999e-05
1.9547e-05
7.97619e-06
2.76829e-06
2.46149e-07
2.43728e-07
3.19386e-06
8.96408e-06
2.20719e-05
3.23961e-05
3.21638e-05
2.82669e-05
2.45574e-05
2.22212e-05
2.11969e-05
2.11945e-05
2.19021e-05
2.30566e-05
2.44355e-05
2.58224e-05
2.69833e-05
2.7665e-05
2.76326e-05
2.67577e-05
2.51244e-05
2.30014e-05
2.0593e-05
1.8097e-05
1.57352e-05
1.3705e-05
1.21581e-05
1.12262e-05
1.11055e-05
1.22128e-05
1.52864e-05
2.04728e-05
1.97553e-05
8.04811e-06
2.79068e-06
2.47862e-07
2.45653e-07
3.19358e-06
8.98674e-06
2.21581e-05
3.22133e-05
3.16566e-05
2.76276e-05
2.39648e-05
2.17485e-05
2.08558e-05
2.09829e-05
2.181e-05
2.30748e-05
2.45529e-05
2.60219e-05
2.72392e-05
2.79454e-05
2.79087e-05
2.70159e-05
2.53728e-05
2.32511e-05
2.08386e-05
1.83381e-05
1.59751e-05
1.39481e-05
1.24098e-05
1.14958e-05
1.14114e-05
1.25877e-05
1.57556e-05
2.09527e-05
1.99579e-05
8.11843e-06
2.81285e-06
2.49564e-07
2.47487e-07
3.19287e-06
9.00785e-06
2.2238e-05
3.20114e-05
3.11309e-05
2.69825e-05
2.33769e-05
2.12839e-05
2.05226e-05
2.07751e-05
2.17179e-05
2.30907e-05
2.46676e-05
2.62192e-05
2.74936e-05
2.82254e-05
2.81861e-05
2.7279e-05
2.56298e-05
2.35063e-05
2.10864e-05
1.85794e-05
1.62143e-05
1.41904e-05
1.2661e-05
1.17658e-05
1.17193e-05
1.29655e-05
1.62273e-05
2.14273e-05
2.01543e-05
8.18693e-06
2.83467e-06
2.51251e-07
2.49221e-07
3.19175e-06
9.02689e-06
2.23104e-05
3.17911e-05
3.05891e-05
2.63348e-05
2.27963e-05
2.08285e-05
2.01998e-05
2.05718e-05
2.16248e-05
2.31027e-05
2.47774e-05
2.64118e-05
2.77442e-05
2.85027e-05
2.84629e-05
2.75454e-05
2.58946e-05
2.37664e-05
2.13363e-05
1.8821e-05
1.64533e-05
1.44327e-05
1.29132e-05
1.20388e-05
1.2033e-05
1.3348e-05
1.67018e-05
2.18969e-05
2.03456e-05
8.25403e-06
2.8562e-06
2.52926e-07
2.5084e-07
3.18998e-06
9.04272e-06
2.23732e-05
3.15517e-05
3.00313e-05
2.56854e-05
2.22239e-05
2.03827e-05
1.98829e-05
2.03709e-05
2.1531e-05
2.31113e-05
2.48821e-05
2.65986e-05
2.79893e-05
2.87758e-05
2.87381e-05
2.78142e-05
2.61655e-05
2.40307e-05
2.15882e-05
1.90634e-05
1.66926e-05
1.46753e-05
1.31666e-05
1.23144e-05
1.23511e-05
1.37351e-05
1.71786e-05
2.23607e-05
2.05321e-05
8.31966e-06
2.87739e-06
2.54588e-07
2.52342e-07
3.18711e-06
9.0551e-06
2.24269e-05
3.12929e-05
2.94569e-05
2.50338e-05
2.16595e-05
1.99478e-05
1.95762e-05
2.01773e-05
2.14407e-05
2.31197e-05
2.49835e-05
2.67804e-05
2.82288e-05
2.90438e-05
2.90103e-05
2.80834e-05
2.64395e-05
2.42973e-05
2.18416e-05
1.93068e-05
1.69327e-05
1.49192e-05
1.34219e-05
1.25933e-05
1.2674e-05
1.41276e-05
1.76583e-05
2.28192e-05