/*--------------------------------*- C++ -*----------------------------------*\
| =========                 |                                                 |
| \\      /  F ield         | OpenFOAM: The Open Source CFD Toolbox           |
|  \\    /   O peration     | Version:  v2006                                 |
|   \\  /    A nd           | Website:  www.openfoam.com                      |
|    \\/     M anipulation  |                                                 |
\*---------------------------------------------------------------------------*/
FoamFile
{
    version     2.0;
    format      ascii;
    class       volScalarField;
    location    "99";
    object      nut;
}
// * * * * * * * * * * * * * * * * * * * * * * * * * * * * * * * * * * * * * //

dimensions      [0 2 -1 0 0 0 0];


internalField   nonuniform List<scalar> 
78750
(
1.65944e-09
1.9647e-07
3.91272e-07
6.10292e-07
8.47044e-07
1.09211e-06
1.33663e-06
1.57377e-06
1.79872e-06
2.00817e-06
2.19989e-06
2.37238e-06
2.52477e-06
2.65625e-06
2.76573e-06
2.85313e-06
2.91832e-06
2.96113e-06
2.9813e-06
2.97849e-06
2.95221e-06
2.90244e-06
2.82708e-06
2.72584e-06
2.59815e-06
2.44368e-06
2.26216e-06
2.05497e-06
1.8244e-06
1.5728e-06
1.301e-06
1.0091e-06
7.04538e-07
4.07864e-07
5.20846e-09
4.41931e-09
2.8064e-06
4.82108e-06
6.31584e-06
7.52734e-06
8.70699e-06
9.91325e-06
1.11543e-05
1.2434e-05
1.37609e-05
1.5141e-05
1.65923e-05
1.8182e-05
1.9523e-05
1.98129e-05
1.99973e-05
2.00824e-05
2.00735e-05
1.99748e-05
1.97893e-05
1.95184e-05
1.91616e-05
1.87134e-05
1.81689e-05
1.7521e-05
1.65441e-05
1.46457e-05
1.27905e-05
1.09516e-05
9.00857e-06
6.88843e-06
4.87487e-06
3.61264e-06
2.01044e-06
1.77031e-08
7.30835e-09
2.09249e-06
4.60255e-06
7.29518e-06
9.83167e-06
1.20886e-05
1.4058e-05
1.57775e-05
1.7292e-05
1.86344e-05
1.982e-05
2.08477e-05
2.17184e-05
2.24735e-05
2.31016e-05
2.29964e-05
2.27538e-05
2.24305e-05
2.20403e-05
2.15976e-05
2.0964e-05
1.97868e-05
1.84864e-05
1.71962e-05
1.59953e-05
1.49055e-05
1.38877e-05
1.2823e-05
1.15112e-05
9.7664e-06
7.69863e-06
6.04392e-06
5.50524e-06
1.98991e-06
3.10642e-08
1.0246e-08
1.98124e-06
4.55673e-06
8.15099e-06
1.24129e-05
1.6322e-05
1.92972e-05
2.14491e-05
2.30004e-05
2.40807e-05
2.47541e-05
2.50553e-05
2.50113e-05
2.46581e-05
2.40473e-05
2.32257e-05
2.22318e-05
2.11099e-05
1.99053e-05
1.86586e-05
1.74029e-05
1.61766e-05
1.50319e-05
1.40208e-05
1.31855e-05
1.25401e-05
1.20295e-05
1.14789e-05
1.06027e-05
9.20966e-06
7.61825e-06
6.77203e-06
6.96945e-06
1.84099e-06
4.19705e-08
1.45126e-08
1.91404e-06
4.60215e-06
8.88534e-06
1.44716e-05
1.94693e-05
2.28601e-05
2.49754e-05
2.61595e-05
2.65832e-05
2.637e-05
2.56437e-05
2.45397e-05
2.32e-05
2.17568e-05
2.03135e-05
1.89344e-05
1.76463e-05
1.64482e-05
1.53259e-05
1.42675e-05
1.32758e-05
1.23746e-05
1.16e-05
1.09881e-05
1.05528e-05
1.02409e-05
9.88402e-06
9.2337e-06
8.20992e-06
7.24824e-06
7.28496e-06
7.48198e-06
1.74302e-06
4.96356e-08
1.8613e-08
1.93343e-06
4.77527e-06
9.66015e-06
1.64468e-05
2.24497e-05
2.61441e-05
2.80384e-05
2.86344e-05
2.82259e-05
2.70559e-05
2.53721e-05
2.34294e-05
2.14582e-05
1.96234e-05
1.80081e-05
1.66269e-05
1.54504e-05
1.44291e-05
1.35125e-05
1.26654e-05
1.18747e-05
1.1143e-05
1.04838e-05
9.92168e-06
9.47111e-06
9.09237e-06
8.66091e-06
8.02999e-06
7.24776e-06
6.78671e-06
7.56194e-06
7.4651e-06
1.69648e-06
5.54642e-08
2.26467e-08
1.95603e-06
4.90348e-06
1.01778e-05
1.77004e-05
2.41836e-05
2.78645e-05
2.94211e-05
2.94336e-05
2.82731e-05
2.63047e-05
2.3916e-05
2.14693e-05
1.92279e-05
1.73166e-05
1.57507e-05
1.44894e-05
1.34719e-05
1.26352e-05
1.19259e-05
1.131e-05
1.07675e-05
1.02689e-05
9.78612e-06
9.31055e-06
8.84225e-06
8.35809e-06
7.80007e-06
7.14059e-06
6.52759e-06
6.42884e-06
7.73861e-06
7.13745e-06
1.6624e-06
6.05022e-08
2.62525e-08
1.98266e-06
4.99381e-06
1.05096e-05
1.85768e-05
2.54929e-05
2.91741e-05
3.0401e-05
2.98664e-05
2.80678e-05
2.55094e-05
2.26932e-05
2.00216e-05
1.77171e-05
1.58377e-05
1.43489e-05
1.31832e-05
1.22682e-05
1.15408e-05
1.09563e-05
1.04906e-05
1.01167e-05
9.77821e-06
9.41368e-06
8.98129e-06
8.46426e-06
7.85885e-06
7.17429e-06
6.47718e-06
5.96877e-06
6.09647e-06
7.74618e-06
6.84518e-06
1.64603e-06
6.55992e-08
2.95153e-08
2.0007e-06
5.04329e-06
1.06911e-05
1.90539e-05
2.6144e-05
2.9715e-05
3.06389e-05
2.96841e-05
2.74454e-05
2.45322e-05
2.15108e-05
1.87729e-05
1.64858e-05
1.4656e-05
1.32227e-05
1.2112e-05
1.12566e-05
1.06039e-05
1.01246e-05
9.80927e-06
9.61761e-06
9.46128e-06
9.23954e-06
8.86922e-06
8.31232e-06
7.59083e-06
6.78712e-06
6.04675e-06
5.60074e-06
5.87575e-06
7.74313e-06
6.54205e-06
1.63238e-06
7.10474e-08
3.28454e-08
2.02072e-06
5.08545e-06
1.08256e-05
1.94099e-05
2.66458e-05
3.0135e-05
3.08153e-05
2.95379e-05
2.6992e-05
2.3865e-05
2.07461e-05
1.79945e-05
1.57298e-05
1.39267e-05
1.251e-05
1.14055e-05
1.05545e-05
9.91521e-06
9.47424e-06
9.23834e-06
9.16168e-06
9.14042e-06
9.04449e-06
8.74982e-06
8.18929e-06
7.39719e-06
6.5132e-06
5.74328e-06
5.33697e-06
5.707e-06
7.71286e-06
6.28706e-06
1.62342e-06
7.67585e-08
3.59091e-08
2.03357e-06
5.1075e-06
1.08998e-05
1.96079e-05
2.68906e-05
3.02676e-05
3.07366e-05
2.92137e-05
2.64605e-05
2.32165e-05
2.00709e-05
1.73443e-05
1.51168e-05
1.33425e-05
1.19409e-05
1.08393e-05
9.98536e-06
9.3498e-06
8.93548e-06
8.76157e-06
8.77565e-06
8.8639e-06
8.87402e-06
8.64867e-06
8.09665e-06
7.26226e-06
6.32804e-06
5.5432e-06
5.17014e-06
5.61541e-06
7.72679e-06
6.04803e-06
1.61574e-06
8.25545e-08
3.93371e-08
2.0512e-06
5.14406e-06
1.10099e-05
1.98499e-05
2.71514e-05
3.04056e-05
3.06846e-05
2.89657e-05
2.60686e-05
2.27607e-05
1.96153e-05
1.69163e-05
1.47149e-05
1.29522e-05
1.15462e-05
1.0428e-05
9.55095e-06
8.89419e-06
8.47476e-06
8.32371e-06
8.38709e-06
8.54852e-06
8.64238e-06
8.48568e-06
7.96503e-06
7.12698e-06
6.18067e-06
5.40149e-06
5.06183e-06
5.57162e-06
7.76915e-06
5.84203e-06
1.61082e-06
8.8301e-08
4.25655e-08
2.06464e-06
5.17148e-06
1.10923e-05
2.00196e-05
2.73073e-05
3.04404e-05
3.05519e-05
2.86727e-05
2.56725e-05
2.23366e-05
1.92162e-05
1.65588e-05
1.43913e-05
1.26452e-05
1.12386e-05
1.01063e-05
9.20756e-06
8.52919e-06
8.09884e-06
7.95703e-06
8.04875e-06
8.25651e-06
8.40713e-06
8.30194e-06
7.81437e-06
6.99251e-06
6.05975e-06
5.30416e-06
5.00459e-06
5.5805e-06
7.85755e-06
5.6573e-06
1.60785e-06
9.38766e-08
4.61624e-08
2.08229e-06
5.21355e-06
1.12176e-05
2.02572e-05
2.75089e-05
3.05006e-05
3.04506e-05
2.84388e-05
2.53703e-05
2.20314e-05
1.89444e-05
1.63253e-05
1.41828e-05
1.24434e-05
1.10265e-05
9.87121e-06
8.9419e-06
8.23185e-06
7.77703e-06
7.62563e-06
7.72323e-06
7.95393e-06
8.1417e-06
8.07963e-06
7.63242e-06
6.84653e-06
5.94957e-06
5.23306e-06
4.97991e-06
5.6234e-06
7.97293e-06
5.50185e-06
1.60757e-06
9.92636e-08
4.96086e-08
2.09786e-06
5.25205e-06
1.13293e-05
2.04553e-05
2.76597e-05
3.05209e-05
3.03279e-05
2.82051e-05
2.50892e-05
2.17632e-05
1.87196e-05
1.6145e-05
1.40321e-05
1.23032e-05
1.08791e-05
9.70269e-06
8.74328e-06
7.99985e-06
7.5156e-06
7.34647e-06
7.43772e-06
7.67389e-06
7.87952e-06
7.84644e-06
7.43703e-06
6.69637e-06
5.84942e-06
5.18366e-06
4.98426e-06
5.70104e-06
8.11711e-06
5.36756e-06
1.60931e-06
1.0443e-07
5.33281e-08
2.11617e-06
5.29998e-06
1.14697e-05
2.07012e-05
2.78458e-05
3.05664e-05
3.02388e-05
2.80266e-05
2.48849e-05
2.15835e-05
1.85844e-05
1.60493e-05
1.39596e-05
1.22352e-05
1.07986e-05
9.59618e-06
8.60121e-06
7.8179e-06
7.29408e-06
7.09386e-06
7.16456e-06
7.39223e-06
7.60401e-06
7.59399e-06
7.22488e-06
6.53879e-06
5.75289e-06
5.14645e-06
5.00635e-06
5.80053e-06
8.27584e-06
5.25721e-06
1.61327e-06
1.09393e-07
5.69426e-08
2.13358e-06
5.34723e-06
1.16052e-05
2.09268e-05
2.80063e-05
3.05971e-05
3.01496e-05
2.78626e-05
2.47069e-05
2.14375e-05
1.84875e-05
1.59959e-05
1.39334e-05
1.22174e-05
1.07715e-05
9.54447e-06
8.51391e-06
7.68861e-06
7.12021e-06
6.88093e-06
6.92105e-06
7.12858e-06
7.33469e-06
7.33888e-06
7.00747e-06
6.37952e-06
5.66106e-06
5.12013e-06
5.04487e-06
5.92185e-06
8.44756e-06
5.16412e-06
1.61878e-06
1.14141e-07
6.07403e-08
2.15265e-06
5.40031e-06
1.1759e-05
2.11833e-05
2.81928e-05
3.06529e-05
3.00962e-05
2.77501e-05
2.4592e-05
2.13581e-05
1.84546e-05
1.60016e-05
1.39623e-05
1.2252e-05
1.07948e-05
9.54136e-06
8.47265e-06
7.60097e-06
6.98131e-06
6.69331e-06
6.69274e-06
6.87033e-06
7.06272e-06
7.07679e-06
6.78327e-06
6.21688e-06
5.57039e-06
5.09928e-06
5.09299e-06
6.05701e-06
8.62435e-06
5.08868e-06
1.62583e-06
1.18687e-07
6.44699e-08
2.17142e-06
5.45417e-06
1.19135e-05
2.14324e-05
2.83692e-05
3.07072e-05
3.00519e-05
2.76558e-05
2.45011e-05
2.13058e-05
1.84512e-05
1.60404e-05
1.40285e-05
1.23282e-05
1.08633e-05
9.58589e-06
8.47941e-06
7.55947e-06
6.88438e-06
6.5404e-06
6.49082e-06
6.62958e-06
6.79996e-06
6.81803e-06
6.56016e-06
6.05583e-06
5.48285e-06
5.08384e-06
5.14972e-06
6.20474e-06
8.8036e-06
5.02618e-06
1.63392e-06
1.23022e-07
6.83145e-08
2.19109e-06
5.51182e-06
1.20811e-05
2.17047e-05
2.85684e-05
3.07876e-05
3.00424e-05
2.76048e-05
2.44573e-05
2.12994e-05
1.84903e-05
1.61186e-05
1.41328e-05
1.24429e-05
1.09714e-05
9.67094e-06
8.52652e-06
7.55632e-06
6.82136e-06
6.41397e-06
6.3077e-06
6.40032e-06
6.54257e-06
6.56074e-06
6.33708e-06
5.89516e-06
5.39681e-06
5.07129e-06
5.21203e-06
6.36151e-06
8.98203e-06
4.97603e-06
1.64295e-06
1.27144e-07
7.21131e-08
2.21054e-06
5.57041e-06
1.22521e-05
2.19787e-05
2.87697e-05
3.08767e-05
3.00474e-05
2.75716e-05
2.44323e-05
2.13126e-05
1.85511e-05
1.62222e-05
1.42672e-05
1.25926e-05
1.11191e-05
9.79867e-06
8.61724e-06
7.59538e-06
6.79702e-06
6.31961e-06
6.14954e-06
6.18911e-06
6.29715e-06
6.31088e-06
6.11857e-06
5.73732e-06
5.31292e-06
5.06137e-06
5.27838e-06
6.52462e-06
9.15604e-06
4.93476e-06
1.65252e-06
1.31056e-07
7.59743e-08
2.23021e-06
5.63097e-06
1.24328e-05
2.22737e-05
2.89976e-05
3.09959e-05
3.0084e-05
2.75697e-05
2.44368e-05
2.13525e-05
1.86365e-05
1.63501e-05
1.44274e-05
1.27711e-05
1.12994e-05
9.96251e-06
8.74602e-06
7.6722e-06
6.8076e-06
6.25389e-06
6.0137e-06
5.99435e-06
6.06322e-06
6.06875e-06
5.90506e-06
5.58238e-06
5.2305e-06
5.05307e-06
5.34847e-06
6.69442e-06
9.32818e-06
4.90404e-06
1.66291e-06
1.34761e-07
7.98009e-08
2.24952e-06
5.69147e-06
1.26152e-05
2.25716e-05
2.92258e-05
3.11213e-05
3.01323e-05
2.75789e-05
2.4452e-05
2.14046e-05
1.87368e-05
1.64967e-05
1.46112e-05
1.29788e-05
1.15143e-05
1.01652e-05
8.91591e-06
7.78973e-06
6.85584e-06
6.21989e-06
5.90345e-06
5.81948e-06
5.84422e-06
5.83741e-06
5.69881e-06
5.43152e-06
5.14956e-06
5.04478e-06
5.41864e-06
6.86429e-06
9.48907e-06
4.87865e-06
1.67347e-06
1.3826e-07
8.36492e-08
2.26866e-06
5.75217e-06
1.27989e-05
2.28679e-05
2.94474e-05
3.12427e-05
3.01861e-05
2.75993e-05
2.44801e-05
2.1469e-05
1.8849e-05
1.66561e-05
1.48109e-05
1.32073e-05
1.1756e-05
1.04006e-05
9.12289e-06
7.9459e-06
6.94109e-06
6.21814e-06
5.81999e-06
5.66611e-06
5.64194e-06
5.61846e-06
5.50084e-06
5.28513e-06
5.07013e-06
5.0366e-06
5.48982e-06
7.03885e-06
9.65191e-06
4.86239e-06
1.68463e-06
1.41561e-07
8.74729e-08
2.28763e-06
5.81353e-06
1.29848e-05
2.31576e-05
2.96602e-05
3.13578e-05
3.02368e-05
2.76273e-05
2.45163e-05
2.15407e-05
1.89698e-05
1.68274e-05
1.50269e-05
1.34576e-05
1.20257e-05
1.067e-05
9.36828e-06
8.14229e-06
7.06522e-06
6.25104e-06
5.76572e-06
5.53685e-06
5.45898e-06
5.41411e-06
5.31268e-06
5.14399e-06
4.99224e-06
5.02768e-06
5.55961e-06
7.21289e-06
9.81088e-06
4.85252e-06
1.69611e-06
1.44673e-07
9.12878e-08
2.30598e-06
5.87449e-06
1.31737e-05
2.34414e-05
2.98644e-05
3.14651e-05
3.0281e-05
2.76515e-05
2.45505e-05
2.16123e-05
1.90922e-05
1.70026e-05
1.52507e-05
1.37214e-05
1.23161e-05
1.09677e-05
9.64882e-06
8.37795e-06
7.2292e-06
6.32117e-06
5.7438e-06
5.43486e-06
5.29817e-06
5.22658e-06
5.13571e-06
5.00861e-06
4.91578e-06
5.01775e-06
5.62874e-06
7.39017e-06
9.96839e-06
4.85279e-06
1.70856e-06
1.47607e-07
9.50765e-08
2.32371e-06
5.93358e-06
1.33577e-05
2.3716e-05
3.00578e-05
3.15637e-05
3.03196e-05
2.76732e-05
2.45866e-05
2.16873e-05
1.92187e-05
1.71836e-05
1.54833e-05
1.39988e-05
1.26263e-05
1.12924e-05
9.96306e-06
8.65218e-06
7.4336e-06
6.43065e-06
5.7568e-06
5.36291e-06
5.16224e-06
5.05822e-06
4.97168e-06
4.88013e-06
4.84144e-06
5.00725e-06
5.69757e-06
7.57044e-06
1.01253e-05
4.86104e-06
1.72194e-06
1.5038e-07
9.88418e-08
2.34108e-06
5.99223e-06
1.3541e-05
2.39848e-05
3.02422e-05
3.16531e-05
3.03487e-05
2.76862e-05
2.46195e-05
2.17584e-05
1.93407e-05
1.73619e-05
1.57173e-05
1.42831e-05
1.29505e-05
1.16394e-05
1.0308e-05
8.96392e-06
7.67941e-06
6.58246e-06
5.80792e-06
5.32399e-06
5.05391e-06
4.9113e-06
4.82225e-06
4.75962e-06
4.76988e-06
4.99658e-06
5.76579e-06
7.7514e-06
1.02815e-05
4.87593e-06
1.73609e-06
1.53e-07
1.02585e-07
2.35802e-06
6.04981e-06
1.37216e-05
2.42454e-05
3.04155e-05
3.17322e-05
3.03687e-05
2.7691e-05
2.46468e-05
2.18252e-05
1.94601e-05
1.75399e-05
1.59539e-05
1.4574e-05
1.32868e-05
1.20056e-05
1.06801e-05
9.31037e-06
7.96553e-06
6.77745e-06
5.89897e-06
5.32034e-06
4.9754e-06
4.78779e-06
4.68902e-06
4.64823e-06
4.70162e-06
4.98539e-06
5.83181e-06
7.93015e-06
1.04352e-05
4.89583e-06
1.75076e-06
1.55476e-07
1.0629e-07
2.37468e-06
6.10685e-06
1.39003e-05
2.44987e-05
3.05786e-05
3.18002e-05
3.03767e-05
2.76832e-05
2.46615e-05
2.1881e-05
1.9571e-05
1.77123e-05
1.61884e-05
1.48674e-05
1.36316e-05
1.23876e-05
1.10767e-05
9.68962e-06
8.29106e-06
7.01573e-06
6.03129e-06
5.35397e-06
4.92891e-06
4.68977e-06
4.57377e-06
4.54742e-06
4.63805e-06
4.9752e-06
5.89714e-06
8.10735e-06
1.05874e-05
4.92012e-06
1.76583e-06
1.57811e-07
1.09975e-07
2.39121e-06
6.16363e-06
1.40772e-05
2.47445e-05
3.07308e-05
3.18568e-05
3.03734e-05
2.76648e-05
2.46669e-05
2.19295e-05
1.96763e-05
1.78808e-05
1.64211e-05
1.5162e-05
1.3982e-05
1.27817e-05
1.1493e-05
1.00972e-05
8.65218e-06
7.29431e-06
6.20365e-06
5.42499e-06
4.91542e-06
4.6186e-06
4.47793e-06
4.45836e-06
4.57956e-06
4.96497e-06
5.95898e-06
8.2803e-06
1.07364e-05
4.94758e-06
1.7811e-06
1.60016e-07
1.13617e-07
2.40764e-06
6.22052e-06
1.42515e-05
2.49815e-05
3.08709e-05
3.18995e-05
3.03547e-05
2.76304e-05
2.4657e-05
2.19651e-05
1.97714e-05
1.80417e-05
1.66492e-05
1.54557e-05
1.43364e-05
1.31859e-05
1.19273e-05
1.05308e-05
9.0467e-06
7.61114e-06
6.41512e-06
5.53337e-06
4.93547e-06
4.57533e-06
4.40277e-06
4.38236e-06
4.52765e-06
4.95727e-06
6.02232e-06
8.45009e-06
1.08829e-05
4.97761e-06
1.79646e-06
1.621e-07
1.17245e-07
2.42418e-06
6.27929e-06
1.4424e-05
2.52108e-05
3.09993e-05
3.19288e-05
3.03217e-05
2.75822e-05
2.46349e-05
2.19908e-05
1.98582e-05
1.81956e-05
1.68718e-05
1.57464e-05
1.46913e-05
1.35959e-05
1.23743e-05
1.09854e-05
9.47006e-06
7.96258e-06
6.66358e-06
5.67815e-06
4.98899e-06
4.56051e-06
4.34933e-06
4.32073e-06
4.48362e-06
4.95288e-06
6.08613e-06
8.61724e-06
1.10276e-05
5.00987e-06
1.81185e-06
1.64073e-07
1.20813e-07
2.43959e-06
6.33513e-06
1.45922e-05
2.543e-05
3.11133e-05
3.19416e-05
3.02708e-05
2.75157e-05
2.45957e-05
2.20034e-05
1.99339e-05
1.83401e-05
1.70874e-05
1.6033e-05
1.50461e-05
1.40108e-05
1.28326e-05
1.14588e-05
9.91971e-06
8.3463e-06
6.94757e-06
5.85862e-06
5.07588e-06
4.57453e-06
4.31844e-06
4.27457e-06
4.44855e-06
4.95244e-06
6.15029e-06
8.78191e-06
1.1171e-05
5.0441e-06
1.82723e-06
1.65944e-07
1.24347e-07
2.45484e-06
6.39079e-06
1.47595e-05
2.56427e-05
3.12157e-05
3.19393e-05
3.02032e-05
2.74334e-05
2.45424e-05
2.2005e-05
1.99992e-05
1.84748e-05
1.72945e-05
1.63132e-05
1.53974e-05
1.44263e-05
1.32971e-05
1.19455e-05
1.03905e-05
8.75806e-06
7.26432e-06
6.07329e-06
5.19558e-06
4.61752e-06
4.31071e-06
4.2448e-06
4.42347e-06
4.95677e-06
6.21525e-06
8.94444e-06
1.13137e-05
5.08008e-06
1.84256e-06
1.67724e-07
1.27805e-07
2.4691e-06
6.44375e-06
1.49221e-05
2.58467e-05
3.13039e-05
3.19196e-05
3.01158e-05
2.73286e-05
2.44662e-05
2.19865e-05
2.00492e-05
1.85979e-05
1.74926e-05
1.6587e-05
1.57451e-05
1.48418e-05
1.37665e-05
1.24433e-05
1.08793e-05
9.19459e-06
7.61123e-06
6.32044e-06
5.34723e-06
4.68936e-06
4.32661e-06
4.23221e-06
4.40914e-06
4.96641e-06
6.28121e-06
9.10482e-06
1.14559e-05
5.11758e-06
1.85784e-06
1.69421e-07
1.31245e-07
2.48312e-06
6.49707e-06
1.50873e-05
2.6047e-05
3.13815e-05
3.18862e-05
3.00143e-05
2.72126e-05
2.43809e-05
2.19576e-05
2.00859e-05
1.87079e-05
1.76796e-05
1.68513e-05
1.60854e-05
1.52529e-05
1.42356e-05
1.29465e-05
1.13806e-05
9.651e-06
7.98453e-06
6.59745e-06
5.52929e-06
4.7895e-06
4.36643e-06
4.2377e-06
4.40671e-06
4.98243e-06
6.349e-06
9.26361e-06
1.1598e-05
5.15642e-06
1.87303e-06
1.71044e-07
1.34627e-07
2.49659e-06
6.54907e-06
1.52492e-05
2.62364e-05
3.1443e-05
3.18336e-05
2.98916e-05
2.70746e-05
2.4275e-05
2.1912e-05
2.0111e-05
1.88073e-05
1.78562e-05
1.71074e-05
1.64197e-05
1.56604e-05
1.47044e-05
1.34539e-05
1.1892e-05
1.01243e-05
8.38129e-06
6.9019e-06
5.74002e-06
4.91689e-06
4.42983e-06
4.26153e-06
4.41681e-06
5.00553e-06
6.41906e-06
9.42077e-06
1.17404e-05
5.1966e-06
1.88816e-06
1.72603e-07
1.37971e-07
2.50963e-06
6.60047e-06
1.54107e-05
2.6419e-05
3.14916e-05
3.17652e-05
2.97527e-05
2.69223e-05
2.41566e-05
2.18543e-05
2.01244e-05
1.88963e-05
1.80224e-05
1.73516e-05
1.67432e-05
1.60593e-05
1.51676e-05
1.39601e-05
1.2408e-05
1.06093e-05
8.79736e-06
7.23077e-06
5.97751e-06
5.07065e-06
4.51681e-06
4.30431e-06
4.44043e-06
5.03679e-06
6.49244e-06
9.5772e-06
1.18833e-05
5.23801e-06
1.90323e-06
1.74108e-07
1.41253e-07
2.52208e-06
6.65049e-06
1.55687e-05
2.65902e-05
3.15238e-05
3.1678e-05
2.95943e-05
2.67513e-05
2.40213e-05
2.17822e-05
2.01258e-05
1.89753e-05
1.81803e-05
1.75886e-05
1.70582e-05
1.64505e-05
1.56252e-05
1.44636e-05
1.29261e-05
1.11027e-05
9.22909e-06
7.58076e-06
6.23919e-06
5.24915e-06
4.62666e-06
4.36618e-06
4.47819e-06
5.07703e-06
6.56997e-06
9.73363e-06
1.20275e-05
5.28083e-06
1.91829e-06
1.75569e-07
1.44492e-07
2.53411e-06
6.69977e-06
1.57253e-05
2.67526e-05
3.15415e-05
3.15737e-05
2.94185e-05
2.65647e-05
2.38724e-05
2.16977e-05
2.01157e-05
1.9043e-05
1.83269e-05
1.78145e-05
1.73627e-05
1.68299e-05
1.6072e-05
1.49594e-05
1.34409e-05
1.15996e-05
9.67216e-06
7.9485e-06
6.52257e-06
5.45079e-06
4.75873e-06
4.44734e-06
4.53098e-06
5.12753e-06
6.65306e-06
9.89126e-06
1.2173e-05
5.32487e-06
1.93332e-06
1.76994e-07
1.47661e-07
2.54545e-06
6.74723e-06
1.58773e-05
2.69026e-05
3.15427e-05
3.1451e-05
2.92244e-05
2.63616e-05
2.37094e-05
2.16012e-05
2.00955e-05
1.91017e-05
1.84649e-05
1.80316e-05
1.76581e-05
1.72001e-05
1.65082e-05
1.54453e-05
1.39491e-05
1.20953e-05
1.0122e-05
8.33002e-06
6.82464e-06
5.67351e-06
4.91187e-06
4.54753e-06
4.59933e-06
5.18945e-06
6.74329e-06
1.00519e-05
1.23213e-05
5.37045e-06
1.9484e-06
1.7839e-07
1.50768e-07
2.5562e-06
6.79333e-06
1.60263e-05
2.70421e-05
3.15283e-05
3.13101e-05
2.9012e-05
2.61422e-05
2.35325e-05
2.14926e-05
2.00645e-05
1.91501e-05
1.85924e-05
1.82378e-05
1.79418e-05
1.75579e-05
1.69316e-05
1.5918e-05
1.44463e-05
1.25853e-05
1.05739e-05
8.72124e-06
7.1423e-06
5.91529e-06
5.08505e-06
4.66658e-06
4.68381e-06
5.26395e-06
6.84234e-06
1.02172e-05
1.24725e-05
5.41743e-06
1.96352e-06
1.79761e-07
1.53806e-07
2.5663e-06
6.83771e-06
1.61709e-05
2.71695e-05
3.14974e-05
3.11507e-05
2.87817e-05
2.59074e-05
2.33429e-05
2.13734e-05
2.00247e-05
1.91908e-05
1.87123e-05
1.84354e-05
1.82156e-05
1.7904e-05
1.73415e-05
1.6376e-05
1.49294e-05
1.30651e-05
1.10229e-05
9.11726e-06
7.47142e-06
6.17319e-06
5.27657e-06
4.80393e-06
4.78487e-06
5.35242e-06
6.95245e-06
1.039e-05
1.26282e-05
5.46614e-06
1.97879e-06
1.81114e-07
1.56779e-07
2.57576e-06
6.88052e-06
1.63119e-05
2.72853e-05
3.14499e-05
3.09724e-05
2.85328e-05
2.56565e-05
2.31399e-05
2.12429e-05
1.99751e-05
1.92225e-05
1.88234e-05
1.86237e-05
1.84786e-05
1.82373e-05
1.77364e-05
1.68174e-05
1.53955e-05
1.35316e-05
1.14652e-05
9.51408e-06
7.80822e-06
6.44418e-06
5.48444e-06
4.95864e-06
4.90247e-06
5.45561e-06
7.07516e-06
1.05721e-05
1.2788e-05
5.51641e-06
1.99418e-06
1.82448e-07
1.59691e-07
2.58468e-06
6.92203e-06
1.64496e-05
2.73898e-05
3.13859e-05
3.07753e-05
2.82661e-05
2.5391e-05
2.29253e-05
2.1103e-05
1.99179e-05
1.92475e-05
1.8928e-05
1.88049e-05
1.87327e-05
1.85591e-05
1.81166e-05
1.72411e-05
1.58427e-05
1.39803e-05
1.18964e-05
9.90744e-06
8.1487e-06
6.72486e-06
5.70629e-06
5.12961e-06
5.03683e-06
5.57495e-06
7.21306e-06
1.07668e-05
1.29534e-05
5.56857e-06
2.00981e-06
1.83769e-07
1.62542e-07
2.593e-06
6.96214e-06
1.65839e-05
2.74825e-05
3.13049e-05
3.05587e-05
2.79811e-05
2.51104e-05
2.26985e-05
2.09528e-05
1.98519e-05
1.92646e-05
1.90249e-05
1.8978e-05
1.89777e-05
1.88694e-05
1.8482e-05
1.76467e-05
1.627e-05
1.44106e-05
1.23137e-05
1.02934e-05
8.48904e-06
7.0119e-06
5.93944e-06
5.31495e-06
5.18692e-06
5.71037e-06
7.36712e-06
1.09756e-05
1.31239e-05
5.62256e-06
2.0257e-06
1.85077e-07
1.65338e-07
2.60089e-06
7.00129e-06
1.67157e-05
2.75641e-05
3.12072e-05
3.03239e-05
2.76797e-05
2.4817e-05
2.24621e-05
2.0795e-05
1.97793e-05
1.92758e-05
1.91159e-05
1.91445e-05
1.92144e-05
1.91687e-05
1.88326e-05
1.80336e-05
1.66761e-05
1.48204e-05
1.27153e-05
1.06697e-05
8.82626e-06
7.30226e-06
6.18143e-06
5.51321e-06
5.35254e-06
5.86292e-06
7.53944e-06
1.12011e-05
1.33007e-05
5.67871e-06
2.04195e-06
1.86379e-07
1.68072e-07
2.6082e-06
7.03908e-06
1.68439e-05
2.76333e-05
3.10923e-05
3.00702e-05
2.73617e-05
2.4511e-05
2.22161e-05
2.06291e-05
1.96997e-05
1.92801e-05
1.91999e-05
1.93035e-05
1.94423e-05
1.94569e-05
1.91688e-05
1.8402e-05
1.70607e-05
1.52089e-05
1.30995e-05
1.1034e-05
9.15783e-06
7.59332e-06
6.42971e-06
5.72213e-06
5.53194e-06
6.03162e-06
7.73047e-06
1.14446e-05
1.34837e-05
5.73706e-06
2.0586e-06
1.87679e-07
1.70743e-07
2.61506e-06
7.07585e-06
1.69691e-05
2.76909e-05
3.09611e-05
2.97994e-05
2.70297e-05
2.41954e-05
2.19636e-05
2.04582e-05
1.96155e-05
1.92797e-05
1.92783e-05
1.94557e-05
1.96617e-05
1.97341e-05
1.94904e-05
1.87519e-05
1.74238e-05
1.55756e-05
1.34654e-05
1.13848e-05
9.48162e-06
7.88273e-06
6.68203e-06
5.93991e-06
5.72412e-06
6.21673e-06
7.94059e-06
1.17068e-05
1.36731e-05
5.79784e-06
2.07575e-06
1.88989e-07
1.73337e-07
2.62126e-06
7.11084e-06
1.70895e-05
2.77352e-05
3.08127e-05
2.9511e-05
2.66835e-05
2.38701e-05
2.17046e-05
2.02824e-05
1.95269e-05
1.92743e-05
1.93509e-05
1.96007e-05
1.98722e-05
1.99998e-05
1.97973e-05
1.90833e-05
1.77655e-05
1.59205e-05
1.38121e-05
1.17207e-05
9.79585e-06
8.16836e-06
6.93635e-06
6.16486e-06
5.92816e-06
6.41829e-06
8.17036e-06
1.19883e-05
1.38683e-05
5.86084e-06
2.09339e-06
1.90311e-07
1.75857e-07
2.62692e-06
7.14439e-06
1.72057e-05
2.77672e-05
3.06485e-05
2.92066e-05
2.6325e-05
2.35375e-05
2.14419e-05
2.01045e-05
1.94366e-05
1.92667e-05
1.94197e-05
1.97397e-05
2.00741e-05
2.0254e-05
2.00891e-05
1.93962e-05
1.80861e-05
1.6244e-05
1.414e-05
1.20413e-05
1.00995e-05
8.44875e-06
7.19077e-06
6.39511e-06
6.14239e-06
6.63484e-06
8.41934e-06
1.22888e-05
1.4069e-05
5.92611e-06
2.11156e-06
1.91656e-07
1.78289e-07
2.63185e-06
7.17589e-06
1.73166e-05
2.77858e-05
3.04672e-05
2.88849e-05
2.59534e-05
2.31969e-05
2.11749e-05
1.99246e-05
1.93452e-05
1.92577e-05
1.94858e-05
1.9874e-05
2.02685e-05
2.04974e-05
2.03665e-05
1.96911e-05
1.83863e-05
1.65468e-05
1.44493e-05
1.23465e-05
1.03917e-05
8.72259e-06
7.44387e-06
6.62924e-06
6.36547e-06
6.86526e-06
8.68698e-06
1.2608e-05
1.42742e-05
5.99328e-06
2.13021e-06
1.93024e-07
1.80643e-07
2.6362e-06
7.20581e-06
1.74233e-05
2.77927e-05
3.027e-05
2.85469e-05
2.55695e-05
2.28495e-05
2.09054e-05
1.97448e-05
1.92552e-05
1.92497e-05
1.95514e-05
2.00055e-05
2.04569e-05
2.0731e-05
2.06299e-05
1.99684e-05
1.86669e-05
1.68302e-05
1.47412e-05
1.2637e-05
1.06727e-05
8.98929e-06
7.69428e-06
6.86515e-06
6.59532e-06
7.10771e-06
8.97192e-06
1.29443e-05
1.44828e-05
6.06211e-06
2.14932e-06
1.94422e-07
1.82916e-07
2.63991e-06
7.23396e-06
1.75255e-05
2.77869e-05
3.00553e-05
2.81906e-05
2.51717e-05
2.24939e-05
2.06323e-05
1.95651e-05
1.91669e-05
1.92438e-05
1.96186e-05
2.01367e-05
2.0642e-05
2.09573e-05
2.08817e-05
2.02303e-05
1.89297e-05
1.70958e-05
1.50169e-05
1.29135e-05
1.09428e-05
9.24879e-06
7.9418e-06
7.10273e-06
6.83114e-06
7.36092e-06
9.2726e-06
1.32959e-05
1.46939e-05
6.13225e-06
2.16883e-06
1.95851e-07
1.85122e-07
2.64315e-06
7.26101e-06
1.7625e-05
2.77699e-05
2.98235e-05
2.78163e-05
2.47607e-05
2.21305e-05
2.03559e-05
1.93875e-05
1.90818e-05
1.92412e-05
1.96887e-05
2.02695e-05
2.0826e-05
2.11783e-05
2.11236e-05
2.04782e-05
1.91765e-05
1.73458e-05
1.52781e-05
1.31772e-05
1.12023e-05
9.50074e-06
8.18534e-06
7.34025e-06
7.07108e-06
7.62378e-06
9.58815e-06
1.36616e-05
1.4906e-05
6.20322e-06
2.18866e-06
1.97308e-07
1.8726e-07
2.6459e-06
7.28684e-06
1.77214e-05
2.77406e-05
2.95729e-05
2.74225e-05
2.43351e-05
2.17584e-05
2.00747e-05
1.92075e-05
1.8997e-05
1.92413e-05
1.9763e-05
2.04062e-05
2.10118e-05
2.13973e-05
2.13588e-05
2.07154e-05
1.94107e-05
1.75836e-05
1.55273e-05
1.343e-05
1.14528e-05
9.74613e-06
8.42531e-06
7.57772e-06
7.31507e-06
7.89444e-06
9.91603e-06
1.40382e-05
1.5118e-05
6.2746e-06
2.20873e-06
1.98795e-07
1.89342e-07
2.64832e-06
7.31202e-06
1.78159e-05
2.76996e-05
2.93037e-05
2.70096e-05
2.38961e-05
2.1379e-05
1.97903e-05
1.90274e-05
1.89141e-05
1.92449e-05
1.98418e-05
2.05475e-05
2.12005e-05
2.16158e-05
2.15891e-05
2.09439e-05
1.96348e-05
1.78124e-05
1.57667e-05
1.36728e-05
1.16943e-05
9.98462e-06
8.6611e-06
7.81427e-06
7.56205e-06
8.17293e-06
1.02559e-05
1.44252e-05
1.53292e-05
6.34606e-06
2.22895e-06
2.00303e-07
1.91362e-07
2.65034e-06
7.33626e-06
1.79078e-05
2.76458e-05
2.90147e-05
2.6577e-05
2.34437e-05
2.09921e-05
1.9502e-05
1.88456e-05
1.88317e-05
1.92512e-05
1.9925e-05
2.0694e-05
2.13935e-05
2.18359e-05
2.18169e-05
2.11664e-05
1.98519e-05
1.80357e-05
1.59988e-05
1.39076e-05
1.19285e-05
1.02172e-05
8.89302e-06
8.0496e-06
7.81121e-06
8.45794e-06
1.06059e-05
1.48197e-05
1.5537e-05
6.41638e-06
2.24909e-06
2.01809e-07
1.93325e-07
2.65206e-06
7.35987e-06
1.79975e-05
2.75796e-05
2.87064e-05
2.61262e-05
2.29801e-05
2.05998e-05
1.92114e-05
1.86635e-05
1.87503e-05
1.92598e-05
2.00121e-05
2.08452e-05
2.15908e-05
2.2058e-05
2.20433e-05
2.13843e-05
2.00633e-05
1.82544e-05
1.62244e-05
1.41351e-05
1.21557e-05
1.04442e-05
9.12143e-06
8.28398e-06
8.06264e-06
8.74942e-06
1.09661e-05
1.52204e-05
1.57414e-05
6.48562e-06
2.26918e-06
2.03316e-07
1.95225e-07
2.6534e-06
7.3826e-06
1.80847e-05
2.75e-05
2.83781e-05
2.56574e-05
2.2506e-05
2.02028e-05
1.8919e-05
1.8481e-05
1.86697e-05
1.92708e-05
2.01029e-05
2.10012e-05
2.17927e-05
2.22831e-05
2.22697e-05
2.15993e-05
2.02704e-05
1.84688e-05
1.6444e-05
1.43556e-05
1.23763e-05
1.06656e-05
9.34607e-06
8.51697e-06
8.31577e-06
9.0466e-06
1.13356e-05
1.56273e-05
1.59411e-05
6.55353e-06
2.28908e-06
2.04827e-07
1.97067e-07
2.65442e-06
7.40461e-06
1.81695e-05
2.74074e-05
2.80305e-05
2.51724e-05
2.20237e-05
1.98032e-05
1.86262e-05
1.8299e-05
1.85904e-05
1.92838e-05
2.01968e-05
2.11611e-05
2.19986e-05
2.2511e-05
2.24966e-05
2.18124e-05
2.04742e-05
1.86795e-05
1.66582e-05
1.45698e-05
1.25905e-05
1.08816e-05
9.56691e-06
8.74837e-06
8.5703e-06
9.34896e-06
1.17132e-05
1.60377e-05
1.61359e-05
6.61993e-06
2.30879e-06
2.06337e-07
1.98847e-07
2.6551e-06
7.42586e-06
1.82519e-05
2.73009e-05
2.76631e-05
2.46719e-05
2.15346e-05
1.94021e-05
1.83339e-05
1.81182e-05
1.85126e-05
1.92991e-05
2.0294e-05
2.13252e-05
2.22088e-05
2.27423e-05
2.27251e-05
2.20254e-05
2.0677e-05
1.88884e-05
1.68691e-05
1.478e-05
1.28005e-05
1.10937e-05
9.78472e-06
8.97844e-06
8.82602e-06
9.65582e-06
1.20975e-05
1.64496e-05
1.63254e-05
6.68482e-06
2.32828e-06
2.0784e-07
2.00571e-07
2.65551e-06
7.44656e-06
1.83318e-05
2.71804e-05
2.7277e-05
2.41584e-05
2.10414e-05
1.90016e-05
1.80433e-05
1.79388e-05
1.84362e-05
1.93161e-05
2.03937e-05
2.14923e-05
2.24224e-05
2.29763e-05
2.29553e-05
2.22391e-05
2.088e-05
1.90963e-05
1.70776e-05
1.49869e-05
1.30071e-05
1.13028e-05
1.00001e-05
9.20734e-06
9.08267e-06
9.96662e-06
1.24875e-05
1.68619e-05
1.65098e-05
6.74835e-06
2.3477e-06
2.09339e-07
2.02233e-07
2.65562e-06
7.46656e-06
1.84085e-05
2.70449e-05
2.68722e-05
2.36338e-05
2.05465e-05
1.86034e-05
1.77555e-05
1.77615e-05
1.8361e-05
1.93344e-05
2.04951e-05
2.1662e-05
2.26388e-05
2.3213e-05
2.31878e-05
2.24552e-05
2.10859e-05
1.93055e-05
1.72856e-05
1.51922e-05
1.32116e-05
1.15098e-05
1.02141e-05
9.43578e-06
9.34053e-06
1.02808e-05
1.28816e-05
1.72723e-05
1.66886e-05
6.81036e-06
2.36708e-06
2.10831e-07
2.03834e-07
2.65549e-06
7.48588e-06
1.84818e-05
2.68944e-05
2.64509e-05
2.31017e-05
2.0053e-05
1.821e-05
1.74721e-05
1.75864e-05
1.82862e-05
1.9352e-05
2.05961e-05
2.18319e-05
2.28561e-05
2.34511e-05
2.34222e-05
2.26745e-05
2.12969e-05
1.95175e-05
1.7494e-05
1.53966e-05
1.34149e-05
1.17157e-05
1.04272e-05
9.66404e-06
9.5995e-06
1.05983e-05
1.32795e-05
1.76802e-05
1.68627e-05
6.87103e-06
2.38628e-06
2.12314e-07
2.05359e-07
2.65502e-06
7.50391e-06
1.85497e-05
2.67281e-05
2.60141e-05
2.25647e-05
1.95634e-05
1.78232e-05
1.71951e-05
1.74145e-05
1.82112e-05
1.93677e-05
2.06948e-05
2.20001e-05
2.30723e-05
2.36887e-05
2.36577e-05
2.28979e-05
2.15151e-05
1.97341e-05
1.77042e-05
1.56012e-05
1.36177e-05
1.19209e-05
1.064e-05
9.89264e-06
9.86024e-06
1.09183e-05
1.36794e-05
1.80838e-05
1.70314e-05
6.93016e-06
2.40519e-06
2.13783e-07
2.06801e-07
2.65419e-06
7.52023e-06
1.86114e-05
2.65463e-05
2.55637e-05
2.20254e-05
1.90797e-05
1.7444e-05
1.69268e-05
1.72463e-05
1.81354e-05
1.93802e-05
2.07894e-05
2.21643e-05
2.32853e-05
2.39243e-05
2.38928e-05
2.31243e-05
2.174e-05
1.99548e-05
1.79162e-05
1.58062e-05
1.38203e-05
1.21262e-05
1.08536e-05
1.01238e-05
1.01259e-05
1.12424e-05
1.40819e-05
1.84834e-05
1.7196e-05
6.9881e-06
2.42385e-06
2.15242e-07
2.08148e-07
2.65282e-06
7.53387e-06
1.86652e-05
2.63486e-05
2.51e-05
2.14847e-05
1.86029e-05
1.70728e-05
1.66635e-05
1.70801e-05
1.80591e-05
1.93899e-05
2.08798e-05
2.23238e-05
2.34938e-05
2.41563e-05
2.41266e-05
2.33527e-05
2.197e-05
2.01792e-05
1.813e-05
1.60119e-05
1.40232e-05
1.23318e-05
1.10682e-05
1.03573e-05
1.03954e-05
1.15705e-05
1.44865e-05
1.8878e-05
1.73565e-05
7.0448e-06
2.44221e-06
2.1669e-07
2.09397e-07
2.65055e-06
7.54464e-06
1.87114e-05
2.61347e-05
2.46223e-05
2.09419e-05
1.81327e-05
1.67107e-05
1.64085e-05
1.692e-05
1.79857e-05
1.93993e-05
2.09674e-05
2.2479e-05
2.36976e-05
2.43841e-05
2.43579e-05
2.35814e-05
2.22027e-05
2.04056e-05
1.83451e-05
1.62184e-05
1.42269e-05
1.25386e-05
1.12846e-05
1.05936e-05
1.06689e-05
1.19032e-05
1.48936e-05
1.92683e-05
1.75141e-05
7.10086e-06
2.46043e-06
2.18134e-07
2.1056e-07