/*--------------------------------*- C++ -*----------------------------------*\
| =========                 |                                                 |
| \\      /  F ield         | OpenFOAM: The Open Source CFD Toolbox           |
|  \\    /   O peration     | Version:  v2006                                 |
|   \\  /    A nd           | Website:  www.openfoam.com                      |
|    \\/     M anipulation  |                                                 |
\*---------------------------------------------------------------------------*/
FoamFile
{
    version     2.0;
    format      ascii;
    class       volScalarField;
    location    "84";
    object      alphat;
}
// * * * * * * * * * * * * * * * * * * * * * * * * * * * * * * * * * * * * * //

dimensions      [1 -1 -1 0 0 0 0];


internalField   nonuniform List<scalar> 
78750
(
3.13614e-06
7.47699e-05
0.00027251
0.000386219
0.0007325
0.00069111
0.000785244
0.000776839
0.000743094
0.000795322
0.000657415
0.00073682
0.000980461
0.000568246
0.000704001
0.000679435
0.000496127
0.000641785
0.000426436
0.000550027
0.000369982
0.000493388
0.000352892
0.000432404
0.000325529
0.000380344
0.000297386
0.000326296
0.000249665
0.000282667
0.000160889
0.000270344
1.75726e-05
0.000227072
0.00014329
5.53496e-06
4.77435e-06
7.24923e-07
2.40084e-06
2.34167e-05
5.16086e-05
3.9799e-05
5.32933e-05
4.10733e-05
2.76441e-05
1.00005e-05
2.29719e-05
2.06074e-05
1.0795e-05
7.2354e-05
4.88804e-05
6.76221e-05
0.000129752
0.000112181
9.24359e-05
0.000118063
0.00026026
0.000217732
0.00037484
0.000297545
0.000453948
0.000382344
0.000404757
0.000334681
0.000329708
0.00021049
0.000246688
0.000414429
0.000170478
5.56006e-05
3.43076e-05
7.29766e-05
6.64904e-05
0.000108337
0.000138397
0.000109271
9.89259e-05
7.65568e-05
5.09863e-05
3.40011e-05
2.77941e-05
1.49058e-05
8.65354e-06
5.63668e-06
1.21978e-05
1.28444e-05
3.23758e-05
1.53869e-05
4.3662e-05
7.66779e-05
3.0978e-05
0.000134446
0.000139664
7.03507e-05
0.000147233
0.00039739
0.000107604
0.000226341
0.000214476
0.000180107
0.000123829
0.000197992
0.000596329
0.000197766
8.29702e-05
5.26012e-05
0.000202599
0.000160176
0.000147311
0.000143713
0.000154819
0.000253665
3.06648e-05
1.63824e-05
2.85018e-05
2.4288e-05
2.01537e-05
2.40354e-05
2.62618e-05
3.4018e-05
5.2581e-05
5.38044e-05
0.000109291
0.000179997
6.04111e-05
9.20259e-05
4.71173e-05
5.80539e-05
7.02326e-05
4.4706e-05
4.81678e-05
0.000117047
0.000126176
7.71862e-05
0.000138157
0.000280234
0.000262611
0.000446701
0.000270135
8.9442e-05
5.29965e-05
0.00016106
0.000155078
0.000149954
2.86459e-05
4.81872e-05
3.07169e-05
3.73913e-05
4.68655e-05
2.76028e-05
2.55979e-05
3.99126e-05
4.52842e-05
4.28552e-05
5.19799e-05
5.31003e-05
6.19514e-05
5.94267e-05
6.30527e-05
6.36459e-05
5.28943e-05
5.10827e-05
4.22514e-05
3.4795e-05
3.02973e-05
1.7889e-05
1.69788e-05
2.26002e-05
1.66714e-05
4.05376e-05
6.27944e-05
6.56081e-05
0.000183986
0.000159306
3.50222e-05
1.26147e-05
2.04098e-05
1.41846e-05
5.55242e-05
4.03278e-05
2.82555e-05
3.55686e-05
4.38546e-05
0.000125038
7.52336e-05
7.01421e-05
0.000103709
7.38817e-05
8.03674e-05
8.56067e-05
8.30655e-05
8.3094e-05
8.075e-05
7.58234e-05
7.05688e-05
6.57045e-05
5.84666e-05
5.43976e-05
4.73763e-05
4.05232e-05
3.49069e-05
2.77198e-05
2.21915e-05
2.17321e-05
1.56658e-05
1.74706e-05
1.78378e-05
3.16275e-05
5.37957e-05
1.65252e-05
2.07593e-05
1.43203e-05
9.65606e-06
3.09882e-05
1.91659e-05
5.59621e-06
1.99874e-05
7.31113e-05
0.000100488
0.000126159
7.57391e-05
5.50231e-05
5.97753e-05
9.13811e-05
0.000122344
0.000149531
0.000162631
0.000172195
0.000175247
0.000174023
0.000177068
0.000174137
0.000151461
9.23423e-05
3.79603e-05
2.1017e-05
2.12619e-05
4.04645e-05
2.82612e-05
2.42328e-05
1.48265e-05
9.46613e-06
9.14567e-06
1.76415e-05
8.7608e-06
2.59528e-05
8.63473e-05
0.000222534
8.31945e-05
1.94263e-05
6.02325e-05
2.5812e-05
5.92801e-05
0.000110169
0.000188838
0.00012399
7.14447e-05
5.22821e-05
5.8517e-05
8.56724e-05
0.000135682
0.000186064
0.000218581
0.000231502
0.000227803
0.000201899
0.000164525
0.000133919
5.00049e-05
1.82696e-05
1.3664e-05
3.04675e-05
4.4923e-05
5.78493e-05
8.20525e-05
8.54256e-05
5.83436e-05
5.34063e-05
3.04173e-05
7.86126e-06
3.46333e-05
7.80479e-05
5.55165e-05
0.000212037
0.000423366
0.000261495
0.000295449
0.000337503
0.000207553
0.000152233
0.00010486
8.62928e-05
8.85214e-05
0.000112052
0.000144672
0.00017264
0.000186877
0.000189003
0.000173429
0.000145464
0.000135628
0.000154712
0.000132144
3.01446e-05
1.30778e-05
1.58389e-05
5.66486e-05
3.07284e-05
2.42924e-05
1.91828e-05
1.89708e-05
1.8847e-05
1.59731e-05
1.79041e-05
8.75801e-06
4.4467e-05
0.000423247
0.000106416
6.24977e-06
9.0046e-06
8.92155e-05
0.000176267
0.000232282
0.000302512
0.000396196
0.000386454
0.000376906
0.000361603
0.000380364
0.000415457
0.000443429
0.000441512
0.000406553
0.00035362
0.000299881
0.000239171
0.000184942
0.000160118
0.000128409
0.000184381
0.000401364
0.00028115
0.000119083
9.68756e-05
0.000139168
4.76294e-05
2.09583e-05
2.33003e-05
1.4784e-05
5.84222e-06
4.43764e-05
0.000188186
0.000349213
0.000246637
3.51277e-05
1.20054e-05
1.87532e-05
5.29573e-05
0.000114532
0.000226146
0.000364349
0.000467672
0.000512811
0.000512113
0.00047058
0.000400198
0.000325773
0.00026044
0.000209374
0.000175306
0.000152486
0.000134342
0.000123533
0.000126635
0.000121348
7.4585e-05
4.55559e-05
4.30881e-05
5.93366e-05
1.17754e-05
1.03648e-05
2.101e-05
2.51246e-05
2.64568e-05
7.86833e-06
3.19172e-05
8.25511e-05
0.000209947
0.000393535
0.000338593
0.000240699
0.000203744
0.000217477
0.000240738
0.000270433
0.000300914
0.000328116
0.000347516
0.000356904
0.000355723
0.000344272
0.000322248
0.000290331
0.000252614
0.000213265
0.000173589
0.000137657
0.000115041
9.75021e-05
7.59842e-05
7.02302e-05
4.57731e-05
1.87568e-05
1.87715e-05
2.52451e-05
3.30048e-05
1.66556e-05
1.58255e-05
1.94127e-05
7.81232e-06
2.95599e-05
7.50926e-05
0.000163234
0.000225148
0.00023853
0.000234288
0.00022376
0.000217162
0.000212247
0.000209251
0.00020771
0.000206542
0.000204738
0.00020113
0.000194946
0.000186025
0.000173027
0.000154488
0.00013189
0.000107966
8.77659e-05
7.65785e-05
7.1144e-05
4.16308e-05
2.3964e-05
2.23348e-05
2.67415e-05
3.65008e-05
5.08437e-05
5.751e-05
5.66725e-05
3.8386e-05
1.98268e-05
2.38564e-05
8.51332e-06
1.23751e-05
8.53219e-05
9.48459e-05
0.000101309
0.000103125
0.000102679
0.00010097
9.96428e-05
9.90152e-05
9.93249e-05
0.00010064
0.000102663
0.000104792
0.000106602
0.00010914
0.000114147
0.000118911
0.000109794
8.33534e-05
5.76957e-05
4.03314e-05
3.08712e-05
2.73181e-05
2.85718e-05
3.48914e-05
4.55854e-05
5.65257e-05
6.39703e-05
6.72473e-05
6.85912e-05
6.78221e-05
4.22347e-05
1.7921e-05
2.61392e-05
8.24603e-06
8.84128e-06
4.70379e-05
5.31263e-05
5.15846e-05
4.99672e-05
5.02232e-05
5.26855e-05
5.80696e-05
6.75662e-05
8.33582e-05
0.000108353
0.00013379
0.000132575
0.000109185
8.77052e-05
7.3852e-05
6.57967e-05
6.1649e-05
6.00703e-05
6.00206e-05
6.11577e-05
6.38971e-05
6.88303e-05
7.582e-05
8.31204e-05
8.81871e-05
8.96851e-05
8.73722e-05
8.18255e-05
7.28922e-05
5.69118e-05
3.15095e-05
1.87986e-05
4.18103e-05
6.67708e-06
1.02485e-05
4.88138e-05
7.82768e-05
8.66504e-05
8.88715e-05
8.95238e-05
8.63728e-05
8.02431e-05
7.67767e-05
7.73075e-05
8.29444e-05
9.85958e-05
0.000127689
0.000157004
0.000167269
0.000163035
0.000155825
0.000151003
0.000149272
0.000149901
0.00015223
0.000155971
0.000160905
0.000166109
0.00016928
0.000167471
0.000159119
0.000145352
0.000129128
0.000112195
9.1799e-05
6.59048e-05
4.9223e-05
6.00516e-05
4.06416e-06
1.2462e-05
6.43295e-05
0.000132609
0.00014298
0.000124747
9.01203e-05
6.69305e-05
6.10876e-05
6.5031e-05
6.96947e-05
7.26809e-05
7.94938e-05
9.49094e-05
0.000119292
0.00014918
0.000180486
0.000209376
0.000232277
0.000248827
0.000261697
0.000267075
0.000263937
0.000260725
0.000257477
0.000254226
0.000250995
0.000247751
0.000238578
0.000200864
0.000158917
0.000123219
9.44029e-05
7.32285e-05
8.0626e-05
3.63051e-06
1.18806e-05
7.84852e-05
0.000172296
0.000163263
0.000117817
7.69649e-05
5.68867e-05
5.19474e-05
5.62463e-05
6.35892e-05
6.90204e-05
7.43759e-05
8.44598e-05
0.00010169
0.000125379
0.000152517
0.000178709
0.000200266
0.000215857
0.000226029
0.000231779
0.000233596
0.000231072
0.000223393
0.000209516
0.000187174
0.000155428
0.00012701
0.000114838
0.000114539
0.000113318
7.36983e-05
4.47343e-05
5.77635e-05
4.2972e-06
1.09735e-05
7.01008e-05
0.000174787
0.000173549
0.000134981
9.24054e-05
6.4464e-05
5.12905e-05
4.90725e-05
5.49717e-05
6.52826e-05
7.55711e-05
8.49175e-05
9.62297e-05
0.000112447
0.000134911
0.000162114
0.000188631
0.000208382
0.000219836
0.000224356
0.000222765
0.000214861
0.000199688
0.000172408
0.000122559
7.50034e-05
5.72306e-05
6.04446e-05
5.30143e-05
4.33919e-05
4.32074e-05
4.56271e-05
8.169e-05
4.71249e-06
1.04097e-05
5.98394e-05
0.000169358
0.000195179
0.000174272
0.000134185
9.33764e-05
6.47991e-05
4.93159e-05
4.41406e-05
4.75154e-05
5.82609e-05
7.42142e-05
9.24722e-05
0.000112188
0.000136899
0.000174122
0.000226715
0.00026702
0.000261805
0.000255998
0.000249705
0.000243078
0.000236335
0.000178178
9.76558e-05
5.00985e-05
3.29936e-05
2.65482e-05
2.09565e-05
2.3295e-05
3.57266e-05
6.32593e-05
5.35213e-05
4.76015e-06
1.03893e-05
5.69457e-05
0.000173794
0.000202353
0.00017396
0.000133767
0.000105357
8.77643e-05
7.17377e-05
5.74785e-05
5.01217e-05
5.16222e-05
6.22755e-05
8.15413e-05
0.000107445
0.000137736
0.000173444
0.000220047
0.000271282
0.000265799
0.000259555
0.00025265
0.000245244
0.000237573
0.000199909
0.000134061
8.40341e-05
5.65421e-05
4.0875e-05
2.79502e-05
2.21522e-05
2.41359e-05
3.51563e-05
2.97156e-05
3.5286e-06
1.0565e-05
5.86905e-05
0.00017715
0.000209334
0.000181287
0.000131468
9.60157e-05
8.31186e-05
8.21172e-05
7.75472e-05
6.51438e-05
5.52484e-05
5.37338e-05
6.14332e-05
7.81391e-05
0.000103442
0.000136791
0.000176937
0.000219432
0.000253871
0.000265048
0.000259622
0.000253402
0.000246595
0.000233459
0.000201624
0.000165753
0.000133676
0.000107867
8.02842e-05
5.16308e-05
3.44295e-05
3.04044e-05
3.69064e-05
2.50645e-06
1.07982e-05
6.15627e-05
0.000180378
0.000212715
0.000192044
0.000144778
0.000100978
8.05414e-05
8.0264e-05
9.06445e-05
9.44632e-05
8.25126e-05
6.84157e-05
6.28728e-05
6.75684e-05
8.17059e-05
0.000104119
0.000133596
0.000168018
0.000201921
0.000227421
0.000240632
0.000244027
0.000241772
0.000236048
0.000227051
0.000214372
0.000197805
0.000177896
0.000154151
0.000121303
8.0487e-05
5.41049e-05
6.05523e-05
2.16876e-06
1.08627e-05
6.30052e-05
0.000180657
0.000213622
0.000198996
0.000161538
0.00011653
8.55902e-05
7.55866e-05
8.26442e-05
9.87736e-05
0.000106701
9.49693e-05
7.70599e-05
6.71882e-05
6.87542e-05
8.21825e-05
0.000108181
0.00014586
0.000188262
0.000222859
0.000242107
0.000248446
0.000247508
0.00024249
0.000233947
0.000221643
0.000205284
0.000184815
0.000160448
0.000128566
8.33319e-05
5.01683e-05
5.10307e-05
2.44635e-06
1.11072e-05
6.85705e-05
0.000193071
0.000220664
0.000206595
0.000173872
0.000133751
9.92826e-05
8.03898e-05
7.95317e-05
9.59053e-05
0.000123782
0.000141813
0.000128617
9.94826e-05
7.9102e-05
7.35258e-05
8.23332e-05
0.00010635
0.00014562
0.000192469
0.000230925
0.000251302
0.000256806
0.000253558
0.000244936
0.000229848
0.00020905
0.000183337
0.000152962
0.000113163
6.37983e-05
3.8499e-05
4.73695e-05
2.63812e-06
1.08167e-05
6.44063e-05
0.000187397
0.000223429
0.0002159
0.000191741
0.000156958
0.000117434
8.54965e-05
7.03343e-05
7.25919e-05
9.1655e-05
0.000125253
0.000157686
0.000159671
0.00012883
9.78981e-05
8.43225e-05
8.97316e-05
0.000115415
0.000160699
0.000211015
0.000244427
0.000256226
0.00025302
0.000245085
0.000228928
0.000206656
0.000178848
0.000144915
0.000101354
5.66608e-05
3.76162e-05
5.36703e-05
2.55409e-06
1.08965e-05
6.43419e-05
0.000194961
0.000232155
0.000221237
0.000195722
0.000166082
0.00013555
0.000105069
8.174e-05
7.33769e-05
8.22489e-05
0.000109365
0.000152466
0.000194331
0.000202184
0.000165225
0.000120076
9.53211e-05
9.39073e-05
0.000115641
0.000159505
0.000209085
0.000239055
0.000245492
0.000237761
0.000222031
0.000200724
0.000174492
0.000142703
0.000103096
6.21345e-05
4.28419e-05
5.71926e-05
2.37129e-06
1.10223e-05
6.50707e-05
0.000201994
0.000236194
0.000219393
0.000187834
0.000155498
0.000128143
0.000104557
8.47806e-05
7.42347e-05
7.78566e-05
9.89618e-05
0.000141111
0.000201464
0.000256294
0.000264634
0.000214302
0.000151033
0.000114047
0.000107201
0.000128262
0.000173716
0.000221513
0.000243787
0.000241107
0.000225569
0.000203538
0.00017683
0.000145246
0.000107017
6.70989e-05
4.67229e-05
5.81966e-05
2.40815e-06
1.14787e-05
7.39555e-05
0.000213255
0.000233743
0.00021105
0.000174396
0.000140609
0.000117697
0.000104159
9.5662e-05
9.10966e-05
9.43324e-05
0.000109985
0.000140551
0.000184385
0.000231327
0.000260293
0.000249745
0.000202884
0.000151776
0.000122083
0.000119381
0.000143457
0.000187203
0.000225266
0.000237116
0.000227754
0.000207264
0.000180099
0.000146915
0.000106264
6.50691e-05
4.57046e-05
5.81719e-05
2.59096e-06
1.12949e-05
7.40124e-05
0.000210937
0.000228892
0.000203937
0.000165305
0.000130624
0.000106675
9.25023e-05
8.62731e-05
8.76208e-05
9.76467e-05
0.000118117
0.000149926
0.000190975
0.000233748
0.000264108
0.000266039
0.000235286
0.000188585
0.000150388
0.00013415
0.000143016
0.000174203
0.000210884
0.000228849
0.000223383
0.000203221
0.000174264
0.000137794
9.45375e-05
5.72673e-05
4.38404e-05
6.02593e-05
2.75961e-06
1.11373e-05
7.14653e-05
0.000215458
0.000239882
0.000210576
0.000170277
0.000140169
0.000121828
0.000108819
9.74436e-05
8.97109e-05
9.00824e-05
0.000101978
0.000126768
0.000162991
0.00020476
0.000240528
0.000255866
0.000243232
0.000210876
0.000177463
0.000158288
0.00016011
0.000182557
0.00021334
0.000230264
0.000224194
0.000201639
0.000169097
0.000129069
8.5846e-05
5.41144e-05
4.55417e-05
6.12961e-05
2.77072e-06
1.12307e-05
7.02495e-05
0.000217127
0.000234199
0.000189998
0.000143332
0.000117675
0.000108653
0.000106093
0.000101927
9.49282e-05
9.14028e-05
9.89123e-05
0.00012198
0.000160503
0.000207206
0.000247481
0.000266375
0.000259293
0.000235471
0.000210476
0.000196818
0.000200355
0.000218989
0.000239635
0.000245154
0.000230804
0.000202289
0.000165012
0.000122566
8.2034e-05
5.59875e-05
5.13148e-05
5.94837e-05
2.69863e-06
1.15656e-05
7.48677e-05
0.000220167
0.000218721
0.000162613
0.00011863
0.000101713
0.000102468
0.000110625
0.000114858
0.000107879
9.64597e-05
9.37738e-05
0.000107559
0.000139329
0.000182762
0.000223996
0.000250012
0.000257314
0.000252097
0.000244051
0.000240859
0.000245527
0.000254799
0.000259975
0.000253075
0.000232593
0.000201378
0.000162904
0.00012144
8.46633e-05
6.25235e-05
5.99311e-05
5.75475e-05
2.581e-06
1.15323e-05
7.57941e-05
0.000218024
0.0001924
0.000127118
9.1794e-05
8.27167e-05
8.70106e-05
9.77389e-05
0.000109404
0.000113911
0.000107615
0.000100691
0.000106778
0.000132681
0.000175893
0.000223392
0.000260099
0.000279141
0.000282913
0.000278207
0.000271457
0.000266146
0.000262044
0.0002561
0.000244664
0.00022552
0.00019838
0.000164599
0.000127466
9.37611e-05
7.2777e-05
6.95124e-05
6.08029e-05
2.62962e-06
1.13663e-05
7.22108e-05
0.000214995
0.000171868
0.000104956
7.99985e-05
8.09636e-05
9.17446e-05
0.00010129
0.000106747
0.000108881
0.00010669
0.000102026
0.000103676
0.000121256
0.000159024
0.000210261
0.00025766
0.000286875
0.000296436
0.000293209
0.000284238
0.000273403
0.000261944
0.000249716
0.000235923
0.000219226
0.000198052
0.000171221
0.000138714
0.000104075
7.7597e-05
6.98393e-05
6.83644e-05
3.02389e-06
1.11681e-05
6.4304e-05
0.000197369
0.000149664
8.30572e-05
6.28112e-05
6.79815e-05
8.38856e-05
9.70167e-05
0.000102191
0.000104037
0.000106603
0.000109849
0.000115409
0.000130351
0.000162288
0.00021147
0.000264739
0.000302747
0.0003171
0.000313405
0.000300518
0.000283911
0.000265819
0.000247091
0.000228226
0.000209309
0.000189558
0.000166621
0.000136595
9.94204e-05
6.94631e-05
6.21931e-05
6.98921e-05
3.68429e-06
1.13132e-05
6.24412e-05
0.000180651
0.000130998
6.92415e-05
5.20221e-05
5.9556e-05
8.11454e-05
0.000101077
0.00010649
0.000102884
0.000101832
0.000108662
0.000123401
0.000145699
0.000177083
0.000217499
0.000260251
0.000293572
0.000309518
0.000308979
0.000297493
0.000279889
0.000258913
0.000236196
0.000213058
0.000190212
0.000166697
0.000139085
0.000105628
7.45467e-05
5.79528e-05
6.16327e-05
6.24594e-05
4.18889e-06
1.11632e-05
5.74514e-05
0.000163695
0.000122111
6.32966e-05
4.44061e-05
4.86372e-05
6.86972e-05
9.61452e-05
0.000114889
0.000117448
0.000112976
0.000113589
0.00012463
0.000146063
0.000176366
0.000214183
0.00025592
0.000293132
0.000316007
0.000320664
0.000310006
0.00028871
0.000260319
0.000227157
0.000190652
0.000152422
0.000116644
8.89406e-05
7.0818e-05
6.05407e-05
5.97366e-05
7.35429e-05
4.26161e-05
4.08702e-06
1.13631e-05
5.79302e-05
0.000161092
0.000129051
6.88566e-05
4.46785e-05
4.44526e-05
6.02315e-05
8.72279e-05
0.000114004
0.000126814
0.000123375
0.000115012
0.00011413
0.000126607
0.000153366
0.000192636
0.000240454
0.000288597
0.000322319
0.000324319
0.000322762
0.000308663
0.000273622
0.00022695
0.000173626
0.000120869
8.02603e-05
5.8263e-05
5.18365e-05
5.55245e-05
6.62643e-05
7.87158e-05
2.82949e-05
3.6457e-06
1.1434e-05
5.94017e-05
0.000159045
0.000130948
7.29135e-05
4.47219e-05
4.01564e-05
5.1064e-05
7.42631e-05
0.000103385
0.000127365
0.000136904
0.000132209
0.000123817
0.000123483
0.000137455
0.000167168
0.000209737
0.000256758
0.000295573
0.00031606
0.000315726
0.000296982
0.000263185
0.000217166
0.000162686
0.000108745
6.82323e-05
4.66855e-05
4.12042e-05
4.84022e-05
6.37087e-05
6.82758e-05
2.1609e-05
3.33848e-06
1.17377e-05
6.67384e-05
0.000164217
0.000145558
9.44288e-05
5.71768e-05
4.35178e-05
4.6443e-05
6.12871e-05
8.30705e-05
0.000104495
0.000119031
0.000124285
0.000122757
0.000120763
0.000125028
0.000139797
0.000165829
0.000199583
0.000232911
0.00025637
0.000264573
0.000257365
0.000236768
0.000204527
0.000162403
0.000115508
7.45194e-05
4.85397e-05
3.82032e-05
4.13374e-05
5.55851e-05
6.1575e-05
2.04242e-05
3.31876e-06
1.15267e-05
6.79736e-05
0.000168137
0.00016726
0.000130356
8.26737e-05
5.24939e-05
4.28241e-05
4.75279e-05
6.29935e-05
8.51975e-05
0.000106381
0.000118921
0.000121668
0.000119531
0.000118826
0.000124036
0.000137068
0.00015715
0.000180609
0.000201587
0.000214679
0.000217301
0.000209461
0.000191977
0.000165398
0.000130894
9.34571e-05
6.26239e-05
4.51028e-05
4.17195e-05
5.23242e-05
6.52165e-05
2.36588e-05
3.49707e-06
1.15522e-05
6.97786e-05
0.000177372
0.000194282
0.00018025
0.000141716
8.87315e-05
5.49016e-05
4.27785e-05
4.41745e-05
5.53478e-05
7.40957e-05
9.51314e-05
0.000110665
0.000116956
0.000117296
0.000117655
0.000122238
0.000132344
0.000146796
0.000162607
0.000176097
0.000184269
0.000185553
0.000179456
0.000165718
0.000144004
0.000115207
8.43483e-05
6.03522e-05
4.96567e-05
5.49836e-05
7.42441e-05
3.11623e-05
3.81085e-06
1.12635e-05
6.87255e-05
0.000186502
0.000212069
0.000206325
0.000189509
0.000155282
0.000103229
6.42284e-05
4.69332e-05
4.37213e-05
5.02899e-05
6.50684e-05
8.4761e-05
0.000102646
0.000113304
0.000117406
0.000119481
0.000123396
0.0001305
0.000139954
0.000149683
0.000157467
0.000161754
0.000161681
0.000156399
0.000144617
0.000125277
9.97006e-05
7.45151e-05
5.93029e-05
6.06323e-05
8.11616e-05
3.91217e-05
4.13031e-06
1.13075e-05
7.01025e-05
0.000198957
0.000230864
0.000227544
0.000216324
0.000202013
0.000175008
0.000125424
7.94594e-05
5.47219e-05
4.57646e-05
4.73262e-05
5.75784e-05
7.44068e-05
9.25481e-05
0.000106082
0.000113454
0.000117271
0.000120633
0.000125071
0.000130387
0.000135251
0.000138165
0.000138381
0.000135754
0.000129295
0.000116832
9.78312e-05
7.72586e-05
6.42598e-05
6.68461e-05
8.82997e-05
4.13558e-05
4.29084e-06
1.10189e-05
6.7006e-05
0.000200281
0.000236957
0.00022941
0.000212848
0.000201714
0.000199105
0.000192506
0.000157536
0.000104432
6.80025e-05
5.11573e-05
4.73103e-05
5.34973e-05
6.80995e-05
8.69649e-05
0.000103463
0.000113489
0.000117553
0.000118296
0.000118152
0.000118128
0.000117375
0.000114379
0.000109205
0.000103533
9.74799e-05
8.86219e-05
7.74928e-05
7.10782e-05
7.82018e-05
9.909e-05
3.94817e-05
4.26627e-06
1.11995e-05
6.72206e-05
0.000202147
0.000240373
0.000228203
0.000201832
0.000180052
0.000173511
0.000182802
0.000197217
0.000188306
0.000138541
8.79155e-05
6.01505e-05
4.98625e-05
5.17779e-05
6.36861e-05
8.20741e-05
0.000100093
0.000111426
0.000114127
0.00011041
0.000104549
9.95951e-05
9.51194e-05
8.8918e-05
8.16001e-05
7.68826e-05
7.61612e-05
7.74232e-05
8.15931e-05
9.44662e-05
0.000109543
3.82098e-05
4.27872e-06
1.13813e-05
7.10227e-05
0.000211774
0.000246694
0.000227845
0.000195484
0.000169775
0.000159072
0.000164881
0.000186215
0.000214862
0.00022475
0.000182004
0.000114513
7.2162e-05
5.47228e-05
5.33139e-05
6.40977e-05
8.316e-05
0.00010247
0.000113052
0.000111011
9.96568e-05
8.66668e-05
7.77434e-05
7.26841e-05
6.79444e-05
6.34495e-05
6.33904e-05
7.03832e-05
8.42083e-05
0.0001021
0.000107836
3.44153e-05
4.30404e-06
1.18757e-05
7.97537e-05
0.000230963
0.000251191
0.000217832
0.000180823
0.000160596
0.000156151
0.000162716
0.000179438
0.000206674
0.000238042
0.000251788
0.000213871
0.000136411
8.20188e-05
5.90163e-05
5.60509e-05
6.72988e-05
8.74152e-05
0.000106392
0.000113209
0.000103859
8.43924e-05
6.60679e-05
5.60376e-05
5.3625e-05
5.43106e-05
5.64035e-05
6.34408e-05
7.89282e-05
9.84169e-05
9.77157e-05
2.88929e-05
4.17529e-06
1.21704e-05
9.14343e-05
0.000240151
0.000228943
0.000178362
0.000145994
0.000141791
0.00015748
0.00018265
0.000208884
0.000233868
0.000258241
0.000277127
0.000273483
0.000223439
0.000142152
8.56807e-05
6.23803e-05
6.11504e-05
7.51337e-05
9.63846e-05
0.000111826
0.000110502
9.21288e-05
6.69652e-05
4.78372e-05
4.00585e-05
4.20117e-05
5.03279e-05
6.27112e-05
7.96211e-05
9.67551e-05
8.8361e-05
2.46032e-05
3.85039e-06
1.22277e-05
9.99804e-05
0.000232018
0.000198135
0.000146844
0.000124822
0.000131538
0.000158963
0.000197148
0.000234191
0.000262511
0.000281203
0.000291203
0.000288445
0.000261018
0.000200875
0.000130178
8.41673e-05
6.64926e-05
6.94254e-05
8.58571e-05
0.000104785
0.000112534
0.000102497
7.88506e-05
5.32983e-05
3.66311e-05
3.15258e-05
3.6962e-05
5.28472e-05
7.57874e-05
9.22709e-05
7.73952e-05
2.17625e-05
3.50606e-06
1.17987e-05
9.81559e-05
0.00021716
0.000178318
0.000134299
0.000119612
0.000130578
0.000160053
0.000199613
0.000239136
0.000270711
0.000290511
0.00029712
0.000289065
0.000263508
0.000219163
0.000163586
0.00011437
8.52069e-05
7.6883e-05
8.48906e-05
0.000101109
0.000113355
0.000112415
9.70987e-05
7.26597e-05
4.8808e-05
3.3817e-05
2.96767e-05
3.66988e-05
5.66719e-05
7.81722e-05
6.80636e-05
2.05706e-05
3.35318e-06
1.13598e-05
8.71854e-05
0.000210519
0.000185829
0.000144086
0.000120606
0.000118693
0.00013428
0.000163296
0.000199817
0.000235986
0.000264468
0.000279666
0.000277411
0.000255985
0.000218875
0.000175473
0.000136647
0.000109744
9.75126e-05
9.90191e-05
0.000109441
0.000120098
0.000123305
0.000116222
9.95673e-05
7.6591e-05
5.41778e-05
3.95094e-05
3.56498e-05
4.45299e-05
6.66814e-05
7.38367e-05
2.32851e-05
3.57929e-06
1.09696e-05
7.48951e-05
0.000194123
0.000190337
0.000155541
0.000120093
0.000102119
0.000103319
0.000121004
0.000151905
0.000189906
0.000225718
0.000249896
0.00025585
0.000241958
0.000213379
0.000180517
0.000153126
0.00013599
0.000129391
0.000131071
0.000136756
0.000141242
0.000141171
0.000135716
0.000124762
0.000107823
8.59032e-05
6.41101e-05
4.9638e-05
4.76267e-05
6.34888e-05
9.03892e-05
2.99778e-05
4.03375e-06
1.08127e-05
6.8918e-05
0.000185047
0.000190541
0.000162409
0.000124441
9.61736e-05
8.55751e-05
9.15092e-05
0.000111989
0.000143899
0.0001799
0.000209218
0.000223186
0.000220092
0.000205548
0.000188455
0.000175664
0.000169262
0.000167321
0.00016625
0.000163379
0.000158231
0.000151857
0.000144966
0.000136475
0.000123562
0.000104167
8.1178e-05
6.30668e-05
5.86448e-05
7.63583e-05
0.000110723
3.46493e-05
4.15838e-06
1.07518e-05
6.94602e-05
0.000195026
0.000202505
0.000173417
0.000136026
0.00010432
8.49637e-05
7.94884e-05
8.74698e-05
0.000107901
0.000137132
0.000167287
0.000190272
0.000203078
0.000207809
0.00020808
0.000205884
0.00020071
0.00019094
0.000176537
0.000160521
0.000147159
0.000138767
0.000134446
0.000130615
0.000122555
0.000107979
9.04525e-05
7.8347e-05
8.09436e-05
0.000105921
0.000126854
3.4523e-05
3.75262e-06
1.08152e-05
7.01811e-05
0.000207296
0.000214803
0.000179401
0.000142812
0.000116873
9.71787e-05
8.24594e-05
7.66877e-05
8.26446e-05
0.000101201
0.000130345
0.000163428
0.000192343
0.000212227
0.000221886
0.000222022
0.000213137
0.000194823
0.000168773
0.000141927
0.000123181
0.000116625
0.000119073
0.000122207
0.000119346
0.000110767
0.000101734
9.93972e-05
0.00011071
0.000134247
0.000129681
3.33867e-05
3.30168e-06
1.08568e-05
6.54114e-05
0.000195024
0.000203494
0.000162939
0.000125584
0.000109206
0.000105959
0.000100578
8.77005e-05
7.80142e-05
8.01704e-05
9.72877e-05
0.000128897
0.000167679
0.00020189
0.000224407
0.000234091
0.000231034
0.000214106
0.000183304
0.000145061
0.000112335
9.527e-05
9.58115e-05
0.000108688
0.000120759
0.000122728
0.000120457
0.000123692
0.000136748
0.00015071
0.000129551
3.31978e-05
3.07459e-06
1.09676e-05
6.15475e-05
0.000179513
0.000188652
0.000148345
0.00010756
8.92455e-05
9.08958e-05
0.000103465
0.000109975
9.85198e-05
8.42611e-05
8.30077e-05
9.94029e-05
0.000133522
0.000178139
0.000219116
0.000245706
0.000254788
0.000246392
0.000220766
0.000180536
0.000135245
9.93192e-05
8.14365e-05
8.21073e-05
9.82368e-05
0.000120198
0.000135787
0.000146088
0.00015562
0.000158446
0.000128186
3.38567e-05
3.08729e-06
1.10084e-05
6.15067e-05
0.000178787
0.000184399
0.000143004
0.000101634
8.09943e-05
7.83696e-05
8.86258e-05
0.000104708
0.000112389
0.00010339
9.22056e-05
9.44681e-05
0.000115681
0.00015535
0.000204575
0.000247134
0.000270279
0.000270954
0.000252161
0.000218209
0.00017435
0.000129422
9.46374e-05
7.6447e-05
7.52858e-05
9.01109e-05
0.000116251
0.000140557
0.000153931
0.000153858
0.000123574
3.51228e-05
3.32672e-06
1.08766e-05
5.951e-05
0.000176186
0.000180228
0.000136375
9.59345e-05
7.74553e-05
7.48879e-05
8.15393e-05
9.26999e-05
0.000102756
0.000105832
0.000102827
0.00010313
0.000115839
0.00014473
0.000186654
0.000230176
0.00026069
0.00027028
0.000260372
0.000236274
0.000202648
0.000163531
0.000124713
9.38676e-05
7.65322e-05
7.43598e-05
8.7823e-05
0.000113957
0.0001379
0.000145264
0.000124245
3.81772e-05
3.81938e-06
1.07795e-05
5.57411e-05
0.000165542
0.000174712
0.00013292
9.01082e-05
7.04169e-05
6.86944e-05
7.70812e-05
8.872e-05
9.80799e-05
0.000102848
0.000104798
0.000108862
0.000120732
0.000144267
0.000179097
0.000218326
0.000250014
0.00026468
0.00026109
0.000243892
0.00021832
0.000187841
0.000154807
0.000122469
9.59658e-05
8.02481e-05
7.78049e-05
8.91272e-05
0.000110981
0.000130959
0.000127784
4.15019e-05
4.47234e-06
1.09123e-05
5.58632e-05
0.000163834
0.000176732
0.000138128
9.21837e-05
6.76711e-05
6.29418e-05
7.12573e-05
8.63807e-05
0.000100419
0.000107637
0.000109553
0.000112709
0.000123376
0.0001453
0.00017885
0.000218732
0.000253444
0.000271609
0.000269907
0.000253031
0.000227807
0.00019918
0.000169411
0.000139197
0.000110204
8.68127e-05
7.40549e-05
7.49338e-05
9.12968e-05
0.000118832
0.000128703
4.04236e-05
4.94029e-06
1.11139e-05
5.96167e-05
0.000173194
0.000182809
0.000141368
9.52252e-05
6.96489e-05
6.29698e-05
6.9764e-05
8.55884e-05
0.000103465
0.000115144
0.000118605
0.000120181
0.000128164
0.000148127
0.000181906
0.000225093
0.000264643
0.00028527
0.000281301
0.000258191
0.000224937
0.000188942
0.000154664
0.000123948
9.78848e-05
7.85461e-05
6.90149e-05
7.27004e-05
9.33641e-05
0.000125523
0.000128373
3.47344e-05
4.90134e-06
1.13447e-05
6.52453e-05
0.000185111
0.000184762
0.000136622
9.3168e-05
7.12003e-05
6.59727e-05
7.30962e-05
8.94114e-05
0.000108961
0.000123246
0.000128275
0.000129034
0.000134578
0.000152062
0.000184769
0.000229115
0.00027067
0.000290469
0.000280436
0.000246267
0.00019946
0.000153027
0.00011724
9.41881e-05
8.0082e-05
7.20532e-05
7.15559e-05
8.33251e-05
0.00011089
0.000139502
0.000119022
2.89386e-05
4.50743e-06
1.1663e-05
7.42255e-05
0.00019682
0.000177272
0.000123241
8.76532e-05
7.28125e-05
7.15458e-05
8.08378e-05
9.8505e-05
0.000119047
0.000134224
0.000139594
0.000139258
0.000142252
0.000156552
0.000186348
0.000228547
0.00026795
0.000283636
0.000266298
0.000222261
0.000166284
0.000116847
8.63425e-05
7.38818e-05
7.19745e-05
7.49339e-05
8.36751e-05
0.000103107
0.000131486
0.000147724
0.000106435
2.5402e-05
4.0993e-06
1.19384e-05
8.73086e-05
0.000201907
0.000154364
0.000102434
8.01787e-05
7.61906e-05
8.24455e-05
9.63819e-05
0.000115863
0.00013563
0.000148812
0.000152301
0.000150075
0.000150427
0.000161033
0.00018605
0.000222646
0.000256504
0.000267721
0.000247291
0.000201512
0.000145381
9.7319e-05
6.92022e-05
6.09554e-05
6.72626e-05
8.19152e-05
0.000101132
0.000125101
0.000147255
0.000151092
9.87951e-05
2.3996e-05
3.8543e-06
1.20135e-05
0.000100773
0.000190626
0.000124076
8.45726e-05
7.59512e-05
8.34673e-05
9.93552e-05
0.00011929
0.000139787
0.000156569
0.000165513
0.000165638
0.000161009
0.000158808
0.000165733
0.000185395
0.000215304
0.000243374
0.000252486
0.000234042
0.00019258
0.000140376
9.32028e-05
6.30275e-05
5.218e-05
5.87887e-05
8.10937e-05
0.00011147
0.000138198
0.000153555
0.000149147
9.32869e-05
2.33973e-05
3.7228e-06
1.19515e-05
0.00011263
0.000168112
0.00010052
7.5422e-05
7.84363e-05
9.65537e-05
0.000120916
0.000144831
0.000164622
0.000177963
0.000183062
0.000180219
0.00017334
0.000168726
0.000172259
0.00018709
0.000211244
0.000235042
0.000244145
0.000229998
0.000194764
0.000147389
0.000100447
6.60035e-05
4.90515e-05
4.9226e-05
6.74484e-05
0.000101776
0.000132723
0.000146312
0.000139272
8.59645e-05
2.24728e-05
3.62705e-06
1.18406e-05
0.000123822
0.00014582
8.66857e-05
7.30623e-05
8.59503e-05
0.000113224
0.000143347
0.000168873
0.000187635
0.000198919
0.000201946
0.00019734
0.000188687
0.000181785
0.000182151
0.000192786
0.000212262
0.000232887
0.000242608
0.000232943
0.000204002
0.000161846
0.000115798
7.69468e-05
5.28373e-05
4.47135e-05
5.26928e-05
7.85597e-05
0.00011151
0.000128729
0.00012386
7.6269e-05
2.07975e-05
3.49969e-06