/*--------------------------------*- C++ -*----------------------------------*\
| =========                 |                                                 |
| \\      /  F ield         | OpenFOAM: The Open Source CFD Toolbox           |
|  \\    /   O peration     | Version:  v2006                                 |
|   \\  /    A nd           | Website:  www.openfoam.com                      |
|    \\/     M anipulation  |                                                 |
\*---------------------------------------------------------------------------*/
FoamFile
{
    version     2.0;
    format      ascii;
    class       volScalarField;
    location    "84";
    object      T;
}
// * * * * * * * * * * * * * * * * * * * * * * * * * * * * * * * * * * * * * //

dimensions      [0 0 0 1 0 0 0];


internalField   nonuniform List<scalar> 
78750
(
192.773
172.507
157.359
147.369
142.562
139.623
140.145
140.953
144.952
147.485
151.659
156.252
158.468
164.72
167.654
171.537
173.741
176.465
177.566
178.735
180.407
179.672
180.555
180.411
179.824
180.571
179.22
179.222
179.033
173.63
176.329
161.761
141.357
186.049
224.457
218.954
314.598
279.071
287.044
275.371
255.225
285.164
247.2
288.773
236.758
286.895
244.66
224.772
259.069
204.489
216.718
205.14
202.172
184.216
205.086
179.261
181.42
178.111
177.984
179.09
179.919
182.096
187.363
192.256
197.563
208.757
226.457
239.394
245.838
133.572
437.596
395.79
280.157
206.66
192.33
203.275
223.691
269.51
287.446
339.892
346.58
373.975
334.199
338.969
291.609
281.289
263.085
245.813
215.674
243.324
199.64
201.695
183.236
181.342
163.641
165.411
159.293
148.4
157.109
162.396
168.227
191.109
202.169
168.03
78.4985
336.14
254.308
210.137
200.286
225.32
263.918
308.437
360.677
397.872
396.012
377.602
364.901
366.332
361.649
363.411
359.265
356.344
352.281
345.62
340.509
330.092
317.228
298.775
277.646
262.051
228.693
206.633
191.153
175.223
134.422
143.596
134.764
126.075
96.6031
75.5493
245.801
245.396
239.302
276.605
308.63
314.363
314.847
325.095
319.827
324.895
318.923
319.164
319.965
321.176
321.655
326.672
327.515
334.413
338.258
345.148
349.961
355.192
357.331
354.786
352.725
335.53
323.566
297.234
280.147
223.908
231.096
203.596
176.241
170.101
173.114
250.244
342.302
309.73
331.901
321.434
317.442
332.46
342.125
334.748
333.202
338.181
333.575
335.392
333.485
331.918
330.65
328.488
327.107
325.914
325.077
325.236
325.763
327.614
329.813
333.79
340.484
348.961
352.027
348.277
341.265
327.773
307.777
281.943
271.302
294.279
221.629
320.626
315.439
342.733
364.949
364.218
360.977
353.428
345.942
340.576
340.541
340.327
339.042
335.918
333.082
330.889
328.788
326.544
323.98
320.781
316.655
311.144
303.747
292.821
280.21
281.498
302.258
322.641
337.798
352.753
370.037
375.134
382.451
376.526
376.498
253.17
317.61
308.306
317.566
328.156
327.069
329.837
330.554
330.758
329.83
329.486
331.604
336.447
340.776
340.65
337.804
334.351
331.091
328.12
325.393
322.865
320.673
320.159
323.594
335.172
349.131
354.754
351.189
348.249
347.647
348.066
350.192
348.991
357.861
378.684
226.098
344.375
355.783
315.981
293.045
286.461
279.161
273.937
274.211
278.244
284.87
293.655
302.664
309.871
314.135
316.467
317.523
317.55
316.669
314.994
312.729
310.241
306.941
301.507
294.464
298.804
312.823
325.042
328.775
326.068
319.937
314.263
316.739
325.282
359.169
171.188
245.455
297.175
350.571
337.834
316.651
313.736
310.609
309.21
306.203
301.405
294.584
286.529
279.262
274.152
270.846
268.656
267.251
266.588
266.611
267.104
267.751
269.281
271.772
274.421
277.02
280.264
285.808
291.136
305.115
336.359
347.762
328.015
325.69
365.173
177.152
205.846
246.401
286.338
310.655
317.718
319.088
318.822
319.657
320.607
320.42
318.698
315.523
310.964
304.954
297.372
288.584
279.674
272.061
267.379
266.02
267.931
272.983
279.558
287.069
295.967
308.434
327.315
348.385
359.848
360.409
348.776
332.859
324.763
355.439
245.716
215.589
227.233
244.592
258.675
267.875
273.206
275.98
277.504
278.523
279.387
280.207
280.965
281.582
281.914
281.764
281.075
280.063
279.18
279.151
281.077
285.998
293.912
304.646
317.83
332.759
344.357
347.505
345.332
344.827
348.911
346.833
338.182
338.984
370.311
288.645
252.567
247.937
249.476
252.666
255.89
258.846
261.619
264.377
267.278
270.401
273.799
277.502
281.506
285.791
290.305
295.071
300.292
306.245
313.232
321.807
331.698
341.294
347.869
349.272
346.465
342.986
341.217
340.877
341.458
342.609
342.362
338.221
339.322
371.866
308.566
304.996
302.806
301.758
301.985
303.197
305.201
307.83
310.949
314.452
318.236
322.229
326.396
330.723
335.125
339.383
343.194
346.252
348.315
349.322
349.394
348.73
347.663
346.473
345.244
343.992
342.818
341.9
341.361
341.219
341.279
340.991
342.61
351.997
381.902
313.448
324.4
330.277
333.993
336.753
339.123
341.352
343.488
345.489
347.299
348.836
350.017
350.75
350.943
350.561
349.746
348.749
347.775
346.915
346.177
345.548
345.03
344.638
344.385
344.262
344.243
344.289
344.396
344.673
345.459
347.376
351.639
360.817
374.199
395.218
317.092
330.401
336.758
340.713
343.842
346.667
349.299
351.489
352.821
353.151
352.713
351.928
351.07
350.197
349.291
348.376
347.509
346.728
346.042
345.456
344.979
344.624
344.408
344.345
344.44
344.691
345.088
345.631
346.349
347.354
348.974
352.092
358.61
369.344
388.619
319.363
333.07
338.745
342.311
345.508
348.732
351.629
353.429
354.014
353.718
352.802
351.525
350.226
349.124
348.245
347.542
346.972
346.504
346.113
345.779
345.49
345.253
345.078
344.978
344.966
345.054
345.249
345.558
346
346.592
347.309
348.214
350.032
355.925
378.452
321.352
334.93
340.042
343.419
346.714
350.041
352.745
354.132
354.322
353.899
353.197
352.28
351.218
350.167
349.252
348.515
347.939
347.489
347.132
346.844
346.609
346.419
346.27
346.155
346.07
346.004
345.933
345.813
345.594
345.336
345.217
345.325
347.089
354.643
378.998
320.17
333.456
338.297
341.464
344.538
347.769
350.924
353.296
354.272
354.004
353.138
352.167
351.279
350.511
349.867
349.345
348.939
348.633
348.403
348.236
348.12
348.053
348.031
348.054
348.128
348.279
348.567
348.875
348.687
347.292
344.284
342.236
345.352
354.198
375.306
317.357
330.72
335.902
339.032
341.773
344.58
347.676
350.965
353.809
355.406
355.546
354.7
353.49
352.307
351.305
350.523
349.962
349.595
349.368
349.233
349.172
349.186
349.274
349.434
349.69
350.168
351.224
353.22
355.782
357.706
357.818
357.746
360.43
367.649
386.737
317.036
331.166
336.798
340.171
343.108
346.015
348.833
351.319
353.407
355.043
355.907
355.804
354.984
353.883
352.809
351.891
351.163
350.629
350.271
350.039
349.904
349.867
349.926
350.083
350.357
350.839
351.757
353.456
356.209
360.08
364.833
370.24
376.346
384.026
398.256
317.079
331.168
336.807
340.207
343.214
346.361
349.727
352.827
355.12
356.598
357.418
357.529
356.894
355.756
354.485
353.335
352.407
351.704
351.194
350.835
350.585
350.424
350.346
350.356
350.457
350.668
351.042
351.677
352.728
354.447
357.328
362.218
369.924
379.993
396.24
317.669
331.675
337.205
340.531
343.398
346.273
349.353
352.425
354.877
356.454
357.388
357.881
357.882
357.294
356.254
355.063
353.961
353.056
352.361
351.846
351.469
351.192
350.996
350.873
350.82
350.84
350.938
351.13
351.456
352.006
353.001
355.04
359.694
368.932
389.044
317.371
331.285
336.934
340.371
343.322
346.213
349.261
352.468
355.35
357.318
358.352
358.782
358.835
358.52
357.772
356.672
355.471
354.402
353.569
352.958
352.511
352.175
351.921
351.742
351.639
351.617
351.683
351.846
352.13
352.59
353.371
354.948
358.935
368.058
389.136
318.555
332.483
337.77
340.943
343.637
346.182
348.728
351.378
354.075
356.419
358.009
358.875
359.266
359.341
359.088
358.411
357.344
356.122
355.018
354.172
353.572
353.148
352.843
352.631
352.512
352.497
352.604
352.855
353.299
354.03
355.285
357.828
363.783
374.197
393.323
318.078
332.125
337.606
340.874
343.594
346.09
348.473
350.847
353.277
355.638
357.551
358.761
359.361
359.581
359.565
359.316
358.73
357.763
356.597
355.523
354.707
354.134
353.73
353.444
353.263
353.199
353.277
353.538
354.058
354.987
356.689
360.217
367.734
378.501
395.411
317.643
332.082
337.811
341.197
343.996
346.54
348.884
351.031
353.026
354.964
356.802
358.277
359.212
359.68
359.85
359.829
359.626
359.144
358.294
357.192
356.127
355.298
354.711
354.293
353.995
353.807
353.745
353.85
354.197
354.937
356.422
359.623
366.558
376.948
393.977
318.129
333.446
339.523
343.147
346.218
349.086
351.757
354.089
355.909
357.171
358.04
358.726
359.256
359.581
359.725
359.748
359.68
359.497
359.11
358.406
357.449
356.505
355.769
355.244
354.865
354.59
354.42
354.382
354.536
355.008
356.093
358.623
364.545
374.424
392.242
319.749
334.806
340.565
344.098
347.214
350.239
353.203
355.917
358.076
359.461
360.085
360.226
360.203
360.152
360.087
360.001
359.886
359.722
359.467
359.038
358.365
357.529
356.752
356.164
355.75
355.459
355.272
355.206
355.313
355.705
356.656
358.989
364.705
374.403
392.181
320.713
335.865
341.52
344.998
348.075
351.048
353.931
356.567
358.731
360.225
360.967
361.088
360.887
360.612
360.365
360.155
359.965
359.769
359.53
359.2
358.719
358.087
357.425
356.883
356.501
356.253
356.125
356.134
356.346
356.901
358.158
361.114
367.654
377.242
393.618
319.808
335.322
341.277
344.89
348.058
351.115
353.999
356.51
358.555
360.13
361.177
361.623
361.563
361.247
360.881
360.547
360.253
359.978
359.692
359.359
358.942
358.434
357.897
357.436
357.109
356.914
356.847
356.941
357.279
358.049
359.721
363.42
370.594
379.885
394.897
320.481
336.83
343.048
346.801
350.175
353.532
356.621
359.02
360.636
361.647
362.224
362.406
362.201
361.752
361.255
360.809
360.424
360.077
359.741
359.387
358.998
358.582
358.178
357.844
357.611
357.489
357.493
357.675
358.142
359.133
361.193
365.392
372.554
381.386
395.629
322.146
338.362
344.468
348.328
352.076
356.003
359.556
362.108
363.57
364.209
364.309
364.016
363.397
362.593
361.815
361.169
360.646
360.204
359.805
359.429
359.067
358.728
358.43
358.194
358.037
357.974
358.034
358.278
358.829
359.946
362.165
366.372
372.985
381.298
395.414
323.293
339.481
345.376
349.258
353.335
357.68
361.362
363.857
365.251
365.81
365.78
365.31
364.479
363.431
362.424
361.618
361.006
360.525
360.121
359.764
359.44
359.145
358.884
358.667
358.509
358.427
358.455
358.65
359.128
360.118
362.092
365.811
371.709
379.589
394.025
323.594
339.99
345.856
349.872
354.372
359.083
362.605
364.721
365.898
366.456
366.532
366.198
365.497
364.51
363.45
362.547
361.867
361.355
360.947
360.601
360.295
360.019
359.771
359.551
359.364
359.222
359.147
359.183
359.414
360.018
361.386
364.335
369.806
377.633
392.371
322.415
339.019
345.123
349.365
354.333
359.62
363.295
365.228
366.154
366.538
366.548
366.249
365.694
364.942
364.098
363.318
362.699
362.233
361.873
361.577
361.324
361.103
360.909
360.741
360.598
360.48
360.395
360.364
360.444
360.766
361.691
364.193
369.735
377.779
392.432
322.903
339.265
345.458
349.956
355.457
361.444
365.437
367.199
367.73
367.677
367.285
366.657
365.898
365.12
364.399
363.785
363.296
362.923
362.638
362.415
362.239
362.103
362.004
361.94
361.91
361.908
361.927
361.964
362.052
362.346
363.357
366.276
372.107
380.39
395.14
321.431
337.467
343.839
348.455
354.052
360.466
365.245
367.66
368.558
368.69
368.386
367.768
366.944
366.062
365.254
364.584
364.063
363.678
363.403
363.211
363.088
363.027
363.031
363.106
363.266
363.525
363.905
364.424
365.084
365.97
367.631
371.058
376.445
384.481
399.582
320.904
337.142
343.806
348.521
353.955
360.233
365.294
368.153
369.427
369.849
369.801
369.416
368.726
367.806
366.819
365.93
365.218
364.687
364.312
364.058
363.899
363.831
363.86
364.002
364.295
364.808
365.668
367.05
368.99
371.172
373.644
377.123
381.826
389.224
403.261
320.591
336.865
343.659
348.451
353.842
360.029
365.246
368.333
369.789
370.362
370.472
370.29
369.86
369.18
368.302
367.37
366.533
365.863
365.362
365
364.754
364.613
364.583
364.69
364.988
365.584
366.688
368.652
371.751
375.57
379.271
382.923
387.121
393.587
405.208
321.444
337.45
344.047
348.666
353.611
359.275
364.698
368.366
370.21
370.951
371.131
371.004
370.665
370.142
369.451
368.645
367.828
367.096
366.496
366.03
365.681
365.438
365.304
365.3
365.475
365.925
366.845
368.606
371.715
376.268
381.281
385.692
389.805
395.403
405.259
321.468
337.161
343.342
347.411
351.397
355.959
361.28
366.218
369.503
371.16
371.787
371.865
371.643
371.223
370.643
369.941
369.179
368.436
367.775
367.222
366.777
366.433
366.188
366.053
366.059
366.273
366.822
367.967
370.172
373.951
379.093
384.244
388.661
394.032
403.913
321.422
336.907
342.873
346.547
349.717
352.904
356.752
361.567
366.263
369.661
371.571
372.379
372.531
372.317
371.88
371.285
370.588
369.858
369.165
368.551
368.032
367.608
367.272
367.027
366.888
366.892
367.117
367.713
368.986
371.451
375.534
380.65
385.445
391.143
402.048
320.87
336.639
342.799
346.558
349.696
352.485
355.142
358.182
362.066
366.181
369.512
371.631
372.665
372.958
372.816
372.415
371.851
371.196
370.52
369.887
369.335
368.874
368.5
368.206
367.994
367.882
367.918
368.203
368.948
370.568
373.66
378.286
383.23
389.294
400.958
320.9
337.079
343.42
347.27
350.473
353.277
355.699
357.844
360.095
362.978
366.352
369.458
371.702
372.947
373.397
373.338
372.981
372.449
371.828
371.192
370.606
370.112
369.725
369.44
369.245
369.135
369.128
369.301
369.842
371.143
373.8
378.01
382.762
388.88
400.917
320.492
337.251
343.915
347.941
351.327
354.391
357.085
359.283
360.999
362.534
364.411
366.898
369.575
371.796
373.183
373.764
373.782
373.471
372.98
372.401
371.808
371.268
370.838
370.554
370.428
370.456
370.629
370.964
371.589
372.85
375.256
378.938
383.168
389.028
401.346
320.56
337.96
345.062
349.341
352.933
356.242
359.254
361.768
363.603
364.808
365.664
366.6
368.069
370.07
372.056
373.472
374.141
374.225
373.962
373.517
372.986
372.437
371.939
371.573
371.412
371.512
371.918
372.65
373.704
375.204
377.46
380.571
384.232
389.752
402.114
321.336
339.468
346.906
351.426
355.277
358.868
362.138
364.854
366.823
368.041
368.69
369.024
369.311
369.909
371.11
372.638
373.885
374.515
374.606
374.379
373.993
373.537
373.072
372.674
372.452
372.524
373
374.002
375.6
377.709
380.247
383.188
386.571
391.877
403.59
323.501
341.955
349.337
353.946
358.071
362.015
365.493
368.161
369.962
371.032
371.565
371.76
371.785
371.765
371.881
372.453
373.485
374.446
374.932
374.974
374.761
374.433
374.072
373.749
373.58
373.735
374.334
375.439
377.187
379.637
382.538
385.612
388.979
394.174
404.955
326.383
344.393
351.516
356.28
360.963
365.61
369.448
371.975
373.372
374.041
374.285
374.287
374.166
373.994
373.812
373.692
373.871
374.469
375.084
375.36
375.323
375.119
374.86
374.632
374.562
374.886
375.865
377.478
379.467
381.802
384.507
387.427
390.721
395.853
405.926
328.772
345.925
352.75
357.667
362.845
367.956
371.894
374.277
375.497
376.038
376.205
376.165
376.009
375.793
375.549
375.295
375.074
375.056
375.348
375.662
375.761
375.67
375.491
375.317
375.272
375.593
376.685
378.868
381.81
384.727
387.366
389.984
393.019
397.82
406.707
328.746
345.516
352.284
357.352
362.801
368.097
372.156
374.707
376.134
376.871
377.208
377.305
377.253
377.105
376.893
376.639
376.361
376.109
376.008
376.085
376.166
376.139
376.022
375.875
375.79
375.932
376.63
378.401
381.558
385.508
389.067
391.929
394.77
398.944
406.598
326.955
343.632
350.14
354.818
359.762
364.896
369.495
372.958
375.226
376.579
377.332
377.715
377.866
377.867
377.762
377.578
377.338
377.076
376.853
376.727
376.673
376.615
376.514
376.378
376.246
376.202
376.417
377.225
379.134
382.421
386.426
389.979
393.021
396.972
404.962
324.61
341.094
347.388
351.576
355.754
360.395
365.376
369.931
373.38
375.634
376.975
377.727
378.117
378.282
378.296
378.201
378.028
377.813
377.599
377.421
377.28
377.152
377.013
376.849
376.669
376.505
376.435
376.618
377.365
379.156
382.265
386.029
389.428
393.698
403.004
323.207
339.929
346.366
350.439
354.217
358.231
362.757
367.502
371.668
374.703
376.618
377.722
378.317
378.603
378.695
378.657
378.536
378.37
378.195
378.028
377.869
377.706
377.524
377.314
377.081
376.851
376.677
376.666
377.039
378.229
380.715
384.143
387.444
391.883
402.302
323.2
340.766
347.509
351.722
355.52
359.256
363.059
366.989
370.835
374.092
376.413
377.842
378.631
379.019
379.162
379.159
379.073
378.945
378.804
378.659
378.506
378.336
378.135
377.906
377.674
377.488
377.414
377.56
378.125
379.428
381.693
384.541
387.485
391.914
402.862
323.805
341.739
348.48
352.722
356.647
360.511
364.115
367.317
370.301
373.176
375.692
377.544
378.692
379.308
379.591
379.68
379.659
379.58
379.474
379.359
379.239
379.108
378.951
378.765
378.585
378.49
378.579
378.969
379.815
381.267
383.311
385.685
388.36
392.75
403.654
323.444
340.814
347.531
351.856
356.063
360.553
364.887
368.349
370.865
372.907
374.884
376.773
378.287
379.279
379.832
380.098
380.193
380.188
380.128
380.046
379.961
379.89
379.847
379.838
379.861
379.936
380.148
380.631
381.528
382.918
384.733
386.832
389.347
393.645
404.24
322.494
339.303
346.102
350.548
354.975
360.032
365.435
370.032
373.102
374.905
376.068
377.114
378.229
379.24
379.959
380.385
380.601
380.686
380.69
380.645
380.579
380.518
380.497
380.571
380.81
381.24
381.813
382.512
383.425
384.653
386.218
388.098
390.47
394.598
404.62
322.125
338.784
345.472
349.897
354.407
359.685
365.577
371.026
375.041
377.466
378.737
379.356
379.742
380.151
380.568
380.889
381.087
381.188
381.221
381.206
381.161
381.102
381.055
381.069
381.239
381.7
382.533
383.65
384.878
386.182
387.641
389.352
391.536
395.346
404.632
321.519
337.807
344.272
348.584
353.078
358.465
364.54
370.271
374.832
377.996
379.946
381.001
381.46
381.611
381.68
381.747
381.803
381.835
381.84
381.819
381.776
381.716
381.648
381.599
381.624
381.838
382.415
383.485
384.95
386.538
388.133
389.837
391.899
395.409
404.231
320.051
335.968
342.526
346.819
351.159
356.392
362.553
368.57
373.47
377.058
379.54
381.158
382.098
382.535
382.666
382.671
382.642
382.609
382.573
382.531
382.478
382.412
382.332
382.246
382.177
382.183
382.383
382.972
384.113
385.735
387.59
389.551
391.73
395.21
403.948
319.102
335.381
342.353
346.804
351.054
355.945
361.765
367.753
372.796
376.502
379.097
380.904
382.127
382.869
383.235
383.363
383.379
383.354
383.317
383.275
383.226
383.166
383.092
383
382.897
382.807
382.798
383.033
383.783
385.263
387.319
389.568
391.922
395.532
404.39
319.277
336.434
343.811
348.507
352.926
357.778
363.205
368.714
373.475
377.023
379.484
381.189
382.385
383.192
383.671
383.903
383.989
384.006
383.997
383.978
383.952
383.918
383.872
383.805
383.713
383.608
383.554
383.73
384.46
386
388.137
390.4
392.773
396.515
405.445
320.132
338.162
345.848
350.802
355.523
360.522
365.632
370.493
374.697
377.909
380.172
381.747
382.86
383.638
384.136
384.411
384.538
384.59
384.61
384.62
384.627
384.635
384.641
384.639
384.616
384.576
384.612
384.95
385.881
387.501
389.5
391.562
393.881
397.758
406.493
321.919
340.628
348.563
353.889
359.158
364.455
369.161
373.121
376.438
379.049
380.97
382.359
383.374
384.108
384.605
384.9
385.052
385.127
385.17
385.205
385.244
385.298
385.378
385.493
385.634
385.773
385.986
386.51
387.548
389.064
390.806
392.651
394.91
398.871
407.224
324.772
343.491
351.482
357.297
363.425
369.181
373.521
376.573
378.867
380.664
382.058
383.135
383.973
384.616
385.078
385.373
385.54
385.63
385.687
385.738
385.801
385.893
386.042
386.289
386.659
387.101
387.566
388.219
389.214
390.515
392.008
393.68
395.869
399.817
407.733
327.698
345.873
353.965
360.428
367.419
373.281
377.125
379.506
381.11
382.308
383.258
384.033
384.672
385.19
385.586
385.856
386.02
386.116
386.179
386.238
386.311
386.422
386.608
386.933
387.48
388.256
389.1
389.946
390.908
392.037
393.347
394.892
397.007
400.864
408.228
330.09
347.815
356.299
363.612
371.132
376.519
379.641
381.474
382.681
383.571
384.278
384.866
385.363
385.778
386.109
386.348
386.503
386.598
386.663
386.722
386.796
386.907
387.093
387.424
388.017
388.978
390.216
391.444
392.556
393.666
394.895
396.364
398.407
402.096
408.734
332.018
349.394
358.363
366.554
374.218
378.96
381.457
382.886
383.837
384.55
385.122
385.6
386.008
386.353
386.634
386.846
386.991
387.085
387.15
387.208
387.277
387.378
387.545
387.839
388.374
389.311
390.722
392.369
393.871
395.175
396.46
397.912
399.886
403.332
409.146
333.587
350.614
359.923
368.798
376.361
380.609
382.741
383.945
384.747
385.35
385.837
386.247
386.597
386.897
387.146
387.34
387.48
387.575
387.643
387.701
387.766
387.856
388
388.245
388.685
389.476
390.79
392.594
394.501
396.159
397.623
399.113
401.014
404.174
409.309
335.065
351.818
361.341
370.7
378.007
381.844
383.734
384.804
385.518
386.053
386.483
386.844
387.154
387.421
387.647
387.829
387.967
388.067
388.14
388.202
388.267
388.351
388.477
388.682
389.037
389.667
390.752
392.411
394.45
396.408
398.081
399.63
401.462
404.384
409.211
336.734
353.261
362.97
372.774
379.695
383.061
384.686
385.616
386.243
386.716
387.097
387.417
387.693
387.933
388.14
388.312
388.45
388.555
388.636
388.705
388.775
388.859
388.977
389.157
389.452
389.955
390.817
392.195
394.069
396.084
397.867
399.447
401.217
404.004
408.926
338.275
354.642
364.59
374.938
381.452
384.335
385.682
386.456
386.986
387.391
387.721
388
388.242
388.455
388.642
388.802
388.936
389.044
389.132
389.21
389.287
389.377
389.494
389.663
389.925
390.349
391.051
392.174
393.772
395.632
397.382
398.942
400.653
403.376
408.605
338.981
355.289
365.546
376.617
382.984
385.555
386.694
387.332
387.766
388.099
388.372
388.607
388.813
388.997
389.161
389.306
389.432
389.539
389.632
389.717
389.803
389.9
390.022
390.19
390.438
390.822
391.43
392.377
393.731
395.368
396.996
398.499
400.151
402.823
408.345
338.184
354.486
364.995
376.888
383.793
386.485
387.602
388.184
388.556
388.83
389.052
389.242
389.411
389.563
389.702
389.829
389.943
390.046
390.139
390.229
390.321
390.426
390.555
390.728
390.974
391.34
391.9
392.744
393.93
395.375
396.866
398.3
399.9
402.518
408.205
335.973
352.558
363.151
375.468
383.642
386.987
388.317
388.95
389.315
389.561
389.747
389.901
390.035
390.158
390.271
390.378
390.477
390.571
390.661
390.752
390.849
390.961
391.098
391.279
391.53
391.894
392.432
393.218
394.296
395.6
396.977
398.351
399.91
402.479
408.193
334.079
351.55
362.051
373.695
382.925
387.149
388.83
389.587
389.993
390.244
390.418
390.552
390.664
390.763
390.856
390.944
391.029
391.113
391.198
391.288
391.387
391.504
391.649
391.839
392.099
392.468
393.001
393.759
394.772
395.983
397.275
398.6
400.125
402.645
408.286
335.264
353.765
364.189
374.677
383.314
387.661
389.444
390.236
390.653
390.906
391.074
391.197
391.295
391.378
391.455
391.528
391.601
391.676
391.755
391.843
391.943
392.065
392.218
392.418
392.691
393.072
393.611
394.358
395.332
396.48
397.712
398.996
400.495
402.973
408.472
339.528
358.493
369.272
379.54
385.998
389.094
390.41
391.025
391.364
391.577
391.724
391.833
391.918
391.991
392.057
392.12
392.184
392.252
392.327
392.414
392.516
392.642
392.803
393.016
393.304
393.702
394.256
395.005
395.957
397.062
398.248
399.496
400.964
403.391
408.697
342.04
361.273
372.993
384.471
389.302
390.968
391.657
392.001
392.201
392.332
392.426
392.5
392.561
392.616
392.668
392.721
392.778
392.84
392.912
392.998
393.102
393.234
393.403
393.627
393.931
394.348
394.917
395.672
396.61
397.683
398.83
400.045
401.481
403.854
408.943
337.108
356.547
368.58
380.786
387.417
390.423
391.886
392.597
392.93
393.083
393.155
393.195
393.224
393.253
393.286
393.325
393.372
393.428
393.497
393.583
393.69
393.827
394.006
394.244
394.564
395
395.586
396.348
397.275
398.32
399.433
400.612
402.009
404.308
409.162
326.588
343.553
352.715
361.906
371.737
379.636
385.43
389.339
391.699
392.951
393.534
393.772
393.857
393.885
393.9
393.92
393.951
393.996
394.058
394.14
394.248
394.388
394.573
394.821
395.154
395.604
396.202
396.966
397.883
398.905
399.988
401.134
402.488
404.703
409.334
318.063
332.559
339.206
344.273
350.938
359.287
367.769
375.584
382.25
387.391
390.865
392.873
393.856
394.269
394.42
394.471
394.497
394.529
394.577
394.65
394.751
394.89
395.076
395.329
395.67
396.13
396.738
397.507
398.418
399.426
400.488
401.606
402.914
405.032
409.446
316.973
335.655
344.413
349.009
352.041
354.999
358.976
364.039
369.704
375.586
381.275
386.329
390.298
392.859
394.154
394.698
394.908
394.993
395.046
395.107
395.195
395.321
395.497
395.741
396.076
396.532
397.137
397.904
398.811
399.81
400.859
401.957
403.226
405.254
409.499
320.661
343.168
353.585
359.367
363.405
366.334
368.33
369.831
371.378
373.296
375.709
378.711
382.385
386.687
390.747
393.369
394.618
395.151
395.381
395.501
395.598
395.715
395.876
396.104
396.422
396.861
397.452
398.209
399.109
400.102
401.144
402.23
403.468
405.423
409.533
321.486
340.561
350.034
356.144
361.347
366.469
371.525
376.108
379.69
381.894
382.797
382.876
382.659
382.943
385.32
389.334
392.617
394.399
395.246
395.664
395.898
396.068
396.242
396.461
396.763
397.181
397.751
398.487
399.37
400.35
401.381
402.455
403.673
405.586
409.593
321.44
341.242
351.282
357.607
362.826
367.572
371.855
376.033
380.654
385.433
389.088
390.836
391.019
389.645
387.415
388.245
391.163
393.609
394.943
395.635
396.05
396.342
396.59
396.846
397.158
397.572
398.126
398.84
399.695
400.647
401.652
402.702
403.899
405.786
409.696
327.042
351.799
362.798
370.099
377.199
383.737
387.903
389.602
390.177
390.956
392.437
393.907
394.48
393.509
391.571
391.974
393.892
395.072
395.691
396.12
396.473
396.768
397.039
397.327
397.67
398.107
398.669
399.371
400.193
401.097
402.052
403.057
404.231
406.113
409.899
332.832
356.127
365.769
373.455
383.008
392.483
398.082
399.781
399.46
398.164
396.668
395.595
394.653
394.397
394.965
395.482
395.965
396.358
396.674
396.949
397.2
397.447
397.708
398.009
398.375
398.834
399.404
400.087
400.864
401.708
402.6
403.548
404.688
406.555
410.158
332.149
353.521
363.259
371.645
381.699
390.449
395.673
398.004
398.707
398.197
396.976
396.281
396.334
396.486
396.699
396.939
397.166
397.376
397.575
397.773
397.98
398.206
398.468
398.781
399.164
399.634
400.2
400.856
401.586
402.372
403.202
404.091
405.191
407.023
410.417
333.414
355.877
366.924
376.366
385.37
391.208
394.927
397.157
398.339
398.717
398.363
397.724
397.478
397.532
397.661
397.812
397.967
398.124
398.288
398.464
398.662
398.891
399.162
399.49
399.888
400.365
400.925
401.559
402.253
402.992
403.769
404.604
405.653
407.416
410.607
337.191
359.351
371.332
382.777
392.591
396.811
398.493
399.375
399.873
400.092
399.97
399.373
398.669
398.403
398.397
398.474
398.583
398.711
398.856
399.023
399.218
399.45
399.73
400.071
400.481
400.966
401.525
402.147
402.818
403.524
404.262
405.056
406.057
407.743
410.753
336.668
357.975
370.741
384.307
395.822
400.286
401.478
401.806
401.881
401.818
401.587
401.074
400.217
399.456
399.166
399.126
399.175
399.265
399.386
399.538
399.724
399.953
400.234
400.579
400.995
401.485
402.044
402.659
403.314
403.999
404.711
405.478
406.441
408.052
410.888
335.225
356.331
369.55
383.811
395.365
400.334
402.044
402.687
402.943
402.999
402.891
402.567
401.903
400.933
400.168
399.857
399.788
399.818
399.901
400.028
400.197
400.415
400.689
401.03
401.444
401.934
402.491
403.101
403.747
404.417
405.114
405.861
406.794
408.338
411.018
336.742
357.717
371.082
385.832
396.497
400.782
402.379
403.071
403.412
403.57
403.589
403.453
403.079
402.354
401.422
400.765
400.494
400.43
400.462
400.555
400.7
400.898
401.156
401.483
401.885
402.364
402.91
403.51
404.145
404.805
405.49
406.222
407.132
408.625
411.161
336.764
357.641
371.222
387.2
398.824
402.375
403.371
403.754
403.945
404.041
404.056
403.975
403.745
403.277
402.534
401.771
401.3
401.104
401.063
401.115
401.236
401.422
401.67
401.988
402.379
402.843
403.373
403.955
404.572
405.216
405.885
406.602
407.493
408.948
411.328
332.798
353.933
366.35
380.583
396.139
402.25
403.77
404.164
404.29
404.333
404.333
404.287
404.168
403.907
403.409
402.72
402.145
401.842
401.732
401.735
401.82
401.979
402.211
402.517
402.896
403.345
403.856
404.417
405.013
405.636
406.288
406.988
407.862
409.278
411.501
329.786
351.368
361.523
371.493
388.265
399.604
403.034
403.855
404.047
404.062
403.994
403.855
403.64
403.357
403.033
402.723
402.494
402.369
402.331
402.363
402.462
402.627
402.86
403.162
403.529
403.959
404.443
404.971
405.535
406.13
406.755
407.435
408.298
409.69
411.727
330.251
352.501
362.345
370.874
383.887
397.659
402.563
403.513
403.641
403.617
403.554
403.47
403.364
403.244
403.125
403.028
402.97
402.959
402.996
403.082
403.219
403.41
403.657
403.959
404.315
404.723
405.176
405.669
406.196
406.754
407.347
408
408.846
410.201
411.989
331.627
354.3
364.946
373.792
384.622
396.679
402.969
404.061
404.096
403.99
403.872
403.765
403.679
403.616
403.576
403.563
403.579
403.628
403.713
403.838
404.005
404.217
404.475
404.778
405.125
405.513
405.94
406.401
406.893
407.415
407.973
408.595
409.41
410.699
412.226
333.909
356.525
367.754
378.081
390.643
400.599
406.09
405.802
405.085
404.677
404.433
404.276
404.181
404.134
404.126
404.152
404.209
404.298
404.421
404.579
404.774
405.007
405.277
405.585
405.927
406.303
406.709
407.145
407.608
408.1
408.627
409.22
410.001
411.204
412.45
334.96
358.344
369.674
379.697
391.349
401.987
408.217
407.432
405.979
405.37
405.055
404.867
404.76
404.716
404.72
404.767
404.85
404.968
405.12
405.305
405.523
405.773
406.055
406.366
406.705
407.07
407.461
407.875
408.314
408.78
409.279
409.841
410.577
411.674
412.646
336.866
360.268
372.779
383.683
392.303
398.25
405.303
409.49
407.828
406.548
405.933
405.598
405.405
405.308
405.285
405.324
405.415
405.55
405.725
405.936
406.18
406.454
406.755
407.08
407.426
407.792
408.176
408.58
409.004
409.449
409.925
410.457
411.145
412.126
412.827
340.606
363.633
378.631
395.463
407.257
409.152
409.095
410.809
409.936
407.714
406.82
406.391
406.137
405.983
405.909
405.909
405.975
406.1
406.276
406.496
406.754
407.043
407.358
407.694
408.047
408.416
408.799
409.196
409.609
410.039
410.493
410.995
411.631
412.498
412.97
340.287
364.116
379.745
397.899
411.995
416.215
415.459
413.845
411.692
408.734
407.571
407.063
406.77
406.588
406.49
406.469
406.52
406.635
406.808
407.031
407.296
407.595
407.92
408.266