/*--------------------------------*- C++ -*----------------------------------*\
| =========                 |                                                 |
| \\      /  F ield         | OpenFOAM: The Open Source CFD Toolbox           |
|  \\    /   O peration     | Version:  v2006                                 |
|   \\  /    A nd           | Website:  www.openfoam.com                      |
|    \\/     M anipulation  |                                                 |
\*---------------------------------------------------------------------------*/
FoamFile
{
    version     2.0;
    format      ascii;
    class       volScalarField;
    location    "29";
    object      alphat;
}
// * * * * * * * * * * * * * * * * * * * * * * * * * * * * * * * * * * * * * //

dimensions      [1 -1 -1 0 0 0 0];


internalField   nonuniform List<scalar> 
78750
(
6.17377e-06
1.09052e-05
1.70668e-05
1.72553e-05
2.7537e-05
1.95737e-05
1.95066e-05
3.99593e-05
7.65898e-05
0.000131461
0.00017063
0.000144078
0.00013078
0.000122262
0.000113463
0.000105568
0.000100981
9.92354e-05
9.91129e-05
9.93377e-05
9.85876e-05
9.60844e-05
9.31959e-05
9.48428e-05
0.000105665
0.000124335
0.000141966
0.0001533
0.000162136
0.000158332
0.00011537
6.55639e-05
4.52046e-05
4.28048e-05
7.90124e-06
4.43426e-05
0.000232358
0.000255565
0.000303079
0.000271806
0.000237741
0.000173631
9.57086e-05
5.31577e-05
4.10534e-05
6.59983e-05
9.74511e-05
0.000118459
0.000152548
0.000179006
0.000179741
0.000162014
0.00012899
9.53849e-05
7.23737e-05
5.65102e-05
4.36345e-05
3.56832e-05
3.4668e-05
4.02449e-05
5.23886e-05
6.61555e-05
6.95463e-05
6.33377e-05
6.25188e-05
7.55583e-05
8.62494e-05
8.93042e-05
8.8123e-05
2.59222e-06
3.34364e-05
0.000364247
0.000448672
0.000471947
0.000489696
0.00045637
0.000369286
0.000281336
0.000236621
0.000228906
0.000241191
0.000253897
0.000239819
0.00019289
0.000142025
0.000104991
8.81915e-05
9.96218e-05
0.000163005
0.000169805
0.000107858
6.27619e-05
2.54216e-05
1.4942e-05
1.62465e-05
2.27521e-05
3.26761e-05
5.14129e-05
9.38058e-05
0.000168323
0.000221541
0.000197906
0.00013803
7.59674e-05
5.04398e-06
2.68745e-05
0.000186209
0.000269269
0.000313095
0.00035317
0.00039488
0.000421731
0.00042887
0.000428906
0.000425181
0.000416034
0.000399419
0.000379849
0.00036907
0.000368727
0.00029885
0.000135209
6.66421e-05
5.4547e-05
7.42791e-05
8.22663e-05
7.30248e-05
7.60215e-05
0.000101946
0.000148959
0.000136913
9.74764e-05
8.91199e-05
9.57102e-05
0.000109434
0.000143978
0.000189709
0.000168121
9.21253e-05
4.90018e-06
1.31378e-05
0.000129684
0.000178593
0.000189794
0.000192861
0.000194696
0.00019711
0.000200491
0.000204325
0.00020786
0.000210489
0.000211818
0.000212969
0.000216947
0.000219551
0.000195705
0.000142303
9.77688e-05
7.06428e-05
5.81646e-05
5.1225e-05
4.6661e-05
4.29065e-05
4.3754e-05
4.11745e-05
2.35255e-05
7.14848e-06
7.56421e-06
1.89945e-05
3.88302e-05
7.33279e-05
0.000112566
0.000129658
9.52649e-05
7.34228e-06
2.22635e-06
2.75376e-05
3.51655e-05
3.72075e-05
3.74226e-05
3.72799e-05
3.73506e-05
3.78946e-05
3.90064e-05
4.07926e-05
4.34125e-05
4.69589e-05
5.19433e-05
5.9799e-05
7.30024e-05
9.36355e-05
0.000122995
0.000142739
0.000123277
0.000104216
9.00594e-05
8.96199e-05
8.75529e-05
5.97003e-05
5.26363e-05
3.81371e-05
1.46852e-05
1.26847e-05
3.07607e-05
6.16044e-05
0.000110273
0.000155059
0.000167746
0.000105909
8.80216e-06
7.63539e-06
3.59707e-05
6.46367e-05
8.14645e-05
9.16088e-05
0.000101209
0.000111543
0.000122127
0.000132756
0.000144357
0.000156643
0.000163182
0.00015635
0.000143954
0.000142697
0.000160468
0.000193272
0.00022411
0.000242575
0.000250182
0.000268844
0.000129058
5.54155e-05
4.64694e-05
4.81186e-05
4.21614e-05
4.95385e-05
8.33883e-05
0.000114985
0.000154577
0.000199322
0.000224767
0.000209512
9.89922e-05
9.04389e-06
1.01043e-05
6.16204e-05
0.000144887
0.000176903
0.000177617
0.000138106
9.19032e-05
6.91798e-05
6.36373e-05
6.85888e-05
7.96408e-05
8.92663e-05
9.39223e-05
0.000106488
0.000135491
0.000165188
0.00017642
0.000166116
0.000131291
8.73321e-05
5.80233e-05
4.62337e-05
4.57689e-05
5.0615e-05
5.89275e-05
8.55666e-05
0.000159917
0.000218564
0.000206806
0.00020168
0.000208172
0.000212135
0.000201604
0.000108262
9.85528e-06
9.91298e-06
7.76879e-05
0.000160312
0.00014357
9.61239e-05
6.16561e-05
5.27871e-05
6.11843e-05
7.80693e-05
9.23026e-05
9.84301e-05
9.53519e-05
8.47846e-05
7.3078e-05
7.5976e-05
0.000103018
0.000118756
8.80609e-05
6.67913e-05
6.42529e-05
6.68104e-05
6.08584e-05
5.03873e-05
4.4321e-05
4.95261e-05
8.00973e-05
0.00015691
0.00023313
0.00023859
0.000219947
0.000209197
0.000206131
0.000198374
0.000101683
1.0459e-05
9.27049e-06
5.33861e-05
0.000130366
0.000146405
0.000139058
0.00012303
0.000101104
7.87287e-05
6.15816e-05
5.42245e-05
6.06442e-05
8.21622e-05
8.16081e-05
4.38985e-05
2.04662e-05
2.4363e-05
4.37974e-05
6.37654e-05
5.49289e-05
5.09198e-05
6.03196e-05
7.67136e-05
8.50127e-05
8.23048e-05
8.49946e-05
0.000106728
0.00015112
0.000208251
0.000259542
0.000278516
0.000254395
0.000217959
0.0001807
7.6267e-05
1.02897e-05
1.00012e-05
8.83649e-05
0.00016605
0.000150373
0.000116725
7.83661e-05
5.14545e-05
3.73196e-05
2.98542e-05
2.56822e-05
2.62894e-05
3.19387e-05
4.01869e-05
5.60202e-05
9.16833e-05
0.000158167
0.000157977
9.94775e-05
6.88302e-05
6.55734e-05
7.92735e-05
9.79852e-05
0.000114873
0.00013241
0.000153265
0.000174198
0.00018669
0.000187305
0.000179551
0.000166985
0.000151525
0.000134681
0.000107294
4.78923e-05
8.38236e-06
8.65734e-06
7.87386e-05
0.000192194
0.000208542
0.000212782
0.00021945
0.000219249
0.00020017
0.000163845
0.000119625
8.16052e-05
5.72925e-05
4.50791e-05
3.96378e-05
3.71639e-05
3.93853e-05
4.87818e-05
6.60446e-05
8.42499e-05
9.02044e-05
8.94845e-05
9.24467e-05
0.000101924
0.000117816
0.000136719
0.000153066
0.000164615
0.000173382
0.000180202
0.000180497
0.000167242
0.000140818
9.9367e-05
3.53162e-05
6.32518e-06
9.64999e-06
6.14227e-05
0.000153865
0.000160265
0.000134146
9.57907e-05
6.52057e-05
4.78379e-05
3.87549e-05
3.34297e-05
2.98436e-05
2.77808e-05
2.77107e-05
3.04866e-05
3.53278e-05
3.80661e-05
4.19291e-05
5.04796e-05
6.41641e-05
8.37239e-05
0.000110987
0.000145085
0.000175871
0.000192766
0.000199355
0.000203715
0.000210008
0.000218893
0.000224622
0.00021288
0.000174352
0.000122985
7.32183e-05
2.59231e-05
4.58469e-06
9.17034e-06
8.83852e-05
0.000254659
0.000268158
0.000236044
0.000201255
0.000183071
0.000181938
0.000184553
0.000166668
0.000123175
8.27432e-05
6.03809e-05
5.25239e-05
5.30879e-05
5.42978e-05
5.15232e-05
4.88571e-05
4.97909e-05
5.4858e-05
6.40157e-05
7.80489e-05
9.85789e-05
0.000126067
0.00015668
0.000183864
0.000203755
0.000213957
0.000210126
0.000190079
0.000160112
0.000127552
8.42847e-05
3.20816e-05
5.00995e-06
9.67634e-06
4.85014e-05
0.000137468
0.000154452
0.000136035
0.000100734
6.86664e-05
5.18701e-05
4.64412e-05
4.75917e-05
5.22352e-05
5.59682e-05
5.35538e-05
4.67026e-05
4.17454e-05
4.12509e-05
4.50085e-05
5.17054e-05
5.80636e-05
6.21026e-05
6.52314e-05
6.92037e-05
7.48687e-05
8.31699e-05
9.52109e-05
0.000110968
0.000128612
0.000146234
0.000162724
0.000174689
0.00017343
0.000145434
9.23535e-05
3.89069e-05
6.13634e-06
9.96136e-06
6.9251e-05
0.000200344
0.000218771
0.000182667
0.000127119
9.14252e-05
8.07634e-05
8.76755e-05
0.000106087
0.000127941
0.000141401
0.000136272
0.000114375
8.94545e-05
7.11773e-05
6.07043e-05
5.61948e-05
5.54912e-05
5.63761e-05
5.73425e-05
5.93125e-05
6.38578e-05
7.01707e-05
7.66425e-05
8.28699e-05
8.912e-05
9.47812e-05
9.91879e-05
0.000104218
0.000110173
0.000115052
0.000118898
7.20944e-05
9.26563e-06
1.0235e-05
4.99667e-05
0.000143662
0.000151204
0.000122013
7.89404e-05
5.15202e-05
4.21802e-05
4.34445e-05
5.02467e-05
5.80447e-05
6.19576e-05
6.01076e-05
5.63156e-05
5.64135e-05
6.32084e-05
7.46053e-05
8.48405e-05
8.97941e-05
8.91838e-05
8.38031e-05
7.49408e-05
6.77988e-05
6.84873e-05
7.7067e-05
8.58143e-05
8.59452e-05
8.28127e-05
8.27566e-05
7.82014e-05
5.60186e-05
4.83684e-05
7.24423e-05
0.000102984
1.14566e-05
9.95811e-06
6.21426e-05
0.000180915
0.000196527
0.000161616
0.000107421
7.09576e-05
5.80075e-05
6.27115e-05
8.32362e-05
0.000116909
0.000148581
0.000150756
0.000119422
8.62085e-05
6.83385e-05
6.32818e-05
6.53915e-05
7.06641e-05
7.7446e-05
8.62991e-05
9.38992e-05
7.9605e-05
5.39653e-05
4.78003e-05
5.38114e-05
5.7376e-05
5.67956e-05
5.87757e-05
6.00684e-05
5.40641e-05
6.91483e-05
0.000122076
8.22248e-05
1.01441e-05
1.03113e-05
5.19347e-05
0.000148899
0.000158961
0.000135175
9.47271e-05
5.86836e-05
3.96212e-05
3.39651e-05
3.7043e-05
4.58248e-05
5.74946e-05
6.99625e-05
8.29918e-05
9.60205e-05
0.000105773
0.000109408
0.000107838
0.000103456
9.73314e-05
8.70719e-05
6.69934e-05
4.63995e-05
3.89694e-05
4.46038e-05
5.84132e-05
7.1438e-05
8.33708e-05
9.74312e-05
0.000112633
0.000122775
8.91132e-05
7.16786e-05
7.11569e-05
9.58818e-06
9.64042e-06
5.54187e-05
0.000169273
0.000205228
0.000197182
0.000167558
0.000113649
6.66113e-05
4.73657e-05
4.79498e-05
6.27785e-05
8.51316e-05
9.96613e-05
9.83647e-05
9.18407e-05
9.07145e-05
9.68585e-05
0.000105227
0.000106999
9.31829e-05
6.02737e-05
3.55459e-05
2.9549e-05
3.67617e-05
5.74914e-05
8.1181e-05
8.06443e-05
6.87452e-05
6.88224e-05
7.60093e-05
6.22164e-05
3.83463e-05
4.70211e-05
8.98678e-05
1.21528e-05
1.05193e-05
5.39298e-05
0.000161636
0.000182065
0.000162903
0.000127847
8.66565e-05
5.27175e-05
3.39244e-05
2.88608e-05
3.5153e-05
5.39549e-05
8.75285e-05
0.000128924
0.000158467
0.00016715
0.000164305
0.000152076
0.00011697
6.48284e-05
3.45633e-05
2.70815e-05
3.32531e-05
6.01288e-05
0.000125676
0.000128167
8.76231e-05
5.23141e-05
3.65861e-05
3.81801e-05
4.22584e-05
5.14992e-05
9.16649e-05
7.23584e-05
1.16396e-05
1.01709e-05
6.36718e-05
0.000196183
0.000221847
0.000203318
0.00016858
0.000128541
8.88774e-05
5.78711e-05
4.28699e-05
4.26275e-05
5.43386e-05
7.46731e-05
9.76659e-05
0.000117135
0.000129932
0.000133937
0.000125879
0.000102124
6.4359e-05
3.64988e-05
2.75157e-05
3.0691e-05
4.55056e-05
7.56878e-05
0.000107134
0.000100403
7.6497e-05
6.39941e-05
6.20495e-05
7.0251e-05
9.45612e-05
9.66943e-05
3.42045e-05
8.39623e-06
1.08604e-05
5.77015e-05
0.000169566
0.000187822
0.000165737
0.000125709
8.36733e-05
5.42413e-05
3.83377e-05
3.21093e-05
3.40571e-05
4.45943e-05
6.35221e-05
8.65341e-05
0.000105113
0.000113732
0.000113458
0.000107215
9.63468e-05
8.0696e-05
5.98828e-05
4.17747e-05
3.46701e-05
3.671e-05
4.3921e-05
5.26468e-05
6.15472e-05
7.34719e-05
9.36475e-05
0.000117732
0.000132342
0.000124538
7.72941e-05
2.84613e-05
6.98386e-06
1.06811e-05
7.06103e-05
0.00020355
0.000212091
0.000182553
0.00014615
0.000114433
8.61026e-05
6.13625e-05
4.54531e-05
4.03184e-05
4.44347e-05
5.51822e-05
6.90164e-05
8.18894e-05
9.08466e-05
9.52052e-05
9.55962e-05
9.26281e-05
8.63489e-05
7.68416e-05
6.48924e-05
5.28914e-05
4.4404e-05
4.05232e-05
3.99618e-05
4.14428e-05
4.47478e-05
5.25849e-05
7.15772e-05
0.000100609
0.000112635
9.46518e-05
4.03965e-05
8.74679e-06
1.07405e-05
5.50736e-05
0.000172833
0.000192759
0.000165326
0.000125733
9.29757e-05
6.98845e-05
5.25812e-05
4.02987e-05
3.49091e-05
3.7414e-05
4.69854e-05
6.07451e-05
7.45245e-05
8.52878e-05
9.23099e-05
9.6208e-05
9.73422e-05
9.55998e-05
9.09264e-05
8.35821e-05
7.42314e-05
6.45167e-05
5.72837e-05
5.42602e-05
5.32679e-05
5.06417e-05
5.05508e-05
5.31635e-05
4.54436e-05
4.13672e-05
5.76319e-05
7.95273e-05
1.18433e-05
1.05847e-05
5.93707e-05
0.00018427
0.00019997
0.000162128
0.000122349
0.000102725
9.82404e-05
9.12647e-05
6.98556e-05
4.87757e-05
4.00835e-05
4.34078e-05
5.57738e-05
7.28605e-05
8.95643e-05
0.000102711
0.0001116
0.000115946
0.000115634
0.000111205
0.000103892
9.57319e-05
9.0215e-05
8.98295e-05
8.81072e-05
6.94915e-05
4.69333e-05
3.30295e-05
2.06386e-05
1.81156e-05
3.22182e-05
7.26696e-05
8.47297e-05
1.19423e-05
1.06691e-05
5.00185e-05
0.000159209
0.000181803
0.000144533
9.94003e-05
7.61255e-05
7.12479e-05
7.48141e-05
7.37493e-05
5.95727e-05
4.53271e-05
4.2362e-05
5.19951e-05
7.20791e-05
9.82092e-05
0.000125558
0.000149404
0.00016416
0.000166642
0.000159735
0.000150085
0.000140554
0.00011833
6.85478e-05
3.95431e-05
3.10049e-05
2.77539e-05
2.23764e-05
1.96833e-05
3.28259e-05
7.57586e-05
0.000114256
3.50135e-05
9.12522e-06
1.09638e-05
5.9028e-05
0.000181242
0.000184926
0.000127191
8.62496e-05
7.50151e-05
8.32278e-05
0.000101117
0.000108636
8.84326e-05
6.03409e-05
4.71154e-05
5.17485e-05
7.30369e-05
0.000107705
0.000151599
0.000200546
0.000242514
0.000259008
0.000242965
0.000190561
0.000105909
5.10076e-05
3.30713e-05
3.09103e-05
3.43711e-05
3.72332e-05
3.64249e-05
4.30649e-05
7.61398e-05
0.000119167
6.20663e-05
2.22239e-05
6.79682e-06
1.132e-05
6.0215e-05
0.000181549
0.000160563
9.86243e-05
6.77785e-05
6.24598e-05
7.18466e-05
9.01993e-05
0.000105803
9.87939e-05
7.18774e-05
5.13494e-05
4.80483e-05
6.25929e-05
9.2045e-05
0.00012944
0.00016714
0.000195177
0.000200047
0.000172608
0.000118085
6.64669e-05
3.95596e-05
3.1401e-05
3.38691e-05
4.32253e-05
5.6059e-05
6.82747e-05
8.58912e-05
0.000111632
0.000107042
5.81485e-05
2.39834e-05
6.70465e-06
1.15496e-05
7.8652e-05
0.000182296
0.000130449
7.98404e-05
6.46257e-05
7.30354e-05
9.64698e-05
0.000120527
0.000128444
0.000113246
8.40321e-05
5.93628e-05
4.93175e-05
5.50733e-05
7.35475e-05
9.66583e-05
0.00011706
0.000130353
0.000132824
0.000121494
9.68837e-05
6.67997e-05
4.39366e-05
3.36108e-05
3.39683e-05
4.34757e-05
6.20503e-05
8.71082e-05
0.000112278
0.000128348
0.000117111
7.17269e-05
3.03819e-05
7.20554e-06
1.12167e-05
7.17077e-05
0.000170896
0.000129166
8.11148e-05
6.13865e-05
6.28454e-05
7.92783e-05
0.000103106
0.000119126
0.00011446
9.20141e-05
6.74859e-05
5.28129e-05
5.1213e-05
6.12919e-05
7.72572e-05
9.22153e-05
0.000102918
0.000108
0.000105808
9.50442e-05
7.67584e-05
5.6332e-05
4.12517e-05
3.53195e-05
3.89951e-05
5.35968e-05
8.1695e-05
0.000116314
0.000137328
0.00013092
8.66676e-05
3.39633e-05
7.05167e-06
1.09198e-05
7.1877e-05
0.000171916
0.000157282
0.00011182
7.38226e-05
5.96993e-05
6.48973e-05
8.47256e-05
0.000109077
0.000119971
0.000108284
8.40732e-05
6.37753e-05
5.50664e-05
5.80286e-05
6.89053e-05
8.14772e-05
9.16583e-05
9.82557e-05
0.000100549
9.73239e-05
8.76077e-05
7.23251e-05
5.56808e-05
4.34226e-05
3.91882e-05
4.48831e-05
6.38797e-05
9.70564e-05
0.000125674
0.000127328
8.82888e-05
3.13489e-05
6.48369e-06
1.06084e-05
6.17445e-05
0.000167514
0.00017419
0.000141306
8.74497e-05
5.41486e-05
4.60923e-05
5.54375e-05
7.85649e-05
0.000105395
0.000116694
0.000104423
8.21944e-05
6.63035e-05
6.19576e-05
6.74265e-05
7.74888e-05
8.6937e-05
9.36052e-05
9.72821e-05
9.77205e-05
9.40223e-05
8.52078e-05
7.17777e-05
5.71842e-05
4.65215e-05
4.35669e-05
5.10702e-05
7.16049e-05
9.80207e-05
0.000107001
7.73661e-05
2.61593e-05
5.97834e-06
1.07009e-05
6.42314e-05
0.000177918
0.000188436
0.000165146
0.000121479
7.16755e-05
4.61108e-05
4.3363e-05
5.72468e-05
8.41462e-05
0.000111671
0.000120149
0.000105713
8.50722e-05
7.25952e-05
7.11287e-05
7.71453e-05
8.50046e-05
9.08139e-05
9.37686e-05
9.44608e-05
9.3223e-05
8.9498e-05
8.21036e-05
7.08357e-05
5.84283e-05
4.96677e-05
4.86033e-05
5.80409e-05
7.68969e-05
8.94014e-05
6.75439e-05
2.25168e-05
5.69589e-06
1.0753e-05
6.50903e-05
0.000187535
0.000190746
0.00016171
0.000126019
8.72081e-05
5.43761e-05
4.0697e-05
4.46821e-05
6.34161e-05
9.13062e-05
0.000113337
0.000115849
0.000102673
8.81674e-05
8.12579e-05
8.23453e-05
8.72166e-05
9.12067e-05
9.22889e-05
9.09695e-05
8.85416e-05
8.58554e-05
8.26232e-05
7.73537e-05
6.90783e-05
5.99254e-05
5.46474e-05
5.76668e-05
7.05107e-05
8.33319e-05
6.51292e-05
2.12333e-05
5.52741e-06
1.07553e-05
6.43803e-05
0.000182014
0.000186084
0.000157036
0.000124375
9.56115e-05
6.71176e-05
4.54775e-05
3.94902e-05
4.89073e-05
7.13997e-05
9.82455e-05
0.000114195
0.000112668
0.00010188
9.28016e-05
8.9835e-05
9.148e-05
9.37335e-05
9.34998e-05
9.0247e-05
8.5284e-05
8.03856e-05
7.68411e-05
7.46238e-05
7.21279e-05
6.80403e-05
6.43011e-05
6.5694e-05
7.53517e-05
8.64274e-05
6.79829e-05
2.11995e-05
5.31716e-06
1.06429e-05
5.97234e-05
0.000170048
0.00017674
0.00014799
0.000115775
9.25243e-05
7.40955e-05
5.36632e-05
3.92802e-05
3.87742e-05
5.26186e-05
7.77657e-05
0.000103057
0.000115531
0.000114097
0.000107289
0.000102257
0.000100786
0.000100797
9.92365e-05
9.44814e-05
8.7061e-05
7.88379e-05
7.19885e-05
6.80937e-05
6.73506e-05
6.84552e-05
7.03236e-05
7.45841e-05
8.34174e-05
9.11589e-05
6.99218e-05
2.09067e-05
5.08251e-06
1.06508e-05
5.87134e-05
0.000169177
0.000179147
0.00015133
0.00011726
9.23514e-05
7.68912e-05
6.2194e-05
4.46676e-05
3.52308e-05
3.97677e-05
5.85401e-05
8.65196e-05
0.00011048
0.000120799
0.000120104
0.000115798
0.000112424
0.000110393
0.000107728
0.000102324
9.36042e-05
8.2748e-05
7.2087e-05
6.41256e-05
6.05797e-05
6.19114e-05
6.74333e-05
7.60213e-05
8.60337e-05
9.09447e-05
6.67519e-05
1.96911e-05
4.84406e-06
1.07695e-05
5.98597e-05
0.000172139
0.000181442
0.000153912
0.000119152
9.18203e-05
7.52174e-05
6.42204e-05
5.10255e-05
3.75697e-05
3.42925e-05
4.51339e-05
6.95353e-05
9.90753e-05
0.000120424
0.00012836
0.000127315
0.000123373
0.000119586
0.000115866
0.000110533
0.00010214
9.06262e-05
7.76112e-05
6.58315e-05
5.79463e-05
5.56535e-05
5.9652e-05
6.93993e-05
8.12889e-05
8.60714e-05
6.09136e-05
1.82114e-05
4.65672e-06
1.07272e-05
5.99255e-05
0.000170581
0.00017848
0.00015364
0.000121873
9.44702e-05
7.50683e-05
6.23588e-05
5.20335e-05
4.07917e-05
3.38124e-05
3.80742e-05
5.62888e-05
8.49682e-05
0.0001124
0.000128194
0.000131956
0.00012915
0.000124567
0.000120155
0.00011542
0.000108778
9.89994e-05
8.63208e-05
7.27788e-05
6.14282e-05
5.49756e-05
5.51556e-05
6.26966e-05
7.50908e-05
8.15693e-05
5.72819e-05
1.74958e-05
4.55912e-06
1.06514e-05
5.89194e-05
0.000167338
0.000176583
0.000154597
0.000125502
9.93926e-05
7.89866e-05
6.34928e-05
5.14656e-05
4.1467e-05
3.42916e-05
3.45563e-05
4.65095e-05
7.04928e-05
9.89106e-05
0.000120065
0.000128861
0.000128392
0.000123997
0.000119247
0.000115135
0.000110714
0.000104268
9.46816e-05
8.25114e-05
7.018e-05
6.09903e-05
5.78064e-05
6.24875e-05
7.4116e-05
8.24763e-05
5.95205e-05
1.82345e-05
4.57324e-06
1.05516e-05
5.85097e-05
0.000168548
0.000181265
0.00016111
0.000132439
0.000106438
8.67078e-05
7.12466e-05
5.74609e-05
4.50095e-05
3.56615e-05
3.24351e-05
3.86364e-05
5.63233e-05
8.23433e-05
0.000106657
0.000120505
0.000123348
0.000119891
0.000114901
0.000110893
0.000108016
0.00010484
9.95716e-05
9.1347e-05
8.11645e-05
7.19028e-05
6.72191e-05
7.01798e-05
8.11351e-05
9.08824e-05
6.84601e-05
2.0433e-05
4.67481e-06
1.0621e-05
5.96616e-05
0.000172771
0.000189658
0.000172192
0.000143952
0.000116008
9.47267e-05
7.99212e-05
6.75602e-05
5.42716e-05
4.12122e-05
3.28214e-05
3.27284e-05
4.30902e-05
6.39908e-05
8.93811e-05
0.000108614
0.000116179
0.000114559
0.000109286
0.000104543
0.000101877
0.000100628
9.90564e-05
9.5554e-05
8.97672e-05
8.33588e-05
7.98104e-05
8.29555e-05
9.40093e-05
0.000104434
8.13863e-05
2.32846e-05
4.80061e-06
1.0651e-05
6.12979e-05
0.000178341
0.000199107
0.000184079
0.000157356
0.000128934
0.000105822
9.02823e-05
7.98546e-05
6.92523e-05
5.48504e-05
4.01972e-05
3.21731e-05
3.40795e-05
4.70177e-05
6.95389e-05
9.3189e-05
0.000107305
0.000109283
0.000104124
9.78798e-05
9.40089e-05
9.29261e-05
9.32515e-05
9.33131e-05
9.21811e-05
9.03921e-05
9.03504e-05
9.55734e-05
0.000107313
0.000117337
9.24239e-05
2.53763e-05
4.87147e-06
1.08534e-05
6.52884e-05
0.000189856
0.000212748
0.000198083
0.000171079
0.000141804
0.000117043
9.99211e-05
8.99009e-05
8.31313e-05
7.32754e-05
5.68962e-05
4.05215e-05
3.27452e-05
3.61326e-05
5.10199e-05
7.43416e-05
9.52668e-05
0.000103752
0.000100515
9.26492e-05
8.63204e-05
8.37951e-05
8.41835e-05
8.56922e-05
8.74529e-05
8.98641e-05
9.43692e-05
0.000103019
0.000115805
0.000124373
9.62649e-05
2.56716e-05
4.83399e-06
1.10644e-05
7.15547e-05
0.000205658
0.000226844
0.000208893
0.000179386
0.000150424
0.00012756
0.000111814
0.000102474
9.74833e-05
9.22184e-05
7.99198e-05
5.9519e-05
4.14679e-05
3.43655e-05
3.94728e-05
5.63292e-05
7.94498e-05
9.5815e-05
9.7799e-05
8.98801e-05
8.06112e-05
7.52886e-05
7.44775e-05
7.61452e-05
7.88025e-05
8.3091e-05
9.06727e-05
0.000102509
0.000116512
0.000123497
9.20617e-05
2.43723e-05
4.70833e-06
1.13391e-05
7.91515e-05
0.000220363
0.000234354
0.000209663
0.000175983
0.000148164
0.00012995
0.000119342
0.000114059
0.000112305
0.000110976
0.000104088
8.5846e-05
6.07539e-05
4.23197e-05
3.68756e-05
4.42866e-05
6.27731e-05
8.36673e-05
9.35633e-05
8.91766e-05
7.82751e-05
6.93869e-05
6.59895e-05
6.70371e-05
7.00774e-05
7.46868e-05
8.28418e-05
9.58685e-05
0.00011072
0.000116972
8.39195e-05
2.25513e-05
4.55542e-06
1.14449e-05
8.5281e-05
0.000227433
0.000231357
0.000198063
0.000161588
0.000138275
0.000128233
0.000126112
0.00012756
0.00013042
0.000132711
0.000129924
0.000115453
8.82749e-05
6.00429e-05
4.3319e-05
4.06463e-05
5.08244e-05
6.98581e-05
8.60583e-05
8.85049e-05
7.91439e-05
6.74228e-05
6.03108e-05
5.93061e-05
6.24756e-05
6.77775e-05
7.59118e-05
8.8668e-05
0.000103648
0.000109963
7.71253e-05
2.12347e-05
4.43846e-06
1.14473e-05
8.83556e-05
0.000227949
0.000221368
0.000180195
0.000143209
0.000125119
0.000122809
0.000129651
0.000139826
0.000149544
0.000156639
0.000157998
0.000147743
0.000121575
8.66346e-05
5.84572e-05
4.4971e-05
4.56569e-05
5.81627e-05
7.56533e-05
8.55768e-05
8.16246e-05
6.96066e-05
5.87638e-05
5.4071e-05
5.5776e-05
6.19424e-05
7.12945e-05
8.45145e-05
9.98665e-05
0.000106885
7.48142e-05
2.09641e-05
4.39157e-06
1.12715e-05
8.72793e-05
0.000220803
0.000206569
0.000161667
0.000127217
0.000114236
0.000117974
0.000132179
0.000150667
0.000168006
0.000180796
0.000186588
0.000181124
0.000158854
0.000121338
8.29258e-05
5.75418e-05
4.79517e-05
5.19483e-05
6.55565e-05
7.95388e-05
8.29766e-05
7.44181e-05
6.16284e-05
5.2652e-05
5.08486e-05
5.61348e-05
6.72364e-05
8.2929e-05
0.000100289
0.000108762
7.72016e-05
2.17471e-05
4.41863e-06
1.10331e-05
8.19513e-05
0.000208668
0.000193423
0.000149675
0.000116956
0.000105204
0.000110166
0.000126971
0.000150601
0.00017533
0.00019621
0.000209777
0.000212331
0.00019824
0.000164083
0.000118692
8.01543e-05
5.82818e-05
5.23501e-05
5.88838e-05
7.19753e-05
8.13781e-05
7.92332e-05
6.77804e-05
5.54828e-05
4.90706e-05
5.09957e-05
6.16747e-05
8.02636e-05
0.000101857
0.000113564
8.31314e-05
2.32851e-05
4.51543e-06
1.08014e-05
7.58447e-05
0.000195804
0.000185225
0.000145817
0.000112916
9.856e-05
0.000100567
0.000115513
0.000140142
0.000169824
0.00019895
0.000222556
0.00023635
0.000234878
0.000211639
0.000166962
0.000116589
7.93036e-05
6.07502e-05
5.78977e-05
6.58961e-05
7.71113e-05
8.14221e-05
7.45078e-05
6.14463e-05
5.08148e-05
4.80865e-05
5.55035e-05
7.44049e-05
0.000100868
0.000117973
8.99297e-05
2.48582e-05
4.62537e-06
1.06732e-05
7.1222e-05
0.00018619
0.000181651
0.000147553
0.000113709
9.4541e-05
9.09705e-05
0.000100803
0.000122345
0.000153107
0.000188463
0.000222407
0.000249087
0.000262631
0.000255853
0.000222739
0.000168974
0.000115706
8.02945e-05
6.47118e-05
6.41731e-05
7.24436e-05
8.02657e-05
7.88895e-05
6.78799e-05
5.47046e-05
4.74039e-05
5.02378e-05
6.61438e-05
9.50801e-05
0.000118915
9.47084e-05
2.56639e-05
4.68954e-06
1.06469e-05
6.95364e-05
0.000182063
0.00018105
0.000151034
0.000117962
9.53663e-05
8.63979e-05
9.0238e-05
0.000106179
0.000133595
0.00017023
0.000211144
0.000249514
0.000277913
0.000288376
0.000272812
0.000228368
0.000167559
0.000114187
8.17984e-05
6.92114e-05
7.04127e-05
7.74566e-05
8.00812e-05
7.25192e-05
5.88074e-05
4.79794e-05
4.64272e-05
5.79856e-05
8.5829e-05
0.000115006
9.45435e-05
2.51266e-05
4.64734e-06
1.06885e-05
7.02268e-05
0.000182942
0.000182787
0.000154577
0.000122979
9.945e-05
8.69415e-05
8.55484e-05
9.54249e-05
0.00011704
0.000150143
0.000192181
0.000237529
0.000278104
0.000304499
0.000307109
0.000279226
0.0002243
0.00016089
0.000111027
8.31442e-05
7.36332e-05
7.5378e-05
7.86812e-05
7.43337e-05
6.17672e-05
4.90033e-05
4.40467e-05
5.15861e-05
7.63268e-05
0.00010787
8.97801e-05
2.36492e-05
4.51919e-06
1.07679e-05
7.26881e-05
0.000186075
0.000185249
0.000157688
0.000127472
0.000104659
9.08669e-05
8.58895e-05
9.04704e-05
0.000105891
0.000133082
0.00017145
0.000217574
0.000264622
0.000302832
0.000321157
0.000310727
0.000270006
0.000209448
0.000149329
0.000106415
8.39578e-05
7.69183e-05
7.70416e-05
7.4305e-05
6.38348e-05
5.07384e-05
4.35388e-05
4.79182e-05
6.92215e-05
0.000100809
8.41836e-05
2.22376e-05
4.37583e-06
1.08516e-05
7.62559e-05
0.00019049
0.000188436
0.000161036
0.000131805
0.000110007
9.62108e-05
8.92184e-05
8.96217e-05
9.93204e-05
0.000120082
0.000152545
0.000195127
0.000242941
0.000287309
0.000316927
0.000321544
0.000296875
0.000247813
0.000188441
0.000136242
0.000101484
8.39293e-05
7.76505e-05
7.39256e-05
6.55564e-05
5.35653e-05
4.53752e-05
4.76388e-05
6.62678e-05
9.70653e-05
8.17696e-05
2.16744e-05
4.27765e-06
1.09451e-05
8.11596e-05
0.00019722
0.000193405
0.000165549
0.000136955
0.000116162
0.000102858
9.48043e-05
9.18941e-05
9.63204e-05
0.000110641
0.000136412
0.000173337
0.000218216
0.000263946
0.00030001
0.000315731
0.000305209
0.000270152
0.000219441
0.000166647
0.000124106
9.68585e-05
8.26414e-05
7.5147e-05
6.73917e-05
5.71764e-05
4.93285e-05
5.07785e-05
6.81669e-05
9.85079e-05
8.42515e-05
2.21661e-05
4.24268e-06
1.10218e-05
8.68264e-05
0.000204523
0.000198158
0.000169364
0.0001416
0.000122544
0.000110797
0.000102923
9.76824e-05
9.71913e-05
0.00010494
0.000123493
0.000153578
0.000193331
0.000237185
0.000275869
0.000298981
0.000299629
0.000277453
0.000238046
0.000191048
0.000147124
0.000113673
9.22169e-05
7.94582e-05
7.01741e-05
6.11642e-05
5.4652e-05
5.6769e-05
7.45886e-05
0.000105
9.08165e-05
2.35045e-05
4.25779e-06
1.10328e-05
9.13627e-05
0.000208535
0.000199716
0.000170471
0.000144002
0.000127218
0.00011804
0.00011205
0.000106367
0.000102065
0.000103374
0.000114264
0.000136611
0.000169728
0.000209438
0.000247838
0.000275202
0.000284095
0.000272598
0.000244147
0.000205663
0.000165364
0.00013032
0.000104144
8.63942e-05
7.4228e-05
6.52162e-05
6.03078e-05
6.43749e-05
8.40675e-05
0.000114445
9.87162e-05
2.51674e-05
4.30162e-06
1.09666e-05
9.38118e-05
0.000208758
0.000199204
0.000170998
0.000146114
0.000130959
0.000123723
0.000120026
0.000115713
0.00010968
0.000105541
0.000108696
0.000122637
0.000147991
0.000181989
0.000218105
0.000247403
0.000262132
0.000259109
0.000240191
0.000210479
0.000176207
0.00014316
0.000115348
9.42218e-05
7.9201e-05
6.94057e-05
6.5804e-05
7.23903e-05
9.46029e-05
0.000124151
0.000105029
2.65209e-05
4.33461e-06
1.08496e-05
9.44909e-05
0.000207879
0.000199475
0.000173364
0.000149884
0.000135205
0.000128386
0.000126006
0.00012377
0.000118385
0.000110917
0.000106965
0.000112051
0.000128632
0.000155603
0.000187995
0.000217717
0.000236665
0.000240416
0.000229473
0.00020761
0.000179657
0.000150204
0.000122942
0.000100309
8.34801e-05
7.315e-05
7.08811e-05
8.02724e-05
0.000105037
0.000132544
0.00010802
2.70303e-05
4.31555e-06
1.07377e-05
9.46782e-05
0.000207966
0.000201738
0.000177992
0.000155718
0.000140834
0.000133194
0.000130655
0.000129932
0.000126882
0.000119175
0.000110021
0.000106306
0.000113076
0.000131433
0.000158454
0.000187334
0.000209608
0.000219266
0.000215228
0.00020006
0.000177599
0.00015167
0.000125758
0.000102923
8.55849e-05
7.56442e-05
7.52373e-05
8.7697e-05
0.000114393
0.000138093
0.000106203
2.63203e-05
4.18867e-06
1.06411e-05
9.47629e-05
0.000209095
0.000204912
0.000183057
0.000162061
0.000147421
0.000139032
0.000135523
0.000135037
0.000134377
0.000129339
0.000118696
0.000107706
0.00010405
0.000111954
0.000131127
0.000156955
0.000181295
0.000196349
0.000198752
0.000189505
0.000171613
0.000148542
0.000123968
0.000101652
8.49638e-05
7.65193e-05
7.86987e-05
9.42554e-05
0.000121299
0.00013912
9.95594e-05
2.46916e-05
3.97541e-06
1.05666e-05
9.45487e-05
0.000210335
0.000207377
0.000186465
0.000166717
0.000153324
0.000145414
0.000141309
0.000140059
0.000140308
0.000138759
0.00013106
0.000117198
0.00010432
0.000100493
0.00010898
0.000128215
0.000152
0.000171483
0.000180313
0.000177088
0.000163708
0.000143408
0.000120236
9.87081e-05
8.29913e-05
7.61797e-05
8.0709e-05
9.83457e-05
0.000123646
0.000134858
8.99269e-05
2.27744e-05
3.7347e-06
1.04801e-05
9.27537e-05
0.000209314
0.000206591
0.000185467
0.000166716
0.00015568
0.000150403
0.000147791
0.000146386
0.000146112
0.000146124
0.00014289
0.000132147
0.00011512
0.000100423
9.60963e-05
0.000104615
0.000123326
0.00014461
0.000159478
0.000162957
0.000155014
0.000138411
0.00011739
9.703e-05
8.21423e-05
7.62847e-05
8.19751e-05
9.99649e-05
0.000122253
0.000128055
8.13881e-05
2.13625e-05
3.56099e-06
1.0369e-05
8.82142e-05
0.000203769
0.000200596
0.000178212
0.000159754
0.000151261
0.000150175
0.000151907
0.00015318
0.000153283
0.000153001
0.000151899
0.000146503
0.000132796
0.000113014
9.66139e-05
9.15343e-05
9.96693e-05
0.000117323
0.000135983
0.000146786
0.000145956
0.000134838
0.000117382
9.88298e-05
8.4552e-05
7.87676e-05
8.42782e-05
0.000101242
0.0001207
0.000123398
7.72598e-05
2.08879e-05
3.50043e-06
1.02453e-05
8.13397e-05
0.00019381
0.00019005
0.000165866
0.000147004
0.000140406
0.000143467
0.000151007
0.000158135
0.000161985
0.000162531
0.000161242
0.000158099
0.000149923
0.000133233
0.000111017
9.32347e-05
8.76e-05
9.5226e-05
0.000111684
0.000127852
0.000135225
0.000131519
0.000119493
0.000104139
9.10994e-05
8.53117e-05
9.01341e-05
0.000105663
0.000123046
0.000124298
7.85055e-05
2.14447e-05
3.5433e-06
1.01576e-05
7.41656e-05
0.00018239
0.000178118
0.000151814
0.000131931
0.000126305
0.000132421
0.00014527
0.000159466
0.00017032
0.000175365
0.000175138
0.000171674
0.000165396
0.000153551
0.000133397
0.00010899
9.04934e-05
8.47471e-05
9.20764e-05
0.000107438
0.000121353
0.00012629
0.000121526
0.000111092
0.000100668
9.57359e-05
0.000100253
0.000114504
0.00013025
0.000130768
8.46614e-05
2.29375e-05
3.6763e-06
1.01679e-05
6.94116e-05
0.00017402
0.000168883
0.000140071
0.000118691
0.000113332
0.000121439
0.000138438
0.000159205
0.000178223
0.000190828
0.000194963
0.000191869
0.000184311
0.000173239
0.000156378
0.000132298
0.000106394
8.82799e-05
8.33439e-05
9.09674e-05
0.000105299
0.000117148
0.000120692
0.000116969
0.000110963
0.000108358
0.000113458
0.00012665
0.000140482
0.000139926
9.31129e-05
2.49143e-05
3.84413e-06