/*--------------------------------*- C++ -*----------------------------------*\
| =========                 |                                                 |
| \\      /  F ield         | OpenFOAM: The Open Source CFD Toolbox           |
|  \\    /   O peration     | Version:  v2006                                 |
|   \\  /    A nd           | Website:  www.openfoam.com                      |
|    \\/     M anipulation  |                                                 |
\*---------------------------------------------------------------------------*/
FoamFile
{
    version     2.0;
    format      ascii;
    class       volScalarField;
    location    "29";
    object      k;
}
// * * * * * * * * * * * * * * * * * * * * * * * * * * * * * * * * * * * * * //

dimensions      [0 2 -2 0 0 0 0];


internalField   nonuniform List<scalar> 
78750
(
0.00483478
0.0141009
0.0230024
0.00902216
0.0068607
0.00530094
0.00260694
0.00407406
0.00423751
0.00404971
0.003883
0.00383873
0.00382942
0.00381003
0.00377688
0.00374201
0.0037209
0.00372329
0.00375132
0.00380692
0.00389603
0.00403364
0.00425067
0.00458141
0.0050104
0.00545187
0.0057991
0.00598485
0.00598794
0.00579471
0.00530692
0.00449907
0.00386537
0.00357947
0.00256599
0.25504
0.251658
0.195399
0.16101
0.12644
0.0989837
0.0747062
0.0528446
0.0301241
0.0134393
0.0070684
0.00592071
0.00602386
0.00610359
0.00594847
0.00556564
0.00503817
0.0044945
0.00399791
0.0035328
0.00308547
0.00263958
0.00228448
0.00215116
0.00224106
0.00249351
0.00285205
0.0032474
0.0036744
0.00439343
0.00540898
0.00599278
0.00544826
0.00409393
0.00118336
0.0675779
0.0894521
0.0893832
0.085346
0.0797457
0.073177
0.0655301
0.0568539
0.0479361
0.0402709
0.0342344
0.0294921
0.0255637
0.0222034
0.0193578
0.0167182
0.0139614
0.01138
0.00934511
0.00758712
0.00579671
0.00395797
0.00237252
0.00166056
0.00169276
0.00204466
0.00255857
0.00326889
0.00411248
0.00490291
0.0055249
0.00589202
0.00580324
0.00499993
0.00232608
0.0200591
0.0332209
0.0377795
0.0402445
0.0417213
0.0424301
0.0422929
0.0413564
0.0398177
0.0378917
0.0357432
0.0334507
0.0310621
0.0287244
0.0266952
0.0248987
0.0222277
0.0178034
0.013335
0.010474
0.00892629
0.00784239
0.00692536
0.00622711
0.00582271
0.0056196
0.00555026
0.00553104
0.00544299
0.00535785
0.00534927
0.00532122
0.00513017
0.00454326
0.00226983
0.00409408
0.0113903
0.01438
0.0162809
0.0176152
0.0185072
0.0190262
0.0192308
0.0191806
0.0189209
0.0184748
0.0178467
0.017049
0.0161439
0.0152043
0.0141054
0.0124436
0.00996038
0.00704011
0.00455712
0.00293294
0.00234794
0.0019355
0.00198954
0.00189054
0.00152591
0.000354388
0.00084197
0.00301693
0.00492462
0.00589505
0.00619908
0.00611989
0.00562827
0.00346702
0.000633484
0.00217935
0.00262246
0.00275711
0.00277267
0.00273992
0.00269052
0.00263979
0.00259279
0.00254977
0.00251407
0.002487
0.00247333
0.00248165
0.00253017
0.00261979
0.00273056
0.00284165
0.00294781
0.00307309
0.00310654
0.00313313
0.00316724
0.00287101
0.0029647
0.00306231
0.00159109
0.00135377
0.00342816
0.00540009
0.00627762
0.00644175
0.00624811
0.00570327
0.00417069
0.00226169
0.00373928
0.00421949
0.00444372
0.00456825
0.0046562
0.0047232
0.00478006
0.00483517
0.00488642
0.00492079
0.00491974
0.00486402
0.00473739
0.00455024
0.00435245
0.00418419
0.00405808
0.00396753
0.00390449
0.00386225
0.00383956
0.00385879
0.00394113
0.00389478
0.00349945
0.00348817
0.00446858
0.00575076
0.00656461
0.00680182
0.00670176
0.006431
0.00594733
0.00488925
0.00368131
0.00405532
0.00400877
0.00387463
0.00371513
0.0035524
0.00342119
0.00339577
0.00353467
0.00382296
0.004185
0.00455773
0.00493139
0.00524544
0.00534469
0.00524089
0.00503866
0.00480241
0.00456027
0.00428704
0.00398323
0.00375413
0.00364548
0.00359048
0.00357248
0.00377242
0.0042657
0.00488689
0.00546496
0.00583684
0.00596013
0.00592245
0.00581635
0.00568699
0.00567426
0.0036837
0.00442632
0.00461002
0.00467824
0.00469272
0.00470043
0.00480865
0.00498455
0.00506736
0.00507522
0.00508501
0.0051229
0.00519328
0.00529325
0.00539583
0.00531789
0.00500327
0.00455624
0.00415596
0.00394855
0.00369579
0.00331399
0.00292694
0.00266638
0.00268549
0.00308216
0.00364274
0.00412843
0.00451558
0.00480801
0.00499641
0.0051086
0.00522256
0.00547839
0.00626514
0.00343898
0.00401509
0.00416728
0.00418416
0.004115
0.0039557
0.00369662
0.00336407
0.00301761
0.00269292
0.0024238
0.00223619
0.00208681
0.00194633
0.00243307
0.0037014
0.00445255
0.00448659
0.00430696
0.00425272
0.00427954
0.00413706
0.00384016
0.00355042
0.00344724
0.00362354
0.00397684
0.00436131
0.00471614
0.00502401
0.00527903
0.00547654
0.00564267
0.00590154
0.00629611
0.00439251
0.00461195
0.00465302
0.00459292
0.00441619
0.00409457
0.00365216
0.00319236
0.00279774
0.00255505
0.00270465
0.0034809
0.00470431
0.00576841
0.00608069
0.00576663
0.00522383
0.00459452
0.00406444
0.00392546
0.00414058
0.0044231
0.0046662
0.00488153
0.00509099
0.00529623
0.00546794
0.00557421
0.00560263
0.00555565
0.00544137
0.00527453
0.00509759
0.0049708
0.00452253
0.00284127
0.00398763
0.00433606
0.00453888
0.00470268
0.00481315
0.00483882
0.00475603
0.00455322
0.00422465
0.0037902
0.00337115
0.00320046
0.00344559
0.00410364
0.00501639
0.00578723
0.00608209
0.00589746
0.00547503
0.00505606
0.00475479
0.00460512
0.00459708
0.00469351
0.00485035
0.00502746
0.00519068
0.00530941
0.00535669
0.00531113
0.00515336
0.004872
0.0044361
0.00325465
0.00394005
0.00462321
0.00467668
0.00458863
0.00443012
0.0042201
0.00397149
0.00369814
0.00340453
0.00308304
0.00272997
0.00236741
0.00207354
0.00200951
0.00239125
0.00326561
0.0044087
0.00550472
0.00628085
0.00665781
0.00669645
0.0065024
0.00619511
0.00587012
0.00557707
0.00532947
0.00512257
0.00494711
0.00479267
0.00464236
0.00446516
0.00420597
0.00379526
0.00322649
0.00234047
0.00286246
0.00406472
0.00444551
0.00467451
0.00487654
0.00506063
0.00520701
0.00528541
0.00527377
0.00515739
0.00490979
0.0045082
0.00401388
0.00356523
0.00327523
0.00320047
0.00337959
0.00384901
0.00456524
0.00539438
0.00618508
0.00682504
0.00725248
0.00745289
0.00745659
0.00732015
0.00709462
0.00680586
0.00645452
0.00602182
0.0054869
0.00487343
0.00426266
0.00365113
0.00257014
0.00416275
0.00485699
0.00482809
0.00470065
0.00453919
0.00436542
0.00420644
0.00409143
0.00401614
0.00394712
0.00385368
0.00370706
0.0034787
0.00317181
0.00284509
0.00258811
0.00246841
0.00253487
0.00281204
0.00329815
0.00396526
0.00476115
0.0056186
0.00646708
0.00723505
0.00785768
0.00829957
0.00856789
0.00868998
0.00868532
0.00855715
0.00828268
0.00769593
0.00650612
0.00318656
0.00377978
0.00441733
0.00461244
0.00471534
0.00478871
0.00484676
0.00489767
0.00494316
0.0049609
0.00492884
0.00485187
0.0047439
0.00460718
0.00442753
0.00418333
0.00387677
0.0035458
0.00324838
0.00303675
0.00294237
0.00297795
0.00314836
0.00344003
0.00381643
0.00423995
0.00466658
0.00506275
0.0054102
0.00571088
0.00600533
0.00630884
0.00637585
0.00626189
0.00598411
0.004773
0.00494296
0.00510209
0.00493518
0.00476544
0.0045831
0.00438337
0.00419161
0.00406687
0.00400188
0.00392899
0.00381237
0.00365253
0.00346405
0.00327032
0.0031127
0.00301201
0.00294444
0.00288448
0.00282376
0.00276769
0.00272637
0.00271246
0.00274796
0.00283914
0.00294581
0.00304134
0.00312935
0.00322282
0.00331046
0.00336265
0.00335282
0.00421623
0.00610372
0.00739194
0.00809392
0.00412061
0.00456384
0.00471352
0.00477046
0.00477473
0.00472574
0.00463194
0.0045576
0.00455742
0.00457813
0.00455366
0.00446713
0.0043136
0.00407209
0.00372884
0.00334662
0.00302232
0.00278464
0.00261406
0.00248718
0.00238977
0.00231157
0.00223942
0.00228053
0.00254757
0.00290295
0.0032278
0.00348729
0.00362846
0.00362044
0.00361021
0.00452571
0.00606656
0.00704338
0.00727005
0.00503548
0.00529941
0.00521469
0.0050821
0.00489866
0.00464704
0.00431967
0.0039707
0.00372515
0.00362349
0.00358376
0.00353703
0.00346073
0.00335493
0.00322654
0.00308181
0.00292984
0.00278224
0.00264779
0.00253102
0.0024311
0.002342
0.00229092
0.00238466
0.00264966
0.0030125
0.00344179
0.00389333
0.00418955
0.00423053
0.00409469
0.00391322
0.00411054
0.0048582
0.00649923
0.00407092
0.00485138
0.00510368
0.00519898
0.00521817
0.00516219
0.00500501
0.00471361
0.00439285
0.00422335
0.00415078
0.00404852
0.0038746
0.0036302
0.00333774
0.00304491
0.00279862
0.00261423
0.00248163
0.00238677
0.00232839
0.00236665
0.00256591
0.00275756
0.00278015
0.00276004
0.00280575
0.002982
0.00329208
0.00349744
0.00346344
0.00344753
0.00450317
0.00627982
0.00960826
0.00537423
0.0056852
0.00565181
0.00556363
0.00542549
0.0052112
0.00488045
0.00440079
0.00385262
0.00351348
0.00349242
0.00358149
0.00360827
0.00353387
0.00337509
0.00315384
0.00290368
0.00266867
0.00248133
0.0023787
0.00248322
0.00295223
0.00362701
0.00399876
0.00385244
0.00347002
0.00294015
0.0024042
0.00232365
0.00276368
0.00333386
0.00424077
0.00569618
0.00736658
0.00933732
0.00469651
0.00519262
0.00536842
0.0054506
0.0054847
0.00545915
0.00534308
0.00508591
0.0046409
0.00413118
0.0038263
0.00371756
0.00365867
0.00357043
0.00343053
0.00324124
0.00301746
0.00278454
0.00258058
0.00246949
0.00258368
0.00309504
0.00394767
0.0047202
0.00507324
0.0050686
0.00479454
0.00433906
0.00398502
0.0040012
0.00435295
0.00496535
0.00574194
0.00636916
0.0055374
0.00572763
0.00584604
0.00577698
0.00568562
0.00555316
0.00534751
0.00502916
0.00458425
0.00409174
0.00370724
0.00355966
0.00359612
0.00366396
0.00368036
0.00363372
0.00352834
0.0033709
0.00317665
0.00297211
0.00279769
0.00272009
0.00284906
0.00327954
0.0039301
0.00458266
0.00514112
0.00560227
0.00598296
0.00630555
0.00653376
0.00667723
0.00677693
0.00674436
0.00629369
0.00401296
0.00503561
0.00537348
0.00552741
0.00562134
0.00567943
0.00567511
0.00556064
0.00527822
0.00480125
0.00424228
0.00384217
0.00369783
0.0036968
0.00372129
0.00372422
0.00369298
0.00362314
0.00351784
0.00338633
0.00324044
0.00309714
0.00298607
0.00295467
0.00304832
0.00327121
0.00359742
0.00399841
0.00445422
0.00499646
0.00569071
0.00632119
0.00656622
0.00641023
0.00594941
0.00522187
0.00549588
0.00578892
0.00581376
0.00579501
0.00574678
0.00565367
0.00548225
0.00518818
0.00475048
0.0042194
0.0037728
0.00358455
0.00360112
0.00368059
0.00374366
0.00377365
0.00376896
0.00373309
0.00367239
0.0035932
0.00350078
0.0034007
0.00330081
0.00321329
0.0031561
0.00313156
0.00309421
0.00304463
0.00321737
0.00357772
0.0037431
0.00423531
0.00538293
0.00661338
0.00938635
0.00509314
0.00557233
0.00574027
0.00583326
0.00590563
0.00595773
0.0059585
0.00584726
0.0055562
0.00502943
0.00432461
0.00375416
0.00353215
0.00354537
0.00362259
0.00368865
0.00372456
0.00372927
0.00370818
0.00366826
0.00361484
0.00355208
0.00348411
0.00341576
0.00333876
0.00321223
0.00306193
0.00307119
0.00312514
0.00272162
0.00291588
0.00460807
0.00660164
0.00849219
0.011596
0.00576615
0.00599169
0.00599532
0.00596207
0.00591345
0.00585441
0.0057843
0.00567446
0.00547763
0.00514182
0.00460643
0.00394776
0.00350078
0.00339748
0.00346518
0.00355706
0.00362022
0.00364586
0.00364034
0.00361251
0.00356961
0.00351824
0.00346454
0.00340818
0.00337289
0.00352932
0.0038263
0.00377656
0.00317515
0.00288199
0.00401721
0.00569963
0.00705848
0.00804135
0.00818617
0.00595823
0.00600464
0.00602157
0.00602899
0.00603606
0.00604681
0.00603859
0.00595414
0.00575303
0.00542447
0.00493507
0.00425532
0.003604
0.00331986
0.00333181
0.00342519
0.003504
0.00354252
0.00354271
0.00351519
0.00347048
0.00342012
0.00339218
0.00350573
0.00400631
0.00483817
0.00527624
0.00485799
0.00418666
0.00425046
0.00521988
0.00622558
0.00696725
0.00707109
0.0049805
0.00678965
0.00624466
0.00605177
0.00594555
0.00586978
0.00582958
0.00580557
0.0057368
0.00558601
0.00533885
0.0049711
0.00443364
0.00377374
0.0033242
0.00324506
0.00332931
0.00342589
0.0034857
0.00350132
0.0034785
0.00342924
0.0033776
0.00339325
0.00366152
0.0044381
0.0056295
0.00648488
0.00651454
0.00629277
0.00645756
0.0069867
0.00750762
0.00782759
0.00739766
0.00420455
0.00679676
0.00604193
0.00586472
0.00579895
0.00579165
0.00585281
0.00589751
0.00582318
0.00563858
0.00537194
0.00501674
0.00454384
0.0039607
0.00344366
0.00323799
0.00326913
0.00336354
0.00344421
0.0034882
0.00349104
0.00345761
0.00340353
0.00337484
0.00349334
0.00398053
0.00497374
0.0061467
0.00693764
0.00737373
0.00777309
0.0081726
0.00845466
0.00845818
0.00760985
0.00416497
0.00655084
0.00580446
0.00561377
0.00550913
0.00543526
0.00543719
0.00552019
0.00557498
0.00552325
0.00536232
0.00509727
0.00471548
0.00421514
0.00368637
0.00334306
0.00326169
0.00331732
0.00340235
0.00347289
0.00351329
0.00351685
0.00348493
0.0034321
0.0034042
0.00351286
0.00393266
0.00473387
0.0056866
0.00650813
0.00713478
0.00757985
0.00781555
0.00771599
0.00679834
0.00395022
0.00584559
0.00563326
0.00558487
0.00553176
0.0054442
0.0053393
0.00530662
0.00537227
0.00541693
0.00535657
0.00518356
0.00489632
0.00448598
0.00399092
0.00355805
0.00333636
0.00330468
0.00335782
0.00343222
0.00349886
0.00354169
0.0035515
0.00352596
0.00347414
0.00343093
0.00348035
0.00374876
0.00429273
0.00498581
0.00561332
0.00605973
0.00629461
0.00623121
0.00551134
0.00356905
0.00553276
0.0056106
0.00558841
0.00551548
0.00537889
0.0051662
0.00494072
0.00489033
0.00502442
0.0051348
0.00511815
0.0049731
0.00470227
0.00431029
0.00386841
0.00352746
0.00337295
0.00335177
0.0033937
0.00345891
0.00352364
0.00357148
0.00359023
0.00357247
0.00352073
0.00345929
0.00345165
0.0035908
0.00391715
0.00433041
0.0046737
0.00486749
0.00484786
0.00437776
0.00322996
0.00549596
0.00573014
0.00576054
0.00573163
0.00563786
0.00544119
0.00510292
0.0047521
0.00469863
0.00486244
0.00497837
0.00496456
0.00482822
0.00457284
0.0042113
0.00382951
0.00355728
0.00342815
0.00339728
0.00342101
0.00347202
0.00353205
0.00358553
0.00361649
0.00361078
0.00356349
0.00349037
0.00343899
0.00347562
0.00361779
0.00378988
0.00390296
0.00389802
0.00363209
0.00301627
0.00563786
0.0056789
0.00565652
0.00562126
0.00555455
0.00542153
0.00517013
0.00477123
0.00445764
0.0044995
0.00468234
0.00478194
0.00476018
0.00462939
0.00439658
0.00409359
0.00380574
0.00360432
0.00349552
0.00345394
0.00345608
0.00348689
0.00353598
0.00359121
0.00363457
0.00364448
0.00360769
0.00353173
0.00345108
0.0034114
0.00342031
0.00343672
0.00341153
0.0032523
0.00288852
0.00565443
0.00565105
0.00560933
0.0055647
0.00550258
0.00540011
0.00522092
0.00491483
0.00449608
0.00427838
0.00439255
0.00456886
0.0046496
0.00462126
0.00449528
0.00428872
0.0040465
0.00382728
0.00366649
0.00356493
0.00350917
0.00348719
0.00349377
0.0035267
0.00357986
0.00363561
0.0036648
0.00364588
0.0035774
0.00348567
0.00340315
0.00333575
0.00325814
0.00309923
0.00277623
0.00560821
0.00559763
0.00554704
0.00548881
0.005412
0.00530328
0.00514544
0.00491398
0.00456399
0.00416767
0.00406656
0.00424763
0.00443149
0.0045113
0.00448904
0.00438438
0.0042246
0.00404283
0.00387488
0.00374008
0.00363964
0.00356634
0.00351661
0.00349316
0.00350248
0.0035463
0.00360861
0.00365485
0.0036517
0.00359157
0.00349353
0.00337809
0.00324012
0.00302192
0.00265535
0.00565883
0.00566836
0.00563517
0.00558624
0.00550905
0.00538652
0.00520449
0.00496303
0.00465072
0.00423168
0.00387254
0.00389306
0.00412298
0.00430697
0.0043873
0.00438183
0.00431284
0.00419905
0.00406538
0.00393528
0.0038197
0.00371737
0.00362543
0.0035454
0.00348605
0.00346204
0.00348311
0.00353529
0.00357697
0.00356718
0.00349526
0.00337247
0.00319854
0.00292686
0.00253422
0.00584026
0.00570232
0.00564247
0.00558918
0.00551405
0.00539226
0.00520077
0.00494193
0.00463714
0.00427956
0.00386351
0.00365542
0.00381336
0.00405822
0.00422391
0.00430389
0.00431694
0.00427714
0.0042001
0.00410406
0.00400293
0.0039001
0.00379402
0.00368349
0.00357241
0.00347341
0.00340685
0.00338723
0.00339989
0.00340081
0.00335347
0.00324995
0.00308278
0.00280808
0.00243793
0.00587193
0.00566273
0.00560871
0.00556889
0.00550797
0.00539703
0.00520578
0.00492466
0.00458286
0.00422281
0.00385544
0.00355164
0.00356442
0.00380022
0.00401969
0.00416514
0.00424491
0.00427195
0.00425724
0.0042122
0.00414831
0.00407043
0.00397817
0.00386879
0.00374121
0.00360017
0.00346029
0.00334464
0.00326869
0.00321901
0.00316252
0.00307691
0.00294322
0.00271236
0.00238492
0.00582494
0.00567632
0.0056637
0.00565103
0.00561084
0.00551436
0.00532926
0.00503593
0.00464754
0.00421823
0.0038156
0.00349565
0.00338911
0.00355656
0.00379125
0.00397908
0.00410775
0.00418735
0.00422771
0.00423684
0.00422213
0.00418734
0.00413185
0.00405179
0.00394285
0.00380344
0.00363871
0.00346468
0.00330608
0.00318019
0.00308162
0.00299108
0.00288146
0.00269718
0.00238743
0.00568429
0.00571517
0.0057801
0.00581291
0.00580891
0.00574311
0.00558388
0.00530749
0.00491342
0.00443192
0.00393065
0.00350689
0.00327098
0.00331957
0.00353157
0.00374405
0.00390913
0.00402848
0.00411205
0.00416783
0.00420219
0.00421766
0.00421248
0.00418117
0.00411676
0.00401357
0.00386998
0.0036928
0.00350148
0.0033241
0.00317963
0.00306415
0.00295058
0.00277737
0.00243516
0.00569195
0.00587341
0.00599976
0.00607117
0.00610058
0.0060671
0.00594052
0.00569414
0.00532224
0.00484178
0.00428735
0.00372802
0.0032914
0.00312824
0.00324499
0.00345652
0.0036495
0.00380016
0.00391557
0.0040058
0.00408014
0.00414197
0.00418941
0.00421558
0.00421066
0.00416476
0.00407123
0.00393003
0.00375259
0.00356422
0.00339316
0.00324947
0.00311208
0.00291299
0.00249762
0.00564339
0.00598481
0.00619423
0.00632092
0.00639841
0.00641044
0.00632958
0.00612831
0.00579757
0.0053531
0.00481941
0.0042198
0.00361531
0.00316365
0.00303526
0.00316175
0.00335641
0.00352786
0.0036638
0.00377442
0.00387338
0.00396749
0.00405727
0.00413619
0.0041929
0.00421403
0.00418618
0.0041026
0.00396657
0.00379674
0.003621
0.00345688
0.00328997
0.00304434
0.00253504
0.00578202
0.00621417
0.00647176
0.00663491
0.00674835
0.00679787
0.00675587
0.00659244
0.00629517
0.00588039
0.00538038
0.0048158
0.00419109
0.00355649
0.00309584
0.00297813
0.00309269
0.00325919
0.00340362
0.00352206
0.00362918
0.00373617
0.00384865
0.00396291
0.00406709
0.004147
0.00418697
0.00417112
0.00409224
0.00395962
0.00379662
0.00362298
0.00342804
0.00312602
0.00251916
0.00592075
0.00634615
0.00661663
0.006802
0.00694913
0.00704389
0.00705548
0.00694867
0.0067059
0.00633959
0.00588359
0.00536885
0.0048012
0.00416921
0.0035237
0.00307393
0.00296283
0.00305483
0.00318487
0.0032993
0.00340157
0.00350395
0.00361756
0.00374527
0.00387593
0.00399193
0.00407864
0.00412001
0.00409927
0.00401308
0.00387627
0.00370659
0.00349302
0.00314009
0.00245839
0.00617503
0.00647657
0.00670717
0.00688478
0.00704535
0.00717281
0.0072309
0.00717653
0.0069874
0.00667527
0.00627394
0.00581633
0.00531662
0.00476203
0.0041331
0.00349712
0.00308136
0.00298243
0.00304709
0.00314023
0.00322795
0.00331437
0.00341153
0.00353038
0.00366755
0.00380081
0.00390791
0.0039761
0.0039916
0.00394362
0.00383696
0.00368374
0.0034697
0.00309354
0.00238203
0.00626509
0.00643917
0.00663537
0.00680856
0.00698691
0.00715423
0.00726762
0.00727427
0.00714772
0.00689886
0.00655926
0.00616162
0.00572481
0.00524577
0.00470003
0.00407549
0.00347361
0.00311295
0.00303018
0.0030681
0.00312876
0.00319228
0.00326308
0.00335456
0.00347577
0.00361245
0.00372974
0.0038041
0.0038279
0.00379625
0.00371115
0.0035794
0.00338355
0.0030224
0.00232178
0.00629029
0.00635218
0.00651181
0.00667591
0.00686757
0.00707257
0.00724111
0.00730912
0.00724672
0.00706576
0.00679486
0.00646193
0.00608614
0.00567141
0.00520209
0.00465085
0.00402743
0.00347159
0.00317111
0.00309722
0.00311009
0.00314481
0.00318697
0.00324342
0.00332894
0.003448
0.00357194
0.00365627
0.00368297
0.00365556
0.00358247
0.00347062
0.00330223
0.00297948
0.00229568
0.00611601
0.00611764
0.00626041
0.00642432
0.00663465
0.00688308
0.00711724
0.00726239
0.00727992
0.00717812
0.00698355
0.00672068
0.00640704
0.0060509
0.00564644
0.00517161
0.00460527
0.00399114
0.00349334
0.00324716
0.00317502
0.00316806
0.00318113
0.00320515
0.00324954
0.0033299
0.0034429
0.00354454
0.00358947
0.00357397
0.00351371
0.00341995
0.00327778
0.00299267
0.00230715
0.00589123
0.00588716
0.00601774
0.00617254
0.00638029
0.00664364
0.00692428
0.00714794
0.00725906
0.00724925
0.00713872
0.00695093
0.00670359
0.0064074
0.00606359
0.00565939
0.00516975
0.00458629
0.00398669
0.0035468
0.003335
0.00325782
0.00323512
0.003231
0.0032408
0.00327685
0.00335462
0.00345899
0.00353372
0.00354601
0.00350756
0.0034341
0.00331534
0.00305932
0.00235567
0.00565113
0.00569173
0.00581812
0.00595712
0.00613855
0.00637555
0.00665968
0.00693968
0.00714617
0.0072405
0.00722492
0.0071194
0.00694355
0.0067112
0.00642897
0.00609281
0.00568426
0.0051776
0.00457874
0.00400049
0.00360933
0.00341649
0.00333653
0.00330183
0.00328524
0.00328626
0.00332105
0.00340211
0.00349616
0.00354375
0.00353361
0.00348143
0.00338151
0.00314279
0.00241305
0.00552393
0.00561567
0.00573811
0.00585564
0.00599404
0.00616777
0.00639494
0.00666975
0.00693779
0.00713117
0.00721813
0.00720369
0.00710626
0.00694284
0.00672457
0.00645462
0.0061244
0.0057107
0.00518688
0.00457797
0.00402579
0.00366661
0.00348639
0.00340304
0.00335874
0.00333334
0.00333203
0.00337596
0.00346599
0.00354415
0.003564
0.00353103
0.00344329
0.00320867
0.00244899
0.00549378
0.00562911
0.00576026
0.00587091
0.00598221
0.00609921
0.00624234
0.00644308
0.00669778
0.0069453
0.00711987
0.00719556
0.00717895
0.00708672
0.00693324
0.00672653
0.00646588
0.006137
0.00571193
0.00516856
0.00455628
0.00403352
0.00370526
0.00353704
0.00345029
0.003398
0.00336748
0.00337302
0.00343672
0.00352705
0.0035716
0.00355319
0.00346995
0.00322543
0.00243065
0.00553592
0.00569946
0.00584737
0.0059653
0.00607146
0.00615976
0.0062378
0.00634347
0.00651935
0.00675141
0.00697107
0.00711919
0.00717732
0.00715351
0.0070623
0.00691487
0.00671462
0.00645525
0.00611773
0.00567246
0.0051092
0.0045089
0.00402403
0.00372687
0.00356761
0.00347614
0.00341607
0.00338523
0.00340774
0.00348239
0.00353681
0.00352724
0.00344527
0.00318767
0.00236678
0.00560142
0.00578676
0.00595392
0.00608539
0.00619815
0.00627807
0.00632081
0.00635453
0.00643668
0.0066013
0.00681395
0.00700362
0.00712306
0.00716198
0.00712931
0.00703635
0.00688933
0.00668715
0.00641871
0.00606133
0.00558986
0.00501767
0.00444335
0.00400437
0.00373749
0.0035841
0.00348597
0.00341847
0.00339208
0.00342242
0.00346178
0.00345243
0.00337308
0.00311433
0.00229305
0.00565139
0.00587158
0.00606121
0.00620849
0.00633111
0.00640907
0.00643027
0.00641451
0.00641721
0.00649693
0.00666296
0.00686086
0.00702456
0.00712006
0.00714368
0.00710281
0.00700522
0.00685341
0.00664189
0.00635574
0.00597287
0.0054796
0.00491074
0.00437739
0.00398846
0.00374632
0.00359502
0.00348887
0.00341571
0.00338841
0.00338901
0.00336751
0.00328993
0.00304325
0.00224099
0.00568995
0.00595426
0.00616561
0.00632981
0.00646643
0.00654972
0.00655941
0.00650714
0.00644298
0.00643376
0.00652326
0.00669326
0.00687818
0.00702127
0.0070996
0.00711142
0.00706336
0.00696011
0.00680018
0.00657447
0.00626663
0.00585898
0.00535287
0.00480598
0.00432728
0.00398363
0.00375955
0.00360683
0.00349262
0.00341366
0.00336759
0.0033234
0.00324135
0.00300722
0.0022208
0.00570545
0.00599466
0.0062191
0.00639872
0.006555
0.00665773
0.00667787
0.00661573
0.00651041
0.00642472
0.00642094
0.00652391
0.0066946
0.00686579
0.00699165
0.00705489
0.00705673
0.00700193
0.00689152
0.00672024
0.00647624
0.00614495
0.00571775
0.00521609
0.00471269
0.00429209
0.00398819
0.00377817
0.00362373
0.00350464
0.00341757
0.00334585
0.00325045
0.00301684
0.00222656
0.00566587
0.00596655
0.00619879
0.00639091
0.00656626
0.00669289
0.00673695
0.00668971
0.00657731
0.00644912
0.00636488
0.00637804
0.00649458
0.00666293
0.00682063
0.00692943
0.00697946
0.00697231
0.00690968
0.00678842
0.00660001
0.00633384
0.00598084
0.00554702
0.00507209
0.0046237
0.00425972
0.00399199
0.00379631
0.00364538
0.00352751
0.0034297
0.00331485
0.00306689
0.00224814
0.00555079
0.00588614
0.00613512
0.00634278
0.0065361
0.00668323
0.00674983
0.00672306
0.00662004
0.00647731
0.00634113
0.00626776
0.00630013
0.0064277
0.00659217
0.0067349
0.00682854
0.00686696
0.00685001
0.00677514
0.00663643
0.00642659
0.00613873
0.00577424
0.00535364
0.00492171
0.00453384
0.00422438
0.00399112
0.00381141
0.00366806
0.00354587
0.00340753
0.00313249
0.00226531
0.0053829
0.00578612
0.00606352
0.00629171
0.00650417
0.00667029
0.00675694
0.00674903
0.00665734
0.0065102
0.00634285
0.00619975
0.00613509
0.00618275
0.00631801
0.00647518
0.00660437
0.00668513
0.00671161
0.0066801
0.00658668
0.00642661
0.00619543
0.00589416
0.00553366
0.00514261
0.00476518
0.00444199
0.00418692
0.00398642
0.00382223
0.00367698
0.00351143
0.0031962
0.0022567
0.00521915
0.0057018
0.00601142
0.00626222
0.0064957
0.00668312
0.0067924
0.00680579
0.0067277
0.00658011
0.00639223
0.00619679
0.00603918
0.00597511
0.00603151
0.00616792
0.00631675
0.00643426
0.00650189
0.00651154
0.00646033
0.00634526
0.00616392
0.00591711
0.00561169
0.00526757
0.00491975
0.00460751
0.00435096
0.00414162
0.0039621
0.00379458
0.00359662
0.00322475
0.0021924
0.00508063
0.00563189
0.00597118
0.00624472
0.00650204
0.00671602
0.0068547
0.00689756
0.00684273
0.00670517
0.00650966
0.0062824
0.00605485
0.00587492
0.0058031
0.00585972
0.00599258
0.00613282
0.00623707
0.00628616
0.00627476
0.00620042
0.00606215
0.00586022
0.0055999
0.00529752
0.0049843
0.00469805
0.00445827
0.00425451
0.00406835
0.00388222
0.00364949
0.00320954
0.00208277
0.00498165
0.00557483
0.00593554
0.00622949
0.00651284
0.00675911
0.00693427
0.00701466
0.00699367
0.00687968
0.00669203
0.00645447
0.00618911
0.00592631
0.00571794
0.00563162
0.00568212
0.00580972
0.00593965
0.00602654
0.00605456
0.00601908
0.00591896
0.00575343
0.00552664
0.00525331
0.00496434
0.00469954
0.00447885
0.00428786
0.00410398
0.00390765
0.00364706
0.0031467
0.00195787
0.00489959
0.00550107
0.00587314
0.00618411
0.00649604
0.00678284
0.00700562
0.00713491
0.00716
0.00708468
0.00692242
0.00669362
0.00641868
0.00611893
0.00582127
0.00558131
0.0054717
0.00551206
0.00563459
0.00575195
0.00582084
0.00582734
0.00576667
0.0056364
0.00543851
0.00518498
0.00490536
0.00464279
0.0044243
0.00423875
0.00405976
0.00386284
0.00359138
0.0030637
0.00186719
0.00483272
0.00540691
0.00577793
0.00609858
0.00643639
0.00676783
0.00704777
0.00723713
0.00731944
0.00729578
0.00717573
0.00697447
0.00671165
0.00640697
0.00607785
0.00574842
0.00547298
0.00533573
0.00536546
0.00547845
0.0055834
0.00563687
0.0056224
0.00553425
0.00537128
0.00514071
0.00486651
0.00459139
0.00435341
0.00415557
0.00397445
0.00378109
0.00351602
0.00300007
0.00183511
0.00478889
0.00530519
0.00566539
0.00598789
0.00634498
0.00671959
0.00706151
0.00731869
0.00746527
0.0074999
0.00743173
0.00727277
0.00703818
0.00674649
0.00641623
0.00606169
0.00570143
0.00539307
0.00523471
0.00525091
0.00535283
0.00544691
0.00548523
0.00545054
0.00533647
0.00514431
0.0048896
0.00460844
0.00434523
0.0041216
0.00392621
0.00373074
0.00347539
0.00298672
0.00185687
0.00479938
0.00523895
0.00558341
0.00590099
0.00626686
0.00667499
0.00707496
0.00740072
0.00761266
0.00770459
0.00768711
0.00757354
0.00737628
0.00710957
0.00679086
0.00643686
0.00605736
0.00567127
0.00534252
0.00516941
0.00517364
0.00526566
0.00534622
0.00536753
0.00531187
0.00517388
0.00496045
0.00469744
0.00442675
0.00418223
0.00396789
0.00376267
0.0035101
0.00304235
0.00192593
0.00489214
0.00526518
0.00560288
0.00591664
0.00628152
0.00670421
0.0071433
0.00752514
0.00779447
0.00793609
0.00796041
0.00788403
0.00772073
0.00748181
0.00718044
0.0068331
0.00645251
0.00604921
0.0056472
0.00531265
0.00513839
0.00514
0.00521916
0.0052814
0.00528179
0.00520367
0.00504545
0.00482271
0.00456912
0.00432059
0.00409221
0.00387296
0.00361249
0.0031462
0.00201365
0.00509307
0.00544995
0.00580785
0.0061325
0.00649587
0.00690901
0.00734729
0.00774745
0.00804651
0.00821851
0.00826979
0.00821794
0.0080786
0.00786252
0.00757869
0.00723812
0.006855
0.00644397
0.00602025
0.00561215
0.00528835
0.00513565
0.00514265
0.00520687
0.00524494
0.00521862
0.00511572
0.00494235
0.00472236
0.00448695
0.0042555
0.00402543
0.0037537
0.00327785
0.00211424
0.00540301
0.00580927
0.0062162
0.00657806
0.0069611
0.00735951
0.0077581
0.00812298
0.0084035
0.00857035
0.00862439
0.00858016
0.00845222
0.00825036
0.00798056
0.00764758
0.00726151
0.00683889
0.00639891
0.00595961
0.0055581
0.00527149
0.00515991
0.00517628
0.00522148
0.00522857
0.00516965
0.0050411
0.00485739
0.00464274
0.00441614
0.00418002
0.00389674
0.0034036
0.0021975
0.00571562
0.00620068
0.00666004
0.00708343
0.00752751
0.00794617
0.00831172
0.00861978
0.00884946
0.00898255
0.00901861
0.00896728
0.00883951
0.00864344
0.00838232
0.00805628
0.00766892
0.00723317
0.00677031
0.0063019
0.00585519
0.00548493
0.00526442
0.00520229
0.00522221
0.00524043
0.00521038
0.00511706
0.00496601
0.00477402
0.0045572
0.00431997
0.00402807
0.00351765
0.00226827
0.005828
0.00638776
0.00688469
0.00738371
0.00792822
0.00841932
0.00880214
0.00908678
0.00928207
0.009389
0.00941111
0.00935469
0.00922828
0.00903805
0.00878534
0.00846852
0.00808644
0.00764411
0.00715835
0.00665326
0.00615966
0.00572629
0.00542199
0.00528317
0.0052623
0.00527259
0.0052539
0.00518129
0.00505287
0.00487914
0.00467254
0.00443712
0.00413895
0.00360996
0.00230697
0.00563154
0.0062665
0.00679636
0.00737512
0.00803336
0.00862057
0.00906178
0.00937198
0.00957701
0.00969206
0.00972573
0.00968396
0.00957414
0.00940137
0.00916706
0.00886985
0.00850669
0.00807641
0.00758557
0.00705198
0.0065059
0.00599788
0.00560326
0.00538282
0.00531555
0.00531231
0.00529784
0.00523756
0.00512415
0.00496359
0.00476506
0.00453123
0.00422643
0.00367615
0.00231626
0.00526695
0.00596497
0.00652618
0.00717622
0.00792686
0.0085879
0.00908431
0.00943673
0.00967654
0.00982387
0.00988978
0.00988066
0.00980351
0.00966255
0.00946013
0.00919627
0.00886882
0.00847469
0.00801298
0.00749099
0.00692714
0.00636175
0.00586916
0.00553779
0.00539335
0.00535932
0.00534087
0.00528711
0.00518348
0.00503235
0.00484051
0.00460905
0.0042997
0.00372996
0.00230946
0.00493341
0.00564394
0.00622308
0.00693826
0.00775409
0.0084488
0.00896782
0.00934391
0.00961041
0.00978731
0.00988542
0.00991118
0.00987017
0.00976635
0.00960225
0.00937858
0.00909415
0.00874616
0.00833161
0.00785201
0.00731499
0.00674418
0.0061952
0.00576023