/*--------------------------------*- C++ -*----------------------------------*\
| =========                 |                                                 |
| \\      /  F ield         | OpenFOAM: The Open Source CFD Toolbox           |
|  \\    /   O peration     | Version:  v2006                                 |
|   \\  /    A nd           | Website:  www.openfoam.com                      |
|    \\/     M anipulation  |                                                 |
\*---------------------------------------------------------------------------*/
FoamFile
{
    version     2.0;
    format      ascii;
    class       volScalarField;
    location    "29";
    object      omega;
}
// * * * * * * * * * * * * * * * * * * * * * * * * * * * * * * * * * * * * * //

dimensions      [0 0 -1 0 0 0 0];


internalField   nonuniform List<scalar> 
78750
(
332.611
13.0763
68.433
42.6482
11.9205
33.8181
25.6422
30.5032
30.9034
30.2377
29.7395
29.6136
29.5743
29.4951
29.3731
29.2526
29.1864
29.2025
29.3032
29.4926
29.7877
30.2316
30.9093
31.8979
33.116
34.309
35.2118
35.6844
35.6946
35.1951
33.8527
31.5219
29.6781
28.9641
401.337
1184.7
128.927
113.407
102.802
90.9014
80.3317
69.6849
58.235
43.3636
28.8471
21.4697
20.0533
20.2516
20.3268
20.0019
19.2943
18.3399
17.3526
16.4173
15.4933
14.5537
13.5599
12.7441
12.4677
12.7535
13.4211
14.2938
15.1921
16.1293
17.5886
19.3946
20.3015
19.3269
16.8389
575.635
708.159
76.9916
76.9743
75.1904
72.6271
69.4944
65.6662
61.0522
56.0011
51.3474
47.382
43.9993
40.9446
38.1359
35.5803
32.9768
30.0296
27.112
24.637
22.2332
19.4601
16.159
12.7456
11.0084
11.2337
12.2655
13.6032
15.2454
16.9738
18.4362
19.5041
20.1007
19.9357
18.5561
581.617
523.809
47.1719
50.2801
51.8578
52.7458
53.1279
52.9805
52.3376
51.3187
50.0403
48.584
46.9788
45.2451
43.5015
41.9445
40.4214
37.8332
33.5155
29.027
26.0102
24.24
22.8356
21.5485
20.5276
19.9241
19.6202
19.5289
19.4898
19.3165
19.1671
19.1623
19.1204
18.7892
17.7395
581.441
441.366
27.5875
30.9425
32.894
34.189
35.0164
35.4741
35.6323
35.5523
35.2763
34.8202
34.1794
33.3618
32.4291
31.4247
30.1247
27.9855
24.6338
20.3796
16.3362
13.4253
12.5123
11.6925
12.0422
11.6595
10.2957
5.70291
9.0155
15.1736
18.74
20.2385
20.6522
20.4897
19.6676
587.085
419.595
12.4336
13.5323
13.8385
13.8634
13.7773
13.6517
13.5212
13.3968
13.2801
13.1824
13.1123
13.0878
13.1352
13.2959
13.558
13.8671
14.1786
14.4822
14.7836
14.8391
14.9168
14.9246
14.2431
14.6265
14.4815
10.4796
10.7648
16.1387
19.569
20.8269
21.0064
20.6672
19.7653
590.171
430.656
16.1359
17.0966
17.5311
17.7712
17.9411
18.0701
18.1777
18.2785
18.3675
18.4209
18.4047
18.2838
18.0329
17.6787
17.3145
17.009
16.7805
16.6152
16.4992
16.4193
16.3832
16.4421
16.613
16.4609
15.6266
15.7889
17.8323
20.019
21.2303
21.5407
21.3628
20.9358
20.1704
593.484
439.123
16.7206
16.6368
16.3773
16.0616
15.7346
15.4727
15.4399
15.7553
16.3615
17.0808
17.7855
18.4658
19.0221
19.1897
19.0007
18.6357
18.2022
17.7512
17.2309
16.6308
16.1573
15.911
15.7624
15.6957
16.1241
17.1298
18.2839
19.275
19.8838
20.0905
20.0456
19.8951
19.7187
597.088
439.178
17.4673
17.8145
17.9425
17.9728
17.9967
18.2169
18.5663
18.7383
18.7628
18.7823
18.847
18.9656
19.1317
19.2907
19.1267
18.5477
17.7117
16.9551
16.5796
16.0902
15.2845
14.4028
13.7546
13.7555
14.6419
15.8458
16.8299
17.5757
18.1265
18.4887
18.7172
18.9478
19.4269
599.774
437.615
16.6593
16.9734
17.0164
16.8913
16.5868
16.0717
15.3795
14.6192
13.8639
13.2006
12.716
12.3231
11.9701
13.3199
16.1813
17.6186
17.6453
17.2818
17.1846
17.2755
17.0479
16.4985
15.9259
15.7013
16.0329
16.7084
17.4275
18.0731
18.6201
19.0656
19.4067
19.6911
20.1262
599.666
443.272
17.8151
17.9002
17.7951
17.4703
16.8605
15.9841
15.019
14.131
13.5294
13.8262
15.5082
17.9169
19.8457
20.4629
20.0093
19.0934
17.959
16.9125
16.5634
16.9412
17.483
17.9563
18.3718
18.7625
19.1296
19.4272
19.6069
19.6505
19.5634
19.359
19.0612
18.7427
18.5116
591.625
434.065
16.605
17.2955
17.6885
18.0016
18.2113
18.2632
18.1174
17.7511
17.1427
16.3048
15.4447
15.0561
15.545
16.8556
18.5649
19.9323
20.4786
20.234
19.5539
18.8204
18.2483
17.928
17.865
18.0006
18.2541
18.5515
18.8324
19.0442
19.1396
19.0793
18.8242
18.3413
17.5507
585.854
440.654
17.8477
17.9555
17.7977
17.5053
17.1096
16.6298
16.0858
15.4795
14.7868
13.9882
13.1194
12.3618
12.1538
13.07
15.0486
17.3503
19.3461
20.6856
21.3477
21.4713
21.2183
20.7585
20.2375
19.7406
19.2989
18.9127
18.5728
18.2663
17.9662
17.617
17.1127
16.3015
15.124
581.571
434.163
16.7563
17.506
17.9449
18.324
18.6618
18.9248
19.0636
19.0435
18.8391
18.3978
17.6638
16.7248
15.8292
15.217
15.0397
15.3926
16.3236
17.6801
19.1594
20.4976
21.5455
22.244
22.5949
22.6512
22.4941
22.1945
21.7856
21.2622
20.5856
19.7048
18.6375
17.5116
16.2886
582.912
441.89
18.2611
18.2235
18.0015
17.7134
17.399
17.1093
16.8991
16.7588
16.6239
16.4348
16.1331
15.6549
14.9941
14.261
13.6535
13.3477
13.4783
14.091
15.1309
16.4725
17.9636
19.4637
20.8618
22.0679
23.0127
23.6718
24.0762
24.2777
24.3118
24.1838
23.8454
23.0327
21.2672
585.929
439.662
17.4457
17.8247
18.0234
18.1658
18.2801
18.3815
18.4711
18.5079
18.4536
18.3171
18.1218
17.8701
17.5338
17.0674
16.4651
15.7899
15.1548
14.6776
14.4427
14.4892
14.8266
15.4104
16.1442
16.9406
17.7134
18.4093
19.0068
19.5169
20.0107
20.5142
20.662
20.6172
20.3298
593.669
446.444
18.7
18.4135
18.1151
17.7904
17.4308
17.0832
16.8566
16.7345
16.5875
16.348
16.0151
15.6143
15.1925
14.8406
14.6107
14.4543
14.3145
14.1712
14.0355
13.9301
13.8845
13.9521
14.149
14.3799
14.5836
14.7702
14.9708
15.1559
15.2509
15.2131
17.1024
20.5576
22.589
607.898
441.736
17.7133
17.9931
18.1012
18.1149
18.0351
17.8795
17.7648
17.7815
17.8249
17.7782
17.6136
17.3186
16.8439
16.1473
15.34
14.624
14.0769
13.67
13.3579
13.1118
12.9086
12.7152
12.8403
13.5453
14.4093
15.1545
15.7286
16.0302
16.0147
15.9832
17.7075
20.3166
21.8186
603.646
447.01
19.033
18.8888
18.659
18.3359
17.8833
17.2803
16.624
16.1581
15.9643
15.8827
15.7792
15.6113
15.3786
15.0934
14.7671
14.4184
14.0734
13.753
13.4694
13.2221
12.9998
12.8839
13.1414
13.7843
14.6062
15.5346
16.4744
17.071
17.1495
16.8695
16.4175
16.7736
18.2875
601.082
441.364
18.2279
18.6847
18.8553
18.8909
18.7946
18.5192
18.0034
17.4364
17.1425
17.0128
16.812
16.4613
15.9553
15.3301
14.6807
14.1142
13.676
13.3524
13.1167
12.9762
13.1027
13.6435
14.1198
14.1346
14.023
14.0518
14.385
15.0624
15.5391
15.5046
15.5631
17.7883
20.9217
614.507
448.808
19.6899
19.6454
19.5026
19.2715
18.9036
18.3185
17.4352
16.3812
15.7174
15.6959
15.8863
15.9385
15.7789
15.4368
14.9478
14.3759
13.8188
13.3601
13.1045
13.3716
14.5012
16.0058
16.815
16.5536
15.7605
14.5631
13.2026
12.9171
13.9948
15.3307
17.2176
19.819
22.4184
612.299
444.96
18.8516
19.1695
19.3183
19.3837
19.347
19.1543
18.7101
17.9092
16.9549
16.3698
16.1606
16.0443
15.8632
15.5697
15.1625
14.6652
14.127
13.6346
13.3485
13.5964
14.7428
16.5282
18.0456
18.7519
18.8187
18.4044
17.6322
16.9822
16.9898
17.6245
18.698
19.9752
20.9177
595.905
450.841
19.9666
19.8619
19.7156
19.4983
19.1538
18.6068
17.8133
16.889
16.1283
15.8302
15.9109
16.0544
16.0911
15.9985
15.7835
15.455
15.0384
14.5838
14.176
13.9664
14.2078
15.0953
16.4037
17.6624
18.7028
19.5477
20.2471
20.8444
21.2734
21.5355
21.6894
21.605
20.8628
589.683
447.047
19.181
19.4486
19.6112
19.7121
19.7073
19.5166
19.036
18.1976
17.1697
16.4017
16.12
16.1216
16.1725
16.1791
16.1167
15.9758
15.7608
15.4878
15.1784
14.8645
14.606
14.5048
14.6649
15.0991
15.7415
16.5129
17.3569
18.3376
19.571
20.6405
21.0556
20.8731
20.2504
595.96
449.623
19.8689
19.918
19.8931
19.8182
19.6664
19.3781
18.8691
18.0851
17.0955
16.2358
15.8756
15.9221
16.0877
16.2146
16.2731
16.2617
16.188
16.064
15.902
15.7112
15.5016
15.2878
15.0936
14.9575
14.8808
14.7568
14.6082
14.9863
15.6857
15.9563
17.1041
19.4002
21.5573
614.216
447.307
19.5035
19.7958
19.9582
20.0852
20.1771
20.1814
19.9957
19.4992
18.571
17.2748
16.183
15.7596
15.8029
15.9652
16.0981
16.167
16.1721
16.1251
16.0399
15.9271
15.7949
15.6515
15.5065
15.3374
15.0554
14.7506
14.8245
14.8663
13.8526
14.531
18.1242
21.4299
24.1237
621.641
450.97
20.1826
20.2049
20.161
20.0913
20.0054
19.9008
19.725
19.3925
18.8019
17.8196
16.5557
15.6703
15.4785
15.6321
15.8248
15.9519
15.9997
15.9829
15.9205
15.827
15.7163
15.6012
15.4836
15.4445
15.8727
16.5344
16.3691
15.0243
14.4356
16.9105
19.878
21.9576
23.3014
606.691
451.976
20.2163
20.2658
20.2893
20.3105
20.3372
20.3322
20.2014
19.8733
19.3172
18.4512
17.179
15.8857
15.3043
15.3421
15.5452
15.7112
15.7899
15.7871
15.7252
15.6264
15.5158
15.4591
15.726
16.803
18.4453
19.2822
18.5795
17.3639
17.4904
19.187
20.7983
21.9128
22.0297
593.54
456.556
20.6128
20.3251
20.1651
20.0528
19.9977
19.9672
19.8609
19.6138
19.1953
18.5501
17.5598
16.2625
15.3214
15.1522
15.3374
15.5467
15.6757
15.7096
15.6609
15.554
15.4384
15.4594
15.9942
17.4938
19.6375
21.1361
21.3086
21.0393
21.3151
22.0971
22.8365
23.2683
22.6141
590.535
456.814
20.3231
20.0463
19.9472
19.9463
20.0585
20.1394
20.02
19.7135
19.2615
18.643
17.7851
16.6619
15.5937
15.1443
15.2091
15.4138
15.5886
15.6852
15.6949
15.6268
15.5101
15.4342
15.6403
16.551
18.3472
20.3602
21.6992
22.44
23.0641
23.6412
24.0292
24.0209
22.8076
590.347
455.589
19.9329
19.62
19.4521
19.3426
19.3677
19.5233
19.6174
19.5264
19.2485
18.7857
18.1005
17.1615
16.1075
15.3817
15.2013
15.3195
15.5019
15.6535
15.7419
15.7536
15.6899
15.5769
15.5009
15.6795
16.4482
17.8993
19.5577
20.9268
21.9224
22.5992
22.9499
22.815
21.4744
589.243
451.708
19.6381
19.5593
19.4765
19.3406
19.1842
19.1567
19.2836
19.3576
19.2477
18.9425
18.4298
17.6748
16.7208
15.8406
15.3695
15.2989
15.4112
15.5692
15.7108
15.8031
15.8274
15.7777
15.6689
15.5656
15.6318
16.1195
17.1258
18.3742
19.4608
20.2062
20.5928
20.5081
19.3677
587.429
449.827
19.5812
19.552
19.4345
19.2071
18.8496
18.4799
18.4275
18.682
18.8731
18.8369
18.574
18.0789
17.3417
16.4755
15.7772
15.4503
15.4034
15.4909
15.6277
15.7637
15.8653
15.9077
15.8749
15.7689
15.6335
15.593
15.8384
16.4522
17.227
17.8588
18.2127
18.1927
17.3754
585.857
449.554
19.789
19.8524
19.8099
19.6554
19.3223
18.7395
18.1399
18.0802
18.3905
18.5959
18.5664
18.3166
17.8435
17.1549
16.4002
15.8421
15.5702
15.5028
15.5507
15.6563
15.7812
15.8935
15.961
15.9542
15.8605
15.7067
15.5852
15.6345
15.9004
16.234
16.457
16.4583
15.9625
584.876
450.339
19.7125
19.6938
19.6453
19.54
19.3163
18.878
18.1647
17.6111
17.7177
18.0627
18.2416
18.1979
17.954
17.5148
16.9289
16.3552
15.9428
15.7149
15.6252
15.6268
15.6885
15.789
15.9038
15.9965
16.023
15.9541
15.8004
15.6276
15.5315
15.5378
15.5673
15.5198
15.2068
584.281
450.472
19.6659
19.6115
19.5477
19.453
19.2869
18.9815
18.437
17.6716
17.2861
17.5218
17.853
17.9982
17.9418
17.7038
17.3095
16.8376
16.4007
16.0734
15.8626
15.7442
15.695
15.7048
15.7698
15.8786
15.996
16.0629
16.0334
15.9
15.7119
15.5366
15.3913
15.2268
14.8943
583.742
450.204
19.5649
19.4922
19.4033
19.2831
19.1086
18.846
18.4429
17.8034
17.0605
16.8886
17.2496
17.5963
17.741
17.695
17.4942
17.1863
16.8315
16.4983
16.2263
16.0203
15.8671
15.7603
15.7064
15.7203
15.8077
15.9374
16.039
16.0424
15.9279
15.7301
15.4898
15.1969
14.7273
583.155
450.44
19.6758
19.6341
19.5611
19.44
19.2422
18.9411
18.5287
17.9705
17.182
16.4893
16.5492
17.0064
17.3574
17.5058
17.4917
17.3577
17.1376
16.8772
16.6211
16.3906
16.1836
15.9942
15.8256
15.6964
15.6387
15.6764
15.7834
15.8745
15.8626
15.7216
15.4702
15.1034
14.5138
582.573
451.454
19.7379
19.6532
19.5732
19.4554
19.2578
18.9387
18.4957
17.9553
17.2887
16.471
16.057
16.3874
16.8745
17.1937
17.3441
17.3665
17.2888
17.1401
16.9543
16.7573
16.5551
16.3436
16.1193
15.8889
15.6776
15.5294
15.4794
15.5021
15.5066
15.4131
15.2006
14.8475
14.2471
582.119
451.656
19.6691
19.5897
19.5306
19.4362
19.2573
18.9392
18.4577
17.8523
17.1866
16.4678
15.843
15.8729
16.358
16.7945
17.0765
17.2284
17.2787
17.2497
17.1633
17.0411
16.8917
16.7133
16.4988
16.244
15.9556
15.6614
15.4101
15.2398
15.1289
15.0087
14.8286
14.5434
14.0354
581.882
451.411
19.6826
19.6682
19.6526
19.5924
19.439
19.1348
18.6374
17.9543
17.1661
16.3881
15.7333
15.507
15.8594
16.3394
16.7128
16.9632
17.1158
17.1922
17.2092
17.1816
17.1165
17.0125
16.8607
16.6509
16.377
16.0452
15.6844
15.3454
15.0701
14.8537
14.6571
14.4196
14.0126
581.915
450.606
19.7359
19.8493
19.9082
19.9074
19.8062
19.55
19.0918
18.4148
17.5498
16.601
15.7529
15.258
15.3641
15.8109
16.2453
16.5744
16.8078
16.9688
17.0753
17.1409
17.1714
17.1639
17.1077
16.9885
16.7933
16.5155
16.1638
15.773
15.3999
15.0893
14.8383
14.5905
14.2076
582.159
450.639
19.995
20.2066
20.3262
20.378
20.3295
20.1311
19.7342
19.1163
18.2842
17.2728
16.1898
15.2938
14.9498
15.2075
15.6565
16.0539
16.3568
16.5845
16.7599
16.9033
17.0224
17.1147
17.1678
17.163
17.0809
16.9067
16.6369
16.2888
15.9088
15.5543
15.25
14.9546
14.5186
582.463
450.35
20.1751
20.5198
20.7257
20.8521
20.8753
20.7529
20.4386
19.9086
19.1713
18.244
17.1411
15.955
15.0144
14.7447
15.0278
15.4458
15.8032
16.08
16.3012
16.4964
16.6804
16.8554
17.0095
17.1217
17.1674
17.1208
16.9672
16.7091
16.3778
16.0257
15.6885
15.3379
14.8082
582.631
451.105
20.5509
20.9702
21.2307
21.41
21.4893
21.428
21.1792
20.7179
20.0559
19.2267
18.2431
17.088
15.8326
14.8641
14.6158
14.875
15.2369
15.5421
15.7869
16.0046
16.2192
16.4428
16.6684
16.8733
17.0312
17.1134
17.0902
16.9456
16.6936
16.3752
16.0269
15.6253
14.9819
582.537
451.871
20.7749
21.2156
21.5101
21.7399
21.8865
21.906
21.7462
21.3772
20.8083
20.0783
19.2207
18.2271
17.0528
15.7684
14.817
14.5803
14.7895
15.0744
15.3191
15.5335
15.7446
15.9762
16.2341
16.4954
16.7255
16.8975
16.9827
16.9494
16.7888
16.5254
16.1899
15.7553
15.0079
582.234
453.312
20.9977
21.3747
21.6569
21.9068
22.102
22.1907
22.1107
21.827
21.3508
20.7232
19.9843
19.145
18.1679
16.9928
15.7205
14.8374
14.6247
14.7716
14.9764
15.1654
15.3481
15.5506
15.7959
16.0766
16.3463
16.5608
16.6976
16.7323
16.6439
16.4388
16.1364
15.7017
14.9048
581.866
453.864
20.9554
21.2792
21.5561
21.8347
22.0909
22.2624
22.2733
22.0848
21.7088
21.1855
20.557
19.8446
19.0332
18.065
16.8906
15.6798
14.9122
14.7335
14.8193
14.9525
15.0893
15.2392
15.4308
15.6833
15.9663
16.2069
16.3584
16.4086
16.3493
16.1833
15.9208
15.5206
14.7515
581.587
454.056
20.8315
21.0987
21.3636
21.6653
21.9808
22.2355
22.3372
22.2442
21.9723
21.5594
21.0419
20.4434
19.763
18.9645
17.9825
16.8044
15.6826
15.0445
14.8854
14.9148
14.9905
15.0804
15.1992
15.3786
15.6284
15.8883
16.0651
16.1231
16.0711
15.9264
15.7008
15.354
14.6634
581.478
453.129
20.4639
20.7077
20.9776
21.315
21.7036
22.0611
22.2782
22.3028
22.149
21.8543
21.451
20.961
20.3916
19.7262
18.9163
17.9037
16.7384
15.7332
15.2139
15.0596
15.0453
15.0732
15.1233
15.2157
15.3844
15.6233
15.8399
15.9389
15.9126
15.7934
15.6037
15.3101
14.7005
581.55
451.878
20.0829
20.3111
20.5725
20.9152
21.3383
21.7762
22.1153
22.2793
22.2619
22.0942
21.8089
21.4287
20.9656
20.4158
19.751
18.9156
17.8709
16.7321
15.8475
15.4056
15.2424
15.1942
15.1847
15.2038
15.2779
15.4415
15.6642
15.8273
15.8604
15.7872
15.6401
15.3963
14.853
581.796
450.507
19.7458
19.9705
20.2112
20.5198
20.9136
21.3713
21.807
22.1184
22.2564
22.23
22.0696
21.8021
21.4448
21.0037
20.4666
19.7951
18.9308
17.8579
16.7604
15.9787
15.5808
15.4134
15.3401
15.3039
15.304
15.3755
15.547
15.7498
15.8573
15.8438
15.7417
15.5387
15.0368
582.075
449.75
19.6022
19.8209
20.0272
20.268
20.5664
20.9467
21.3904
21.8073
22.099
22.2264
22.2022
22.054
21.8054
21.4698
21.0481
20.521
19.8416
18.9483
17.8571
16.811
16.0976
15.729
15.556
15.4628
15.408
15.403
15.4942
15.6862
15.8569
15.9061
15.8444
15.6677
15.1774
582.237
449.547
19.6138
19.8453
20.038
20.2317
20.4365
20.6851
21.0229
21.4339
21.8189
22.0828
22.1946
22.168
22.0282
21.7947
21.4769
21.0697
20.5448
19.8466
18.9185
17.8187
16.8279
16.178
15.8359
15.6567
15.5469
15.4812
15.4905
15.6244
15.8185
15.9187
15.8874
15.7206
15.2098
582.13
449.764
19.7266
19.9839
20.186
20.3679
20.522
20.6622
20.8489
21.1439
21.5163
21.8571
22.0815
22.1682
22.1317
21.9939
21.7697
21.4618
21.0564
20.5173
19.7841
18.8179
17.7343
16.8126
16.2245
15.9014
15.7127
15.5866
15.5198
15.565
15.7234
15.8431
15.83
15.6657
15.1254
581.807
450.13
19.872
20.159
20.3809
20.5709
20.7084
20.7884
20.8566
21.0029
21.2754
21.613
21.9059
22.0871
22.1456
22.0966
21.9565
21.7331
21.422
21.0019
20.4295
19.6494
18.6611
17.6171
16.7789
16.2502
15.9392
15.7368
15.5949
15.537
15.5998
15.686
15.6724
15.5125
14.9657
581.448
450.416
20.0147
20.3365
20.5818
20.7852
20.9173
20.9607
20.9477
20.9657
21.1052
21.3752
21.6863
21.9379
22.0828
22.1188
22.0577
21.9108
21.68
21.3541
20.9051
20.2889
19.4671
18.4761
17.4991
16.7532
16.2734
15.9671
15.7485
15.5948
15.5358
15.5384
15.4974
15.3388
14.8127
581.202
450.643
20.1572
20.5128
20.7832
21.0062
21.1438
21.1664
21.0933
21.0029
21.0003
21.1523
21.4252
21.714
21.9334
22.0525
22.0709
21.9992
21.8435
21.5998
21.2509
20.7655
20.1049
19.2543
18.2927
17.4099
16.7494
16.3061
15.998
15.7636
15.5988
15.5026
15.4118
15.2411
14.7379
581.114
450.752
20.2345
20.6109
20.9052
21.1578
21.3235
21.36
21.2687
21.1104
20.9836
20.9872
21.1579
21.4295
21.6959
21.889
21.9855
21.989
21.9069
21.7397
21.4775
21.098
20.5717
19.8728
19.0206
18.1271
17.3474
16.7635
16.3498
16.04
15.797
15.6171
15.468
15.2678
14.7642
581.153
450.558
20.1989
20.5888
20.9036
21.1866
21.3896
21.4624
21.393
21.2217
21.0248
20.8976
20.9256
21.1157
21.3825
21.6277
21.795
21.8717
21.8615
21.7669
21.5819
21.2911
20.8731
20.3058
19.587
18.77
17.9666
17.2892
16.7758
16.3924
16.0915
15.8523
15.6508
15.4107
14.8784
581.266
449.934
20.0723
20.4909
20.8321
21.1447
21.3807
21.4892
21.452
21.2952
21.0746
20.8627
20.7506
20.8076
21.0142
21.2746
21.4971
21.6417
21.7009
21.6754
21.5608
21.3468
21.0187
20.5603
19.9655
19.2576
18.5042
17.8028
17.2253
16.7793
16.4288
16.1437
15.8958
15.6096
15.0239
581.352
448.991
19.9068
20.3748
20.7507
21.0949
21.3614
21.5016
21.4944
21.3565
21.1301
20.8688
20.6436
20.5438
20.6249
20.8442
21.094
21.2966
21.422
21.463
21.4142
21.2689
21.0179
20.6502
20.1616
19.562
18.8918
18.2238
17.6346
17.1581
16.7756
16.4554
16.1656
15.8276
15.1622
581.303
448.054
19.7639
20.2881
20.702
21.08
21.3796
21.5546
21.5807
21.4651
21.2401
20.9485
20.6402
20.3892
20.289
20.3848
20.6075
20.8462
21.0322
21.1382
21.1528
21.0719
20.8896
20.5994
20.1984
19.6919
19.1066
18.4986
17.9384
17.4679
17.076
16.7319
16.4026
16.0028
15.2216
580.973
447.251
19.6444
20.2211
20.6731
21.0889
21.4291
21.6483
21.7192
21.6402
21.4331
21.1328
20.7772
20.4146
20.1243
20.0101
20.1071
20.3267
20.5544
20.7215
20.7994
20.7805
20.6608
20.4369
20.1061
19.6723
19.1574
18.6113
18.101
17.6658
17.2892
16.9369
16.5752
16.1091
15.1861
580.418
446.675
19.5475
20.1633
20.6497
21.1069
21.496
21.7694
21.8959
21.8685
21.6994
21.4153
21.0487
20.6307
20.2079
19.8674
19.7273
19.8154
20.0293
20.2436
20.3852
20.4302
20.3719
20.2075
19.9333
19.552
19.0832
18.5763
18.102
17.7005
17.3479
17.0012
16.6214
16.101
15.0477
579.791
446.199
19.4227
20.0622
20.5792
21.0832
21.535
21.8793
22.0778
22.1188
22.0092
21.7674
21.4204
20.995
20.5205
20.0378
19.641
19.4596
19.5317
19.7405
19.9373
20.0518
20.0625
19.9618
19.744
19.4087
18.9709
18.4766
18.0014
17.5987
17.252
16.9119
16.5292
15.9851
14.8667
579.34
445.807
19.2602
19.9042
20.4418
20.9909
21.514
21.945
22.2321
22.357
22.3246
22.1487
21.8491
21.4508
20.9791
20.4567
19.9198
19.4602
19.2294
19.2841
19.4796
19.6587
19.7497
19.7262
19.5783
19.3014
18.9025
18.4168
17.9162
17.4725
17.0969
16.7476
16.3675
15.8316
14.7298
579.188
445.54
19.0785
19.7106
20.257
20.8431
21.4382
21.9654
22.3533
22.5721
22.6253
22.5278
22.2956
21.9476
21.5067
20.9961
20.4331
19.8442
19.3264
19.057
19.0886
19.2674
19.4307
19.4979
19.4408
19.2476
18.9165
18.468
17.9592
17.4692
17.0424
16.662
16.2741
15.7541
14.7066
579.307
445.575
18.9498
19.5581
20.1005
20.7066
21.3605
21.9802
22.4712
22.7851
22.9214
22.8989
22.7369
22.4506
22.0569
21.5769
21.0307
20.4284
19.7964
19.2421
18.9453
18.956
19.1192
19.2612
19.3008
19.2082
18.9725
18.6005
18.1306
17.633
17.1707
16.7553
16.3485
15.8348
14.8365
579.662
446.071
18.9734
19.5657
20.1
20.7054
21.3859
22.0691
22.645
23.0424
23.25
23.2885
23.183
22.9516
22.6072
22.1646
21.6432
21.0571
20.4173
19.7584
19.1928
18.8926
18.8986
19.0404
19.1521
19.1566
19.0254
18.753
18.3609
17.9028
17.4412
17.0054
16.5762
16.0521
15.069
580.107
447.174
19.2669
19.8793
20.4198
21.0122
21.6709
22.3504
22.9526
23.3924
23.6433
23.7212
23.6534
23.4611
23.1571
22.7504
22.2522
21.6783
21.0454
20.3722
19.7016
19.1525
18.8892
18.9047
19.021
19.0915
19.0505
18.8759
18.5749
18.184
17.7549
17.3216
16.8793
16.3417
15.3553
580.613
448.908
19.8623
20.5342
21.1133
21.7128
22.3264
22.9307
23.4727
23.8822
24.1248
24.2076
24.1533
23.9819
23.705
23.3278
22.8527
22.289
21.6555
20.9762
20.2753
19.6123
19.1248
18.933
18.9653
19.0487
19.066
18.9686
18.7482
18.4263
18.0413
17.6245
17.1787
16.6278
15.6229
581.031
450.71
20.5223
21.2572
21.9089
22.5724
23.1857
23.7163
24.1604
24.4894
24.6815
24.7393
24.6774
24.5106
24.2481
23.8918
23.4378
22.886
22.2489
21.5524
20.8244
20.1058
19.4897
19.1138
19.0089
19.048
19.0846
19.0376
18.8799
18.6182
18.2783
17.8854
17.4445
16.8858
15.8617
581.387
451.448
20.8622
21.6449
22.3974
23.1881
23.8805
24.4116
24.8047
25.0747
25.2248
25.2613
25.1932
25.0313
24.7822
24.4452
24.0145
23.4834
22.8527
22.1398
21.3741
20.5991
19.8938
19.3833
19.1476
19.1156
19.1385
19.1114
18.9904
18.7701
18.4657
18.0957
17.6637
17.1005
16.0525
581.584
450.446
20.7041
21.5435
22.4185
23.3705
24.1878
24.7861
25.2009
25.4739
25.628
25.676
25.6262
25.4874
25.2651
24.9588
24.5635
24.0705
23.4724
22.7709
21.9833
21.1478
20.34
19.6897
19.3178
19.206
19.2055
19.186
19.0869
18.8941
18.6152
18.2629
17.8382
17.2683
16.1885
581.634
448.413
20.2309
21.1399
22.1398
23.2376
24.162
24.8339
25.3009
25.6148
25.8069
25.8937
25.8843
25.7877
25.6082
25.347
25.0016
24.5655
24.0295
23.3858
22.6362
21.7982
20.9246
20.1325
19.5816
19.3386
19.2849
19.2587
19.1714
18.9966
18.7361
18.3984
17.9815
17.408
16.2985
581.604
446.493
19.7026
20.6671
21.79
22.9999
23.9811
24.6886
25.189
25.538
25.7675
25.8945
25.9287
25.8775
25.7456
25.5348
25.2441
24.8691
24.4022
23.834
23.1594
22.3805
21.5222
20.6629
19.9554
19.5417
19.3875
19.3281
19.2401
19.0764
18.8296
18.503
18.0908
17.5088
16.3593
581.473
445.016
19.1626
20.1496
21.4287
22.7558
23.7638
24.4686
24.9683
25.3251
25.5705
25.7202
25.7834
25.7665
25.6736
25.507
25.2662
24.9482
24.5472
24.0549
23.4655
22.7745
21.9898
21.1544
20.3819
19.8297
19.5485
19.4204
19.3071
19.1392
18.8972
18.578
18.1711
17.5851
16.4033
581.287
443.552
18.4306
19.3833
20.8818
22.3796
23.4424
24.1594
24.6635
25.0261
25.2807
25.4447
25.5278
25.5366
25.4756
25.3469
25.1504
24.8832
24.5398
24.1139
23.5989
22.9881
22.2815
21.5012
20.7277
20.1017
19.7181
19.5166
19.3668
19.1858
18.942
18.6247
18.2172
17.6163
16.3743
580.86
441.927
17.3695
18.1338
19.8303
21.5583
22.7607
23.5729
24.1496
24.5717
24.8765
25.0827
25.2031
25.2471
25.2216
25.1305
24.975
24.7528
24.4595
24.0912
23.6422
23.105
22.475
21.7616
21.0181
20.3585
19.8925
19.6118
19.4121
19.2058
18.952
18.6329
18.2259
17.6182
16.335
580.441
440.416
16.0453
16.2946
17.8677
19.8048
21.2694
22.3253
23.118
23.7223
24.1754
24.4985
24.711
24.8301
24.8678
24.8326
24.7283
24.555
24.3115
23.996
23.6038
23.1281
22.5626
21.9093
21.2036
20.5362
20.0173
19.675
19.4338
19.2071
18.9463
18.6268
18.2188
17.5969
16.251
579.937
439.082
14.7499
14.1192
14.7035
16.422
18.1988
19.7358
21.0035
22.0219
22.8157
23.4117
23.8393
24.1263
24.2964
24.3677
24.3515
24.2547
24.0811
23.8327
23.5077
23.1018
22.6087
22.0251
21.37
20.7084
20.1413
19.727
19.4277
19.1673
18.8919
18.5697
18.1653
17.5482
16.1976
579.755
437.716
14.4734
13.469
12.5278
12.4757
13.4164
14.9719
16.7743
18.527
20.0408
21.2505
22.1684
22.8343
23.2939
23.587
23.7438
23.7839
23.7222
23.5698
23.3315
23.0078
22.5949
22.0879
21.4945
20.8572
20.2624
19.7895
19.4387
19.1498
18.8648
18.5448
18.149
17.5425
16.1912
579.695
436.367
16.2649
16.4777
15.9788
14.9083
13.6236
12.6274
12.4159
13.2218
14.828
16.771
18.6333
20.1698
21.3274
22.1475
22.6899
23.0103
23.1563
23.1648
23.0587
22.8511
22.5444
22.1358
21.625
21.0332
20.4236
19.8834
19.4559
19.1135
18.8017
18.4739
18.0833
17.4975
16.1996
580.091
435.764
18.4196
20.0871
20.8992
21.1602
20.846
19.889
18.3504
16.46
14.6291
13.5435
13.7819
15.1998
17.1601
19.0521
20.5285
21.533
22.1527
22.4867
22.6141
22.5869
22.432
22.1592
21.7695
21.2699
20.6971
20.1273
19.6334
19.2306
18.8844
18.5482
18.1715
17.6292
16.432
580.964
439.03
19.2718
20.848
21.9534
22.9564
23.9143
24.6948
25.0622
24.7541
23.5907
21.644
19.2832
16.9896
15.3155
14.9716
16.3079
18.3784
20.0862
21.2081
21.8568
22.1522
22.1981
22.0657
21.7907
21.3881
20.8786
20.3167
19.782
19.3237
18.9328
18.5667
18.1703
17.6167
16.4344
581.677
453.242
20.7319
20.7134
20.8863
21.3473
22.1723
23.3965
24.8817
26.1978
26.9431
27.0326
26.5314
25.4692
23.7855
21.3045
18.097
16.2607
17.1985
18.9099
20.2617
21.1666
21.693
21.9062
21.8694
21.6291
21.2215
20.7002
20.1481
19.641
19.2032
18.8101
18.4134
17.9045
16.8809
583.492
465.247
21.1704
20.4598
20.5811
21.2307
22.1406
23.1962
24.3484
25.4234
26.1666
26.5153
26.5722
26.4532
26.1724
25.4143
23.1773
19.2477
17.7094
18.8293
20.0099
20.7681
21.2619
21.5615
21.6699
21.5857
21.3137
20.8821
20.3655
19.8517
19.3851
18.9543
18.5148
17.9506
16.8645
583.838
448.572
17.3601
18.1949
19.3102
20.3593
21.4884
22.7144
23.7087
24.2301
24.3197
24.0039
23.1041
21.4615
20.2094
20.623
20.7859
20.7765
20.9082
21.2374
21.5624
21.805
21.9549
22.0055
21.947
21.7662
21.454
21.0267
20.5388
20.0529
19.5971
19.1615
18.7116
18.1378
17.0632
584.017
429.883
17.3043
17.8807
17.3966
16.7943
16.6296
17.3928
18.744
20.0498
21.1017
21.9189
22.4295
22.5991
22.527
22.4829
22.4755
22.4661
22.4754
22.4922
22.4901
22.4525
22.3686
22.2284
22.021
21.7367
21.3739
20.9488
20.495
20.0438
19.6046
19.1657
18.6913
18.0446
16.763
581.647
435.257
18.2267
18.6747
18.8955
19.1128
19.175
18.8138
17.9191
16.8522
16.6177
17.729
19.3794
20.7237
21.6102
22.1424
22.4482
22.6158
22.7058
22.742
22.7307
22.671
22.5594
22.3905
22.1581
21.8576
21.4911
21.0728
20.6264
20.1733
19.7218
19.264
18.7652
18.0756
16.6593
580.153
444.181
17.9782
18.8055
19.7052
20.6067
21.3105
21.576
21.1759
19.7436
16.988
13.893
13.3454
15.6362
18.2041
19.9697
21.0323
21.6632
22.0364
22.2495
22.3561
22.3814
22.3381
22.2289
22.0514
21.8031
21.4875
21.1178
20.7146
20.2966
19.8708
19.4287
18.9348
18.2358
16.749
579.901
448.327
19.0571
18.9517
18.9593
19.2988
20.0333
20.8506
21.3913
21.4939
20.9634
19.2785
16.5352
14.9619
16.0567
18.1061
19.7167
20.7699
21.4434
21.8559
22.0901
22.2026
22.2243
22.1667
22.032
21.82
21.5338
21.1846
20.7906
20.3691
19.9273
19.4564
18.9187
18.1523
16.5704
579.916
445.033
18.8615
19.0474
19.097
19.0843
19.1465
19.5181
20.2465
21.1203
21.8578
22.2289
21.971
20.491
17.7427
15.8926
16.6811
18.4075
19.7149
20.582
21.1608
21.5271
21.7298
21.8063
21.7811
21.6675
21.4723
21.2069
20.8859
20.5238
20.1279
19.6923
19.1862
18.461
16.9333
580.84
448.158
18.6154
18.4245
18.3384
18.3285
18.4857
18.9281
19.5848
20.2938
20.9943
21.6293
22.0811
22.2531
21.985
20.6207
18.3398
17.2882
17.8149
18.8478
19.7744
20.4834
20.9869
21.3059
21.4621
21.4754
21.3645
21.1515
20.8609
20.5125
20.1141
19.6574
19.1069
18.3068
16.7007
581.272
454.152
19.4654
18.875
18.385
17.7656
17.2013
17.4393
18.6557
20.018
21.0148
21.641
21.9813
22.0818
21.9335
21.2106
19.3743
17.8681
17.984
18.7631
19.4922
20.0844
20.5613
20.9216
21.1574
21.2638
21.2435
21.1103
20.8872
20.5963
20.2488
19.8429
19.3557
18.6619
17.2557
582.788
455.604
19.7891
19.5209
19.2147
18.4892
17.24
16.3219
17.0439
18.7174
20.0956
20.9115
21.2401
21.0501
20.4064
19.7988
19.4693
19.4583
19.7123
20.046
20.3726
20.6695
20.9195
21.1044
21.2096
21.2256
21.1504
20.991
20.7593
20.4642
20.1063
19.673
19.1182
18.2594
16.5288
580.809
454.36
19.7034
19.5638
19.2164
18.2781
16.8212
15.9219
16.8622
18.6283
19.7653
20.1993
20.2846
20.3333
20.3896
20.4428
20.5323
20.6634
20.8204
20.9785
21.1209
21.235
21.3091
21.3352
21.3062
21.2182
21.0719
20.8712
20.6207
20.3213
19.9681
19.5473
19.0145
18.1946
16.5291
580.416
452.58
20.382
20.5711
20.2096
18.932
16.7756
15.0171
15.6929
17.8793
19.2891
19.9021
20.1951
20.3958
20.5813
20.757
20.9217
21.0734
21.2075
21.3168
21.3937
21.4331
21.4297
21.3793
21.2799
21.1325
20.9406
20.7085
20.4381
20.1272
19.7673
19.3391
18.7831
17.8905
16.0313
578.276
448.589
20.5291
21.3006
21.5348
21.0331
19.4127
16.595
14.1688
15.1194
17.5507
19.0764
19.898
20.3952
20.7326
20.9777
21.1637
21.306
21.4105
21.4774
21.506
21.4969
21.4482
21.3578
21.2245
21.0494
20.8354
20.5856
20.3014
19.9798
19.6122
19.1778
18.6143
17.7074
15.8162
577.683
446.353
20.4327
21.4335
22.0442
22.2247
21.733
20.1058
16.8009
12.9162
13.3447
16.091
17.7992
18.8015
19.4997
20.0383
20.4559
20.7798
21.0251
21.2
21.3083
21.3552
21.3434
21.2757
21.156
20.989
20.7796
20.5323
20.2492
19.9286
19.563
19.1333
18.5796
17.6939
15.8236
577.406
445.518
20.7274
21.8482
22.5636
22.933
22.8743
22.2417
20.6317
17.3649
13.2763
13.6675
16.5279
18.3027
19.306
19.9554
20.4248
20.7803
21.0476
21.235
21.3463
21.3876
21.3677
21.2918
21.1644
20.9903
20.7741
20.5202
20.2305
19.9036
19.5321
19.0966
18.5362
17.6412
15.7533
577.255
443.453
20.3255
21.6334
22.5842
23.2317
23.4926
23.3182
22.5998
20.9815
17.7339
13.0352
12.3845
15.1559
17.0003
18.1121
18.9652
19.6577
20.1901
20.5832
20.8627
21.0455
21.1408
21.1563
21.0993
20.9772
20.7972
20.5673
20.2924
19.9736
19.6062
19.1742
18.625
17.766
15.9554
577.747
441.841
19.6829
21.0086
22.1421
23.1125
23.7575
24.0126
23.8589
23.1882
21.6347
18.5046
13.6698
11.4256
14.2521
16.8768
18.2275
19.017
19.6229
20.119
20.4978
20.7629
20.9274
21.0037
21.0016
20.9293
20.7943
20.6025
20.358
20.0617
19.7103
19.2907
18.7551
17.9185
16.1372
578.069
440.538
18.7553
19.9333
21.1144
22.3474
23.3582
24.0135
24.3349
24.3702
24.1116
23.3808
21.6248
18.2056
14.0957
12.2113
14.5681
16.9047
18.3526
19.2976
19.9629
20.4266
20.7265
20.8916
20.946
20.909
20.7961
20.6187
20.3842
20.0958
19.7509
19.3364
18.8062
17.9772
16.2055
578.306
439.958
17.6854
18.4766
19.5062
20.9097
22.2186
23.1353
23.6657
23.885
23.8362
23.5173
22.8607
21.6229
19.371
16.0311
13.3485
14.3324
16.2618
17.7373