/*--------------------------------*- C++ -*----------------------------------*\
| =========                 |                                                 |
| \\      /  F ield         | OpenFOAM: The Open Source CFD Toolbox           |
|  \\    /   O peration     | Version:  v2006                                 |
|   \\  /    A nd           | Website:  www.openfoam.com                      |
|    \\/     M anipulation  |                                                 |
\*---------------------------------------------------------------------------*/
FoamFile
{
    version     2.0;
    format      ascii;
    class       volVectorField;
    location    "29";
    object      U;
}
// * * * * * * * * * * * * * * * * * * * * * * * * * * * * * * * * * * * * * //

dimensions      [0 1 -1 0 0 0 0];


internalField   nonuniform List<vector> 
78750
(
(-0.123472 -0.121575 3.56315)
(0.362781 -0.148811 2.19343)
(-0.479439 -0.0315513 -1.42253)
(0.191155 -0.14785 0.173067)
(-0.259683 -0.0713677 -0.507328)
(0.0784145 -0.134523 -0.0487412)
(-0.123218 -0.087843 -0.107947)
(-0.00351267 -0.0895819 -0.089196)
(-0.059327 -0.0741466 -0.0714369)
(-0.0370414 -0.0715535 -0.0546014)
(-0.0301267 -0.071105 -0.0463461)
(-0.0199468 -0.0701897 -0.0440917)
(-0.00777773 -0.0687459 -0.0433234)
(0.00518803 -0.0666869 -0.0426649)
(0.0186923 -0.0635488 -0.0425967)
(0.0333707 -0.0585877 -0.0439127)
(0.0485337 -0.0515841 -0.047316)
(0.063502 -0.0429136 -0.053081)
(0.0777573 -0.032859 -0.0609856)
(0.0908395 -0.0212055 -0.0707386)
(0.102173 -0.00738458 -0.0823488)
(0.110993 0.00950708 -0.0966595)
(0.116302 0.0299528 -0.11568)
(0.116975 0.0520244 -0.142561)
(0.112588 0.068722 -0.178334)
(0.104372 0.0715235 -0.219373)
(0.0943522 0.0570803 -0.258922)
(0.0841535 0.0287433 -0.291025)
(0.0749698 -0.00576025 -0.311541)
(0.0669846 -0.0374992 -0.318051)
(0.0588365 -0.0568496 -0.306795)
(0.0499854 -0.0443745 -0.274322)
(0.039306 0.01379 -0.246058)
(0.0278025 0.0842081 -0.234186)
(0.0127368 0.119052 -0.16897)
(0.120366 -0.158788 -3.66639)
(0.0738553 -0.079348 -3.13773)
(0.127789 0.0514556 -2.51722)
(0.146819 0.123554 -2.19478)
(0.135764 0.174522 -1.85855)
(0.127441 0.18897 -1.5682)
(0.116658 0.194977 -1.28477)
(0.11263 0.168285 -0.937821)
(0.107477 0.0872506 -0.435823)
(0.0862179 -0.0192815 -0.0478547)
(0.0611287 -0.0805347 0.0723153)
(0.0405064 -0.106987 0.0736855)
(0.0244082 -0.123312 0.0590235)
(0.0139856 -0.138506 0.0526095)
(0.00917286 -0.154233 0.0561156)
(0.010674 -0.168344 0.0674911)
(0.0181128 -0.1773 0.0809256)
(0.0302236 -0.179724 0.0878058)
(0.0458537 -0.176598 0.0844398)
(0.0640671 -0.168618 0.0742087)
(0.0843328 -0.155039 0.063367)
(0.106118 -0.132495 0.0575094)
(0.128263 -0.0964424 0.0558578)
(0.147798 -0.0499142 0.0525647)
(0.162535 -0.000324397 0.0450206)
(0.170836 0.0460786 0.0334015)
(0.170075 0.0845474 0.0180232)
(0.161023 0.113024 0.002036)
(0.143604 0.133499 -0.0142967)
(0.117339 0.148574 -0.044712)
(0.0881108 0.150276 -0.088142)
(0.0598292 0.123174 -0.111734)
(0.0338528 0.0800858 -0.0984557)
(0.0166877 0.0615045 -0.0741973)
(0.00628219 0.0777371 -0.0401585)
(0.0126124 0.235327 -1.50373)
(0.000658468 0.293171 -1.59931)
(0.0206938 0.302368 -1.53797)
(0.0471722 0.298945 -1.45952)
(0.0760987 0.298568 -1.37763)
(0.102941 0.294142 -1.28794)
(0.127456 0.282913 -1.18065)
(0.150882 0.264347 -1.04381)
(0.170545 0.240979 -0.883894)
(0.181081 0.217573 -0.740641)
(0.181994 0.192813 -0.630793)
(0.177409 0.160067 -0.551029)
(0.170852 0.111819 -0.491474)
(0.164541 0.0423837 -0.441459)
(0.159009 -0.0468589 -0.382665)
(0.153167 -0.140227 -0.289077)
(0.146254 -0.214417 -0.16045)
(0.138187 -0.259772 -0.0427139)
(0.129479 -0.287018 0.0206599)
(0.116285 -0.310601 0.0318266)
(0.0957234 -0.326934 0.0140208)
(0.0726792 -0.316786 0.00454945)
(0.0534671 -0.257955 0.0135099)
(0.0425918 -0.157833 0.0194294)
(0.0367534 -0.0502709 0.0144817)
(0.0344505 0.046476 0.00426547)
(0.0351849 0.132875 -0.00899363)
(0.0372896 0.208543 -0.0272481)
(0.0383253 0.26294 -0.0513138)
(0.0374126 0.290759 -0.0768914)
(0.0349859 0.297953 -0.098929)
(0.0302189 0.289253 -0.112585)
(0.0214986 0.266916 -0.109898)
(0.0104724 0.23835 -0.0843542)
(0.00149347 0.19391 -0.0281707)
(0.011515 -0.0172085 -0.580976)
(0.0266697 0.0211639 -0.732153)
(0.0572652 0.045399 -0.786141)
(0.0893009 0.0678343 -0.810655)
(0.119665 0.0921959 -0.819504)
(0.145391 0.116761 -0.817057)
(0.166079 0.136804 -0.802984)
(0.183295 0.150388 -0.775991)
(0.198656 0.157915 -0.738109)
(0.212794 0.160113 -0.694054)
(0.225953 0.157386 -0.64755)
(0.238111 0.149754 -0.600036)
(0.248569 0.13752 -0.551356)
(0.25559 0.122208 -0.502706)
(0.257411 0.106034 -0.458652)
(0.253052 0.0893901 -0.421759)
(0.240953 0.0578025 -0.357603)
(0.222166 0.0158346 -0.164569)
(0.194973 0.0336858 0.0909545)
(0.159217 0.11607 0.22292)
(0.121455 0.183939 0.203478)
(0.0855591 0.181862 0.1265)
(0.0539238 0.127404 0.0668702)
(0.0297436 0.0760427 0.0355313)
(0.0147243 0.0513818 0.0167722)
(0.00766513 0.0484596 -0.00215787)
(0.00949461 0.0641983 -0.0265471)
(0.018018 0.0916596 -0.0512761)
(0.0272664 0.123843 -0.0683275)
(0.0334078 0.159888 -0.0777876)
(0.0348021 0.191466 -0.0813696)
(0.0318832 0.209317 -0.0787957)
(0.0255837 0.214043 -0.0692516)
(0.0162383 0.207681 -0.0496165)
(0.00470943 0.174933 -0.00654608)
(0.00158051 0.0997048 -0.0718506)
(0.010634 0.138922 -0.142905)
(0.0269059 0.157637 -0.175978)
(0.0472809 0.169144 -0.197258)
(0.0714078 0.177404 -0.211672)
(0.0980925 0.1842 -0.220943)
(0.126229 0.190315 -0.22556)
(0.154732 0.195615 -0.22549)
(0.182765 0.199724 -0.220933)
(0.209829 0.202181 -0.212197)
(0.235529 0.202466 -0.199428)
(0.259458 0.200194 -0.182397)
(0.281027 0.195366 -0.160969)
(0.299397 0.188099 -0.13683)
(0.313744 0.177943 -0.113015)
(0.324099 0.163036 -0.0862797)
(0.330031 0.139894 -0.0409786)
(0.327463 0.104927 0.030499)
(0.314868 0.0619292 0.113281)
(0.300131 0.0327187 0.187441)
(0.289571 0.0348226 0.235581)
(0.280218 0.0592452 0.248768)
(0.267603 0.078619 0.244377)
(0.248536 0.0844441 0.237932)
(0.222785 0.0779126 0.219922)
(0.197198 0.0375269 0.231813)
(0.173969 -0.00271278 0.285527)
(0.150148 0.0309253 0.266263)
(0.128307 0.117495 0.158278)
(0.108788 0.203489 0.0553749)
(0.0904843 0.266293 0.00139688)
(0.0721086 0.305161 -0.0163236)
(0.053411 0.32525 -0.015805)
(0.0342242 0.327483 -0.00450619)
(0.0126345 0.2757 0.0232137)
(0.00342955 0.0159559 0.0709551)
(0.0235951 -0.0494018 0.0857281)
(0.0464472 -0.0926765 0.0901418)
(0.0725731 -0.120147 0.0927173)
(0.100242 -0.13617 0.0944484)
(0.128053 -0.14365 0.0955395)
(0.155162 -0.144681 0.0960227)
(0.181046 -0.140784 0.0959585)
(0.205462 -0.133172 0.0954431)
(0.228292 -0.122951 0.0946696)
(0.249398 -0.111294 0.0937348)
(0.268789 -0.0989154 0.0926431)
(0.286505 -0.085512 0.0914539)
(0.302276 -0.0701347 0.0898443)
(0.315496 -0.0517669 0.0864426)
(0.325495 -0.0298414 0.0797608)
(0.332157 -0.00488063 0.0697)
(0.335165 0.0222272 0.0568091)
(0.333707 0.0516111 0.0428021)
(0.327475 0.0815398 0.0306173)
(0.318451 0.109305 0.025706)
(0.309252 0.138388 0.0292487)
(0.301506 0.163724 0.0319099)
(0.288672 0.179087 0.0466557)
(0.264657 0.201852 0.0569442)
(0.23409 0.202102 0.0473405)
(0.193881 0.177174 0.0953949)
(0.147738 0.213623 0.151462)
(0.109007 0.298936 0.125534)
(0.0804554 0.366743 0.0707452)
(0.0597832 0.404098 0.0365524)
(0.0437602 0.422629 0.0225529)
(0.0304108 0.429356 0.0190839)
(0.0184741 0.422568 0.02096)
(0.00604164 0.362867 0.0285556)
(0.012307 -0.172197 0.0248972)
(0.0386603 -0.290909 0.0311339)
(0.0638676 -0.334231 0.0329981)
(0.0875485 -0.347929 0.0332367)
(0.109937 -0.346474 0.0325439)
(0.130288 -0.334917 0.0309986)
(0.147835 -0.315382 0.0280421)
(0.162269 -0.289427 0.0229951)
(0.173543 -0.258817 0.0160331)
(0.181847 -0.225207 0.00820348)
(0.187442 -0.190201 0.000821201)
(0.190603 -0.154636 -0.00509257)
(0.191557 -0.117588 -0.00899993)
(0.190507 -0.0776239 -0.0108599)
(0.187618 -0.0360909 -0.0118272)
(0.183288 0.00270891 -0.0145193)
(0.178673 0.0352975 -0.0204199)
(0.174647 0.0613031 -0.0288395)
(0.171151 0.0821177 -0.0380116)
(0.167666 0.0992464 -0.046332)
(0.164064 0.114106 -0.0529675)
(0.159362 0.135725 -0.0551215)
(0.151394 0.196731 -0.0427274)
(0.138955 0.285016 -0.0214045)
(0.122725 0.364109 0.00281896)
(0.101787 0.421263 0.0456763)
(0.0764617 0.463844 0.0932191)
(0.0524678 0.496134 0.101803)
(0.0339149 0.51471 0.0755018)
(0.0223425 0.518423 0.0442289)
(0.0165117 0.513626 0.0235859)
(0.0135144 0.506641 0.013408)
(0.0113545 0.498901 0.0100829)
(0.00871162 0.484081 0.0108122)
(0.00419094 0.408144 0.0143004)
(0.00946463 -0.303025 0.036162)
(0.0226894 -0.389356 0.0607764)
(0.0314526 -0.399429 0.0707703)
(0.0372201 -0.393205 0.0751369)
(0.0410777 -0.379184 0.0754945)
(0.0431224 -0.356925 0.0708691)
(0.0431087 -0.324473 0.0582095)
(0.0404903 -0.283986 0.0344543)
(0.0359246 -0.240564 0.0018465)
(0.0313635 -0.196351 -0.0334659)
(0.0280451 -0.152724 -0.0665288)
(0.025985 -0.110824 -0.0970866)
(0.0248315 -0.0689079 -0.128875)
(0.0240629 -0.0255118 -0.161605)
(0.0234884 0.0148546 -0.184484)
(0.0237848 0.0481143 -0.193794)
(0.0244104 0.0762456 -0.194549)
(0.0248822 0.101847 -0.190173)
(0.0243348 0.127409 -0.181323)
(0.0212712 0.157273 -0.164673)
(0.0146963 0.199246 -0.134371)
(0.0062519 0.256038 -0.0924349)
(-0.00168997 0.319056 -0.0489161)
(-0.00753612 0.378026 -0.00880962)
(-0.01145 0.428688 0.0295127)
(-0.0150578 0.46998 0.0614561)
(-0.0179544 0.498314 0.0755744)
(-0.0193093 0.514997 0.0736796)
(-0.0186657 0.522297 0.0622751)
(-0.015746 0.522351 0.0480226)
(-0.011217 0.519711 0.0364314)
(-0.00600906 0.517947 0.0293083)
(-0.00124205 0.516955 0.0269103)
(0.00174641 0.509668 0.0282705)
(0.00209585 0.442491 0.025896)
(-0.00635386 -0.310099 0.047363)
(-0.011967 -0.393405 0.0557862)
(-0.0159793 -0.400096 0.0558895)
(-0.0188919 -0.391742 0.0553599)
(-0.0219043 -0.367875 0.0529202)
(-0.0253189 -0.317868 0.0434984)
(-0.0282545 -0.243669 0.0210655)
(-0.0292488 -0.173165 -0.00886127)
(-0.0286459 -0.120754 -0.0353866)
(-0.0273098 -0.0808141 -0.0574411)
(-0.0251858 -0.0475405 -0.0779493)
(-0.0213706 -0.0167443 -0.0985265)
(-0.0144111 0.0155758 -0.120298)
(-0.00263624 0.0533551 -0.144332)
(0.0120308 0.100046 -0.169761)
(0.0233538 0.141775 -0.183825)
(0.0289024 0.171527 -0.1802)
(0.0306025 0.201988 -0.164449)
(0.0286386 0.246671 -0.143725)
(0.0223706 0.298125 -0.132651)
(0.0124305 0.33963 -0.125376)
(0.0016851 0.37287 -0.108558)
(-0.00779555 0.405383 -0.0800899)
(-0.0151909 0.439775 -0.0434013)
(-0.0206496 0.474707 -0.00460629)
(-0.0245225 0.505332 0.0250395)
(-0.0265608 0.525203 0.0385397)
(-0.0270537 0.534994 0.0413905)
(-0.0265176 0.538222 0.0387906)
(-0.0249279 0.537022 0.0324963)
(-0.0219357 0.534122 0.024146)
(-0.0172782 0.53241 0.0161831)
(-0.0119443 0.532119 0.0112552)
(-0.00678831 0.526063 0.0103799)
(-0.00279065 0.454059 0.00444333)
(0.00524641 -0.305231 0.021601)
(0.0146829 -0.413577 0.0242776)
(0.0214716 -0.435494 0.0266941)
(0.0278624 -0.438064 0.030178)
(0.0350634 -0.433437 0.0361323)
(0.0433296 -0.424818 0.0459088)
(0.0524743 -0.411256 0.0597613)
(0.061931 -0.38769 0.0753578)
(0.0705164 -0.351546 0.0894034)
(0.0762339 -0.305844 0.100318)
(0.0766337 -0.261559 0.107486)
(0.0713353 -0.231686 0.110279)
(0.062644 -0.218257 0.110091)
(0.0497591 -0.214406 0.107163)
(0.0325519 -0.169607 0.0629715)
(0.0210194 -0.0581707 -0.0446263)
(0.0129472 0.0392981 -0.119265)
(0.00699299 0.107597 -0.13814)
(0.00213288 0.175137 -0.129593)
(-0.0026721 0.255449 -0.116444)
(-0.00808107 0.329676 -0.113017)
(-0.0145003 0.382727 -0.111412)
(-0.0210919 0.418967 -0.102511)
(-0.0274456 0.447129 -0.0849328)
(-0.0334005 0.472892 -0.0621015)
(-0.0385614 0.497291 -0.041379)
(-0.0425339 0.518175 -0.0281679)
(-0.0450987 0.534428 -0.0219005)
(-0.0461294 0.546166 -0.0203282)
(-0.0453649 0.553701 -0.0221899)
(-0.0421441 0.557492 -0.0269177)
(-0.0356169 0.558056 -0.0336723)
(-0.0268279 0.555242 -0.0400141)
(-0.0165134 0.541138 -0.0419728)
(-0.00592867 0.438113 -0.0365368)
(-0.000120985 -0.381125 0.0194575)
(-0.00600769 -0.454723 0.0244829)
(-0.0121273 -0.458929 0.0274801)
(-0.019228 -0.451011 0.0317927)
(-0.0275211 -0.433165 0.0386017)
(-0.036208 -0.400753 0.0476685)
(-0.0451917 -0.348269 0.0570956)
(-0.0532974 -0.277137 0.064488)
(-0.0589826 -0.195543 0.0709614)
(-0.0618898 -0.107373 0.0778908)
(-0.0633718 -0.0136657 0.0774764)
(-0.0663916 0.0782938 0.0525373)
(-0.0730861 0.160338 -0.00763302)
(-0.0815401 0.223258 -0.0869531)
(-0.087086 0.261149 -0.148351)
(-0.0905557 0.285734 -0.174758)
(-0.0934848 0.305412 -0.174454)
(-0.0964372 0.327406 -0.15502)
(-0.0995468 0.361053 -0.1211)
(-0.1015 0.407667 -0.0888241)
(-0.101598 0.454694 -0.0727807)
(-0.100726 0.492468 -0.0684745)
(-0.0994737 0.521902 -0.0677108)
(-0.0980435 0.544678 -0.0670439)
(-0.0963686 0.560987 -0.0659352)
(-0.0942546 0.570607 -0.0654236)
(-0.0915431 0.573457 -0.066381)
(-0.0880544 0.569852 -0.0686925)
(-0.0834843 0.560734 -0.0720069)
(-0.0772257 0.547633 -0.0762138)
(-0.0683632 0.532531 -0.0812029)
(-0.0563486 0.517457 -0.085832)
(-0.0422659 0.50222 -0.0865125)
(-0.0263047 0.474393 -0.0755609)
(-0.00844889 0.354037 -0.0443814)
(-0.00739302 -0.274274 0.045248)
(-0.012836 -0.349452 0.0512448)
(-0.016797 -0.358912 0.0496337)
(-0.0196069 -0.356768 0.0475263)
(-0.0219256 -0.349625 0.045465)
(-0.0236505 -0.340445 0.0446825)
(-0.0248295 -0.33124 0.0462899)
(-0.0257085 -0.321475 0.0505081)
(-0.0266189 -0.308774 0.0566116)
(-0.0276664 -0.28994 0.0636102)
(-0.0284661 -0.261293 0.0710925)
(-0.0281908 -0.2207 0.0784767)
(-0.0261687 -0.169034 0.0816567)
(-0.0229428 -0.10849 0.0724962)
(-0.0197734 -0.037048 0.043489)
(-0.0180771 0.0490342 -0.00795839)
(-0.0186989 0.13602 -0.0678928)
(-0.0219701 0.207508 -0.114394)
(-0.0277946 0.263697 -0.13622)
(-0.0345463 0.311175 -0.135546)
(-0.0409623 0.353322 -0.121437)
(-0.0465271 0.38963 -0.101689)
(-0.0510468 0.419531 -0.0814339)
(-0.0544424 0.443399 -0.0640544)
(-0.0567079 0.46234 -0.0512993)
(-0.0579282 0.477697 -0.0433388)
(-0.0582587 0.49043 -0.0396295)
(-0.0578355 0.500617 -0.0394369)
(-0.0566066 0.507479 -0.042029)
(-0.0541696 0.510027 -0.0467681)
(-0.0497411 0.507873 -0.0533531)
(-0.0424452 0.50078 -0.0613332)
(-0.03228 0.486466 -0.0682536)
(-0.0191485 0.449142 -0.0652613)
(-0.00344625 0.297057 -0.0363217)
(0.00148427 -0.33634 0.0145487)
(0.00154912 -0.44696 0.0154182)
(-7.55422e-05 -0.466481 0.0189246)
(-0.00233145 -0.468207 0.0236774)
(-0.00493712 -0.460154 0.0300293)
(-0.00763239 -0.44008 0.037776)
(-0.0106569 -0.403421 0.046701)
(-0.0143063 -0.348893 0.056701)
(-0.0185836 -0.281447 0.0678685)
(-0.023145 -0.207488 0.0800619)
(-0.0276324 -0.131491 0.0922508)
(-0.0321152 -0.0577496 0.102954)
(-0.037496 0.00827783 0.111582)
(-0.0448502 0.0642056 0.117497)
(-0.0517156 0.11472 0.11536)
(-0.0542163 0.171323 0.0965253)
(-0.0519507 0.240477 0.0578598)
(-0.046294 0.312115 0.00657937)
(-0.0397314 0.375012 -0.0447855)
(-0.0340217 0.424937 -0.0872223)
(-0.0300253 0.461578 -0.11675)
(-0.0280509 0.48633 -0.132871)
(-0.0279007 0.502168 -0.137621)
(-0.0290648 0.512234 -0.134257)
(-0.0309963 0.518325 -0.125687)
(-0.0332123 0.520994 -0.114138)
(-0.0353136 0.520421 -0.101476)
(-0.036959 0.516841 -0.0894043)
(-0.0377878 0.510461 -0.0794486)
(-0.0373263 0.501168 -0.0725087)
(-0.034883 0.488347 -0.0689552)
(-0.0296012 0.470719 -0.0690539)
(-0.0211676 0.445622 -0.0716236)
(-0.0100665 0.400136 -0.0680206)
(7.41187e-05 0.255713 -0.0334593)
(-0.00389987 -0.263622 0.0226413)
(-0.00310503 -0.332916 0.0334105)
(-0.00164423 -0.342019 0.034525)
(0.000178638 -0.340253 0.0329186)
(0.00209108 -0.332504 0.0290696)
(0.00348062 -0.318969 0.0231404)
(0.0042134 -0.300642 0.0161226)
(0.00421895 -0.280181 0.0100984)
(0.00351536 -0.260231 0.00724823)
(0.00229261 -0.240683 0.00897358)
(0.000857118 -0.217704 0.0165424)
(-0.000235822 -0.184446 0.0307725)
(-0.000583865 -0.137004 0.0488818)
(-0.000463604 -0.0821788 0.0656433)
(-0.000787955 -0.0311931 0.0786782)
(-0.002394 0.0135568 0.0883826)
(-0.00446661 0.0603252 0.0939015)
(-0.00498825 0.116534 0.091664)
(-0.00289205 0.183124 0.0783487)
(0.00168956 0.254555 0.0539563)
(0.00770243 0.323299 0.0218254)
(0.013936 0.383014 -0.0133529)
(0.0192737 0.429314 -0.0471147)
(0.0227783 0.460601 -0.0761494)
(0.0240357 0.478872 -0.0990085)
(0.0230938 0.488212 -0.115854)
(0.0201956 0.491945 -0.127383)
(0.0157151 0.491182 -0.134122)
(0.0102179 0.485584 -0.13652)
(0.00432281 0.474585 -0.13504)
(-0.00130487 0.458154 -0.129696)
(-0.00558842 0.437669 -0.119921)
(-0.00724264 0.41434 -0.104824)
(-0.0053713 0.376276 -0.0790697)
(-6.4799e-05 0.252405 -0.0279593)
(0.000906151 -0.338109 0.0358595)
(0.00568211 -0.486613 0.0508068)
(0.00868701 -0.514137 0.0557937)
(0.0115651 -0.51718 0.0582858)
(0.014627 -0.509131 0.0596848)
(0.0174559 -0.488861 0.0596143)
(0.0194579 -0.45082 0.0567872)
(0.0196768 -0.392367 0.0504969)
(0.017574 -0.321088 0.0427726)
(0.0135298 -0.248598 0.0368288)
(0.00835926 -0.18302 0.0347442)
(0.0029959 -0.12625 0.0375011)
(-0.00168233 -0.0738797 0.0454328)
(-0.0050498 -0.0195379 0.0572996)
(-0.00757172 0.0381177 0.0698336)
(-0.00981623 0.0935688 0.0800989)
(-0.0121184 0.142443 0.0875285)
(-0.0145416 0.184135 0.0928537)
(-0.0161733 0.222261 0.0960067)
(-0.0160958 0.261543 0.0955954)
(-0.0139172 0.304709 0.0898112)
(-0.00981996 0.351869 0.0773872)
(-0.00435036 0.401454 0.0581104)
(0.00175434 0.450829 0.0330288)
(0.00768078 0.496206 0.00444188)
(0.0126676 0.533705 -0.0247148)
(0.0162953 0.561377 -0.0516365)
(0.0185834 0.579544 -0.0742216)
(0.0196415 0.588664 -0.0909922)
(0.0194452 0.588663 -0.100772)
(0.0179496 0.578953 -0.103176)
(0.0155872 0.55663 -0.0984989)
(0.0140995 0.513038 -0.0877097)
(0.0129313 0.434733 -0.0697293)
(0.00635472 0.257629 -0.027069)
(0.00142121 -0.315828 0.0156364)
(0.00650498 -0.410818 0.0262111)
(0.0105592 -0.423892 0.0293718)
(0.0139299 -0.421097 0.0297908)
(0.0170644 -0.409418 0.0281411)
(0.0194207 -0.386283 0.0237111)
(0.02057 -0.346935 0.0151441)
(0.0200891 -0.294599 0.00278011)
(0.0182858 -0.242063 -0.0096049)
(0.0161176 -0.197861 -0.0184129)
(0.0142288 -0.162455 -0.0228332)
(0.0126785 -0.132858 -0.023493)
(0.0113017 -0.105577 -0.0206471)
(0.00995797 -0.0770061 -0.0135672)
(0.00875753 -0.0437169 -0.00130806)
(0.00766199 -0.00400544 0.0153319)
(0.00655204 0.0409345 0.0333838)
(0.00562918 0.0873227 0.0498059)
(0.00504323 0.131585 0.0633937)
(0.00504655 0.172626 0.0743118)
(0.00605705 0.211791 0.0830281)
(0.00850034 0.250804 0.0897166)
(0.0124848 0.289202 0.0942172)
(0.0179646 0.325282 0.095987)
(0.0250172 0.358326 0.0942165)
(0.0335595 0.387432 0.0890869)
(0.0429008 0.411833 0.0809358)
(0.0517658 0.430744 0.069269)
(0.058989 0.444688 0.0538495)
(0.0636532 0.454127 0.0351782)
(0.0653547 0.456972 0.014066)
(0.0636881 0.450611 -0.0100006)
(0.0549829 0.447392 -0.0287932)
(0.0405131 0.441355 -0.0293803)
(0.0204783 0.356054 0.00477488)
(-0.000377625 -0.38323 0.0443843)
(-0.000190003 -0.536548 0.0628)
(-0.000344945 -0.559811 0.0666994)
(0.000241249 -0.558645 0.0681073)
(0.00104507 -0.544872 0.068477)
(0.00206174 -0.514125 0.067139)
(0.00325688 -0.457151 0.0617903)
(0.00426858 -0.37724 0.0507116)
(0.00458564 -0.294251 0.0368711)
(0.00439188 -0.222236 0.0247543)
(0.0042067 -0.162736 0.015999)
(0.00436846 -0.11137 0.0101415)
(0.00505614 -0.0627783 0.00626451)
(0.0062858 -0.0134387 0.0036311)
(0.00771542 0.0358288 0.00202976)
(0.00918556 0.0798631 0.00195746)
(0.010947 0.115424 0.00386036)
(0.0132312 0.143999 0.00729992)
(0.0162997 0.168283 0.0115501)
(0.0203733 0.190248 0.0160923)
(0.0256369 0.211288 0.0206494)
(0.032411 0.232969 0.0250721)
(0.0411673 0.257129 0.0291368)
(0.0516782 0.282681 0.0336006)
(0.0624755 0.305333 0.0398066)
(0.0720401 0.324549 0.0470396)
(0.0798415 0.344227 0.0554583)
(0.0850927 0.368247 0.0657022)
(0.0860951 0.394418 0.0750824)
(0.0828411 0.418473 0.0797195)
(0.0750598 0.440907 0.080374)
(0.0603255 0.490104 0.0818499)
(0.0394297 0.556315 0.0723648)
(0.021436 0.581711 0.064822)
(0.0078363 0.509944 0.0667189)
(0.00030128 -0.342289 0.0130895)
(0.00188572 -0.452959 0.0153537)
(0.00310667 -0.469747 0.0171416)
(0.0040846 -0.468285 0.0183513)
(0.00509734 -0.456678 0.0192427)
(0.00626174 -0.431636 0.0195744)
(0.00807671 -0.386061 0.0179757)
(0.010696 -0.320549 0.0116008)
(0.0130253 -0.252298 0.000935615)
(0.0142227 -0.198268 -0.00878646)
(0.0145158 -0.160748 -0.0143592)
(0.0143885 -0.134053 -0.0161102)
(0.0142294 -0.111755 -0.0149952)
(0.0144475 -0.0878119 -0.0112165)
(0.015688 -0.0565772 -0.00496821)
(0.0184191 -0.0173569 0.00179651)
(0.022278 0.0234072 0.00684167)
(0.0267378 0.0600564 0.00987985)
(0.031623 0.0909288 0.0116244)
(0.036919 0.116489 0.0126815)
(0.0424759 0.137203 0.013338)
(0.0478169 0.153411 0.0137136)
(0.053062 0.167888 0.0139866)
(0.0580748 0.194045 0.00987333)
(0.0610447 0.238483 -0.000625838)
(0.062086 0.287532 -0.00800386)
(0.0620577 0.336032 -0.00527857)
(0.0607548 0.387023 0.0096244)
(0.0568642 0.436742 0.033079)
(0.0500943 0.479031 0.0585641)
(0.0402656 0.516747 0.0839596)
(0.0268132 0.564418 0.107095)
(0.0151497 0.600266 0.10933)
(0.00629196 0.600472 0.0995855)
(0.00112738 0.489886 0.077825)
(-0.00168024 -0.389854 0.0342599)
(-0.0032744 -0.543824 0.0434797)
(-0.0042603 -0.568079 0.045789)
(-0.00441248 -0.568485 0.0479482)
(-0.00401125 -0.557552 0.0510046)
(-0.00264283 -0.533373 0.0552472)
(0.000465494 -0.488286 0.0601345)
(0.00586814 -0.414804 0.0623644)
(0.0122545 -0.321549 0.0567218)
(0.0172216 -0.232301 0.0432708)
(0.0201356 -0.160246 0.0277366)
(0.0216549 -0.104198 0.0144334)
(0.0223647 -0.0593471 0.00462843)
(0.0225765 -0.0225907 -0.00172371)
(0.0226378 0.00757697 -0.0049891)
(0.0230278 0.0328567 -0.00581725)
(0.0242192 0.0551162 -0.00516626)
(0.0264372 0.0756273 -0.00399843)
(0.0295905 0.0950756 -0.003027)
(0.0333382 0.114056 -0.00267367)
(0.0370991 0.133644 -0.00307987)
(0.040101 0.156974 -0.00415986)
(0.0404234 0.191938 -0.00770733)
(0.0364312 0.24108 -0.0207972)
(0.0308707 0.293528 -0.0400316)
(0.0275337 0.340048 -0.0538374)
(0.0270731 0.38253 -0.0592834)
(0.0290747 0.424209 -0.0569519)
(0.0322974 0.4609 -0.0466782)
(0.0346401 0.489034 -0.0308523)
(0.0350732 0.509083 -0.0155206)
(0.033457 0.52568 -0.00419011)
(0.0263099 0.55673 0.0188644)
(0.0162719 0.575113 0.0490248)
(0.00757417 0.478111 0.0575969)
(6.11706e-05 -0.342282 -0.00365886)
(0.00294159 -0.473201 -0.0088351)
(0.00515394 -0.498713 -0.00845995)
(0.00729832 -0.502945 -0.00718658)
(0.00950383 -0.498715 -0.00506832)
(0.0116385 -0.487535 -0.00158515)
(0.0138209 -0.466364 0.00442042)
(0.0165443 -0.423706 0.0141522)
(0.0203559 -0.349725 0.0238181)
(0.0237442 -0.265379 0.0266758)
(0.0249793 -0.198222 0.024011)
(0.0247191 -0.151459 0.0204264)
(0.024191 -0.115864 0.0178246)
(0.0241011 -0.083482 0.016411)
(0.0247797 -0.0509872 0.016027)
(0.0262308 -0.0196641 0.0162909)
(0.0282362 0.00768376 0.0166078)
(0.030591 0.0302833 0.0164478)
(0.0330819 0.0496472 0.0154611)
(0.0353711 0.0686262 0.0132791)
(0.0368132 0.0928985 0.0089077)
(0.0359805 0.136312 -0.00152079)
(0.0315021 0.207465 -0.0225342)
(0.0230187 0.2807 -0.04932)
(0.0152957 0.328519 -0.0683586)
(0.0120204 0.357774 -0.0778435)
(0.012543 0.38266 -0.0829956)
(0.0166266 0.41293 -0.0874636)
(0.0237221 0.451066 -0.0936144)
(0.0303999 0.486812 -0.0982103)
(0.0339075 0.519783 -0.0937591)
(0.0325141 0.566239 -0.0668033)
(0.0221078 0.634391 -0.00625484)
(0.0106549 0.663544 0.0381578)
(0.00194678 0.586932 0.0555531)
(0.00174568 -0.411335 0.0199885)
(0.00419286 -0.569568 0.0237381)
(0.00524683 -0.59619 0.0237784)
(0.00597821 -0.597398 0.0242127)
(0.00654669 -0.587605 0.0253892)
(0.00685034 -0.567376 0.0275586)
(0.00685544 -0.533536 0.0310688)
(0.0068926 -0.478646 0.0364975)
(0.00812616 -0.393203 0.042984)
(0.0110233 -0.283946 0.0438788)
(0.0132364 -0.183453 0.0354471)
(0.0133001 -0.112476 0.0242449)
(0.0119343 -0.0679282 0.016305)
(0.010098 -0.038979 0.0126121)
(0.00825071 -0.017341 0.0121633)
(0.00649847 0.00132015 0.01406)
(0.00505327 0.0185794 0.0174254)
(0.00413247 0.0349663 0.0209413)
(0.00352877 0.052315 0.0231619)
(0.00292056 0.0763946 0.0216405)
(0.00177389 0.120916 0.00908225)
(-0.000687546 0.199314 -0.0249882)
(-0.0025971 0.296165 -0.0753064)
(-0.00548078 0.368652 -0.116499)
(-0.0101463 0.396722 -0.130068)
(-0.0142643 0.405064 -0.127637)
(-0.0185572 0.410057 -0.115196)
(-0.0231906 0.427547 -0.0953966)
(-0.0257075 0.472634 -0.0821164)
(-0.0247508 0.532998 -0.0796919)
(-0.0229157 0.59161 -0.0664995)
(-0.0218597 0.649768 -0.030787)
(-0.0226904 0.691634 0.0106023)
(-0.0208954 0.688224 0.0332991)
(-0.0109772 0.551375 0.0302876)
(0.00015854 -0.381153 -0.0109741)
(0.00062613 -0.504349 -0.016127)
(0.00111096 -0.523295 -0.0158675)
(0.00153922 -0.52324 -0.0151346)
(0.00194227 -0.514303 -0.0139697)
(0.00215188 -0.497062 -0.0119304)
(0.00195812 -0.470608 -0.00822783)
(0.00110712 -0.4323 -0.00142345)
(-0.000592752 -0.375975 0.010406)
(-0.00207009 -0.296557 0.0250666)
(-0.00274646 -0.210473 0.0339703)
(-0.00379064 -0.140522 0.0350974)
(-0.00561263 -0.0902145 0.0327415)
(-0.0081004 -0.0533259 0.0303093)
(-0.011166 -0.0243089 0.0293441)
(-0.0146839 -0.000180159 0.0304523)
(-0.0186934 0.0204435 0.0336884)
(-0.0232597 0.0387283 0.0384586)
(-0.0283041 0.0572136 0.0433267)
(-0.033765 0.0819948 0.0450294)
(-0.0390622 0.12551 0.0358345)
(-0.04143 0.201646 0.00421896)
(-0.0378037 0.302892 -0.0500692)
(-0.0311611 0.394149 -0.105148)
(-0.0268308 0.453079 -0.138645)
(-0.0261437 0.489307 -0.149745)
(-0.0300433 0.513545 -0.14301)
(-0.0387445 0.533653 -0.12145)
(-0.0495909 0.559401 -0.0943949)
(-0.0572991 0.595127 -0.0723226)
(-0.0589795 0.633339 -0.0520672)
(-0.0551489 0.661552 -0.0308771)
(-0.0482457 0.665096 -0.0124235)
(-0.034731 0.609479 -0.0016595)
(-0.00886079 0.385205 -0.00538031)
(0.000771883 -0.428674 0.0192639)
(0.000798286 -0.580395 0.0247324)
(-7.26852e-05 -0.604993 0.0250906)
(-0.00114953 -0.605776 0.0255456)
(-0.00246192 -0.595607 0.0265036)
(-0.00403088 -0.574141 0.028081)
(-0.0059773 -0.537055 0.0302074)
(-0.00826675 -0.47802 0.0322664)
(-0.0105558 -0.395428 0.033228)
(-0.0124217 -0.297332 0.0332221)
(-0.0137156 -0.199706 0.0320258)
(-0.0151535 -0.120081 0.0292891)
(-0.0173738 -0.0629772 0.0264529)
(-0.0204787 -0.0225617 0.024692)
(-0.0243575 0.00814527 0.0243837)
(-0.0289191 0.0338387 0.0256905)
(-0.0342419 0.0568453 0.0287935)
(-0.0404771 0.0780631 0.0337398)
(-0.0476742 0.0982011 0.0401445)
(-0.0556052 0.119402 0.0467356)
(-0.0633832 0.146976 0.0504179)
(-0.0690139 0.190022 0.045164)
(-0.069561 0.255309 0.0245486)
(-0.06427 0.334933 -0.00885815)
(-0.0560999 0.413039 -0.0428434)
(-0.0478134 0.485446 -0.0693077)
(-0.0412728 0.553714 -0.0851195)
(-0.03807 0.615592 -0.089361)
(-0.0380573 0.662763 -0.0849587)
(-0.0386309 0.688353 -0.0752235)
(-0.0372077 0.695566 -0.0617146)
(-0.0318747 0.686288 -0.0477037)
(-0.0218879 0.652405 -0.0363249)
(-0.0101776 0.563151 -0.0276858)
(0.00450707 0.308798 -0.00809381)
(-0.00119071 -0.39203 -0.0107269)
(-0.00341255 -0.506675 -0.0171511)
(-0.00445202 -0.522267 -0.0176873)
(-0.00533831 -0.519946 -0.0175989)
(-0.00625745 -0.507796 -0.0169847)
(-0.00726147 -0.485847 -0.0152363)
(-0.00842169 -0.454006 -0.0111713)
(-0.0095878 -0.41209 -0.00338899)
(-0.0102583 -0.356989 0.00807529)
(-0.00999322 -0.28513 0.0197265)
(-0.00911423 -0.203559 0.0267438)
(-0.00838831 -0.128168 0.0282143)
(-0.00830673 -0.0673473 0.0267655)
(-0.00893173 -0.0198965 0.0247285)
(-0.0102005 0.0182078 0.0231928)
(-0.0122926 0.0505041 0.0226188)
(-0.0152427 0.0791866 0.0232302)
(-0.0189613 0.105452 0.025162)
(-0.0234424 0.129973 0.0284411)
(-0.0286641 0.153466 0.0329445)
(-0.0343945 0.177274 0.038255)
(-0.0399196 0.203925 0.0432992)
(-0.0438684 0.237196 0.0459879)
(-0.0447356 0.280172 0.0440118)
(-0.0421752 0.33243 0.0369362)
(-0.0367181 0.391327 0.0262166)
(-0.0286195 0.454021 0.0140901)
(-0.0180039 0.517735 0.00336788)
(-0.00548726 0.577946 -0.00380438)
(0.00793623 0.623226 -0.00747723)
(0.0204866 0.63987 -0.0102719)
(0.0299438 0.626588 -0.0127836)
(0.0354623 0.594261 -0.0127788)
(0.0337646 0.542785 -0.00507748)
(0.0220679 0.372643 0.027672)
(-0.00111104 -0.410231 0.0150764)
(-0.000520722 -0.569487 0.0216354)
(0.000296224 -0.595966 0.0217662)
(0.00147238 -0.59773 0.0210319)
(0.00279601 -0.587761 0.0198142)
(0.0039346 -0.565334 0.0181044)
(0.00447308 -0.528309 0.0163994)
(0.00433308 -0.476651 0.0160458)
(0.00427688 -0.410868 0.0183695)
(0.0055337 -0.330536 0.0230841)
(0.00842756 -0.240015 0.0266677)
(0.0117444 -0.15413 0.0257054)
(0.014359 -0.0847399 0.0215324)
(0.0161942 -0.0316206 0.016862)
(0.0177763 0.0103098 0.0129285)
(0.0191796 0.0454902 0.00999491)
(0.020411 0.0765796 0.00806743)
(0.0216494 0.104884 0.00712365)
(0.0229186 0.13109 0.00711561)
(0.0242281 0.15579 0.00796995)
(0.0256065 0.179682 0.0096099)
(0.0271529 0.203616 0.011945)
(0.0291249 0.228714 0.0148019)
(0.0319844 0.256417 0.0178289)
(0.0362242 0.287716 0.0204056)
(0.0423555 0.320849 0.0215038)
(0.051024 0.350993 0.0205939)
(0.0623734 0.376125 0.0201095)
(0.0743602 0.402548 0.0247544)
(0.082973 0.433946 0.0318728)
(0.0874387 0.474148 0.0345826)
(0.0817711 0.543096 0.0345144)
(0.0628318 0.616084 0.0404848)
(0.0422285 0.647022 0.053657)
(0.0182869 0.574964 0.0705248)
(0.000170685 -0.389872 -0.012058)
(0.00336748 -0.531428 -0.015262)
(0.00647119 -0.55518 -0.015838)
(0.00955059 -0.555064 -0.0170918)
(0.0129292 -0.541844 -0.0193629)
(0.0159813 -0.513685 -0.02271)
(0.0179451 -0.471199 -0.0258164)
(0.0186082 -0.4237 -0.0254865)
(0.0187136 -0.378172 -0.0193493)
(0.0194167 -0.329305 -0.00704396)
(0.0220409 -0.265102 0.00848711)
(0.0266216 -0.186259 0.0192397)
(0.0313161 -0.111609 0.0207694)
(0.0351054 -0.0528095 0.0164976)
(0.0382343 -0.00837343 0.0106333)
(0.0414585 0.0267033 0.00506032)
(0.0452712 0.0561236 0.000298325)
(0.0496832 0.0818438 -0.00356829)
(0.0547893 0.104924 -0.00660373)
(0.0606429 0.126177 -0.00894561)
(0.0672662 0.146398 -0.0107322)
(0.0746618 0.166375 -0.0120603)
(0.0828115 0.186857 -0.0130062)
(0.0914942 0.208205 -0.0136925)
(0.100237 0.229019 -0.0143683)
(0.108584 0.247327 -0.0144955)
(0.115343 0.26859 -0.0116447)
(0.1166 0.30668 -0.00485589)
(0.109133 0.367923 0.00428575)
(0.093173 0.453018 0.0220576)
(0.0714152 0.573647 0.0517889)
(0.0440503 0.706359 0.0724406)
(0.0195946 0.787815 0.078329)