/*--------------------------------*- C++ -*----------------------------------*\
| =========                 |                                                 |
| \\      /  F ield         | OpenFOAM: The Open Source CFD Toolbox           |
|  \\    /   O peration     | Version:  v2012                                 |
|   \\  /    A nd           | Website:  www.openfoam.com                      |
|    \\/     M anipulation  |                                                 |
\*---------------------------------------------------------------------------*/
FoamFile
{
    version     2.0;
    format      ascii;
    class       surfaceScalarField;
    location    "56";
    object      phi;
}
// * * * * * * * * * * * * * * * * * * * * * * * * * * * * * * * * * * * * * //

dimensions      [1 0 -1 0 0 0 0];
oriented        oriented;


internalField   nonuniform List<scalar> 
228225
(
-2.71071e-09
2.52776e-09
-5.22963e-11
-9.04965e-09
9.99929e-09
-3.66663e-09
-1.90964e-08
1.4679e-08
-4.62645e-09
-3.27366e-08
1.86524e-08
-5.01367e-09
-4.94183e-08
2.20016e-08
-5.31769e-09
-6.84402e-08
2.46919e-08
-5.67143e-09
-8.90998e-08
2.67544e-08
-6.09284e-09
-1.10697e-07
2.81907e-08
-6.59483e-09
-1.32602e-07
2.90637e-08
-7.15863e-09
-1.54213e-07
2.93974e-08
-7.78619e-09
-1.75019e-07
2.92676e-08
-8.46023e-09
-1.94534e-07
2.86977e-08
-9.18405e-09
-2.12359e-07
2.77672e-08
-9.94292e-09
-2.28128e-07
2.65093e-08
-1.07394e-08
-2.41563e-07
2.49923e-08
-1.1559e-08
-2.52403e-07
2.32472e-08
-1.24032e-08
-2.6048e-07
2.13211e-08
-1.32466e-08
-2.6562e-07
1.92422e-08
-1.40997e-08
-2.67758e-07
1.70673e-08
-1.49311e-08
-2.66836e-07
1.4819e-08
-1.57417e-08
-2.62861e-07
1.25402e-08
-1.65142e-08
-2.55871e-07
1.02489e-08
-1.7236e-08
-2.45965e-07
7.97876e-09
-1.78891e-08
-2.33248e-07
5.74531e-09
-1.84626e-08
-2.17883e-07
3.57711e-09
-1.89399e-08
-2.00059e-07
1.4905e-09
-1.93106e-08
-1.80019e-07
-4.84467e-10
-1.95607e-08
-1.58001e-07
-2.33421e-09
-1.96817e-08
-1.34327e-07
-4.01363e-09
-1.96605e-08
-1.09352e-07
-5.48816e-09
-1.94839e-08
-8.35387e-08
-6.70145e-09
-1.91163e-08
-5.74979e-08
-7.57321e-09
-1.84634e-08
-3.23229e-08
-7.94595e-09
-1.7228e-08
-1.02924e-08
-7.55697e-09
-1.44762e-08
-4.85086e-09
-5.44089e-09
-7.84279e-09
2.58355e-08
-1.54648e-08
-2.75578e-08
4.67197e-08
-1.70062e-08
-5.14298e-08
5.63587e-08
-1.78073e-08
-7.73646e-08
6.33376e-08
-1.87497e-08
-1.03844e-07
6.80876e-08
-1.96073e-08
-1.29822e-07
7.10235e-08
-2.03539e-08
-1.5449e-07
7.24615e-08
-2.10397e-08
-1.77298e-07
7.26773e-08
-2.16789e-08
-1.97827e-07
7.18812e-08
-2.22876e-08
-2.15828e-07
7.02598e-08
-2.2862e-08
-2.31112e-07
6.7964e-08
-2.34114e-08
-2.43606e-07
6.51192e-08
-2.39299e-08
-2.53254e-07
6.18411e-08
-2.44236e-08
-2.60092e-07
5.82308e-08
-2.4885e-08
-2.64158e-07
5.43763e-08
-2.53183e-08
-2.65552e-07
5.03575e-08
-2.57162e-08
-2.64376e-07
4.62296e-08
-2.60843e-08
-2.6077e-07
4.20527e-08
-2.64158e-08
-2.5487e-07
3.78785e-08
-2.67128e-08
-2.46845e-07
3.37616e-08
-2.69679e-08
-2.36862e-07
2.97403e-08
-2.71824e-08
-2.2511e-07
2.58475e-08
-2.73511e-08
-2.11767e-07
2.21102e-08
-2.74761e-08
-1.9702e-07
1.85511e-08
-2.75495e-08
-1.81066e-07
1.51885e-08
-2.75694e-08
-1.64084e-07
1.20389e-08
-2.75282e-08
-1.46266e-07
9.11583e-09
-2.74201e-08
-1.27799e-07
6.43265e-09
-2.72317e-08
-1.0887e-07
4.00249e-09
-2.69467e-08
-8.96623e-08
1.84165e-09
-2.65366e-08
-7.03606e-08
-3.47819e-11
-2.59704e-08
-5.11732e-08
-1.5634e-09
-2.51966e-08
-3.23735e-08
-2.69559e-09
-2.40487e-08
-1.46822e-08
-3.20343e-09
-2.20468e-08
-2.02352e-09
-1.75083e-08
-5.54912e-09
4.02351e-08
-8.8527e-09
-1.56552e-08
6.74482e-08
-1.06195e-08
-2.71745e-08
7.92983e-08
-1.14223e-08
-3.92146e-08
8.74845e-08
-1.21061e-08
-5.1187e-08
9.27773e-08
-1.27171e-08
-6.26719e-08
9.58187e-08
-1.33096e-08
-7.33847e-08
9.70655e-08
-1.38933e-08
-8.31118e-08
9.68955e-08
-1.44911e-08
-9.17212e-08
9.55876e-08
-1.50952e-08
-9.91257e-08
9.33768e-08
-1.57154e-08
-1.05268e-07
9.04453e-08
-1.63365e-08
-1.10139e-07
8.69502e-08
-1.6963e-08
-1.13739e-07
8.30204e-08
-1.7578e-08
-1.16092e-07
7.87681e-08
-1.81837e-08
-1.17238e-07
7.42856e-08
-1.87643e-08
-1.17214e-07
6.96557e-08
-1.93214e-08
-1.16105e-07
6.49623e-08
-1.98435e-08
-1.13985e-07
6.02669e-08
-2.03321e-08
-1.10949e-07
5.56184e-08
-2.07765e-08
-1.07081e-07
5.1069e-08
-2.11762e-08
-1.02471e-07
4.66538e-08
-2.15233e-08
-9.7207e-08
4.24033e-08
-2.18199e-08
-9.13784e-08
3.83421e-08
-2.206e-08
-8.50632e-08
3.44806e-08
-2.22454e-08
-7.83358e-08
3.08324e-08
-2.23707e-08
-7.12676e-08
2.74058e-08
-2.24359e-08
-6.39219e-08
2.42047e-08
-2.24343e-08
-5.63545e-08
2.12274e-08
-2.2361e-08
-4.86244e-08
1.84735e-08
-2.22025e-08
-4.07754e-08
1.59359e-08
-2.19428e-08
-3.28544e-08
1.3598e-08
-2.15534e-08
-2.4873e-08
1.1439e-08
-2.09842e-08
-1.68738e-08
9.4246e-09
-2.01206e-08
-8.88243e-09
7.50272e-09
-1.86988e-08
4.45729e-09
-1.5362e-08
-5.57387e-09
4.46138e-08
1.19385e-09
-1.02522e-08
7.23783e-08
-2.49057e-10
-1.43628e-08
8.46217e-08
-1.21416e-09
-1.81535e-08
9.31775e-08
-1.90323e-09
-2.1739e-08
9.8866e-08
-2.5026e-09
-2.51084e-08
1.02304e-07
-3.1168e-09
-2.82161e-08
1.03964e-07
-3.79011e-09
-3.1022e-08
1.04213e-07
-4.51172e-09
-3.34887e-08
1.03344e-07
-5.29116e-09
-3.55838e-08
1.01583e-07
-6.11071e-09
-3.72859e-08
9.91214e-08
-6.97423e-09
-3.85842e-08
9.61102e-08
-7.86073e-09
-3.94832e-08
9.26822e-08
-8.76479e-09
-3.99902e-08
8.89415e-08
-9.66533e-09
-4.01237e-08
8.4981e-08
-1.05619e-08
-3.99075e-08
8.08744e-08
-1.14359e-08
-3.93703e-08
7.67063e-08
-1.22805e-08
-3.85571e-08
7.2534e-08
-1.30802e-08
-3.75105e-08
6.8406e-08
-1.38351e-08
-3.6269e-08
6.43601e-08
-1.45327e-08
-3.48705e-08
6.04289e-08
-1.51734e-08
-3.33554e-08
5.66363e-08
-1.57477e-08
-3.1759e-08
5.30011e-08
-1.62564e-08
-3.01088e-08
4.9526e-08
-1.66946e-08
-2.843e-08
4.62156e-08
-1.70631e-08
-2.67344e-08
4.30671e-08
-1.73566e-08
-2.5023e-08
4.00679e-08
-1.75758e-08
-2.32741e-08
3.71951e-08
-1.77153e-08
-2.14489e-08
3.44189e-08
-1.77712e-08
-1.94729e-08
3.16913e-08
-1.77317e-08
-1.72265e-08
2.89351e-08
-1.75837e-08
-1.4527e-08
2.6055e-08
-1.73151e-08
-1.10692e-08
2.29087e-08
-1.69415e-08
-6.51945e-09
1.934e-08
-1.63859e-08
1.2393e-08
-1.44573e-08
-6.46592e-09
4.41876e-08
6.89001e-09
-8.69464e-09
6.88103e-08
5.79945e-09
-8.81997e-09
7.99008e-08
4.84507e-09
-7.74135e-09
8.78968e-08
4.20173e-09
-5.99104e-09
9.34468e-08
3.6705e-09
-3.85345e-09
9.70703e-08
3.09529e-09
-1.51271e-09
9.9168e-08
2.45539e-09
9.01268e-10
1.00057e-07
1.74291e-09
3.28637e-09
9.9981e-08
9.75431e-10
5.58046e-09
9.91422e-08
1.48198e-10
7.71815e-09
9.76959e-08
-7.12898e-10
9.65994e-09
9.57792e-08
-1.61012e-09
1.13761e-08
9.34947e-08
-2.52909e-09
1.28452e-08
9.0936e-08
-3.46413e-09
1.40454e-08
8.81755e-08
-4.3945e-09
1.49542e-08
8.52809e-08
-5.31465e-09
1.55605e-08
8.23054e-08
-6.2067e-09
1.58632e-08
7.92992e-08
-7.06765e-09
1.58563e-08
7.62978e-08
-7.88333e-09
1.55334e-08
7.33338e-08
-8.65222e-09
1.48963e-08
7.04298e-08
-9.36359e-09
1.39471e-08
6.76031e-08
-1.00172e-08
1.26907e-08
6.48615e-08
-1.06055e-08
1.11419e-08
6.22064e-08
-1.11294e-08
9.30994e-09
5.96302e-08
-1.15839e-08
7.23267e-09
5.71154e-08
-1.19705e-08
4.95345e-09
5.46326e-08
-1.2286e-08
2.54507e-09
5.21357e-08
-1.25329e-08
1.1224e-10
4.95611e-08
-1.27082e-08
-2.20287e-09
4.68155e-08
-1.2811e-08
-4.20133e-09
4.37687e-08
-1.28346e-08
-5.59975e-09
4.02493e-08
-1.27958e-08
-5.92932e-09
3.60183e-08
-1.27785e-08
-4.55007e-09
3.07663e-08
-1.28076e-08
1.97414e-08
-1.18976e-08
-4.43702e-09
4.07833e-08
7.8424e-09
-4.92253e-09
6.23658e-08
6.92953e-09
-3.32304e-09
7.22532e-08
6.0477e-09
-4.93776e-10
7.95744e-08
5.49236e-09
3.01324e-09
8.48976e-08
5.04389e-09
6.87221e-09
8.86397e-08
4.5707e-09
1.08613e-08
9.11457e-08
4.03363e-09
1.48079e-08
9.26648e-08
3.4442e-09
1.85852e-08
9.34055e-08
2.80009e-09
2.20894e-08
9.35218e-08
2.11414e-09
2.52542e-08
9.31459e-08
1.38553e-09
2.80292e-08
9.2374e-08
6.30775e-10
3.03795e-08
9.12937e-08
-1.49636e-10
3.22703e-08
8.99732e-08
-9.2752e-10
3.36821e-08
8.84747e-08
-1.71136e-09
3.46031e-08
8.68442e-08
-2.48491e-09
3.50282e-08
8.51242e-08
-3.24431e-09
3.4959e-08
8.33456e-08
-3.97648e-09
3.43989e-08
8.15361e-08
-4.67902e-09
3.33594e-08
7.97149e-08
-5.34172e-09
3.18556e-08
7.78974e-08
-5.96322e-09
2.99033e-08
7.60896e-08
-6.53607e-09
2.75361e-08
7.42914e-08
-7.0603e-09
2.47774e-08
7.24938e-08
-7.53084e-09
2.16794e-08
7.06779e-08
-7.94874e-09
1.82916e-08
6.88131e-08
-8.31101e-09
1.46918e-08
6.68531e-08
-8.61983e-09
1.09694e-08
6.4733e-08
-8.87449e-09
7.24732e-09
6.23594e-08
-9.07804e-09
3.68619e-09
5.96076e-08
-9.22852e-09
4.75607e-10
5.63022e-08
-9.3255e-09
-2.09624e-09
5.22126e-08
-9.39054e-09
-3.56579e-09
4.70155e-08
-9.528e-09
-3.31111e-09
4.03058e-08
-9.79449e-09
2.58339e-08
-9.40287e-09
-2.10526e-09
3.68218e-08
6.06862e-09
-1.55917e-09
5.65894e-08
5.22758e-09
4.62769e-10
6.57558e-08
4.47615e-09
3.32911e-09
7.26913e-08
4.01495e-09
6.65676e-09
7.79066e-08
3.66563e-09
1.02052e-08
8.17843e-08
3.30532e-09
1.38199e-08
8.46193e-08
2.91268e-09
1.73643e-08
8.66368e-08
2.48324e-09
2.07385e-08
8.80071e-08
2.0253e-09
2.38569e-08
8.88664e-08
1.53623e-09
2.6661e-08
8.93171e-08
1.02501e-09
2.90984e-08
8.94446e-08
4.91822e-10
3.11345e-08
8.93128e-08
-5.47068e-11
3.2732e-08
8.89777e-08
-6.02713e-10
3.38785e-08
8.84806e-08
-1.15183e-09
3.45604e-08
8.78586e-08
-1.69621e-09
3.47735e-08
8.71387e-08
-2.22738e-09
3.45183e-08
8.63441e-08
-2.74308e-09
3.37993e-08
8.54899e-08
-3.23524e-09
3.26313e-08
8.45872e-08
-3.70289e-09
3.10274e-08
8.36404e-08
-4.13968e-09
2.90143e-08
8.26481e-08
-4.54559e-09
2.66205e-08
8.16012e-08
-4.91595e-09
2.38845e-08
8.04818e-08
-5.25166e-09
2.0851e-08
7.92617e-08
-5.54967e-09
1.7577e-08
7.78984e-08
-5.81181e-09
1.41346e-08
7.63326e-08
-6.03656e-09
1.06139e-08
7.44815e-08
-6.22702e-09
7.12419e-09
7.22318e-08
-6.38307e-09
3.8091e-09
6.94296e-08
-6.50653e-09
8.40538e-10
6.58656e-08
-6.59516e-09
-1.53561e-09
6.12605e-08
-6.67083e-09
-2.93142e-09
5.52315e-08
-6.8203e-09
-2.81125e-09
4.72794e-08
-7.09557e-09
2.99111e-08
-6.88712e-09
-7.37584e-10
3.3656e-08
3.90461e-09
-1.96334e-10
5.28254e-08
3.21935e-09
1.1459e-09
6.17571e-08
2.65866e-09
2.93082e-09
6.85828e-08
2.32319e-09
4.95511e-09
7.3812e-08
2.06972e-09
7.10307e-09
7.78152e-08
1.82064e-09
9.2931e-09
8.08779e-08
1.55255e-09
1.14507e-08
8.32096e-08
1.26918e-09
1.35153e-08
8.49736e-08
9.68024e-10
1.54378e-08
8.62903e-08
6.53773e-10
1.71763e-08
8.72557e-08
3.243e-10
1.86933e-08
8.79404e-08
-1.39857e-11
1.99581e-08
8.84021e-08
-3.54944e-10
2.09506e-08
8.86837e-08
-6.97163e-10
2.165e-08
8.88207e-08
-1.03983e-09
2.20435e-08
8.88387e-08
-1.37525e-09
2.21276e-08
8.87581e-08
-1.70309e-09
2.18979e-08
8.85922e-08
-2.0171e-09
2.13526e-08
8.83499e-08
-2.31725e-09
2.05057e-08
8.80349e-08
-2.59859e-09
1.93617e-08
8.76449e-08
-2.8618e-09
1.79411e-08
8.71717e-08
-3.10306e-09
1.62676e-08
8.65994e-08
-3.32376e-09
1.43663e-08
8.59037e-08
-3.52115e-09
1.22771e-08
8.50481e-08
-3.69728e-09
1.00436e-08
8.39826e-08
-3.85038e-09
7.72175e-09
8.26369e-08
-3.98318e-09
5.38114e-09
8.09176e-08
-4.09502e-09
3.10559e-09
7.86955e-08
-4.1892e-09
9.99455e-10
7.58001e-08
-4.26421e-09
-8.10701e-10
7.19976e-08
-4.32137e-09
-2.15789e-09
6.69809e-08
-4.3729e-09
-2.77336e-09
6.03273e-08
-4.48128e-09
-2.30732e-09
5.14855e-08
-4.67225e-09
3.21162e-08
-4.51183e-09
-4.86158e-10
3.15038e-08
2.64072e-09
-4.69314e-10
5.05863e-08
2.21881e-09
-7.76514e-11
5.94788e-08
1.88783e-09
5.19785e-10
6.6297e-08
1.6891e-09
1.23997e-09
7.15528e-08
1.53687e-09
2.04784e-09
7.5626e-08
1.38278e-09
2.90986e-09
7.8797e-08
1.21984e-09
3.79576e-09
8.12782e-08
1.04569e-09
4.67678e-09
8.32271e-08
8.64682e-10
5.52907e-09
8.47639e-08
6.74989e-10
6.32577e-09
8.59777e-08
4.81098e-10
7.04636e-09
8.69377e-08
2.81888e-10
7.67169e-09
8.76946e-08
8.20048e-11
8.18427e-09
8.8288e-08
-1.15802e-10
8.56345e-09
8.87464e-08
-3.06383e-10
8.80642e-09
8.90915e-08
-4.93855e-10
8.89872e-09
8.9338e-08
-6.72911e-10
8.83841e-09
8.94965e-08
-8.44069e-10
8.62025e-09
8.95715e-08
-1.00281e-09
8.24355e-09
8.9562e-08
-1.15053e-09
7.71269e-09
8.94607e-08
-1.28422e-09
7.03457e-09
8.9255e-08
-1.40594e-09
6.22373e-09
8.89246e-08
-1.51335e-09
5.29613e-09
8.84404e-08
-1.60911e-09
4.27334e-09
8.77615e-08
-1.69154e-09
3.18685e-09
8.68327e-08
-1.76376e-09
2.07124e-09
8.55789e-08
-1.82471e-09
9.66879e-10
8.38998e-08
-1.87806e-09
-7.51461e-11
8.16603e-08
-1.92321e-09
-9.94359e-10
7.8681e-08
-1.96322e-09
-1.71811e-09
7.47194e-08
-1.99644e-09
-2.15733e-09
6.94549e-08
-2.03439e-09
-2.16752e-09
6.24505e-08
-2.11282e-09
-1.56625e-09
5.3128e-08
-2.24472e-09
3.27186e-08
-2.16782e-09
-8.72313e-10
3.00642e-08
2.31128e-09
-1.50618e-09
4.90114e-08
2.20877e-09
-1.95235e-09
5.78307e-08
2.0947e-09
-2.27671e-09
6.45917e-08
2.02966e-09
-2.49992e-09
6.98078e-08
1.9672e-09
-2.62654e-09
7.38589e-08
1.89487e-09
-2.66712e-09
7.70273e-08
1.80898e-09
-2.62614e-09
7.95239e-08
1.71471e-09
-2.51938e-09
8.15068e-08
1.612e-09
-2.3528e-09
8.30939e-08
1.50533e-09
-2.14516e-09
8.43744e-08
1.39416e-09
-1.90329e-09
8.54142e-08
1.28301e-09
-1.6442e-09
8.62639e-08
1.1713e-09
-1.37966e-09
8.69599e-08
1.06339e-09
-1.12225e-09
8.75301e-08
9.58397e-10
-8.83443e-10
8.79923e-08
8.6118e-10
-6.76558e-10
8.83601e-08
7.70406e-10
-5.08561e-10
8.86394e-08
6.89611e-10
-3.85647e-10
8.8833e-08
6.15613e-10
-3.11572e-10
8.89368e-08
5.51483e-10
-2.89404e-10
8.89427e-08
4.94857e-10
-3.15816e-10
8.8835e-08
4.479e-10
-3.9157e-10
8.85919e-08
4.07572e-10
-5.08064e-10
8.81817e-08
3.75409e-10
-6.56703e-10
8.75625e-08
3.47827e-10
-8.27252e-10
8.66766e-08
3.25845e-10
-1.00205e-09
8.54487e-08
3.05406e-10
-1.16556e-09
8.37769e-08
2.8696e-10
-1.29711e-09
8.15266e-08
2.65956e-10
-1.37752e-09
7.85184e-08
2.42715e-10
-1.38295e-09
7.45122e-08
2.12593e-10
-1.28691e-09
6.91893e-08
1.70003e-10
-1.0429e-09
6.21193e-08
8.70804e-11
-6.07996e-10
5.27291e-08
-3.76983e-11
3.22258e-08
-1.13453e-10
-1.33203e-09
2.89682e-08
2.42604e-09
-2.44024e-09
4.75217e-08
2.60107e-09
-3.41367e-09
5.61461e-08
2.65644e-09
-4.26447e-09
6.27513e-08
2.69148e-09
-4.99479e-09
6.78395e-08
2.69907e-09
-5.60435e-09
7.17854e-08
2.68264e-09
-6.09333e-09
7.48659e-08
2.65009e-09
-6.46231e-09
7.72903e-08
2.60377e-09
-6.72098e-09
7.92128e-08
2.54975e-09
-6.86572e-09
8.07515e-08
2.48871e-09
-6.9095e-09
8.19926e-08
2.42557e-09
-6.85911e-09
8.30029e-08
2.36028e-09
-6.72326e-09
8.38302e-08
2.29722e-09
-6.50985e-09
8.4512e-08
2.23583e-09
-6.23435e-09
8.50736e-08
2.18001e-09
-5.90411e-09
8.55346e-08
2.12856e-09
-5.53584e-09
8.59059e-08
2.08473e-09
-5.13675e-09
8.61941e-08
2.04691e-09
-4.72113e-09
8.63978e-08
2.01824e-09
-4.29476e-09
8.65142e-08
1.99603e-09
-3.8659e-09
8.65323e-08
1.98225e-09
-3.44283e-09
8.64375e-08
1.97368e-09
-3.02815e-09
8.62059e-08
1.97167e-09
-2.62563e-09
8.58072e-08
1.97243e-09
-2.23987e-09
8.51978e-08
1.97678e-09
-1.86508e-09
8.43227e-08
1.98043e-09
-1.5043e-09
8.3106e-08
1.98365e-09
-1.16143e-09
8.14505e-08
1.98154e-09
-8.33042e-10
7.92245e-08
1.97362e-09
-5.24869e-10
7.6256e-08
1.95424e-09
-2.48248e-10
7.23134e-08
1.92177e-09
-1.5164e-11
6.70915e-08
1.86559e-09
1.57132e-10
6.01779e-08
1.76823e-09
2.45545e-10
5.10244e-08
1.61774e-09
3.10921e-08
1.37808e-09
-1.52729e-09
2.80966e-08
2.39975e-09
-2.82764e-09
4.60845e-08
2.73786e-09
-4.00712e-09
5.44384e-08
2.88474e-09
-5.05769e-09
6.08281e-08
2.97475e-09
-5.97621e-09
6.57405e-08
3.01719e-09
-6.75719e-09
6.95367e-08
3.03075e-09
-7.40318e-09
7.24883e-08
3.02244e-09
-7.90986e-09
7.4797e-08
3.00012e-09
-8.27891e-09
7.66162e-08
2.96628e-09
-8.51113e-09
7.80592e-08
2.92667e-09
-8.61738e-09
7.92131e-08
2.88232e-09
-8.5928e-09
8.01418e-08
2.83795e-09
-8.45095e-09
8.08948e-08
2.79377e-09
-8.19938e-09
8.15074e-08
2.75384e-09
-7.85113e-09
8.20068e-08
2.7177e-09
-7.41552e-09
8.24104e-08
2.6888e-09
-6.90656e-09
8.27313e-08
2.66593e-09
-6.33907e-09
8.2974e-08
2.65183e-09
-5.72663e-09
8.31406e-08
2.6445e-09
-5.0828e-09
8.32252e-08
2.64589e-09
-4.42173e-09
8.3219e-08
2.65321e-09
-3.75775e-09
8.3105e-08
2.66765e-09
-3.09872e-09
8.28615e-08
2.68567e-09
-2.4549e-09
8.24562e-08
2.7078e-09
-1.83685e-09
8.18488e-08
2.72989e-09
-1.24871e-09
8.09834e-08
2.75188e-09
-7.0097e-10
7.97892e-08
2.76904e-09
-2.01433e-10
7.81704e-08
2.78058e-09
2.37923e-10
7.60036e-08
2.78087e-09
6.04764e-10
7.31226e-08
2.76799e-09
8.72052e-10
6.93105e-08
2.7346e-09
1.01487e-09
6.42751e-08
2.67416e-09
9.95267e-10
5.76307e-08
2.56637e-09
7.62031e-10
4.88577e-08
2.39867e-09
2.98001e-08
2.0548e-09
-1.33437e-09
2.74982e-08
1.93372e-09
-2.5371e-09
4.49991e-08
2.2864e-09
-3.66312e-09
5.31179e-08
2.44867e-09
-4.69634e-09
5.93175e-08
2.54155e-09
-5.61093e-09
6.40693e-08
2.58612e-09
-6.3991e-09
6.77255e-08
2.59975e-09
-7.0545e-09
7.05497e-08
2.59345e-09
-7.56911e-09
7.27415e-08
2.57121e-09
-7.94193e-09
7.44491e-08
2.53928e-09
-8.16932e-09
7.57871e-08
2.49977e-09
-8.25308e-09
7.68395e-08
2.45775e-09
-8.19945e-09
7.76726e-08
2.41435e-09
-8.01104e-09
7.83342e-08
2.37384e-09
-7.70326e-09
7.88622e-08
2.33665e-09
-7.28557e-09
7.92823e-08
2.30639e-09
-6.77206e-09
7.96151e-08
2.28273e-09
-6.18266e-09
7.98715e-08
2.26853e-09
-5.52873e-09
8.00595e-08
2.26259e-09
-4.8352e-09
8.01785e-08
2.26689e-09
-4.11492e-09
8.02258e-08
2.27931e-09
-3.38548e-09
8.019e-08
2.30093e-09
-2.66616e-09
8.00567e-08
2.32875e-09
-1.96947e-09
7.98018e-08
2.36305e-09
-1.31011e-09
7.93959e-08
2.40007e-09
-6.96552e-10
7.87966e-08
2.43941e-09
-1.42805e-10
7.79518e-08
2.47671e-09
3.47877e-10
7.67899e-08
2.51096e-09
7.59144e-10
7.52209e-08
2.53716e-09
1.08506e-09
7.31232e-08
2.5535e-09
1.31478e-09
7.03403e-08
2.55399e-09
1.42814e-09
6.66619e-08
2.53525e-09
1.40362e-09
6.18119e-08
2.48744e-09
1.21646e-09
5.54213e-08
2.39668e-09
8.31107e-10
4.69981e-08
2.24461e-09
2.87228e-08
1.90901e-09
-8.59654e-10
2.73296e-08
1.02725e-09
-1.77512e-09
4.46429e-08
1.2719e-09
-2.70827e-09
5.26653e-08
1.38649e-09
-3.61037e-09
5.87759e-08
1.44462e-09
-4.44558e-09
6.34424e-08
1.46252e-09
-5.18909e-09
6.7012e-08
1.45653e-09
-5.82129e-09
6.97488e-08
1.43247e-09
-6.32554e-09
7.18497e-08
1.39632e-09
-6.6926e-09
7.34658e-08
1.35049e-09
-6.9163e-09
7.47098e-08
1.29995e-09
-6.9931e-09
7.56698e-08
1.24658e-09
-6.92656e-09
7.6411e-08
1.19473e-09
-6.72277e-09
7.69852e-08
1.1457e-09
-6.39192e-09
7.74294e-08
1.10329e-09
-5.95115e-09
7.77733e-08
1.06817e-09
-5.41658e-09
7.80362e-08
1.04339e-09
-4.80608e-09
7.82327e-08
1.02873e-09
-4.14215e-09
7.83689e-08
1.0263e-09
-3.44495e-09
7.84475e-08
1.03486e-09
-2.73813e-09
7.84633e-08
1.05551e-09
-2.04346e-09
7.84076e-08
1.08599e-09
-1.37494e-09
7.82632e-08
1.12643e-09
-7.55755e-10
7.80082e-08
1.17361e-09
-1.9725e-10
7.76101e-08
1.22685e-09
2.88179e-10
7.7029e-08
1.28227e-09
6.91534e-10
7.62097e-08
1.33856e-09
1.00585e-09
7.50836e-08
1.39138e-09
1.22928e-09
7.35588e-08
1.43899e-09
1.35755e-09
7.15178e-08
1.47655e-09
1.39209e-09
6.88041e-08
1.50189e-09
1.32989e-09
6.52145e-08
1.50947e-09
1.1701e-09
6.04765e-08
1.49487e-09
9.12842e-10
5.4233e-08
1.44553e-09
5.5714e-10
4.60033e-08
1.34992e-09
2.8154e-08
1.12612e-09
-2.9796e-10
2.76989e-08
-7.12828e-11
-8.78934e-10
4.52263e-08
-3.12882e-12
-1.58013e-09
5.33343e-08
3.32378e-11
-2.33131e-09
5.94914e-08
3.43713e-11
-3.06999e-09
6.41712e-08
1.07765e-11
-3.75836e-09
6.77291e-08
-2.8807e-11
-4.36312e-09
7.04324e-08
-7.94438e-11
-4.85801e-09
7.24846e-08
-1.39618e-10
-5.2257e-09
7.40388e-08
-2.05507e-10
-5.45482e-09
7.52139e-08
-2.75114e-10
-5.53902e-09
7.60989e-08
-3.44387e-10
-5.4805e-09
7.67644e-08
-4.11424e-10
-5.28718e-09
7.72627e-08
-4.72374e-10
-4.96534e-09
7.76357e-08
-5.25744e-10
-4.53802e-09
7.79128e-08
-5.68299e-10
-4.01947e-09
7.81174e-08
-5.99307e-10
-3.43318e-09
7.8263e-08
-6.16357e-10
-2.80319e-09
7.83592e-08
-6.19728e-10
-2.15443e-09
7.84068e-08
-6.08105e-10
-1.51223e-09
7.84031e-08
-5.82906e-10
-8.96878e-10
7.8337e-08
-5.43964e-10
-3.32305e-10
7.81928e-08
-4.93795e-10
1.64497e-10
7.79454e-08
-4.3324e-10
5.76496e-10
7.75634e-08
-3.65681e-10
8.95496e-10
7.70029e-08
-2.92684e-10
1.11272e-09
7.62095e-08
-2.18151e-10
1.23099e-09
7.51103e-08
-1.44006e-10
1.25077e-09
7.36138e-08
-7.42529e-11
1.18028e-09
7.15981e-08
-1.07141e-11
1.0346e-09
6.89071e-08
4.29778e-11
8.29898e-10
6.53333e-08
8.53474e-11
5.88599e-10
6.06045e-08
1.12641e-10
3.45129e-10
5.43593e-08
1.20673e-10
1.25121e-10
4.61168e-08
1.02791e-10
2.8227e-08
5.38522e-11
1.82838e-10
2.85985e-08
-1.08443e-09
-9.58174e-11
4.66976e-08
-1.1892e-09
-5.8713e-10
5.50562e-08
-1.23161e-09
-1.1944e-09
6.13825e-08
-1.28458e-09
-1.84265e-09
6.61688e-08
-1.34752e-09
-2.4806e-09
6.9784e-08
-1.41727e-09
-3.06291e-09
7.25078e-08
-1.49389e-09
-3.55383e-09
7.45512e-08
-1.57565e-09
-3.9296e-09
7.60765e-08
-1.66157e-09
-4.17395e-09
7.72068e-08
-1.74847e-09
-4.28004e-09
7.80384e-08
-1.8343e-09
-4.24409e-09
7.86443e-08
-1.91537e-09
-4.07359e-09
7.90825e-08
-1.98954e-09
-3.78036e-09
7.93962e-08
-2.05337e-09
-3.38139e-09
7.96195e-08
-2.10518e-09
-2.8987e-09
7.97757e-08
-2.14226e-09
-2.35275e-09
7.98823e-08
-2.16389e-09
-1.77482e-09
7.99476e-08
-2.16846e-09
-1.18536e-09
7.99752e-08
-2.15644e-09
-6.14551e-10
7.99602e-08
-2.12743e-09
-8.88231e-11
7.98931e-08
-2.08316e-09
3.75062e-10
7.97552e-08
-2.02441e-09
7.51286e-10
7.95219e-08
-1.95397e-09
1.02977e-09
7.91578e-08
-1.87352e-09
1.20211e-09
7.86185e-08
-1.78658e-09
1.26111e-09
7.78446e-08
-1.69531e-09
1.21493e-09
7.67616e-08
-1.60337e-09
1.06816e-09
7.52717e-08
-1.51281e-09
8.44446e-10
7.325e-08
-1.42675e-09
5.65466e-10
7.05324e-08
-1.34616e-09
2.65087e-10
6.69056e-08
-1.27259e-09
-1.18245e-11
6.20873e-08
-1.20517e-09
-2.14396e-10
5.57053e-08
-1.14406e-09
-2.75288e-10
4.72633e-08
-1.08654e-09
2.89205e-08
-9.67538e-10
4.7231e-10
2.98941e-08
-1.76788e-09
3.82419e-10
4.87868e-08
-1.99976e-09
3.96657e-11
5.74997e-08
-2.10035e-09
-4.58905e-10
6.40763e-08
-2.19463e-09
-1.03434e-09
6.90308e-08
-2.28731e-09
-1.62349e-09
7.27531e-08
-2.38124e-09
-2.17238e-09
7.55354e-08
-2.4776e-09
-2.647e-09
7.76021e-08
-2.57709e-09
-3.0141e-09
7.9123e-08
-2.67823e-09
-3.25906e-09
8.02304e-08
-2.7794e-09
-3.36885e-09
8.10254e-08
-2.87751e-09
-3.34235e-09
8.1588e-08
-2.97015e-09
-3.18487e-09
8.19789e-08
-3.05391e-09
-2.9094e-09
8.22465e-08
-3.12648e-09
-2.53089e-09
8.24263e-08
-3.18489e-09
-2.07355e-09
8.25456e-08
-3.22756e-09
-1.55934e-09
8.26217e-08
-3.25246e-09
-1.02005e-09
8.26659e-08
-3.25915e-09
-4.77336e-10
8.26805e-08
-3.24683e-09
3.56324e-11
8.26623e-08
-3.21635e-09
4.99404e-10
8.25993e-08
-3.1682e-09
8.8303e-10
8.24734e-08
-3.10449e-09
1.1766e-09
8.22564e-08
-3.02681e-09
1.35936e-09
8.1912e-08
-2.93821e-09
1.42891e-09
8.13912e-08
-2.84101e-09
1.37949e-09
8.0632e-08
-2.73865e-09
1.22093e-09
7.95539e-08
-2.63356e-09
9.66397e-10
7.80549e-08
-2.5288e-09
6.40451e-10
7.60015e-08
-2.42594e-09
2.76875e-10
7.3223e-08
-2.32641e-09
-8.24458e-11
6.94936e-08
-2.22949e-09
-3.81901e-10
6.45197e-08
-2.13341e-09
-5.51278e-10
5.79098e-08
-2.03321e-09
-5.14823e-10
4.91472e-08
-1.92173e-09
3.00854e-08
-1.67958e-09
5.30709e-10
3.14029e-08
-2.04036e-09
5.03358e-10
5.11402e-08
-2.32441e-09
2.19544e-10
6.02337e-08
-2.45053e-09
-2.23709e-10
6.70822e-08
-2.56271e-09
-7.48156e-10
7.22247e-08
-2.66905e-09
-1.29251e-09
7.60699e-08
-2.77381e-09
-1.80228e-09
7.89261e-08
-2.87992e-09
-2.23992e-09
8.10287e-08
-2.98773e-09
-2.58011e-09
8.25581e-08
-3.09681e-09
-2.79802e-09
8.36537e-08
-3.2049e-09
-2.88453e-09
8.44237e-08
-3.30975e-09
-2.84254e-09
8.49526e-08
-3.40816e-09
-2.67274e-09
8.53066e-08
-3.49746e-09
-2.38828e-09
8.55367e-08
-3.5745e-09
-2.00669e-09
8.56824e-08
-3.63706e-09
-1.55041e-09
8.5772e-08
-3.68269e-09
-1.04469e-09
8.58258e-08
-3.71012e-09
-5.14585e-10
8.58549e-08
-3.71808e-09
8.79805e-12
8.58632e-08
-3.70653e-09
5.00358e-10
8.58462e-08
-3.67554e-09
9.35032e-10
8.57924e-08
-3.6264e-09
1.28725e-09
8.56809e-08
-3.56043e-09
1.53966e-09
8.5483e-08
-3.48007e-09
1.68266e-09
8.51585e-08
-3.38759e-09
1.70335e-09
8.46559e-08
-3.28616e-09
1.60534e-09
8.39086e-08
-3.17844e-09
1.39558e-09
8.28317e-08
-3.06765e-09
1.09029e-09
8.13161e-08
-2.95603e-09
7.15233e-10
7.92221e-08
-2.84578e-09
3.06662e-10
7.63686e-08
-2.73736e-09
-8.69493e-11
7.25195e-08
-2.63035e-09
-4.14476e-10
6.73658e-08
-2.52149e-09
-5.9517e-10
6.04978e-08
-2.40505e-09
-5.53528e-10
5.13753e-08
-2.27132e-09
3.15128e-08
-1.97975e-09
4.2372e-10
3.29078e-08
-1.92895e-09
3.52709e-10
5.34044e-08
-2.19284e-09
5.79969e-11
6.28407e-08
-2.31198e-09
-3.74456e-10
6.99352e-08
-2.42036e-09
-8.74868e-10
7.52478e-08
-2.52421e-09
-1.38108e-09
7.92053e-08
-2.6278e-09
-1.85062e-09
8.21286e-08
-2.73322e-09
-2.24525e-09
8.42647e-08
-2.84107e-09
-2.53776e-09
8.58019e-08
-2.95024e-09
-2.71472e-09
8.68875e-08
-3.05887e-09
-2.75979e-09
8.76351e-08
-3.16416e-09
-2.67994e-09
8.81346e-08
-3.26334e-09
-2.4747e-09
8.84557e-08
-3.35324e-09
-2.16113e-09
8.86534e-08
-3.43117e-09
-1.75227e-09
8.87692e-08
-3.4944e-09
-1.27374e-09
8.88345e-08
-3.54097e-09
-7.48246e-10
8.88701e-08
-3.56912e-09
-2.0551e-10
8.88888e-08
-3.57803e-09
3.32458e-10
8.88943e-08
-3.5672e-09
8.31508e-10
8.88826e-08
-3.53714e-09
1.27273e-09
8.88406e-08
-3.48868e-09
1.63144e-09
8.8747e-08
-3.42358e-09
1.88746e-09
8.85702e-08
-3.34383e-09
2.02889e-09
8.82682e-08
-3.25214e-09
2.05127e-09
8.7786e-08
-3.15124e-09
1.95076e-09
8.70532e-08
-3.04427e-09
1.7369e-09
8.59799e-08
-2.93401e-09
1.42277e-09
8.44519e-08
-2.82323e-09
1.03917e-09
8.23219e-08
-2.71382e-09
6.12364e-10
7.9401e-08
-2.60682e-09
1.92294e-10
7.54418e-08
-2.50165e-09
-1.69719e-10
7.01232e-08
-2.39595e-09
-4.03721e-10
6.30178e-08
-2.28449e-09
-4.33886e-10
5.3565e-08
-2.15996e-09
3.29688e-08
-1.89032e-09
2.08119e-10
3.42421e-08
-1.54167e-09
2.45003e-11
5.53168e-08
-1.73066e-09
-3.30418e-10
6.50143e-08
-1.81876e-09
-7.82831e-10
7.22953e-08
-1.90665e-09
-1.2751e-09
7.77352e-08
-1.99618e-09
-1.7544e-09
8.1774e-08
-2.08898e-09
-2.18224e-09
8.47428e-08
-2.18609e-09
-2.52871e-09
8.68971e-08
-2.28709e-09
-2.76805e-09
8.84324e-08
-2.39064e-09
-2.88761e-09
8.95016e-08
-2.49437e-09
-2.87986e-09
9.02234e-08
-2.59555e-09
-2.74725e-09
9.06916e-08
-2.69112e-09
-2.49258e-09
9.09798e-08
-2.77811e-09
-2.13078e-09
9.11457e-08
-2.85361e-09
-1.67993e-09
9.12335e-08
-2.91516e-09
-1.16212e-09
9.1276e-08
-2.96058e-09
-5.99273e-10
9.12959e-08
-2.98835e-09
-1.94797e-11
9.13065e-08
-2.99745e-09
5.51402e-10
9.13121e-08
-2.9876e-09
1.08256e-09
9.13081e-08
-2.95908e-09
1.55615e-09
9.12811e-08
-2.91291e-09
1.94541e-09
9.12082e-08
-2.85061e-09
2.23361e-09
9.10563e-08
-2.77434e-09
2.40738e-09
9.07809e-08
-2.68657e-09
2.45936e-09
9.03243e-08
-2.59022e-09
2.38853e-09
8.96126e-08
-2.48823e-09
2.19905e-09
8.85519e-08
-2.38367e-09
1.90796e-09
8.70231e-08
-2.27924e-09
1.53428e-09
8.48734e-08
-2.17731e-09
1.10659e-09
8.19068e-08
-2.0792e-09
6.65972e-10
7.7868e-08
-1.98529e-09
2.58118e-10
7.24253e-08
-1.89439e-09
-5.9142e-11
6.51387e-08
-1.80418e-09
-2.14193e-10
5.54325e-08
-1.71203e-09
3.42734e-08
-1.51833e-09
-4.3393e-11
3.52999e-08
-1.014e-09
-3.62546e-10
5.67344e-08
-1.09926e-09
-7.98356e-10
6.65936e-08
-1.14326e-09
-1.28739e-09
7.39872e-08
-1.20175e-09
-1.78249e-09
7.94999e-08
-1.27021e-09
-2.24204e-09
8.35797e-08
-1.3469e-09
-2.63223e-09
8.65646e-08
-1.431e-09
-2.92969e-09
8.87158e-08
-1.52117e-09
-3.11429e-09
9.02337e-08
-1.61537e-09
-3.17882e-09
9.12754e-08
-1.71093e-09
-3.11432e-09
9.19637e-08
-1.80489e-09
-2.92413e-09
9.23956e-08
-1.89417e-09
-2.61513e-09
9.26477e-08
-1.97576e-09
-2.20205e-09
9.27799e-08
-2.04684e-09
-1.70383e-09
9.28387e-08
-2.10491e-09
-1.13662e-09
9.28585e-08
-2.14793e-09
-5.31687e-10
9.28633e-08
-2.17437e-09
9.23368e-11
9.2867e-08
-2.18328e-09
7.04872e-10
9.28743e-08
-2.17433e-09
1.27974e-09
9.28803e-08
-2.14784e-09
1.79698e-09
9.2871e-08
-2.10475e-09
2.2265e-09
9.28223e-08
-2.04659e-09
2.55964e-09
9.26996e-08
-1.9754e-09
2.77758e-09
9.24564e-08
-1.89366e-09
2.87436e-09
9.20325e-08
-1.80417e-09
2.84527e-09
9.13513e-08
-1.70996e-09
2.69508e-09
9.03156e-08
-1.61407e-09
2.43562e-09
8.88025e-08
-1.51946e-09
2.08309e-09
8.6655e-08
-1.42879e-09
1.66202e-09
8.36722e-08
-1.34406e-09
1.20236e-09
7.95933e-08
-1.26661e-09
7.46576e-10
7.40799e-08
-1.1971e-09
3.37188e-10
6.66841e-08
-1.13678e-09
3.66405e-11
5.68211e-08
-1.08957e-09
3.5312e-08
-1.00037e-09
-2.72958e-10
3.6047e-08
-4.74837e-10
-7.17051e-10
5.76333e-08
-4.53024e-10
-1.23262e-09
6.75587e-08
-4.51071e-10
-1.75918e-09
7.49935e-08
-4.78602e-10
-2.26136e-09
8.05256e-08
-5.2455e-10
-2.70446e-09
8.46066e-08
-5.83678e-10
-3.06317e-09
8.75778e-08
-6.53312e-10
-3.32103e-09
8.97035e-08
-7.31151e-10
-3.45873e-09
9.11872e-08
-8.14519e-10
-3.47334e-09
9.2189e-08
-9.00444e-10
-3.35662e-09
9.28343e-08
-9.85774e-10
-3.11715e-09
9.32229e-08
-1.06743e-09
-2.76072e-09
9.34334e-08
-1.1424e-09
-2.3002e-09
9.35285e-08
-1.20796e-09
-1.75699e-09
9.35558e-08
-1.26167e-09
-1.14756e-09
9.35518e-08
-1.30157e-09
-5.0005e-10
9.35409e-08
-1.32618e-09
1.64297e-10
9.35382e-08
-1.3346e-09
8.15539e-10
9.35483e-08
-1.32649e-09
1.4328e-09
9.35665e-08
-1.3022e-09
1.98875e-09
9.35777e-08
-1.26258e-09
2.46241e-09
9.35572e-08
-1.20913e-09
2.83794e-09
9.34686e-08
-1.14379e-09
3.09882e-09
9.32641e-08
-1.069e-09
3.23854e-09
9.28811e-08
-9.8745e-10
3.25098e-09
9.22408e-08
-9.02167e-10
3.13955e-09
9.12434e-08
-8.16207e-10
2.91144e-09
8.97633e-08
-7.32708e-10
2.5802e-09
8.76405e-08
-6.54621e-10
2.16512e-09
8.46715e-08
-5.84604e-10
1.69221e-09
8.0592e-08
-5.24937e-10
1.18971e-09
7.50607e-08
-4.78173e-10
6.97272e-10
6.7626e-08
-4.49154e-10
2.66081e-10
5.77002e-08
-4.48489e-10
3.60465e-08
-4.67037e-10
-4.38254e-10
3.6501e-08
-1.55571e-11
-9.76142e-10
5.80768e-08
9.44397e-11
-1.54667e-09
6.79934e-08
1.35411e-10
-2.10052e-09
7.54121e-08
1.34826e-10
-2.60401e-09
8.09205e-08
1.08913e-10
-3.03313e-09
8.49694e-08
6.60387e-11
-3.36724e-09
8.79018e-08
1.04875e-11
-3.59148e-09
8.99829e-08
-5.56107e-11
-3.69433e-09
9.14181e-08
-1.28398e-10
-3.66839e-09
9.23687e-08
-2.04612e-10
-3.51641e-09
9.29627e-08
-2.8116e-10
-3.24142e-09
9.33015e-08
-3.5492e-10
-2.84929e-09
9.34662e-08
-4.23023e-10
-2.36008e-09
9.35204e-08
-4.82753e-10
-1.78605e-09
9.35143e-08
-5.31859e-10
-1.15066e-09
9.34846e-08
-5.68393e-10
-4.77927e-10
9.34578e-08
-5.91003e-10
2.12289e-10
9.34487e-08
-5.98771e-10
8.86871e-10
9.34626e-08
-5.91463e-10
1.53022e-09
9.34943e-08
-5.69301e-10
2.1121e-09
9.35286e-08
-5.33199e-10
2.61305e-09
9.35393e-08
-4.84495e-10
3.01876e-09
9.34893e-08
-4.25119e-10
3.31098e-09
9.33287e-08