/*--------------------------------*- C++ -*----------------------------------*\
| =========                 |                                                 |
| \\      /  F ield         | OpenFOAM: The Open Source CFD Toolbox           |
|  \\    /   O peration     | Version:  v2006                                 |
|   \\  /    A nd           | Website:  www.openfoam.com                      |
|    \\/     M anipulation  |                                                 |
\*---------------------------------------------------------------------------*/
FoamFile
{
    version     2.0;
    format      ascii;
    class       volVectorField;
    location    "6";
    object      U;
}
// * * * * * * * * * * * * * * * * * * * * * * * * * * * * * * * * * * * * * //

dimensions      [0 1 -1 0 0 0 0];


internalField   nonuniform List<vector> 
78750
(
(-0.724613 -0.36541 -0.204156)
(-0.634706 -0.322981 -0.199888)
(-0.612161 -0.265657 -0.189392)
(-0.523015 -0.212779 -0.182994)
(-0.421538 -0.159559 -0.181301)
(-0.370132 -0.138147 -0.17806)
(-0.351268 -0.112677 -0.17758)
(-0.302186 -0.100223 -0.17505)
(-0.27891 -0.0807907 -0.174168)
(-0.234076 -0.0721583 -0.170396)
(-0.214437 -0.0572498 -0.168655)
(-0.17787 -0.0507022 -0.164304)
(-0.16044 -0.0395534 -0.161966)
(-0.13231 -0.0342983 -0.157476)
(-0.116322 -0.0260683 -0.154672)
(-0.0951593 -0.0215399 -0.150382)
(-0.0806224 -0.0156704 -0.147029)
(-0.0645961 -0.0115802 -0.143166)
(-0.0516419 -0.00730426 -0.139784)
(-0.0391025 -0.0037202 -0.136417)
(-0.0280628 -0.000387357 -0.133347)
(-0.0179983 0.00263135 -0.130588)
(-0.0090363 0.00540817 -0.128283)
(-0.00122149 0.00800237 -0.126271)
(0.00548344 0.0104827 -0.124598)
(0.0111502 0.0129028 -0.123316)
(0.0158318 0.0152879 -0.122497)
(0.0195233 0.0176407 -0.122233)
(0.0222128 0.0199491 -0.122624)
(0.0239154 0.0221008 -0.123837)
(0.0245797 0.0239332 -0.126094)
(0.0243238 0.0248813 -0.129758)
(0.0221261 0.0245852 -0.135016)
(0.0224666 0.0206568 -0.145319)
(0.0109676 0.0769682 -0.0952878)
(0.115946 -0.679384 0.0773902)
(-0.161817 -0.463974 0.0784585)
(-0.050033 -0.469835 0.0806577)
(-0.118627 -0.450086 0.0727411)
(-0.121814 -0.340554 0.0450409)
(-0.13779 -0.277516 0.0292366)
(-0.138185 -0.218387 0.0116588)
(-0.14418 -0.181261 0.00216673)
(-0.14046 -0.147077 -0.00890617)
(-0.141505 -0.123035 -0.015004)
(-0.13565 -0.102067 -0.0219436)
(-0.133001 -0.0859658 -0.0257973)
(-0.125836 -0.0717736 -0.0303019)
(-0.120221 -0.0601995 -0.033017)
(-0.112046 -0.0499985 -0.0360021)
(-0.104581 -0.0410735 -0.0380979)
(-0.0960024 -0.0331681 -0.0400976)
(-0.0877445 -0.0259492 -0.041813)
(-0.0792178 -0.0192769 -0.0434969)
(-0.0708921 -0.0129611 -0.0451103)
(-0.0626663 -0.00682689 -0.0467664)
(-0.0545904 -0.000742286 -0.048523)
(-0.0465944 0.00542358 -0.0504363)
(-0.0387938 0.011779 -0.0523868)
(-0.0312727 0.0184472 -0.054474)
(-0.0241455 0.0255153 -0.0567558)
(-0.0174171 0.032975 -0.059276)
(-0.0110762 0.0409214 -0.062161)
(-0.00518533 0.0494584 -0.0655806)
(0.000171262 0.0586231 -0.0696792)
(0.00486788 0.068604 -0.0745344)
(0.00874017 0.0803529 -0.08018)
(0.0117242 0.0994342 -0.0872687)
(0.0133973 0.156848 -0.0957552)
(0.00379862 0.266615 -0.060896)
(-0.060021 0.255832 -0.207902)
(-0.0396493 -0.0111093 -0.115847)
(-0.107973 -0.0644862 -0.0704284)
(-0.0858383 -0.132761 -0.0436224)
(-0.116074 -0.165715 -0.023748)
(-0.105162 -0.171799 -0.0155971)
(-0.108514 -0.172251 -0.00767411)
(-0.0999169 -0.16252 -0.00555352)
(-0.0953286 -0.153203 -0.00609514)
(-0.0879396 -0.143062 -0.00962743)
(-0.0827931 -0.13477 -0.013229)
(-0.0772619 -0.127095 -0.0168805)
(-0.0731665 -0.1202 -0.0197582)
(-0.0691008 -0.113469 -0.022413)
(-0.0656382 -0.10687 -0.0246145)
(-0.0620179 -0.100309 -0.0265815)
(-0.0583064 -0.0938148 -0.0282244)
(-0.0542613 -0.0873444 -0.0296388)
(-0.0499284 -0.080868 -0.0308438)
(-0.0452553 -0.0743289 -0.0318731)
(-0.0402816 -0.0676599 -0.0327433)
(-0.0350386 -0.0607686 -0.0334741)
(-0.0295871 -0.0535607 -0.0340913)
(-0.0239836 -0.0459396 -0.0346362)
(-0.0182794 -0.0378026 -0.0351627)
(-0.0125459 -0.0290463 -0.0357491)
(-0.00690312 -0.019666 -0.0364931)
(-0.0015389 -0.0095135 -0.0375916)
(0.00325218 0.00166037 -0.0393411)
(0.00730626 0.0143004 -0.0420536)
(0.0105374 0.0290823 -0.0462806)
(0.0126939 0.0480741 -0.053208)
(0.0126802 0.0811807 -0.0659641)
(0.0109177 0.180726 -0.0809029)
(0.00178085 0.323868 -0.0487936)
(0.00605036 0.0317166 -0.0881248)
(0.0448634 -0.0600125 -0.054926)
(0.0476865 -0.12348 -0.0287502)
(0.048854 -0.163445 -0.0102292)
(0.049388 -0.185112 -0.00200381)
(0.0423106 -0.198474 0.00457067)
(0.0360926 -0.203493 0.0155438)
(0.0289036 -0.199481 0.0315787)
(0.0229128 -0.183299 0.0464844)
(0.0171019 -0.156601 0.0533394)
(0.0122847 -0.127194 0.0504394)
(0.00809304 -0.102959 0.0426973)
(0.00434929 -0.0850634 0.0341849)
(0.000717398 -0.0720167 0.0260921)
(-0.00271895 -0.0626361 0.0185579)
(-0.00584961 -0.0560036 0.0116851)
(-0.00855063 -0.0511635 0.00554315)
(-0.0107592 -0.0473309 0.000120638)
(-0.0123997 -0.0439672 -0.00464514)
(-0.0134039 -0.0406645 -0.00882241)
(-0.0137132 -0.0370641 -0.0124691)
(-0.0132929 -0.0328773 -0.0156283)
(-0.0121453 -0.0279135 -0.0183348)
(-0.0103292 -0.0220704 -0.0206175)
(-0.00796118 -0.0152794 -0.0224798)
(-0.00520306 -0.00745325 -0.0239019)
(-0.00225425 0.00155761 -0.024851)
(0.000667429 0.0120222 -0.0253039)
(0.00348105 0.024307 -0.0253292)
(0.00610739 0.0392284 -0.0250382)
(0.00830235 0.0588169 -0.0248324)
(0.0098452 0.0900004 -0.0264115)
(0.00974676 0.157114 -0.0368518)
(0.00736524 0.283569 -0.0570881)
(-0.000282868 0.392795 -0.0379186)
(0.00322415 -0.108946 0.0422297)
(0.00230981 -0.156324 0.0576781)
(0.00100936 -0.153879 0.0498002)
(-0.00142118 -0.138201 0.033832)
(-0.00370312 -0.121281 0.0118032)
(-0.00456846 -0.114116 -0.00666213)
(-0.00483407 -0.11335 -0.0185574)
(-0.00445805 -0.113872 -0.0247345)
(-0.00351291 -0.113419 -0.0262476)
(-0.00171036 -0.110942 -0.0230921)
(0.000922226 -0.105247 -0.0160275)
(0.00390811 -0.0958877 -0.00763205)
(0.00667388 -0.0841201 0.000131181)
(0.00891765 -0.0719146 0.00646141)
(0.0104623 -0.0609005 0.0111211)
(0.0111824 -0.0520375 0.0141046)
(0.0110269 -0.0456025 0.0155471)
(0.0100582 -0.0412796 0.0156759)
(0.00840743 -0.0385121 0.0146825)
(0.00624176 -0.036884 0.0126344)
(0.00379589 -0.0361404 0.00959066)
(0.0014176 -0.0359006 0.00579144)
(-0.000532947 -0.0354131 0.00164649)
(-0.00179919 -0.0337681 -0.00253615)
(-0.00221252 -0.0302092 -0.00667342)
(-0.00165529 -0.0243136 -0.0107425)
(-0.000113162 -0.0160473 -0.0146533)
(0.00222282 -0.00537977 -0.018311)
(0.00502404 0.00812137 -0.021637)
(0.00787141 0.0252631 -0.024615)
(0.0102415 0.0477892 -0.0273106)
(0.0115879 0.08145 -0.0301278)
(0.00978195 0.152756 -0.0345978)
(0.00596938 0.321951 -0.0413232)
(-0.0005396 0.43051 -0.0243529)
(-0.00103976 -0.0359205 -0.0145304)
(-0.000220209 -0.0910077 -0.0271361)
(0.00309725 -0.136919 -0.0245636)
(0.00855413 -0.171126 -0.0168037)
(0.0150981 -0.192724 -0.0077473)
(0.0215605 -0.203156 -0.000710742)
(0.0271119 -0.20537 0.00376158)
(0.0315321 -0.201345 0.0061388)
(0.0348398 -0.191782 0.00668536)
(0.0369556 -0.177179 0.00527637)
(0.037979 -0.159172 0.00212089)
(0.0383674 -0.140161 -0.00173593)
(0.0386064 -0.121752 -0.00503659)
(0.038941 -0.104307 -0.00693243)
(0.0393881 -0.087516 -0.00703803)
(0.0398043 -0.0710173 -0.00524783)
(0.0399427 -0.0547088 -0.00162208)
(0.0395108 -0.0389108 0.00358844)
(0.0382474 -0.0244963 0.00981036)
(0.0360311 -0.0127082 0.0160783)
(0.0329521 -0.00443317 0.0213277)
(0.0292511 0.000370395 0.0248711)
(0.0252051 0.00234786 0.0264168)
(0.0210495 0.00214163 0.0257893)
(0.0170086 0.000419106 0.0227966)
(0.0135431 -0.00134555 0.0179769)
(0.0110734 -0.000954022 0.0126975)
(0.00950056 0.00341442 0.0075791)
(0.0087029 0.013732 0.00250628)
(0.00871776 0.032359 -0.00250267)
(0.00931129 0.0640266 -0.00746214)
(0.0101022 0.124428 -0.0140087)
(0.00937262 0.244681 -0.0284794)
(0.00575641 0.399964 -0.0440359)
(-0.0005858 0.471728 -0.027963)
(0.0012972 -0.0889174 0.0102698)
(0.00983179 -0.17025 0.0209275)
(0.0175822 -0.198832 0.0223541)
(0.0230716 -0.205868 0.0194316)
(0.0268467 -0.204068 0.0151294)
(0.0294681 -0.197013 0.0104803)
(0.0309278 -0.185627 0.00575908)
(0.0312151 -0.170419 0.000945174)
(0.0303613 -0.152398 -0.00394928)
(0.028523 -0.133243 -0.00870485)
(0.0260121 -0.114549 -0.0130662)
(0.0231998 -0.0973233 -0.0169184)
(0.0204576 -0.0820671 -0.0202008)
(0.0181271 -0.0688108 -0.0227852)
(0.0164492 -0.0570442 -0.0244977)
(0.0155039 -0.0458886 -0.0251868)
(0.0152538 -0.0345096 -0.0246898)
(0.0156048 -0.0225047 -0.0227919)
(0.0163716 -0.0101866 -0.0193511)
(0.0172329 0.00133616 -0.0145865)
(0.0178463 0.0105964 -0.00926923)
(0.0180326 0.0168318 -0.00442092)
(0.017808 0.0205565 -0.000635076)
(0.0172046 0.0226455 0.00213914)
(0.0161918 0.0234414 0.00389374)
(0.0148153 0.0233343 0.00444803)
(0.0132089 0.0232303 0.00376442)
(0.0117706 0.0245419 0.00205409)
(0.0106114 0.0289221 -0.000586136)
(0.00972304 0.0394992 -0.00462612)
(0.00929607 0.0615548 -0.0097383)
(0.00860752 0.107485 -0.0136025)
(0.00670495 0.228584 -0.0140296)
(0.00455007 0.437815 -0.0178746)
(-0.000272428 0.497724 -0.0107426)
(0.00191516 -0.117469 0.00406618)
(0.00490776 -0.204736 0.00676991)
(0.00622628 -0.232608 0.00832675)
(0.00701966 -0.240917 0.0102762)
(0.00757348 -0.240639 0.012213)
(0.00802308 -0.234197 0.0139218)
(0.00825937 -0.221176 0.0151216)
(0.00798316 -0.200908 0.0151699)
(0.00694202 -0.174805 0.0133202)
(0.00514088 -0.146138 0.00936322)
(0.002823 -0.118532 0.00383502)
(0.000407842 -0.0948367 -0.0022863)
(-0.00161031 -0.0764606 -0.00805077)
(-0.00293148 -0.0631166 -0.0128283)
(-0.00352518 -0.0531504 -0.0164084)
(-0.00346059 -0.044608 -0.018901)
(-0.00279027 -0.0360627 -0.020447)
(-0.00151927 -0.026746 -0.0210314)
(0.000314211 -0.0164743 -0.0204832)
(0.00256729 -0.00559275 -0.018597)
(0.00498119 0.0050666 -0.0153171)
(0.00724566 0.0143259 -0.0109495)
(0.00908206 0.0212282 -0.00622761)
(0.0103512 0.0258293 -0.0019387)
(0.0111322 0.0290611 0.00178973)
(0.0114888 0.0316617 0.00501659)
(0.0114223 0.0342263 0.0075621)
(0.0110862 0.0377337 0.00921658)
(0.0105908 0.0441072 0.0101557)
(0.00990531 0.0580199 0.00932157)
(0.00935901 0.0917325 0.00288803)
(0.00942462 0.169831 -0.0103582)
(0.00668662 0.314631 -0.0279663)
(0.00329229 0.485414 -0.0357802)
(-0.00104342 0.524021 -0.0217592)
(-0.000156687 -0.132185 0.0139242)
(0.000534105 -0.210398 0.0256612)
(0.00123512 -0.224727 0.0274998)
(0.00187985 -0.226008 0.0276906)
(0.00247121 -0.220905 0.027661)
(0.00297036 -0.208401 0.0272506)
(0.00324147 -0.187484 0.025954)
(0.00327153 -0.159757 0.0233175)
(0.00310529 -0.128694 0.0189878)
(0.00273443 -0.098436 0.0127993)
(0.00209913 -0.0730977 0.00515474)
(0.00118382 -0.0553528 -0.00278024)
(0.000108119 -0.0446908 -0.00976151)
(-0.000938352 -0.0383354 -0.0153767)
(-0.00179033 -0.0337824 -0.0198431)
(-0.00230892 -0.0296094 -0.0234315)
(-0.0023772 -0.0251027 -0.0262829)
(-0.00192027 -0.0198682 -0.0284215)
(-0.000892836 -0.013657 -0.0297692)
(0.000705117 -0.00636761 -0.0301519)
(0.00277992 0.00187672 -0.0293422)
(0.00511484 0.010628 -0.0271668)
(0.00740778 0.0190972 -0.0236542)
(0.00935224 0.0263916 -0.019193)
(0.0107446 0.0320171 -0.0144796)
(0.0115242 0.036243 -0.0101622)
(0.0117539 0.039957 -0.00652573)
(0.0115113 0.0442813 -0.00349731)
(0.0109033 0.0505741 -0.000940348)
(0.00994687 0.0613581 0.00100181)
(0.00860793 0.084829 0.00114214)
(0.0070243 0.150185 -0.00135669)
(0.00444447 0.32413 -0.00180434)
(0.0025252 0.535876 -0.00549124)
(8.45686e-05 0.54707 -0.00342259)
(1.95455e-06 -0.137676 0.010645)
(0.000931059 -0.229334 0.0155758)
(0.0016404 -0.252932 0.0169559)
(0.00244354 -0.258083 0.0178124)
(0.00338029 -0.255711 0.0187012)
(0.00452593 -0.246748 0.0199845)
(0.00583485 -0.230238 0.0218274)
(0.00722456 -0.205798 0.0239746)
(0.00855438 -0.174714 0.0256463)
(0.00961579 -0.139696 0.0258404)
(0.0101294 -0.104425 0.0237621)
(0.00984237 -0.0730755 0.019174)
(0.00875694 -0.0490827 0.0126498)
(0.00725326 -0.0332892 0.00539719)
(0.00578357 -0.0238705 -0.00147357)
(0.00456965 -0.0181905 -0.00748873)
(0.00370629 -0.0141746 -0.0126417)
(0.0032322 -0.0105344 -0.0170448)
(0.0032149 -0.00655192 -0.0207167)
(0.00368941 -0.00176955 -0.0235811)
(0.00465449 0.00421018 -0.0255219)
(0.00608053 0.0115499 -0.0262836)
(0.00784901 0.0200344 -0.0255499)
(0.0097415 0.0291474 -0.0231513)
(0.0114944 0.0381718 -0.0192746)
(0.0128677 0.0465437 -0.0145081)
(0.0137361 0.0543239 -0.00957875)
(0.014134 0.0623724 -0.00495797)
(0.0141777 0.0725033 -0.000743003)
(0.0139725 0.0890296 0.00280685)
(0.0135339 0.125912 0.00295637)
(0.0127066 0.217721 -0.00770997)
(0.0102673 0.382119 -0.0254378)
(0.00655179 0.546451 -0.0275577)
(0.000854535 0.558878 -0.0158016)
(0.000565713 -0.149634 0.0123758)
(0.00221949 -0.237983 0.018448)
(0.00310977 -0.254878 0.0191913)
(0.00382383 -0.256578 0.0194137)
(0.0045819 -0.251399 0.0197579)
(0.0054641 -0.239133 0.0204254)
(0.00644436 -0.218915 0.0214632)
(0.00751738 -0.191233 0.0226378)
(0.00864776 -0.157789 0.0233645)
(0.00970297 -0.121026 0.0228297)
(0.0104714 -0.0842413 0.0203327)
(0.0107291 -0.0517336 0.0156681)
(0.0103618 -0.0280421 0.00942003)
(0.00960131 -0.0146716 0.00303464)
(0.00884956 -0.00807444 -0.00243491)
(0.00821103 -0.00410258 -0.00735405)
(0.00772465 -0.00114125 -0.0121489)
(0.00750033 0.00125504 -0.0167643)
(0.00756303 0.00346812 -0.0210309)
(0.00793337 0.00588353 -0.0247561)
(0.00864891 0.00883985 -0.0277433)
(0.00970432 0.0126 -0.0298101)
(0.0110161 0.0173607 -0.0308013)
(0.0124924 0.0233021 -0.0305592)
(0.0140301 0.0303883 -0.0288125)
(0.0153835 0.0379738 -0.0254669)
(0.0162946 0.0453842 -0.0208727)
(0.0165932 0.0525453 -0.0155881)
(0.0161871 0.060175 -0.0100635)
(0.0149624 0.0707478 -0.00429677)
(0.0125575 0.0947815 0.00167041)
(0.00806525 0.180053 0.00523232)
(-0.00108932 0.404338 0.00409284)
(-0.00369808 0.624956 -0.00218867)
(-0.00246187 0.598907 -0.00222261)
(-0.000186707 -0.163555 0.0135784)
(-0.00155356 -0.255741 0.0155723)
(-0.00237792 -0.27479 0.0153091)
(-0.00276187 -0.277731 0.0154815)
(-0.0028198 -0.273931 0.016261)
(-0.00246662 -0.264093 0.0179638)
(-0.00160166 -0.24739 0.0208993)
(-0.000164085 -0.222925 0.0250621)
(0.00181919 -0.190715 0.0297696)
(0.00418045 -0.152086 0.0336023)
(0.00655848 -0.10996 0.0348139)
(0.00839704 -0.0692228 0.0321806)
(0.00903384 -0.0360457 0.0259249)
(0.00820331 -0.0143923 0.0178008)
(0.00652506 -0.00260925 0.00977581)
(0.00477036 0.00360185 0.00263411)
(0.00325269 0.00724704 -0.0036693)
(0.00203605 0.00997966 -0.00938292)
(0.00110994 0.0126815 -0.014629)
(0.000460709 0.0158267 -0.0192867)
(5.598e-05 0.0197746 -0.0231513)
(-0.00017679 0.0250432 -0.0262065)
(-0.00030854 0.0322124 -0.0284059)
(-0.000425663 0.0414354 -0.0294448)
(-0.000661135 0.0524533 -0.0289436)
(-0.00118128 0.0650205 -0.0266407)
(-0.00218232 0.0791505 -0.0224731)
(-0.00368899 0.0955595 -0.0165794)
(-0.00550019 0.116648 -0.00928158)
(-0.00772602 0.149154 -0.00152711)
(-0.00931437 0.211735 0.00334899)
(-1.99945e-05 0.343499 -0.00364589)
(0.00683284 0.534468 -0.0215562)
(0.00491019 0.602678 -0.0196742)
(0.00340944 0.562205 -0.0118682)
(-0.000693694 -0.157453 0.0099057)
(-0.00250141 -0.248735 0.00772883)
(-0.00368811 -0.269506 0.00614423)
(-0.00437896 -0.273944 0.00559939)
(-0.00472942 -0.271705 0.00570014)
(-0.00467985 -0.263805 0.00658699)
(-0.00411567 -0.249759 0.00862718)
(-0.00294018 -0.229023 0.0122285)
(-0.00106153 -0.201323 0.0175573)
(0.00159235 -0.166525 0.0241539)
(0.0049849 -0.124967 0.0305522)
(0.00882704 -0.0787028 0.0343278)
(0.0124693 -0.0333768 0.033147)
(0.0149593 0.00148863 0.0268786)
(0.0159374 0.0198814 0.0187713)
(0.0157336 0.0269883 0.0117027)
(0.01506 0.0298602 0.00575953)
(0.014428 0.0316823 0.000151925)
(0.0142026 0.0332963 -0.00534957)
(0.014579 0.0350953 -0.0105313)
(0.0156079 0.0375462 -0.0152093)
(0.0172805 0.0411318 -0.0193455)
(0.0196301 0.0463277 -0.0230134)
(0.0226657 0.0534082 -0.0261817)
(0.026317 0.0623195 -0.0286727)
(0.030546 0.0727229 -0.0302069)
(0.0351618 0.0836797 -0.030429)
(0.0387628 0.092884 -0.0291661)
(0.0396935 0.0977836 -0.0268929)
(0.0382602 0.0968871 -0.0222606)
(0.0331832 0.0777161 -0.0100719)
(0.0199865 0.0742697 0.0170518)
(0.0179669 0.392085 0.0236021)
(0.0172403 0.669879 0.00345525)
(0.00669287 0.649602 0.00169214)
(-0.000643475 -0.160562 0.0093736)
(-0.00189692 -0.260437 0.00682535)
(-0.00241199 -0.286957 0.00473872)
(-0.00250513 -0.294637 0.00376264)
(-0.00224138 -0.295348 0.00337421)
(-0.0015571 -0.291142 0.00349295)
(-0.00035811 -0.282053 0.00424292)
(0.00146036 -0.267718 0.00593794)
(0.00399776 -0.247972 0.00907602)
(0.00737368 -0.222795 0.0141872)
(0.011782 -0.191875 0.0214458)
(0.0173247 -0.154639 0.0300681)
(0.0237656 -0.111262 0.0378101)
(0.0302859 -0.0647937 0.041257)
(0.0350089 -0.0243408 0.0379973)
(0.0360193 -0.00167651 0.0306991)
(0.0350271 0.00604615 0.0241563)
(0.0333233 0.00797732 0.0186777)
(0.0308137 0.00750997 0.0136101)
(0.0281464 0.00562325 0.00884607)
(0.0258328 0.003246 0.00428009)
(0.023919 0.00143035 -0.000283961)
(0.0224523 0.0010987 -0.00496654)
(0.0213072 0.0026345 -0.00985164)
(0.020007 0.00603857 -0.0151347)
(0.018174 0.0126942 -0.0210698)
(0.0159731 0.0271789 -0.0279492)
(0.0140336 0.0574048 -0.0365564)
(0.0131062 0.113797 -0.0482998)
(0.0127979 0.205293 -0.0631271)
(0.0118844 0.322588 -0.0741476)
(-0.00259287 0.422971 -0.0633078)
(-0.0217682 0.493442 -0.0170727)
(-0.0229849 0.654622 0.00610532)
(-0.0130867 0.630081 0.00412919)
(-0.00196294 -0.149845 0.00605379)
(-0.00403991 -0.253209 0.00130202)
(-0.0047906 -0.283698 -0.000770095)
(-0.00495426 -0.29321 -0.00168604)
(-0.00481118 -0.294726 -0.00228637)
(-0.00450724 -0.290521 -0.00277618)
(-0.00415909 -0.280478 -0.00315035)
(-0.00385591 -0.264492 -0.00323899)
(-0.00366059 -0.243336 -0.00266417)
(-0.00360815 -0.218292 -0.000759464)
(-0.00364855 -0.190188 0.00342166)
(-0.00354627 -0.158588 0.010828)
(-0.00284212 -0.12177 0.0216387)
(-0.000969203 -0.0781406 0.0340247)
(0.00231467 -0.0294413 0.043875)
(0.00603353 0.016853 0.0476151)
(0.00821815 0.0521959 0.0456292)
(0.00720581 0.0735762 0.0408661)
(0.00332887 0.0838574 0.0357808)
(-0.00335335 0.0888006 0.0314638)
(-0.0130275 0.0921161 0.0285799)
(-0.0250446 0.0954367 0.0275754)
(-0.038612 0.100602 0.0283945)
(-0.0530934 0.112198 0.029588)
(-0.0677152 0.13583 0.0303379)
(-0.0830257 0.164458 0.0329761)
(-0.097201 0.183206 0.0376658)
(-0.10765 0.192192 0.0423402)
(-0.113915 0.2028 0.0451203)
(-0.113064 0.228257 0.0440886)
(-0.102733 0.290329 0.0375738)
(-0.0625825 0.428055 0.027484)
(-0.0243914 0.760033 -0.0152732)
(-0.00560279 0.754289 -0.0430973)
(0.00299299 0.566481 -0.0352379)
(-0.000168972 -0.151797 0.00153344)
(0.00279269 -0.272807 -0.000478514)
(0.00641767 -0.314135 -0.000835873)
(0.00963876 -0.327992 -0.00112946)
(0.0127671 -0.331745 -0.0015995)
(0.0160287 -0.329523 -0.00227212)
(0.0193633 -0.321993 -0.00319188)
(0.0227443 -0.308914 -0.00445689)
(0.0261318 -0.289917 -0.00619985)
(0.029407 -0.265382 -0.00845739)
(0.0324607 -0.236952 -0.0109897)
(0.0353612 -0.207018 -0.0131686)
(0.0384583 -0.177403 -0.014023)
(0.0423479 -0.148194 -0.0124527)
(0.047659 -0.117721 -0.0076374)
(0.0547334 -0.0839891 0.000290448)
(0.063561 -0.0458929 0.0101285)
(0.0731427 -0.00324037 0.0199797)
(0.0824554 0.0400223 0.0275078)
(0.090747 0.0795293 0.0316235)
(0.0970779 0.113354 0.031469)
(0.101818 0.138991 0.0289904)
(0.104642 0.1547 0.0208835)
(0.10493 0.167782 0.00624482)
(0.107067 0.176521 -0.00251194)
(0.111769 0.179675 -0.0025294)
(0.117234 0.166234 0.00810001)
(0.115709 0.134187 0.028446)
(0.109729 0.108579 0.0495431)
(0.0940921 0.071392 0.068204)
(0.0756262 0.0760846 0.10646)
(0.0572872 -0.0587698 0.0452499)
(0.0358119 0.0520204 0.0592169)
(0.0432976 0.460521 0.0751087)
(0.0209245 0.592619 0.0626974)
(0.000821731 -0.168137 -1.30086e-05)
(0.0054703 -0.298792 0.000562095)
(0.0102027 -0.342269 0.00125236)
(0.0144735 -0.356398 0.00129435)
(0.0184951 -0.359876 0.000922986)
(0.0225695 -0.357202 0.000217129)
(0.0267264 -0.349144 -0.000838692)
(0.0310345 -0.33544 -0.00232137)
(0.0355422 -0.315712 -0.0043504)
(0.0402014 -0.290379 -0.00701624)
(0.0448801 -0.261162 -0.0102534)
(0.0494039 -0.23077 -0.0137387)
(0.0536164 -0.202028 -0.0169172)
(0.0574916 -0.176779 -0.0191775)
(0.0612138 -0.155109 -0.0200085)
(0.0651359 -0.135595 -0.0188951)
(0.0696716 -0.116259 -0.0150753)
(0.0751474 -0.0954935 -0.00777886)
(0.081375 -0.0730001 0.00270611)
(0.08796 -0.049421 0.0150851)
(0.0950578 -0.0264899 0.0279766)
(0.100635 0.000533444 0.0431999)
(0.108208 0.0494567 0.0656854)
(0.111473 0.0506453 0.111223)
(0.106135 0.00583684 0.11566)
(0.106616 0.042058 0.0252193)
(0.105575 0.134752 -0.0845496)
(0.0980205 0.225227 -0.16256)
(0.08788 0.300676 -0.201864)
(0.0739709 0.366917 -0.211455)
(0.0653356 0.436738 -0.192592)
(0.0426763 0.503132 -0.166852)
(-0.00167696 0.585772 -0.0586841)
(-0.0121116 0.763481 0.0130942)
(-0.0112257 0.795148 0.00953165)
(0.000174395 -0.191243 0.000662712)
(0.00312013 -0.329455 0.00273649)
(0.00575281 -0.372231 0.00358107)
(0.00797304 -0.385123 0.00377391)
(0.00991373 -0.387534 0.00370296)
(0.0115683 -0.383675 0.00343657)
(0.0127009 -0.374089 0.0029675)
(0.0131399 -0.358166 0.00223001)
(0.0127345 -0.334968 0.00107086)
(0.01137 -0.304413 -0.000707508)
(0.00904377 -0.268236 -0.00316061)
(0.00588718 -0.229591 -0.00604772)
(0.00208597 -0.1917 -0.0089399)
(-0.00216544 -0.156866 -0.0114118)
(-0.0067757 -0.126144 -0.0130175)
(-0.0117055 -0.0992728 -0.0131034)
(-0.0168775 -0.0748732 -0.0107348)
(-0.022204 -0.050994 -0.00474865)
(-0.0274404 -0.0256501 0.0062081)
(-0.0323349 0.00325115 0.0238806)
(-0.0373884 0.0382257 0.0504991)
(-0.0435341 0.0800698 0.0841033)
(-0.0493982 0.125405 0.107937)
(-0.0603929 0.176721 0.0967031)
(-0.0745295 0.244663 0.0452376)
(-0.0804386 0.317351 -0.0188317)
(-0.0788472 0.384909 -0.0742308)
(-0.071888 0.436505 -0.115321)
(-0.0647506 0.463034 -0.136229)
(-0.059705 0.474771 -0.135071)
(-0.0517159 0.500522 -0.123172)
(-0.0400413 0.57207 -0.0970758)
(-0.0289313 0.680861 -0.053902)
(-0.0207048 0.72634 -0.034369)
(-0.010359 0.634464 -0.0220385)
(0.00118113 -0.205038 0.00020167)
(0.00502851 -0.345937 0.000735048)
(0.00910418 -0.388372 7.64909e-05)
(0.0126548 -0.400591 -0.00057566)
(0.0160215 -0.402005 -0.00117128)
(0.0193949 -0.396747 -0.0017772)
(0.0226581 -0.385406 -0.00243305)
(0.0257713 -0.367485 -0.0032235)
(0.028682 -0.342225 -0.00436123)
(0.0312479 -0.309835 -0.00622397)
(0.0332838 -0.272545 -0.00915255)
(0.034683 -0.234085 -0.0130518)
(0.0355099 -0.197944 -0.017293)
(0.035971 -0.166011 -0.0211213)
(0.0362932 -0.138444 -0.0240933)
(0.0366274 -0.114348 -0.0261394)
(0.0370406 -0.0924973 -0.0273646)
(0.0375512 -0.0716828 -0.0278521)
(0.0381653 -0.0508151 -0.0275684)
(0.039066 -0.0288966 -0.0263251)
(0.0398987 -0.00480732 -0.0234659)
(0.0403533 0.0218775 -0.0184018)
(0.0394415 0.0481347 -0.0115189)
(0.0355008 0.0659413 -0.00501477)
(0.0285088 0.0726396 0.000422369)
(0.0206415 0.0685507 0.00965943)
(0.00932305 0.0631478 0.0432381)
(-0.00062564 0.0845421 0.0827363)
(-0.0134346 0.166646 0.106302)
(-0.0217272 0.259449 0.105586)
(-0.03216 0.332628 0.119992)
(-0.0357868 0.370662 0.10497)
(-0.0224815 0.447903 0.0642114)
(-0.0080922 0.595778 0.0428499)
(-0.00039818 0.526417 0.0293825)
(-0.000445544 -0.217704 5.79963e-05)
(0.000435515 -0.367008 -0.00292589)
(0.0020172 -0.409482 -0.00520064)
(0.00399776 -0.420913 -0.00630013)
(0.0060859 -0.421424 -0.00680708)
(0.00820789 -0.414787 -0.00691121)
(0.0101357 -0.40129 -0.00662976)
(0.011781 -0.380025 -0.00597939)
(0.0131287 -0.349738 -0.00514184)
(0.0142068 -0.310414 -0.004655)
(0.0150595 -0.264785 -0.00528879)
(0.0156896 -0.217953 -0.00743743)
(0.0160597 -0.175099 -0.0106649)
(0.0161349 -0.139268 -0.0139982)
(0.0159215 -0.110732 -0.0165791)
(0.0154915 -0.0878271 -0.0179787)
(0.0149594 -0.0681943 -0.0180495)
(0.0144236 -0.0495028 -0.0166203)
(0.0138858 -0.0294573 -0.013252)
(0.0131348 -0.0052607 -0.00701594)
(0.012181 0.0273341 0.00348049)
(0.0114304 0.0753565 0.0188569)
(0.0107338 0.148784 0.0343271)
(0.00991948 0.24559 0.0359979)
(0.00785552 0.341531 0.0196259)
(0.00335709 0.423167 -0.00313193)
(-0.00520384 0.483362 -0.0170499)
(-0.0146654 0.508949 -0.0154124)
(-0.0215493 0.515938 -0.00300184)
(-0.0251135 0.513155 0.0143009)
(-0.0273728 0.49898 0.0400736)
(-0.0282494 0.470361 0.0519223)
(-0.0221848 0.463708 0.0489403)
(-0.0102704 0.554286 0.0629749)
(0.000991278 0.52898 0.0464736)
(0.00100953 -0.22278 -0.00552401)
(0.00480833 -0.374975 -0.0132853)
(0.00886082 -0.420409 -0.0172477)
(0.0123904 -0.432953 -0.0191234)
(0.0158724 -0.433622 -0.0201643)
(0.0194019 -0.426836 -0.0206804)
(0.0227452 -0.413472 -0.02066)
(0.0258018 -0.393446 -0.0200121)
(0.0285281 -0.36619 -0.0186912)
(0.03086 -0.331268 -0.0169253)
(0.0326825 -0.289519 -0.0154213)
(0.0338713 -0.243889 -0.0150905)
(0.0344046 -0.198595 -0.0163658)
(0.0344347 -0.157309 -0.0189334)
(0.0342205 -0.121954 -0.0220934)
(0.0339874 -0.0926263 -0.025222)
(0.0338618 -0.0681952 -0.0279653)
(0.033925 -0.0470291 -0.0301937)
(0.0343269 -0.0274006 -0.0318489)
(0.0354206 -0.00744466 -0.0327495)
(0.0374874 0.0150502 -0.0323958)
(0.040089 0.0421565 -0.0296655)
(0.0426378 0.0731156 -0.0225859)
(0.0451346 0.105276 -0.0100895)
(0.0481744 0.139697 0.00393395)
(0.0518179 0.178226 0.0126211)
(0.0560464 0.212371 0.0131411)
(0.0615132 0.23762 0.0101867)
(0.0673305 0.27781 0.00818287)
(0.0689389 0.341896 0.00305728)
(0.0614226 0.397744 -0.00235351)
(0.0509222 0.413879 -0.0107517)
(0.0397519 0.406226 -0.0223543)
(0.0250585 0.48548 0.016859)
(0.0127606 0.527114 0.047836)
(0.000690705 -0.243347 -0.00884674)
(0.00364914 -0.404408 -0.0186273)
(0.00688967 -0.447806 -0.0228371)
(0.0100696 -0.458306 -0.0247198)
(0.0133486 -0.457317 -0.025739)
(0.016813 -0.448743 -0.0262206)
(0.0203299 -0.433094 -0.0261521)
(0.0238754 -0.409865 -0.0254078)
(0.027462 -0.378208 -0.0238735)
(0.031107 -0.33787 -0.0217435)
(0.0348049 -0.290528 -0.019818)
(0.0384784 -0.240513 -0.0191919)
(0.0420145 -0.193536 -0.0203428)
(0.0454247 -0.15405 -0.022782)
(0.0489078 -0.123394 -0.0256635)
(0.0526949 -0.100011 -0.0284431)
(0.0569247 -0.0811741 -0.030969)
(0.061654 -0.0644512 -0.0332634)
(0.0667812 -0.0480597 -0.035388)
(0.0718429 -0.0305507 -0.0374138)
(0.0763084 -0.00990077 -0.0393664)
(0.0795762 0.0191803 -0.040658)
(0.0816989 0.0713229 -0.0432451)
(0.080479 0.147326 -0.0544644)
(0.075827 0.21812 -0.066375)
(0.0720589 0.266997 -0.0691968)
(0.0689974 0.300544 -0.059221)
(0.0636653 0.336839 -0.0400637)
(0.0549067 0.393605 -0.0395608)
(0.0447737 0.461559 -0.0600859)
(0.0351934 0.513679 -0.0773368)
(0.0268917 0.544784 -0.082946)
(0.0156574 0.575383 -0.0704681)
(0.00536532 0.639852 -0.0291084)
(0.000323128 0.660757 0.00414421)
(0.00124751 -0.250044 -0.0126816)
(0.00456652 -0.408587 -0.0229466)
(0.00703895 -0.451992 -0.0267715)
(0.00900906 -0.46255 -0.0284765)
(0.0108184 -0.461336 -0.0295662)
(0.0124513 -0.452183 -0.0303562)
(0.0136623 -0.435585 -0.030759)
(0.0142563 -0.411456 -0.0304388)
(0.0141254 -0.379719 -0.0289311)
(0.0133184 -0.340372 -0.0260518)
(0.0120557 -0.294168 -0.0224824)
(0.010643 -0.244223 -0.0197616)
(0.00933253 -0.196098 -0.0190643)
(0.00824088 -0.155138 -0.020186)
(0.00736472 -0.123838 -0.0220633)
(0.0066652 -0.101253 -0.023785)
(0.0061108 -0.0843402 -0.0249712)
(0.00566203 -0.0697938 -0.0255665)
(0.00524148 -0.0545046 -0.0255129)
(0.00471625 -0.0341911 -0.0245651)
(0.00405804 -0.000221859 -0.0226572)
(0.00319308 0.0605619 -0.022256)
(0.00338856 0.147721 -0.0300865)
(0.00517993 0.227367 -0.0460687)
(0.007677 0.274787 -0.0556939)
(0.0110514 0.310036 -0.0551135)
(0.01365 0.357088 -0.0456986)
(0.0125 0.434755 -0.0411743)
(0.00662616 0.518216 -0.0624226)
(-0.000481366 0.578187 -0.0904653)
(-0.00571539 0.618679 -0.105881)
(-0.00911054 0.650814 -0.106518)
(-0.0114998 0.682355 -0.0917607)
(-0.0121947 0.70892 -0.0657697)
(-0.0073626 0.662068 -0.036773)
(0.000840388 -0.272344 -0.0128156)
(0.00284526 -0.430296 -0.0200199)
(0.00474565 -0.466682 -0.0220198)
(0.00633963 -0.473381 -0.0231639)
(0.00784774 -0.469035 -0.0242992)
(0.00922685 -0.456063 -0.0256283)
(0.0102776 -0.434324 -0.0270576)
(0.0108716 -0.403773 -0.0281415)
(0.0110149 -0.365282 -0.0281989)
(0.0108576 -0.32041 -0.0268114)
(0.0105678 -0.27141 -0.0243268)
(0.0102087 -0.221769 -0.0219057)
(0.00975132 -0.175776 -0.0207474)
(0.0091709 -0.136728 -0.0211654)
(0.00843666 -0.105559 -0.0226364)
(0.0074926 -0.0811529 -0.0244947)
(0.00628733 -0.0614045 -0.0263436)
(0.00477662 -0.0440675 -0.0280187)
(0.00293932 -0.0272419 -0.0293935)
(0.000869634 -0.00944229 -0.0301936)
(-0.001105 0.0111417 -0.0298922)
(-0.0027408 0.0386219 -0.0277597)
(-0.00360389 0.080275 -0.0236796)
(-0.00347567 0.138216 -0.0199644)
(-0.00439699 0.197966 -0.0172982)
(-0.00762945 0.251159 -0.0122289)
(-0.0124055 0.312206 -0.00354425)
(-0.0167296 0.401749 -0.000321165)
(-0.0194026 0.504298 -0.0159644)
(-0.0211485 0.582992 -0.039219)
(-0.0217741 0.635067 -0.0548566)
(-0.0206776 0.670919 -0.0601048)
(-0.0180592 0.693297 -0.0561607)
(-0.0141091 0.691758 -0.0451739)
(-0.00491685 0.572233 -0.0231609)
(0.000633192 -0.270203 -0.0127141)
(0.00252186 -0.426362 -0.0157919)
(0.00412933 -0.464912 -0.0161839)
(0.005439 -0.472537 -0.0168645)
(0.00659719 -0.468194 -0.018142)
(0.00747448 -0.4542 -0.0202022)
(0.00777385 -0.430411 -0.022941)
(0.00733183 -0.397928 -0.0256088)
(0.00628061 -0.359234 -0.0270334)
(0.00499055 -0.316012 -0.0264236)
(0.00385781 -0.26889 -0.0239508)
(0.0031244 -0.219667 -0.0208363)
(0.0027773 -0.172577 -0.0186238)
(0.00265623 -0.132085 -0.0180213)
(0.00262456 -0.0999428 -0.0187112)
(0.00260225 -0.0749296 -0.0200733)
(0.00255036 -0.0545063 -0.0217011)
(0.00245478 -0.0360535 -0.0234468)
(0.00229174 -0.0170429 -0.0253327)
(0.00198274 0.00553161 -0.0275072)
(0.00140549 0.0360603 -0.0302336)
(0.000276821 0.0805071 -0.0336527)
(-0.00202424 0.141672 -0.036594)
(-0.0056413 0.212508 -0.0357307)
(-0.010191 0.282398 -0.0298139)
(-0.0157905 0.342306 -0.0202738)
(-0.0219327 0.393558 -0.00862014)
(-0.0265768 0.448469 0.00171903)
(-0.0276721 0.51201 0.00539532)
(-0.0255097 0.5723 0.00310606)
(-0.0216907 0.62002 -0.000219149)
(-0.0169987 0.653766 -0.00207612)
(-0.0119084 0.671197 -0.00170895)