/*--------------------------------*- C++ -*----------------------------------*\
| =========                 |                                                 |
| \\      /  F ield         | OpenFOAM: The Open Source CFD Toolbox           |
|  \\    /   O peration     | Version:  v2012                                 |
|   \\  /    A nd           | Website:  www.openfoam.com                      |
|    \\/     M anipulation  |                                                 |
\*---------------------------------------------------------------------------*/
FoamFile
{
    version     2.0;
    format      ascii;
    class       volScalarField;
    location    "1200";
    object      heatTransferCoeff(T);
}
// * * * * * * * * * * * * * * * * * * * * * * * * * * * * * * * * * * * * * //

dimensions      [1 0 -3 -1 0 0 0];


internalField   uniform 0;

boundaryField
{
    floor
    {
        type            calculated;
        value           uniform 0;
    }
    ceiling
    {
        type            calculated;
        value           nonuniform List<scalar> 
400
(
-0.00293062
-0.00315088
-0.0033381
-0.00348596
-0.00360776
-0.0037072
-0.00378301
-0.00382942
-0.00383587
-0.00378004
-0.00370771
-0.00372553
-0.00371169
-0.00366319
-0.00358611
-0.00348503
-0.00336224
-0.00321493
-0.00302963
-0.00280487
-0.00315088
-0.00338964
-0.00359934
-0.00377382
-0.00392612
-0.00405864
-0.00416735
-0.00424142
-0.00426479
-0.00421434
-0.00412344
-0.00413372
-0.0041013
-0.00402345
-0.00391092
-0.00377326
-0.00361718
-0.00344155
-0.00323287
-0.00299189
-0.0033381
-0.00359934
-0.00382711
-0.00402212
-0.0041987
-0.00435892
-0.0044977
-0.0045995
-0.00464228
-0.00459706
-0.0044867
-0.00449006
-0.00443843
-0.00433195
-0.00418725
-0.00401923
-0.00383872
-0.00364441
-0.00342058
-0.00316264
-0.00348596
-0.00377382
-0.00402212
-0.00423969
-0.00444576
-0.0046412
-0.00481711
-0.00495496
-0.00503003
-0.00501163
-0.00487142
-0.00484952
-0.00476769
-0.00462725
-0.00444536
-0.00424173
-0.00403371
-0.0038204
-0.00357933
-0.00329976
-0.00360776
-0.00392612
-0.0041987
-0.00444576
-0.0046938
-0.00493387
-0.00515468
-0.00533732
-0.00545751
-0.0054835
-0.00530023
-0.0052368
-0.00511479
-0.00493394
-0.00471178
-0.00446856
-0.00422171
-0.00398136
-0.00371861
-0.00341284
-0.0037072
-0.00405864
-0.00435892
-0.0046412
-0.00493387
-0.00522152
-0.0054941
-0.00573551
-0.00592479
-0.00602926
-0.00578179
-0.00564557
-0.00546442
-0.00523443
-0.00496807
-0.00468351
-0.00439755
-0.00412514
-0.00383813
-0.00350394
-0.00378301
-0.00416735
-0.0044977
-0.00481711
-0.00515468
-0.0054941
-0.00583019
-0.00615622
-0.00646322
-0.0067197
-0.006373
-0.0060944
-0.00581462
-0.00551859
-0.00520132
-0.00487419
-0.00454979
-0.0042455
-0.00393316
-0.00357139
-0.00382942
-0.00424142
-0.0045995
-0.00495496
-0.00533732
-0.00573551
-0.00615622
-0.00661383
-0.00712454
-0.00765982
-0.00716323
-0.006618
-0.00616469
-0.0057699
-0.00539287
-0.00502299
-0.0046631
-0.00432929
-0.00399459
-0.00361051
-0.00383587
-0.00426479
-0.00464228
-0.00503003
-0.00545751
-0.00592479
-0.00646322
-0.00712454
-0.00796133
-0.00890775
-0.00821041
-0.0072526
-0.00651858
-0.00596893
-0.00551688
-0.00510505
-0.00471524
-0.00435856
-0.00401013
-0.0036135
-0.00378004
-0.00421434
-0.00459706
-0.00501163
-0.0054835
-0.00602926
-0.0067197
-0.00765982
-0.00890775
-0.009692
-0.00899982
-0.00793252
-0.00685551
-0.00609127
-0.00554618
-0.00509525
-0.00468333
-0.00431318
-0.00396466
-0.00356758
-0.00370771
-0.00412344
-0.0044867
-0.00487142
-0.00530023
-0.00578179
-0.006373
-0.00716323
-0.00821041
-0.00899982
-0.00855934
-0.00742876
-0.00653313
-0.00589617
-0.00541763
-0.00500795
-0.00462723
-0.00428019
-0.00394564
-0.00356006
-0.00372553
-0.00413372
-0.00449006
-0.00484952
-0.0052368
-0.00564557
-0.0060944
-0.006618
-0.0072526
-0.00793252
-0.00742876
-0.0067415
-0.00619066
-0.0057423
-0.00534777
-0.00497933
-0.00462599
-0.00429684
-0.00396733
-0.00358777
-0.00371169
-0.00410129
-0.00443843
-0.00476769
-0.00511479
-0.00546442
-0.00581462
-0.00616469
-0.00651858
-0.00685551
-0.00653313
-0.00619066
-0.0058641
-0.00553894
-0.00521094
-0.00488477
-0.00456294
-0.00425764
-0.00394348
-0.00357834
-0.00366318
-0.00402345
-0.00433195
-0.00462725
-0.00493394
-0.00523443
-0.00551859
-0.00576989
-0.00596893
-0.00609127
-0.00589617
-0.0057423
-0.00553894
-0.0052912
-0.00501682
-0.00473181
-0.00444419
-0.00416717
-0.00387671
-0.00353577
-0.00358611
-0.00391092
-0.00418726
-0.00444536
-0.00471178
-0.00496807
-0.00520132
-0.00539287
-0.00551688
-0.00554618
-0.00541763
-0.00534777
-0.00521094
-0.00501682
-0.00478827
-0.00454335
-0.00429155
-0.00404488
-0.00377997
-0.00346772
-0.00348503
-0.00377326
-0.00401923
-0.00424173
-0.00446856
-0.00468351
-0.00487419
-0.00502299
-0.00510505
-0.00509525
-0.00500795
-0.00497932
-0.00488477
-0.00473181
-0.00454335
-0.00433686
-0.00412099
-0.00390358
-0.00366216
-0.00337863
-0.00336224
-0.00361718
-0.00383873
-0.00403371
-0.00422171
-0.00439755
-0.00454979
-0.0046631
-0.00471524
-0.00468333
-0.00462723
-0.00462599
-0.00456294
-0.00444419
-0.00429155
-0.00412099
-0.00393936
-0.00374725
-0.00352645
-0.00326919
-0.00321493
-0.00344155
-0.00364441
-0.0038204
-0.00398136
-0.00412514
-0.0042455
-0.00432929
-0.00435856
-0.00431318
-0.00428019
-0.00429684
-0.00425764
-0.00416717
-0.00404488
-0.00390358
-0.00374725
-0.003574
-0.00337036
-0.00313567
-0.00302963
-0.00323287
-0.00342058
-0.00357933
-0.00371861
-0.00383813
-0.00393316
-0.00399459
-0.00401013
-0.00396466
-0.00394564
-0.00396733
-0.00394348
-0.00387671
-0.00377997
-0.00366216
-0.00352645
-0.00337036
-0.00318151
-0.00296539
-0.00280487
-0.00299189
-0.00316264
-0.00329976
-0.00341284
-0.00350394
-0.00357139
-0.00361051
-0.0036135
-0.00356758
-0.00356005
-0.00358777
-0.00357834
-0.00353577
-0.00346772
-0.00337863
-0.00326919
-0.00313567
-0.00296539
-0.00276398
)
;
    }
    fixedWalls
    {
        type            calculated;
        value           uniform 0;
    }
}


// ************************************************************************* //
