/*--------------------------------*- C++ -*----------------------------------*\
| =========                 |                                                 |
| \\      /  F ield         | OpenFOAM: The Open Source CFD Toolbox           |
|  \\    /   O peration     | Version:  v2012                                 |
|   \\  /    A nd           | Website:  www.openfoam.com                      |
|    \\/     M anipulation  |                                                 |
\*---------------------------------------------------------------------------*/
FoamFile
{
    version     2.0;
    format      ascii;
    class       surfaceScalarField;
    location    "1200";
    object      phi;
}
// * * * * * * * * * * * * * * * * * * * * * * * * * * * * * * * * * * * * * //

dimensions      [1 0 -1 0 0 0 0];
oriented        oriented;


internalField   nonuniform List<scalar> 
11200
(
0.00117458
-0.00234913
0.00117458
0.000492776
0.0001727
0.00050912
-0.000287217
0.00056826
0.000211736
-0.00079045
0.000373833
0.000129412
-0.00106895
0.000213241
6.52663e-05
-0.000628919
-0.000528488
8.84772e-05
-0.000272104
-0.00039937
4.25715e-05
2.55731e-05
-0.000383462
8.57991e-05
0.000315165
-0.000374724
8.51442e-05
0.000637558
-0.000399674
7.72952e-05
0.000977726
-0.000392814
5.26602e-05
0.0013209
-0.000353226
1.00645e-05
0.00165639
-0.000285181
-5.02974e-05
0.00197642
-0.000193356
-0.000126665
0.00237893
-0.000198748
-0.000203764
0.00273073
-8.76052e-05
-0.000264229
0.0024718
0.000675928
-0.000417016
0.00183731
0.00110238
-0.000467912
0.00119349
0.000885172
-0.000241397
0.00124727
-5.40096e-05
0.00272564
-0.00780041
0.00272564
0.00457165
-0.00444017
0.00276683
0.00453356
-0.00166632
0.00227266
0.00272637
0.00060102
0.00158001
0.00026654
0.00157755
0.00109555
-0.00109451
0.000510823
0.000321763
-0.00114512
-0.000242834
-0.00010592
-0.000684117
-0.000581115
-0.000263329
-0.000158856
-0.000482795
-0.000417176
0.000401559
-0.000461462
-0.000498612
0.000912125
-0.000420193
-0.000483174
0.00132592
-0.000351518
-0.000415497
0.00165804
-0.000285875
-0.000331419
0.00187067
-0.000223377
-0.000182607
0.00139261
0.000411504
-0.000132189
-0.000309319
0.00119215
0.000422162
-0.00258656
0.00185171
0.00110139
-0.00383131
0.000854069
0.00149294
-0.00333722
-0.00169067
0.00208164
-0.00449176
0.00240169
0.00169862
-0.0111977
0.00169862
0.00308511
-0.00780225
0.00197559
0.00377321
-0.0041831
0.00182867
0.00373238
-0.000907056
0.00154892
0.00308998
0.000912392
0.00130756
0.00141312
0.00114674
0.00104095
-7.12796e-05
0.000582813
0.000658764
-0.000597009
-8.45727e-06
-4.69178e-05
-0.000312138
-0.000318609
-0.000449046
0.000225128
-0.000307166
-0.00069155
0.000733257
-0.000267492
-0.000660822
0.000992467
-0.00018273
-0.00042799
0.00081717
6.89529e-05
-0.000179527
-0.000278758
0.000459096
0.000413455
-0.00204042
0.00117856
0.000994586
-0.0035383
0.00149373
0.00119628
-0.00425406
0.000968933
0.00159851
-0.00389118
-0.00142917
0.00192034
-0.00243776
-0.00527453
0.00213042
-0.00914063
0.0022111
0.000869015
-0.0129357
0.000869015
0.00130172
-0.009672
0.00143703
0.00161375
-0.00613923
0.00164409
0.00215463
-0.00321432
0.00176637
0.00255137
-0.00119758
0.00171324
0.00240742
-0.000225812
0.0015165
0.00166143
0.000105925
0.00122288
0.000615319
0.000163356
0.000874301
3.90997e-05
1.44887e-05
0.000243126
0.000112229
8.66171e-06
-0.000388954
0.000175474
7.81145e-05
-0.000408849
-0.000381199
0.000179652
0.000194291
-0.00147174
0.000299971
0.000859519
-0.0025055
0.000316543
0.0011763
-0.00305174
0.000266458
0.00145833
-0.00319807
-1.24674e-05
0.00165252
-0.00268638
-0.00136929
0.00182653
-0.0018737
-0.00409844
0.00185657
-0.00108414
-0.00773761
0.00167351
-0.0116176
0.00139281
0.000309871
-0.0135555
0.000309873
-2.44913e-05
-0.0105221
0.00118447
-0.000351856
-0.00745573
0.00164386
-0.000406843
-0.00514809
0.00198875
-0.000290034
-0.00353024
0.00221584
-0.000150253
-0.00254656
0.00218096
-5.94498e-05
-0.00194717
0.00196229
-3.29079e-05
-0.00155576
0.00169257
8.125e-06
-0.00139551
0.00136896
0.00021106
-0.00129324
0.00109897
0.000373759
-0.00117669
0.0010921
0.000335781
-0.00116174
0.00137936
0.000169239
-0.00122276
0.00168927
-6.54078e-07
-0.00148125
0.00196768
-5.92426e-05
-0.00186034
0.00218538
1.14878e-05
-0.00244514
0.00236194
0.000132494
-0.0037463
0.00225599
3.91758e-05
-0.00591616
0.00191103
-0.000108131
-0.00905303
0.00146272
-0.0126093
0.000883565
-0.000120618
-0.0133142
-0.000120617
-0.000922118
-0.0107329
0.00101228
-0.00156853
-0.00832757
0.00151824
-0.00189293
-0.00665775
0.00183405
-0.00189557
-0.00554764
0.00202002
-0.00167069
-0.00481772
0.00204627
-0.00127028
-0.00429675
0.00194916
-0.000747035
-0.00390378
0.00182477
-0.000219669
-0.00363708
0.0017142
0.000288861
-0.00348536
0.00168359
0.000757836
-0.00338157
0.0017359
0.00123976
-0.00344535
0.00180167
0.00168544
-0.00357334
0.0019049
0.00200195
-0.00382558
0.00202781
0.00214148
-0.00417222
0.00217234
0.00211487
-0.00468437
0.00226583
0.00183285
-0.00560874
0.00214444
0.00127679
-0.00717143
0.00181132
0.000482827
-0.00960031
0.00134123
-0.0126516
0.000525067
-0.000465887
-0.0123825
-0.000465886
-0.00160401
-0.0103546
0.000759802
-0.00246944
-0.00862249
0.00116035
-0.0028955
-0.00757047
0.00133876
-0.00288064
-0.00693806
0.00137555
-0.0025235
-0.0065275
0.00135264
-0.00191995
-0.00621178
0.00131147
-0.00116099
-0.00593674
0.00127399
-0.000375762
-0.00568938
0.00126706
0.000334964
-0.00552163
0.00132553
0.00102239
-0.00546026
0.00139126
0.00174636
-0.00556166
0.00139234
0.00244171
-0.00568528
0.00141658
0.00300174
-0.00585148
0.00146587
0.0033152
-0.00603457
0.00154887
0.00331731
-0.00629294
0.00160645
0.00292073
-0.00680971
0.00159755
0.00209901
-0.0077831
0.00143337
0.000896813
-0.00950067
0.00110254
-0.0118567
0.000101947
-0.000955257
-0.010472
-0.000955255
-0.00239954
-0.00896161
5.12788e-05
-0.0034438
-0.00790373
0.000325503
-0.00392132
-0.00736948
0.000276519
-0.00383858
-0.00709107
7.02534e-05
-0.00333686
-0.0069456
-8.3624e-05
-0.00251955
-0.00683129
-0.000197803
-0.0015075
-0.00669287
-0.000255925
-0.00047168
-0.00650989
-0.000215313
0.000377737
-0.00633276
-3.82819e-05
0.00120286
-0.00631322
2.78368e-05
0.0021457
-0.00642012
-8.43868e-05
0.00308648
-0.0065034
-0.00012267
0.00385748
-0.00656983
-5.2664e-05
0.00433829
-0.00660749
9.21033e-05
0.00439938
-0.00668106
0.000327025
0.00394478
-0.00688815
0.000533021
0.0029304
-0.00736818
0.00059946
0.00137915
-0.00841464
0.000465207
-0.0100679
-0.000409704
-0.00182555
-0.00682089
-0.00182555
-0.00361716
-0.00598148
-0.00118852
-0.00474159
-0.00558097
-0.00119834
-0.00517934
-0.00552145
-0.00141029
-0.00501052
-0.00558351
-0.00167638
-0.00436191
-0.00570225
-0.00189195
-0.00333397
-0.00580746
-0.00205178
-0.00204372
-0.00584738
-0.00213574
-0.000680456
-0.0057864
-0.00208675
0.00041556
-0.00563909
-0.00178969
0.00146592
-0.00564375
-0.00171982
0.00268799
-0.0057087
-0.00193351
0.00387685
-0.00570637
-0.00198588
0.00484688
-0.00562659
-0.00191327
0.00547337
-0.00549485
-0.00173913
0.0056368
-0.00535293
-0.00149155
0.00521035
-0.00526045
-0.00120125
0.00408929
-0.00529114
-0.000955981
0.00221277
-0.00566913
-0.000868985
-0.00656564
-0.00128945
-0.00341045
-0.00341045
-0.00565781
-0.00373413
-0.00679057
-0.0044482
-0.00714395
-0.00516807
-0.00686087
-0.00586659
-0.00604566
-0.00651745
-0.00477402
-0.0070791
-0.00312442
-0.00749697
-0.00123937
-0.00767144
0.000482617
-0.00736107
0.00202814
-0.00718928
0.00372439
-0.00740494
0.00524909
-0.00723107
0.00643869
-0.00681619
0.00720814
-0.0062643
0.00746886
-0.00561366
0.0071131
-0.00490469
0.00598118
-0.00415922
0.00369747
-0.00338543
-0.00286818
0.000509121
0.000172698
0.000492777
0.000329785
0.0003587
0.000329785
3.10492e-05
0.000300334
0.000210145
-0.000274152
0.000263049
0.000171565
-0.000454832
0.000108177
0.00013776
-0.000139296
-0.000445713
0.000218668
0.000131942
-0.000452857
0.00022421
0.00032366
-0.000371648
0.000265742
0.000483096
-0.000334287
0.000260004
0.000666014
-0.000330679
0.000225067
0.000880614
-0.000324083
0.000162154
0.0011162
-0.0002991
7.35879e-05
0.00136071
-0.000261714
-3.30768e-05
0.00164006
-0.000248272
-0.000157738
0.00200075
-0.000265553
-0.000298896
0.00221393
-3.68989e-05
-0.000440531
0.00198342
0.00047636
-0.000662885
0.001455
0.000845437
-0.00078495
0.000960796
0.000891444
-0.000638679
0.00159586
-0.000689269
0.00276683
-0.00444017
0.00457165
0.00427629
-0.00266024
0.00427629
0.00419228
-0.000700253
0.00335725
0.00274991
0.00107213
0.00221331
0.00105191
0.00156879
0.00133297
-0.000137275
0.000559069
0.000506192
-0.000437686
-0.000222234
-3.61227e-05
-0.000193751
-0.000610391
-0.00026851
0.000110473
-0.000591936
-0.00046374
0.000421268
-0.000565391
-0.000574683
0.000722495
-0.000535361
-0.000573112
0.000977366
-0.000483128
-0.000486331
0.00118222
-0.000442512
-0.000355472
0.00120282
-0.000297772
-0.000153697
0.000564657
0.000251403
-1.09866e-05
-0.000850637
0.00110974
0.000690796
-0.00246312
0.0016196
0.00157056
-0.00341294
0.000991255
0.00229686
-0.00289249
-0.000790876
0.00324343
-0.00267096
0.00377598
0.00197559
-0.00780226
0.00308511
0.00345548
-0.00562001
0.00345548
0.00415702
-0.00277265
0.00319953
0.00413604
-3.49338e-05
0.00267697
0.00346371
0.00139815
0.00215054
0.00210089
0.0013687
0.00159414
0.000899698
0.000750125
0.000887608
0.000167271
2.05448e-05
5.45807e-05
0.000122706
-0.000457127
-0.000539282
0.000277085
-0.000548865
-0.000862445
0.000429726
-0.000520768
-0.000828048
0.000458026
-0.000439707
-0.000499703
2.3219e-05
-0.000121766
-6.54634e-05
-0.00105574
0.000438285
0.000756349
-0.0024486
0.00117106
0.00146777
-0.00369159
0.00157055
0.00197844
-0.0043803
0.00124888
0.00265792
-0.00403644
-0.000774951
0.00334267
-0.00259758
-0.00395212
0.00385279
-0.00696937
0.00391191
0.00143703
-0.009672
0.00130172
0.00237883
-0.00750364
0.00237883
0.00299125
-0.00454662
0.00280564
0.00346109
-0.00155113
0.00281272
0.00351571
0.000496108
0.00256066
0.00303111
0.00119785
0.00217195
0.00219775
0.00113786
0.00166851
0.00125884
0.000836603
0.000997156
0.000568241
0.000422268
5.43381e-05
0.000203849
0.000157625
-0.000731046
-0.000159625
0.000142916
-0.000709053
-0.000890474
0.000367757
0.000117677
-0.00185194
0.000665597
0.00103361
-0.00283053
0.000924989
0.00166818
-0.00352869
0.00117636
0.00215118
-0.00395744
0.00110238
0.00254942
-0.00369249
-9.79157e-05
0.00290838
-0.00284306
-0.0028888
0.00312098
-0.00167801
-0.00635105
0.00290738
-0.00945181
0.00219722
0.00118447
-0.0105221
-2.44909e-05
0.00161097
-0.00835665
0.00161097
0.00165094
-0.00543147
0.00248872
0.00170721
-0.00250299
0.00288435
0.00177775
-0.000337906
0.0029793
0.0016084
0.000803009
0.00274515
0.00122543
0.00114577
0.00233734
0.000752062
0.00118818
0.00181436
0.000311463
0.00108168
0.00115015
0.000185662
0.000917157
0.000465238
6.5183e-05
0.000893925
0.000461574
-0.000397908
0.00102779
0.00118242
-0.00101387
0.00110098
0.00186984
-0.00158522
0.00107045
0.00239356
-0.00198566
0.000961846
0.00280034
-0.00202118
0.000416607
0.00308323
-0.00179977
-0.00123476
0.00317142
-0.00157587
-0.00409139
0.00288972
-0.00110434
-0.00755324
0.00219337
-0.0105525
0.000879874
0.00101228
-0.0107329
-0.000922116
0.00106092
-0.00845394
0.00106092
0.000698592
-0.00570214
0.00215122
0.000357735
-0.0030196
0.0026915
0.000228746
-0.00111103
0.00292213
0.00024166
-1.29643e-05
0.00284933
0.000157982
0.000634245
0.00254436
7.56577e-05
0.000918252
0.00217702
6.68027e-05
0.00100121
0.00180352
0.000195908
0.000946029
0.00152561
0.00035414
0.000928345
0.00154324
0.000365786
0.000959139
0.00185867
0.000228921
0.000910688
0.00223205
3.9515e-06
0.000714896
0.00260834
-0.000153051
0.000323731
0.00296746
-0.000224809
-0.000468804
0.00322299
-0.000387597
-0.00207093
0.00314339
-0.00071056
-0.0046237
0.00266659
-0.000753567
-0.00786304
0.00169402
-0.0107252
-5.57762e-05
0.0007598
-0.0103546
-0.00160401
0.000483801
-0.00790195
0.000483803
-0.000134148
-0.00552208
0.00159823
-0.00051226
-0.00344096
0.00213822
-0.000694979
-0.00192105
0.00236828
-0.000672097
-0.000999449
0.00231623
-0.000478035
-0.000433723
0.00218537
-0.000240576
-7.07444e-05
0.00202552
-1.9189e-06
0.000162652
0.00186696
0.000215794
0.000313743
0.00174009
0.000484565
0.000282118
0.00176871
0.000726895
0.000173138
0.00193601
0.000912805
1.48961e-05
0.00212646
0.00103298
-0.000264014
0.0023246
0.0010428
-0.000687443
0.00255022
0.00092258
-0.00148467
0.00274253
0.000566211
-0.00280826
0.00269124
-4.60919e-05
-0.00477362
0.00219559
-0.000432238
-0.00750479
0.00113043
-0.0102264
-0.000829148
5.1277e-05
-0.00896161
-0.00239954
-0.000479234
-0.00684094
-0.000479232
-0.00122075
-0.00496451
0.000509442
-0.00159405
-0.00365792
0.000866777
-0.00167498
-0.00272512
0.000955244
-0.00152351
-0.0021323
0.000897761
-0.00115493
-0.00177309
0.000772976
-0.000657372
-0.00151954
0.000695308
-0.000156925
-0.00128903
0.000735917
0.000230926
-0.00103511
0.000922719
0.000652666
-0.00107009
0.000958301
0.00114542
-0.00127487
0.000870866
0.00163279
-0.00145828
0.000863128
0.00198868
-0.00164879
0.000976218
0.00216129
-0.00194509
0.00117712
0.00207391
-0.00245853
0.00138826
0.00166488
-0.00328314
0.00141693
0.000941384
-0.00453914
0.00108847
0.000197055
-0.00650809
0.000212828
-0.00877844
-0.00166058
-0.00118852
-0.00598148
-0.00361716
-0.00238386
-0.00445026
-0.00238386
-0.00322364
-0.00346606
-0.00185702
-0.00355285
-0.00294114
-0.00179787
-0.00336993
-0.00263416
-0.00195026
-0.00287093
-0.00248245
-0.00204081
-0.00215769
-0.00238022
-0.00215788
-0.00130955
-0.00225208
-0.00225135
-0.000433994
-0.00205591
-0.00219543
0.000307749
-0.00174451
-0.00182204
0.00106619
-0.0018233
-0.00172506
0.0019072
-0.00210037
-0.00194902
0.00270144
-0.00224596
-0.00199244
0.00339205
-0.00233591
-0.00191677
0.00384749
-0.00241239
-0.00172728
0.00395614
-0.00253421
-0.00152452
0.00357805
-0.00279671
-0.00130959
0.00267326
-0.0032899
-0.00130044
0.00133209
-0.0042717
-0.0017642
-0.00584111
-0.0028947
-0.00373413
-0.0056578
-0.00595926
-0.00595926
-0.0070624
-0.00681112
-0.00739352
-0.00777808
-0.00712704
-0.00876723
-0.0063746
-0.00975234
-0.00519959
-0.0106343
-0.00364507
-0.0113036
-0.00175832
-0.0116141
0.00041156
-0.0112754
0.00246485
-0.0110659
0.00420057
-0.011241
0.00562203
-0.0108985
0.00668228
-0.0102124
0.00734477
-0.00933919
0.00754438
-0.00834748
0.00717081
-0.00732783
0.00603684
-0.00631516
0.00377124
-0.00539153
-0.00493806
0.000211737
0.000568259
-0.000287216
0.000210145
0.000300334
3.10494e-05
8.89159e-05
0.000242451
8.89159e-05
-5.12056e-05
0.000179489
0.000132182
-6.97503e-05
-1.20521e-05
0.000168325
0.000259233
-0.000518654
0.000408357
0.000461824
-0.000444869
0.000466504
0.000558373
-0.000353593
0.000522795
0.000596353
-0.000301114
0.000523144
0.000632497
-0.000285617
0.000474545
0.000702514
-0.000282157
0.000374301
0.000819675
-0.000274686
0.00023112
0.000983788
-0.000266893
6.97119e-05
0.00121023
-0.000287509
-9.66557e-05
0.00150552
-0.000305461
-0.00028872
0.00167886
-0.000132482
-0.000481395
0.00151897
0.000256028
-0.000759048
0.00110707
0.000579439
-0.000952505
0.000704979
0.000723738
-0.00096036
0.00117807
-0.00116247
0.00227266
-0.00166632
0.00453356
0.00335725
-0.000700253
0.00419228
0.00317184
0.000613278
0.00317184
0.00206786
0.00150755
0.00198925
0.000902062
0.00135962
0.00112713
0.000123153
0.00033948
0.000426989
-6.08361e-05
-0.000319302
2.23072e-05
8.52221e-05
-0.000626644
-0.000141508
0.000247374
-0.000615653
-0.000311344
0.000396473
-0.000587878
-0.000421511
0.000543923
-0.000568087
-0.000434622
0.000686025
-0.000542538
-0.000360572
0.000821833
-0.000512329
-0.000245837
0.000858567
-0.000388552
-8.93829e-05
0.000390458
0.000111704
3.99571e-05
-0.00060389
0.000882869
0.000669774
-0.00177752
0.00139527
0.00160492
-0.00247068
0.00114985
0.00241955
-0.00206371
0.000123147
0.00343703
-0.00112498
0.00401536
0.00182867
-0.0041831
0.00377321
0.00319953
-0.00277266
0.00415702
0.00391819
-0.000824023
0.00391819
0.00388236
0.000952643
0.00326772
0.00323098
0.00160386
0.0025577
0.00205637
0.00137936
0.00172886
0.00104979
0.000685086
0.000889806
0.000437807
-8.51568e-05
0.000125081
0.000283667
-0.0005812
-0.000419588
0.000258456
-0.000692232
-0.000732872
0.000231757
-0.000681599
-0.000687828
0.000121475
-0.000592524
-0.000339427
-0.000315307
-0.000280779
0.000139771
-0.00115493
0.000329535
0.000877876
-0.00228346
0.00106833
0.00163967
-0.00329788
0.00153787
0.00233785
-0.0038958
0.00145811
0.00319299
-0.00360542
0.0001061
0.00409602
-0.00229845
-0.00209924
0.00476822
-0.00429809
0.00478657
0.00164409
-0.00613923
0.00161375
0.00280564
-0.00454663
0.00299125
0.00364347
-0.0024997
0.00364347
0.00406651
-0.000253574
0.0035959
0.00386801
0.00122009
0.00314292
0.00323551
0.00164427
0.00253953
0.00233636
0.00137644
0.00187631
0.00139138
0.000823155
0.00103382
0.000639929
0.000181633
4.29639e-05
0.000180236
-0.000323314
-0.000640265
-0.000288752
-0.000377179
-0.00054448
-0.00102824
2.90393e-05
0.000235599
-0.00193595
0.000493447
0.0011671
-0.00284491
0.000983438
0.00192322
-0.00358198
0.00143496
0.00252161
-0.00410428
0.00152437
0.00308522
-0.00401161
0.00064725
0.00362656
-0.00320573
-0.00153262
0.00395382
-0.00184162
-0.00422351
0.00366752
-0.0065309
0.0025884
0.00164386
-0.00745573
-0.000351855
0.00248872
-0.00543148
0.00165095
0.00290189
-0.00332604
0.00290189
0.00311947
-0.00101171
0.00342491
0.00307164
0.000845531
0.00340168
0.00267963
0.00173571
0.00304572
0.00206172
0.00181075
0.00252094
0.00134317
0.00149544
0.00186062
0.000669642
0.00105273
0.000952586
0.000211298
0.000578599
2.16727e-05
-0.000274947
0.000492439
7.82058e-05
-0.000969426
0.000841902
0.00106404
-0.00175491
0.00117723
0.00197154
-0.00247721
0.0014896
0.00260969
-0.00304493
0.00169459
0.00310844
-0.0032962
0.00137081
0.00348806
-0.00307456
-7.61045e-05
0.00367313
-0.00250407
-0.00260752
0.00339412
-0.00156891
-0.00535439
0.00238908
-0.00776688
0.000546925
0.00151824
-0.00832757
-0.00156853
0.00215122
-0.00570214
0.000698594
0.00222602
-0.00347564
0.00222602
0.00206889
-0.00116818
0.00300509
0.00190349
0.000635657
0.00329739
0.00164527
0.00167776
0.0031655
0.00126659
0.00193921
0.00279457
0.000830824
0.00181386
0.00229436
0.000456427
0.00154537
0.00168527
0.000213946
0.00127482
0.00107186
-4.48835e-06
0.00120579
0.00104832
-0.000361799
0.00135761
0.00170027
-0.000853116
0.00155194
0.00234865
-0.00135505
0.0017137
0.00288618
-0.00174942
0.0017353
0.0033211
-0.00194687
0.00119227
0.00359898
-0.00199933
-0.000420376
0.00354012
-0.00191774
-0.00293266
0.00291012
-0.00137358
-0.00570999
0.00150546
-0.00841056
-0.000785685
0.00116035
-0.00862249
-0.00246944
0.00159823
-0.00552208
-0.000134147
0.00150667
-0.00329253
0.00150667
0.00121552
-0.00111583
0.00237701
0.000935508
0.000539387
0.00274456
0.000768206
0.00141554
0.00274575
0.000626928
0.00171202
0.00255383
0.000480803
0.0017036
0.0022819
0.000338826
0.00158005
0.00197425
0.000226194
0.0014497
0.00167784
0.000142517
0.00138129
0.00167689
1.02597e-05
0.00141002
0.00201585
-0.000172847
0.00148335
0.00237815
-0.000381654
0.00153681
0.00271029
-0.000586287
0.00146208
0.00302807
-0.000809558
0.000915025
0.00324303
-0.00109806
-0.000547907
0.00310726
-0.00128431
-0.00288429
0.00233346
-0.0010394
-0.0055337
0.00070921
-0.00854743
-0.00173169
0.000325502
-0.00790373
-0.0034438
0.000509441
-0.00496451
-0.00122075
0.000228828
-0.00273131
0.000228829
5.77669e-05
-0.00110611
0.00102812
7.25928e-05
-2.72431e-05
0.00150704
0.000107942
0.000739972
0.00153797
0.000183099
0.00098254
0.0014273
0.000261628
0.00102256
0.00129782
0.000302758
0.00105035
0.00122448
0.000223487
0.00121778
0.00123391
0.0001728
0.00113245
0.00125782
0.000270466
0.000875852
0.00130737
0.000372088
0.000813643
0.00143121
0.00044115
0.000810913
0.00163305
0.000451259
0.000723954
0.00190513
0.00042272
0.000195333
0.00213648
0.000183418
-0.000804767
0.00191308
-0.000273731
-0.00248537
0.00114669
-0.000254723
-0.00487939
-0.000460497
-0.00774595
-0.00271679
-0.00119834
-0.00558097
-0.00474159
-0.00185702
-0.00346606
-0.00322364
-0.00216747
-0.0021104
-0.00216747
-0.00215384
-0.0012913
-0.00162632
-0.00177153
-0.000711988
-0.00164784
-0.00114441
-0.000297137
-0.00163082
-0.000570803
-5.91703e-05
-0.00168978
-0.00012762
0.000111219
-0.00178319
0.000161479
0.000322788
-0.00175697
0.000313962
0.000698102
-0.00145485
0.000492112
0.000588774
-0.00135953
0.000741806
0.000215403
-0.00153827
0.00111226
-1.50025e-05
-0.00153425
0.00157533
-0.000160806
-0.00140813
0.00209914
-0.000351168
-0.00117597
0.00242785
-0.000666759
-0.00099114
0.00235099
-0.00121705
-0.000820467
0.00196686
-0.00201565
-0.00138603
0.0011984
-0.00336879
-0.00250636
-0.00544072
-0.00400154
-0.0044482
-0.00679057
-0.00681112
-0.0070624
-0.00786631
-0.00786632
-0.00809412
-0.00884157
-0.00774713
-0.0098262
-0.00693161
-0.010865
-0.00572332
-0.0119018
-0.0041174
-0.0127982
-0.00207874
-0.0133299
0.000446993
-0.0131031
0.00283181
-0.0128619
0.00469876
-0.0128926
0.00610745
-0.0123222
0.00714269
-0.0114084
0.00781838
-0.010366
0.00808714
-0.009283
0.0078074
-0.00826514
0.00672203
-0.00724544
0.00435331
-0.00639159
-0.00602548
0.000129413
0.000373833
-0.00079045
0.000171565
0.000263049
-0.000274152
0.000132182
0.000179489
-5.12055e-05
0.000109759
4.48157e-05
0.000109759
0.000271495
-0.00033815
0.00034473
0.000601268
-0.000559813
0.000638416
0.000723883
-0.000405035
0.000748934
0.00073148
-0.000321841
0.000837042
0.000648956
-0.000272784
0.000878453
0.000524988
-0.000261681
0.000860195
0.000436502
-0.00026913
0.00073192
0.000437325
-0.000279474
0.000509777
0.000531791
-0.000300126
0.000275382
0.000718784
-0.000335646
5.2013e-05
0.000967084
-0.000362217
-0.000174787
0.0011216
-0.000248009
-0.000387902
0.00101598
2.00915e-05
-0.000673534
0.000709751
0.000247747
-0.000894045
0.000396296
0.000333685
-0.000980607
0.000381013
-0.00114721
0.00158001
0.000601018
0.00272638
0.00221331
0.00107213
0.00274991
0.00198925
0.00150755
0.00206786
0.00125763
0.0015081
0.00125763
0.000581022
0.000774471
0.000691149
0.000163491
2.09502e-05
0.000263763
0.000156207
-0.000504393
0.000128955
0.000256984
-0.000641678
7.75612e-05
0.000300679
-0.000623633
-4.18273e-06
0.000306809
-0.000616714
-7.26003e-05
0.000317653
-0.000613321
-0.000101264
0.000362848
-0.000600162
-8.50676e-05
0.0004685
-0.000591472
-6.01327e-05
0.000588124
-0.00052731
-1.73341e-05
0.000381862
-0.000134597
1.86048e-05
-0.000162732
0.000486887
0.000479461
-0.000902848
0.00107452
0.00129059
-0.00139037
0.001176
0.00197879
-0.00116531
0.000724927
0.0028207
-3.87556e-06
0.00323498
0.00154892
-0.000907058
0.00373238
0.00267697
-3.49347e-05
0.00413604
0.00326772
0.000952642
0.00388236
0.00324034
0.00156286
0.00324034
0.0025972
0.00156441
0.0024109
0.00165991
0.00115863
0.00152847
0.000890672
0.000385962
0.000768696
0.000471187
-0.000313043
0.000215935
0.000299517
-0.00069767
-0.000173874
0.000165765
-0.00081939
-0.000396435
1.56111e-05
-0.000817918
-0.000333068
-0.000152882
-0.000720266
-5.08236e-05
-0.000441005
-0.000464215
0.000300642
-0.00100217
9.06189e-05
0.000821109
-0.00181897
0.000804097
0.00151777
-0.00259202
0.00134139
0.00225638
-0.00300669
0.00154949
0.00313269
-0.00282348
0.00107673
0.00401208
-0.00178494
-0.000282424
0.00473705
-0.00176835
0.00476613
0.00176637
-0.00321432
0.00215463
0.00281273
-0.00155113
0.00346109
0.0035959
-0.000253574
0.00406651
0.00390412
0.000946407
0.00390412
0.00365015
0.00162706
0.00333424
0.00303004
0.00167555
0.00264272
0.00214793
0.00125398
0.00189041
0.00127923
0.000565327
0.00102415
0.000582277
-0.000155159
0.00019741
6.53975e-05
-0.000627517
-0.000315252
-0.000472651
-0.000669821
-0.000154523
-0.0011218
-0.000328489
0.000492971
-0.00186565
0.000201456
0.00124528
-0.00263352
0.000800305
0.00198141
-0.00327859
0.00135272
0.00261805
-0.00375095
0.00163978
0.00325919
-0.00374001
0.00126795
0.00389715
-0.00302008
7.93948e-06
0.00430267
-0.00181465
-0.00182034
0.004
-0.0038312
0.00283659
0.00198875
-0.00514809
-0.000406842
0.00288435
-0.00250299
0.00170721
0.00342491
-0.00101171
0.00311947
0.00368649
0.000423234
0.00368649
0.00357935
0.00152715
0.00360873
0.00313025
0.00197589
0.00319448
0.00246698
0.00181282
0.00262536
0.00167295
0.00130274
0.00191724
0.000877726
0.000645841
0.000946808
0.000109586
4.93731e-05
0.000112926
-0.000653009
-9.68052e-05
0.000267791
-0.00142195
0.000328458
0.00117604
-0.0021807
0.000849953
0.00208179
-0.00286806
0.00136611
0.00273124
-0.00343829
0.00177683
0.00325455
-0.00372706
0.00173421
0.0036824
-0.00354175
0.000849173
0.00390659
-0.00287619
-0.000872098
0.00360859
-0.00183205
-0.00287506
0.00239965
-0.00545254
0.000336198
0.00183405
-0.00665775
-0.00189293
0.0026915
-0.0030196
0.000357736
0.00300509
-0.00116818
0.00206889
0.00304733
0.000338744
0.00304733
0.00291224
0.00155512
0.00340451
0.00259018
0.00215691
0.00330654
0.00210156
0.00214975
0.00294626
0.00149896
0.00178921
0.00241048
0.000840579
0.00129045
0.00169904
0.000222857
0.000808236
0.000930723
-0.000390198
0.000633958
0.000930618
-0.00104063
0.000942718
0.00173644
-0.00168707
0.00135782
0.00248722
-0.00227081
0.00177644
0.0030596
-0.00271543
0.00206188
0.00348067
-0.00293262
0.00183678
0.00371359
-0.00285823
0.000726188
0.00358872
-0.00248984
-0.00114808
0.00281771
-0.00167717
-0.00336796
0.00118568
-0.0067154
-0.00120001
0.00133876
-0.00757047
-0.0028955
0.00213822
-0.00344096
-0.000512259
0.00237701
-0.00111583
0.00121552
0.00224277
0.000607215
0.00224278
0.00209633
0.0016321
0.00281401
0.00191192
0.00213871
0.00294836
0.00165218
0.00215108
0.00281224
0.00129124
0.00191254
0.0025195
0.000832703
0.00160844
0.0021148
0.000297846
0.00134706
0.00167388
-0.000253871
0.00120743
0.00165514
-0.000754839
0.00131357
0.00214597
-0.00117804
0.00154183
0.00261733
-0.00151117
0.00182904
0.00299082
-0.00175008
0.00205667
0.00327219
-0.00190254
0.001856
0.00337626
-0.00200647
0.000859039
0.00307833
-0.00186085
-0.00110782
0.00214756
-0.00124576
-0.00359178
0.000317929
-0.00745806
-0.0022348
0.000276519
-0.00736948
-0.00392132
0.000866777
-0.00365792
-0.00159405
0.00102812
-0.00110611
5.77682e-05
0.00108976
0.000483929
0.00108976
0.00111812
0.00145537
0.00165541
0.00117664
0.00176773
0.00185043
0.00119632
0.00173249
0.00182619
0.00110439
0.00159844
0.00170385
0.000844129
0.00152145
0.00157173
0.000309765
0.00164509
0.00147024
-0.000224706
0.00152444
0.00147527
-0.000495648
0.00127509
0.00161679
-0.000636081
0.00129712
0.00181636
-0.000681479
0.00145467
0.00205282
-0.000665264
0.00166075
0.00228484
-0.000654397
0.00159575
0.00238586
-0.00067831
0.000728077
0.00206795
-0.000664596
-0.00100781
0.00103295
-0.000272437
-0.00361798
-0.000826465
-0.00718264
-0.00326465
-0.00141029
-0.00552145
-0.00517933
-0.00179787
-0.00294114
-0.00355285
-0.00162632
-0.00129129
-0.00215384
-0.00130725
-0.000154221
-0.00130725
-0.000862087
0.000393941
-0.00103157
-0.000354043
0.000617336
-0.000988473
8.10673e-05
0.000725725
-0.00111813
0.000383189
0.000856328
-0.00134321
0.000496588
0.00110873
-0.00145765
0.000369634
0.001616
-0.00129881
0.000255229
0.00145759
-0.00117827
0.000259487
0.000935089
-0.00120253
0.000383267
0.00069575
-0.00105666
0.000623302
0.000573466
-0.000766964
0.00100544
0.000522452
-0.000419818
0.00138107
0.000403662
-0.000174692
0.00163992
-7.14445e-05
-0.000279792
0.00177629
-0.00123456
-0.00129566
0.00134672
-0.00286603
-0.00282874
-0.00535407
-0.0044834
-0.00516807
-0.00714395
-0.00777808
-0.00739352
-0.00884157
-0.00809412
-0.00891868
-0.00891868
-0.00845467
-0.00989625
-0.00763208
-0.0110702
-0.00645386
-0.0123543
-0.0048061
-0.0135897
-0.00253833
-0.014489
0.000523818
-0.0145492
0.00337168
-0.0142522
0.00538997
-0.0139758
0.00678864
-0.0130251
0.00774066
-0.011787
0.00837841
-0.0104813
0.00874419
-0.00924512
0.00863389
-0.00822629
0.0075541
-0.00740022
0.00498525
-0.00668877
-0.0063943
6.52663e-05
0.000213242
-0.00106895
0.00013776
0.000108177
-0.000454831
0.000168325
-1.20523e-05
-6.97499e-05
0.00034473
-0.00033815
0.000271495
0.00063607
-0.000582666
0.00063607
0.000858285
-0.000459099
0.000875313
0.000930507
-0.000359086
0.0010358
0.000864737
-0.00029029
0.0011931
0.000657477
-0.000257464
0.00134317
0.000332966
-0.000264176
0.00144888
6.39852e-05
-0.000290378
0.00129128
-3.54219e-05
-0.000322116
0.000931309
1.66356e-05
-0.000363337
0.000586678
0.00019583
-0.000412071
0.000284916
0.000417253
-0.000422603
2.64177e-05
0.000562539
-0.00035517
-0.000178004
0.000538679
-0.000259346
-0.000390319
0.000334048
-0.000106393
-0.000583021
0.000119174
-0.000124887
-0.00064083
-0.000342178
-0.000685792
0.00109555
0.00157755
0.000266542
0.00133297
0.00156879
0.00105191
0.00112713
0.00135962
0.000902063
0.000691148
0.000774471
0.000581022
0.000340007
0.00011963
0.000340008
0.000237635
-0.000344963
0.000252002
0.000321024
-0.000634565
0.00032105
0.000356284
-0.000631928
0.000383944
0.000283995
-0.000625432
0.00043608
0.000119365
-0.000648566
0.000476429
-1.29881e-05
-0.000672413
0.000413135
-3.94964e-05
-0.000679652
0.00029899
5.78946e-05
-0.000679456
0.00015861
0.000229947
-0.00066032
5.88763e-05
0.000271375
-0.000435177
-1.02371e-05
0.00014491
4.22733e-05
0.000208478
-0.000171076
0.000586603
0.000760611
-0.000480383
0.000949925
0.00123176
-0.000485538
0.000934113
0.00176684
0.000580097
0.00182717
0.00130756
0.000912391
0.00308998
0.00215054
0.00139815
0.00346371
0.0025577
0.00160386
0.00323098
0.0024109
0.00156441
0.0025972
0.00183153
0.00127837
0.00183153
0.00117577
0.00069896
0.00114032
0.000663603
7.91341e-06
0.000638383
0.000427018
-0.000549461
0.000370056
0.000234029
-0.000803259
0.000196948
-1.92135e-05
-0.000917241
0.000125491
-0.000262832
-0.000926449
0.000164598
-0.000421753
-0.000841691
0.000270147
-0.000547692
-0.000645825
0.000392956
-0.000838493
-0.000213248
0.000664839
-0.00132343
0.000396173
0.00117135
-0.00183214
0.000974909
0.00183245
-0.00209515
0.00137726
0.00260505
-0.00195666
0.00147774
0.00334578
-0.00127453
0.00109297
0.00389609
0.000173749
0.00389797
0.00171324
-0.00119759
0.00255137
0.00256066
0.000496106
0.00351571
0.00314292
0.00122009
0.00386801
0.00333424
0.00162706
0.00365015
0.00310738
0.0017321
0.00310738
0.00253713
0.00148023
0.0024317
0.00177585
0.00095238
0.00170722
0.00103102
0.000221839
0.000997685
0.000427142
-0.000441626