/*--------------------------------*- C++ -*----------------------------------*\
| =========                 |                                                 |
| \\      /  F ield         | OpenFOAM: The Open Source CFD Toolbox           |
|  \\    /   O peration     | Version:  v2012                                 |
|   \\  /    A nd           | Website:  www.openfoam.com                      |
|    \\/     M anipulation  |                                                 |
\*---------------------------------------------------------------------------*/
FoamFile
{
    version     2.0;
    format      ascii;
    class       volVectorField;
    location    "1200";
    object      U;
}
// * * * * * * * * * * * * * * * * * * * * * * * * * * * * * * * * * * * * * //

dimensions      [0 1 -1 0 0 0 0];


internalField   nonuniform List<vector> 
4000
(
(0.00425648 0.00103604 0.00425647)
(0.00335042 0.0114632 0.00226564)
(0.000509171 0.00754358 0.000907955)
(-0.00234549 0.000243451 0.000474087)
(-0.00358447 -0.0027302 0.00019446)
(-0.0032778 -0.00208869 -1.05094e-07)
(-0.00134099 -0.00103779 -0.000107427)
(-0.000501158 -0.00115017 -1.66613e-05)
(0.000603912 -0.00123399 -5.94136e-06)
(0.0016543 -0.00134706 -1.23907e-05)
(0.00280125 -0.0013601 -3.17225e-05)
(0.00399147 -0.00126004 -7.82977e-05)
(0.00515247 -0.0010922 -0.000172241)
(0.00631335 -0.0007298 -0.000298501)
(0.00754619 -0.000556524 -0.000436291)
(0.00893203 -0.00125629 -0.000489974)
(0.0093984 -0.00123174 -0.000716438)
(0.00781354 0.00191964 -0.000731833)
(0.00554967 0.00653762 -4.08587e-05)
(0.00240798 0.0150531 0.000838742)
(0.00528093 -0.0203801 0.00528093)
(0.0128678 -0.0105273 0.0060639)
(0.0165338 -0.00261745 0.00542495)
(0.0143274 0.00299772 0.00424668)
(0.00638487 0.00466114 0.003027)
(-0.00434536 -0.00126796 0.000203497)
(-0.00397391 -0.00213549 -0.00055527)
(-0.00339517 -0.00175625 -0.0010109)
(-0.00156372 -0.00147571 -0.00137274)
(0.000501722 -0.00159175 -0.00160602)
(0.00228947 -0.00149665 -0.00153182)
(0.00392002 -0.00116241 -0.00133219)
(0.00519206 -0.000776751 -0.00110968)
(0.00629189 -0.000791991 -0.00074211)
(0.00602485 -0.0010625 -0.000606871)
(0.00446356 0.000919504 0.000517686)
(-0.00696561 0.00657682 0.00290489)
(-0.0122356 0.00623758 0.00381863)
(-0.0133307 0.000601306 0.00506398)
(-0.0072491 -0.00643587 0.00554016)
(0.00300045 -0.0346555 0.00300046)
(0.00828146 -0.022695 0.00394225)
(0.0116243 -0.0108051 0.00397925)
(0.0142395 0.000294946 0.00372818)
(0.0124162 0.00542101 0.00329523)
(0.00869399 0.00483254 0.00265714)
(0.00183246 0.000808047 0.00151209)
(-0.00241082 -0.00248022 -0.000552796)
(-0.00180046 -0.00229269 -0.00133629)
(-0.000173877 -0.00186899 -0.00207647)
(0.0017072 -0.00168513 -0.00196836)
(0.00318894 -0.00165297 -0.00134436)
(0.00327189 -0.00157139 -0.000774771)
(0.00290464 -0.00066017 0.000403493)
(-0.00502987 0.0041181 0.00241204)
(-0.00983701 0.00651893 0.00287727)
(-0.0145912 0.00586924 0.00385176)
(-0.0151926 -0.000892536 0.0044105)
(-0.0109264 -0.0139898 0.00450408)
(-0.00423057 -0.0269314 0.00438878)
(0.00149535 -0.0426767 0.00149534)
(0.00412327 -0.0310908 0.00277923)
(0.00438309 -0.0184367 0.0033554)
(0.00629117 -0.00722977 0.00406112)
(0.00869528 0.000472843 0.00435577)
(0.00929434 0.00335909 0.00402663)
(0.0074179 0.00340877 0.00340255)
(0.00435001 0.00250518 0.00261797)
(0.000154411 0.000601706 0.00103816)
(8.49251e-05 0.000154935 -0.00087248)
(0.000645897 0.000224471 -0.000984049)
(0.000671332 0.000778859 0.000664969)
(-0.00342888 0.00222893 0.00247391)
(-0.00716479 0.00373223 0.00319843)
(-0.00985788 0.00438905 0.0038045)
(-0.0117134 0.00424583 0.00417665)
(-0.0108891 -3.69898e-05 0.00450034)
(-0.00716084 -0.0102483 0.00413306)
(-0.00525774 -0.0235764 0.00340833)
(-0.00137206 -0.0372493 0.00280038)
(0.00051517 -0.0464872 0.000515177)
(0.00123982 -0.0355033 0.00210334)
(-0.00137246 -0.0237041 0.0028434)
(-0.00135617 -0.0145785 0.00378297)
(-0.00129723 -0.00837782 0.00469101)
(-0.000770137 -0.00472526 0.00505622)
(-0.000219832 -0.00246449 0.0047941)
(-0.000105552 -0.00111237 0.00435396)
(-0.000159445 -0.000468892 0.00383699)
(0.000242715 -7.36175e-05 0.00354122)
(0.00114557 0.000373784 0.00360624)
(0.00136447 0.000546434 0.0039502)
(0.000917788 0.000161497 0.00444123)
(0.000249199 -0.00104663 0.00498311)
(-0.000295937 -0.0022423 0.00542006)
(-0.000129703 -0.00429045 0.00570905)
(0.000176373 -0.00914689 0.00493524)
(0.000951363 -0.0175745 0.0037233)
(-0.000732887 -0.0296819 0.00273404)
(0.00032913 -0.0427559 0.00184603)
(-0.000300217 -0.0471777 -0.000300212)
(-0.000902954 -0.037269 0.00141175)
(-0.00506663 -0.0278447 0.00175473)
(-0.00618963 -0.0210534 0.00211236)
(-0.00679189 -0.0164575 0.00231592)
(-0.00630361 -0.0134855 0.0023457)
(-0.0051579 -0.0114761 0.00229491)
(-0.0035264 -0.00997088 0.00223867)
(-0.001594 -0.00903031 0.00226548)
(8.76785e-05 -0.00852179 0.00253347)
(0.00189565 -0.00809636 0.00282477)
(0.00338565 -0.00824576 0.00274716)
(0.00508617 -0.00867964 0.00276072)
(0.00645377 -0.00963998 0.00284066)
(0.00727953 -0.0110796 0.00303956)
(0.00752623 -0.0131235 0.00321055)
(0.00698232 -0.0168964 0.00306139)
(0.00605147 -0.023213 0.002518)
(0.00242322 -0.0327826 0.00203285)
(0.00152578 -0.0444087 0.00111952)
(-0.00129779 -0.0450975 -0.00129778)
(-0.0027202 -0.037226 0.000342426)
(-0.0078431 -0.0302205 3.12335e-05)
(-0.00961775 -0.0257074 -0.0003232)
(-0.0103005 -0.0228754 -0.00080002)
(-0.00955208 -0.021042 -0.00125619)
(-0.00781507 -0.0196898 -0.00165686)
(-0.00539854 -0.0185922 -0.00191095)
(-0.00253154 -0.017694 -0.00190393)
(-9.06223e-05 -0.0170745 -0.00151738)
(0.00244556 -0.0167581 -0.00119187)
(0.00465439 -0.0170727 -0.0013687)
(0.00727974 -0.0175185 -0.00137165)
(0.00953515 -0.0181988 -0.00116468)
(0.011115 -0.0190408 -0.000732015)
(0.0117465 -0.0202894 -0.000213101)
(0.0110988 -0.0226374 0.000266289)
(0.00941962 -0.0268278 0.000549131)
(0.00458619 -0.0338329 0.000872986)
(0.00259515 -0.0430806 0.000215749)
(-0.00284964 -0.0395234 -0.00284964)
(-0.00510543 -0.0338437 -0.00153446)
(-0.0109398 -0.0294611 -0.0024069)
(-0.0131676 -0.0271303 -0.00334384)
(-0.0137702 -0.0259065 -0.00428793)
(-0.0126484 -0.0252164 -0.00511352)
(-0.0102876 -0.0246762 -0.00578157)
(-0.00705693 -0.024154 -0.00626065)
(-0.00326653 -0.0235975 -0.00644343)
(-0.000203718 -0.0231714 -0.00613506)
(0.00289925 -0.0230085 -0.00581026)
(0.00562071 -0.0232367 -0.00597495)
(0.00909086 -0.0234221 -0.00583392)
(0.0121528 -0.0236654 -0.00543746)
(0.0143965 -0.0238387 -0.00475552)
(0.0154317 -0.0241372 -0.00388839)
(0.0148462 -0.0250544 -0.00294155)
(0.0126774 -0.0271656 -0.00201951)
(0.00700097 -0.0314951 -0.00106046)
(0.00406559 -0.0379451 -0.00134056)
(-0.00553299 -0.0295534 -0.00553299)
(-0.00911501 -0.0256983 -0.0050836)
(-0.0153085 -0.0235876 -0.00630447)
(-0.017628 -0.0229285 -0.00766542)
(-0.0179698 -0.0228822 -0.00896377)
(-0.0164528 -0.0231681 -0.0100568)
(-0.0134915 -0.02348 -0.0109339)
(-0.00941805 -0.0236063 -0.0115453)
(-0.0045776 -0.0234269 -0.0117185)
(-0.000620724 -0.0230155 -0.0110039)
(0.00359983 -0.0229387 -0.0106164)
(0.00703159 -0.0231159 -0.0110691)
(0.0114254 -0.0230547 -0.0109546)
(0.015242 -0.0227485 -0.0104172)
(0.0180714 -0.0223009 -0.00955983)
(0.0195394 -0.0218954 -0.00845747)
(0.0192159 -0.021787 -0.00717447)
(0.0169038 -0.0223061 -0.00580233)
(0.0108059 -0.0243455 -0.0043976)
(0.00661976 -0.0284374 -0.00399835)
(-0.00986538 -0.018289 -0.00986538)
(-0.0160792 -0.0146681 -0.0113348)
(-0.0223675 -0.012918 -0.0137827)
(-0.0245705 -0.0122472 -0.0161335)
(-0.0245598 -0.0119003 -0.0183927)
(-0.0225641 -0.0116366 -0.0204848)
(-0.0188939 -0.0112653 -0.0222915)
(-0.0137848 -0.0106804 -0.0236618)
(-0.00754191 -0.00985445 -0.024295)
(-0.0018794 -0.00897586 -0.023343)
(0.00507997 -0.00925433 -0.0226789)
(0.00990999 -0.009902 -0.0232911)
(0.0156172 -0.0105235 -0.0227185)
(0.0203758 -0.010995 -0.0214203)
(0.0238226 -0.0112983 -0.0196879)
(0.0256955 -0.0115022 -0.0176395)
(0.0256683 -0.0117639 -0.0153875)
(0.0234523 -0.0123348 -0.0130003)
(0.0172425 -0.0139649 -0.0104057)
(0.0107252 -0.0175984 -0.00825562)
(0.00226564 0.0114632 0.00335042)
(0.00158422 0.00877435 0.00158421)
(0.000776461 0.0030285 0.000732982)
(-0.000497583 -0.0013087 0.000542283)
(-0.00164958 -0.00320361 0.000344266)
(-0.00119119 -0.00237492 0.000588486)
(0.000154912 -0.00118465 0.000443692)
(0.000758656 -0.000848879 0.000581651)
(0.00138872 -0.000806608 0.000554085)
(0.00198278 -0.000878255 0.000485621)
(0.00267252 -0.000899602 0.000341251)
(0.00345582 -0.00082769 0.000121163)
(0.00429451 -0.000677158 -0.000186192)
(0.00521237 -0.000480123 -0.000526898)
(0.0062651 -0.000555548 -0.000905169)
(0.00741061 -0.00144609 -0.00124564)
(0.00758306 -0.00175136 -0.00194212)
(0.0061454 0.000245634 -0.00223866)
(0.00434857 0.00353691 -0.00142098)
(0.00236401 0.0116736 -0.00110004)
(0.0060639 -0.0105273 0.0128678)
(0.0124179 -0.00544359 0.0124179)
(0.0156245 -8.08778e-05 0.0101605)
(0.0133185 0.0037352 0.00700161)
(0.00698184 0.00428496 0.00454036)
(0.000319275 -0.000535968 0.00185451)
(-0.00149445 -0.00239754 -0.000213179)
(-0.00126514 -0.00206882 -0.000939914)
(-0.000173194 -0.00177332 -0.00164958)
(0.00092791 -0.00166049 -0.00201107)
(0.00198737 -0.00158505 -0.00197974)
(0.00296552 -0.00145724 -0.00168174)
(0.00380261 -0.00133097 -0.00127519)
(0.00423389 -0.00155094 -0.000580631)
(0.00377591 -0.00158012 -0.000228204)
(0.00055365 0.00135187 0.00223112)
(-0.00683582 0.00564828 0.0047922)
(-0.0111372 0.00628231 0.00679752)
(-0.0117962 0.00376882 0.00949416)
(-0.00647761 0.000367453 0.0108114)
(0.00394225 -0.022695 0.00828146)
(0.00954131 -0.0152691 0.00954131)
(0.0132668 -0.00600596 0.00892238)
(0.0153598 0.00286028 0.00751247)
(0.013521 0.0060425 0.00610152)
(0.0102238 0.00469761 0.00467013)
(0.00499925 0.00121836 0.00286633)
(0.00100198 -0.00208463 0.000142748)
(0.00021831 -0.00253995 -0.00183536)
(0.000630929 -0.00225891 -0.00288899)
(0.00127627 -0.00210607 -0.0027843)
(0.00163251 -0.0021295 -0.00173512)
(0.0013124 -0.00205136 -0.000528185)
(-0.00105364 -0.000241955 0.00227233)
(-0.00658206 0.00357934 0.00433268)
(-0.0108188 0.00593296 0.00562113)
(-0.0147724 0.00574509 0.00750244)
(-0.0155222 0.00072472 0.00929522)
(-0.0116703 -0.0100011 0.0105147)
(-0.0052294 -0.0201106 0.0106235)
(0.00277922 -0.0310908 0.00412327)
(0.00710081 -0.0236387 0.00710081)
(0.00893028 -0.0135054 0.00816719)
(0.0111376 -0.00326045 0.00819857)
(0.0127257 0.00340578 0.00744903)
(0.0118253 0.00499532 0.00642153)
(0.00927972 0.00415529 0.00506478)
(0.00613987 0.00231168 0.00330415)
(0.00273309 -0.000220299 0.00046641)
(0.00105782 -0.00153109 -0.00212261)
(0.000329766 -0.00156089 -0.00215519)
(-0.00135356 -0.000543321 0.000504839)
(-0.00479916 0.00146505 0.00330044)
(-0.00830903 0.00340526 0.00498395)
(-0.0111978 0.0048342 0.00630321)
(-0.0135208 0.00524013 0.00732757)
(-0.014109 0.00215972 0.00829262)
(-0.0109562 -0.00707576 0.00891562)
(-0.00803446 -0.0188345 0.00838156)
(-0.00303702 -0.0296474 0.0066488)
(0.00210335 -0.0355033 0.00123982)
(0.00580934 -0.0280095 0.00580935)
(0.00526653 -0.0177527 0.00807569)
(0.00563531 -0.00736635 0.00915509)
(0.00612395 9.40588e-05 0.00952851)
(0.00619829 0.0034631 0.0088988)
(0.00513199 0.00422726 0.00775872)
(0.00348537 0.00400762 0.00639345)
(0.00165163 0.00355421 0.00475273)
(0.000613574 0.00290645 0.00325191)
(0.000687414 0.00281693 0.00318675)
(-0.000290614 0.00346118 0.00475505)
(-0.00241727 0.00366724 0.00639185)
(-0.00462698 0.00368537 0.00775282)
(-0.00648947 0.00381565 0.00882563)
(-0.00749511 0.00256987 0.00964538)
(-0.006545 -0.00281138 0.0098564)
(-0.0053689 -0.0126373 0.00902898)
(-0.00533374 -0.0247524 0.00724946)
(-0.00182624 -0.0353655 0.00393634)
(0.00141175 -0.037269 -0.000902951)
(0.00498437 -0.029633 0.00498437)
(0.00257799 -0.0197415 0.00780093)
(0.00183644 -0.00991878 0.0092181)
(0.000675336 -0.00266354 0.00996942)
(0.000958566 0.00176235 0.00996103)
(0.000772647 0.00332066 0.00926764)
(0.000395181 0.00392004 0.00844966)
(0.000179044 0.00402547 0.00769309)
(0.000322191 0.00377475 0.00725111)
(0.00106025 0.00374753 0.00733338)
(0.00132748 0.00394537 0.00785357)
(0.00109935 0.0038901 0.00853495)
(0.00042999 0.00340204 0.00932404)
(-0.000426735 0.00250073 0.0101596)
(-0.000702995 3.84784e-05 0.0107399)
(-0.000929586 -0.00598238 0.010325)
(-0.00140294 -0.0155709 0.00900826)
(-0.00365648 -0.0272785 0.00663346)
(-0.000962902 -0.0375391 0.00197674)
(0.000342419 -0.037226 -0.0027202)
(0.00389114 -0.0291214 0.00389114)
(-6.8263e-05 -0.0200233 0.00668033)
(-0.001125 -0.011566 0.00793869)
(-0.00225942 -0.00564603 0.00847723)
(-0.0025267 -0.00199561 0.00862387)
(-0.00196761 0.000320312 0.00868157)
(-0.00122668 0.0014992 0.00864013)
(-0.000348208 0.00185938 0.00853866)
(0.000318545 0.00166075 0.00847523)
(0.00125321 0.00157178 0.00858053)
(0.00207295 0.00162605 0.00880724)
(0.00284171 0.00142665 0.00901592)
(0.00335366 0.000700247 0.00918274)
(0.00359967 -0.000820276 0.00937019)
(0.00359049 -0.00378783 0.009404)
(0.00263557 -0.00889468 0.0090903)
(0.00170407 -0.0167306 0.00800771)
(-0.00220282 -0.0273958 0.00564446)
(1.3041e-05 -0.0369006 5.42455e-05)
(-0.00153447 -0.0338437 -0.00510542)
(0.0012913 -0.025899 0.0012913)
(-0.00390974 -0.0186699 0.00355286)
(-0.00506715 -0.0128918 0.00414595)
(-0.00578785 -0.00831236 0.00397162)
(-0.00559958 -0.00528129 0.00370596)
(-0.00469242 -0.00331409 0.00337306)
(-0.00316127 -0.00182151 0.0033321)
(-0.00128614 -0.000416197 0.00390042)
(0.000116669 0.0010442 0.00512966)
(0.00155394 0.000876275 0.00526304)
(0.00301188 -9.4686e-05 0.00461955)
(0.00482697 -0.00124112 0.00417723)
(0.00628825 -0.00243727 0.00427811)
(0.00722594 -0.00422197 0.0046026)
(0.00749642 -0.00704304 0.004908)
(0.00668913 -0.0111477 0.00521909)
(0.00532818 -0.0167755 0.00482228)
(0.000405046 -0.0246968 0.00312021)
(0.00177569 -0.0331965 -0.0024656)
(-0.0050836 -0.0256983 -0.00911501)
(-0.00514688 -0.0197661 -0.00514687)
(-0.010468 -0.015526 -0.00413913)
(-0.0120447 -0.0132615 -0.0045451)
(-0.012214 -0.0119935 -0.00545217)
(-0.0109286 -0.011472 -0.00626171)
(-0.00878142 -0.0113529 -0.00684814)
(-0.00603426 -0.0113353 -0.00705945)
(-0.00289494 -0.0112193 -0.00662903)
(-0.000403324 -0.0107824 -0.00506952)
(0.00263423 -0.0108492 -0.0048559)
(0.00505919 -0.0113528 -0.00595932)
(0.00799823 -0.0113649 -0.00633468)
(0.0106089 -0.0112187 -0.00613623)
(0.0126423 -0.0111479 -0.00547562)
(0.013729 -0.0114466 -0.00447779)
(0.0133752 -0.0124904 -0.0033525)
(0.0115558 -0.0146073 -0.00269303)
(0.00606342 -0.0188532 -0.00330998)
(0.00520304 -0.025068 -0.00665825)
(-0.0113348 -0.0146681 -0.0160792)
(-0.0170513 -0.00913312 -0.0170513)
(-0.0234143 -0.00606667 -0.0198878)
(-0.025465 -0.0043777 -0.0230145)
(-0.0254435 -0.00321955 -0.0261491)
(-0.0236056 -0.00228359 -0.0291481)
(-0.0202503 -0.00128828 -0.0317581)
(-0.0155049 -0.000106787 -0.033716)
(-0.0094418 0.00128311 -0.0345994)
(-0.00330627 0.00284385 -0.0334998)
(0.00610126 0.00237675 -0.0327956)
(0.0115891 0.00102784 -0.0334223)
(0.017189 -0.000183378 -0.0324771)
(0.0214942 -0.00130067 -0.030505)
(0.0244879 -0.00228474 -0.0279418)
(0.0260476 -0.00320086 -0.024949)
(0.0258961 -0.00428404 -0.0217408)
(0.0237099 -0.00588019 -0.0184634)
(0.01732 -0.00885724 -0.0153512)
(0.0112945 -0.014321 -0.0137192)
(0.000907958 0.00754358 0.000509174)
(0.000732983 0.0030285 0.000776461)
(0.00069823 -0.000551851 0.00069823)
(6.96535e-06 -0.00286571 0.000597125)
(-0.000478089 -0.00313963 0.000474714)
(0.000135212 -0.00234076 0.00106142)
(0.00140026 -0.00113886 0.00115965)
(0.00178235 -0.000717048 0.00130732)
(0.00200901 -0.000588589 0.00128382)
(0.00212529 -0.000607404 0.00112097)
(0.00229946 -0.000636132 0.00083044)
(0.00262165 -0.000610689 0.000437334)
(0.00310995 -0.000525379 -2.13523e-05)
(0.00380238 -0.000451256 -0.000505983)
(0.00467812 -0.000565719 -0.0010596)
(0.00559567 -0.00136069 -0.00165663)
(0.00579129 -0.00212171 -0.00251594)
(0.00468359 -0.00112345 -0.00305816)
(0.00322794 0.000661482 -0.00286483)
(0.00196055 0.00530534 -0.0035234)
(0.00542496 -0.00261746 0.0165338)
(0.0101605 -8.08798e-05 0.0156245)
(0.0121911 0.00291262 0.0121911)
(0.00992256 0.00457269 0.00794953)
(0.00514549 0.00318031 0.004694)
(0.00090148 -0.00144354 0.00176781)
(-0.00022625 -0.00241231 -3.83525e-05)
(-9.332e-05 -0.00206797 -0.000794456)
(0.000577921 -0.00175069 -0.0014541)
(0.00112023 -0.00159667 -0.00186294)
(0.00162523 -0.00154524 -0.00188955)
(0.00212976 -0.00151381 -0.00158885)
(0.00263748 -0.00154921 -0.0011074)
(0.00296647 -0.00187539 -0.000425259)
(0.00269741 -0.00188468 0.000137779)
(0.000368385 0.000668717 0.00261199)
(-0.00478361 0.00433382 0.00580483)
(-0.00809855 0.00569462 0.00851377)
(-0.00863019 0.00532771 0.0118386)
(-0.00490703 0.00405559 0.0135772)
(0.00397925 -0.0108051 0.0116242)
(0.00892239 -0.00600597 0.0132668)
(0.0127026 0.000477074 0.0127026)
(0.0140752 0.00531236 0.0106529)
(0.0126008 0.00615242 0.00842987)
(0.00972907 0.00413313 0.00606559)
(0.00511073 0.000641225 0.00331217)
(0.00199179 -0.00209772 0.000302617)
(0.00104857 -0.00264952 -0.00175628)
(0.000887784 -0.00254891 -0.00292086)
(0.000878234 -0.00245484 -0.00280033)
(0.000708449 -0.00243147 -0.00159438)
(3.13371e-05 -0.00223738 0.000134885)
(-0.0019978 -0.00051059 0.00301581)
(-0.00631185 0.00287292 0.00561534)
(-0.00980356 0.00530179 0.00774016)
(-0.0129965 0.00579869 0.0104684)
(-0.0137126 0.00300674 0.0132258)
(-0.0106445 -0.00439769 0.015133)
(-0.00513127 -0.0121379 0.0149674)
(0.0033554 -0.0184368 0.00438309)
(0.00816719 -0.0135054 0.00893028)
(0.0110334 -0.00664036 0.0110334)
(0.013617 0.000870504 0.0111911)
(0.0142125 0.00491896 0.0100511)
(0.0126928 0.00547415 0.00834743)
(0.0098497 0.00409429 0.00628834)
(0.00654945 0.00166095 0.00361938)
(0.00317246 -0.00110981 -2.45346e-05)
(0.00122335 -0.00226512 -0.00258186)
(-1.11677e-05 -0.00227805 -0.00240447)
(-0.00197645 -0.00142922 0.000404351)
(-0.00517192 0.000563708 0.00387424)
(-0.00843442 0.0028573 0.00635958)
(-0.0112933 0.00474724 0.00828234)
(-0.013731 0.00565609 0.00996871)
(-0.0146912 0.00377197 0.0115064)
(-0.0125921 -0.0027566 0.0123019)
(-0.00900226 -0.011635 0.0112339)
(-0.00365636 -0.0195145 0.00787706)
(0.0028434 -0.0237041 -0.00137247)
(0.00807569 -0.0177527 0.00526653)
(0.00925955 -0.010684 0.00925955)
(0.0103364 -0.00281436 0.0110344)
(0.0109852 0.00323199 0.0112469)
(0.0102939 0.00574752 0.0102348)
(0.00842236 0.00561758 0.00858731)
(0.00596983 0.00425588 0.00646471)
(0.00335467 0.00248177 0.00358129)
(0.00141801 0.000247809 0.000280393)
(-5.16178e-06 -0.000114286 0.000289823)
(-0.00200433 0.00166861 0.00377387)
(-0.00472486 0.00308559 0.00674929)
(-0.00745171 0.00433557 0.00883557)
(-0.00983257 0.00538812 0.0104252)
(-0.0114379 0.0047781 0.0115833)
(-0.0112959 0.000492035 0.0120315)
(-0.00938834 -0.00790648 0.0109628)
(-0.00776636 -0.0172402 0.00776617)
(-0.00271911 -0.0252528 0.00192034)
(0.00175472 -0.0278447 -0.00506663)
(0.00780093 -0.0197415 0.002578)
(0.00752242 -0.0122257 0.00752243)
(0.00744019 -0.0041446 0.0101043)
(0.00681443 0.0025352 0.0111752)
(0.00631588 0.00610473 0.0107829)
(0.00519276 0.00680065 0.00951584)
(0.00366693 0.00616804 0.0078706)
(0.00213528 0.00509168 0.0060131)
(0.00104131 0.00405779 0.00442858)
(0.000438849 0.00383045 0.00443845)
(-0.000494919 0.00449655 0.00616412)
(-0.00205654 0.0052581 0.00808242)
(-0.00389549 0.00591469 0.00980797)
(-0.00560906 0.00616353 0.0112853)
(-0.00665059 0.00450008 0.0122625)
(-0.00675077 -0.00107502 0.012007)
(-0.0065754 -0.0100613 0.00981932)
(-0.0069685 -0.0196543 0.0052815)
(-0.00170868 -0.0283786 -0.00225257)
(3.12293e-05 -0.0302205 -0.00784309)
(0.00668033 -0.0200233 -6.82565e-05)
(0.00514037 -0.0120875 0.00514037)
(0.00479292 -0.00433482 0.00798632)
(0.00368425 0.00129293 0.00930877)
(0.00294509 0.00476812 0.00909303)
(0.0024561 0.00582681 0.00828368)
(0.00192256 0.00554469 0.0073054)
(0.00141521 0.00472772 0.00633812)
(0.00092384 0.00391525 0.00552693)
(0.000648816 0.00364549 0.00560286)
(0.000306105 0.00397036 0.00654918)
(-0.000240471 0.00458614 0.00764789)
(-0.00097062 0.00512067 0.0087755)
(-0.00176134 0.00510096 0.00998284)
(-0.00245791 0.00310856 0.0109357)
(-0.00331342 -0.00217169 0.0105505)
(-0.00375817 -0.0104881 0.00788908)
(-0.00580406 -0.0201278 0.00272505)
(-0.000158667 -0.0301573 -0.00527448)
(-0.0024069 -0.0294611 -0.0109398)
(0.00355286 -0.01867 -0.00390974)
(0.000743 -0.0106119 0.000743006)
(0.000478538 -0.00290881 0.00296369)
(0.000108226 0.00321323 0.00418292)
(0.000333339 0.00620214 0.00411828)
(0.000497345 0.0074196 0.00355107)
(0.000788374 0.00780335 0.00301659)
(0.00106432 0.00784145 0.00278889)
(0.000926659 0.00771393 0.0030089)
(0.000616727 0.00750557 0.00314528)
(0.000673802 0.00744536 0.00313092)
(0.0011244 0.00726954 0.0034801)
(0.00141163 0.00693821 0.0041979)
(0.00152332 0.00619885 0.00528803)
(0.00149943 0.00408639 0.00634904)
(0.0010554 -0.00119293 0.00582606)
(0.000494068 -0.00942939 0.00359045)
(-0.00296354 -0.0185909 -0.00121388)
(0.00217827 -0.0289633 -0.0084245)
(-0.00630447 -0.0235876 -0.0153085)
(-0.00413913 -0.015526 -0.010468)
(-0.00766606 -0.009818 -0.00766606)
(-0.00758391 -0.00637293 -0.00674414)
(-0.00695381 -0.00410735 -0.00676215)
(-0.00491629 -0.00301202 -0.0061781)
(-0.00284104 -0.00300117 -0.00599489)
(-0.00113403 -0.00331378 -0.00612889)
(0.000214481 -0.00328395 -0.00600681)
(0.000818911 -0.00212636 -0.0050291)
(0.00142972 -0.00241847 -0.00468185)
(0.00202078 -0.00390271 -0.00520613)
(0.00312401 -0.00398404 -0.00530733)
(0.00458099 -0.00351518 -0.0052543)
(0.00623344 -0.0030869 -0.00493068)
(0.00788079 -0.00368218 -0.00489511)
(0.00842846 -0.00579017 -0.0047121)
(0.00815449 -0.00919108 -0.00538215)
(0.00438676 -0.014974 -0.008116)
(0.00602357 -0.0229639 -0.012761)
(-0.0137827 -0.012918 -0.0223675)
(-0.0198878 -0.00606667 -0.0234143)
(-0.0263507 -0.00242819 -0.0263507)
(-0.0280567 -0.000362655 -0.0297969)
(-0.0276566 0.00111384 -0.0332709)
(-0.0255938 0.00238849 -0.0367358)
(-0.0221464 0.00376877 -0.0399714)
(-0.0173049 0.00536639 -0.0425305)
(-0.010933 0.00720224 -0.0437809)
(-0.00401385 0.00926452 -0.0425542)
(0.00705375 0.00863132 -0.0418299)
(0.0131932 0.00679147 -0.042433)
(0.0189772 0.00512776 -0.0410577)
(0.0231576 0.00353422 -0.038373)
(0.0260531 0.00214285 -0.0351324)
(0.0277095 0.000882204 -0.0315908)
(0.0279093 -0.000542734 -0.0280082)
(0.0260645 -0.00252456 -0.024396)
(0.0196013 -0.00604258 -0.0212331)
(0.0133467 -0.0126297 -0.0197691)
(0.000474088 0.000243452 -0.00234548)
(0.000542284 -0.0013087 -0.000497581)
(0.000597125 -0.00286571 6.96563e-06)
(0.000234226 -0.00338693 0.000234226)
(0.000584011 -0.00274727 0.000845625)
(0.00146515 -0.00190055 0.00175449)
(0.00237887 -0.000942319 0.00207016)
(0.00257 -0.000580449 0.00231685)
(0.00242795 -0.000449226 0.00236477)
(0.00204708 -0.000462319 0.00221204)
(0.00164373 -0.000525318 0.00180645)
(0.00147142 -0.000561673 0.00120335)
(0.0016343 -0.000562844 0.000545026)
(0.00214706 -0.000541981 -0.00013106)
(0.00291303 -0.000597766 -0.000852316)
(0.00367513 -0.00106486 -0.00155505)
(0.00392683 -0.00225118 -0.00259663)
(0.00310884 -0.00214881 -0.00335437)
(0.00194476 -0.00168424 -0.00365528)
(0.00101618 -0.00091054 -0.00460626)
(0.00424668 0.00299772 0.0143275)
(0.00700161 0.0037352 0.0133185)
(0.00794954 0.00457269 0.00992256)
(0.00605634 0.00390191 0.00605634)
(0.0029515 0.00054621 0.00324134)
(0.00077182 -0.00243064 0.00109589)
(0.000424891 -0.0023281 0.000217807)
(0.000680282 -0.00195569 -0.00017878)
(0.000986466 -0.00167403 -0.000678421)
(0.00107841 -0.00157535 -0.00102694)
(0.00106452 -0.00157675 -0.00109065)
(0.00114017 -0.00161244 -0.000875902)
(0.00140659 -0.00176245 -0.000551175)
(0.00184791 -0.00211674 -0.000167023)
(0.00194647 -0.00231099 0.000114941)
(0.0010197 -0.000585034 0.00207207)
(-0.00212556 0.00253163 0.0053628)
(-0.00444802 0.00428006 0.00803614)
(-0.00512298 0.00464364 0.0113913)
(-0.00321034 0.00445519 0.0132569)
(0.00372818 0.000294938 0.0142395)
(0.00751247 0.00286028 0.0153598)
(0.0106529 0.00531235 0.0140752)
(0.0116153 0.00636719 0.0116153)
(0.0105207 0.0051873 0.00898817)
(0.00779509 0.00268935 0.00600739)
(0.00398439 -0.000679022 0.00296114)
(0.00203242 -0.00248043 0.000565122)
(0.00125152 -0.00278162 -0.00110905)
(0.000812722 -0.00277503 -0.00207305)
(0.000308765 -0.00274343 -0.00188571)
(-0.000215271 -0.0027142 -0.00071856)
(-0.000889073 -0.00254193 0.000855048)
(-0.00198496 -0.00127085 0.00307556)
(-0.00511277 0.00162046 0.00575027)
(-0.00777618 0.00412724 0.00827009)
(-0.0100346 0.00534941 0.0113612)
(-0.0106033 0.00459719 0.0145717)
(-0.00843084 0.00102161 0.0171551)
(-0.00448376 -0.00443361 0.0172307)
(0.00406111 -0.00722977 0.00629117)
(0.00819857 -0.00326046 0.0111376)
(0.0111911 0.000870501 0.013617)
(0.0132896 0.00436278 0.0132896)
(0.0134856 0.00573587 0.0115352)
(0.0118554 0.00521814 0.00922592)
(0.00920729 0.0033851 0.00672188)
(0.00590435 0.000544344 0.00364097)
(0.00295675 -0.00186448 0.000350363)
(0.00109971 -0.00283517 -0.0017814)
(-0.000676354 -0.00283843 -0.00131946)
(-0.00262434 -0.00206507 0.00127854)
(-0.00513695 -0.000400673 0.00426364)
(-0.00793506 0.00197847 0.00694678)
(-0.0103547 0.00408067 0.0091366)
(-0.0124932 0.00553843 0.0112858)
(-0.01341 0.00524014 0.0133621)
(-0.0120153 0.00212965 0.0146173)
(-0.00865378 -0.00366602 0.0133257)
(-0.00395137 -0.00956453 0.00926083)
(0.00378296 -0.0145785 -0.00135616)
(0.00915509 -0.00736636 0.00563531)
(0.0110344 -0.00281436 0.0103364)
(0.0124232 0.00185074 0.0124232)
(0.01285 0.00520129 0.0123104)
(0.0118942 0.00627771 0.0109585)
(0.00987704 0.00538805 0.00901168)
(0.00726861 0.00342375 0.00656967)
(0.00440301 0.000831914 0.00318349)
(0.00178106 -0.00164241 -0.000102294)
(-0.00105963 -0.00195278 0.000307963)
(-0.00359095 -0.000242155 0.00376133)
(-0.0062743 0.00187262 0.00705632)
(-0.00883385 0.00378231 0.00936081)
(-0.011131 0.00540881 0.0111826)
(-0.0127707 0.00566933 0.0126077)
(-0.0129061 0.00326186 0.013286)
(-0.011167 -0.00217184 0.0121455)
(-0.0087478 -0.00865548 0.00820861)
(-0.00336444 -0.0162312 0.00147438)
(0.00211236 -0.0210534 -0.00618962)
(0.00921809 -0.00991878 0.00183645)
(0.0101043 -0.0041446 0.0074402)
(0.0105564 0.00103952 0.0105564)
(0.0103957 0.00525372 0.0117049)
(0.00969857 0.00730276 0.0112793)
(0.00826798 0.00716232 0.00994869)
(0.00630708 0.00578079 0.00807154)
(0.00405061 0.00392439 0.00567535)
(0.00191445 0.00208735 0.00313069)
(-0.000390003 0.00150785 0.00299341)
(-0.00245482 0.00280246 0.00572)
(-0.00474206 0.00430581 0.0082934)
(-0.00693885 0.0057986 0.0103194)
(-0.00883544 0.0068501 0.0118764)
(-0.0100387 0.00618286 0.0128054)
(-0.0101318 0.00246737 0.0124838)
(-0.00932561 -0.00394362 0.00997355)
(-0.00844003 -0.0111989 0.00465344)
(-0.00202006 -0.0215194 -0.00358479)
(-0.000323201 -0.0257074 -0.00961775)
(0.00793869 -0.011566 -0.001125)
(0.00798632 -0.00433482 0.00479293)
(0.00814265 0.000937687 0.00814265)
(0.00754228 0.00492893 0.00974038)
(0.00697967 0.0070455 0.0098972)
(0.0062339 0.00711312 0.00921961)
(0.00514748 0.00595457 0.00813533)
(0.00372654 0.00433971 0.00681849)
(0.00207368 0.00287687 0.00547766)
(-1.15728e-05 0.00226231 0.00540432)
(-0.0018159 0.00301122 0.00688618)
(-0.0033757 0.00437602 0.00842658)
(-0.00470033 0.00585171 0.00977344)
(-0.00574713 0.0068413 0.0109449)
(-0.00643911 0.00597628 0.0116137)
(-0.0068457 0.00209383 0.0109159)
(-0.00669112 -0.00437221 0.00786434)
(-0.00720332 -0.0125929 0.00172084)
(0.000117675 -0.0255325 -0.00715833)
(-0.00334384 -0.0271303 -0.0131676)
(0.00414596 -0.0128918 -0.00506715)
(0.00296369 -0.00290881 0.000478543)
(0.00399754 0.0039829 0.00399754)
(0.00382417 0.00733737 0.00568558)
(0.00399971 0.00881044 0.00600908)
(0.00414155 0.00901141 0.00572593)
(0.00404341 0.00870907 0.00526127)
(0.00351868 0.00830599 0.00488537)
(0.00220384 0.00793413 0.00467355)
(-2.0905e-05 0.00755756 0.00468909)
(-0.0014389 0.00760373 0.00504262)
(-0.0020063 0.00777471 0.00562514)
(-0.00231484 0.00813336 0.00641982)
(-0.00237655 0.00849253 0.00736706)
(-0.00229893 0.00780112 0.00803986)
(-0.00252732 0.00461722 0.00726932)
(-0.00186911 -0.00276302 0.00384523)
(-0.00376808 -0.0129811 -0.00237955)
(0.00297874 -0.0265038 -0.0107467)
(-0.00766542 -0.0229284 -0.017628)
(-0.0045451 -0.0132615 -0.0120447)
(-0.00674414 -0.00637292 -0.00758391)
(-0.0046643 -0.00202553 -0.0046643)
(-0.00362219 0.000527638 -0.00389398)
(-0.00206633 0.000946135 -0.00407685)
(-0.000414806 0.000287456 -0.00463148)
(0.000885368 -0.000503469 -0.00525089)
(0.00166057 -0.0007386 -0.00537082)
(0.00158738 0.000412724 -0.00455935)
(0.00108198 5.35007e-05 -0.00422106)
(0.000769012 -0.00156955 -0.00464908)
(0.00107303 -0.00145385 -0.00439538)
(0.0016881 -0.000623532 -0.00353539)
(0.00274954 0.000550266 -0.00232712)
(0.00409047 0.000976979 -0.00129018)
(0.00459405 -0.00124277 -0.00114082)
(0.00676806 -0.00576956 -0.00458195)
(0.0044421 -0.0127657 -0.00949841)
(0.0072295 -0.0221975 -0.0151205)
(-0.0161335 -0.0122472 -0.0245705)
(-0.0230145 -0.0043777 -0.025465)
(-0.0297969 -0.000362649 -0.0280567)
(-0.0311278 0.00191558 -0.0311279)
(-0.0301808 0.00357289 -0.0342994)
(-0.0279877 0.00503698 -0.0379731)
(-0.0246593 0.00669466 -0.0419042)
(-0.0198698 0.00868863 -0.0455333)
(-0.0131015 0.0110504 -0.0479262)
(-0.00498574 0.0137752 -0.0475395)
(0.00849453 0.0128991 -0.0466321)
(0.0154873 0.0104908 -0.046337)
(0.0214283 0.00830734 -0.0437865)
(0.0254282 0.00634189 -0.0401432)
(0.028026 0.00463783 -0.0361194)
(0.0296604 0.00317212 -0.0321907)
(0.0304008 0.00155924 -0.0288876)
(0.0290042 -0.000651882 -0.0257401)
(0.022323 -0.00448127 -0.0230478)
(0.0154525 -0.0119538 -0.0219225)
(0.00019446 -0.0027302 -0.00358446)
(0.000344266 -0.00320361 -0.00164957)
(0.000474714 -0.00313963 -0.000478088)
(0.000845625 -0.00274727 0.000584012)
(0.00162433 -0.00226054 0.00162433)
(0.00259533 -0.00126196 0.00257753)
(0.00316082 -0.000732103 0.00307413)
(0.00318425 -0.000478828 0.00349325)
(0.00271748 -0.000390722 0.00378314)
(0.00176558 -0.000444669 0.0038618)
(0.000624437 -0.000567349 0.00336867)
(-9.03248e-05 -0.000675488 0.00242518)
(-0.000140164 -0.000757853 0.00145555)
(0.000326516 -0.000792697 0.000545328)