/*--------------------------------*- C++ -*----------------------------------*\
| =========                 |                                                 |
| \\      /  F ield         | OpenFOAM: The Open Source CFD Toolbox           |
|  \\    /   O peration     | Version:  v2006                                 |
|   \\  /    A nd           | Website:  www.openfoam.com                      |
|    \\/     M anipulation  |                                                 |
\*---------------------------------------------------------------------------*/
FoamFile
{
    version     2.0;
    format      ascii;
    class       volScalarField;
    location    "70";
    object      alphat;
}
// * * * * * * * * * * * * * * * * * * * * * * * * * * * * * * * * * * * * * //

dimensions      [1 -1 -1 0 0 0 0];


internalField   nonuniform List<scalar> 
78750
(
1.4331e-09
2.71668e-07
5.18215e-07
7.71482e-07
1.02479e-06
1.27279e-06
1.51125e-06
1.73693e-06
1.94739e-06
2.14089e-06
2.31627e-06
2.47285e-06
2.61027e-06
2.7274e-06
2.8242e-06
2.90074e-06
2.95713e-06
2.99336e-06
3.00937e-06
3.00498e-06
2.97995e-06
2.93351e-06
2.86436e-06
2.77161e-06
2.65406e-06
2.51056e-06
2.34032e-06
2.14236e-06
1.91724e-06
1.66607e-06
1.38899e-06
1.08634e-06
7.66335e-07
4.50391e-07
6.21814e-09
3.74827e-09
2.49264e-06
5.34864e-06
7.90078e-06
9.89731e-06
1.15236e-05
1.29528e-05
1.42794e-05
1.55601e-05
1.68343e-05
1.81289e-05
1.95034e-05
2.09849e-05
2.14022e-05
2.16093e-05
2.17024e-05
2.16919e-05
2.15874e-05
2.1397e-05
2.11275e-05
2.07839e-05
2.03679e-05
1.98777e-05
1.93092e-05
1.86539e-05
1.79001e-05
1.70383e-05
1.50495e-05
1.27752e-05
1.04068e-05
7.88102e-06
5.58915e-06
4.24585e-06
2.46806e-06
2.23364e-08
6.59973e-09
2.37967e-06
5.28017e-06
8.75864e-06
1.24133e-05
1.57673e-05
1.85682e-05
2.0812e-05
2.25905e-05
2.40055e-05
2.5149e-05
2.58908e-05
2.60827e-05
2.61078e-05
2.5986e-05
2.57361e-05
2.53761e-05
2.49238e-05
2.43972e-05
2.38142e-05
2.31919e-05
2.25468e-05
2.1506e-05
2.01815e-05
1.88699e-05
1.75961e-05
1.63025e-05
1.48714e-05
1.3136e-05
1.09714e-05
8.60201e-06
6.87828e-06
6.62996e-06
2.40597e-06
3.80335e-08
1.05319e-08
2.30044e-06
5.31958e-06
9.59661e-06
1.48466e-05
1.98692e-05
2.37096e-05
2.6342e-05
2.80463e-05
2.87504e-05
2.91419e-05
2.92968e-05
2.89171e-05
2.81545e-05
2.71492e-05
2.59786e-05
2.47056e-05
2.33795e-05
2.20381e-05
2.07131e-05
1.9436e-05
1.82411e-05
1.71619e-05
1.62228e-05
1.54308e-05
1.47504e-05
1.40715e-05
1.31952e-05
1.18933e-05
1.01317e-05
8.38233e-06
7.63553e-06
8.35426e-06
2.17298e-06
4.96696e-08
1.50027e-08
2.27113e-06
5.45211e-06
1.04555e-05
1.7097e-05
2.34021e-05
2.78435e-05
2.99677e-05
3.08074e-05
3.13196e-05
3.15455e-05
3.04126e-05
2.87974e-05
2.69753e-05
2.51021e-05
2.32822e-05
2.15715e-05
1.99866e-05
1.85217e-05
1.71667e-05
1.59237e-05
1.48134e-05
1.38668e-05
1.31097e-05
1.25487e-05
1.21455e-05
1.17786e-05
1.12339e-05
1.03075e-05
9.06128e-06
8.04253e-06
8.23318e-06
8.70416e-06
2.01355e-06
5.76991e-08
1.95096e-08
2.30659e-06
5.68123e-06
1.13579e-05
1.9312e-05
2.67951e-05
3.13939e-05
3.25709e-05
3.33477e-05
3.37778e-05
3.24729e-05
3.02423e-05
2.7758e-05
2.53001e-05
2.30354e-05
2.10353e-05
1.93026e-05
1.78014e-05
1.64827e-05
1.53024e-05
1.42382e-05
1.32929e-05
1.2475e-05
1.17904e-05
1.12405e-05
1.07966e-05
1.03647e-05
9.7902e-06
8.96986e-06
8.05474e-06
7.58566e-06
8.51717e-06
8.38112e-06
1.92528e-06
6.36587e-08
2.37483e-08
2.338e-06
5.83377e-06
1.1936e-05
2.07161e-05
2.88174e-05
3.355e-05
3.46808e-05
3.53963e-05
3.44274e-05
3.19663e-05
2.90097e-05
2.60095e-05
2.32503e-05
2.08614e-05
1.88566e-05
1.7188e-05
1.57886e-05
1.45958e-05
1.35655e-05
1.26824e-05
1.1948e-05
1.13405e-05
1.08235e-05
1.03636e-05
9.91895e-06
9.42032e-06
8.78876e-06
8.0269e-06
7.34475e-06
7.25605e-06
8.68547e-06
7.82254e-06
1.86552e-06
6.9027e-08
2.75117e-08
2.37277e-06
5.94026e-06
1.22945e-05
2.1657e-05
3.02966e-05
3.52883e-05
3.67308e-05
3.66494e-05
3.45457e-05
3.14749e-05
2.80773e-05
2.48228e-05
2.19677e-05
1.95823e-05
1.76313e-05
1.60418e-05
1.47356e-05
1.3645e-05
1.27261e-05
1.1966e-05
1.13572e-05
1.08535e-05
1.03939e-05
9.92391e-06
9.39743e-06
8.77506e-06
8.04746e-06
7.29446e-06
6.75093e-06
6.89738e-06
8.63887e-06
7.4248e-06
1.83715e-06
7.46899e-08
3.09795e-08
2.39544e-06
5.99027e-06
1.24674e-05
2.21463e-05
3.10392e-05
3.59742e-05
3.75443e-05
3.66809e-05
3.41535e-05
3.07314e-05
2.71001e-05
2.37329e-05
2.08467e-05
1.84699e-05
1.65425e-05
1.49828e-05
1.37156e-05
1.26821e-05
1.1852e-05
1.12276e-05
1.0791e-05
1.04628e-05
1.01422e-05
9.73454e-06
9.17555e-06
8.45338e-06
7.62924e-06
6.85395e-06
6.38376e-06
6.67807e-06
8.62006e-06
7.07693e-06
1.81933e-06
8.0912e-08
3.4396e-08
2.41706e-06
6.02361e-06
1.25662e-05
2.246e-05
3.1578e-05
3.65179e-05
3.79097e-05
3.67758e-05
3.39692e-05
3.03305e-05
2.65771e-05
2.3166e-05
2.02782e-05
1.79129e-05
1.59951e-05
1.44383e-05
1.31693e-05
1.2136e-05
1.13182e-05
1.07319e-05
1.03629e-05
1.01221e-05
9.88816e-06
9.53472e-06
8.97169e-06
8.19506e-06
7.31164e-06
6.5217e-06
6.09783e-06
6.48992e-06
8.57584e-06
6.83183e-06
1.81326e-06
8.75213e-08
3.77033e-08
2.43161e-06
6.03927e-06
1.26207e-05
2.26533e-05
3.18852e-05
3.67644e-05
3.79748e-05
3.66113e-05
3.35935e-05
2.98122e-05
2.59955e-05
2.25765e-05
1.9704e-05
1.73561e-05
1.54491e-05
1.38957e-05
1.26265e-05
1.15966e-05
1.07978e-05
1.02585e-05
9.96204e-06
9.81144e-06
9.66921e-06
9.38263e-06
8.83891e-06
8.03734e-06
7.11922e-06
6.32287e-06
5.93602e-06
6.41039e-06
8.61962e-06
6.61128e-06
1.81121e-06
9.42865e-08
4.13072e-08
2.44968e-06
6.06678e-06
1.27022e-05
2.28735e-05
3.2191e-05
3.7002e-05
3.80575e-05
3.65185e-05
3.33595e-05
2.9501e-05
2.56657e-05
2.22595e-05
1.94052e-05
1.70666e-05
1.51554e-05
1.35855e-05
1.22909e-05
1.12323e-05
1.041e-05
9.86461e-06
9.58392e-06
9.47018e-06
9.3809e-06
9.14859e-06
8.64194e-06
7.85413e-06
6.94117e-06
6.16282e-06
5.81854e-06
6.37041e-06
8.69677e-06
6.43992e-06
1.81459e-06
1.0103e-07
4.48179e-08
2.46363e-06
6.08876e-06
1.27742e-05
2.30603e-05
3.24208e-05
3.7135e-05
3.80245e-05
3.63115e-05
3.30232e-05
2.91062e-05
2.52718e-05
2.18955e-05
1.90739e-05
1.67574e-05
1.48543e-05
1.328e-05
1.19719e-05
1.08958e-05
1.00598e-05
9.51443e-06
9.24915e-06
9.16414e-06
9.11378e-06
8.92415e-06
8.45405e-06
7.69355e-06
6.80591e-06
6.06153e-06
5.7687e-06
6.4052e-06
8.84573e-06
6.28318e-06
1.8203e-06
1.0761e-07
4.87199e-08
2.4827e-06
6.12845e-06
1.28939e-05
2.33197e-05
3.26928e-05
3.72779e-05
3.80027e-05
3.61475e-05
3.27771e-05
2.88443e-05
2.50368e-05
2.16989e-05
1.89064e-05
1.66019e-05
1.46938e-05
1.31005e-05
1.17639e-05
1.06538e-05
9.7837e-06
9.21176e-06
8.93325e-06
8.84894e-06
8.81356e-06
8.6519e-06
8.22007e-06
7.50384e-06
6.66427e-06
5.97199e-06
5.74059e-06
6.46712e-06
9.01955e-06
6.15893e-06
1.82939e-06
1.14014e-07
5.24877e-08
2.49889e-06
6.16474e-06
1.30062e-05
2.3554e-05
3.292e-05
3.73702e-05
3.79292e-05
3.59323e-05
3.2484e-05
2.85433e-05
2.47727e-05
2.14835e-05
1.87303e-05
1.64478e-05
1.45438e-05
1.29399e-05
1.15817e-05
1.04437e-05
9.54469e-06
8.95019e-06
8.65888e-06
8.57106e-06
8.5422e-06
8.39831e-06
7.99728e-06
7.32626e-06
6.54307e-06
5.91278e-06
5.75157e-06
6.57745e-06
9.23413e-06
6.04833e-06
1.84015e-06
1.20187e-07
5.66173e-08
2.51954e-06
6.21531e-06
1.31574e-05
2.38491e-05
3.31829e-05
3.74731e-05
3.78702e-05
3.576e-05
3.22708e-05
2.83517e-05
2.46322e-05
2.13934e-05
1.86738e-05
1.64041e-05
1.44938e-05
1.28684e-05
1.14777e-05
1.03002e-05
9.35858e-06
8.72334e-06
8.40144e-06
8.29383e-06
8.25807e-06
8.12429e-06
7.75417e-06
7.13459e-06
6.41686e-06
5.85711e-06
5.77227e-06
6.70205e-06
9.45545e-06
5.96227e-06
1.8531e-06
1.2618e-07
6.05944e-08
2.53802e-06
6.2634e-06
1.33022e-05
2.41222e-05
3.34129e-05
3.75476e-05
3.77888e-05
3.55695e-05
3.2043e-05
2.81494e-05
2.44861e-05
2.1304e-05
1.86256e-05
1.63763e-05
1.44667e-05
1.28249e-05
1.14049e-05
1.01904e-05
9.20764e-06
8.53218e-06
8.17857e-06
8.04795e-06
7.99996e-06
7.86994e-06
7.52604e-06
6.9569e-06
6.30657e-06
5.82077e-06
5.81723e-06
6.85753e-06
9.69435e-06
5.8891e-06
1.8673e-06
1.31966e-07
6.4878e-08
2.55989e-06
6.32181e-06
1.3475e-05
2.44387e-05
3.36695e-05
3.76364e-05
3.77318e-05
3.54285e-05
3.18916e-05
2.80407e-05
2.44391e-05
2.13119e-05
1.86692e-05
1.64338e-05
1.45176e-05
1.28516e-05
1.13944e-05
1.01337e-05
9.09875e-06
8.36817e-06
7.96904e-06
7.80411e-06
7.73591e-06
7.606e-06
7.28892e-06
6.77349e-06
6.19434e-06
5.78565e-06
5.86609e-06
7.01914e-06
9.92858e-06
5.83363e-06
1.88274e-06
1.37585e-07
6.90188e-08
2.58015e-06
6.37875e-06
1.36445e-05
2.47401e-05
3.39045e-05
3.7711e-05
3.76681e-05
3.52852e-05
3.17391e-05
2.79317e-05
2.43943e-05
2.13269e-05
1.8727e-05
1.65133e-05
1.45975e-05
1.29127e-05
1.1421e-05
1.01142e-05
9.02594e-06
8.23768e-06
7.7893e-06
7.58568e-06
7.49261e-06
7.35849e-06
7.0651e-06
6.60176e-06
6.09349e-06
5.76288e-06
5.92999e-06
7.19988e-06
1.01662e-05
5.78816e-06
1.89888e-06
1.4301e-07
7.3417e-08
2.60292e-06
6.44339e-06
1.38354e-05
2.50749e-05
3.41624e-05
3.78052e-05
3.76357e-05
3.51923e-05
3.16533e-05
2.78969e-05
2.44239e-05
2.14131e-05
1.88522e-05
1.66569e-05
1.47383e-05
1.30312e-05
1.15002e-05
1.01408e-05
8.99027e-06
8.13251e-06
7.62362e-06
7.37246e-06
7.24871e-06
7.10783e-06
6.83811e-06
6.42783e-06
5.99139e-06
5.73986e-06
5.99525e-06
7.38368e-06
1.03961e-05
5.75555e-06
1.91572e-06
1.48257e-07
7.76916e-08
2.62436e-06
6.50708e-06
1.40255e-05
2.54019e-05
3.44096e-05
3.78967e-05
3.76071e-05
3.51048e-05
3.15711e-05
2.78638e-05
2.44562e-05
2.15066e-05
1.89922e-05
1.68238e-05
1.49107e-05
1.31874e-05
1.16203e-05
1.02081e-05
8.99232e-06
8.06084e-06
7.4858e-06
7.18166e-06
7.02257e-06
6.87132e-06
6.62259e-06
6.26324e-06
5.89692e-06
5.72371e-06
6.06828e-06
7.57713e-06
1.06195e-05
5.72855e-06
1.93253e-06
1.53294e-07
8.21792e-08
2.64748e-06
6.57643e-06
1.42333e-05
2.57583e-05
3.46817e-05
3.80142e-05
3.76135e-05
3.5063e-05
3.15411e-05
2.7884e-05
2.45394e-05
2.16484e-05
1.91789e-05
1.70371e-05
1.51301e-05
1.33911e-05
1.17868e-05
1.03186e-05
9.03162e-06
8.01769e-06
7.36665e-06
7.00161e-06
6.80183e-06
6.6374e-06
6.40851e-06
6.09937e-06
5.80244e-06
5.70735e-06
6.1423e-06
7.77371e-06
1.0837e-05
5.71188e-06
1.94982e-06
1.58126e-07
8.65599e-08
2.66924e-06
6.64441e-06
1.44407e-05
2.61133e-05
3.49568e-05
3.81431e-05
3.76324e-05
3.50294e-05
3.15138e-05
2.7904e-05
2.46238e-05
2.17963e-05
1.93793e-05
1.72732e-05
1.53811e-05
1.36336e-05
1.19964e-05
1.04728e-05
9.11222e-06
8.01142e-06
7.27731e-06
6.84473e-06
6.59892e-06
6.41736e-06
6.20526e-06
5.94364e-06
5.71368e-06
5.69505e-06
6.21989e-06
7.97338e-06
1.10409e-05
5.69697e-06
1.96652e-06
1.62716e-07
9.11069e-08
2.69189e-06
6.71567e-06
1.46603e-05
2.64911e-05
3.52517e-05
3.82941e-05
3.7682e-05
3.50286e-05
3.152e-05
2.79568e-05
2.47394e-05
2.19741e-05
1.96098e-05
1.75414e-05
1.56679e-05
1.39159e-05
1.22488e-05
1.06703e-05
9.23376e-06
8.0411e-06
7.21484e-06
6.70663e-06
6.40856e-06
6.20549e-06
6.00711e-06
5.7905e-06
5.62549e-06
5.68236e-06
6.29796e-06
8.17609e-06
1.12414e-05
5.68965e-06
1.98333e-06
1.67069e-07
9.55551e-08
2.71328e-06
6.78467e-06
1.48741e-05
2.68512e-05
3.55171e-05
3.84216e-05
3.77182e-05
3.50231e-05
3.15238e-05
2.8008e-05
2.48554e-05
2.21568e-05
1.98517e-05
1.78293e-05
1.59831e-05
1.42347e-05
1.25437e-05
1.0913e-05
9.39981e-06
8.11233e-06
7.18665e-06
6.59602e-06
6.2398e-06
6.01025e-06
5.82121e-06
5.64568e-06
5.5424e-06
5.67272e-06
6.37871e-06
8.38297e-06
1.14379e-05
5.68515e-06
1.9995e-06
1.71163e-07
1.00125e-07
2.73528e-06
6.85628e-06
1.50957e-05
2.72167e-05
3.57836e-05
3.85521e-05
3.7763e-05
3.50406e-05
3.15508e-05
2.80789e-05
2.49885e-05
2.23555e-05
2.01107e-05
1.81376e-05
1.63243e-05
1.45862e-05
1.28774e-05
1.11985e-05
9.60911e-06
8.224e-06
7.19147e-06
6.5113e-06
6.09072e-06
5.82929e-06
5.64469e-06
5.50574e-06
5.46048e-06
5.66207e-06
6.4591e-06
8.59389e-06
1.16306e-05
5.68966e-06
2.01614e-06
1.75016e-07
1.04602e-07
2.75607e-06
6.92638e-06
1.53156e-05
2.75615e-05
3.60258e-05
3.86627e-05
3.77905e-05
3.5042e-05
3.15674e-05
2.81442e-05
2.51196e-05
2.25563e-05
2.03772e-05
1.84606e-05
1.66883e-05
1.4969e-05
1.325e-05
1.15276e-05
9.86336e-06
8.37869e-06
7.23386e-06
6.45827e-06
5.96761e-06
5.66873e-06
5.48301e-06
5.37545e-06
5.38418e-06
5.65528e-06
6.54537e-06
8.81687e-06
1.18243e-05
5.70233e-06
2.03352e-06
1.78631e-07
1.09149e-07
2.77659e-06
6.99619e-06
1.55377e-05
2.79061e-05
3.62645e-05
3.87716e-05
3.78205e-05
3.5051e-05
3.15997e-05
2.82221e-05
2.52586e-05
2.27631e-05
2.0651e-05
1.87945e-05
1.70696e-05
1.53771e-05
1.36561e-05
1.1897e-05
1.0161e-05
8.57574e-06
7.31362e-06
6.4367e-06
5.87024e-06
5.52804e-06
5.3351e-06
5.25302e-06
5.31099e-06
5.64895e-06
6.63242e-06
9.0433e-06
1.20159e-05
5.72146e-06
2.05145e-06
1.82017e-07
1.13611e-07
2.79612e-06
7.0636e-06
1.57526e-05
2.82327e-05
3.64827e-05
3.88633e-05
3.7835e-05
3.50446e-05
3.162e-05
2.82897e-05
2.53905e-05
2.29673e-05
2.09273e-05
1.9137e-05
1.74664e-05
1.58089e-05
1.40944e-05
1.23056e-05
1.05016e-05
8.81597e-06
7.43348e-06
6.45055e-06
5.80306e-06
5.4117e-06
5.20517e-06
5.14229e-06
5.24441e-06
5.64633e-06
6.72295e-06
9.27422e-06
1.22053e-05
5.74552e-06
2.06973e-06
1.85178e-07
1.18111e-07
2.81552e-06
7.13112e-06
1.59693e-05
2.85584e-05
3.66959e-05
3.89506e-05
3.78468e-05
3.5037e-05
3.16392e-05
2.83567e-05
2.55218e-05
2.3171e-05
2.12044e-05
1.94835e-05
1.78729e-05
1.62582e-05
1.45593e-05
1.27492e-05
1.08831e-05
9.09878e-06
7.5939e-06
6.50061e-06
5.76684e-06
5.3202e-06
5.09322e-06
5.04265e-06
5.18305e-06
5.64485e-06
6.81269e-06
9.50447e-06
1.23909e-05
5.77391e-06
2.08823e-06
1.88129e-07
1.22534e-07
2.8342e-06
7.19686e-06
1.61802e-05
2.88685e-05
3.68912e-05
3.90221e-05
3.78437e-05
3.50149e-05
3.16448e-05
2.84127e-05
2.56448e-05
2.33692e-05
2.14792e-05
1.9832e-05
1.82872e-05
1.67226e-05
1.50478e-05
1.32249e-05
1.13031e-05
9.42316e-06
7.79594e-06
6.58909e-06
5.76445e-06
5.25675e-06
5.00244e-06
4.95695e-06
5.12928e-06
5.64659e-06
6.904e-06
9.73413e-06
1.25723e-05
5.80538e-06
2.10677e-06
1.90876e-07
1.26969e-07
2.85292e-06
7.26304e-06
1.63921e-05
2.91754e-05
3.70791e-05
3.90857e-05
3.78328e-05
3.4985e-05
3.16433e-05
2.84632e-05
2.57625e-05
2.35618e-05
2.17494e-05
2.01786e-05
1.87043e-05
1.71968e-05
1.55548e-05
1.37284e-05
1.17587e-05
9.78801e-06
8.03982e-06
6.71643e-06
5.79629e-06
5.22172e-06
4.93316e-06
4.88543e-06
5.08331e-06
5.65211e-06
6.9981e-06
9.96191e-06
1.27503e-05
5.83979e-06
2.12528e-06
1.93432e-07
1.31335e-07
2.8713e-06
7.32846e-06
1.65996e-05
2.94684e-05
3.725e-05
3.91329e-05
3.78052e-05
3.49378e-05
3.16253e-05
2.85037e-05
2.58706e-05
2.37452e-05
2.20125e-05
2.05216e-05
1.91224e-05
1.7678e-05
1.60766e-05
1.42554e-05
1.22461e-05
1.01908e-05
8.32522e-06
6.88352e-06
5.86405e-06
5.21724e-06
4.88774e-06
4.83057e-06
5.04747e-06
5.66301e-06
7.09473e-06
1.0189e-05
1.29258e-05
5.87659e-06
2.14368e-06
1.95807e-07
1.35696e-07
2.88995e-06
7.39545e-06
1.68069e-05
2.97552e-05
3.74106e-05
3.91684e-05
3.77648e-05
3.48772e-05
3.15929e-05
2.85296e-05
2.59651e-05
2.39169e-05
2.22664e-05
2.08584e-05
1.95384e-05
1.81628e-05
1.66093e-05
1.4802e-05
1.27618e-05
1.06291e-05
8.65084e-06
7.08966e-06
5.96746e-06
5.24337e-06
4.86651e-06
4.79277e-06
5.02199e-06
5.67888e-06
7.19235e-06
1.04139e-05
1.30992e-05
5.91569e-06
2.16195e-06
1.98012e-07
1.3999e-07
2.90819e-06
7.46268e-06
1.70088e-05
3.00281e-05
3.75539e-05
3.91865e-05
3.77065e-05
3.47983e-05
3.15425e-05
2.85385e-05
2.60449e-05
2.40764e-05
2.25104e-05
2.11879e-05
1.99505e-05
1.86482e-05
1.71489e-05
1.53633e-05
1.33006e-05
1.10982e-05
9.01321e-06
7.33315e-06
6.10621e-06
5.30078e-06
4.87082e-06
4.77382e-06
5.00874e-06
5.70137e-06
7.29225e-06
1.06376e-05
1.3271e-05
5.9566e-06
2.18004e-06
2.00057e-07
1.44224e-07
2.92549e-06
7.52754e-06
1.72078e-05
3.02926e-05
3.76847e-05
3.91898e-05
3.7632e-05
3.47035e-05
3.1477e-05
2.85324e-05
2.61109e-05
2.42235e-05
2.27436e-05
2.15088e-05
2.03569e-05
1.91322e-05
1.76927e-05
1.5936e-05
1.38588e-05
1.15943e-05
9.40838e-06
7.61112e-06
6.27845e-06
5.38849e-06
4.90038e-06
4.77387e-06
5.00806e-06
5.73064e-06
7.39401e-06
1.08591e-05
1.34419e-05
5.99936e-06
2.19796e-06
2.01954e-07
1.48363e-07
2.94214e-06
7.59027e-06
1.74013e-05
3.05465e-05
3.78008e-05
3.91766e-05
3.75391e-05
3.45868e-05
3.1387e-05
2.85037e-05
2.6159e-05
2.43562e-05
2.29643e-05
2.1819e-05
2.0755e-05
1.96112e-05
1.82364e-05
1.6515e-05
1.44309e-05
1.21118e-05
9.83139e-06
7.92026e-06
6.48231e-06
5.50578e-06
4.95549e-06
4.79398e-06
5.02141e-06
5.76825e-06
7.49918e-06
1.10798e-05
1.36121e-05
6.04362e-06
2.21568e-06
2.03712e-07
1.52455e-07
2.95806e-06
7.65215e-06
1.75954e-05
3.07945e-05
3.79053e-05
3.91498e-05
3.74319e-05
3.44578e-05
3.12869e-05
2.84634e-05
2.61904e-05
2.44708e-05
2.317e-05
2.21171e-05
2.11434e-05
2.00834e-05
1.87774e-05
1.70971e-05
1.50131e-05
1.26467e-05
1.02783e-05
8.2574e-06
6.71536e-06
5.65103e-06
5.03528e-06
4.83394e-06
5.04896e-06
5.81444e-06
7.60775e-06
1.12994e-05
1.37823e-05
6.08946e-06
2.23323e-06
2.05343e-07
1.56464e-07
2.97352e-06
7.71262e-06
1.77849e-05
3.10297e-05
3.79938e-05
3.91054e-05
3.73048e-05
3.43063e-05
3.11634e-05
2.84022e-05
2.62069e-05
2.45726e-05
2.33611e-05
2.24017e-05
2.15206e-05
2.05465e-05
1.93126e-05
1.76784e-05
1.56011e-05
1.31947e-05
1.07452e-05
8.61962e-06
6.97567e-06
5.82314e-06
5.13943e-06
4.89415e-06
5.09174e-06
5.87063e-06
7.72135e-06
1.15194e-05
1.39535e-05
6.13688e-06
2.25066e-06
2.06862e-07
1.60401e-07
2.98835e-06
7.77177e-06
1.79722e-05
3.1256e-05
3.80682e-05
3.90448e-05
3.71608e-05
3.41388e-05
3.10248e-05
2.83258e-05
2.62083e-05
2.46607e-05
2.35396e-05
2.26709e-05
2.18832e-05
2.09982e-05
1.98394e-05
1.82556e-05
1.61911e-05
1.3752e-05
1.12285e-05
9.00425e-06
7.26115e-06
6.02053e-06
5.26691e-06
4.97414e-06
5.14968e-06
5.93695e-06
7.84001e-06
1.17397e-05
1.41265e-05
6.1861e-06
2.26801e-06
2.08287e-07
1.6424e-07
3.0025e-06
7.829e-06
1.81543e-05
3.14694e-05
3.81269e-05
3.89668e-05
3.69974e-05
3.3951e-05
3.08659e-05
2.82302e-05
2.61926e-05
2.47334e-05
2.37045e-05
2.29289e-05
2.22316e-05
2.14359e-05
2.03553e-05
1.88253e-05
1.67787e-05
1.43139e-05
1.17244e-05
9.40836e-06
7.56984e-06
6.24203e-06
5.41723e-06
5.07407e-06
5.22356e-06
6.01468e-06
7.96531e-06
1.19618e-05
1.43022e-05
6.23727e-06
2.28536e-06
2.09636e-07
1.68003e-07
3.01615e-06
7.88505e-06
1.83335e-05
3.16729e-05
3.81709e-05
3.88718e-05
3.68159e-05
3.37452e-05
3.06901e-05
2.81187e-05
2.6162e-05
2.47918e-05
2.38555e-05
2.31734e-05
2.25682e-05
2.18588e-05
2.0857e-05
1.93846e-05
1.73608e-05
1.4877e-05
1.22293e-05
9.82918e-06
7.89966e-06
6.48614e-06
5.58936e-06
5.19336e-06
5.3132e-06
6.1039e-06
8.09741e-06
1.21858e-05
1.44818e-05
6.29076e-06
2.3028e-06
2.10928e-07
1.71657e-07
3.02905e-06
7.9389e-06
1.85071e-05
3.18633e-05
3.8199e-05
3.8759e-05
3.66152e-05
3.35202e-05
3.04957e-05
2.79898e-05
2.61153e-05
2.48351e-05
2.39916e-05
2.34031e-05
2.28902e-05
2.2268e-05
2.13416e-05
1.99276e-05
1.79315e-05
1.54358e-05
1.27386e-05
1.02631e-05
8.24814e-06
6.75136e-06
5.78264e-06
5.33207e-06
5.41931e-06
6.20587e-06
8.23797e-06
1.24134e-05
1.46663e-05
6.3467e-06
2.3204e-06
2.12185e-07
1.75216e-07
3.04132e-06
7.99106e-06
1.86768e-05
3.20431e-05
3.82121e-05
3.86287e-05
3.63956e-05
3.32769e-05
3.02846e-05
2.78454e-05
2.60545e-05
2.48648e-05
2.41143e-05
2.3619e-05
2.31978e-05
2.26626e-05
2.18122e-05
2.04546e-05
1.8488e-05
1.59863e-05
1.32483e-05
1.07067e-05
8.61261e-06
7.03574e-06
5.99575e-06
5.48943e-06
5.54163e-06
6.32079e-06
8.38757e-06
1.26455e-05
1.48573e-05
6.40563e-06
2.33831e-06
2.13427e-07
1.78666e-07
3.05287e-06
8.04118e-06
1.88414e-05
3.22104e-05
3.8209e-05
3.84798e-05
3.61566e-05
3.3015e-05
3.00564e-05
2.76852e-05
2.5979e-05
2.48804e-05
2.42227e-05
2.38199e-05
2.34892e-05
2.30396e-05
2.22644e-05
2.09635e-05
1.90269e-05
1.65238e-05
1.37532e-05
1.11556e-05
8.98973e-06
7.3371e-06
6.22749e-06
5.66511e-06
5.68057e-06
6.44975e-06
8.54792e-06
1.28839e-05
1.50548e-05
6.4674e-06
2.35652e-06
2.14672e-07
1.82019e-07
3.06381e-06
8.08962e-06
1.90021e-05
3.23666e-05
3.81905e-05
3.83129e-05
3.58989e-05
3.27359e-05
2.98129e-05
2.75113e-05
2.5891e-05
2.48839e-05
2.43185e-05
2.40073e-05
2.37658e-05
2.33998e-05
2.26978e-05
2.14524e-05
1.95466e-05
1.7046e-05
1.42503e-05
1.16062e-05
9.3763e-06
7.65292e-06
6.47618e-06
5.8582e-06
5.83595e-06
6.59328e-06
8.72023e-06
1.31302e-05
1.52604e-05
6.53262e-06
2.37522e-06
2.15939e-07
1.8527e-07
3.07406e-06
8.13619e-06
1.91582e-05
3.25107e-05
3.81552e-05
3.81267e-05
3.56216e-05
3.24389e-05
2.95538e-05
2.73235e-05
2.57904e-05
2.4875e-05
2.44015e-05
2.41807e-05
2.40265e-05
2.37418e-05
2.31101e-05
2.1918e-05
2.00427e-05
1.75474e-05
1.47349e-05
1.20545e-05
9.76872e-06
7.98041e-06
6.7399e-06
6.06764e-06
6.00753e-06
6.75199e-06
8.9061e-06
1.33865e-05
1.54735e-05
6.60086e-06
2.39436e-06
2.17235e-07
1.88433e-07
3.08376e-06
8.18134e-06
1.93109e-05
3.26438e-05
3.81039e-05
3.79219e-05
3.53259e-05
3.2126e-05
2.92816e-05
2.71245e-05
2.56796e-05
2.48561e-05
2.44738e-05
2.43421e-05
2.42731e-05
2.40669e-05
2.35022e-05
2.23604e-05
2.05141e-05
1.80259e-05
1.52016e-05
1.2495e-05
1.01629e-05
8.31662e-06
7.01676e-06
6.29252e-06
6.19533e-06
6.92679e-06
9.10733e-06
1.36551e-05
1.56951e-05
6.67249e-06
2.41408e-06
2.18572e-07
1.91503e-07
3.09279e-06
8.22483e-06
1.94598e-05
3.27647e-05
3.80351e-05
3.76971e-05
3.50107e-05
3.17966e-05
2.8996e-05
2.69141e-05
2.55587e-05
2.48273e-05
2.45355e-05
2.44911e-05
2.4505e-05
2.4374e-05
2.38726e-05
2.27771e-05
2.09578e-05
1.84785e-05
1.56486e-05
1.29246e-05
1.05548e-05
8.65796e-06
7.30403e-06
6.53102e-06
6.39837e-06
7.11774e-06
9.32535e-06
1.39383e-05
1.59241e-05
6.74706e-06
2.43433e-06
2.19953e-07
1.94496e-07
3.10132e-06
8.2672e-06
1.9606e-05
3.28747e-05
3.79497e-05
3.74532e-05
3.46776e-05
3.1453e-05
2.86995e-05
2.66951e-05
2.54304e-05
2.47911e-05
2.45888e-05
2.46302e-05
2.47242e-05
2.46649e-05
2.42221e-05
2.31684e-05
2.13732e-05
1.89031e-05
1.6073e-05
1.33398e-05
1.09411e-05
9.00126e-06
7.59921e-06
6.78166e-06
6.61663e-06
7.32662e-06
9.56208e-06
1.42382e-05
1.61608e-05
6.8246e-06
2.45518e-06
2.21381e-07
1.97407e-07
3.10924e-06
8.30816e-06
1.97489e-05
3.29724e-05
3.78459e-05
3.71887e-05
3.43256e-05
3.10945e-05
2.8392e-05
2.64674e-05
2.52947e-05
2.47477e-05
2.46341e-05
2.47594e-05
2.49309e-05
2.49394e-05
2.45507e-05
2.3534e-05
2.17594e-05
1.92988e-05
1.64729e-05
1.37379e-05
1.13182e-05
9.34318e-06
7.89956e-06
7.04249e-06
6.8489e-06
7.55279e-06
9.81877e-06
1.45567e-05
1.64041e-05
6.90468e-06
2.4766e-06
2.22855e-07
2.00249e-07
3.1167e-06
8.34826e-06
1.98898e-05
3.30589e-05
3.77247e-05
3.69048e-05
3.39566e-05
3.07236e-05
2.80762e-05
2.6234e-05
2.51545e-05
2.46998e-05
2.46739e-05
2.48812e-05
2.51271e-05
2.51993e-05
2.48595e-05
2.38746e-05
2.21169e-05
1.96654e-05
1.68479e-05
1.41171e-05
1.16837e-05
9.68105e-06
8.2028e-06
7.31194e-06
7.09433e-06
7.79617e-06
1.00966e-05
1.48952e-05
1.66533e-05
6.98714e-06
2.49858e-06
2.24372e-07
2.03014e-07
3.12358e-06
8.38712e-06
2.00276e-05
3.31326e-05
3.75844e-05
3.65999e-05
3.35694e-05
3.03398e-05
2.77519e-05
2.59947e-05
2.501e-05
2.46478e-05
2.47088e-05
2.49961e-05
2.53135e-05
2.54452e-05
2.51493e-05
2.41912e-05
2.2447e-05
2.00048e-05
1.72002e-05
1.44779e-05
1.20367e-05
1.0013e-05
8.50647e-06
7.58749e-06
7.35089e-06
8.05571e-06
1.03956e-05
1.52544e-05
1.6907e-05
7.0716e-06
2.52112e-06
2.25931e-07
2.05714e-07
3.13003e-06
8.42525e-06
2.01636e-05
3.31947e-05
3.7426e-05
3.62754e-05
3.3166e-05
2.99455e-05
2.74217e-05
2.57524e-05
2.48638e-05
2.45944e-05
2.47412e-05
2.51065e-05
2.54921e-05
2.56788e-05
2.54214e-05
2.44847e-05
2.27506e-05
2.03182e-05
1.75308e-05
1.48201e-05
1.2376e-05
1.03374e-05
8.80903e-06
7.86798e-06
7.61785e-06
8.33118e-06
1.07161e-05
1.56342e-05
1.71642e-05
7.15777e-06
2.54418e-06
2.27528e-07
2.08335e-07
3.13589e-06
8.46216e-06
2.02966e-05
3.32434e-05
3.72477e-05
3.59294e-05
3.2745e-05
2.95396e-05
2.70849e-05
2.55065e-05
2.47159e-05
2.45397e-05
2.47717e-05
2.52133e-05
2.56641e-05
2.59016e-05
2.56775e-05
2.47572e-05
2.30301e-05
2.06081e-05
1.78421e-05
1.51453e-05
1.27018e-05
1.06533e-05
9.10877e-06
8.15114e-06
7.89317e-06
8.62126e-06
1.10575e-05
1.60345e-05
1.74236e-05
7.24519e-06
2.56769e-06
2.29158e-07
2.10887e-07
3.14132e-06
8.49834e-06
2.04276e-05
3.32797e-05
3.70505e-05
3.55634e-05
3.23086e-05
2.91248e-05
2.67441e-05
2.52596e-05
2.45685e-05
2.44859e-05
2.48024e-05
2.53182e-05
2.58311e-05
2.61149e-05
2.59186e-05
2.50094e-05
2.32862e-05
2.08746e-05
1.81335e-05
1.54532e-05
1.30141e-05
1.09605e-05
9.40514e-06
8.43644e-06
8.17623e-06
8.92513e-06
1.14187e-05
1.64533e-05
1.76842e-05
7.3336e-06
2.59163e-06
2.30822e-07
2.13356e-07
3.14615e-06
8.53323e-06
2.05553e-05
3.33019e-05
3.68324e-05
3.51755e-05
3.1855e-05
2.86996e-05
2.63984e-05
2.50111e-05
2.44215e-05
2.44332e-05
2.48338e-05
2.54225e-05
2.59946e-05
2.63207e-05
2.61472e-05
2.52442e-05
2.35216e-05
2.11203e-05
1.84063e-05
1.57445e-05
1.33129e-05
1.12583e-05
9.69698e-06
8.7225e-06
8.46545e-06
9.24184e-06
1.17994e-05
1.68904e-05
1.79446e-05
7.42243e-06
2.61588e-06
2.3251e-07
2.1575e-07
3.15054e-06
8.56729e-06
2.06807e-05
3.3311e-05
3.65946e-05
3.47671e-05
3.13865e-05
2.82665e-05
2.60499e-05
2.47631e-05
2.42767e-05
2.43833e-05
2.48674e-05
2.55272e-05
2.61556e-05
2.65197e-05
2.63641e-05
2.54627e-05
2.37378e-05
2.13466e-05
1.86618e-05
1.60206e-05
1.35993e-05
1.15473e-05
9.98421e-06
9.00876e-06
8.76037e-06
9.57031e-06
1.21977e-05
1.73424e-05
1.82045e-05
7.51174e-06
2.64045e-06
2.3423e-07
2.18055e-07
3.15431e-06
8.59994e-06
2.08023e-05
3.3305e-05
3.63349e-05
3.43363e-05
3.09014e-05
2.78242e-05
2.56979e-05
2.45151e-05
2.41341e-05
2.43363e-05
2.49036e-05
2.56332e-05
2.63155e-05
2.67139e-05
2.65715e-05
2.56673e-05
2.39373e-05
2.1556e-05
1.89016e-05
1.62826e-05
1.38737e-05
1.18274e-05
1.02665e-05
9.29457e-06
9.05986e-06
9.90922e-06
1.2613e-05
1.78089e-05
1.84622e-05
7.60071e-06
2.66519e-06
2.3597e-07
2.20281e-07
3.15761e-06
8.63159e-06
2.09211e-05
3.3285e-05
3.60543e-05
3.38845e-05
3.04017e-05
2.73748e-05
2.53444e-05
2.42693e-05
2.39953e-05
2.42934e-05
2.49432e-05
2.5741e-05
2.64744e-05
2.69035e-05
2.67701e-05
2.58594e-05
2.41224e-05
2.17512e-05
1.91284e-05
1.65328e-05
1.41382e-05
1.21001e-05
1.05444e-05
9.57968e-06
9.36352e-06
1.02582e-05
1.30424e-05
1.82855e-05
1.87178e-05
7.68971e-06
2.69013e-06
2.37745e-07
2.22416e-07
3.16027e-06
8.66168e-06
2.10356e-05
3.32489e-05
3.57507e-05
3.34099e-05
2.98861e-05
2.6917e-05
2.49884e-05
2.40263e-05
2.38607e-05
2.42544e-05
2.49862e-05
2.58511e-05
2.66334e-05
2.70897e-05
2.69612e-05
2.60404e-05
2.42949e-05
2.19344e-05
1.93435e-05
1.67723e-05
1.43937e-05
1.23658e-05
1.08182e-05
9.86431e-06
9.67115e-06
1.06168e-05
1.34861e-05
1.87714e-05
1.89697e-05
7.77801e-06
2.71513e-06
2.3954e-07
2.24471e-07
3.16241e-06
8.69055e-06
2.11467e-05
3.31976e-05
3.54251e-05
3.2914e-05
2.93564e-05
2.64524e-05
2.46305e-05
2.37869e-05
2.37301e-05
2.42192e-05
2.50326e-05
2.59636e-05
2.67928e-05
2.7273e-05
2.71458e-05
2.62123e-05
2.44578e-05
2.21094e-05
1.95499e-05
1.7003e-05
1.46413e-05
1.26256e-05
1.10883e-05
1.01482e-05
9.98193e-06
1.09837e-05
1.39421e-05
1.92634e-05
1.92173e-05
7.86503e-06
2.74007e-06
2.41347e-07
2.26433e-07
3.16387e-06
8.71761e-06
2.12528e-05
3.31292e-05
3.50756e-05
3.23956e-05
2.88121e-05
2.59806e-05
2.42694e-05
2.35461e-05
2.36002e-05
2.41864e-05
2.50825e-05
2.60792e-05
2.69535e-05
2.74546e-05
2.73252e-05
2.63768e-05
2.46137e-05
2.22798e-05
1.97498e-05
1.72262e-05
1.4882e-05
1.28799e-05
1.13552e-05
1.04318e-05
1.02962e-05
1.13587e-05
1.441e-05
1.97615e-05
1.94603e-05
7.95091e-06
2.76492e-06
2.43179e-07
2.28317e-07
3.16478e-06
8.74326e-06
2.13548e-05
3.30446e-05
3.4703e-05
3.18562e-05
2.82553e-05
2.55036e-05
2.39078e-05
2.33075e-05
2.3474e-05
2.41581e-05
2.51367e-05
2.61984e-05
2.71157e-05
2.76346e-05
2.74999e-05
2.65351e-05
2.47648e-05
2.24487e-05
1.99452e-05
1.7443e-05
1.5116e-05
1.31287e-05
1.16188e-05
1.07149e-05
1.06137e-05
1.17418e-05
1.48889e-05
2.02637e-05
1.96973e-05
8.03511e-06
2.78958e-06
2.45027e-07
2.30112e-07
3.16498e-06
8.76691e-06
2.14513e-05
3.29418e-05
3.43057e-05
3.12949e-05
2.76857e-05
2.50208e-05
2.35439e-05
2.30686e-05
2.33489e-05
2.41322e-05
2.51944e-05
2.6321e-05
2.728e-05
2.7814e-05
2.76712e-05
2.66887e-05
2.49127e-05
2.26171e-05
2.01374e-05
1.76547e-05
1.53443e-05
1.33725e-05
1.1879e-05
1.09972e-05
1.09339e-05
1.2132e-05
1.53776e-05
2.07678e-05
1.99279e-05
8.11744e-06
2.81398e-06
2.46883e-07
2.3183e-07
3.16461e-06
8.78894e-06
2.15429e-05
3.28216e-05
3.38849e-05
3.0714e-05
2.71058e-05
2.45347e-05
2.31802e-05
2.28316e-05
2.32267e-05
2.411e-05
2.52562e-05
2.64474e-05
2.74465e-05
2.79932e-05
2.78395e-05
2.6838e-05
2.50572e-05
2.27839e-05
2.03264e-05
1.78616e-05
1.55676e-05
1.36122e-05
1.2137e-05
1.128e-05
1.12581e-05
1.25303e-05
1.58758e-05
2.12729e-05
2.01522e-05
8.19808e-06
2.83839e-06
2.48747e-07
2.33465e-07
3.16352e-06
8.8088e-06
2.16282e-05
3.26822e-05
3.34392e-05
3.01133e-05
2.65161e-05
2.40453e-05
2.28158e-05
2.2595e-05
2.31058e-05
2.409e-05
2.53212e-05
2.65771e-05
2.76156e-05
2.81731e-05
2.80065e-05
2.69848e-05
2.51995e-05
2.2949e-05
2.05122e-05
1.80644e-05
1.57865e-05
1.38479e-05
1.2392e-05
1.15613e-05
1.15836e-05
1.29346e-05
1.63818e-05
2.17769e-05
2.03696e-05
8.27694e-06
2.86284e-06
2.50619e-07
2.35026e-07
3.16181e-06
8.82673e-06
2.17078e-05
3.25245e-05
3.29701e-05
2.94955e-05
2.59194e-05
2.3555e-05
2.24528e-05
2.23602e-05
2.2987e-05
2.40726e-05
2.5389e-05
2.67098e-05
2.77869e-05
2.83536e-05
2.81724e-05
2.71298e-05
2.53405e-05
2.31125e-05
2.06951e-05
1.82633e-05
1.60013e-05
1.40802e-05
1.26451e-05
1.18437e-05
1.19146e-05
1.33458e-05
1.68947e-05
2.22783e-05
2.058e-05
8.3539e-06
2.88706e-06
2.52492e-07
2.36508e-07
3.15936e-06
8.84224e-06
2.17802e-05
3.23469e-05
3.24768e-05
2.88607e-05
2.53163e-05
2.30641e-05
2.2091e-05
2.2127e-05
2.28695e-05
2.40566e-05
2.54588e-05
2.68448e-05
2.79603e-05
2.85356e-05
2.8339e-05
2.72757e-05
2.54834e-05
2.32766e-05
2.08765e-05
1.84594e-05
1.62129e-05
1.43098e-05
1.28972e-05
1.21281e-05
1.22515e-05
1.37641e-05
1.74134e-05
2.27754e-05
2.07833e-05
8.42882e-06
2.91095e-06
2.54364e-07
2.37918e-07
3.15622e-06
8.85547e-06
2.18459e-05
3.21502e-05
3.19607e-05
2.82114e-05
2.47093e-05
2.25748e-05
2.17326e-05
2.18967e-05
2.27541e-05
2.40421e-05
2.55299e-05
2.69811e-05
2.81347e-05
2.87181e-05
2.85065e-05
2.74241e-05
2.56311e-05
2.34429e-05
2.10576e-05
1.86538e-05
1.64224e-05
1.45377e-05
1.31488e-05
1.24144e-05
1.25935e-05
1.41896e-05
1.79376e-05
2.32676e-05
2.09798e-05
8.50173e-06
2.93448e-06
2.56232e-07