/*--------------------------------*- C++ -*----------------------------------*\
| =========                 |                                                 |
| \\      /  F ield         | OpenFOAM: The Open Source CFD Toolbox           |
|  \\    /   O peration     | Version:  v2006                                 |
|   \\  /    A nd           | Website:  www.openfoam.com                      |
|    \\/     M anipulation  |                                                 |
\*---------------------------------------------------------------------------*/
FoamFile
{
    version     2.0;
    format      ascii;
    class       volScalarField;
    location    "70";
    object      nut;
}
// * * * * * * * * * * * * * * * * * * * * * * * * * * * * * * * * * * * * * //

dimensions      [0 2 -1 0 0 0 0];


internalField   nonuniform List<scalar> 
78750
(
1.1888e-09
2.25407e-07
4.3006e-07
6.40366e-07
8.50781e-07
1.05684e-06
1.25504e-06
1.44266e-06
1.61768e-06
1.77863e-06
1.92456e-06
2.05487e-06
2.16927e-06
2.26681e-06
2.34746e-06
2.41127e-06
2.45831e-06
2.48859e-06
2.50205e-06
2.49853e-06
2.47785e-06
2.43934e-06
2.38194e-06
2.3049e-06
2.20722e-06
2.08793e-06
1.94639e-06
1.78178e-06
1.59457e-06
1.38571e-06
1.15542e-06
9.04055e-07
6.38419e-07
3.75958e-07
5.20586e-09
3.10952e-09
2.06856e-06
4.44001e-06
6.56038e-06
8.2202e-06
9.57305e-06
1.07625e-05
1.18669e-05
1.29333e-05
1.39944e-05
1.50726e-05
1.62173e-05
1.7451e-05
1.77997e-05
1.79735e-05
1.80522e-05
1.80446e-05
1.79587e-05
1.78011e-05
1.75776e-05
1.72923e-05
1.69466e-05
1.65391e-05
1.60663e-05
1.55211e-05
1.48939e-05
1.41768e-05
1.25219e-05
1.06296e-05
8.65936e-06
6.55889e-06
4.65387e-06
3.53928e-06
2.06135e-06
1.87097e-08
5.47537e-09
1.97514e-06
4.38435e-06
7.27534e-06
1.03143e-05
1.31049e-05
1.54366e-05
1.73056e-05
1.8788e-05
1.99681e-05
2.09224e-05
2.15423e-05
2.17044e-05
2.17274e-05
2.16278e-05
2.14213e-05
2.11229e-05
2.07473e-05
2.03096e-05
1.98247e-05
1.93069e-05
1.87698e-05
1.79031e-05
1.68002e-05
1.57079e-05
1.4647e-05
1.35697e-05
1.2378e-05
1.09335e-05
9.13241e-06
7.16193e-06
5.73025e-06
5.52985e-06
2.01067e-06
3.18773e-08
8.73802e-09
1.90964e-06
4.41804e-06
7.97361e-06
1.23402e-05
1.65198e-05
1.97179e-05
2.1912e-05
2.33341e-05
2.3924e-05
2.42535e-05
2.43856e-05
2.40724e-05
2.34399e-05
2.26049e-05
2.16319e-05
2.05732e-05
1.94698e-05
1.83533e-05
1.72503e-05
1.61867e-05
1.51915e-05
1.42925e-05
1.351e-05
1.28498e-05
1.22824e-05
1.17165e-05
1.09863e-05
9.90219e-06
8.43636e-06
6.98192e-06
6.36435e-06
6.97194e-06
1.81699e-06
4.16547e-08
1.24478e-08
1.88551e-06
4.52885e-06
8.68907e-06
1.4214e-05
1.9462e-05
2.31616e-05
2.49342e-05
2.5638e-05
2.60688e-05
2.62608e-05
2.53211e-05
2.39792e-05
2.24643e-05
2.09061e-05
1.93918e-05
1.7968e-05
1.66485e-05
1.54287e-05
1.43003e-05
1.32648e-05
1.23398e-05
1.1551e-05
1.09199e-05
1.04522e-05
1.01157e-05
9.80956e-06
9.35557e-06
8.58424e-06
7.54754e-06
6.70167e-06
6.86595e-06
7.26797e-06
1.68467e-06
4.84184e-08
1.61877e-08
1.91512e-06
4.71984e-06
9.44073e-06
1.60587e-05
2.22885e-05
2.61207e-05
2.71063e-05
2.77584e-05
2.81215e-05
2.70394e-05
2.51856e-05
2.31196e-05
2.10747e-05
1.91899e-05
1.7525e-05
1.60822e-05
1.4832e-05
1.37334e-05
1.275e-05
1.18632e-05
1.10753e-05
1.03935e-05
9.82264e-06
9.36396e-06
8.99367e-06
8.63353e-06
8.15485e-06
7.472e-06
6.71115e-06
6.32338e-06
7.10599e-06
7.00176e-06
1.6117e-06
5.34498e-08
1.97053e-08
1.94134e-06
4.84708e-06
9.92251e-06
1.72288e-05
2.39743e-05
2.79192e-05
2.8867e-05
2.94687e-05
2.86674e-05
2.66225e-05
2.41637e-05
2.16675e-05
1.93711e-05
1.73824e-05
1.5713e-05
1.43233e-05
1.31575e-05
1.21636e-05
1.13048e-05
1.05686e-05
9.9563e-06
9.44958e-06
9.01827e-06
8.6346e-06
8.26372e-06
7.84805e-06
7.322e-06
6.68803e-06
6.12138e-06
6.05084e-06
7.24957e-06
6.53832e-06
1.56252e-06
5.79896e-08
2.28284e-08
1.97032e-06
4.93601e-06
1.02217e-05
1.80137e-05
2.52086e-05
2.93702e-05
3.05782e-05
3.0517e-05
2.87708e-05
2.6218e-05
2.33915e-05
2.0683e-05
1.83063e-05
1.63199e-05
1.4695e-05
1.33708e-05
1.22823e-05
1.13732e-05
1.06071e-05
9.97316e-06
9.46533e-06
9.045e-06
8.6614e-06
8.26927e-06
7.83021e-06
7.3115e-06
6.70552e-06
6.07899e-06
5.62792e-06
5.75361e-06
7.21342e-06
6.20855e-06
1.53949e-06
6.27778e-08
2.57064e-08
1.98924e-06
4.97793e-06
1.03665e-05
1.84227e-05
2.58295e-05
2.99449e-05
3.12596e-05
3.05475e-05
2.84485e-05
2.56027e-05
2.25812e-05
1.97784e-05
1.73752e-05
1.53957e-05
1.37901e-05
1.24904e-05
1.14342e-05
1.05725e-05
9.88022e-06
9.35926e-06
8.99477e-06
8.72058e-06
8.45271e-06
8.11247e-06
7.64629e-06
7.04443e-06
6.35805e-06
5.71301e-06
5.32315e-06
5.57236e-06
7.20028e-06
5.92006e-06
1.52524e-06
6.80391e-08
2.85418e-08
2.00728e-06
5.00598e-06
1.04496e-05
1.86856e-05
2.6281e-05
3.04012e-05
3.15681e-05
3.06309e-05
2.82992e-05
2.52726e-05
2.2149e-05
1.93092e-05
1.69043e-05
1.4934e-05
1.33361e-05
1.20386e-05
1.09807e-05
1.0119e-05
9.43681e-06
8.94744e-06
8.63917e-06
8.43775e-06
8.24211e-06
7.94696e-06
7.47736e-06
6.83009e-06
6.09431e-06
5.43706e-06
5.08587e-06
5.41684e-06
7.16563e-06
5.7171e-06
1.52076e-06
7.36273e-08
3.12867e-08
2.01945e-06
5.01933e-06
1.04957e-05
1.88483e-05
2.65394e-05
3.061e-05
3.16261e-05
3.04979e-05
2.799e-05
2.48444e-05
2.16676e-05
1.88208e-05
1.64283e-05
1.44723e-05
1.28831e-05
1.15882e-05
1.05299e-05
9.67089e-06
9.00438e-06
8.55414e-06
8.30624e-06
8.17997e-06
8.06071e-06
7.82123e-06
7.36767e-06
6.69958e-06
5.93485e-06
5.27227e-06
4.95201e-06
5.35188e-06
7.20443e-06
5.53445e-06
1.51962e-06
7.93496e-08
3.42778e-08
2.03454e-06
5.04251e-06
1.05644e-05
1.90333e-05
2.67968e-05
3.08113e-05
3.16988e-05
3.04244e-05
2.77988e-05
2.45886e-05
2.13959e-05
1.85594e-05
1.61818e-05
1.42332e-05
1.26403e-05
1.13314e-05
1.02517e-05
9.36858e-06
8.68238e-06
8.22692e-06
7.99216e-06
7.89659e-06
7.82144e-06
7.62718e-06
7.20447e-06
6.54779e-06
5.78732e-06
5.13973e-06
4.85503e-06
5.31985e-06
7.27101e-06
5.39274e-06
1.523e-06
8.50559e-08
3.71916e-08
2.04621e-06
5.06109e-06
1.06251e-05
1.91905e-05
2.69908e-05
3.09254e-05
3.1675e-05
3.02557e-05
2.75222e-05
2.42628e-05
2.10706e-05
1.82586e-05
1.59079e-05
1.39775e-05
1.23911e-05
1.10783e-05
9.98727e-06
9.08939e-06
8.39154e-06
7.93608e-06
7.71413e-06
7.64248e-06
7.59978e-06
7.44108e-06
7.04881e-06
6.41485e-06
5.67545e-06
5.05617e-06
4.81447e-06
5.35024e-06
7.39764e-06
5.26313e-06
1.52831e-06
9.06272e-08
4.04302e-08
2.06213e-06
5.09439e-06
1.07255e-05
1.94081e-05
2.72199e-05
3.10476e-05
3.16605e-05
3.01227e-05
2.73205e-05
2.40477e-05
2.08776e-05
1.80973e-05
1.57706e-05
1.38499e-05
1.22591e-05
1.09303e-05
9.81525e-06
8.88889e-06
8.16249e-06
7.68476e-06
7.45173e-06
7.38067e-06
7.35045e-06
7.21507e-06
6.85469e-06
6.2576e-06
5.55823e-06
4.98239e-06
4.79202e-06
5.40328e-06
7.54505e-06
5.16059e-06
1.53644e-06
9.60516e-08
4.35576e-08
2.07565e-06
5.12485e-06
1.08198e-05
1.96048e-05
2.74116e-05
3.11277e-05
3.16026e-05
2.99468e-05
2.70795e-05
2.37999e-05
2.06601e-05
1.79201e-05
1.5626e-05
1.37234e-05
1.21358e-05
1.0798e-05
9.6647e-06
8.71484e-06
7.96426e-06
7.46763e-06
7.22389e-06
7.14989e-06
7.12511e-06
7.00456e-06
6.66984e-06
6.11042e-06
5.45804e-06
4.93391e-06
4.80221e-06
5.4968e-06
7.72663e-06
5.0694e-06
1.54595e-06
1.01285e-07
4.69852e-08
2.09289e-06
5.1672e-06
1.09463e-05
1.9852e-05
2.76331e-05
3.12165e-05
3.15568e-05
2.98065e-05
2.6905e-05
2.36431e-05
2.05456e-05
1.78474e-05
1.5581e-05
1.36888e-05
1.20958e-05
1.07398e-05
9.57926e-06
8.59635e-06
7.8101e-06
7.27939e-06
7.0101e-06
6.91958e-06
6.88907e-06
6.77695e-06
6.468e-06
5.95146e-06
5.35364e-06
4.88836e-06
4.82052e-06
5.60228e-06
7.91388e-06
4.99867e-06
1.5573e-06
1.06368e-07
5.02865e-08
2.10832e-06
5.20748e-06
1.10676e-05
2.0081e-05
2.78271e-05
3.12815e-05
3.14922e-05
2.9651e-05
2.67182e-05
2.34772e-05
2.04263e-05
1.77752e-05
1.55429e-05
1.36676e-05
1.20748e-05
1.0705e-05
9.5199e-06
8.50592e-06
7.68522e-06
7.12087e-06
6.82508e-06
6.71537e-06
6.67466e-06
6.56569e-06
6.27861e-06
5.80412e-06
5.26251e-06
4.85895e-06
4.85911e-06
5.73363e-06
8.11594e-06
4.9387e-06
1.5697e-06
1.11279e-07
5.38421e-08
2.12657e-06
5.25634e-06
1.12122e-05
2.03461e-05
2.80432e-05
3.13584e-05
3.14478e-05
2.95366e-05
2.65949e-05
2.33893e-05
2.03897e-05
1.77841e-05
1.55813e-05
1.37174e-05
1.2119e-05
1.07289e-05
9.51249e-06
8.4598e-06
7.5954e-06
6.98496e-06
6.65114e-06
6.51279e-06
6.45525e-06
6.34638e-06
6.08167e-06
5.65197e-06
5.16973e-06
4.83055e-06
4.90097e-06
5.87014e-06
8.31414e-06
4.89349e-06
1.58313e-06
1.16051e-07
5.72794e-08
2.14347e-06
5.30397e-06
1.13539e-05
2.05987e-05
2.82413e-05
3.14235e-05
3.13978e-05
2.94201e-05
2.64706e-05
2.3301e-05
2.03547e-05
1.77987e-05
1.56315e-05
1.37855e-05
1.21873e-05
1.07813e-05
9.53595e-06
8.4447e-06
7.53566e-06
6.877e-06
6.50203e-06
6.33138e-06
6.25309e-06
6.14072e-06
5.89579e-06
5.50953e-06
5.08644e-06
4.81246e-06
4.95543e-06
6.02272e-06
8.5153e-06
4.85663e-06
1.59715e-06
1.20661e-07
6.09303e-08
2.16247e-06
5.35802e-06
1.15136e-05
2.0879e-05
2.84585e-05
3.15048e-05
3.13738e-05
2.93457e-05
2.6402e-05
2.32747e-05
2.03818e-05
1.78729e-05
1.5738e-05
1.39072e-05
1.23065e-05
1.08817e-05
9.6034e-06
8.46809e-06
7.50692e-06
6.79013e-06
6.36461e-06
6.15427e-06
6.05038e-06
5.93238e-06
5.70721e-06
5.36522e-06
5.00207e-06
4.79416e-06
5.01104e-06
6.17791e-06
8.71002e-06
4.83052e-06
1.61175e-06
1.25123e-07
6.44787e-08
2.18036e-06
5.41127e-06
1.16726e-05
2.11528e-05
2.86668e-05
3.15837e-05
3.13528e-05
2.92756e-05
2.63361e-05
2.32496e-05
2.04111e-05
1.7953e-05
1.58568e-05
1.40483e-05
1.2452e-05
1.10136e-05
9.70494e-06
8.52539e-06
7.50964e-06
6.73121e-06
6.25041e-06
5.99582e-06
5.86244e-06
5.73581e-06
5.52816e-06
5.22868e-06
4.92405e-06
4.78159e-06
5.07317e-06
6.34126e-06
8.89938e-06
4.8091e-06
1.62633e-06
1.29409e-07
6.8204e-08
2.19964e-06
5.46923e-06
1.18463e-05
2.14512e-05
2.88958e-05
3.16843e-05
3.1361e-05
2.92436e-05
2.63138e-05
2.32689e-05
2.04828e-05
1.80735e-05
1.60146e-05
1.42282e-05
1.26368e-05
1.11851e-05
9.84532e-06
8.61879e-06
7.54349e-06
6.6961e-06
6.15177e-06
5.84631e-06
5.67897e-06
5.54135e-06
5.35026e-06
5.09269e-06
4.84601e-06
4.76885e-06
5.13615e-06
6.50728e-06
9.08377e-06
4.79631e-06
1.64131e-06
1.33524e-07
7.18407e-08
2.2178e-06
5.52605e-06
1.20197e-05
2.17484e-05
2.91272e-05
3.17944e-05
3.13795e-05
2.92183e-05
2.62936e-05
2.3288e-05
2.05555e-05
1.81991e-05
1.61839e-05
1.44271e-05
1.28481e-05
1.13891e-05
1.00217e-05
8.74876e-06
7.61182e-06
6.69177e-06
6.078e-06
5.71612e-06
5.51034e-06
5.35841e-06
5.18136e-06
4.96347e-06
4.77273e-06
4.75951e-06
5.20215e-06
6.67596e-06
9.25696e-06
4.78497e-06
1.6558e-06
1.37435e-07
7.56155e-08
2.2367e-06
5.58561e-06
1.22033e-05
2.20646e-05
2.93751e-05
3.19229e-05
3.14236e-05
2.92204e-05
2.63014e-05
2.33345e-05
2.06542e-05
1.83495e-05
1.63782e-05
1.46528e-05
1.30892e-05
1.16263e-05
1.02338e-05
8.91494e-06
7.71438e-06
6.71747e-06
6.02666e-06
5.60157e-06
5.35214e-06
5.18227e-06
5.01668e-06
4.83638e-06
4.6999e-06
4.74983e-06
5.26858e-06
6.84726e-06
9.42727e-06
4.77998e-06
1.67037e-06
1.41147e-07
7.93084e-08
2.25454e-06
5.64328e-06
1.2382e-05
2.23661e-05
2.95985e-05
3.20317e-05
3.14565e-05
2.92184e-05
2.63071e-05
2.33796e-05
2.07532e-05
1.85041e-05
1.65821e-05
1.4895e-05
1.33541e-05
1.18942e-05
1.04815e-05
9.1189e-06
7.85414e-06
6.77789e-06
6.00393e-06
5.50996e-06
5.21195e-06
5.01996e-06
4.86217e-06
4.7162e-06
4.63131e-06
4.7427e-06
5.33727e-06
7.0221e-06
9.59426e-06
4.77735e-06
1.6844e-06
1.44641e-07
8.3102e-08
2.2729e-06
5.70313e-06
1.25672e-05
2.26721e-05
2.98227e-05
3.21431e-05
3.14965e-05
2.92356e-05
2.63321e-05
2.34412e-05
2.08666e-05
1.86721e-05
1.68003e-05
1.51543e-05
1.36408e-05
1.21893e-05
1.07617e-05
9.35862e-06
8.03007e-06
6.87212e-06
6.00879e-06
5.43996e-06
5.08816e-06
4.86955e-06
4.71547e-06
4.60006e-06
4.56367e-06
4.73472e-06
5.40568e-06
7.2004e-06
9.75818e-06
4.78226e-06
1.69883e-06
1.47933e-07
8.68192e-08
2.29025e-06
5.76172e-06
1.2751e-05
2.29608e-05
3.00268e-05
3.22378e-05
3.15221e-05
2.92394e-05
2.63484e-05
2.3498e-05
2.09782e-05
1.88417e-05
1.70248e-05
1.54259e-05
1.39466e-05
1.25107e-05
1.10744e-05
9.63488e-06
8.2436e-06
7.00231e-06
6.04504e-06
5.39642e-06
4.98604e-06
4.73613e-06
4.58113e-06
4.49195e-06
4.50071e-06
4.72998e-06
5.47905e-06
7.38888e-06
9.92295e-06
4.79401e-06
1.71387e-06
1.51024e-07
9.05945e-08
2.30737e-06
5.82007e-06
1.29367e-05
2.32494e-05
3.02279e-05
3.23311e-05
3.15497e-05
2.92495e-05
2.63778e-05
2.35653e-05
2.10964e-05
1.90165e-05
1.72554e-05
1.57067e-05
1.42668e-05
1.28532e-05
1.14152e-05
9.94483e-06
8.49342e-06
7.16794e-06
6.11252e-06
5.37915e-06
4.9054e-06
4.61928e-06
4.45824e-06
4.39038e-06
4.44034e-06
4.72561e-06
5.55308e-06
7.5803e-06
1.0086e-05
4.81119e-06
1.72937e-06
1.53921e-07
9.42994e-08
2.32368e-06
5.87644e-06
1.31164e-05
2.35231e-05
3.04119e-05
3.241e-05
3.15644e-05
2.92467e-05
2.63972e-05
2.36241e-05
2.12087e-05
1.91891e-05
1.74882e-05
1.59946e-05
1.46002e-05
1.32157e-05
1.1783e-05
1.02876e-05
8.77928e-06
7.36971e-06
6.21355e-06
5.39149e-06
4.84996e-06
4.52275e-06
4.35036e-06
4.29855e-06
4.38545e-06
4.72433e-06
5.63005e-06
7.77555e-06
1.02472e-05
4.83248e-06
1.74517e-06
1.56629e-07
9.80356e-08
2.33987e-06
5.93289e-06
1.32976e-05
2.3796e-05
3.05918e-05
3.24853e-05
3.15768e-05
2.92429e-05
2.64157e-05
2.36823e-05
2.13205e-05
1.93613e-05
1.77216e-05
1.6286e-05
1.49416e-05
1.35929e-05
1.2173e-05
1.06598e-05
9.09935e-06
7.60711e-06
6.34851e-06
5.43409e-06
4.82039e-06
4.44695e-06
4.25746e-06
4.21596e-06
4.33493e-06
4.72401e-06
5.70638e-06
7.97028e-06
1.04053e-05
4.8574e-06
1.76115e-06
1.59158e-07
1.01708e-07
2.35547e-06
5.98787e-06
1.3474e-05
2.40559e-05
3.07568e-05
3.25474e-05
3.15768e-05
2.92269e-05
2.64228e-05
2.37313e-05
2.14254e-05
1.95289e-05
1.79532e-05
1.65791e-05
1.52896e-05
1.39827e-05
1.25829e-05
1.10589e-05
9.45165e-06
7.87934e-06
6.51829e-06
5.50883e-06
4.8191e-06
4.39458e-06
4.18224e-06
4.14501e-06
4.29072e-06
4.72637e-06
5.78404e-06
8.16459e-06
1.05598e-05
4.8849e-06
1.77716e-06
1.61516e-07
1.0539e-07
2.37111e-06
6.04321e-06
1.36513e-05
2.43132e-05
3.09155e-05
3.26028e-05
3.15702e-05
2.92045e-05
2.64239e-05
2.37758e-05
2.15258e-05
1.96919e-05
1.81809e-05
1.68707e-05
1.56401e-05
1.43808e-05
1.30084e-05
1.14813e-05
9.83388e-06
8.18546e-06
6.72311e-06
5.61608e-06
4.84642e-06
4.36596e-06
4.12497e-06
4.08589e-06
4.25302e-06
4.73188e-06
5.86405e-06
8.35736e-06
1.07115e-05
4.91486e-06
1.79313e-06
1.63712e-07
1.09016e-07
2.38646e-06
6.09793e-06
1.38248e-05
2.45589e-05
3.10602e-05
3.26447e-05
3.15497e-05
2.91676e-05
2.64112e-05
2.38118e-05
2.16183e-05
1.98472e-05
1.84027e-05
1.71592e-05
1.59914e-05
1.47849e-05
1.34463e-05
1.19234e-05
1.02427e-05
8.52339e-06
6.9627e-06
5.7566e-06
4.90379e-06
4.36287e-06
4.08764e-06
4.04068e-06
4.22378e-06
4.74191e-06
5.9462e-06
8.54963e-06
1.08611e-05
4.94681e-06
1.80902e-06
1.65754e-07
1.12637e-07
2.40204e-06
6.15396e-06
1.39983e-05
2.47996e-05
3.11962e-05
3.26767e-05
3.15185e-05
2.91194e-05
2.63866e-05
2.38357e-05
2.16994e-05
1.99927e-05
1.86169e-05
1.74427e-05
1.63411e-05
1.5192e-05
1.38935e-05
1.23821e-05
1.06754e-05
8.8911e-06
7.23598e-06
5.92981e-06
4.99099e-06
4.38539e-06
4.07053e-06
4.00973e-06
4.2032e-06
4.75608e-06
6.02919e-06
8.74003e-06
1.1009e-05
4.98069e-06
1.82478e-06
1.67652e-07
1.16202e-07
2.41727e-06
6.2102e-06
1.41672e-05
2.50285e-05
3.13179e-05
3.26942e-05
3.14724e-05
2.90561e-05
2.63469e-05
2.38454e-05
2.17682e-05
2.01281e-05
1.88229e-05
1.77202e-05
1.66875e-05
1.55998e-05
1.43464e-05
1.28531e-05
1.11274e-05
9.28469e-06
7.54007e-06
6.13432e-06
5.10777e-06
4.43407e-06
4.07478e-06
3.99453e-06
4.19285e-06
4.7758e-06
6.1141e-06
8.9295e-06
1.11555e-05
5.01609e-06
1.8404e-06
1.69415e-07
1.19719e-07
2.43172e-06
6.26446e-06
1.43338e-05
2.52506e-05
3.14291e-05
3.26994e-05
3.14127e-05
2.89794e-05
2.62945e-05
2.38426e-05
2.18255e-05
2.02531e-05
1.90199e-05
1.79905e-05
1.70293e-05
1.60064e-05
1.48031e-05
1.33338e-05
1.15959e-05
9.7009e-06
7.87168e-06
6.36771e-06
5.25261e-06
4.50812e-06
4.10015e-06
3.99523e-06
4.193e-06
4.80119e-06
6.2006e-06
9.11721e-06
1.13013e-05
5.05304e-06
1.85586e-06
1.71052e-07
1.23156e-07
2.44564e-06
6.31696e-06
1.44958e-05
2.54639e-05
3.15281e-05
3.26908e-05
3.13377e-05
2.88844e-05
2.62218e-05
2.38209e-05
2.18679e-05
2.03661e-05
1.92064e-05
1.82518e-05
1.73642e-05
1.6409e-05
1.52596e-05
1.38198e-05
1.2076e-05
1.01351e-05
8.22667e-06
6.62725e-06
5.42393e-06
4.60693e-06
4.14691e-06
4.01273e-06
4.20491e-06
4.83358e-06
6.28998e-06
9.30426e-06
1.14465e-05
5.09125e-06
1.87116e-06
1.72572e-07
1.26554e-07
2.45895e-06
6.36875e-06
1.46583e-05
2.56722e-05
3.16175e-05
3.26709e-05
3.12507e-05
2.87791e-05
2.61405e-05
2.37895e-05
2.18963e-05
2.04641e-05
1.93805e-05
1.85032e-05
1.76911e-05
1.68059e-05
1.57141e-05
1.43085e-05
1.25646e-05
1.05841e-05
8.60176e-06
6.91028e-06
5.61973e-06
4.72918e-06
4.21434e-06
4.04683e-06
4.22871e-06
4.87315e-06
6.38222e-06
9.49041e-06
1.15918e-05
5.13078e-06
1.88632e-06
1.73984e-07
1.29884e-07
2.47188e-06
6.41938e-06
1.48171e-05
2.58699e-05
3.16934e-05
3.26362e-05
3.1147e-05
2.86551e-05
2.60397e-05
2.37405e-05
2.19123e-05
2.05513e-05
1.95424e-05
1.87432e-05
1.80086e-05
1.71953e-05
1.61638e-05
1.47967e-05
1.30582e-05
1.1044e-05
8.9936e-06
7.21438e-06
5.83839e-06
4.87393e-06
4.30218e-06
4.09791e-06
4.26526e-06
4.92112e-06
6.47871e-06
9.67699e-06
1.17379e-05
5.17166e-06
1.90137e-06
1.75302e-07
1.33154e-07
2.48429e-06
6.46891e-06
1.4974e-05
2.60602e-05
3.17577e-05
3.25881e-05
3.10293e-05
2.85177e-05
2.59262e-05
2.36789e-05
2.19156e-05
2.0627e-05
1.96937e-05
1.89705e-05
1.83139e-05
1.75752e-05
1.66065e-05
1.52816e-05
1.35537e-05
1.15119e-05
9.39937e-06
7.53731e-06
6.07818e-06
5.03989e-06
4.40959e-06
4.16557e-06
4.31453e-06
4.9776e-06
6.57946e-06
9.86384e-06
1.18855e-05
5.21404e-06
1.91636e-06
1.76539e-07
1.36342e-07
2.49612e-06
6.51685e-06
1.51265e-05
2.62398e-05
3.18088e-05
3.25254e-05
3.08954e-05
2.83631e-05
2.57958e-05
2.36013e-05
2.19046e-05
2.06899e-05
1.98338e-05
1.91884e-05
1.86075e-05
1.79436e-05
1.70403e-05
1.57602e-05
1.40472e-05
1.19838e-05
9.81568e-06
7.87662e-06
6.33746e-06
5.22608e-06
4.53613e-06
4.24993e-06
4.37717e-06
5.04365e-06
6.68582e-06
1.00522e-05
1.20354e-05
5.25807e-06
1.93134e-06
1.77711e-07
1.39467e-07
2.50755e-06
6.56381e-06
1.52767e-05
2.64111e-05
3.18477e-05
3.24485e-05
3.07463e-05
2.81937e-05
2.56512e-05
2.35104e-05
2.18812e-05
2.07409e-05
1.99622e-05
1.9395e-05
1.88913e-05
1.82995e-05
1.74622e-05
1.62303e-05
1.45362e-05
1.24567e-05
1.02397e-05
8.23002e-06
6.6145e-06
5.43125e-06
4.68099e-06
4.35055e-06
4.45304e-06
5.11936e-06
6.7979e-06
1.02423e-05
1.21887e-05
5.30405e-06
1.94641e-06
1.78836e-07
1.42502e-07
2.51835e-06
6.60894e-06
1.54222e-05
2.65715e-05
3.18733e-05
3.23568e-05
3.05811e-05
2.80081e-05
2.54911e-05
2.34048e-05
2.18444e-05
2.07792e-05
2.00782e-05
1.95894e-05
1.91629e-05
1.86441e-05
1.78699e-05
1.66868e-05
1.50158e-05
1.29261e-05
1.06675e-05
8.59446e-06
6.90724e-06
5.65415e-06
4.84359e-06
4.46746e-06
4.54272e-06
5.20578e-06
6.91712e-06
1.04354e-05
1.23461e-05
5.3521e-06
1.9616e-06
1.79931e-07
1.45458e-07
2.52863e-06
6.65266e-06
1.55645e-05
2.67231e-05
3.18864e-05
3.22504e-05
3.04002e-05
2.78073e-05
2.5317e-05
2.32863e-05
2.17957e-05
2.08063e-05
2.0183e-05
1.97722e-05
1.94225e-05
1.89765e-05
1.82659e-05
1.71301e-05
1.54836e-05
1.33887e-05
1.10956e-05
8.96712e-06
7.21344e-06
5.89316e-06
5.02285e-06
4.60003e-06
4.64602e-06
5.30308e-06
7.04395e-06
1.06324e-05
1.2509e-05
5.40268e-06
1.97705e-06
1.81013e-07
1.48324e-07
2.53832e-06
6.6947e-06
1.57026e-05
2.68643e-05
3.1886e-05
3.21285e-05
3.0203e-05
2.75908e-05
2.51285e-05
2.31546e-05
2.17347e-05
2.08215e-05
2.02758e-05
1.99425e-05
1.96686e-05
1.92943e-05
1.86467e-05
1.75582e-05
1.59368e-05
1.38405e-05
1.152e-05
9.34426e-06
7.53032e-06
6.14646e-06
5.21777e-06
4.74799e-06
4.76328e-06
5.41219e-06
7.17985e-06
1.08346e-05
1.26774e-05
5.45566e-06
1.99277e-06
1.82097e-07
1.5111e-07
2.54749e-06
6.73534e-06
1.58373e-05
2.69963e-05
3.18728e-05
3.19915e-05
2.99902e-05
2.73599e-05
2.49272e-05
2.30114e-05
2.16633e-05
2.08265e-05
2.03582e-05
2.01015e-05
1.99023e-05
1.95981e-05
1.90117e-05
1.79697e-05
1.63739e-05
1.42795e-05
1.19378e-05
9.72296e-06
7.85519e-06
6.41194e-06
5.42694e-06
4.91058e-06
4.89436e-06
5.53355e-06
7.32581e-06
1.10436e-05
1.28526e-05
5.51154e-06
2.00889e-06
1.83199e-07
1.5381e-07
2.55609e-06
6.77443e-06
1.59683e-05
2.71182e-05
3.18455e-05
3.18384e-05
2.97609e-05
2.71141e-05
2.4713e-05
2.28566e-05
2.15813e-05
2.08213e-05
2.04298e-05
2.02488e-05
2.01228e-05
1.98867e-05
1.93593e-05
1.83618e-05
1.67914e-05
1.47013e-05
1.23453e-05
1.00998e-05
8.18505e-06
6.68727e-06
5.64877e-06
5.08694e-06
5.03907e-06
5.66768e-06
7.48321e-06
1.1261e-05
1.30342e-05
5.56999e-06
2.0254e-06
1.84327e-07
1.56438e-07
2.56423e-06
6.81234e-06
1.60966e-05
2.72309e-05
3.18049e-05
3.16699e-05
2.95163e-05
2.6855e-05
2.44877e-05
2.26924e-05
2.14908e-05
2.08076e-05
2.04925e-05
2.03861e-05
2.03315e-05
2.01611e-05
1.96899e-05
1.87344e-05
1.71883e-05
1.5104e-05
1.27378e-05
1.04702e-05
8.51646e-06
6.96998e-06
5.88167e-06
5.27628e-06
5.19742e-06
5.81536e-06
7.65356e-06
1.14888e-05
1.32229e-05
5.6313e-06
2.04238e-06
1.8549e-07
1.58989e-07
2.57182e-06
6.84887e-06
1.62215e-05
2.73336e-05
3.17497e-05
3.14845e-05
2.92554e-05
2.65821e-05
2.42511e-05
2.25186e-05
2.13919e-05
2.07857e-05
2.05463e-05
2.05132e-05
2.05279e-05
2.04207e-05
2.00023e-05
1.90857e-05
1.75621e-05
1.5485e-05
1.3114e-05
1.08316e-05
8.84608e-06
7.25706e-06
6.12337e-06
5.4771e-06
5.36861e-06
5.97664e-06
7.83806e-06
1.1729e-05
1.3418e-05
5.6951e-06
2.05983e-06
1.8669e-07
1.61476e-07
2.579e-06
6.88448e-06
1.63444e-05
2.74271e-05
3.16806e-05
3.12832e-05
2.89796e-05
2.62972e-05
2.40055e-05
2.23376e-05
2.12866e-05
2.07575e-05
2.05931e-05
2.06318e-05
2.07138e-05
2.06666e-05
2.02974e-05
1.94158e-05
1.79122e-05
1.58428e-05
1.34713e-05
1.11809e-05
9.17104e-06
7.54587e-06
6.37178e-06
5.68816e-06
5.55261e-06
6.15304e-06
8.03834e-06
1.19833e-05
1.36195e-05
5.76143e-06
2.07779e-06
1.87931e-07
1.63894e-07
2.58566e-06
6.91892e-06
1.64645e-05
2.75103e-05
3.15962e-05
3.10647e-05
2.86878e-05
2.59998e-05
2.37506e-05
2.21494e-05
2.11753e-05
2.07234e-05
2.06333e-05
2.07423e-05
2.08892e-05
2.08988e-05
2.0575e-05
1.97244e-05
1.8238e-05
1.61763e-05
1.38081e-05
1.15161e-05
9.48841e-06
7.8336e-06
6.62458e-06
5.90784e-06
5.74844e-06
6.344e-06
8.25547e-06
1.22533e-05
1.38267e-05
5.82992e-06
2.09623e-06
1.89211e-07
1.66257e-07
2.59196e-06
6.95264e-06
1.65828e-05
2.75843e-05
3.14973e-05
3.083e-05
2.83819e-05
2.56921e-05
2.34887e-05
2.19563e-05
2.10601e-05
2.06855e-05
2.06689e-05
2.08466e-05
2.10559e-05
2.11189e-05
2.08361e-05
2.00121e-05
1.85397e-05
1.64855e-05
1.41242e-05
1.18355e-05
9.79613e-06
8.11802e-06
6.8799e-06
6.13482e-06
5.95539e-06
6.54951e-06
8.49047e-06
1.25403e-05
1.4039e-05
5.90045e-06
2.11516e-06
1.90528e-07
1.68554e-07
2.59775e-06
6.98534e-06
1.66987e-05
2.76476e-05
3.13824e-05
3.05777e-05
2.80606e-05
2.53735e-05
2.32197e-05
2.17583e-05
2.09413e-05
2.06442e-05
2.07003e-05
2.09451e-05
2.12144e-05
2.13274e-05
2.10814e-05
2.02797e-05
1.88186e-05
1.6772e-05
1.44213e-05
1.21395e-05
1.00934e-05
8.39753e-06
7.13564e-06
6.36699e-06
6.17175e-06
6.76865e-06
8.74337e-06
1.28448e-05
1.4255e-05
5.97269e-06
2.13456e-06
1.91881e-07
1.70798e-07
2.6032e-06
7.01743e-06
1.68131e-05
2.77013e-05
3.12525e-05
3.03091e-05
2.77259e-05
2.50462e-05
2.29458e-05
2.15577e-05
2.08212e-05
2.06017e-05
2.07297e-05
2.10399e-05
2.13664e-05
2.15255e-05
2.13117e-05
2.0528e-05
1.90753e-05
1.70367e-05
1.47003e-05
1.2428e-05
1.03793e-05
8.6708e-06
7.39054e-06
6.60339e-06
6.39692e-06
7.00126e-06
9.01436e-06
1.31667e-05
1.44742e-05
6.04641e-06
2.15442e-06
1.93268e-07
1.72976e-07
2.60816e-06
7.04853e-06
1.6925e-05
2.77437e-05
3.11059e-05
3.00224e-05
2.73764e-05
2.47091e-05
2.26663e-05
2.13541e-05
2.06995e-05
2.0558e-05
2.07575e-05
2.11316e-05
2.15129e-05
2.17146e-05
2.15288e-05
2.07588e-05
1.93119e-05
1.72818e-05
1.49631e-05
1.27023e-05
1.0654e-05
8.93707e-06
7.64315e-06
6.84211e-06
6.6292e-06
7.24624e-06
9.30311e-06
1.3506e-05
1.46953e-05
6.12121e-06
2.17467e-06
1.94684e-07
1.75097e-07
2.61277e-06
7.07901e-06
1.70353e-05
2.77759e-05
3.09435e-05
2.97191e-05
2.7014e-05
2.43644e-05
2.23834e-05
2.11497e-05
2.05783e-05
2.05152e-05
2.07854e-05
2.12219e-05
2.16552e-05
2.18958e-05
2.17333e-05
2.09726e-05
1.95288e-05
1.75074e-05
1.52093e-05
1.29622e-05
1.09174e-05
9.19609e-06
7.89301e-06
7.0827e-06
6.86805e-06
7.50292e-06
9.60863e-06
1.38611e-05
1.49174e-05
6.19688e-06
2.19529e-06
1.96128e-07
1.77149e-07
2.61688e-06
7.10844e-06
1.71428e-05
2.77964e-05
3.07637e-05
2.93974e-05
2.66372e-05
2.40111e-05
2.20963e-05
2.09438e-05
2.04574e-05
2.04733e-05
2.08141e-05
2.13117e-05
2.17946e-05
2.20707e-05
2.19274e-05
2.11719e-05
1.97284e-05
1.77155e-05
1.544e-05
1.32082e-05
1.11695e-05
9.44729e-06
8.13915e-06
7.32402e-06
7.11218e-06
7.77048e-06
9.93072e-06
1.42317e-05
1.51396e-05
6.27294e-06
2.21619e-06
1.97595e-07
1.79139e-07
2.62062e-06
7.13717e-06
1.72484e-05
2.78059e-05
3.05674e-05
2.90585e-05
2.62479e-05
2.36511e-05
2.18069e-05
2.07384e-05
2.03384e-05
2.04338e-05
2.08445e-05
2.14018e-05
2.1932e-05
2.22401e-05
2.21118e-05
2.13575e-05
1.9912e-05
1.79074e-05
1.56562e-05
1.34415e-05
1.14113e-05
9.69112e-06
8.38149e-06
7.56559e-06
7.36118e-06
8.04804e-06
1.02676e-05
1.4615e-05
1.53614e-05
6.34944e-06
2.23737e-06
1.99089e-07
1.81056e-07
2.62384e-06
7.16474e-06
1.7351e-05
2.78028e-05
3.03528e-05
2.87009e-05
2.58447e-05
2.32835e-05
2.15146e-05
2.0533e-05
2.02211e-05
2.03966e-05
2.08771e-05
2.1493e-05
2.20685e-05
2.24053e-05
2.22881e-05
2.15315e-05
2.00817e-05
1.80851e-05
1.58593e-05
1.3663e-05
1.16432e-05
9.92766e-06
8.6198e-06
7.80686e-06
7.61411e-06
8.33447e-06
1.06191e-05
1.50107e-05
1.55814e-05
6.42568e-06
2.25869e-06
2.006e-07
1.82907e-07
2.62668e-06
7.19148e-06
1.74511e-05
2.7788e-05
3.01208e-05
2.83258e-05
2.54292e-05
2.29098e-05
2.12209e-05
2.03294e-05
2.01071e-05
2.03629e-05
2.09126e-05
2.15857e-05
2.22042e-05
2.25668e-05
2.24572e-05
2.1695e-05
2.02393e-05
1.82511e-05
1.60515e-05
1.38747e-05
1.18667e-05
1.01579e-05
8.85439e-06
8.04763e-06
7.87064e-06
8.62952e-06
1.09825e-05
1.5415e-05
1.57997e-05
6.50199e-06
2.28021e-06
2.02142e-07
1.84682e-07
2.62898e-06
7.21693e-06
1.75478e-05
2.77599e-05
2.98696e-05
2.79315e-05
2.50003e-05
2.2529e-05
2.09251e-05
2.01281e-05
1.99965e-05
2.03326e-05
2.0951e-05
2.16804e-05
2.234e-05
2.27255e-05
2.26199e-05
2.18493e-05
2.03863e-05
1.84069e-05
1.6234e-05
1.40775e-05
1.20827e-05
1.03825e-05
9.08568e-06
8.28806e-06
8.13059e-06
8.93274e-06
1.13581e-05
1.58273e-05
1.6015e-05
6.57772e-06
2.30177e-06
2.03701e-07
1.8639e-07
2.63086e-06
7.24137e-06
1.76416e-05
2.77191e-05
2.95999e-05
2.75194e-05
2.45596e-05
2.21425e-05
2.06277e-05
1.99297e-05
1.98894e-05
2.03054e-05
2.09923e-05
2.17772e-05
2.24762e-05
2.28818e-05
2.27773e-05
2.19959e-05
2.05252e-05
1.85559e-05
1.64092e-05
1.42729e-05
1.22922e-05
1.06021e-05
9.31393e-06
8.52795e-06
8.39328e-06
9.24299e-06
1.17442e-05
1.62449e-05
1.62268e-05
6.65241e-06
2.32329e-06
2.05272e-07
1.88023e-07
2.63216e-06
7.26431e-06
1.77312e-05
2.7664e-05
2.93103e-05
2.70884e-05
2.41068e-05
2.17498e-05
2.03276e-05
1.97302e-05
1.97827e-05
2.02802e-05
2.10365e-05
2.18766e-05
2.26134e-05
2.30366e-05
2.29303e-05
2.21364e-05
2.06584e-05
1.87011e-05
1.65789e-05
1.44622e-05
1.24959e-05
1.08172e-05
9.53961e-06
8.7677e-06
8.65897e-06
9.56026e-06
1.21405e-05
1.66678e-05
1.64346e-05
6.72614e-06
2.34474e-06
2.06864e-07
1.89589e-07
2.63302e-06
7.28608e-06
1.78175e-05
2.75954e-05
2.90014e-05
2.66399e-05
2.36433e-05
2.13529e-05
2.00269e-05
1.95326e-05
1.96792e-05
2.02587e-05
2.10843e-05
2.1979e-05
2.2752e-05
2.31902e-05
2.30795e-05
2.22717e-05
2.07876e-05
1.8845e-05
1.67449e-05
1.4646e-05
1.26941e-05
1.10277e-05
9.76249e-06
9.00709e-06
8.92753e-06
9.88443e-06
1.25462e-05
1.70942e-05
1.66375e-05
6.79848e-06
2.36604e-06
2.0847e-07
1.91082e-07
2.63328e-06
7.30619e-06
1.78991e-05
2.75115e-05
2.86717e-05
2.6173e-05
2.3169e-05
2.0951e-05
1.97244e-05
1.93347e-05
1.95766e-05
2.02393e-05
2.11351e-05
2.20843e-05
2.28923e-05
2.33433e-05
2.32258e-05
2.24031e-05
2.09141e-05
1.89886e-05
1.69084e-05
1.48256e-05
1.28875e-05
1.12341e-05
9.98267e-06
9.24583e-06
9.19835e-06
1.02147e-05
1.29602e-05
1.75225e-05
1.68351e-05
6.86926e-06
2.38712e-06
2.10083e-07
1.92512e-07
2.63307e-06
7.32495e-06
1.79768e-05
2.74132e-05
2.83224e-05
2.56896e-05
2.26861e-05
2.05463e-05
1.94219e-05
1.91382e-05
1.94764e-05
2.0223e-05
2.11894e-05
2.21928e-05
2.30346e-05
2.34963e-05
2.33696e-05
2.2531e-05
2.10377e-05
1.91308e-05
1.70691e-05
1.50012e-05
1.30768e-05
1.14371e-05
1.0201e-05
9.48508e-06
9.47276e-06
1.05519e-05
1.33824e-05
1.79517e-05
1.70274e-05
6.93863e-06
2.40822e-06
2.11703e-07
1.93872e-07
2.63226e-06
7.34191e-06
1.80492e-05
2.72989e-05
2.79522e-05
2.51896e-05
2.21949e-05
2.01387e-05
1.91189e-05
1.89421e-05
1.93773e-05
2.02086e-05
2.12462e-05
2.23042e-05
2.31791e-05
2.36499e-05
2.35124e-05
2.26566e-05
2.11596e-05
1.92716e-05
1.72272e-05
1.51734e-05
1.32624e-05
1.16367e-05
1.04168e-05
9.72316e-06
9.74822e-06
1.08942e-05
1.38113e-05
1.83801e-05
1.72139e-05
7.0065e-06
2.42934e-06
2.13329e-07
1.95171e-07
2.63094e-06
7.35727e-06
1.81168e-05
2.71693e-05
2.75626e-05
2.46752e-05
2.16978e-05
1.97303e-05
1.88169e-05
1.87476e-05
1.928e-05
2.01963e-05
2.13056e-05
2.2418e-05
2.33254e-05
2.3804e-05
2.36542e-05
2.27809e-05
2.12804e-05
1.94112e-05
1.73829e-05
1.53424e-05
1.34446e-05
1.18335e-05
1.06312e-05
9.96227e-06
1.00284e-05
1.12425e-05
1.42462e-05
1.88064e-05
1.73945e-05
7.07278e-06
2.45029e-06
2.14958e-07
1.96405e-07
2.629e-06
7.37061e-06
1.81785e-05
2.7023e-05
2.71526e-05
2.41465e-05
2.11952e-05
1.93214e-05
1.8516e-05
1.85543e-05
1.91838e-05
2.01853e-05
2.13666e-05
2.25339e-05
2.34736e-05
2.39593e-05
2.37967e-05
2.29059e-05
2.14028e-05
1.95512e-05
1.75373e-05
1.55091e-05
1.36243e-05
1.20282e-05
1.08447e-05
1.02031e-05
1.03137e-05
1.15968e-05
1.4686e-05
1.92292e-05
1.75691e-05
7.13733e-06
2.47095e-06
2.16585e-07
1.97579e-07
2.62649e-06
7.38207e-06
1.82346e-05
2.68608e-05
2.67235e-05
2.36057e-05
2.06893e-05
1.89137e-05
1.82178e-05
1.83634e-05
1.90892e-05
2.01755e-05
2.14288e-05
2.26508e-05
2.36226e-05
2.41152e-05
2.394e-05
2.30331e-05
2.15292e-05
1.96932e-05
1.76916e-05
1.56743e-05
1.38021e-05
1.22214e-05
1.1058e-05
1.04456e-05
1.06034e-05
1.19573e-05
1.51306e-05
1.9648e-05
1.77381e-05
7.20021e-06
2.49131e-06