/*--------------------------------*- C++ -*----------------------------------*\
| =========                 |                                                 |
| \\      /  F ield         | OpenFOAM: The Open Source CFD Toolbox           |
|  \\    /   O peration     | Version:  v2006                                 |
|   \\  /    A nd           | Website:  www.openfoam.com                      |
|    \\/     M anipulation  |                                                 |
\*---------------------------------------------------------------------------*/
FoamFile
{
    version     2.0;
    format      ascii;
    class       volScalarField;
    location    "70";
    object      omega;
}
// * * * * * * * * * * * * * * * * * * * * * * * * * * * * * * * * * * * * * //

dimensions      [0 0 -1 0 0 0 0];


internalField   nonuniform List<scalar> 
78750
(
352.588
13.5557
13.5811
13.607
13.6327
13.6577
13.6817
13.7045
13.7256
13.7451
13.7629
13.7787
13.7927
13.8048
13.8149
13.823
13.8292
13.8335
13.8358
13.8362
13.8346
13.831
13.8252
13.8172
13.8068
13.7939
13.7785
13.7605
13.7399
13.7172
13.6936
13.6717
13.6566
13.6544
356.525
517.386
4.15168
4.23694
4.31364
4.38215
4.44276
4.49567
4.54119
4.57976
4.61186
4.63797
4.65857
4.67406
4.68503
4.69202
4.69537
4.69543
4.69248
4.68678
4.67857
4.668
4.65515
4.63997
4.62235
4.60205
4.57874
4.55219
4.52186
4.48666
4.44538
4.39636
4.33823
4.27387
4.21197
523.496
517.397
4.21132
4.33997
4.45165
4.54498
4.62104
4.68213
4.73053
4.76811
4.79636
4.81646
4.82943
4.83619
4.83751
4.83402
4.82634
4.81507
4.8008
4.78413
4.76565
4.74593
4.7255
4.70467
4.68344
4.66152
4.63836
4.61312
4.58467
4.55152
4.51165
4.4625
4.4027
4.33713
4.27244
523.867
517.412
4.27093
4.43647
4.57376
4.68095
4.76191
4.82256
4.86767
4.90039
4.92284
4.93643
4.94219
4.94103
4.93374
4.921
4.90351
4.882
4.85727
4.83024
4.80192
4.77338
4.74568
4.71965
4.69557
4.67313
4.65142
4.62899
4.60407
4.57454
4.53787
4.49147
4.43509
4.375
4.31458
524.219
517.428
4.32267
4.51521
4.6686
4.7819
4.86279
4.92062
4.96204
4.99074
5.00859
5.01686
5.0167
5.00886
4.9939
4.9724
4.94507
4.9128
4.87668
4.83804
4.79849
4.75989
4.72425
4.69314
4.66722
4.64612
4.62857
4.61249
4.59521
4.57366
4.54459
4.50524
4.45607
4.40262
4.3459
524.57
517.445
4.3695
4.58475
4.75155
4.87026
4.95206
5.00919
5.04953
5.07656
5.09193
5.09707
5.09285
5.0797
5.05801
5.02834
4.99153
4.94877
4.90155
4.85167
4.80132
4.7531
4.70976
4.67317
4.64387
4.62147
4.60478
4.59173
4.57943
4.56438
4.54272
4.51125
4.47014
4.42314
4.36964
524.888
517.46
4.40932
4.64235
4.81935
4.94219
5.02499
5.08182
5.12107
5.14634
5.15951
5.16182
5.15372
5.13543
5.10727
5.06989
5.02437
4.97221
4.91527
4.85585
4.79672
4.74134
4.69305
4.65334
4.6223
4.59937
4.58345
4.57271
4.5644
4.55493
4.54007
4.51604
4.48225
4.44073
4.38995
525.2
517.474
4.4447
4.69402
4.88131
5.00939
5.09449
5.15223
5.19149
5.21626
5.22847
5.229
5.21808
5.19582
5.16258
5.11914
5.06682
5.00734
4.94286
4.87595
4.80983
4.74851
4.69552
4.65184
4.61731
4.59143
4.57342
4.56194
4.55477
4.54858
4.53895
4.52137
4.49402
4.45744
4.4096
525.477
517.487
4.47627
4.73971
4.93579
5.06833
5.15539
5.21389
5.2531
5.27723
5.28815
5.28655
5.27257
5.24627
5.20809
5.15898
5.10045
5.03449
4.96356
4.89062
4.81945
4.75479
4.69986
4.65478
4.61887
4.59148
4.57195
4.5594
4.55226
4.54778
4.54174
4.52913
4.50701
4.47469
4.42988
525.741
517.5
4.50721
4.78448
4.98945
5.1268
5.21619
5.27577
5.31533
5.3392
5.34922
5.34597
5.32949
5.29984
5.25749
5.20354
5.13966
5.06807
4.99142
4.91298
4.83695
4.76869
4.71139
4.66458
4.6272
4.59833
4.57728
4.56338
4.55556
4.5517
4.54797
4.53917
4.52138
4.49287
4.45109
525.981
517.512
4.53566
4.82519
5.03789
5.17931
5.2706
5.33098
5.37066
5.39404
5.4029
5.39776
5.37858
5.34541
5.29884
5.2401
5.17107
5.09417
5.01235
4.9292
4.84946
4.77918
4.72113
4.67421
4.63689
4.60796
4.58658
4.57216
4.56398
4.56044
4.5582
4.55211
4.53764
4.51227
4.47308
526.21
517.525
4.56578
4.86771
5.08794
5.23319
5.32625
5.3874
5.42721
5.45016
5.45798
5.45109
5.4294
5.39297
5.34244
5.27918
5.20522
5.12319
5.03623
4.94822
4.86437
4.79138
4.73205
4.6848
4.64768
4.61908
4.59793
4.58358
4.57545
4.57231
4.57122
4.56723
4.55543
4.53266
4.49558
526.424
517.538
4.59326
4.90599
5.13274
5.28127
5.37585
5.43765
5.47755
5.50004
5.50679
5.49812
5.47391
5.43425
5.37987
5.31226
5.23363
5.14676
5.05505
4.96265
4.87527
4.80033
4.74051
4.69372
4.65758
4.63018
4.61018
4.59679
4.58944
4.58707
4.58707
4.58468
4.57487
4.55403
4.51831
526.63
517.553
4.62303
4.94687
5.17993
5.33136
5.42719
5.48949
5.5294
5.55139
5.55706
5.54665
5.52001
5.47724
5.41918
5.3474
5.26424
5.17265
5.07618
4.97922
4.88786
4.8102
4.74924
4.70249
4.6672
4.64109
4.62255
4.61059
4.60454
4.60337
4.60461
4.60367
4.59547
4.57608
4.54113
526.826
517.566
4.65
4.98337
5.22185
5.37584
5.47285
5.53571
5.57571
5.59732
5.60203
5.59002
5.56111
5.51546
5.45397
5.37833
5.29098
5.19501
5.09413
4.99295
4.89799
4.81802
4.75626
4.70991
4.67586
4.65149
4.6349
4.62492
4.62074
4.62122
4.62389
4.62425
4.61723
4.59875
4.56388
527.016
517.582
4.67906
5.0223
5.26607
5.42232
5.52029
5.58357
5.62359
5.64476
5.6485
5.63491
5.60382
5.55543
5.49071
5.41143
5.32011
5.2199
5.11465
5.00914
4.91017
4.82708
4.76382
4.71733
4.68419
4.66145
4.64693
4.63918
4.6372
4.6397
4.64406
4.64574
4.63971
4.62178
4.5865
527.198
517.596
4.70548
5.0572
5.30555
5.46384
5.5628
5.62662
5.6668
5.68769
5.69063
5.67567
5.64263
5.59179
5.52416
5.44159
5.34665
5.24257
5.13326
5.02374
4.92102
4.83502
4.77039
4.72389
4.69182
4.67093
4.65875
4.65359
4.6542
4.65902
4.66526
4.66824
4.66296
4.64518
4.60894
527.376
517.612
4.7336
5.09409
5.34697
5.50712
5.60692
5.67119
5.71148
5.73205
5.73417
5.71787
5.683
5.62986
5.55954
5.47394
5.37563
5.26783
5.15455
5.0409
4.93406
4.84435
4.77759
4.73049
4.69909
4.67987
4.67005
4.66764
4.67109
4.67853
4.68684
4.69118
4.68653
4.66867
4.63111
527.549
517.627
4.75945
5.12757
5.38443
5.54633
5.64706
5.7119
5.75243
5.77282
5.77429
5.75683
5.72034
5.66518
5.59251
5.50423
5.40293
5.2918
5.1749
5.05739
4.94665
4.85328
4.78433
4.73655
4.7058
4.6883
4.68098
4.68155
4.68812
4.69843
4.70898
4.71468
4.71051
4.69229
4.65301
527.717
517.642
4.78659
5.16257
5.42343
5.58702
5.6886
5.75397
5.79467
5.81483
5.81561
5.79703
5.75901
5.702
5.6272
5.53652
5.43247
5.31825
5.19785
5.07642
4.96143
4.86368
4.79177
4.74268
4.71214
4.69612
4.69125
4.6949
4.70478
4.7182
4.73121
4.73836
4.73464
4.71586
4.67456
527.881
517.658
4.81181
5.19475
5.45926
5.62455
5.72713
5.79315
5.83412
5.85411
5.85429
5.8347
5.79535
5.73675
5.66014
5.56742
5.46105
5.34415
5.22062
5.09557
4.97649
4.87434
4.79925
4.74859
4.71806
4.70342
4.70103
4.70788
4.72125
4.73795
4.7535
4.76211
4.75872
4.73923
4.69567
528.041
517.674
4.83792
5.22799
5.49624
5.6633
5.76696
5.83361
5.87471
5.89439
5.89387
5.87327
5.83267
5.77265
5.69447
5.59998
5.49159
5.37227
5.24582
5.11718
4.99382
4.88674
4.80771
4.75478
4.72373
4.71016
4.71013
4.72023
4.73725
4.75743
4.77575
4.78595
4.78292
4.76254
4.71638
528.196
517.69
4.86234
5.25878
5.5306
5.69969
5.80482
5.87223
5.91333
5.93258
5.93135
5.90983
5.86817
5.807
5.72758
5.63172
5.52172
5.40044
5.27149
5.13963
5.0122
4.90021
4.81686
4.76123
4.72927
4.71651
4.71874
4.73212
4.75287
4.77663
4.79771
4.80941
4.8066
4.78531
4.73646
528.348
517.706
4.88725
5.29008
5.56552
5.73691
5.84362
5.91178
5.95282
5.97133
5.96928
5.94686
5.90427
5.84214
5.76172
5.66477
5.55348
5.43057
5.29941
5.16453
5.03308
4.91597
4.82759
4.76851
4.73496
4.72254
4.72677
4.74335
4.76793
4.79541
4.81944
4.83281
4.83039
4.80787
4.756
528.496
517.722
4.91066
5.31919
5.59797
5.77168
5.87962
5.94861
5.99
6.00812
6.0054
5.98226
5.93895
5.87612
5.79502
5.69735
5.5852
5.4611
5.3282
5.19074
5.05562
4.93358
4.8398
4.77674
4.74108
4.72854
4.73448
4.75417
4.78256
4.8138
4.84079
4.85585
4.85411
4.8299
4.77483
528.639
517.738
4.93431
5.34852
5.63059
5.80641
5.91555
5.98538
6.02724
6.04529
6.04171
6.01785
5.97391
5.91056
5.82901
5.73089
5.6182
5.49326
5.35897
5.21926
5.08071
4.95378
4.8541
4.7864
4.74792
4.73465
4.74188
4.76443
4.79657
4.83162
4.86171
4.87883
4.87777
4.85202
4.79321
528.778
517.754
4.95663
5.37604
5.66148
5.83892
5.94911
6.01979
6.06222
6.08039
6.07631
6.052
6.00768
5.94407
5.86236
5.76414
5.65128
5.52594
5.39075
5.24928
5.10772
4.97619
4.87046
4.79771
4.75582
4.74124
4.74931
4.77445
4.81024
4.84915
4.88256
4.90213
4.90156
4.87423
4.81123
528.914
517.77
4.9788
5.40321
5.69197
5.87092
5.98219
6.0538
6.09688
6.11536
6.11107
6.08618
6.04149
5.97773
5.89606
5.79798
5.68526
5.55986
5.42415
5.28133
5.13714
5.00124
4.88929
4.81102
4.7651
4.74854
4.75686
4.78421
4.82346
4.86621
4.90306
4.92529
4.92524
4.89626
4.82882
529.044
517.786
4.99983
5.42872
5.72051
5.90088
6.01323
6.08577
6.12959
6.1485
6.14427
6.11896
6.07414
6.0105
5.92915
5.83153
5.71928
5.59422
5.45844
5.31477
5.16846
5.02863
4.9106
4.82658
4.77612
4.75694
4.76491
4.79402
4.83648
4.88302
4.92338
4.94829
4.94872
4.91801
4.84595
529.17
517.802
5.02062
5.45381
5.7485
5.93022
6.04361
6.11711
6.16169
6.18108
6.17698
6.15136
6.10654
6.04316
5.9623
5.86533
5.75381
5.62939
5.49392
5.34984
5.20189
5.05856
4.93466
4.84471
4.78923
4.76675
4.77369
4.80399
4.84931
4.89945
4.94324
4.97088
4.97184
4.93938
4.86258
529.292
517.818
5.04047
5.47751
5.77483
5.95779
6.0722
6.14668
6.19209
6.21208
6.20826
6.18254
6.13792
6.07499
5.99482
5.89874
5.78823
5.66477
5.53
5.38599
5.23696
5.09071
4.96141
4.86557
4.80475
4.77838
4.78357
4.81443
4.86214
4.91563
4.96283
4.99304
4.9945
4.96027
4.87868
529.41
517.834
5.06004
5.50074
5.80051
5.9846
6.09998
6.17541
6.22167
6.2423
6.23887
6.2132
6.16885
6.10646
6.0271
5.93208
5.82277
5.70054
5.56681
5.4233
5.27372
5.12515
4.991
4.88938
4.82296
4.79213
4.79485
4.82557
4.87516
4.93175
4.98243
5.01484
5.01666
4.98064
4.89422
529.525
517.849
5.07886
5.52288
5.82477
6.00986
6.12616
6.20255
6.24968
6.27104
6.26818
6.24289
6.19879
6.13703
6.05864
5.96486
5.85698
5.73625
5.60388
5.46129
5.31171
5.16152
5.02329
4.91618
4.84408
4.80834
4.8079
4.83775
4.88863
4.94796
5.00191
5.03628
5.03834
5.00047
4.90921
529.635
517.864
5.09741
5.54469
5.84833
6.03424
6.15138
6.22869
6.27669
6.29878
6.29649
6.27165
6.2279
6.16691
6.08963
5.99726
5.89099
5.77197
5.64124
5.49994
5.35086
5.19971
5.0582
4.94597
4.86824
4.82724
4.82299
4.85122
4.90273
4.96431
5.02123
5.05732
5.0595
5.01974
4.92366
529.743
517.88
5.11523
5.56569
5.87058
6.05717
6.17513
6.25336
6.30224
6.32511
6.32346
6.29916
6.2559
6.1958
6.11979
6.02897
5.92447
5.80735
5.6785
5.53882
5.39072
5.23926
5.09532
4.97854
4.89541
4.849
4.8404
4.86629
4.91771
4.98099
5.04045
5.07799
5.08014
5.03845
4.93757
529.848
517.895
5.13238
5.58573
5.89184
6.07911
6.19784
6.27696
6.3267
6.35033
6.34933
6.32562
6.28294
6.22384
6.14919
6.06005
5.95746
5.8424
5.71564
5.57786
5.43112
5.27993
5.13433
5.0136
4.92547
4.87363
4.86027
4.88313
4.93373
4.99807
5.05959
5.09829
5.10027
5.05661
4.95096
529.95
517.909
5.14881
5.6048
5.91197
6.09977
6.21921
6.29917
6.34974
6.37413
6.37382
6.35077
6.30882
6.25081
6.17764
6.09027
5.98972
5.87686
5.75236
5.61671
5.47169
5.32126
5.17473
5.05079
4.95817
4.90108
4.88271
4.90195
4.951
5.01573
5.07876
5.11827
5.11991
5.07423
4.96385
530.05
517.924
5.16466
5.62308
5.9311
6.11937
6.2395
6.32029
6.37171
6.39685
6.39723
6.37483
6.33359
6.2768
6.2052
6.11973
6.02132
5.91077
5.78866
5.65534
5.51231
5.36309
5.21625
5.08981
4.99328
4.93122
4.90772
4.92284
4.96965
5.03405
5.09801
5.13796
5.13908
5.09133
4.97626
530.148
517.938
5.17986
5.6404
5.9491
6.13776
6.25851
6.3401
6.39232
6.41823
6.41931
6.39764
6.35722
6.30166
6.23169
6.14822
6.05203
5.9439
5.82431
5.6935
5.55272
5.40508
5.25852
5.13032
5.03053
4.96389
4.93527
4.94589
4.9898
5.05319
5.11745
5.15745
5.15785
5.10795
4.98824
530.244
517.952
5.19446
5.65686
5.96611
6.15508
6.27641
6.35877
6.41179
6.43844
6.44022
6.4193
6.37977
6.3255
6.25718
6.17569
6.08186
5.97623
5.85928
5.7311
5.59278
5.44708
5.30132
5.17206
5.06965
4.99889
4.96526
4.97109
5.01153
5.0732
5.13715
5.17678
5.17623
5.12413
4.99983
530.338
517.965
5.20836
5.67238
5.98203
6.17124
6.29312
6.3762
6.42998
6.45735
6.45983
6.43968
6.4011
6.34819
6.28161
6.20215
6.11062
6.00763
5.89339
5.76797
5.6323
5.48882
5.34435
5.21474
5.11039
5.03602
4.99759
4.99846
5.03491
5.09421
5.15723
5.19604
5.19432
5.13993
5.01108
530.43
517.978
5.2217
5.68711
5.99702
6.18639
6.30875
6.39252
6.44702
6.47508
6.47826
6.45887
6.42129
6.36978
6.30496
6.22759
6.13841
6.03798
5.92659
5.80402
5.67115
5.53016
5.38741
5.25811
5.15249
5.07505
5.03211
5.02793
5.05996
5.11626
5.17772
5.21531
5.21218
5.15541
5.02205
530.521
517.991
5.23434
5.70091
6.01095
6.20042
6.32322
6.40764
6.46282
6.49155
6.4954
6.4768
6.44025
6.39018
6.32715
6.2519
6.1651
6.06727
5.95863
5.83905
5.70911
5.57085
5.43024
5.30189
5.19565
5.11574
5.06866
5.05946
5.08673
5.13947
5.19877
5.23467
5.22988
5.17064
5.03281
530.61
518.004
5.24639
5.71393
6.02398
6.21348
6.33667
6.42168
6.47751
6.50687
6.51136
6.49354
6.45806
6.40943
6.34821
6.27509
6.19069
6.09548
5.98965
5.873
5.7461
5.61075
5.47263
5.34584
5.23961
5.15783
5.10703
5.09292
5.11519
5.16386
5.22044
5.25424
5.24754
5.18572
5.04344
530.698
518.016
5.25779
5.72608
6.03603
6.22549
6.34901
6.43458
6.49102
6.52097
6.52608
6.50902
6.47463
6.42746
6.36806
6.29706
6.21507
6.12249
6.01948
5.90579
5.78196
5.64968
5.51435
5.38966
5.28406
5.20102
5.14701
5.1282
5.14533
5.1895
5.24281
5.27408
5.26522
5.20071
5.05399
530.785
518.028
5.26863
5.73749
6.04721
6.23657
6.36038
6.44646
6.50345
6.53396
6.53965
6.52335
6.49006
6.44436
6.38676
6.31787
6.23825
6.1483
6.0481
5.93738
5.81665
5.68755
5.55527
5.43316
5.32873
5.24504
5.18833
5.16513
5.1771
5.21645
5.26602
5.29436
5.28306
5.21572
5.06455
530.871
518.04
5.27887
5.74809
6.05746
6.24665
6.37069
6.45724
6.51475
6.54577
6.55201
6.53646
6.50427
6.46004
6.40422
6.33742
6.26016
6.17279
6.07537
5.96762
5.85002
5.72416
5.5952
5.47612
5.37338
5.28959
5.23073
5.20351
5.21038
5.24465
5.29008
5.31511
5.30113
5.23083
5.07517
530.956
518.051
5.28859
5.75798
6.06688
6.25584
6.38007
6.46704
6.52503
6.55652
6.56328
6.54845
6.51739
6.4746
6.42055
6.3558
6.28085
6.196
6.10132
5.9965
5.88201
5.75944
5.6339
5.51826
5.41771
5.3344
5.27398
5.24319
5.24513
5.2742
5.31514
5.33648
5.31955
5.24612
5.08591
531.041
518.062
5.29773
5.7671
6.07541
6.26406
6.38844
6.47579
6.53422
6.56613
6.57338
6.55927
6.52933
6.48799
6.43568
6.37294
6.30024
6.21787
6.12586
6.02392
5.91251
5.79328
5.67133
5.55944
5.46148
5.37917
5.31775
5.28387
5.28113
5.30495
5.34114
5.35851
5.3384
5.26167
5.09681
531.125
518.073
5.3064
5.77554
6.08315
6.27143
6.39591
6.4836
6.54243
6.57474
6.58245
6.56903
6.54023
6.50031
6.44971
6.38893
6.31842
6.23846
6.14906
6.04992
5.94156
5.82566
5.70743
5.59953
5.50451
5.42366
5.36178
5.32536
5.31833
5.33707
5.3682
5.3813
5.35776
5.27755
5.10792
531.211
518.083
5.3145
5.78322
6.08999
6.27784
6.40239
6.49039
6.54958
6.58226
6.5904
6.57768
6.55002
6.51153
6.4626
6.40373
6.33536
6.25773
6.17086
6.07446
5.96909
5.85653
5.74212
5.63841
5.5466
5.46761
5.40579
5.36736
5.35647
5.37034
5.39629
5.40487
5.37767
5.29379
5.11925
531.296
518.093
5.32214
5.79024
6.09606
6.28342
6.40798
6.49627
6.5558
6.58881
6.59737
6.58534
6.55885
6.52176
6.47448
6.41748
6.35117
6.2758
6.19137
6.09763
5.99519
5.88596
5.77548
5.67607
5.58767
5.51088
5.44961
5.40971
5.39542
5.40463
5.42537
5.42925
5.3982
5.31045
5.13084
531.383
518.103
5.32923
5.79649
6.10124
6.28805
6.4126
6.50114
6.56099
6.59432
6.60329
6.59196
6.56666
6.53098
6.48531
6.43013
6.36583
6.29265
6.2106
6.11945
6.01991
5.91403
5.80763
5.71254
5.62767
5.55332
5.49297
5.45209
5.43484
5.43971
5.45532
5.45441
5.41934
5.32755
5.1427
531.47
518.113
5.33584
5.80208
6.10565
6.29184
6.41635
6.50512
6.56527
6.5989
6.60828
6.59767
6.57359
6.53932
6.49525
6.44184
6.37948
6.30841
6.22866
6.14004
6.04336
5.94088
5.83873
5.74792
5.66663
5.59489
5.53578
5.49436
5.47461
5.47548
5.48607
5.4803
5.4411
5.34509
5.15482
531.559
518.122
5.3419
5.80689
6.10916
6.29468
6.41912
6.5081
6.56853
6.60247
6.61227
6.6024
6.57959
6.54675
6.50426
6.45258
6.39211
6.32309
6.24558
6.15944
6.0656
5.96656
5.86883
5.78227
5.70456
5.63553
5.57789
5.53626
5.51445
5.5117
5.51744
5.50685
5.46343
5.36305
5.16721
531.648
518.131
5.34748
5.81104
6.11188
6.29668
6.42101
6.51019
6.5709
6.60514
6.61538
6.60629
6.5848
6.55339
6.51247
6.46249
6.40386
6.33682
6.26147
6.17774
6.08671
5.99113
5.89794
5.81559
5.74146
5.67523
5.61926
5.57774
5.55425
5.54823
5.54932
5.53397
5.48629
5.38143
5.17984
531.739
518.14
5.3525
5.81441
6.11371
6.29772
6.42192
6.51129
6.57227
6.60682
6.61753
6.60928
6.58916
6.55923
6.51988
6.47158
6.41473
6.34963
6.27637
6.195
6.10673
6.01462
5.92604
5.84787
5.77733
5.71395
5.65979
5.61866
5.5938
5.58488
5.58157
5.56156
5.50962
5.40017
5.1927
531.83
518.149
5.35703
5.81711
6.11475
6.29792
6.42196
6.51149
6.57275
6.60763
6.61885
6.61149
6.59281
6.56437
6.52659
6.47994
6.42485
6.36161
6.2904
6.21132
6.12577
6.03713
5.95319
5.87917
5.8122
5.75169
5.69946
5.65892
5.63302
5.62154
5.61406
5.58951
5.53334
5.41926
5.20579
531.922
518.157
5.361
5.81904
6.1149
6.29717
6.42101
6.5107
6.57224
6.60748
6.61926
6.61287
6.59571
6.5688
6.53258
6.48757
6.43421
6.37281
6.3036
6.22677
6.14392
6.05874
5.97945
5.90953
5.8461
5.78847
5.73824
5.69847
5.6718
5.658
5.64665
5.61774
5.55739
5.43861
5.21904
532.014
518.166
5.36449
5.82031
6.11427
6.29557
6.41918
6.50902
6.57083
6.60648
6.61891
6.61358
6.59797
6.5726
6.53795
6.49456
6.4429
6.38331
6.31606
6.24146
6.16129
6.07959
6.00493
5.93907
5.87911
5.82433
5.77614
5.73726
5.71004
5.69428
5.67922
5.64614
5.58169
5.45822
5.23248
532.107
518.173
5.36743
5.82082
6.11276
6.29303
6.41638
6.50633
6.56844
6.60453
6.61772
6.61365
6.5996
6.57575
6.54266
6.50089
6.45092
6.39312
6.32782
6.25543
6.17796
6.09978
6.02971
5.96785
5.91131
5.85935
5.8132
5.7753
5.74772
5.73024
5.71172
5.67462
5.60617
5.47802
5.24606
532.2
518.181
5.3699
5.82069
6.11049
6.28966
6.41269
6.50275
6.56513
6.6017
6.61575
6.61318
6.60061
6.57828
6.54675
6.5066
6.45833
6.40232
6.33897
6.26881
6.19406
6.1195
6.05394
5.99597
5.94276
5.89355
5.84942
5.81256
5.78475
5.76578
5.74406
5.70312
5.63076
5.49795
5.25975
532.293
518.188
5.37184
5.81983
6.10737
6.28537
6.40806
6.49818
6.56083
6.59786
6.61281
6.61178
6.60079
6.58007
6.55018
6.51169
6.46513
6.41093
6.34955
6.28166
6.20974
6.13897
6.07776
6.02353
5.97355
5.92701
5.88487
5.84908
5.82116
5.80087
5.77615
5.73159
5.65543
5.51799
5.2735
532.385
518.195
5.37333
5.81835
6.10352
6.28028
6.40257
6.49274
6.55565
6.5932
6.60911
6.60973
6.60039
6.58131
6.55306
6.51624
6.4714
6.41902
6.35964
6.29409
6.22512
6.15835
6.10129
6.05063
6.00371
5.95974
5.91955
5.88484
5.85691
5.83549
5.80798
5.75995
5.68009
5.53804
5.28729
532.477
518.202
5.37431
5.81617
6.09885
6.27431
6.39616
6.48634
6.5495
6.58756
6.60448
6.60685
6.59923
6.58187
6.55533
6.52023
6.47714
6.4266
6.36926
6.30612
6.24023
6.17767
6.1246
6.07734
6.03333
5.9918
5.95347
5.91982
5.89194
5.86954
5.83943
5.78813
5.7047
5.5581
5.30109
532.569
518.208
5.37486
5.81341
6.09349
6.26757
6.38893
6.4791
6.54249
6.58109
6.5991
6.6033
6.59748
6.58188
6.55708
6.52372
6.4824
6.43373
6.37844
6.31776
6.25505
6.19681
6.14762
6.10364
6.06243
6.02325
5.98672
5.95416
5.92642
5.90314
5.87056
5.81614
5.72926
5.57818
5.315
532.66
518.215
5.37493
5.80999
6.08736
6.25999
6.38083
6.47094
6.53456
6.57372
6.59287
6.59899
6.59504
6.58128
6.55828
6.52671
6.48719
6.44041
6.38723
6.32904
6.26958
6.21573
6.17031
6.12951
6.09098
6.05403
6.0192
5.98763
5.95997
5.93604
5.90122
5.8439
5.7537
5.59825
5.329
532.75
518.22
5.3746
5.80601
6.08057
6.25169
6.37195
6.46199
6.52581
6.56556
6.58591
6.59403
6.59201
6.58012
6.55897
6.52923
6.49156
6.44671
6.39565
6.34002
6.28387
6.2344
6.19268
6.15495
6.11902
6.08421
6.05104
6.02049
5.99317
5.96843
5.93146
5.87138
5.77798
5.61824
5.34298
532.84
518.226
5.37381
5.80141
6.07307
6.24261
6.36225
6.45218
6.51621
6.55658
6.57819
6.58838
6.58835
6.57839
6.55914
6.53128
6.49551
6.45265
6.40379
6.35078
6.29804
6.25291
6.21477
6.18001
6.14656
6.11383
6.08228
6.05282
6.02603
6.00036
5.96128
5.89854
5.80206
5.6381
5.35689
532.929
518.232
5.37263
5.79628
6.06494
6.23285
6.35182
6.44161
6.50586
6.5469
6.56985
6.58215
6.58412
6.57612
6.5588
6.53288
6.49907
6.45827
6.4117
6.36143
6.31227
6.27135
6.23667
6.20475
6.17369
6.14295
6.11297
6.08461
6.05841
6.03184
5.99069
5.92541
5.82593
5.65783
5.37073
533.017
518.237
5.37104
5.7906
6.05616
6.22237
6.34062
6.43024
6.49471
6.53651
6.56095
6.57536
6.57932
6.57329
6.55795
6.53402
6.50226
6.46362
6.41946
6.37211
6.32673
6.28987
6.25846
6.22924
6.20045
6.17159
6.14313
6.11584
6.09025
6.06279
6.01966
5.95192
5.84954
5.67738
5.38447
533.104
518.242
5.3691
5.78444
6.04682
6.21126
6.32873
6.41813
6.48281
6.52551
6.55181
6.56807
6.57395
6.5699
6.55657
6.53469
6.50506
6.46868
6.42709
6.38286
6.34154
6.30853
6.28022
6.25356
6.2269
6.19984
6.17281
6.14654
6.12156
6.09325
6.04821
5.97812
5.87292
5.69676
5.3981
533.19
518.247
5.36682
5.77781
6.03691
6.1995
6.31612
6.40523
6.47006
6.51359
6.54176
6.55998
6.56788
6.56589
6.55466
6.53491
6.50747
6.47346
6.43456
6.39364
6.35657
6.32729
6.30195
6.2777
6.25305
6.22768
6.20201
6.17672
6.15233
6.12318
6.07629
6.00395
5.896
5.71591
5.4116
533.274
518.251
5.36426
5.77076
6.02649
6.18716
6.30288
6.39164
6.45658
6.50098
6.53107
6.55129
6.56126
6.56136
6.55226
6.53468
6.5095
6.47794
6.44184
6.40437
6.37169
6.34605
6.32358
6.30166
6.27894
6.25518
6.23079
6.20642
6.18259
6.15262
6.10396
6.02945
5.91884
5.73489
5.42498
533.358
518.256
5.3614
5.76327
6.01553
6.17422
6.28896
6.37731
6.44232
6.48758
6.51965
6.54193
6.55401
6.55629
6.54938
6.53403
6.51118
6.48213
6.44894
6.41505
6.3868
6.36471
6.34505
6.32537
6.30453
6.2823
6.25914
6.23564
6.21234
6.18155
6.13118
6.05456
5.94135
5.75362
5.43819
533.44
518.26
5.35829
5.75539
6.00408
6.16071
6.27442
6.36228
6.42732
6.47346
6.50754
6.53192
6.54618
6.55068
6.54602
6.53297
6.51253
6.4861
6.45592
6.42576
6.40189
6.38327
6.36632
6.34884
6.32979
6.30905
6.28706
6.2644
6.24162
6.21004
6.15801
6.07938
5.96364
5.77217
5.45128
533.522
518.265
5.3549
5.74708
5.99209
6.1466
6.25921
6.34654
6.41159
6.45862
6.49476
6.52128
6.53777
6.54455
6.54222
6.53155
6.5136
6.4899
6.4629
6.43663
6.41703
6.40173
6.38739
6.37202
6.35471
6.33541
6.31455
6.29269
6.27041
6.23803
6.18439
6.1038
5.98559
5.79046
5.46418
533.601
518.269
5.35124
5.73834
5.97959
6.13191
6.24336
6.33011
6.39515
6.4431
6.48131
6.51001
6.52876
6.53788
6.53795
6.52976
6.51442
6.4936
6.46996
6.44785
6.43231
6.42016
6.4083
6.39493
6.37928
6.36136
6.3416
6.32053
6.29875
6.26562
6.21044
6.12797
6.00735
5.80861
5.477
533.68
518.273
5.34728
5.72916
5.96654
6.11659
6.22683
6.31297
6.37803
6.42696
6.46729
6.49816
6.51919
6.5307
6.53323
6.5276
6.51499
6.49721
6.47714
6.45939
6.44773
6.43856
6.42905
6.41757
6.40351
6.38691
6.3682
6.34788
6.32658
6.2927
6.23603
6.15174
6.02876
5.82648
5.48962
533.756
518.277
5.34307
5.71958
5.95296
6.10064
6.20959
6.29508
6.36023
6.41028
6.45272
6.48576
6.50909
6.52301
6.52805
6.52506
6.51529
6.50067
6.48435
6.47114
6.46321
6.45691
6.44963
6.43996
6.4274
6.41205
6.39434
6.37478
6.35395
6.31939
6.26132
6.17529
6.05003
5.84425
5.50219
533.832
518.28
5.33867
5.7096
5.93883
6.08401
6.19156
6.27636
6.34172
6.39328
6.43766
6.47283
6.49849
6.51486
6.52248
6.52219
6.51534
6.50401
6.49158
6.48296
6.47866
6.47512
6.46999
6.46206
6.45093
6.43679
6.42012
6.40157
6.38089
6.34556
6.28613
6.19843
6.07094
5.86174
5.51456
533.905
518.284
5.33415
5.6993
5.92419
6.06669
6.17266
6.25665
6.32221
6.37547
6.42185
6.4593
6.48739
6.50632
6.51658
6.51907
6.51522
6.5073
6.4989
6.49483
6.49405
6.49319
6.49016
6.48391
6.47418
6.46125
6.44567
6.42819
6.40757
6.37144
6.31068
6.22137
6.09172
5.87916
5.5269
533.979
518.288
5.32954
5.68873
5.90905
6.04865
6.15285
6.23587
6.30162
6.3567
6.40528
6.44519
6.47587
6.49745
6.51045
6.5158
6.51507
6.51069
6.50649
6.50683
6.50942
6.51113
6.51011
6.50548
6.4971
6.48535
6.47083
6.45439
6.43378
6.39682
6.33477
6.24389
6.11214
5.89628
5.53902
534.049
518.292
5.32499
5.67798
5.89344
6.02988
6.13202
6.21386
6.27978
6.33683
6.38783
6.4304
6.46387
6.48826
6.50411
6.51246
6.51498
6.51432
6.51453
6.51907
6.52484
6.529
6.52991
6.52685
6.5198
6.5092
6.49575
6.48034
6.45971
6.42193
6.35862
6.26624
6.13242
5.91332
5.55109
534.119
518.296
5.32053
5.66709
5.87741
6.01035
6.11011
6.19049
6.2565
6.31565
6.36929
6.4148
6.45128
6.47869
6.49756
6.50904
6.51498
6.51823
6.52305
6.53155
6.54032
6.5468
6.54954
6.54797
6.54219
6.53269
6.52025
6.50582
6.48514
6.44654
6.382
6.28816
6.15234
5.93004
5.5629
534.186
518.301
5.31627
5.65616
5.861
5.99009
6.08707
6.16566
6.23163
6.293
6.3495
6.39823
6.43799
6.46863
6.49071
6.50548
6.51499
6.52233
6.53188
6.54417
6.55583
6.56454
6.56905
6.56894
6.56439
6.55597
6.54452
6.53106
6.51031
6.47088
6.40516
6.3099
6.17211
5.94666
5.57463
534.254
518.306
5.31225
5.64523
5.84427
5.96913
6.06286
6.13925
6.205
6.26862
6.32822
6.38046
6.4238
6.45793
6.48344
6.5017
6.51496
6.52655
6.54084
6.55681
6.57125
6.58211
6.58834
6.58964
6.58627
6.57889
6.56837
6.55582
6.53496
6.49472
6.42783
6.33119
6.19148
5.96293
5.58607
534.319
518.311
5.30853
5.63441
5.82733
5.94754
6.03753
6.11127
6.17655
6.24241
6.30531
6.36135
6.40856
6.44645
6.47563
6.49761
6.51483
6.53089
6.54986
6.56939
6.58654
6.59952
6.60745
6.61015
6.60795
6.60159
6.59199
6.58032
6.55934
6.51829
6.45028
6.3523
6.2107
5.97907
5.59737
534.385
518.317
5.30518
5.62378
5.81027
5.92539
6.01108
6.08167
6.14625
6.2143
6.28061
6.34067
6.39203
6.43397
6.46711
6.49309
6.51456
6.53535
6.55885
6.58181
6.60158
6.61664
6.62625
6.63032
6.62928
6.62391
6.61519
6.60435
6.58321
6.54135
6.47222
6.37293
6.22947
5.9948
5.60833
534.448
518.323
5.3023
5.61348
5.79322
5.90277
5.98355
6.05043
6.11406
6.18417
6.25396
6.31824
6.37401
6.42029
6.45768
6.48797
6.51402
6.53985
6.56774
6.59401
6.61636
6.63347
6.64475
6.65022
6.65035
6.64597
6.63812
6.6281
6.60681
6.56415
6.49395
6.39338
6.24808
6.0104
5.61913
534.512
518.33
5.29996
5.6036
5.77629
5.87978
5.95494
6.01753
6.08007
6.15188
6.22519
6.29389
6.35433
6.40522
6.44714
6.48202
6.51294
6.54405
6.57622
6.60575
6.63065
6.64982
6.6628
6.66968
6.67099
6.66761
6.6606
6.65136
6.62986
6.58639
6.51513
6.4133
6.26619
6.02553
5.62954
534.573
518.337
5.29821
5.59425
5.75965
5.85656
5.92529
5.98279
6.04387
6.11711
6.19402
6.26739
6.33278
6.38856
6.43528
6.47501
6.51107
6.54762
6.58404
6.61684
6.64433
6.66562
6.68036
6.68872
6.69126
6.68892
6.68286
6.67434
6.65266
6.6084
6.53611
6.43304
6.28414
6.0405
5.63977
534.637
518.344
5.29715
5.58561
5.74352
5.83331
5.89479
5.9463
6.00528
6.07974
6.16034
6.2386
6.3092
6.37013
6.4219
6.46676
6.50822
6.55023
6.59088
6.62698
6.65713
6.6806
6.69718
6.70708
6.71094
6.70975
6.70485
6.69679
6.67482
6.62977
6.55648
6.45219
6.30152
6.05495
5.64955
534.696
518.353
5.29684
5.57781
5.72806
5.81028
5.8636
5.90819
5.96439
6.03976
6.12403
6.20736
6.28341
6.34975
6.40686
6.45712
6.50427
6.55172
6.59658
6.63602
6.66893
6.69473
6.71329
6.72488
6.73021
6.73034
6.72672
6.71909
6.69678
6.65093
6.57664
6.47115
6.31873
6.06924
5.65914
534.76
518.361
5.29727
5.57087
5.71333
5.78752
5.83188
5.86854
5.9212
5.9971
6.08501
6.17354
6.25526
6.32726
6.38996
6.44592
6.49907
6.55181
6.60084
6.64368
6.67944
6.70768
6.72834
6.74176
6.74868
6.75022
6.74794
6.74071
6.71804
6.67139
6.59612
6.48946
6.33531
6.08294
5.66823
534.818
518.37
5.29863
5.56502
5.69957
5.76527
5.79981
5.82752
5.87581
5.95191
6.04338
6.13716
6.22468
6.30252
6.37104
6.43295
6.49234
6.55031
6.60352
6.64984
6.68858
6.71943
6.74239
6.75784
6.76654
6.76967
6.76883
6.76205
6.73905
6.69161
6.6154
6.50758
6.35172
6.09647
5.67714
534.881
518.38
5.30095
5.56028
5.68682
5.74356
5.76745
5.78538
5.8284
5.90426
5.99914
6.0982
6.19162
6.27544
6.34995
6.418
6.48375
6.54689
6.6043
6.65418
6.69603
6.72963
6.75504
6.77267
6.78329
6.78811
6.78879
6.78249
6.75919
6.71101
6.63389
6.52496
6.36741
6.10934
5.68548
534.939
518.39
5.30439
5.5568
5.67521
5.72255
5.73485
5.74188
5.77887
5.85414
5.95232
6.05667
6.15606
6.24597
6.3266
6.40096
6.4731
6.5414
6.60308
6.65666
6.70179
6.73835
6.76643
6.78645
6.79921
6.80592
6.80824
6.80252
6.77899
6.73013
6.65213
6.54211
6.3829
6.12202
5.69363
535.003
518.402
5.30889
5.55451
5.66475
5.70228
5.70212
5.69716
5.72734
5.80147
5.90288
6.0126
6.11805
6.21413
6.30097
6.38175
6.46017
6.53357
6.59957
6.65694
6.7055
6.74518
6.7761
6.79868
6.81372
6.82243
6.82648
6.82141
6.79773
6.74826
6.66947
6.55842
6.39759
6.13396
5.70112
535.061
518.413
5.31432
5.55331
5.65546
5.68295
5.66949
5.65129
5.67346
5.74595
5.85055
5.96579
6.07748
6.17988
6.27308
6.36043
6.44494
6.52337
6.59374
6.65505
6.70723
6.75024
6.78424
6.80962
6.82718
6.83809
6.84404
6.83974
6.81599
6.766
6.68648
6.57443
6.41202
6.14566
5.70838
535.125
518.426
5.32035
5.55296
5.64729
5.66472
5.63736
5.60465
5.61741
5.68742
5.79493
5.91582
6.03397
6.14291
6.24265
6.33671
6.42712
6.51052
6.58528
6.65062
6.70654
6.75306
6.7903
6.81866
6.83889
6.85216
6.8601
6.85668
6.833
6.78259
6.70244
6.58949
6.42557
6.15656
5.71492
535.183
518.438
5.32667
5.55322
5.64017
5.6478
5.60626
5.55789
5.55961
5.62586
5.73573
5.86223
5.98705
6.10276
6.20927
6.31023
6.40649
6.4949
6.57419
6.64373
6.70361
6.75386
6.7946
6.82618
6.84933
6.86515
6.87526
6.87287
6.84936
6.79865
6.71795
6.60414
6.43875
6.16713
5.72115
535.248
518.451
5.33293
5.55377
5.63389
5.63219
5.57655
5.51166
5.50066
5.56148
5.6728
5.80467
5.93627
6.05897
6.17244
6.28042
6.38256
6.47608
6.56002
6.63391
6.69792
6.75208
6.79649
6.83148
6.85773
6.87627
6.88867
6.88743
6.86425
6.81339
6.73227
6.61773
6.45098
6.17683
5.72661
535.305
518.462
5.339
5.55442
5.62822
5.61777
5.54845
5.46669
5.44146
5.495
5.60645
5.74313
5.88145
6.01129
6.13192
6.24707
6.35524
6.45407
6.54289
6.62139
6.68979
6.74812
6.79647
6.8351
6.86464
6.88608
6.90097
6.90106
6.87834
6.82743
6.74598
6.63076
6.46269
6.18606
5.73165
535.372
518.474
5.3448
5.55492
5.6228
5.60413
5.52163
5.42303
5.38258
5.42724
5.53742
5.6781
5.8228
5.95972
6.08756
6.20988
6.32416
6.42844
6.52233
6.60563
6.6786
6.74128
6.79373
6.83621
6.86929
6.89399
6.9113
6.91282
6.89074
6.83998
6.75838
6.64265
6.47338
6.19439
5.73591
535.43
518.486
5.35039
5.55516
5.61735
5.59089
5.49575
5.38058
5.32438
5.35891
5.46654
5.61034
5.76096
5.90476
6.03975
6.16918
6.28965
6.39957
6.49876
6.58711