/*--------------------------------*- C++ -*----------------------------------*\
| =========                 |                                                 |
| \\      /  F ield         | OpenFOAM: The Open Source CFD Toolbox           |
|  \\    /   O peration     | Version:  v2006                                 |
|   \\  /    A nd           | Website:  www.openfoam.com                      |
|    \\/     M anipulation  |                                                 |
\*---------------------------------------------------------------------------*/
FoamFile
{
    version     2.0;
    format      ascii;
    class       volVectorField;
    location    "70";
    object      U;
}
// * * * * * * * * * * * * * * * * * * * * * * * * * * * * * * * * * * * * * //

dimensions      [0 1 -1 0 0 0 0];


internalField   nonuniform List<vector> 
78750
(
(7.72187e-05 -0.00110789 0.000534004)
(0.000572176 -0.00250166 0.00145632)
(0.00144242 -0.00339554 0.00222619)
(0.00254183 -0.00399379 0.00285458)
(0.0037906 -0.0044076 0.00335597)
(0.00514243 -0.00469544 0.00374701)
(0.00656248 -0.00488599 0.00404499)
(0.00801949 -0.00499176 0.00426625)
(0.00948426 -0.0050175 0.00442497)
(0.0109295 -0.00496515 0.00453264)
(0.0123296 -0.00483651 0.00459815)
(0.0136612 -0.00463441 0.00462797)
(0.0149029 -0.00436229 0.00462643)
(0.0160346 -0.00401785 0.00459791)
(0.0170394 -0.00360537 0.00454516)
(0.0179015 -0.00313171 0.00447032)
(0.0186069 -0.00260466 0.00437521)
(0.0191441 -0.0020324 0.00426146)
(0.0195036 -0.00142338 0.00413077)
(0.0196784 -0.000786359 0.00398497)
(0.0196643 -0.000130548 0.00382611)
(0.0194577 0.000534231 0.00365638)
(0.019055 0.00119758 0.00347844)
(0.0184565 0.00184895 0.00329582)
(0.0176675 0.0024768 0.00311311)
(0.0166965 0.0030679 0.00293631)
(0.0155562 0.00360597 0.00277366)
(0.0142615 0.00406568 0.00263466)
(0.0128325 0.00442781 0.00253292)
(0.0112869 0.00470789 0.00248228)
(0.00962184 0.00502866 0.00247899)
(0.00776892 0.00570111 0.00245638)
(0.0055791 0.00702058 0.00223738)
(0.00307402 0.00825416 0.00160713)
(0.000750402 0.00608825 0.000576904)
(1.32675e-05 -0.0031759 0.000812155)
(0.000447921 -0.00770773 0.00207552)
(0.00123387 -0.0109221 0.00296976)
(0.00230474 -0.0132876 0.00359171)
(0.0035874 -0.0150473 0.00402497)
(0.00501709 -0.016317 0.00432942)
(0.00653426 -0.0171563 0.00454621)
(0.00808947 -0.0176056 0.00470339)
(0.00964253 -0.0176984 0.00481953)
(0.0111599 -0.0174655 0.00490633)
(0.0126137 -0.016936 0.00497036)
(0.0139817 -0.0161393 0.00501342)
(0.0152336 -0.0151116 0.00502904)
(0.0163575 -0.0138822 0.00501842)
(0.0173467 -0.0124666 0.00498928)
(0.0181814 -0.010886 0.00494291)
(0.0188498 -0.00916225 0.00487987)
(0.0193429 -0.00731648 0.0048005)
(0.0196528 -0.00536994 0.00470482)
(0.0197728 -0.00334391 0.00459242)
(0.0196976 -0.00125997 0.00446265)
(0.0194257 0.000859396 0.0043146)
(0.0189579 0.00298985 0.00414696)
(0.018296 0.00510512 0.00395867)
(0.0174422 0.00717564 0.00374965)
(0.016398 0.00916641 0.00352167)
(0.0151795 0.011032 0.00327796)
(0.013794 0.0127524 0.00303419)
(0.0122343 0.0143493 0.00281725)
(0.0105101 0.0159185 0.00265156)
(0.0086109 0.0177403 0.00255077)
(0.00649452 0.020263 0.00247758)
(0.00421213 0.0233567 0.00228004)
(0.00200371 0.0244956 0.00172745)
(0.000248179 0.0161563 0.00070179)
(2.2093e-05 -0.00485988 0.000936603)
(0.000493828 -0.0125075 0.00228695)
(0.0013359 -0.0183696 0.00316468)
(0.0024571 -0.0227595 0.00371719)
(0.00374401 -0.0258844 0.00405963)
(0.00511106 -0.0279566 0.00427395)
(0.00650022 -0.0291656 0.00441323)
(0.00787215 -0.0296592 0.00450859)
(0.00919921 -0.0295479 0.0045769)
(0.0104617 -0.0289161 0.00462677)
(0.0116435 -0.0278349 0.00465996)
(0.0127302 -0.0263645 0.00467656)
(0.0137131 -0.024551 0.00467977)
(0.0145825 -0.0224337 0.00467201)
(0.0153259 -0.020048 0.00465397)
(0.0159347 -0.0174263 0.00462667)
(0.0164018 -0.0145998 0.00459137)
(0.0167208 -0.0115989 0.00454943)
(0.0168866 -0.00845368 0.00450182)
(0.016895 -0.00519481 0.00444884)
(0.0167425 -0.00185546 0.00438917)
(0.0164278 0.00152286 0.00431822)
(0.0159522 0.00490553 0.00423287)
(0.0153142 0.00827133 0.00413277)
(0.0145145 0.0115895 0.00401374)
(0.0135568 0.0148174 0.00386867)
(0.0124468 0.0179136 0.0036926)
(0.0111932 0.0208575 0.00348819)
(0.00980386 0.0236798 0.00326727)
(0.00828122 0.0265234 0.00304938)
(0.00660786 0.0296776 0.00284826)
(0.0047667 0.0333148 0.00263641)
(0.00294045 0.0364581 0.0023102)
(0.00129115 0.0356634 0.00169434)
(0.000114624 0.021505 0.000674507)
(3.49936e-05 -0.00705285 0.000978684)
(0.000558774 -0.0181705 0.00223545)
(0.00142413 -0.0264749 0.00296242)
(0.00250759 -0.0323107 0.0033759)
(0.00367405 -0.0360572 0.00361154)
(0.00484326 -0.0382188 0.00375006)
(0.0059824 -0.0392313 0.00383727)
(0.00707668 -0.0393798 0.00389655)
(0.00811263 -0.0388397 0.00393563)
(0.00908511 -0.0377228 0.00395853)
(0.0099896 -0.0361026 0.00396811)
(0.0108158 -0.0340405 0.00396412)
(0.0115573 -0.0315879 0.00394532)
(0.0122071 -0.0287828 0.00391333)
(0.0127559 -0.0256599 0.00387081)
(0.0131946 -0.0222557 0.00382083)
(0.0135162 -0.0186078 0.00376716)
(0.0137153 -0.0147546 0.00371396)
(0.0137888 -0.0107336 0.00366558)
(0.0137352 -0.00658051 0.00362606)
(0.0135536 -0.00232861 0.00359828)
(0.0132433 0.00199005 0.00358326)
(0.012805 0.00634205 0.00357937)
(0.0122384 0.0106892 0.00358128)
(0.0115435 0.0149846 0.00357913)
(0.0107229 0.0191736 0.00355933)
(0.00978178 0.0232074 0.00350783)
(0.00872767 0.0270744 0.00341563)
(0.00756727 0.030848 0.00328304)
(0.00629915 0.0347231 0.00311778)
(0.00490953 0.0389307 0.00292144)
(0.00341323 0.0432404 0.00266589)
(0.00202427 0.0459987 0.00228687)
(0.000829192 0.0433517 0.00165804)
(3.93006e-05 0.0247175 0.000659726)
(3.68722e-05 -0.00925928 0.000871895)
(0.000513875 -0.0235374 0.00190794)
(0.00126367 -0.0337765 0.00246364)
(0.00217182 -0.0405381 0.00276332)
(0.00311911 -0.0445296 0.00292553)
(0.00404896 -0.0466063 0.0030133)
(0.00494823 -0.0474109 0.00306069)
(0.00581738 -0.0473031 0.00308512)
(0.00665542 -0.0464635 0.00309018)
(0.00745395 -0.044998 0.00307616)
(0.00820092 -0.0429917 0.00304336)
(0.00889271 -0.0404984 0.00299315)
(0.00952284 -0.0375429 0.00292904)
(0.0100752 -0.0341585 0.00285399)
(0.010536 -0.0303855 0.00277252)
(0.0108939 -0.0262728 0.00269081)
(0.0111407 -0.0218762 0.00261641)
(0.0112721 -0.0172547 0.0025579)
(0.0112874 -0.0124646 0.00252425)
(0.0111896 -0.00755451 0.00252377)
(0.0109837 -0.00256249 0.00256293)
(0.010676 0.00248253 0.00264475)
(0.0102725 0.00755558 0.00276677)
(0.00977785 0.0126274 0.00291897)
(0.00919486 0.0176566 0.00308265)
(0.00852455 0.0225888 0.00323174)
(0.00776675 0.0273756 0.00333818)
(0.00692038 0.0320172 0.00338002)
(0.00598209 0.0366112 0.00334716)
(0.00494372 0.0413477 0.00323845)
(0.00379698 0.0463082 0.00304975)
(0.00259162 0.0508572 0.00276251)
(0.00150579 0.0530212 0.0023421)
(0.000591177 0.0486693 0.00168986)
(2.32742e-05 0.0266835 0.000668341)
(3.88279e-05 -0.0111634 0.000660983)
(0.000446885 -0.0279747 0.00144313)
(0.0010675 -0.039649 0.00187846)
(0.00180797 -0.0470395 0.00212747)
(0.00257191 -0.0511666 0.00226365)
(0.00331784 -0.0531691 0.00232932)
(0.00404275 -0.0538323 0.00235099)
(0.00475737 -0.0535436 0.00234374)
(0.00545849 -0.0524694 0.00231107)
(0.00612788 -0.050724 0.00225499)
(0.00676247 -0.048379 0.00217642)
(0.00735853 -0.0454562 0.00207545)
(0.00789938 -0.0419765 0.0019537)
(0.00836869 -0.0379774 0.00181375)
(0.00875274 -0.0335162 0.00165998)
(0.00904054 -0.0286701 0.00149908)
(0.00922508 -0.023531 0.00134053)
(0.00930386 -0.0181945 0.00119669)
(0.00927867 -0.0127492 0.00108262)
(0.00915478 -0.00726715 0.00101551)
(0.00893992 -0.0017983 0.00101303)
(0.00864374 0.00362937 0.00109029)
(0.00827652 0.00900569 0.00125565)
(0.00784716 0.0143308 0.00150587)
(0.00736182 0.0196048 0.00182195)
(0.0068223 0.0248227 0.00216849)
(0.00622506 0.0299868 0.00249928)
(0.00556124 0.0351427 0.00276848)
(0.00481784 0.0404108 0.00294046)
(0.00397999 0.0459346 0.00299078)
(0.00304086 0.0515926 0.00290009)
(0.00206746 0.0563697 0.00265384)
(0.00119716 0.0581156 0.00223884)
(0.000464259 0.0524482 0.00158608)
(2.22546e-05 0.0280593 0.000594407)
(2.89342e-05 -0.0127624 0.000544584)
(0.000351001 -0.0316704 0.00123045)
(0.000846451 -0.0445374 0.0016514)
(0.00144911 -0.0524804 0.00191392)
(0.00207875 -0.0567734 0.00206576)
(0.00270053 -0.0587727 0.00214356)
(0.00331335 -0.0593616 0.00217405)
(0.00392513 -0.0589487 0.00217333)
(0.00452703 -0.0577054 0.00214947)
(0.00510572 -0.0557354 0.00210425)
(0.00566057 -0.053076 0.00203645)
(0.00618049 -0.0497352 0.00194666)
(0.00665035 -0.0457335 0.00183554)
(0.0070568 -0.0411158 0.00170397)
(0.007388 -0.0359607 0.00155338)
(0.00763494 -0.030377 0.00138641)
(0.00779236 -0.0244911 0.00120751)
(0.00785897 -0.0184318 0.00102414)
(0.00783722 -0.0123163 0.000847917)
(0.0077324 -0.00623995 0.000695316)
(0.0075517 -0.000270906 0.000587334)
(0.00730436 0.00555025 0.000547421)
(0.00700038 0.0112097 0.000597213)
(0.00664796 0.0167204 0.000750339)
(0.00625256 0.0221163 0.00100564)
(0.005815 0.0274478 0.00134231)
(0.00532986 0.0327883 0.00172016)
(0.00478542 0.0382508 0.00208647)
(0.00416557 0.0439865 0.00238529)
(0.00345373 0.0500813 0.00256321)
(0.00264444 0.0562123 0.00257417)
(0.00181217 0.0610665 0.00239378)
(0.00106182 0.0624151 0.00201843)
(0.000419966 0.0556067 0.00140345)
(2.78702e-05 0.0292685 0.000501879)
(2.4213e-05 -0.0140344 0.000425124)
(0.000290522 -0.0346602 0.00100435)
(0.00070975 -0.0485813 0.00139143)
(0.00122957 -0.0570931 0.00164642)
(0.00177894 -0.0616262 0.00179737)
(0.00232619 -0.0636951 0.001875)
(0.00287131 -0.0642679 0.00190447)
(0.0034168 -0.0637831 0.00189989)
(0.00395351 -0.0624194 0.00187079)
(0.00447334 -0.0602582 0.00181787)
(0.00497134 -0.0573177 0.00174251)
(0.00543624 -0.0536035 0.00164646)
(0.0058568 -0.0491366 0.00153111)
(0.00622189 -0.0439746 0.00139783)
(0.00652176 -0.0382184 0.00124819)
(0.00674889 -0.0320037 0.00108415)
(0.00689838 -0.0254856 0.000908767)
(0.00696832 -0.0188219 0.000727321)
(0.00695989 -0.0121557 0.000548579)
(0.00687743 -0.00560303 0.000385692)
(0.00672839 0.000753029 0.000256317)
(0.00652119 0.00686495 0.000181498)
(0.0062651 0.0127237 0.000183107)
(0.00596938 0.0183603 0.000279344)
(0.00563963 0.0238422 0.000478919)
(0.00527541 0.0292698 0.000775247)
(0.00486908 0.0347784 0.00114281)
(0.0044063 0.0405413 0.00153758)
(0.00386856 0.0467381 0.00190022)
(0.0032374 0.0534046 0.00216124)
(0.00250535 0.0600453 0.00225275)
(0.00174624 0.0650964 0.00213562)
(0.00104806 0.0662306 0.00180929)
(0.00043229 0.0585484 0.00124463)
(3.75493e-05 0.030511 0.000432002)
(1.81029e-05 -0.0151255 0.000388913)
(0.000248535 -0.0372999 0.000963707)
(0.000623352 -0.0522217 0.00137123)
(0.00109744 -0.0613006 0.00164563)
(0.00160326 -0.0660915 0.00180885)
(0.00210943 -0.0682492 0.00189398)
(0.00261653 -0.0688213 0.00192935)
(0.00312286 -0.068272 0.00193)
(0.00362006 -0.0667854 0.00190485)
(0.00410147 -0.0644288 0.00185701)
(0.00455987 -0.0612148 0.00178941)
(0.00498704 -0.0571421 0.00170361)
(0.00537385 -0.0522324 0.00160007)
(0.00571153 -0.0465523 0.00147838)
(0.00599263 -0.0402173 0.00133749)
(0.00621139 -0.033381 0.00117639)
(0.00636355 -0.0262187 0.000995128)
(0.00644636 -0.0189111 0.000796122)
(0.00645905 -0.0116273 0.00058588)
(0.00640332 -0.00451059 0.00037638)
(0.00628379 0.00232693 0.000185686)
(0.0061071 0.00881257 3.69803e-05)
(0.00588186 0.0149261 -4.43491e-05)
(0.00561685 0.0207081 -3.50634e-05)
(0.0053181 0.0262583 8.09701e-05)
(0.00498639 0.0317302 0.00030768)
(0.00461534 0.0373263 0.000632055)
(0.0041912 0.0432845 0.00102016)
(0.00369519 0.0498178 0.00141451)
(0.00310776 0.0569212 0.00173592)
(0.00241904 0.0639515 0.00189857)
(0.00170169 0.0691383 0.00184691)
(0.00103152 0.0700595 0.00157906)
(0.000429985 0.0615443 0.0010793)
(3.76505e-05 0.0318324 0.000365808)
(1.62971e-05 -0.016129 0.000358316)
(0.000230273 -0.0397838 0.000905427)
(0.000583421 -0.0556978 0.00129857)
(0.00103231 -0.0653644 0.00156368)
(0.00151146 -0.0704402 0.00172104)
(0.00199028 -0.0727094 0.00180258)
(0.00246939 -0.0732991 0.00183592)
(0.00294706 -0.0727023 0.00183625)
(0.00341484 -0.0711092 0.00181127)
(0.00386566 -0.0685833 0.00176592)
(0.00429301 -0.065132 0.00170358)
(0.00468939 -0.060752 0.00162654)
(0.00504698 -0.0554689 0.00153602)
(0.00535872 -0.0493591 0.00143215)
(0.00561907 -0.0425502 0.00131392)
(0.00582393 -0.0352083 0.00117967)
(0.00597036 -0.027521 0.00102767)
(0.00605636 -0.0196804 0.000857151)
(0.0060811 -0.0118688 0.00066968)
(0.00604505 -0.00424532 0.000471077)
(0.00595088 0.00305988 0.000273353)
(0.00580362 0.00995367 9.5394e-05)
(0.00560968 0.0164007 -3.85204e-05)
(0.00537578 0.0224383 -0.000102277)
(0.00510682 0.0281803 -7.27117e-05)
(0.00480321 0.0338137 6.52351e-05)
(0.00445894 0.0395909 0.000313082)
(0.00406138 0.0458045 0.000651721)
(0.00359284 0.0527021 0.0010332)
(0.00303358 0.0602535 0.00137747)
(0.00237201 0.0676939 0.00158693)
(0.00167966 0.0730649 0.00158968)
(0.00102481 0.0738304 0.00137786)
(0.000429313 0.0645474 0.000943363)
(3.81271e-05 0.0331757 0.000317164)
(1.5236e-05 -0.0170654 0.000351401)
(0.000224263 -0.0421198 0.000902743)
(0.000570477 -0.0589754 0.00130395)
(0.00100913 -0.069192 0.00157348)
(0.00147475 -0.0745275 0.0017315)
(0.00193752 -0.0768916 0.00181217)
(0.00239875 -0.0774865 0.0018444)
(0.00285692 -0.0768307 0.00184402)
(0.00330353 -0.0751193 0.00181926)
(0.00373162 -0.0724133 0.00177528)
(0.00413505 -0.0687163 0.00171565)
(0.00450706 -0.0640245 0.00164258)
(0.00484089 -0.0583685 0.00155691)
(0.00513089 -0.0518338 0.00145805)
(0.00537289 -0.0445591 0.00134438)
(0.00556396 -0.0367213 0.0012138)
(0.00570199 -0.0285184 0.00106457)
(0.00578543 -0.0201536 0.000896103)
(0.00581338 -0.0118214 0.000709792)
(0.00578563 -0.00369613 0.000510099)
(0.00570355 0.00407206 0.000306037)
(0.00557051 0.0113714 0.00011243)
(0.00539193 0.0181532 -5.03237e-05)
(0.00517342 0.0244534 -0.000158355)
(0.00491914 0.0303994 -0.000187688)
(0.00462942 0.0362076 -0.00011816)
(0.00429887 0.0421723 6.16177e-05)
(0.00391586 0.0486311 0.000345784)
(0.00346418 0.0558576 0.000698814)
(0.00292506 0.0637942 0.00104646)
(0.00228662 0.0715652 0.00128669)
(0.00162026 0.0770489 0.00133506)
(0.000986694 0.0776108 0.00117648)
(0.000408973 0.0675246 0.000807832)
(3.40739e-05 0.0344922 0.000268131)
(1.54574e-05 -0.0180377 0.000351278)
(0.00022258 -0.0445448 0.000900145)
(0.000562641 -0.0623589 0.00129268)
(0.000989823 -0.0731174 0.00155091)
(0.00143957 -0.0786985 0.00169941)
(0.0018837 -0.081148 0.00177379)
(0.00232446 -0.081743 0.00180253)
(0.00276066 -0.0810272 0.00180118)
(0.00318401 -0.0792009 0.00177802)
(0.00358775 -0.0763248 0.00173854)
(0.00396603 -0.0724015 0.00168673)
(0.00431266 -0.0674297 0.00162518)
(0.00462184 -0.0614467 0.00155481)
(0.00488912 -0.0545471 0.00147466)
(0.00511161 -0.0468783 0.00138213)
(0.00528759 -0.0386235 0.00127361)
(0.00541599 -0.0299855 0.00114546)
(0.00549598 -0.0211711 0.000995086)
(0.00552701 -0.0123792 0.000821989)
(0.00550869 -0.00379157 0.000628903)
(0.00544141 0.00442925 0.000422885)
(0.00532689 0.0121548 0.000216493)
(0.00516816 0.0193224 2.80919e-05)
(0.00496928 0.025961 -0.000119661)
(0.00473325 0.0322023 -0.00020252)
(0.00445968 0.0382811 -0.000197465)
(0.00414335 0.0445219 -8.66758e-05)
(0.0037733 0.0512967 0.000134232)
(0.00333531 0.0588978 0.000441952)
(0.00281305 0.0672395 0.000771675)
(0.00219565 0.0753419 0.00102282)
(0.00155488 0.080933 0.00110294)
(0.000944621 0.0812876 0.00098969)
(0.00038773 0.0704054 0.000682226)
(3.1221e-05 0.0357484 0.000223086)
(1.60104e-05 -0.0189615 0.000348785)
(0.00022397 -0.046824 0.00089376)
(0.000561699 -0.0655158 0.00128115)
(0.000981534 -0.0767575 0.00153265)
(0.00141928 -0.0825489 0.0016746)
(0.00184841 -0.0850639 0.001744)
(0.00227217 -0.0856461 0.00176933)
(0.00268974 -0.0848602 0.00176599)
(0.003093 -0.0829103 0.00174235)
(0.00347539 -0.0798559 0.00170412)
(0.00383139 -0.0756995 0.0016555)
(0.00415536 -0.0704436 0.00159925)
(0.00444238 -0.0641339 0.00153621)
(0.00468899 -0.0568754 0.00146523)
(0.00489328 -0.0488246 0.00138333)
(0.00505433 -0.0401722 0.00128651)
(0.00517165 -0.0311256 0.00117058)
(0.00524487 -0.0218955 0.00103232)
(0.00527368 -0.0126844 0.000870411)
(0.00525771 -0.00367929 0.000686484)
(0.00519703 0.00494837 0.000485962)
(0.0050926 0.0130586 0.000278969)
(0.00494632 0.0205799 8.08414e-05)
(0.00476032 0.027539 -8.84633e-05)
(0.00453655 0.0340741 -0.000205991)
(0.0042745 0.0404357 -0.000247969)
(0.00396875 0.0469721 -0.000192864)
(0.00360937 0.0540783 -2.8994e-05)
(0.00318347 0.0620523 0.000230741)
(0.00267673 0.0707682 0.000532265)
(0.00208116 0.079141 0.000780853)
(0.00146944 0.08477 0.000881275)
(0.000888051 0.0848655 0.000806097)
(0.000359199 0.0731593 0.000556218)
(2.70884e-05 0.0369266 0.000176766)
(1.62821e-05 -0.0199435 0.000355532)
(0.000223121 -0.0492338 0.00090428)
(0.000554632 -0.0688237 0.00128505)
(0.000962401 -0.0805335 0.00152486)
(0.00138351 -0.0865114 0.00165602)
(0.00179358 -0.0890748 0.00171804)
(0.00219686 -0.089634 0.00173928)
(0.00259278 -0.0887721 0.00173481)
(0.00297348 -0.0866969 0.00171308)
(0.00333272 -0.0834685 0.00168002)
(0.00366532 -0.0790917 0.00164015)
(0.00396633 -0.0735751 0.00159641)
(0.00423171 -0.0669734 0.00154945)
(0.00445906 -0.0594004 0.00149742)
(0.00464739 -0.0510192 0.00143618)
(0.00479652 -0.0420235 0.00136011)
(0.0049065 -0.0326215 0.00126321)
(0.00497723 -0.0230233 0.00114049)
(0.0050084 -0.0134314 0.000989304)
(0.00499935 -0.00403506 0.000810438)
(0.00494957 0.00498868 0.000608951)
(0.00485907 0.0134905 0.000394645)
(0.00472862 0.0213898 0.00018204)
(0.00455916 0.0287095 -1.02862e-05)
(0.00435087 0.035591 -0.000160666)
(0.00410196 0.042296 -0.000245512)
(0.00380738 0.0491898 -0.000241741)
(0.0034581 0.0566825 -0.000133275)
(0.00304286 0.0650687 7.49599e-05)
(0.00254993 0.0741758 0.000339166)
(0.00197473 0.0828135 0.000572884)
(0.00139072 0.0884657 0.000682182)
(0.000837476 0.0882937 0.000636708)
(0.000335331 0.0757769 0.000438684)
(2.46281e-05 0.0380322 0.000133881)
(1.66986e-05 -0.0208694 0.000354776)
(0.000222313 -0.0514708 0.000894917)
(0.000548112 -0.0718637 0.00126258)
(0.000944926 -0.083979 0.00148878)
(0.00135106 -0.090111 0.0016092)
(0.00174406 -0.0927078 0.00166409)
(0.00212898 -0.0932359 0.001681)
(0.00250541 -0.0922933 0.00167451)
(0.00286572 -0.0900899 0.00165304)
(0.00320395 -0.0866861 0.00162278)
(0.00351533 -0.0820898 0.0015886)
(0.00379552 -0.0763169 0.00155373)
(0.0040413 -0.0694325 0.00151905)
(0.00425112 -0.0615606 0.0014827)
(0.00442473 -0.0528711 0.00144023)
(0.00456252 -0.0435612 0.00138528)
(0.00466491 -0.0338393 0.00131065)
(0.00473201 -0.023914 0.00120967)
(0.00476346 -0.0139863 0.00107767)
(0.00475845 -0.00424536 0.000913405)
(0.00471597 0.00512844 0.00072023)
(0.00463539 0.0139797 0.000506744)
(0.00451661 0.0222227 0.000286685)
(0.00435967 0.0298798 7.80046e-05)
(0.00416381 0.0370978 -9.81874e-05)
(0.00392623 0.04415 -0.000218492)
(0.00364123 0.0514145 -0.00025893)
(0.00330068 0.0593075 -0.00020055)
(0.00289534 0.0681076 -4.23795e-05)
(0.00241605 0.0775836 0.000180818)
(0.00186169 0.0864379 0.000391904)
(0.00130631 0.092061 0.000501579)
(0.000782759 0.0915867 0.000478917)
(0.000309497 0.0782537 0.000327886)
(2.15493e-05 0.039064 9.3724e-05)
(1.64967e-05 -0.021842 0.000362703)
(0.000219159 -0.0538147 0.00090567)
(0.000536897 -0.0750299 0.00126521)
(0.000920457 -0.0875396 0.00147862)
(0.00130966 -0.0938067 0.00158763)
(0.00168419 -0.096423 0.00163483)
(0.00204982 -0.0969118 0.00164745)
(0.00240618 -0.0958836 0.00163971)
(0.0027459 -0.0935511 0.00162005)
(0.00306336 -0.0899767 0.00159489)
(0.00335422 -0.0851734 0.00156936)
(0.00361478 -0.079166 0.00154685)
(0.00384268 -0.0720295 0.00152812)
(0.00403719 -0.0638962 0.00151091)
(0.00419877 -0.0549401 0.00149006)
(0.00432835 -0.0453585 0.00145815)
(0.00442668 -0.035357 0.00140664)
(0.00449395 -0.0251396 0.00132725)
(0.00452963 -0.0149034 0.00121355)
(0.00453246 -0.00483523 0.00106259)
(0.00450073 0.00488332 0.000876241)
(0.00443289 0.0140915 0.000662092)
(0.00432777 0.0226976 0.000433371)
(0.00418439 0.0307213 0.000207786)
(0.00400112 0.0383126 6.24248e-06)
(0.00377461 0.0457528 -0.000148011)
(0.00349903 0.0534297 -0.000230672)
(0.00316667 0.061761 -0.000221015)
(0.0027699 0.0710019 -0.000113532)
(0.00230231 0.080857 6.49173e-05)
(0.0017663 0.0899221 0.000246794)
(0.00123619 0.0955075 0.000349415)
(0.000738769 0.0947311 0.000342751)
(0.000290074 0.0806059 0.000232354)
(2.0059e-05 0.0400369 6.05299e-05)
(1.66177e-05 -0.0227565 0.000363504)
(0.000216352 -0.0559843 0.000895296)
(0.000526429 -0.0779293 0.001237)
(0.000897525 -0.0907747 0.00143285)
(0.00127109 -0.0971491 0.00152884)
(0.00162871 -0.0997733 0.00156776)
(0.00197673 -0.100218 0.00157554)
(0.00231476 -0.0991019 0.00156572)
(0.00263568 -0.0966406 0.00154668)
(0.00293419 -0.0928981 0.00152508)
(0.00320638 -0.0878934 0.00150641)
(0.00344913 -0.0816606 0.00149445)
(0.00366075 -0.0742863 0.00149029)
(0.00384116 -0.0659116 0.00149181)
(0.0039914 -0.0567156 0.00149374)
(0.00411288 -0.0468957 0.00148813)
(0.00420667 -0.0366536 0.0014653)
(0.00427308 -0.0261874 0.00141518)
(0.0043115 -0.0156878 0.001329)
(0.00432034 -0.00533685 0.00120119)
(0.00429728 0.00468515 0.00103109)
(0.00423994 0.0142148 0.00082445)
(0.00414622 0.0231566 0.000593627)
(0.00401421 0.0315294 0.000356273)
(0.00384153 0.0394872 0.000133631)
(0.00362435 0.0473184 -5.06555e-05)
(0.00335686 0.0554166 -0.00017176)
(0.00303209 0.0641939 -0.0002076)
(0.00264382 0.0738736 -0.000149122)
(0.00218797 0.0840879 -1.62728e-05)
(0.00167032 0.0933264 0.00013285)
(0.00116504 0.09884 0.000223451)
(0.000693472 0.0977436 0.000227363)
(0.00026964 0.0828356 0.000151647)
(1.79396e-05 0.0409516 3.37741e-05)
(1.60701e-05 -0.0237039 0.000370749)
(0.000211868 -0.0582309 0.000901291)
(0.000513502 -0.0809207 0.00123152)
(0.000871924 -0.0940948 0.00141295)
(0.00123009 -0.100563 0.00149706)
(0.00157146 -0.103186 0.00152814)
(0.00190282 -0.10358 0.00153142)
(0.00222371 -0.102375 0.00151999)
(0.00252719 -0.0997861 0.0015022)
(0.00280833 -0.095882 0.00148487)
(0.00306359 -0.0906888 0.0014737)
(0.0032904 -0.0842508 0.00147265)
(0.00348773 -0.0766651 0.00148288)
(0.0036561 -0.0680801 0.00150228)
(0.00379713 -0.058678 0.00152544)
(0.00391266 -0.0486541 0.00154409)
(0.00400411 -0.038204 0.00154785)
(0.00407195 -0.0275178 0.00152546)
(0.00411541 -0.0167773 0.00146634)
(0.0041325 -0.00615785 0.00136258)
(0.00412011 0.00416407 0.00121093)
(0.00407486 0.0140231 0.00101477)
(0.00399352 0.0233185 0.000784925)
(0.00387316 0.0320661 0.00053851)
(0.00371065 0.0404207 0.000296942)
(0.00350175 0.0486752 8.4348e-05)
(0.00324083 0.0572258 -7.38003e-05)
(0.00292175 0.0664752 -0.000154138)
(0.00253994 0.0766103 -0.000144495)
(0.00209356 0.0871879 -5.85323e-05)
(0.00159151 0.0965942 5.48343e-05)
(0.00110742 0.102033 0.000129202)
(0.000657753 0.100623 0.000138487)
(0.000254415 0.0849595 9.05345e-05)
(1.70129e-05 0.0418193 1.56009e-05)
(1.61114e-05 -0.0245985 0.000371785)
(0.000208731 -0.0603211 0.000888574)
(0.000502863 -0.0836734 0.00119805)
(0.000849574 -0.0971243 0.00135999)
(0.00119348 -0.103663 0.00143019)
(0.00151981 -0.106274 0.00145255)
(0.00183577 -0.106615 0.0014507)
(0.00214078 -0.105319 0.00143695)
(0.00242817 -0.102604 0.00141955)
(0.0026933 -0.0985415 0.00140549)
(0.00293298 -0.0931659 0.00140078)
(0.00314509 -0.0865323 0.00140969)
(0.00332903 -0.0787491 0.00143376)
(0.00348583 -0.0699735 0.00147118)
(0.00361754 -0.0603912 0.00151673)
(0.00372643 -0.0501961 0.00156202)
(0.00381433 -0.0395772 0.00159611)
(0.00388194 -0.0287144 0.0016065)
(0.00392859 -0.0177785 0.00158068)
(0.003952 -0.00693464 0.00150814)
(0.00394849 0.0036479 0.0013826)
(0.00391374 0.013805 0.00120457)
(0.00384344 0.0234323 0.000982835)
(0.00373368 0.0325431 0.000733603)
(0.00358054 0.0412927 0.00047836)
(0.00337939 0.0499757 0.000241825)
(0.00312469 0.0589871 5.03085e-05)
(0.00281113 0.0687142 -7.14645e-05)
(0.00243572 0.0793006 -0.000108429)
(0.00199885 0.0902235 -6.84648e-05)
(0.00151237 0.0997692 8.29662e-06)
(0.00104894 0.105113 6.39476e-05)
(0.000620713 0.103381 7.43759e-05)
(0.000238026 0.0869774 4.75246e-05)
(1.54889e-05 0.0426385 4.85839e-06)
(1.54668e-05 -0.0255165 0.000376915)
(0.000204044 -0.0624648 0.000887127)
(0.000490315 -0.086489 0.00118147)
(0.000825788 -0.10021 0.00132743)
(0.00115646 -0.106808 0.00138541)
(0.00146913 -0.109402 0.00139983)
(0.0017713 -0.109686 0.00139326)
(0.00206223 -0.108298 0.00137745)
(0.00233544 -0.10546 0.00136052)
(0.00258656 -0.101247 0.00134953)
(0.0028127 -0.0957006 0.00135063)
(0.0030121 -0.0888882 0.00136825)
(0.00318459 -0.0809282 0.00140415)
(0.00333161 -0.0719853 0.0014568)
(0.00345562 -0.0622482 0.0015213)
(0.00355933 -0.0519081 0.00158951)
(0.00364495 -0.0411464 0.00165044)
(0.00371346 -0.0301316 0.00169101)
(0.00376423 -0.0190213 0.00169736)
(0.00379477 -0.00796831 0.00165671)
(0.00380074 0.00286799 0.00155978)
(0.00377683 0.0133261 0.00140377)
(0.00371758 0.0232979 0.00119469)
(0.00361801 0.0327918 0.000947172)
(0.00347344 0.0419607 0.00068228)
(0.00327892 0.0510984 0.000425134)
(0.00302911 0.060595 0.00020292)
(0.00271958 0.0708187 4.18326e-05)
(0.0023489 0.0818668 -4.01843e-05)
(0.00191959 0.0931348 -4.54984e-05)
(0.0014463 0.102814 -5.84579e-06)
(0.0010005 0.108061 2.90726e-05)
(0.00059054 0.106016 3.66699e-05)
(0.000225203 0.0888991 2.39186e-05)
(1.48078e-05 0.0434152 2.04164e-06)
(1.55681e-05 -0.0263892 0.000376477)
(0.000201315 -0.0644743 0.0008697)
(0.000481004 -0.0891002 0.00114124)
(0.000806303 -0.103048 0.00126694)
(0.00112473 -0.109685 0.00131088)
(0.00142464 -0.112253 0.00131653)
(0.00171386 -0.112476 0.00130468)
(0.00199154 -0.110997 0.00128626)
(0.00225143 -0.108037 0.00126921)
(0.00248941 -0.103676 0.00126065)
(0.00270282 -0.0979651 0.00126691)
(0.00289013 -0.0909818 0.00129269)
(0.00305145 -0.0828566 0.00134008)
(0.00318852 -0.0737631 0.00140795)
(0.00330416 -0.0638938 0.00149183)
(0.00340151 -0.053438 0.00158385)
(0.00348317 -0.0425693 0.00167308)
(0.00355057 -0.0314435 0.001746)
(0.00360332 -0.0202027 0.00178756)
(0.0036389 -0.00898347 0.00178286)
(0.00365257 0.00206849 0.00171964)
(0.00363817 0.0127982 0.00159155)
(0.00358911 0.0230954 0.00140142)
(0.00349927 0.0329642 0.00116182)
(0.00336315 0.042553 0.000893015)
(0.00317538 0.0521517 0.000620355)
(0.00293083 0.0621412 0.000371907)
(0.00262587 0.0728656 0.000175392)
(0.0022605 0.0843705 5.15939e-05)
(0.00183922 0.0959678 3.39165e-06)
(0.00137934 0.105758 6.99572e-06)
(0.000950918 0.110896 2.04057e-05)
(0.000559009 0.108535 2.19768e-05)
(0.000211305 0.0907221 1.68566e-05)
(1.3671e-05 0.0441466 5.51008e-06)
(1.49795e-05 -0.0272782 0.000378255)
(0.000196939 -0.0665189 0.000859151)
(0.000469628 -0.0917499 0.00111215)
(0.000785271 -0.105916 0.0012206)
(0.00109257 -0.112584 0.0012521)
(0.00138117 -0.11512 0.00124974)
(0.00165906 -0.115281 0.00123295)
(0.00192527 -0.11371 0.00121198)
(0.00217376 -0.110632 0.00119455)
(0.00240057 -0.106129 0.00118778)
(0.00260318 -0.100263 0.00119803)
(0.00278025 -0.093121 0.00123015)
(0.00293212 -0.0848451 0.00128651)
(0.0030608 -0.0756171 0.0013664)
(0.00316942 -0.065633 0.00146586)
(0.00326144 -0.05508 0.00157763)
(0.00333988 -0.044124 0.00169123)
(0.00340652 -0.0329078 0.00179323)
(0.00346126 -0.0215568 0.00186796)
(0.00350161 -0.0101894 0.00189884)
(0.00352252 0.00106525 0.00187078)
(0.00351707 0.0120616 0.00177371)
(0.00347752 0.0226886 0.00160673)
(0.00339664 0.0329445 0.00137965)
(0.00326805 0.042971 0.00111144)
(0.00308603 0.0530505 0.000827385)
(0.00284569 0.0635513 0.000556377)
(0.0025443 0.0747895 0.000327744)
(0.00218331 0.0867561 0.000165111)
(0.00176905 0.0986793 7.63688e-05)
(0.00132118 0.108574 4.51687e-05)
(0.000908132 0.113601 3.65556e-05)
(0.000532106 0.110932 2.92312e-05)
(0.000199809 0.0924507 2.55212e-05)
(1.31508e-05 0.0448357 1.48964e-05)
(1.51815e-05 -0.0281291 0.00037496)
(0.000194628 -0.0684492 0.00083498)
(0.000461577 -0.0942259 0.00106341)
(0.000768564 -0.108574 0.00115135)
(0.00106561 -0.115256 0.00116913)
(0.00134368 -0.117753 0.00115821)
(0.00161096 -0.117848 0.00113607)
(0.00186637 -0.116187 0.00111212)
(0.00210406 -0.112992 0.00109386)
(0.00232026 -0.108352 0.00108837)
(0.00251248 -0.102334 0.00110212)
(0.00267952 -0.0950396 0.00114019)
(0.00282186 -0.086622 0.0012052)
(0.00294169 -0.0772726 0.00129686)
(0.00304241 -0.067192 0.00141171)
(0.0031278 -0.056566 0.00154303)
(0.0032013 -0.045553 0.00168088)
(0.00326515 -0.0342821 0.00181208)
(0.00331966 -0.0228602 0.00192063)
(0.00336264 -0.011385 0.00198867)
(0.00338897 3.53493e-05 0.00199858)
(0.00339111 0.0112688 0.00193657)
(0.00336034 0.0222065 0.00179768)
(0.00328817 0.0328414 0.00158848)
(0.00316724 0.0433064 0.00132614)
(0.00299132 0.0538726 0.00103561)
(0.00275569 0.064891 0.000746572)
(0.00245849 0.0766446 0.000490026)
(0.00210255 0.0890665 0.000292435)
(0.00169597 0.1013 0.000166462)
(0.00126066 0.111281 0.000102657)
(0.000863141 0.11619 7.23536e-05)
(0.000503239 0.113213 5.39948e-05)
(0.000187065 0.0940806 4.63852e-05)
(1.21991e-05 0.0454792 2.84576e-05)
(1.46955e-05 -0.0289899 0.000372566)
(0.000190457 -0.070397 0.000814317)
(0.000450985 -0.0967174 0.00102101)
(0.000749611 -0.11124 0.00109072)
(0.00103747 -0.117926 0.00109614)
(0.00130662 -0.12038 0.00107736)
(0.00156526 -0.120408 0.00105009)
(0.00181185 -0.118656 0.001023)
(0.00204059 -0.115348 0.00100339)
(0.00224788 -0.110574 0.000998293)
(0.00243137 -0.104411 0.00101423)
(0.00258996 -0.0969717 0.00105638)
(0.00272428 -0.0884215 0.00112763)
(0.00283665 -0.0789606 0.00122805)
(0.00293061 -0.068794 0.00135476)
(0.0030102 -0.0581068 0.0015018)
(0.00307916 -0.0470505 0.00166)
(0.00314013 -0.0357415 0.00181684)
(0.00319384 -0.0242679 0.0019565)
(0.00323844 -0.0127052 0.00206035)
(0.00326891 -0.00113859 0.0021086)
(0.00327732 0.0103179 0.00208385)
(0.00325409 0.021561 0.00197666)
(0.00318957 0.0325784 0.00178969)
(0.00307537 0.0434924 0.00153766)
(0.00290475 0.0545596 0.00124483)
(0.00267314 0.0661089 0.000941591)
(0.00237952 0.0783866 0.000660693)
(0.00202806 0.0912645 0.000431519)
(0.00162856 0.103802 0.000271331)
(0.00120506 0.113859 0.000177058)
(0.000822134 0.118648 0.000125496)
(0.000477301 0.115372 9.41408e-05)