/*--------------------------------*- C++ -*----------------------------------*\
| =========                 |                                                 |
| \\      /  F ield         | OpenFOAM: The Open Source CFD Toolbox           |
|  \\    /   O peration     | Version:  v2012                                 |
|   \\  /    A nd           | Website:  www.openfoam.com                      |
|    \\/     M anipulation  |                                                 |
\*---------------------------------------------------------------------------*/
FoamFile
{
    version     2.0;
    format      ascii;
    class       surfaceScalarField;
    location    "83";
    object      phi;
}
// * * * * * * * * * * * * * * * * * * * * * * * * * * * * * * * * * * * * * //

dimensions      [1 0 -1 0 0 0 0];
oriented        oriented;


internalField   nonuniform List<scalar> 
228225
(
-1.03269e-09
-1.67598e-10
9.66034e-10
-2.65593e-09
3.19962e-09
-1.57856e-09
-6.17458e-09
5.59794e-09
-2.0746e-09
-1.18116e-08
7.78451e-09
-2.1526e-09
-1.93451e-08
9.75641e-09
-2.21926e-09
-2.84292e-08
1.1456e-08
-2.37312e-09
-3.86793e-08
1.28723e-08
-2.62248e-09
-4.97045e-08
1.39867e-08
-2.9614e-09
-6.11534e-08
1.48175e-08
-3.36627e-09
-7.26928e-08
1.53648e-08
-3.82734e-09
-8.40225e-08
1.56552e-08
-4.32344e-09
-9.48751e-08
1.56974e-08
-4.84801e-09
-1.0501e-07
1.55204e-08
-5.38422e-09
-1.14213e-07
1.51336e-08
-5.92843e-09
-1.22317e-07
1.45686e-08
-6.46674e-09
-1.29155e-07
1.38363e-08
-6.99689e-09
-1.34616e-07
1.29652e-08
-7.50677e-09
-1.38583e-07
1.19652e-08
-7.99479e-09
-1.40997e-07
1.0863e-08
-8.45115e-09
-1.41794e-07
9.66759e-09
-8.87053e-09
-1.4095e-07
8.40331e-09
-9.2462e-09
-1.38449e-07
7.07471e-09
-9.57739e-09
-1.34296e-07
5.70557e-09
-9.855e-09
-1.28525e-07
4.30574e-09
-1.00791e-08
-1.21179e-07
2.89822e-09
-1.02438e-08
-1.12322e-07
1.49529e-09
-1.03513e-08
-1.02057e-07
1.33174e-10
-1.03992e-08
-9.04594e-08
-1.20538e-09
-1.03933e-08
-7.76713e-08
-2.45362e-09
-1.03343e-08
-6.38511e-08
-3.59127e-09
-1.02273e-08
-4.92245e-08
-4.56868e-09
-1.00607e-08
-3.41137e-08
-5.32264e-09
-9.78593e-09
-1.91771e-08
-5.72806e-09
-9.20968e-09
-5.90989e-09
-5.59773e-09
-7.66828e-09
-3.84823e-09
-2.06218e-09
-2.96139e-09
1.48368e-08
-1.20422e-08
-1.28698e-08
2.67218e-08
-1.36155e-08
-2.52821e-08
3.23966e-08
-1.43845e-08
-3.90332e-08
3.66743e-08
-1.51398e-08
-5.32508e-08
3.97667e-08
-1.57925e-08
-6.73391e-08
4.18908e-08
-1.63486e-08
-8.08329e-08
4.32154e-08
-1.6847e-08
-9.34271e-08
4.38826e-08
-1.73026e-08
-1.04881e-07
4.39997e-08
-1.77281e-08
-1.15048e-07
4.36558e-08
-1.81236e-08
-1.23818e-07
4.29206e-08
-1.84957e-08
-1.31136e-07
4.18563e-08
-1.88408e-08
-1.36963e-07
4.05108e-08
-1.91634e-08
-1.41299e-07
3.89281e-08
-1.94589e-08
-1.44147e-07
3.71472e-08
-1.97303e-08
-1.45543e-07
3.52043e-08
-1.99728e-08
-1.45518e-07
3.31307e-08
-2.01889e-08
-1.44136e-07
3.09563e-08
-2.03739e-08
-1.41455e-07
2.87112e-08
-2.05301e-08
-1.37557e-07
2.64225e-08
-2.06529e-08
-1.32522e-07
2.41108e-08
-2.0744e-08
-1.26442e-07
2.17965e-08
-2.07998e-08
-1.19416e-07
1.94999e-08
-2.08215e-08
-1.11548e-07
1.72412e-08
-2.08046e-08
-1.02935e-07
1.50377e-08
-2.07489e-08
-9.36992e-08
1.29056e-08
-2.06488e-08
-8.39219e-08
1.08592e-08
-2.05027e-08
-7.37383e-08
8.91087e-09
-2.02993e-08
-6.32365e-08
7.07175e-09
-2.00279e-08
-5.25122e-08
5.35212e-09
-1.96673e-08
-4.16487e-08
3.76254e-09
-1.91949e-08
-3.07227e-08
2.32131e-09
-1.85693e-08
-1.9841e-08
1.06239e-09
-1.76739e-08
-9.3518e-09
1.05646e-10
-1.61918e-08
-3.13001e-10
-1.2887e-08
-1.18627e-09
2.54691e-08
-9.44632e-09
-5.73157e-09
4.25268e-08
-1.12592e-08
-1.13858e-08
5.00812e-08
-1.20316e-08
-1.75589e-08
5.5465e-08
-1.26169e-08
-2.38604e-08
5.91571e-08
-1.30873e-08
-3.00182e-08
6.15414e-08
-1.34944e-08
-3.58371e-08
6.28935e-08
-1.38595e-08
-4.11795e-08
6.34297e-08
-1.42042e-08
-4.59589e-08
6.33097e-08
-1.45319e-08
-5.01109e-08
6.266e-08
-1.48527e-08
-5.36031e-08
6.15774e-08
-1.51632e-08
-5.64194e-08
6.0141e-08
-1.54681e-08
-5.85627e-08
5.84142e-08
-1.57614e-08
-6.0038e-08
5.64511e-08
-1.60461e-08
-6.08735e-08
5.4297e-08
-1.63155e-08
-6.10884e-08
5.1992e-08
-1.65717e-08
-6.07209e-08
4.95713e-08
-1.68083e-08
-5.98041e-08
4.70664e-08
-1.70272e-08
-5.83814e-08
4.45096e-08
-1.72214e-08
-5.64924e-08
4.19259e-08
-1.73924e-08
-5.41858e-08
3.934e-08
-1.75358e-08
-5.15165e-08
3.67788e-08
-1.76527e-08
-4.85368e-08
3.42605e-08
-1.77382e-08
-4.53036e-08
3.17998e-08
-1.77929e-08
-4.18641e-08
2.94095e-08
-1.78118e-08
-3.82581e-08
2.70936e-08
-1.77942e-08
-3.4522e-08
2.48565e-08
-1.77331e-08
-3.06846e-08
2.26973e-08
-1.76243e-08
-2.67651e-08
2.06079e-08
-1.74552e-08
-2.27729e-08
1.85721e-08
-1.72128e-08
-1.86989e-08
1.65612e-08
-1.68719e-08
-1.45197e-08
1.45338e-08
-1.63928e-08
-1.01977e-08
1.24246e-08
-1.56844e-08
-5.67892e-09
1.01392e-08
-1.45524e-08
5.91703e-09
-1.19091e-08
-6.82778e-10
3.021e-08
-4.05892e-09
-1.73932e-09
4.92742e-08
-5.69021e-09
-2.9188e-09
5.77973e-08
-6.53672e-09
-4.26856e-09
6.39183e-08
-7.10242e-09
-5.76888e-09
6.81927e-08
-7.5365e-09
-7.3454e-09
7.10369e-08
-7.91932e-09
-8.92504e-09
7.27612e-08
-8.28835e-09
-1.04474e-08
7.3603e-08
-8.65016e-09
-1.18663e-08
7.37444e-08
-9.0169e-09
-1.31413e-08
7.33246e-08
-9.38688e-09
-1.42546e-08
7.24544e-08
-9.76624e-09
-1.51845e-08
7.12198e-08
-1.01487e-08
-1.59257e-08
6.96923e-08
-1.05371e-08
-1.64783e-08
6.79286e-08
-1.09235e-08
-1.6851e-08
6.59781e-08
-1.13092e-08
-1.70537e-08
6.3881e-08
-1.16861e-08
-1.71032e-08
6.16739e-08
-1.20546e-08
-1.70154e-08
5.93866e-08
-1.24072e-08
-1.68089e-08
5.70469e-08
-1.2744e-08
-1.65003e-08
5.46773e-08
-1.30582e-08
-1.61178e-08
5.23044e-08
-1.33492e-08
-1.56794e-08
4.99501e-08
-1.36091e-08
-1.5208e-08
4.76275e-08
-1.38384e-08
-1.47212e-08
4.53442e-08
-1.40312e-08
-1.42289e-08
4.31041e-08
-1.41871e-08
-1.37353e-08
4.09e-08
-1.43012e-08
-1.32274e-08
3.8722e-08
-1.43718e-08
-1.26888e-08
3.65496e-08
-1.43914e-08
-1.20748e-08
3.43488e-08
-1.4355e-08
-1.13222e-08
3.20689e-08
-1.42498e-08
-1.0335e-08
2.96343e-08
-1.40616e-08
-8.97226e-09
2.69413e-08
-1.37698e-08
-7.02122e-09
2.38341e-08
-1.3359e-08
-4.27077e-09
2.0125e-08
-1.27374e-08
1.25935e-08
-1.09476e-08
-1.53416e-09
3.20737e-08
-3.30764e-10
-1.61606e-09
5.09186e-08
-1.56191e-09
-9.71064e-10
5.9474e-08
-2.32088e-09
7.95578e-12
6.57502e-08
-2.8123e-09
1.12233e-09
7.02576e-08
-3.17854e-09
2.28267e-09
7.33953e-08
-3.51808e-09
3.43447e-09
7.5462e-08
-3.85487e-09
4.54959e-09
7.66893e-08
-4.20088e-09
5.59882e-09
7.72503e-08
-4.55484e-09
6.56634e-09
7.72818e-08
-4.92444e-09
7.43685e-09
7.68873e-08
-5.30488e-09
8.20605e-09
7.61516e-08
-5.69943e-09
8.85876e-09
7.51399e-08
-6.10086e-09
9.38928e-09
7.39082e-08
-6.51035e-09
9.78768e-09
7.24999e-08
-6.91987e-09
1.00452e-08
7.09536e-08
-7.32964e-09
1.01514e-08
6.92998e-08
-7.73163e-09
1.00958e-08
6.75665e-08
-8.12564e-09
9.87266e-09
6.57752e-08
-8.50408e-09
9.46859e-09
6.39465e-08
-8.86651e-09
8.88322e-09
6.20961e-08
-9.20569e-09
8.11874e-09
6.02362e-08
-9.52123e-09
7.17935e-09
5.83729e-08
-9.80688e-09
6.07774e-09
5.65081e-08
-1.00624e-08
4.82967e-09
5.46356e-08
-1.02822e-08
3.45274e-09
5.27416e-08
-1.04658e-08
1.98363e-09
5.08e-08
-1.06079e-08
4.68349e-10
4.87711e-08
-1.07075e-08
-1.02109e-09
4.65958e-08
-1.07579e-08
-2.38783e-09
4.41906e-08
-1.07544e-08
-3.50724e-09
4.14369e-08
-1.06844e-08
-4.19236e-09
3.8174e-08
-1.05465e-08
-4.16708e-09
3.41724e-08
-1.03629e-08
-3.079e-09
2.91372e-08
-1.01029e-08
1.84857e-08
-8.96988e-09
-1.53964e-09
3.20564e-08
1.55751e-09
-1.3866e-09
5.01481e-08
6.16084e-10
-3.42049e-10
5.8451e-08
-2.19216e-11
1.18471e-09
6.46444e-08
-4.19814e-10
2.94924e-09
6.92147e-08
-7.22142e-10
4.82129e-09
7.25285e-08
-1.00502e-09
6.71059e-09
7.48686e-08
-1.2963e-09
8.55449e-09
7.64443e-08
-1.59795e-09
1.02998e-08
7.74196e-08
-1.91619e-09
1.19135e-08
7.79164e-08
-2.24769e-09
1.33641e-08
7.80325e-08
-2.59629e-09
1.46309e-08
7.78414e-08
-2.95633e-09
1.56942e-08
7.74041e-08
-3.32855e-09
1.65426e-08
7.67667e-08
-3.70602e-09
1.71608e-08
7.59692e-08
-4.08903e-09
1.75445e-08
7.50416e-08
-4.47044e-09
1.76826e-08
7.40109e-08
-4.85001e-09
1.75742e-08
7.28973e-08
-5.22075e-09
1.72105e-08
7.17187e-08
-5.58222e-09
1.65982e-08
7.04872e-08
-5.92791e-09
1.57394e-08
6.92125e-08
-6.2574e-09
1.46426e-08
6.78983e-08
-6.56486e-09
1.33215e-08
6.65449e-08
-6.8499e-09
1.17913e-08
6.51452e-08
-7.10727e-09
1.00766e-08
6.36849e-08
-7.33675e-09
8.21471e-09
6.21386e-08
-7.53375e-09
6.24573e-09
6.04674e-08
-7.69818e-09
4.22803e-09
5.86149e-08
-7.82596e-09
2.23866e-09
5.65011e-08
-7.91637e-09
3.75946e-10
5.4016e-08
-7.96307e-09
-1.23271e-09
5.10066e-08
-7.96118e-09
-2.41278e-09
4.72677e-08
-7.91215e-09
-2.90196e-09
4.25146e-08
-7.85551e-09
-2.36011e-09
3.6381e-08
-7.78376e-09
2.31879e-08
-7.06278e-09
-1.11194e-09
3.11847e-08
1.9856e-09
-8.4095e-10
4.86159e-08
1.25798e-09
1.83555e-10
5.66773e-08
7.50081e-10
1.62135e-09
6.27722e-08
4.33887e-10
3.27575e-09
6.73626e-08
1.97192e-10
5.03703e-09
7.0799e-08
-3.12055e-11
6.82283e-09
7.33446e-08
-2.6245e-10
8.57585e-09
7.51984e-08
-5.05433e-10
1.0244e-08
7.651e-08
-7.58856e-10
1.17907e-08
7.73953e-08
-1.02598e-09
1.31846e-08
7.79409e-08
-1.303e-09
1.44017e-08
7.8216e-08
-1.59135e-09
1.54209e-08
7.82717e-08
-1.88687e-09
1.62293e-08
7.815e-08
-2.18991e-09
1.68109e-08
7.78821e-08
-2.49481e-09
1.71589e-08
7.74947e-08
-2.80152e-09
1.72673e-08
7.70066e-08
-3.10439e-09
1.71342e-08
7.64341e-08
-3.40322e-09
1.6758e-08
7.57879e-08
-3.69262e-09
1.6141e-08
7.50758e-08
-3.97237e-09
1.52916e-08
7.43003e-08
-4.23747e-09
1.4216e-08
7.34604e-08
-4.48783e-09
1.29337e-08
7.25482e-08
-4.71897e-09
1.14588e-08
7.15501e-08
-4.931e-09
9.82066e-09
7.04426e-08
-5.11996e-09
8.05469e-09
6.91916e-08
-5.28613e-09
6.20099e-09
6.77473e-08
-5.4261e-09
4.31539e-09
6.60404e-08
-5.54037e-09
2.4681e-09
6.39748e-08
-5.62559e-09
7.44242e-10
6.14201e-08
-5.68053e-09
-7.47664e-10
5.81974e-08
-5.6991e-09
-1.86051e-09
5.40679e-08
-5.68807e-09
-2.36661e-09
4.87037e-08
-5.68306e-09
-1.97149e-09
4.16757e-08
-5.68721e-09
2.64232e-08
-5.2086e-09
-6.28135e-10
3.00723e-08
1.74167e-09
-4.27682e-10
4.72114e-08
1.20183e-09
2.58016e-10
5.51701e-08
8.23172e-10
1.20299e-09
6.1232e-08
5.92997e-10
2.29278e-09
6.58569e-08
4.18451e-10
3.45112e-09
6.93861e-08
2.52747e-10
4.6392e-09
7.20789e-08
7.9204e-11
5.80943e-09
7.41261e-08
-9.81094e-11
6.92678e-09
7.56741e-08
-2.82452e-10
7.96592e-09
7.68308e-08
-4.74502e-10
8.90382e-09
7.76798e-08
-6.75915e-10
9.72011e-09
7.82825e-08
-8.82859e-10
1.03995e-08
7.8688e-08
-1.09639e-09
1.09306e-08
7.89316e-08
-1.31227e-09
1.13034e-08
7.90417e-08
-1.531e-09
1.1507e-08
7.90383e-08
-1.74832e-09
1.1539e-08
7.8938e-08
-1.96451e-09
1.13988e-08
7.87508e-08
-2.1754e-09
1.1083e-08
7.84842e-08
-2.38127e-09
1.05975e-08
7.81402e-08
-2.57818e-09
9.94666e-09
7.77179e-08
-2.76646e-09
9.13917e-09
7.72102e-08
-2.94253e-09
8.18831e-09
7.66053e-08
-3.10685e-09
7.11084e-09
7.58831e-08
-3.2562e-09
5.92996e-09
7.50151e-08
-3.3912e-09
4.67141e-09
7.39598e-08
-3.50902e-09
3.36745e-09
7.26601e-08
-3.61044e-09
2.06409e-09
7.10375e-08
-3.69303e-09
8.11967e-10
6.89848e-08
-3.75747e-09
-3.27144e-10
6.63578e-08
-3.80027e-09
-1.26725e-09
6.29603e-08
-3.82007e-09
-1.91255e-09
5.8531e-08
-3.81968e-09
-2.09289e-09
5.27133e-08
-3.82935e-09
-1.60745e-09
4.50388e-08
-3.84624e-09
2.83296e-08
-3.51551e-09
-4.45148e-10
2.90095e-08
1.5066e-09
-4.60094e-10
4.60621e-08
1.16602e-09
-2.07734e-10
5.39907e-08
9.27275e-10
1.88901e-10
6.00513e-08
7.8279e-10
6.70224e-10
6.47038e-08
6.7244e-10
1.20203e-09
6.82917e-08
5.63988e-10
1.75753e-09
7.10696e-08
4.52172e-10
2.32114e-09
7.32294e-08
3.34322e-10
2.86967e-09
7.49127e-08
2.12401e-10
3.38915e-09
7.62273e-08
8.36429e-11
3.86477e-09
7.7252e-08
-4.68553e-11
4.27995e-09
7.80477e-08
-1.81153e-10
4.62829e-09
7.86581e-08
-3.17192e-10
4.89914e-09
7.91176e-08
-4.56831e-10
5.08469e-09
7.94505e-08
-5.962e-10
5.18512e-09
7.96762e-08
-7.35819e-10
5.18763e-09
7.98065e-08
-8.72363e-10
5.09626e-09
7.98496e-08
-1.00664e-09
4.90646e-09
7.98086e-08
-1.13559e-09
4.62473e-09
7.96836e-08
-1.26005e-09
4.24924e-09
7.94693e-08
-1.37717e-09
3.79126e-09
7.91566e-08
-1.48785e-09
3.25557e-09
7.87292e-08
-1.58954e-09
2.6588e-09
7.81646e-08
-1.68326e-09
2.01021e-09
7.74295e-08
-1.7667e-09
1.33113e-09
7.64794e-08
-1.84101e-09
6.4367e-10
7.5252e-08
-1.90416e-09
-2.54699e-11
7.36642e-08
-1.95749e-09
-6.42857e-10
7.16024e-08
-1.99909e-09
-1.17236e-09
6.89155e-08
-2.02964e-09
-1.56384e-09
6.53983e-08
-2.04614e-09
-1.75816e-09
6.07785e-08
-2.05373e-09
-1.65706e-09
5.46851e-08
-2.07073e-09
-1.1548e-09
4.66271e-08
-2.09441e-09
2.9074e-08
-1.89663e-09
-5.59087e-10
2.80629e-08
1.50611e-09
-8.79998e-10
4.50033e-08
1.37951e-09
-1.04605e-09
5.28816e-08
1.27432e-09
-1.11973e-09
5.89107e-08
1.21453e-09
-1.12982e-09
6.35508e-08
1.16243e-09
-1.08784e-09
6.71437e-08
1.10708e-09
-1.00789e-09
6.99439e-08
1.04476e-09
-8.97201e-10
7.21405e-08
9.78261e-10
-7.66929e-10
7.38754e-08
9.06717e-10
-6.24488e-10
7.52533e-08
8.32512e-10
-4.79887e-10
7.63536e-08
7.54427e-10
-3.4261e-10
7.72341e-08
6.74926e-10
-2.16236e-10
7.79382e-08
5.93487e-10
-1.07797e-10
7.84973e-08
5.12826e-10
-2.37273e-11
7.89352e-08
4.31965e-10
3.12497e-11
7.92675e-08
3.52551e-10
5.89393e-11
7.9506e-08
2.73578e-10
5.4939e-11
7.96561e-08
1.97568e-10
1.92571e-11
7.97204e-08
1.23134e-10
-4.50053e-11
7.9696e-08
5.30095e-11
-1.39358e-10
7.95772e-08
-1.3421e-11
-2.59768e-10
7.93519e-08
-7.47788e-11
-4.04238e-10
7.90034e-08
-1.31778e-10
-5.61319e-10
7.85064e-08
-1.83113e-10
-7.28473e-10
7.78272e-08
-2.30541e-10
-8.96252e-10
7.69185e-08
-2.72241e-10
-1.0502e-09
7.57177e-08
-3.09797e-10
-1.18502e-09
7.41394e-08
-3.41859e-10
-1.282e-09
7.20695e-08
-3.703e-10
-1.32725e-09
6.93551e-08
-3.93782e-10
-1.3049e-09
6.57905e-08
-4.1404e-10
-1.19534e-09
6.11015e-08
-4.332e-10
-9.61592e-10
5.49174e-08
-4.66958e-10
-5.67887e-10
4.67448e-08
-5.10065e-10
2.89651e-08
-4.59524e-10
-7.77156e-10
2.7186e-08
1.65563e-09
-1.35743e-09
4.38645e-08
1.71827e-09
-1.82064e-09
5.16192e-08
1.72486e-09
-2.19965e-09
5.75563e-08
1.73283e-09
-2.50489e-09
6.2128e-08
1.72982e-09
-2.74894e-09
6.56726e-08
1.71468e-09
-2.93642e-09
6.84394e-08
1.69146e-09
-3.07382e-09
7.06163e-08
1.661e-09
-3.16701e-09
7.23416e-08
1.62668e-09
-3.22108e-09
7.37196e-08
1.58814e-09
-3.24104e-09
7.48266e-08
1.54794e-09
-3.23455e-09
7.57206e-08
1.50528e-09
-3.19991e-09
7.64432e-08
1.46245e-09
-3.14726e-09
7.70259e-08
1.41842e-09
-3.07958e-09
7.74904e-08
1.37517e-09
-2.99544e-09
7.7852e-08
1.3322e-09
-2.89999e-09
7.81199e-08
1.29138e-09
-2.79653e-09
7.83001e-08
1.25142e-09
-2.6844e-09
7.83934e-08
1.21416e-09
-2.56278e-09
7.83973e-08
1.17826e-09
-2.4356e-09
7.83041e-08
1.1454e-09
-2.29951e-09
7.81025e-08
1.1141e-09
-2.15788e-09
7.7774e-08
1.0859e-09
-2.00445e-09
7.72944e-08
1.05919e-09
-1.84028e-09
7.66285e-08
1.03529e-09
-1.66644e-09
7.57308e-08
1.0124e-09
-1.47813e-09
7.45381e-08
9.91565e-10
-1.27678e-09
7.29676e-08
9.7061e-10
-1.06412e-09
7.09064e-08
9.50071e-10
-8.41064e-10
6.82058e-08
9.27252e-10
-6.17324e-10
6.4664e-08
9.01924e-10
-3.97071e-10
6.00142e-08
8.68152e-10
-1.90865e-10
5.38944e-08
8.15546e-10
-1.22027e-11
4.58237e-08
7.42363e-10
2.82982e-08
6.55035e-10
-9.10431e-10
2.63887e-08
1.70941e-09
-1.62059e-09
4.2676e-08
1.89679e-09
-2.22193e-09
5.02488e-08
1.97206e-09
-2.73671e-09
5.60469e-08
2.02309e-09
-3.16915e-09
6.05123e-08
2.04924e-09
-3.52961e-09
6.39729e-08
2.06015e-09
-3.82435e-09
6.6674e-08
2.05955e-09
-4.05589e-09
6.87974e-08
2.05205e-09
-4.23487e-09
7.04798e-08
2.03867e-09
-4.35739e-09
7.18218e-08
2.02238e-09
-4.43473e-09
7.28994e-08
2.00305e-09
-4.46358e-09
7.37677e-08
1.98296e-09
-4.45041e-09
7.44689e-08
1.96146e-09
-4.39791e-09
7.50321e-08
1.9405e-09
-4.30612e-09
7.548e-08
1.91919e-09
-4.17971e-09
7.58264e-08
1.89927e-09
-4.02174e-09
7.60817e-08
1.87968e-09
-3.83248e-09
7.62502e-08
1.86199e-09
-3.61799e-09
7.63334e-08
1.84496e-09
-3.3781e-09
7.63274e-08
1.83002e-09
-3.11517e-09
7.62258e-08
1.81576e-09
-2.83161e-09
7.60158e-08
1.80346e-09
-2.53004e-09
7.56806e-08
1.79153e-09
-2.21218e-09
7.5195e-08
1.78107e-09
-1.87943e-09
7.45263e-08
1.77033e-09
-1.53683e-09
7.36286e-08
1.76011e-09
-1.19071e-09
7.24424e-08
1.74837e-09
-8.44239e-10
7.08861e-08
1.73544e-09
-5.07974e-10
6.88526e-08
1.71861e-09
-1.97279e-10
6.61968e-08
1.69732e-09
7.23423e-11
6.27267e-08
1.66753e-09
2.76667e-10
5.81837e-08
1.62549e-09
3.91159e-10
5.22227e-08
1.5589e-09
3.69737e-10
4.43805e-08
1.46462e-09
2.73861e-08
1.28144e-09
-8.36999e-10
2.57254e-08
1.50027e-09
-1.50532e-09
4.16251e-08
1.7207e-09
-2.09284e-09
4.90167e-08
1.81786e-09
-2.60194e-09
5.46762e-08
1.87972e-09
-3.03671e-09
5.90324e-08
1.91499e-09
-3.40234e-09
6.24059e-08
1.93338e-09
-3.70557e-09
6.50346e-08
1.94167e-09
-3.94758e-09
6.70976e-08
1.94207e-09
-4.13233e-09
6.87269e-08
1.93805e-09
-4.26294e-09
7.00223e-08
1.93019e-09
-4.34242e-09
7.1057e-08
1.92088e-09
-4.36954e-09
7.18866e-08
1.90989e-09
-4.35187e-09
7.25508e-08
1.8991e-09
-4.28619e-09
7.30801e-08
1.88789e-09
-4.18056e-09
7.34951e-08
1.87789e-09
-4.03384e-09
7.38114e-08
1.86824e-09
-3.84927e-09
7.40375e-08
1.86036e-09
-3.63181e-09
7.41793e-08
1.85321e-09
-3.384e-09
7.42369e-08
1.84804e-09
-3.10906e-09
7.42082e-08
1.84364e-09
-2.80762e-09
7.40851e-08
1.84106e-09
-2.48906e-09
7.38569e-08
1.83892e-09
-2.15232e-09
7.35058e-08
1.83811e-09
-1.80269e-09
7.30087e-08
1.83707e-09
-1.44533e-09
7.23324e-08
1.83646e-09
-1.08441e-09
7.14342e-08
1.83449e-09
-7.28589e-10
7.0255e-08
1.8315e-09
-3.8618e-10
6.87178e-08
1.82524e-09
-6.57151e-11
6.67179e-08
1.81539e-09
2.13699e-10
6.41174e-08
1.79875e-09
4.37321e-10
6.07303e-08
1.77358e-09
5.78408e-10
5.63096e-08
1.73384e-09
6.05054e-10
5.05231e-08
1.67117e-09
4.81155e-10
4.29277e-08
1.57798e-09
2.64934e-08
1.37358e-09
-5.74445e-10
2.53049e-08
9.95244e-10
-1.07767e-09
4.09616e-08
1.16533e-09
-1.53986e-09
4.82397e-08
1.24114e-09
-1.96237e-09
5.38094e-08
1.28787e-09
-2.33516e-09
5.80934e-08
1.31227e-09
-2.65969e-09
6.14056e-08
1.32447e-09
-2.93401e-09
6.39818e-08
1.32805e-09
-3.16009e-09
6.59968e-08
1.32652e-09
-3.33647e-09
6.75826e-08
1.32085e-09
-3.46551e-09
6.88365e-08
1.31335e-09
-3.54364e-09
6.98322e-08
1.30419e-09
-3.57579e-09
7.06235e-08
1.29512e-09
-3.56247e-09
7.12515e-08
1.28586e-09
-3.50527e-09
7.17453e-08
1.27789e-09
-3.40852e-09
7.21269e-08
1.27067e-09
-3.27357e-09
7.24106e-08
1.26546e-09
-3.10514e-09
7.26067e-08
1.26155e-09
-2.90359e-09
7.27197e-08
1.25999e-09
-2.67795e-09
7.27513e-08
1.25988e-09
-2.43204e-09
7.26982e-08
1.2621e-09
-2.16419e-09
7.25541e-08
1.26555e-09
-1.88663e-09
7.2307e-08
1.27091e-09
-1.599e-09
7.19411e-08
1.27692e-09
-1.30676e-09
7.14321e-08
1.28409e-09
-1.01406e-09
7.07493e-08
1.29096e-09
-7.26205e-10
6.98493e-08
1.29783e-09
-4.51596e-10
6.86759e-08
1.30299e-09
-1.91928e-10
6.71526e-08
1.30642e-09
4.03393e-11
6.51789e-08
1.30592e-09
2.39043e-10
6.26192e-08
1.30075e-09
3.86881e-10
5.92941e-08
1.2877e-09
4.70191e-10
5.49618e-08
1.26406e-09
4.69123e-10
4.93017e-08
1.22232e-09
3.57719e-10
4.18816e-08
1.15848e-09
2.58445e-08
1.00596e-09
-2.14067e-10
2.52073e-08
3.12435e-10
-4.87221e-10
4.08566e-08
3.77066e-10
-7.81203e-10
4.81282e-08
4.06476e-10
-1.08242e-09
5.36886e-08
4.20418e-10
-1.36946e-09
5.79592e-08
4.23084e-10
-1.6405e-09
6.12553e-08
4.18921e-10
-1.87869e-09
6.38117e-08
4.10985e-10
-2.08821e-09
6.58048e-08
3.99941e-10
-2.25753e-09
6.73657e-08
3.87565e-10
-2.3897e-09
6.85935e-08
3.74059e-10
-2.47946e-09
6.95611e-08
3.60901e-10
-2.52777e-09
7.03243e-08
3.48031e-10
-2.53742e-09
7.09231e-08
3.36727e-10
-2.50507e-09
7.13886e-08
3.26742e-10
-2.44075e-09
7.17419e-08
3.19193e-10
-2.34283e-09
7.1999e-08
3.13665e-10
-2.21685e-09
7.21693e-08
3.11101e-10
-2.06618e-09
7.2259e-08
3.10892e-10
-1.89721e-09
7.22687e-08
3.13785e-10
-1.71569e-09
7.21965e-08
3.18988e-10
-1.52266e-09
7.2035e-08
3.27053e-10
-1.32688e-09
7.17737e-08
3.36991e-10
-1.12832e-09
7.13952e-08
3.49186e-10
-9.3767e-10
7.0877e-08
3.62487e-10
-7.52012e-10
7.01869e-08
3.77123e-10
-5.76354e-10
6.92831e-08
3.91814e-10
-4.16506e-10
6.81084e-08
4.06809e-10
-2.71784e-10
6.6588e-08
4.20754e-10
-1.47179e-10
6.46207e-08
4.33168e-10
-4.27625e-11
6.20735e-08
4.42489e-10
3.50064e-11
5.87668e-08
4.48244e-10
8.79507e-11
5.44625e-08
4.48184e-10
1.05401e-10
4.8841e-08
4.40332e-10
9.14828e-11
4.14755e-08
4.23326e-10
2.55617e-08
3.72976e-10
1.24096e-10
2.54541e-08
-3.72476e-10
7.13362e-11
4.13343e-08
-4.23359e-10
-6.32099e-11
4.87094e-08
-4.46262e-10
-2.48828e-10
5.43419e-08
-4.6739e-10
-4.61952e-10
5.8661e-08
-4.89301e-10
-6.83399e-10
6.19868e-08
-5.10958e-10
-8.95842e-10
6.45591e-08
-5.3283e-10
-1.09394e-09
6.65567e-08
-5.54335e-10
-1.26673e-09
6.81144e-08
-5.75752e-10
-1.40963e-09
6.93321e-08
-5.96171e-10
-1.51769e-09
7.02857e-08
-6.15666e-10
-1.59156e-09
7.10311e-08
-6.33244e-10
-1.63106e-09
7.1611e-08
-6.4895e-10
-1.63588e-09
7.20559e-08
-6.61835e-10
-1.61164e-09
7.23891e-08
-6.72052e-10
-1.56013e-09
7.2626e-08
-6.78772e-10
-1.48579e-09
7.27777e-08
-6.82323e-10
-1.39395e-09
7.28493e-08
-6.82085e-10
-1.29059e-09
7.28431e-08
-6.78548e-10
-1.17764e-09
7.27561e-08
-6.71239e-10
-1.06467e-09
7.25822e-08
-6.6083e-10
-9.53417e-10
7.23093e-08
-6.4706e-10
-8.473e-10
7.19213e-08
-6.30781e-10
-7.53664e-10
7.1394e-08
-6.11881e-10
-6.71276e-10
7.06959e-08
-5.91326e-10
-6.03052e-10
6.97834e-08
-5.69076e-10
-5.47042e-10
6.85996e-08
-5.46266e-10
-5.03249e-10
6.70675e-08
-5.2283e-10
-4.70806e-10
6.50859e-08
-4.99272e-10
-4.39271e-10
6.25187e-08
-4.75306e-10
-4.05661e-10
5.91855e-08
-4.51462e-10
-3.61974e-10
5.48444e-08
-4.26725e-10
-2.93833e-10
4.9173e-08
-4.00045e-10
-1.91381e-10
4.17389e-08
-3.66597e-10
2.56759e-08
-3.04412e-10
3.58396e-10
2.59862e-08
-8.92893e-10
4.6254e-10
4.22702e-08
-1.03699e-09
4.44701e-10
4.98282e-08
-1.10187e-09
3.45033e-10
5.55936e-08
-1.15201e-09
1.93282e-10
6.00065e-08
-1.19366e-09
1.13151e-11
6.33977e-08
-1.23035e-09
-1.76354e-10
6.60126e-08
-1.26352e-09
-3.6421e-10
6.80366e-08
-1.29445e-09
-5.3341e-10
6.96074e-08
-1.32323e-09
-6.81073e-10
7.08294e-08
-1.35023e-09
-7.99656e-10
7.17799e-08
-1.3749e-09
-8.88693e-10
7.2518e-08
-1.39729e-09
-9.5024e-10
7.30868e-08
-1.41666e-09
-9.78469e-10
7.35194e-08
-1.43298e-09
-9.84053e-10
7.38388e-08
-1.44553e-09
-9.65571e-10
7.40623e-08
-1.45436e-09
-9.2986e-10
7.42005e-08
-1.45885e-09
-8.80433e-10
7.42601e-08
-1.45921e-09
-8.26179e-10
7.42423e-08
-1.45505e-09
-7.67084e-10
7.41454e-08
-1.44682e-09
-7.13305e-10
7.39621e-08
-1.43436e-09
-6.66607e-10
7.36811e-08
-1.41827e-09
-6.32413e-10
7.32848e-08
-1.39856e-09
-6.10676e-10
7.27494e-08
-1.37595e-09
-6.0589e-10
7.20412e-08
-1.35052e-09
-6.16606e-10
7.11166e-08
-1.32301e-09
-6.39456e-10
6.9916e-08
-1.2934e-09
-6.69967e-10
6.83613e-08
-1.26222e-09
-7.04133e-10
6.63474e-08
-1.22907e-09
-7.27459e-10
6.37358e-08
-1.19382e-09
-7.26529e-10
6.03404e-08
-1.15515e-09
-6.84703e-10
5.59143e-08
-1.11125e-09
-5.81172e-10
5.01257e-08
-1.05711e-09
-3.88607e-10
4.25328e-08
-9.84811e-10
2.61202e-08
-8.33589e-10
4.47967e-10
2.66932e-08
-1.1549e-09
6.15768e-10
4.34466e-08
-1.34487e-09
6.56392e-10
5.12193e-08
-1.4313e-09
6.04088e-10
5.71419e-08
-1.49615e-09
4.92608e-10
6.16684e-08
-1.54827e-09
3.411e-10
6.51399e-08
-1.59258e-09
1.73862e-10
6.78103e-08
-1.63204e-09
9.28004e-12
6.98706e-08
-1.66785e-09
-1.45665e-10
7.14639e-08
-1.701e-09
-2.83529e-10
7.26973e-08
-1.7315e-09
-3.94026e-10
7.3652e-08
-1.75951e-09
-4.83402e-10
7.43885e-08
-1.78454e-09
-5.38899e-10
7.49525e-08
-1.80648e-09
-5.74274e-10
7.53774e-08
-1.82471e-09
-5.83252e-10
7.56885e-08
-1.83911e-09
-5.76161e-10
7.59029e-08
-1.84913e-09
-5.54607e-10
7.60327e-08
-1.85477e-09
-5.21384e-10
7.60842e-08
-1.85566e-09
-4.88068e-10
7.60597e-08
-1.85199e-09
-4.54647e-10
7.59564e-08
-1.84359e-09
-4.30004e-10
7.57678e-08
-1.83087e-09
-4.15953e-10
7.54814e-08
-1.81384e-09
-4.18221e-10
7.50796e-08
-1.79307e-09
-4.37833e-10
7.4537e-08
-1.7687e-09
-4.73748e-10
7.38197e-08
-1.74136e-09
-5.27258e-10
7.28815e-08
-1.71118e-09
-5.95137e-10
7.16616e-08
-1.67864e-09
-6.68339e-10
7.00787e-08
-1.64358e-09
-7.40174e-10
6.80249e-08
-1.60596e-09
-7.9635e-10
6.53568e-08
-1.5648e-09
-8.19728e-10
6.1883e-08
-1.51887e-09
-7.89932e-10
5.73488e-08
-1.46496e-09
-6.79925e-10
5.14127e-08
-1.39712e-09
-4.62891e-10
4.36198e-08
-1.30539e-09
2.67695e-08
-1.11033e-09
4.01432e-10
2.74351e-08
-1.14365e-09
5.55862e-10
4.46212e-08
-1.32788e-09
5.94512e-10
5.2592e-08
-1.41275e-09
5.51681e-10
5.8661e-08
-1.47726e-09
4.57551e-10
6.32936e-08
-1.52896e-09
3.27577e-10
6.68412e-08
-1.57323e-09
1.87263e-10
6.95644e-08
-1.6126e-09
4.70338e-11
7.16602e-08
-1.64864e-09
-8.28479e-11
7.32756e-08
-1.68193e-09
-1.96049e-10
7.45218e-08
-1.71281e-09
-2.83114e-10
7.54821e-08
-1.74108e-09
-3.48392e-10
7.62193e-08
-1.7666e-09
-3.85891e-10
7.67805e-08
-1.78888e-09
-4.04498e-10
7.72009e-08
-1.80766e-09
-3.97265e-10
7.75062e-08
-1.82242e-09
-3.77892e-10
7.77148e-08
-1.83302e-09
-3.43142e-10
7.78387e-08
-1.83904e-09
-3.04306e-10
7.78852e-08
-1.84048e-09
-2.62293e-10
7.78561e-08
-1.83716e-09
-2.26457e-10
7.77493e-08
-1.82929e-09
-1.99708e-10
7.75574e-08
-1.81687e-09
-1.84293e-10
7.72682e-08
-1.80031e-09
-1.89921e-10
7.68627e-08
-1.7798e-09
-2.1084e-10
7.63154e-08
-1.75584e-09
-2.52872e-10
7.55905e-08
-1.72872e-09
-3.14304e-10
7.4641e-08
-1.69893e-09
-3.88784e-10
7.34037e-08
-1.6666e-09
-4.73793e-10
7.17951e-08
-1.63194e-09
-5.59368e-10
6.97038e-08
-1.5946e-09
-6.27985e-10
6.69827e-08
-1.55396e-09
-6.71831e-10
6.34343e-08
-1.50849e-09
-6.66021e-10
5.87978e-08
-1.45546e-09
-5.86099e-10
5.27216e-08
-1.38882e-09
-4.04359e-10
4.47399e-08
-1.30024e-09
2.74764e-08
-1.11239e-09
2.60242e-10
2.80883e-08
-9.13162e-10
3.39265e-10
4.55908e-08
-1.04858e-09
3.36393e-10
5.37075e-08
-1.11314e-09
2.76755e-10
5.98842e-08
-1.16454e-09
1.85854e-10
6.4595e-08
-1.20714e-09
7.09268e-11
6.81981e-08
-1.24458e-09
-4.53208e-11
7.09597e-08
-1.27885e-09
-1.54402e-10
7.30807e-08
-1.3108e-09
-2.5024e-10
7.47115e-08
-1.34092e-09
-3.25088e-10
7.59658e-08
-1.36915e-09
-3.77058e-10
7.6929e-08
-1.39538e-09
-4.03487e-10
7.76654e-08
-1.41916e-09
-4.07341e-10
7.82236e-08
-1.44018e-09
-3.87249e-10
7.86395e-08
-1.45793e-09
-3.49512e-10
7.89399e-08
-1.47209e-09
-2.95868e-10
7.91437e-08
-1.48228e-09
-2.32449e-10
7.92634e-08
-1.48829e-09
-1.64382e-10
7.93064e-08
-1.48992e-09
-9.49722e-11
7.92749e-08
-1.48717e-09
-3.28529e-11
7.91665e-08
-1.48005e-09
1.99086e-11
7.89737e-08
-1.46876e-09
5.76166e-11
7.86839e-08
-1.45352e-09
7.62299e-11
7.82778e-08
-1.4347e-09
7.60703e-11
7.77288e-08
-1.41266e-09
5.38557e-11
7.70007e-08
-1.38787e-09
1.05156e-11
7.60447e-08
-1.36068e-09
-5.02393e-11
7.47965e-08
-1.33151e-09
-1.26106e-10
7.31704e-08
-1.30049e-09
-2.06896e-10
7.10527e-08
-1.26765e-09
-2.85413e-10
6.8293e-08
-1.23251e-09
-3.46498e-10
6.46901e-08
-1.1942e-09
-3.76641e-10
5.99778e-08
-1.15062e-09
-3.55694e-10
5.37978e-08
-1.09767e-09
-2.61733e-10
4.56759e-08
-1.03043e-09
2.81076e-08
-8.92291e-10
7.58433e-11
2.85635e-08
-5.51324e-10
5.32644e-11
4.62267e-08
-6.1178e-10
-1.47082e-11
5.4418e-08
-6.44413e-10
-1.0526e-10
6.06496e-08
-6.74983e-10
-2.05552e-10
6.53996e-08
-7.02865e-10
-3.08587e-10
6.90295e-08
-7.29343e-10
-4.02327e-10
7.18082e-08
-7.55064e-10
-4.7934e-10
7.3939e-08
-7.80245e-10
-5.38126e-10
7.5574e-08
-8.04814e-10
-5.72611e-10
7.68285e-08
-8.28502e-10
-5.80004e-10
7.77889e-08
-8.50902e-10
-5.63818e-10
7.85207e-08
-8.71565e-10
-5.26004e-10
7.90733e-08
-8.89995e-10
-4.61084e-10
7.94835e-08
-9.05748e-10
-3.81719e-10
7.97784e-08
-9.18399e-10
-2.88838e-10
7.99774e-08
-9.27623e-10
-1.85428e-10
8.00934e-08
-9.33138e-10
-7.67664e-11
8.01338e-08
-9.34808e-10
2.92977e-11
8.0101e-08
-9.32562e-10
1.28654e-10
7.99926e-08
-9.26472e-10
2.19836e-10
7.98011e-08
-9.16674e-10
2.93379e-10
7.95132e-08
-9.03456e-10
3.48642e-10
7.91098e-08
-8.87133e-10
3.8278e-10
7.85633e-08
-8.68143e-10
3.93187e-10
7.78371e-08
-8.46925e-10
3.79601e-10
7.68817e-08
-8.23976e-10
3.45206e-10
7.56316e-08
-7.99734e-10
2.89544e-10
7.4e-08
-7.74606e-10
2.19917e-10
7.18719e-08
-7.48853e-10
1.40331e-10
6.90951e-08
-7.22541e-10
6.0338e-11
6.54661e-08
-6.95448e-10
-9.95846e-12
6.07162e-08
-6.66836e-10
-6.28403e-11
5.44836e-08
-6.3509e-10
-7.69553e-11
4.62907e-08
-6.00432e-10
2.85692e-08
-5.37855e-10
-1.05659e-10
2.88195e-08
-1.51756e-10
-2.30503e-10
4.64838e-08
-1.29613e-10
-3.6455e-10
5.46763e-08
-1.26743e-10
-4.87989e-10
6.09081e-08
-1.33833e-10
-6.0088e-10
6.56563e-08
-1.44903e-10
-6.93267e-10
6.92825e-08
-1.58716e-10
-7.66199e-10
7.20558e-08
-1.74548e-10
-8.1681e-10
7.41796e-08
-1.91769e-10
-8.37888e-10
7.58065e-08
-2.0979e-10
-8.34468e-10
7.7052e-08
-2.28017e-10
-8.034e-10
7.80032e-08
-2.45821e-10
-7.45937e-10
7.87259e-08
-2.62635e-10
-6.64324e-10
7.92698e-08
-2.77895e-10
-5.60867e-10
7.96721e-08
-2.91116e-10
-4.41463e-10
7.99602e-08
-3.01848e-10
-3.07872e-10
8.01538e-08
-3.09753e-10
-1.6756e-10
8.02659e-08
-3.14552e-10
-2.08354e-11
8.03043e-08
-3.16096e-10
1.23159e-10
8.02712e-08
-3.14327e-10
2.61355e-10
8.01642e-08
-3.09299e-10
3.88229e-10
7.99756e-08
-3.0117e-10
5.0015e-10
7.96923e-08
-2.90199e-10
5.90385e-10
7.92945e-08
-2.76739e-10
6.6063e-10
7.87549e-08
-2.61223e-10
7.06593e-10
7.80361e-08
-2.4414e-10
7.26317e-10
7.70885e-08
-2.2605e-10
7.19121e-10
7.5846e-08
-2.07526e-10
6.8603e-10
7.42218e-08
-1.89169e-10
6.30659e-10
7.21002e-08
-1.71585e-10
5.51634e-10
6.93288e-08
-1.55367e-10
4.54757e-10
6.57039e-08
-1.41058e-10
3.4394e-10
6.09567e-08
-1.29373e-10
2.24416e-10
5.47256e-08
-1.21432e-10
1.01562e-10
4.65337e-08
-1.22781e-10
2.88165e-08
-1.43273e-10
-2.50474e-10
2.88573e-08
2.11387e-10
-4.63453e-10
4.63885e-08
3.09533e-10
-6.5225e-10
5.45204e-08
3.44914e-10
-8.08346e-10
6.07055e-08
3.59121e-10
-9.33473e-10
6.54167e-08
3.62956e-10
-1.02222e-09
6.90125e-08
3.60434e-10
-1.08116e-09
7.17602e-08
3.53547e-10
-1.10679e-09
7.38618e-08
3.43612e-10
-1.10241e-09
7.54692e-08
3.31663e-10
-1.0659e-09
7.66974e-08
3.18613e-10
-1.00076e-09
7.76331e-08
3.05203e-10
-9.09859e-10
7.8342e-08
2.92142e-10
-7.92983e-10
7.8874e-08
2.80006e-10
-6.56761e-10
7.92661e-08
2.69331e-10
-5.02862e-10
7.9546e-08
2.60548e-10
-3.37269e-10
7.97333e-08
2.54022e-10
-1.62828e-10
7.98413e-08
2.49999e-10
1.69788e-11
7.98777e-08
2.48658e-10
1.914e-10
7.98448e-08
2.50021e-10
3.62509e-10
7.97402e-08
2.54071e-10
5.21408e-10
7.95562e-08
2.60622e-10
6.62926e-10
7.92795e-08
2.69446e-10
7.88543e-10