/*--------------------------------*- C++ -*----------------------------------*\
| =========                 |                                                 |
| \\      /  F ield         | OpenFOAM: The Open Source CFD Toolbox           |
|  \\    /   O peration     | Version:  v2012                                 |
|   \\  /    A nd           | Website:  www.openfoam.com                      |
|    \\/     M anipulation  |                                                 |
\*---------------------------------------------------------------------------*/
FoamFile
{
    version     2.0;
    format      ascii;
    class       volVectorField;
    location    "83";
    object      U;
}
// * * * * * * * * * * * * * * * * * * * * * * * * * * * * * * * * * * * * * //

dimensions      [0 1 -1 0 0 0 0];


internalField   nonuniform List<vector> 
78750
(
(-1.02629e-06 -6.24968e-05 0.000125673)
(-1.9548e-06 -9.00843e-05 0.000220166)
(-6.61176e-06 -9.47623e-05 0.000268669)
(-1.42853e-05 -9.04835e-05 0.0003022)
(-2.53462e-05 -8.10207e-05 0.00032409)
(-3.93382e-05 -6.86738e-05 0.000337012)
(-5.5641e-05 -5.51236e-05 0.00034293)
(-7.35363e-05 -4.14779e-05 0.000343416)
(-9.24455e-05 -2.85218e-05 0.000339642)
(-0.000111762 -1.67166e-05 0.000332591)
(-0.000130967 -6.42435e-06 0.000322995)
(-0.000149586 2.24802e-06 0.000311498)
(-0.000167196 9.17449e-06 0.000298574)
(-0.000183418 1.44076e-05 0.000284675)
(-0.000197931 1.7938e-05 0.000270132)
(-0.00021046 1.98831e-05 0.000255292)
(-0.000220772 2.02784e-05 0.000240416)
(-0.000228677 1.92614e-05 0.000225794)
(-0.000234029 1.68851e-05 0.000211652)
(-0.000236725 1.32871e-05 0.000198247)
(-0.000236694 8.52807e-06 0.000185777)
(-0.000233902 2.75065e-06 0.000174457)
(-0.000228339 -3.95631e-06 0.000164443)
(-0.000220039 -1.14265e-05 0.000155888)
(-0.000209066 -1.95288e-05 0.000148857)
(-0.000195508 -2.80392e-05 0.000143378)
(-0.000179506 -3.67331e-05 0.000139351)
(-0.000161207 -4.52518e-05 0.000136572)
(-0.000140805 -5.31917e-05 0.000134668)
(-0.000118545 -5.99552e-05 0.000133045)
(-9.4627e-05 -6.47937e-05 0.000130777)
(-6.91709e-05 -6.66393e-05 0.000126488)
(-4.30126e-05 -6.40581e-05 0.000118201)
(-2.14087e-05 -5.5119e-05 0.00010297)
(-5.73575e-06 -3.18809e-05 6.49963e-05)
(-1.84926e-06 8.67088e-05 -0.000176743)
(-1.54199e-05 0.000182786 -0.000269757)
(-3.05326e-05 0.000235403 -0.000304611)
(-5.29343e-05 0.000278186 -0.000333539)
(-7.69134e-05 0.000311419 -0.000356806)
(-0.000100847 0.000335853 -0.000374871)
(-0.000124003 0.000352884 -0.000388945)
(-0.000145888 0.000363211 -0.000400389)
(-0.000166032 0.000368018 -0.000409639)
(-0.000184137 0.000367732 -0.000417317)
(-0.000199986 0.000363304 -0.000423482)
(-0.000213431 0.000355018 -0.000428512)
(-0.000224405 0.000343646 -0.000432353)
(-0.000232896 0.00032933 -0.0004353)
(-0.000238882 0.000312783 -0.000437233)
(-0.000242414 0.000294121 -0.000438386)
(-0.000243534 0.000273949 -0.000438631)
(-0.00024234 0.000252344 -0.000438171)
(-0.000238917 0.000229851 -0.000436878)
(-0.0002334 0.000206533 -0.000434914)
(-0.00022589 0.000182884 -0.000432142)
(-0.000216581 0.000158865 -0.000428726)
(-0.000205599 0.000134916 -0.000424517)
(-0.000193127 0.000111095 -0.000419573)
(-0.000179323 8.77905e-05 -0.000413693)
(-0.000164382 6.50501e-05 -0.000406836)
(-0.000148462 4.32236e-05 -0.000398682)
(-0.000131759 2.23619e-05 -0.000388866)
(-0.000114459 2.79724e-06 -0.000376616)
(-9.67461e-05 -1.53828e-05 -0.000360987)
(-7.86694e-05 -3.17741e-05 -0.000340385)
(-5.99979e-05 -4.59853e-05 -0.000312003)
(-4.06875e-05 -5.67528e-05 -0.000269272)
(-2.48036e-05 -6.10862e-05 -0.000204384)
(-1.37505e-05 -4.32371e-05 -7.31054e-05)
(2.06592e-07 0.00024158 -0.00014244)
(-7.33089e-06 0.000413869 -0.000233367)
(-1.36643e-05 0.000489539 -0.000270216)
(-2.379e-05 0.000543257 -0.000294775)
(-3.45521e-05 0.000579789 -0.000311935)
(-4.50998e-05 0.00060334 -0.000324251)
(-5.51635e-05 0.000616307 -0.000333598)
(-6.45148e-05 0.000621172 -0.000340781)
(-7.29972e-05 0.000619161 -0.000346639)
(-8.04684e-05 0.000611854 -0.00035136)
(-8.6867e-05 0.000599868 -0.00035538)
(-9.21293e-05 0.000584318 -0.000358629)
(-9.62739e-05 0.000565511 -0.000361383)
(-9.92806e-05 0.000544304 -0.000363491)
(-0.000101207 0.000520859 -0.000365159)
(-0.000102065 0.000495881 -0.00036622)
(-0.000101932 0.000469464 -0.00036685)
(-0.000100831 0.000442212 -0.000366894)
(-9.88701e-05 0.000414259 -0.000366447)
(-9.60716e-05 0.000386146 -0.000365352)
(-9.25649e-05 0.000357839 -0.000363793)
(-8.83792e-05 0.000329835 -0.000361617)
(-8.3646e-05 0.000302151 -0.000358923)
(-7.8432e-05 0.000275184 -0.00035554)
(-7.28482e-05 0.000248933 -0.000351503)
(-6.69442e-05 0.000223714 -0.000346579)
(-6.08056e-05 0.000199489 -0.000340655)
(-5.44652e-05 0.000176491 -0.000333291)
(-4.79922e-05 0.000154626 -0.000324021)
(-4.13988e-05 0.000134032 -0.000311903)
(-3.46947e-05 0.000114522 -0.000295617)
(-2.76634e-05 9.60931e-05 -0.000272598)
(-2.00369e-05 7.83496e-05 -0.000238448)
(-1.27946e-05 6.11237e-05 -0.00018793)
(-8.66356e-06 3.33426e-05 -7.61904e-05)
(9.32999e-08 0.000323937 -2.19281e-05)
(-3.14203e-06 0.000534268 -8.36595e-05)
(-3.72871e-06 0.000627746 -0.000117925)
(-5.85001e-06 0.000694224 -0.000141925)
(-8.32064e-06 0.000740095 -0.000157877)
(-1.09539e-05 0.000769758 -0.000169725)
(-1.36046e-05 0.000786982 -0.0001793)
(-1.62226e-05 0.000794111 -0.000187719)
(-1.86865e-05 0.000793488 -0.00019531)
(-2.09562e-05 0.000786351 -0.000202582)
(-2.29511e-05 0.000774249 -0.000209524)
(-2.46689e-05 0.000757833 -0.000216403)
(-2.60577e-05 0.000738209 -0.000223059)
(-2.71432e-05 0.000715722 -0.00022965)
(-2.79049e-05 0.000691223 -0.000235966)
(-2.83861e-05 0.000664896 -0.00024212)
(-2.85827e-05 0.000637434 -0.000247894)
(-2.85491e-05 0.000608931 -0.000253384)
(-2.82854e-05 0.000579969 -0.000258377)
(-2.7857e-05 0.000550567 -0.000262974)
(-2.72628e-05 0.000521308 -0.000266921)
(-2.65739e-05 0.0004923 -0.000270228)
(-2.57968e-05 0.000463929 -0.000272712)
(-2.49958e-05 0.000436121 -0.000274426)
(-2.41723e-05 0.000409164 -0.000275158)
(-2.33538e-05 0.000382824 -0.000274955)
(-2.25151e-05 0.000357246 -0.00027354)
(-2.16577e-05 0.000332168 -0.000270766)
(-2.07104e-05 0.000307507 -0.000266165)
(-1.96221e-05 0.000282763 -0.000259257)
(-1.82332e-05 0.000257487 -0.00024912)
(-1.62532e-05 0.000230758 -0.000234775)
(-1.31023e-05 0.000201469 -0.000214504)
(-9.00545e-06 0.00016799 -0.000183779)
(-6.85181e-06 0.000102624 -9.73629e-05)
(-1.52438e-06 0.000352855 5.03869e-05)
(-3.6415e-06 0.000567811 1.5431e-05)
(-2.25868e-06 0.000664621 -1.22032e-05)
(-8.56282e-07 0.000734975 -3.24713e-05)
(9.0384e-07 0.000784672 -4.59367e-05)
(2.82103e-06 0.000818606 -5.60752e-05)
(4.76878e-06 0.00083994 -6.49203e-05)
(6.67473e-06 0.000851635 -7.29739e-05)
(8.48733e-06 0.000855414 -8.07612e-05)
(1.0179e-05 0.000853154 -8.83725e-05)
(1.17137e-05 0.00084578 -9.60913e-05)
(1.309e-05 0.000834563 -0.000103811)
(1.4276e-05 0.000819996 -0.00011168)
(1.52721e-05 0.000803003 -0.00011951)
(1.60465e-05 0.000783838 -0.000127388)
(1.66032e-05 0.000763217 -0.000135101)
(1.69061e-05 0.000741264 -0.000142709)
(1.69574e-05 0.000718554 -0.000149999)
(1.67241e-05 0.000695127 -0.00015702)
(1.62099e-05 0.00067147 -0.000163563)
(1.53796e-05 0.000647596 -0.000169654)
(1.42582e-05 0.000623886 -0.000175102)
(1.28277e-05 0.00060025 -0.000179939)
(1.1126e-05 0.000576927 -0.000183988)
(9.15284e-06 0.000553725 -0.000187269)
(6.95665e-06 0.000530713 -0.000189602)
(4.56067e-06 0.000507524 -0.000190967)
(2.0523e-06 0.000483967 -0.000191145)
(-4.91691e-07 0.000459362 -0.000189999)
(-2.92458e-06 0.000433079 -0.000187125)
(-5.09513e-06 0.000403876 -0.000182174)
(-6.67045e-06 0.000370359 -0.000174932)
(-7.02185e-06 0.000330167 -0.000165551)
(-5.57217e-06 0.000280564 -0.000150026)
(-5.04247e-06 0.000176966 -8.83577e-05)
(-1.91983e-06 0.000360911 8.26051e-05)
(-3.24766e-06 0.000568232 6.41355e-05)
(-1.594e-06 0.00066291 4.28385e-05)
(5.84242e-07 0.0007328 2.63978e-05)
(3.37234e-06 0.000783829 1.54789e-05)
(6.44701e-06 0.00082002 6.96634e-06)
(9.62437e-06 0.000844883 -5.6464e-07)
(1.27611e-05 0.000860639 -7.85562e-06)
(1.57767e-05 0.000869429 -1.50352e-05)
(1.85907e-05 0.000872435 -2.23518e-05)
(2.11616e-05 0.000871041 -2.97815e-05)
(2.34343e-05 0.000865872 -3.74689e-05)
(2.53891e-05 0.000857891 -4.52315e-05)
(2.69866e-05 0.000847427 -5.31439e-05)
(2.82192e-05 0.000835188 -6.10365e-05)
(2.90547e-05 0.000821329 -6.89485e-05)
(2.94975e-05 0.000806402 -7.66989e-05)
(2.95199e-05 0.000790458 -8.43126e-05)
(2.91315e-05 0.000773933 -9.16115e-05)
(2.83123e-05 0.000756804 -9.86168e-05)
(2.70864e-05 0.000739402 -0.00010516)
(2.54464e-05 0.000721622 -0.000111266)
(2.34273e-05 0.000703688 -0.000116773)
(2.10354e-05 0.000685401 -0.000121702)
(1.83206e-05 0.000666819 -0.000125904)
(1.53154e-05 0.000647559 -0.000129395)
(1.21023e-05 0.000627408 -0.000132032)
(8.74452e-06 0.000605669 -0.000133817)
(5.37042e-06 0.000581698 -0.000134557)
(2.09966e-06 0.000554259 -0.000134134)
(-8.80594e-07 0.000521945 -0.000132286)
(-3.29456e-06 0.000482559 -0.000129337)
(-4.55235e-06 0.000433324 -0.000125953)
(-4.03906e-06 0.000370313 -0.000118912)
(-3.88147e-06 0.000235593 -7.46572e-05)
(-1.56413e-06 0.000353299 8.48696e-05)
(-2.17648e-06 0.000551152 7.41716e-05)
(-6.96818e-07 0.000642247 5.78806e-05)
(1.38976e-06 0.000710745 4.5064e-05)
(4.01416e-06 0.000761839 3.6424e-05)
(6.90407e-06 0.000799696 2.96127e-05)
(9.8949e-06 0.000827123 2.3341e-05)
(1.28712e-05 0.00084658 1.73234e-05)
(1.57443e-05 0.000859586 1.13101e-05)
(1.84419e-05 0.000867685 5.28253e-06)
(2.09071e-05 0.000871679 -8.99726e-07)
(2.30965e-05 0.000872583 -7.153e-06)
(2.4969e-05 0.0008708 -1.35883e-05)
(2.6502e-05 0.000867029 -2.00771e-05)
(2.76645e-05 0.000861452 -2.66498e-05)
(2.84462e-05 0.000854591 -3.31632e-05)
(2.88266e-05 0.000846495 -3.96388e-05)
(2.88098e-05 0.000837562 -4.59338e-05)
(2.8382e-05 0.000827755 -5.20661e-05)
(2.75545e-05 0.000817372 -5.78982e-05)
(2.63249e-05 0.000806295 -6.3449e-05)
(2.47165e-05 0.000794714 -6.85901e-05)
(2.27392e-05 0.000782409 -7.33439e-05)
(2.04318e-05 0.000769423 -7.75921e-05)
(1.78186e-05 0.000755376 -8.13598e-05)
(1.49651e-05 0.000740085 -8.45381e-05)
(1.1921e-05 0.000722893 -8.7153e-05)
(8.77887e-06 0.000703237 -8.90986e-05)
(5.63004e-06 0.000679974 -9.03715e-05)
(2.60741e-06 0.000651881 -9.0798e-05)
(-1.51994e-07 0.000616947 -9.03522e-05)
(-2.39726e-06 0.000572782 -8.93383e-05)
(-3.65414e-06 0.000515805 -8.86745e-05)
(-3.38212e-06 0.000441538 -8.57522e-05)
(-3.14586e-06 0.000280645 -5.44805e-05)
(-1.02951e-06 0.00034175 7.28782e-05)
(-1.20712e-06 0.000534172 6.61291e-05)
(-2.39598e-07 0.000623417 5.44056e-05)
(1.14403e-06 0.000691111 4.4991e-05)
(2.8673e-06 0.000742593 3.86246e-05)
(4.77047e-06 0.000781527 3.35066e-05)
(6.74671e-06 0.000810991 2.88382e-05)
(8.73173e-06 0.000832966 2.42787e-05)
(1.06528e-05 0.000849278 1.97859e-05)
(1.24636e-05 0.000860976 1.52243e-05)
(1.4123e-05 0.00086919 1.06241e-05)
(1.55929e-05 0.000874453 5.91187e-06)
(1.6849e-05 0.000877501 1.1608e-06)
(1.78623e-05 0.000878577 -3.66532e-06)
(1.86222e-05 0.000878192 -8.46627e-06)
(1.91048e-05 0.000876422 -1.32719e-05)
(1.93044e-05 0.000873638 -1.7972e-05)
(1.92138e-05 0.000869809 -2.25932e-05)
(1.88343e-05 0.000865204 -2.70283e-05)
(1.81619e-05 0.000859703 -3.13037e-05)
(1.72134e-05 0.00085348 -3.53173e-05)
(1.59893e-05 0.000846319 -3.90989e-05)
(1.45184e-05 0.000838269 -4.25521e-05)
(1.28157e-05 0.000828976 -4.57117e-05)
(1.09228e-05 0.0008183 -4.84873e-05)
(8.87267e-06 0.000805658 -5.09181e-05)
(6.72036e-06 0.000790593 -5.29189e-05)
(4.52331e-06 0.000772124 -5.45297e-05)
(2.36934e-06 0.000749242 -5.56509e-05)
(3.37929e-07 0.000720258 -5.6273e-05)
(-1.44754e-06 0.000683185 -5.62935e-05)
(-2.81605e-06 0.000635072 -5.60705e-05)
(-3.41845e-06 0.000572175 -5.62392e-05)
(-2.97053e-06 0.000489272 -5.49944e-05)
(-2.47358e-06 0.000308911 -3.35716e-05)
(-8.19123e-07 0.000329739 5.90751e-05)
(-9.61958e-07 0.000520548 5.67325e-05)
(-5.91608e-07 0.000609212 4.98532e-05)
(-5.33013e-08 0.000676978 4.41338e-05)
(6.86316e-07 0.000728846 4.01187e-05)
(1.54287e-06 0.000768778 3.68246e-05)
(2.4617e-06 0.000799486 3.37056e-05)
(3.40307e-06 0.000823259 3.06737e-05)
(4.339e-06 0.00084154 2.76274e-05)
(5.23793e-06 0.00085569 2.45871e-05)
(6.07344e-06 0.000866448 2.14849e-05)
(6.82167e-06 0.000874655 1.83726e-05)
(7.46125e-06 0.000880667 1.51975e-05)
(7.98279e-06 0.000885032 1.20217e-05)
(8.36739e-06 0.000887876 8.8173e-06)
(8.60887e-06 0.000889573 5.68543e-06)
(8.69483e-06 0.000890114 2.59382e-06)
(8.62235e-06 0.000889761 -3.80167e-07)
(8.38681e-06 0.000888408 -3.27047e-06)
(7.99354e-06 0.000886222 -5.99745e-06)
(7.44167e-06 0.000883007 -8.59948e-06)
(6.74475e-06 0.000878822 -1.09993e-05)
(5.90985e-06 0.000873355 -1.32407e-05)
(4.96075e-06 0.000866509 -1.52503e-05)
(3.91335e-06 0.000857788 -1.70761e-05)
(2.79832e-06 0.000846846 -1.86499e-05)
(1.6466e-06 0.000832865 -2.00241e-05)
(5.0311e-07 0.000815071 -2.11359e-05)
(-5.85664e-07 0.00079208 -2.2031e-05)
(-1.56311e-06 0.000762356 -2.26251e-05)
(-2.36302e-06 0.000723502 -2.29707e-05)
(-2.87099e-06 0.000672631 -2.32514e-05)
(-2.88192e-06 0.000605517 -2.40306e-05)
(-2.28507e-06 0.000516843 -2.41339e-05)
(-1.70203e-06 0.000323537 -1.22593e-05)
(-9.78904e-07 0.000318925 4.88133e-05)
(-1.36387e-06 0.000509041 5.21836e-05)
(-1.58547e-06 0.00059752 5.02744e-05)
(-1.81919e-06 0.000665196 4.81916e-05)
(-1.90534e-06 0.000717302 4.65727e-05)
(-1.87259e-06 0.000757552 4.50053e-05)
(-1.76661e-06 0.000788925 4.3381e-05)
(-1.60119e-06 0.000813417 4.16457e-05)
(-1.39806e-06 0.000832753 3.98663e-05)
(-1.16571e-06 0.000847978 3.80065e-05)
(-9.2449e-07 0.00086012 3.61221e-05)
(-6.83968e-07 0.000869693 3.418e-05)
(-4.60186e-07 0.000877322 3.22635e-05)
(-2.61656e-07 0.000883227 3.03523e-05)
(-1.02167e-07 0.000887819 2.85151e-05)
(1.59428e-08 0.000891162 2.667e-05)
(8.70742e-08 0.000893526 2.48866e-05)
(1.07374e-07 0.000894838 2.31368e-05)
(7.43383e-08 0.000895269 2.14841e-05)
(-9.31221e-09 0.000894658 1.98876e-05)
(-1.42116e-07 0.00089308 1.84073e-05)
(-3.23277e-07 0.00089027 1.69969e-05)
(-5.45499e-07 0.000886182 1.57147e-05)
(-8.00302e-07 0.000880404 1.45104e-05)
(-1.0738e-06 0.000872695 1.34384e-05)
(-1.35768e-06 0.000862399 1.24407e-05)
(-1.6302e-06 0.000848944 1.15614e-05)
(-1.8773e-06 0.000831248 1.07314e-05)
(-2.07556e-06 0.000808159 9.98427e-06)
(-2.20332e-06 0.000777834 9.24638e-06)
(-2.2336e-06 0.000738082 8.51364e-06)
(-2.12829e-06 0.000685706 7.50972e-06)
(-1.8009e-06 0.00061664 5.83867e-06)
(-1.22974e-06 0.000525253 3.89862e-06)
(-7.81735e-07 0.000326354 6.37528e-06)
(-1.2644e-06 0.00030887 4.22374e-05)
(-1.94312e-06 0.000497061 5.13601e-05)
(-2.58929e-06 0.000584571 5.36539e-05)
(-3.35866e-06 0.000651634 5.46597e-05)
(-3.95612e-06 0.000703228 5.50304e-05)
(-4.41594e-06 0.000743272 5.49519e-05)
(-4.76837e-06 0.000774476 5.45053e-05)
(-5.03835e-06 0.000799071 5.38375e-05)
(-5.22685e-06 0.000818504 5.29889e-05)
(-5.34933e-06 0.00083407 5.20538e-05)
(-5.40748e-06 0.000846514 5.10272e-05)
(-5.41828e-06 0.000856609 4.99788e-05)
(-5.38099e-06 0.000864707 4.88868e-05)
(-5.30771e-06 0.000871287 4.78085e-05)
(-5.204e-06 0.000876474 4.67098e-05)
(-5.07633e-06 0.000880552 4.56722e-05)
(-4.92569e-06 0.000883512 4.46565e-05)
(-4.75894e-06 0.000885546 4.37123e-05)
(-4.57765e-06 0.000886543 4.27983e-05)
(-4.38269e-06 0.000886603 4.19632e-05)
(-4.17427e-06 0.000885518 4.11609e-05)
(-3.95495e-06 0.000883284 4.04371e-05)
(-3.72309e-06 0.000879575 3.97411e-05)
(-3.4772e-06 0.000874238 3.91129e-05)
(-3.21273e-06 0.000866759 3.8495e-05)
(-2.93061e-06 0.000856742 3.79178e-05)
(-2.62923e-06 0.000843353 3.73114e-05)
(-2.30308e-06 0.000825769 3.66867e-05)
(-1.95784e-06 0.000802594 3.59489e-05)
(-1.591e-06 0.000772251 3.50734e-05)
(-1.21853e-06 0.000732335 3.38983e-05)
(-8.46328e-07 0.000679919 3.22032e-05)
(-4.84197e-07 0.000610779 2.94746e-05)
(-1.04998e-07 0.000519564 2.56264e-05)
(5.94398e-08 0.000321268 2.00063e-05)
(-1.42473e-06 0.000299287 3.63787e-05)
(-2.26968e-06 0.000483571 4.90474e-05)
(-3.12827e-06 0.000569295 5.39377e-05)
(-4.13788e-06 0.000634914 5.68249e-05)
(-4.96498e-06 0.00068549 5.84678e-05)
(-5.62392e-06 0.00072466 5.92973e-05)
(-6.16805e-06 0.000755288 5.96242e-05)
(-6.60174e-06 0.000779342 5.9593e-05)
(-6.94519e-06 0.000798461 5.93544e-05)
(-7.19299e-06 0.000813689 5.8954e-05)
(-7.36106e-06 0.000825981 5.84803e-05)
(-7.44615e-06 0.000835862 5.79368e-05)
(-7.45967e-06 0.000843907 5.73861e-05)
(-7.40225e-06 0.000850347 5.68129e-05)
(-7.2817e-06 0.000855535 5.62683e-05)
(-7.09683e-06 0.00085953 5.57278e-05)
(-6.85933e-06 0.000862548 5.52358e-05)
(-6.56716e-06 0.000864536 5.47611e-05)
(-6.22953e-06 0.000865614 5.43426e-05)
(-5.8487e-06 0.000865636 5.39438e-05)
(-5.42795e-06 0.00086463 5.35988e-05)
(-4.97082e-06 0.000862352 5.32655e-05)
(-4.48104e-06 0.000858712 5.29723e-05)
(-3.96363e-06 0.000853322 5.26698e-05)
(-3.41814e-06 0.000845914 5.23784e-05)
(-2.85372e-06 0.000835863 5.20371e-05)
(-2.27581e-06 0.000822593 5.16489e-05)
(-1.69514e-06 0.000805074 5.11289e-05)
(-1.12002e-06 0.000782182 5.04429e-05)
(-5.73794e-07 0.000752169 4.94535e-05)
(-8.02259e-08 0.000712932 4.80342e-05)
(3.13349e-07 0.000661433 4.58574e-05)
(5.62237e-07 0.000593808 4.24449e-05)
(7.13821e-07 0.000504705 3.72981e-05)
(6.23691e-07 0.000311507 2.66082e-05)
(-1.28551e-06 0.000290711 2.89258e-05)
(-2.09454e-06 0.000470299 4.16357e-05)
(-2.92565e-06 0.000553779 4.70594e-05)
(-3.91861e-06 0.000617733 5.04306e-05)
(-4.7369e-06 0.000666946 5.23913e-05)
(-5.40812e-06 0.00070511 5.35056e-05)
(-5.95947e-06 0.000734842 5.40699e-05)
(-6.41464e-06 0.000758239 5.42953e-05)
(-6.7676e-06 0.000776714 5.4279e-05)
(-7.0323e-06 0.000791473 5.41288e-05)
(-7.20461e-06 0.000803259 5.38769e-05)
(-7.29449e-06 0.000812779 5.35888e-05)
(-7.29943e-06 0.000820397 5.32673e-05)
(-7.23018e-06 0.00082654 5.29592e-05)
(-7.08464e-06 0.000831354 5.26537e-05)
(-6.87329e-06 0.000835097 5.23876e-05)
(-6.59463e-06 0.000837779 5.21422e-05)
(-6.258e-06 0.000839552 5.19478e-05)
(-5.86746e-06 0.000840328 5.17795e-05)
(-5.42968e-06 0.000840169 5.16622e-05)
(-4.94685e-06 0.0008389 5.15649e-05)
(-4.42746e-06 0.000836482 5.1507e-05)
(-3.87877e-06 0.000832628 5.14512e-05)
(-3.30374e-06 0.000827163 5.14097e-05)
(-2.71198e-06 0.000819624 5.13368e-05)
(-2.10918e-06 0.000809612 5.12324e-05)
(-1.50882e-06 0.000796371 5.10344e-05)
(-9.21236e-07 0.00077911 5.07177e-05)
(-3.63462e-07 0.000756555 5.01836e-05)
(1.46668e-07 0.00072722 4.93508e-05)
(5.7377e-07 0.000688908 4.80305e-05)
(8.76647e-07 0.000638884 4.5968e-05)
(9.87233e-07 0.000573295 4.26658e-05)
(9.85614e-07 0.000487161 3.75774e-05)
(7.77293e-07 0.000300631 2.59146e-05)
(-8.73196e-07 0.000284253 1.9043e-05)
(-1.48295e-06 0.000459961 2.82714e-05)
(-2.12649e-06 0.00054166 3.24024e-05)
(-2.91644e-06 0.000604176 3.49668e-05)
(-3.61011e-06 0.000652312 3.64307e-05)
(-4.19188e-06 0.000689533 3.72194e-05)
(-4.69268e-06 0.000718543 3.76007e-05)
(-5.10758e-06 0.000741245 3.77055e-05)
(-5.44564e-06 0.000759176 3.76436e-05)
(-5.6988e-06 0.000773364 3.74655e-05)
(-5.87258e-06 0.000784698 3.72348e-05)
(-5.96296e-06 0.000793714 3.69687e-05)
(-5.97878e-06 0.000800936 3.67093e-05)
(-5.91746e-06 0.000806619 3.64585e-05)
(-5.78862e-06 0.000811077 3.62473e-05)
(-5.59253e-06 0.0008144 3.60689e-05)
(-5.33839e-06 0.000816769 3.59475e-05)
(-5.02664e-06 0.000818164 3.58696e-05)
(-4.66878e-06 0.000818673 3.58533e-05)
(-4.27268e-06 0.000818187 3.58794e-05)
(-3.84166e-06 0.000816706 3.59602e-05)
(-3.38468e-06 0.000814024 3.60706e-05)
(-2.91024e-06 0.00081003 3.6217e-05)
(-2.4249e-06 0.000804387 3.63682e-05)
(-1.93406e-06 0.000796812 3.65227e-05)
(-1.4477e-06 0.000786753 3.66402e-05)
(-9.75208e-07 0.000773643 3.67064e-05)
(-5.27091e-07 0.000756554 3.66634e-05)
(-1.11711e-07 0.000734418 3.64686e-05)
(2.52236e-07 0.000705642 3.60242e-05)
(5.48486e-07 0.000668264 3.52208e-05)
(7.36266e-07 0.000619498 3.38432e-05)
(7.85214e-07 0.000555781 3.15649e-05)
(7.52385e-07 0.00047218 2.79314e-05)
(5.74395e-07 0.00029145 1.91979e-05)
(-3.12053e-07 0.000281196 7.92947e-06)
(-6.55933e-07 0.000455402 1.14773e-05)
(-1.02055e-06 0.000536354 1.31731e-05)
(-1.54447e-06 0.000598302 1.4158e-05)
(-2.05219e-06 0.0006459 1.45869e-05)
(-2.52615e-06 0.000682694 1.46918e-05)
(-2.95119e-06 0.000711251 1.45923e-05)
(-3.32853e-06 0.000733577 1.43693e-05)
(-3.64449e-06 0.000751081 1.4062e-05)
(-3.89847e-06 0.00076491 1.37165e-05)
(-4.08261e-06 0.000775824 1.33522e-05)
(-4.19885e-06 0.000784489 1.30014e-05)
(-4.24525e-06 0.0007913 1.26731e-05)
(-4.22625e-06 0.000796648 1.23918e-05)
(-4.14281e-06 0.000800717 1.21599e-05)
(-4.00657e-06 0.000803731 1.19962e-05)
(-3.81686e-06 0.000805743 1.18974e-05)
(-3.58377e-06 0.000806871 1.18766e-05)
(-3.31471e-06 0.000807068 1.19249e-05)
(-3.01962e-06 0.000806364 1.20499e-05)
(-2.70469e-06 0.000804627 1.22374e-05)
(-2.37789e-06 0.000801787 1.24893e-05)
(-2.04715e-06 0.000797603 1.27864e-05)
(-1.71982e-06 0.000791873 1.31253e-05)
(-1.40506e-06 0.00078419 1.34822e-05)
(-1.10114e-06 0.000774137 1.38486e-05)
(-8.21053e-07 0.000761027 1.42034e-05)
(-5.64751e-07 0.000744077 1.45331e-05)
(-3.39976e-07 0.00072211 1.47787e-05)
(-1.46793e-07 0.000693687 1.49125e-05)
(4.41833e-09 0.000656761 1.48717e-05)
(1.12284e-07 0.000608717 1.45845e-05)
(1.6523e-07 0.000545949 1.39065e-05)
(2.07569e-07 0.000463724 1.26607e-05)
(1.50849e-07 0.00028603 9.28498e-06)
(2.17531e-07 0.000282122 -2.45851e-06)
(1.19397e-07 0.000457645 -4.87855e-06)
(2.23938e-08 0.000539194 -5.79002e-06)
(-2.40039e-07 0.000601503 -6.51865e-06)
(-5.86199e-07 0.000649338 -7.19923e-06)
(-9.56548e-07 0.0006862 -7.84826e-06)
(-1.32611e-06 0.000714768 -8.47072e-06)
(-1.67089e-06 0.00073698 -9.07682e-06)
(-1.98469e-06 0.000754356 -9.66292e-06)
(-2.2491e-06 0.000767962 -1.02268e-05)
(-2.46014e-06 0.000778669 -1.07548e-05)
(-2.61145e-06 0.000787056 -1.124e-05)
(-2.70633e-06 0.000793625 -1.16662e-05)
(-2.74089e-06 0.000798678 -1.20269e-05)
(-2.72424e-06 0.000802503 -1.2308e-05)
(-2.65817e-06 0.000805234 -1.25059e-05)
(-2.5511e-06 0.000807028 -1.26116e-05)
(-2.41e-06 0.000807905 -1.26273e-05)
(-2.24436e-06 0.000807926 -1.25477e-05)
(-2.06144e-06 0.000807017 -1.23777e-05)
(-1.87028e-06 0.000805148 -1.21162e-05)
(-1.6811e-06 0.00080215 -1.17742e-05)
(-1.49763e-06 0.000797877 -1.13555e-05)
(-1.33004e-06 0.000792029 -1.08747e-05)
(-1.1813e-06 0.000784293 -1.03386e-05)
(-1.05649e-06 0.000774152 -9.7625e-06)
(-9.51644e-07 0.000761012 -9.1608e-06)
(-8.70615e-07 0.000743989 -8.54627e-06)
(-8.07814e-07 0.000721997 -7.89896e-06)
(-7.58809e-07 0.000693499 -7.22001e-06)
(-7.08163e-07 0.000656532 -6.49086e-06)
(-6.45909e-07 0.000608389 -5.67161e-06)
(-5.3522e-07 0.000545535 -4.67454e-06)
(-3.77186e-07 0.000463161 -3.399e-06)
(-3.00572e-07 0.000285222 -9.22326e-07)
(5.96318e-07 0.000286797 -1.03027e-05)
(6.50348e-07 0.000466127 -1.74209e-05)
(7.5831e-07 0.000549384 -2.04283e-05)
(6.83206e-07 0.000612947 -2.25494e-05)
(4.68495e-07 0.000661631 -2.41477e-05)
(1.76686e-07 0.000699092 -2.54237e-05)
(-1.38504e-07 0.000728007 -2.64951e-05)
(-4.58458e-07 0.000750436 -2.74293e-05)
(-7.59152e-07 0.000767869 -2.82659e-05)
(-1.02702e-06 0.000781475 -2.90227e-05)
(-1.24961e-06 0.000792078 -2.97068e-05)
(-1.42414e-06 0.00080035 -3.03156e-05)
(-1.54882e-06 0.000806739 -3.08445e-05)
(-1.62316e-06 0.000811629 -3.12846e-05)
(-1.64937e-06 0.00081525 -3.16288e-05)
(-1.63655e-06 0.000817813 -3.18688e-05)
(-1.5887e-06 0.000819408 -3.19987e-05)
(-1.51517e-06 0.000820132 -3.20131e-05)
(-1.42581e-06 0.000819974 -3.19121e-05)
(-1.32877e-06 0.000818937 -3.16978e-05)
(-1.23231e-06 0.000816919 -3.13764e-05)
(-1.14597e-06 0.000813821 -3.09532e-05)
(-1.07725e-06 0.000809422 -3.0438e-05)
(-1.02896e-06 0.000803487 -2.98377e-05)
(-1.00711e-06 0.000795623 -2.91618e-05)
(-1.01179e-06 0.000785373 -2.84146e-05)
(-1.04219e-06 0.000772059 -2.75985e-05)
(-1.088e-06 0.000754846 -2.67055e-05)
(-1.14696e-06 0.000732555 -2.5715e-05)
(-1.20025e-06 0.000703685 -2.4585e-05)
(-1.22911e-06 0.000666164 -2.32407e-05)
(-1.19177e-06 0.000617297 -2.15408e-05)
(-1.04083e-06 0.00055341 -1.92353e-05)
(-7.83494e-07 0.000469663 -1.59918e-05)
(-6.29427e-07 0.000288669 -8.91728e-06)
(7.5485e-07 0.000294125 -1.4606e-05)
(8.50347e-07 0.000478627 -2.4089e-05)
(1.0538e-06 0.000564253 -2.81699e-05)
(1.0782e-06 0.000629534 -3.1009e-05)
(9.37501e-07 0.000679468 -3.30808e-05)
(7.05806e-07 0.000717792 -3.46832e-05)
(4.30424e-07 0.000747313 -3.59904e-05)
(1.48568e-07 0.000770114 -3.71006e-05)
(-1.22817e-07 0.000787785 -3.80733e-05)
(-3.69225e-07 0.000801487 -3.89384e-05)
(-5.78628e-07 0.000812125 -3.97108e-05)
(-7.45612e-07 0.000820348 -4.0393e-05)
(-8.663e-07 0.00082667 -4.09825e-05)
(-9.40635e-07 0.000831446 -4.14724e-05)
(-9.7637e-07 0.000834962 -4.18563e-05)
(-9.7532e-07 0.000837394 -4.21268e-05)
(-9.49065e-07 0.000838887 -4.22789e-05)
(-9.00719e-07 0.000839494 -4.23086e-05)
(-8.42325e-07 0.000839255 -4.22158e-05)
(-7.84143e-07 0.000838125 -4.20009e-05)
(-7.33035e-07 0.000836046 -4.16691e-05)
(-6.9901e-07 0.000832866 -4.1225e-05)
(-6.87444e-07 0.000828408 -4.06768e-05)
(-7.05129e-07 0.000822377 -4.00312e-05)
(-7.51273e-07 0.000814416 -3.92953e-05)
(-8.27032e-07 0.000804004 -3.84712e-05)
(-9.29958e-07 0.000790487 -3.75564e-05)
(-1.05125e-06 0.000772956 -3.65345e-05)
(-1.17654e-06 0.000750242 -3.53749e-05)
(-1.29214e-06 0.00072075 -3.40161e-05)
(-1.36821e-06 0.00068239 -3.23562e-05)
(-1.36353e-06 0.000632346 -3.02043e-05)
(-1.20868e-06 0.000566871 -2.723e-05)
(-9.21286e-07 0.000480954 -2.29834e-05)
(-7.67858e-07 0.000295236 -1.35386e-05)
(7.03378e-07 0.000302612 -1.53149e-05)
(7.51055e-07 0.000492429 -2.4646e-05)
(9.51669e-07 0.000580482 -2.86917e-05)
(9.79341e-07 0.000647559 -3.15154e-05)
(8.6267e-07 0.000698784 -3.35761e-05)
(6.63125e-07 0.000738043 -3.51743e-05)
(4.30014e-07 0.000768202 -3.64803e-05)
(1.9025e-07 0.000791444 -3.7594e-05)
(-3.82476e-08 0.000809379 -3.8571e-05)
(-2.44164e-07 0.000823243 -3.94432e-05)
(-4.1187e-07 0.000833942 -4.02227e-05)
(-5.39733e-07 0.000842179 -4.0914e-05)
(-6.25091e-07 0.00084846 -4.15121e-05)
(-6.70506e-07 0.000853183 -4.20123e-05)
(-6.78312e-07 0.000856619 -4.24055e-05)
(-6.53615e-07 0.00085898 -4.26864e-05)
(-6.0609e-07 0.000860389 -4.28477e-05)
(-5.41969e-07 0.000860933 -4.28874e-05)
(-4.71977e-07 0.000860624 -4.2803e-05)
(-4.04253e-07 0.000859447 -4.25973e-05)
(-3.49725e-07 0.00085731 -4.22728e-05)
(-3.12495e-07 0.00085409 -4.18365e-05)
(-3.02852e-07 0.000849569 -4.12944e-05)
(-3.24233e-07 0.000843474 -4.06553e-05)
(-3.76821e-07 0.000835405 -3.99244e-05)
(-4.63814e-07 0.00082485 -3.91064e-05)
(-5.79662e-07 0.000811105 -3.81966e-05)
(-7.15097e-07 0.00079326 -3.71823e-05)
(-8.62893e-07 0.000770077 -3.60309e-05)
(-9.9798e-07 0.000739941 -3.46854e-05)
(-1.10366e-06 0.000700667 -3.30438e-05)
(-1.13517e-06 0.000649382 -3.09246e-05)
(-1.03082e-06 0.000582197 -2.80057e-05)
(-7.81331e-07 0.000493983 -2.38465e-05)
(-7.02821e-07 0.000303222 -1.45411e-05)
(4.98756e-07 0.000310688 -1.32655e-05)
(4.42589e-07 0.000504867 -2.03939e-05)
(5.58938e-07 0.000594926 -2.35006e-05)
(5.2921e-07 0.000663479 -2.57054e-05)
(3.98357e-07 0.000715784 -2.73574e-05)
(2.17592e-07 0.000755807 -2.8674e-05)
(1.80584e-08 0.000786507 -2.97821e-05)
(-1.73645e-07 0.000810104 -3.07507e-05)
(-3.47582e-07 0.000828271 -3.16212e-05)
(-4.91884e-07 0.000842259 -3.24112e-05)
(-5.98147e-07 0.00085302 -3.3129e-05)
(-6.64181e-07 0.00086126 -3.37711e-05)
(-6.88335e-07 0.000867521 -3.43333e-05)
(-6.73503e-07 0.000872194 -3.48057e-05)
(-6.23332e-07 0.00087558 -3.51813e-05)
(-5.44632e-07 0.000877881 -3.54511e-05)
(-4.44802e-07 0.000879242 -3.56104e-05)
(-3.32147e-07 0.000879737 -3.56541e-05)
(-2.14973e-07 0.000879397 -3.55821e-05)
(-1.0256e-07 0.000878187 -3.53949e-05)
(-4.23259e-09 0.000876034 -3.50973e-05)
(7.3154e-08 0.000872789 -3.46941e-05)
(1.21925e-07 0.000868249 -3.41945e-05)
(1.37812e-07 0.000862111 -3.36058e-05)
(1.19776e-07 0.000853981 -3.29372e-05)
(6.40237e-08 0.000843316 -3.21936e-05)
(-2.38077e-08 0.000829407 -3.13776e-05)
(-1.40507e-07 0.000811302 -3.0481e-05)
(-2.74594e-07 0.000787748 -2.94851e-05)
(-4.13489e-07 0.00075707 -2.83483e-05)
(-5.38777e-07 0.000717044 -2.69994e-05)
(-6.18342e-07 0.000664713 -2.53042e-05)
(-6.02899e-07 0.000596106 -2.30302e-05)
(-4.58156e-07 0.000505964 -1.98411e-05)
(-4.97388e-07 0.000311001 -1.27225e-05)
(2.19056e-07 0.000317133 -9.61568e-06)
(4.54836e-08 0.000514053 -1.33073e-05)
(3.49934e-08 0.000605373 -1.4926e-05)
(-9.06367e-08 0.000674859 -1.61442e-05)
(-2.56434e-07 0.000727833 -1.71392e-05)
(-4.33101e-07 0.000768333 -1.80019e-05)
(-6.00646e-07 0.000799351 -1.87838e-05)
(-7.46075e-07 0.000823156 -1.95124e-05)
(-8.6075e-07 0.000841437 -2.02002e-05)
(-9.39923e-07 0.000855481 -2.08493e-05)
(-9.74913e-07 0.000866246 -2.14548e-05)
(-9.67073e-07 0.000874465 -2.20086e-05)
(-9.21078e-07 0.000880678 -2.25e-05)
(-8.33955e-07 0.000885302 -2.29187e-05)
(-7.11173e-07 0.00088863 -2.32542e-05)
(-5.65677e-07 0.000890883 -2.34985e-05)
(-3.99046e-07 0.000892199 -2.36444e-05)
(-2.19614e-07 0.000892664 -2.36885e-05)
(-3.7791e-08 0.000892301 -2.36288e-05)
(1.36266e-07 0.000891087 -2.34673e-05)
(2.97582e-07 0.000888932 -2.32073e-05)
(4.37248e-07 0.000885699 -2.28563e-05)
(5.46144e-07 0.000881164 -2.24219e-05)
(6.22233e-07 0.000875033 -2.19149e-05)
(6.59368e-07 0.000866889 -2.13452e-05)
(6.57273e-07 0.00085619 -2.07237e-05)
(6.16014e-07 0.000842201 -2.00579e-05)
(5.39794e-07 0.000823965 -1.93527e-05)
(4.32449e-07 0.000800193 -1.86052e-05)
(3.0529e-07 0.000769195 -1.78025e-05)
(1.65035e-07 0.000728702 -1.69157e-05)
(3.40247e-08 0.000675722 -1.58877e-05)
(-6.06886e-08 0.000606216 -1.46167e-05)
(-5.42326e-08 0.000514862 -1.29337e-05)
(-2.17931e-07 0.000317257 -9.24058e-06)
(-6.59863e-08 0.000321228 -5.58248e-06)
(-3.40715e-07 0.000519032 -5.4784e-06)
(-4.87665e-07 0.000610767 -5.44336e-06)
(-7.10136e-07 0.000680548 -5.55351e-06)
(-9.15193e-07 0.000733727 -5.79934e-06)
(-1.09115e-06 0.000774348 -6.13948e-06)
(-1.22986e-06 0.000805429 -6.54473e-06)
(-1.33417e-06 0.000829244 -6.99228e-06)
(-1.39458e-06 0.000847503 -7.46472e-06)
(-1.40944e-06 0.000861493 -7.94521e-06)
(-1.3806e-06 0.000872192 -8.41589e-06)