/*--------------------------------*- C++ -*----------------------------------*\
| =========                 |                                                 |
| \\      /  F ield         | OpenFOAM: The Open Source CFD Toolbox           |
|  \\    /   O peration     | Version:  v2006                                 |
|   \\  /    A nd           | Website:  www.openfoam.com                      |
|    \\/     M anipulation  |                                                 |
\*---------------------------------------------------------------------------*/
FoamFile
{
    version     2.0;
    format      ascii;
    class       volScalarField;
    location    "58";
    object      alphat;
}
// * * * * * * * * * * * * * * * * * * * * * * * * * * * * * * * * * * * * * //

dimensions      [1 -1 -1 0 0 0 0];


internalField   nonuniform List<scalar> 
78750
(
6.46489e-06
7.65014e-06
2.42732e-05
6.09105e-05
4.96637e-05
4.32893e-05
4.56859e-05
5.0115e-05
5.37209e-05
5.51618e-05
5.43259e-05
5.34043e-05
5.245e-05
5.32692e-05
5.43666e-05
5.76153e-05
6.08245e-05
6.62158e-05
7.09682e-05
7.76452e-05
8.28263e-05
8.85317e-05
9.2252e-05
9.53219e-05
9.65564e-05
9.6301e-05
9.44896e-05
9.24145e-05
8.92337e-05
8.90849e-05
8.71536e-05
9.13304e-05
6.99164e-05
8.46889e-05
6.62857e-06
3.70566e-05
4.2165e-05
7.18859e-05
6.12268e-05
5.4775e-05
4.78676e-05
3.41992e-05
2.87638e-05
3.17585e-05
3.95747e-05
4.67713e-05
4.86898e-05
4.98464e-05
5.23306e-05
5.27423e-05
4.99721e-05
4.73275e-05
4.77072e-05
4.98994e-05
5.31372e-05
5.45025e-05
5.49323e-05
5.2465e-05
5.0064e-05
4.81157e-05
4.91847e-05
5.23366e-05
5.74313e-05
6.36031e-05
6.84335e-05
7.51818e-05
8.2392e-05
8.57038e-05
8.00241e-05
1.32118e-05
3.26973e-05
3.34748e-05
1.34117e-05
6.1882e-06
1.82189e-05
2.34118e-05
2.38398e-05
2.56024e-05
2.74314e-05
2.91929e-05
3.04359e-05
2.98022e-05
2.78356e-05
3.03773e-05
3.90974e-05
4.8953e-05
6.37633e-05
7.16513e-05
5.76638e-05
4.61454e-05
4.27755e-05
4.58399e-05
5.31738e-05
6.17893e-05
6.76847e-05
7.06133e-05
7.11181e-05
7.07262e-05
7.0802e-05
7.06033e-05
6.93459e-05
6.2021e-05
4.36391e-05
4.38761e-05
1.28802e-05
2.20431e-05
2.41184e-05
1.36028e-05
2.64328e-05
5.7819e-05
9.46631e-05
0.000104298
6.02497e-05
3.60607e-05
2.85015e-05
2.60204e-05
2.73707e-05
3.74875e-05
6.6383e-05
0.000103977
7.28469e-05
4.87694e-05
4.11792e-05
4.06088e-05
4.75263e-05
6.50055e-05
9.00142e-05
0.000105806
0.000102899
9.31505e-05
8.38686e-05
7.47434e-05
6.70229e-05
5.94148e-05
5.15033e-05
4.44219e-05
3.80642e-05
4.23932e-05
6.27069e-05
2.12346e-05
1.59992e-05
7.34051e-06
1.69964e-05
7.07268e-05
4.89414e-05
3.91487e-05
3.5672e-05
3.15781e-05
3.7601e-05
4.86621e-05
5.25685e-05
5.2136e-05
5.21767e-05
5.2449e-05
5.26945e-05
5.44616e-05
5.86426e-05
6.45374e-05
7.07824e-05
7.43033e-05
7.28711e-05
6.88669e-05
6.52308e-05
6.31904e-05
6.21223e-05
5.98041e-05
5.33959e-05
4.32609e-05
3.28915e-05
2.50814e-05
2.08337e-05
2.42264e-05
5.10699e-05
0.000140109
2.08963e-05
1.1587e-05
1.1108e-05
2.13569e-05
4.00006e-05
7.9752e-05
0.00016807
0.000200024
5.47537e-05
2.18874e-05
1.754e-05
2.24579e-05
3.15158e-05
4.0767e-05
4.78131e-05
5.20346e-05
5.59066e-05
6.24087e-05
7.09697e-05
8.01575e-05
8.83812e-05
9.42806e-05
9.76541e-05
9.86518e-05
9.75134e-05
9.43103e-05
8.83714e-05
7.75054e-05
6.07559e-05
4.23744e-05
2.80348e-05
2.05152e-05
2.36948e-05
5.68342e-05
0.000140715
1.58415e-05
4.99338e-06
1.90342e-05
6.49479e-05
0.00014178
0.00010294
8.20521e-05
7.23297e-05
6.19053e-05
4.31941e-05
3.06099e-05
2.88143e-05
3.29816e-05
4.08836e-05
5.10683e-05
5.98443e-05
6.27233e-05
6.15887e-05
6.21002e-05
6.57516e-05
6.97726e-05
7.22178e-05
7.32078e-05
7.28859e-05
7.10238e-05
6.77001e-05
6.35668e-05
5.96963e-05
5.67204e-05
5.2942e-05
4.36931e-05
2.86193e-05
2.02079e-05
3.80886e-05
0.000118563
1.13424e-05
1.28717e-05
0.000122454
0.000196759
0.000189287
0.000187197
0.000207676
0.000222064
0.000192911
0.000113497
6.25073e-05
4.2458e-05
3.41318e-05
3.03465e-05
2.99149e-05
3.30514e-05
3.89591e-05
4.29124e-05
4.21191e-05
4.2407e-05
4.84899e-05
5.912e-05
6.85357e-05
7.30587e-05
7.41043e-05
7.29659e-05
6.91449e-05
6.28683e-05
5.69922e-05
5.49186e-05
5.44594e-05
4.45499e-05
2.87486e-05
3.74319e-05
0.000110564
9.25565e-06
7.20004e-07
1.53593e-05
7.13166e-05
0.000190549
0.00021004
0.00017294
0.000135976
0.000123379
0.000133719
0.000143467
0.000118212
8.3196e-05
6.05454e-05
4.68437e-05
3.82159e-05
3.35106e-05
3.30486e-05
3.79602e-05
4.58737e-05
4.73265e-05
4.52273e-05
4.79601e-05
5.74384e-05
6.97949e-05
7.74618e-05
7.75132e-05
7.11032e-05
5.96304e-05
4.88001e-05
4.46166e-05
4.45517e-05
4.38688e-05
5.72068e-05
9.25382e-05
8.63676e-06
8.99295e-06
4.90244e-05
0.000122848
0.000196513
0.000216298
0.000204939
0.000187002
0.000163773
0.000134894
0.000114262
0.00011226
0.000127254
0.000142053
0.000126389
9.22929e-05
6.57295e-05
4.87642e-05
3.83644e-05
3.42449e-05
3.88082e-05
5.20828e-05
5.8135e-05
5.62208e-05
5.65149e-05
6.30484e-05
7.44989e-05
8.08652e-05
7.2035e-05
5.1689e-05
3.77417e-05
3.41395e-05
3.6694e-05
5.35607e-05
8.84596e-05
8.45682e-06
1.06285e-05
4.57002e-05
0.000138395
0.000165849
0.000123154
0.000104567
9.96658e-05
0.000101664
0.000106433
0.000106967
0.000100107
9.49758e-05
0.000104318
0.000137898
0.000189646
0.000192616
0.000124219
7.22509e-05
4.71023e-05
3.73289e-05
3.9487e-05
5.66452e-05
6.93976e-05
6.10823e-05
5.59633e-05
5.96112e-05
6.91082e-05
6.96846e-05
5.03688e-05
3.24076e-05
2.9115e-05
3.88722e-05
6.99717e-05
7.64563e-05
8.44523e-06
1.39544e-05
0.000194121
0.00013029
6.47171e-05
5.36559e-05
6.63994e-05
9.40025e-05
0.000136794
0.000192879
0.000247547
0.000273399
0.000228484
0.000153086
0.000118732
0.000122613
0.00014908
0.000162516
0.000121287
6.92108e-05
4.17499e-05
3.14763e-05
3.14628e-05
4.0107e-05
5.48208e-05
5.61599e-05
4.66758e-05
4.5627e-05
5.18366e-05
4.65179e-05
2.98961e-05
2.51641e-05
3.71409e-05
8.06948e-05
6.24181e-05
8.16916e-06
1.23566e-05
0.000114708
5.40532e-05
3.14121e-05
4.91831e-05
9.88978e-05
0.000127196
0.000133127
0.000140899
0.000159605
0.000187256
0.000211401
0.000207885
0.000167704
0.000129024
0.000116319
0.000123835
0.00013131
0.000111562
7.28134e-05
4.87144e-05
4.46355e-05
5.74376e-05
7.29973e-05
7.89356e-05
7.94101e-05
7.564e-05
6.69804e-05
5.42719e-05
3.56932e-05
2.27719e-05
2.36057e-05
4.47781e-05
6.85141e-05
8.21811e-06
1.13559e-05
9.69373e-05
8.11808e-05
4.32002e-05
4.54807e-05
6.80682e-05
8.67543e-05
9.71579e-05
0.000106339
0.000119028
0.000137289
0.000159717
0.000179479
0.000184415
0.000167027
0.000140857
0.000126287
0.000122802
0.000109244
7.37282e-05
4.07279e-05
2.42644e-05
2.08672e-05
3.21282e-05
4.36197e-05
5.23846e-05
5.98605e-05
5.93515e-05
4.89198e-05
3.38886e-05
2.44201e-05
2.70658e-05
5.61033e-05
5.99267e-05
8.47992e-06
1.19679e-05
6.77912e-05
0.000124656
6.12779e-05
2.66853e-05
2.05184e-05
2.84794e-05
4.39321e-05
6.17776e-05
7.89944e-05
9.54399e-05
0.000112605
0.000130658
0.000146649
0.000154565
0.000149098
0.000134685
0.000124399
0.000124322
0.000122835
9.80478e-05
6.27095e-05
4.287e-05
3.87143e-05
4.76353e-05
6.02665e-05
6.00223e-05
5.33902e-05
4.33743e-05
3.13894e-05
2.43985e-05
2.81131e-05
5.58095e-05
5.75665e-05
8.15512e-06
1.13219e-05
6.63714e-05
0.000134004
8.99552e-05
4.74722e-05
2.79935e-05
2.28245e-05
2.72021e-05
3.88195e-05
5.19756e-05
6.36207e-05
7.60372e-05
9.07255e-05
0.000106259
0.00011983
0.00012832
0.000129278
0.000123866
0.000116807
0.000109953
9.86846e-05
7.9139e-05
5.9118e-05
4.75698e-05
4.59992e-05
5.33174e-05
6.46715e-05
6.87048e-05
6.37576e-05
4.73318e-05
2.25906e-05
1.84193e-05
3.41427e-05
6.86796e-05
8.30854e-06
1.08255e-05
6.15999e-05
0.000160817
0.000174718
0.000125622
6.88904e-05
4.0547e-05
2.71538e-05
2.0241e-05
1.73205e-05
1.82072e-05
2.35531e-05
3.33151e-05
4.60565e-05
5.97373e-05
7.30653e-05
8.4192e-05
9.09474e-05
9.29106e-05
9.02191e-05
8.29188e-05
7.25305e-05
6.23355e-05
5.55901e-05
5.35545e-05
5.517e-05
5.85351e-05
6.3256e-05
6.69884e-05
5.43762e-05
2.40001e-05
1.79507e-05
3.56138e-05
7.94436e-05
9.04553e-06
1.08562e-05
5.64581e-05
0.000142886
0.000191854
0.000206804
0.000190639
0.00012092
6.94252e-05
4.60883e-05
3.38815e-05
2.52998e-05
1.79265e-05
1.2583e-05
1.18607e-05
1.71822e-05
2.76925e-05
4.1087e-05
5.33323e-05
6.1941e-05
6.76879e-05
7.06978e-05
7.00081e-05
6.66981e-05
6.35611e-05
6.15602e-05
5.87061e-05
5.26695e-05
4.36715e-05
3.55534e-05
3.07467e-05
2.50448e-05
2.64038e-05
5.39131e-05
6.71e-05
9.03441e-06
1.07911e-05
6.2495e-05
0.000199673
0.000251422
0.000255242
0.000252942
0.000242613
0.000195524
0.00012613
8.31975e-05
6.13364e-05
4.83477e-05
3.85488e-05
2.91369e-05
1.91288e-05
9.28143e-06
5.34023e-06
1.44254e-05
3.22797e-05
4.8619e-05
5.62766e-05
6.03084e-05
6.54769e-05
7.09504e-05
7.436e-05
7.35123e-05
6.56764e-05
4.69674e-05
2.74967e-05
2.06823e-05
2.39623e-05
3.84688e-05
8.2057e-05
5.06694e-05
8.44666e-06
1.0499e-05
4.97031e-05
0.000154895
0.00021846
0.000220228
0.000206571
0.000196972
0.000198972
0.000203717
0.000189253
0.000147763
0.00010403
7.23944e-05
4.86228e-05
3.08713e-05
2.13285e-05
1.84986e-05
1.57975e-05
6.71648e-06
2.94946e-06
1.75762e-05
4.26997e-05
6.03436e-05
6.4857e-05
6.47621e-05
6.4381e-05
6.32696e-05
5.69293e-05
3.76605e-05
2.02459e-05
1.83806e-05
3.15816e-05
7.77948e-05
4.54804e-05
8.13506e-06
1.1537e-05
5.33958e-05
0.000152042
0.000223594
0.000233981
0.000220226
0.00018719
0.000146436
0.000119395
0.00011575
0.000139923
0.000197582
0.000264857
0.00022699
8.75505e-05
3.43126e-05
1.95189e-05
1.69502e-05
1.98435e-05
2.35259e-05
1.64893e-05
1.02392e-05
1.9807e-05
3.58742e-05
4.91019e-05
5.54184e-05
5.5642e-05
5.33575e-05
4.70333e-05
2.93697e-05
1.8063e-05
2.35416e-05
5.40227e-05
5.03882e-05
8.41673e-06
1.25454e-05
7.4127e-05
0.000223192
0.000265351
0.000269468
0.00026557
0.000256336
0.000235019
0.000187504
0.000126961
8.64513e-05
6.8765e-05
6.51835e-05
6.54434e-05
5.1451e-05
2.91566e-05
1.92813e-05
2.09532e-05
3.18089e-05
4.15516e-05
3.16664e-05
1.62481e-05
1.61769e-05
2.97588e-05
3.99325e-05
4.46982e-05
4.40707e-05
4.10615e-05
3.93019e-05
3.06454e-05
1.83174e-05
2.0464e-05
4.56653e-05
5.79181e-05
9.07002e-06
1.22902e-05
7.80108e-05
0.000222098
0.000264703
0.000266424
0.000249587
0.000224806
0.000205759
0.000194191
0.000173162
0.000125231
7.08525e-05
3.65456e-05
2.04894e-05
1.54235e-05
1.83199e-05
2.9076e-05
4.14059e-05
4.44221e-05
3.77662e-05
2.51635e-05
1.12357e-05
3.16643e-07
3.33362e-06
1.67812e-05
2.44623e-05
2.60619e-05
2.34323e-05
2.31038e-05
2.2507e-05
1.86247e-05
2.45813e-05
6.14005e-05
5.48802e-05
9.53544e-06
1.19179e-05
7.5949e-05
0.000212516
0.000238459
0.000230227
0.000202764
0.000165201
0.000134368
0.000116061
0.000101747
7.9257e-05
5.13844e-05
3.22031e-05
2.78409e-05
3.71125e-05
4.43629e-05
4.4804e-05
4.59285e-05
4.3653e-05
3.50065e-05
2.20205e-05
9.25197e-06
5.37703e-06
2.04755e-06
2.67756e-06
1.37185e-05
1.74659e-05
1.96056e-05
2.41125e-05
3.1144e-05
3.39575e-05
4.48774e-05
9.57009e-05
4.30996e-05
9.07694e-06
1.21074e-05
7.94072e-05
0.000222948
0.000259314
0.000254277
0.000230021
0.000192781
0.000155953
0.000132871
0.000126072
0.000128178
0.00012149
9.22286e-05
5.87958e-05
3.97226e-05
3.42633e-05
3.7309e-05
4.46919e-05
5.1154e-05
4.93929e-05
3.69058e-05
2.01322e-05
6.23735e-06
1.72426e-06
3.63709e-06
6.5949e-06
6.02489e-06
1.30184e-05
1.99682e-05
3.19599e-05
6.04532e-05
0.000108427
0.000105428
3.46953e-05
8.22413e-06
1.23555e-05
8.00564e-05
0.000233596
0.00027647
0.000269511
0.000245574
0.000212999
0.000175949
0.000142665
0.000124206
0.000125462
0.00014502
0.000167988
0.000157502
0.000108341
6.63567e-05
4.50122e-05
3.70316e-05
3.79007e-05
4.38463e-05
4.70179e-05
4.03831e-05
2.63715e-05
1.27251e-05
2.04402e-06
1.38505e-06
3.12942e-06
2.95083e-06
8.82731e-06
1.6107e-05
2.64006e-05
5.34571e-05
9.53554e-05
3.75802e-05
7.84868e-06
1.24711e-05
7.91199e-05
0.000232209
0.000274269
0.000268338
0.000245278
0.000216129
0.0001883
0.000162262
0.000136256
0.000115742
0.000109146
0.000121882
0.000157975
0.000204819
0.000200971
0.000131596
7.62682e-05
4.9457e-05
3.81591e-05
3.50019e-05
3.51474e-05
3.28461e-05
2.32428e-05
1.12521e-05
3.37456e-06
1.04482e-06
2.19044e-06
1.96263e-06
4.93432e-06
1.08964e-05
1.30109e-05
2.46337e-05
6.25795e-05
7.96899e-06
1.24083e-05
7.78683e-05
0.000229107
0.000274334
0.000267957
0.000242202
0.000209289
0.000180278
0.000161035
0.000150483
0.000143227
0.000135802
0.000131945
0.000138651
0.000160696
0.000195787
0.000217814
0.000179926
0.000112116
6.87887e-05
4.73203e-05
3.61192e-05
3.00833e-05
1.89588e-05
6.03292e-06
3.37216e-06
1.53586e-06
4.88811e-06
2.75121e-06
1.7859e-06
1.32796e-06
3.59365e-06
1.12107e-05
6.48528e-05
9.95753e-06
1.24426e-05
7.83927e-05
0.000234154
0.000273596
0.000261825
0.000232529
0.000200699
0.000176508
0.000161422
0.00015333
0.000150477
0.000151282
0.000154681
0.000162718
0.000181017
0.00021543
0.000264006
0.000295628
0.000248459
0.000150684
8.65271e-05
5.33124e-05
2.84048e-05
1.21273e-05
3.76391e-06
1.29091e-06
2.89798e-06
3.20031e-06
6.46663e-06
4.54952e-06
2.7424e-06
1.05447e-05
4.00801e-05
8.37901e-05
1.10283e-05
1.2603e-05
7.9479e-05
0.000237497
0.000268325
0.000246547
0.000208298
0.000176398
0.000160449
0.000156953
0.000159407
0.000164051
0.000170688
0.000179938
0.00019238
0.000211782
0.000246965
0.000307257
0.000383657
0.000396905
0.000278406
0.000136714
6.3671e-05
2.41649e-05
6.18443e-06
3.10836e-06
6.18032e-07
6.27465e-06
2.07374e-05
3.77117e-05
2.77702e-05
2.01254e-05
3.72955e-05
0.000105023
4.11069e-05
9.50852e-06
1.27155e-05
8.45525e-05
0.000245354
0.000257701
0.00021884
0.000172218
0.000144942
0.000138927
0.000146824
0.000160752
0.000174999
0.000188793
0.000204969
0.000225089
0.000247886
0.00027374
0.000308033
0.000352195
0.000381524
0.000340529
0.000219439
0.000104445
4.12142e-05
7.09563e-06
4.96676e-07
1.49819e-06
6.81457e-06
2.28804e-05
5.42125e-05
8.62144e-05
9.63873e-05
0.000120254
9.98327e-05
3.02293e-05
7.49867e-06
1.28912e-05
8.88451e-05
0.000242036
0.000237802
0.000188855
0.000144812
0.000126489
0.000129056
0.000143977
0.000163954
0.00018364
0.000200219
0.000214177
0.000228394
0.000244903
0.000262498
0.000277887
0.000288739
0.000293809
0.000288841
0.000263137
0.000204672
0.000123963
5.77785e-05
1.84903e-05
4.9727e-06
8.1432e-07
7.46937e-06
2.04061e-05
4.01417e-05
7.0433e-05
0.000113518
9.81355e-05
3.41292e-05
7.62272e-06
1.27936e-05
9.06971e-05
0.000231894
0.000218422
0.000165572
0.000125994
0.000113824
0.000121671
0.000140179
0.000161426
0.000182139
0.000202583
0.000222804
0.000241343
0.000256464
0.000267279
0.000273335
0.000274091
0.000269461
0.000260181
0.000246583
0.000226826
0.000196297
0.000150271
9.55137e-05
4.9526e-05
1.83802e-05
9.61139e-07
3.2026e-06
5.2349e-06
1.44434e-05
3.26932e-05
8.2686e-05
4.03668e-05
8.13638e-06
1.28865e-05
9.08762e-05
0.000223599
0.00021284
0.000164473
0.000124664
0.000110307
0.00011624
0.00013378
0.00015397
0.000171853
0.00018804
0.000205019
0.000223569
0.000242009
0.000257324
0.00026689
0.000269593
0.000265813
0.000256946
0.000244838
0.000231143
0.000216294
0.000198795
0.000175352
0.000143109
0.000104723
7.06542e-05
4.70521e-05
2.71744e-05
1.38508e-05
4.66378e-06
1.2888e-05
6.18505e-05
8.48884e-06
1.27302e-05
8.95599e-05
0.000216857
0.000214695
0.000174071
0.000131124
0.000109287
0.000109059
0.000124098
0.000145809
0.000166272
0.000183757
0.000201389
0.000221482
0.00024282
0.000261835
0.000275047
0.00028046
0.000277576
0.000266914
0.000249859
0.000228436
0.000204839
0.000180982
0.00015783
0.000135383
0.000114124
9.69568e-05
8.38054e-05
6.35442e-05
1.00857e-05
2.94103e-06
5.86071e-06
5.40261e-05
1.04033e-05
1.27186e-05
8.78369e-05
0.000214078
0.00022096
0.000192284
0.000148988
0.000115911
0.000104683
0.00011334
0.000135744
0.000161087
0.000178926
0.000188904
0.000198755
0.00021511
0.000238649
0.000264035
0.000284056
0.000294937
0.000296335
0.000287975
0.000269127
0.000240378
0.000204345
0.000165178
0.000127559
9.35403e-05
5.43679e-05
1.96176e-05
1.40716e-05
5.91675e-06
5.00399e-06
2.24886e-05
9.68409e-05
1.10192e-05
1.23806e-05
8.31221e-05
0.00020964
0.000226003
0.000207799
0.000170873
0.000130079
0.000105105
0.000102297
0.000120444
0.000155887
0.000197512
0.000227623
0.000237391
0.00023644
0.000240958
0.00026095
0.00029817
0.000346235
0.000389337
0.000382544
0.000369163
0.000353193
0.000334182
0.000304275
0.000221964
0.000112872
2.46665e-05
5.20648e-06
9.66426e-06
2.21554e-05
3.25182e-05
8.42708e-05
4.87055e-05
9.62968e-06
1.23714e-05
8.27981e-05
0.000215557
0.000235644
0.000219559
0.000186344
0.000145251
0.000111679
9.68621e-05
0.000102281
0.000126837
0.000167922
0.000217964
0.00026346
0.00029035
0.00029392
0.000283903
0.000275297
0.000276775
0.000289074
0.000306957
0.000320241
0.000318079
0.000294748
0.000252849
0.000197908
0.000125185
4.4401e-05
1.06622e-05
6.97601e-06
2.04525e-05
7.375e-05
0.000116395
3.80944e-05
8.30785e-06
1.25295e-05
8.68028e-05
0.000223476
0.000239519
0.000219151
0.000187585
0.000153783
0.000123321
0.000104365
0.000102258
0.000117425
0.000147317
0.000186891
0.000230079
0.000271002
0.000303167
0.00031929
0.000315463
0.000296735
0.000274711
0.000258569
0.000250125
0.000245016
0.000236363
0.000219119
0.00019276
0.000158545
0.000111274
5.12963e-05
1.67911e-05
1.03195e-05
2.55087e-05
9.27664e-05
4.75643e-05
8.43999e-06
1.28954e-05
9.64512e-05
0.000227735
0.000230848
0.000203971
0.000173427
0.000149859
0.000132717
0.000120696
0.000118339
0.000130591
0.000157453
0.000193473
0.000231057
0.000264796
0.000292409
0.000312323
0.000321285
0.000315593
0.00029596
0.000269751
0.000246163
0.000229496
0.000218065
0.000207195
0.000193002
0.000174569
0.000151466
0.00011758
6.25224e-05
1.58552e-05
1.13309e-05
2.9375e-05
7.66783e-05
9.44021e-06
1.26591e-05
9.7283e-05
0.000220853
0.000220029
0.000191793
0.000160938
0.000139391
0.000128344
0.000125339
0.000129898
0.00014471
0.000172073
0.000210254
0.000253934
0.000297466
0.000336525
0.000367127
0.000384932
0.000386247
0.000370191
0.000340426
0.000304857
0.000271939
0.000246128
0.000226045
0.000207812
0.000189204
0.000164817
0.00011264
4.66076e-05
1.36497e-05
9.8464e-06
2.96283e-05
7.78667e-05
1.03289e-05
1.25933e-05
9.6622e-05
0.000219668
0.000218452
0.000191174
0.00016355
0.000144664
0.00013394
0.000130112
0.000134109
0.000147976
0.000173122
0.000208893
0.000252874
0.000302776
0.000356185
0.000406451
0.000439767
0.000444326
0.000436323
0.000421865
0.000386575
0.000340672
0.000296843
0.000259876
0.000225104
0.000179355
0.000106582
4.17275e-05
2.08432e-05
1.40534e-05
1.88047e-05
6.43657e-05
5.4153e-05
1.00314e-05
1.2452e-05
9.67975e-05
0.000217144
0.000209655
0.000179049
0.000155481
0.000145072
0.000142375
0.000142591
0.000146442
0.000158138
0.000181097
0.00021595
0.00026133
0.000317279
0.000386356
0.000456573
0.000456122
0.000449538
0.000441297
0.000431323
0.000419544
0.00040592
0.000340428
0.000276605
0.000215293
0.000138932
6.02969e-05
2.29265e-05
1.57928e-05
2.19619e-05
4.47213e-05
0.000120866
4.00002e-05
8.88293e-06
1.24261e-05
9.56026e-05
0.000211876
0.000199803
0.000167637
0.000146859
0.000141479
0.000144183
0.000148496
0.000153715
0.000163987
0.000184053
0.00021633
0.00026058
0.000316214
0.000384613
0.000456488
0.000462654
0.00045651
0.000448679
0.000439055
0.000427509
0.000408739
0.000326669
0.000252265
0.000186796
0.000117873
5.41986e-05
2.13645e-05
1.36315e-05
2.40623e-05
7.61287e-05
0.000114124
3.41339e-05
8.06401e-06
1.2349e-05
9.38585e-05
0.000202221
0.000184472
0.000151502
0.000135472
0.000137434
0.000148019
0.000158182
0.000165274
0.000173466
0.000188925
0.00021581
0.000255249
0.00030604
0.000366027
0.000429877
0.000469215
0.000464047
0.000457308
0.000448917
0.000438773
0.000377526
0.000306481
0.000243044
0.000187755
0.000134413
7.78955e-05
3.38778e-05
1.59049e-05
1.74686e-05
4.7659e-05
0.000105889
3.49265e-05
8.11174e-06
1.24563e-05
9.53803e-05
0.000195074
0.000171801
0.000138695
0.000125749
0.000132378
0.000149357
0.000166502
0.000178265
0.000186561
0.000197731
0.00021766
0.000249464
0.000293385
0.000346802
0.000403266
0.00045096
0.000471231
0.000465539
0.000458449
0.000428679
0.000377953
0.000319685
0.000260931
0.000207172
0.00016018
0.000115095
6.71071e-05
3.01556e-05
1.71756e-05
2.5999e-05
8.11172e-05
4.50125e-05
8.81176e-06
1.23626e-05
9.53452e-05
0.000190219
0.000165493
0.000133314
0.00012168
0.000129532
0.000148596
0.00016987
0.000187426
0.000200546
0.000212922
0.000230016
0.00025647
0.000294777
0.000344276
0.000399
0.000446411
0.000472521
0.000472212
0.000465477
0.000442129
0.000403415
0.000352401
0.00029509
0.00023799
0.000185801
0.000139234
9.38256e-05
4.93233e-05
2.24514e-05
2.0364e-05
4.91079e-05
6.22713e-05
9.56191e-06
1.24867e-05
9.86193e-05
0.000192782
0.000167587
0.000135292
0.00012363
0.000131409
0.000150305
0.00017161
0.000189929
0.000204487
0.000217839
0.000234052
0.000257323
0.000291225
0.000337784
0.000394498
0.000449341
0.00048206
0.000477263
0.000471159
0.000463789
0.000442339
0.000396754
0.000338603
0.000275952
0.000213274
0.000152786
9.63702e-05
5.05423e-05
2.5045e-05
2.16026e-05
4.92475e-05
7.01595e-05
9.88814e-06
1.25126e-05
0.000102519
0.000194286
0.000166048
0.000134096
0.000124301
0.000134274
0.000155769
0.00018007
0.000201277
0.000217899
0.000231797
0.000246652
0.000266659
0.000295773
0.00033723
0.000391402
0.000449428
0.000485687
0.000481159
0.00047534
0.000468237
0.000459882
0.000426068
0.000367977
0.00030131
0.000229923
0.000155319
8.75441e-05
4.38034e-05
2.54391e-05
2.64414e-05
6.37693e-05
6.5002e-05
9.70675e-06
1.26351e-05
0.000108421
0.000198505
0.000166518
0.000136084
0.000129496
0.000141681
0.000163637
0.000187366
0.00020813
0.000224888
0.000238982
0.000253088
0.000270504
0.000294668
0.000328873
0.000375255
0.000430792
0.000478743
0.000484598
0.000479035
0.000472214
0.000464161
0.000431863
0.000375075
0.000309316
0.000236286
0.00015608
8.31764e-05
4.0477e-05
2.60096e-05
3.19155e-05
8.13355e-05
5.98441e-05
9.41294e-06
1.25815e-05
0.000111014
0.000197185
0.000157171
0.000128839
0.000129051
0.000148508
0.000175875
0.000202404
0.000224044
0.000240592
0.000253748
0.000266131
0.000280778
0.000300691
0.000328499
0.0003658
0.000411235
0.000457195
0.000487835
0.000482602
0.000475931
0.000464097
0.00042348
0.000369192
0.000306913
0.000235915
0.000155544
8.16613e-05
3.95154e-05
2.68212e-05
3.62411e-05
9.39978e-05
5.68607e-05
9.22963e-06
1.25382e-05
0.000107621
0.000189798
0.000143186
0.000117071
0.000122999
0.000148984
0.000181661
0.000211555
0.000235251
0.000253041
0.000266544
0.000278028
0.000290286
0.000306253
0.000328464
0.000358431
0.000395463
0.00043501
0.000468249
0.000485282
0.00047993
0.000456581
0.000416414
0.00036542
0.000306072
0.00023644
0.000155223
8.01652e-05
3.88417e-05
2.75583e-05
3.9407e-05
0.000101982
5.53508e-05
9.18206e-06
1.23794e-05
9.79079e-05
0.000175023
0.000124522
0.000100155
0.00011029
0.000143251
0.000183985
0.000220222
0.000248094
0.000268656
0.000284006
0.000296237
0.000307689
0.000320992
0.000338652
0.000362375
0.000392149
0.000425055
0.000454449
0.000471477
0.00046957
0.000448055
0.00041094
0.000362873
0.000305698
0.00023658
0.000153466
7.6864e-05
3.71187e-05
2.79477e-05
4.27024e-05
0.000109662
5.30422e-05
9.1329e-06
1.23483e-05
8.88057e-05
0.00016486
0.000114273
8.69902e-05
9.53302e-05
0.000130127
0.000177558
0.000221762
0.000255862
0.000280485
0.000298284
0.000311775
0.000323362
0.000335517
0.000350564
0.000370134
0.000394428
0.00042138
0.000445973
0.000460937
0.000459989
0.000441316
0.000407531
0.000362381
0.000307196
0.000238527
0.000153652
7.50748e-05
3.57776e-05
2.80391e-05
4.52888e-05
0.000115372
5.0604e-05
9.07914e-06
1.22781e-05
8.30924e-05
0.000162647
0.000115694
8.08182e-05
8.24127e-05
0.000113882
0.000165627
0.000219706
0.000263749
0.00029598
0.000318855
0.000335073
0.000347216
0.000357985
0.000369994
0.000385103
0.000403727
0.000424288
0.000442894
0.000453846
0.000451827
0.000434558
0.000403238
0.000360311
0.000306259
0.000237085
0.000150579
7.19807e-05
3.41238e-05
2.81552e-05
4.87519e-05
0.000120766
4.70249e-05
8.94203e-06
1.24152e-05
8.58334e-05
0.000172581
0.00013245
8.65277e-05
7.76716e-05
0.000101241
0.00015099
0.000210635
0.000263419
0.000303948
0.000333646
0.000354882
0.00036992
0.000381249
0.000391503
0.000402722
0.000415628
0.000429244
0.000440875
0.00044653
0.000442237
0.000425713
0.000396945
0.000356954
0.000305236
0.000237298
0.000150982
7.20749e-05
3.36846e-05
2.81593e-05
5.13909e-05
0.000122483
4.37382e-05
8.7606e-06
1.25811e-05
9.71754e-05
0.000187782
0.00014784
9.77642e-05
8.25066e-05
0.000100748
0.000148854
0.000212179
0.000271335
0.000318426
0.000354095
0.000380219
0.000398399
0.000410546
0.00041904
0.000425963
0.000432336
0.000437853
0.000441052
0.000439655
0.000431184
0.000413774
0.000386641
0.000349553
0.00030105
0.000236407
0.000153362
7.54216e-05
3.50908e-05
2.82947e-05
5.2269e-05
0.000120479
4.10497e-05
8.57668e-06
1.28448e-05
0.000117399
0.000199783
0.000150322
0.000107321
9.55621e-05
0.000113868
0.000160846
0.000223015
0.000281957
0.000330379
0.000368854
0.00039865
0.000420319
0.000434513
0.000442535
0.000445966
0.000446039
0.00044335
0.000437937
0.000429329
0.000416544
0.000398252
0.000373149
0.000339967
0.000296433
0.0002377
0.000160728
8.39906e-05
3.97076e-05
2.947e-05
5.07471e-05
0.000117161
3.98643e-05
8.46548e-06
1.29541e-05
0.000141331
0.000188559
0.000129699
0.000105405
0.000111368
0.000142058
0.000194083
0.000254088
0.00030857
0.000353874
0.00039133
0.000421855
0.000445245
0.000461009
0.000469034
0.000469755
0.000464086
0.000453346
0.000439122
0.000422769
0.000404777
0.000384489
0.000360373
0.000330383
0.000291556
0.00023901
0.000169197
9.52654e-05
4.7239e-05
3.28431e-05
5.04191e-05
0.000116203
4.04101e-05
8.44418e-06
1.29853e-05
0.000163354
0.000154865
0.000104971
0.000102793
0.000130955
0.000179122
0.000235836
0.000290116
0.000337189
0.000377265
0.000411783
0.000441112
0.000464536
0.000480883
0.000489015
0.00048826
0.000478877
0.000462388
0.000441398
0.000418664
0.000395944
0.00037335
0.000349446
0.000321736
0.000286761
0.000239602
0.000176597
0.000106816
5.66365e-05
3.85908e-05
5.32508e-05
0.000118274
4.22795e-05
8.45615e-06
1.27733e-05
0.000173034
0.000113344
8.45918e-05
0.000104886
0.000157509
0.000219854
0.000274732
0.000320431
0.000359882
0.00039514
0.000427051
0.000455328
0.000478821
0.000495828
0.000504391
0.000502923
0.000491104
0.000470543
0.000444567
0.000416958
0.000390432
0.000365748
0.000341669
0.000315443
0.000283177
0.000239925
0.000182177
0.000116663
6.62331e-05
4.60305e-05
5.93788e-05
0.000122733
4.48515e-05
8.47282e-06
1.23273e-05
0.00016057
8.86383e-05
7.20127e-05
0.000103429
0.000164737
0.000226405
0.000275965
0.000316828
0.000353343
0.000387407
0.00041933
0.000448561
0.00047387
0.000493351
0.000504569
0.000505205
0.000494215
0.000472877
0.000444755
0.0004143
0.000385096
0.000358712
0.000334428
0.000309552
0.00027989
0.000240411
0.000187559
0.000126248
7.63498e-05
5.48309e-05
6.76405e-05
0.000127778
4.78103e-05
8.49899e-06
1.15284e-05
0.000107027
8.64383e-05
5.68818e-05
6.71118e-05
0.000106102
0.000167795
0.00022943
0.000281053
0.000325708
0.000366235
0.000403591
0.000437616
0.000467164
0.000490339
0.000504609
0.000507387
0.000497474
0.000476063
0.000446755
0.000414383
0.000383121
0.000355132
0.000330226
0.000306058
0.00027849
0.000242502
0.000194298
0.000136992
8.766e-05
6.47799e-05
7.67379e-05
0.000132984
5.17551e-05
8.60223e-06
1.08404e-05
5.17227e-05
9.88895e-05
4.96054e-05
2.74976e-05
3.35294e-05
7.01955e-05
0.000142981
0.000225681
0.000296851
0.00035823
0.000412878
0.000460395
0.000498739
0.00052597
0.000540281
0.000540306
0.000525743
0.000498456
0.000462861
0.000424667
0.000388772
0.000357562
0.000330923
0.000306619
0.000280559
0.000247711
0.000203896
0.000150406
0.000101491
7.68405e-05
8.7469e-05
0.00013977
5.72099e-05
8.79028e-06
1.08055e-05
3.9951e-05
9.30772e-05
8.45373e-05
2.13951e-05
8.91606e-06
2.11292e-05
6.62201e-05
0.000167472
0.000299177
0.000422245
0.000494161
0.00050941
0.000521929
0.000531879
0.00053948
0.000544932
0.000548401
0.000550027
0.000497202
0.000443109
0.000398894
0.000362879
0.000333274
0.000307552
0.00028163
0.000250557
0.000210083
0.000160614
0.000114086
8.97061e-05
0.000100486
0.000149386
6.29174e-05
9.035e-06
1.1889e-05
5.36234e-05
0.000136374
0.000100225
2.86541e-05
7.85897e-06
1.57512e-05
5.73299e-05
0.000171344
0.000335715
0.000454247
0.000472705
0.000489136
0.000503195
0.000514887
0.000524316
0.000531611
0.000536895
0.000540276
0.000495244
0.000434748
0.000386438
0.000350652
0.000322723
0.000298852
0.00027507
0.000246785
0.000209956
0.000165009
0.00012289
0.000101624
0.000114831
0.000160219
6.63417e-05
9.20568e-06
1.26343e-05
0.000112389
0.000107124
4.97618e-05
2.54618e-05
2.13762e-05
4.43364e-05
0.000104009
0.000163371
0.000221379
0.000277084
0.000327332
0.000369828
0.000404209
0.000431026
0.00045063
0.000461168
0.000458452
0.000439717
0.000408101
0.000372127
0.000339355
0.000312457
0.000290575
0.000271379
0.000251652
0.000227604
0.00019618
0.000158786
0.000125574
0.000112048
0.000130998
0.000171406
6.67574e-05
9.30033e-06
1.21608e-05
0.000119177
0.000105603
7.83384e-05
7.06069e-05
6.24767e-05
5.67753e-05
6.48318e-05
8.46329e-05
0.000115924
0.000155686
0.00019762
0.000236434
0.000271024
0.000301989
0.000328359
0.000347207
0.000355382
0.000351388
0.000336702
0.000316012
0.000294336
0.000274579
0.000257375
0.000241752
0.000225473
0.000205467
0.000179511
0.000149895
0.000126147
0.00012158
0.000146725
0.000179215
6.49576e-05
9.24087e-06
1.14623e-05
7.64446e-05
0.00016095
0.00019166
0.000180526
0.000120549
7.48002e-05
5.6079e-05
5.08063e-05
5.42839e-05
6.8149e-05
9.55202e-05
0.000135874
0.000180172
0.000219283
0.000252439
0.000279738
0.000297838
0.00030387
0.000298521
0.000285106
0.000267932
0.000250138
0.000233185
0.000217184
0.000201138
0.000183281
0.000162576
0.000141513
0.000127902
0.000132668
0.000162407
0.000183874
6.30536e-05
9.14805e-06
1.09569e-05
6.5553e-05
0.000176936
0.000234481
0.000248448
0.000247516
0.000219446
0.000159001
0.000108487
7.79629e-05
5.99481e-05
5.176e-05
5.53033e-05
7.68262e-05
0.000121703
0.000175323
0.000217614
0.00024827
0.000268225
0.000275402
0.000270582
0.00025755
0.000240429
0.000222322
0.000204647
0.000187392
0.000169749
0.000151543
0.000135612
0.000128979
0.000140581
0.000172024
0.000183966
6.09917e-05
9.01319e-06
1.15836e-05