/*--------------------------------*- C++ -*----------------------------------*\
| =========                 |                                                 |
| \\      /  F ield         | OpenFOAM: The Open Source CFD Toolbox           |
|  \\    /   O peration     | Version:  v2006                                 |
|   \\  /    A nd           | Website:  www.openfoam.com                      |
|    \\/     M anipulation  |                                                 |
\*---------------------------------------------------------------------------*/
FoamFile
{
    version     2.0;
    format      ascii;
    class       volScalarField;
    location    "58";
    object      k;
}
// * * * * * * * * * * * * * * * * * * * * * * * * * * * * * * * * * * * * * //

dimensions      [0 2 -2 0 0 0 0];


internalField   nonuniform List<scalar> 
78750
(
0.000334692
0.00062356
0.000757416
0.000815906
0.000856251
0.000878214
0.000906826
0.000947181
0.000992364
0.00104404
0.00108576
0.00113853
0.00118262
0.0012532
0.00132634
0.00144911
0.00158224
0.00177431
0.0019647
0.00220333
0.0024202
0.00266381
0.00287337
0.00308799
0.00326867
0.00344771
0.00360027
0.0037962
0.00397798
0.00436807
0.00475451
0.00569957
0.00643825
0.00711661
0.00211209
0.00870331
0.00940984
0.00661906
0.00458241
0.00400546
0.00376868
0.00351076
0.00323764
0.00299302
0.00280068
0.00265937
0.00256546
0.0025048
0.00247788
0.00246534
0.00247197
0.00248864
0.0025231
0.00255064
0.00259619
0.00262647
0.0026914
0.00273504
0.00283777
0.00292722
0.00309686
0.00329419
0.00354706
0.00392709
0.00428783
0.00490655
0.00561967
0.00620718
0.00747731
0.00748402
0.00656886
0.00326489
0.00279771
0.00219443
0.00229492
0.0023544
0.00230827
0.00218397
0.00201005
0.00181871
0.0016598
0.00156912
0.00155388
0.00164144
0.00185589
0.00215665
0.0024466
0.00265022
0.00275154
0.00278818
0.0028078
0.00285087
0.00291426
0.00300756
0.00310189
0.00322907
0.00335048
0.00352023
0.00371123
0.00386832
0.00430495
0.00396692
0.00545454
0.0024639
0.00598742
0.00481954
0.00519771
0.00366945
0.00367676
0.0037681
0.00373212
0.00366318
0.00355581
0.00342841
0.00327833
0.00314125
0.00309241
0.00309581
0.00305597
0.00296299
0.00280227
0.00258302
0.00236527
0.00217605
0.00204148
0.00197986
0.00198629
0.00203781
0.00211849
0.0022183
0.00233518
0.0024627
0.00261724
0.00278877
0.00302193
0.00344375
0.00390706
0.00524432
0.00441695
0.0135022
0.00424174
0.00221295
0.00200413
0.00244605
0.0022201
0.0019766
0.00184858
0.00163725
0.00161068
0.0017244
0.0018133
0.00184994
0.00185331
0.00183412
0.0018117
0.00178849
0.00176388
0.00172455
0.00166354
0.00159071
0.00152348
0.00147816
0.00146495
0.00148599
0.00153588
0.00160693
0.00169587
0.00181021
0.00196256
0.00220514
0.002691
0.00385396
0.00616487
0.00811512
0.0157135
0.00313126
0.00228394
0.00381221
0.00499142
0.00563645
0.00566241
0.00526426
0.0042563
0.00291187
0.00228884
0.0022368
0.00227219
0.00218151
0.00196813
0.00171607
0.00152086
0.00143466
0.00142506
0.00143517
0.00144085
0.00144447
0.00145403
0.00147432
0.0015052
0.00154212
0.00157785
0.00160475
0.00161858
0.00162652
0.00167662
0.00195022
0.00296101
0.00521208
0.00746037
0.0111909
0.00135834
0.00333912
0.00446544
0.00467496
0.00453667
0.00427475
0.00384332
0.00330515
0.00269061
0.00213293
0.00182645
0.00170124
0.00164352
0.0015838
0.00149793
0.00140047
0.00132705
0.00130866
0.00133623
0.00137716
0.00141504
0.00145125
0.00149125
0.00153725
0.00158776
0.00163836
0.00168026
0.00169708
0.00166746
0.00158522
0.00150112
0.001673
0.0028451
0.00448218
0.00646746
0.00420579
0.00534171
0.00551472
0.00559022
0.00571799
0.00590092
0.00605867
0.00608487
0.00581909
0.00508455
0.00415944
0.00330594
0.00260285
0.00208172
0.00173377
0.00151032
0.00134909
0.00122298
0.00116502
0.00120165
0.00129114
0.00137682
0.00143866
0.0014861
0.00153417
0.00159135
0.00165977
0.00173533
0.00179765
0.00180044
0.00171118
0.00162648
0.00210501
0.0031381
0.00467342
0.000189919
0.002649
0.00423983
0.00495712
0.00533244
0.00555728
0.00570221
0.00584296
0.00602234
0.00616488
0.00610064
0.00571351
0.00504081
0.00420661
0.00333998
0.00255958
0.00195393
0.00155393
0.00132674
0.00119636
0.0011316
0.00116023
0.00127061
0.00139558
0.00149131
0.0015618
0.00163
0.00171834
0.00184801
0.00202064
0.00216667
0.00225641
0.00255413
0.00317734
0.00435096
0.00294026
0.00519226
0.00590751
0.00614714
0.00620982
0.00619993
0.00615664
0.00608762
0.0059948
0.00592878
0.0059745
0.00611148
0.00620474
0.00611256
0.00572518
0.00502823
0.004126
0.00317627
0.00232319
0.00172271
0.00141122
0.00126176
0.00117259
0.00114995
0.00121476
0.00131613
0.00140404
0.00148134
0.00157994
0.00175212
0.00200999
0.00228025
0.00268309
0.00323958
0.00438223
0.00484224
0.00592388
0.0060691
0.00597958
0.00590755
0.00593092
0.00602533
0.00611359
0.0060998
0.0059216
0.00562359
0.00536555
0.0052802
0.00532713
0.00537378
0.00533121
0.00510858
0.00457058
0.00371953
0.00278923
0.00204237
0.00161219
0.00140646
0.00130039
0.00126141
0.00131909
0.00145131
0.00159212
0.00173384
0.00193776
0.00229264
0.00269504
0.00308764
0.00359876
0.00478879
0.00837183
0.00748371
0.00665071
0.00578589
0.00539235
0.00544968
0.00569619
0.00595068
0.00608558
0.00606091
0.00589967
0.00562645
0.00527475
0.00496743
0.00479545
0.00469964
0.00460017
0.00442164
0.00402864
0.00330653
0.00245274
0.00178175
0.00136805
0.0011345
0.00101198
0.000989087
0.00108149
0.0012649
0.00149859
0.00181334
0.00231575
0.00294987
0.00336912
0.00378421
0.00481497
0.00725843
0.00564312
0.00456152
0.00369334
0.00404511
0.00461977
0.00505977
0.00541254
0.00567748
0.00581682
0.00581568
0.005698
0.00549124
0.00520583
0.00487733
0.00459682
0.00439759
0.00423487
0.0040428
0.00372702
0.00318855
0.00258415
0.00221896
0.00200854
0.00181361
0.00162251
0.00146906
0.00138143
0.00137285
0.00146
0.0017148
0.00224788
0.00290602
0.00355237
0.00492391
0.0057871
0.00535569
0.004659
0.00371358
0.00328193
0.00341071
0.00381532
0.0043024
0.00475114
0.00509147
0.0052896
0.00534274
0.00527619
0.00512285
0.0049027
0.00463182
0.0043534
0.00410366
0.00385976
0.00354058
0.00299753
0.00215885
0.00138455
0.00109882
0.00116037
0.00127691
0.00135623
0.00142487
0.00152848
0.00170344
0.00199458
0.00249125
0.00316481
0.00389973
0.00525796
0.0068026
0.00645781
0.00572137
0.00459323
0.00294701
0.0020635
0.002184
0.00278679
0.0034722
0.00406865
0.0045254
0.00482459
0.00496575
0.00497186
0.00488049
0.00472204
0.00451784
0.00429362
0.00407607
0.00386346
0.00360767
0.00321277
0.00261757
0.00201405
0.00162009
0.00142582
0.0013441
0.00133886
0.00142382
0.00163361
0.00201484
0.00258392
0.00321262
0.00382951
0.00488403
0.0060401
0.00617296
0.00584593
0.00520562
0.0040568
0.00270567
0.00189276
0.00176768
0.00206848
0.00254997
0.00309065
0.00361566
0.00404609
0.00433314
0.00447382
0.00449584
0.00443192
0.00431038
0.0041554
0.00398165
0.00378279
0.0035231
0.00314853
0.00266861
0.00220407
0.00184852
0.00160118
0.00142575
0.00130787
0.00126965
0.00138944
0.0018921
0.00274799
0.00356841
0.00506332
0.00534055
0.00681853
0.00699146
0.00684959
0.00640477
0.00544492
0.00410593
0.00280416
0.00185081
0.00133465
0.00123423
0.00149098
0.00197692
0.00251873
0.00297069
0.00327038
0.00340984
0.00341637
0.00333053
0.00318146
0.00298389
0.00274534
0.00247517
0.00219823
0.00195861
0.00178518
0.00167189
0.00159542
0.00152736
0.00144911
0.00143464
0.0018761
0.0029216
0.00400416
0.00585622
0.00498503
0.00689258
0.0073901
0.00756114
0.00759794
0.00746138
0.00696142
0.00599259
0.00480505
0.00362403
0.00252983
0.00159008
0.000956468
0.000778032
0.00102844
0.00154557
0.00209072
0.00246094
0.00261651
0.00261609
0.00251692
0.0023533
0.00214788
0.00193391
0.0017508
0.00162429
0.00156824
0.00159187
0.00170881
0.00189483
0.00207781
0.00251184
0.0034114
0.00442594
0.00603088
0.00484308
0.00663324
0.00717638
0.00744476
0.00762664
0.00774803
0.00779291
0.00767741
0.00726542
0.00656597
0.00571972
0.00481759
0.00388388
0.00290204
0.00181324
0.000746258
0.000333057
0.000728097
0.00138661
0.00189013
0.0020951
0.00209133
0.00200408
0.00189086
0.00177097
0.0016556
0.00156229
0.00152742
0.00164054
0.0020506
0.00270981
0.00332781
0.00394865
0.00463859
0.00576261
0.00491043
0.00686807
0.00746294
0.00773137
0.00791263
0.0080652
0.00820299
0.00832151
0.00838215
0.00828186
0.00788469
0.00715595
0.0062233
0.00518475
0.00401706
0.002843
0.00196223
0.00123568
0.000431956
0.000147734
0.000648222
0.00127123
0.00164298
0.00178751
0.00180891
0.00178178
0.001737
0.00168275
0.00165217
0.0018092
0.00247836
0.00346075
0.00410139
0.00465941
0.0057601
0.00601008
0.00730761
0.00776214
0.00794389
0.00800701
0.00798385
0.00788722
0.0077422
0.0076064
0.00755003
0.00757779
0.00760013
0.00751978
0.00722994
0.00637205
0.00466822
0.00305667
0.00206449
0.00146303
0.00105123
0.000585363
0.000311759
0.000528075
0.000873528
0.0011556
0.00135631
0.00149902
0.00160806
0.00168341
0.00175276
0.00207271
0.00302992
0.00393179
0.00468013
0.00629898
0.00760085
0.0079603
0.00818153
0.00834878
0.00848398
0.00855028
0.00849091
0.0082416
0.00773527
0.00693906
0.00596486
0.00506711
0.00445579
0.00415475
0.00391694
0.00323395
0.0023945
0.00192901
0.00166405
0.00136187
0.000925078
0.000420719
0.000321256
0.000561254
0.000795759
0.000997422
0.00117457
0.00134987
0.0015392
0.00169056
0.00189958
0.00270279
0.00381276
0.00486733
0.00705383
0.00751222
0.0075545
0.00775148
0.00791811
0.00807501
0.00821503
0.00830847
0.00828726
0.00804786
0.00747244
0.00643739
0.00496633
0.00344356
0.00233833
0.00180234
0.00173158
0.00182043
0.0017696
0.00159666
0.00132111
0.000919922
0.000410629
9.53817e-06
8.43077e-05
0.000425763
0.000675107
0.000911504
0.00118531
0.00150311
0.00177794
0.00205554
0.00284912
0.00396173
0.00516568
0.00746748
0.00711226
0.0075528
0.00780005
0.00792749
0.00799081
0.00798737
0.00790208
0.00769969
0.00731659
0.0066657
0.00565289
0.00429481
0.00293175
0.00218946
0.00214109
0.00213152
0.00202047
0.00188208
0.00166677
0.00134495
0.000900496
0.000379711
0.000171357
4.68189e-05
6.79501e-05
0.000534373
0.00110867
0.00182086
0.00255354
0.0029679
0.00301867
0.00337481
0.00413127
0.00508486
0.00657212
0.00670477
0.0077024
0.00809902
0.00832879
0.00849849
0.00861457
0.00866877
0.00864439
0.00851562
0.00824065
0.00776248
0.00700704
0.00589847
0.00451696
0.00324943
0.00247379
0.00212646
0.00197988
0.00186382
0.00167665
0.00135443
0.000859081
0.000274326
5.81352e-05
9.26936e-05
0.000235378
0.000420056
0.00153453
0.00298892
0.00432204
0.00506411
0.0052233
0.00535577
0.00558831
0.00536946
0.00668089
0.00745624
0.00777987
0.00798018
0.00814104
0.00826997
0.00836405
0.00842177
0.0084486
0.00845434
0.00842695
0.00831196
0.00802237
0.00742741
0.00634569
0.00484346
0.00342135
0.00244171
0.00194308
0.00173815
0.00161501
0.00143193
0.00110358
0.000625344
0.0001017
6.20356e-05
0.000139475
0.000184909
0.000911925
0.00219013
0.00354036
0.00478232
0.00532572
0.00544247
0.00486329
0.00691846
0.00767539
0.00803603
0.00826812
0.00845441
0.00859897
0.00869013
0.00871024
0.00864404
0.00849448
0.00829411
0.00808904
0.0078987
0.00770274
0.00744359
0.00699987
0.0061547
0.00482718
0.00341849
0.00235052
0.00173742
0.00143428
0.00126266
0.00103896
0.000625375
0.000204759
5.62461e-05
9.01458e-05
8.50513e-05
0.000279998
0.000781684
0.00133922
0.0025102
0.00344479
0.00505184
0.0068796
0.00760698
0.00799371
0.00824788
0.00845556
0.00862684
0.00875608
0.00883056
0.00883562
0.00876208
0.00861131
0.00839393
0.00812632
0.00782369
0.00749956
0.00715998
0.00677347
0.00621895
0.00528321
0.00399006
0.00272188
0.00177723
0.00123244
0.000821085
0.000325393
0.000186765
6.90709e-05
0.000183964
0.000125471
0.000102349
0.000105119
0.000526633
0.00174775
0.00392421
0.00795569
0.00712273
0.00783067
0.00819362
0.00843652
0.00864401
0.00882445
0.0089669
0.0090507
0.00906009
0.00899719
0.00887654
0.00871193
0.00850613
0.00825224
0.00794393
0.00758793
0.0071992
0.00676727
0.00620396
0.00530144
0.00394849
0.00245325
0.00111082
0.000467414
0.000166981
6.41785e-05
0.000211743
0.000300397
0.000567528
0.000422177
0.000360204
0.00158187
0.0038083
0.00613278
0.00991233
0.00751959
0.00796461
0.00824107
0.00844962
0.00864921
0.00884474
0.00901922
0.00913922
0.00917995
0.00914236
0.00904527
0.00890926
0.00874424
0.00854344
0.00828933
0.00796915
0.00758969
0.00716647
0.00667624
0.00598878
0.00484496
0.0030924
0.00111602
0.000248837
0.000214801
7.71304e-05
0.00101734
0.00265885
0.00299824
0.00230922
0.00207903
0.00321422
0.00469541
0.00612436
0.00748096
0.0078087
0.0080479
0.00824789
0.00842211
0.00860994
0.00881084
0.00899679
0.00912329
0.00917085
0.00915072
0.00908372
0.00898683
0.00886776
0.00872473
0.00854562
0.0083128
0.00801217
0.00764157
0.00720038
0.00665106
0.00586054
0.00457815
0.00259472
0.000452955
4.03226e-05
0.000225325
0.00139366
0.0040293
0.00541211
0.00548308
0.00527342
0.00536059
0.00568692
0.00586429
0.00476988
0.00808527
0.00812117
0.00825523
0.00840481
0.00859152
0.00880872
0.00901213
0.00914659
0.00920425
0.00921063
0.0091881
0.00914522
0.00908063
0.00898894
0.00886437
0.00869979
0.00848598
0.00821201
0.00786716
0.00743974
0.00690331
0.00618011
0.00510421
0.00346747
0.00140405
0.000458967
0.000114615
0.00131868
0.00329476
0.00491195
0.00594302
0.00652721
0.00650996
0.00621884
0.00459164
0.00783217
0.00790571
0.00803666
0.00817739
0.00835779
0.00857676
0.00878725
0.00892587
0.00898376
0.00899654
0.00899845
0.0090043
0.00901021
0.00900193
0.00896474
0.00888888
0.00876834
0.00859861
0.00837477
0.00809063
0.00773618
0.00729371
0.00672388
0.00593596
0.0047976
0.0032401
0.0014609
8.80509e-05
0.000358263
0.000701098
0.00206761
0.00377323
0.00527211
0.00579245
0.00515572
0.00783475
0.00792167
0.00803522
0.00815333
0.00830211
0.00848709
0.00868185
0.00882386
0.00887524
0.00885296
0.00879727
0.00874447
0.00871394
0.00870335
0.00869683
0.00867587
0.00862749
0.00854426
0.00842218
0.00825913
0.00805286
0.00780091
0.00749821
0.00713129
0.00666814
0.00604962
0.00518392
0.00404706
0.00287787
0.00170331
0.000955984
0.000565602
0.00193836
0.003414
0.00556477
0.00747512
0.00771031
0.00788688
0.00803194
0.00818002
0.00834047
0.00851613
0.00867555
0.00875824
0.00873492
0.00862279
0.00846138
0.00829373
0.00815018
0.00803888
0.00794873
0.00786095
0.00775863
0.00762955
0.00746458
0.00725693
0.00700112
0.00669241
0.00632644
0.00589718
0.00539654
0.00481224
0.00413854
0.00337254
0.00239217
0.000700751
0.000557025
0.00128443
0.00387911
0.00830576
0.0074153
0.00775517
0.00797939
0.00814688
0.00829034
0.00841266
0.00853562
0.00868798
0.00884518
0.00892854
0.00888662
0.00871476
0.00843671
0.0080978
0.00775111
0.00743177
0.00714515
0.00687633
0.00660393
0.00630934
0.00597944
0.00560546
0.00518104
0.0047013
0.0041638
0.00357436
0.00295989
0.00228696
0.00151453
0.00150975
0.000917062
0.00104177
0.00320994
0.00585908
0.00938397
0.00700128
0.00762494
0.00796038
0.00818311
0.0083482
0.00844822
0.00848805
0.00852229
0.0086416
0.00884048
0.00901856
0.0090994
0.00905492
0.00887745
0.00857548
0.00818777
0.00777301
0.00737365
0.00699687
0.0066274
0.00623735
0.00580092
0.00530596
0.00475136
0.00413636
0.00345387
0.00266702
0.00166091
0.000854467
0.00191911
0.0032446
0.0035125
0.00477499
0.00621158
0.00715774
0.00700643
0.00781921
0.00820826
0.00846636
0.00866709
0.00879238
0.00880994
0.00870938
0.00857995
0.00855335
0.00863158
0.0087308
0.00878746
0.00877323
0.00867508
0.00848394
0.00819884
0.00783756
0.00743264
0.00701432
0.00659655
0.00617574
0.00573635
0.00525511
0.00470664
0.00406671
0.00332124
0.00242807
0.00150854
0.0016764
0.00387161
0.00514763
0.00576085
0.00623233
0.00550141
0.00710561
0.00783274
0.00821834
0.00850654
0.00876957
0.0089876
0.00911649
0.00911029
0.00897819
0.00882781
0.00873686
0.00868459
0.00863066
0.00855306
0.00844303
0.00829655
0.00810963
0.00787601
0.00759064
0.00725653
0.00688867
0.00650777
0.00612576
0.0057385
0.00532931
0.00487829
0.00436532
0.00376435
0.00303585
0.00225457
0.00218912
0.00403098
0.00509967
0.0055881
0.00561812
0.00758453
0.00795388
0.00825282
0.00852622
0.00881218
0.00908343
0.00929152
0.00939279
0.0093827
0.0093222
0.00927782
0.00924357
0.0091854
0.00908568
0.00894138
0.00875584
0.00853445
0.00828063
0.00799354
0.00766977
0.00730846
0.00691889
0.00652055
0.00613183
0.00575763
0.00538921
0.00501191
0.00460908
0.00414895
0.00353972
0.00238238
0.00242343
0.00395393
0.0052219
0.00712703
0.00735867
0.00773639
0.00806112
0.00835492
0.00866045
0.00895291
0.0091898
0.00933553
0.00938916
0.00939014
0.00938986
0.00939772
0.00938771
0.00933746
0.00923876
0.0090922
0.00890181
0.00867104
0.00840061
0.00808876
0.00773211
0.00733001
0.00689207
0.00644156
0.00600388
0.00559192
0.00520421
0.00482837
0.0044055
0.00375586
0.00254387
0.0023845
0.00424156
0.00609751
0.00883232
0.00723049
0.0077122
0.00806709
0.00838474
0.00871898
0.00904093
0.00930112
0.00946571
0.0095367
0.00954483
0.00953125
0.00951749
0.00949588
0.00944888
0.00936467
0.00923938
0.0090732
0.00886444
0.0086056
0.00829314
0.00793307
0.00752465
0.00706094
0.00654931
0.00601889
0.00550247
0.0050076
0.00448975
0.00386739
0.00334243
0.00299552
0.00352842
0.00509679
0.00663301
0.00849214
0.00704464
0.00751667
0.00787047
0.00820552
0.00858683
0.00898168
0.00931824
0.00954701
0.00966995
0.009719
0.00973122
0.00972796
0.00970891
0.00966308
0.0095813
0.00946121
0.00930467
0.00910092
0.00883789
0.00851426
0.00813106
0.00769074
0.00719618
0.00663316
0.0060067
0.00536732
0.00473362
0.00407351
0.00345837
0.0034263
0.00409802
0.00474418
0.00564446
0.00646778
0.00686642
0.00706442
0.00750213
0.0078207
0.00813941
0.00853116
0.00896602
0.00935672
0.00963628
0.00979823
0.00987484
0.00990649
0.00991961
0.00991768
0.00989043
0.00982734
0.00972398
0.00958141
0.00939182
0.0091434
0.00883191
0.00845699
0.00801905
0.00751141
0.00690724
0.00620264
0.00544988
0.00469608
0.00396074
0.00335996
0.00341691
0.00471728
0.00566034
0.00617019
0.00646183
0.00586943
0.00696263
0.00735288
0.00764682
0.00795971
0.00837372
0.00886308
0.00932408
0.00967278
0.00989319
0.0100113
0.0100648
0.0100867
0.0100929
0.0100807
0.0100401
0.00996341
0.00984689
0.00968739
0.00947498
0.00920212
0.00886877
0.00847367
0.00799803
0.00741826
0.00673578
0.00597799
0.00519439
0.004427
0.0037242
0.00335549
0.0041014
0.00560637
0.00614528
0.00633532
0.00589524
0.00711764
0.0074077
0.00766103
0.0079536
0.008362
0.00886304
0.0093536
0.00974741
0.0100216
0.0101923
0.0102848
0.010325
0.0103342
0.0103212
0.0102844
0.0102183
0.0101175
0.00997777
0.00979375
0.00955842
0.00926984
0.00892432
0.00851009
0.00801503
0.00742923
0.00675608
0.00602428
0.00528165
0.00455772
0.00389294
0.00364798
0.00463148
0.00550616
0.0060575
0.00660402
0.00697424
0.00732541
0.00760974
0.00791596
0.00832231
0.00880687
0.00928603
0.00969253
0.0100054
0.0102325
0.0103876
0.010483
0.010531
0.0105411
0.0105182
0.0104629
0.0103732
0.0102458
0.0100758
0.00985718
0.00958842
0.00926989
0.00889609
0.00845721
0.00794281
0.00734781
0.00667948
0.00597005
0.00525596
0.00454378
0.00389803
0.00404513
0.00513784
0.00613629
0.00744216
0.0070362
0.00744374
0.00774784
0.00806478
0.0084688
0.00893151
0.00937779
0.00975692
0.0100572
0.0102873
0.0104591
0.0105802
0.010656
0.0106907
0.0106874
0.0106477
0.0105716
0.0104577
0.0103017
0.010096
0.00983802
0.0095317
0.00917902
0.00877137
0.00829413
0.00773783
0.00710078
0.00639271
0.00563539
0.00487998
0.00423287
0.004204
0.00531324
0.00644253
0.00774684
0.00700192
0.00744323
0.00777374
0.00812197
0.00856244
0.00904941
0.00950047
0.00987472
0.0101699
0.0103976
0.0105716
0.0107001
0.0107867
0.0108331
0.0108403
0.0108094
0.0107408
0.0106344
0.0104871
0.0102913
0.0100429
0.00974467
0.0094005
0.00900654
0.00854756
0.00800936
0.00738323
0.00665875
0.00583405
0.00501442
0.00449442
0.00463883
0.00559304
0.00653804
0.00740139
0.00709968
0.00753875
0.00787632
0.00825758
0.00875557
0.00928953
0.00975395
0.010119
0.0103976
0.0106072
0.0107652
0.0108816
0.0109604
0.0110028
0.0110084
0.0109769
0.010908
0.0108018
0.0106578
0.0104692
0.0102299
0.00994092
0.00960605
0.0092212
0.00877223
0.00824659
0.0076336
0.00691056
0.00604905
0.00516544
0.00472082
0.00501829
0.00577228
0.00646765
0.00696938
0.00703998
0.00741557
0.00772618
0.00812671
0.00871114
0.00935945
0.00991255
0.0103312
0.0106384
0.0108596
0.0110178
0.0111276
0.0111968
0.0112286
0.0112242
0.0111836
0.0111062
0.0109916
0.0108399
0.0106496
0.0104135
0.0101286
0.00979745
0.00941394
0.00896698
0.00844896
0.00784879
0.0071383
0.00627299
0.00535149
0.00491293
0.00526329
0.00586397
0.0063901
0.00676501
0.00709329
0.00733704
0.00756818
0.00793618
0.00856491
0.00931061
0.00995711
0.0104492
0.0108122
0.0110745
0.0112601
0.0113857
0.0114613
0.0114928
0.0114834
0.0114351
0.0113483
0.0112228
0.0110593
0.0108579
0.0106165
0.0103303
0.00999372
0.00960085
0.00914586
0.00862332
0.00802233
0.00731158
0.00643867
0.00550753
0.0050954
0.00546017
0.00596489
0.00640025
0.00677103
0.00705871
0.00714688
0.00728558
0.00758858
0.00822894
0.0090723
0.00983225
0.0104191
0.0108586
0.0111842
0.0114207
0.0115857
0.0116904
0.0117419
0.0117448
0.0117024
0.0116164
0.0114876
0.0113172
0.0111066
0.0108549
0.0105582
0.0102106
0.00980584
0.00933886
0.00880473
0.0081917
0.00746208
0.00655098
0.0055827
0.00523347
0.00564059
0.00608606
0.0064612
0.00682576
0.00717937
0.00713758
0.00719882
0.00740265
0.00794416
0.00880257
0.00965245
0.0103315
0.0108484
0.0112392
0.0115301
0.0117397
0.0118802
0.0119597
0.011984
0.0119572
0.011882
0.0117593
0.0115905
0.0113771
0.0111191
0.0108135
0.0104553
0.010039
0.00955996
0.00901352
0.00838702
0.00763691
0.0066847
0.00565803
0.00535367
0.00581087
0.0062232
0.0065563
0.00689243
0.00715079
0.00717133
0.00726317
0.0074097
0.00777225
0.00851473
0.00940223
0.0101676
0.0107665
0.0112291
0.011582
0.0118446
0.0120289
0.0121432
0.0121942
0.0121876
0.0121272
0.0120153
0.0118536
0.0116437
0.0113854
0.0110761
0.0107116
0.010287
0.00979797
0.0092393
0.00859567
0.0078156
0.00680744
0.00570281
0.0054405
0.00595932
0.00634955
0.00663888
0.00686492
0.00724185
0.00746626
0.00767296
0.00783986
0.00805045
0.00854284
0.00933283
0.0101131
0.0107537
0.0112606
0.0116564
0.0119598
0.0121814
0.0123278
0.0124045
0.0124173
0.0123705
0.0122678
0.0121121
0.0119054
0.0116476
0.0113364
0.0109681
0.0105387
0.0100444
0.00947982
0.00882744
0.00803198
0.00699339
0.0058109
0.00549493
0.00606203
0.00644102
0.0066868
0.00674561
0.00727933
0.00769001
0.00803168
0.00831438
0.0085819
0.00894768
0.00958868
0.010305
0.0109256
0.01143
0.011833
0.0121501
0.0123892
0.0125543
0.0126485
0.012676
0.01264
0.0125445
0.0123931
0.0121885
0.0119309
0.0116182
0.0112475
0.0108155
0.0103188
0.00975166
0.00909497
0.00829351
0.0072468
0.00600051
0.00549594
0.00606307
0.00644743
0.00666934
0.00656924
0.00741634
0.00785131
0.00824399
0.00865273
0.00911564
0.00958889
0.010166
0.0107883
0.0113407
0.0118
0.0121742
0.0124736
0.0127026
0.0128628
0.0129555
0.0129825
0.0129459
0.0128489
0.0126948
0.0124867
0.0122252
0.0119093
0.0115372
0.0111067
0.0106152
0.0100557
0.00940905
0.00862646
0.007613
0.00635324
0.00556769
0.00596473
0.00633689
0.00656186
0.00640331
0.00741033
0.00775441
0.00811988
0.0086404
0.00936015
0.0100977
0.010775
0.0113741
0.011879
0.0122976
0.0126401
0.0129149
0.0131245
0.0132695
0.0133505
0.0133678
0.0133227
0.0132174
0.0130543
0.012836
0.0125636
0.0122377
0.0118582
0.011425
0.0109363
0.0103843
0.00975057
0.00899381
0.00803008
0.00680829
0.00580613
0.00589135
0.00619794
0.00642107
0.00626022
0.00743134
0.00764237
0.00793637
0.00856625
0.00951995
0.010452
0.0112215
0.0118397
0.0123433
0.0127577
0.013095
0.0133628
0.0135643
0.0137006
0.0137727
0.0137811
0.0137271
0.0136125
0.0134391
0.0132088
0.0129233
0.0125841
0.0121937
0.0117542
0.0112645
0.0107172
0.0100943
0.00936167
0.00844739
0.00728912
0.00618113
0.00593918
0.00611774
0.00629555
0.00610355
0.00731134
0.00735092
0.0075615
0.00835114
0.00952351
0.0105583
0.0113686
0.0120213
0.0125643
0.0130181
0.0133907
0.0136877
0.0139124
0.0140668
0.0141524
0.0141704
0.0141224
0.0140101
0.013835
0.0135986
0.0133025
0.0129498
0.0125453
0.0120938
0.0115958
0.0110444
0.0104232
0.00970298
0.00882193
0.0077194
0.00659107
0.0061117
0.00613902
0.00622869
0.00594273
0.00707312
0.00688666
0.00695536
0.0077996
0.00907415
0.0101663
0.0110391
0.0117714
0.0123999
0.0129365
0.0133858
0.0137508
0.0140347
0.0142404
0.0143702
0.0144262
0.0144108
0.0143258
0.0141724
0.0139512
0.0136634
0.0133123
0.012904
0.0124455
0.0119392
0.0113803
0.0107554
0.0100391
0.00917809
0.00811647
0.00699397
0.00635494
0.00623547
0.00621335
0.00580209
0.006484
0.00609443
0.00586628
0.00622601
0.00725667
0.00855974
0.00975597
0.0107554
0.0115971
0.0123125
0.0129148
0.0134108
0.0138072
0.0141101
0.0143246
0.0144553
0.0145062
0.0144805
0.0143795
0.0142036
0.0139533
0.0136311
0.0132432
0.0127968
0.0122961
0.0117385
0.0111143
0.0104027
0.00955796
0.00852784
0.00741186
0.0066553
0.00640742
0.00628147
0.00576981
0.00605729
0.00581249
0.00525782
0.00464672
0.00432002
0.00527629
0.00709525
0.0087249
0.0100048
0.011035
0.0118828
0.0125785
0.0131442
0.0135926
0.0139344
0.0141785
0.014332
0.0144
0.0143852
0.0142881
0.0141088
0.0138492
0.0135146
0.013111
0.0126432
0.0121102
0.0115057
0.0108132
0.0099931
0.00899445
0.00788004
0.00702441
0.00665255
0.00642472
0.005828
0.00632787
0.00671791
0.00621462
0.00524228
0.00340611
0.00218898
0.0039333
0.00628143
0.00814703
0.00952879
0.0105924
0.0114443
0.0121503
0.012744
0.0132271
0.0136039
0.0138794
0.0140588
0.0141474
0.0141498
0.0140659
0.0138953
0.0136415
0.0133088
0.0129011
0.0124179
0.0118556
0.0112003
0.0104176
0.00946052
0.00837186
0.00747132
0.00700532
0.00668553
0.00598554
0.00781956
0.0077938
0.00738551
0.00648795
0.00449902
0.00198048
0.00325786
0.00566783
0.00751675
0.00876013
0.00968281
0.0104891
0.0112304
0.0118834
0.0124404
0.0128998
0.0132627
0.0135311
0.013708
0.0138
0.0138112
0.0137382
0.0135794
0.0133358
0.0130085
0.0125955
0.0120935
0.0114886
0.0107481
0.00982948
0.00877384
0.00786608
0.00733916
0.00693058
0.00608295
0.00894497
0.00760197
0.00689845
0.00585054
0.00427112
0.00355959
0.00499366
0.00638922
0.00745377
0.00835322
0.0091491
0.00987422
0.0105414
0.0111503
0.0116936
0.0121645
0.0125579
0.0128726
0.0131116
0.0132773
0.013369
0.0133832
0.0133159
0.0131639
0.0129242
0.012593
0.012165
0.0116243
0.0109391
0.0100759
0.00908843
0.00822993
0.00768176
0.00719817
0.00615658
0.00750525
0.00695152
0.00666057
0.00617247
0.00577758
0.0056274
0.00551188
0.00574407
0.006306
0.00704477
0.00784096
0.00862551
0.00936571
0.0100452
0.0106546
0.0111888
0.0116472
0.0120302
0.0123443
0.0125904
0.0127663
0.0128679
0.0128905
0.0128279
0.0126746
0.0124261
0.0120746
0.0116017
0.0109763
0.0101755
0.00926841
0.00847575
0.00791976
0.00736373
0.0061117
0.00553616
0.00753297
0.0084618
0.00899569
0.00912843
0.00867983
0.0076484
0.00657192
0.00579849
0.00549619
0.00569623
0.0062984
0.00712543
0.00801332
0.00885938
0.00961695
0.0102722
0.0108286
0.0112949
0.0116774
0.011975
0.0121903
0.0123199
0.0123573
0.0122978
0.012139
0.0118734
0.0114832
0.0109415
0.0102361
0.00944084
0.00873201
0.00818367
0.00757124
0.00613993
0.00489081
0.00772129
0.00918738
0.0101749
0.0109717
0.011573
0.0117963
0.0113413
0.0101773
0.00862717
0.00708208
0.0059104
0.00541425
0.00568162
0.00648307
0.00745913
0.0084001
0.00923301
0.00994052
0.0105286
0.0110077
0.0113831
0.0116492
0.0118058
0.0118525
0.011788
0.0116075
0.0112967
0.0108333
0.0102138
0.0095131
0.0088728
0.00833738
0.0076931
0.00621147
0.00553844
0.00736893
0.00857123
0.00955713
0.0105582
0.0116026
0.0126147
0.0134499
0.013914
0.0138005
0.012914
0.0112511
0.00911337
0.00698512
0.00569078
0.00572717
0.00654632
0.00752855
0.00845323
0.00926107
0.00993722
0.0104872
0.0109159
0.0112204
0.0113974
0.0114459
0.0113648
0.0111466
0.0107765
0.0102565
0.00965361
0.00908064
0.00857092
0.00793336
0.00654057
0.00773632
0.00884837
0.00958574
0.0103376
0.0111306
0.0118968
0.0126483
0.0134253
0.0141848
0.0148036
0.0151653
0.0151634
0.014589
0.0128968
0.00989202
0.00713257
0.00619797
0.00662024
0.00743086
0.00825752
0.00901263
0.00966941
0.0102184
0.010652
0.0109564
0.0111191
0.0111332
0.0109931
0.0106918
0.0102408
0.00970815
0.00919127
0.00871766
0.00812198
0.00694785
0.00940657
0.00981281
0.0104075
0.0114005
0.0125322
0.0134939
0.0142004
0.0147021
0.0150794
0.0153648
0.0155334
0.0155535
0.0153916
0.0149098
0.0134875
0.0105058
0.00801408
0.00735027
0.0076847
0.00822406
0.00877241
0.00930976
0.00982024
0.010276
0.0106438
0.0108907
0.0109926
0.0109339
0.0107049
0.0103198
0.0098467
0.00937462
0.00892878
0.00836727
0.00736754
0.00823507
0.00812542
0.00883853
0.0102237
0.011789
0.0131624
0.0142204
0.0149573
0.0153983
0.0155771
0.0155321
0.0152866
0.0147954
0.0138439
0.0120565
0.00991223
0.00887061
0.00873367
0.00887738
0.00910049
0.00936627
0.00966447
0.00998462
0.0103063
0.0105949
0.0108084
0.0109094
0.0108715
0.0106801
0.0103476
0.00993431
0.0095138
0.00910484
0.00858605
0.00769581
0.00557079
0.00607803
0.00656477
0.00724692
0.00831442
0.0096827
0.0110208
0.0121134
0.012855
0.0131866
0.0130761
0.0125454
0.0118172
0.0112657
0.010925
0.0106372
0.0104183
0.0103082
0.010285
0.0103178
0.0103866
0.0104817
0.0106028
0.0107434
0.0108831
0.0109864
0.0110123
0.0109266
0.0107128
0.0103876
0.0100067
0.00962399
0.0092407
0.00872841
0.00767731
0.00415342
0.00534647
0.00494513
0.00456449
0.00456439
0.00518375
0.00620392
0.00747749
0.00884966
0.0100924
0.0109886
0.0115314
0.0117907
0.0118421
0.0117831
0.0116857
0.011584
0.0114911
0.0114092
0.0113355
0.0112706
0.0112187
0.0111856
0.0111755
0.0111831
0.0111847
0.0111407
0.0110129
0.0107831
0.010467
0.0101082
0.00974169
0.00934989
0.00876701
0.00733016
0.00374167
0.00560087
0.00563689
0.00539114
0.00493385
0.00439342
0.00405271
0.00401384
0.00423365
0.00541027
0.00752329
0.00939504
0.0106268
0.0113549
0.0117532
0.0119556
0.0120382
0.0120451
0.012001
0.0119219
0.0118196
0.0117044
0.0115879
0.0114841
0.0114039
0.0113396
0.0112542
0.0111005
0.0108556
0.0105356
0.01018
0.00981564
0.00941726
0.00880031
0.00717234
0.00405837
0.00639282
0.00735287
0.00779262
0.0079162
0.00767856
0.0071749
0.00661565
0.00478446
0.00141688
0.00116402
0.00400889
0.00698605
0.00910966
0.0104739
0.0113114
0.011813
0.0120942
0.012225
0.012251
0.0122004
0.0120924
0.0119441
0.0117752
0.0116104
0.0114699
0.0113456