/*--------------------------------*- C++ -*----------------------------------*\
| =========                 |                                                 |
| \\      /  F ield         | OpenFOAM: The Open Source CFD Toolbox           |
|  \\    /   O peration     | Version:  v2006                                 |
|   \\  /    A nd           | Website:  www.openfoam.com                      |
|    \\/     M anipulation  |                                                 |
\*---------------------------------------------------------------------------*/
FoamFile
{
    version     2.0;
    format      ascii;
    class       volScalarField;
    location    "69";
    object      alphat;
}
// * * * * * * * * * * * * * * * * * * * * * * * * * * * * * * * * * * * * * //

dimensions      [1 -1 -1 0 0 0 0];


internalField   nonuniform List<scalar> 
78750
(
1.74803e-09
3.33562e-07
6.38594e-07
9.49198e-07
1.25866e-06
1.56163e-06
1.85354e-06
2.13044e-06
2.38906e-06
2.62688e-06
2.84209e-06
3.03345e-06
3.19971e-06
3.34016e-06
3.45489e-06
3.54403e-06
3.60767e-06
3.64582e-06
3.65838e-06
3.6452e-06
3.60602e-06
3.54069e-06
3.44874e-06
3.32874e-06
3.18083e-06
3.00522e-06
2.80255e-06
2.57349e-06
2.31962e-06
2.04171e-06
1.73766e-06
1.40144e-06
1.02716e-06
6.18832e-07
7.60864e-09
3.63488e-09
2.88764e-06
5.67036e-06
7.95097e-06
9.75577e-06
1.13786e-05
1.29588e-05
1.45399e-05
1.61366e-05
1.77563e-05
1.94224e-05
2.11647e-05
2.24579e-05
2.29059e-05
2.32086e-05
2.33755e-05
2.34149e-05
2.33338e-05
2.31383e-05
2.28327e-05
2.24198e-05
2.19e-05
2.12699e-05
2.0523e-05
1.96538e-05
1.8657e-05
1.73698e-05
1.50324e-05
1.26672e-05
1.01949e-05
7.59015e-06
5.33949e-06
4.13742e-06
2.28221e-06
2.26465e-08
6.21167e-09
2.33524e-06
4.9892e-06
7.99272e-06
1.11445e-05
1.42315e-05
1.70756e-05
1.95793e-05
2.17171e-05
2.35173e-05
2.50382e-05
2.60702e-05
2.63293e-05
2.64146e-05
2.63451e-05
2.61384e-05
2.58113e-05
2.53804e-05
2.48625e-05
2.42755e-05
2.34173e-05
2.19383e-05
2.04026e-05
1.89572e-05
1.76789e-05
1.655e-05
1.54622e-05
1.42233e-05
1.2585e-05
1.03866e-05
7.93432e-06
6.2161e-06
6.12132e-06
2.17933e-06
3.7405e-08
1.02556e-08
2.28281e-06
5.15989e-06
9.14608e-06
1.41444e-05
1.92723e-05
2.35398e-05
2.66762e-05
2.85981e-05
2.93128e-05
2.97497e-05
2.99417e-05
2.99161e-05
2.96973e-05
2.87608e-05
2.73987e-05
2.58516e-05
2.42095e-05
2.25333e-05
2.08708e-05
1.92634e-05
1.77705e-05
1.64641e-05
1.53919e-05
1.45693e-05
1.39556e-05
1.34046e-05
1.26386e-05
1.13359e-05
9.43976e-06
7.52443e-06
6.67687e-06
7.60165e-06
1.99735e-06
4.96165e-08
1.46596e-08
2.25309e-06
5.33518e-06
1.01345e-05
1.66309e-05
2.30952e-05
2.78658e-05
3.00708e-05
3.09421e-05
3.14841e-05
3.17373e-05
3.14085e-05
2.97878e-05
2.78393e-05
2.58031e-05
2.38081e-05
2.1925e-05
2.01801e-05
1.85711e-05
1.7086e-05
1.57235e-05
1.45057e-05
1.34773e-05
1.26794e-05
1.21235e-05
1.17627e-05
1.14436e-05
1.08898e-05
9.83908e-06
8.37428e-06
7.13039e-06
7.13692e-06
8.07981e-06
1.88507e-06
5.8447e-08
1.9314e-08
2.28393e-06
5.56417e-06
1.10503e-05
1.88746e-05
2.65182e-05
3.16312e-05
3.2845e-05
3.36563e-05
3.41181e-05
3.3159e-05
3.0939e-05
2.84003e-05
2.58593e-05
2.3501e-05
2.14108e-05
1.95973e-05
1.80237e-05
1.66358e-05
1.5383e-05
1.42377e-05
1.32054e-05
1.23092e-05
1.15694e-05
1.09941e-05
1.05484e-05
1.01103e-05
9.47428e-06
8.49707e-06
7.35254e-06
6.62783e-06
7.30032e-06
8.04766e-06
1.84962e-06
6.58095e-08
2.34676e-08
2.32221e-06
5.75306e-06
1.17262e-05
2.04373e-05
2.86748e-05
3.36218e-05
3.47764e-05
3.55152e-05
3.48281e-05
3.23983e-05
2.94179e-05
2.63673e-05
2.35498e-05
2.11094e-05
1.90667e-05
1.73751e-05
1.59647e-05
1.47666e-05
1.37285e-05
1.28267e-05
1.20586e-05
1.1407e-05
1.08428e-05
1.03382e-05
9.84842e-06
9.28536e-06
8.53949e-06
7.59918e-06
6.69667e-06
6.35865e-06
7.53715e-06
7.71432e-06
1.82509e-06
7.27415e-08
2.74185e-08
2.35366e-06
5.85404e-06
1.20797e-05
2.13572e-05
3.00824e-05
3.52024e-05
3.68979e-05
3.68072e-05
3.47996e-05
3.17964e-05
2.84268e-05
2.51672e-05
2.22881e-05
1.98729e-05
1.78938e-05
1.62804e-05
1.49531e-05
1.38416e-05
1.28975e-05
1.21023e-05
1.14515e-05
1.09072e-05
1.04107e-05
9.90531e-06
9.33521e-06
8.64265e-06
7.79912e-06
6.88356e-06
6.14796e-06
6.06794e-06
7.59299e-06
7.48794e-06
1.82543e-06
7.98533e-08
3.07816e-08
2.37839e-06
5.92254e-06
1.23083e-05
2.19346e-05
3.08984e-05
3.59222e-05
3.75712e-05
3.67839e-05
3.4319e-05
3.09386e-05
2.73282e-05
2.39659e-05
2.10773e-05
1.86978e-05
1.6771e-05
1.52151e-05
1.39523e-05
1.29192e-05
1.20779e-05
1.1423e-05
1.09422e-05
1.05638e-05
1.01908e-05
9.72922e-06
9.10827e-06
8.30356e-06
7.3667e-06
6.45314e-06
5.82788e-06
5.93651e-06
7.73496e-06
7.21757e-06
1.82574e-06
8.72973e-08
3.44497e-08
2.40149e-06
5.96531e-06
1.24389e-05
2.22911e-05
3.14343e-05
3.6411e-05
3.7858e-05
3.68012e-05
3.40744e-05
3.04992e-05
2.67827e-05
2.3384e-05
2.04941e-05
1.8122e-05
1.61981e-05
1.46375e-05
1.33659e-05
1.23274e-05
1.1495e-05
1.08764e-05
1.04634e-05
1.01731e-05
9.88609e-06
9.47575e-06
8.84819e-06
7.99246e-06
7.01287e-06
6.11525e-06
5.57284e-06
5.81737e-06
7.82127e-06
7.01892e-06
1.83271e-06
9.49407e-08
3.76651e-08
2.41706e-06
5.99108e-06
1.25209e-05
2.25223e-05
3.177e-05
3.66722e-05
3.79182e-05
3.66066e-05
3.36453e-05
2.99138e-05
2.61328e-05
2.27348e-05
1.98743e-05
1.75349e-05
1.56358e-05
1.40902e-05
1.28265e-05
1.17955e-05
1.09818e-05
1.04082e-05
1.00652e-05
9.8583e-06
9.65059e-06
9.2911e-06
8.66895e-06
7.78477e-06
6.78337e-06
5.90638e-06
5.4331e-06
5.79499e-06
7.98376e-06
6.80759e-06
1.83847e-06
1.02568e-07
4.14831e-08
2.43717e-06
6.02821e-06
1.26322e-05
2.27858e-05
3.20867e-05
3.68824e-05
3.79566e-05
3.64698e-05
3.33756e-05
2.95741e-05
2.57759e-05
2.23879e-05
1.95413e-05
1.72074e-05
1.53016e-05
1.37383e-05
1.24498e-05
1.13921e-05
1.0558e-05
9.98028e-06
9.65543e-06
9.48711e-06
9.33051e-06
9.01949e-06
8.42848e-06
7.55915e-06
6.57535e-06
5.73751e-06
5.33059e-06
5.79507e-06
8.1451e-06
6.63434e-06
1.84665e-06
1.10064e-07
4.49577e-08
2.45258e-06
6.05775e-06
1.27202e-05
2.29869e-05
3.23197e-05
3.70139e-05
3.79176e-05
3.62494e-05
3.30177e-05
2.91516e-05
2.53525e-05
2.19967e-05
1.91873e-05
1.68808e-05
1.49878e-05
1.34235e-05
1.21233e-05
1.10489e-05
1.02013e-05
9.62413e-06
9.31462e-06
9.17299e-06
9.05082e-06
8.77419e-06
8.2111e-06
7.36676e-06
6.41614e-06
5.62749e-06
5.28889e-06
5.85645e-06
8.36081e-06
6.46366e-06
1.85454e-06
1.17276e-07
4.90102e-08
2.47287e-06
6.10295e-06
1.28555e-05
2.32658e-05
3.25907e-05
3.71384e-05
3.78739e-05
3.60674e-05
3.27578e-05
2.88754e-05
2.50983e-05
2.17747e-05
1.89896e-05
1.66923e-05
1.47935e-05
1.3211e-05
1.18838e-05
1.07778e-05
9.89899e-06
9.29863e-06
8.97964e-06
8.84148e-06
8.73507e-06
8.48571e-06
7.9587e-06
7.15878e-06
6.26187e-06
5.53484e-06
5.26774e-06
5.9366e-06
8.58257e-06
6.32112e-06
1.86393e-06
1.24192e-07
5.28065e-08
2.49072e-06
6.14558e-06
1.29796e-05
2.35069e-05
3.28152e-05
3.72292e-05
3.78034e-05
3.58579e-05
3.24691e-05
2.85746e-05
2.48294e-05
2.15512e-05
1.88039e-05
1.65284e-05
1.46341e-05
1.30413e-05
1.16928e-05
1.05588e-05
9.65153e-06
9.02948e-06
8.69927e-06
8.55882e-06
8.45835e-06
8.22408e-06
7.72573e-06
6.97126e-06
6.13393e-06
5.47383e-06
5.28168e-06
6.05617e-06
8.83435e-06
6.19001e-06
1.8737e-06
1.30752e-07
5.70442e-08
2.51208e-06
6.19942e-06
1.31381e-05
2.38071e-05
3.3073e-05
3.73249e-05
3.77424e-05
3.56892e-05
3.22604e-05
2.83821e-05
2.46796e-05
2.14436e-05
1.87241e-05
1.64582e-05
1.45568e-05
1.29431e-05
1.15638e-05
1.03925e-05
9.44561e-06
8.78665e-06
8.43038e-06
8.27485e-06
8.17144e-06
7.94935e-06
7.48219e-06
6.7797e-06
6.00964e-06
5.42201e-06
5.30756e-06
6.18875e-06
9.08561e-06
6.08125e-06
1.88446e-06
1.3698e-07
6.10935e-08
2.5322e-06
6.2529e-06
1.32922e-05
2.40855e-05
3.33037e-05
3.74063e-05
3.76776e-05
3.5522e-05
3.20565e-05
2.81986e-05
2.45449e-05
2.13588e-05
1.86753e-05
1.64263e-05
1.45234e-05
1.28923e-05
1.14831e-05
1.02746e-05
9.28687e-06
8.58862e-06
8.20236e-06
8.0261e-06
7.91289e-06
7.69678e-06
7.25771e-06
6.60695e-06
5.90468e-06
5.39029e-06
5.35534e-06
6.3469e-06
9.34823e-06
5.98638e-06
1.89582e-06
1.42863e-07
6.54559e-08
2.55467e-06
6.31398e-06
1.347e-05
2.44039e-05
3.35594e-05
3.75004e-05
3.76344e-05
3.53999e-05
3.19221e-05
2.80995e-05
2.44978e-05
2.13575e-05
1.8703e-05
1.64638e-05
1.45527e-05
1.28977e-05
1.14527e-05
1.02004e-05
9.16381e-06
8.41491e-06
7.98791e-06
7.78232e-06
7.65371e-06
7.44182e-06
7.03248e-06
6.43672e-06
5.80495e-06
5.36524e-06
5.41087e-06
6.51372e-06
9.60413e-06
5.90885e-06
1.90781e-06
1.4842e-07
6.96814e-08
2.57648e-06
6.37567e-06
1.36476e-05
2.47117e-05
3.38017e-05
3.75926e-05
3.76001e-05
3.52937e-05
3.18076e-05
2.8023e-05
2.44771e-05
2.13877e-05
1.8768e-05
1.65442e-05
1.46291e-05
1.29524e-05
1.14714e-05
1.01728e-05
9.0838e-06
8.27911e-06
7.8055e-06
7.56473e-06
7.4155e-06
7.20393e-06
6.82208e-06
6.28011e-06
5.71805e-06
5.35284e-06
5.48032e-06
6.69714e-06
9.86001e-06
5.84381e-06
1.92028e-06
1.53653e-07
7.41235e-08
2.59987e-06
6.44298e-06
1.38435e-05
2.50501e-05
3.40659e-05
3.77028e-05
3.75929e-05
3.52299e-05
3.17484e-05
2.80077e-05
2.45172e-05
2.14757e-05
1.88877e-05
1.66769e-05
1.47556e-05
1.30553e-05
1.15356e-05
1.01863e-05
9.03827e-06
8.16891e-06
7.63977e-06
7.35685e-06
7.18264e-06
6.9698e-06
6.61571e-06
6.12805e-06
5.6356e-06
5.34458e-06
5.55431e-06
6.88573e-06
1.01057e-05
5.79215e-06
1.93328e-06
1.58574e-07
7.8464e-08
2.62274e-06
6.51103e-06
1.40416e-05
2.53864e-05
3.4328e-05
3.78212e-05
3.76029e-05
3.51883e-05
3.17129e-05
2.80167e-05
2.45837e-05
2.15944e-05
1.90438e-05
1.68517e-05
1.4929e-05
1.32077e-05
1.16491e-05
1.02463e-05
9.03408e-06
8.09373e-06
7.50165e-06
7.1701e-06
6.96606e-06
6.74899e-06
6.42105e-06
5.98637e-06
5.56204e-06
5.34429e-06
5.63698e-06
7.08503e-06
1.03465e-05
5.75148e-06
1.94664e-06
1.63196e-07
8.29466e-08
2.64643e-06
6.58296e-06
1.42548e-05
2.57496e-05
3.46136e-05
3.79627e-05
3.7641e-05
3.51809e-05
3.17151e-05
2.8064e-05
2.46878e-05
2.17503e-05
1.92378e-05
1.70663e-05
1.51448e-05
1.34047e-05
1.18076e-05
1.03491e-05
9.06808e-06
8.04964e-06
7.38572e-06
6.99812e-06
6.75907e-06
6.53488e-06
6.23168e-06
5.84889e-06
5.49145e-06
5.34594e-06
5.72117e-06
7.28479e-06
1.05723e-05
5.71998e-06
1.96039e-06
1.67531e-07
8.73489e-08
2.66942e-06
6.65477e-06
1.44701e-05
2.6117e-05
3.49101e-05
3.81245e-05
3.77019e-05
3.51946e-05
3.1736e-05
2.81293e-05
2.48121e-05
2.19308e-05
1.94625e-05
1.7318e-05
1.54037e-05
1.36488e-05
1.2015e-05
1.04998e-05
9.146e-06
8.04371e-06
7.29961e-06
6.84846e-06
6.5686e-06
6.33328e-06
6.05207e-06
5.7189e-06
5.42635e-06
5.35195e-06
5.81037e-06
7.49262e-06
1.07986e-05
5.69823e-06
1.97434e-06
1.71599e-07
9.1833e-08
2.69255e-06
6.72817e-06
1.46943e-05
2.65014e-05
3.52182e-05
3.82983e-05
3.77821e-05
3.52271e-05
3.17749e-05
2.8213e-05
2.49557e-05
2.21329e-05
1.97123e-05
1.75999e-05
1.56986e-05
1.39346e-05
1.22679e-05
1.06967e-05
9.26806e-06
8.07717e-06
7.24404e-06
6.72117e-06
6.39388e-06
6.14244e-06
5.87942e-06
5.59277e-06
5.36264e-06
5.35778e-06
5.89913e-06
7.70104e-06
1.10197e-05
5.68827e-06
1.98903e-06
1.7542e-07
9.62462e-08
2.71493e-06
6.80035e-06
1.49149e-05
2.68728e-05
3.55032e-05
3.84545e-05
3.7854e-05
3.52629e-05
3.18216e-05
2.83065e-05
2.51118e-05
2.23516e-05
1.99843e-05
1.79107e-05
1.60293e-05
1.42626e-05
1.25673e-05
1.09418e-05
9.43665e-06
8.1531e-06
7.22285e-06
6.62082e-06
6.23964e-06
5.96665e-06
5.71721e-06
5.47313e-06
5.30232e-06
5.36527e-06
5.99026e-06
7.91603e-06
1.12378e-05
5.68984e-06
2.00482e-06
1.79023e-07
1.00698e-07
2.7373e-06
6.87356e-06
1.51397e-05
2.72438e-05
3.57829e-05
3.86058e-05
3.79234e-05
3.53062e-05
3.18759e-05
2.84065e-05
2.52753e-05
2.25804e-05
2.02712e-05
1.82428e-05
1.63892e-05
1.46275e-05
1.29104e-05
1.12343e-05
9.65263e-06
8.27294e-06
7.23785e-06
6.54898e-06
6.10689e-06
5.80604e-06
5.5645e-06
5.35816e-06
5.24314e-06
5.37225e-06
6.08207e-06
8.13594e-06
1.14537e-05
5.70127e-06
2.02164e-06
1.82421e-07
1.05086e-07
2.75886e-06
6.9461e-06
1.53649e-05
2.75987e-05
3.60427e-05
3.87405e-05
3.79793e-05
3.53385e-05
3.19255e-05
2.85066e-05
2.54421e-05
2.28162e-05
2.05701e-05
1.85934e-05
1.67751e-05
1.50265e-05
1.32947e-05
1.15726e-05
9.91546e-06
8.43714e-06
7.29112e-06
6.50878e-06
5.99922e-06
5.66409e-06
5.4243e-06
5.25025e-06
5.18697e-06
5.3802e-06
6.17523e-06
8.35928e-06
1.16672e-05
5.72036e-06
2.03924e-06
1.85632e-07
1.09473e-07
2.7796e-06
7.01686e-06
1.55885e-05
2.79463e-05
3.62912e-05
3.88647e-05
3.80268e-05
3.53656e-05
3.19783e-05
2.86085e-05
2.5609e-05
2.30538e-05
2.08752e-05
1.89569e-05
1.7182e-05
1.54556e-05
1.37176e-05
1.1956e-05
1.0226e-05
8.64729e-06
7.38473e-06
6.50211e-06
5.91827e-06
5.54187e-06
5.29685e-06
5.14887e-06
5.13272e-06
5.3875e-06
6.26727e-06
8.58224e-06
1.18776e-05
5.74618e-06
2.0575e-06
1.88665e-07
1.13802e-07
2.79956e-06
7.0856e-06
1.58061e-05
2.8279e-05
3.65215e-05
3.89729e-05
3.80595e-05
3.53781e-05
3.20188e-05
2.86998e-05
2.57685e-05
2.32884e-05
2.11826e-05
1.93287e-05
1.76047e-05
1.5909e-05
1.41737e-05
1.23799e-05
1.05811e-05
8.90218e-06
7.51962e-06
6.53127e-06
5.86694e-06
5.4424e-06
5.18499e-06
5.05643e-06
5.08229e-06
5.39564e-06
6.3593e-06
8.80525e-06
1.20848e-05
5.77706e-06
2.07616e-06
1.91533e-07
1.18114e-07
2.81896e-06
7.15307e-06
1.60214e-05
2.86035e-05
3.67394e-05
3.90687e-05
3.80805e-05
3.53797e-05
3.2049e-05
2.87827e-05
2.59218e-05
2.35194e-05
2.149e-05
1.9706e-05
1.80401e-05
1.63838e-05
1.46605e-05
1.28429e-05
1.09808e-05
9.20294e-06
7.69782e-06
6.59845e-06
5.84724e-06
5.36727e-06
5.08965e-06
4.97313e-06
5.03513e-06
5.40305e-06
6.4483e-06
9.02494e-06
1.22878e-05
5.8122e-06
2.09511e-06
1.94241e-07
1.22372e-07
2.83765e-06
7.21868e-06
1.62314e-05
2.89142e-05
3.69401e-05
3.9148e-05
3.80853e-05
3.53647e-05
3.20631e-05
2.88512e-05
2.60629e-05
2.37407e-05
2.17914e-05
2.00823e-05
1.84811e-05
1.68724e-05
1.51705e-05
1.33383e-05
1.142e-05
9.5468e-06
7.91921e-06
6.70494e-06
5.86132e-06
5.31915e-06
5.01368e-06
4.90171e-06
4.99375e-06
5.41257e-06
6.53878e-06
9.24311e-06
1.24877e-05
5.8507e-06
2.11422e-06
1.96802e-07
1.26603e-07
2.85601e-06
7.28346e-06
1.64389e-05
2.92156e-05
3.71273e-05
3.92133e-05
3.80755e-05
3.5335e-05
3.20631e-05
2.89082e-05
2.61941e-05
2.39538e-05
2.20873e-05
2.04574e-05
1.89268e-05
1.73735e-05
1.5702e-05
1.38644e-05
1.18977e-05
9.93393e-06
8.18522e-06
6.85228e-06
5.91058e-06
5.29925e-06
4.95797e-06
4.84258e-06
4.95808e-06
5.42364e-06
6.62911e-06
9.45799e-06
1.26846e-05
5.89221e-06
2.13341e-06
1.99227e-07
1.30785e-07
2.87393e-06
7.34701e-06
1.66417e-05
2.9504e-05
3.72976e-05
3.9261e-05
3.80467e-05
3.52851e-05
3.20428e-05
2.89497e-05
2.631e-05
2.4152e-05
2.23707e-05
2.08241e-05
1.93699e-05
1.78791e-05
1.62466e-05
1.44133e-05
1.24072e-05
1.036e-05
8.49438e-06
7.04076e-06
5.99651e-06
5.30979e-06
4.92521e-06
4.79865e-06
4.9309e-06
5.43851e-06
6.72042e-06
9.67142e-06
1.28796e-05
5.93626e-06
2.15265e-06
2.01526e-07
1.34941e-07
2.89188e-06
7.41073e-06
1.68416e-05
2.97815e-05
3.74532e-05
3.92929e-05
3.80009e-05
3.52171e-05
3.20041e-05
2.8974e-05
2.641e-05
2.43366e-05
2.26437e-05
2.11843e-05
1.98112e-05
1.8389e-05
1.68033e-05
1.4983e-05
1.29463e-05
1.0823e-05
8.84552e-06
7.26998e-06
6.11929e-06
5.3513e-06
4.91603e-06
4.77041e-06
4.91237e-06
5.45663e-06
6.81118e-06
9.88156e-06
1.30731e-05
5.98282e-06
2.17192e-06
2.03717e-07
1.39034e-07
2.90956e-06
7.47502e-06
1.70357e-05
3.0045e-05
3.75905e-05
3.93053e-05
3.79349e-05
3.51282e-05
3.19442e-05
2.89774e-05
2.64907e-05
2.45037e-05
2.29014e-05
2.15321e-05
2.02443e-05
1.88963e-05
1.73644e-05
1.55655e-05
1.35073e-05
1.13163e-05
9.23354e-06
7.53738e-06
6.27847e-06
5.42484e-06
4.93247e-06
4.76038e-06
4.90499e-06
5.48019e-06
6.90317e-06
1.009e-05
1.32661e-05
6.03172e-06
2.19123e-06
2.05815e-07
1.43047e-07
2.92594e-06
7.5355e-06
1.7222e-05
3.02952e-05
3.77123e-05
3.92988e-05
3.78471e-05
3.50172e-05
3.18638e-05
2.89627e-05
2.65551e-05
2.46561e-05
2.31463e-05
2.18696e-05
2.06705e-05
1.94012e-05
1.79289e-05
1.61585e-05
1.40866e-05
1.18355e-05
9.65373e-06
7.83942e-06
6.47183e-06
5.5294e-06
4.97443e-06
4.76897e-06
4.90918e-06
5.50922e-06
6.99571e-06
1.02955e-05
1.34592e-05
6.08298e-06
2.2106e-06
2.07839e-07
1.47002e-07
2.94164e-06
7.59462e-06
1.74069e-05
3.05382e-05
3.78195e-05
3.92763e-05
3.77435e-05
3.489e-05
3.17639e-05
2.89237e-05
2.65951e-05
2.47873e-05
2.3373e-05
2.21914e-05
2.1084e-05
1.98976e-05
1.84904e-05
1.67554e-05
1.46776e-05
1.23741e-05
1.01002e-05
8.17196e-06
6.69695e-06
5.66411e-06
5.04247e-06
4.79773e-06
4.92707e-06
5.54599e-06
7.09103e-06
1.05001e-05
1.36534e-05
6.13653e-06
2.23006e-06
2.09805e-07
1.50904e-07
2.95652e-06
7.65154e-06
1.75866e-05
3.07687e-05
3.79108e-05
3.92355e-05
3.76186e-05
3.47402e-05
3.1644e-05
2.88694e-05
2.66209e-05
2.49015e-05
2.3583e-05
2.24991e-05
2.14859e-05
2.03857e-05
1.9048e-05
1.7354e-05
1.52767e-05
1.29279e-05
1.05684e-05
8.5311e-06
6.95078e-06
5.82698e-06
5.13558e-06
4.8465e-06
4.9589e-06
5.59074e-06
7.18905e-06
1.07033e-05
1.38492e-05
6.19245e-06
2.24964e-06
2.11732e-07
1.54743e-07
2.97074e-06
7.70705e-06
1.7764e-05
3.09888e-05
3.79849e-05
3.9175e-05
3.74734e-05
3.45702e-05
3.1503e-05
2.87931e-05
2.66263e-05
2.49984e-05
2.37746e-05
2.27882e-05
2.18717e-05
2.08604e-05
1.9596e-05
1.7948e-05
1.58777e-05
1.34906e-05
1.10525e-05
8.91228e-06
7.23007e-06
6.01608e-06
5.25325e-06
4.91603e-06
5.00641e-06
5.64581e-06
7.29231e-06
1.09074e-05
1.40477e-05
6.25064e-06
2.26936e-06
2.13632e-07
1.58531e-07
2.98425e-06
7.76065e-06
1.79367e-05
3.1197e-05
3.80427e-05
3.90957e-05
3.73074e-05
3.43792e-05
3.13421e-05
2.86983e-05
2.66145e-05
2.5079e-05
2.39519e-05
2.30626e-05
2.22423e-05
2.13219e-05
2.01336e-05
1.85354e-05
1.64773e-05
1.40583e-05
1.15485e-05
9.31179e-06
7.53157e-06
6.22881e-06
5.39363e-06
5.00539e-06
5.06947e-06
5.71152e-06
7.40134e-06
1.11127e-05
1.4249e-05
6.31118e-06
2.28926e-06
2.15518e-07
1.62255e-07
2.99698e-06
7.81247e-06
1.81058e-05
3.13932e-05
3.80822e-05
3.89951e-05
3.7119e-05
3.41659e-05
3.11598e-05
2.85828e-05
2.6583e-05
2.51406e-05
2.41109e-05
2.332e-05
2.25959e-05
2.17661e-05
2.06557e-05
1.91107e-05
1.70693e-05
1.46244e-05
1.20504e-05
9.72472e-06
7.85171e-06
6.46289e-06
5.5557e-06
5.11467e-06
5.1491e-06
5.78975e-06
7.51883e-06
1.13226e-05
1.44534e-05
6.37379e-06
2.30932e-06
2.17399e-07
1.65944e-07
3.00925e-06
7.86323e-06
1.82721e-05
3.15786e-05
3.81052e-05
3.88754e-05
3.69102e-05
3.39327e-05
3.09586e-05
2.84494e-05
2.65347e-05
2.51861e-05
2.42539e-05
2.35615e-05
2.2934e-05
2.21944e-05
2.11616e-05
1.96715e-05
1.76505e-05
1.51852e-05
1.25539e-05
1.01469e-05
8.18668e-06
6.71514e-06
5.73716e-06
5.24256e-06
5.24498e-06
5.88095e-06
7.64585e-06
1.15384e-05
1.46622e-05
6.43861e-06
2.32959e-06
2.19279e-07
1.69566e-07
3.02069e-06
7.91196e-06
1.84339e-05
3.1751e-05
3.81094e-05
3.87337e-05
3.66783e-05
3.3677e-05
3.07364e-05
2.82963e-05
2.64681e-05
2.52138e-05
2.43791e-05
2.37847e-05
2.32534e-05
2.26038e-05
2.16479e-05
2.02129e-05
1.82148e-05
1.57342e-05
1.3053e-05
1.05735e-05
8.53263e-06
6.98271e-06
5.93614e-06
5.38824e-06
5.35734e-06
5.98646e-06
7.78494e-06
1.17633e-05
1.48749e-05
6.50509e-06
2.35002e-06
2.21156e-07
1.73152e-07
3.03171e-06
7.95984e-06
1.85938e-05
3.19134e-05
3.80974e-05
3.8573e-05
3.64265e-05
3.34025e-05
3.04968e-05
2.8127e-05
2.63862e-05
2.52267e-05
2.44893e-05
2.39922e-05
2.35559e-05
2.29951e-05
2.21149e-05
2.07337e-05
1.87599e-05
1.62681e-05
1.35438e-05
1.10003e-05
8.88587e-06
7.26242e-06
6.15015e-06
5.55009e-06
5.48556e-06
6.10663e-06
7.9373e-06
1.19991e-05
1.50923e-05
6.57332e-06
2.37062e-06
2.2303e-07
1.76668e-07
3.04192e-06
8.00575e-06
1.87491e-05
3.20624e-05
3.80663e-05
3.83903e-05
3.6152e-05
3.31066e-05
3.02377e-05
2.79399e-05
2.62878e-05
2.52236e-05
2.45831e-05
2.41823e-05
2.38395e-05
2.33655e-05
2.25592e-05
2.12304e-05
1.92798e-05
1.67813e-05
1.40212e-05
1.1423e-05
9.24264e-06
7.55138e-06
6.37708e-06
5.72678e-06
5.62924e-06
6.24224e-06
8.10528e-06
1.22493e-05
1.53141e-05
6.64278e-06
2.39135e-06
2.24891e-07
1.80146e-07
3.05179e-06
8.05102e-06
1.89027e-05
3.22016e-05
3.80196e-05
3.81892e-05
3.58587e-05
3.27935e-05
2.99633e-05
2.77388e-05
2.61765e-05
2.52077e-05
2.46637e-05
2.43581e-05
2.41068e-05
2.37172e-05
2.29819e-05
2.1703e-05
1.97748e-05
1.72692e-05
1.44802e-05
1.18374e-05
9.59952e-06
7.84668e-06
6.61457e-06
5.91658e-06
5.78735e-06
6.39306e-06
8.28943e-06
1.25149e-05
1.55401e-05
6.71338e-06
2.4122e-06
2.26734e-07
1.83553e-07
3.06092e-06
8.09447e-06
1.90519e-05
3.23273e-05
3.79539e-05
3.79665e-05
3.55436e-05
3.24605e-05
2.96714e-05
2.75219e-05
2.60506e-05
2.51778e-05
2.47296e-05
2.45179e-05
2.43564e-05
2.40484e-05
2.33809e-05
2.2149e-05
2.02419e-05
1.77316e-05
1.49183e-05
1.22395e-05
9.95282e-06
8.14544e-06
6.86062e-06
6.11833e-06
5.9596e-06
6.55984e-06
8.49183e-06
1.27987e-05
1.57697e-05
6.78473e-06
2.43314e-06
2.2855e-07
1.86912e-07
3.06971e-06
8.13727e-06
1.91993e-05
3.24432e-05
3.7873e-05
3.77262e-05
3.52112e-05
3.21124e-05
2.93666e-05
2.72935e-05
2.59141e-05
2.51372e-05
2.47841e-05
2.46646e-05
2.45902e-05
2.43605e-05
2.37569e-05
2.25681e-05
2.06799e-05
1.81661e-05
1.53341e-05
1.2628e-05
1.03004e-05
8.44533e-06
7.113e-06
6.32999e-06
6.14414e-06
6.74097e-06
8.71173e-06
1.31006e-05
1.60027e-05
6.85691e-06
2.45419e-06
2.30339e-07
1.90191e-07
3.07779e-06
8.17828e-06
1.93421e-05
3.25457e-05
3.77735e-05
3.7465e-05
3.48583e-05
3.17463e-05
2.90465e-05
2.70517e-05
2.57654e-05
2.50845e-05
2.48258e-05
2.47972e-05
2.48078e-05
2.46534e-05
2.41097e-05
2.29602e-05
2.10881e-05
1.85715e-05
1.57255e-05
1.29998e-05
1.06398e-05
8.74424e-06
7.37013e-06
6.55075e-06
6.34145e-06
6.93896e-06
8.9506e-06
1.34216e-05
1.62375e-05
6.92933e-06
2.47527e-06
2.32096e-07
1.9341e-07
3.08554e-06
8.21858e-06
1.94829e-05
3.26382e-05
3.76595e-05
3.71873e-05
3.44899e-05
3.13676e-05
2.87164e-05
2.68013e-05
2.56087e-05
2.50235e-05
2.4858e-05
2.49181e-05
2.50109e-05
2.4928e-05
2.44399e-05
2.33254e-05
2.14669e-05
1.89479e-05
1.60925e-05
1.33548e-05
1.09698e-05
9.04068e-06
7.63067e-06
6.77955e-06
6.55061e-06
7.15246e-06
9.20817e-06
1.37611e-05
1.64749e-05
7.00257e-06
2.49648e-06
2.33828e-07
1.96541e-07
3.09261e-06
8.25713e-06
1.96191e-05
3.27177e-05
3.75278e-05
3.68899e-05
3.41028e-05
3.09736e-05
2.83739e-05
2.65403e-05
2.54424e-05
2.49531e-05
2.488e-05
2.50274e-05
2.51998e-05
2.51851e-05
2.47487e-05
2.3665e-05
2.18174e-05
1.92963e-05
1.64354e-05
1.36924e-05
1.12891e-05
9.33292e-06
7.89283e-06
7.01493e-06
6.77056e-06
7.38082e-06
9.48463e-06
1.41193e-05
1.67135e-05
7.07613e-06
2.51775e-06
2.35536e-07
1.99602e-07
3.09934e-06
8.29493e-06
1.97532e-05
3.27875e-05
3.73821e-05
3.6577e-05
3.37022e-05
3.05695e-05
2.80242e-05
2.62735e-05
2.52707e-05
2.48765e-05
2.48944e-05
2.51268e-05
2.53758e-05
2.54255e-05
2.50363e-05
2.39795e-05
2.21406e-05
1.96182e-05
1.67563e-05
1.40133e-05
1.15977e-05
9.62052e-06
8.15601e-06
7.25621e-06
7.00063e-06
7.6234e-06
9.77933e-06
1.44951e-05
1.69546e-05
7.15074e-06
2.5392e-06
2.37231e-07
2.02566e-07
3.10542e-06
8.33102e-06
1.98828e-05
3.28445e-05
3.72194e-05
3.62457e-05
3.32852e-05
3.0153e-05
2.76653e-05
2.59994e-05
2.50925e-05
2.47934e-05
2.49013e-05
2.5217e-05
2.55401e-05
2.56506e-05
2.53046e-05
2.42711e-05
2.24389e-05
1.99166e-05
1.70581e-05
1.43194e-05
1.18959e-05
9.90215e-06
8.41774e-06
7.50097e-06
7.23886e-06
7.87878e-06
1.00914e-05
1.48874e-05
1.71962e-05
7.22568e-06
2.56071e-06
2.38909e-07
2.05452e-07
3.11118e-06
8.36637e-06
2.00103e-05
3.28918e-05
3.7043e-05
3.58998e-05
3.28564e-05
2.97289e-05
2.73019e-05
2.5722e-05
2.49113e-05
2.47064e-05
2.49027e-05
2.52993e-05
2.56932e-05
2.58607e-05
2.55537e-05
2.45399e-05
2.27135e-05
2.01938e-05
1.73441e-05
1.46126e-05
1.21846e-05
1.01786e-05
8.67911e-06
7.7496e-06
7.48515e-06
8.14667e-06
1.04203e-05
1.52949e-05
1.7439e-05
7.30146e-06
2.58237e-06
2.40585e-07
2.08235e-07
3.11631e-06
8.40007e-06
2.01334e-05
3.29267e-05
3.68503e-05
3.55368e-05
3.24136e-05
2.92956e-05
2.69327e-05
2.54406e-05
2.47267e-05
2.46158e-05
2.48994e-05
2.5375e-05
2.58372e-05
2.6058e-05
2.57858e-05
2.47885e-05
2.2967e-05
2.0453e-05
1.76181e-05
1.48962e-05
1.24661e-05
1.04504e-05
8.9385e-06
7.99925e-06
7.73683e-06
8.4248e-06
1.0764e-05
1.57157e-05
1.76816e-05
7.37781e-06
2.60418e-06
2.42258e-07
2.10933e-07
3.12112e-06
8.43305e-06
2.02544e-05
3.29521e-05
3.66441e-05
3.51598e-05
3.19606e-05
2.8857e-05
2.65616e-05
2.51586e-05
2.45414e-05
2.45236e-05
2.48928e-05
2.5445e-05
2.59722e-05
2.62425e-05
2.60011e-05
2.5017e-05
2.31998e-05
2.06942e-05
1.78797e-05
1.51698e-05
1.27399e-05
1.07175e-05
9.19684e-06
8.25202e-06
7.9947e-06
8.71292e-06
1.11217e-05
1.6148e-05
1.7924e-05
7.45495e-06
2.62629e-06
2.43941e-07
2.13527e-07
3.12535e-06
8.46452e-06
2.03714e-05
3.29654e-05
3.6422e-05
3.47668e-05
3.14959e-05
2.84122e-05
2.6188e-05
2.48757e-05
2.4356e-05
2.44307e-05
2.48842e-05
2.55111e-05
2.61004e-05
2.64167e-05
2.62021e-05
2.52281e-05
2.34142e-05
2.09197e-05
1.81304e-05
1.54352e-05
1.30081e-05
1.09811e-05
9.45381e-06
8.5057e-06
8.25651e-06
9.00933e-06
1.14918e-05
1.65898e-05
1.81657e-05
7.53284e-06
2.64884e-06
2.45637e-07
2.16034e-07
3.12927e-06
8.4954e-06
2.04867e-05
3.29691e-05
3.61862e-05
3.43603e-05
3.10227e-05
2.79645e-05
2.5815e-05
2.4595e-05
2.41725e-05
2.43387e-05
2.48748e-05
2.55739e-05
2.62225e-05
2.6581e-05
2.63894e-05
2.54223e-05
2.36109e-05
2.11292e-05
1.8369e-05
1.56914e-05
1.32697e-05
1.12409e-05
9.70966e-06
8.76104e-06
8.52323e-06
9.31359e-06
1.18729e-05
1.70392e-05
1.84055e-05
7.61101e-06
2.67165e-06
2.47342e-07
2.1844e-07
3.13268e-06
8.52502e-06
2.05985e-05
3.29609e-05
3.59344e-05
3.39383e-05
3.05395e-05
2.7513e-05
2.54423e-05
2.43165e-05
2.3992e-05
2.4249e-05
2.48661e-05
2.56354e-05
2.63402e-05
2.67375e-05
2.65651e-05
2.5602e-05
2.37922e-05
2.1325e-05
1.85969e-05
1.59395e-05
1.35256e-05
1.14972e-05
9.96411e-06
9.01734e-06
8.79374e-06
9.6254e-06
1.22646e-05
1.74951e-05
1.86427e-05
7.689e-06
2.69451e-06
2.4905e-07
2.20762e-07
3.13583e-06
8.55426e-06
2.0709e-05
3.2943e-05
3.56685e-05
3.35031e-05
3.00488e-05
2.70602e-05
2.50725e-05
2.40429e-05
2.38163e-05
2.41631e-05
2.48594e-05
2.56964e-05
2.64547e-05
2.68872e-05
2.67304e-05
2.57686e-05
2.39593e-05
2.15081e-05
1.88146e-05
1.61797e-05
1.37761e-05
1.17505e-05
1.02179e-05
9.27512e-06
9.0682e-06
9.9441e-06
1.2665e-05
1.79553e-05
1.88765e-05
7.76665e-06
2.71737e-06
2.50756e-07
2.22987e-07
3.13853e-06
8.58255e-06
2.08169e-05
3.29132e-05
3.53859e-05
3.30524e-05
2.95493e-05
2.66053e-05
2.47051e-05
2.37748e-05
2.36465e-05
2.40818e-05
2.48558e-05
2.57584e-05
2.65674e-05
2.70318e-05
2.68872e-05
2.59242e-05
2.41151e-05
2.16812e-05
1.90235e-05
1.64126e-05
1.4021e-05
1.20004e-05
1.04704e-05
9.53389e-06
9.34635e-06
1.02701e-05
1.30754e-05
1.84188e-05
1.91051e-05
7.84302e-06
2.74005e-06
2.5244e-07
2.25127e-07
3.14098e-06
8.61055e-06
2.09237e-05
3.28732e-05
3.50881e-05
3.25879e-05
2.90429e-05
2.61498e-05
2.43412e-05
2.35153e-05
2.34843e-05
2.40062e-05
2.48561e-05
2.58225e-05
2.66794e-05
2.71724e-05
2.70367e-05
2.60704e-05
2.42616e-05
2.18469e-05
1.92257e-05
1.66393e-05
1.42612e-05
1.22474e-05
1.07221e-05
9.79408e-06
9.62849e-06
1.06033e-05
1.34952e-05
1.88857e-05
1.93295e-05
7.91836e-06
2.76258e-06
2.54108e-07
2.27171e-07
3.14302e-06
8.63776e-06
2.10282e-05
3.28207e-05
3.47725e-05
3.21077e-05
2.85284e-05
2.56934e-05
2.39799e-05
2.32595e-05
2.33267e-05
2.39358e-05
2.48614e-05
2.58901e-05
2.67925e-05
2.73108e-05
2.7181e-05
2.62102e-05
2.44029e-05
2.20102e-05
1.94242e-05
1.68615e-05
1.44972e-05
1.24913e-05
1.09724e-05
1.00552e-05
9.91436e-06
1.09436e-05
1.39241e-05
1.93559e-05
1.9549e-05
7.99276e-06
2.78495e-06
2.55769e-07
2.2913e-07
3.14482e-06
8.66471e-06
2.11317e-05
3.27571e-05
3.444e-05
3.16128e-05
2.80074e-05
2.52374e-05
2.36232e-05
2.30106e-05
2.31768e-05
2.38728e-05
2.48732e-05
2.59624e-05
2.69074e-05
2.74477e-05
2.73209e-05
2.63447e-05
2.45412e-05
2.21748e-05
1.96217e-05
1.70813e-05
1.47305e-05
1.27331e-05
1.1222e-05
1.03173e-05
1.02036e-05
1.12903e-05
1.43613e-05
1.98273e-05
1.97633e-05
8.06595e-06
2.80711e-06
2.57416e-07
2.30993e-07
3.14622e-06
8.69093e-06
2.12329e-05
3.26799e-05
3.4088e-05
3.11014e-05
2.74788e-05
2.47811e-05
2.32703e-05
2.27674e-05
2.30338e-05
2.38174e-05
2.48924e-05
2.60411e-05
2.70266e-05
2.75857e-05
2.7459e-05
2.64765e-05
2.46793e-05
2.23429e-05
1.98203e-05
1.73001e-05
1.4962e-05
1.29736e-05
1.14713e-05
1.05809e-05
1.0497e-05
1.16441e-05
1.48065e-05
2.02995e-05
1.99729e-05
8.13804e-06
2.82909e-06
2.59048e-07
2.32767e-07
3.14732e-06
8.71668e-06
2.13325e-05
3.25897e-05
3.37169e-05
3.05743e-05
2.69437e-05
2.43256e-05
2.29221e-05
2.25312e-05
2.28987e-05
2.37703e-05
2.49198e-05
2.61268e-05
2.71506e-05
2.77255e-05
2.75962e-05
2.66063e-05
2.48167e-05
2.25133e-05
2.00196e-05
1.75184e-05
1.51928e-05
1.32136e-05
1.17207e-05
1.08454e-05
1.07927e-05
1.20035e-05
1.52586e-05
2.07708e-05
2.01772e-05
8.20885e-06
2.85084e-06
2.60661e-07
2.34447e-07
3.14801e-06
8.74155e-06
2.14294e-05
3.24843e-05
3.33241e-05
3.00297e-05
2.64012e-05
2.38704e-05
2.25783e-05
2.23016e-05
2.27717e-05
2.37324e-05
2.49567e-05
2.62215e-05
2.72819e-05
2.78701e-05
2.77353e-05
2.67364e-05
2.49547e-05
2.2685e-05
2.02187e-05
1.77357e-05
1.54227e-05
1.34533e-05
1.19709e-05
1.11129e-05
1.10947e-05
1.23693e-05
1.57169e-05
2.12407e-05
2.03771e-05
8.27856e-06
2.87239e-06
2.62263e-07
2.36038e-07
3.14831e-06
8.76562e-06
2.15236e-05
3.23636e-05
3.29094e-05
2.94684e-05
2.58522e-05
2.3416e-05
2.22393e-05
2.20788e-05
2.26529e-05
2.37033e-05
2.50028e-05
2.63249e-05
2.74206e-05
2.80198e-05
2.78773e-05
2.68683e-05
2.50946e-05
2.28583e-05
2.0418e-05
1.79524e-05
1.5652e-05
1.36931e-05
1.22226e-05
1.13838e-05
1.14027e-05
1.27417e-05
1.61809e-05
2.17082e-05
2.05725e-05
8.34705e-06
2.8937e-06
2.63853e-07
2.37539e-07
3.14814e-06
8.78855e-06
2.16143e-05
3.22256e-05
3.24707e-05
2.88888e-05
2.5296e-05
2.29621e-05
2.19048e-05
2.18629e-05
2.25425e-05
2.36841e-05
2.50594e-05
2.64389e-05
2.75686e-05
2.81768e-05
2.80248e-05
2.70046e-05
2.52388e-05
2.3034e-05
2.06176e-05
1.81684e-05
1.58805e-05
1.39331e-05
1.24759e-05
1.16584e-05
1.17166e-05
1.31213e-05
1.66509e-05
2.21735e-05
2.07642e-05
8.41456e-06
2.91481e-06
2.65433e-07
2.38959e-07
3.14752e-06
8.8104e-06
2.17013e-05
3.20694e-05
3.20075e-05
2.82917e-05
2.47335e-05
2.25091e-05
2.15749e-05
2.16536e-05
2.24401e-05
2.36738e-05
2.51259e-05
2.65628e-05
2.77259e-05
2.83419e-05
2.81794e-05
2.71482e-05
2.5391e-05
2.32147e-05
2.0819e-05
1.83843e-05
1.61085e-05
1.41731e-05
1.27307e-05
1.19364e-05
1.20361e-05
1.3508e-05
1.71267e-05
2.26363e-05
2.09524e-05
8.48104e-06
2.93572e-06