/*--------------------------------*- C++ -*----------------------------------*\
| =========                 |                                                 |
| \\      /  F ield         | OpenFOAM: The Open Source CFD Toolbox           |
|  \\    /   O peration     | Version:  v2006                                 |
|   \\  /    A nd           | Website:  www.openfoam.com                      |
|    \\/     M anipulation  |                                                 |
\*---------------------------------------------------------------------------*/
FoamFile
{
    version     2.0;
    format      ascii;
    class       volScalarField;
    location    "69";
    object      omega;
}
// * * * * * * * * * * * * * * * * * * * * * * * * * * * * * * * * * * * * * //

dimensions      [0 0 -1 0 0 0 0];


internalField   nonuniform List<scalar> 
78750
(
352.587
13.5627
13.5944
13.6264
13.658
13.6886
13.7179
13.7456
13.7714
13.795
13.8164
13.8354
13.852
13.8661
13.8776
13.8868
13.8934
13.8976
13.8994
13.8987
13.8955
13.8897
13.8814
13.8704
13.8567
13.8403
13.8213
13.7997
13.7758
13.7498
13.7225
13.696
13.674
13.6608
356.06
517.382
4.15139
4.23653
4.31431
4.38571
4.45073
4.50903
4.5604
4.6049
4.64272
4.67416
4.69952
4.71926
4.73396
4.74401
4.7497
4.75127
4.74895
4.74293
4.73335
4.72032
4.70387
4.68394
4.66034
4.63296
4.6017
4.56664
4.52763
4.4842
4.43611
4.38277
4.32389
4.26274
4.20621
522.95
517.392
4.20019
4.32293
4.43279
4.5277
4.60722
4.67228
4.72448
4.76548
4.79676
4.81955
4.83495
4.84394
4.84724
4.84547
4.83921
4.829
4.81541
4.79899
4.78036
4.76003
4.73834
4.71535
4.69097
4.66484
4.63632
4.60467
4.56915
4.52901
4.48332
4.43089
4.37194
4.31217
4.25755
523.417
517.407
4.26663
4.43202
4.57226
4.68422
4.76993
4.83439
4.88236
4.91729
4.94159
4.95674
4.96375
4.96351
4.95683
4.94445
4.92703
4.90519
4.87966
4.85124
4.82089
4.78963
4.75855
4.72855
4.70006
4.6727
4.64542
4.61677
4.58518
4.54918
4.5072
4.45795
4.40271
4.34871
4.2996
523.835
517.423
4.31811
4.50985
4.6647
4.78049
4.86357
4.92289
4.96546
4.99524
5.01412
5.02333
5.02397
5.01689
5.0026
4.98159
4.95447
4.92204
4.88533
4.84561
4.80445
4.76374
4.72559
4.69178
4.66302
4.63882
4.61769
4.59737
4.57533
4.54901
4.516
4.47479
4.42714
4.37983
4.33451
524.247
517.44
4.36727
4.5831
4.7523
4.87403
4.95834
5.01714
5.05879
5.08703
5.1035
5.10961
5.1063
5.09398
5.07297
5.04377
5.00716
4.96427
4.91652
4.86564
4.81369
4.76315
4.71681
4.67682
4.64395
4.61787
4.59734
4.58026
4.5639
4.5451
4.52065
4.48825
4.44895
4.40786
4.36503
524.596
517.456
4.40655
4.63947
4.81776
4.94233
5.02652
5.08433
5.12442
5.15051
5.16446
5.16753
5.16021
5.14269
5.11523
5.07846
5.03341
4.98157
4.92478
4.86524
4.80561
4.74915
4.69918
4.65736
4.62385
4.59813
4.57914
4.56515
4.55368
4.54151
4.52501
4.50104
4.46959
4.43386
4.3929
524.938
517.47
4.44364
4.6934
4.88217
5.012
5.09847
5.15722
5.19727
5.22275
5.23568
5.23694
5.22676
5.20524
5.1727
5.12989
5.07807
5.01895
4.95462
4.88757
4.82081
4.75812
4.70321
4.65742
4.62065
4.5924
4.57189
4.55787
4.54838
4.54049
4.53034
4.51392
4.48964
4.45883
4.41981
525.237
517.483
4.47398
4.73712
4.93401
5.06773
5.15578
5.21507
5.25498
5.27978
5.29138
5.29048
5.27722
5.25165
5.21419
5.16577
5.10786
5.04246
4.97194
4.89916
4.82768
4.76197
4.70558
4.65892
4.6214
4.59237
4.5712
4.55708
4.54867
4.54364
4.53825
4.5279
4.50962
4.48313
4.44621
525.524
517.496
4.50696
4.78447
4.99023
5.12847
5.21856
5.27867
5.31871
5.34303
5.3535
5.35073
5.33477
5.30566
5.26387
5.21045
5.14706
5.07586
4.99949
4.92104
4.8445
4.77495
4.71605
4.66772
4.62894
4.5988
4.57664
4.56188
4.55366
4.55024
4.54827
4.54279
4.52962
4.50707
4.47242
525.786
517.508
4.5342
4.82331
5.03637
5.17846
5.27038
5.33131
5.37149
5.39536
5.40472
5.4001
5.38146
5.34886
5.30286
5.24467
5.17615
5.09969
5.01819
4.93507
4.85483
4.78327
4.72376
4.6755
4.63706
4.60723
4.58524
4.57059
4.5628
4.56064
4.56114
4.55933
4.55016
4.5309
4.49832
526.036
517.522
4.56589
4.86783
5.08841
5.23408
5.32749
5.38895
5.42905
5.45228
5.46038
5.4538
5.43246
5.39642
5.3463
5.28346
5.20991
5.12822
5.04149
4.95343
4.86897
4.79451
4.73362
4.68501
4.64678
4.61742
4.5959
4.58172
4.57454
4.57348
4.57596
4.57705
4.57113
4.55466
4.52385
526.269
517.535
4.59274
4.90509
5.13195
5.2808
5.37574
5.43788
5.4781
5.50089
5.50794
5.4996
5.47573
5.43645
5.38245
5.31523
5.23696
5.15041
5.05892
4.96648
4.87851
4.80212
4.74078
4.69268
4.65556
4.62753
4.60737
4.59444
4.58845
4.58872
4.59294
4.59627
4.59281
4.57845
4.54887
526.493
517.55
4.6234
4.94708
5.18025
5.33189
5.42793
5.49045
5.53054
5.5527
5.55853
5.54831
5.52189
5.47938
5.4216
5.3501
5.26722
5.17586
5.07953
4.98247
4.89047
4.81129
4.74875
4.70067
4.66439
4.63771
4.61911
4.60779
4.60338
4.60523
4.61117
4.61643
4.61491
4.60216
4.57331
526.705
517.564
4.6503
4.98338
5.22188
5.37604
5.47328
5.53637
5.57656
5.59833
5.60319
5.59135
5.56263
5.51719
5.4559
5.38047
5.29333
5.19753
5.09676
4.99548
4.89989
4.81841
4.75513
4.70749
4.67246
4.64753
4.63095
4.62172
4.61934
4.62309
4.63078
4.63766
4.63757
4.62586
4.59712
526.909
517.579
4.67976
5.02277
5.26658
5.42297
5.52112
5.58458
5.62474
5.646
5.64982
5.63634
5.60537
5.55711
5.49252
5.41334
5.32212
5.222
5.11678
5.01111
4.91149
4.82691
4.76216
4.71443
4.68036
4.6571
4.64259
4.63565
4.63558
4.64149
4.65105
4.65943
4.66044
4.64935
4.62024
527.104
517.594
4.70642
5.05793
5.30633
5.46479
5.56395
5.62797
5.66829
5.68927
5.69228
5.6774
5.64445
5.59368
5.52609
5.44354
5.34861
5.24453
5.1352
5.02547
4.92211
4.83462
4.76852
4.72079
4.68777
4.66634
4.65416
4.64979
4.65233
4.66062
4.67211
4.68185
4.68363
4.67272
4.6427
527.29
517.61
4.73463
5.09489
5.34782
5.50816
5.60819
5.67265
5.71307
5.73373
5.73592
5.71969
5.68487
5.63176
5.56142
5.47573
5.37732
5.26943
5.15604
5.04215
4.9347
4.84359
4.77547
4.72721
4.69493
4.67516
4.66532
4.66368
4.66903
4.67991
4.69344
4.70448
4.70682
4.69578
4.66443
527.469
517.625
4.76078
5.12875
5.38574
5.54789
5.6489
5.71398
5.75466
5.77515
5.77671
5.75933
5.72289
5.66773
5.59497
5.50653
5.40502
5.29369
5.17659
5.05878
4.9474
4.85265
4.78235
4.73343
4.70176
4.68366
4.67623
4.67746
4.68583
4.69947
4.71513
4.72741
4.73009
4.71859
4.68549
527.64
517.641
4.78778
5.16354
5.42453
5.58841
5.69033
5.75598
5.79688
5.81719
5.8181
5.79964
5.7617
5.70469
5.62976
5.53883
5.43449
5.31997
5.19928
5.07752
4.96196
4.86299
4.78988
4.73974
4.70833
4.69168
4.68662
4.6908
4.70232
4.71888
4.73678
4.75028
4.75319
4.74102
4.70586
527.803
517.657
4.81321
5.19601
5.46074
5.6264
5.72939
5.79576
5.83699
5.85719
5.85756
5.83816
5.79893
5.74035
5.6636
5.57058
5.46383
5.34651
5.22259
5.09712
4.97743
4.87411
4.79782
4.74612
4.71468
4.69934
4.69662
4.70382
4.71862
4.73825
4.75849
4.77323
4.77626
4.76315
4.72556
527.959
517.673
4.83896
5.22877
5.49723
5.66474
5.7689
5.83597
5.87742
5.8974
5.89717
5.87685
5.83647
5.77653
5.69823
5.60344
5.49462
5.37483
5.24792
5.11884
4.99491
4.88684
4.8067
4.75282
4.72087
4.70652
4.70602
4.71626
4.73444
4.75724
4.77987
4.79579
4.7988
4.78478
4.7446
528.108
517.689
4.86341
5.25964
5.53174
5.70136
5.80711
5.87504
5.91653
5.93617
5.93534
5.91422
5.87289
5.81188
5.7324
5.63625
5.52579
5.40398
5.27448
5.14209
5.01407
4.90114
4.81666
4.76004
4.7271
4.71342
4.71496
4.72822
4.74987
4.77596
4.80111
4.81837
4.82167
4.80606
4.76298
528.25
517.705
4.88776
5.29024
5.56592
5.73787
5.84522
5.91401
5.95564
5.97468
5.97318
5.95133
5.90922
5.8474
5.76703
5.66987
5.55816
5.43471
5.30298
5.16756
5.03556
4.91765
4.82821
4.76815
4.73358
4.72009
4.72339
4.73955
4.76467
4.79413
4.8219
4.8406
4.84447
4.82728
4.78085
528.387
517.72
4.91101
5.3192
5.59822
5.77251
5.88114
5.95083
5.99293
6.01177
6.00974
5.98733
5.94467
5.88231
5.8014
5.70361
5.59109
5.46646
5.33295
5.1949
5.0592
4.93639
4.8415
4.77742
4.74061
4.7268
4.73152
4.75042
4.77897
4.81187
4.84241
4.86292
4.8673
4.84864
4.79839
528.517
517.736
4.93399
5.34769
5.62992
5.80631
5.91619
5.98682
6.02951
6.04844
6.04579
6.02288
5.97981
5.91714
5.83596
5.73788
5.62494
5.49953
5.36468
5.22441
5.08529
4.95765
4.85689
4.78816
4.74844
4.73369
4.7394
4.76079
4.79271
4.82911
4.86264
4.88538
4.89015
4.86994
4.8156
528.643
517.752
4.956
5.37488
5.66042
5.83842
5.9494
6.02094
6.0643
6.08351
6.08054
6.05737
6.01413
5.95139
5.87025
5.77224
5.65925
5.53353
5.39781
5.25577
5.11363
4.98139
4.87454
4.80068
4.75741
4.74111
4.7473
4.77087
4.80603
4.84596
4.88263
4.90778
4.91294
4.89111
4.83248
528.764
517.768
4.97744
5.40116
5.68992
5.8694
5.98148
6.05402
6.09816
6.11784
6.11489
6.09137
6.048
5.98535
5.90448
5.80682
5.69416
5.56853
5.4324
5.28907
5.14434
5.00776
4.89469
4.81525
4.76782
4.7493
4.7554
4.78074
4.81894
4.86238
4.9023
4.92997
4.93557
4.91208
4.84902
528.882
517.783
4.99803
5.42618
5.71789
5.89878
6.01194
6.08547
6.13042
6.15064
6.14791
6.12418
6.08091
6.01861
5.93828
5.8413
5.7293
5.60416
5.46807
5.32396
5.17713
5.03662
4.91744
4.83216
4.78003
4.75862
4.764
4.79066
4.83163
4.87849
4.92169
4.95192
4.95796
4.93279
4.86518
528.995
517.798
5.01808
5.45038
5.74487
5.92708
6.0413
6.11583
6.16164
6.18248
6.18006
6.15627
6.11323
6.05144
5.97185
5.87576
5.76472
5.64042
5.50479
5.36039
5.21201
5.06805
4.94299
4.8517
4.79438
4.76942
4.77339
4.8008
4.84416
4.89426
4.94064
4.97347
4.98
4.95316
4.88096
529.106
517.813
5.03738
5.47347
5.77052
5.95394
6.06919
6.14472
6.19141
6.21294
6.21095
6.18725
6.14461
6.08349
6.00482
5.90987
5.80005
5.67692
5.54217
5.39798
5.24861
5.10179
4.97134
4.87405
4.81121
4.78208
4.78393
4.81147
4.8568
4.90991
4.95956
4.99474
5.00172
4.97319
4.89635
529.213
517.829
5.0562
5.49583
5.79524
5.97977
6.09599
6.17251
6.22011
6.24239
6.24093
6.21746
6.17531
6.11496
6.03736
5.9437
5.83535
5.71368
5.58017
5.43665
5.28687
5.13784
5.00261
4.89943
4.83081
4.79693
4.79593
4.82289
4.86967
4.92553
4.97843
5.01572
5.02305
4.99283
4.91135
529.318
517.843
5.0744
5.51727
5.81878
6.0043
6.12142
6.19891
6.24742
6.27049
6.26968
6.24671
6.20503
6.14552
6.06911
5.97693
5.87024
5.7503
5.61838
5.47597
5.32636
5.17584
5.03665
4.92788
4.85339
4.81431
4.80977
4.83543
4.88308
4.94133
4.99729
5.03647
5.04405
5.01211
4.92598
529.421
517.858
5.09222
5.53817
5.84148
6.02782
6.14579
6.2242
6.27361
6.29747
6.29735
6.27497
6.23382
6.17527
6.10019
6.00965
5.90481
5.78682
5.65676
5.51586
5.36695
5.21565
5.07334
4.95939
4.87909
4.83448
4.82574
4.84933
4.89717
4.95735
5.01607
5.05695
5.06469
5.03101
4.94025
529.521
517.873
5.10949
5.55855
5.86309
6.05007
6.16882
6.24814
6.29845
6.32313
6.32371
6.30199
6.26148
6.20399
6.13034
6.04156
5.93872
5.82286
5.69491
5.55586
5.40813
5.25672
5.11217
4.99366
4.90788
4.85761
4.84414
4.86493
4.91226
4.97382
5.03491
5.07724
5.08501
5.04956
4.9542
529.62
517.887
5.12599
5.5779
5.88365
6.07128
6.19078
6.27098
6.32216
6.34765
6.34897
6.32795
6.28814
6.2318
6.15969
6.07277
5.97205
5.85847
5.73284
5.5959
5.44974
5.2988
5.1528
5.03041
4.93958
4.8837
4.86513
4.88244
4.92851
4.99081
5.05383
5.09734
5.10502
5.06778
4.96786
529.716
517.901
5.14192
5.59642
5.90315
6.09129
6.21149
6.29254
6.34457
6.37085
6.37289
6.35257
6.31358
6.25849
6.188
6.10303
6.00454
5.89337
5.77021
5.63562
5.49139
5.34143
5.19469
5.0692
4.97392
4.91268
4.88882
4.90209
4.94618
5.00857
5.07299
5.11735
5.12479
5.08571
4.98127
529.811
517.915
5.15726
5.61412
5.92169
6.11029
6.23115
6.31303
6.36591
6.39298
6.39576
6.37617
6.33798
6.28414
6.21536
6.13241
6.03623
5.92757
5.80701
5.67496
5.53293
5.38437
5.23753
5.1097
5.01062
4.9444
4.91519
4.92398
4.9654
5.02719
5.09246
5.13732
5.14435
5.1034
4.99447
529.905
517.928
5.17203
5.63093
5.93914
6.12809
6.24957
6.33223
6.38594
6.41378
6.41729
6.39847
6.36117
6.30864
6.24153
6.16069
6.06689
5.96081
5.84297
5.71361
5.57402
5.42725
5.28089
5.15148
5.04932
4.97862
4.94422
4.94823
4.9864
5.04689
5.11241
5.15737
5.16378
5.12089
5.00751
529.998
517.942
5.18624
5.64696
5.95569
6.14494
6.26697
6.35039
6.40488
6.43347
6.43769
6.41963
6.38325
6.33206
6.2667
6.18793
6.09654
5.99313
5.87807
5.75153
5.61457
5.46989
5.32453
5.19427
5.08972
5.01508
4.97573
4.9748
5.00923
5.06778
5.13292
5.17758
5.18316
5.13823
5.02044
530.09
517.955
5.19983
5.66209
5.97116
6.16061
6.28316
6.36729
6.42252
6.45182
6.45674
6.43944
6.40402
6.35421
6.29061
6.21395
6.12497
6.02423
5.91203
5.78839
5.65423
5.51193
5.36803
5.23764
5.13144
5.05351
5.00958
5.00371
5.034
5.08999
5.15416
5.19807
5.20256
5.1555
5.03327
530.181
517.968
5.21297
5.67653
5.9858
6.17537
6.29837
6.38316
6.43908
6.46905
6.47464
6.45809
6.42363
6.37521
6.31338
6.23884
6.15226
6.05418
5.94485
5.82418
5.69292
5.55324
5.41119
5.28131
5.17415
5.09357
5.04551
5.03481
5.0607
5.11362
5.17623
5.21894
5.22207
5.17275
5.04607
530.273
517.981
5.22546
5.69004
5.99936
6.18897
6.31237
6.39777
6.45435
6.48495
6.49116
6.47535
6.44188
6.39486
6.3348
6.26237
6.17821
6.08278
5.97629
5.85863
5.73038
5.59348
5.45367
5.32493
5.21748
5.13492
5.08326
5.06797
5.08931
5.13871
5.19922
5.24028
5.24177
5.19002
5.05883
530.365
517.993
5.23751
5.70292
6.01213
6.2017
6.32543
6.41138
6.46856
6.49974
6.50654
6.49145
6.45897
6.41333
6.35502
6.28468
6.20289
6.11008
6.00643
5.89172
5.76655
5.63259
5.49532
5.36827
5.26116
5.17725
5.12255
5.10298
5.11976
5.16532
5.22323
5.2622
5.26173
5.20737
5.07159
530.457
518.006
5.24891
5.71487
6.02383
6.21328
6.33729
6.42374
6.48147
6.51319
6.52055
6.50616
6.47469
6.43044
6.37388
6.30559
6.22614
6.13591
6.03505
5.92329
5.80116
5.67033
5.53585
5.41102
5.30484
5.22023
5.16306
5.13961
5.15191
5.19339
5.24829
5.28474
5.28201
5.22483
5.08433
530.551
518.018
5.25989
5.72621
6.03479
6.22403
6.34825
6.43514
6.49336
6.52556
6.53343
6.51972
6.48926
6.44639
6.39153
6.32526
6.2481
6.1604
6.06225
5.95339
5.83428
5.70649
5.57511
5.45298
5.3483
5.26359
5.20454
5.17762
5.18559
5.22286
5.2744
5.30792
5.30263
5.24242
5.09708
530.645
518.03
5.27023
5.73666
6.04471
6.23366
6.35803
6.44531
6.50398
6.53661
6.54497
6.53192
6.50249
6.46099
6.40783
6.34354
6.26861
6.18337
6.08789
5.98188
5.86577
5.74111
5.61292
5.49391
5.39122
5.30701
5.24667
5.21677
5.22067
5.25366
5.30155
5.33179
5.32364
5.26015
5.10981
530.74
518.042
5.28015
5.7465
6.0539
6.24248
6.36694
6.45455
6.51361
6.54662
6.55541
6.54301
6.5146
6.47446
6.42297
6.36061
6.28786
6.20501
6.11211
6.00886
5.8957
5.77419
5.64933
5.53376
5.43348
5.35025
5.28917
5.25676
5.25683
5.28554
5.3296
5.35629
5.34502
5.27804
5.12254
530.837
518.054
5.28943
5.75548
6.0621
6.25023
6.37473
6.46262
6.52201
6.55537
6.56456
6.55279
6.52544
6.48666
6.4368
6.37635
6.30572
6.22519
6.13481
6.03425
5.92399
5.80562
5.68421
5.57235
5.47487
5.39312
5.33182
5.2974
5.29402
5.31869
5.35856
5.38137
5.36673
5.29604
5.13523
530.934
518.065
5.29829
5.76386
6.06959
6.2572
6.38168
6.4698
6.52948
6.56313
6.57268
6.56153
6.53522
6.49779
6.44955
6.39095
6.32238
6.2441
6.15614
6.0582
5.95076
5.83551
5.71762
5.60972
5.51532
5.43544
5.37443
5.3385
5.33206
5.35287
5.38837
5.40704
5.38879
5.31419
5.14792
531.032
518.076
5.30652
5.77141
6.07612
6.26317
6.38757
6.47588
6.5358
6.5697
6.57959
6.56905
6.54381
6.50774
6.4611
6.40432
6.33777
6.26169
6.17609
6.08068
5.97602
5.86387
5.74958
5.6458
5.55472
5.47704
5.41674
5.37978
5.37067
5.38783
5.41888
5.43319
5.41112
5.33243
5.16058
531.131
518.087
5.31431
5.77838
6.08199
6.26839
6.39267
6.48112
6.54124
6.57534
6.58554
6.57559
6.55144
6.5167
6.47165
6.41665
6.35206
6.2781
6.19479
6.10186
5.99991
5.89085
5.78023
5.68068
5.59308
5.51787
5.45867
5.42112
5.40974
5.42346
5.45002
5.45982
5.43377
5.35082
5.17326
531.23
518.098
5.3215
5.78455
6.08695
6.27266
6.39678
6.48533
6.54562
6.57989
6.59038
6.58102
6.55799
6.5246
6.4811
6.42786
6.3652
6.29333
6.21227
6.12176
6.02251
5.91656
5.80973
5.71444
5.63038
5.55777
5.49989
5.46214
5.44888
5.45944
5.48156
5.48677
5.45663
5.36928
5.18591
531.329
518.108
5.32827
5.79016
6.09127
6.27623
6.40015
6.48876
6.54917
6.58359
6.59433
6.58557
6.56366
6.53161
6.48965
6.43812
6.37734
6.3075
6.22863
6.14053
6.04397
5.94118
5.83832
5.74726
5.66675
5.59685
5.54056
5.50289
5.48808
5.49572
5.51347
5.51404
5.4797
5.38784
5.19859
531.429
518.118
5.33444
5.79501
6.09474
6.27891
6.4026
6.49125
6.55176
6.58629
6.59729
6.58914
6.56837
6.53767
6.49724
6.4474
6.38847
6.32063
6.24393
6.1582
6.06435
5.96484
5.86618
5.77928
5.70228
5.63507
5.58042
5.54297
5.52694
5.53197
5.54551
5.5415
5.50293
5.40649
5.21129
531.527
518.128
5.3402
5.79932
6.09759
6.28092
6.40436
6.49301
6.55359
6.58822
6.59946
6.59191
6.57232
6.54296
6.50403
6.45584
6.3987
6.33281
6.25823
6.17486
6.08374
5.98757
5.8933
5.81053
5.73699
5.6725
5.6196
5.58265
5.56555
5.56813
5.57761
5.56908
5.5263
5.42525
5.22408
531.625
518.137
5.3454
5.80291
6.09964
6.2821
6.40525
6.4939
6.55454
6.58926
6.60075
6.59384
6.57545
6.54744
6.51
6.46343
6.40806
6.34408
6.27158
6.19054
6.10216
6.00941
5.91967
5.84102
5.77093
5.70915
5.65801
5.62163
5.60362
5.60402
5.60964
5.59672
5.54978
5.44413
5.23703
531.722
518.146
5.35018
5.80596
6.10108
6.28265
6.40549
6.49411
6.5548
6.5896
6.60135
6.59508
6.57793
6.55126
6.51527
6.47029
6.41663
6.35451
6.28405
6.20532
6.11966
6.03037
5.94526
5.87071
5.80407
5.745
5.69568
5.65997
5.64125
5.63957
5.64149
5.62432
5.5733
5.46308
5.25007
531.819
518.155
5.35444
5.80834
6.10177
6.2824
6.40492
6.49351
6.55425
6.58915
6.60119
6.59562
6.57973
6.55441
6.51986
6.47643
6.42445
6.36415
6.29569
6.21924
6.1363
6.05051
5.97009
5.89964
5.83643
5.78006
5.73258
5.6976
5.6783
5.67473
5.67312
5.65183
5.59681
5.48204
5.26312
531.914
518.163
5.35831
5.81021
6.10188
6.28154
6.40372
6.49227
6.55305
6.58806
6.60043
6.59562
6.58102
6.55701
6.52387
6.48195
6.43161
6.37309
6.30659
6.23238
6.15217
6.0699
5.99419
5.92783
5.86803
5.81438
5.76875
5.73455
5.71475
5.70944
5.70439
5.67918
5.62027
5.50101
5.27618
532.009
518.171
5.36168
5.81143
6.10127
6.27992
6.40175
6.49025
6.55109
6.58625
6.59904
6.59509
6.58178
6.55906
6.5273
6.48688
6.43815
6.38138
6.31682
6.24484
6.16735
6.08864
6.01764
5.95531
5.89889
5.84792
5.80416
5.77078
5.75057
5.74367
5.73538
5.7063
5.6436
5.5199
5.28919
532.102
518.179
5.36466
5.81214
6.10007
6.27769
6.39915
6.4876
6.54848
6.58382
6.59712
6.5943
6.58212
6.56065
6.53024
6.49129
6.44415
6.38911
6.32648
6.25674
6.18199
6.10692
6.04056
5.98217
5.92906
5.88074
5.83884
5.80632
5.78579
5.7774
5.76601
5.73325
5.66682
5.53871
5.30214
532.194
518.187
5.36716
5.81224
6.09818
6.27472
6.3958
6.48419
6.54513
6.58066
6.59449
6.59281
6.58187
6.56171
6.53269
6.49522
6.44966
6.39636
6.33567
6.26819
6.19627
6.12498
6.06311
6.00854
5.95861
5.91285
5.87277
5.84113
5.82035
5.81061
5.79626
5.75994
5.68989
5.55741
5.315
532.285
518.194
5.36928
5.81182
6.09569
6.27113
6.39181
6.48014
6.54115
6.5769
6.59133
6.5909
6.58123
6.56238
6.53475
6.49875
6.45477
6.4032
6.34446
6.27931
6.21036
6.14308
6.08552
6.03458
5.98768
5.94435
5.90601
5.87523
5.85423
5.84324
5.82606
5.78634
5.71276
5.57597
5.32777
532.375
518.201
5.37095
5.8108
6.09251
6.2668
6.38707
6.47535
6.53643
6.57244
6.58754
6.58845
6.58013
6.56266
6.53644
6.50192
6.45953
6.40969
6.35293
6.29018
6.22433
6.16129
6.10784
6.06035
6.01632
5.97531
5.93863
5.90869
5.88754
5.87536
5.85545
5.81246
5.73544
5.5944
5.34046
532.464
518.207
5.37222
5.80925
6.08871
6.2618
6.38165
6.46987
6.53105
6.56736
6.58321
6.58556
6.57865
6.5626
6.53782
6.5048
6.46399
6.41589
6.36113
6.30081
6.23817
6.17952
6.13005
6.08588
6.04461
6.00578
5.97066
5.94145
5.92005
5.90683
5.88437
5.83825
5.7579
5.61267
5.35305
532.552
518.214
5.37306
5.80711
6.08421
6.25606
6.37546
6.46362
6.52493
6.5616
6.57829
6.5822
6.57679
6.56222
6.53893
6.50743
6.46822
6.42186
6.3691
6.31124
6.25186
6.19768
6.15207
6.11111
6.07249
6.03579
6.00215
5.97369
5.9523
5.93782
5.91284
5.86372
5.78015
5.63081
5.36555
532.637
518.22
5.37349
5.80442
6.07907
6.24961
6.36854
6.45665
6.5181
6.55519
6.57282
6.57839
6.57457
6.56154
6.53978
6.50984
6.47225
6.42765
6.37691
6.32155
6.26548
6.21575
6.1739
6.13604
6.1
6.06534
6.03318
6.00551
5.98423
5.96839
5.94091
5.88887
5.80216
5.64878
5.37796
532.722
518.226
5.3735
5.80113
6.07321
6.24239
6.36082
6.44887
6.51049
6.54808
6.56677
6.57413
6.572
6.56059
6.54042
6.51208
6.47615
6.43334
6.38465
6.33182
6.2791
6.23376
6.19555
6.16069
6.12712
6.09446
6.06375
6.03691
6.01581
5.99859
5.96862
5.91375
5.82398
5.66662
5.3903
532.805
518.231
5.37312
5.7973
6.06668
6.23442
6.35231
6.44029
6.50212
6.54029
6.56015
6.56942
6.56906
6.55934
6.54083
6.51415
6.47995
6.43899
6.39241
6.3422
6.29294
6.25186
6.21711
6.1851
6.1539
6.12316
6.09388
6.06787
6.04698
6.0284
5.99599
5.93835
5.84559
5.68432
5.40255
532.887
518.236
5.37234
5.79289
6.05943
6.22565
6.34296
6.43086
6.49293
6.5318
6.55299
6.56427
6.56574
6.55778
6.54101
6.51607
6.48366
6.44464
6.40028
6.35282
6.30721
6.27017
6.23869
6.20935
6.18037
6.15145
6.12355
6.09838
6.07774
6.05784
6.02306
5.96273
5.86705
5.70191
5.41474
532.966
518.241
5.37117
5.78791
6.05149
6.21609
6.33276
6.42054
6.48289
6.52259
6.54539
6.55865
6.562
6.55587
6.54092
6.51781
6.4873
6.45032
6.40833
6.36379
6.32206
6.28883
6.26039
6.23352
6.2066
6.17939
6.15279
6.12845
6.10808
6.08689
6.04981
5.98689
5.88834
5.71939
5.42687
533.045
518.246
5.3696
5.78235
6.04283
6.20572
6.32168
6.4093
6.47191
6.51257
6.53732
6.55247
6.55772
6.55352
6.54049
6.51933
6.49081
6.456
6.41649
6.37507
6.33742
6.3078
6.28221
6.25765
6.23264
6.20701
6.18164
6.15808
6.13798
6.11557
6.07628
6.01085
5.9095
5.7368
5.43898
533.121
518.25
5.36763
5.77621
6.03346
6.19455
6.30973
6.39713
6.45997
6.50157
6.5283
6.54549
6.55282
6.55068
6.53971
6.52059
6.49419
6.46164
6.42475
6.38657
6.35312
6.32698
6.3041
6.28171
6.25848
6.23432
6.21009
6.18728
6.16747
6.14387
6.10245
6.0346
5.93054
5.75413
5.45104
533.197
518.255
5.36526
5.76947
6.02336
6.18258
6.29691
6.38405
6.44712
6.48974
6.51855
6.53787
6.54734
6.54736
6.53854
6.52158
6.49739
6.46722
6.43306
6.39827
6.36906
6.34629
6.32601
6.30568
6.28413
6.26134
6.23817
6.21605
6.19652
6.17178
6.12833
6.05817
5.95146
5.77142
5.4631
533.27
518.259
5.3625
5.76218
6.01258
6.16983
6.28324
6.37003
6.4333
6.47695
6.50794
6.52948
6.54121
6.5435
6.53695
6.52227
6.50041
6.47275
6.44146
6.41019
6.3852
6.36569
6.34791
6.32955
6.30959
6.28808
6.26591
6.24443
6.22518
6.19934
6.15394
6.08154
5.97227
5.78864
5.47514
533.343
518.263
5.35937
5.75433
6.00113
6.1563
6.26871
6.35512
6.41857
6.46331
6.49655
6.52039
6.53446
6.53911
6.53492
6.52264
6.50325
6.47825
6.45001
6.42246
6.40158
6.38521
6.36982
6.35332
6.33485
6.31453
6.29327
6.2724
6.2534
6.2265
6.17924
6.10472
5.99296
5.80581
5.48718
533.413
518.266
5.35593
5.74599
5.98903
6.14204
6.25335
6.33929
6.40289
6.44877
6.48435
6.51058
6.52708
6.53418
6.53247
6.52269
6.50592
6.48376
6.45878
6.43519
6.41827
6.40487
6.39175
6.37702
6.35996
6.34076
6.32036
6.30004
6.28128
6.25334
6.20429
6.12773
6.01355
5.82294
5.49919
533.483
518.27
5.35221
5.73718
5.97632
6.12703
6.23715
6.32255
6.3863
6.43337
6.47136
6.50004
6.51905
6.52869
6.52955
6.52241
6.5084
6.48925
6.46777
6.44842
6.43528
6.42471
6.41373
6.40065
6.38488
6.36673
6.3471
6.32729
6.30873
6.2798
6.22905
6.15054
6.03401
5.84
5.51119
533.551
518.274
5.34827
5.72794
5.96302
6.11131
6.22012
6.30489
6.36879
6.41714
6.45758
6.48877
6.51035
6.52263
6.52616
6.52175
6.51063
6.49467
6.47689
6.46198
6.4525
6.44466
6.43574
6.42424
6.40972
6.39253
6.37361
6.35421
6.33587
6.30598
6.25359
6.17321
6.05439
5.85703
5.52317
533.619
518.277
5.34415
5.71828
5.94913
6.09487
6.20223
6.28627
6.35036
6.40018
6.44298
6.47668
6.50091
6.51592
6.52223
6.52069
6.51259
6.49997
6.48607
6.47572
6.46981
6.46463
6.4577
6.44773
6.43438
6.4181
6.39986
6.38102
6.36267
6.33182
6.27786
6.19567
6.07463
5.87397
5.5351
533.684
518.281
5.33985
5.70822
5.93469
6.07772
6.18348
6.26665
6.33093
6.38253
6.42746
6.46366
6.49065
6.50852
6.51774
6.51918
6.51424
6.50511
6.49527
6.4895
6.4871
6.48455
6.4796
6.47113
6.45894
6.44355
6.42603
6.40786
6.38932
6.35745
6.30195
6.21802
6.09482
5.89089
5.54702
533.751
518.285
5.33532
5.69774
5.91968
6.05988
6.16387
6.24596
6.31023
6.36351
6.41067
6.44954
6.47944
6.50033
6.51262
6.51722
6.51561
6.51016
6.50458
6.50331
6.50433
6.50435
6.50135
6.49437
6.48333
6.46885
6.45205
6.43457
6.41574
6.3828
6.32579
6.24016
6.11483
5.90768
5.55885
533.815
518.288
5.33058
5.68687
5.90416
6.0414
6.14347
6.22435
6.28858
6.34355
6.39294
6.43449
6.46735
6.49136
6.50686
6.51476
6.51667
6.51513
6.51406
6.51717
6.52152
6.52405
6.52298
6.5175
6.50763
6.49406
6.47802
6.46122
6.44208
6.40804
6.34953
6.26225
6.13483
5.92448
5.57067
533.881
518.292
5.32565
5.67562
5.88809
6.02221
6.12217
6.20167
6.26574
6.32238
6.37405
6.41836
6.45429
6.48154
6.50038
6.51176
6.51739
6.52
6.52371
6.53103
6.53857
6.54356
6.5444
6.54042
6.53172
6.51908
6.50379
6.48767
6.46817
6.43301
6.37301
6.28409
6.1546
5.9411
5.58236
533.944
518.296
5.32059
5.66406
5.87155
6.00238
6.10005
6.17801
6.2419
6.30025
6.35422
6.40132
6.44036
6.4709
6.49317
6.50816
6.51768
6.52466
6.53335
6.54478
6.55545
6.56287
6.56562
6.56316
6.55568
6.54401
6.52951
6.51407
6.49421
6.45794
6.39647
6.30594
6.17441
5.95775
5.59405
534.01
518.3
5.31549
5.65223
5.85451
5.9818
6.07693
6.15316
6.21683
6.27699
6.33337
6.38338
6.42562
6.45952
6.48529
6.50397
6.51751
6.52902
6.54277
6.55822
6.57198
6.58182
6.58649
6.58558
6.57934
6.56865
6.55495
6.54019
6.51995
6.48256
6.41963
6.32751
6.19394
5.97415
5.60554
534.072
518.304
5.31047
5.64026
5.83703
5.9605
6.05277
6.12707
6.1905
6.25257
6.31154
6.36459
6.41013
6.44747
6.47681
6.49927
6.51695
6.53315
6.55193
6.57131
6.58813
6.60039
6.60703
6.60772
6.60279
6.59317
6.58032
6.56628
6.54569
6.50719
6.44283
6.34913
6.21353
5.9906
5.61705
534.138
518.309
5.30564
5.62818
5.8191
5.93836
6.02741
6.09949
6.16265
6.22676
6.28857
6.34491
6.39392
6.43482
6.46782
6.49416
6.51611
6.53714
6.5608
6.58397
6.60378
6.61845
6.62706
6.62938
6.62579
6.61726
6.60529
6.59198
6.57104
6.53144
6.46567
6.37041
6.2328
6.00674
5.6283
534.201
518.314
5.30108
5.61608
5.80076
5.91539
6.00075
6.07032
6.13319
6.19943
6.26427
6.32413
6.37683
6.42147
6.45831
6.4887
6.51509
6.54117
6.56948
6.59628
6.61899
6.63605
6.64666
6.65068
6.64852
6.64117
6.63017
6.61764
6.59638
6.55572
6.48856
6.39175
6.25212
6.02292
5.63954
534.266
518.319
5.29684
5.60399
5.78201
5.89151
5.97263
6.03933
6.10199
6.17029
6.23835
6.30199
6.35865
6.40725
6.44811
6.48273
6.51377
6.54507
6.57782
6.60811
6.63363
6.65304
6.66565
6.67136
6.67063
6.66448
6.65447
6.64275
6.62121
6.57952
6.51102
6.41269
6.27105
6.03872
5.65044
534.329
518.325
5.29294
5.59197
5.76294
5.86674
5.94296
6.0063
6.06881
6.13899
6.21045
6.2782
6.33912
6.39195
6.43705
6.4761
6.51199
6.54861
6.58566
6.61935
6.64767
6.66943
6.68408
6.69157
6.69239
6.68755
6.67861
6.66778
6.64599
6.60331
6.5335
6.43367
6.29001
6.05454
5.66132
534.396
518.332
5.28942
5.58011
5.74362
5.84115
5.91166
5.97094
6.03293
6.1051
6.18025
6.25246
6.31797
6.37532
6.42491
6.4686
6.50953
6.55146
6.59272
6.62976
6.66086
6.685
6.70171
6.71099
6.71336
6.70984
6.70205
6.6921
6.67012
6.62652
6.55545
6.45416
6.30851
6.06991
5.67178
534.459
518.339
5.28635
5.56851
5.72419
5.81483
5.87884
5.93337
5.99453
6.06865
6.14767
6.22462
6.29504
6.35719
6.41152
6.4601
6.50629
6.55348
6.59885
6.63922
6.67312
6.6997
6.71857
6.72976
6.73382
6.73183
6.72552
6.71627
6.69409
6.6496
6.57734
6.47462
6.32699
6.08525
5.68218
534.526
518.346
5.28386
5.55737
5.70487
5.78791
5.84443
5.89335
5.95323
6.02927
6.1124
6.19439
6.27002
6.33728
6.39665
6.45041
6.50214
6.55442
6.60381
6.64748
6.6842
6.71327
6.73436
6.74755
6.75341
6.75308
6.74836
6.73976
6.71734
6.67201
6.5986
6.49449
6.34492
6.10006
5.69211
534.589
518.355
5.28216
5.54693
5.6859
5.7607
5.80864
5.85098
5.90907
5.98696
6.07438
6.16169
6.24281
6.31543
6.38011
6.43932
6.49684
6.55408
6.60743
6.65442
6.69404
6.72571
6.74916
6.76451
6.77235
6.77384
6.77087
6.76298
6.74035
6.69421
6.61971
6.51426
6.36275
6.11479
5.70191
534.657
518.363
5.28123
5.53722
5.66734
5.73321
5.77155
5.80615
5.86172
5.94138
6.0333
6.12622
6.21311
6.29135
6.36157
6.42647
6.48995
6.55206
6.60936
6.6597
6.70229
6.73665
6.76257
6.7802
6.79014
6.79357
6.79241
6.78528
6.76248
6.71558
6.64005
6.53331
6.37992
6.12888
5.71114
534.72
518.373
5.28122
5.52851
5.64955
5.70581
5.73343
5.75915
5.81132
5.89244
5.98894
6.08771
6.18063
6.26475
6.34075
6.41156
6.48109
6.54808
6.60938
6.66319
6.7089
6.74612
6.7747
6.79479
6.80702
6.81257
6.81337
6.8071
6.78421
6.73663
6.66013
6.55216
6.39691
6.1428
5.72018
534.788
518.383
5.28209
5.52084
5.63268
5.67875
5.69453
5.71021
5.75789
5.83995
5.94097
6.04579
6.14502
6.23529
6.31732
6.39428
6.46988
6.54174
6.60711
6.6645
6.71346
6.75369
6.78507
6.80778
6.82243
6.83022
6.83307
6.82773
6.80483
6.75665
6.67928
6.57014
6.41309
6.15597
5.72857
534.851
518.393
5.28391
5.51441
5.61701
5.65236
5.65519
5.65945
5.70162
5.78398
5.88934
6.0003
6.10607
6.20275
6.29109
6.37445
6.45608
6.53284
6.60242
6.66356
6.71597
6.75943
6.79383
6.81937
6.83666
6.84689
6.85195
6.84767
6.82488
6.77622
6.69806
6.58781
6.42902
6.16891
5.73671
534.921
518.404
5.28677
5.50938
5.60275
5.62692
5.61575
5.6073
5.64278
5.72468
5.83411
5.95122
6.06367
6.16697
6.26184
6.35184
6.43939
6.52106
6.59491
6.65994
6.71598
6.76283
6.80044
6.82899
6.84908
6.86187
6.86925
6.86613
6.84355
6.79452
6.71568
6.60443
6.44397
6.18097
5.7441
534.983
518.416
5.29084
5.50594
5.59011
5.60264
5.57638
5.5538
5.58136
5.66216
5.77533
5.89855
6.01777
6.12784
6.22945
6.32629
6.41971
6.50634
6.58462
6.65374
6.71362
6.76412
6.80517
6.83696
6.86008
6.87565
6.88552
6.88372
6.8615
6.81223
6.73283
6.62066
6.45861
6.19276
5.75123
535.054
518.429
5.29625
5.50422
5.57929
5.57981
5.53742
5.49925
5.5177
5.59664
5.7132
5.84238
5.96836
6.08526
6.19367
6.29744
6.39668
6.48834
6.57117
6.64454
6.70844
6.76275
6.80743
6.84265
6.86896
6.88745
6.8999
6.89952
6.87777
6.82841
6.74859
6.63563
6.47208
6.2035
5.75748
535.115
518.442
5.30308
5.5043
5.57044
5.55869
5.49917
5.44378
5.45162
5.52787
5.64755
5.78265
5.91544
6.03922
6.15452
6.26524
6.37035
6.46716
6.55473
6.63257
6.70073
6.75912
6.80767
6.84655
6.87627
6.89786
6.91311
6.91433
6.89322
6.8439
6.76378
6.65013
6.48518
6.21393
5.76344
535.187
518.456
5.31116
5.50612
5.56373
5.53972
5.46227
5.38799
5.38333
5.4557
5.57807
5.71909
5.85876
5.98951
6.11173
6.22936
6.34035
6.4424
6.53485
6.61732
6.68991
6.75254
6.80514
6.84785
6.88116
6.90612
6.92411
6.92701
6.9067
6.8576
6.77733
6.66313
6.49691
6.22314
5.76837
535.247
518.471
5.32025
5.50956
5.55928
5.52337
5.42755
5.33262
5.31309
5.37995
5.50441
5.65131
5.79802