/*--------------------------------*- C++ -*----------------------------------*\
| =========                 |                                                 |
| \\      /  F ield         | OpenFOAM: The Open Source CFD Toolbox           |
|  \\    /   O peration     | Version:  v2006                                 |
|   \\  /    A nd           | Website:  www.openfoam.com                      |
|    \\/     M anipulation  |                                                 |
\*---------------------------------------------------------------------------*/
FoamFile
{
    version     2.0;
    format      ascii;
    class       volScalarField;
    location    "51";
    object      omega;
}
// * * * * * * * * * * * * * * * * * * * * * * * * * * * * * * * * * * * * * //

dimensions      [0 0 -1 0 0 0 0];


internalField   nonuniform List<scalar> 
78750
(
353.275
13.5951
13.6014
13.6068
13.6105
13.6123
13.6123
13.6108
13.6081
13.6047
13.6008
13.5965
13.5921
13.5877
13.5834
13.5795
13.5762
13.5736
13.5717
13.5706
13.5701
13.5701
13.5704
13.5709
13.5716
13.5726
13.5738
13.5755
13.5777
13.5811
13.5865
13.5963
13.6141
13.6447
357.307
518.333
4.10316
4.14705
4.18641
4.21945
4.24529
4.26365
4.27486
4.27957
4.27856
4.27267
4.26275
4.24961
4.23404
4.21671
4.19823
4.17922
4.16016
4.14165
4.12433
4.10886
4.09588
4.0859
4.07916
4.07545
4.07418
4.07455
4.07584
4.07764
4.07993
4.08329
4.08926
4.10099
4.12386
524.879
518.335
4.13286
4.20213
4.26403
4.31762
4.36304
4.40012
4.42905
4.4502
4.46402
4.47099
4.47162
4.46644
4.456
4.44091
4.42178
4.39926
4.37403
4.3467
4.31784
4.28791
4.25733
4.22666
4.19658
4.16799
4.14208
4.1202
4.10365
4.09328
4.08952
4.09258
4.10318
4.12342
4.15755
525.502
518.34
4.15455
4.2396
4.31576
4.38075
4.43587
4.48275
4.52169
4.55305
4.5772
4.59456
4.60549
4.61038
4.6096
4.60352
4.59251
4.57679
4.55667
4.53261
4.50524
4.4752
4.44277
4.40798
4.37098
4.33203
4.29162
4.25078
4.21147
4.17593
4.14767
4.13164
4.13162
4.14973
4.18786
525.957
518.346
4.18615
4.29412
4.38981
4.46989
4.53432
4.58643
4.62858
4.66147
4.68585
4.70245
4.71198
4.71515
4.71259
4.70496
4.69281
4.67651
4.65633
4.63268
4.60607
4.57704
4.54604
4.51326
4.47853
4.44155
4.402
4.3596
4.31432
4.26734
4.22293
4.18914
4.17481
4.18545
4.22273
526.345
518.355
4.22114
4.35199
4.46546
4.55819
4.62977
4.68535
4.72922
4.76273
4.78678
4.80222
4.80989
4.8106
4.80512
4.79418
4.77827
4.75776
4.73318
4.70516
4.67444
4.64191
4.60853
4.57502
4.5414
4.50697
4.47069
4.4314
4.38804
4.34047
4.2915
4.24899
4.22436
4.22691
4.2596
526.647
518.363
4.25409
4.40568
4.53471
4.63753
4.71485
4.77282
4.81706
4.84989
4.87243
4.88572
4.89073
4.88838
4.87951
4.86462
4.84405
4.81835
4.78821
4.75443
4.71802
4.6802
4.64251
4.60639
4.57234
4.53971
4.5071
4.47275
4.4348
4.39208
4.34594
4.30275
4.27398
4.27096
4.29791
526.917
518.374
4.29023
4.46295
4.60692
4.71863
4.80045
4.85981
4.90378
4.93557
4.95645
4.96759
4.97006
4.96483
4.95245
4.93322
4.9076
4.87624
4.83997
4.79976
4.75681
4.7126
4.66909
4.62844
4.59178
4.55874
4.52794
4.49738
4.4648
4.42831
4.38804
4.34859
4.32014
4.314
4.3351
527.147
518.384
4.32278
4.51347
4.66975
4.78843
4.87347
4.93368
4.97729
5.00812
5.02755
5.03686
5.03718
5.02928
5.0134
4.98988
4.95927
4.92234
4.88004
4.83354
4.78423
4.73387
4.68485
4.63996
4.60079
4.5671
4.53759
4.51035
4.48301
4.45331
4.42042
4.38725
4.36201
4.35475
4.37054
527.368
518.395
4.35618
4.56461
4.73292
4.85845
4.94681
5.00803
5.05149
5.0816
5.09986
5.10764
5.10606
5.09551
5.07617
5.04846
5.01299
4.97064
4.92252
4.8699
4.81434
4.75777
4.70286
4.65297
4.6102
4.57446
4.54466
4.51909
4.49557
4.47173
4.44607
4.4199
4.39921
4.3921
4.40331
527.569
518.406
4.38577
4.60943
4.78807
4.91947
5.01073
5.07329
5.11695
5.14656
5.16397
5.17069
5.1675
5.15458
5.13216
5.10067
5.06084
5.01366
4.96033
4.90228
4.84116
4.77912
4.71911
4.66498
4.61906
4.58131
4.55081
4.52619
4.50558
4.48676
4.46774
4.44846
4.43267
4.42636
4.43379
527.766
518.417
4.41581
4.65456
4.84335
4.98051
5.07465
5.1387
5.18268
5.21186
5.2287
5.23451
5.22975
5.2146
5.18927
5.15428
5.11043
5.05881
5.00073
4.93769
4.87147
4.80432
4.73939
4.68093
4.63158
4.59132
4.55935
4.5346
4.51565
4.50054
4.48708
4.474
4.46293
4.4578
4.46227
527.951
518.427
4.44304
4.69516
4.89298
5.03535
5.13216
5.19759
5.24212
5.27133
5.28788
5.29288
5.2867
5.26948
5.24149
5.20328
5.15574
5.10005
5.03761
4.97003
4.89918
4.82748
4.75829
4.69627
4.64425
4.60206
4.56896
4.54411
4.52644
4.51435
4.50555
4.49786
4.49103
4.48715
4.48931
528.131
518.438
4.47102
4.73653
4.94328
5.09068
5.18998
5.25668
5.30185
5.33122
5.34743
5.35155
5.34393
5.32471
5.29417
5.2529
5.20189
5.14238
5.07585
5.00398
4.92874
4.85263
4.7792
4.71347
4.65863
4.61443
4.58011
4.55495
4.53817
4.52849
4.52359
4.52053
4.51745
4.51487
4.51525
528.302
518.449
4.4973
4.77499
4.98981
5.14174
5.24334
5.31125
5.35704
5.38659
5.40251
5.40586
5.39693
5.37583
5.34288
5.29874
5.24444
5.18132
5.11094
5.03503
4.95567
4.87547
4.79817
4.72922
4.67209
4.62642
4.59138
4.56631
4.5506
4.54317
4.54172
4.54269
4.54285
4.54144
4.54033
528.47
518.46
4.52447
4.81435
5.03704
5.19325
5.29695
5.36597
5.41237
5.44209
5.45775
5.46034
5.45014
5.42725
5.39201
5.34513
5.28771
5.22116
5.14707
5.06724
4.98379
4.89943
4.81805
4.7455
4.68579
4.63854
4.6028
4.57792
4.56336
4.55814
4.55987
4.56445
4.56748
4.56713
4.5647
528.631
518.472
4.55044
4.85151
5.08133
5.24135
5.34696
5.41705
5.46407
5.49404
5.50952
5.51147
5.50013
5.47559
5.43823
5.38882
5.32852
5.25878
5.18126
5.09774
5.01043
4.92212
4.83684
4.76081
4.69865
4.64997
4.61378
4.58938
4.57625
4.57337
4.5782
4.5861
4.59164
4.59218
4.58848
528.789
518.484
4.57727
4.88946
5.12617
5.28972
5.39704
5.46811
5.51573
5.54595
5.56128
5.56264
5.55023
5.52415
5.48481
5.43302
5.37
5.29724
5.21642
5.12931
5.03816
4.94582
4.85644
4.77654
4.71157
4.66121
4.62447
4.60061
4.58903
4.58861
4.59653
4.60758
4.61541
4.61671
4.61171
528.942
518.496
4.603
4.92541
5.16836
5.33508
5.44401
5.51609
5.56439
5.59497
5.6103
5.61122
5.59792
5.57051
5.52942
5.47553
5.41008
5.3346
5.25076
5.16033
5.06557
4.96935
4.87592
4.79207
4.72416
4.67204
4.63473
4.6115
4.60166
4.60387
4.61494
4.62903
4.63894
4.64084
4.63446
529.093
518.509
4.62947
4.96199
5.2109
5.38052
5.49088
5.56389
5.61286
5.64382
5.65916
5.6597
5.6456
5.61697
5.57429
5.51846
5.45076
5.37273
5.28602
5.19242
5.09414
4.99407
4.89648
4.80838
4.73714
4.68292
4.64483
4.62213
4.61406
4.61899
4.63326
4.65033
4.66217
4.66456
4.65673
529.241
518.522
4.65491
4.99672
5.25107
5.42335
5.53511
5.60912
5.65888
5.69034
5.70586
5.70619
5.69148
5.66187
5.61785
5.56038
5.49073
5.41044
5.32115
5.22464
5.12309
5.01931
4.91761
4.82516
4.75037
4.69383
4.65478
4.63257
4.6263
4.63406
4.65159
4.67159
4.68523
4.68797
4.67856
529.386
518.535
4.68088
5.03183
5.29138
5.46608
5.57912
5.65409
5.70462
5.7366
5.75231
5.75247
5.73723
5.70674
5.66155
5.60261
5.53124
5.4489
5.35727
5.25804
5.15338
5.04601
4.94018
4.84318
4.76446
4.70522
4.6649
4.64294
4.63839
4.64897
4.66978
4.69266
4.708
4.71097
4.6999
529.529
518.549
4.70596
5.06536
5.32969
5.50667
5.62102
5.69704
5.74844
5.78104
5.79706
5.79719
5.78158
5.75042
5.70429
5.64417
5.57135
5.4873
5.39363
5.29198
5.18442
5.07365
4.9638
4.86221
4.77934
4.71713
4.67529
4.65341
4.6505
4.66387
4.68795
4.71365
4.73058
4.73367
4.72079
529.67
518.562
4.73131
5.09897
5.36789
5.54703
5.66264
5.73971
5.79197
5.82517
5.84148
5.84158
5.82565
5.79392
5.74701
5.68591
5.61189
5.5264
5.43097
5.32715
5.21694
5.10292
4.98915
4.8829
4.79555
4.72999
4.68626
4.66416
4.66267
4.67873
4.706
4.73443
4.7528
4.7559
4.74113
529.808
518.576
4.75588
5.13122
5.40445
5.58572
5.70269
5.78091
5.83411
5.86794
5.88455
5.88467
5.86851
5.83636
5.78887
5.72704
5.65211
5.56549
5.46863
5.36296
5.25038
5.13336
5.01585
4.90503
4.81304
4.74388
4.69797
4.67537
4.67509
4.6937
4.72407
4.75513
4.77485
4.77784
4.76099
529.945
518.591
4.78041
5.16318
5.44061
5.62404
5.7425
5.82197
5.87606
5.9104
5.92721
5.92728
5.91092
5.87844
5.83053
5.76818
5.6926
5.60514
5.50714
5.39993
5.28526
5.16548
5.04438
4.92907
4.83221
4.75915
4.7107
4.68726
4.68789
4.70882
4.74209
4.77558
4.79643
4.79917
4.78022
530.079
518.605
4.80414
5.19382
5.47526
5.66098
5.78126
5.86228
5.91718
5.95179
5.96865
5.96865
5.95215
5.91948
5.87134
5.8087
5.73275
5.64474
5.54593
5.4375
5.32107
5.19883
5.0744
4.95479
4.85305
4.7759
4.72463
4.70002
4.70125
4.72421
4.76015
4.79594
4.81817
4.82028
4.79884
530.211
518.619
4.82754
5.2238
5.50911
5.6972
5.81963
5.90204
5.95782
5.99258
6.00932
6.00924
5.99267
5.95994
5.91175
5.84905
5.77297
5.68469
5.58537
5.47603
5.35816
5.23376
5.10625
4.9825
4.87583
4.79442
4.74003
4.71386
4.7153
4.73998
4.77838
4.81639
4.84003
4.84149
4.81706
530.341
518.634
4.85014
5.25245
5.54136
5.73185
5.85588
5.93959
5.99642
6.03185
6.04857
6.04849
6.03197
5.99934
5.95128
5.88873
5.81275
5.72447
5.62492
5.515
5.39603
5.26981
5.13955
5.01196
4.9005
4.81479
4.75707
4.72901
4.73028
4.75629
4.79682
4.83681
4.86185
4.86259
4.83486
530.468
518.648
4.87228
5.28029
5.57261
5.76551
5.89101
5.97599
6.03388
6.07003
6.087
6.08689
6.07045
6.03801
5.99023
5.92801
5.85236
5.76431
5.66482
5.55461
5.43486
5.30716
5.17449
5.04334
4.92727
4.83724
4.77598
4.74569
4.74632
4.77323
4.81557
4.85751
4.88359
4.88345
4.8522
530.593
518.663
4.89364
5.30686
5.60224
5.79724
5.92411
6.01035
6.06937
6.10642
6.12393
6.12383
6.10761
6.07551
6.02818
5.96647
5.89135
5.80378
5.70459
5.59439
5.47418
5.34536
5.21066
5.07633
4.95591
4.86172
4.79687
4.76406
4.76366
4.79103
4.83487
4.87868
4.90534
4.90403
4.86903
530.715
518.678
4.91453
5.33271
5.63107
5.82787
5.95594
6.04337
6.1035
6.14146
6.15957
6.15965
6.14377
6.11214
6.06538
6.00434
5.92991
5.84301
5.74435
5.63441
5.51405
5.38444
5.24807
5.11094
4.98652
4.88834
4.81986
4.78428
4.78244
4.80983
4.85478
4.90018
4.92707
4.92433
4.88534
530.834
518.692
4.93454
5.35726
5.65867
5.8567
5.98584
6.07445
6.13575
6.17474
6.19362
6.19412
6.17864
6.14755
6.10148
6.04124
5.96768
5.88163
5.78372
5.6743
5.55407
5.42402
5.28637
5.14688
5.0189
4.91702
4.84497
4.80646
4.80282
4.82975
4.87536
4.92195
4.94875
4.94431
4.90113
530.951
518.707
4.95385
5.38066
5.68477
5.88404
6.01425
6.10405
6.16651
6.20653
6.22629
6.22745
6.21232
6.18184
6.13658
6.07728
6.00475
5.91972
5.82275
5.71406
5.59422
5.46403
5.32548
5.18405
5.05297
4.94773
4.87225
4.83069
4.8249
4.85091
4.89667
4.94399
4.97033
4.96396
4.91639
531.066
518.721
4.97235
5.40284
5.7094
5.90973
6.04091
6.13183
6.19544
6.2365
6.25717
6.25906
6.24444
6.21473
6.17043
6.11223
6.04086
5.95699
5.86112
5.75336
5.63415
5.50412
5.36504
5.22213
5.08849
4.98028
4.90159
4.85695
4.84873
4.87335
4.91874
4.96628
4.99182
4.98326
4.93111
531.178
518.735
4.99002
5.42383
5.73268
5.93397
6.06607
6.15807
6.2228
6.26491
6.2865
6.28917
6.27518
6.24636
6.20313
6.14613
6.07603
5.99345
5.89881
5.79213
5.67374
5.54413
5.40485
5.26092
5.12525
5.01453
4.93292
4.88523
4.87436
4.89715
4.94163
4.98886
5.01321
5.00221
4.94532
531.287
518.749
5.007
5.44382
5.75458
5.95663
6.08954
6.1826
6.24844
6.29162
6.31417
6.31769
6.3044
6.27653
6.23448
6.17883
6.11014
6.02897
5.93568
5.83021
5.71281
5.58382
5.44465
5.3001
5.16296
5.05024
4.96603
4.9154
4.90171
4.92227
4.96531
5.0117
5.03447
5.02079
4.95903
531.394
518.763
5.02329
5.4627
5.77513
5.97783
6.11151
6.20557
6.27248
6.31672
6.34026
6.34469
6.33222
6.30541
6.2646
6.21032
6.14314
6.06351
5.97171
5.86759
5.75133
5.62317
5.48437
5.33957
5.20149
5.08723
5.00078
4.94736
4.93075
4.94875
4.98984
5.03486
5.05568
5.03906
4.97226
531.499
518.776
5.03883
5.4805
5.79435
5.99755
6.13191
6.22689
6.29483
6.34009
6.36462
6.36999
6.35841
6.33274
6.29328
6.24049
6.17487
6.09687
6.00668
5.90405
5.78909
5.66195
5.52378
5.37911
5.2406
5.12529
5.03697
4.98093
4.96132
4.97643
5.01517
5.05825
5.07677
5.057
4.98504
531.602
518.789
5.05369
5.49732
5.81234
6.01591
6.15085
6.24671
6.31563
6.36188
6.3874
6.39374
6.3831
6.35865
6.32061
6.26938
6.20542
6.1291
6.0406
5.9396
5.82607
5.70013
5.56283
5.41864
5.28021
5.16429
5.07444
5.01598
4.99336
5.0054
5.04153
5.08201
5.09782
5.07466
4.9974
531.703
518.802
5.06788
5.51323
5.82911
6.0329
6.16833
6.26498
6.3348
6.38201
6.40847
6.41578
6.40614
6.38294
6.34636
6.29677
6.23456
6.16004
6.0733
5.974
5.86209
5.73752
5.60133
5.45798
5.32013
5.20406
5.11306
5.05239
5.02677
5.03555
5.06872
5.1061
5.11884
5.09206
5.0094
531.802
518.815
5.08142
5.52842
5.84476
6.0486
6.18445
6.28181
6.35249
6.40058
6.42797
6.43625
6.42766
6.40571
6.37061
6.3227
6.26229
6.18964
6.10477
6.00726
5.89704
5.77403
5.63921
5.49703
5.36027
5.2445
5.15271
5.09006
5.06149
5.06681
5.09666
5.13053
5.13986
5.10925
5.02109
531.898
518.827
5.09409
5.54256
5.85914
6.06299
6.19918
6.2972
6.36866
6.41757
6.44582
6.45503
6.4475
6.4268
6.39323
6.34704
6.2885
6.21779
6.13486
6.03924
5.93082
5.80951
5.67627
5.53559
5.40041
5.28539
5.19318
5.12881
5.09734
5.09906
5.12526
5.15524
5.1609
5.12627
5.03251
531.992
518.839
5.10607
5.55576
5.87247
6.07623
6.21271
6.3113
6.38345
6.43312
6.46215
6.47224
6.46573
6.44629
6.41426
6.36982
6.31318
6.24445
6.16353
6.06989
5.96338
5.8439
5.71247
5.57362
5.44047
5.32661
5.23435
5.16851
5.13424
5.13224
5.1545
5.18026
5.182
5.14319
5.04373
532.084
518.85
5.11726
5.56796
5.88468
6.0883
6.22499
6.32408
6.39686
6.4472
6.47696
6.48787
6.48235
6.46417
6.43367
6.39099
6.33626
6.26955
6.19069
6.0991
5.99459
5.87707
5.7476
5.61091
5.48025
5.36797
5.276
5.20898
5.17203
5.16623
5.1843
5.20556
5.20316
5.16001
5.05479
532.174
518.862
5.12783
5.57936
5.89599
6.09939
6.23622
6.33573
6.40904
6.45997
6.49037
6.50203
6.49744
6.4805
6.45151
6.41057
6.35776
6.29307
6.2163
6.12683
6.02442
5.90899
5.78168
5.64738
5.51967
5.40936
5.31805
5.25011
5.21063
5.20101
5.2147
5.23121
5.22448
5.17685
5.06578
532.261
518.872
5.13771
5.58988
5.90633
6.10945
6.24636
6.34622
6.42
6.47144
6.5024
6.51473
6.51102
6.49529
6.46779
6.42856
6.37764
6.31498
6.24031
6.15298
6.05274
5.93953
5.81457
5.68296
5.55858
5.4506
5.36029
5.29173
5.24987
5.23644
5.2456
5.25715
5.24593
5.19371
5.07674
532.347
518.882
5.14699
5.59968
5.91587
6.11866
6.25559
6.35573
6.42988
6.48175
6.51318
6.52612
6.52321
6.50864
6.48258
6.44502
6.39597
6.3353
6.26273
6.17756
6.07954
5.96864
5.8462
5.71755
5.59688
5.4916
5.40264
5.33375
5.28974
5.27256
5.27708
5.28351
5.26765
5.21073
5.08779
532.43
518.892
5.15571
5.60876
5.9246
6.12701
6.2639
6.36425
6.43871
6.49092
6.52275
6.5362
6.53405
6.52058
6.49591
6.45997
6.41272
6.35402
6.28352
6.20051
6.10473
5.99622
5.87644
5.75099
5.63438
5.53214
5.44486
5.37595
5.33004
5.30921
5.30905
5.31025
5.28965
5.22794
5.09896
532.512
518.902
5.16393
5.61723
5.93266
6.13465
6.27145
6.37194
6.44663
6.49911
6.53126
6.54515
6.54366
6.53125
6.50789
6.47351
6.42801
6.37123
6.30277
6.2219
6.12838
6.02231
5.90531
5.78328
5.67102
5.57211
5.48683
5.41823
5.37068
5.34636
5.34155
5.33745
5.31202
5.24543
5.11034
532.591
518.911
5.17166
5.62508
5.94003
6.14156
6.27824
6.37882
6.45369
6.50635
6.53873
6.55299
6.55211
6.54068
6.51855
6.48564
6.44183
6.38691
6.32046
6.24172
6.15048
6.0469
5.9328
5.81443
5.70675
5.61141
5.5284
5.46042
5.41153
5.38395
5.37456
5.36515
5.33484
5.26329
5.122
532.67
518.92
5.17901
5.63246
5.94687
6.1479
6.28441
6.38504
6.46001
6.5128
6.54534
6.55989
6.5596
6.54903
6.52803
6.49649
6.45429
6.40116
6.33668
6.26005
6.1711
6.07009
5.95903
5.84459
5.74162
5.65001
5.56946
5.50234
5.45239
5.42179
5.40798
5.39331
5.3581
5.28155
5.13397
532.746
518.929
5.1859
5.63926
5.95308
6.15359
6.28991
6.39055
6.4656
6.51845
6.55107
6.56584
6.56606
6.55626
6.53629
6.50605
6.46536
6.41397
6.3514
6.27688
6.19026
6.0919
5.9841
5.87397
5.77574
5.68794
5.61002
5.544
5.49327
5.45991
5.44185
5.42199
5.3819
5.30029
5.14632
532.822
518.937
5.19244
5.64561
5.95878
6.15874
6.29485
6.39549
6.47056
6.52343
6.55609
6.571
6.57168
6.56256
6.54352
6.51445
6.47518
6.42543
6.36471
6.29226
6.20797
6.11238
6.00808
5.90271
5.80921
5.72525
5.65005
5.58527
5.53396
5.4981
5.47603
5.45115
5.40623
5.31954
5.15909
532.896
518.945
5.19857
5.65143
5.96388
6.16326
6.29915
6.39976
6.47486
6.52772
6.56038
6.5754
6.57649
6.56798
6.54977
6.52178
6.48382
6.4356
6.37664
6.3062
6.22425
6.1315
6.03089
5.93066
5.84194
5.7619
5.68954
5.6262
5.57454
5.5364
5.51056
5.4808
5.43111
5.33931
5.17228
532.97
518.953
5.20435
5.65679
5.96843
6.1672
6.30285
6.40343
6.47853
6.53136
6.56399
6.57911
6.58058
6.57263
6.55518
6.52816
6.4914
6.44461
6.3873
6.31879
6.23914
6.14925
6.05246
5.95762
5.87376
5.79772
5.72832
5.66655
5.61471
5.57447
5.54519
5.51083
5.45651
5.35964
5.18595
533.043
518.96
5.20977
5.66162
5.97237
6.17048
6.30587
6.40641
6.4815
6.53431
6.56691
6.58212
6.58398
6.57656
6.55981
6.53368
6.49802
6.45254
6.3968
6.33012
6.2527
6.16567
6.07277
5.98347
5.90455
5.83263
5.76632
5.70631
5.65454
5.61251
5.58002
5.54124
5.4824
5.38046
5.20004
533.116
518.968
5.21483
5.66596
5.97569
6.17309
6.30819
6.40867
6.48376
6.53654
6.56913
6.58445
6.58673
6.57984
6.56375
6.53846
6.50381
6.45955
6.40525
6.34031
6.26505
6.18084
6.09187
6.00818
5.93424
5.86649
5.80338
5.7453
5.69379
5.6502
5.61482
5.57195
5.50877
5.40181
5.21457
533.189
518.975
5.21953
5.66974
5.97835
6.17496
6.30973
6.41013
6.4852
6.53796
6.57056
6.58604
6.58878
6.58245
6.56703
6.54253
6.50885
6.46573
6.41279
6.34951
6.27634
6.19492
6.10989
6.03185
5.96287
5.89931
5.83946
5.78344
5.73248
5.68791
5.64973
5.6029
5.53552
5.42359
5.22948
533.262
518.982
5.22388
5.67302
5.98035
6.17609
6.31048
6.41076
6.48579
6.53853
6.57117
6.58684
6.59012
6.58439
6.56966
6.54595
6.51319
6.47116
6.41952
6.35783
6.28671
6.20806
6.12704
6.05458
5.99054
5.93116
5.8746
5.82076
5.77061
5.72542
5.68466
5.6341
5.56266
5.44581
5.24477
533.335
518.989
5.22788
5.67575
5.98168
6.17645
6.3104
6.41051
6.48547
6.53818
6.57086
6.58678
6.59068
6.58561
6.5716
6.5487
6.51685
6.47589
6.42552
6.3654
6.2963
6.22047
6.14358
6.0766
6.01738
5.96212
5.90885
5.85726
5.8081
5.76258
5.71948
5.66544
5.5901
5.46839
5.26044
533.408
518.996
5.23154
5.67799
5.98237
6.17608
6.3095
6.40938
6.48423
6.53687
6.5696
6.58581
6.5904
6.58606
6.57282
6.55076
6.51984
6.47994
6.43083
6.37226
6.30524
6.23235
6.15985
6.09814
6.0436
5.99236
5.94235
5.89307
5.84502
5.7994
5.75421
5.69691
5.61782
5.49131
5.27646
533.482
519.002
5.2349
5.67976
5.98245
6.17499
6.30781
6.40739
6.48206
6.5346
6.56737
6.58389
6.58924
6.58569
6.57329
6.55211
6.52214
6.4833
6.43544
6.37846
6.31357
6.24378
6.17599
6.11932
6.06927
6.02194
5.97514
5.92817
5.88134
5.8358
5.78872
5.72838
5.6457
5.51448
5.29275
533.557
519.009
5.23798
5.68111
5.98198
6.17326
6.30538
6.40459
6.479
6.53138
6.56416
6.58101
6.58717
6.58448
6.57296
6.55271
6.52372
6.48596
6.43937
6.38399
6.32129
6.25474
6.19191
6.14013
6.09444
6.05093
6.00731
5.96267
5.91716
5.87186
5.82308
5.7599
5.67377
5.53791
5.30931
533.632
519.015
5.24081
5.68208
5.98099
6.17091
6.30226
6.40101
6.4751
6.52725
6.55999
6.57716
6.58417
6.58238
6.57181
6.55253
6.52457
6.48791
6.44259
6.3888
6.32832
6.26508
6.20733
6.16034
6.11893
6.0792
6.03874
5.99649
5.95238
5.90749
5.85719
5.79136
5.70192
5.56148
5.32602
533.708
519.021
5.24341
5.68269
5.97954
6.168
6.29851
6.39674
6.47042
6.52226
6.55492
6.57239
6.58027
6.5794
6.56983
6.55158
6.5247
6.48919
6.44518
6.39301
6.33476
6.27486
6.22222
6.1799
6.14269
6.1067
6.06943
6.02962
5.98702
5.94271
5.89106
5.82276
5.73014
5.58518
5.34286
533.784
519.027
5.2458
5.68295
5.97764
6.16457
6.29417
6.3918
6.46501
6.51648
6.549
6.56673
6.57546
6.57552
6.56695
6.54979
6.52405
6.48976
6.44711
6.3966
6.34062
6.28413
6.23655
6.19878
6.16566
6.13333
6.09924
6.06197
6.02104
5.97748
5.92466
5.85405
5.75835
5.60891
5.35974
533.861
519.033
5.24795
5.68287
5.97529
6.16064
6.28928
6.38627
6.45896
6.51001
6.54236
6.56035
6.56986
6.57078
6.56322
6.54718
6.52265
6.48967
6.44847
6.39972
6.3461
6.2931
6.2505
6.21711
6.18788
6.15908
6.1281
6.09336
6.0542
6.01161
5.95786
5.88515
5.78652
5.63266
5.37665
533.938
519.039
5.24984
5.68238
5.97246
6.15618
6.28384
6.38015
6.45226
6.50285
6.53504
6.55341
6.56346
6.56514
6.55853
6.54363
6.52039
6.48883
6.44922
6.40239
6.35132
6.30201
6.26424
6.23504
6.20954
6.1841
6.15615
6.12396
6.08667
6.04519
5.99065
5.91601
5.81457
5.65635
5.39354
534.016
519.045
5.25143
5.68147
5.96915
6.15122
6.27789
6.37351
6.44501
6.49508
6.52703
6.54573
6.55625
6.55861
6.55293
6.53918
6.51728
6.48724
6.44938
6.40467
6.3564
6.31114
6.27798
6.25271
6.23066
6.20835
6.18323
6.15343
6.11796
6.07788
6.02287
5.94655
5.84246
5.67997
5.41042
534.094
519.05
5.25263
5.68002
5.96524
6.14568
6.27137
6.36631
6.43719
6.48672
6.51839
6.53735
6.54827
6.55124
6.54643
6.53381
6.51328
6.48486
6.44892
6.40658
6.36146
6.32066
6.29193
6.27038
6.25152
6.23208
6.20959
6.18217
6.14886
6.1099
6.05448
5.97668
5.8701
5.70346
5.42725
534.172
519.056
5.25344
5.67805
5.96077
6.13958
6.26433
6.35861
6.42892
6.47793
6.50933
6.52853
6.53976
6.54323
6.53918
6.52761
6.50843
6.48166
6.44775
6.40797
6.36629
6.33034
6.30597
6.288
6.27219
6.25544
6.23544
6.21038
6.17936
6.14136
6.08556
6.0064
5.89748
5.7268
5.44404
534.249
519.061
5.25378
5.67545
5.95565
6.13285
6.25669
6.35037
6.42014
6.46867
6.49982
6.51926
6.53075
6.53465
6.53127
6.52067
6.50279
6.47769
6.44588
6.40884
6.37086
6.34005
6.32006
6.30565
6.29277
6.27856
6.26088
6.23806
6.2093
6.17221
6.11605
6.03564
5.92451
5.74993
5.46074
534.326
519.066
5.25364
5.67223
5.94987
6.12549
6.24846
6.3416
6.4109
6.45904
6.49002
6.50974
6.52147
6.5257
6.52287
6.51312
6.49643
6.47294
6.44325
6.40904
6.37496
6.34947
6.33397
6.32318
6.31325
6.30153
6.28607
6.26536
6.23878
6.20252
6.14601
6.06445
5.95121
5.77284
5.47734
534.403
519.07
5.25303
5.6684
5.94343
6.11746
6.23958
6.33222
6.40115
6.44899
6.47992
6.50001
6.51201
6.51654
6.51418
6.50517
6.48958
6.46762
6.44003
6.40871
6.37869
6.35861
6.34762
6.3405
6.33356
6.32431
6.311
6.29232
6.2678
6.23231
6.17546
6.0928
5.97755
5.79548
5.49379
534.479
519.075
5.25196
5.66396
5.93633
6.10875
6.23003
6.3222
6.39083
6.43851
6.46952
6.49013
6.50246
6.5073
6.50533
6.49695
6.48233
6.4618
6.43627
6.40788
6.38207
6.36739
6.36093
6.35754
6.35366
6.34693
6.33573
6.31899
6.29643
6.26161
6.20441
6.1207
6.00351
5.81784
5.51005
534.554
519.079
5.25052
5.65901
5.92861
6.09934
6.21974
6.31147
6.37986
6.42751
6.45881
6.48012
6.49294
6.49814
6.49657
6.48874
6.47499
6.4558
6.43228
6.40685
6.38539
6.3759
6.37385
6.37418
6.37342
6.36927
6.36025
6.34543
6.32476
6.29053
6.23293
6.14818
6.02908
5.83986
5.52605
534.629
519.083
5.24872
5.65354
5.92026
6.08921
6.20865
6.29991
6.36811
6.41587
6.44766
6.4699
6.48337
6.48906
6.48793
6.48064
6.46771
6.4498
6.42825
6.40585
6.38895
6.38431
6.38645
6.39041
6.39276
6.39123
6.3844
6.37148
6.35266
6.31897
6.26097
6.1752
6.05421
5.86147
5.54173
534.703
519.088
5.24673
5.64774
5.91141
6.07842
6.19678
6.28748
6.35552
6.40354
6.43608
6.45945
6.47378
6.48013
6.47955
6.47285
6.4607
6.444
6.42438
6.40502
6.39278
6.39266
6.39873
6.40618
6.41162
6.41279
6.40828
6.39736
6.38035
6.3471
6.28861
6.20179
6.07891
5.88266
5.55703
534.777
519.092
5.24457
5.64163
5.90207
6.06695
6.18405
6.27406
6.34189
6.39031
6.42403
6.44859
6.46399
6.47123
6.47141
6.46542
6.4541
6.43861
6.42088
6.40453
6.39692
6.40099
6.41073
6.42145
6.42986
6.43369
6.43147
6.42253
6.40747
6.37473
6.31579
6.22793
6.10316
5.9034
5.57192
534.849
519.096
5.24235
5.63534
5.89235
6.05488
6.17049
6.25961
6.32707
6.37587
6.41096
6.43694
6.45372
6.46221
6.46343
6.45836
6.44801
6.43376
6.41791
6.40454
6.40143
6.40939
6.42249
6.43627
6.44752
6.45398
6.45419
6.44756
6.43419
6.40189
6.3425
6.25361
6.12695
5.92368
5.58641
534.921
519.1
5.24016
5.62898
5.88236
6.0423
6.15618
6.24413
6.31101
6.36009
6.39662
6.42424
6.44275
6.45285
6.45549
6.45164
6.44247
6.42961
6.4157
6.40531
6.40651
6.41802
6.43416
6.45071
6.46462
6.47367
6.47642
6.47237
6.46048
6.42854
6.36868
6.27878
6.15024
5.94348
5.6005
534.991
519.104
5.23807
5.62265
5.87222
6.02934
6.14121
6.22769
6.29373
6.34296
6.38098
6.41044
6.43095
6.44302
6.44742
6.44515
6.43746
6.42622
6.41444
6.40715
6.41244
6.42719
6.44603
6.46505
6.48137
6.49287
6.49814
6.49674
6.4863
6.45468
6.39437
6.30349
6.1731
5.96291
5.61431
535.06
519.108
5.23614
5.61647
5.86207
6.01612
6.12567
6.21032
6.27516
6.32432
6.36375
6.39519
6.418
6.43239
6.43896
6.43866
6.43284
6.42358
6.41423
6.41032
6.41942
6.43707
6.45827
6.47942
6.49786
6.51161
6.51929
6.52051
6.51147
6.48016
6.41945
6.32763
6.19546
5.9819
5.62782
535.128
519.113
5.23449
5.61058
5.85208
6.00285
6.10977
6.19221
6.25548
6.30428
6.34502
6.3785
6.40378
6.42077
6.42988
6.43196
6.42845
6.42162
6.41517
6.41509
6.42774
6.44798
6.4712
6.49413
6.51438
6.5301
6.54001
6.54372
6.53605
6.50508
6.44401
6.35134
6.21746
6.00064
5.64118
535.193
519.117
5.23321
5.60513
5.84241
5.98967
6.09364
6.17345
6.2347
6.2828
6.32468
6.36017
6.38806
6.40791
6.41987
6.42472
6.42394
6.41998
6.41689
6.42109
6.43717
6.45982
6.48484
6.50929
6.53104
6.54845
6.56034
6.56636
6.55994
6.52928
6.46791
6.37444
6.23894
6.01898
5.6543
535.257
519.122
5.23239
5.6002
5.83317
5.97673
6.07745
6.15422
6.21298
6.25998
6.30274
6.34018
6.37076
6.39367
6.40879
6.41678
6.41912
6.41848
6.41921
6.42807
6.44759
6.4726
6.49928
6.52505
6.54806
6.56689
6.5805
6.58863
6.58335
6.55299
6.49135
6.39717
6.26014
6.03716
5.66734
535.319
519.127
5.23208
5.59585
5.82445
5.96414
6.06132
6.13462
6.19042
6.23589
6.27919
6.3184
6.35167
6.37779
6.3963
6.40772
6.41356
6.41664
6.42163
6.43547
6.45856
6.486
6.51436
6.54137
6.56548
6.58549
6.60056
6.61054
6.60621
6.57605
6.51415
6.41928
6.28079
6.05489
5.68008
535.38
519.132
5.23228
5.59207
5.81624
5.95196
6.04536
6.11481
6.16721
6.21073
6.25414
6.29486
6.33079
6.36023
6.38238
6.39753
6.40722
6.41442
6.42409
6.44312
6.4699
6.49987
6.52997
6.55823
6.58336
6.60441
6.62074
6.63236
6.62882
6.5988
6.53663
6.44112
6.30123
6.07248
5.69273
535.438
519.138
5.23285
5.5887
5.80846
5.94014
6.02958
6.09484
6.14343
6.18478
6.22754
6.26939
6.30784
6.34067
6.36664
6.38582
6.39973
6.41148
6.42634
6.45067
6.48125
6.51389
6.54586
6.57545
6.6016
6.62358
6.64098
6.65402
6.65106
6.62102
6.55851
6.46233
6.32104
6.08951
5.70492
535.496
519.144
5.23372
5.58565
5.80105
5.92868
6.01404
6.07482
6.11914
6.15777
6.19947
6.24214
6.28297
6.3192
6.34914
6.37261
6.39108
6.40784
6.42841
6.45801
6.49244
6.52785
6.56181
6.59285
6.62008
6.64302
6.66153
6.67575
6.67324
6.64311
6.58023
6.48337
6.34071
6.1064
5.71697
535.552
519.15
5.23468
5.58273
5.79383
5.91745
5.99867
6.05479
6.09456
6.13008
6.17026
6.21334
6.25628
6.2958
6.32975
6.3577
6.38105
6.40324
6.43002
6.46485
6.50316
6.54145
6.57756
6.61021
6.63869
6.66274
6.68254
6.69751
6.69515
6.66473
6.60134
6.50373
6.35966
6.12258
5.72839
535.608
519.156
5.23575
5.57994
5.78675
5.90635
5.98338
6.03473
6.06981
6.102
6.14035
6.1835
6.22822
6.27084
6.30874
6.34123
6.36965
6.39755
6.43086
6.47092
6.51316
6.55444
6.59285
6.62731
6.65726
6.68262
6.70387
6.71951
6.71716
6.68636
6.62242
6.52403
6.37852
6.13865
5.73965
535.661
519.162
5.23696
5.57725
5.7797
5.89518
5.96787
6.01432
6.04462
6.07344
6.10984
6.15284
6.19912
6.24461
6.28635
6.32337
6.35696
6.39078
6.43077
6.47606
6.52229
6.56667
6.60754
6.64397
6.67555
6.70238
6.72511
6.74131
6.7388
6.70746
6.64285
6.54357
6.39656
6.15386
5.75016
535.715
519.169
5.23855
5.57484
5.7727
5.88381
5.95192
5.99324
6.01875
6.04435
6.07896
6.12183
6.16951
6.21767
6.26306
6.3045
6.34327
6.38313
6.42975
6.4802
6.53043
6.57798
6.62141
6.65998
6.69342
6.72193
6.74633
6.76317
6.76052
6.72862
6.66331
6.56314
6.41459
6.16904
5.76055
535.766
519.176
5.24068
5.57279
5.7657
5.87206
5.93514
5.97092
5.99146
6.01403
6.04726
6.09036
6.13961
6.19043
6.23937
6.28518
6.32913
6.37514
6.42816
6.48361
6.53778
6.58848
6.63452
6.6753
6.71066
6.74091
6.767
6.78446
6.78158
6.74904
6.68295
6.58181
6.43167
6.18324
5.77009
535.819
519.184
5.24347
5.57116
5.75873
5.85989
5.9174
5.94705
5.96229
5.9819
6.01421
6.05806
6.10927
6.16293
6.21549
6.26569
6.31491
6.36721
6.42619
6.48635
6.54431
6.59814
6.64682
6.68989
6.72731
6.75948
6.78742
6.8056
6.80258
6.76945
6.70263
6.60055
6.44882
6.1975
5.77959
535.868
519.193
5.2469
5.5699
5.75178
5.84729
5.89859
5.92139
5.93078
5.94735
5.97909
6.0243
6.07806
6.13502
6.19148
6.24626
6.30089
6.35962
6.42417
6.48875
6.55029
6.60711
6.65835
6.70367
6.74312
6.77718
6.80694
6.82581
6.82261
6.78886
6.72128
6.61822
6.46489
6.21068
5.78814
535.919
519.202
5.25075
5.56891
5.7449
5.83444
5.87891
5.894
5.89676
5.90984
5.9411
5.98815
6.04509
6.10592
6.16672
6.22638
6.28664
6.35191
6.42179
6.49062
6.55564
6.6154
6.66919
6.71679
6.75834
6.79438
6.82605
6.84572
6.84244
6.80818
6.73992
6.63595
6.48107
6.22401
5.79675
535.965
519.212
5.25488
5.56818
5.73823
5.82162
5.85882
5.86533
5.86055
5.86939
5.89988
5.949
6.00967
6.07499
6.14067
6.20563
6.27183
6.34373
6.41886
6.49187
6.56032
6.62296
6.67924
6.72905
6.77262
6.81056
6.84405
6.86444
6.86106
6.82629
6.75736
6.65249
6.49607
6.2362
5.80437
536.015
519.221
5.25904
5.56756
5.73178
5.80896
5.83857
5.83599
5.82255
5.82612
5.85516
5.90622
5.97093
6.04128
6.11243
6.18321
6.25576
6.33441
6.41486
6.49211
6.56407
6.62968
6.68854
6.74063
6.78629
6.82618
6.86157
6.88277
6.8794
6.84422
6.77474
6.66907
6.5112
6.24859
5.8121
536.059
519.231
5.26325
5.56723
5.72584
5.79687
5.81867
5.8064
5.78362
5.78069
5.80733
5.85983
5.92858
6.00432
6.08145
6.15859
6.23802
6.32355
6.40943
6.49107
6.56665
6.63533
6.69681
6.75119
6.79891
6.84079
6.87783
6.89974
6.89634
6.86078
6.79077
6.68432
6.52504
6.25974
5.81878
536.107
519.24
5.26759
5.56724
5.72049
5.78549
5.79939
5.77703
5.74401
5.73367
5.7568
5.80998
5.88249
5.96374
6.04725
6.13128
6.21814
6.3106
6.40206
6.48829
6.56776
6.63975
6.7041
6.76101
6.81104
6.85518
6.89375
6.91635
6.913
6.87716
6.80672
6.69961
6.53902
6.27113
5.82563
536.15
519.249
5.2723
5.56781
5.71591
5.77502
5.78101
5.74831
5.70443
5.68563
5.70411
5.75705
5.83283
5.91955
6.00969
6.10105
6.19585
6.29532
6.39252
6.48356
6.56712
6.64264
6.71002
6.76957
6.82199
6.8684
6.90834
6.93153
6.92816
6.89204
6.8212
6.71344
6.55155
6.28111
5.83128
536.198
519.259
5.27759
5.569
5.71212
5.76549
5.76361
5.7204
5.6651
5.6369
5.64972
5.70138
5.7798
5.87174
5.96858
6.06752
6.17061
6.27722
6.3804
6.47657
6.56457
6.64396
6.71472
6.77725
6.83232
6.88117
6.92257
6.94637
6.94305
6.90672
6.83557
6.72725
6.56418
6.2913
5.83708
536.24
519.27
5.2834
5.5708
5.70912
5.75696
5.74732
5.69353
5.62638
5.58781
5.59379
5.64326
5.72367
5.82054
5.92406
6.03071