/*--------------------------------*- C++ -*----------------------------------*\
| =========                 |                                                 |
| \\      /  F ield         | OpenFOAM: The Open Source CFD Toolbox           |
|  \\    /   O peration     | Version:  v2006                                 |
|   \\  /    A nd           | Website:  www.openfoam.com                      |
|    \\/     M anipulation  |                                                 |
\*---------------------------------------------------------------------------*/
FoamFile
{
    version     2.0;
    format      ascii;
    class       surfaceScalarField;
    location    "51";
    object      phi;
}
// * * * * * * * * * * * * * * * * * * * * * * * * * * * * * * * * * * * * * //

dimensions      [1 0 -1 0 0 0 0];
oriented        oriented;


internalField   nonuniform List<scalar> 
228225
(
-5.25574e-06
-3.95711e-08
1.10566e-07
-4.78398e-06
-5.38958e-07
6.70945e-08
-4.00394e-06
-8.13486e-07
3.35123e-08
-3.05582e-06
-9.58918e-07
1.08247e-08
-2.04561e-06
-1.00858e-06
-1.61689e-09
-1.04188e-06
-9.91326e-07
-1.2386e-08
-9.28053e-08
-9.29532e-07
-1.95327e-08
7.73414e-07
-8.37752e-07
-2.84503e-08
1.53904e-06
-7.264e-07
-3.92032e-08
2.19403e-06
-6.03146e-07
-5.18239e-08
2.73428e-06
-4.73989e-07
-6.62384e-08
3.16048e-06
-3.43927e-07
-8.22597e-08
3.47758e-06
-2.17431e-07
-9.9651e-08
3.69466e-06
-9.90425e-08
-1.18024e-07
3.8262e-06
5.43888e-09
-1.36978e-07
3.8677e-06
1.14581e-07
-1.56099e-07
3.84324e-06
1.99235e-07
-1.74816e-07
3.77134e-06
2.64477e-07
-1.92642e-07
3.6705e-06
3.09938e-07
-2.09191e-07
3.5591e-06
3.35504e-07
-2.24219e-07
3.45505e-06
3.41574e-07
-2.37667e-07
3.37517e-06
3.29402e-07
-2.49672e-07
3.33393e-06
3.01591e-07
-2.60528e-07
3.34228e-06
2.62092e-07
-2.70627e-07
3.40605e-06
2.16403e-07
-2.80362e-07
3.52395e-06
1.7194e-07
-2.90044e-07
3.68528e-06
1.38283e-07
-2.99814e-07
3.86655e-06
1.28048e-07
-3.0953e-07
4.02595e-06
1.58898e-07
-3.18528e-07
4.09421e-06
2.56636e-07
-3.25124e-07
3.96184e-06
4.57683e-07
-3.25546e-07
3.47964e-06
7.94205e-07
-3.12179e-07
2.51311e-06
1.23815e-06
-2.71632e-07
1.13013e-06
1.57122e-06
-1.87835e-07
1.18996e-06
-5.87381e-08
-1.57116e-07
6.03353e-09
1.11422e-07
-2.12803e-07
-6.35851e-07
1.52042e-07
-1.82394e-07
-1.01976e-06
1.76047e-07
-6.98023e-08
-1.26204e-06
1.90334e-07
1.24488e-07
-1.40144e-06
1.98548e-07
3.92801e-07
-1.46177e-06
2.02194e-07
7.24913e-07
-1.46363e-06
2.02027e-07
1.10838e-06
-1.41989e-06
1.98706e-07
1.52908e-06
-1.33974e-06
1.9271e-07
1.97186e-06
-1.23019e-06
1.8436e-07
2.42109e-06
-1.09695e-06
1.7385e-07
2.86108e-06
-9.45074e-07
1.61274e-07
3.27645e-06
-7.79268e-07
1.46593e-07
3.65185e-06
-6.04147e-07
1.29825e-07
3.97088e-06
-4.2433e-07
1.10868e-07
4.24065e-06
-2.44641e-07
8.95941e-08
4.44593e-06
-7.17252e-08
6.58128e-08
4.57644e-06
9.50016e-08
3.90939e-08
4.63318e-06
2.45822e-07
7.49279e-09
4.61333e-06
3.74604e-07
-1.91675e-08
4.52568e-06
4.77586e-07
-4.82968e-08
4.38458e-06
5.51434e-07
-8.09085e-08
4.20777e-06
5.94482e-07
-1.16083e-07
4.01499e-06
6.07854e-07
-1.53032e-07
3.82559e-06
5.96669e-07
-1.90956e-07
3.65512e-06
5.71482e-07
-2.29204e-07
3.51031e-06
5.50328e-07
-2.67414e-07
3.38264e-06
5.60821e-07
-3.05299e-07
3.24155e-06
6.41504e-07
-3.4174e-07
3.03033e-06
8.40433e-07
-3.7282e-07
2.67261e-06
1.20469e-06
-3.89494e-07
2.09916e-06
1.74435e-06
-3.768e-07
1.31496e-06
2.34154e-06
-3.19038e-07
4.872e-07
2.61039e-06
-2.10797e-07
1.7427e-06
-6.42433e-08
5.79805e-08
-1.33432e-07
8.12698e-08
-4.12996e-08
-6.67564e-07
1.30647e-07
-1.47443e-07
-1.07612e-06
1.62315e-07
-2.01599e-07
-1.39189e-06
1.83828e-07
-1.81357e-07
-1.62149e-06
1.99632e-07
-7.92308e-08
-1.77599e-06
2.1194e-07
1.02942e-07
-1.86765e-06
2.21705e-07
3.586e-07
-1.90524e-06
2.29547e-07
6.78118e-07
-1.89519e-06
2.35792e-07
1.05017e-06
-1.84296e-06
2.40596e-07
1.46253e-06
-1.75343e-06
2.44004e-07
1.90242e-06
-1.63107e-06
2.45996e-07
2.35674e-06
-1.48019e-06
2.46505e-07
2.81207e-06
-1.30501e-06
2.4543e-07
3.25469e-06
-1.10965e-06
2.42617e-07
3.66979e-06
-8.97753e-07
2.37934e-07
4.04035e-06
-6.7354e-07
2.31185e-07
4.35568e-06
-4.42576e-07
2.22186e-07
4.60207e-06
-2.11342e-07
2.10726e-07
4.76719e-06
1.29263e-08
1.96504e-07
4.84094e-06
2.24633e-07
1.79162e-07
4.81699e-06
4.1713e-07
1.58221e-07
4.69332e-06
5.85129e-07
1.33004e-07
4.47541e-06
7.23235e-07
1.02511e-07
4.1775e-06
8.29356e-07
6.51965e-08
3.82322e-06
9.07574e-07
1.8151e-08
3.43505e-06
9.72661e-07
-3.42365e-08
3.03689e-06
1.05522e-06
-9.63409e-08
2.64113e-06
1.20563e-06
-1.68541e-07
2.23529e-06
1.48974e-06
-2.43658e-07
1.78841e-06
1.95749e-06
-3.06085e-07
1.27862e-06
2.58555e-06
-3.3145e-07
7.35125e-07
3.18281e-06
-2.97509e-07
2.51462e-07
3.29543e-06
-2.00627e-07
2.05615e-06
-6.05638e-08
6.73221e-08
-2.65134e-07
6.44736e-08
1.83658e-07
-8.98595e-07
1.13867e-07
3.58693e-07
-1.39664e-06
1.4532e-07
5.89285e-07
-1.78816e-06
1.65638e-07
8.68335e-07
-2.07986e-06
1.79107e-07
1.18303e-06
-2.27989e-06
1.88953e-07
1.5215e-06
-2.40301e-06
1.96711e-07
1.87553e-06
-2.46245e-06
2.03044e-07
2.2389e-06
-2.46717e-06
2.08478e-07
2.6064e-06
-2.42397e-06
2.13348e-07
2.97351e-06
-2.33856e-06
2.17852e-07
3.33601e-06
-2.21583e-06
2.2208e-07
3.68975e-06
-2.06013e-06
2.26033e-07
4.03038e-06
-1.87544e-06
2.29637e-07
4.3531e-06
-1.66531e-06
2.32772e-07
4.65168e-06
-1.43184e-06
2.35325e-07
4.91735e-06
-1.1765e-06
2.37092e-07
5.14013e-06
-9.03294e-07
2.37742e-07
5.31009e-06
-6.18396e-07
2.369e-07
5.41717e-06
-3.28576e-07
2.34218e-07
5.45579e-06
-4.35573e-08
2.29385e-07
5.40927e-06
2.41306e-07
2.22151e-07
5.2733e-06
5.08808e-07
2.12114e-07
5.0448e-06
7.5307e-07
1.98498e-07
4.72443e-06
9.69432e-07
1.80131e-07
4.31791e-06
1.15877e-06
1.55179e-07
3.8379e-06
1.33175e-06
1.20779e-07
3.30621e-06
1.51429e-06
7.24814e-08
2.75517e-06
1.75438e-06
2.15551e-09
2.20076e-06
2.11915e-06
-7.51411e-08
1.65969e-06
2.65895e-06
-1.60466e-07
1.13412e-06
3.33214e-06
-2.20948e-07
6.40931e-07
3.8997e-06
-2.23294e-07
2.20423e-07
3.87425e-06
-1.57415e-07
2.32373e-06
-4.55963e-08
8.21346e-08
-3.99953e-07
5.24126e-08
2.61243e-07
-1.17633e-06
9.8393e-08
5.14535e-07
-1.77795e-06
1.27781e-07
8.22737e-07
-2.24306e-06
1.4653e-07
1.17076e-06
-2.5862e-06
1.58185e-07
1.54303e-06
-2.81788e-06
1.65615e-07
1.92748e-06
-2.95845e-06
1.70895e-07
2.31614e-06
-3.02601e-06
1.74833e-07
2.70292e-06
-3.03185e-06
1.77834e-07
3.08264e-06
-2.98406e-06
1.80284e-07
3.45079e-06
-2.88928e-06
1.82494e-07
3.80335e-06
-2.75319e-06
1.84724e-07
4.13671e-06
-2.58075e-06
1.87178e-07
4.44748e-06
-2.3763e-06
1.89995e-07
4.73174e-06
-2.14293e-06
1.93249e-07
4.98464e-06
-1.88185e-06
1.96987e-07
5.20112e-06
-1.59429e-06
2.01175e-07
5.37583e-06
-1.28373e-06
2.05579e-07
5.50224e-06
-9.54764e-07
2.09807e-07
5.57223e-06
-6.1218e-07
2.13433e-07
5.57392e-06
-2.61429e-07
2.15999e-07
5.5071e-06
9.09018e-08
2.1703e-07
5.36298e-06
4.3675e-07
2.15973e-07
5.13609e-06
7.67579e-07
2.12169e-07
4.82363e-06
1.07692e-06
2.04764e-07
4.42565e-06
1.36402e-06
1.92529e-07
3.94576e-06
1.63793e-06
1.73512e-07
3.39438e-06
1.92178e-06
1.43709e-07
2.79421e-06
2.25814e-06
9.62613e-08
2.18141e-06
2.70678e-06
2.50658e-08
1.5875e-06
3.31049e-06
-5.76408e-08
1.03877e-06
4.0096e-06
-1.28545e-07
5.62686e-07
4.52885e-06
-1.52535e-07
1.83039e-07
4.3686e-06
-1.13673e-07
2.53992e-06
-3.14706e-08
7.94536e-08
-5.26037e-07
4.64279e-08
2.79163e-07
-1.4674e-06
9.12229e-08
5.68371e-07
-2.18758e-06
1.19989e-07
9.15947e-07
-2.72946e-06
1.38583e-07
1.2956e-06
-3.11627e-06
1.50335e-07
1.68807e-06
-3.36815e-06
1.5774e-07
2.08186e-06
-3.51506e-06
1.62705e-07
2.47036e-06
-3.58075e-06
1.66088e-07
2.84913e-06
-3.57893e-06
1.68174e-07
3.21463e-06
-3.51894e-06
1.69261e-07
3.5638e-06
-3.40819e-06
1.69643e-07
3.89391e-06
-3.25301e-06
1.69614e-07
4.20228e-06
-3.05871e-06
1.6947e-07
4.48539e-06
-2.82904e-06
1.69502e-07
4.73773e-06
-2.56542e-06
1.70013e-07
4.95347e-06
-2.26902e-06
1.71291e-07
5.12893e-06
-1.94339e-06
1.73493e-07
5.26167e-06
-1.59325e-06
1.76637e-07
5.34911e-06
-1.22303e-06
1.80667e-07
5.38822e-06
-8.36864e-07
1.85408e-07
5.37511e-06
-4.39048e-07
1.90553e-07
5.30517e-06
-3.50094e-08
1.95656e-07
5.17085e-06
3.70723e-07
2.00134e-07
4.96542e-06
7.69528e-07
2.03274e-07
4.6825e-06
1.15543e-06
2.04193e-07
4.31832e-06
1.52627e-06
2.01729e-07
3.87298e-06
1.88893e-06
1.9415e-07
3.35216e-06
2.26456e-06
1.77861e-07
2.77122e-06
2.69272e-06
1.46216e-07
2.15879e-06
3.22643e-06
9.27075e-08
1.55579e-06
3.89531e-06
1.82425e-08
1.00078e-06
4.61635e-06
-5.14554e-08
5.30884e-07
5.086e-06
-8.66279e-08
1.66626e-07
4.80409e-06
-7.01009e-08
2.7256e-06
-1.72649e-08
8.67503e-08
-6.5483e-07
4.174e-08
3.01274e-07
-1.76695e-06
8.48063e-08
6.04467e-07
-2.60368e-06
1.12714e-07
9.60281e-07
-3.21643e-06
1.30972e-07
1.33926e-06
-3.63803e-06
1.42639e-07
1.72385e-06
-3.90276e-06
1.49916e-07
2.10447e-06
-4.05022e-06
1.54439e-07
2.47616e-06
-4.10971e-06
1.57175e-07
2.83577e-06
-4.0971e-06
1.58452e-07
3.1808e-06
-4.02264e-06
1.58576e-07
3.50898e-06
-3.89435e-06
1.57884e-07
3.81808e-06
-3.7189e-06
1.56697e-07
4.1048e-06
-3.50086e-06
1.55321e-07
4.36343e-06
-3.24185e-06
1.54062e-07
4.58757e-06
-2.94288e-06
1.53205e-07
4.77308e-06
-2.6076e-06
1.52953e-07
4.91756e-06
-2.24145e-06
1.53456e-07
5.0191e-06
-1.84979e-06
1.54863e-07
5.0763e-06
-1.43766e-06
1.57289e-07
5.08809e-06
-1.00959e-06
1.60783e-07
5.05325e-06
-5.69688e-07
1.65311e-07
4.96935e-06
-1.21995e-07
1.70701e-07
4.83422e-06
3.29033e-07
1.7663e-07
4.64251e-06
7.78434e-07
1.82599e-07
4.38791e-06
1.2219e-06
1.87925e-07
4.06378e-06
1.65856e-06
1.91626e-07
3.66513e-06
2.09552e-06
1.91866e-07
3.19139e-06
2.5531e-06
1.85026e-07
2.65069e-06
3.06804e-06
1.65244e-07
2.06557e-06
3.68529e-06
1.26212e-07
1.47605e-06
4.41762e-06
6.73029e-08
9.36903e-07
5.15546e-06
3.78253e-10
4.84715e-07
5.57488e-06
-3.59844e-08
1.44935e-07
5.17985e-06
-3.48015e-08
2.87853e-06
-6.17353e-09
8.27291e-08
-7.76549e-07
3.85337e-08
2.91216e-07
-2.05575e-06
8.02315e-08
5.84113e-07
-3.00396e-06
1.07299e-07
9.24289e-07
-3.68183e-06
1.25016e-07
1.28326e-06
-4.13351e-06
1.36281e-07
1.64483e-06
-4.40758e-06
1.43083e-07
2.00085e-06
-4.55317e-06
1.46828e-07
2.34778e-06
-4.60518e-06
1.48463e-07
2.6835e-06
-4.58132e-06
1.48417e-07
3.00616e-06
-4.4925e-06
1.47095e-07
3.31387e-06
-4.34712e-06
1.44933e-07
3.60393e-06
-4.15141e-06
1.42317e-07
3.87096e-06
-3.90762e-06
1.39606e-07
4.10799e-06
-3.61607e-06
1.37073e-07
4.31031e-06
-3.28024e-06
1.34928e-07
4.47514e-06
-2.90591e-06
1.33369e-07
4.60031e-06
-2.49933e-06
1.326e-07
4.68434e-06
-2.06677e-06
1.32822e-07
4.72642e-06
-1.61412e-06
1.34245e-07
4.72622e-06
-1.14659e-06
1.37049e-07
4.68359e-06
-6.6851e-07
1.41294e-07
4.59813e-06
-1.83634e-07
1.46932e-07
4.46855e-06
3.04604e-07
1.53835e-07
4.292e-06
7.93085e-07
1.61711e-07
4.06362e-06
1.28008e-06
1.7001e-07
3.77665e-06
1.76759e-06
1.77745e-07
3.42374e-06
2.26512e-06
1.83107e-07
2.99978e-06
2.79404e-06
1.82855e-07
2.50689e-06
3.38898e-06
1.71839e-07
1.96177e-06
4.0862e-06
1.44197e-07
1.40195e-06
4.87946e-06
9.81176e-08
8.83128e-07
5.63129e-06
4.33882e-08
4.5135e-07
6.00557e-06
1.8389e-09
1.31575e-07
5.50815e-06
-7.30865e-09
3.00921e-06
2.74597e-09
8.03552e-08
-8.91677e-07
3.44931e-08
2.78526e-07
-2.32745e-06
7.32869e-08
5.53324e-07
-3.37778e-06
9.88282e-08
8.69925e-07
-4.11434e-06
1.15737e-07
1.20228e-06
-4.59245e-06
1.26434e-07
1.53624e-06
-4.87425e-06
1.32577e-07
1.86526e-06
-5.0177e-06
1.35402e-07
2.18685e-06
-5.06281e-06
1.35935e-07
2.49925e-06
-5.02861e-06
1.34779e-07
2.80061e-06
-4.92644e-06
1.32462e-07
3.08868e-06
-4.76477e-06
1.29465e-07
3.35877e-06
-4.5478e-06
1.26181e-07
3.60403e-06
-4.27584e-06
1.22841e-07
3.8195e-06
-3.95127e-06
1.19628e-07
4.00199e-06
-3.57955e-06
1.16713e-07
4.1489e-06
-3.16723e-06
1.14289e-07
4.25843e-06
-2.72153e-06
1.1255e-07
4.32958e-06
-2.24977e-06
1.11724e-07
4.36207e-06
-1.75881e-06
1.12054e-07
4.35609e-06
-1.2545e-06
1.13748e-07
4.31202e-06
-7.41545e-07
1.16949e-07
4.23002e-06
-2.23583e-07
1.21787e-07
4.10956e-06
2.96549e-07
1.2834e-07
3.94874e-06
8.17185e-07
1.36536e-07
3.74356e-06
1.33904e-06
1.46029e-07
3.48758e-06
1.86737e-06
1.56008e-07
3.17258e-06
2.41507e-06
1.64866e-07
2.79111e-06
3.00568e-06
1.69688e-07
2.34173e-06
3.67242e-06
1.6584e-07
1.83743e-06
4.44266e-06
1.47841e-07
1.31335e-06
5.29062e-06
1.13084e-07
8.24969e-07
6.05194e-06
6.81556e-08
4.15637e-07
6.38486e-06
3.08178e-08
1.18349e-07
5.79333e-06
1.33233e-08
3.11996e-06
9.43918e-09
7.20716e-08
-9.95648e-07
3.16717e-08
2.51713e-07
-2.57655e-06
6.90741e-08
5.02112e-07
-3.7228e-06
9.44058e-08
7.91569e-07
-4.51545e-06
1.11543e-07
1.0963e-06
-5.01973e-06
1.22447e-07
1.4034e-06
-5.30997e-06
1.28496e-07
1.70752e-06
-5.45277e-06
1.30801e-07
2.00655e-06
-5.49241e-06
1.30422e-07
2.29886e-06
-5.44925e-06
1.28204e-07
2.58247e-06
-5.33495e-06
1.24799e-07
2.85377e-06
-5.15694e-06
1.2078e-07
3.10669e-06
-4.91733e-06
1.16514e-07
3.33564e-06
-4.61712e-06
1.12233e-07
3.53692e-06
-4.26078e-06
1.08128e-07
3.70729e-06
-3.85439e-06
1.04354e-07
3.84433e-06
-3.40544e-06
1.01061e-07
3.94639e-06
-2.92218e-06
9.84706e-08
4.01262e-06
-2.41295e-06
9.68285e-08
4.04288e-06
-1.88551e-06
9.63251e-08
4.03755e-06
-1.34641e-06
9.7105e-08
3.99729e-06
-8.00751e-07
9.93193e-08
3.92261e-06
-2.52231e-07
1.03161e-07
3.81334e-06
2.96833e-07
1.08811e-07
3.66804e-06
8.45959e-07
1.16349e-07
3.48324e-06
1.39801e-06
1.25646e-07
3.25289e-06
1.96138e-06
1.36163e-07
2.96861e-06
2.55255e-06
1.46625e-07
2.62192e-06
3.19768e-06
1.54545e-07
2.20943e-06
3.92902e-06
1.55808e-07
1.74139e-06
4.76543e-06
1.45284e-07
1.25012e-06
5.6623e-06
1.1977e-07
7.88578e-07
6.43069e-06
8.32353e-08
3.97531e-07
6.7275e-06
4.91759e-08
1.13353e-07
6.05116e-06
2.75518e-08
3.22168e-06
1.34672e-08
6.67869e-08
-1.09182e-06
2.91119e-08
2.33151e-07
-2.80824e-06
6.50859e-08
4.65111e-07
-4.04504e-06
9.00737e-08
7.33821e-07
-4.89159e-06
1.07256e-07
1.01726e-06
-5.42156e-06
1.18243e-07
1.30331e-06
-5.72045e-06
1.24286e-07
1.5876e-06
-5.86367e-06
1.26491e-07
1.86786e-06
-5.89868e-06
1.25887e-07
2.14256e-06
-5.84754e-06
1.23471e-07
2.40931e-06
-5.72172e-06
1.19914e-07
2.66355e-06
-5.527e-06
1.15701e-07
2.90008e-06
-5.26506e-06
1.11103e-07
3.11511e-06
-4.93865e-06
1.06399e-07
3.30497e-06
-4.55251e-06
1.01762e-07
3.46658e-06
-4.11342e-06
9.73193e-08
3.59756e-06
-3.62976e-06
9.32433e-08
3.69623e-06
-3.1107e-06
8.97395e-08
3.76158e-06
-2.56545e-06
8.70344e-08
3.79323e-06
-2.0026e-06
8.53078e-08
3.79134e-06
-1.42936e-06
8.47197e-08
3.75636e-06
-8.51398e-07
8.54784e-08
3.68869e-06
-2.72564e-07
8.78387e-08
3.58824e-06
3.05062e-07
9.20544e-08
3.45383e-06
8.81871e-07
9.83235e-08
3.28243e-06
1.46253e-06
1.0669e-07
3.06856e-06
2.05822e-06
1.16862e-07
2.80433e-06
2.68871e-06
1.27896e-07
2.48141e-06
3.38274e-06
1.37724e-07
2.09589e-06
4.17174e-06
1.42714e-07
1.65659e-06
5.0667e-06
1.3805e-07
1.19326e-06
6.00574e-06
1.20081e-07
7.55256e-07
6.7784e-06
9.07291e-08
3.80757e-07
7.04274e-06
6.00311e-08
1.08645e-07
6.28834e-06
3.61314e-08
3.31647e-06
1.56714e-08
6.06304e-08
-1.18042e-06
2.77384e-08
2.143e-07
-3.02556e-06
6.34355e-08
4.30594e-07
-4.35022e-06
8.86185e-08
6.82818e-07
-5.2501e-06
1.0605e-07
9.50147e-07
-5.80628e-06
1.17214e-07
1.22089e-06
-6.11467e-06
1.23356e-07
1.4905e-06
-6.259e-06
1.25618e-07
1.75651e-06
-6.28983e-06
1.25052e-07
2.01727e-06
-6.23111e-06
1.22688e-07
2.26997e-06
-6.09376e-06
1.19227e-07
2.51042e-06
-5.88263e-06
1.15071e-07
2.73468e-06
-5.59998e-06
1.10548e-07
2.9391e-06
-5.24905e-06
1.05874e-07
3.12034e-06
-4.83502e-06
1.01192e-07
3.27556e-06
-4.36534e-06
9.6606e-08
3.40257e-06
-3.84912e-06
9.22672e-08
3.49974e-06
-3.29632e-06
8.83457e-08
3.56602e-06
-2.71687e-06
8.5028e-08
3.60085e-06
-2.12002e-06
8.24647e-08
3.60412e-06
-1.51356e-06
8.07982e-08
3.57591e-06
-9.03571e-07
8.02364e-08
3.51628e-06
-2.94124e-07
8.10399e-08
3.42484e-06
3.12829e-07
8.35023e-08
3.30036e-06
9.18271e-07
8.79122e-08
3.14003e-06
1.52821e-06
9.44772e-08
2.93882e-06
2.15609e-06
1.03162e-07
2.68947e-06
2.8245e-06
1.13385e-07
2.38417e-06
3.56436e-06
1.23549e-07
2.01901e-06
4.40627e-06
1.30544e-07
1.6018e-06
5.35403e-06
1.29907e-07
1.15983e-06
6.33023e-06
1.17674e-07
7.38723e-07
7.10583e-06
9.41275e-08
3.74588e-07
7.34112e-06
6.65183e-08
1.08e-07
6.51461e-06
4.15091e-08
3.40927e-06
1.69898e-08
5.79089e-08
-1.26504e-06
2.64278e-08
2.04933e-07
-3.23422e-06
6.13991e-08
4.12351e-07
-4.64411e-06
8.62569e-08
6.5454e-07
-5.596e-06
1.03526e-07
9.11292e-07
-6.17783e-06
1.14637e-07
1.17128e-06
-6.49563e-06
1.20837e-07
1.4299e-06
-6.64103e-06
1.23287e-07
1.68479e-06
-6.66788e-06
1.23043e-07
1.93392e-06
-6.60139e-06
1.21032e-07
2.17456e-06
-6.45242e-06
1.17912e-07
2.40327e-06
-6.22555e-06
1.14101e-07
2.61663e-06
-5.92336e-06
1.09914e-07
2.81125e-06
-5.54929e-06
1.05527e-07
2.98409e-06
-5.109e-06
1.01043e-07
3.13265e-06
-4.61055e-06
9.65598e-08
3.25497e-06
-4.06376e-06
9.22086e-08
3.34964e-06
-3.47923e-06
8.81404e-08
3.41564e-06
-2.86749e-06
8.45167e-08
3.45228e-06
-2.23824e-06
8.14671e-08
3.45917e-06
-1.59969e-06
7.9117e-08
3.43599e-06
-9.5818e-07
7.76524e-08
3.38231e-06
-3.1791e-07
7.73132e-08
3.29737e-06
3.19225e-07
7.83854e-08
3.1797e-06
9.54579e-07
8.11883e-08
3.02658e-06
1.59513e-06
8.60216e-08
2.8334e-06
2.25606e-06
9.30352e-08
2.59363e-06
2.96215e-06
1.01955e-07
2.30026e-06
3.74597e-06
1.11625e-07
1.94988e-06
4.6371e-06
1.19467e-07
1.54984e-06
5.63266e-06
1.21434e-07
1.12547e-06
6.64137e-06
1.13428e-07
7.19014e-07
7.41821e-06
9.45116e-08
3.64946e-07
7.62622e-06
6.97191e-08
1.05263e-07
6.73099e-06
4.44604e-08
3.4987e-06
1.76018e-08
5.55914e-08
-1.34673e-06
2.57526e-08
1.98115e-07
-3.43754e-06
6.05884e-08
3.99704e-07
-4.93125e-06
8.53959e-08
6.34884e-07
-5.93394e-06
1.02588e-07
8.83729e-07
-6.54048e-06
1.1363e-07
1.13532e-06
-6.86722e-06
1.19831e-07
1.38525e-06
-7.01351e-06
1.22405e-07
1.63119e-06
-7.03639e-06
1.22439e-07
1.87085e-06
-6.96197e-06
1.20806e-07
2.10152e-06
-6.80132e-06
1.18127e-07
2.32009e-06
-6.55903e-06
1.14812e-07
2.52331e-06
-6.23781e-06
1.1114e-07
2.70817e-06
-5.84149e-06
1.07252e-07
2.87211e-06
-5.37625e-06
1.03217e-07
3.01313e-06
-4.85078e-06
9.91152e-08
3.12976e-06
-4.27553e-06
9.50568e-08
3.22091e-06
-3.66164e-06
9.11631e-08
3.28576e-06
-3.02e-06
8.75606e-08
3.32365e-06
-2.36059e-06
8.43491e-08
3.33398e-06
-1.69176e-06
8.16256e-08
3.31606e-06
-1.01993e-06
7.95395e-08
3.26897e-06
-3.49264e-07
7.82928e-08
3.1914e-06
3.1849e-07
7.81442e-08
3.08142e-06
9.84979e-07
7.94124e-08
2.93605e-06
1.65786e-06
8.24495e-08
2.75082e-06
2.35358e-06
8.75397e-08
2.51963e-06
3.0985e-06
9.46642e-08
2.23618e-06
3.92622e-06
1.03069e-07
1.89762e-06
4.86488e-06
1.10703e-07
1.51111e-06
5.90522e-06
1.1399e-07
1.1005e-06
6.9433e-06
1.08859e-07
7.05354e-07
7.72031e-06
9.34778e-08
3.58842e-07
7.90237e-06
7.11007e-08
1.0379e-07
6.94115e-06
4.60419e-08
3.58638e-06
1.78523e-08
5.54418e-08
-1.42739e-06
2.49345e-08
1.96599e-07
-3.63796e-06
5.90281e-08
3.95248e-07
-5.21332e-06
8.32104e-08
6.258e-07
-6.26456e-06
9.98927e-08
8.68542e-07
-6.89397e-06
1.10598e-07
1.11303e-06
-7.22852e-06
1.16668e-07
1.35513e-06
-7.37505e-06
1.19316e-07
1.5926e-06
-7.39358e-06
1.19607e-07
1.82313e-06
-7.31099e-06
1.1837e-07
2.04407e-06
-7.13853e-06
1.16174e-07
2.25246e-06
-6.88091e-06
1.13383e-07
2.44535e-06
-6.54106e-06
1.10253e-07
2.62015e-06
-6.12329e-06
1.06908e-07
2.77477e-06
-5.63436e-06
1.03402e-07
2.90768e-06
-5.08359e-06
9.98046e-08
3.01782e-06
-4.48197e-06
9.62073e-08
3.10443e-06
-3.84105e-06
9.27079e-08
3.16688e-06
-3.17196e-06
8.94044e-08
3.20457e-06
-2.48476e-06
8.63728e-08
3.21679e-06
-1.78778e-06
8.36846e-08
3.20257e-06
-1.08729e-06
8.14502e-08
3.16058e-06
-3.87235e-07
7.98228e-08
3.08899e-06
3.10912e-07
7.90108e-08
2.9854e-06
1.0091e-06
7.92924e-08
2.84658e-06
1.7155e-06
8.10121e-08
2.66801e-06
2.44745e-06
8.45144e-08
2.44398e-06
3.23241e-06
8.99495e-08
2.1688e-06
4.10437e-06
9.68863e-08
1.84029e-06
5.08956e-06
1.03751e-07
1.4657e-06
6.17235e-06
1.07469e-07
1.06797e-06
7.23706e-06
1.04152e-07
6.84515e-07
8.01279e-06
9.13945e-08
3.47396e-07
8.16915e-06
7.10509e-08
9.99192e-08
7.14327e-06
4.6479e-08
3.67029e-06
1.77353e-08
5.50336e-08
-1.50712e-06
2.44471e-08
1.94968e-07
-3.83632e-06
5.81458e-08
3.91181e-07
-5.49169e-06
8.19246e-08
6.17616e-07
-6.58939e-06
9.82208e-08
8.5467e-07
-7.23981e-06
1.08636e-07
1.09238e-06
-7.58092e-06
1.14567e-07
1.3269e-06
-7.72696e-06
1.17255e-07
1.55608e-06
-7.74063e-06
1.17752e-07
1.77764e-06
-7.64952e-06
1.16853e-07
1.989e-06
-7.46509e-06
1.15085e-07
2.18741e-06
-7.1922e-06
1.12785e-07
2.37022e-06
-6.83415e-06
1.10186e-07
2.53524e-06
-6.39579e-06
1.07399e-07
2.68084e-06
-5.88451e-06
1.04462e-07
2.80594e-06
-5.31021e-06
1.01431e-07
2.90988e-06
-4.68437e-06
9.83739e-08
2.99222e-06
-4.01883e-06
9.53575e-08
3.05257e-06
-3.32486e-06
9.24482e-08
3.09045e-06
-2.61244e-06
8.96962e-08
3.10507e-06
-1.88967e-06
8.71484e-08
3.09524e-06
-1.16247e-06
8.48818e-08
3.05922e-06
-4.34359e-07
8.301e-08
2.99463e-06
2.93656e-07
8.16975e-08
2.89847e-06
1.02391e-06
8.11809e-08
2.76702e-06
1.765e-06
8.17798e-08
2.59556e-06
2.53487e-06
8.38571e-08
2.37857e-06
3.36157e-06
8.76669e-08
2.11087e-06
4.27891e-06
9.3017e-08
1.79097e-06
5.31064e-06
9.8736e-08
1.42647e-06
6.43464e-06
1.0223e-07
1.03978e-06
7.52404e-06
9.98908e-08
6.66623e-07
8.29737e-06
8.89837e-08
3.37972e-07
8.42823e-06
7.02733e-08
9.69981e-08
7.33906e-06
4.62888e-08
3.75154e-06
1.74404e-08
5.57725e-08
-1.58692e-06
2.37488e-08
1.96144e-07
-4.03342e-06
5.64812e-08
3.91157e-07
-5.76624e-06
7.93368e-08
6.14218e-07
-6.90747e-06
9.48442e-08
8.45977e-07
-7.57642e-06
1.04703e-07
1.07712e-06
-7.92255e-06
1.10346e-07
1.30422e-06
-8.06718e-06
1.12997e-07
1.52524e-06
-8.07543e-06
1.13662e-07
1.73798e-06
-7.97545e-06
1.13077e-07
1.93993e-06
-7.77888e-06
1.11725e-07
2.12854e-06
-7.49083e-06
1.09913e-07
2.30147e-06
-7.11502e-06
1.07851e-07
2.45687e-06
-6.65694e-06
1.05645e-07
2.59354e-06
-6.12458e-06
1.03328e-07
2.71075e-06
-5.52845e-06
1.00942e-07
2.80819e-06
-4.88043e-06
9.85359e-08
2.88571e-06
-4.19259e-06
9.61521e-08
2.94313e-06
-3.47621e-06
9.38299e-08
2.98008e-06
-2.74109e-06
9.15956e-08
2.9958e-06
-1.99497e-06
8.94707e-08
2.98898e-06
-1.24327e-06
8.74971e-08
2.95758e-06
-4.88848e-07
8.5745e-08
2.89882e-06
2.67936e-07
8.4328e-08
2.80918e-06
1.02995e-06
8.34276e-08
2.68446e-06
1.80623e-06
8.33168e-08
2.51967e-06
2.61514e-06
8.43418e-08
2.30932e-06
3.48494e-06
8.68067e-08
2.04867e-06
4.44871e-06
9.06868e-08
1.73689e-06
5.52719e-06
9.51374e-08
1.38208e-06
6.69145e-06
9.80106e-08
1.0064e-06
7.80383e-06
9.60423e-08
6.44237e-07
8.57355e-06
8.6374e-08
3.25453e-07
8.67874e-06
6.89486e-08
9.28021e-08
7.52718e-06
4.55971e-08
3.82901e-06
1.69875e-08
5.56876e-08
-1.66612e-06
2.3242e-08
1.95358e-07
-4.22854e-06
5.52376e-08
3.88204e-07
-6.03664e-06
7.73484e-08
6.07126e-07
-7.21878e-06
9.21938e-08
8.33046e-07
-7.90407e-06
1.01563e-07
1.05728e-06
-8.25385e-06
1.06928e-07
1.27676e-06
-8.39629e-06
1.09508e-07
1.48956e-06
-8.39862e-06
1.10276e-07
1.69354e-06
-8.28947e-06
1.09929e-07
1.88633e-06
-8.08068e-06
1.08914e-07
2.06556e-06
-7.77767e-06
1.07518e-07
2.22921e-06
-7.3847e-06
1.05934e-07
2.37581e-06
-6.90789e-06
1.04259e-07
2.50452e-06
-6.3559e-06
1.0252e-07
2.61498e-06
-5.73974e-06
1.00746e-07
2.70713e-06
-5.07163e-06
9.89602e-08
2.78105e-06
-4.36378e-06
9.71821e-08
2.83673e-06
-3.62739e-06
9.54246e-08
2.87385e-06
-2.87199e-06
9.36916e-08
2.89163e-06
-2.10485e-06
9.19843e-08
2.88863e-06
-1.3307e-06
9.03191e-08
2.86255e-06
-5.51631e-07
8.87348e-08
2.81015e-06
2.32879e-07
8.73061e-08
2.7274e-06
1.02638e-06
8.61678e-08
2.60958e-06
1.83833e-06
8.55432e-08
2.45138e-06
2.68742e-06
8.57431e-08
2.2473e-06
3.60177e-06
8.70804e-08
1.99301e-06
4.61323e-06
8.96321e-08
1.68835e-06
5.73896e-06
9.27997e-08
1.34205e-06
6.94293e-06
9.48196e-08
9.76278e-07
8.07695e-06
9.27929e-08
6.24232e-07
8.84208e-06
8.38791e-08
3.14632e-07
8.92156e-06
6.74238e-08
8.94167e-08
7.70877e-06
4.4679e-08
3.90357e-06
1.6491e-08
5.65902e-08
-1.74552e-06
2.25271e-08
1.96764e-07
-4.42225e-06
5.33007e-08
3.88372e-07
-6.30269e-06
7.42388e-08
6.03797e-07
-7.52247e-06
8.80988e-08
8.24305e-07
-8.22151e-06
9.67804e-08
1.04191e-06
-8.57337e-06
1.01777e-07
1.25396e-06
-8.71272e-06
1.04259e-07
1.45869e-06
-8.7086e-06
1.05133e-07
1.65406e-06
-8.58997e-06
1.05032e-07
1.83784e-06
-8.36893e-06
1.04364e-07
2.0079e-06
-8.05122e-06
1.03391e-07
2.1625e-06
-7.64169e-06
1.02294e-07
2.30051e-06
-7.14717e-06
1.01168e-07
2.42141e-06
-6.57693e-06
1.0004e-07
2.52512e-06
-5.94246e-06
9.89247e-08
2.61183e-06
-5.25625e-06
9.78312e-08
2.68179e-06
-4.53058e-06
9.67567e-08
2.73513e-06
-3.77651e-06
9.56907e-08
2.77164e-06
-3.00321e-06
9.4614e-08
2.79056e-06
-2.21739e-06
9.35038e-08
2.7904e-06
-1.42301e-06
9.23471e-08
2.76867e-06
-6.21182e-07
9.11476e-08
2.7218e-06
1.89653e-07
8.99388e-08
2.64529e-06
1.01391e-06
8.88066e-08
2.53393e-06
1.8616e-06
8.79227e-08
2.38203e-06
2.75158e-06
8.75549e-08
2.184e-06
3.71161e-06
8.80051e-08
1.93584e-06
4.77182e-06
8.94123e-08
1.63805e-06
5.94528e-06
9.13639e-08
1.30004e-06
7.1885e-06
9.24238e-08
9.44126e-07
8.34294e-06
9.0053e-08
6.02447e-07
9.10257e-06
8.15305e-08
3.02596e-07
9.15624e-06
6.57901e-08
8.55343e-08
7.88322e-06
4.36227e-08
3.97473e-06
1.59783e-08
5.65097e-08
-1.82424e-06
2.19196e-08
1.95881e-07
-4.61347e-06
5.16019e-08
3.85146e-07
-6.56363e-06
7.14859e-08
5.96271e-07
-7.81822e-06
8.44563e-08
8.10906e-07
-8.5288e-06
9.25033e-08
1.02172e-06
-8.88145e-06
9.71341e-08
1.2264e-06
-9.01702e-06
9.94836e-08
1.42331e-06
-9.00603e-06
1.00404e-07
1.6105e-06
-8.87775e-06
1.00483e-07
1.78587e-06
-8.6445e-06
1.00093e-07
1.94753e-06
-8.31245e-06
9.94784e-08
2.09401e-06
-7.88708e-06
9.88084e-08
2.22451e-06
-7.37592e-06
9.81711e-08
2.33877e-06
-6.78886e-06
9.75896e-08
2.43695e-06
-6.13779e-06
9.70673e-08
2.51943e-06
-5.43541e-06
9.65966e-08
2.5866e-06
-4.69399e-06
9.61569e-08
2.63866e-06
-3.92438e-06
9.57193e-08
2.67544e-06
-3.13533e-06
9.52476e-08
2.69616e-06
-2.33291e-06
9.47021e-08
2.69924e-06
-1.52025e-06
9.40493e-08
2.68202e-06
-6.9735e-07
9.32666e-08
2.64063e-06
1.38547e-07
9.23521e-08
2.57015e-06
9.929e-07
9.13458e-08
2.46489e-06
1.87631e-06
9.03648e-08
2.31884e-06
2.80783e-06
8.96238e-08
2.12632e-06
3.81456e-06
8.93929e-08
1.88364e-06
4.9245e-06
8.98372e-08
1.59195e-06
6.14617e-06
9.06774e-08
1.2614e-06
7.42828e-06
9.07482e-08
9.14525e-07
8.60208e-06
8.78499e-08
5.82533e-07
9.35544e-06
7.94456e-08
2.91842e-07
9.38333e-06
6.42033e-08
8.22327e-08
8.05126e-06
4.25589e-08
4.04303e-06
1.55032e-08
5.72194e-08
-1.90287e-06
2.11387e-08
1.96717e-07
-4.80255e-06
4.93537e-08
3.84305e-07
-6.81928e-06
6.78671e-08
5.91629e-07
-8.10543e-06
7.9723e-08
8.00819e-07
-8.82515e-06
8.70154e-08
1.00523e-06
-9.17724e-06
9.12445e-08
1.20291e-06
-9.30828e-06
9.34682e-08
1.39233e-06
-9.29002e-06
9.44549e-08
1.57165e-06
-9.15192e-06
9.47297e-08
1.73895e-06
-8.90653e-06
9.46306e-08
1.89252e-06
-8.5605e-06
9.43833e-08
2.03118e-06
-8.11997e-06
9.4147e-08
2.15436e-06
-7.59319e-06
9.40087e-08
2.26207e-06
-6.99064e-06
9.39909e-08
2.35467e-06
-6.32457e-06
9.40879e-08
2.43272e-06
-5.60783e-06
9.42795e-08
2.49673e-06
-4.85262e-06
9.45292e-08
2.54702e-06
-4.06955e-06
9.479e-08
2.58347e-06
-3.26688e-06
9.5007e-08
2.60533e-06
-2.45e-06
9.51214e-08
2.61096e-06
-1.62106e-06
9.50776e-08
2.59756e-06
-7.78907e-07
9.48268e-08
2.56102e-06
8.06069e-08
9.43342e-08
2.49601e-06
9.64143e-07
9.35962e-08
2.39645e-06
1.88303e-06
9.26777e-08
2.25592e-06
2.85642e-06
9.17395e-08
2.06868e-06
3.9106e-06
9.10124e-08
1.83126e-06
5.07107e-06
9.06672e-08
1.54548e-06
6.3413e-06
9.05205e-08
1.2222e-06
7.66189e-06
8.96295e-08
8.84251e-07
8.85401e-06
8.61045e-08
5.61956e-07
9.6004e-06
7.76266e-08
2.80595e-07
9.60254e-06
6.27117e-08
7.87042e-08
8.21257e-06
4.15354e-08
4.10819e-06
1.50776e-08
5.72117e-08
-1.98077e-06
2.04058e-08
1.95957e-07
-4.98874e-06
4.72114e-08
3.8127e-07
-7.06922e-06
6.4424e-08
5.8451e-07
-8.38407e-06
7.5232e-08
7.88291e-07
-9.11088e-06
8.18087e-08
9.86585e-07
-9.4613e-06
8.5637e-08
1.1777e-06
-9.58723e-06
8.77053e-08
1.36023e-06
-9.56137e-06
8.87118e-08
1.5324e-06
-9.41333e-06
8.91297e-08
1.69244e-06
-9.15593e-06
8.92658e-08
1.83883e-06
-8.79632e-06
8.93283e-08
1.97062e-06
-8.34132e-06
8.94663e-08
2.08748e-06
-7.7999e-06
8.9763e-08
2.18959e-06
-7.18307e-06
9.02389e-08
2.2775e-06
-6.50344e-06
9.08806e-08
2.35188e-06
-5.77394e-06
9.16579e-08
2.41337e-06
-5.0067e-06
9.25232e-08
2.46233e-06
-4.21201e-06
9.34173e-08
2.49871e-06
-3.39762e-06
9.42732e-08
2.52174e-06
-2.56815e-06
9.50189e-08
2.52974e-06
-1.72475e-06
9.55824e-08
2.51979e-06
-8.64983e-07
9.58933e-08
2.48761e-06
1.67629e-08
9.58866e-08
2.42751e-06
9.28572e-07
9.5516e-08
2.33302e-06
1.88255e-06
9.47911e-08
2.19745e-06
2.898e-06
9.38121e-08
2.01492e-06
4.00019e-06
9.27595e-08
1.78224e-06
5.21178e-06
9.1791e-08
1.50183e-06
6.53079e-06
9.07888e-08
1.18528e-06
7.88939e-06
8.89944e-08
8.55738e-07
9.09882e-06
8.48005e-08
5.42657e-07
9.83763e-06
7.61185e-08
2.70195e-07
9.81415e-06
6.13948e-08
7.55447e-08
8.36753e-06
4.06181e-08
4.17052e-06
1.47235e-08
5.76648e-08
-2.05825e-06
1.95474e-08
1.96139e-07
-5.17213e-06
4.46817e-08
3.79505e-07
-7.31317e-06
6.03873e-08
5.78959e-07
-8.6537e-06
7.00133e-08
7.77657e-07
-9.38554e-06
7.58137e-08
9.70183e-07
-9.73318e-06
7.92312e-08
1.15512e-06
-9.85343e-06
8.1154e-08
1.33114e-06
-9.81969e-06
8.21916e-08
1.4966e-06
-9.66165e-06
8.27597e-08
1.64983e-06
-9.3924e-06
8.31336e-08
1.7895e-06
-9.01959e-06
8.35046e-08
1.91483e-06
-8.55075e-06
8.40135e-08
2.02565e-06
-7.99556e-06
8.47421e-08
2.12234e-06
-7.36555e-06
8.57109e-08
2.20555e-06
-6.67363e-06
8.69002e-08
2.27612e-06
-5.93285e-06
8.82715e-08
2.33477e-06
-5.1552e-06
8.97669e-08
2.38201e-06
-4.35065e-06
9.13154e-08
2.41782e-06
-3.52636e-06
9.28375e-08
2.44148e-06
-2.68615e-06
9.42478e-08
2.45125e-06
-1.8301e-06
9.54592e-08
2.44416e-06
-9.54398e-07
9.63832e-08
2.41568e-06
-5.18314e-08
9.69293e-08
2.35993e-06
8.87146e-07
9.70137e-08
2.27005e-06
1.87566e-06
9.65938e-08
2.13905e-06
2.9331e-06
9.57094e-08
1.96097e-06
4.08359e-06
9.44851e-08
1.73286e-06
5.34665e-06
9.30521e-08
1.45772e-06
6.71443e-06
9.1334e-08
1.14784e-06
8.11046e-06
8.87229e-08
8.26675e-07
9.33617e-06
8.38637e-08
5.22832e-07
1.00668e-05
7.4901e-08
2.59392e-07
1.00178e-05
6.02626e-08
7.21919e-08
8.51581e-06
3.98142e-08
4.22976e-06
1.44317e-08
5.76837e-08
-2.13492e-06
1.87089e-08
1.95448e-07
-5.35232e-06
4.22017e-08