/*--------------------------------*- C++ -*----------------------------------*\
| =========                 |                                                 |
| \\      /  F ield         | OpenFOAM: The Open Source CFD Toolbox           |
|  \\    /   O peration     | Version:  v2006                                 |
|   \\  /    A nd           | Website:  www.openfoam.com                      |
|    \\/     M anipulation  |                                                 |
\*---------------------------------------------------------------------------*/
FoamFile
{
    version     2.0;
    format      ascii;
    class       volVectorField;
    location    "51";
    object      U;
}
// * * * * * * * * * * * * * * * * * * * * * * * * * * * * * * * * * * * * * //

dimensions      [0 1 -1 0 0 0 0];


internalField   nonuniform List<vector> 
78750
(
(-0.00964334 -0.00260418 0.00148307)
(-0.00940333 -0.00703402 0.00197546)
(-0.00782156 -0.0080051 0.00212555)
(-0.00573713 -0.00804807 0.00215858)
(-0.00413339 -0.00763527 0.00210714)
(-0.00249826 -0.0069267 0.00199532)
(-0.000895905 -0.00603768 0.00182724)
(0.000605034 -0.00504344 0.00160795)
(0.00195739 -0.00400039 0.00134158)
(0.00313292 -0.00295299 0.00103145)
(0.00412056 -0.00193893 0.000680362)
(0.00491809 -0.000991838 0.000291286)
(0.00553031 -0.000142203 -0.000131735)
(0.00596879 0.000582831 -0.00058317)
(0.00625237 0.00116127 -0.0010562)
(0.00639006 0.00157789 -0.00154172)
(0.00639783 0.00182967 -0.00202218)
(0.0063095 0.00192659 -0.00248119)
(0.00615792 0.00188961 -0.00290427)
(0.00597408 0.00174943 -0.00328108)
(0.00578826 0.00154102 -0.00360749)
(0.00562952 0.00129763 -0.00388658)
(0.00552419 0.00104588 -0.00412776)
(0.00549368 0.000803685 -0.00434398)
(0.00555215 0.000582892 -0.00454797)
(0.00570372 0.000396229 -0.0047487)
(0.00593906 0.00026693 -0.00494884)
(0.00623128 0.0002399 -0.00514278)
(0.00652946 0.000395168 -0.00531362)
(0.00674797 0.000865915 -0.00542793)
(0.00674541 0.00185946 -0.00542474)
(0.0063013 0.00364453 -0.00519354)
(0.00512854 0.00630117 -0.00453477)
(0.00314919 0.00873711 -0.00317863)
(0.00081552 0.00695442 -0.00102852)
(-0.00039283 0.000607801 0.00220149)
(-0.000240455 -0.00794242 0.00342227)
(-0.000358792 -0.013055 0.00404136)
(-0.00025817 -0.0158847 0.00427203)
(-6.02046e-06 -0.0170004 0.00431407)
(0.000372288 -0.0169569 0.00425802)
(0.00087054 -0.0161554 0.00414832)
(0.00146973 -0.0148466 0.00401452)
(0.00214417 -0.0131991 0.00387192)
(0.00286808 -0.0113299 0.00372604)
(0.00361533 -0.00932474 0.00357603)
(0.00435963 -0.00725089 0.00341714)
(0.00507493 -0.00516513 0.00324225)
(0.00573545 -0.00311918 0.00304279)
(0.00631577 -0.00116292 0.00280898)
(0.00680615 0.000652392 0.00252977)
(0.00720136 0.00227436 0.00219621)
(0.00748198 0.00365662 0.00179669)
(0.00763827 0.00475139 0.0013198)
(0.00766702 0.00551709 0.000756428)
(0.00757465 0.00592285 9.81724e-05)
(0.00737908 0.00595783 -0.000656073)
(0.00710795 0.00564396 -0.00149614)
(0.00679366 0.00504643 -0.00239844)
(0.00647001 0.00427738 -0.00332925)
(0.00616755 0.00349171 -0.00425353)
(0.00590648 0.00288239 -0.00514299)
(0.00568677 0.00268732 -0.00597255)
(0.00547727 0.00321605 -0.00669795)
(0.00521062 0.00488376 -0.00721905)
(0.00477848 0.00821135 -0.00735896)
(0.00404408 0.0135614 -0.00688801)
(0.00291226 0.0201319 -0.00564177)
(0.00152106 0.0241556 -0.00366569)
(0.000160172 0.017112 -0.00113571)
(2.63721e-05 -0.000283725 0.00144534)
(8.14235e-05 -0.00536397 0.00232726)
(-0.000170498 -0.00936717 0.00267259)
(-0.00031721 -0.0124553 0.00271085)
(-0.000352172 -0.0146918 0.00262921)
(-0.000250455 -0.0161991 0.00251964)
(-1.45833e-05 -0.017083 0.00241643)
(0.00034951 -0.01741 0.0023373)
(0.000828469 -0.0172363 0.00228822)
(0.00140453 -0.016614 0.00226934)
(0.00205784 -0.0155939 0.00227814)
(0.00276754 -0.0142266 0.0023111)
(0.00351215 -0.0125636 0.00236442)
(0.00426963 -0.0106576 0.00243428)
(0.00501794 -0.0085616 0.00251707)
(0.0057336 -0.00632987 0.00260886)
(0.0063886 -0.0040291 0.0027029)
(0.00696034 -0.00172472 0.00279273)
(0.00742988 0.000516647 0.00287151)
(0.00777487 0.00262119 0.00292855)
(0.00797643 0.0045183 0.00295068)
(0.00801934 0.00614159 0.00292021)
(0.00789711 0.00742978 0.00281189)
(0.00761186 0.00834124 0.00258858)
(0.00717932 0.00887525 0.00219577)
(0.00663067 0.00910716 0.00155999)
(0.0060058 0.0092385 0.000603135)
(0.00534904 0.00964037 -0.000717995)
(0.00469289 0.0108562 -0.00234927)
(0.00403874 0.0135384 -0.00406739)
(0.00334927 0.0182133 -0.00544534)
(0.00256579 0.0247598 -0.0059629)
(0.00167791 0.031418 -0.00529201)
(0.000791619 0.0334592 -0.00354265)
(6.50432e-05 0.0214805 -0.00108584)
(-6.43703e-06 -0.00221378 0.00120456)
(0.000196339 -0.0085833 0.00220994)
(0.000431002 -0.0136194 0.00273503)
(0.000771218 -0.0175923 0.00295022)
(0.00118845 -0.0205338 0.00299778)
(0.00167812 -0.0225465 0.00298281)
(0.00222601 -0.0237909 0.0029462)
(0.00280235 -0.0243896 0.00289466)
(0.00339731 -0.0244261 0.00283352)
(0.00400302 -0.0239682 0.00276547)
(0.0046119 -0.0230719 0.00269224)
(0.00521672 -0.0217863 0.00261544)
(0.00581068 -0.0201554 0.00253702)
(0.00638678 -0.0182206 0.00245961)
(0.00693666 -0.0160207 0.00238726)
(0.00745301 -0.0135814 0.0023274)
(0.00792451 -0.0109301 0.0022872)
(0.00833408 -0.00812556 0.00226972)
(0.00866333 -0.00524439 0.00227719)
(0.00889555 -0.00236805 0.00231276)
(0.00901789 0.000423594 0.00237997)
(0.00901574 0.00307736 0.00248518)
(0.00886961 0.00553201 0.00262794)
(0.00856968 0.00770878 0.00278863)
(0.00811476 0.00955954 0.00292646)
(0.00750924 0.0110951 0.00296767)
(0.00676507 0.0124354 0.00279796)
(0.00592475 0.0138833 0.00227543)
(0.00502744 0.0160092 0.00125885)
(0.00410094 0.0196101 -0.000302193)
(0.00319113 0.0252757 -0.0020942)
(0.00230202 0.0326504 -0.00341871)
(0.00144781 0.0393167 -0.00361565)
(0.000679373 0.0399593 -0.00258958)
(7.55061e-05 0.0245021 -0.00074987)
(7.09768e-06 -0.00355968 0.00106787)
(0.000256259 -0.0111592 0.00214348)
(0.00061659 -0.0171445 0.00275808)
(0.00109285 -0.0218555 0.00306035)
(0.00164455 -0.0253937 0.00316733)
(0.00223322 -0.027834 0.00317768)
(0.00285909 -0.0293458 0.00316359)
(0.00350577 -0.0300969 0.00314533)
(0.00415047 -0.0301992 0.00312517)
(0.00478624 -0.0297345 0.00310473)
(0.00540644 -0.0287716 0.00308382)
(0.00600423 -0.0273697 0.00306133)
(0.00657343 -0.0255804 0.00303579)
(0.00710858 -0.0234501 0.00300569)
(0.00760182 -0.0210189 0.00297039)
(0.00804633 -0.0183094 0.00293222)
(0.00843782 -0.0153273 0.00289567)
(0.00876597 -0.0121001 0.00286228)
(0.00901869 -0.00868404 0.00283177)
(0.00918426 -0.00514025 0.00280712)
(0.00924716 -0.00154002 0.00279457)
(0.00919686 0.00203065 0.00280288)
(0.00902418 0.00547338 0.00284037)
(0.00871792 0.00869221 0.00291049)
(0.00827089 0.0116236 0.00300557)
(0.00768247 0.0142761 0.0030988)
(0.00695706 0.016767 0.00313194)
(0.0061037 0.0193664 0.00299477)
(0.00514374 0.0225634 0.00250787)
(0.00412324 0.0270531 0.00148532)
(0.0031092 0.0333734 -4.02863e-06)
(0.00214253 0.0409938 -0.00142431)
(0.00128928 0.0470703 -0.00203984)
(0.000580604 0.0460819 -0.00160322)
(5.66273e-05 0.0272581 -0.000419421)
(4.48708e-06 -0.00512108 0.000940212)
(0.000262559 -0.0146262 0.00194421)
(0.000672105 -0.0219672 0.00251718)
(0.00121265 -0.0275769 0.00280592)
(0.00183155 -0.0316656 0.00291558)
(0.00246613 -0.0343807 0.00292717)
(0.00310928 -0.036002 0.00290534)
(0.0037628 -0.0367657 0.0028777)
(0.00440217 -0.0368106 0.00284578)
(0.00501959 -0.0362334 0.00281001)
(0.00561196 -0.0351125 0.00277077)
(0.00617552 -0.0335145 0.0027286)
(0.00670644 -0.0314973 0.00268438)
(0.00719748 -0.0291104 0.00263975)
(0.00763997 -0.0263834 0.00259815)
(0.00802944 -0.0233202 0.00256494)
(0.00835729 -0.019942 0.00254339)
(0.00861463 -0.0162992 0.00253381)
(0.00879818 -0.0124382 0.00253788)
(0.00890445 -0.00840439 0.00255815)
(0.00892816 -0.00424728 0.00259777)
(0.0088621 -2.78721e-05 0.00266035)
(0.00869594 0.00417512 0.0027496)
(0.00841717 0.00827062 0.00286807)
(0.0080142 0.0121785 0.00301401)
(0.00747928 0.015873 0.00317516)
(0.00681056 0.0194364 0.00331746)
(0.00601226 0.0231144 0.0033648)
(0.00509625 0.0273666 0.00317339)
(0.00409521 0.0328318 0.00255133)
(0.00307043 0.0399363 0.00143842)
(0.00207845 0.0479175 0.000166093)
(0.00122564 0.0535443 -0.000620954)
(0.000539803 0.0512159 -0.000640031)
(5.34472e-05 0.0294988 -9.10827e-05)
(1.24266e-05 -0.00648573 0.000879711)
(0.000285907 -0.0177825 0.00189745)
(0.000721543 -0.0263773 0.00251624)
(0.00128129 -0.0327716 0.00286784)
(0.00190537 -0.0372617 0.00304293)
(0.00253735 -0.0401397 0.00311123)
(0.00316147 -0.0417871 0.00312888)
(0.00378632 -0.0424943 0.00313076)
(0.00439678 -0.0424254 0.00312126)
(0.00498179 -0.0416891 0.00309978)
(0.00554018 -0.0403712 0.00306642)
(0.0060703 -0.0385442 0.00302162)
(0.00656507 -0.0362682 0.00296697)
(0.00701552 -0.0335773 0.00290529)
(0.00741707 -0.0304736 0.00284043)
(0.00776057 -0.0269781 0.00277452)
(0.00803612 -0.0231481 0.0027085)
(0.00824084 -0.0190392 0.00264569)
(0.00837301 -0.0147027 0.00259142)
(0.00843096 -0.0101859 0.00255259)
(0.00841287 -0.00553392 0.0025371)
(0.00831597 -0.000794796 0.00255298)
(0.00813642 0.00397423 0.00260748)
(0.00786786 0.00870647 0.00270565)
(0.00750052 0.0133399 0.00284819)
(0.00702355 0.0178516 0.0030273)
(0.00642781 0.0223119 0.00321874)
(0.00570809 0.0269457 0.00336588)
(0.00486681 0.0321754 0.00335522)
(0.00392495 0.0385517 0.00301759)
(0.00293295 0.0463288 0.00224518)
(0.0019578 0.0544665 0.00121805)
(0.00113385 0.0594791 0.000430704)
(0.000484104 0.0558108 0.000123323)
(4.23098e-05 0.0314183 0.000165605)
(1.15864e-05 -0.00793086 0.000821091)
(0.000275562 -0.0212008 0.00180084)
(0.000698453 -0.0311275 0.00239408)
(0.0012363 -0.0383142 0.0027284)
(0.00182934 -0.0431817 0.00289227)
(0.00242819 -0.046189 0.00295292)
(0.00301287 -0.0478279 0.00296118)
(0.00359387 -0.0484567 0.00295188)
(0.00416448 -0.0482636 0.00293216)
(0.0047119 -0.0473664 0.00290217)
(0.00523638 -0.0458562 0.00286297)
(0.00573287 -0.0438085 0.00281616)
(0.00619255 -0.0412644 0.00276475)
(0.00661157 -0.0382257 0.0027099)
(0.00697991 -0.0347123 0.00265179)
(0.00728654 -0.0307842 0.00259047)
(0.00752791 -0.0265055 0.00252773)
(0.00770192 -0.0219399 0.00246699)
(0.00780697 -0.0171474 0.00241344)
(0.00784218 -0.0121816 0.00237401)
(0.00780725 -0.00708873 0.00235701)
(0.00770186 -0.00191067 0.00237157)
(0.00752477 0.00331039 0.00242657)
(0.00727272 0.00853112 0.00252905)
(0.00693941 0.013718 0.0026821)
(0.00651533 0.018875 0.0028815)
(0.00598897 0.0240901 0.00310937)
(0.00534927 0.0295912 0.00332117)
(0.00459073 0.0357758 0.00342475)
(0.00372455 0.0431042 0.00327509)
(0.0027899 0.051632 0.0027529)
(0.00185343 0.0600072 0.00194463)
(0.00106417 0.0645449 0.00120424)
(0.000446611 0.0597243 0.000709683)
(3.81271e-05 0.0330065 0.000359337)
(1.39314e-05 -0.00921057 0.000755259)
(0.000265577 -0.0242157 0.0016918)
(0.000664564 -0.0352768 0.00227613)
(0.00116726 -0.0431128 0.0026208)
(0.00171738 -0.0482685 0.00280256)
(0.00227219 -0.0513533 0.00288159)
(0.00281179 -0.0529602 0.00290416)
(0.00334808 -0.0535034 0.00290472)
(0.0038788 -0.0531867 0.00289149)
(0.00439073 -0.052133 0.002865)
(0.00488152 -0.0504368 0.00282699)
(0.0053416 -0.0481612 0.00278085)
(0.00576864 -0.0453148 0.00272596)
(0.00615492 -0.0419019 0.00266255)
(0.00648746 -0.0379805 0.00259045)
(0.00676175 -0.0336188 0.00251067)
(0.00697508 -0.0288913 0.00242529)
(0.00712541 -0.0238732 0.00233794)
(0.00721172 -0.0186357 0.00225408)
(0.00723399 -0.0132407 0.00218111)
(0.0071928 -0.00773882 0.0021284)
(0.00708873 -0.00217151 0.00210708)
(0.00692165 0.00342646 0.00212916)
(0.00668976 0.00902891 0.00220584)
(0.00638846 0.0146308 0.00234503)
(0.00600936 0.0202729 0.00254772)
(0.0055404 0.0260789 0.00280181)
(0.00496774 0.0322971 0.00307037)
(0.00428143 0.0393052 0.00327327)
(0.0034866 0.0474626 0.00328006)
(0.0026149 0.0566065 0.00296633)
(0.00173457 0.0650785 0.00235649)
(0.000990345 0.0691099 0.0016904)
(0.000407467 0.0631769 0.00109082)
(3.30414e-05 0.0343669 0.000475659)
(1.14036e-05 -0.0104523 0.000702823)
(0.000238684 -0.0271782 0.00160215)
(0.000601164 -0.0393713 0.00217111)
(0.00106034 -0.0478657 0.00251007)
(0.00156396 -0.053327 0.00269045)
(0.00207495 -0.0565119 0.0027704)
(0.00257225 -0.0581074 0.00279323)
(0.00306783 -0.0585859 0.00279027)
(0.00356429 -0.0581652 0.00277458)
(0.00404628 -0.0569733 0.00274755)
(0.0045043 -0.0551029 0.00271233)
(0.00493684 -0.0525844 0.00266909)
(0.00534043 -0.0494148 0.00261716)
(0.00570009 -0.045643 0.00255686)
(0.00600986 -0.0413325 0.00248902)
(0.00626579 -0.0365601 0.00241447)
(0.0064648 -0.0314116 0.00233457)
(0.00660485 -0.0259743 0.00225158)
(0.00668516 -0.0203293 0.00216909)
(0.00670596 -0.0145451 0.00209236)
(0.00666827 -0.00867557 0.00202894)
(0.00657319 -0.00276096 0.00198895)
(0.00642118 0.00317097 0.00198462)
(0.00621114 0.00910882 0.00202913)
(0.00593939 0.0150728 0.0021347)
(0.00559837 0.0211392 0.00230906)
(0.00517616 0.0274715 0.00254901)
(0.00465798 0.0343467 0.00282846)
(0.00403166 0.0421318 0.00308046)
(0.00329828 0.0510917 0.00318791)
(0.00248328 0.0608498 0.00302449)
(0.00165548 0.0694555 0.00257009)
(0.00095014 0.0730928 0.00197685)
(0.000390412 0.0661936 0.00132327)
(3.3692e-05 0.0355557 0.000541053)
(1.0893e-05 -0.0115261 0.000648742)
(0.000220382 -0.0297477 0.00150532)
(0.000555912 -0.0429327 0.00206034)
(0.000982427 -0.0520131 0.00240022)
(0.00145071 -0.0577508 0.00258802)
(0.00192563 -0.0610253 0.00267762)
(0.00239134 -0.0626202 0.00270983)
(0.00285561 -0.0630443 0.00270984)
(0.00332156 -0.062531 0.00269591)
(0.00377195 -0.0612103 0.0026713)
(0.0042015 -0.0591535 0.00263724)
(0.00461044 -0.0563764 0.00259163)
(0.00498767 -0.0529045 0.00253667)
(0.00532549 -0.048788 0.00247367)
(0.0056184 -0.0440981 0.00240332)
(0.0058621 -0.0389236 0.00232622)
(0.00605333 -0.0333622 0.00224329)
(0.0061899 -0.0275117 0.00215606)
(0.00627071 -0.0214637 0.00206713)
(0.00629557 -0.0152951 0.00198073)
(0.0062651 -0.00906624 0.00190353)
(0.00618015 -0.00281915 0.00184501)
(0.00604111 0.00342213 0.00181728)
(0.00584721 0.00965783 0.00183432)
(0.00559539 0.0159309 0.00191058)
(0.00527894 0.0223519 0.002058)
(0.00488681 0.029124 0.00227998)
(0.0044048 0.0365543 0.00255939)
(0.00382062 0.0450004 0.00284064)
(0.0031336 0.0546355 0.00301803)
(0.00236479 0.0648809 0.00296559)
(0.00158384 0.0735307 0.00263264)
(0.000913436 0.0767771 0.00210795)
(0.000374573 0.0689637 0.00143751)
(3.28858e-05 0.0366596 0.000567027)
(8.53629e-06 -0.0125673 0.00061754)
(0.000200446 -0.0322878 0.0014546)
(0.000512116 -0.0464899 0.00200267)
(0.000911915 -0.0561846 0.00233979)
(0.00135278 -0.0622219 0.00252675)
(0.00180063 -0.065604 0.00261745)
(0.00224419 -0.0672134 0.00265233)
(0.00268595 -0.0675923 0.00265405)
(0.00312479 -0.0669974 0.00263984)
(0.00355096 -0.0655519 0.0026153)
(0.00396036 -0.0633121 0.00257949)
(0.0043478 -0.0603 0.00253478)
(0.00470539 -0.0565503 0.00248344)
(0.00502694 -0.0521182 0.00242689)
(0.00530729 -0.0470822 0.00236564)
(0.00554237 -0.0415392 0.00229968)
(0.00572906 -0.0355956 0.00222879)
(0.00586518 -0.0293579 0.00215302)
(0.00594943 -0.0229254 0.00207314)
(0.00598129 -0.0163822 0.00199134)
(0.00596081 -0.00979378 0.00191208)
(0.0058882 -0.0032046 0.00184282)
(0.00576331 0.0033632 0.00179436)
(0.00558509 0.00991775 0.00178065)
(0.00535055 0.016519 0.00181795)
(0.0050536 0.0233051 0.00192232)
(0.00468406 0.0305132 0.00210385)
(0.00422874 0.0384779 0.00235493)
(0.00367601 0.0475493 0.00263192)
(0.00302428 0.0578198 0.00284102)
(0.00229092 0.0685302 0.00285877)
(0.00154535 0.0772492 0.00261287)
(0.000899071 0.0801802 0.00214643)
(0.000370837 0.0715527 0.0014806)
(3.42459e-05 0.0377171 0.000571726)
(8.2976e-06 -0.0134982 0.000582684)
(0.000190804 -0.0345722 0.00138644)
(0.00048958 -0.0497031 0.00191679)
(0.000873935 -0.059967 0.00224528)
(0.00129765 -0.0662879 0.00242908)
(0.00172738 -0.0697754 0.00251992)
(0.00215388 -0.0713978 0.00255695)
(0.00257767 -0.0717322 0.00256186)
(0.00299589 -0.0710526 0.00254711)
(0.00340296 -0.0694782 0.00251867)
(0.00379366 -0.0670597 0.00247935)
(0.00416198 -0.0638252 0.00243264)
(0.0045021 -0.0598111 0.00238112)
(0.00480841 -0.0550771 0.00232634)
(0.00507618 -0.049709 0.00226889)
(0.00530177 -0.0438124 0.00220871)
(0.00548245 -0.0375019 0.00214544)
(0.00561623 -0.030892 0.00207869)
(0.0057018 -0.0240887 0.00200845)
(0.00573825 -0.017182 0.00193569)
(0.00572508 -0.0102416 0.00186318)
(0.00566171 -0.00331411 0.00179632)
(0.00554724 0.00357874 0.00174373)
(0.00538007 0.0104503 0.00171767)
(0.0051571 0.0173737 0.00173384)
(0.00487261 0.02451 0.00180962)
(0.00451737 0.0321249 0.00195901)
(0.00407954 0.0405751 0.00218148)
(0.00354877 0.0502009 0.00244376)
(0.00292342 0.0610181 0.00266374)
(0.00221828 0.0721048 0.00272353)
(0.0015031 0.0808389 0.00253848)
(0.000878423 0.0834546 0.00212068)
(0.000361671 0.0740404 0.00147306)
(3.31264e-05 0.0387468 0.000560908)
(7.28874e-06 -0.0144326 0.000565449)
(0.000183381 -0.0368961 0.00135785)
(0.000473772 -0.0529892 0.00188233)
(0.000847857 -0.0638419 0.00220595)
(0.00125931 -0.0704534 0.00238513)
(0.00167525 -0.074049 0.00247224)
(0.00208737 -0.075686 0.00250672)
(0.00249665 -0.0759798 0.00251043)
(0.00289975 -0.0752152 0.00249407)
(0.00329095 -0.0735142 0.00246395)
(0.00366494 -0.0709273 0.00242473)
(0.00401641 -0.0674831 0.00237996)
(0.00433993 -0.0632213 0.00233224)
(0.0046306 -0.0582069 0.00228317)
(0.00488456 -0.0525325 0.00223328)
(0.00509901 -0.0463105 0.00218235)
(0.00527193 -0.0396619 0.00212964)
(0.00540181 -0.0327062 0.00207414)
(0.00548747 -0.0255532 0.00201493)
(0.00552788 -0.0182958 0.00195173)
(0.00552205 -0.0110058 0.00188573)
(0.00546869 -0.00373052 0.00182048)
(0.00536598 0.00350917 0.00176272)
(0.00521143 0.0107296 0.00172309)
(0.00500132 0.0180124 0.00171658)
(0.00472978 0.0255341 0.00176129)
(0.00438803 0.0335814 0.00187404)
(0.00396525 0.0425262 0.00205997)
(0.00345231 0.052697 0.00229474)
(0.00284784 0.0640399 0.00250714)
(0.00216481 0.0754879 0.00258623)
(0.00147342 0.0842512 0.00244085)
(0.000865129 0.0865899 0.002062)
(0.000356115 0.07644 0.00143886)
(3.28657e-05 0.0397515 0.000542717)
(7.78016e-06 -0.0153118 0.000544089)
(0.000182296 -0.0390804 0.00131126)
(0.000469345 -0.0560692 0.0018171)
(0.000837508 -0.0674616 0.00212694)
(0.00124005 -0.0743337 0.00229662)
(0.00164473 -0.0780225 0.00237756)
(0.00204434 -0.0796672 0.00240779)
(0.0024402 -0.0799163 0.00240821)
(0.00282883 -0.0790635 0.00238941)
(0.00320447 -0.0772326 0.00235771)
(0.00356199 -0.0744743 0.00231774)
(0.00389641 -0.0708195 0.00227324)
(0.00420291 -0.0663128 0.00222712)
(0.00447735 -0.0610258 0.0021812)
(0.0047167 -0.0550587 0.00213628)
(0.00491893 -0.0485305 0.00209229)
(0.0050826 -0.0415677 0.00204857)
(0.00520666 -0.0342935 0.00200401)
(0.00529016 -0.0268196 0.00195736)
(0.00533204 -0.0192398 0.00190766)
(0.00533096 -0.0116254 0.00185491)
(0.00528504 -0.0040221 0.00180094)
(0.00519167 0.00355138 0.00175025)
(0.00504753 0.0111149 0.00171112)
(0.00484822 0.0187569 0.00169653)
(0.00458758 0.0266665 0.00172368)
(0.0042571 0.0351451 0.00181031)
(0.00384684 0.0445729 0.00196521)
(0.00334887 0.0552599 0.00217125)
(0.00276236 0.0670819 0.00236724)
(0.00209933 0.0788372 0.0024507)
(0.0014312 0.0875924 0.00232955)
(0.000840774 0.0896447 0.00198136)
(0.000343583 0.0787655 0.00138554)
(3.07001e-05 0.0407246 0.000518427)
(7.64352e-06 -0.016211 0.000533758)
(0.000180925 -0.0413237 0.00129068)
(0.000465248 -0.059229 0.00178726)
(0.000828268 -0.0711635 0.00208777)
(0.00122258 -0.0782879 0.00224914)
(0.00161658 -0.0820612 0.00232387)
(0.00200416 -0.0837074 0.00234987)
(0.00238701 -0.0839076 0.00234748)
(0.00276146 -0.0829643 0.00232707)
(0.0031218 -0.0810034 0.00229499)
(0.0034631 -0.0780776 0.00225609)
(0.00378082 -0.074221 0.00221434)
(0.00407073 -0.0694837 0.00217269)
(0.00432943 -0.0639436 0.00213293)
(0.00455469 -0.057707 0.0020956)
(0.00474516 -0.0508986 0.00206031)
(0.00490005 -0.0436486 0.00202601)
(0.00501877 -0.0360817 0.0019912)
(0.00510066 -0.02831 0.0019542)
(0.00514471 -0.0204255 0.00191357)
(0.00514936 -0.0124971 0.00186863)
(0.00511221 -0.0045672 0.00182023)
(0.0050298 0.00334929 0.00177156)
(0.00489782 0.0112754 0.00172929)
(0.00471093 0.0193042 0.00170483)
(0.00446232 0.0276327 0.00171431)
(0.00414344 0.0365715 0.0017756)
(0.00374497 0.0465027 0.0018997)
(0.00326011 0.0577135 0.0020748)
(0.00268879 0.0700098 0.00224815)
(0.00204268 0.0820638 0.0023257)
(0.00139472 0.0908139 0.00221746)
(0.000820105 0.0925944 0.00189286)
(0.000333457 0.0810109 0.00132437)
(2.95246e-05 0.0416631 0.000492226)
(8.52213e-06 -0.0170796 0.000519136)
(0.000182987 -0.0434758 0.00125313)
(0.000467027 -0.0622389 0.00172772)
(0.000826476 -0.0746648 0.00200879)
(0.00121337 -0.0820065 0.00215535)
(0.00159715 -0.0858445 0.00222012)
(0.00197303 -0.0874813 0.00223955)
(0.0023431 -0.0876256 0.00223279)
(0.00270359 -0.0865867 0.00220971)
(0.00304887 -0.0844924 0.00217662)
(0.00337426 -0.0813975 0.0021385)
(0.00367559 -0.0773405 0.0020995)
(0.00394922 -0.0723781 0.00206266)
(0.0041924 -0.0665955 0.00202975)
(0.00440359 -0.0601062 0.00200124)
(0.00458204 -0.05304 0.00197657)
(0.00472747 -0.0455301 0.00195444)
(0.00483969 -0.0377024 0.00193307)
(0.00491834 -0.0296673 0.00191043)
(0.00496254 -0.0215135 0.00188454)
(0.00497064 -0.0133047 0.00185397)
(0.00493992 -0.00507702 0.00181842)
(0.00486635 0.00316107 0.00177952)
(0.0047448 0.011438 0.00174206)
(0.00456904 0.0198516 0.0017155)
(0.00433159 0.0286048 0.00171447)
(0.00402366 0.0380126 0.00175635)
(0.00363634 0.0484518 0.00185356)
(0.00316381 0.0601794 0.00199858)
(0.00260685 0.0729278 0.00214619)
(0.00197734 0.0852474 0.00221101)
(0.00134999 0.0939657 0.00210764)
(0.000792776 0.0954639 0.00180096)
(0.000319552 0.0831795 0.00125885)
(2.74151e-05 0.0425645 0.000464998)
(8.58408e-06 -0.0179695 0.000510514)
(0.000182755 -0.0456771 0.00122972)
(0.000464742 -0.0653031 0.00168773)
(0.000819143 -0.0782085 0.00195251)
(0.00119749 -0.0857498 0.00208579)
(0.00157031 -0.0896392 0.00214135)
(0.00193407 -0.091258 0.00215491)
(0.00229117 -0.091341 0.00214466)
(0.00263771 -0.0902032 0.00212013)
(0.00296816 -0.087975 0.00208759)
(0.00327815 -0.0847142 0.00205211)
(0.00356393 -0.0804646 0.0020179)
(0.00382244 -0.0752897 0.00198793)
(0.00405161 -0.0692818 0.00196373)
(0.00425049 -0.06256 0.00194539)
(0.00441887 -0.0552581 0.00193185)
(0.00455687 -0.0475113 0.00192135)
(0.00466463 -0.0394451 0.00191169)
(0.00474196 -0.0311674 0.00190046)
(0.00478802 -0.0227625 0.00188543)
(0.00480108 -0.0142877 0.0018648)
(0.00477805 -0.00577158 0.00183773)
(0.00471433 0.00278577 0.00180497)
(0.00460396 0.0114192 0.00176999)
(0.00443979 0.0202312 0.00174062)
(0.00421359 0.0294287 0.00172987)
(0.00391624 0.0393275 0.00175414)
(0.00353919 0.0502941 0.00182629)
(0.00307756 0.06255 0.00194189)
(0.00253312 0.0757514 0.00206204)
(0.00191833 0.0883305 0.00210966)
(0.00130971 0.0970148 0.00200533)
(0.000768605 0.0982367 0.00171193)
(0.000307803 0.0852686 0.0011943)
(2.61098e-05 0.0434293 0.000438898)
(9.53177e-06 -0.0188352 0.000497433)
(0.000185238 -0.0477993 0.0011906)
(0.00046695 -0.0682325 0.0016213)
(0.000817593 -0.0815694 0.00186151)
(0.00118822 -0.0892777 0.00197633)
(0.00155064 -0.0932004 0.00201974)
(0.00190269 -0.0947917 0.00202558)
(0.00224709 -0.0948075 0.0020106)
(0.00257989 -0.0935676 0.00198373)
(0.00289576 -0.0912046 0.00195118)
(0.00319065 -0.0877797 0.00191815)
(0.00346124 -0.0833431 0.00188894)
(0.00370501 -0.0779659 0.00186657)
(0.00392047 -0.0717478 0.00185248)
(0.00410719 -0.0648135 0.00184653)
(0.0042654 -0.0573006 0.00184731)
(0.00439555 -0.0493454 0.00185262)
(0.00449805 -0.0410722 0.00185974)
(0.0045729 -0.0325853 0.00186573)
(0.0046194 -0.0239628 0.00186773)
(0.00463578 -0.0152539 0.00186324)
(0.0046188 -0.00647695 0.00185054)
(0.00456341 0.00237868 0.00182924)
(0.00446298 0.0113565 0.00180137)
(0.00430952 0.0205644 0.00177315)
(0.00409398 0.0302119 0.00175607)
(0.00380682 0.040612 0.00176554)
(0.00343969 0.0521147 0.00181472)
(0.00298857 0.0648992 0.00190178)
(0.00245622 0.0785413 0.00199356)
(0.00185596 0.0913573 0.00202104)
(0.00126614 0.0999888 0.00191169)
(0.000741778 0.100927 0.00162792)
(0.000294622 0.0872821 0.00113265)
(2.44249e-05 0.0442581 0.000414535)
(9.62298e-06 -0.0197185 0.000487223)
(0.000185035 -0.0499553 0.00115813)
(0.000464401 -0.0711892 0.0015646)
(0.000809627 -0.0849362 0.00178273)
(0.00117144 -0.0927887 0.00188085)
(0.00152299 -0.096729 0.00191324)
(0.00186331 -0.0982833 0.00191222)
(0.00219529 -0.0982261 0.0018933)
(0.00251491 -0.0968808 0.00186495)
(0.00281704 -0.0943825 0.0018333)
(0.00309794 -0.090797 0.00180358)
(0.00335475 -0.0861808 0.00178011)
(0.00358543 -0.0806132 0.00176576)
(0.00378905 -0.0742 0.00176177)
(0.00396561 -0.0670711 0.00176763)
(0.00411568 -0.0593664 0.00178155)
(0.00423998 -0.0512225 0.0018009)
(0.00433909 -0.042762 0.00182259)
(0.00441311 -0.0340849 0.00184335)
(0.00446134 -0.0252632 0.00186001)
(0.00448193 -0.0163369 0.0018697)
(0.00447146 -0.00731329 0.00187011)
(0.00442448 0.00183081 0.00185996)
(0.00433376 0.0111496 0.0018399)
(0.00419051 0.0207572 0.0018144)
(0.00398497 0.0308654 0.00179314)
(0.00370718 0.0417819 0.00179011)
(0.00334898 0.0538359 0.00181829)
(0.00290715 0.0671594 0.0018779)
(0.00238554 0.0812441 0.00194095)
(0.00179851 0.0942917 0.00194629)
(0.00122608 0.102868 0.0018289)
(0.000717422 0.103527 0.00155169)
(0.000283062 0.0892201 0.00107634)
(2.3261e-05 0.0450526 0.000392873)
(1.04876e-05 -0.0205793 0.000473027)
(0.000186925 -0.0520359 0.00111282)
(0.000465308 -0.0740172 0.00148749)
(0.000806074 -0.0881303 0.00167825)
(0.0011598 -0.0960989 0.00175662)
(0.00150113 -0.100043 0.00177636)
(0.00183035 -0.101553 0.00176743)
(0.00215048 -0.10142 0.00174378)
(0.00245746 -0.099968 0.00171335)
(0.00274638 -0.0973361 0.00168216)
(0.00301384 -0.0935946 0.00165552)
(0.00325736 -0.0888073 0.00163781)
(0.00347539 -0.0830615 0.00163193)
(0.00366742 -0.0764699 0.00163899)
(0.00383386 -0.0691667 0.0016583)
(0.00397558 -0.0612938 0.00168774)
(0.00409355 -0.0529876 0.00172426)
(0.00418855 -0.0443678 0.00176426)
(0.00426081 -0.0355293 0.00180394)
(0.00430971 -0.0265366 0.00183955)
(0.00433338 -0.0174196 0.00186762)
(0.00432825 -0.00817262 0.00188513)
(0.00428859 0.00124172 0.0018898)
(0.00420659 0.01089 0.00188093)
(0.00407276 0.0208937 0.00186126)
(0.00387662 0.0314661 0.00183865)
(0.00360774 0.0429067 0.00182567)
(0.0032581 0.0555193 0.00183495)
(0.00282523 0.0693827 0.00186846)
(0.00231403 0.0839007 0.00190302)
(0.00174006 0.0971621 0.00188513)
(0.00118481 0.105668 0.00175764)
(0.000691978 0.106044 0.00148449)
(0.000270908 0.0910854 0.00102648)
(2.19135e-05 0.0458131 0.000374231)
(1.07147e-05 -0.0214518 0.000460109)
(0.000186869 -0.0541328 0.00107075)
(0.00046298 -0.0768472 0.00141602)
(0.000798527 -0.091301 0.00158186)
(0.00114397 -0.0993625 0.00164241)
(0.00147538 -0.103295 0.00165075)
(0.00179413 -0.104753 0.00163469)
(0.0021033 -0.104537 0.00160684)
(0.00239871 -0.102977 0.00157463)
(0.00267567 -0.100211 0.00154398)
(0.00293112 -0.0963166 0.0015202)
(0.00316292 -0.0913649 0.00150764)
(0.00336992 -0.085451 0.00150909)
(0.003552 -0.0786937 0.00152556)
(0.00370985 -0.0712309 0.00155618)
(0.00384459 -0.0632062 0.00159865)
(0.0039574 -0.0547549 0.00164971)
(0.00404919 -0.0459938 0.00170552)
(0.00412028 -0.0370125 0.00176202)
(0.0041701 -0.0278673 0.00181515)
(0.00419673 -0.0185776 0.00186104)
(0.00419649 -0.00912398 0.00189606)
(0.0041634 0.000547031 0.00191701)
(0.00408921 0.0105163 0.00192171)
(0.00396381 0.0209143 0.00191091)
(0.00377606 0.0319555 0.00189026)
(0.00351516 0.0439297 0.00187045)
(0.00317319 0.0571114 0.00186338)
(0.0027484 0.0715217 0.00187247)
(0.00224673 0.0864732 0.00187911)
(0.00168502 0.0999427 0.00183742)
(0.00114597 0.108377 0.00169832)
(0.000668194 0.108473 0.0014271)
(0.000259805 0.0928783 0.000983851)
(2.08997e-05 0.0465408 0.000358919)
(1.14348e-05 -0.0223039 0.000444366)
(0.000187989 -0.0561602 0.00101993)
(0.000462494 -0.0795581 0.0013312)
(0.000793323 -0.0943128 0.00146921)
(0.00113097 -0.102443 0.00151047)
(0.00145305 -0.106354 0.00150668)
(0.00176195 -0.107754 0.00148304)
(0.00206077 -0.107455 0.00145063)
(0.00234528 -0.105785 0.00141636)
(0.00261103 -0.102888 0.00138605)
(0.00285522 -0.0988468 0.00136498)
(0.00307603 -0.0937391 0.00135751)
(0.0032726 -0.0876686 0.0013664)
(0.00344511 -0.08076 0.0013926)
(0.00359452 -0.0731549 0.00143514)
(0.00372216 -0.0649979 0.00149157)
(0.00382942 -0.0564231 0.00155839)
(0.0039174 -0.0475437 0.00163146)
(0.00398658 -0.0384431 0.00170638)
(0.00403644 -0.0291688 0.00177872)
(0.00406507 -0.0197285 0.00184417)
(0.00406871 -0.0100883 0.00189859)
(0.00404115 -0.000177475 0.00193796)
(0.00397377 0.0101007 0.00195878)
(0.00385593 0.0208867 0.00195983)
(0.00367588 0.0323962 0.00194449)
(0.00342242 0.044907 0.0019213)
(0.00308775 0.0586609 0.00190106)
(0.00267082 0.0736164 0.0018882)
(0.00217856 0.0889915 0.00186834)
(0.00162911 0.102653 0.00180305)
(0.00110615 0.111004 0.00165148)
(0.000643535 0.110818 0.00138038)
(0.00024821 0.0945984 0.000949118)
(1.97488e-05 0.047235 0.000347003)
(1.17544e-05 -0.0231611 0.00042917)
(0.000187969 -0.0581868 0.000970831)
(0.000460327 -0.0822487 0.00124997)
(0.000786396 -0.097279 0.0013622)
(0.00111666 -0.105458 0.00138578)
(0.00143016 -0.109334 0.00137084)
(0.0017302 -0.110669 0.00134014)
(0.00201982 -0.110282 0.00130341)
(0.00229473 -0.108501 0.00126704)
(0.00255067 -0.105474 0.0012367)
(0.00278509 -0.101288 0.00121759)
(0.00299642 -0.0960303 0.00121401)
(0.00318402 -0.0898108 0.00122863)
(0.00334828 -0.0827605 0.00126237)
(0.00349034 -0.0750244 0.00131428)
(0.00361171 -0.066748 0.00138192)
(0.00371396 -0.0580641 0.00146179)
(0.00379833 -0.0490822 0.00154973)
(0.00386543 -0.0398792 0.0016412)
(0.00391484 -0.0304935 0.00173159)
(0.0039447 -0.0209205 0.00181627)
(0.00395119 -0.0111106 0.00189062)
(0.003928 -0.000975054 0.00194981)
(0.00386618 0.0096008 0.00198897)
(0.00375466 0.0207687 0.00200482)
(0.00358117 0.0327461 0.00199823)
(0.00333422 0.0457974 0.00197529)
(0.00300611 0.0601284 0.00194529)
(0.00259643 0.0756313 0.00191334)
(0.00211308 0.0914268 0.00186889)
(0.00157549 0.105273 0.00178079)
(0.001068 0.113538 0.00161641)