/*--------------------------------*- C++ -*----------------------------------*\
| =========                 |                                                 |
| \\      /  F ield         | OpenFOAM: The Open Source CFD Toolbox           |
|  \\    /   O peration     | Version:  v2006                                 |
|   \\  /    A nd           | Website:  www.openfoam.com                      |
|    \\/     M anipulation  |                                                 |
\*---------------------------------------------------------------------------*/
FoamFile
{
    version     2.0;
    format      ascii;
    class       volScalarField;
    location    "35";
    object      alphat;
}
// * * * * * * * * * * * * * * * * * * * * * * * * * * * * * * * * * * * * * //

dimensions      [1 -1 -1 0 0 0 0];


internalField   nonuniform List<scalar> 
78750
(
6.04389e-08
2.2595e-06
2.4237e-06
2.42935e-06
2.33954e-06
2.19339e-06
2.02658e-06
1.86241e-06
1.71404e-06
1.5867e-06
1.48097e-06
1.39544e-06
1.3279e-06
1.27585e-06
1.23681e-06
1.20841e-06
1.18849e-06
1.1751e-06
1.1665e-06
1.16113e-06
1.15762e-06
1.15472e-06
1.1512e-06
1.14579e-06
1.13706e-06
1.12323e-06
1.10193e-06
1.06986e-06
1.02195e-06
9.49827e-07
8.42806e-07
6.92734e-07
5.07035e-07
3.16488e-07
5.77688e-09
1.15485e-08
2.43684e-06
4.90246e-06
8.67615e-06
1.20638e-05
1.28551e-05
1.34141e-05
1.26657e-05
1.20073e-05
1.14791e-05
1.10729e-05
1.07691e-05
1.05448e-05
1.03788e-05
1.02554e-05
1.01605e-05
1.00846e-05
1.00201e-05
9.9597e-06
9.89682e-06
9.82911e-06
9.7564e-06
9.67942e-06
9.59857e-06
9.51257e-06
9.41641e-06
9.29915e-06
9.14005e-06
8.89615e-06
8.4998e-06
5.58558e-06
3.55433e-06
2.90645e-06
3.27451e-06
1.63986e-08
1.39533e-08
3.01856e-06
5.59144e-06
4.84403e-06
3.60686e-06
2.75515e-06
2.3755e-06
2.42882e-06
2.88393e-06
3.58164e-06
3.98944e-06
4.50285e-06
5.04169e-06
5.54722e-06
5.98125e-06
6.19329e-06
6.28695e-06
6.3285e-06
6.31884e-06
6.25731e-06
6.14243e-06
5.96909e-06
5.70907e-06
5.31076e-06
4.91362e-06
4.4444e-06
3.77971e-06
3.17749e-06
2.79399e-06
2.65212e-06
2.68113e-06
2.89969e-06
3.94473e-06
2.84027e-06
2.39295e-08
6.1803e-09
2.76771e-06
4.03625e-06
4.60028e-06
3.90743e-06
3.13529e-06
2.73809e-06
2.75658e-06
3.24268e-06
4.26261e-06
5.81966e-06
7.83833e-06
1.01048e-05
1.14441e-05
1.25753e-05
1.34773e-05
1.41433e-05
1.45768e-05
1.47857e-05
1.47783e-05
1.45614e-05
1.38533e-05
1.27958e-05
1.15093e-05
9.97806e-06
8.20114e-06
6.25553e-06
4.32383e-06
2.68757e-06
1.63584e-06
1.21999e-06
1.27802e-06
1.95723e-06
2.30943e-06
2.8158e-08
5.29912e-09
1.90289e-06
3.04856e-06
3.56047e-06
2.81458e-06
2.2838e-06
2.26399e-06
2.78759e-06
3.86581e-06
5.43383e-06
7.41016e-06
9.77262e-06
1.25662e-05
1.56639e-05
1.73687e-05
1.81934e-05
1.87587e-05
1.90792e-05
1.91678e-05
1.9033e-05
1.86793e-05
1.81101e-05
1.65593e-05
1.41511e-05
1.16776e-05
9.24161e-06
6.90562e-06
4.80032e-06
3.12298e-06
2.01944e-06
1.48619e-06
1.48656e-06
2.50042e-06
1.78373e-06
3.56953e-08
3.77354e-09
1.43054e-06
2.23896e-06
2.71267e-06
2.12858e-06
1.99661e-06
2.31939e-06
3.08383e-06
4.26464e-06
5.83103e-06
7.7675e-06
1.007e-05
1.27109e-05
1.55869e-05
1.84874e-05
2.10928e-05
2.30503e-05
2.38412e-05
2.40965e-05
2.38646e-05
2.25909e-05
2.07007e-05
1.83447e-05
1.56835e-05
1.28755e-05
1.00796e-05
7.45005e-06
5.15061e-06
3.34321e-06
2.13186e-06
1.50403e-06
1.40412e-06
2.24638e-06
1.92853e-06
3.9841e-08
3.19804e-09
1.13974e-06
1.99237e-06
2.47349e-06
2.15671e-06
2.33299e-06
2.93106e-06
3.94277e-06
5.36991e-06
7.22403e-06
9.53107e-06
1.23236e-05
1.56045e-05
1.92852e-05
2.30491e-05
2.50453e-05
2.56996e-05
2.61637e-05
2.64411e-05
2.65278e-05
2.64129e-05
2.58551e-05
2.24583e-05
1.86051e-05
1.47261e-05
1.10884e-05
7.90006e-06
5.30367e-06
3.38814e-06
2.17525e-06
1.58594e-06
1.57038e-06
2.80984e-06
1.79166e-06
4.65316e-08
2.39093e-09
1.14244e-06
1.9445e-06
2.39448e-06
2.26605e-06
2.56139e-06
3.22112e-06
4.23878e-06
5.63351e-06
7.44897e-06
9.7556e-06
1.26405e-05
1.61722e-05
2.02724e-05
2.36214e-05
2.44762e-05
2.51847e-05
2.57524e-05
2.6179e-05
2.64574e-05
2.65734e-05
2.65062e-05
2.57466e-05
2.14335e-05
1.68301e-05
1.2524e-05
8.80367e-06
5.84318e-06
3.6983e-06
2.33895e-06
1.66468e-06
1.60462e-06
2.87811e-06
1.90628e-06
4.99417e-08
1.6655e-09
1.07798e-06
1.95796e-06
2.34228e-06
2.39531e-06
2.78497e-06
3.49277e-06
4.53529e-06
5.96217e-06
7.85754e-06
1.0341e-05
1.35559e-05
1.76207e-05
2.22121e-05
2.3322e-05
2.42216e-05
2.498e-05
2.55983e-05
2.6074e-05
2.64007e-05
2.65673e-05
2.6558e-05
2.63513e-05
2.24972e-05
1.75007e-05
1.2892e-05
8.98921e-06
5.9372e-06
3.76929e-06
2.42521e-06
1.77658e-06
1.77439e-06
3.39921e-06
1.89636e-06
5.45415e-08
1.15414e-09
1.07073e-06
2.05566e-06
2.29294e-06
2.55642e-06
3.07e-06
3.85868e-06
4.96587e-06
6.46145e-06
8.43888e-06
1.10031e-05
1.42437e-05
1.81575e-05
2.21426e-05
2.33006e-05
2.43189e-05
2.51904e-05
2.59091e-05
2.6469e-05
2.68627e-05
2.70807e-05
2.71104e-05
2.69357e-05
2.28145e-05
1.78915e-05
1.32649e-05
9.30728e-06
6.18738e-06
3.95311e-06
2.55664e-06
1.88109e-06
1.87741e-06
3.64199e-06
1.98665e-06
5.79446e-08
8.76199e-10
1.12448e-06
1.95755e-06
2.30579e-06
2.73233e-06
3.33878e-06
4.1846e-06
5.33525e-06
6.87236e-06
8.88939e-06
1.14756e-05
1.46789e-05
1.84305e-05
2.2218e-05
2.35156e-05
2.46481e-05
2.56115e-05
2.6404e-05
2.70225e-05
2.74611e-05
2.77106e-05
2.77574e-05
2.60676e-05
2.18015e-05
1.71205e-05
1.27082e-05
8.94273e-06
5.99849e-06
3.90228e-06
2.60432e-06
1.99064e-06
2.06442e-06
4.21699e-06
2.00277e-06
6.21e-08
8.58117e-10
1.00943e-06
1.66614e-06
2.18938e-06
2.74471e-06
3.44338e-06
4.37252e-06
5.61736e-06
7.26434e-06
9.39074e-06
1.20432e-05
1.5204e-05
1.87512e-05
2.2348e-05
2.39522e-05
2.5078e-05
2.60382e-05
2.68382e-05
2.74788e-05
2.79557e-05
2.82583e-05
2.83706e-05
2.63191e-05
2.21444e-05
1.74854e-05
1.2999e-05
9.13048e-06
6.10969e-06
3.97912e-06
2.67666e-06
2.07385e-06
2.18594e-06
4.56691e-06
2.05735e-06
6.59493e-08
1.13708e-09
7.96072e-07
1.48568e-06
2.16064e-06
2.91036e-06
3.83406e-06
5.02016e-06
6.54191e-06
8.4524e-06
1.07784e-05
1.35135e-05
1.66093e-05
1.99609e-05
2.31509e-05
2.43302e-05
2.53574e-05
2.62409e-05
2.69843e-05
2.75858e-05
2.80385e-05
2.83301e-05
2.84438e-05
2.58338e-05
2.14651e-05
1.6871e-05
1.25851e-05
8.9187e-06
6.03784e-06
3.99311e-06
2.75298e-06
2.19044e-06
2.37613e-06
5.1554e-06
2.06654e-06
7.07414e-08
1.57331e-09
7.76396e-07
1.55121e-06
2.42678e-06
3.45046e-06
4.68169e-06
6.17015e-06
7.94717e-06
1.00257e-05
1.24016e-05
1.50532e-05
1.79382e-05
2.09783e-05
2.36968e-05
2.47945e-05
2.57755e-05
2.66377e-05
2.73742e-05
2.7975e-05
2.84275e-05
2.87172e-05
2.88281e-05
2.53983e-05
2.09331e-05
1.64071e-05
1.22701e-05
8.75873e-06
5.99154e-06
4.01507e-06
2.81907e-06
2.28584e-06
2.53113e-06
5.63295e-06
2.09407e-06
7.55984e-08
2.05954e-09
8.56212e-07
1.75756e-06
2.82086e-06
4.05881e-06
5.48421e-06
7.1077e-06
8.93798e-06
1.09835e-05
1.32534e-05
1.57537e-05
1.84733e-05
2.1331e-05
2.35428e-05
2.4695e-05
2.57447e-05
2.66763e-05
2.74732e-05
2.8119e-05
2.85978e-05
2.88945e-05
2.79702e-05
2.41068e-05
1.96017e-05
1.52292e-05
1.13887e-05
8.21481e-06
5.72966e-06
3.94425e-06
2.86562e-06
2.39857e-06
2.74289e-06
6.31024e-06
2.09133e-06
8.09428e-08
2.63855e-09
9.24541e-07
1.90226e-06
3.03398e-06
4.30644e-06
5.71812e-06
7.28379e-06
9.03497e-06
1.10163e-05
1.32715e-05
1.58144e-05
1.85946e-05
2.14651e-05
2.36723e-05
2.49531e-05
2.61129e-05
2.71332e-05
2.79976e-05
2.86906e-05
2.91974e-05
2.95032e-05
2.76302e-05
2.37353e-05
1.91517e-05
1.46848e-05
1.0845e-05
7.7825e-06
5.4637e-06
3.83674e-06
2.87224e-06
2.47984e-06
2.92581e-06
6.89396e-06
2.10065e-06
8.609e-08
3.15008e-09
8.97135e-07
1.84902e-06
2.94195e-06
4.16309e-06
5.53199e-06
7.09715e-06
8.92572e-06
1.10835e-05
1.35998e-05
1.64269e-05
1.94254e-05
2.23694e-05
2.41777e-05
2.55037e-05
2.66786e-05
2.76939e-05
2.85417e-05
2.92129e-05
2.96965e-05
2.99785e-05
2.77379e-05
2.37374e-05
1.89957e-05
1.43673e-05
1.0448e-05
7.41393e-06
5.20331e-06
3.71748e-06
2.86857e-06
2.56715e-06
3.15007e-06
7.54065e-06
2.09252e-06
9.13676e-08
3.68867e-09
8.31846e-07
1.73733e-06
2.83118e-06
4.12403e-06
5.65818e-06
7.49616e-06
9.69672e-06
1.22789e-05
1.51828e-05
1.82576e-05
2.13068e-05
2.41318e-05
2.56921e-05
2.69161e-05
2.79751e-05
2.88712e-05
2.96038e-05
3.01687e-05
3.05578e-05
3.07581e-05
2.80872e-05
2.40541e-05
1.9234e-05
1.44529e-05
1.03836e-05
7.26911e-06
5.06107e-06
3.63766e-06
2.86001e-06
2.63196e-06
3.33965e-06
8.01351e-06
2.09349e-06
9.65539e-08
4.19086e-09
8.15225e-07
1.74793e-06
2.96652e-06
4.50571e-06
6.40248e-06
8.68353e-06
1.13376e-05
1.42861e-05
1.738e-05
2.0442e-05
2.33235e-05
2.5885e-05
2.71258e-05
2.82011e-05
2.91197e-05
2.98862e-05
3.0501e-05
3.09598e-05
3.12545e-05
3.06897e-05
2.78313e-05
2.37647e-05
1.90047e-05
1.42983e-05
1.02634e-05
7.157e-06
4.96898e-06
3.5974e-06
2.87402e-06
2.71303e-06
3.55711e-06
8.40195e-06
2.08691e-06
1.01851e-07
4.84191e-09
8.8061e-07
1.92603e-06
3.34567e-06
5.17317e-06
7.40924e-06
1.00172e-05
1.29129e-05
1.59657e-05
1.90218e-05
2.19413e-05
2.46212e-05
2.69873e-05
2.84348e-05
2.94029e-05
3.02241e-05
3.09004e-05
3.14297e-05
3.1806e-05
3.18708e-05
3.00306e-05
2.70836e-05
2.3117e-05
1.85419e-05
1.40261e-05
1.01215e-05
7.08003e-06
4.92558e-06
3.5899e-06
2.89933e-06
2.78676e-06
3.74499e-06
8.64037e-06
2.08943e-06
1.06943e-07
5.51597e-09
9.80195e-07
2.14916e-06
3.72522e-06
5.7227e-06
8.11431e-06
1.08399e-05
1.38055e-05
1.68822e-05
1.99203e-05
2.27788e-05
2.53509e-05
2.75723e-05
2.93512e-05
3.02751e-05
3.10539e-05
3.16863e-05
3.21682e-05
3.22001e-05
3.10817e-05
2.90906e-05
2.61103e-05
2.2213e-05
1.78292e-05
1.35637e-05
9.87678e-06
6.97568e-06
4.89736e-06
3.61059e-06
2.94881e-06
2.87801e-06
3.9482e-06
8.79389e-06
2.09339e-06
1.12069e-07
6.29602e-09
1.06826e-06
2.31952e-06
3.96981e-06
6.03013e-06
8.48698e-06
1.13019e-05
1.43861e-05
1.7583e-05
2.06963e-05
2.35527e-05
2.60429e-05
2.81207e-05
2.97804e-05
3.10298e-05
3.18732e-05
3.23001e-05
3.22693e-05
3.17008e-05
3.04733e-05
2.84148e-05
2.53842e-05
2.14942e-05
1.72087e-05
1.31178e-05
9.62463e-06
6.87919e-06
4.89689e-06
3.66007e-06
3.01729e-06
2.97163e-06
4.12629e-06
8.91297e-06
2.10967e-06
1.17322e-07
7.06136e-09
1.11681e-06
2.40576e-06
4.09506e-06
6.21952e-06
8.79819e-06
1.18039e-05
1.51101e-05
1.84845e-05
2.1672e-05
2.44927e-05
2.68667e-05
2.87831e-05
3.02632e-05
3.1335e-05
3.20155e-05
3.23001e-05
3.21502e-05
3.14823e-05
3.01656e-05
2.802e-05
2.49125e-05
2.09762e-05
1.67017e-05
1.26936e-05
9.33812e-06
6.74246e-06
4.88503e-06
3.72133e-06
3.10946e-06
3.09111e-06
4.33105e-06
9.03597e-06
2.13164e-06
1.23114e-07
8.00768e-09
1.15088e-06
2.47995e-06
4.2482e-06
6.51983e-06
9.32736e-06
1.26106e-05
1.61575e-05
1.96525e-05
2.28227e-05
2.55279e-05
2.77379e-05
2.94775e-05
3.07882e-05
3.17077e-05
3.2257e-05
3.24317e-05
3.21908e-05
3.14485e-05
3.00678e-05
2.78609e-05
2.46914e-05
2.06963e-05
1.63847e-05
1.23865e-05
9.09821e-06
6.61169e-06
4.87216e-06
3.78603e-06
3.21326e-06
3.22591e-06
4.55235e-06
9.18777e-06
2.16084e-06
1.29468e-07
9.09125e-09
1.19171e-06
2.58288e-06
4.46877e-06
6.92793e-06
9.97789e-06
1.34972e-05
1.71908e-05
2.07048e-05
2.37942e-05
2.63671e-05
2.84285e-05
3.00233e-05
3.12039e-05
3.20125e-05
3.24708e-05
3.25718e-05
3.22704e-05
3.14735e-05
3.00324e-05
2.77457e-05
2.44755e-05
2.03758e-05
1.5991e-05
1.1985e-05
8.7619e-06
6.39657e-06
4.80389e-06
3.82868e-06
3.32598e-06
3.39782e-06
4.85621e-06
9.30031e-06
2.18326e-06
1.3605e-07
1.03874e-08
1.24069e-06
2.70264e-06
4.70564e-06
7.33011e-06
1.0574e-05
1.42675e-05
1.80619e-05
2.15872e-05
2.46192e-05
2.70941e-05
2.90395e-05
3.05169e-05
3.15901e-05
3.23079e-05
3.26947e-05
3.27427e-05
3.24026e-05
3.15724e-05
3.0088e-05
2.77285e-05
2.43419e-05
2.0095e-05
1.55828e-05
1.15222e-05
8.33778e-06
6.08973e-06
4.6593e-06
3.82337e-06
3.42523e-06
3.59391e-06
5.24664e-06
9.30003e-06
2.19285e-06
1.41993e-07
1.17441e-08
1.28399e-06
2.80748e-06
4.90806e-06
7.67182e-06
1.10927e-05
1.4968e-05
1.88956e-05
2.24736e-05
2.54837e-05
2.78866e-05
2.97351e-05
3.11104e-05
3.20886e-05
3.27255e-05
3.30482e-05
3.30484e-05
3.26727e-05
3.18104e-05
3.0284e-05
2.78523e-05
2.43438e-05
1.99249e-05
1.52335e-05
1.10525e-05
7.85117e-06
5.69247e-06
4.42654e-06
3.75719e-06
3.50635e-06
3.82638e-06
5.76441e-06
9.08012e-06
2.18384e-06
1.46437e-07
1.31939e-08
1.32553e-06
2.90914e-06
5.10952e-06
8.02892e-06
1.16648e-05
1.57698e-05
1.98626e-05
2.34979e-05
2.64715e-05
2.87816e-05
3.05131e-05
3.1768e-05
3.26343e-05
3.31741e-05
3.34171e-05
3.33551e-05
3.2933e-05
3.20368e-05
3.04853e-05
2.80337e-05
2.44942e-05
1.99959e-05
1.51552e-05
1.08043e-05
7.49393e-06
5.3299e-06
4.15939e-06
3.63283e-06
3.54505e-06
4.05906e-06
6.35073e-06
8.67673e-06
2.16311e-06
1.49153e-07
1.46148e-08
1.37036e-06
3.01696e-06
5.32164e-06
8.40771e-06
1.22739e-05
1.66131e-05
2.08525e-05
2.45106e-05
2.74122e-05
2.95987e-05
3.11868e-05
3.22977e-05
3.30298e-05
3.34501e-05
3.35899e-05
3.3441e-05
3.29478e-05
3.19984e-05
3.04231e-05
2.80018e-05
2.45594e-05
2.01726e-05
1.53466e-05
1.08717e-05
7.38672e-06
5.10743e-06
3.92501e-06
3.47096e-06
3.52398e-06
4.24274e-06
6.89684e-06
8.23275e-06
2.14121e-06
1.5107e-07
1.60238e-08
1.41785e-06
3.12316e-06
5.52292e-06
8.76832e-06
1.28619e-05
1.7428e-05
2.17931e-05
2.54446e-05
2.82453e-05
3.02827e-05
3.17053e-05
3.26527e-05
3.32337e-05
3.35193e-05
3.35416e-05
3.32913e-05
3.27135e-05
3.17034e-05
3.01142e-05
2.77698e-05
2.4535e-05
2.04472e-05
1.58484e-05
1.13723e-05
7.6857e-06
5.16374e-06
3.81484e-06
3.30612e-06
3.41599e-06
4.28699e-06
7.21132e-06
7.94375e-06
2.13433e-06
1.53734e-07
1.73512e-08
1.45907e-06
3.21057e-06
5.69253e-06
9.09257e-06
1.34173e-05
1.82075e-05
2.26785e-05
2.62982e-05
2.89796e-05
3.08591e-05
3.21156e-05
3.29053e-05
3.3345e-05
3.35076e-05
3.34228e-05
3.30786e-05
3.24181e-05
3.1345e-05
2.97348e-05
2.74547e-05
2.44229e-05
2.06825e-05
1.64578e-05
1.21716e-05
8.38267e-06
5.57497e-06
3.93343e-06
3.22314e-06
3.25305e-06
4.15251e-06
7.18155e-06
7.83877e-06
2.14399e-06
1.58448e-07
1.87324e-08
1.49453e-06
3.28652e-06
5.85395e-06
9.42469e-06
1.39977e-05
1.90035e-05
2.35417e-05
2.7088e-05
2.9624e-05
3.13385e-05
3.24388e-05
3.30925e-05
3.34175e-05
3.34839e-05
3.33163e-05
3.28974e-05
3.21689e-05
3.10429e-05
2.94167e-05
2.7194e-05
2.43285e-05
2.08819e-05
1.7037e-05
1.30698e-05
9.35429e-06
6.34034e-06
4.35966e-06
3.3337e-06
3.13848e-06
3.89454e-06
6.79445e-06
7.90311e-06
2.16356e-06
1.65447e-07
2.02399e-08
1.52597e-06
3.35877e-06
6.02098e-06
9.77654e-06
1.45971e-05
1.97796e-05
2.43254e-05
2.77556e-05
3.01345e-05
3.16973e-05
3.267e-05
3.32259e-05
3.34792e-05
3.34905e-05
3.32734e-05
3.28002e-05
3.20113e-05
3.08252e-05
2.91559e-05
2.69304e-05
2.41363e-05
2.08705e-05
1.73299e-05
1.37259e-05
1.02784e-05
7.28368e-06
5.06757e-06
3.71161e-06
3.21403e-06
3.71356e-06
6.32686e-06
8.12611e-06
2.19023e-06
1.73679e-07
2.20081e-08
1.55593e-06
3.43342e-06
6.20104e-06
1.01527e-05
1.52136e-05
2.05317e-05
2.50403e-05
2.83388e-05
3.05705e-05
3.20082e-05
3.28903e-05
3.33889e-05
3.36099e-05
3.36017e-05
3.33648e-05
3.28578e-05
3.20149e-05
3.07575e-05
2.90124e-05
2.67272e-05
2.39124e-05
2.06889e-05
1.72825e-05
1.39344e-05
1.08176e-05
8.07209e-06
5.85308e-06
4.29053e-06
3.52205e-06
3.76595e-06
6.12593e-06
8.47742e-06
2.22593e-06
1.80901e-07
2.4001e-08
1.58472e-06
3.51066e-06
6.39086e-06
1.05438e-05
1.58347e-05
2.12578e-05
2.57029e-05
2.88633e-05
3.09591e-05
3.2293e-05
3.31099e-05
3.35775e-05
3.37917e-05
3.37864e-05
3.35453e-05
3.30103e-05
3.21071e-05
3.07597e-05
2.89102e-05
2.65264e-05
2.36306e-05
2.03527e-05
1.69486e-05
1.3716e-05
1.08595e-05
8.45178e-06
6.45073e-06
4.89617e-06
3.99565e-06
4.09489e-06
6.41872e-06
8.76812e-06
2.25885e-06
1.84267e-07
2.6186e-08
1.61492e-06
3.59268e-06
6.58929e-06
1.09479e-05
1.64629e-05
2.1964e-05
2.63184e-05
2.93264e-05
3.12798e-05
3.25063e-05
3.32562e-05
3.36926e-05
3.38998e-05
3.38955e-05
3.3643e-05
3.30656e-05
3.20789e-05
3.06143e-05
2.86426e-05
2.6163e-05
2.3205e-05
1.98772e-05
1.64322e-05
1.32226e-05
1.05306e-05
8.43449e-06
6.74976e-06
5.39003e-06
4.54113e-06
4.67476e-06
7.26711e-06
8.78708e-06
2.27608e-06
1.82456e-07
2.83743e-08
1.64427e-06
3.67043e-06
6.7763e-06
1.13325e-05
1.70581e-05
2.26136e-05
2.68558e-05
2.96943e-05
3.14869e-05
3.25864e-05
3.32496e-05
3.36359e-05
3.3818e-05
3.37954e-05
3.35083e-05
3.28606e-05
3.17598e-05
3.01546e-05
2.80633e-05
2.55369e-05
2.26119e-05
1.93405e-05
1.59141e-05
1.27049e-05
1.00919e-05
8.2109e-06
6.8291e-06
5.76185e-06
5.12115e-06
5.47402e-06
8.59681e-06
8.56656e-06
2.28461e-06
1.77486e-07
3.04715e-08
1.67116e-06
3.73818e-06
6.94176e-06
1.16866e-05
1.76139e-05
2.32044e-05
2.73109e-05
2.99544e-05
3.15588e-05
3.25038e-05
3.30553e-05
3.3369e-05
3.35055e-05
3.34453e-05
3.31046e-05
3.23685e-05
3.11408e-05
2.93974e-05
2.72206e-05
2.47299e-05
2.19759e-05
1.89322e-05
1.56612e-05
1.24815e-05
9.85708e-06
8.02479e-06
6.82247e-06
6.03777e-06
5.69708e-06
6.40573e-06
1.01271e-05
8.37913e-06
2.3068e-06
1.73434e-07
3.24113e-08
1.69373e-06
3.79124e-06
7.07774e-06
1.19968e-05
1.81074e-05
2.37036e-05
2.76447e-05
3.00678e-05
3.14629e-05
3.2238e-05
3.26674e-05
3.29022e-05
3.29888e-05
3.28878e-05
3.24914e-05
3.16677e-05
3.03186e-05
2.8452e-05
2.62204e-05
2.38225e-05
2.13409e-05
1.86851e-05
1.57527e-05
1.27097e-05
1.00313e-05
8.07666e-06
6.85776e-06
6.23159e-06
6.1811e-06
7.29352e-06
1.14801e-05
8.37719e-06
2.35405e-06
1.73319e-07
3.4268e-08
1.71101e-06
3.82867e-06
7.18572e-06
1.22671e-05
1.85408e-05
2.41089e-05
2.78566e-05
3.00432e-05
3.12233e-05
3.18313e-05
3.2147e-05
3.23135e-05
3.23614e-05
3.2231e-05
3.17903e-05
3.08895e-05
2.94273e-05
2.74415e-05
2.51553e-05
2.28502e-05
2.06602e-05
1.84716e-05
1.60424e-05
1.33196e-05
1.06582e-05
8.49382e-06
7.0691e-06
6.4004e-06
6.50593e-06
7.94234e-06
1.24233e-05
8.53609e-06
2.42069e-06
1.77754e-07
3.61278e-08
1.7224e-06
3.85219e-06
7.27276e-06
1.25091e-05
1.89239e-05
2.4428e-05
2.79595e-05
2.99057e-05
3.08798e-05
3.13369e-05
3.15573e-05
3.16733e-05
3.16984e-05
3.1552e-05
3.10794e-05
3.01085e-05
2.85292e-05
2.64079e-05
2.40405e-05
2.17942e-05
1.98637e-05
1.81457e-05
1.63168e-05
1.41122e-05
1.16409e-05
9.30689e-06
7.57263e-06
6.6727e-06
6.7301e-06
8.30441e-06
1.29623e-05
8.77489e-06
2.49109e-06
1.85663e-07
3.81655e-08
1.72979e-06
3.86928e-06
7.3571e-06
1.2753e-05
1.92881e-05
2.4688e-05
2.79846e-05
2.96946e-05
3.04803e-05
3.08083e-05
3.09536e-05
3.10345e-05
3.10475e-05
3.0891e-05
3.0386e-05
2.93338e-05
2.7611e-05
2.53136e-05
2.28188e-05
2.05856e-05
1.8869e-05
1.75899e-05
1.63934e-05
1.48561e-05
1.27808e-05
1.04263e-05
8.3959e-06
7.1625e-06
7.00232e-06
8.51938e-06
1.3261e-05
9.00722e-06
2.54938e-06
1.95283e-07
4.04947e-08
1.7348e-06
3.88703e-06
7.45536e-06
1.30238e-05
1.9657e-05
2.49151e-05
2.79703e-05
2.94614e-05
3.00833e-05
3.03059e-05
3.03939e-05
3.04507e-05
3.04562e-05
3.02883e-05
2.97409e-05
2.85829e-05
2.66727e-05
2.41408e-05
2.14602e-05
1.91909e-05
1.7644e-05
1.67634e-05
1.61888e-05
1.53882e-05
1.38745e-05
1.16888e-05
9.46836e-06
7.90261e-06
7.45632e-06
8.82462e-06
1.36233e-05
9.22168e-06
2.5965e-06
2.05082e-07
4.32754e-08
1.74087e-06
3.91563e-06
7.58731e-06
1.33485e-05
2.00598e-05
2.51483e-05
2.79675e-05
2.92651e-05
2.97506e-05
2.9888e-05
2.9931e-05
2.99691e-05
2.99667e-05
2.97813e-05
2.91774e-05
2.78849e-05
2.57383e-05
2.29072e-05
1.9978e-05
1.76223e-05
1.62021e-05
1.56791e-05
1.57006e-05
1.56495e-05
1.48014e-05
1.29538e-05
1.06859e-05
8.85438e-06
8.13202e-06
9.35429e-06
1.42279e-05
9.3901e-06
2.63444e-06
2.14122e-07
4.65427e-08
1.74982e-06
3.95891e-06
7.75624e-06
1.3724e-05
2.04897e-05
2.53948e-05
2.79988e-05
2.9135e-05
2.95169e-05
2.95926e-05
2.96023e-05
2.96266e-05
2.96174e-05
2.94124e-05
2.8744e-05
2.72968e-05
2.48724e-05
2.16816e-05
1.84405e-05
1.59427e-05
1.45965e-05
1.43776e-05
1.495e-05
1.56232e-05
1.54987e-05
1.41333e-05
1.19786e-05
9.99253e-06
9.05578e-06
1.0189e-05
1.51661e-05
9.52325e-06
2.67037e-06
2.22181e-07
5.02875e-08
1.76343e-06
4.02023e-06
7.96373e-06
1.41461e-05
2.09434e-05
2.56659e-05
2.80871e-05
2.90987e-05
2.94054e-05
2.94432e-05
2.94388e-05
2.94585e-05
2.94467e-05
2.92295e-05
2.85074e-05
2.69118e-05
2.41953e-05
2.05989e-05
1.69792e-05
1.42667e-05
1.2917e-05
1.29185e-05
1.39578e-05
1.52899e-05
1.5896e-05
1.51172e-05
1.32433e-05
1.12658e-05
1.02501e-05
1.14334e-05
1.65341e-05
9.63872e-06
2.71057e-06
2.28742e-07
5.42914e-08
1.78129e-06
4.09515e-06
8.19219e-06
1.45778e-05
2.13845e-05
2.59432e-05
2.82212e-05
2.91435e-05
2.94014e-05
2.94183e-05
2.94129e-05
2.9448e-05
2.94592e-05
2.9258e-05
2.85161e-05
2.68129e-05
2.38374e-05
1.98251e-05
1.57603e-05
1.2731e-05
1.12578e-05
1.13481e-05
1.27161e-05
1.45916e-05
1.5878e-05
1.57362e-05
1.42967e-05
1.2538e-05
1.16715e-05
1.31555e-05
1.83354e-05
9.64511e-06
2.74443e-06
2.32164e-07
5.81577e-08
1.80172e-06
4.17457e-06
8.41559e-06
1.49774e-05
2.17799e-05
2.62008e-05
2.83663e-05
2.92202e-05
2.94434e-05
2.94514e-05
2.94574e-05
2.95193e-05
2.95694e-05
2.94169e-05
2.87252e-05
2.70349e-05
2.39393e-05
1.95845e-05
1.50196e-05
1.15307e-05
9.75214e-06
9.72558e-06
1.12051e-05
1.34432e-05
1.53143e-05
1.58364e-05
1.49871e-05
1.36992e-05
1.32875e-05
1.53716e-05
2.02237e-05
9.48559e-06
2.76032e-06
2.31292e-07
6.14259e-08
1.82176e-06
4.24688e-06
8.60597e-06
1.53061e-05
2.20995e-05
2.64083e-05
2.84785e-05
2.92694e-05
2.94591e-05
2.94603e-05
2.9482e-05
2.95782e-05
2.96813e-05
2.96079e-05
2.90345e-05
2.74971e-05
2.45049e-05
2.0021e-05
1.50089e-05
1.09185e-05
8.59301e-06
8.16901e-06
9.45994e-06
1.18117e-05
1.41564e-05
1.53937e-05
1.53131e-05
1.4758e-05
1.51012e-05
1.79219e-05
2.15869e-05
9.23888e-06
2.76267e-06
2.27283e-07
6.38035e-08
1.83851e-06
4.30156e-06
8.74135e-06
1.55402e-05
2.23307e-05
2.65508e-05
2.85314e-05
2.92543e-05
2.94051e-05
2.93987e-05
2.94399e-05
2.95774e-05
2.97441e-05
2.9771e-05
2.93703e-05
2.81222e-05
2.55051e-05
2.12402e-05
1.59658e-05
1.11767e-05
8.05186e-06
6.90747e-06
7.63944e-06
9.76001e-06
1.24011e-05
1.43986e-05
1.52524e-05
1.56298e-05
1.68949e-05
2.03265e-05
2.21493e-05
9.01394e-06
2.76378e-06
2.22945e-07
6.5242e-08
1.84989e-06
4.33299e-06
8.81425e-06
1.56778e-05
2.24793e-05
2.66327e-05
2.85266e-05
2.91761e-05
2.92843e-05
2.92713e-05
2.93378e-05
2.95265e-05
2.9769e-05
2.99096e-05
2.97036e-05
2.88055e-05
2.67418e-05
2.30697e-05
1.79481e-05
1.25777e-05
8.45507e-06
6.28982e-06
6.10216e-06
7.5537e-06
1.01013e-05
1.27447e-05
1.46389e-05
1.60743e-05
1.82827e-05
2.20717e-05
2.21536e-05
8.86773e-06
2.77271e-06
2.20765e-07
6.59266e-08
1.85571e-06
4.34156e-06
8.8304e-06
1.57317e-05
2.25571e-05
2.66619e-05
2.8474e-05
2.90502e-05
2.91176e-05
2.91031e-05
2.92041e-05
2.94569e-05
2.97912e-05
3.00595e-05
3.00518e-05
2.94934e-05
2.80031e-05
2.51231e-05
2.06363e-05
1.51451e-05
1.00898e-05
6.69315e-06
5.30791e-06
5.7145e-06
7.59096e-06
1.03691e-05
1.3176e-05
1.57422e-05
1.88753e-05
2.29105e-05
2.18971e-05
8.79903e-06
2.79196e-06
2.21884e-07
6.61416e-08
1.85603e-06
4.3299e-06
8.80102e-06
1.57207e-05
2.25791e-05
2.66488e-05
2.83836e-05
2.88897e-05
2.89209e-05
2.89114e-05
2.90551e-05
2.93827e-05
2.98216e-05
3.02281e-05
3.04142e-05
3.01533e-05
2.91494e-05
2.70225e-05
2.34265e-05
1.84226e-05
1.29231e-05
8.35058e-06
5.61402e-06
4.77227e-06
5.55411e-06
7.70135e-06
1.07605e-05
1.42569e-05
1.83462e-05
2.28071e-05
2.1498e-05
8.77053e-06
2.81725e-06
2.26389e-07
6.62102e-08
1.85226e-06
4.30509e-06
8.7463e-06
1.56765e-05
2.25686e-05
2.66033e-05
2.82581e-05
2.86939e-05
2.86924e-05
2.86941e-05
2.88878e-05
2.92979e-05
2.98484e-05
3.03963e-05
3.07664e-05
3.07585e-05
3.0131e-05
2.85915e-05
2.58318e-05
2.16699e-05
1.64211e-05
1.11527e-05
7.13926e-06
4.97404e-06
4.52205e-06
5.58659e-06
8.01651e-06
1.16603e-05
1.64952e-05
2.17753e-05
2.0996e-05
8.74246e-06
2.83969e-06
2.33537e-07
6.63509e-08
1.8453e-06
4.27212e-06
8.68112e-06
1.56233e-05
2.25445e-05
2.65306e-05
2.80967e-05
2.84551e-05
2.84161e-05
2.84256e-05
2.86672e-05
2.91589e-05
2.98209e-05
3.0509e-05
3.10549e-05
3.12629e-05
3.09152e-05
2.97844e-05
2.76536e-05
2.43297e-05
1.97956e-05
1.45492e-05
9.69889e-06
6.29958e-06
4.6074e-06
4.5029e-06
5.88291e-06
8.82069e-06
1.36387e-05
1.98545e-05
2.04262e-05
8.67548e-06
2.84892e-06
2.41436e-07
6.67582e-08
1.83688e-06
4.23798e-06
8.62389e-06
1.55903e-05
2.25316e-05
2.64455e-05
2.79073e-05
2.81805e-05
2.81016e-05
2.8117e-05
2.8402e-05
2.89673e-05
2.97271e-05
3.05314e-05
3.12101e-05
3.15716e-05
3.14111e-05
3.05454e-05
2.88377e-05
2.6173e-05
2.246e-05
1.77935e-05
1.27887e-05
8.5225e-06
5.68888e-06
4.454e-06
4.74509e-06
6.63214e-06
1.06653e-05
1.72791e-05
1.98113e-05
8.56083e-06
2.839e-06
2.48586e-07
6.75443e-08
1.8282e-06
4.20727e-06
8.58533e-06
1.55946e-05
2.25415e-05
2.6353e-05
2.76923e-05
2.78685e-05
2.7741e-05
2.77543e-05
2.80738e-05
2.87003e-05
2.95404e-05
3.04398e-05
3.12219e-05
3.16857e-05
3.16206e-05
3.08628e-05
2.93587e-05
2.71271e-05
2.41471e-05
2.03208e-05
1.57869e-05
1.12502e-05
7.55336e-06
5.2799e-06
4.55306e-06
5.40858e-06
8.34695e-06
1.453e-05
1.91905e-05
8.43239e-06
2.81373e-06
2.5422e-07
6.88096e-08
1.82075e-06
4.18527e-06
8.57869e-06
1.56552e-05
2.25844e-05
2.62585e-05
2.74567e-05
2.75294e-05
2.73495e-05
2.73557e-05
2.77007e-05
2.83748e-05
2.92756e-05
3.02422e-05
3.10866e-05
3.15907e-05
3.15306e-05
3.07581e-05
2.92943e-05
2.72869e-05
2.48364e-05
2.18545e-05
1.8188e-05
1.39967e-05
9.89899e-06
6.7802e-06
5.12598e-06
5.05957e-06
6.96663e-06
1.22388e-05
1.86314e-05
8.34526e-06
2.78518e-06
2.58041e-07
7.06493e-08
1.81618e-06
4.17715e-06
8.61466e-06
1.57858e-05
2.26671e-05
2.61713e-05
2.72156e-05
2.71849e-05
2.69512e-05
2.69472e-05
2.73115e-05
2.80219e-05
2.89653e-05
2.99717e-05
3.08375e-05
3.13199e-05
3.11729e-05
3.02598e-05
2.86826e-05
2.67307e-05
2.46485e-05
2.24134e-05
1.97361e-05
1.63293e-05
1.237e-05
8.73344e-06
6.28446e-06
5.39685e-06
6.42847e-06
1.07433e-05
1.81803e-05
8.32386e-06
2.76035e-06
2.60226e-07
7.31058e-08
1.81531e-06
4.18452e-06
8.69036e-06
1.59699e-05
2.27751e-05
2.60897e-05
2.6979e-05
2.68508e-05
2.65689e-05
2.65567e-05
2.69386e-05
2.76788e-05
2.86527e-05
2.96788e-05
3.05326e-05
3.09384e-05
3.06174e-05
2.94421e-05
2.76072e-05
2.55597e-05
2.36946e-05
2.20788e-05
2.03825e-05
1.79997e-05
1.46399e-05
1.09149e-05
7.89461e-06
6.29807e-06
6.59736e-06
1.01011e-05
1.79672e-05
8.39814e-06
2.74734e-06
2.61281e-07
7.61053e-08
1.81858e-06
4.20671e-06
8.79838e-06
1.61863e-05
2.28855e-05
2.60026e-05
2.67463e-05
2.65337e-05
2.62156e-05
2.62048e-05
2.66104e-05
2.73835e-05
2.8387e-05
2.9427e-05
3.02545e-05
3.05509e-05
2.99915e-05
2.84513e-05
2.62299e-05
2.39511e-05
2.2164e-05
2.10221e-05
2.01908e-05
1.88803e-05
1.64315e-05
1.30533e-05
9.78904e-06
7.66533e-06
7.3961e-06
1.03307e-05
1.82618e-05
8.58179e-06
2.75211e-06
2.60942e-07
7.94252e-08
1.82512e-06
4.23971e-06
8.92396e-06
1.64054e-05
2.29758e-05
2.59014e-05
2.65133e-05
2.6228e-05
2.58847e-05
2.58853e-05
2.63237e-05
2.71378e-05
2.8179e-05
2.92417e-05
3.00516e-05
3.02404e-05
2.94211e-05
2.74548e-05
2.47489e-05
2.2119e-05
2.02708e-05
1.94383e-05
1.92899e-05
1.89425e-05
1.74969e-05
1.47887e-05
1.16667e-05
9.31692e-06
8.73758e-06
1.14739e-05
1.93147e-05
8.78247e-06
2.76626e-06
2.57424e-07
8.26785e-08
1.83356e-06
4.27723e-06
9.04823e-06
1.65988e-05
2.30284e-05
2.5772e-05
2.62598e-05
2.59068e-05
2.55443e-05
2.55618e-05
2.60379e-05
2.68979e-05
2.79839e-05
2.90835e-05
2.99026e-05
3.00254e-05
2.89913e-05
2.66175e-05
2.33913e-05
2.03182e-05
1.82666e-05
1.7552e-05
1.78498e-05
1.82563e-05
1.77424e-05
1.58652e-05
1.32342e-05
1.1053e-05
1.05669e-05
1.35849e-05
2.09783e-05
8.89821e-06
2.78269e-06
2.49758e-07
8.54104e-08
1.84142e-06
4.30968e-06
9.14749e-06
1.67354e-05
2.30216e-05
2.55914e-05
2.59554e-05
2.55331e-05
2.51516e-05
2.51858e-05
2.56974e-05
2.66002e-05
2.77305e-05
2.88767e-05
2.97395e-05
2.98758e-05
2.87575e-05
2.61158e-05
2.2435e-05
1.88606e-05
1.64356e-05
1.55919e-05
1.60522e-05
1.69734e-05
1.72826e-05
1.63211e-05
1.44529e-05
1.28216e-05
1.28683e-05
1.65805e-05
2.2604e-05
8.9841e-06
2.813e-06
2.40836e-07
8.73183e-08
1.84686e-06
4.33063e-06
9.20938e-06
1.68042e-05
2.29522e-05
2.53545e-05
2.55915e-05
2.50957e-05
2.46926e-05
2.47397e-05
2.52815e-05
2.62213e-05
2.73929e-05
2.85939e-05
2.95368e-05
2.97836e-05
2.87707e-05
2.61123e-05
2.21613e-05
1.80886e-05
1.51164e-05
1.38515e-05
1.41342e-05
1.52818e-05
1.6287e-05
1.63057e-05
1.54059e-05
1.46161e-05
1.55131e-05
1.99615e-05
2.37409e-05
9.15933e-06
2.87146e-06
2.34718e-07
8.83847e-08
1.84896e-06
4.33714e-06
9.2299e-06
1.68094e-05
2.28307e-05
2.50746e-05
2.51854e-05
2.46153e-05
2.4189e-05
2.42458e-05
2.48142e-05
2.57887e-05
2.70059e-05
2.82745e-05
2.93293e-05
2.97659e-05
2.9031e-05
2.66364e-05
2.26975e-05
1.82377e-05
1.46095e-05
1.26571e-05
1.24086e-05
1.34056e-05
1.48497e-05
1.58238e-05
1.604e-05
1.62914e-05
1.81532e-05
2.30246e-05
2.45388e-05
9.47712e-06
2.96166e-06
2.3374e-07
8.88615e-08
1.84828e-06
4.33214e-06
9.22038e-06
1.67708e-05
2.26763e-05
2.4773e-05
2.47641e-05
2.41235e-05
2.36751e-05
2.37415e-05
2.43382e-05
2.53529e-05
2.66274e-05
2.79813e-05
2.91717e-05
2.98379e-05
2.94727e-05
2.75428e-05
2.39164e-05
1.93119e-05
1.50661e-05
1.22759e-05
1.12227e-05
1.16702e-05
1.31062e-05
1.47636e-05
1.60926e-05
1.74913e-05
2.02935e-05
2.52732e-05
2.51838e-05
9.8968e-06
3.07337e-06
2.38101e-07
8.90942e-08
1.84573e-06
4.32037e-06
9.19591e-06
1.67122e-05
2.25087e-05
2.44675e-05
2.4347e-05
2.36414e-05
2.31729e-05
2.32501e-05
2.38786e-05
2.49417e-05
2.6287e-05
2.77423e-05
2.90816e-05
2.99821e-05
2.9994e-05
2.85968e-05
2.54932e-05
2.10542e-05
1.6407e-05
1.28042e-05
1.08245e-05
1.04502e-05
1.14077e-05
1.32157e-05
1.53432e-05
1.78162e-05
2.15042e-05
2.65592e-05
2.56686e-05
1.03213e-05
3.1862e-06
2.46585e-07
8.94059e-08
1.84269e-06
4.30746e-06
9.17218e-06
1.6655e-05
2.23407e-05
2.41658e-05
2.3941e-05
2.3176e-05
2.26893e-05
2.27781e-05
2.34403e-05
2.4557e-05
2.59823e-05
2.75489e-05
2.90395e-05
3.01566e-05
3.04995e-05
2.95907e-05
2.70678e-05
2.30354e-05
1.83138e-05
1.41116e-05
1.12495e-05
9.95617e-06
1.01516e-05
1.15842e-05
1.3936e-05
1.71269e-05
2.15906e-05
2.69372e-05
2.59366e-05
1.06553e-05
3.27896e-06
2.57532e-07
9.00455e-08
1.84044e-06
4.29845e-06
9.16276e-06
1.66174e-05
2.2182e-05
2.38691e-05
2.35423e-05
2.27212e-05
2.22177e-05
2.23181e-05
2.30144e-05
2.41867e-05
2.56953e-05
2.73747e-05
2.9009e-05
3.03132e-05
3.09198e-05
3.04001e-05
2.83955e-05
2.48655e-05
2.03496e-05
1.58771e-05
1.23384e-05
1.01856e-05
9.53332e-06
1.02991e-05
1.23504e-05
1.57219e-05
2.0703e-05
2.65888e-05
2.59956e-05
1.08474e-05
3.34107e-06