/*--------------------------------*- C++ -*----------------------------------*\
| =========                 |                                                 |
| \\      /  F ield         | OpenFOAM: The Open Source CFD Toolbox           |
|  \\    /   O peration     | Version:  v2006                                 |
|   \\  /    A nd           | Website:  www.openfoam.com                      |
|    \\/     M anipulation  |                                                 |
\*---------------------------------------------------------------------------*/
FoamFile
{
    version     2.0;
    format      ascii;
    class       surfaceScalarField;
    location    "35";
    object      phi;
}
// * * * * * * * * * * * * * * * * * * * * * * * * * * * * * * * * * * * * * //

dimensions      [1 0 -1 0 0 0 0];
oriented        oriented;


internalField   nonuniform List<scalar> 
228225
(
-7.14932e-06
1.83888e-07
1.91322e-07
-6.80819e-06
-5.28712e-07
1.86881e-07
-6.06584e-06
-9.1994e-07
1.77528e-07
-5.08645e-06
-1.12568e-06
1.46088e-07
-4.02577e-06
-1.16811e-06
1.07296e-07
-2.99972e-06
-1.10091e-06
7.47511e-08
-2.06757e-06
-9.84099e-07
5.1816e-08
-1.24414e-06
-8.61352e-07
3.78095e-08
-5.19489e-07
-7.56463e-07
3.17063e-08
1.25208e-07
-6.77941e-07
3.31563e-08
7.07996e-07
-6.22345e-07
3.94721e-08
1.24474e-06
-5.83907e-07
4.70868e-08
1.74728e-06
-5.56942e-07
5.43249e-08
2.22313e-06
-5.3653e-07
6.06093e-08
2.6771e-06
-5.1977e-07
6.57442e-08
3.11186e-06
-5.04559e-07
6.97456e-08
3.52847e-06
-4.89401e-07
7.27398e-08
3.92673e-06
-4.73242e-07
7.49277e-08
4.30538e-06
-4.55291e-07
7.65943e-08
4.66216e-06
-4.34909e-07
7.80917e-08
4.99386e-06
-4.11515e-07
7.97634e-08
5.29635e-06
-3.84488e-07
8.19583e-08
5.56427e-06
-3.53032e-07
8.5059e-08
5.79079e-06
-3.16095e-07
8.95246e-08
5.96746e-06
-2.72704e-07
9.59873e-08
6.08321e-06
-2.21213e-07
1.05399e-07
6.12303e-06
-1.58751e-07
1.18875e-07
6.06739e-06
-8.15208e-08
1.37104e-07
5.88942e-06
1.63994e-08
1.61517e-07
5.5352e-06
1.60205e-07
1.93991e-07
4.94123e-06
3.58207e-07
2.35785e-07
4.01191e-06
6.47411e-07
2.82021e-07
2.68639e-06
1.01614e-06
3.09723e-07
1.12417e-06
1.28843e-06
2.74582e-07
9.85174e-07
1.40539e-07
-8.23519e-07
9.17581e-07
8.94231e-08
-2.06992e-06
7.71734e-07
-5.41481e-08
-3.2573e-06
4.77368e-07
-2.10183e-07
-4.25888e-06
2.23892e-07
-3.48072e-07
-5.02033e-06
1.99554e-08
-4.26703e-07
-5.57615e-06
-8.77648e-08
-4.57377e-07
-5.91912e-06
-1.80133e-07
-4.6099e-07
-6.05932e-06
-2.70364e-07
-4.50728e-07
-6.02461e-06
-3.59855e-07
-4.31216e-07
-5.84786e-06
-4.49977e-07
-4.04553e-07
-5.5577e-06
-5.38541e-07
-3.73764e-07
-5.17466e-06
-6.22649e-07
-3.44051e-07
-4.71415e-06
-6.98132e-07
-3.19039e-07
-4.19013e-06
-7.61143e-07
-2.99084e-07
-3.61622e-06
-8.09552e-07
-2.83798e-07
-3.00532e-06
-8.42373e-07
-2.72726e-07
-2.36929e-06
-8.59781e-07
-2.6529e-07
-1.7187e-06
-8.62632e-07
-2.60844e-07
-1.0632e-06
-8.51806e-07
-2.58626e-07
-4.11865e-07
-8.28034e-07
-2.57861e-07
2.26738e-07
-7.91885e-07
-2.579e-07
8.44366e-07
-7.43646e-07
-2.58155e-07
1.43272e-06
-6.83146e-07
-2.57952e-07
1.98301e-06
-6.09698e-07
-2.56424e-07
2.48422e-06
-5.21359e-07
-2.52332e-07
2.92079e-06
-4.13656e-07
-2.43938e-07
3.26993e-06
-2.78359e-07
-2.29387e-07
3.49723e-06
-1.01664e-07
-2.07034e-07
3.55747e-06
1.30861e-07
-1.74602e-07
3.40791e-06
4.37131e-07
-1.27269e-07
2.98898e-06
8.37298e-07
-6.00223e-08
2.28046e-06
1.32823e-06
2.79491e-08
1.36664e-06
1.81221e-06
1.18265e-07
4.82908e-07
2.02243e-06
1.50701e-07
1.37423e-06
9.5532e-08
1.04465e-07
7.41014e-07
7.20224e-08
-2.92898e-07
1.09628e-06
7.22823e-08
-1.02404e-06
1.1183e-06
9.01475e-08
-1.9262e-06
9.80325e-07
1.45807e-07
-2.87842e-06
7.45167e-07
2.2706e-07
-3.71679e-06
4.4117e-07
3.09615e-07
-4.39139e-06
1.16926e-07
3.77918e-07
-4.82784e-06
-2.61257e-07
4.27911e-07
-5.02332e-06
-6.25834e-07
4.62166e-07
-5.01366e-06
-9.448e-07
4.85991e-07
-4.83142e-06
-1.22176e-06
5.01904e-07
-4.50799e-06
-1.45531e-06
5.10249e-07
-4.07542e-06
-1.64219e-06
5.12563e-07
-3.56353e-06
-1.78274e-06
5.10817e-07
-2.99764e-06
-1.88076e-06
5.06445e-07
-2.399e-06
-1.94035e-06
5.00458e-07
-1.78582e-06
-1.96526e-06
4.93423e-07
-1.17407e-06
-1.95884e-06
4.8558e-07
-5.7786e-07
-1.92393e-06
4.77021e-07
-9.75281e-09
-1.86276e-06
4.67719e-07
5.19e-07
-1.77704e-06
4.57482e-07
9.9816e-07
-1.66775e-06
4.45994e-07
1.41845e-06
-1.53519e-06
4.32768e-07
1.77195e-06
-1.3793e-06
4.17063e-07
2.05276e-06
-1.19915e-06
3.97878e-07
2.2571e-06
-9.91096e-07
3.73898e-07
2.38272e-06
-7.46357e-07
3.4307e-07
2.42744e-06
-4.48473e-07
3.02629e-07
2.37598e-06
-6.88483e-08
2.51547e-07
2.20775e-06
4.12229e-07
1.93368e-07
1.88646e-06
1.02011e-06
1.38635e-07
1.40528e-06
1.70594e-06
1.03688e-07
8.24904e-07
2.29708e-06
9.59942e-08
2.84297e-07
2.46926e-06
9.47317e-08
1.59514e-06
6.50142e-08
1.18742e-08
6.47166e-07
8.14925e-08
-3.08606e-08
1.01064e-06
1.28332e-07
-1.11393e-07
1.04304e-06
1.5562e-07
-2.08614e-07
9.00803e-07
1.76629e-07
-3.14428e-07
6.56825e-07
1.94199e-07
-4.23442e-07
3.38647e-07
2.11727e-07
-4.97717e-07
-4.11357e-08
2.32681e-07
-6.00475e-07
-4.14416e-07
2.56444e-07
-6.99191e-07
-8.05504e-07
2.79095e-07
-7.52211e-07
-1.18652e-06
2.95603e-07
-7.34806e-07
-1.54136e-06
3.03147e-07
-6.34186e-07
-1.85728e-06
3.02336e-07
-4.4798e-07
-2.1235e-06
2.96074e-07
-1.836e-07
-2.33368e-06
2.87499e-07
1.47341e-07
-2.48955e-06
2.78749e-07
5.33395e-07
-2.59676e-06
2.71201e-07
9.62705e-07
-2.65957e-06
2.65804e-07
1.42229e-06
-2.68083e-06
2.63171e-07
1.89817e-06
-2.66277e-06
2.63699e-07
2.3754e-06
-2.60693e-06
2.67664e-07
2.83792e-06
-2.51415e-06
2.7531e-07
3.26836e-06
-2.38439e-06
2.86914e-07
3.64732e-06
-2.21622e-06
3.02802e-07
3.95274e-06
-2.00723e-06
3.23277e-07
4.16136e-06
-1.75547e-06
3.485e-07
4.25114e-06
-1.45833e-06
3.783e-07
4.20312e-06
-1.10902e-06
4.11575e-07
4.0042e-06
-6.93305e-07
4.4468e-07
3.65678e-06
-1.88737e-07
4.68213e-07
3.14506e-06
4.57579e-07
4.67186e-07
2.49322e-06
1.24342e-06
4.29193e-07
1.74814e-06
2.09356e-06
3.58012e-07
9.87803e-07
2.78234e-06
2.75727e-07
3.35138e-07
2.92741e-06
1.95505e-07
1.835e-06
9.69133e-08
1.38408e-08
5.51573e-07
8.1431e-08
-8.08803e-08
9.49359e-07
1.5587e-07
-2.8332e-07
1.03579e-06
2.09412e-07
-5.66044e-07
9.26801e-07
2.56667e-07
-9.00445e-07
6.87799e-07
3.03616e-07
-1.25925e-06
3.46879e-07
3.50938e-07
-1.62709e-06
-6.6882e-08
3.94084e-07
-1.9225e-06
-5.44156e-07
4.25775e-07
-2.13955e-06
-1.02855e-06
4.40801e-07
-2.26515e-06
-1.49951e-06
4.39306e-07
-2.29429e-06
-1.93728e-06
4.25748e-07
-2.22881e-06
-2.32775e-06
4.05592e-07
-2.07361e-06
-2.66131e-06
3.83164e-07
-1.83623e-06
-2.93189e-06
3.61332e-07
-1.52703e-06
-3.13981e-06
3.41526e-07
-1.15839e-06
-3.28912e-06
3.2416e-07
-7.43132e-07
-3.38379e-06
3.09403e-07
-2.93307e-07
-3.42759e-06
2.97366e-07
1.79797e-07
-3.42352e-06
2.88075e-07
6.64964e-07
-3.37323e-06
2.81546e-07
1.15024e-06
-3.27683e-06
2.77809e-07
1.62255e-06
-3.1332e-06
2.76913e-07
2.06737e-06
-2.93964e-06
2.79002e-07
2.46765e-06
-2.69135e-06
2.8424e-07
2.8024e-06
-2.38262e-06
2.92786e-07
3.04627e-06
-2.00689e-06
3.05077e-07
3.16982e-06
-1.55407e-06
3.21889e-07
3.14183e-06
-1.0082e-06
3.43281e-07
2.93045e-06
-3.44076e-07
3.6714e-07
2.54535e-06
4.56303e-07
3.86806e-07
2.0081e-06
1.39247e-06
3.88641e-07
1.37054e-06
2.3733e-06
3.58294e-07
7.32074e-07
3.12552e-06
2.95902e-07
2.22203e-07
3.22719e-06
2.11072e-07
1.96124e-06
9.75649e-08
-3.57813e-08
5.01098e-07
8.58869e-08
-1.59127e-07
8.89484e-07
1.82966e-07
-3.5189e-07
9.74946e-07
2.53562e-07
-5.8536e-07
8.49906e-07
3.10405e-07
-8.23688e-07
5.67078e-07
3.59184e-07
-1.03073e-06
1.53866e-07
4.00333e-07
-1.1779e-06
-3.49856e-07
4.3056e-07
-1.26428e-06
-9.04256e-07
4.46983e-07
-1.27231e-06
-1.46921e-06
4.4924e-07
-1.20101e-06
-2.00991e-06
4.39671e-07
-1.05804e-06
-2.5014e-06
4.2172e-07
-8.55508e-07
-2.92842e-06
3.98708e-07
-6.05824e-07
-3.28387e-06
3.73447e-07
-3.18648e-07
-3.56673e-06
3.48221e-07
-3.20052e-09
-3.77949e-06
3.24796e-07
3.31231e-07
-3.92748e-06
3.0449e-07
6.77767e-07
-4.01786e-06
2.88093e-07
1.03175e-06
-4.057e-06
2.76e-07
1.3895e-06
-4.04919e-06
2.68498e-07
1.74741e-06
-3.99638e-06
2.6584e-07
2.10114e-06
-3.8982e-06
2.68257e-07
2.44419e-06
-3.75154e-06
2.7593e-07
2.7663e-06
-3.54999e-06
2.88895e-07
3.05383e-06
-3.28505e-06
3.06836e-07
3.28969e-06
-2.94694e-06
3.29146e-07
3.45083e-06
-2.52204e-06
3.54677e-07
3.50893e-06
-1.99258e-06
3.81064e-07
3.43375e-06
-1.33725e-06
4.04839e-07
3.20367e-06
-5.35775e-07
4.22305e-07
2.79972e-06
4.30909e-07
4.29809e-07
2.22783e-06
1.54247e-06
4.22309e-07
1.54836e-06
2.66192e-06
3.91277e-07
8.59476e-07
3.4856e-06
3.29393e-07
2.82735e-07
3.56882e-06
2.3605e-07
2.14083e-06
1.04699e-07
-1.00499e-08
4.22377e-07
8.83107e-08
-8.65773e-08
7.64835e-07
2.0108e-07
-2.25562e-07
8.28175e-07
2.85785e-07
-4.01732e-07
6.73973e-07
3.52137e-07
-5.82773e-07
3.44279e-07
4.03964e-07
-7.40644e-07
-1.2813e-07
4.40128e-07
-8.51777e-07
-6.95828e-07
4.57474e-07
-9.03401e-07
-1.30713e-06
4.54904e-07
-8.92476e-07
-1.91414e-06
4.34378e-07
-8.22784e-07
-2.47932e-06
4.00038e-07
-7.02641e-07
-2.97835e-06
3.5705e-07
-5.42292e-07
-3.39911e-06
3.10526e-07
-3.52329e-07
-3.73843e-06
2.64732e-07
-1.42758e-07
-3.9989e-06
2.22692e-07
7.81951e-08
-4.18661e-06
1.86208e-07
3.07024e-07
-4.31217e-06
1.5588e-07
5.43249e-07
-4.38558e-06
1.31489e-07
7.86355e-07
-4.41312e-06
1.12997e-07
1.03515e-06
-4.39857e-06
1.00582e-07
1.28823e-06
-4.34387e-06
9.44293e-08
1.54451e-06
-4.24916e-06
9.47359e-08
1.80327e-06
-4.11204e-06
1.01842e-07
2.0625e-06
-3.92554e-06
1.16468e-07
2.31439e-06
-3.67639e-06
1.39672e-07
2.54339e-06
-3.3478e-06
1.72173e-07
2.72762e-06
-2.91976e-06
2.13867e-07
2.83725e-06
-2.36448e-06
2.62741e-07
2.83373e-06
-1.64743e-06
3.1422e-07
2.6725e-06
-7.3475e-07
3.60767e-07
2.32856e-06
3.82461e-07
3.92937e-07
1.82419e-06
1.64544e-06
4.01911e-07
1.21817e-06
2.88838e-06
3.8008e-07
6.26824e-07
3.75481e-06
3.22787e-07
1.77212e-07
3.7895e-06
2.29901e-07
2.2214e-06
9.82043e-08
2.19187e-08
3.1761e-07
8.25717e-08
2.78563e-08
5.61644e-07
1.97022e-07
-1.35097e-10
5.72193e-07
2.83877e-07
-5.52562e-08
3.81e-07
3.48148e-07
-1.19449e-07
1.70573e-08
3.9156e-07
-1.74017e-07
-4.86954e-07
4.13572e-07
-2.05081e-07
-1.07844e-06
4.13848e-07
-2.039e-07
-1.7027e-06
3.94532e-07
-1.66883e-07
-2.31116e-06
3.60111e-07
-9.43188e-08
-2.86822e-06
3.16381e-07
1.09327e-08
-3.35273e-06
2.69127e-07
1.4415e-07
-3.7554e-06
2.23039e-07
2.99334e-07
-4.07487e-06
1.81174e-07
4.69069e-07
-4.31386e-06
1.45108e-07
6.49937e-07
-4.48282e-06
1.15214e-07
8.41648e-07
-4.59471e-06
9.06912e-08
1.04268e-06
-4.65765e-06
7.09087e-08
1.25011e-06
-4.67637e-06
5.57041e-08
1.46038e-06
-4.65398e-06
4.50274e-08
1.66978e-06
-4.59231e-06
3.8958e-08
1.87466e-06
-4.49184e-06
3.7734e-08
2.07219e-06
-4.35136e-06
4.17527e-08
2.26124e-06
-4.16635e-06
5.17579e-08
2.43774e-06
-3.92222e-06
6.93666e-08
2.58984e-06
-3.59622e-06
9.64136e-08
2.70123e-06
-3.16511e-06
1.3414e-07
2.75061e-06
-2.5966e-06
1.82986e-07
2.7103e-06
-1.84758e-06
2.40807e-07
2.54896e-06
-8.73598e-07
3.00614e-07
2.24044e-06
3.41298e-07
3.50166e-07
1.77698e-06
1.73367e-06
3.75739e-07
1.21075e-06
3.08867e-06
3.66481e-07
6.46106e-07
4.00387e-06
3.16246e-07
1.97533e-07
4.01384e-06
2.25197e-07
2.32679e-06
9.36938e-08
3.78575e-08
2.04551e-07
7.49088e-08
9.9194e-08
3.17737e-07
1.82261e-07
1.56668e-07
2.50477e-07
2.64146e-07
2.00912e-07
1.35077e-08
3.23309e-07
2.38528e-07
-3.80741e-07
3.60294e-07
2.71628e-07
-8.94719e-07
3.7477e-07
3.05466e-07
-1.47973e-06
3.67536e-07
3.44729e-07
-2.0839e-06
3.41989e-07
3.93423e-07
-2.66348e-06
3.03658e-07
4.54678e-07
-3.18829e-06
2.5882e-07
5.30457e-07
-3.64153e-06
2.13001e-07
6.2134e-07
-4.01641e-06
1.70069e-07
7.26369e-07
-4.31213e-06
1.32133e-07
8.43921e-07
-4.53148e-06
9.99551e-08
9.75444e-07
-4.68743e-06
7.2953e-08
1.12179e-06
-4.79141e-06
5.02147e-08
1.28123e-06
-4.84861e-06
3.13929e-08
1.45086e-06
-4.86232e-06
1.61934e-08
1.62732e-06
-4.83476e-06
4.21666e-09
1.80564e-06
-4.7672e-06
-3.5408e-09
1.9805e-06
-4.65969e-06
-7.10651e-09
2.14705e-06
-4.51108e-06
-6.90511e-09
2.30104e-06
-4.31797e-06
-2.4309e-09
2.43556e-06
-4.06629e-06
9.52525e-09
2.54143e-06
-3.7315e-06
2.94288e-08
2.60497e-06
-3.2881e-06
5.95311e-08
2.60783e-06
-2.70174e-06
1.02451e-07
2.5269e-06
-1.92558e-06
1.59202e-07
2.33592e-06
-9.07996e-07
2.25746e-07
2.01372e-06
3.74362e-07
2.89588e-07
1.56742e-06
1.84839e-06
3.32075e-07
1.04267e-06
3.27737e-06
3.36592e-07
5.37518e-07
4.21446e-06
2.95236e-07
1.54173e-07
4.18812e-06
2.1003e-07
2.3972e-06
8.52934e-08
3.60284e-08
1.03239e-07
6.49298e-08
1.13731e-07
7.95808e-08
1.60272e-07
2.09667e-07
-7.8136e-08
2.32564e-07
3.09026e-07
-3.68733e-07
2.8283e-07
4.01678e-07
-7.84226e-07
3.10826e-07
4.82714e-07
-1.2925e-06
3.16763e-07
5.50134e-07
-1.85013e-06
3.02987e-07
6.05947e-07
-2.4141e-06
2.74369e-07
6.5521e-07
-2.95004e-06
2.37232e-07
7.04297e-07
-3.43502e-06
1.97543e-07
7.59216e-07
-3.85616e-06
1.59573e-07
8.24718e-07
-4.20766e-06
1.25593e-07
9.04331e-07
-4.48825e-06
9.63545e-08
1.00076e-06
-4.69984e-06
7.17653e-08
1.11463e-06
-4.85266e-06
5.12172e-08
1.24454e-06
-4.95562e-06
3.41539e-08
1.38809e-06
-5.01252e-06
2.02161e-08
1.54232e-06
-5.02577e-06
9.08405e-09
1.70432e-06
-4.99696e-06
6.64524e-11
1.86871e-06
-4.92689e-06
-4.83092e-09
2.03173e-06
-4.81529e-06
-7.5432e-09
2.18872e-06
-4.66072e-06
-7.46707e-09
2.33283e-06
-4.45805e-06
-4.13192e-09
2.45498e-06
-4.192e-06
3.46644e-09
2.54501e-06
-3.83872e-06
1.71166e-08
2.59089e-06
-3.37163e-06
3.76214e-08
2.57546e-06
-2.75425e-06
6.79577e-08
2.47756e-06
-1.93886e-06
1.11286e-07
2.27572e-06
-8.7424e-07
1.68303e-07
1.95615e-06
4.62426e-07
2.31829e-07
1.52319e-06
1.99789e-06
2.83886e-07
1.0208e-06
3.47805e-06
3.02225e-07
5.36942e-07
4.4267e-06
2.72268e-07
1.60866e-07
4.37025e-06
1.94866e-07
2.48179e-06
7.77761e-08
5.64051e-08
-7.02503e-09
5.35391e-08
1.77537e-07
-1.74376e-07
1.32609e-07
3.28479e-07
-4.21201e-07
1.91915e-07
4.9044e-07
-7.62311e-07
2.31463e-07
6.45782e-07
-1.19065e-06
2.50994e-07
7.82956e-07
-1.68143e-06
2.51697e-07
8.97838e-07
-2.20193e-06
2.36859e-07
9.92749e-07
-2.72044e-06
2.11345e-07
1.07373e-06
-3.2114e-06
1.80274e-07
1.14766e-06
-3.6568e-06
1.47732e-07
1.22051e-06
-4.04542e-06
1.16306e-07
1.29686e-06
-4.37148e-06
8.73627e-08
1.38028e-06
-4.6333e-06
6.15353e-08
1.47334e-06
-4.83204e-06
3.90612e-08
1.57603e-06
-4.97519e-06
1.97697e-08
1.68677e-06
-5.0697e-06
3.27599e-09
1.80273e-06
-5.11892e-06
-9.6257e-09
1.92142e-06
-5.12499e-06
-1.95261e-08
2.04036e-06
-5.0893e-06
-2.6655e-08
2.15683e-06
-5.01248e-06
-3.09279e-08
2.26805e-06
-4.89428e-06
-3.22643e-08
2.37092e-06
-4.73312e-06
-3.05021e-08
2.45996e-06
-4.52191e-06
-2.52139e-08
2.52799e-06
-4.24409e-06
-1.59584e-08
2.56851e-06
-3.87681e-06
-2.43739e-09
2.57002e-06
-3.39166e-06
1.85279e-08
2.51804e-06
-2.74881e-06
4.65849e-08
2.39249e-06
-1.89746e-06
8.42429e-08
2.17167e-06
-7.86184e-07
1.32924e-07
1.84255e-06
6.02516e-07
1.89289e-07
1.4155e-06
2.18494e-06
2.40374e-07
9.34629e-07
3.69449e-06
2.64887e-07
4.8341e-07
4.6344e-06
2.44119e-07
1.40678e-07
4.53783e-06
1.76048e-07
2.55445e-06
6.94749e-08
5.87534e-08
-1.08799e-07
4.26507e-08
1.95532e-07
-4.15478e-07
1.04041e-07
3.78421e-07
-7.53413e-07
1.49129e-07
5.81713e-07
-1.14372e-06
1.77976e-07
7.84649e-07
-1.58449e-06
1.90794e-07
9.73644e-07
-2.05965e-06
1.89135e-07
1.1425e-06
-2.54669e-06
1.75835e-07
1.29049e-06
-3.02293e-06
1.54438e-07
1.41989e-06
-3.46927e-06
1.28409e-07
1.53423e-06
-3.87178e-06
1.00591e-07
1.63747e-06
-4.22181e-06
7.309e-08
1.73372e-06
-4.51516e-06
4.73536e-08
1.82695e-06
-4.75084e-06
2.42359e-08
1.92063e-06
-4.92972e-06
3.90226e-09
2.01553e-06
-5.05741e-06
-1.27899e-08
2.11166e-06
-5.1392e-06
-2.67446e-08
2.20816e-06
-5.17743e-06
-3.80987e-08
2.30343e-06
-5.1735e-06
-4.68721e-08
2.39535e-06
-5.12821e-06
-5.31159e-08
2.48139e-06
-5.0418e-06
-5.68282e-08
2.55875e-06
-4.91384e-06
-5.78968e-08
2.62436e-06
-4.7427e-06
-5.6117e-08
2.67341e-06
-4.52005e-06
-5.09896e-08
2.69955e-06
-4.22843e-06
-4.18875e-08
2.69623e-06
-3.84564e-06
-2.79221e-08
2.65529e-06
-3.34259e-06
-8.19155e-09
2.56469e-06
-2.67808e-06
1.98321e-08
2.40935e-06
-1.79889e-06
5.67755e-08
2.17169e-06
-6.51575e-07
1.03116e-07
1.83891e-06
7.79363e-07
1.56083e-07
1.41667e-06
2.40192e-06
2.05512e-07
9.4424e-07
3.93432e-06
2.32967e-07
4.98158e-07
4.86203e-06
2.18987e-07
1.50716e-07
4.72671e-06
1.59383e-07
2.64385e-06
6.27171e-08
4.10438e-08
-1.84991e-07
3.47351e-08
1.56048e-07
-6.12913e-07
8.21717e-08
3.24232e-07
-1.03762e-06
1.1585e-07
5.23009e-07
-1.47931e-06
1.36685e-07
7.3249e-07
-1.93933e-06
1.45251e-07
9.37764e-07
-2.40771e-06
1.42715e-07
1.12936e-06
-2.86929e-06
1.30962e-07
1.30255e-06
-3.30862e-06
1.12487e-07
1.45632e-06
-3.71312e-06
9.00789e-08
1.59241e-06
-4.07424e-06
6.63633e-08
1.71429e-06
-4.38712e-06
4.34072e-08
1.82622e-06
-4.64962e-06
2.24918e-08
1.93248e-06
-4.8611e-06
3.93454e-09
2.03554e-06
-5.0218e-06
-1.10605e-08
2.13769e-06
-5.13583e-06
-2.3802e-08
2.23968e-06
-5.20668e-06
-3.45849e-08
2.34103e-06
-5.23533e-06
-4.35389e-08
2.44041e-06
-5.22214e-06
-5.08156e-08
2.53579e-06
-5.16717e-06
-5.64992e-08
2.62454e-06
-5.07005e-06
-6.05679e-08
2.70346e-06
-4.92998e-06
-6.28387e-08
2.76874e-06
-4.74504e-06
-6.3007e-08
2.81447e-06
-4.50532e-06
-6.05135e-08
2.83232e-06
-4.19177e-06
-5.45621e-08
2.8135e-06
-3.78285e-06
-4.40242e-08
2.74838e-06
-3.25004e-06
-2.74753e-08
2.62713e-06
-2.55328e-06
-3.59731e-09
2.43768e-06
-1.6402e-06
3.07263e-08
2.16936e-06
-4.57557e-07
7.42924e-08
1.81601e-06
1.00833e-06
1.24444e-07
1.38671e-06
2.6592e-06
1.72162e-07
9.1856e-07
4.20154e-06
2.01208e-07
4.82612e-07
5.10573e-06
1.92694e-07
1.44608e-07
4.92416e-06
1.41308e-07
2.73464e-06
5.51544e-08
2.33969e-08
-2.3696e-07
2.82246e-08
9.96119e-08
-7.54856e-07
6.54441e-08
2.1998e-07
-1.24877e-06
9.05759e-08
3.69666e-07
-1.73377e-06
1.04622e-07
5.33733e-07
-2.21172e-06
1.08224e-07
7.00069e-07
-2.67668e-06
1.02568e-07
8.60755e-07
-3.11968e-06
8.96634e-08
1.01204e-06
-3.53219e-06
7.22385e-08
1.1534e-06
-3.90773e-06
5.31819e-08
1.28623e-06
-4.242e-06
3.48511e-08
1.41264e-06
-4.53228e-06
1.86437e-08
1.53482e-06
-4.77682e-06
4.89765e-09
1.65387e-06
-4.97438e-06
-5.902e-09
1.7714e-06
-5.12482e-06
-1.46553e-08
1.88853e-06
-5.23097e-06
-2.21438e-08
2.00527e-06
-5.29494e-06
-2.86223e-08
2.1212e-06
-5.31703e-06
-3.43597e-08
2.23558e-06
-5.2971e-06
-3.95366e-08
2.34724e-06
-5.23473e-06
-4.42196e-08
2.45453e-06
-5.12911e-06
-4.83364e-08
2.55511e-06
-4.97897e-06
-5.1699e-08
2.64481e-06
-4.78084e-06
-5.39874e-08
2.71651e-06
-4.5224e-06
-5.47115e-08
2.76081e-06
-4.18311e-06
-5.30262e-08
2.76649e-06
-3.74091e-06
-4.76923e-08
2.72049e-06
-3.16715e-06
-3.69435e-08
2.60953e-06
-2.42386e-06
-1.85214e-08
2.42201e-06
-1.46262e-06
9.89057e-09
2.15006e-06
-2.34874e-07
4.92305e-08
1.79299e-06
1.26909e-06
9.62973e-08
1.36452e-06
2.94553e-06
1.42196e-07
9.02732e-07
4.49158e-06
1.71927e-07
4.75172e-07
5.36604e-06
1.67605e-07
1.42365e-07
5.13424e-06
1.23397e-07
2.83086e-06
4.74011e-08
2.93457e-08
-2.87711e-07
2.10718e-08
1.03365e-07
-8.77646e-07
4.84547e-08
2.10804e-07
-1.42198e-06
6.55283e-08
3.40635e-07
-1.93661e-06
7.28337e-08
4.8299e-07
-2.42562e-06
7.14119e-08
6.30544e-07
-2.8876e-06
6.32279e-08
7.78949e-07
-3.31919e-06
5.09517e-08
9.26125e-07
-3.71691e-06
3.73608e-08
1.0711e-06
-4.07754e-06
2.46391e-08
1.21302e-06
-4.3981e-06
1.3972e-08
1.35085e-06
-4.67589e-06
5.57826e-09
1.48348e-06
-4.90874e-06
-8.99523e-10
1.60967e-06
-5.09521e-06
-5.54917e-09
1.7299e-06
-5.23566e-06
-9.55107e-09
1.84452e-06
-5.33264e-06
-1.31157e-08
1.95371e-06
-5.38784e-06
-1.64402e-08
2.05792e-06
-5.40166e-06
-1.97132e-08
2.15779e-06
-5.37405e-06
-2.30527e-08
2.25396e-06
-5.30452e-06
-2.64931e-08
2.34677e-06
-5.19206e-06
-2.99683e-08
2.43594e-06
-5.03489e-06
-3.33482e-08
2.51853e-06
-4.82711e-06
-3.64079e-08
2.58868e-06
-4.55376e-06
-3.88809e-08
2.63881e-06
-4.19316e-06
-4.0145e-08
2.65697e-06
-3.71993e-06
-3.92063e-08
2.62692e-06
-3.10272e-06
-3.44435e-08
2.53047e-06
-2.30405e-06
-2.34171e-08
2.35168e-06
-1.28083e-06
-3.07658e-09
2.08187e-06
6.30785e-09
2.8555e-08
1.72529e-06
1.55567e-06
6.99446e-08
1.30153e-06
3.25646e-06
1.12815e-07
8.52267e-07
4.79832e-06
1.42617e-07
4.43194e-07
5.63353e-06
1.41858e-07
1.29326e-07
5.34418e-06
1.04521e-07
2.92225e-06
3.91071e-08
4.35549e-08
-3.45209e-07
1.35622e-08
1.41248e-07
-1.00609e-06
3.04393e-08
2.7299e-07
-1.59348e-06
3.94839e-08
4.25937e-07
-2.13093e-06
4.11128e-08
5.91601e-07
-2.62849e-06
3.69555e-08
7.64419e-07
-3.09004e-06
2.93756e-08
9.40473e-07
-3.51619e-06
2.07052e-08
1.11633e-06
-3.90561e-06
1.26102e-08
1.28838e-06
-4.25564e-06
5.83828e-09
1.45283e-06
-4.56307e-06
3.15299e-10
1.60584e-06
-4.82514e-06
-3.93836e-09
1.74488e-06
-5.04029e-06
-7.65365e-09
1.86878e-06
-5.20828e-06
-1.09693e-08
1.9779e-06
-5.33098e-06
-1.39279e-08
2.07306e-06
-5.41138e-06
-1.6524e-08
2.1552e-06
-5.45132e-06
-1.87613e-08
2.2258e-06
-5.45163e-06
-2.07279e-08
2.2867e-06
-5.41253e-06
-2.25154e-08
2.33993e-06
-5.33363e-06
-2.41989e-08
2.38745e-06
-5.21385e-06
-2.58092e-08
2.43093e-06
-5.05112e-06
-2.73454e-08
2.47015e-06
-4.83768e-06
-2.87187e-08
2.50293e-06
-4.55678e-06
-2.98566e-08
2.52559e-06
-4.18543e-06
-3.04619e-08
2.52921e-06
-3.69369e-06
-2.99398e-08
2.49828e-06
-3.04472e-06
-2.71438e-08
2.41179e-06
-2.19757e-06
-2.00656e-08
2.248e-06
-1.11139e-06
-5.7299e-09
1.9934e-06
2.42489e-07
1.83322e-08
1.6496e-06
1.84721e-06
5.21676e-08
1.23943e-06
3.57705e-06
8.95123e-08
8.0812e-07
5.11233e-06
1.17307e-07
4.18796e-07
5.9043e-06
1.18732e-07
1.21405e-07
5.55459e-06
8.74608e-08
3.0128e-06
3.1934e-08
5.5983e-08
-4.08881e-07
7.30428e-09
1.84825e-07
-1.14979e-06
1.45343e-08
3.58931e-07
-1.78497e-06
1.70717e-08
5.60963e-07
-2.3489e-06
1.5644e-08
7.78993e-07
-2.8586e-06
1.18009e-08
1.00416e-06
-3.32255e-06
7.10326e-09
1.22905e-06
-3.74378e-06
2.49983e-09
1.44685e-06
-4.12184e-06
-1.72622e-09
1.65145e-06
-4.45457e-06
-5.78507e-09
1.83811e-06
-4.73971e-06
-1.01046e-08
2.00382e-06
-4.97618e-06
-1.4722e-08
2.14741e-06
-5.16451e-06
-1.94172e-08
2.26916e-06
-5.30624e-06
-2.38206e-08
2.37032e-06
-5.40461e-06
-2.75502e-08
2.45207e-06
-5.46274e-06
-3.04153e-08
2.51547e-06
-5.48235e-06
-3.23823e-08
2.56178e-06
-5.46441e-06
-3.35424e-08
2.5925e-06
-5.40924e-06
-3.4028e-08
2.60935e-06
-5.31653e-06
-3.39862e-08
2.61425e-06
-5.18523e-06
-3.35542e-08
2.60914e-06
-5.01324e-06
-3.28214e-08
2.59513e-06
-4.79197e-06
-3.17612e-08
2.57264e-06
-4.50394e-06
-3.04217e-08
2.54145e-06
-4.12553e-06
-2.88073e-08
2.49771e-06
-3.62334e-06
-2.67098e-08
2.43123e-06
-2.95488e-06
-2.34657e-08
2.32416e-06
-2.07299e-06
-1.76088e-08
2.15385e-06
-9.34586e-07
-6.61441e-09
1.90211e-06
4.81972e-07
1.21124e-08
1.56711e-06
2.14266e-06
3.93918e-08
1.17038e-06
3.90274e-06
7.08816e-08
7.58456e-07
5.42866e-06
9.5517e-08
3.90549e-07
6.17432e-06
9.79569e-08
1.12127e-07
5.76129e-06
7.2095e-08
3.10008e-06
2.58227e-08
4.66544e-08
-4.59969e-07
4.05047e-09
1.69854e-07
-1.27876e-06
5.43403e-09
3.48131e-07
-1.96794e-06
4.39206e-09
5.62911e-07
-2.56594e-06
2.01118e-09
7.98712e-07
-3.09396e-06
-6.28487e-10
1.04216e-06
-3.56341e-06
-2.72786e-09
1.28246e-06
-3.97918e-06
-4.97558e-09
1.51098e-06
-4.3426e-06
-7.79175e-09
1.72171e-06
-4.65375e-06
-1.15441e-08
1.91144e-06
-4.91317e-06
-1.6229e-08
2.07934e-06
-5.12256e-06
-2.14765e-08
2.2261e-06
-5.28445e-06
-2.6754e-08
2.35297e-06
-5.40147e-06
-3.15825e-08
2.46105e-06
-5.47703e-06
-3.56108e-08
2.55088e-06
-5.51384e-06
-3.86835e-08
2.62267e-06
-5.51332e-06
-4.07736e-08
2.67655e-06
-5.47632e-06
-4.19225e-08
2.71267e-06
-5.40314e-06
-4.2193e-08
2.73138e-06
-5.29356e-06
-4.16637e-08
2.73322e-06
-5.14665e-06
-4.04219e-08
2.7184e-06
-4.95993e-06
-3.85005e-08
2.68644e-06
-4.72418e-06
-3.58417e-08
2.63746e-06
-4.42248e-06
-3.2513e-08
2.57205e-06
-4.03151e-06
-2.86658e-08
2.48972e-06
-3.51672e-06
-2.43587e-08
2.38646e-06
-2.83234e-06
-1.93727e-08
2.25184e-06
-1.9256e-06
-1.28933e-08
2.0684e-06
-7.48173e-07
-3.12375e-09
1.81843e-06
7.19878e-07
1.18894e-08
1.49561e-06
2.43172e-06
3.35493e-08
1.11697e-06
4.22217e-06
5.89808e-08
7.2627e-07
5.73973e-06
7.94607e-08
3.76223e-07
6.44261e-06
8.17287e-08
1.09493e-07
5.96817e-06
6.01334e-08
3.18907e-06
2.13973e-08
3.70359e-08
-5.001e-07
2.71201e-09
1.41914e-07
-1.38547e-06
1.51182e-09
2.99678e-07
-2.12536e-06
-5.84603e-10
4.93803e-07
-2.75809e-06
-2.14458e-09
7.08948e-07
-3.30591e-06
-3.30436e-09
9.3168e-07
-3.78192e-06
-4.27148e-09
1.15143e-06
-4.19334e-06
-5.59507e-09
1.36092e-06
-4.54436e-06
-7.70736e-09
1.55614e-06
-4.83823e-06
-1.06875e-08
1.73556e-06
-5.07824e-06
-1.43052e-08
1.89922e-06
-5.26793e-06
-1.82267e-08
2.04769e-06
-5.41069e-06
-2.21823e-08
2.18167e-06
-5.50939e-06
-2.60079e-08
2.30126e-06
-5.56702e-06
-2.95688e-08
2.40605e-06
-5.58586e-06
-3.27334e-08
2.49539e-06
-5.56721e-06
-3.54237e-08
2.56856e-06
-5.5119e-06
-3.75627e-08
2.62485e-06
-5.42035e-06
-3.90734e-08
2.66366e-06
-5.29246e-06
-3.98835e-08
2.68439e-06
-5.12745e-06
-3.99233e-08
2.68488e-06
-4.92138e-06
-3.90411e-08
2.66225e-06
-4.66442e-06
-3.71371e-08
2.61518e-06
-4.34127e-06
-3.41531e-08
2.54264e-06
-3.92887e-06
-3.01338e-08
2.44396e-06
-3.39295e-06
-2.5132e-08
2.31796e-06
-2.68732e-06
-1.90763e-08
2.16048e-06
-1.75668e-06
-1.15407e-08
1.96192e-06
-5.48288e-07
-1.44859e-09
1.70977e-06
9.59407e-07
1.24495e-08
1.39797e-06
2.7123e-06
3.0988e-08
1.0399e-06
4.52808e-06
5.19083e-08
6.74657e-07
6.03632e-06
6.84433e-08
3.47782e-07
6.69957e-06
6.9843e-08
1.00174e-07
6.16459e-06
5.14238e-08
3.27165e-06
1.84599e-08
2.71709e-08
-5.30454e-07
2.81817e-09
1.0863e-07
-1.46919e-06
1.9786e-09
2.35281e-07
-2.25273e-06
5.08511e-10
3.94865e-07
-2.91778e-06
-4.26896e-11
5.75533e-07
-3.48669e-06
2.16984e-11
7.67087e-07
-3.97378e-06
2.56849e-10
9.6165e-07
-4.38818e-06
2.53954e-10
1.15353e-06
-4.7362e-06
-5.62953e-11
1.3388e-06
-5.02291e-06
-5.99646e-10
1.51499e-06
-5.25291e-06
-1.52591e-09
1.68043e-06
-5.43052e-06
-2.86618e-09
1.83402e-06
-5.55961e-06
-4.68316e-09
1.97516e-06
-5.64354e-06
-7.00314e-09
2.10313e-06
-5.68523e-06
-9.77151e-09
2.21712e-06
-5.68707e-06
-1.27858e-08
2.31645e-06
-5.65067e-06
-1.58886e-08
2.40061e-06
-5.57715e-06
-1.89268e-08
2.46914e-06
-5.46714e-06
-2.17449e-08
2.52149e-06
-5.32065e-06
-2.41754e-08
2.55616e-06
-5.13607e-06
-2.6049e-08
2.57003e-06
-4.90812e-06
-2.71441e-08
2.56013e-06
-4.62726e-06
-2.72649e-08
2.52388e-06
-4.27884e-06
-2.61974e-08
2.45837e-06
-3.8396e-06
-2.37701e-08
2.36113e-06
-3.27586e-06
-1.98738e-08
2.2307e-06
-2.54253e-06
-1.43917e-08
2.06581e-06
-1.58479e-06
-7.0508e-09
1.86298e-06
-3.48363e-07
2.83154e-09
1.61549e-06
1.1906e-06
1.61807e-08
1.31909e-06
2.97575e-06
3.27811e-08
9.83595e-07
4.81284e-06
5.05235e-08
6.42186e-07
6.3137e-06
6.38384e-08
3.33557e-07
6.94403e-06
6.41042e-08
9.74123e-08
6.35329e-06
4.77054e-08
3.35198e-06
1.79994e-08
2.80969e-08
-5.62601e-07
3.68976e-09
1.05633e-07
-1.55189e-06
4.86612e-09
2.23367e-07
-2.37643e-06
5.73362e-09
3.72321e-07
-3.07415e-06
7.23925e-09
5.4374e-07
-3.66749e-06
9.2341e-09
7.29563e-07
-4.17103e-06
1.13137e-08
9.22463e-07
-4.59435e-06
1.31751e-08
1.11594e-06
-4.94438e-06
1.46213e-08
1.30452e-06
-5.22705e-06
1.54835e-08
1.48401e-06
-5.4481e-06
1.562e-08
1.65146e-06
-5.613e-06
1.49692e-08
1.805e-06
-5.72678e-06
1.35685e-08
1.94364e-06
-5.79375e-06
1.15173e-08
2.06689e-06
-5.81744e-06
8.91865e-09
2.17459e-06
-5.8007e-06
5.90481e-09
2.2669e-06
-5.74556e-06
2.56164e-09
2.34379e-06
-5.65339e-06
-6.70988e-10
2.4052e-06
-5.5248e-06
-3.77159e-09
2.45087e-06
-5.35942e-06
-6.92939e-09
2.47956e-06
-5.15487e-06
-9.92126e-09
2.48959e-06
-4.90561e-06
-1.25466e-08
2.47912e-06
-4.60226e-06
-1.45411e-08
2.44484e-06
-4.22902e-06
-1.55591e-08
2.38225e-06
-3.76179e-06
-1.52378e-08
2.2866e-06
-3.16699e-06
-1.32384e-08
2.15456e-06
-2.40126e-06
-9.22691e-09
1.9854e-06
-1.41274e-06
-2.89124e-09
1.77908e-06
-1.49132e-07
7.08673e-09
1.53524e-06
1.4138e-06
2.06317e-08
1.25261e-06
3.22152e-06
3.68061e-08
9.37908e-07
5.07439e-06
5.30535e-08
6.17199e-07
6.57e-06
6.43284e-08
3.23329e-07
7.17433e-06
6.36121e-08
9.5649e-08
6.53313e-06
4.82117e-08
3.42912e-06
1.95509e-08
2.88544e-08
-5.97526e-07
5.70204e-09
1.09754e-07
-1.64354e-06
1.04472e-08
2.33578e-07
-2.51487e-06
1.43677e-08
3.91368e-07
-3.25051e-06
1.83583e-08
5.74015e-07
-3.87258e-06
2.22678e-08
7.72143e-07
-4.39503e-06
2.5722e-08
9.76556e-07
-4.82724e-06
2.8348e-08
1.17913e-06
-5.17692e-06
2.98608e-08
1.3736e-06
-5.45178e-06
3.01679e-08
1.55574e-06
-5.65972e-06
2.94147e-08
1.72295e-06
-5.80818e-06
2.79019e-08
1.87379e-06
-5.90361e-06
2.59401e-08
2.00753e-06
-5.95127e-06
2.3749e-08
2.12395e-06
-5.95532e-06
2.14318e-08
2.22319e-06
-5.91896e-06
1.89998e-08
2.30566e-06
-5.84451e-06
1.6464e-08
2.3719e-06
-5.73345e-06
1.38104e-08
2.42236e-06
-5.5863e-06
1.10267e-08
2.45716e-06
-5.40236e-06
8.12747e-09
2.47642e-06
-5.17921e-06
5.07824e-09
2.48014e-06
-4.91117e-06
1.82141e-09
2.46661e-06
-4.5879e-06
-8.49706e-10
2.43261e-06
-4.19223e-06
-2.80597e-09
2.37327e-06
-3.69847e-06
-4.01039e-09
2.28218e-06
-3.07196e-06
-3.95552e-09
2.15333e-06
-2.27026e-06
-2.17502e-09
1.98367e-06
-1.24545e-06
2.37144e-09
1.7733e-06
4.9659e-08
1.16063e-08
1.52784e-06
1.63445e-06
2.48738e-08
1.24958e-06
3.45848e-06
4.13603e-08
9.43818e-07
5.32248e-06
5.77365e-08
6.30213e-07
6.81509e-06
6.85846e-08
3.36912e-07
7.40036e-06
6.74724e-08
1.03111e-07
6.71526e-06
5.22149e-08
3.51098e-06
2.24653e-08
3.53935e-08
-6.41317e-07
8.02443e-09
1.3177e-07
-1.75696e-06
1.6728e-08
2.76346e-07
-2.68339e-06
2.36736e-08
4.56902e-07
-3.46098e-06
2.96952e-08
6.60991e-07
-4.11143e-06
3.4574e-08
8.76556e-07
-4.64863e-06
3.78932e-08
1.09313e-06
-5.08325e-06
3.93338e-08
1.30292e-06
-5.42567e-06
3.88848e-08
1.50103e-06
-5.68686e-06
3.69251e-08
1.68471e-06
-5.8775e-06
3.4083e-08
1.85241e-06
-6.00687e-06
3.09691e-08
2.00325e-06
-6.08243e-06
2.79837e-08
2.13664e-06
-6.10996e-06
2.52933e-08
2.25232e-06
-6.0939e-06
2.29067e-08
2.3502e-06
-6.03759e-06
2.07554e-08
2.43042e-06
-5.94346e-06
1.87398e-08
2.49331e-06
-5.81309e-06
1.67613e-08
2.53936e-06
-5.64708e-06
1.47422e-08
2.56914e-06
-5.44478e-06
1.26503e-08
2.58307e-06
-5.20359e-06
1.0468e-08
2.5812e-06
-4.91744e-06
8.14597e-09
2.56278e-06
-4.57523e-06
5.74405e-09
2.52561e-06
-4.15852e-06
3.44504e-09
2.46522e-06
-3.63961e-06
1.51228e-09
2.37422e-06
-2.9817e-06
6.89594e-10
2.244e-06
-2.1416e-06
1.52095e-09
2.06786e-06
-1.07463e-06
5.27989e-09
1.84687e-06