/*--------------------------------*- C++ -*----------------------------------*\
| =========                 |                                                 |
| \\      /  F ield         | OpenFOAM: The Open Source CFD Toolbox           |
|  \\    /   O peration     | Version:  v2006                                 |
|   \\  /    A nd           | Website:  www.openfoam.com                      |
|    \\/     M anipulation  |                                                 |
\*---------------------------------------------------------------------------*/
FoamFile
{
    version     2.0;
    format      ascii;
    class       volScalarField;
    location    "35";
    object      T;
}
// * * * * * * * * * * * * * * * * * * * * * * * * * * * * * * * * * * * * * //

dimensions      [0 0 0 1 0 0 0];


internalField   nonuniform List<scalar> 
78750
(
299.768
299.479
299.389
299.35
299.329
299.315
299.305
299.298
299.292
299.287
299.283
299.28
299.277
299.274
299.272
299.27
299.267
299.265
299.262
299.259
299.256
299.253
299.249
299.245
299.24
299.234
299.228
299.223
299.22
299.228
299.269
299.4
299.715
300.316
301.215
299.898
299.716
299.578
299.487
299.431
299.399
299.382
299.374
299.374
299.377
299.382
299.389
299.396
299.402
299.408
299.412
299.415
299.416
299.415
299.412
299.408
299.403
299.396
299.388
299.38
299.372
299.367
299.366
299.375
299.405
299.479
299.65
299.992
300.562
301.406
299.909
299.734
299.586
299.466
299.38
299.334
299.327
299.348
299.385
299.431
299.479
299.526
299.569
299.607
299.639
299.664
299.683
299.696
299.703
299.704
299.699
299.688
299.672
299.652
299.628
299.603
299.583
299.574
299.59
299.652
299.787
300.033
300.424
301.009
301.858
299.929
299.794
299.678
299.586
299.519
299.482
299.475
299.497
299.546
299.612
299.687
299.76
299.826
299.883
299.931
299.97
300
300.023
300.039
300.049
300.053
300.052
300.045
300.031
300.009
299.977
299.936
299.889
299.848
299.84
299.915
300.131
300.537
301.157
302.025
299.946
299.839
299.746
299.675
299.63
299.617
299.64
299.693
299.763
299.838
299.906
299.962
300.005
300.037
300.061
300.078
300.091
300.101
300.107
300.11
300.112
300.111
300.108
300.102
300.093
300.082
300.067
300.053
300.047
300.072
300.171
300.402
300.814
301.439
302.315
299.957
299.87
299.794
299.738
299.708
299.708
299.737
299.786
299.846
299.906
299.962
300.01
300.051
300.085
300.113
300.136
300.154
300.169
300.18
300.189
300.194
300.196
300.194
300.188
300.179
300.167
300.152
300.14
300.14
300.175
300.285
300.526
300.95
301.588
302.471
299.968
299.902
299.846
299.811
299.8
299.817
299.857
299.912
299.972
300.029
300.079
300.121
300.155
300.182
300.204
300.222
300.237
300.249
300.26
300.269
300.275
300.28
300.283
300.283
300.281
300.275
300.267
300.262
300.27
300.318
300.445
300.707
301.145
301.789
302.678
299.978
299.934
299.897
299.876
299.875
299.894
299.928
299.971
300.015
300.055
300.091
300.122
300.148
300.17
300.189
300.205
300.221
300.235
300.249
300.261
300.272
300.282
300.291
300.299
300.307
300.313
300.319
300.33
300.355
300.418
300.559
300.834
301.283
301.934
302.825
299.988
299.962
299.942
299.933
299.938
299.958
299.988
300.024
300.062
300.098
300.131
300.16
300.185
300.206
300.225
300.242
300.258
300.273
300.287
300.3
300.312
300.324
300.335
300.345
300.356
300.368
300.383
300.405
300.445
300.526
300.688
300.982
301.442
302.097
302.992
299.996
299.986
299.979
299.979
299.99
300.009
300.035
300.063
300.092
300.12
300.146
300.169
300.19
300.208
300.225
300.242
300.258
300.273
300.287
300.302
300.316
300.33
300.345
300.36
300.377
300.397
300.423
300.459
300.515
300.614
300.793
301.102
301.571
302.232
303.129
300.003
300.004
300.007
300.013
300.025
300.042
300.063
300.087
300.111
300.136
300.161
300.185
300.207
300.227
300.246
300.264
300.281
300.297
300.312
300.327
300.342
300.356
300.371
300.387
300.407
300.431
300.464
300.51
300.582
300.7
300.902
301.23
301.71
302.373
303.273
300.007
300.016
300.024
300.035
300.048
300.064
300.084
300.106
300.13
300.155
300.18
300.203
300.225
300.245
300.263
300.281
300.298
300.314
300.329
300.345
300.36
300.376
300.393
300.411
300.434
300.463
300.502
300.557
300.642
300.776
300.994
301.338
301.827
302.494
303.398
300.01
300.025
300.038
300.052
300.068
300.087
300.109
300.132
300.157
300.181
300.204
300.226
300.247
300.266
300.283
300.3
300.316
300.332
300.348
300.364
300.379
300.395
300.413
300.433
300.457
300.489
300.534
300.598
300.696
300.847
301.085
301.448
301.946
302.616
303.525
300.013
300.033
300.052
300.071
300.092
300.114
300.138
300.162
300.185
300.208
300.229
300.249
300.268
300.286
300.302
300.319
300.336
300.352
300.368
300.385
300.402
300.419
300.438
300.46
300.487
300.522
300.571
300.642
300.748
300.912
301.165
301.543
302.05
302.724
303.637
300.016
300.042
300.065
300.089
300.112
300.135
300.158
300.18
300.201
300.221
300.24
300.259
300.277
300.294
300.311
300.329
300.346
300.363
300.381
300.398
300.416
300.435
300.456
300.481
300.512
300.552
300.607
300.685
300.803
300.981
301.25
301.644
302.158
302.834
303.751
300.018
300.048
300.075
300.1
300.123
300.145
300.166
300.187
300.207
300.227
300.247
300.267
300.287
300.306
300.325
300.343
300.362
300.38
300.398
300.417
300.436
300.456
300.479
300.506
300.54
300.584
300.645
300.731
300.857
301.046
301.329
301.736
302.256
302.935
303.857
300.019
300.052
300.079
300.104
300.127
300.149
300.171
300.193
300.215
300.237
300.26
300.281
300.302
300.322
300.342
300.361
300.38
300.398
300.416
300.435
300.454
300.474
300.498
300.527
300.564
300.614
300.682
300.778
300.917
301.12
301.417
301.836
302.361
303.041
303.967
300.02
300.054
300.083
300.109
300.135
300.16
300.185
300.21
300.235
300.261
300.285
300.308
300.329
300.35
300.369
300.388
300.406
300.423
300.441
300.458
300.476
300.496
300.52
300.549
300.587
300.64
300.714
300.819
300.97
301.187
301.498
301.929
302.459
303.14
304.071
300.021
300.057
300.089
300.12
300.149
300.179
300.208
300.236
300.264
300.29
300.314
300.337
300.358
300.378
300.397
300.415
300.432
300.449
300.465
300.482
300.5
300.52
300.543
300.572
300.611
300.667
300.746
300.86
301.023
301.256
301.583
302.026
302.56
303.243
304.176
300.023
300.063
300.1
300.135
300.169
300.201
300.233
300.262
300.29
300.316
300.34
300.362
300.383
300.402
300.42
300.438
300.455
300.472
300.488
300.505
300.522
300.542
300.565
300.595
300.635
300.691
300.773
300.893
301.068
301.315
301.657
302.112
302.652
303.337
304.271
300.025
300.07
300.111
300.149
300.186
300.22
300.252
300.282
300.31
300.335
300.359
300.381
300.402
300.422
300.441
300.458
300.476
300.492
300.509
300.526
300.545
300.565
300.589
300.619
300.659
300.717
300.801
300.926
301.108
301.368
301.725
302.192
302.737
303.424
304.358
300.027
300.076
300.12
300.16
300.198
300.234
300.267
300.297
300.326
300.352
300.377
300.399
300.421
300.441
300.46
300.478
300.496
300.513
300.53
300.547
300.566
300.587
300.611
300.642
300.683
300.741
300.825
300.951
301.138
301.407
301.776
302.255
302.806
303.494
304.427
300.029
300.08
300.126
300.169
300.209
300.246
300.281
300.313
300.343
300.37
300.396
300.419
300.442
300.462
300.482
300.5
300.518
300.535
300.552
300.57
300.589
300.61
300.635
300.666
300.708
300.767
300.851
300.977
301.165
301.438
301.816
302.303
302.859
303.55
304.481
300.03
300.084
300.134
300.179
300.222
300.262
300.299
300.332
300.363
300.392
300.418
300.442
300.465
300.486
300.505
300.524
300.541
300.559
300.576
300.593
300.612
300.634
300.659
300.692
300.735
300.795
300.88
301.005
301.191
301.463
301.843
302.336
302.895
303.588
304.519
300.032
300.089
300.142
300.191
300.236
300.279
300.317
300.352
300.384
300.413
300.44
300.465
300.487
300.509
300.528
300.547
300.565
300.582
300.599
300.617
300.636
300.659
300.685
300.72
300.766
300.829
300.917
301.043
301.228
301.497
301.876
302.368
302.929
303.624
304.558
300.034
300.095
300.151
300.203
300.251
300.295
300.335
300.372
300.404
300.434
300.461
300.486
300.51
300.531
300.551
300.57
300.588
300.605
300.623
300.641
300.661
300.683
300.712
300.748
300.799
300.867
300.962
301.094
301.28
301.548
301.923
302.411
302.97
303.667
304.605
300.036
300.1
300.159
300.214
300.265
300.311
300.353
300.39
300.424
300.455
300.483
300.509
300.533
300.555
300.575
300.594
300.612
300.63
300.647
300.665
300.685
300.708
300.738
300.777
300.832
300.91
301.015
301.158
301.353
301.623
301.995
302.474
303.03
303.731
304.675
300.037
300.106
300.168
300.226
300.28
300.328
300.372
300.411
300.446
300.477
300.506
300.533
300.557
300.579
300.6
300.619
300.637
300.654
300.672
300.689
300.709
300.732
300.762
300.804
300.863
300.949
301.069
301.229
301.438
301.717
302.09
302.561
303.113
303.821
304.769
300.039
300.111
300.177
300.238
300.295
300.346
300.391
300.431
300.467
300.5
300.529
300.556
300.581
300.603
300.624
300.644
300.662
300.679
300.696
300.714
300.733
300.755
300.785
300.826
300.887
300.98
301.113
301.292
301.523
301.818
302.197
302.664
303.214
303.926
304.875
300.041
300.117
300.186
300.251
300.31
300.363
300.41
300.451
300.488
300.522
300.552
300.579
300.605
300.628
300.649
300.669
300.687
300.704
300.721
300.739
300.757
300.778
300.806
300.844
300.903
300.995
301.135
301.331
301.586
301.902
302.294
302.761
303.311
304.026
304.976
300.043
300.122
300.196
300.263
300.325
300.38
300.429
300.471
300.51
300.544
300.575
300.603
300.629
300.652
300.674
300.694
300.713
300.73
300.747
300.764
300.782
300.802
300.827
300.862
300.915
301
301.135
301.337
301.612
301.955
302.367
302.844
303.399
304.118
305.07
300.045
300.128
300.205
300.276
300.34
300.398
300.448
300.492
300.531
300.567
300.599
300.628
300.654
300.678
300.7
300.721
300.739
300.757
300.774
300.791
300.809
300.828
300.852
300.883
300.929
301.002
301.123
301.315
301.596
301.963
302.405
302.906
303.473
304.197
305.146
300.047
300.134
300.215
300.289
300.357
300.416
300.468
300.514
300.554
300.59
300.623
300.652
300.68
300.704
300.727
300.748
300.767
300.785
300.802
300.819
300.837
300.857
300.881
300.911
300.952
301.015
301.118
301.288
301.555
301.929
302.4
302.934
303.521
304.246
305.186
300.049
300.141
300.225
300.303
300.374
300.435
300.489
300.535
300.577
300.614
300.647
300.678
300.706
300.731
300.754
300.775
300.795
300.813
300.831
300.848
300.867
300.888
300.913
300.944
300.985
301.043
301.134
301.282
301.523
301.885
302.365
302.926
303.529
304.252
305.179
300.052
300.148
300.236
300.318
300.391
300.455
300.51
300.557
300.6
300.638
300.672
300.703
300.732
300.758
300.782
300.803
300.823
300.842
300.86
300.878
300.898
300.921
300.948
300.982
301.027
301.088
301.176
301.313
301.532
301.87
302.34
302.904
303.51
304.227
305.142
300.054
300.155
300.248
300.333
300.409
300.474
300.53
300.579
300.622
300.661
300.696
300.729
300.758
300.785
300.809
300.831
300.851
300.87
300.889
300.908
300.929
300.953
300.983
301.022
301.073
301.142
301.238
301.376
301.586
301.905
302.352
302.897
303.49
304.199
305.108
300.056
300.162
300.259
300.347
300.426
300.493
300.55
300.6
300.644
300.684
300.72
300.753
300.783
300.81
300.835
300.858
300.879
300.899
300.918
300.937
300.959
300.984
301.016
301.059
301.118
301.199
301.308
301.458
301.671
301.978
302.402
302.914
303.486
304.19
305.102
300.059
300.169
300.27
300.361
300.442
300.51
300.569
300.619
300.664
300.705
300.742
300.776
300.807
300.836
300.861
300.885
300.907
300.927
300.946
300.966
300.988
301.013
301.046
301.091
301.156
301.246
301.371
301.537
301.76
302.065
302.469
302.948
303.499
304.203
305.122
300.061
300.175
300.28
300.374
300.457
300.527
300.586
300.638
300.684
300.726
300.764
300.799
300.831
300.86
300.887
300.911
300.933
300.955
300.975
300.995
301.017
301.042
301.074
301.119
301.183
301.278
301.413
301.594
301.831
302.14
302.533
302.989
303.525
304.232
305.161
300.063
300.181
300.289
300.387
300.471
300.543
300.603
300.656
300.703
300.745
300.785
300.821
300.854
300.884
300.911
300.936
300.96
300.982
301.004
301.025
301.047
301.072
301.103
301.145
301.207
301.299
301.435
301.625
301.875
302.194
302.585
303.03
303.559
304.271
305.208
300.065
300.187
300.298
300.398
300.485
300.558
300.619
300.673
300.721
300.765
300.805
300.842
300.876
300.907
300.935
300.962
300.986
301.01
301.033
301.056
301.079
301.105
301.135
301.175
301.231
301.318
301.448
301.636
301.894
302.223
302.622
303.068
303.596
304.313
305.257
300.067
300.192
300.307
300.41
300.498
300.573
300.635
300.69
300.739
300.784
300.826
300.864
300.898
300.93
300.96
300.987
301.013
301.038
301.063
301.088
301.113
301.141
301.171
301.21
301.263
301.342
301.463
301.644
301.9
302.235
302.644
303.098
303.633
304.356
305.305
300.069
300.198
300.316
300.421
300.512
300.588
300.651
300.707
300.758
300.804
300.846
300.885
300.921
300.954
300.984
301.012
301.04
301.066
301.093
301.121
301.15
301.18
301.213
301.251
301.303
301.377
301.49
301.661
301.91
302.246
302.663
303.127
303.669
304.4
305.353
300.071
300.204
300.325
300.434
300.526
300.603
300.668
300.726
300.777
300.824
300.868
300.908
300.944
300.978
301.009
301.038
301.066
301.095
301.125
301.156
301.189
301.223
301.259
301.3
301.351
301.422
301.529
301.692
301.933
302.267
302.689
303.159
303.708
304.443
305.398
300.073
300.21
300.335
300.446
300.541
300.62
300.686
300.744
300.797
300.846
300.89
300.93
300.967
301.002
301.033
301.063
301.093
301.124
301.156
301.192
301.23
301.27
301.311
301.355
301.408
301.479
301.582
301.738
301.971
302.3
302.721
303.192
303.743
304.482
305.435
300.075
300.216
300.345
300.46
300.557
300.637
300.704
300.764
300.818
300.867
300.912
300.954
300.991
301.026
301.058
301.088
301.119
301.151
301.187
301.228
301.273
301.322
301.371
301.42
301.476
301.547
301.648
301.799
302.025
302.346
302.761
303.227
303.776
304.518
305.475
300.077
300.222
300.355
300.473
300.573
300.654
300.723
300.784
300.839
300.889
300.935
300.976
301.014
301.049
301.082
301.113
301.144
301.177
301.216
301.262
301.316
301.376
301.437
301.496
301.558
301.633
301.734
301.884
302.104
302.417
302.821
303.275
303.819
304.571
305.539
300.08
300.229
300.366
300.487
300.588
300.671
300.741
300.803
300.859
300.91
300.956
300.999
301.037
301.072
301.104
301.135
301.167
301.201
301.241
301.291
301.354
301.428
301.506
301.581
301.655
301.738
301.845
301.997
302.217
302.524
302.913
303.351
303.891
304.657
305.64
300.082
300.235
300.376
300.499
300.602
300.687
300.758
300.821
300.878
300.93
300.977
301.02
301.059
301.094
301.126
301.157
301.187
301.221
301.261
301.313
301.382
301.469
301.568
301.667
301.762
301.86
301.979
302.139
302.362
302.663
303.036
303.457
303.995
304.774
305.767
300.084
300.241
300.385
300.511
300.615
300.701
300.773
300.837
300.895
300.948
300.996
301.04
301.079
301.114
301.147
301.177
301.206
301.238
301.275
301.324
301.393
301.488
301.606
301.735
301.86
301.984
302.122
302.294
302.522
302.818
303.175
303.583
304.119
304.903
305.895
300.085
300.246
300.392
300.521
300.627
300.714
300.787
300.852
300.911
300.965
301.014
301.058
301.098
301.134
301.167
301.196
301.225
301.254
301.287
301.331
301.392
301.483
301.608
301.762
301.925
302.086
302.252
302.442
302.677
302.969
303.312
303.709
304.241
305.019
305.998
300.087
300.25
300.399
300.53
300.637
300.725
300.8
300.866
300.926
300.981
301.031
301.076
301.117
301.154
301.186
301.216
301.244
301.271
301.301
301.338
301.388
301.464
301.579
301.739
301.932
302.136
302.342
302.559
302.807
303.099
303.433
303.82
304.344
305.106
306.065
300.088
300.254
300.405
300.538
300.647
300.737
300.812
300.879
300.94
300.996
301.047
301.094
301.135
301.173
301.206
301.237
301.265
301.291
301.319
301.35
301.39
301.449
301.542
301.684
301.88
302.115
302.365
302.622
302.895
303.195
303.526
303.906
304.417
305.157
306.093
300.09
300.258
300.411
300.546
300.657
300.748
300.824
300.893
300.955
301.012
301.064
301.111
301.154
301.192
301.227
301.258
301.286
301.313
301.339
301.368
301.401
301.447
301.517
301.63
301.802
302.037
302.317
302.615
302.924
303.245
303.582
303.958
304.457
305.174
306.089
300.091
300.262
300.417
300.554
300.667
300.759
300.837
300.906
300.97
301.028
301.081
301.129
301.173
301.212
301.248
301.28
301.309
301.336
301.363
301.39
301.42
301.458
301.512
301.598
301.735
301.943
302.221
302.546
302.892
303.245
303.599
303.976
304.466
305.166
306.065
300.092
300.265
300.423
300.562
300.677
300.771
300.85
300.921
300.986
301.045
301.099
301.148
301.193
301.233
301.269
301.302
301.333
301.361
301.389
301.416
301.445
301.479
301.524
301.59
301.697
301.867
302.118
302.443
302.814
303.201
303.581
303.968
304.453
305.142
306.032
300.094
300.27
300.43
300.572
300.689
300.784
300.865
300.937
301.003
301.063
301.118
301.168
301.214
301.254
301.291
301.326
301.357
301.387
301.416
301.444
301.474
301.506
301.547
301.602
301.687
301.824
302.037
302.34
302.714
303.126
303.536
303.938
304.423
305.107
305.996
300.095
300.274
300.438
300.582
300.702
300.799
300.881
300.955
301.022
301.083
301.139
301.19
301.235
301.277
301.315
301.35
301.382
301.413
301.444
301.474
301.505
301.539
301.577
301.627
301.699
301.811
301.99
302.259
302.618
303.04
303.474
303.893
304.384
305.072
305.965
300.097
300.279
300.447
300.594
300.716
300.815
300.899
300.974
301.042
301.104
301.161
301.212
301.258
301.3
301.339
301.374
301.408
301.441
301.473
301.506
301.54
301.576
301.615
301.662
301.727
301.823
301.975
302.211
302.545
302.962
303.413
303.848
304.347
305.042
305.942
300.099
300.286
300.457
300.608
300.732
300.833
300.918
300.994
301.063
301.126
301.184
301.236
301.282
301.324
301.363
301.399
301.434
301.469
301.504
301.539
301.577
301.616
301.659
301.707
301.767
301.853
301.986
302.194
302.501
302.904
303.361
303.808
304.316
305.018
305.922
300.101
300.292
300.468
300.622
300.749
300.851
300.938
301.015
301.086
301.15
301.208
301.26
301.307
301.349
301.388
301.425
301.461
301.497
301.534
301.574
301.616
301.661
301.709
301.76
301.821
301.902
302.022
302.207
302.487
302.87
303.323
303.775
304.289
304.997
305.908
300.104
300.299
300.479
300.637
300.766
300.87
300.958
301.037
301.108
301.173
301.232
301.285
301.331
301.374
301.413
301.45
301.487
301.524
301.564
301.608
301.657
301.71
301.766
301.824
301.889
301.97
302.084
302.255
302.513
302.873
303.312
303.76
304.276
304.992
305.913
300.106
300.307
300.491
300.652
300.783
300.888
300.978
301.058
301.131
301.197
301.256
301.309
301.356
301.398
301.437
301.474
301.511
301.55
301.592
301.641
301.697
301.76
301.827
301.896
301.971
302.058
302.173
302.34
302.586
302.927
303.343
303.776
304.288
305.015
305.949
300.109
300.314
300.502
300.666
300.799
300.906
300.997
301.078
301.152
301.219
301.279
301.332
301.379
301.421
301.46
301.497
301.534
301.572
301.616
301.668
301.731
301.804
301.886
301.971
302.06
302.16
302.284
302.455
302.696
303.021
303.411
303.823
304.33
305.066
306.013
300.111
300.321
300.512
300.679
300.814
300.922
301.015
301.097
301.172
301.24
301.301
301.354
301.402
301.444
301.482
301.518
301.554
301.592
301.636
301.688
301.754
301.836
301.932
302.037
302.145
302.263
302.401
302.581
302.821
303.132
303.496
303.889
304.391
305.134
306.09
300.113
300.327
300.522
300.691
300.827
300.938
301.032
301.116
301.192
301.261
301.322
301.376
301.423
301.465
301.503
301.539
301.574
301.61
301.652
301.702
301.767
301.852
301.957
302.08
302.211
302.35
302.507
302.697
302.939
303.239
303.581
303.959
304.458
305.204
306.167
300.115
300.332
300.53
300.702
300.841
300.953
301.048
301.133
301.211
301.281
301.343
301.397
301.445
301.487
301.525
301.56
301.594
301.629
301.667
301.714
301.774
301.855
301.961
302.094
302.245
302.409
302.587
302.791
303.036
303.328
303.656
304.025
304.521
305.269
306.235
300.117
300.338
300.539
300.713
300.854
300.968
301.065
301.151
301.23
301.301
301.363
301.418
301.467
301.509
301.547
301.582
301.615
301.649
301.685
301.727
301.781
301.854
301.954
302.086
302.248
302.432
302.633
302.855
303.109
303.399
303.72
304.084
304.578
305.326
306.296
300.119
300.343
300.548
300.725
300.868
300.984
301.082
301.17
301.25
301.321
301.385
301.44
301.489
301.532
301.57
301.605
301.638
301.67
301.705
301.745
301.793
301.858
301.947
302.07
302.232
302.427
302.647
302.889
303.157
303.453
303.774
304.136
304.631
305.379
306.351
300.121
300.349
300.557
300.738
300.883
301
301.1
301.19
301.27
301.343
301.407
301.463
301.512
301.555
301.593
301.628
301.662
301.694
301.728
301.766
301.811
301.869
301.948
302.06
302.212
302.407
302.639
302.9
303.185
303.493
303.82
304.186
304.681
305.431
306.405
300.123
300.355
300.567
300.751
300.899
301.018
301.119
301.21
301.292
301.365
301.43
301.487
301.536
301.579
301.618
301.653
301.687
301.72
301.754
301.791
301.834
301.888
301.96
302.061
302.2
302.388
302.623
302.896
303.2
303.524
303.862
304.233
304.731
305.483
306.457
300.125
300.362
300.578
300.765
300.915
301.036
301.139
301.231
301.315
301.389
301.454
301.511
301.56
301.604
301.643
301.679
301.713
301.746
301.781
301.818
301.861
301.914
301.982
302.075
302.204
302.381
302.611
302.891
303.21
303.551
303.903
304.282
304.784
305.537
306.509
300.127
300.369
300.59
300.78
300.932
301.055
301.16
301.254
301.338
301.413
301.479
301.536
301.585
301.629
301.668
301.704
301.739
301.773
301.809
301.848
301.892
301.945
302.012
302.101
302.223
302.391
302.614
302.895
303.223
303.58
303.946
304.332
304.838
305.592
306.561
300.13
300.377
300.602
300.795
300.95
301.074
301.181
301.276
301.362
301.438
301.504
301.561
301.611
301.655
301.694
301.73
301.766
301.801
301.838
301.878
301.924
301.979
302.048
302.137
302.257
302.42
302.638
302.916
303.249
303.618
303.994
304.387
304.897
305.651
306.612
300.133
300.385
300.614
300.811
300.968
301.094
301.203
301.299
301.386
301.463
301.529
301.587
301.636
301.68
301.719
301.756
301.792
301.828
301.867
301.909
301.958
302.016
302.088
302.181
302.302
302.465
302.681
302.958
303.293
303.668
304.051
304.447
304.96
305.709
306.657
300.136
300.393
300.627
300.827
300.986
301.114
301.224
301.322
301.41
301.488
301.555
301.612
301.662
301.705
301.745
301.782
301.818
301.855
301.895
301.939
301.991
302.053
302.13
302.228
302.356
302.523
302.741
303.019
303.356
303.732
304.115
304.511
305.022
305.761
306.691
300.138
300.401
300.639
300.843
301.004
301.134
301.246
301.345
301.434
301.512
301.58
301.637
301.687
301.73
301.769
301.806
301.843
301.88
301.921
301.967
302.022
302.088
302.17
302.275
302.409
302.583
302.807
303.089
303.426
303.8
304.177
304.569
305.075
305.798
306.706
300.141
300.409
300.652
300.858
301.022
301.154
301.267
301.368
301.458
301.537
301.604
301.662
301.711
301.754
301.793
301.83
301.867
301.905
301.946
301.993
302.049
302.118
302.205
302.315
302.456
302.638
302.868
303.154
303.491
303.861
304.23
304.614
305.111
305.814
306.701
300.144
300.417
300.664
300.874
301.04
301.173
301.288
301.39
301.481
301.561
301.629
301.686
301.735
301.778
301.817
301.854
301.89
301.928
301.969
302.016
302.073
302.143
302.232
302.345
302.491
302.677
302.913
303.201
303.537
303.9
304.26
304.636
305.121
305.805
306.677
300.147
300.425
300.676
300.89
301.058
301.193
301.309
301.413
301.505
301.585
301.653
301.71
301.759
301.802
301.841
301.877
301.913
301.951
301.991
302.038
302.094
302.164
302.252
302.366
302.513
302.701
302.937
303.225
303.557
303.914
304.266
304.633
305.108
305.779
306.643
300.149
300.433
300.689
300.905
301.076
301.213
301.331
301.435
301.528
301.608
301.677
301.734
301.783
301.826
301.864
301.9
301.936
301.973
302.014
302.06
302.114
302.182
302.268
302.379
302.523
302.708
302.941
303.225
303.552
303.902
304.247
304.607
305.074
305.739
306.605
300.152
300.441
300.701
300.921
301.094
301.233
301.352
301.458
301.552
301.633
301.701
301.759
301.807
301.85
301.888
301.924
301.96
301.997
302.037
302.082
302.135
302.2
302.283
302.39
302.529
302.708
302.935
303.212
303.532
303.875
304.215
304.57
305.033
305.699
306.572
300.155
300.449
300.714
300.937
301.112
301.253
301.374
301.481
301.576
301.657
301.726
301.783
301.832
301.874
301.912
301.948
301.984
302.021
302.06
302.105
302.157
302.22
302.3
302.402
302.534
302.706
302.925
303.193
303.505
303.841
304.177
304.53
304.991
305.663
306.545
300.158
300.457
300.727
300.953
301.131
301.274
301.397
301.505
301.601
301.682
301.751
301.808
301.856
301.898
301.936
301.973
302.009
302.046
302.086
302.13
302.182
302.243
302.32
302.418
302.545
302.709
302.919
303.178
303.482
303.811
304.144
304.496
304.958
305.637
306.532
300.161
300.465
300.74
300.97
301.151
301.295
301.42
301.53
301.626
301.708
301.776
301.833
301.881
301.923
301.961
301.998
302.034
302.071
302.112
302.157
302.208
302.269
302.343
302.438
302.56
302.718
302.92
303.17
303.466
303.79
304.12
304.471
304.934
305.622
306.527
300.164
300.474
300.753
300.987
301.17
301.317
301.443
301.554
301.651
301.734
301.802
301.859
301.907
301.948
301.986
302.023
302.06
302.098
302.139
302.185
302.236
302.297
302.372
302.464
302.583
302.735
302.931
303.174
303.463
303.781
304.109
304.459
304.925
305.62
306.535
300.167
300.483
300.767
301.004
301.19
301.339
301.466
301.579
301.677
301.76
301.829
301.885
301.932
301.973
302.011
302.048
302.085
302.124
302.167
302.213
302.266
302.328
302.402
302.494
302.611
302.76
302.95
303.187
303.47
303.783
304.108
304.458
304.926
305.628
306.552
300.17
300.492
300.781
301.022
301.21
301.361
301.49
301.604
301.703
301.787
301.855
301.911
301.958
301.999
302.037
302.074
302.112
302.152
302.195
302.243
302.298
302.361
302.437
302.529
302.645
302.793
302.98
303.212
303.489
303.798
304.119
304.469
304.938
305.647
306.577
300.173
300.501
300.794
301.039
301.23
301.383
301.514
301.63
301.73
301.814
301.882
301.938
301.984
302.025
302.062
302.099
302.137
302.178
302.223
302.273
302.329
302.395
302.472
302.566
302.683
302.83
303.015
303.245
303.517
303.821
304.139
304.488
304.959
305.672
306.609
300.176
300.51
300.808
301.056
301.249
301.405
301.538
301.656
301.757
301.841
301.909
301.965
302.01
302.05
302.088
302.125
302.163
302.205
302.251
302.303
302.362
302.43
302.51
302.606
302.725
302.873
303.058
303.285
303.554
303.852
304.166
304.514
304.987
305.705
306.647
300.179
300.518
300.822
301.074
301.269
301.427
301.562
301.682
301.784
301.869
301.937
301.992
302.037
302.076
302.113
302.15
302.189
302.232
302.279
302.332
302.393
302.464
302.547
302.646
302.768
302.918
303.103
303.329
303.595
303.889
304.199
304.546
305.02
305.742
306.688
300.182
300.527
300.836
301.091
301.29
301.449
301.587
301.708
301.811
301.897
301.965
302.019
302.064
302.102
302.139
302.175
302.215
302.258
302.307
302.362
302.425
302.499
302.585
302.688
302.812
302.965
303.152
303.377
303.64
303.929
304.236
304.582
305.058
305.783
306.733
300.185
300.536
300.85
301.109
301.31
301.472
301.612
301.735
301.839
301.925
301.993
302.047
302.091
302.128
302.164
302.201
302.24
302.284
302.334
302.391
302.456
302.533
302.622
302.728
302.856
303.012
303.2
303.426
303.686
303.972
304.276
304.62
305.099
305.827
306.781
300.189
300.545
300.864
301.128
301.332
301.496
301.638
301.763
301.868
301.954
302.022
302.075
302.118
302.155
302.19
302.226
302.266
302.31
302.361
302.42
302.487
302.566
302.659
302.769
302.901
303.059
303.25
303.475
303.733
304.016
304.317
304.661
305.142
305.874
306.832
300.192
300.555
300.879
301.146
301.353
301.52
301.665
301.791
301.898
301.984
302.052
302.104
302.146
302.182
302.216
302.252
302.291
302.336
302.388
302.448
302.518
302.599
302.695
302.809
302.944
303.105
303.298
303.524
303.781
304.061
304.36
304.705
305.188
305.924
306.887
300.195
300.565
300.894
301.166
301.376
301.546
301.693
301.821
301.928
302.015
302.082
302.134
302.175
302.21
302.243
302.278
302.317
302.363
302.415
302.476
302.548
302.632
302.731
302.848
302.987
303.152
303.347
303.573
303.829
304.106
304.404
304.749
305.236
305.976
306.944
300.199
300.575
300.911
301.187
301.4
301.572
301.721
301.851
301.96
302.047
302.113
302.164
302.204
302.237
302.27
302.304
302.343
302.389
302.442
302.505
302.578
302.665
302.767
302.888
303.03
303.198
303.395
303.623
303.877
304.153
304.45
304.797
305.287
306.033
307.005
300.202
300.586
300.927
301.208
301.424
301.599
301.751
301.883
301.993
302.079
302.145
302.195
302.233
302.266
302.297
302.331
302.37
302.416
302.47
302.534
302.61
302.699
302.804
302.928
303.073
303.244
303.444
303.672
303.926
304.201
304.497
304.846
305.34
306.091
307.068
300.206
300.597
300.945
301.23
301.449
301.627
301.781
301.915
302.026
302.113
302.178
302.227
302.264
302.295
302.325
302.358
302.397
302.443
302.498
302.564
302.641
302.733
302.841
302.969
303.118
303.292
303.494
303.723
303.977
304.252
304.548
304.899
305.398
306.155
307.134
300.21
300.609
300.963
301.253
301.475
301.656
301.813
301.949
302.06
302.147
302.212
302.259
302.295
302.324
302.353
302.385
302.424
302.471
302.527
302.594
302.674
302.769
302.881
303.012
303.164
303.342
303.546
303.776
304.03
304.303
304.6
304.954
305.458
306.219
307.202
300.214
300.621
300.982
301.276
301.502
301.685
301.844
301.982
302.095
302.182
302.246
302.292
302.326
302.354
302.381
302.413
302.451
302.498
302.556
302.625
302.708
302.806
302.921
303.056
303.213
303.394
303.601
303.833
304.086
304.36
304.657
305.013
305.523
306.288
307.27
300.219
300.634
301.002
301.301
301.529
301.715
301.877
302.017
302.131
302.217
302.28
302.325
302.358
302.384
302.41
302.441
302.479
302.526
302.585
302.656
302.742
302.844
302.964
303.103
303.264
303.449
303.658
303.891
304.144
304.417
304.714
305.073
305.587
306.355
307.336
300.224
300.647
301.023
301.327
301.559
301.747
301.911
302.053
302.167
302.253
302.315
302.359
302.389
302.414
302.439
302.468
302.505
302.553
302.613
302.687
302.776
302.882
303.007
303.152
303.318
303.507
303.72
303.954
304.208
304.48
304.777
305.139
305.656
306.424
307.399
300.229
300.662
301.046
301.355
301.591
301.781
301.948
302.09
302.205
302.291
302.351
302.393
302.422
302.445
302.468
302.496
302.533
302.581
302.642
302.718
302.81
302.921
303.051
303.202
303.373
303.567
303.782
304.017
304.271
304.542
304.838
305.201
305.721
306.485
307.452
300.234
300.677
301.071
301.387
301.626
301.82
301.988
302.131
302.245
302.329
302.388
302.427
302.455
302.476
302.497
302.523
302.559
302.607
302.669
302.747
302.843
302.959
303.095
303.252
303.431
303.63
303.849
304.086
304.339
304.609
304.905
305.267
305.788
306.545
307.498
300.24
300.695
301.099
301.423
301.667
301.864
302.034
302.177
302.289
302.371
302.427
302.464
302.488
302.507
302.526
302.551
302.585