/*--------------------------------*- C++ -*----------------------------------*\
| =========                 |                                                 |
| \\      /  F ield         | OpenFOAM: The Open Source CFD Toolbox           |
|  \\    /   O peration     | Version:  v2006                                 |
|   \\  /    A nd           | Website:  www.openfoam.com                      |
|    \\/     M anipulation  |                                                 |
\*---------------------------------------------------------------------------*/
FoamFile
{
    version     2.0;
    format      ascii;
    class       volScalarField;
    location    "97";
    object      alphat;
}
// * * * * * * * * * * * * * * * * * * * * * * * * * * * * * * * * * * * * * //

dimensions      [1 -1 -1 0 0 0 0];


internalField   nonuniform List<scalar> 
78750
(
0.000630105
0.00145799
0.00104308
0.000350116
8.60056e-05
3.13142e-05
4.08906e-05
3.49882e-05
5.02482e-05
6.06134e-05
7.82699e-05
9.51743e-05
0.000106491
0.000115332
0.000117678
0.00011715
0.000116535
0.000115845
0.000115039
0.00011403
0.00011285
0.000111517
0.000110032
0.000108351
0.000106497
0.000104475
0.00010228
9.98882e-05
9.72578e-05
9.43284e-05
9.05086e-05
7.46334e-05
5.43874e-05
2.19407e-05
8.37355e-07
4.51517e-06
0.000123004
2.8466e-05
3.94577e-05
9.52176e-05
5.87821e-05
4.47884e-05
4.43546e-05
4.256e-05
4.69756e-05
6.24829e-05
9.88076e-05
0.000147913
0.000149116
0.000139153
0.000150191
0.000177261
0.000217488
0.000276046
0.000278297
0.000276232
0.000273695
0.000270694
0.000267172
0.000263107
0.000254106
0.000246648
0.000240243
0.000230856
0.000214013
0.000182704
0.000129184
5.59487e-05
1.2159e-05
1.47443e-06
3.05866e-06
4.42862e-05
0.000129722
0.000212692
0.000181532
0.000177754
0.000187016
0.000118841
7.3055e-05
5.27364e-05
4.23311e-05
3.62686e-05
3.41198e-05
3.91894e-05
6.48403e-05
0.000151441
0.000224678
0.000170274
0.000114751
0.000114301
0.000147542
0.000205594
0.000269049
0.000279592
0.000280825
0.000280998
0.000280133
0.000266453
0.000241982
0.00020858
0.000157847
9.04332e-05
3.54823e-05
1.5712e-05
2.98783e-06
4.59387e-06
1.47283e-05
3.28899e-05
7.61159e-05
0.000116979
9.07768e-05
6.73238e-05
5.85856e-05
6.02927e-05
7.14123e-05
9.32571e-05
0.000115683
0.000107566
8.76923e-05
7.82159e-05
7.60677e-05
7.68666e-05
7.90638e-05
8.6391e-05
0.000107412
0.000128682
0.000123
0.00012433
0.000145304
0.000181582
0.000225335
0.000264308
0.000282885
0.000282134
0.000256367
0.000199952
0.000113585
3.62238e-05
1.47218e-05
3.57293e-06
8.52826e-06
5.97416e-05
0.00023804
0.000198789
0.00015072
0.000116177
9.14599e-05
6.9573e-05
5.14178e-05
4.25837e-05
4.89777e-05
8.37354e-05
0.000141486
0.000141869
0.000100033
6.96336e-05
6.08459e-05
8.11645e-05
0.000171516
0.000235895
0.000237559
0.000135621
0.00010398
0.000122796
0.000178295
0.00025111
0.000295972
0.000297721
0.00027866
0.000221723
0.000143743
7.01761e-05
2.98363e-05
2.00106e-05
5.03756e-06
9.46212e-06
5.00634e-05
0.00010176
0.00010742
8.27226e-05
6.23134e-05
5.43579e-05
5.58244e-05
6.52638e-05
8.03571e-05
9.48647e-05
0.000102381
9.50967e-05
7.68009e-05
6.0221e-05
5.00743e-05
4.69849e-05
5.37795e-05
7.82815e-05
0.00012745
0.000180005
0.000209377
0.000233882
0.000255579
0.000263366
0.000270433
0.000265811
0.000250303
0.000224928
0.00018637
0.000129519
6.53197e-05
2.75743e-05
1.95925e-05
5.3822e-06
5.62822e-06
4.12431e-05
0.000112384
0.000184081
0.000199524
0.000164075
0.000108616
7.06e-05
5.07348e-05
4.03259e-05
3.50822e-05
3.43069e-05
3.97518e-05
5.44639e-05
7.78938e-05
0.000101495
0.000123466
0.000157763
0.000214642
0.000249732
0.0002533
0.000257064
0.000261241
0.000265876
0.000270779
0.000269092
0.000243625
0.000215149
0.000183049
0.000143073
9.36274e-05
4.95601e-05
2.92995e-05
3.13825e-05
6.34467e-06
6.31311e-06
2.74282e-05
8.43182e-05
0.000160785
0.000175611
0.000161517
0.000146583
0.000133375
0.000111842
8.32052e-05
5.9591e-05
4.47704e-05
3.8241e-05
3.9902e-05
4.97277e-05
6.47519e-05
7.68912e-05
7.70636e-05
7.4126e-05
8.95184e-05
0.000133063
0.000174142
0.00020365
0.00023734
0.000266777
0.000274681
0.000258261
0.00022829
0.000194896
0.000158617
0.000109414
5.07158e-05
2.29107e-05
2.59713e-05
6.93029e-06
9.10305e-06
5.81829e-05
0.000172853
0.000204371
0.000193013
0.00015931
0.000122637
9.68065e-05
8.34914e-05
7.79294e-05
6.86844e-05
4.96691e-05
3.42294e-05
2.92385e-05
3.75263e-05
7.05263e-05
0.000135882
0.000174698
0.000177809
0.00019765
0.000222611
0.000226298
0.000209866
0.000195734
0.000199324
0.000206297
0.000198361
0.000171138
0.000133851
9.74833e-05
6.84355e-05
4.72029e-05
3.32236e-05
4.44396e-05
7.53214e-06
7.63678e-06
3.47438e-05
0.000103506
0.000169354
0.000194374
0.000195445
0.000174231
0.0001319
9.14732e-05
6.85966e-05
5.90006e-05
5.29333e-05
4.17949e-05
3.08228e-05
2.79251e-05
3.53291e-05
5.42657e-05
8.38429e-05
0.000115749
0.000137771
0.000150863
0.000165848
0.000184597
0.000194128
0.000191424
0.000186262
0.000182305
0.000175822
0.000160707
0.000128503
7.38447e-05
3.25858e-05
2.26987e-05
4.19063e-05
8.54117e-06
8.33639e-06
4.43112e-05
0.000145481
0.00020366
0.000198435
0.000173578
0.000146491
0.000122764
0.000100545
8.07999e-05
6.948e-05
6.7296e-05
6.45815e-05
4.93683e-05
3.42513e-05
3.15171e-05
4.68887e-05
8.481e-05
0.000121979
0.000138132
0.000147756
0.000161673
0.00017252
0.000173142
0.000167525
0.00015889
0.000148654
0.000135608
0.000112195
8.01479e-05
5.24435e-05
3.364e-05
3.07753e-05
7.36533e-05
8.87548e-06
8.8253e-06
4.36246e-05
0.000141513
0.000200103
0.000205751
0.000189556
0.000158166
0.000121541
9.19842e-05
7.32675e-05
6.35644e-05
6.14097e-05
6.37027e-05
5.98244e-05
4.36004e-05
2.92523e-05
2.5189e-05
3.59418e-05
7.26349e-05
0.000110296
0.000111032
0.000101898
9.9758e-05
0.000102935
0.000104198
9.82289e-05
8.4477e-05
7.34218e-05
7.18103e-05
6.66442e-05
4.77166e-05
3.41738e-05
3.94086e-05
9.89798e-05
8.8727e-06
9.63867e-06
5.78988e-05
0.000166534
0.000206755
0.000206616
0.000187895
0.000157843
0.000124404
9.63052e-05
7.8343e-05
7.00508e-05
6.94653e-05
7.6142e-05
8.74738e-05
8.72846e-05
6.20949e-05
3.77494e-05
2.84818e-05
3.31756e-05
5.50523e-05
8.81888e-05
0.000108202
0.000110362
0.000103026
9.13151e-05
7.73705e-05
6.32343e-05
5.16735e-05
4.77779e-05
5.34799e-05
3.50199e-05
1.25154e-05
1.40271e-05
4.77439e-05
9.18003e-06
9.4195e-06
5.14615e-05
0.000154948
0.000198926
0.000203762
0.000189718
0.000163875
0.00013397
0.000106406
8.56332e-05
7.36949e-05
6.94887e-05
6.99374e-05
7.15964e-05
7.02552e-05
6.00971e-05
4.15851e-05
2.8173e-05
2.59877e-05
3.97241e-05
8.96619e-05
0.000133874
0.000118349
8.75495e-05
5.69868e-05
3.29468e-05
1.64074e-05
3.40718e-06
4.82676e-06
1.26862e-05
2.67405e-05
3.52897e-05
4.12064e-05
0.000108651
9.7214e-06
8.83302e-06
4.97083e-05
0.000146345
0.000199186
0.000205451
0.000186827
0.000158642
0.000133931
0.00011583
0.000101481
8.96293e-05
8.29798e-05
8.34783e-05
8.81183e-05
8.70374e-05
7.05364e-05
4.5354e-05
2.74628e-05
2.25279e-05
3.13588e-05
5.69976e-05
8.97515e-05
0.000105403
9.20825e-05
6.86072e-05
4.98028e-05
4.06309e-05
3.73587e-05
1.86133e-05
1.5464e-05
1.87418e-05
3.09166e-05
6.76986e-05
9.61337e-05
9.49175e-06
8.54382e-06
4.2396e-05
0.000131904
0.000186368
0.000189966
0.00017229
0.000150849
0.000134567
0.000122994
0.000112223
9.93994e-05
8.57328e-05
7.5597e-05
7.2008e-05
7.40572e-05
7.39871e-05
5.90965e-05
3.43329e-05
1.81394e-05
1.31693e-05
2.24801e-05
5.76807e-05
8.24451e-05
8.18604e-05
7.71356e-05
7.21016e-05
6.41236e-05
5.69238e-05
4.61819e-05
2.66708e-05
1.33088e-05
1.26066e-05
2.80395e-05
0.000101908
9.06683e-06
7.74531e-06
3.67612e-05
0.000117147
0.000179764
0.000168199
0.000138024
0.000117674
0.000110166
0.000112587
0.000121634
0.000130691
0.000129002
0.000112459
9.23195e-05
8.06167e-05
8.06626e-05
8.83928e-05
8.57355e-05
5.78261e-05
3.1579e-05
1.79786e-05
1.24838e-05
1.88071e-05
3.80256e-05
5.6626e-05
7.18413e-05
6.53084e-05
5.45451e-05
3.55701e-05
1.99628e-05
1.34953e-05
6.12452e-06
1.68153e-05
8.10128e-05
9.52596e-06
9.14887e-06
4.49548e-05
0.000147276
0.000177143
0.000132842
0.000105108
9.8518e-05
0.00010237
0.000110027
0.000120449
0.000135325
0.000152043
0.000158342
0.000141517
0.000110959
8.80623e-05
8.07776e-05
8.76896e-05
9.89467e-05
8.99775e-05
5.87413e-05
3.35398e-05
1.83491e-05
1.04367e-05
9.91735e-06
7.32204e-06
9.58567e-06
8.57419e-06
4.2631e-06
8.71488e-06
1.03915e-05
5.73253e-06
1.63343e-05
9.15763e-05
1.04491e-05
1.10233e-05
6.84976e-05
0.000179468
0.000118477
7.60516e-05
7.04196e-05
8.62969e-05
0.000113964
0.000143454
0.000168534
0.000188624
0.000203541
0.000208079
0.000193174
0.000158403
0.000121573
0.000100089
9.77425e-05
0.000111467
0.000126885
0.000114932
7.55494e-05
3.96659e-05
1.69534e-05
4.26728e-06
1.03716e-05
4.01578e-06
4.51778e-06
3.10862e-06
1.06312e-05
2.33487e-05
3.59755e-05
5.97253e-05
9.77025e-05
1.0567e-05
1.23557e-05
0.000104409
0.00013378
7.37151e-05
5.692e-05
7.07292e-05
0.000105182
0.000141837
0.000168848
0.00018643
0.00019699
0.000201733
0.000199492
0.000187077
0.000163829
0.000136474
0.000115628
0.000107644
0.000112893
0.000125509
0.000129815
0.000110304
7.42894e-05
4.24649e-05
2.22459e-05
8.99997e-06
3.04847e-06
2.1843e-06
5.04067e-06
1.22248e-05
2.14193e-05
4.50193e-05
0.000114139
5.0745e-05
9.53294e-06
1.17203e-05
9.33426e-05
0.000145844
0.000105938
8.87734e-05
8.52247e-05
8.49317e-05
9.34729e-05
0.000114417
0.000142458
0.000165447
0.000176296
0.000175695
0.000166733
0.000153035
0.000138873
0.000128152
0.000122957
0.000122755
0.000124305
0.000122755
0.000114215
9.79099e-05
7.65357e-05
5.50988e-05
3.73175e-05
2.32708e-05
1.2141e-05
6.77425e-06
5.59437e-06
1.60743e-05
1.58867e-05
3.20649e-05
8.232e-05
8.45055e-06
1.01452e-05
5.24299e-05
0.000129705
0.00016094
0.000143425
9.2967e-05
6.02452e-05
4.72608e-05
4.84946e-05
6.51955e-05
9.84614e-05
0.000137548
0.000165258
0.000176546
0.000176427
0.00017122
0.00016562
0.000161883
0.000159372
0.00015575
0.000148729
0.000137303
0.000121919
0.000103796
8.43647e-05
6.42933e-05
4.6855e-05
3.26873e-05
2.08304e-05
9.93692e-06
2.70307e-06
3.6723e-06
2.9787e-06
2.12547e-05
9.59661e-06
8.94961e-06
3.84137e-05
0.000100096
0.000148677
0.000148803
0.000121042
8.39413e-05
5.31773e-05
3.71082e-05
3.63533e-05
5.32639e-05
9.3527e-05
0.000154641
0.00021647
0.000261172
0.000286409
0.000298519
0.000301523
0.00029468
0.000277981
0.000252959
0.000222774
0.000190468
0.000157833
0.000126224
9.66614e-05
7.09034e-05
3.54628e-05
1.06035e-05
5.55632e-06
6.13698e-06
1.55276e-06
7.15346e-06
5.41438e-05
1.19769e-05
9.06221e-06
3.76333e-05
0.000116187
0.000162568
0.000114426
8.37572e-05
7.73542e-05
6.61457e-05
4.53248e-05
3.60838e-05
4.56918e-05
8.41557e-05
0.000167777
0.000294505
0.000377246
0.000379663
0.000379518
0.000376963
0.000372226
0.000365491
0.000356793
0.000346064
0.000305384
0.000214365
0.000126574
5.7046e-05
1.85752e-05
1.00623e-05
1.83966e-05
3.78926e-05
4.81314e-05
3.3585e-05
4.64297e-05
0.000119824
1.17148e-05
1.08171e-05
4.66401e-05
0.000168084
0.000131744
6.59318e-05
4.35897e-05
4.34352e-05
5.70381e-05
5.57792e-05
4.92805e-05
6.26078e-05
0.000117621
0.000238212
0.000376472
0.000381692
0.000385041
0.000386342
0.000385518
0.000382506
0.000377218
0.000369418
0.0003587
0.000295054
0.000197335
0.00010826
4.33224e-05
1.43069e-05
9.96906e-06
1.96252e-05
4.5761e-05
8.66943e-05
0.000102938
0.000122615
5.35757e-05
9.75868e-06
1.35132e-05
7.5936e-05
0.000137763
5.01773e-05
3.30128e-05
3.22433e-05
3.85797e-05
5.43581e-05
7.17155e-05
9.07877e-05
0.000136566
0.000219952
0.0003053
0.000370428
0.000392516
0.000395004
0.000396211
0.000396058
0.00039448
0.00038797
0.000338261
0.000287678
0.000237941
0.000188322
0.000137935
8.78285e-05
4.59105e-05
2.29285e-05
1.79364e-05
2.43572e-05
3.98356e-05
6.83229e-05
0.000104861
5.17742e-05
8.75027e-06
1.44119e-05
0.000172243
3.55547e-05
1.55219e-05
2.31578e-05
4.72778e-05
7.0989e-05
9.35567e-05
0.000126988
0.000171244
0.000213411
0.000243857
0.000267409
0.000289072
0.00030833
0.000322445
0.000329019
0.000326871
0.000315898
0.000297314
0.000273343
0.00024613
0.000217377
0.000188333
0.000159813
0.000131777
0.000102828
7.25264e-05
4.59568e-05
2.97191e-05
2.6523e-05
2.93305e-05
3.92074e-05
6.73593e-05
8.87337e-06
1.33116e-05
8.29943e-05
1.63601e-05
1.18257e-05
6.0269e-05
0.00010482
0.00010101
0.000123125
0.000156463
0.000186074
0.000210005
0.000230612
0.000248835
0.000264473
0.000277121
0.00028649
0.000292104
0.000293191
0.000289141
0.000279826
0.000265618
0.000247314
0.000225937
0.000202697
0.000179271
0.000157468
0.000136528
0.000109732
7.28799e-05
4.40857e-05
3.1308e-05
1.59559e-05
1.29915e-05
6.08074e-05
1.01975e-05
1.16638e-05
0.000124644
3.15206e-05
1.44208e-05
2.60943e-05
7.05187e-05
9.56257e-05
0.000130325
0.000178455
0.000219416
0.000249073
0.000272166
0.000290993
0.000306662
0.000319583
0.000329453
0.000335677
0.000337766
0.000335224
0.000327477
0.000314111
0.000295136
0.000270994
0.00024266
0.000211227
0.000175961
0.000131914
7.97329e-05
4.97169e-05
4.00939e-05
3.22353e-05
1.8811e-05
2.44405e-05
9.78371e-05
1.13184e-05
1.16794e-05
5.95577e-05
0.00010139
1.95509e-05
7.45683e-06
2.48964e-05
8.21432e-05
0.000129856
0.000173824
0.00021595
0.000252092
0.000281765
0.000307227
0.000330839
0.000352704
0.000371556
0.000386819
0.00039777
0.000403185
0.000401448
0.000390845
0.000370038
0.000338414
0.000295841
0.00024147
0.000173707
9.98383e-05
4.80756e-05
3.25367e-05
3.93823e-05
4.3097e-05
3.65696e-05
5.7828e-05
9.60068e-05
1.14151e-05
1.19318e-05
6.61347e-05
8.09802e-05
2.97168e-05
1.00428e-05
1.79893e-05
5.46944e-05
6.23626e-05
9.05537e-05
0.00012975
0.000168458
0.000198572
0.000223253
0.000248241
0.000275123
0.000302163
0.000327223
0.000348882
0.000365452
0.000374879
0.000374634
0.00036219
0.000335589
0.000293611
0.000235418
0.000162768
8.97581e-05
4.16859e-05
2.52059e-05
3.35649e-05
5.82973e-05
7.14694e-05
0.000103408
7.4966e-05
1.0733e-05
1.20458e-05
6.65557e-05
0.000104565
0.000122724
7.68474e-05
4.02263e-05
3.62516e-05
2.81599e-05
2.75734e-05
3.34431e-05
4.80577e-05
7.58855e-05
0.000115891
0.000151917
0.000175722
0.000197082
0.000221215
0.000245383
0.000265099
0.000278443
0.000285104
0.000284057
0.000273883
0.000253234
0.000220301
0.000172712
0.00011267
5.80527e-05
2.85936e-05
2.36308e-05
4.11228e-05
8.4366e-05
0.00011882
6.1352e-05
1.00677e-05
1.06693e-05
4.42253e-05
8.53074e-05
0.000136533
0.000176588
0.000167235
0.000105392
7.09446e-05
4.87449e-05
3.47707e-05
2.61742e-05
2.19823e-05
2.36904e-05
3.65315e-05
7.03851e-05
0.000120016
0.000148914
0.000167236
0.000189711
0.000212258
0.000227935
0.000235199
0.000234844
0.000227225
0.000212087
0.00018803
0.000151721
0.000102245
5.48827e-05
2.95192e-05
2.69922e-05
5.05541e-05
0.000104502
6.05314e-05
9.88704e-06
8.74168e-06
3.30518e-05
8.20621e-05
0.000159543
0.000156414
0.000147111
0.000157882
0.000165309
0.000155894
0.000124419
8.91348e-05
6.16933e-05
4.18586e-05
2.79199e-05
1.93022e-05
1.90225e-05
3.86342e-05
9.31929e-05
0.000132985
0.000160423
0.000187036
0.000208165
0.000220334
0.000222889
0.000216122
0.000201099
0.000178259
0.000145534
0.000100874
5.564e-05
3.05102e-05
3.18289e-05
6.7051e-05
7.19938e-05
1.02626e-05
1.12994e-05
3.44094e-05
7.48785e-05
0.00012133
0.000108619
8.38684e-05
6.74941e-05
6.3017e-05
7.09957e-05
9.30918e-05
0.000129119
0.000165447
0.000166926
0.000126898
8.35865e-05
4.6026e-05
2.26501e-05
1.67271e-05
4.00341e-05
0.000109514
0.000156038
0.000197685
0.000229553
0.000240471
0.000235039
0.00021883
0.000195243
0.000167271
0.000133642
8.87179e-05
4.40142e-05
2.88522e-05
4.64328e-05
8.65381e-05
1.0749e-05
1.49844e-05
7.46816e-05
0.000112537
6.80814e-05
5.83241e-05
7.25031e-05
0.000105353
0.000130236
0.00011928
8.89318e-05
7.18413e-05
8.66767e-05
0.000155388
0.000283245
0.000360226
0.000261988
0.000102309
4.33744e-05
2.81495e-05
4.72066e-05
0.00014238
0.0002542
0.000294803
0.000312183
0.000305363
0.00027389
0.000229037
0.000184243
0.000144813
0.000101489
5.25775e-05
3.07507e-05
4.48108e-05
9.57171e-05
1.13613e-05
1.28226e-05
4.8825e-05
3.35004e-05
3.43385e-05
4.96502e-05
8.58847e-05
0.000148486
0.000197955
0.000205772
0.000175079
0.00014795
0.000162218
0.000217595
0.000257421
0.00018918
7.22991e-05
3.19244e-05
3.51546e-05
0.000115855
0.000257138
0.000312936
0.000332114
0.000351619
0.000351074
0.000325003
0.000279436
0.000223358
0.000169465
0.000125568
8.58624e-05
4.9935e-05
3.60844e-05
6.07964e-05
8.78974e-05
1.1822e-05
4.93965e-06
3.26716e-05
0.000106515
0.000142981
5.74562e-05
4.27703e-05
5.103e-05
6.24543e-05
7.25184e-05
6.93515e-05
5.9155e-05
6.27461e-05
0.000103451
0.000162105
0.000153165
0.000131872
0.00012907
0.000146236
0.000175143
0.000193431
0.000212883
0.000231094
0.000241028
0.000237951
0.000219437
0.000187863
0.000152013
0.000121257
9.66141e-05
7.25631e-05
5.18131e-05
5.03506e-05
9.61287e-05
7.60179e-05
1.19907e-05
7.99682e-06
4.19594e-05
0.000103335
0.000109186
5.89611e-05
3.68967e-05
2.57518e-05
1.71298e-05
1.58423e-05
2.37535e-05
4.40991e-05
7.22702e-05
9.98692e-05
0.000124247
0.000136058
0.000134936
0.000138339
0.000154008
0.000175607
0.000193682
0.000206488
0.000213816
0.000213933
0.000204351
0.000183466
0.000153365
0.00012155
9.64555e-05
7.99942e-05
6.78796e-05
6.04826e-05
7.314e-05
0.000131623
6.94168e-05
1.17645e-05
1.07299e-05
3.58988e-05
9.26974e-05
0.000143303
0.000165323
0.000166596
0.000128938
7.21003e-05
3.2471e-05
8.55237e-06
6.74735e-07
3.53115e-06
1.09406e-05
4.06277e-05
8.11095e-05
0.000121364
0.000157468
0.000187692
0.000210861
0.000226326
0.000232729
0.000229226
0.000216337
0.00019549
0.000168811
0.000139689
0.000112946
9.28399e-05
8.0152e-05
7.30007e-05
7.40488e-05
9.76863e-05
0.000150119
6.8486e-05
1.14569e-05
1.13715e-05
4.30978e-05
0.000125837
0.000190916
0.000163699
0.000142317
0.000152375
0.000178047
0.000165585
8.20611e-05
1.56308e-05
1.71903e-06
6.22835e-07
3.10894e-06
1.64484e-05
5.8109e-05
0.000115734
0.000179576
0.000235284
0.000268747
0.00027663
0.000263982
0.000238635
0.000206329
0.000170755
0.00013565
0.000106179
8.67129e-05
7.75551e-05
7.67275e-05
8.71433e-05
0.000119655
0.000160219
6.86626e-05
1.12616e-05
1.23798e-05
5.62178e-05
0.000144867
0.000178437
0.00016989
0.000136574
9.53165e-05
7.27115e-05
7.37327e-05
9.3634e-05
5.76308e-05
7.99087e-06
1.26846e-06
1.23404e-06
8.21119e-08
2.65927e-05
7.04001e-05
0.000115131
0.00016333
0.000209539
0.000237579
0.00023965
0.000220337
0.000189199
0.000154888
0.000122942
9.72322e-05
8.11798e-05
7.65989e-05
8.34987e-05
0.000103884
0.000139985
0.000163594
6.47726e-05
1.09521e-05
1.24676e-05
5.14125e-05
0.000134731
0.000188123
0.000194456
0.000174736
0.000134417
9.43223e-05
7.51906e-05
7.93025e-05
9.61088e-05
3.87459e-05
2.94825e-06
3.10525e-07
2.55562e-06
2.35754e-06
2.99481e-05
6.46823e-05
9.43264e-05
0.000126828
0.00016496
0.000197453
0.000208264
0.000192529
0.000158625
0.000120715
9.01789e-05
7.21087e-05
6.78274e-05
7.80934e-05
0.000104601
0.00014273
0.000160783
6.23826e-05
1.08649e-05
1.19669e-05
4.93421e-05
0.000147076
0.00019957
0.000186056
0.000152458
0.000122618
0.000100669
8.17275e-05
7.20455e-05
7.70386e-05
7.77177e-05
1.8513e-05
1.21798e-06
1.03814e-06
2.57258e-06
8.94508e-06
3.80453e-05
6.1187e-05
7.76422e-05
9.64687e-05
0.000121119
0.000147153
0.000163665
0.000160315
0.000136021
0.000102871
7.67024e-05
6.56484e-05
7.21325e-05
9.87713e-05
0.000138805
0.000155039
5.97895e-05
1.0864e-05
1.2612e-05
5.59317e-05
0.000159852
0.000198879
0.000178954
0.000135995
0.000102357
9.14144e-05
9.14522e-05
8.28019e-05
7.19969e-05
7.11483e-05
5.13601e-05
6.19342e-06
8.81442e-07
1.91441e-06
2.98108e-06
1.65667e-05
4.06444e-05
5.61593e-05
6.82088e-05
8.38264e-05
0.000103746
0.000121044
0.000127909
0.000121576
0.000103122
8.07129e-05
6.63295e-05
6.73548e-05
8.84496e-05
0.000128106
0.000150515
5.82868e-05
1.09672e-05
1.27232e-05
5.53132e-05
0.00015336
0.000197811
0.000185017
0.000140056
9.4423e-05
7.40452e-05
7.72427e-05
9.4231e-05
0.000100142
9.02574e-05
7.58532e-05
2.847e-05
6.41673e-07
1.61359e-06
2.93286e-06
1.79746e-06
2.72085e-05
4.31858e-05
5.00081e-05
5.80896e-05
7.3924e-05
9.92415e-05
0.000122115
0.000124729
0.000108351
8.55213e-05
6.84016e-05
6.5352e-05
8.23624e-05
0.000121879
0.000147534
5.69979e-05
1.11027e-05
1.27248e-05
5.78307e-05
0.000168996
0.000198772
0.000171475
0.000131033
0.000100679
8.38639e-05
7.85822e-05
8.58535e-05
0.000102179
0.000111621
0.000103591
7.4127e-05
1.65107e-05
3.1317e-06
2.8515e-06
4.98028e-06
6.8482e-06
3.15842e-05
4.149e-05
4.29493e-05
4.62423e-05
5.74724e-05
7.89524e-05
0.000100863
0.0001032
8.76071e-05
7.20452e-05
6.89255e-05
8.59523e-05
0.000125818
0.000148089
5.54173e-05
1.11133e-05
1.31804e-05
6.28381e-05
0.00017113
0.000196358
0.00016915
0.000120121
8.52601e-05
7.55102e-05
8.26503e-05
9.45757e-05
0.000104878
0.000114193
0.000118861
0.000108373
6.57201e-05
8.95234e-06
1.14109e-06
1.7022e-06
2.8646e-06
1.36901e-05
3.63455e-05
4.39034e-05
4.52441e-05
4.90694e-05
6.09477e-05
8.09784e-05
9.49936e-05
8.89774e-05
7.5648e-05
7.30057e-05
9.15063e-05
0.000132786
0.000150238
5.51043e-05
1.11072e-05
1.32317e-05
6.70555e-05
0.000172213
0.000195117
0.000181941
0.000148544
0.00010542
7.8457e-05
7.47644e-05
8.91066e-05
0.000110585
0.000126578
0.000133143
0.000128882
0.000101829
4.4641e-05
3.38414e-06
1.09455e-06
3.76905e-06
6.44062e-06
1.7872e-05
3.21055e-05
3.46765e-05
3.56988e-05
4.19748e-05
5.73017e-05
7.83705e-05
8.88857e-05
8.53991e-05
8.6002e-05
0.000106305
0.000145881
0.000154241
5.48895e-05
1.10084e-05
1.30227e-05
6.52967e-05
0.000172072
0.000198417
0.000186617
0.000157705
0.000121872
9.08796e-05
7.4929e-05
7.62338e-05
9.20562e-05
0.000114373
0.000130448
0.000131113
0.000111878
6.85123e-05
2.18824e-05
3.47995e-06
5.99209e-07
2.05735e-07
1.23186e-05
2.25212e-05
3.30634e-05
3.46683e-05
3.54205e-05
4.2104e-05
5.83488e-05
7.81415e-05
8.86109e-05
9.71717e-05
0.000119429
0.000154601
0.000158304
5.5951e-05
1.09098e-05
1.29888e-05
6.36328e-05
0.000165928
0.000200253
0.000198696
0.000178872
0.000141988
0.000102223
7.66381e-05
6.84178e-05
7.55592e-05
9.57313e-05
0.00012304
0.0001461
0.000151771
0.000126163
6.50126e-05
1.58201e-05
1.84468e-06
5.0559e-08
4.52126e-06
6.11429e-06
2.57299e-05
2.84546e-05
2.75175e-05
2.99899e-05
3.95267e-05
5.99579e-05
8.53881e-05
0.00010549
0.000130868
0.000161252
0.000159873
5.72243e-05
1.09458e-05
1.2846e-05
6.09588e-05
0.000164466
0.000205243
0.000206273
0.000194081
0.000171348
0.000133465
9.27717e-05
6.90146e-05
6.37732e-05
7.31037e-05
9.26279e-05
0.000115428
0.00013602
0.000155295
0.000169417
0.000132999
3.42228e-05
1.43924e-07
3.29387e-06
2.11048e-06
5.63385e-06
2.11816e-05
3.73521e-05
3.18393e-05
2.9781e-05
3.7519e-05
6.02928e-05
9.56382e-05
0.000127276
0.000155758
0.000159667
5.81621e-05
1.08989e-05
1.27405e-05
5.74596e-05
0.000158722
0.000205621
0.000205397
0.000189423
0.000168421
0.000145305
0.000115208
8.39931e-05
6.64914e-05
6.56792e-05
7.92111e-05
0.000103493
0.00013005
0.000146337
0.000148882
0.000151633
0.000164202
0.000131851
4.02232e-05
3.48599e-06
1.47629e-06
1.28661e-08
1.38895e-06
2.12158e-05
2.86651e-05
2.94021e-05
3.72186e-05
6.27184e-05
0.00011085
0.000148397
0.000147819
5.77801e-05
1.08462e-05
1.29184e-05
5.86783e-05
0.000160228
0.000206757
0.000206515
0.000188877
0.000163854
0.00013965
0.000118399
9.69514e-05
7.9025e-05
7.27775e-05
8.08313e-05
0.000101835
0.000132256
0.00016572
0.000189777
0.000184722
0.000145451
0.000100685
7.33805e-05
4.83687e-05
1.30907e-05
2.99399e-06
3.56352e-06
2.74287e-06
1.80422e-05
2.67702e-05
2.98456e-05
4.0046e-05
6.85038e-05
0.000116413
0.000144427
6.11981e-05
1.12701e-05
1.29358e-05
5.92174e-05
0.000160813
0.000205817
0.000204055
0.000183283
0.000155375
0.000131712
0.000114698
9.97358e-05
8.58427e-05
7.9409e-05
8.60436e-05
0.000107218
0.000140433
0.000179087
0.000212998
0.000225183
0.000192094
0.000119669
6.06123e-05
3.05467e-05
1.05785e-05
1.02681e-06
3.84514e-06
1.10928e-06
9.51524e-06
2.13842e-05
2.78069e-05
3.3081e-05
4.88096e-05
8.95879e-05
0.000138569
6.04972e-05
1.13728e-05
1.30539e-05
6.09244e-05
0.000163975
0.000206846
0.00020242
0.000176859
0.00014481
0.00012185
0.00011053
0.000104058
9.63649e-05
9.04083e-05
9.40684e-05
0.000111894
0.00014348
0.00018329
0.000219844
0.000232088
0.000194528
0.000120047
5.93555e-05
2.61874e-05
6.50371e-06
1.71649e-06
3.0055e-06
5.56426e-07
1.28912e-05
2.32973e-05
2.80786e-05
3.67821e-05
5.74738e-05
9.85961e-05
0.000138997
5.72304e-05
1.14976e-05
1.29696e-05
6.06647e-05
0.000164261
0.000206367
0.000198182
0.000166759
0.000132945
0.000113757
0.000108234
0.00010821
0.00010675
0.000103498
0.000105023
0.00011798
0.000145033
0.000184738
0.000231056
0.000267842
0.00025756
0.000171729
7.60503e-05
2.79417e-05
7.57059e-06
1.22069e-06
3.72571e-06
4.2369e-06
9.05168e-06
2.30813e-05
2.35293e-05
2.28555e-05
3.46987e-05
7.32219e-05
0.000136744
5.93435e-05
1.20617e-05
1.29972e-05
6.04396e-05
0.00016477
0.000204753
0.00018975
0.00014963
0.000114585
0.000100903
0.000103152
0.000111127
0.000116978
0.000119152
0.00012241
0.000133227
0.000155025
0.00018634
0.00022086
0.000246334
0.000240985
0.00018316
9.44827e-05
3.22805e-05
6.06155e-06
1.47166e-06
2.90715e-06
3.44528e-06
1.62187e-05
2.79504e-05
3.98793e-05
4.2961e-05
5.35386e-05
9.80693e-05
0.000142956
5.17911e-05
1.1506e-05
1.30784e-05
6.04012e-05
0.000163029
0.000199167
0.000177259
0.000130751
9.74145e-05
8.99513e-05
0.000100653
0.000117932
0.000130732
0.000135805
0.000138345
0.000145802
0.000163063
0.000190929
0.000225946
0.000260175
0.00027918
0.000258844
0.000179153
7.77978e-05
2.06025e-05
6.50173e-06
1.14229e-06
2.50175e-06
1.52136e-05
2.56496e-05
2.98526e-05
4.16861e-05
7.14061e-05
0.000127867
0.000144736
4.92436e-05
1.10436e-05
1.33449e-05
6.27646e-05
0.000166467
0.000192705
0.000161422
0.00011023
8.00591e-05
7.71794e-05
9.39017e-05
0.000120831
0.000146201
0.000162893
0.000172305
0.000180443
0.00019294
0.00021232
0.000237334
0.00026292
0.000279519
0.000272788
0.000227028
0.000140576
5.16784e-05
7.19101e-06
2.06708e-06
8.26842e-07
4.95734e-06
2.39309e-05
3.63131e-05
3.66378e-05
5.26575e-05
0.000102228
0.000148718
5.69829e-05
1.16331e-05
1.35338e-05
6.47493e-05
0.000167066
0.000183591
0.000146323
9.51301e-05
6.86379e-05
6.94263e-05
9.15824e-05
0.000126198
0.000159087
0.000181973
0.000196548
0.000208403
0.000222341
0.000240912
0.000264105
0.000288883
0.00030816
0.000310109
0.000279932
0.000207231
0.00010561
2.86995e-05
7.73655e-06
2.95878e-06
3.34573e-06
1.78373e-05
3.81125e-05
6.18802e-05
8.7582e-05
0.000135192
0.000144271
5.03384e-05
1.1059e-05
1.36205e-05
6.49331e-05
0.000164568
0.00017643
0.000138271
8.74824e-05
5.91409e-05
5.66176e-05
7.63632e-05
0.000114264
0.000158343
0.000195574
0.000221632
0.000238745
0.00025093
0.000261418
0.00027141
0.000279472
0.000281504
0.000272244
0.000248651
0.000211523
0.000158758
8.63382e-05
2.3814e-05
4.13776e-07
4.23565e-06
1.51386e-05
3.24217e-05
5.83052e-05
0.00011098
0.000160091
0.000138265
4.64522e-05
1.01179e-05
1.35223e-05
6.15376e-05
0.000157818
0.000173329
0.000139856
9.08189e-05
5.62416e-05
4.55418e-05
5.70908e-05
8.99577e-05
0.000137216
0.000184279
0.000221181
0.000246517
0.000262525
0.000271746
0.000275811
0.000274919
0.000268236
0.000255857
0.000240456
0.000225894
0.000213116
0.00019274
0.000140069
5.77863e-05
1.19222e-05
1.58024e-06
1.63125e-05
3.74335e-05
6.56943e-05
0.000110385
0.000148097
6.07529e-05
1.11539e-05
1.34839e-05
5.78438e-05
0.000151001
0.000172179
0.000141141
9.59448e-05
5.75047e-05
3.77446e-05
3.92548e-05
6.27028e-05
0.000108335
0.000167041
0.000222382
0.000264406
0.000291925
0.000307558
0.000314654
0.000316823
0.000318715
0.000325436
0.000337885
0.000346117
0.000330707
0.000282504
0.000213415
0.000131516
4.49756e-05
5.29511e-06
4.47498e-06
2.34482e-05
5.16638e-05
9.09329e-05
0.000138749
6.52685e-05
1.19708e-05
1.35466e-05
5.60381e-05
0.000147638
0.000166944
0.00012617
8.2839e-05
5.32014e-05
3.41058e-05
3.16915e-05
5.15533e-05
9.68328e-05
0.000160508
0.00022262
0.000269954
0.000302254
0.000324721
0.000340977
0.000349348
0.000344401
0.000323521
0.000293184
0.000264878
0.000244391
0.000228845
0.000207883
0.000161096
8.05547e-05
2.14525e-05
4.51113e-06
1.6363e-05
5.47392e-05
0.000130729
0.000136643
5.21688e-05
1.09225e-05
1.3732e-05
5.73526e-05
0.000150555
0.000154579
9.84454e-05
5.89204e-05
3.97169e-05
2.82016e-05
2.86891e-05
5.22312e-05
0.00010401
0.000172123
0.000229386
0.00026127
0.000269241
0.000265238
0.000264419
0.000276419
0.000299694
0.000320475
0.000322984
0.000305607
0.000282602
0.000268507
0.000261262
0.000238562
0.000174808
8.63529e-05
3.32949e-05
2.00137e-05
3.21619e-05
6.98935e-05
0.000130006
5.89682e-05
1.09789e-05
1.38756e-05
6.09077e-05
0.00015624
0.000129391
6.80441e-05
3.89256e-05
2.68735e-05
2.2139e-05
3.12827e-05
6.95132e-05
0.000135971
0.000193526
0.00021919
0.000222793
0.000234136
0.000278203
0.000355863
0.000430734
0.000460899
0.00044294
0.000396348
0.000338481
0.000280894
0.000236227
0.000215856
0.000214577
0.000205284
0.000152505
7.14169e-05
2.77109e-05
2.06053e-05
3.8389e-05
9.4648e-05
8.08631e-05
1.32241e-05
1.39946e-05
6.49833e-05
0.00015602
0.000102415
4.89992e-05
2.9076e-05
2.17605e-05
2.15535e-05
3.58139e-05
7.86515e-05
0.000154514
0.000230716
0.000285874
0.000313143
0.000306439
0.000284238
0.000283868
0.000323207
0.000390226
0.000441063
0.000437759
0.000377712
0.000280029
0.000186479
0.000137374
0.00013457
0.000144803
0.000105868
5.28603e-05
2.95165e-05
3.42562e-05
7.5037e-05
0.000153223
6.35778e-05
1.31725e-05
1.38658e-05
6.791e-05
0.000146337
7.77811e-05
3.54498e-05
2.1486e-05
1.77565e-05
2.46176e-05
5.12335e-05
0.000102092
0.000165338
0.000225492
0.000273719
0.000307065
0.000326443
0.000334271
0.000335096
0.000338475
0.000353437
0.000373514
0.000371316
0.000320034
0.000228167
0.000142237
9.44985e-05
8.2567e-05
8.99749e-05
8.1938e-05
5.88745e-05
5.14047e-05
7.55744e-05
0.000142453
0.000128796
4.27389e-05
1.08982e-05
1.36865e-05
6.87898e-05
0.00013295
6.39696e-05
2.792e-05
1.62445e-05
1.37514e-05
2.26677e-05
6.02562e-05
0.000156586
0.000271687
0.000334756
0.000363143
0.000370874
0.000363448
0.000346049
0.000325672
0.000309752
0.000303228
0.000304484
0.00030192
0.000278215
0.000225302
0.000158288
0.000105187
7.75527e-05
6.91066e-05
6.79262e-05
6.77561e-05
7.84051e-05
0.000114971
0.000158451
0.000124483
4.10251e-05
9.97881e-06
1.37093e-05
6.98163e-05