/*--------------------------------*- C++ -*----------------------------------*\
| =========                 |                                                 |
| \\      /  F ield         | OpenFOAM: The Open Source CFD Toolbox           |
|  \\    /   O peration     | Version:  v2006                                 |
|   \\  /    A nd           | Website:  www.openfoam.com                      |
|    \\/     M anipulation  |                                                 |
\*---------------------------------------------------------------------------*/
FoamFile
{
    version     2.0;
    format      ascii;
    class       volScalarField;
    location    "97";
    object      nut;
}
// * * * * * * * * * * * * * * * * * * * * * * * * * * * * * * * * * * * * * //

dimensions      [0 2 -1 0 0 0 0];


internalField   nonuniform List<scalar> 
78750
(
0.000436404
0.0010145
0.000727782
0.000244928
6.02171e-05
2.1849e-05
2.84635e-05
2.42569e-05
3.47176e-05
4.17416e-05
5.37611e-05
6.52496e-05
7.29081e-05
7.88801e-05
8.04257e-05
8.00216e-05
7.95686e-05
7.90687e-05
7.84905e-05
7.77716e-05
7.69338e-05
7.59891e-05
7.49395e-05
7.37541e-05
7.24487e-05
7.10277e-05
6.94879e-05
6.78117e-05
6.59705e-05
6.3922e-05
6.12656e-05
5.04592e-05
3.6768e-05
1.50222e-05
7.4649e-07
2.97766e-06
8.37222e-05
1.9782e-05
2.7904e-05
6.79988e-05
4.22516e-05
3.22996e-05
3.19975e-05
3.06223e-05
3.35992e-05
4.43288e-05
6.95286e-05
0.000103385
0.000103682
9.64068e-05
0.000103853
0.000122451
0.000150145
0.000190479
0.000191939
0.000190409
0.000188539
0.00018633
0.000183744
0.000180771
0.000174402
0.000169096
0.000164523
0.000157932
0.000146286
0.000124834
8.83323e-05
3.84682e-05
8.70998e-06
1.37912e-06
2.00702e-06
2.97685e-05
8.82615e-05
0.000145975
0.000125726
0.000124359
0.000132038
8.46337e-05
5.25059e-05
3.81894e-05
3.0778e-05
2.63659e-05
2.46933e-05
2.81303e-05
4.6098e-05
0.000106891
0.000157818
0.00011912
7.99908e-05
7.95197e-05
0.000102584
0.000142931
0.000187031
0.000194328
0.000195132
0.00019519
0.000194529
0.00018499
0.000168003
0.000144883
0.000109811
6.31892e-05
2.5186e-05
1.19675e-05
2.8872e-06
2.99726e-06
9.95639e-06
2.28517e-05
5.38702e-05
8.37097e-05
6.54323e-05
4.87831e-05
4.25759e-05
4.38278e-05
5.18562e-05
6.76611e-05
8.39334e-05
7.81031e-05
6.37267e-05
5.68531e-05
5.52559e-05
5.57491e-05
5.72074e-05
6.23045e-05
7.71526e-05
9.20215e-05
8.7543e-05
8.80743e-05
0.000102528
0.000127754
0.000158212
0.000185306
0.000198119
0.000197439
0.00017932
0.000139862
7.95727e-05
2.56297e-05
1.11664e-05
3.46665e-06
5.69881e-06
4.18151e-05
0.000168922
0.000142028
0.000108352
8.40521e-05
6.65804e-05
5.09366e-05
3.78286e-05
3.1424e-05
3.61412e-05
6.16362e-05
0.00010386
0.000103882
7.3055e-05
5.06911e-05
4.41025e-05
5.84905e-05
0.000122975
0.000168485
0.000169076
9.61261e-05
7.33684e-05
8.64203e-05
0.000125378
0.000176592
0.000208238
0.000209638
0.000196466
0.000156649
0.000101956
5.02437e-05
2.19877e-05
1.61189e-05
5.01195e-06
6.42311e-06
3.51617e-05
7.23304e-05
7.69832e-05
5.97299e-05
4.52808e-05
3.96586e-05
4.07853e-05
4.76696e-05
5.86571e-05
6.92073e-05
7.46315e-05
6.92335e-05
5.58136e-05
4.36662e-05
3.62149e-05
3.38787e-05
3.86391e-05
5.60348e-05
9.09466e-05
0.000128125
0.000148711
0.000165825
0.000180988
0.000186365
0.000191302
0.000188041
0.000177156
0.000159365
0.000132308
9.23017e-05
4.69773e-05
2.04195e-05
1.59449e-05
5.41113e-06
3.74335e-06
2.81734e-05
7.7744e-05
0.00012832
0.000139948
0.000115842
7.73015e-05
5.07054e-05
3.67496e-05
2.94033e-05
2.56853e-05
2.51542e-05
2.91164e-05
3.97783e-05
5.66724e-05
7.35339e-05
8.90891e-05
0.000113445
0.000153953
0.000178801
0.000181098
0.000183555
0.000186325
0.000189444
0.000192788
0.000191491
0.000173339
0.000153124
0.000130423
0.000102213
6.7315e-05
3.62367e-05
2.24394e-05
2.64565e-05
6.40607e-06
4.13643e-06
1.87214e-05
5.88379e-05
0.000113504
0.000124906
0.000115549
0.000105341
9.61985e-05
8.09542e-05
6.0474e-05
4.35112e-05
3.28268e-05
2.81066e-05
2.93229e-05
3.64724e-05
4.73665e-05
5.60791e-05
5.60027e-05
5.36108e-05
6.43827e-05
9.52685e-05
0.000124316
0.00014513
0.000168989
0.000189879
0.000195496
0.000183848
0.000162588
0.000138912
0.000113196
7.82791e-05
3.65882e-05
1.71763e-05
2.1748e-05
7.04578e-06
6.09521e-06
4.0437e-05
0.000121648
0.000144859
0.000137652
0.000114311
8.85527e-05
7.03405e-05
6.10096e-05
5.72071e-05
5.06016e-05
3.67007e-05
2.53436e-05
2.16427e-05
2.76896e-05
5.18103e-05
9.94214e-05
0.00012732
0.000128965
0.000142531
0.000159679
0.000161638
0.000149418
0.000139052
0.000141472
0.000146466
0.000141025
0.000121979
9.58039e-05
7.02712e-05
4.99541e-05
3.52653e-05
2.60352e-05
3.81927e-05
7.63357e-06
5.06365e-06
2.38844e-05
7.23632e-05
0.000119491
0.000138042
0.000139559
0.000125033
9.5141e-05
6.63546e-05
5.00516e-05
4.327e-05
3.89719e-05
3.08586e-05
2.27923e-05
2.0637e-05
2.60511e-05
3.99121e-05
6.15067e-05
8.46737e-05
0.000100444
0.000109543
0.00011988
0.000132853
0.0001392
0.000136868
0.000132913
0.000129949
0.000125298
0.000114593
9.17813e-05
5.29785e-05
2.37593e-05
1.75131e-05
3.58974e-05
8.6593e-06
5.52515e-06
3.05149e-05
0.000101949
0.000144146
0.000141537
0.000124677
0.000105912
8.92934e-05
7.35286e-05
5.93753e-05
5.12716e-05
4.98198e-05
4.79098e-05
3.66581e-05
2.54105e-05
2.3299e-05
3.45073e-05
6.22052e-05
8.92278e-05
0.000100753
0.000107395
0.000117046
0.000124421
0.000124463
0.000120137
0.000113804
0.0001065
9.73553e-05
8.09104e-05
5.83027e-05
3.87944e-05
2.57307e-05
2.51555e-05
6.58237e-05
9.05403e-06
5.8643e-06
3.02223e-05
9.9757e-05
0.000142384
0.00014743
0.000136655
0.000114681
8.86286e-05
6.74516e-05
5.39945e-05
4.70229e-05
4.55498e-05
4.7336e-05
4.45075e-05
3.24496e-05
2.17345e-05
1.86185e-05
2.63726e-05
5.29963e-05
8.01695e-05
8.0428e-05
7.35279e-05
7.16883e-05
7.36924e-05
7.43769e-05
6.99947e-05
6.02008e-05
5.24731e-05
5.16523e-05
4.84571e-05
3.54166e-05
2.64866e-05
3.3051e-05
8.98525e-05
9.01902e-06
6.45317e-06
4.02925e-05
0.000117619
0.000147276
0.000148194
0.000135617
0.000114628
9.09152e-05
7.08404e-05
5.799e-05
5.21134e-05
5.18384e-05
5.69001e-05
6.53925e-05
6.52446e-05
4.63935e-05
2.81581e-05
2.1145e-05
2.44386e-05
4.02455e-05
6.40883e-05
7.82558e-05
7.94763e-05
7.38979e-05
6.5255e-05
5.50995e-05
4.48869e-05
3.65634e-05
3.36798e-05
3.74708e-05
2.42325e-05
8.69925e-06
1.07287e-05
4.12985e-05
9.25803e-06
6.30565e-06
3.57744e-05
0.000109301
0.000141515
0.00014594
0.000136707
0.00011876
9.76308e-05
7.79792e-05
6.31149e-05
5.46146e-05
5.17315e-05
5.22269e-05
5.35574e-05
5.25893e-05
4.49801e-05
3.10921e-05
2.09997e-05
1.92364e-05
2.91206e-05
6.52152e-05
9.68374e-05
8.52023e-05
6.27256e-05
4.06278e-05
2.33747e-05
1.15929e-05
2.40692e-06
3.45742e-06
9.4054e-06
2.05708e-05
2.77703e-05
3.40906e-05
9.75225e-05
9.82964e-06
5.90637e-06
3.45333e-05
0.000103278
0.000141851
0.000147361
0.000134862
0.000115207
9.78135e-05
8.50349e-05
7.48584e-05
6.64177e-05
6.1755e-05
6.23506e-05
6.59826e-05
6.52653e-05
5.29142e-05
3.39992e-05
2.05355e-05
1.67525e-05
2.31307e-05
4.17177e-05
6.52874e-05
7.62884e-05
6.63425e-05
4.92026e-05
3.55456e-05
2.88659e-05
2.64873e-05
1.32851e-05
1.13337e-05
1.45066e-05
2.57888e-05
5.99985e-05
9.01968e-05
9.7665e-06
5.69046e-06
2.93092e-05
9.27846e-05
0.00013244
0.000136061
0.000124244
0.000109429
9.81022e-05
9.00258e-05
8.24225e-05
7.32469e-05
6.34094e-05
5.61437e-05
5.3696e-05
5.54062e-05
5.54706e-05
4.43432e-05
2.57409e-05
1.35521e-05
9.7702e-06
1.65436e-05
4.22067e-05
6.01092e-05
5.95044e-05
5.59004e-05
5.20925e-05
4.61977e-05
4.09283e-05
3.32012e-05
1.92464e-05
9.7323e-06
9.69497e-06
2.41725e-05
9.48993e-05
9.31175e-06
5.1184e-06
2.53462e-05
8.26498e-05
0.000128514
0.000121436
0.000100507
8.63108e-05
8.12457e-05
8.33206e-05
9.01721e-05
9.6947e-05
9.57228e-05
8.35102e-05
6.86772e-05
6.01402e-05
6.03602e-05
6.63057e-05
6.44009e-05
4.34399e-05
2.36716e-05
1.34079e-05
9.24288e-06
1.3829e-05
2.78337e-05
4.13427e-05
5.236e-05
4.75164e-05
3.96005e-05
2.57354e-05
1.44345e-05
9.77804e-06
4.48416e-06
1.38053e-05
7.33911e-05
9.68998e-06
6.08319e-06
3.14152e-05
0.00010534
0.000128404
9.73289e-05
7.7711e-05
7.33145e-05
7.6486e-05
8.2377e-05
9.02357e-05
0.00010133
0.000113719
0.000118273
0.000105592
8.27655e-05
6.57518e-05
6.04431e-05
6.57663e-05
7.43253e-05
6.76255e-05
4.41138e-05
2.51136e-05
1.36676e-05
7.72411e-06
7.29699e-06
5.36618e-06
7.00995e-06
6.26051e-06
3.11463e-06
6.39563e-06
7.58468e-06
4.16687e-06
1.31715e-05
8.15683e-05
1.04194e-05
7.45081e-06
4.86947e-05
0.000130232
8.71438e-05
5.66398e-05
5.28971e-05
6.5082e-05
8.60595e-05
0.000108341
0.000127223
0.000142269
0.000153347
0.00015656
0.000145143
0.00011886
9.11412e-05
7.50392e-05
7.33556e-05
8.37591e-05
9.54199e-05
8.64394e-05
5.67681e-05
2.97246e-05
1.26374e-05
3.15685e-06
7.61373e-06
2.93393e-06
3.31531e-06
2.34355e-06
8.42228e-06
1.91462e-05
2.97514e-05
5.13678e-05
9.0196e-05
1.08985e-05
8.5536e-06
7.53853e-05
9.82831e-05
5.49031e-05
4.28948e-05
5.35568e-05
7.969e-05
0.000107397
0.000127741
0.000140921
0.00014878
0.000152238
0.000150422
0.000140937
0.000123309
0.000102629
8.6901e-05
8.08987e-05
8.48831e-05
9.44232e-05
9.7696e-05
8.30024e-05
5.58472e-05
3.18403e-05
1.65978e-05
6.67075e-06
2.24846e-06
1.61886e-06
3.84219e-06
9.8907e-06
1.86419e-05
4.18265e-05
0.00011039
5.08e-05
1.02347e-05
8.11947e-06
6.69851e-05
0.000106134
7.79664e-05
6.5977e-05
6.37834e-05
6.38938e-05
7.0565e-05
8.653e-05
0.000107788
0.000125152
0.000133284
0.000132739
0.000125879
0.000115457
0.000104704
9.65689e-05
9.26226e-05
9.24591e-05
9.36315e-05
9.24739e-05
8.60458e-05
7.37522e-05
5.76198e-05
4.1426e-05
2.79899e-05
1.73997e-05
9.05855e-06
5.04489e-06
4.16864e-06
1.23229e-05
1.26803e-05
2.86188e-05
7.95556e-05
8.92399e-06
6.9007e-06
3.6943e-05
9.24671e-05
0.000115582
0.00010378
6.79024e-05
4.44765e-05
3.52508e-05
3.64651e-05
4.9257e-05
7.45277e-05
0.00010414
0.000125068
0.000133526
0.000133343
0.000129325
0.00012503
0.00012216
0.000120232
0.000117478
0.000112168
0.000103538
9.19211e-05
7.8233e-05
6.35511e-05
4.83825e-05
3.52028e-05
2.44592e-05
1.5443e-05
7.25426e-06
1.9967e-06
2.62097e-06
2.22889e-06
1.82425e-05
9.78932e-06
5.98296e-06
2.66415e-05
7.07926e-05
0.000106414
0.000107446
8.80626e-05
6.15222e-05
3.93006e-05
2.76904e-05
2.73732e-05
4.03258e-05
7.09427e-05
0.000117305
0.000164108
0.000197844
0.000216796
0.000225811
0.000227961
0.000222696
0.000210013
0.000191065
0.000168234
0.00014381
0.000119142
9.52472e-05
7.28921e-05
5.33578e-05
2.65869e-05
8.00006e-06
4.19516e-06
4.54318e-06
1.09334e-06
5.34511e-06
4.58396e-05
1.17946e-05
6.01827e-06
2.61855e-05
8.30388e-05
0.000118065
8.41393e-05
6.22238e-05
5.78123e-05
4.95358e-05
3.40048e-05
2.72038e-05
3.46285e-05
6.39329e-05
0.00012749
0.000223664
0.000286294
0.000287906
0.000287572
0.000285433
0.000281672
0.000276433
0.000269748
0.000261568
0.000230799
0.000162046
9.57861e-05
4.33428e-05
1.43177e-05
8.05158e-06
1.53128e-05
3.13861e-05
3.86121e-05
2.64475e-05
3.84952e-05
0.000108786
1.20264e-05
7.23347e-06
3.29451e-05
0.000121854
9.70684e-05
4.92492e-05
3.294e-05
3.30672e-05
4.3485e-05
4.2434e-05
3.74462e-05
4.76287e-05
8.95449e-05
0.000181313
0.000286405
0.000290199
0.000292539
0.000293306
0.000292456
0.000289953
0.000285737
0.000279637
0.000271359
0.000223112
0.000149233
8.2027e-05
3.30811e-05
1.11882e-05
8.20018e-06
1.7167e-05
4.13761e-05
7.8982e-05
9.45858e-05
0.000115622
5.31108e-05
1.05807e-05
9.21937e-06
5.45436e-05
0.000101509
3.76941e-05
2.51038e-05
2.46197e-05
2.95314e-05
4.16378e-05
5.48664e-05
6.93559e-05
0.000104239
0.000167789
0.000232774
0.000282284
0.000298957
0.000300681
0.00030142
0.000301121
0.000299741
0.000294617
0.000256709
0.000218183
0.000180348
0.000142671
0.00010451
6.66868e-05
3.51374e-05
1.79228e-05
1.45739e-05
2.07219e-05
3.54052e-05
6.34519e-05
0.000101424
5.21298e-05
9.4491e-06
1.01227e-05
0.000126251
2.68407e-05
1.20249e-05
1.79208e-05
3.63506e-05
5.44466e-05
7.16914e-05
9.72343e-05
0.000131025
0.000163186
0.000186365
0.000204257
0.000220689
0.000235267
0.000245907
0.000250786
0.000249017
0.000240532
0.000226268
0.000207923
0.000187135
0.000165199
0.000143065
0.000121356
0.000100055
7.81315e-05
5.52721e-05
3.53015e-05
2.32049e-05
2.12843e-05
2.42879e-05
3.42024e-05
6.31711e-05
9.26235e-06
9.44176e-06
6.17101e-05
1.25334e-05
9.25748e-06
4.66387e-05
8.07656e-05
7.76955e-05
9.45788e-05
0.000120073
0.000142691
0.00016094
0.000176632
0.000190488
0.000202355
0.000211926
0.000218982
0.000223164
0.000223888
0.000220695
0.000213494
0.000202575
0.000188552
0.000172207
0.000154463
0.000136598
0.000119988
0.000104051
8.36663e-05
5.56466e-05
3.37886e-05
2.41402e-05
1.23181e-05
1.05079e-05
5.39353e-05
1.03155e-05
8.13533e-06
9.0825e-05
2.35648e-05
1.11034e-05
2.02462e-05
5.4596e-05
7.38622e-05
0.000100477
0.000137403
0.000168775
0.000191431
0.00020903
0.000223347
0.000235237
0.000245018
0.000252459
0.000257111
0.000258602
0.000256559
0.00025055
0.000240266
0.000225719
0.000207256
0.000185625
0.000161667
0.000134818
0.000101268
6.14517e-05
3.85993e-05
3.11992e-05
2.49701e-05
1.45784e-05
2.00193e-05
8.70661e-05
1.13029e-05
7.96564e-06
4.24796e-05
7.37988e-05
1.45952e-05
5.77676e-06
1.9376e-05
6.37642e-05
0.000100588
0.000134422
0.000166778
0.000194475
0.000217161
0.000236587
0.00025458
0.000271224
0.00028555
0.000297122
0.000305392
0.000309428
0.000308
0.000299807
0.000283833
0.000259623
0.000227081
0.000185556
0.000133784
7.72594e-05
3.76064e-05
2.59294e-05
3.16263e-05
3.44698e-05
2.96059e-05
4.92853e-05
8.77465e-05
1.15995e-05
8.18591e-06
4.76911e-05
5.95116e-05
2.2219e-05
7.70727e-06
1.39786e-05
4.2442e-05
4.84067e-05
7.02654e-05
0.000100603
0.000130488
0.000153655
0.000172577
0.000191711
0.000212289
0.000232975
0.000252126
0.000268657
0.000281275
0.000288413
0.000288143
0.000278539
0.000258114
0.000225947
0.000181393
0.000125755
6.9769e-05
3.28637e-05
2.04287e-05
2.79599e-05
4.89871e-05
6.09926e-05
9.16464e-05
7.03961e-05
1.11822e-05
8.37019e-06
4.82296e-05
7.6627e-05
9.05042e-05
5.70783e-05
3.0316e-05
2.75191e-05
2.15483e-05
2.12362e-05
2.58717e-05
3.72717e-05
5.89104e-05
8.99569e-05
0.000117837
0.000136172
0.000152573
0.0001711
0.00018964
0.000204732
0.000214908
0.000219939
0.00021905
0.000211165
0.000195267
0.000169983
0.000133494
8.74458e-05
4.55105e-05
2.29452e-05
1.97342e-05
3.56858e-05
7.51523e-05
0.000108956
5.88921e-05
1.06553e-05
7.28683e-06
3.10534e-05
6.05641e-05
9.78315e-05
0.000127531
0.000121684
7.75133e-05
5.27285e-05
3.65793e-05
2.63262e-05
1.99782e-05
1.68979e-05
1.8316e-05
2.83532e-05
5.47232e-05
9.33219e-05
0.000115706
0.000129809
0.000147113
0.000164465
0.000176497
0.000182026
0.000181677
0.000175737
0.000164027
0.00014549
0.000117579
7.95721e-05
4.31902e-05
2.38594e-05
2.28836e-05
4.51677e-05
9.68805e-05
5.85983e-05
1.04893e-05
5.82399e-06
2.27961e-05
5.83275e-05
0.000115804
0.000115248
0.000109626
0.00011846
0.000124508
0.000117668
9.40406e-05
6.74683e-05
4.67953e-05
3.18563e-05
2.13526e-05
1.48524e-05
1.47295e-05
3.00497e-05
7.25979e-05
0.000103563
0.000124817
0.000145397
0.000161718
0.000171095
0.000173032
0.000167755
0.000156096
0.000138408
0.000113118
7.86657e-05
4.38322e-05
2.47319e-05
2.73867e-05
6.11992e-05
6.94068e-05
1.08274e-05
7.53867e-06
2.43318e-05
5.50372e-05
9.12844e-05
8.29571e-05
6.4755e-05
5.25588e-05
4.93653e-05
5.57609e-05
7.30545e-05
0.000100938
0.000128562
0.000128851
9.74109e-05
6.39722e-05
3.52235e-05
1.74023e-05
1.29458e-05
3.11563e-05
8.53906e-05
0.000121673
0.000154076
0.00017884
0.000187318
0.000183114
0.000170558
0.000152275
0.000130579
0.000104479
6.96118e-05
3.49832e-05
2.40195e-05
4.16403e-05
8.29397e-05
1.12811e-05
1.05703e-05
5.6477e-05
8.71677e-05
5.33522e-05
4.60036e-05
5.72901e-05
8.31562e-05
0.000102706
9.41264e-05
7.03337e-05
5.695e-05
6.86244e-05
0.000122401
0.000221876
0.000280817
0.000203251
7.8937e-05
3.33951e-05
2.17646e-05
3.66945e-05
0.000110969
0.000198319
0.000230095
0.000243738
0.000238516
0.000214079
0.000179206
0.000144359
0.000113656
7.98493e-05
4.17005e-05
2.53323e-05
3.99235e-05
9.15484e-05
1.18913e-05
9.51132e-06
3.81527e-05
2.61964e-05
2.69066e-05
3.89786e-05
6.7475e-05
0.000116565
0.000155284
0.00016133
0.000137263
0.000116077
0.000127335
0.000170662
0.000201521
0.000147697
5.62217e-05
2.47512e-05
2.73452e-05
9.03716e-05
0.000200872
0.000244688
0.000259869
0.000275304
0.000275064
0.000254857
0.000219388
0.000175659
0.000133594
9.93047e-05
6.82336e-05
4.01973e-05
3.02851e-05
5.47932e-05
8.46741e-05
1.24349e-05
3.55716e-06
2.42227e-05
7.8509e-05
0.000106956
4.37077e-05
3.30321e-05
3.97072e-05
4.87939e-05
5.672e-05
5.42116e-05
4.62077e-05
4.90343e-05
8.0943e-05
0.00012692
0.000119923
0.000103235
0.000101038
0.000114533
0.00013725
0.000151653
0.00016699
0.000181393
0.000189356
0.000187168
0.000172909
0.000148412
0.000120538
9.66364e-05
7.7496e-05
5.87687e-05
4.28342e-05
4.35171e-05
8.79553e-05
7.37138e-05
1.26871e-05
5.47609e-06
2.91315e-05
7.31886e-05
7.88011e-05
4.33823e-05
2.76791e-05
1.96105e-05
1.32266e-05
1.23694e-05
1.86722e-05
3.47531e-05
5.69495e-05
7.86463e-05
9.78103e-05
0.000107092
0.000106199
0.000108878
0.000121227
0.000138264
0.000152546
0.000162708
0.000168593
0.000168847
0.000161513
0.000145318
0.000121883
9.71104e-05
7.76776e-05
6.51334e-05
5.61241e-05
5.12925e-05
6.46286e-05
0.000121582
6.74453e-05
1.24872e-05
7.13218e-06
2.46752e-05
6.53912e-05
0.00010248
0.000119248
0.000121104
9.46587e-05
5.35855e-05
2.44862e-05
6.54926e-06
5.23881e-07
2.76893e-06
8.62728e-06
3.21116e-05
6.4133e-05
9.59257e-05
0.000124403
0.000148238
0.000166539
0.000178811
0.000183987
0.000181395
0.000171434
0.000155214
0.000134399
0.000111658
9.08284e-05
7.53466e-05
6.59244e-05
6.11883e-05
6.37932e-05
8.7286e-05
0.000139135
6.64163e-05
1.21539e-05
7.6015e-06
3.05732e-05
9.17926e-05
0.000141381
0.000122542
0.000107455
0.000115751
0.000135809
0.000126712
6.30521e-05
1.20861e-05
1.33756e-06
4.86874e-07
2.44209e-06
1.29779e-05
4.59764e-05
9.16882e-05
0.000142327
0.000186501
0.000213058
0.0002194
0.000209553
0.000189721
0.000164428
0.000136556
0.000109028
8.59487e-05
7.0892e-05
6.42901e-05
6.48715e-05
7.5741e-05
0.000107502
0.000148768
6.66002e-05
1.19756e-05
8.46235e-06
4.03864e-05
0.000105883
0.00013178
0.000126688
0.00010295
7.2758e-05
5.62357e-05
5.76365e-05
7.36397e-05
4.54441e-05
6.30785e-06
9.99895e-07
9.70756e-07
6.46441e-08
2.09898e-05
5.5711e-05
9.12949e-05
0.000129692
0.00016652
0.000188923
0.000190734
0.000175624
0.000151204
0.000124337
9.93948e-05
7.94393e-05
6.72775e-05
6.46118e-05
7.19381e-05
9.18294e-05
0.000127341
0.000153327
6.33464e-05
1.17408e-05
8.44263e-06
3.61786e-05
9.66144e-05
0.000136521
0.000142495
0.000129235
0.000100419
7.1335e-05
5.76721e-05
6.15971e-05
7.53298e-05
3.05841e-05
2.33715e-06
2.45567e-07
2.0145e-06
1.85762e-06
2.36374e-05
5.11761e-05
7.48242e-05
0.00010084
0.000131382
0.000157448
0.00016626
0.000153967
0.000127262
9.74357e-05
7.3573e-05
5.98363e-05
5.75752e-05
6.80147e-05
9.35746e-05
0.000131179
0.000151938
6.13945e-05
1.16923e-05
8.07453e-06
3.51432e-05
0.000107384
0.00014779
0.000139334
0.00011537
9.37057e-05
7.75979e-05
6.34796e-05
5.63734e-05
6.06498e-05
6.14601e-05
1.47009e-05
9.67917e-07
8.2134e-07
2.02894e-06
7.05256e-06
3.00383e-05
4.84222e-05
6.16294e-05
7.68226e-05
9.67359e-05
0.000117817
0.000131345
0.000129046
0.000110031
8.39591e-05
6.35965e-05
5.57784e-05
6.31744e-05
8.91797e-05
0.00012888
0.000147958
5.93578e-05
1.17486e-05
8.57243e-06
3.99887e-05
0.000116582
0.00014678
0.000133477
0.000102587
7.81757e-05
7.06395e-05
7.13006e-05
6.49985e-05
5.68597e-05
5.64422e-05
4.08599e-05
4.93724e-06
7.00699e-07
1.5143e-06
2.35234e-06
1.30727e-05
3.21177e-05
4.44881e-05
5.42197e-05
6.6891e-05
8.30743e-05
9.72108e-05
0.000103043
9.83735e-05
8.40715e-05
6.67039e-05
5.61009e-05
5.88414e-05
7.9988e-05
0.000119469
0.000144357
5.8088e-05
1.18671e-05
8.63852e-06
3.9413e-05
0.000111655
0.000145901
0.000137954
0.000105585
7.20736e-05
5.72671e-05
6.03829e-05
7.41777e-05
7.92133e-05
7.1689e-05
6.0434e-05
2.27252e-05
5.12088e-07
1.28083e-06
2.31774e-06
1.41854e-06
2.14866e-05
3.41677e-05
3.96957e-05
4.63331e-05
5.929e-05
7.99759e-05
9.8766e-05
0.000101263
8.84952e-05
7.06342e-05
5.76653e-05
5.68807e-05
7.44109e-05
0.00011386
0.000141903
5.69685e-05
1.20227e-05
8.63773e-06
4.14105e-05
0.000123823
0.000147697
0.000128992
9.97971e-05
7.76247e-05
6.53689e-05
6.17911e-05
6.79292e-05
8.11622e-05
8.88961e-05
8.26778e-05
5.92618e-05
1.32114e-05
2.49956e-06
2.26207e-06
3.93641e-06
5.40907e-06
2.4971e-05
3.28754e-05
3.41685e-05
3.70173e-05
4.63547e-05
6.41092e-05
8.2342e-05
8.47798e-05
7.27405e-05
6.09912e-05
6.01655e-05
7.78273e-05
0.000117755
0.000142643
5.54379e-05
1.20316e-05
8.9879e-06
4.51555e-05
0.000125574
0.00014592
0.000127125
9.13837e-05
6.57645e-05
5.90093e-05
6.51944e-05
7.50449e-05
8.35437e-05
9.11984e-05
9.50902e-05
8.67989e-05
5.2672e-05
7.17289e-06
9.10035e-07
1.34926e-06
2.26442e-06
1.08239e-05
2.87936e-05
3.49088e-05
3.61923e-05
3.95909e-05
4.96486e-05
6.65012e-05
7.85592e-05
7.43018e-05
6.42835e-05
6.38358e-05
8.28565e-05
0.000124116
0.000144435
5.50101e-05
1.20075e-05
9.05911e-06
4.83058e-05
0.00012662
0.000145293
0.000136979
0.000113044
8.11614e-05
6.1176e-05
5.89565e-05
7.07945e-05
8.82455e-05
0.000101278
0.000106716
0.000103416
8.17564e-05
3.58383e-05
2.71187e-06
8.7154e-07
2.98648e-06
5.09558e-06
1.41484e-05
2.54816e-05
2.76651e-05
2.87366e-05
3.42157e-05
4.73303e-05
6.5456e-05
7.508e-05
7.33242e-05
7.5713e-05
9.65194e-05
0.00013637
0.000148153
5.47449e-05
1.19026e-05
8.91659e-06
4.70117e-05
0.000126339
0.000147444
0.000140128
0.000119628
9.34292e-05
7.04651e-05
5.87786e-05
6.03929e-05
7.34102e-05
9.15638e-05
0.000104672
0.000105346
8.99528e-05
5.50847e-05
1.75708e-05
2.78272e-06
4.75906e-07
1.62988e-07
9.76235e-06
1.78743e-05
2.63326e-05
2.78088e-05
2.87607e-05
3.47567e-05
4.8967e-05
6.65086e-05
7.66355e-05
8.58972e-05
0.000108418
0.000144139
0.000151535
5.56163e-05
1.17773e-05
8.89223e-06
4.57932e-05
0.000121801
0.000148746
0.000149013
0.000135322
0.000108367
7.87877e-05
5.97238e-05
5.39043e-05
6.00573e-05
7.65395e-05
9.87222e-05
0.000117467
0.000122169
0.00010161
5.23471e-05
1.27113e-05
1.47348e-06
4.01247e-08
3.58313e-06
4.8575e-06
2.05026e-05
2.27659e-05
2.22097e-05
2.45997e-05
3.3148e-05
5.13796e-05
7.45116e-05
9.39019e-05
0.00011922
0.000150468
0.00015298
5.68377e-05
1.18143e-05
8.77346e-06
4.37451e-05
0.000120503
0.000152294
0.000154641
0.00014683
0.000130698
0.000102613
7.19528e-05
5.40651e-05
5.04511e-05
5.828e-05
7.42256e-05
9.27898e-05
0.000109553
0.000125218
0.000136683
0.000107311
2.75844e-05
1.15405e-07
2.6213e-06
1.67211e-06
4.46881e-06
1.68989e-05
3.0012e-05
2.58552e-05
2.46517e-05
3.19339e-05
5.27551e-05
8.54926e-05
0.00011616
0.000145391
0.000152756
5.77465e-05
1.17697e-05
8.66854e-06
4.11418e-05
0.000116233
0.000152622
0.000154123
0.00014354
0.000128783
0.000112016
8.94745e-05
6.57232e-05
5.2457e-05
5.22248e-05
6.33696e-05
8.31308e-05
0.000104725
0.000118023
0.000120192
0.000122486
0.000132682
0.000106545
3.24681e-05
2.80063e-06
1.17726e-06
1.02196e-08
1.10618e-06
1.70377e-05
2.33309e-05
2.4492e-05
3.21104e-05
5.61017e-05
0.000101858
0.000139428
0.000142166
5.75945e-05
1.17251e-05
8.79064e-06
4.2085e-05
0.000117632
0.000153932
0.000155502
0.000143698
0.000125886
0.000108275
9.25435e-05
7.63002e-05
6.25757e-05
5.79693e-05
6.47152e-05
8.18414e-05
0.000106559
0.000133732
0.000153291
0.000149288
0.000117579
8.1386e-05
5.92925e-05
3.90566e-05
1.05432e-05
2.39616e-06
2.83946e-06
2.18962e-06
1.45151e-05
2.18413e-05
2.49858e-05
3.48943e-05
6.21382e-05
0.000108853
0.000138503
6.0722e-05
1.21145e-05
8.80697e-06
4.25278e-05
0.000118222
0.000153444
0.000153879
0.000139696
0.000119665
0.000102461
9.00261e-05
7.88658e-05
6.82933e-05
6.35017e-05
6.91036e-05
8.63831e-05
0.000113379
0.000144769
0.000172302
0.000182218
0.000155446
9.68073e-05
4.89854e-05
2.46452e-05
8.51427e-06
8.22847e-07
3.06647e-06
8.84314e-07
7.62794e-06
1.73461e-05
2.29924e-05
2.82241e-05
4.34888e-05
8.31728e-05
0.000132883
6.03354e-05
1.23101e-05
8.90613e-06
4.38701e-05
0.000120859
0.000154605
0.00015304
0.000135166
0.000111867
9.51155e-05
8.707e-05
8.25695e-05
7.68945e-05
7.24661e-05
7.56794e-05
9.02772e-05
0.000115987
0.000148346
0.000178046
0.000188011
0.000157572
9.71878e-05
4.79873e-05
2.11212e-05
5.23036e-06
1.37563e-06
2.40071e-06
4.4438e-07
1.03512e-05
1.89372e-05
2.33972e-05
3.1841e-05
5.19198e-05
9.25084e-05
0.000134561
5.75445e-05
1.24679e-05
8.85631e-06
4.37404e-05
0.000121262
0.000154535
0.000150173
0.000127809
0.000103069
8.9154e-05
8.55943e-05
8.61678e-05
8.54468e-05
8.3174e-05
8.46652e-05
9.5345e-05
0.000117415
0.000149729
0.000187388
0.000217276
0.000208925
0.000139244
6.15915e-05
2.25685e-05
6.09345e-06
9.7964e-07
2.98506e-06
3.39331e-06
7.26393e-06
1.85565e-05
1.90647e-05
1.91156e-05
3.06443e-05
6.79064e-05
0.000131069
5.90115e-05
1.29768e-05
8.88143e-06
4.36375e-05
0.00012185
0.000153634
0.00014413
0.000115047
8.92148e-05
7.94669e-05
8.19483e-05
8.88262e-05
9.3919e-05
9.59917e-05
9.88809e-05
0.000107843
0.000125679
0.00015122
0.000179341
0.000200074
0.000195715
0.000148686
7.66156e-05
2.61121e-05
4.88382e-06
1.18232e-06
2.33642e-06
2.78565e-06
1.32483e-05
2.31815e-05
3.358e-05
3.69423e-05
4.78996e-05
9.16441e-05
0.000138363
5.23371e-05
1.26002e-05
8.93706e-06
4.36544e-05
0.000120773
0.000149778
0.000135025
0.000100919
7.62413e-05
7.12585e-05
8.03941e-05
9.46687e-05
0.00010529
0.000109653
0.000111945
0.000118194
0.000132378
0.000155159
0.000183736
0.000211639
0.000227108
0.000210518
0.000145619
6.31483e-05
1.66708e-05
5.23896e-06
9.19298e-07
2.02165e-06
1.24219e-05
2.12415e-05
2.54716e-05
3.70053e-05
6.58583e-05
0.000121597
0.000141231
4.9724e-05
1.19825e-05
9.14708e-06
4.5542e-05
0.00012377
0.000145442
0.000123457
8.55124e-05
6.307e-05
6.15946e-05
7.55447e-05
9.76212e-05
0.000118386
0.000132093
0.000139886
0.000146644
0.000156945
0.000172841
0.000193309
0.000214217
0.000227758
0.000222236
0.000184869
0.000114362
4.19571e-05
5.81423e-06
1.66614e-06
6.68256e-07
4.04779e-06
1.97316e-05
3.01763e-05
3.13353e-05
4.7135e-05
9.51674e-05
0.000142445
5.65096e-05
1.24967e-05
9.31376e-06
4.71543e-05
0.000124562
0.000138909
0.000112215
7.40538e-05
5.43117e-05
5.56784e-05
7.40232e-05
0.000102387
0.000129308
0.000148065
0.000160046
0.000169811
0.000181277
0.000196524
0.000215535
0.000235822
0.000251584
0.000253147
0.000228428
0.000168976
8.59883e-05
2.32997e-05
6.25519e-06
2.39602e-06
2.75237e-06
1.51108e-05
3.30029e-05
5.45447e-05
7.94277e-05
0.000126615
0.000139458
5.08437e-05
1.21296e-05
9.4049e-06
4.73941e-05
0.000122862
0.000133614
0.00010612
6.81441e-05
4.68441e-05
4.55127e-05
6.19442e-05
9.30888e-05
0.000129243
0.000159771
0.000181141
0.000195187
0.000205203
0.000213832
0.000222057
0.000228694
0.000230379
0.000222795
0.000203443
0.00017298
0.00012971
7.04262e-05
1.93732e-05
3.36014e-07
3.4717e-06
1.27475e-05
2.84424e-05
5.31969e-05
0.000104333
0.000153812
0.000135681
4.71113e-05
1.10363e-05
9.33027e-06
4.48485e-05
0.000117675
0.000131111
0.00010717
7.05586e-05
4.43809e-05
3.6506e-05
4.62864e-05
7.33754e-05
0.000112241
0.000150946
0.000181306
0.000202162
0.000215351
0.000222961
0.00022633
0.000225621
0.000220147
0.000209984
0.000197321
0.000185319
0.00017475
0.000157924
0.000114641
4.72181e-05
9.72871e-06
1.30242e-06
1.37321e-05
3.25194e-05
5.91074e-05
0.000102611
0.00014147
6.00006e-05
1.18987e-05
9.27002e-06
4.20449e-05
0.000112495
0.000130254
0.000108206
7.45442e-05
4.53061e-05
3.01845e-05
3.18049e-05
5.12111e-05
8.88334e-05
0.000137242
0.000182907
0.000217614
0.000240365
0.000253306
0.000259191
0.000260995
0.000262551
0.000268069
0.000278287
0.000285008
0.000272228
0.000232421
0.000175417
0.00010793
3.68179e-05
4.3464e-06
3.74831e-06
2.02007e-05
4.59187e-05
8.3722e-05
0.00013201
6.46955e-05
1.28856e-05
9.29173e-06
4.07469e-05
0.00011027
0.000126812
9.72984e-05
6.48619e-05
4.22434e-05
2.74245e-05
2.57779e-05
4.22538e-05
7.96733e-05
0.000132324
0.000183741
0.000222979
0.000249784
0.000268426
0.000281885
0.000288784
0.000284655
0.000267356
0.00024225
0.000218826
0.000201845
0.000188893
0.000171396
0.000132592
6.61755e-05
1.76589e-05
3.79764e-06
1.44498e-05
5.07e-05
0.00012463
0.000133263
5.26482e-05
1.19216e-05
9.43678e-06
4.18953e-05
0.000113068
0.000118205
7.66122e-05
4.67004e-05
3.19625e-05
2.29485e-05
2.35506e-05
4.31091e-05
8.60697e-05
0.00014264
0.00019028
0.000216878
0.000223564
0.000220184
0.000219296
0.0002289
0.000247773
0.000264613
0.000266472
0.000252053
0.000233077
0.000221454
0.000215408
0.000196563
0.000143935
7.11138e-05
2.75811e-05
1.69785e-05
2.85255e-05
6.47272e-05
0.00012456
5.86352e-05
1.1782e-05
9.58278e-06
4.47843e-05
0.000118072
9.96687e-05
5.35047e-05
3.12549e-05
2.19113e-05
1.8235e-05
2.59349e-05
5.77724e-05
0.000113098
0.000161106
0.000182663
0.00018587
0.00019545
0.000232123
0.00029652
0.000358349
0.000382887
0.000367502
0.000328515
0.000280376
0.000232644
0.00019571
0.000178844
0.000177505
0.000169216
0.000125011
5.81074e-05
2.25971e-05
1.7422e-05
3.44275e-05
8.88516e-05
7.92105e-05
1.40075e-05
9.70761e-06
4.79861e-05
0.000118415
7.93458e-05
3.88653e-05
2.3559e-05
1.78739e-05
1.78705e-05
2.98653e-05
6.56526e-05
0.000128867
0.000192305
0.000238262
0.000261097
0.000255708
0.000237408
0.000237269
0.000270185
0.00032611
0.000368463
0.000365649
0.00031558
0.000234208
0.000156331
0.000115532
0.000113072
0.000120695
8.73335e-05
4.34326e-05
2.47176e-05
3.00417e-05
6.92437e-05
0.000146903
6.37163e-05
1.43506e-05
9.67085e-06
5.04072e-05
0.000111625
6.06525e-05
2.83791e-05
1.75689e-05
1.46942e-05
2.0559e-05
4.3021e-05
8.57899e-05
0.000138805
0.000189066
0.000229243
0.000256959
0.000273052
0.000279583
0.000280347
0.000283301
0.000295975
0.000312968
0.000311395
0.000268814
0.000192242
0.000120551
8.08322e-05
7.11786e-05
7.75378e-05
7.03534e-05
5.08194e-05
4.55131e-05
6.96241e-05
0.000136092
0.000127251
4.42353e-05
1.21646e-05
9.5762e-06
5.11518e-05
0.000101549
4.99959e-05
2.24394e-05
1.33365e-05
1.14036e-05
1.89757e-05
5.08294e-05
0.000132173
0.000229133
0.000282048
0.00030567
0.000311898
0.000305419
0.000290625
0.000273408
0.000259998
0.000254518
0.000255597
0.000253526
0.00023384
0.000189813
0.000134045
8.99482e-05
6.72612e-05
6.07926e-05
6.04661e-05
6.11406e-05
7.22675e-05
0.000108885
0.000153978
0.000124233
4.25311e-05
1.10275e-05
9.59756e-06