/*--------------------------------*- C++ -*----------------------------------*\
| =========                 |                                                 |
| \\      /  F ield         | OpenFOAM: The Open Source CFD Toolbox           |
|  \\    /   O peration     | Version:  v2006                                 |
|   \\  /    A nd           | Website:  www.openfoam.com                      |
|    \\/     M anipulation  |                                                 |
\*---------------------------------------------------------------------------*/
FoamFile
{
    version     2.0;
    format      ascii;
    class       volScalarField;
    location    "97";
    object      omega;
}
// * * * * * * * * * * * * * * * * * * * * * * * * * * * * * * * * * * * * * //

dimensions      [0 0 -1 0 0 0 0];


internalField   nonuniform List<scalar> 
78750
(
1272.74
193.769
139.491
87.2582
14.2902
22.6371
24.6136
22.0507
22.7108
21.9957
21.8264
21.7022
21.6178
21.5505
21.4884
21.4222
21.3504
21.2722
21.182
21.071
20.9426
20.7986
20.6394
20.4604
20.2644
20.0523
19.8236
19.5757
19.3047
19.0045
18.6643
18.2565
17.7424
16.8574
499.587
455.802
10.9625
15.8358
12.3422
16.1326
16.8508
15.7955
15.4502
14.6671
14.0188
13.5128
13.2479
13.1993
13.2992
13.4669
13.594
13.6439
13.6392
13.596
13.5251
13.429
13.3119
13.1739
13.0125
12.827
12.6151
12.3762
12.1101
11.8165
11.494
11.1351
10.7118
10.1094
8.93121
738.921
404.844
15.8445
17.2827
17.1986
15.8089
15.2458
15.4432
15.6369
15.7423
15.5695
15.143
14.4981
13.6496
12.6795
11.8764
11.5083
11.4504
11.6158
12.0889
12.6817
13.1401
13.4241
13.5892
13.6876
13.7375
13.7408
13.6995
13.6149
13.4866
13.3141
13.0895
12.778
12.2709
11.5129
743.863
407.648
11.567
12.6464
13.5181
14.4598
15.0328
15.1404
14.9117
14.5684
14.3806
14.4567
14.6994
14.9471
15.0903
15.087
14.9519
14.6694
14.2346
13.664
13.0967
12.7224
12.665
12.9135
13.2797
13.5938
13.8017
13.9102
13.9368
13.892
13.7758
13.574
13.2339
12.5725
11.633
745.662
418.902
17.3518
17.8702
17.7796
17.3346
16.6519
15.8502
14.9931
14.0928
13.2167
12.6473
12.5888
12.7776
13.012
13.2474
13.3806
13.1983
12.6674
12.2522
12.0894
12.1131
12.3831
13.0202
13.6889
14.1436
14.4106
14.5673
14.6587
14.6974
14.6803
14.5799
14.306
13.6644
13.2754
750.305
422.174
15.2589
14.9093
14.7358
14.6553
14.5359
14.2992
14.0142
13.7903
13.6374
13.5125
13.4247
13.3966
13.4048
13.3805
13.2388
12.9157
12.466
12.0999
11.9658
12.0233
12.2229
12.5268
12.8655
13.1973
13.5049
13.7737
14
14.1824
14.3148
14.3804
14.3085
13.8407
13.3807
751.462
410.101
15.3154
16.6805
17.1915
17.3976
17.4211
17.2472
16.8158
16.1179
15.2039
14.1716
13.1761
12.4204
12.0417
11.9864
12.1082
12.2919
12.4726
12.6321
12.7751
12.9132
13.0616
13.2301
13.4213
13.6278
13.8341
14.0304
14.2097
14.3587
14.4682
14.5363
14.5825
14.7308
15.275
754.374
411.902
15.3724
16.6495
17.109
17.3173
17.4287
17.491
17.5186
17.4765
17.2709
16.7904
15.9863
14.9623
14.0078
13.3247
12.8778
12.5628
12.2842
11.9925
11.8439
12.0337
12.4473
12.9305
13.3751
13.7368
14.0298
14.2777
14.4875
14.6449
14.7161
14.6467
14.3311
13.8194
14.6742
756.165
419.796
16.584
17.0233
17.1686
17.1918
17.0988
16.8754
16.5258
16.0928
15.6457
15.205
14.6593
13.8621
13.0138
12.539
12.3677
12.2503
12.0992
11.8856
11.6612
11.5766
11.6805
11.9718
12.4356
12.9949
13.5414
14.0332
14.479
14.8944
15.2805
15.611
15.7868
15.6066
16.1195
757.867
416.834
16.4944
17.5888
18.0678
18.3358
18.4853
18.5234
18.4149
18.0835
17.4905
16.7198
15.8633
14.8641
13.6558
12.6195
12.1811
12.1497
12.1998
12.2081
12.1579
12.0736
12.0064
12.0235
12.1643
12.4317
12.8039
13.23
13.6456
14.0008
14.2675
14.4371
14.5668
15.0694
16.5443
760.762
418.189
16.5161
17.2759
17.5938
17.7594
17.8315
17.8194
17.7246
17.5417
17.2367
16.7779
16.209
15.5427
14.62
13.301
12.1019
11.7115
11.7988
11.918
11.9582
11.9122
11.8299
11.7961
11.8742
12.1012
12.4947
13.0385
13.6662
14.296
14.901
15.4467
15.7797
16.2674
17.8861
761.93
421.916
17.2265
17.8744
18.1589
18.3076
18.3575
18.302
18.1183
17.7857
17.3236
16.7911
16.2506
15.7395
15.184
14.3506
13.0341
11.6521
10.9858
10.9614
11.0316
11.0029
10.8371
10.5879
10.3806
10.3309
10.5399
11.1321
12.1935
13.5198
14.6338
15.4623
16.373
17.5516
18.9036
762.524
423.428
17.4731
18.0012
18.2668
18.4242
18.4878
18.4432
18.2583
17.8941
17.3485
16.7031
16.0724
15.537
15.1266
14.7821
14.331
13.467
12.217
11.2267
10.7415
10.4841
10.2395
9.93826
9.57858
9.1866
8.80423
8.48031
8.24427
8.18106
8.88474
9.7853
10.8171
13.7601
17.1389
764.557
423.966
17.3486
17.8999
18.2082
18.4143
18.5348
18.5603
18.4684
18.2245
17.7975
17.2037
16.5283
15.8534
15.213
14.6076
14.0007
13.2825
12.2776
11.2044
10.4214
9.97714
9.66773
9.30767
8.76609
7.98148
6.90178
5.44213
4.03466
5.96908
10.8326
14.9159
16.3219
17.2277
19.6986
768.551
420.341
17.0318
17.9067
18.3559
18.6378
18.807
18.8667
18.8004
18.5909
18.2295
17.7147
17.0752
16.3868
15.7125
15.043
14.2946
13.3331
12.0877
11.009
10.6185
10.4002
10.0806
9.75816
9.42874
9.02376
8.46988
7.80174
7.41853
8.18556
10.8165
14.6941
18.3167
19.9083
21.2936
767.571
420.297
17.1915
18.1674
18.6737
19.0064
19.2459
19.4102
19.491
19.4635
19.2941
18.9483
18.4006
17.6635
16.8109
15.9372
15.0604
14.0389
12.5859
10.5475
8.71506
8.49898
9.17486
9.5479
9.50937
9.25529
8.97863
8.78406
8.69612
8.66802
8.66208
9.26471
12.3999
17.7297
20.0857
765.32
417.247
16.7459
17.9814
18.552
18.8804
19.1074
19.2758
19.3911
19.448
19.4395
19.3505
19.1489
18.7824
18.204
17.4388
16.6058
15.8112
14.9955
13.8845
12.1157
9.81261
7.57892
6.97501
7.79499
8.59141
8.93488
8.85436
8.55081
8.05838
8.16355
8.66036
8.75848
15.3121
19.4443
769.879
423.623
18.7423
19.478
19.6959
19.7701
19.8397
19.9358
19.9985
19.9785
19.873
19.7042
19.4911
19.229
18.8776
18.3656
17.6512
16.8146
15.9939
15.224
14.3564
13.1196
11.2428
8.5931
6.03875
4.97335
4.76843
5.08451
4.7259
4.47321
7.05764
9.46471
9.5075
15.1043
20.2703
775.412
431.546
19.8494
19.8938
19.6834
19.4404
19.4786
19.7554
20.019
20.1442
20.1193
19.9748
19.7481
19.4638
19.1196
18.6808
18.0936
17.3531
16.5574
15.8055
15.0862
14.2587
13.058
11.0795
7.93142
4.61128
3.6557
4.57355
4.61461
6.07487
12.1893
16.8052
18.0478
19.1653
22.2927
776.677
439.619
20.6055
20.1564
19.5695
19.1296
19.2996
19.7109
20.0521
20.2607
20.3285
20.2622
20.0813
19.809
19.4599
19.0305
18.504
17.8776
17.2014
16.5501
15.9481
15.337
14.5857
13.4582
11.6413
8.97143
5.88749
4.55936
4.51074
6.40958
12.4937
18.0925
21.735
23.8259
24.815
771.148
433.877
19.5349
19.4786
19.2253
19.0167
18.9959
19.0905
19.3326
19.6767
19.9947
20.1848
20.2136
20.0861
19.8207
19.4389
18.9646
18.4318
17.8842
17.36
16.8739
16.4103
15.9296
15.3643
14.6074
13.5201
11.9943
10.1386
7.93047
6.00336
5.17576
8.85872
12.4794
18.5193
21.0616
763.635
426.401
19.7043
20.3937
20.5582
20.3901
19.8824
19.155
18.4945
18.2823
18.6402
19.2017
19.6452
19.8832
19.9212
19.7864
19.5158
19.1542
18.7454
18.3225
17.9038
17.4896
17.067
16.6117
16.0858
15.4262
14.5714
13.3162
11.4674
8.93533
6.5071
4.15662
5.3775
6.89302
14.3743
771.81
422.641
19.8502
20.9556
21.2704
21.2839
21.0768
20.5596
19.5459
18.171
17.4611
17.8408
18.5801
19.1669
19.5129
19.6527
19.6286
19.4806
19.2469
18.9582
18.6329
18.2747
17.876
17.4177
16.8649
16.1506
15.1907
13.7599
11.0876
8.04592
7.37017
7.5148
5.94357
10.9842
19.7027
786.814
424.819
20.1523
20.9967
21.0435
20.8186
20.5038
20.3228
20.0402
18.968
17.5996
17.4428
18.1734
18.8916
19.3521
19.5985
19.6949
19.6646
19.5187
19.2702
18.9285
18.4942
17.9611
17.3065
16.4238
15.1194
13.1817
10.6264
10.5761
14.8331
17.607
17.5047
16.8289
19.0216
23.8036
785.443
433.96
22.0843
22.1138
21.4585
20.5029
19.5061
19.0018
19.0202
18.7587
18.0043
17.9047
18.546
19.1581
19.5554
19.8119
19.9691
20.0257
19.9788
19.8272
19.5686
19.1934
18.6799
17.961
16.9129
15.3771
13.2037
10.8621
11.4059
16.3185
20.7506
22.6533
23.4244
24.2651
25.6013
773.323
452.022
23.9005
22.5698
20.7521
19.1698
18.3858
18.1307
18.2911
18.4668
18.6588
19.0835
19.5555
19.9095
20.1646
20.3473
20.4682
20.5264
20.5188
20.4432
20.2954
20.0635
19.7293
19.2628
18.6123
17.6997
16.4309
14.8111
13.3465
13.5385
15.7734
18.4803
21.0753
23.2033
24.1989
766.644
464.406
23.4514
20.335
16.4895
16.4342
17.4757
18.0668
18.572
19.0931
19.6053
20.0346
20.3748
20.6502
20.8689
21.0312
21.137
21.1869
21.1815
21.1209
21.0055
20.8336
20.6005
20.2981
19.9116
19.4181
18.787
17.9878
17.0022
15.8443
14.6112
14.0238
14.4805
16.1139
18.9647
767.922
457.844
20.8192
17.1242
13.7153
16.7267
17.7957
18.4334
19.1211
19.7072
20.1954
20.6065
20.9537
21.2433
21.4777
21.6576
21.7826
21.852
21.8655
21.823
21.726
21.5745
21.3678
21.1035
20.7773
20.3826
19.9125
19.359
18.6761
17.6583
16.1752
14.5046
12.1417
11.9872
17.6032
776.133
444.328
20.2135
18.262
14.8797
15.3939
16.6682
17.6975
18.6764
19.4717
20.1178
20.6541
21.1089
21.4884
21.798
22.0421
22.2235
22.3429
22.4
22.3936
22.3237
22.1892
21.9871
21.7123
21.3575
20.9128
20.3635
19.6746
18.7591
17.8298
17.225
16.0067
14.1783
15.7749
21.2014
782.348
444.374
22.236
20.8029
17.3489
12.2623
14.4611
16.1765
17.3876
18.3932
19.249
19.9857
20.6197
21.156
21.6021
21.968
22.2575
22.4729
22.6149
22.682
22.6721
22.5814
22.4036
22.1292
21.7426
21.2192
20.5111
19.5268
18.2509
17.679
18.6091
18.3838
17.9252
19.8018
23.5954
781.913
442.485
21.4332
19.9563
17.0724
12.217
12.9561
14.8343
15.8935
16.9833
17.9817
18.8966
19.7302
20.4726
21.1129
21.6486
22.0827
22.425
22.6842
22.8595
22.9479
22.9432
22.8359
22.6112
22.2467
21.7068
20.9271
19.796
18.2945
17.4252
19.1096
20.5846
20.9692
22.2003
24.4385
777.822
433.547
20.6805
20.7681
20.4102
19.3053
16.8
16.1942
15.1212
14.713
14.9769
15.8042
16.9532
18.1729
19.3092
20.2945
21.1086
21.7638
22.2795
22.672
22.9497
23.1209
23.1805
23.1135
22.897
22.498
21.8651
20.9084
19.5135
17.9281
17.9739
20.3415
22.1326
23.314
24.7442
775.548
423.61
21.6473
23.1775
23.9464
24.2524
24.0347
22.8565
21.4023
19.5916
17.5614
15.5822
14.097
13.6885
14.6027
16.2861
18.0545
19.5704
20.7531
21.6398
22.3011
22.7925
23.1381
23.3403
23.3948
23.28
22.9581
22.3728
21.4294
20.0302
18.5679
18.7544
21.0813
22.8833
24.4656
776.555
419.517
20.4146
21.5298
21.7311
21.9093
22.3912
23.2121
23.9495
24.3366
24.103
23.1065
21.3797
18.9972
16.1739
13.5522
12.598
14.1762
16.6965
18.8731
20.4876
21.6051
22.3839
22.935
23.3039
23.5062
23.5303
23.3369
22.8596
21.9974
20.6418
19.1432
19.6489
21.9074
24.3079
780.952
431.355
21.0633
21.0087
20.5465
20.1866
19.9617
19.852
20.0558
20.7921
21.9747
23.3065
24.4405
24.9043
24.3048
22.6222
19.775
15.548
12.6997
14.2131
16.9122
19.1611
20.8266
21.967
22.7491
23.282
23.6106
23.7394
23.6318
23.2014
22.2989
20.7036
19.4847
21.3182
24.4594
785.963
467.401
24.1555
21.874
20.7048
20.7991
21.9356
23.1197
23.6775
23.5535
22.886
22.2462
22.7795
24.0897
25.0937
25.588
25.5723
24.0402
20.2137
16.3425
16.1907
18.0276
19.7622
21.1479
22.1941
22.9493
23.4757
23.8045
23.9264
23.7798
23.2141
21.8874
20.2802
21.8066
25.3939
791.155
467.126
18.1376
16.3277
16.6804
18.6958
21.108
22.9721
24.127
24.7481
24.8903
24.7184
24.8375
25.35
25.6797
25.4697
23.8794
19.1303
16.4853
17.6301
18.7824
19.9259
21.0432
21.9977
22.7589
23.3589
23.8206
24.1418
24.2843
24.1627
23.6214
22.4579
21.4243
23.1347
26.6693
794.074
418.303
15.4726
19.0877
18.2568
16.9325
16.6417
17.6981
19.1072
20.3195
20.8485
20.6066
20.1905
20.8067
21.7489
22.038
21.9279
21.7219
21.7863
22.2333
22.6688
23.1044
23.5081
23.8586
24.1545
24.4013
24.6008
24.7423
24.7874
24.642
24.1546
23.3305
23.0708
24.6936
27.6006
793.265
422.978
26.0892
23.9219
21.8614
19.5739
17.009
14.901
13.171
13.132
15.1327
18.137
20.2528
21.4874
22.2952
22.8868
23.295
23.6118
23.9181
24.2191
24.4843
24.7151
24.9105
25.069
25.1896
25.2695
25.3018
25.2759
25.1791
24.9874
24.6456
24.2521
24.4675
25.7421
27.8939
789.973
432.016
22.2866
23.6526
24.6875
25.3866
25.43
24.4695
22.1668
18.0107
10.8325
5.5254
8.68343
11.0714
16.0966
19.3597
21.3709
22.6009
23.3904
23.9345
24.345
24.6706
24.9323
25.141
25.3041
25.4283
25.5216
25.592
25.6344
25.6016
25.4317
25.2541
25.5309
26.4159
27.9832
788.029
439.027
21.1267
21.5218
21.6659
21.732
21.9673
22.433
22.812
22.5302
20.4297
12.9482
6.44411
5.58114
7.25298
10.7553
15.6852
18.8455
20.9356
22.3161
23.2431
23.9066
24.3982
24.7727
25.0554
25.2573
25.3883
25.4731
25.562
25.6833
25.7794
25.8928
26.2677
26.9708
28.2281
787.672
448.404
24.2235
24.0767
23.6873
23.1656
22.4595
21.5697
20.6685
20.035
19.6115
18.0004
10.3503
6.28318
5.97762
4.43347
10.8786
14.8588
17.7024
19.9062
21.537
22.6735
23.4871
24.0971
24.569
24.9486
25.2659
25.5507
25.844
26.1667
26.45
26.6873
27.0239
27.5301
28.468
787.021
449.368
24.1483
24.5636
24.8173
24.9415
24.8838
24.4997
23.5747
22.1307
20.6175
19.286
16.5145
7.48712
4.94867
4.083
5.51869
10.5025
13.8433
16.5189
18.834
20.7477
22.1612
23.1331
23.7882
24.2266
24.5323
24.8023
25.1708
25.7442
26.4058
26.9278
27.3396
27.7765
28.575
787.454
447.478
22.8582
23.0176
23.1158
23.1742
23.2018
23.1667
22.9216
22.1505
20.7282
19.0541
17.3759
13.3945
6.0633
5.8729
6.14931
6.99711
10.7405
13.4489
15.8548
18.1363
20.2351
21.9754
23.2657
24.1538
24.7112
25.0295
25.2501
25.6093
26.2416
26.9146
27.4392
27.912
28.7253
788.44
453.325
24.7047
24.7056
24.5524
24.2941
23.9275
23.4816
23.0498
22.5751
21.6259
19.8967
17.8691
15.6582
9.13754
5.79771
6.34737
5.77862
8.04789
11.0222
13.4249
15.6553
17.8362
19.876
21.5767
22.8817
23.8548
24.5404
25.0094
25.4273
26.0091
26.7006
27.2838
27.8114
28.7381
790.021
454.165
24.5019
24.644
24.7161
24.6922
24.5142
24.0903
23.4331
22.7524
22.0575
20.9819
19.2111
17.0221
13.9726
4.85593
6.55464
6.42358
4.79652
9.24079
11.7825
14.0065
16.3
18.7047
20.956
22.6602
23.7726
24.4966
24.9677
25.3241
25.7977
26.4666
27.1264
27.7738
28.8922
791.13
454.253
24.2247
24.1386
24.0607
23.9539
23.8041
23.6002
23.2789
22.7333
22.0198
21.1798
20.04
18.398
16.1891
12.1784
8.01439
4.24835
3.96143
6.15546
9.89827
12.0585
13.9711
16.1515
18.7562
21.3483
23.2827
24.4574
25.1535
25.6078
26.0533
26.649
27.2887
27.9582
29.0996
791.141
458.075
25.0949
24.9787
24.8392
24.5993
24.1974
23.6485
23.1516
22.7735
22.2853
21.5643
20.5991
19.3393
17.7308
15.4742
9.96812
6.00185
6.16292
5.72555
7.59452
11.1886
13.4797
15.4601
17.6434
20.1926
22.6169
24.263
25.1489
25.6468
26.0895
26.6659
27.3031
27.9879
29.1194
790.185
457.61
24.6583
24.5953
24.599
24.5513
24.3739
23.9764
23.3677
22.7922
22.3242
21.7804
21.0184
19.9748
18.6152
16.9371
14.4901
7.29184
5.9305
7.17683
6.63976
8.37828
11.3633
13.7015
16.0328
18.703
21.6003
23.9978
25.4285
26.1588
26.6189
27.1112
27.6645
28.2786
29.2646
788.847
455.841
24.5902
24.6224
24.6361
24.5767
24.4078
24.0987
23.6285
23.0566
22.5406
22.0675
21.4794
20.6372
19.4285
17.765
15.5385
12.304
7.81765
5.29015
4.54417
4.06828
9.9305
12.5351
14.6003
17.0053
19.9271
22.9077
25.0335
26.1631
26.8052
27.2962
27.7692
28.2839
29.1058
787.274
454.434
24.7302
24.9614
25.1087
25.1546
25.0485
24.7291
24.1593
23.4183
22.7322
22.2548
21.8769
21.4138
20.7389
19.7417
18.2541
15.8927
11.6963
6.49115
4.6763
6.85476
6.07479
10.9934
13.6519
15.3381
17.6921
20.8769
24.0364
26.0186
26.9811
27.5745
28.0371
28.5012
29.2417
787.239
452.5
24.4821
24.8295
25.0887
25.2863
25.3935
25.3482
25.0462
24.3731
23.4275
22.6019
22.0932
21.7413
21.3406
20.7722
19.9827
18.9314
17.4247
14.2257
4.39349
4.074
6.32184
7.11369
10.1671
14.7103
16.8033
18.8459
21.7604
24.8042
26.6033
27.4544
28.0247
28.5448
29.299
787.298
451.841
24.5572
24.9571
25.2214
25.4134
25.5345
25.5591
25.4374
25.0614
24.2851
23.2554
22.4314
21.9409
21.6153
21.2999
20.9121
20.4001
19.7415
18.9536
17.8148
15.1644
7.13524
6.135
4.47723
5.14492
12.4763
16.2765
19.1189
22.2887
25.3664
27.1288
27.9688
28.541
29.2891
788.143
453.348
24.7252
25.0873
25.3534
25.5609
25.7077
25.7692
25.6993
25.4313
24.8639
23.9662
23.0379
22.3794
21.9358
21.5497
21.1335
20.6532
20.0709
19.2951
18.1835
16.7719
15.0969
10.6263
6.91269
7.27425
6.18483
12.5758
16.4936
19.5016
22.7493
25.6725
27.4361
28.4802
29.6285
793.704
454.067
24.7023
25.0237
25.2672
25.4561
25.595
25.6743
25.6593
25.4827
25.0472
24.2833
23.3467
22.557
21.9915
21.5289
21.0643
20.5465
19.9382
19.156
18.0083
16.2105
13.7522
9.63235
4.9328
4.22145
5.22135
9.49153
14.3537
17.9433
20.808
23.6711
26.0555
27.6999
29.4861
795.577
455.393
24.8873
25.1672
25.3863
25.5547
25.6778
25.7556
25.7703
25.6661
25.3644
24.7891
23.9695
23.1322
22.4446
21.867
21.3044
20.692
19.9717
19.0259
17.6428
15.5114
12.5354
7.95397
5.64424
6.74894
4.7485
11.1165
15.427
18.9348
22.2759
25.086
27.0585
28.4433
30.0724
797.839
455.153
24.7772
25.0227
25.2117
25.3572
25.4761
25.5898
25.6996
25.7295
25.5808
25.1881
24.5408
23.753
22.999
22.3311
21.699
21.0472
20.3325
19.4735
18.2598
16.2171
12.6447
8.2068
5.07934
6.96719
7.05282
9.21118
13.7455
16.3241
19.0486
22.7772
25.8743
27.8939
30.1677
801.157
455.609
24.8793
25.0252
25.1243
25.1879
25.2429
25.3529
25.5746
25.802
25.8655
25.6836
25.2435
24.5975
23.8662
23.1419
22.4265
21.6753
20.8361
19.8338
18.5144
16.5156
13.0014
7.49321
5.39099
6.84294
7.17025
13.781
18.0451
21.1878
22.7466
24.3876
26.4632
28.2557
30.3893
795.438
456.116
24.9094
24.9169
24.9083
24.8692
24.822
24.8868
25.2297
25.7113
26.0568
26.1458
25.9618
25.5332
24.9373
24.2686
23.5775
22.8602
22.0865
21.2112
20.1522
18.7143
16.3616
11.7369
8.35401
5.24885
6.56284
13.4237
17.9503
21.2601
24.5039
26.8504
28.3625
29.4509
30.6436
792.398
458.224
25.0983
24.8912
24.74
24.5704
24.3765
24.3344
24.7633
25.4822
26.0933
26.4433
26.5279
26.3703
26.0074
25.494
24.8817
24.195
23.4293
22.5573
21.5272
20.2212
18.4104
15.3404
8.38294
6.14343
5.10179
8.4033
16.4224
19.5047
21.5543
24.223
26.4322
27.976
29.7368
794.559
459.605
25.0511
24.678
24.4239
24.1451
23.7989
23.6117
24.116
25.1121
26.0272
26.6615
27.0229
27.1413
27.0424
26.7567
26.319
25.7559
25.0767
24.2681
23.2934
22.0708
20.4367
18.0134
13.6366
3.95506
7.65879
8.05321
17.1337
22.6137
24.8125
26.1441
27.5071
28.8199
30.3885
790.136
459.985
24.9903
24.555
24.2418
23.8656
23.325
22.7873
23.048
24.2077
25.4626
26.4414
27.1332
27.5832
27.8207
27.8635
27.7268
27.4253
26.9693
26.3567
25.5678
24.5513
23.2117
21.3794
18.7165
14.1166
5.35892
9.50248
15.8864
22.6875
26.5108
28.4896
29.461
30.0616
30.4617
783.979
458.554
24.8599
24.4882
24.1824
23.7728
23.107
22.1326
21.6441
22.6308
24.2298
25.6342
26.7122
27.5199
28.1095
28.5094
28.7334
28.7879
28.6746
28.3891
27.9217
27.2535
26.3606
25.2261
23.8149
21.9571
18.9946
13.2225
6.28338
16.0592
21.4911
24.5537
26.5715
27.7997
28.8839
790.479
457.992
24.9902
24.6305
24.2976
23.8567
23.1433
21.8959
20.3373
20.4887
22.281
24.1671
25.6638
26.817
27.7269
28.4551
29.0301
29.4606
29.7428
29.864
29.8103
29.5723
29.1466
28.5186
27.6256
26.3187
24.306
20.5333
10.1963
10.0798
19.351
23.728
26.2533
28.124
30.2656
798.237
459.417
25.1231
24.5933
24.1258
23.5542
22.7193
21.4096
19.4046
18.8076
20.7605
23.0584
24.8518
26.2099
27.3021
28.229
29.0324
29.7161
30.2682
30.6794
30.9483
31.0662
31.0031
30.6999
30.0612
28.9549
27.1609
24.1057
17.9452
11.1541
18.6471
25.595
28.5612
30.0396
31.3175
792.173
462.808
25.2698
24.4265
23.7124
22.8302
21.5927
19.9859
18.0048
17.5782
20.0976
22.7252
24.6721
26.1262
27.3438
28.4652
29.54
30.5406
31.3765
31.9595
32.2849
32.4027
32.3582
32.1724
31.8325
31.2608
30.295
28.6642
25.8042
21.2504
18.8343
22.0444
25.5749
27.6678
29.0234
793.945
465.998
25.2508
24.1006
23.1042
21.7741
19.9642
17.9658
16.4767
17.6398
21.091
23.6609
25.4208
26.8474
28.2725
29.8226
31.3076
32.3977
33.0607
33.4317
33.6014
33.5996
33.4254
33.0706
32.5489
31.9413
31.2733
30.2814
28.5375
25.1753
20.3028
19.5048
23.4059
26.8798
30.4412
812.814
468.3
25.1538
23.7413
22.4509
20.6417
18.4661
16.5789
16.1825
18.6711
22.2231
24.5596
25.9768
26.9335
27.7146
28.5108
29.4756
30.6373
31.7701
32.5942
33.0658
33.2552
33.1932
32.8346
32.0696
30.9734
30.1916
29.6261
28.2624
25.3674
22.3458
23.3885
26.765
29.6323
32.9704
810.998
468.814
24.7807
23.1453
21.5272
19.1655
16.6852
15.1886
16.7315
20.9102
23.9813
25.8362
27.0702
27.9182
28.5198
28.9761
29.3818
29.8278
30.3682
30.9628
31.4846
31.809
31.8591
31.5504
30.7485
29.4875
28.478
28.2191
27.8121
26.7846
26.2361
27.5916
29.455
31.0324
32.5438
791.028
467.436
24.389
22.6532
20.7564
17.8847
15.0632
14.0081
17.2845
23.8134
27.4389
28.8262
29.5645
30.0511
30.391
30.627
30.789
30.9127
31.0448
31.2241
31.4415
31.6172
31.6387
31.3988
30.7897
29.7573
28.5548
27.7523
27.4539
27.4877
28.0445
29.1567
30.1639
30.8842
31.2505
783.702
466.855
24.2587
22.5831
20.7022
17.6123
13.778
11.3297
12.8385
19.6725
25.8279
28.1365
29.1758
29.8138
30.2732
30.6106
30.8447
30.9934
31.0907
31.1919
31.3541
31.5754
31.7612
31.7933
31.5954
31.1209
30.3815
29.503
28.6376
28.0169
28.1472
28.957
29.7383
30.3173
30.865
790.666
463.936
23.9576
22.6798
21.1389
18.2455
13.1205
6.03217
6.35025
5.3619
18.9795
26.093
28.1576
29.1298
29.7382
30.1634
30.4555
30.6352
30.7235
30.7702
30.8808
31.1752
31.6202
31.9716
32.0677
31.9022
31.5067
30.95
30.2704
29.4893
29.1078
29.4121
29.9221
30.4742
31.3496
794.546
458.563
23.8654
23.2011
22.2436
20.2618
16.1523
9.09798
8.02795
9.01318
17.8109
24.7709
27.551
28.7102
29.3888
29.8532
30.1407
30.2778
30.283
30.1822
30.1038
30.36
31.221
32.2607
32.7054
32.4592
31.6707
30.6322
30.1029
30.2414
30.4425
30.6732
30.8933
31.107
31.3849
788.418
455.107
24.1079
23.8593
23.5304
22.7856
20.7315
15.6926
5.23717
5.81929
7.19473
19.2138
25.7176
27.9309
28.9552
29.5656
29.9435
30.1221
30.1057
29.8747
29.4718
29.1817
29.6364
31.1896
32.883
33.5013
32.8949
31.3779
29.948
29.8122
30.3507
30.7985
31.0397
31.074
30.7623
782.174
453.715
23.8324
23.584
23.346
23.0154
22.3424
20.4208
15.556
4.72594
6.01615
10.8638
19.0295
25.8829
28.0711
29.128
29.7888
30.2015
30.3784
30.2902
29.892
29.2066
28.5218
28.5432
29.8234
31.7921
33.1923
33.2867
32.3437
31.3481
30.8803
30.7255
30.6208
30.4099
29.8824
779.501
453.122
23.8588
23.5987
23.3418
23.0334
22.6427
21.9296
19.7979
14.4856
5.14762
7.2251
6.1585
17.3567
25.9709
28.3188
29.3428
30.0247
30.5099
30.7747
30.7594
30.3904
29.6319
28.6148
27.8031
27.8816
29.1492
31.0447
32.4448
32.7247
32.3351
31.7723
31.21
30.6179
29.735
777.051
455.385
24.1578
23.7218
23.3301
22.8489
22.2715
21.7651
21.0536
18.7355
12.4648
4.33607
6.00651
4.97643
14.1187
25.0582
28.853
30.0026
30.6101
31.0528
31.3408
31.4113
31.1742
30.5446
29.5115
28.247
27.238
27.2213
28.5567
30.4114
31.5144
31.8107
31.6582
31.1718
30.0967
777.284
458.127
24.2153
23.5909
23.1299
22.5971
21.8883
21.0725
20.2871
19.0914
16.0202
8.59977
4.55614
6.05384
6.28704
12.0952
22.1686
28.4331
30.6014
31.4383
31.9068
32.2099
32.3439
32.2471
31.8391
31.0581
29.9183
28.6353
27.797
28.0925
29.2627
30.2521
30.6645
30.5645
29.974
784.528
460.07
24.0551
23.2308
22.6423
22.0018
21.3085
20.5755
19.6987
18.5942
16.7255
12.7187
5.25486
7.45284
5.52079
7.63024
6.86793
17.6085
25.7755
29.9368
31.594
32.3517
32.7907
33.037
33.0886
32.9062
32.4396
31.6497
30.5731
29.4825
28.8833
28.9379
29.2576
29.5814
30.1732
794.144
459.82
23.7085
22.8087
22.1039
21.2552
20.3928
19.7157
18.9053
17.7849
16.3977
14.533
11.5952
8.39691
7.08918
6.24557
4.37879
6.35166
14.5689
22.6294
28.1004
30.8888
32.1368
32.763
33.095
33.2072
33.1095
32.7818
32.1313
30.9962
29.5329
28.683
28.8508
29.4902
30.6858
794.644
458.472
23.5661
22.73
22.0072
21.0345
19.915
19.1068
18.4548
17.5282
16.2288
14.8339
13.6349
12.7371
12.3994
12.4579
12.1581
11.1386
10.8877
14.4773
20.8904
26.634
30.1248
31.7244
32.3997
32.6265
32.5373
32.2034
31.7086
30.9462
29.841
29.1406
29.237
29.6829
30.3711
785.835
456.805
23.4239
22.6488
21.9561
20.9997
19.7643
18.6916
17.9831
17.3303
16.4585
15.3834
14.4428
14.0302
14.3724
15.2714
16.0008
15.8938
14.9573
14.1596
15.6258
20.155
25.4644
29.3605
31.3211
31.9662
31.8481
31.1916
30.3048
29.6388
29.2446
29.1263
29.2458
29.3874
29.2931
777.517
456.118
23.3948
22.6131
21.9112
20.9725
19.7942
18.6923
17.8612
17.196
16.5062
15.7129
14.9345
14.4931
14.8226
16.0995
17.6911
18.5686
18.3805
17.4418
16.3561
16.473
19.1573
23.61
27.8169
30.4979
31.4556
31.107
29.928
28.6801
28.1107
28.1502
28.3299
28.3814
27.9641
773.455
456.128
23.3586
22.5125
21.7481
20.7388
19.5797
18.6484
17.9621
17.3927
16.8112
16.1567
15.4664
14.8984
14.7945
15.6943
17.6395
19.5673
20.4185
20.2479
19.4079
18.1945
17.3179
18.0695
21.0357
25.0791
28.5904
30.4874
30.5986
29.6009
28.5457
28.0027
27.7989
27.6253
27.1497
773.139
456.48
23.3108
22.4036
21.5765
20.4553
19.1993
18.3725
17.8923
17.5212
17.1341
16.6691
16.1259
15.5694
15.1538
15.27
16.5843
18.9754
21.0538
21.9217
21.8729
21.2082
20.0469
18.657
17.8276
18.7221
21.6366
25.4111
28.4764
29.7326
29.5163
28.9051
28.3405
27.8537
27.3229
775.792
456.116
23.2114
22.3171
21.4935
20.3288
18.9268
18.0603
17.729
17.5551
17.3729
17.1184
16.7693
16.3423
15.8952
15.571
15.8202
17.4493
20.175
22.3172
23.2487
23.3489
22.8775
21.8796
20.3906
18.7185
17.7362
18.6391
21.6866
25.4729
27.9646
28.6518
28.6028
28.336
28.0888
780.103
455.391
23.1468
22.3021
21.5238
20.3913
18.8543
17.7487
17.4006
17.3721
17.3885
17.351
17.2189
16.9817
16.6563
16.2899
16.0234
16.3971
18.3987
21.4192
23.559
24.5231
24.7228
24.3809
23.5059
22.025
19.9596
17.7233
16.5201
18.1307
22.4191
26.1506
27.8174
28.5498
28.9854
782.378
454.925
23.1198
22.2974
21.5521
20.4768
18.9103
17.5382
17.0101
17.0072
17.1567
17.3005
17.3723
17.34
17.1954
16.9509
16.6436
16.4234
16.9889
19.4929
22.6177
24.6666
25.6404
25.9158
25.664
24.8684
23.4146
21.1868
18.2979
15.7668
16.5026
21.3106
25.3323
27.416
28.6124
781.359
455.115
23.1021
22.2281
21.4512
20.3656
18.8165
17.3071
16.5731
16.5099
16.715
16.9729
17.1923
17.3262
17.3506
17.2617
17.0704
16.8134
16.7195
17.9369
21.0845
24.0112
25.815
26.7248
27.0562
26.9179
26.2895
25.0869
23.216
20.7587
18.5619
18.8809
21.8151
24.326
26.1969
782.102
455.81
23.0406
22.0404
21.1503
19.9363
18.3678
16.891
16.0648
15.9245
16.1296
16.4445
16.7542
16.9912
17.1153
17.1141
16.9959
16.7935
16.6956
17.6887
20.7301
24.0466
26.3515
27.651
28.3073
28.5431
28.4185
27.918
27.0039
25.6536
23.9585
22.3623
21.7027
23.0621
25.8154
788.564
456.499
22.9195
21.7582
20.6937
19.2347
17.5567
16.184
15.4017
15.2224
15.4054
15.7491
16.131
16.4575
16.6553
16.6903
16.5721
16.3948
16.7168
18.7748
21.9679
24.9026
27.0062
28.3579
29.2009
29.6681
29.813
29.6536
29.1921
28.426
27.3315
25.7723
23.7737
24.323
27.4564
794.203
456.842
22.7702
21.4603
20.2083
18.4526
16.5879
15.2715
14.5562
14.3443
14.4818
14.841
15.3251
15.8204
16.1906
16.3338
16.25
16.2283
17.5485
21.3213
24.8006
26.4957
27.5847
28.4546
29.2015
29.813
30.2238
30.368
30.2132
29.7349
28.8515
27.3748
25.6966
26.4443
29.2556
796.821
456.936
22.6315
21.2235
19.8389
17.8443
15.7167
14.2615
13.4975
13.193
13.2179
13.535
14.1393
14.9707
15.8255
16.4186
16.5894
16.4548
16.9104
20.0192
25.0111
28.052
29.1198
29.5494
29.8074
30.0147
30.2016
30.3369
30.3002
29.9183
29.046
27.7708
26.9868
27.8429
29.817
792.867
456.99
22.5254
21.1107
19.7235
17.6565
15.1781
13.2088
12.0586
11.4771
11.2666
11.4072
12.012
13.2287
14.8489
16.3559
17.3937
17.7761
17.5936
17.4967
19.2977
23.1789
26.7417
28.7823
29.6822
30.0537
30.164
30.1368
30.0467
29.7811
29.1481
28.3473
28.068
28.5583
29.5197
784.692
456.567
22.4074
21.1275
19.8981
17.9846
15.2582
12.4705
10.3353
8.89777
8.11849
8.08996
8.75125
11.0328
14.1303
16.6689
18.4436
19.5029
19.8772
19.6674
19.2297
19.6487
21.8954
25.013
27.4459
28.7852
29.4
29.5835
29.5361
29.3905
29.0804
28.7057
28.5647
28.6628
28.8047
778.016
455.18
22.3248
21.3155
20.3711
18.8239
16.1942
12.7476
9.26572
6.07617
4.208
6.58699
5.91405
11.2654
16.7775
20.3451
22.4529
23.4835
23.7373
23.4702
22.8101
21.9775
21.6486
22.7525
25.0713
27.1631
28.3642
28.8974
29.0462
29.0557
29.0147
28.9247
28.8433
28.7376
28.4335
776.213
453.547
22.33
21.5683
20.9061
19.8217
17.7169
14.2664
9.88986
5.28966
4.76375
6.38798
7.97455
14.4922
20.8892
23.9583
25.2738
25.8408
26.0027
25.8465
25.3737
24.5827
23.6144
23.0076
23.6096
25.4024
27.1183
28.0462
28.397
28.4979
28.5364
28.5334
28.4652
28.2892
27.8756
775.647
452.644
22.2932
21.5831
21.0435
20.3113
18.9309
16.255
12.1557
7.28183
6.75441
5.19026
4.44024
9.29824
18.3071
23.3923
25.495
26.4368
26.873
26.9946
26.8292
26.35
25.5375
24.5109
23.7757
24.1756
25.7471
27.2234
27.9237
28.1661
28.2574
28.2796
28.2253
28.0672
27.7304
776.147
452.885
22.1959
21.3382
20.7226
20.0723
19.1652
17.4179
14.2852
9.79093
7.54795
6.45974
4.9946
7.62475
10.3547
19.3184
24.2828
26.0374
26.8688
27.2967
27.4414
27.3012
26.8337
26.0093
24.9489
24.19
24.6104
26.1425
27.3874
27.8222
27.8904
27.8413
27.7423
27.5949
27.3826
776.132
453.954
22.0744
20.9757
20.1552
19.3457
18.5549
17.3472
15.1266
11.7038
7.67529
4.95179
4.98511
6.55021
6.50981
10.6714
20.1819
24.8115
26.3618
27.1308
27.5628
27.7317
27.6143
27.1577
26.3291
25.2623
24.5374
25.0233
26.5388
27.6525
27.9935
27.9995
27.8934
27.7674
27.6834
777.549
454.686
21.8504
20.5706
19.578
18.5755
17.7355
16.7697
15.2129
12.7879
9.61819
6.18691
4.77761
5.28092
6.30228
5.37273
10.0658
20.3279
25.0162
26.5251
27.2931
27.748
27.9416
27.8393
27.3832
26.5356
25.4236
24.6248
25.036
26.4329
27.435
27.7851
27.8585
27.8415
27.8253
777.387
453.617
21.4542
20.2073
19.2121
18.1144
17.1533
16.2881
15.1722
13.5797
11.5176
9.15531
6.44341
5.50473
5.65633
6.47228
5.94243
10.586
20.1519
25.0873
26.6831
27.5023
28.0046
28.2415
28.174
27.7419
26.903
25.7668
24.9099
25.2022
26.4342
27.3621
27.7933
27.984
28.0692
777.967
450.791
21.1187
20.1722
19.4091
18.4205
17.3226
16.3842
15.5319
14.5321
13.2579
11.7285
9.91927
7.42143
6.94593
7.13933
4.43593
6.27737
8.95492
19.5445
24.699
26.5443
27.53
28.1517
28.4879
28.5103
28.17
27.4343
26.3945
25.5227
25.5642
26.3625
27.028
27.4352
27.8066
780.142
447.999
21.0582
20.4654
20.0109
19.3187
18.2478
17.0762
16.1351
15.3914
14.6124
13.6493
12.4713
11.0291
8.97359
5.79107
5.61782
4.69664
6.85772
8.57665
19.4614
24.5112
26.4027
27.4839
28.2224
28.6922
28.8657
28.7071
28.1956
27.3796
26.5641
26.3164
26.698
27.2957
28.2048
785.964
446.822
21.1559
20.7105
20.4441
20.086
19.3668
18.1882
16.94
16.0251
15.4126
14.8427
14.1206
13.1704
11.9396
10.2248
7.26223
4.76743
6.03027
7.57492
8.17198
19.4382
24.5026
26.301
27.3388
28.1087
28.6547
28.9037
28.7892
28.249
27.2768
26.5161
26.7843
27.5796
28.8577
789.007
447.501
21.1271
20.5236
20.2188
20.0279
19.7435
19.0002
17.801
16.649
15.9063
15.4553
15.0446
14.5012
13.7166
12.6331
11.1023