/*--------------------------------*- C++ -*----------------------------------*\
| =========                 |                                                 |
| \\      /  F ield         | OpenFOAM: The Open Source CFD Toolbox           |
|  \\    /   O peration     | Version:  v2006                                 |
|   \\  /    A nd           | Website:  www.openfoam.com                      |
|    \\/     M anipulation  |                                                 |
\*---------------------------------------------------------------------------*/
FoamFile
{
    version     2.0;
    format      ascii;
    class       volScalarField;
    location    "97";
    object      T;
}
// * * * * * * * * * * * * * * * * * * * * * * * * * * * * * * * * * * * * * //

dimensions      [0 0 0 1 0 0 0];


internalField   nonuniform List<scalar> 
78750
(
325.506
327.026
327.918
328.784
329.061
327.924
327.151
325.834
324.723
323.657
322.817
322.212
321.771
321.442
321.205
321.033
320.898
320.782
320.668
320.542
320.404
320.254
320.093
319.916
319.725
319.521
319.301
319.061
318.793
318.487
318.134
317.754
317.728
321.787
418.985
309.945
319.893
326.608
332.367
335.635
337.817
338.934
339.047
338.157
336.155
333.432
330.717
328.499
326.786
325.609
324.982
324.662
324.458
324.301
324.144
323.964
323.754
323.509
323.225
322.909
322.567
322.21
321.855
321.523
321.253
321.121
321.361
323.143
336.669
439.602
308.392
315.915
319.772
322.559
325.502
328.806
331.818
334.702
337.785
340.341
341.715
341.66
340.138
337.356
334.133
331.728
330.125
328.788
327.615
326.969
326.774
326.738
326.713
326.657
326.57
326.466
326.365
326.294
326.298
326.458
326.957
328.395
333.603
357.976
454.154
306.639
317.711
326.541
332.625
336.318
338.765
340.551
341.55
341.639
341.279
340.987
340.995
341.252
341.54
341.618
341.398
340.865
340.06
338.947
337.581
336.087
334.5
332.933
331.625
330.661
329.984
329.504
329.153
328.896
328.737
328.744
329.25
332.53
356.478
456.002
314.055
328.955
333.516
335.788
337.868
340.024
342.134
344.088
345.77
346.815
346.805
345.946
344.996
344.138
343.232
342.132
340.653
338.688
336.971
335.678
334.496
333.117
331.619
330.76
330.494
330.513
330.667
330.934
331.355
332.045
333.356
336.491
346.351
378.579
467.592
319.034
330.088
334.059
336.814
339.35
341.517
342.891
343.368
343.281
343.065
342.868
342.595
342.161
341.549
340.783
339.901
338.881
337.668
336.418
335.371
334.527
333.808
333.222
332.816
332.571
332.46
332.477
332.638
332.99
333.65
334.933
338.005
348.034
382.483
472.507
312.585
321.046
325.118
327.616
329.649
331.821
334.483
337.543
340.429
342.681
344.094
344.596
344.239
343.255
341.939
340.504
339.123
337.957
337.097
336.492
336.014
335.588
335.204
334.873
334.615
334.447
334.389
334.49
334.861
335.76
337.9
343.634
359.941
396.209
474.528
307.937
320.789
327.955
331.774
334.281
336.224
337.749
338.98
340.183
341.584
343.162
344.601
345.428
345.375
344.703
343.794
342.77
341.538
339.908
338.015
336.489
335.507
334.93
334.631
334.508
334.494
334.564
334.719
334.978
335.396
336.241
339.061
352.346
393.553
477.812
314.687
326.635
330.755
333.124
335.178
337.226
339.358
341.491
343.427
345.006
346.245
347.269
347.975
347.885
346.784
345.258
343.872
342.519
340.877
338.915
337.116
335.694
334.61
333.88
333.572
333.674
334.132
334.977
336.388
338.786
343.058
351.121
368.291
403.914
476.307
311.624
323.084
328.571
331.604
333.771
335.591
337.27
339
340.921
342.92
344.673
346.018
347.001
347.531
347.321
346.554
345.666
344.773
343.802
342.644
341.255
339.716
338.241
336.998
336.034
335.368
335.005
334.926
335.119
335.676
337.177
342.675
362.609
402.588
476.478
311.489
323.65
329.347
332.638
335.219
337.574
339.79
341.841
343.694
345.36
346.812
347.929
348.652
348.978
348.669
347.43
345.875
344.712
343.789
342.8
341.597
340.247
338.946
337.842
337.034
336.62
336.705
337.404
338.928
341.88
347.66
359.478
384.156
420.016
479.432
312.294
325.591
331.301
334.415
336.758
338.817
340.765
342.709
344.632
346.349
347.674
348.598
349.229
349.648
349.78
349.194
347.385
344.85
342.907
341.606
340.436
339.128
337.736
336.463
335.471
334.89
334.919
335.883
338.049
341.721
348.83
364.258
394.158
426.638
477.727
314.653
327.062
331.932
334.775
337.088
339.215
341.305
343.46
345.706
347.879
349.632
350.719
351.208
351.338
351.304
351.137
350.565
348.912
346.205
343.571
341.539
339.904
338.45
337.103
335.851
334.694
333.613
332.548
331.297
329.29
325.207
326.674
359.463
406.529
473.97
314.613
326.712
331.522
334.339
336.61
338.655
340.592
342.494
344.419
346.39
348.294
349.878
350.962
351.563
351.798
351.756
351.388
350.312
347.881
344.525
341.834
339.956
338.345
336.718
335.061
333.432
332.066
332.003
336.645
348.434
361.54
369.835
388.817
421.84
475.208
314.258
326.5
331.666
334.694
337.092
339.254
341.3
343.235
345.024
346.68
348.263
349.763
351.027
351.914
352.412
352.56
352.312
351.427
349.488
346.66
343.984
341.87
340.157
338.602
337.049
335.434
333.89
333.212
335.439
344.45
363.772
392.025
416.519
440.95
483.578
313.018
324.902
330.591
333.98
336.613
338.913
340.929
342.622
343.999
345.173
346.321
347.601
349.036
350.457
351.613
352.355
352.646
352.361
351.12
348.67
345.864
343.894
342.649
341.624
340.591
339.55
338.592
337.912
337.874
339.145
343.678
361.428
405.159
437.653
482.669
310.576
324.039
331.578
335.985
339.31
342.229
344.713
346.597
347.805
348.41
348.627
348.732
348.995
349.617
350.601
351.683
352.539
353.024
353.052
352.291
350.491
347.964
345.575
344.008
343.128
342.529
341.938
341.207
340.031
339.823
340.519
344.098
385.847
425.758
478.066
312.49
328.425
336.149
340.665
344.334
347.471
349.741
351.14
351.868
352.084
351.913
351.511
351.045
350.666
350.556
350.905
351.664
352.475
353.027
353.223
352.942
351.901
350.066
347.823
345.796
344.434
343.688
343.154
343.363
344.901
343.03
341.614
378.97
418.611
468.635
317.661
334.101
341.039
345.681
350.013
353.029
354.436
354.897
354.935
354.772
354.474
354.075
353.611
353.118
352.65
352.329
352.35
352.713
353.149
353.426
353.461
353.138
352.185
350.325
347.676
345.003
343.362
344.882
354.306
372.323
385.381
388.662
404.207
433.863
484.714
325.351
339.328
345.271
350.035
354.169
355.866
356.067
355.855
355.556
355.249
354.953
354.665
354.37
354.059
353.732
353.419
353.209
353.201
353.367
353.569
353.691
353.649
353.302
352.385
350.649
348.341
346.637
348.311
358.23
380.239
409.031
436.64
454.535
470.48
504.567
325.58
337.263
342.008
345.882
349.285
351.733
353.557
354.792
355.424
355.593
355.506
355.307
355.067
354.816
354.568
354.337
354.146
354.024
353.982
354
354.039
354.06
354.013
353.817
353.347
352.5
351.398
350.652
349.994
350.198
360.289
375.115
419.461
454.188
496.3
319.67
331.149
335.042
337.517
340.065
343.262
346.958
350.54
353.389
355.075
355.731
355.822
355.677
355.448
355.203
354.977
354.789
354.647
354.549
354.485
354.44
354.396
354.333
354.224
354.023
353.666
353.095
351.668
348.42
343.093
347.156
335.424
351.666
403.367
479.407
314.182
325.943
332.385
336.375
339.351
341.92
344.45
347.33
350.694
353.876
355.81
356.484
356.504
356.289
356.013
355.74
355.502
355.311
355.166
355.058
354.977
354.91
354.844
354.761
354.633
354.402
353.671
352.342
354.579
354.838
347.916
330.919
351.164
397.888
462.816
312.109
327.007
335.886
341.313
345.575
349.143
351.24
351.954
352.592
354.312
356.175
357.034
357.118
356.921
356.661
356.386
356.109
355.855
355.635
355.453
355.313
355.218
355.186
355.266
355.653
357.075
362.249
376.055
391.187
389.27
377.018
370.09
389.654
426.677
482.469
314.271
331.97
340.706
346.27
351.052
355.146
357.786
358.296
357.527
357.109
357.526
357.787
357.712
357.532
357.315
357.063
356.794
356.52
356.252
355.994
355.75
355.534
355.377
355.41
356.087
358.868
367.522
386.578
411.101
424.934
428.159
431.834
443.163
465.89
509.554
320.634
337.57
346.289
353.047
357.374
358.848
359.744
359.99
359.551
359.024
358.72
358.512
358.323
358.138
357.947
357.743
357.53
357.314
357.099
356.883
356.662
356.435
356.214
356.043
356.083
356.838
359.687
367.364
381.863
399.825
417.699
436.461
454.561
473.194
507.5
330.096
344.476
354.784
364.086
363.686
361.343
360.451
360.13
359.85
359.587
359.363
359.166
358.978
358.791
358.601
358.411
358.219
358.03
357.844
357.663
357.489
357.321
357.158
357.004
356.874
356.835
357.092
358.16
361.002
366.953
377.14
389.169
409.974
440.745
490.568
333.34
349.442
360.038
367.901
363.679
362.117
361.491
361.007
360.662
360.393
360.165
359.96
359.768
359.583
359.402
359.223
359.048
358.878
358.715
358.562
358.423
358.302
358.203
358.132
358.097
358.106
358.172
358.332
358.837
360.196
362.37
362.818
380.122
416.853
475.407
327.794
342.451
351.346
361.85
364.639
363.85
363.006
362.331
361.855
361.497
361.202
360.944
360.714
360.505
360.312
360.134
359.968
359.817
359.682
359.567
359.479
359.428
359.428
359.505
359.699
360.077
360.785
362.211
364.873
365.705
364.044
364.22
384.95
418.226
469.32
320.527
335.203
342.072
350.838
364.079
365.758
364.813
364.04
363.434
362.951
362.552
362.209
361.906
361.636
361.395
361.179
360.987
360.82
360.678
360.568
360.497
360.481
360.545
360.735
361.14
361.953
363.679
367.623
374.527
377.409
375.885
380.472
400.538
429.529
477.556
322.423
338.901
345.372
351.388
360.671
365.186
364.684
364.793
364.67
364.391
364.037
363.659
363.288
362.943
362.63
362.353
362.109
361.895
361.713
361.567
361.464
361.42
361.467
361.659
362.113
363.095
365.303
370.504
380.893
391.485
394.91
401.071
416.512
441.315
489.634
326.561
340.559
344.396
346.579
349.065
354.18
356.756
359.622
361.951
363.565
364.485
364.836
364.796
364.537
364.188
363.828
363.496
363.202
362.947
362.727
362.546
362.412
362.344
362.385
362.621
363.247
364.748
368.429
377.126
392.469
407.827
418.638
430.952
451.12
497.391
320.972
329.991
333.65
336.748
339.406
341.958
345.647
349.293
352.671
355.826
358.711
361.263
363.347
364.752
365.388
365.434
365.159
364.785
364.435
364.144
363.907
363.714
363.565
363.472
363.467
363.639
364.206
365.747
369.839
379.855
398.427
419.889
435.687
454.954
498.592
313.103
324.136
334.036
341.12
346.274
350.213
352.615
353.967
354.723
355.216
355.725
356.473
357.663
359.418
361.621
363.9
365.536
366.104
365.987
365.653
365.337
365.1
364.939
364.837
364.786
364.792
364.9
365.284
366.496
370.227
380.957
404.371
428.946
453.074
495.827
313.547
332.322
345.431
353.581
358.931
362.858
365.967
368.151
369.113
368.805
367.388
365.188
362.764
360.758
359.681
359.659
361.075
363.722
365.744
366.439
366.46
366.288
366.139
366.083
366.136
366.291
366.536
366.871
367.408
368.752
373.532
391.243
421.454
450.419
493.223
331.517
355.402
364.017
368.285
370.685
371.35
370.943
370.616
370.854
371.679
372.546
372.08
370.194
368.136
366.361
364.596
362.601
361.834
363.363
365.308
366.282
366.648
366.805
366.922
367.081
367.333
367.712
368.226
368.847
369.754
372.737
387.152
418.705
449.493
491.884
348.599
367.235
367.495
368.246
368.948
369.222
368.93
368.656
368.459
368.452
368.713
368.9
368.594
367.906
366.908
365.453
364.363
365.561
366.588
367.124
367.467
367.728
367.96
368.21
368.528
368.969
369.599
370.483
371.664
373.47
378.314
394.431
423.554
452.726
494.326
338.429
348.427
346.391
351.55
357.505
362.956
365.682
367.166
367.577
367.363
367.099
367.259
367.709
367.954
367.962
367.903
367.891
368.074
368.282
368.455
368.647
368.886
369.208
369.66
370.312
371.267
372.65
374.537
376.963
380.619
388.518
406.176
430
455.714
497.254
321.82
326.282
332.854
339.177
345.785
352.553
357.884
362.874
366.935
369.426
370.36
370.331
370.089
369.963
369.906
369.872
369.874
369.928
370.02
370.144
370.316
370.561
370.916
371.441
372.239
373.489
375.466
378.467
382.652
388.57
398.55
415.269
434.106
456.611
498.827
312.383
323.028
331.52
336.082
338.981
341.628
345.017
349.276
354.392
359.886
364.887
368.515
370.588
371.449
371.594
371.454
371.276
371.171
371.175
371.294
371.531
371.895
372.413
373.135
374.156
375.654
377.928
381.406
386.537
393.913
404.87
419.923
435.571
455.755
498.549
314.152
333.384
342.813
348.023
351.799
354.837
356.999
358.467
359.629
361.094
363.383
365.669
367.369
369.154
370.8
371.835
372.317
372.476
372.517
372.574
372.732
373.059
373.627
374.518
375.835
377.726
380.416
384.213
389.575
397.339
408.465
422.225
436.37
455.841
499.754
321.244
337.613
343.491
347.073
350.449
354.254
358.732
363.468
367.363
369.604
370.578
370.975
370.454
369.689
369.982
370.939
371.899
372.659
373.168
373.473
373.711
374.03
374.588
375.579
377.259
379.944
383.957
389.475
396.412
404.89
415.422
427.51
440.462
459.609
503.8
318.237
330.704
337.001
341.047
344.378
347.58
351.092
355.422
360.461
365.031
368.35
370.96
372.545
371.646
370.449
370.3
370.926
371.825
372.792
373.658
374.295
374.741
375.172
375.826
377.039
379.327
383.416
389.973
398.921
409.303
420.417
431.922
444.104
462.512
505.743
317.097
334.719
343.126
348.022
351.941
355.632
359.145
362.251
365.025
367.725
369.979
371.646
373.184
373.47
371.813
370.645
370.526
371.049
371.913
373.032
374.247
375.347
376.267
377.15
378.291
380.16
383.558
389.655
399.299
411.592
424.318
436.349
448.492
466.562
508.22
319.431
335.997
342.742
346.844
350.528
354.509
358.932
363.152
366.4
368.909
371.148
372.816
373.875
374.636
373.589
371.734
370.836
370.838
371.364
372.288
373.57
375.01
376.313
377.421
378.592
380.264
383.136
388.387
397.483
410.554
424.996
438.269
450.726
468.351
508.514
319.079
334.862
342.154
346.628
350.41
354.288
358.719
363.466
367.377
369.943
371.738
373.272
374.423
375.125
375.047
373.039
371.389
370.883
371.124
371.818
373.042
374.842
376.922
378.722
380.096
381.54
383.833
388.147
396.19
409.036
424.583
439.03
452.019
469.712
508.896
319.011
336.517
344.333
349.198
353.523
357.925
362.341
366.312
369.535
371.838
373.291
374.275
375.079
375.71
376.044
375.092
372.81
371.45
371.194
371.553
372.377
373.874
376.201
379.043
381.601
383.657
386.069
390.204
397.848
410.225
425.529
439.835
452.671
470.128
508.784
320.466
337.708
344.848
349.235
353.194
357.523
362.493
367.256
370.698
372.903
374.355
375.321
375.967
376.399
376.648
376.54
374.794
372.511
371.491
371.561
372.305
373.672
375.932
379.174
382.828
385.935
388.648
392.44
399.352
410.924
425.529
439.27
451.802
469.149
508.046
321.754
338.547
345.534
349.948
353.817
357.64
361.811
366.44
370.587
373.373
375.016
376.019
376.672
377.093
377.314
377.283
376.594
374.201
372.375
371.809
372.039
372.993
374.93
378.299
383.081
388.173
392.51
396.959
403.504
413.728
426.692
439.315
451.403
468.714
508.127
321.774
338.352
345.05
349.222
352.878
356.485
360.272
364.385
368.657
372.298
374.763
376.231
377.09
377.595
377.853
377.846
377.356
375.794
373.247
372.305
372.432
372.984
374.283
376.966
381.591
387.944
394.389
399.99
406.439
415.425
426.624
438.15
449.856
467.14
507.319
321.733
338.199
344.97
349.074
352.441
355.531
358.673
362.212
366.231
370.26
373.535
375.737
377.069
377.848
378.29
378.491
378.397
377.601
375.383
372.963
372.44
373.353
374.476
375.998
379.304
385.484
394.112
402.714
410.09
418.325
428.121
438.523
449.689
466.776
507.239
320.964
337.244
344.33
348.711
352.319
355.536
358.461
361.314
364.489
368.153
371.778
374.656
376.586
377.782
378.506
378.931
379.148
379.184
378.791
376.828
373.992
372.337
372.768
374.931
377.6
381.625
389.008
399.994
411.198
420.097
428.908
438.671
449.61
466.592
507.502
319.751
336.49
344.147
348.818
352.633
356.116
359.347
362.286
364.979
367.728
370.757
373.681
375.964
377.488
378.436
379.022
379.389
379.615
379.74
379.754
379.343
377.555
374.759
373.283
374.274
377.4
382.498
391.469
405.45
420.371
431.828
441.545
451.977
468.44
508.031
319.788
337.054
345.014
349.879
353.862
357.538
361.053
364.368
367.323
369.847
372.128
374.328
376.25
377.684
378.639
379.237
379.597
379.802
379.894
379.871
379.726
379.473
378.495
376.112
374.461
375.158
378.077
383.423
393.428
409.494
426.28
439.428
450.674
466.293
505.16
319.951
337.5
345.485
350.363
354.391
358.189
361.94
365.58
368.861
371.61
373.874
375.808
377.427
378.628
379.417
379.893
380.158
380.281
380.292
380.168
379.801
379.156
378.247
376.601
374.781
374.642
376.737
381.205
388.58
400.951
418.719
436.297
450.665
468.691
508.68
320.626
338.397
346.378
351.257
355.305
359.161
363.04
366.839
370.201
372.9
374.996
376.683
378.08
379.159
379.898
380.352
380.599
380.697
380.667
380.462
379.94
379.032
377.938
376.626
375.381
375.316
377.352
381.995
391.596
406.817
424.534
440.931
454.951
472.527
509.609
320.903
338.841
346.929
351.912
356.103
360.182
364.338
368.308
371.646
374.221
376.165
377.661
378.852
379.784
380.457
380.889
381.129
381.226
381.207
381.049
380.6
379.576
378.253
377.145
376.524
376.378
377.13
377.819
380.776
393.047
415.036
435.832
450.446
467.318
505.598
321.13
339.302
347.532
352.619
356.961
361.33
365.896
370.11
373.346
375.639
377.31
378.599
379.616
380.407
380.987
381.375
381.602
381.694
381.666
381.496
381.078
380.145
378.638
377.551
377.686
379.971
383.878
389.765
395.715
404.109
420.449
439.157
454.847
474.9
514.637
321.134
339.649
348.138
353.409
357.975
362.724
367.802
372.286
375.358
377.243
378.488
379.447
380.265
380.96
381.51
381.904
382.152
382.276
382.294
382.208
381.98
381.454
380.264
378.673
378.204
379.761
383.709
389.183
400.979
417.177
433.434
446.9
458.565
474.53
509.899
322.117
340.993
349.411
354.684
359.417
364.566
370.219
375.049
378.075
379.676
380.538
381.088
381.525
381.919
382.272
382.563
382.773
382.893
382.922
382.857
382.678
382.313
381.543
379.97
378.792
379.811
383.722
387.481
390.526
401.932
420.659
437.487
450.121
466.041
504.835
323.409
342.242
350.384
355.57
360.4
365.827
371.857
376.886
379.842
381.276
381.977
382.378
382.668
382.92
383.152
383.357
383.52
383.627
383.666
383.624
383.481
383.191
382.631
381.525
379.962
380.561
386.601
398.112
406.941
414.235
426.191
440.131
454.267
474.663
515.438
324.495
343.009
350.848
355.899
360.67
366.061
372.231
377.77
381.209
382.855
383.58
383.913
384.087
384.204
384.305
384.401
384.489
384.559
384.597
384.586
384.503
384.312
383.957
383.334
382.311
381.626
385.185
395.717
412.266
428.771
441.797
451.511
461.161
476.612
512.601
324.257
342.494
350.407
355.479
360.112
365.107
370.838
376.704
381.007
383.317
384.409
384.939
385.221
385.388
385.498
385.576
385.634
385.674
385.694
385.687
385.64
385.532
385.342
385.052
384.631
383.998
383.48
387.324
395.603
408.252
422.825
436.849
448.916
464.124
501.322
323.079
341.587
350.104
355.514
360.284
365.122
370.253
375.815
380.756
383.815
385.349
386.108
386.523
386.776
386.941
387.047
387.108
387.133
387.13
387.103
387.053
386.971
386.843
386.631
386.272
385.665
384.704
385.745
393.631
404.857
417.685
432.677
447.12
465.817
505.857
322.339
341.709
350.997
356.973
362.404
367.959
373.147
377.881
382.251
385.171
386.665
387.424
387.87
388.166
388.363
388.471
388.5
388.473
388.418
388.358
388.301
388.238
388.131
387.899
387.458
386.791
386.057
386.839
395.615
414.995
435.266
448.018
458.317
474.26
512.928
322.948
343.286
352.93
359.359
365.718
372.477
378.189
382.404
385.771
387.867
388.885
389.445
389.827
390.094
390.215
390.117
389.745
389.155
388.526
388.026
387.717
387.589
387.587
387.589
387.463
387.208
386.944
387.009
389.293
398.671
416.809
435.205
450.258
467.288
504.317
324.55
345.539
355.141
361.991
369.525
377.334
383.166
387.072
389.605
390.568
390.889
391.215
391.628
392.058
392.293
392.103
391.575
390.967
390.398
389.904
389.513
389.269
389.217
389.338
389.361
388.751
387.373
385.217
382.361
383.217
397.34
421.446
441.161
460.337
497.781
325.982
347.021
356.672
364.086
372.749
380.772
386.006
389.638
391.884
392.272
391.938
391.702
391.673
391.834
392.142
392.514
392.796
392.847
392.726
392.587
392.529
392.636
393.044
393.965
395.221
394.866
391.701
387.666
386.126
393.536
412.125
433.658
450.556
470.964
511.967
327.765
348.82
358.467
366.451
376.207
384.264
388.893
392.462
394.61
394.898
394.524
394.025
393.58
393.256
393.08
393.056
393.159
393.337
393.537
393.763
394.104
394.728
395.947
398.289
401.977
405.121
404.98
403.498
405.644
416.079
432.939
448.955
464.3
486.394
524.548
328.808
349.445
358.945
367.284
377.691
385.812
389.703
393.398
396.419
396.672
396.333
395.946
395.563
395.21
394.907
394.673
394.522
394.455
394.449
394.487
394.614
394.985
395.916
397.965
401.858
407.576
413.402
418.327
424.056
433.152
445.062
456.671
468.994
487.191
519.328
328.992
348.763
357.8
365.669
375.754
384.991
388.963
390.858
394.611
396.678
396.955
396.946
396.862
396.741
396.602
396.462
396.342
396.258
396.204
396.136
395.994
395.79
395.692
396.034
397.364
400.385
405.517
412.664
421.825
432.965
444.515
454.609
464.34
478.218
510.029
328.781
348.028
356.444
363.428
372.394
382.793
389.775
391.438
393.279
397.083
397.944
398.011
398.005
397.997
398.004
398.038
398.116
398.256
398.471
398.723
398.872
398.709
398.182
397.481
396.888
396.886
398.395
402.934
412.295
426.135
440.017
451.192
461.491
476.778
513.762
327.711
346.756
354.562
360.567
367.895
377.507
387.403
393.157
395.397
397.371
398.556
398.729
398.791
398.865
398.981
399.159
399.427
399.845
400.499
401.45
402.589
403.431
403.401
402.664
401.756
401.201
402.272
407.238
417.167
430.209
442.977
454.216
466.16
484.854
522.407
325.132
344.321
352.402
357.685
362.9
369.619
378.611
387.105
392.351
396.012
398.699
399.277
399.344
399.404
399.517
399.714
400.028
400.535
401.372
402.718
404.707
407.109
409.01
409.564
409.283
409.361
411.466
418.028
429.072
440.659
450.803
460.324
471.513
489.506
523.871
324.608
344.753
353.711
359.688
365.096
370.154
375.52
382.177
388.306
392.329
396.25
399.311
399.728
399.731
399.787
399.929
400.195
400.642
401.37
402.544
404.403
407.156
410.633
413.974
416.231
417.516
419.266
423.648
431.926
442.047
451.604
460.7
471.354
488.767
523.899
323.69
344.045
353.372
359.654
365.629
371.384
375.886
379.661
384.458
389.062
392.119
396.028
399.9
400.229
399.943
399.864
399.937
400.2
400.728
401.633
403.082
405.31
408.581
412.977
418.123
423.283
427.87
431.996
436.867
443.534
451.699
460.876
472.165
490.621
526.134
323.857
344.63
354.274
360.832
367.442
374.554
380.25
383.116
384.727
387.495
390.417
392.052
395.151
399.896
401.449
400.721
400.297
400.114
400.128
400.435
401.194
402.62
404.978
408.597
413.837
420.943
429.76
439.349
447.771
454.324
460.638
467.818
477.087
492.651
524.143
325.325
346.671
356.376
363.085
369.989
377.358
383.611
387.218
388.384
388.79
390.413
392.078
392.744
394.665
398.858
402.139
402.235
401.459
400.948
400.641
400.556
400.85
401.778
403.676
406.958
412.17
419.993
430.834
443.491
454.431
462.182
468.685
476.094
488.114
516.644
327.072
348.643
358.294
365.391
373.236
381.127
386.819
390.045
391.364
391.45
391.401
392.301
393.123
393.513
394.643
397.691
401.638
403.611
403.34
402.606
402.011
401.567
401.36
401.614
402.676
404.987
409.101
415.774
425.62
437.741
449.642
460.059
469.637
482.517
512.888
328.237
349.63
359.086
366.381
374.942
383.529
389.078
391.757
392.982
393.389
393.281
393.219
393.535
393.866
394.144
394.904
397.122
400.801
404.062
405.272
404.925
404.266
403.635
403.124
402.936
403.456
405.232
408.983
415.919
427.577
442.864
456.975
468.728
483.996
518.166
328.31
349.534
358.849
365.999
374.412
383.289
389.498
392.433
393.607
394.104
394.319
394.401
394.518
394.717
394.91
395.129
395.748
397.502
400.829
404.779
407.415
407.999
407.591
406.983
406.445
406.337
407.434
410.924
418.114
430.227
445.718
459.44
471.667
488.996
524.951
327.88
349.191
358.544
365.553
373.591
382.256
388.985
392.68
394.216
394.729
394.9
395.039
395.254
395.554
395.858
396.069
396.302
396.939
398.59
401.813
406.233
410.228
412.303
412.684
412.448
412.345
413.356
417.213
425.353
437.282
450.357
461.955
474.035
492.879
528.32
327.331
348.846
358.429
365.561
373.638
382.118
388.601
392.502
394.438
395.224
395.475
395.581
395.762
396.112
396.583
396.973
397.189
397.443
398.094
399.66
402.752
407.469
412.831
417.236
419.748
420.975
422.323
425.745
433.288
444.383
455.681
465.86
477.389
495.929
528.663
327.155
348.952
358.847
366.297
374.805
383.477
389.519
392.921
394.702
395.549
395.891
396.021
396.151
396.431
396.949
397.591
398.034
398.237
398.471
399.034
400.354
403.054
407.629
413.874
420.715
426.744
431.278
435.356
441.231
450.042
459.873
469.201
479.546
495.518
525.003
327.62
349.547
359.489
367.092
375.981
385.101
391.098
394.054
395.456
396.118
396.398
396.498
396.564
396.72
397.097
397.793
398.605
399.096
399.291
399.469
399.864
400.807
402.848
406.689
412.804
420.989
430.226
438.877
445.838
452.365
459.558
467.051
475.472
488.6
518.625
327.966
349.885
359.746
367.229
376.002
385.435
391.946
395.015
396.29
396.82
397.02
397.07
397.079
397.13
397.315
397.782
398.66
399.646
400.202
400.411
400.537
400.765
401.329
402.647
405.405
410.453
418.394
428.974
440.124
448.202
453.847
459.901
467.643
481.129
515.814
327.964
350.028
359.916
367.194
375.473
384.733
391.871
395.53
397.017
397.559
397.719
397.729
397.696
397.684
397.747
397.973
398.549
399.641
400.798
401.437
401.702
401.833
401.984
402.329
403.186
405.175
409.347
417.018
428.928
443.129
453.841
461.54
470.596
486.086
521.025
327.788
350.182
360.298
367.551
375.482
384.262
391.533
395.718
397.558
398.239
398.429
398.427
398.371
398.326
398.334
398.437
398.731
399.459
400.759
401.961
402.63
402.949
403.123
403.287
403.599
404.372
406.297
410.819
420.336
437.056
457.855
472.201
482.214
495.833
524.726
327.796
350.738
361.242
368.743
376.782
385.192
392
396.177
398.158
398.927
399.146
399.141
399.072
399.016
399.015
399.095
399.308
399.794
400.826
402.235
403.278
403.824
404.085
404.216
404.322
404.554
405.243
407.161
412.033
422.877
441.695
462.235
475.728
489.357
517.031
328.281
351.825
362.709
370.668
379.327
387.723
393.742
397.308
399.045
399.725
399.899
399.862
399.771
399.711
399.731
399.869
400.183
400.809
401.903
403.445
404.921
405.819
406.235
406.388
406.399
406.351
406.369
406.742
408.141
412.009
420.817
436.516
455.253
473.204
503.619
329.133
353.111
364.251
372.729
382.275
390.89
396.167
398.892
400.151
400.613
400.681
400.581
400.451
400.386
400.458
400.748
401.421
402.698
404.123
405.251
406.552
407.674
408.477
409.004
409.303
409.416
409.396
409.333
409.417
410.107
412.741
421.982
442.63
463.936
496.355
330.043
354.191
365.48
374.432
384.815
393.663
398.411
400.452
401.264
401.503
401.461
401.292
401.105
401.004
401.113
401.636
403.011
405.664
408.074
408.219
408.137
408.472
409.051
409.782
410.552
411.201
411.623
411.829
411.909
412.122
413.809
422.683
442.061
464.077
499.012
330.634
354.661
365.999
375.216
386.073
395.257
399.971
401.739
402.301
402.394
402.282
402.072
401.825
401.596
401.497
401.751
402.82
405.558
410.08
413.323
413.53
412.976
412.581
412.438
412.591
413.036
413.622
414.154
414.742
416.173
420.866
432.912
449.397
470.064
509.415
330.846
354.554
365.783
374.87
385.604
395.295
400.705
402.776
403.339
403.343
403.158
402.936
402.74
402.548
402.322
402.104
402.078
402.652
404.659
408.798
413.514
416.463
417.416
417.585
417.658
417.942
418.647
419.771
421.345
424.522
431.819
444.284
458.277
477.869
519.591
330.885
354.274
365.201
373.799
383.804
393.798
400.394
403.336
404.229
404.246
403.964
403.687
403.571
403.545
403.467
403.3
403.103
403.02
403.371
404.791
408.011
412.722
417.149
419.954
421.604
422.999
424.799
427.418
430.902
435.935
443.972
454.591
466.713
485.502
524.583
330.536
353.81
364.438
372.402
381.28
390.996
398.855
403.132
404.676
404.804
404.455
404.252
404.494
404.833
404.929
404.822
404.649
404.537
404.631
405.179
406.677
409.772
414.493
419.463
423.283
426.293
429.578
434.017
439.774
446.553
454.432
463.218
473.639
490.666
525.543
329.757
353.368
364.104
371.745
379.635
388.273
396.53
402.244
404.838
405.271
404.945
404.953
405.701
406.352
406.368
406.201
406.044
405.947
405.969
406.233
406.996
408.741
412.083
417.121
422.658
427.395
431.817
437.25
444.361
452.51
460.748
468.991
478.606
494.25
526.086
329.231
353.753
365.178
373.222
380.944
388.17
394.947
400.824
404.486
405.673
405.439
405.114
405.696
406.968
407.49
407.464
407.377
407.314
407.319
407.462
407.886
408.883
410.982
414.866
420.703
427.298
433.332
439.442
446.792
455.119
463.303
471.207
480.223
494.737
525.018
329.505
355.074
367.364
376.365
384.973
391.592
396.182
400.32
403.909
405.855
406.043
405.435
405.188
406.309
408.064
408.592
408.612
408.595
408.606
408.696
408.951
409.547
410.836
413.449
418.197
425.253
433.155
440.381
447.601
455.491
463.453
471.172
479.742
493.355
523.262
330.78
356.935
369.817
379.915
390.095
397.092
400.353
402.285
404.368
406.061
406.633
406.243
405.541
405.485
407.088
409.228
409.781
409.848
409.884
409.956
410.124
410.496
411.282
412.905
416.117
421.829
430.09
438.93
446.459
453.454
460.665
468.132
476.576
490.058
521.22
332.637
358.609
371.64
382.515
393.918
401.503
404.451
405.298
405.907
406.695
407.14
406.989
406.368
405.666
405.776
407.8
410.373
411.017
411.118
411.188
411.305
411.54
412.022
413.002
414.989
418.879
425.711
435.354
445.145
452.938
460.044
467.533
476.25
490.219
521.783
333.998
359.229
371.867
382.74
394.402
402.753
406.46
407.546
407.717
407.794
407.86
407.733
407.326
406.656
406.013
406.3
408.664
411.661
412.446
412.57
412.656
412.798
413.084
413.669
414.866
417.308
422.121
430.573
442.298
453.574
461.748
468.779
476.773
489.949
520.585
333.508
357.834
369.523
379.202
389.898
399.339
405.205
407.899
408.806
408.943
408.84
408.638
408.312
407.796
407.072
406.429
406.807
409.485
412.963
413.94
414.107
414.201
414.333
414.605
415.189
416.434
419.05
424.323
433.705
446.61
458.653
467.557
475.64
487.693
517.127
331.53
355.488
366.51
374.765
383.654
393.047
401.002
406.116
408.674
409.648
409.841
409.7
409.406
408.997
408.417
407.644
407.027
407.627
410.842
414.811
415.886
416.057
416.141
416.232
416.413
416.841
417.826
420.009
424.598
433.125
445.414
457.927
468.502
481.579
512.143
329.748
354.552
366.237
374.41
382.172
389.761
397.111
403.33
407.487
409.647
410.506
410.68
410.517
410.174
409.703
409.051
408.181
407.597
408.663
412.869
417.636
418.797
418.85
418.843
418.829
418.851
419.022
419.65
421.571
426.845
438.158
452.911
465.338
480.382
514.67
329.897
356.524
369.756
379.411
388.141
394.443
398.976
403.218
407.03
409.615
410.935
411.435
411.478
411.263
410.885
410.372
409.668