/*--------------------------------*- C++ -*----------------------------------*\
| =========                 |                                                 |
| \\      /  F ield         | OpenFOAM: The Open Source CFD Toolbox           |
|  \\    /   O peration     | Version:  v2006                                 |
|   \\  /    A nd           | Website:  www.openfoam.com                      |
|    \\/     M anipulation  |                                                 |
\*---------------------------------------------------------------------------*/
FoamFile
{
    version     2.0;
    format      ascii;
    class       volScalarField;
    location    "44";
    object      k;
}
// * * * * * * * * * * * * * * * * * * * * * * * * * * * * * * * * * * * * * //

dimensions      [0 2 -2 0 0 0 0];


internalField   nonuniform List<scalar> 
78750
(
1.395e-06
3.87642e-06
5.08313e-06
5.6038e-06
5.74594e-06
5.66185e-06
5.45299e-06
5.18909e-06
4.91541e-06
4.65886e-06
4.43341e-06
4.24464e-06
4.09301e-06
3.97616e-06
3.88981e-06
3.82971e-06
3.79256e-06
3.77419e-06
3.77083e-06
3.77927e-06
3.79658e-06
3.81996e-06
3.84642e-06
3.87245e-06
3.89331e-06
3.90201e-06
3.88769e-06
3.83318e-06
3.71217e-06
3.4873e-06
3.11617e-06
2.58439e-06
1.95318e-06
1.38927e-06
1.17229e-06
3.59199e-07
4.37089e-06
7.82759e-06
1.05503e-05
1.25118e-05
1.38352e-05
1.46937e-05
1.52381e-05
1.55766e-05
1.57833e-05
1.59088e-05
1.59872e-05
1.6041e-05
1.60839e-05
1.61224e-05
1.61594e-05
1.61951e-05
1.6226e-05
1.62469e-05
1.62512e-05
1.62307e-05
1.61757e-05
1.60745e-05
1.59129e-05
1.56736e-05
1.53345e-05
1.48655e-05
1.42255e-05
1.33605e-05
1.22108e-05
1.07209e-05
8.97387e-06
7.40338e-06
6.69763e-06
7.43538e-06
3.77897e-07
3.24801e-06
5.81222e-06
7.93913e-06
9.55692e-06
1.06968e-05
1.14634e-05
1.19835e-05
1.23637e-05
1.26758e-05
1.29603e-05
1.32337e-05
1.34973e-05
1.37442e-05
1.39648e-05
1.41509e-05
1.42977e-05
1.44046e-05
1.44758e-05
1.45191e-05
1.45475e-05
1.45629e-05
1.45764e-05
1.45957e-05
1.46204e-05
1.464e-05
1.46286e-05
1.45377e-05
1.42882e-05
1.377e-05
1.29069e-05
1.18205e-05
1.09486e-05
1.08634e-05
1.20133e-05
2.88879e-07
2.10292e-06
3.83968e-06
5.4551e-06
6.93308e-06
8.30016e-06
9.61402e-06
1.09388e-05
1.2321e-05
1.37762e-05
1.52861e-05
1.68026e-05
1.82593e-05
1.95836e-05
2.07081e-05
2.15782e-05
2.21571e-05
2.24276e-05
2.2392e-05
2.2071e-05
2.1504e-05
2.07363e-05
1.98244e-05
1.8829e-05
1.78181e-05
1.68619e-05
1.6033e-05
1.53792e-05
1.49105e-05
1.4563e-05
1.41906e-05
1.37612e-05
1.35489e-05
1.40166e-05
1.56486e-05
3.86557e-07
2.96374e-06
5.70907e-06
8.68267e-06
1.18845e-05
1.52826e-05
1.88159e-05
2.24018e-05
2.59409e-05
2.93242e-05
3.2443e-05
3.51982e-05
3.75071e-05
3.93077e-05
4.05605e-05
4.1248e-05
4.13736e-05
4.09594e-05
4.00434e-05
3.86773e-05
3.69245e-05
3.48574e-05
3.25568e-05
3.01097e-05
2.76102e-05
2.51489e-05
2.28068e-05
2.06998e-05
1.89771e-05
1.77532e-05
1.70144e-05
1.66782e-05
1.68556e-05
1.79206e-05
2.04635e-05
8.28847e-07
6.57524e-06
1.2624e-05
1.90073e-05
2.55765e-05
3.20874e-05
3.83111e-05
4.40813e-05
4.92544e-05
5.37156e-05
5.73824e-05
6.02041e-05
6.21597e-05
6.32551e-05
6.35191e-05
6.30003e-05
6.17629e-05
5.9884e-05
5.74497e-05
5.45534e-05
5.12942e-05
4.77765e-05
4.41104e-05
4.04205e-05
3.67947e-05
3.32874e-05
2.99631e-05
2.69112e-05
2.42727e-05
2.22287e-05
2.09152e-05
2.03812e-05
2.07227e-05
2.21894e-05
2.52195e-05
1.43558e-06
1.08919e-05
2.05859e-05
3.03992e-05
3.98987e-05
4.8597e-05
5.6302e-05
6.30029e-05
6.86454e-05
7.31839e-05
7.6605e-05
7.89219e-05
8.01695e-05
8.03995e-05
7.96778e-05
7.80815e-05
7.56976e-05
7.26222e-05
6.89589e-05
6.4819e-05
6.03283e-05
5.56363e-05
5.08746e-05
4.61597e-05
4.16332e-05
3.74289e-05
3.36491e-05
3.03827e-05
2.77357e-05
2.58249e-05
2.47227e-05
2.4441e-05
2.50118e-05
2.65853e-05
2.9426e-05
2.18485e-06
1.55672e-05
2.88816e-05
4.18305e-05
5.3797e-05
6.4244e-05
7.30112e-05
8.03153e-05
8.6305e-05
9.09911e-05
9.44039e-05
9.65886e-05
9.76007e-05
9.7504e-05
9.63686e-05
9.42705e-05
9.12911e-05
8.75208e-05
8.30569e-05
7.7974e-05
7.23643e-05
6.63825e-05
6.02105e-05
5.40469e-05
4.81104e-05
4.26249e-05
3.77832e-05
3.37546e-05
3.07115e-05
2.87919e-05
2.80009e-05
2.81754e-05
2.90785e-05
3.06905e-05
3.31921e-05
2.85155e-06
1.9517e-05
3.57278e-05
5.11005e-05
6.49657e-05
7.67931e-05
8.63817e-05
9.4114e-05
0.000100341
0.000105146
0.000108589
0.000110734
0.000111655
0.000111425
0.000110124
0.000107832
0.000104627
0.000100532
9.55472e-05
8.97561e-05
8.32898e-05
7.63193e-05
6.90486e-05
6.17178e-05
5.46083e-05
4.80205e-05
4.22132e-05
3.74181e-05
3.3889e-05
3.18377e-05
3.12656e-05
3.18534e-05
3.30611e-05
3.46993e-05
3.6927e-05
3.58833e-06
2.3059e-05
4.17439e-05
5.91809e-05
7.46364e-05
8.75663e-05
9.78378e-05
0.000105876
0.000112191
0.000116998
0.000120377
0.000122411
0.000123187
0.000122794
0.000121322
0.00011885
0.000115391
0.000110927
0.000105503
9.92033e-05
9.21508e-05
8.45058e-05
7.64708e-05
6.83001e-05
6.03179e-05
5.28967e-05
4.63498e-05
4.09526e-05
3.7023e-05
3.48482e-05
3.4457e-05
3.54152e-05
3.69028e-05
3.85692e-05
4.05367e-05
4.33666e-06
2.61952e-05
4.70709e-05
6.63938e-05
8.32998e-05
9.71873e-05
0.000107999
0.000116287
0.000122692
0.000127496
0.000130793
0.000132678
0.000133251
0.000132611
0.00013086
0.000128045
0.000124145
0.000119187
0.000113237
0.000106391
9.87765e-05
9.0553e-05
8.19213e-05
7.31434e-05
6.458e-05
5.66672e-05
4.97375e-05
4.40633e-05
3.99851e-05
3.78355e-05
3.76663e-05
3.89583e-05
4.06747e-05
4.23354e-05
4.40039e-05
5.23271e-06
2.9617e-05
5.28184e-05
7.40883e-05
9.23901e-05
0.000107104
0.000118331
0.000126771
0.000133181
0.000137903
0.000141049
0.000142731
0.000143057
0.000142136
0.000140043
0.000136779
0.000132355
0.000126818
0.00012025
0.00011276
0.000104488
9.56014e-05
8.63093e-05
7.68924e-05
6.77612e-05
5.94446e-05
5.23045e-05
4.65861e-05
4.26021e-05
4.06695e-05
4.08204e-05
4.24523e-05
4.43629e-05
4.59732e-05
4.72733e-05
6.1877e-06
3.30576e-05
5.85043e-05
8.15727e-05
0.000101071
0.000116427
0.000127955
0.00013649
0.000142875
0.000147508
0.000150514
0.000152019
0.000152141
0.000150978
0.000148558
0.000144885
0.00013999
0.000133932
0.000126803
0.000118718
0.00010982
0.000100279
9.03116e-05
8.02173e-05
7.04669e-05
6.1711e-05
5.43692e-05
4.86778e-05
4.4916e-05
4.3343e-05
4.3911e-05
4.58992e-05
4.79718e-05
4.94818e-05
5.03604e-05
7.25927e-06
3.67203e-05
6.44259e-05
8.92098e-05
0.000109769
0.000125647
0.00013741
0.00014602
0.000152366
0.000156888
0.000159741
0.00016106
0.000160971
0.000159531
0.000156754
0.000152659
0.000147293
0.000140726
0.000133058
0.000124408
0.00011492
0.00010476
9.41436e-05
8.33841e-05
7.30048e-05
6.37857e-05
5.62207e-05
5.05553e-05
4.70481e-05
4.58927e-05
4.69284e-05
4.92812e-05
5.14935e-05
5.28682e-05
5.33004e-05
8.35342e-06
4.02928e-05
7.01343e-05
9.65214e-05
0.000118064
0.000134431
0.000146424
0.000155165
0.000161522
0.000165962
0.000168697
0.000169876
0.000169593
0.000167879
0.000164755
0.000160254
0.000154433
0.000147376
0.000139189
0.000129995
0.000119936
0.000109174
9.79195e-05
8.64956e-05
7.54778e-05
6.57791e-05
5.79735e-05
5.23263e-05
4.90837e-05
4.83704e-05
4.98934e-05
5.26033e-05
5.49306e-05
5.614e-05
5.61118e-05
9.51518e-06
4.39635e-05
7.59339e-05
0.00010388
0.000126346
0.000143157
0.000155354
0.000164206
0.000170579
0.000174957
0.000177602
0.000178648
0.000178157
0.000176162
0.000172691
0.000167788
0.000161522
0.000153986
0.000145293
0.000135574
0.000124965
0.000113625
0.000101754
8.96822e-05
7.80283e-05
6.78353e-05
5.97598e-05
5.4098e-05
5.10967e-05
5.0816e-05
5.28202e-05
5.58677e-05
5.82865e-05
5.93089e-05
5.88182e-05
1.06855e-05
4.7513e-05
8.14801e-05
0.000110875
0.000134201
0.000151439
0.000163847
0.000172817
0.000179255
0.000183645
0.00018624
0.000187167
0.000186488
0.000184236
0.000180445
0.000175169
0.000168484
0.000160495
0.000151321
0.000141093
0.000129952
0.000118048
0.000105579
9.28809e-05
8.06152e-05
6.99486e-05
6.16077e-05
5.59187e-05
5.31357e-05
5.32632e-05
5.57242e-05
5.90809e-05
6.15663e-05
6.23841e-05
6.14196e-05
1.18989e-05
5.1056e-05
8.69774e-05
0.000117789
0.000141954
0.000159617
0.000172249
0.000181352
0.000187863
0.00019227
0.000194822
0.00019564
0.000194784
0.000192287
0.00018819
0.000182553
0.000175465
0.000167039
0.000157397
0.000146676
0.000135012
0.000122552
0.000109488
9.6164e-05
8.32875e-05
7.215e-05
6.35405e-05
5.78132e-05
5.52291e-05
5.57383e-05
5.86234e-05
6.22528e-05
6.47772e-05
6.53687e-05
6.39193e-05
1.31301e-05
5.45285e-05
9.23217e-05
0.000124481
0.000149443
0.00016752
0.000180386
0.000189643
0.000196253
0.000200704
0.000203238
0.000203973
0.000202963
0.000200244
0.000195859
0.000189878
0.000182404
0.000173558
0.000163464
0.000152263
0.000140094
0.000127096
0.000113459
9.95306e-05
8.60633e-05
7.44696e-05
6.5591e-05
5.98089e-05
5.73947e-05
5.82493e-05
6.15204e-05
6.53864e-05
6.79249e-05
6.82701e-05
6.63227e-05
1.43993e-05
5.79772e-05
9.75767e-05
0.000131024
0.000156746
0.000175228
0.000188338
0.000197767
0.000204498
0.000209016
0.000211557
0.000212232
0.000211091
0.00020817
0.000203517
0.000197214
0.00018937
0.000180115
0.000169576
0.0001579
0.000145223
0.000131686
0.000117474
0.000102945
8.89008e-05
7.6874e-05
6.77435e-05
6.19093e-05
5.96492e-05
6.08168e-05
6.44312e-05
6.8492e-05
7.10145e-05
7.10887e-05
6.86219e-05
1.56864e-05
6.13382e-05
0.000102661
0.000137342
0.0001638
0.000182689
0.00019606
0.000205686
0.000212564
0.000217176
0.00021975
0.000220389
0.000219142
0.000216043
0.000211148
0.000204546
0.000196356
0.000186715
0.000175754
0.000163621
0.000150454
0.000136388
0.000121609
0.000106484
9.18653e-05
7.94077e-05
7.00215e-05
6.41226e-05
6.19922e-05
6.34372e-05
6.73531e-05
7.15702e-05
7.40499e-05
7.38316e-05
7.08239e-05
1.70165e-05
6.47001e-05
0.0001077
0.000143569
0.000170727
0.000190009
0.000203645
0.000213481
0.000220523
0.000225246
0.00022787
0.000228493
0.000227156
0.000223897
0.000218774
0.000211887
0.000203365
0.000193345
0.000181971
0.000169392
0.000155742
0.000141155
0.000125815
0.000110104
9.49255e-05
8.20572e-05
7.24272e-05
6.64623e-05
6.44429e-05
6.61297e-05
7.03023e-05
7.46341e-05
7.70405e-05
7.65022e-05
7.29224e-05
1.83677e-05
6.7989e-05
0.000112586
0.000149585
0.000177415
0.00019709
0.000211008
0.000221078
0.000228309
0.000233171
0.000235873
0.000236506
0.000235108
0.000231715
0.000226394
0.00021925
0.000210419
0.000200047
0.000188281
0.000175273
0.000161156
0.000146058
0.000130162
0.000113866
9.81295e-05
8.48521e-05
7.49747e-05
6.89316e-05
6.69992e-05
6.88903e-05
7.32731e-05
7.76773e-05
7.99809e-05
7.90999e-05
7.49232e-05
1.97595e-05
7.12717e-05
0.000117423
0.000155513
0.000183985
0.000204043
0.000218246
0.000228558
0.000235992
0.000241006
0.0002438
0.000244457
0.000243013
0.000239503
0.000234002
0.000226622
0.000217502
0.000206798
0.000194658
0.000181237
0.000166669
0.000151073
0.000134632
0.00011776
0.000101476
8.78027e-05
7.76816e-05
7.15517e-05
6.96821e-05
7.17396e-05
7.62885e-05
8.07259e-05
8.28958e-05
8.16394e-05
7.68256e-05
2.11803e-05
7.45176e-05
0.000122162
0.000161292
0.000190377
0.000210809
0.000225305
0.000235876
0.000243529
0.000248712
0.000251616
0.000252316
0.000250846
0.000247243
0.000241587
0.000233996
0.000224617
0.00021361
0.000201121
0.00018731
0.000172307
0.00015623
0.000139255
0.000121815
0.000104988
9.09222e-05
8.05535e-05
7.4323e-05
7.249e-05
7.46727e-05
7.93346e-05
8.37562e-05
8.57598e-05
8.41072e-05
7.86355e-05
2.2637e-05
7.77527e-05
0.000126844
0.000166974
0.000196644
0.000217442
0.000232236
0.000243073
0.000250955
0.000256316
0.000259339
0.000260093
0.00025861
0.000254931
0.000249142
0.000241364
0.000231752
0.000220468
0.000207658
0.000193481
0.000178064
0.000161523
0.000144031
0.000126036
0.000108677
9.42289e-05
8.36108e-05
7.72651e-05
7.54404e-05
7.77088e-05
8.24428e-05
8.68176e-05
8.86249e-05
8.65345e-05
8.03556e-05
2.41211e-05
8.09578e-05
0.000131443
0.000172529
0.000202756
0.000223915
0.000239012
0.000250125
0.000258244
0.00026379
0.000266939
0.000267757
0.000266276
0.000262539
0.000256639
0.000248705
0.000238891
0.000227362
0.000214263
0.000199749
0.000183946
0.000166964
0.000148976
0.000130439
0.000112558
9.77313e-05
8.68571e-05
8.03796e-05
7.85357e-05
8.08479e-05
8.55945e-05
8.98557e-05
9.14293e-05
8.88919e-05
8.19897e-05
2.56339e-05
8.41434e-05
0.000135976
0.000177979
0.000208743
0.00023026
0.000245667
0.00025706
0.000265416
0.000271147
0.000274422
0.000275307
0.000273837
0.00027006
0.000264072
0.000256007
0.000246022
0.000234281
0.000220923
0.000206103
0.000189942
0.000172544
0.000154081
0.000135026
0.000116643
0.000101452
9.03158e-05
8.36835e-05
8.17829e-05
8.40919e-05
8.88091e-05
9.29612e-05
9.42713e-05
9.12108e-05
8.35431e-05
2.71639e-05
8.72824e-05
0.000140405
0.000183287
0.000214575
0.000236458
0.000252186
0.000263864
0.000272453
0.000278359
0.000281754
0.000282709
0.000281259
0.00027746
0.000271411
0.000263247
0.000253127
0.000241209
0.000227629
0.000212536
0.000196048
0.00017826
0.000159344
0.000139794
0.000120929
0.000105385
9.39848e-05
8.71801e-05
8.51928e-05
8.74612e-05
9.2118e-05
9.61586e-05
9.71674e-05
9.35159e-05
8.50274e-05
2.87102e-05
9.03784e-05
0.000144739
0.000188466
0.000220272
0.000242539
0.000258611
0.000270575
0.000279374
0.00028543
0.000288928
0.000289947
0.000288526
0.000284722
0.000278639
0.00027041
0.000260191
0.000248135
0.000234369
0.000219041
0.000202258
0.000184113
0.000164776
0.000144758
0.000125438
0.000109558
9.78866e-05
9.0884e-05
8.87723e-05
9.09593e-05
9.55221e-05
9.94293e-05
0.000100102
9.58085e-05
8.64466e-05
3.02615e-05
9.34058e-05
0.000148941
0.000193474
0.000225799
0.000248493
0.000264972
0.000277217
0.000286164
0.000292321
0.000295901
0.000296981
0.000295601
0.000291817
0.00028573
0.000277471
0.000267191
0.000255036
0.000241125
0.000225597
0.000208555
0.000190083
0.000170352
0.000149893
0.000130151
0.000113956
0.000102015
9.47967e-05
9.25271e-05
9.45915e-05
9.90206e-05
0.000102765
0.000103071
9.8092e-05
8.78104e-05
3.18152e-05
9.63641e-05
0.000153012
0.00019831
0.00023114
0.000254289
0.000271099
0.000283614
0.000292758
0.000298993
0.000302647
0.000303796
0.000302473
0.000298731
0.00029267
0.000284417
0.000274114
0.000261901
0.000247884
0.000232198
0.000214936
0.000196175
0.000176088
0.000155225
0.000135099
0.000118608
0.000106393
9.89313e-05
9.64637e-05
9.8363e-05
0.00010262
0.000106166
0.000106071
0.000100368
8.91273e-05
3.33651e-05
9.92427e-05
0.000156939
0.000202955
0.000236266
0.000259802
0.00027692
0.000289701
0.000299053
0.000305419
0.000309142
0.000310365
0.000309113
0.000305436
0.000299429
0.000291213
0.000280924
0.00026869
0.000254609
0.000238803
0.000221359
0.000202347
0.000181942
0.000160717
0.000140257
0.0001235
0.000111016
0.000103293
0.000100588
0.000102271
0.000106301
0.000109623
0.000109101
0.00010264
9.04076e-05
3.49042e-05
0.000102034
0.000160718
0.00020743
0.000241251
0.000265101
0.000282495
0.000295525
0.000305084
0.000311596
0.000315379
0.000316682
0.000315516
0.000311923
0.000305997
0.000297851
0.00028761
0.000275395
0.000261288
0.000245404
0.000227818
0.000208597
0.000187917
0.000166378
0.000145639
0.000128645
0.000115897
0.00010789
0.000104905
0.000106324
0.000110109
0.00011314
0.000112158
0.000104911
9.16584e-05
3.6421e-05
0.000104711
0.000164299
0.000211632
0.000245912
0.000270069
0.000287737
0.000301015
0.000310784
0.000317452
0.000321318
0.000322712
0.000321643
0.000318154
0.000312334
0.00030429
0.000294131
0.000281968
0.000267871
0.000251945
0.000234256
0.000214865
0.000193952
0.00017215
0.000151199
0.000134014
0.000121023
0.000112729
0.000109434
0.00011055
0.000114067
0.000116739
0.000115254
0.000107184
9.28838e-05
3.7925e-05
0.000107314
0.000167763
0.000215689
0.000250391
0.000274821
0.000292738
0.000306252
0.000316228
0.000323065
0.000327046
0.000328517
0.000327541
0.000324161
0.000318456
0.000310526
0.000300478
0.000288407
0.000274358
0.000258426
0.00024067
0.000221146
0.000200043
0.000178028
0.00015693
0.000139595
0.000126386
0.000117805
0.000114178
0.000114953
0.00011816
0.000120422
0.000118391
0.000109462
9.40817e-05
3.94094e-05
0.000109812
0.000171053
0.00021952
0.000254585
0.000279257
0.000297407
0.000311147
0.000321325
0.000328331
0.000332441
0.000333996
0.000333136
0.000329893
0.000324335
0.000316552
0.000306636
0.000294672
0.000280701
0.000264805
0.000247016
0.000227395
0.00020614
0.000183961
0.000162785
0.000145347
0.000131957
0.000123109
0.000119141
0.000119543
0.000122393
0.000124194
0.000121575
0.000111745
9.52462e-05
4.0871e-05
0.000112208
0.000174203
0.000223223
0.000258568
0.00028345
0.00030182
0.000315776
0.000326152
0.000333324
0.000337565
0.00033921
0.000338471
0.000335372
0.000329975
0.000322357
0.000312601
0.000300775
0.000286904
0.00027106
0.000253282
0.000233604
0.00021224
0.000189944
0.000168749
0.000151244
0.000137703
0.00012861
0.000124309
0.000124315
0.000126765
0.000128059
0.000124808
0.000114032
9.63708e-05
4.23038e-05
0.000114481
0.000177142
0.00022666
0.000262252
0.000287332
0.000305912
0.000320078
0.000330646
0.000337983
0.000342357
0.000344104
0.0003435
0.000340562
0.000335344
0.000327914
0.000318343
0.000306683
0.000292945
0.000277187
0.000259438
0.000239742
0.000218313
0.000195949
0.000174796
0.00015726
0.000143593
0.000134277
0.000129654
0.000129255
0.000131269
0.000132011
0.000128085
0.000116316
9.74498e-05
4.37029e-05
0.000116633
0.000179896
0.000229867
0.000265686
0.000290954
0.000309735
0.000324102
0.000334855
0.000342353
0.000346861
0.000348714
0.000348251
0.000345483
0.000340457
0.000333233
0.000323868
0.000312402
0.000298829
0.000283195
0.000265518
0.000245839
0.000224394
0.000202015
0.000180957
0.00016341
0.000149616
0.000140078
0.000135143
0.00013434
0.000135899
0.000136054
0.000131413
0.000118605
9.84945e-05
4.50677e-05
0.000118676
0.000182475
0.000232848
0.000268861
0.000294293
0.000313258
0.000327813
0.000338741
0.000346393
0.000351035
0.000353
0.000352684
0.000350096
0.000345276
0.000338275
0.000329139
0.000317894
0.000304519
0.000289048
0.000271488
0.000251879
0.000230472
0.000208162
0.000187268
0.000169734
0.000155801
0.000146012
0.000140741
0.000139522
0.000140612
0.000140162
0.00013478
0.000120903
9.95278e-05
4.63996e-05
0.000120601
0.000184867
0.000235595
0.000271776
0.000297359
0.000316498
0.00033123
0.000342324
0.000350125
0.000354898
0.000356979
0.000356815
0.000354413
0.000349811
0.000343048
0.000334161
0.000323162
0.000310015
0.000294745
0.00027735
0.000257869
0.000236569
0.000214388
0.000193763
0.000176289
0.00016221
0.000152125
0.000146471
0.000144805
0.000145413
0.000144344
0.000138205
0.000123237
0.000100586
4.77007e-05
0.000122432
0.000187109
0.000238143
0.000274459
0.000300168
0.000319458
0.000334348
0.00034559
0.000353527
0.000358425
0.000360623
0.000360611
0.000358399
0.00035402
0.000347508
0.000338884
0.000328151
0.00031526
0.000300224
0.000283041
0.000263752
0.000242643
0.000220705
0.000200454
0.000183114
0.0001689
0.000158462
0.000152336
0.000150153
0.000150255
0.000148571
0.000141678
0.000125619
0.000101699
4.89788e-05
0.000124168
0.00018919
0.00024048
0.000276899
0.000302712
0.000322136
0.000337167
0.000348543
0.000356604
0.000361621
0.000363941
0.000364072
0.000362051
0.000357901
0.000351646
0.000343295
0.000332839
0.000320218
0.000305441
0.000288504
0.000269459
0.000248622
0.000227042
0.000207302
0.000190225
0.000175936
0.000165128
0.000158454
0.000155668
0.000155202
0.000152877
0.000145222
0.000128068
0.000102878
5.02371e-05
0.00012582
0.000191133
0.000242632
0.000279119
0.000305011
0.000324545
0.000339695
0.000351184
0.00035935
0.00036447
0.000366902
0.000367174
0.000365342
0.000361422
0.000355425
0.000347349
0.000337174
0.000324828
0.00031032
0.000293648
0.000274885
0.000254388
0.000233283
0.000214197
0.000197518
0.000183283
0.00017214
0.000164845
0.00016134
0.000160248
0.000157262
0.000148838
0.000130582
0.000104115
5.14865e-05
0.000127403
0.000192948
0.000244603
0.000281122
0.000307064
0.000326685
0.000341931
0.000353513
0.000361766
0.000366975
0.00036951
0.000369919
0.000368273
0.00036458
0.000358838
0.000351034
0.000341134
0.000329057
0.00031481
0.000298404
0.000279935
0.000259824
0.000239298
0.000220996
0.00020489
0.000190883
0.000179523
0.000171625
0.000167357
0.000165493
0.000161773
0.000152543
0.000133154
0.00010538
5.27241e-05
0.000128907
0.00019463
0.000246392
0.000282906
0.00030887
0.000328552
0.000343872
0.000355525
0.000363845
0.000369126
0.000371751
0.00037229
0.000370826
0.000367355
0.000361865
0.000354327
0.000344694
0.000332875
0.000318875
0.000302717
0.000284534
0.000264825
0.000244959
0.00022751
0.000212124
0.000198551
0.000187175
0.000178788
0.00017376
0.000171002
0.000166448
0.000156342
0.000135761
0.000106619
5.39513e-05
0.000130345
0.000196199
0.000248016
0.000284486
0.000310443
0.000330161
0.000345529
0.000357231
0.0003656
0.000370937
0.000373639
0.000374303
0.000373015
0.000369762
0.00036452
0.000357243
0.00034787
0.000336296
0.000322525
0.000306592
0.000288671
0.000269356
0.000250196
0.000233599
0.000219024
0.00020608
0.000194934
0.00018625
0.000180544
0.000176826
0.000171335
0.000160253
0.000138378
0.000107772
5.51554e-05
0.000131705
0.00019765
0.000249464
0.000285852
0.000311774
0.000331502
0.000346898
0.000358628
0.000367025
0.000372401
0.000375169
0.000375954
0.000374839
0.000371804
0.00036681
0.000359798
0.000350688
0.00033936
0.00032581
0.000310083
0.000292395
0.000273442
0.000254975
0.000239165
0.000225404
0.000213217
0.000202547
0.000193832
0.000187594
0.000182926
0.000176423
0.00016426
0.000140972
0.000108794
5.63262e-05
0.000132992
0.00019902
0.000250754
0.000287021
0.000312882
0.000332599
0.000348
0.000359737
0.000368144
0.000373544
0.000376366
0.000377266
0.000376322
0.000373505
0.000368765
0.000362031
0.000353201
0.000342138
0.000328827
0.000313315
0.000295854
0.000277236
0.000259417
0.000244272
0.000231233
0.000219824
0.000209802
0.000201322
0.000194778
0.000189221
0.000181678
0.000168345
0.000143532
0.000109691
5.74404e-05
0.000134157
0.000200219
0.000251845
0.000287973
0.000313757
0.000333444
0.000348831
0.000360556
0.000368957
0.000374366
0.000377232
0.000378244
0.000377468
0.000374872
0.000370398
0.000363961
0.000355443
0.000344686
0.000331662
0.000316414
0.000299217
0.000280944
0.000263727
0.000249095
0.000236594
0.000225849
0.000216527
0.000208488
0.000201888
0.000195591
0.000187027
0.000172478
0.000146069
0.000110532
5.84962e-05
0.000135231
0.000201294
0.000252782
0.000288749
0.000314433
0.00033407
0.000349422
0.000361117
0.000369492
0.000374894
0.000377791
0.000378909
0.000378297
0.000375922
0.000371723
0.000365606
0.00035744
0.00034705
0.000334391
0.0003195
0.000302664
0.000284813
0.000268204
0.000253954
0.000241756
0.000231438
0.000222704
0.000215189
0.000208739
0.000201896
0.000192415
0.000176664
0.000148648
0.000111437
5.94893e-05
0.000136205
0.000202229
0.00025355
0.000289335
0.000314903
0.000334472
0.000349772
0.000361418
0.000369749
0.000375129
0.000378043
0.000379255
0.000378796
0.000376635
0.000372714
0.000366934
0.000359159
0.000349199
0.000336999
0.000322588
0.000306259
0.000288981
0.000273065
0.000259141
0.000247039
0.000236844
0.000228446
0.000221379
0.000215186
0.000207984
0.000197738
0.00018088
0.000151327
0.000112498
6.04322e-05
0.000137102
0.000203058
0.000254189
0.000289775
0.00031521
0.000334691
0.00034992
0.000361498
0.000369767
0.000375106
0.000378019
0.000379308
0.00037898
0.000377014
0.000373357
0.000367916
0.000360553
0.000351076
0.000339425
0.00032563
0.000309993
0.000293506
0.00027844
0.000264896
0.000252774
0.000242417
0.000234014
0.000227173
0.000221227
0.000213811
0.000202969
0.000185148
0.000154172
0.000113761
6.13387e-05
0.000137932
0.000203785
0.000254698
0.000290065
0.000315349
0.000334726
0.000349864
0.000361355
0.000369544
0.000374826
0.000377726
0.000379063
0.000378835
0.000377032
0.000373611
0.000368487
0.000361533
0.000352562
0.000341526
0.000328469
0.000313715
0.000298291
0.000284274
0.000271267
0.000259153
0.000248456
0.000239708
0.000232764
0.000226916
0.00021933
0.000208026
0.00018939
0.000157117
0.000115184
6.22281e-05
0.000138712
0.000204432
0.000255105
0.000290236
0.000315354
0.00033461
0.000349639
0.000361022
0.000369112
0.000374319
0.000377195
0.000378544
0.000378377
0.000376695
0.000373464
0.000368616
0.000362037
0.000353561
0.000343166
0.000330931
0.000317232
0.000303155
0.000290394
0.000278155
0.000266215
0.000255161
0.000245833
0.000238456
0.000232478
0.000224671
0.000212967
0.000193619
0.000160128
0.000116696
6.31099e-05
0.000139446
0.000205004
0.000255412
0.000290289
0.000315225
0.000334343
0.000349245
0.0003605
0.000368467
0.000373573
0.000376405
0.000377741
0.000377601
0.000375994
0.000372903
0.000368273
0.000362011
0.000353979
0.000344199
0.000332807
0.000320266
0.000307757
0.000296452
0.000285262
0.00027378
0.000262524
0.000252532
0.00024445
0.000238047
0.000229872
0.000217748
0.00019773
0.00016308
0.000118182
6.3996e-05
0.000140145
0.000205513
0.000255636
0.000290245
0.000314986
0.000333953
0.000348714
0.000359826
0.000367653
0.00037264
0.000375406
0.000376701
0.00037655
0.000374973
0.000371966
0.00036749
0.000361474
0.000353811
0.000344576
0.000333987
0.000322619
0.000311787
0.000302088
0.000292211
0.000281533
0.000270396
0.000259892
0.000251056
0.000243928
0.000235167
0.000222517
0.000201789
0.000165952
0.000119552
6.488e-05
0.000140796
0.000205948
0.000255769
0.000290098
0.000314632
0.000333437
0.000348046
0.000359003
0.000366677
0.000371532
0.000374218
0.000375447
0.000375251
0.000373663
0.000370689
0.000366307
0.000360465
0.000353089
0.000344309
0.000334438
0.000324193
0.000315039
0.000307004
0.00029862
0.000289056
0.000278413
0.000267689
0.000258176
0.000250142
0.000240569
0.000227231
0.000205683
0.0001686
0.000120678
6.57545e-05
0.000141403
0.000206321
0.000255826
0.000289863
0.000314182
0.000332817
0.000347265
0.000358059
0.000365572
0.000370285
0.00037288
0.000374024
0.000373758
0.000372126
0.000369148
0.000364814
0.00035909
0.000351931
0.000343521
0.00033427
0.000325054
0.000317487
0.000311066
0.000304238
0.000296007
0.000286218
0.000275669
0.000265734
0.000256789
0.000246252
0.000232054
0.00020952
0.000171051
0.000121527
6.659e-05
0.000141934
0.000206599
0.000255779
0.00028952
0.000313622
0.000332085
0.00034637
0.000357
0.000364351
0.000368921
0.000371422
0.000372469
0.000372113
0.000370413
0.000367405
0.000363091
0.000357454
0.000350473
0.000342379
0.000333676
0.000325399
0.00031926
0.000314298
0.000308949
0.000302116
0.000293419
0.000283396
0.000273351
0.000263601
0.000252041
0.000236852
0.000213176
0.000173219
0.000122093
6.73742e-05
0.000142399
0.000206802
0.000255651
0.000289092
0.000312974
0.000331263
0.000345388
0.000355857
0.00036305
0.000367482
0.000369892
0.000370837
0.00037038
0.000368598
0.000365545
0.000361242
0.000355686
0.000348878
0.000341093
0.000332916
0.000325536
0.000320633
0.000316909
0.000312859
0.000307364
0.000299877
0.000290668
0.000280858
0.000270525
0.000258001
0.000241761
0.000216818
0.000175269
0.000122506
6.80857e-05
0.00014278
0.00020691
0.000255423
0.000288566
0.00031223
0.000330348
0.000344318
0.000354632
0.000361676
0.000365979
0.000368307
0.000369151
0.000368588
0.000366717
0.000363615
0.000359325
0.000353866
0.000347261
0.000339824
0.000332212
0.000325752
0.000321897
0.000319166
0.00031616
0.000311808
0.000305475
0.000297199
0.000287864
0.000277179
0.00026383
0.000246571
0.000220332
0.0001772
0.00012287
6.87229e-05
0.000143093
0.000206948
0.000255124
0.00028797
0.000311417
0.000329369
0.000343189
0.00035336
0.000360267
0.000364454
0.000366711
0.000367456
0.000366785
0.00036482
0.000361664
0.000357392
0.00035205
0.000345692
0.000338667
0.0003317
0.000326229
0.000323302
0.000321374
0.000319175
0.000315742
0.000310431
0.000303109
0.000294416
0.000283601
0.00026961
0.00025143
0.000223931
0.000179236
0.000123345
6.92855e-05
0.000143332
0.000206903
0.000254741
0.000287291
0.000310525
0.000328315
0.000341994
0.000352031
0.000358814
0.000362901
0.0003651
0.000365754
0.000364975
0.00036291
0.000359696
0.000355443
0.000350237
0.000344169
0.000337631
0.000331404
0.000327012
0.000324976
0.000323732
0.000322133
0.000319357
0.00031483
0.000308337
0.000300311
0.000289524
0.000275081
0.00025613
0.000227489
0.000181341
0.00012397
6.9791e-05
0.000143526
0.00020681
0.000254309
0.000286566
0.000309587
0.000327217
0.000340761
0.000350674
0.000357346
0.000361345
0.000363498
0.000364064
0.000363172
0.000360997
0.000357712
0.000353468
0.000348401
0.000342654
0.000336669
0.000331288
0.000328085
0.000326992
0.000326426
0.000325334
0.000323035
0.000319075
0.00031324
0.000305834
0.00029516
0.000280415
0.000260841
0.000231189
0.000183665
0.000124795
7.02515e-05
0.000143677
0.000206667
0.000253825
0.000285788
0.000308597
0.000326071
0.000339485
0.000349284
0.000355858
0.000359786
0.000361905
0.000362386
0.000361376
0.000359076
0.000355694
0.000351433
0.000346488
0.000341067
0.000335682
0.000331238
0.000329328
0.000329267
0.000329435
0.000328822
0.000326866
0.000323258
0.000317878
0.000310941
0.000300391
0.000285448
0.000265382
0.000234861
0.000186071
0.000125749
7.06856e-05
0.000143807
0.000206502
0.000253317
0.000284986
0.000307582
0.000324898
0.000338185
0.000347877
0.000354367
0.00035824
0.000360335
0.000360737
0.000359605
0.000357163
0.000353657
0.000349339
0.000344476
0.00033936
0.00033459
0.000331154
0.000330623
0.000331716
0.000332745
0.000332696
0.000331081
0.000327734
0.000322698
0.000316016
0.000305518
0.000290409
0.000269935
0.00023864
0.000188629
0.000126809
7.11044e-05
0.000143923
0.000206318
0.000252789
0.000284162
0.000306544
0.000323699
0.000336858
0.000346449
0.000352871
0.00035671
0.000358787
0.000359112
0.000357856
0.00035526
0.0003516
0.000347181
0.000342347
0.000337491
0.000333324
0.000330942
0.000331816
0.000334145
0.000336157
0.000336791
0.000335578
0.000332459
0.000327648
0.000321048
0.000310495
0.0002952
0.000274352
0.000242349
0.000191174
0.000127882
7.15225e-05
0.000144042
0.00020614
0.000252266
0.000283342
0.000305505
0.000322496
0.000335522
0.000345013
0.000351381
0.00035523
0.000357277
0.000357531
0.000356157
0.000353402
0.000349562
0.000344995
0.000340124
0.000335462
0.000331862
0.000330562
0.000332823
0.000336452
0.000339577
0.000341052
0.000340376
0.00033755
0.00033293
0.000326303
0.000315592
0.000300054
0.00027882
0.000246118
0.000193769
0.000128959
7.19406e-05
0.00014416