/*--------------------------------*- C++ -*----------------------------------*\
| =========                 |                                                 |
| \\      /  F ield         | OpenFOAM: The Open Source CFD Toolbox           |
|  \\    /   O peration     | Version:  v2006                                 |
|   \\  /    A nd           | Website:  www.openfoam.com                      |
|    \\/     M anipulation  |                                                 |
\*---------------------------------------------------------------------------*/
FoamFile
{
    version     2.0;
    format      ascii;
    class       volScalarField;
    location    "67";
    object      alphat;
}
// * * * * * * * * * * * * * * * * * * * * * * * * * * * * * * * * * * * * * //

dimensions      [1 -1 -1 0 0 0 0];


internalField   nonuniform List<scalar> 
78750
(
0.00069466
0.00149128
0.00097574
0.000184352
4.69548e-05
4.67491e-05
2.43054e-05
3.76901e-05
4.11643e-05
3.27438e-05
4.53256e-05
4.08583e-05
4.62961e-05
4.81227e-05
5.11531e-05
5.51631e-05
6.01332e-05
6.62656e-05
7.29684e-05
7.92403e-05
8.40415e-05
8.72244e-05
8.92231e-05
9.04719e-05
9.14104e-05
9.17941e-05
9.16133e-05
9.13629e-05
9.10065e-05
9.04803e-05
8.96587e-05
8.83089e-05
8.11325e-05
1.99805e-05
5.5578e-07
2.72267e-05
0.000115288
3.24635e-05
2.25757e-05
4.15198e-05
4.05656e-05
5.49045e-05
6.81433e-05
7.70797e-05
9.17975e-05
0.00010138
0.00011195
0.000120588
0.000127888
0.000134725
0.000141368
0.000148381
0.000155827
0.000163645
0.000171685
0.000179764
0.000187808
0.000195756
0.000203589
0.000211549
0.000219121
0.000219647
0.000219591
0.000219394
0.000219005
0.000206522
0.000131141
4.06483e-05
1.09279e-05
1.58301e-06
1.24712e-06
8.80917e-06
1.62712e-05
2.62669e-05
3.3789e-05
6.66317e-05
6.97006e-05
7.10745e-05
7.67832e-05
8.04245e-05
8.38842e-05
8.81421e-05
9.35716e-05
0.000100162
0.000107776
0.000116091
0.000124676
0.00013311
0.00014102
0.000148173
0.000154708
0.000160969
0.000167099
0.000173153
0.000179101
0.00018451
0.000188468
0.00018954
0.000185333
0.000169905
0.000132262
7.11422e-05
2.11233e-05
9.29132e-06
2.95277e-06
3.45468e-07
8.50774e-06
1.73413e-05
2.39826e-05
2.82131e-05
2.60904e-05
2.41353e-05
2.46307e-05
2.69904e-05
3.00139e-05
3.2883e-05
3.58462e-05
3.96386e-05
4.49265e-05
5.20847e-05
6.12744e-05
7.26341e-05
8.64273e-05
0.000102998
0.000122419
0.000143651
0.000163524
0.00017739
0.000182577
0.000180524
0.000174627
0.000167342
0.000158697
0.000146337
0.000126103
9.35011e-05
5.07116e-05
1.77232e-05
7.76229e-06
3.45435e-06
1.71144e-06
2.34373e-05
6.49752e-05
8.09561e-05
7.76439e-05
7.29643e-05
6.91158e-05
6.50939e-05
6.12798e-05
5.80514e-05
5.52075e-05
5.23897e-05
4.95093e-05
4.68815e-05
4.50529e-05
4.4486e-05
4.52711e-05
4.70064e-05
4.9101e-05
5.15523e-05
5.53181e-05
6.20453e-05
7.40949e-05
9.47606e-05
0.000125045
0.000149821
0.000144131
0.000120816
9.82911e-05
7.73548e-05
5.31855e-05
2.67071e-05
1.21712e-05
1.05109e-05
4.90531e-06
2.09301e-06
2.63137e-05
5.0603e-05
6.96973e-05
8.40466e-05
9.33055e-05
9.72193e-05
9.68956e-05
9.41792e-05
9.06496e-05
8.71713e-05
8.39412e-05
8.07522e-05
7.72583e-05
7.31515e-05
6.82024e-05
6.23022e-05
5.56077e-05
4.86465e-05
4.21376e-05
3.64781e-05
3.14654e-05
2.7089e-05
2.4575e-05
2.49883e-05
2.89726e-05
3.9501e-05
6.46176e-05
9.16591e-05
5.95071e-05
3.50591e-05
2.04851e-05
9.7553e-06
8.71571e-06
5.28919e-06
3.30588e-06
2.2094e-05
5.13773e-05
8.68294e-05
0.00011536
0.000130979
0.000135677
0.000133051
0.000127367
0.000122524
0.000120604
0.000121773
0.000124894
0.000128206
0.000130279
0.000130609
0.00012931
0.000126474
0.000121713
0.000114312
0.000103875
9.05957e-05
7.50061e-05
5.81868e-05
4.16245e-05
2.59119e-05
1.49565e-05
1.14754e-05
1.4491e-05
3.12253e-05
2.17662e-05
1.05963e-05
8.26394e-06
1.14709e-05
6.36824e-06
5.8684e-06
2.62624e-05
6.9463e-05
0.000121848
0.000146656
0.000147127
0.000134252
0.000115235
9.71549e-05
8.41715e-05
7.69998e-05
7.54613e-05
8.00645e-05
9.11e-05
0.000105559
0.000116348
0.000119389
0.00011854
0.000119877
0.000126667
0.000138756
0.000152585
0.000162197
0.000163089
0.000154475
0.000131063
8.11933e-05
3.29298e-05
9.73818e-06
1.15107e-06
9.62849e-07
5.31299e-06
6.3983e-06
1.13133e-05
6.8638e-06
8.24974e-06
4.3149e-05
0.000123286
0.000173739
0.000184477
0.000174832
0.000151085
0.000122493
9.84087e-05
8.1841e-05
7.17612e-05
6.68807e-05
6.67354e-05
7.12796e-05
7.96669e-05
8.88085e-05
9.39414e-05
9.30013e-05
9.02117e-05
9.16864e-05
0.000100724
0.000118086
0.000141941
0.000166537
0.000183096
0.000184003
0.000168067
0.000137517
7.53058e-05
1.95856e-05
5.5044e-06
2.78259e-06
5.40362e-06
1.29303e-05
7.74867e-06
8.21695e-06
3.7378e-05
8.94975e-05
0.000137964
0.000158496
0.000159335
0.000147717
0.00012867
0.000107666
8.90377e-05
7.4736e-05
6.52997e-05
6.0898e-05
6.15285e-05
6.66546e-05
7.46157e-05
8.26949e-05
8.83902e-05
8.99762e-05
8.72527e-05
8.43641e-05
8.6946e-05
9.76422e-05
0.000116429
0.000142562
0.000177677
0.000219081
0.00023165
0.000154298
5.60285e-05
2.22273e-05
5.76928e-06
8.45483e-06
2.21734e-05
8.06204e-06
6.82069e-06
2.80459e-05
7.92204e-05
0.000148549
0.00017864
0.000178283
0.000163463
0.000143395
0.000124646
0.000107507
8.99726e-05
7.38858e-05
6.28148e-05
5.83562e-05
6.04523e-05
6.83501e-05
8.04015e-05
9.36373e-05
0.000105033
0.000113021
0.000115268
0.00010844
9.80238e-05
9.56173e-05
0.000105102
0.00012176
0.000135531
0.000140452
0.000137019
0.000109706
4.51031e-05
1.1773e-05
2.50126e-06
1.54587e-05
7.3961e-06
7.93021e-06
3.36257e-05
0.000106506
0.000206489
0.000232497
0.000206859
0.000159355
0.00012084
0.000102929
9.97072e-05
9.81012e-05
8.62879e-05
6.9993e-05
6.03137e-05
6.01272e-05
6.86214e-05
8.353e-05
0.000101088
0.00011766
0.000132404
0.000146122
0.000156153
0.00015534
0.000143548
0.000132694
0.000130607
0.000133156
0.000131443
0.000127886
0.00014316
0.000198364
6.60689e-05
6.43431e-06
7.32357e-06
7.74319e-06
8.37497e-06
3.43866e-05
0.000105885
0.000192396
0.000207975
0.00017753
0.000128811
9.37516e-05
8.03865e-05
8.25513e-05
9.03147e-05
8.96997e-05
7.67509e-05
6.41719e-05
6.10614e-05
6.94345e-05
8.87671e-05
0.000113669
0.000134558
0.000147749
0.000157691
0.000167283
0.000172608
0.000169533
0.000158483
0.000142678
0.000125449
0.000108228
9.18631e-05
7.24848e-05
3.13487e-05
1.75982e-05
7.78361e-06
1.2695e-05
9.88311e-06
9.01802e-06
3.88917e-05
0.000120129
0.000193004
0.000186826
0.000146825
0.000105225
8.12789e-05
7.59861e-05
8.53188e-05
0.000100531
0.000104341
8.99266e-05
7.29909e-05
6.64871e-05
7.34761e-05
9.47404e-05
0.000126938
0.000157746
0.000176321
0.000187555
0.000207866
0.000236531
0.000226944
0.000216554
0.000205125
0.000192245
0.00017803
9.80945e-05
1.86756e-05
8.48977e-06
1.12164e-05
2.37782e-05
8.79232e-05
9.76258e-06
1.11898e-05
6.34268e-05
0.000183806
0.000190083
0.000158285
0.000116877
8.63001e-05
7.29397e-05
7.45605e-05
8.74251e-05
0.000103016
0.000108641
0.000100282
8.6984e-05
7.99344e-05
8.44841e-05
0.000101601
0.000128334
0.000156181
0.000174381
0.000177594
0.000169159
0.000156602
0.000144981
0.000134239
0.000120353
0.000100206
7.55223e-05
5.04683e-05
2.76109e-05
1.36053e-05
1.16287e-05
2.1427e-05
8.05587e-05
8.55179e-06
1.18789e-05
7.04082e-05
0.000179329
0.00019515
0.000174244
0.000142947
0.000115786
9.78812e-05
8.88465e-05
8.70993e-05
8.9694e-05
9.20688e-05
9.05167e-05
8.52493e-05
8.02917e-05
8.02218e-05
8.71858e-05
0.000100046
0.000114662
0.000125709
0.000129819
0.000127055
0.000119422
0.000108877
9.65715e-05
8.3591e-05
7.05082e-05
5.74e-05
4.56907e-05
3.87768e-05
3.64739e-05
2.86458e-05
1.30571e-05
2.40197e-05
5.64852e-06
1.15541e-05
6.61339e-05
0.00017772
0.000201895
0.000191141
0.000168013
0.000139632
0.000113745
9.65847e-05
8.9608e-05
9.09629e-05
9.65403e-05
0.00010043
9.85797e-05
9.29847e-05
8.93193e-05
9.17281e-05
0.000101078
0.000114805
0.000127153
0.000132601
0.000130245
0.000122627
0.000112137
0.000100358
8.80785e-05
7.53673e-05
6.27338e-05
5.77023e-05
7.31711e-05
9.13147e-05
4.32005e-05
4.16177e-06
1.50249e-07
7.16449e-06
1.09839e-05
5.75132e-05
0.00016404
0.000198044
0.000198109
0.000184737
0.000160873
0.000131343
0.000105127
8.85393e-05
8.26505e-05
8.62278e-05
9.63576e-05
0.000106672
0.000110171
0.000107849
0.000108207
0.000118899
0.00014295
0.000174511
0.00019692
0.000199545
0.000187244
0.000168208
0.000145631
0.000121967
0.000102444
8.8048e-05
4.37622e-05
1.71317e-05
1.31733e-05
1.27539e-05
7.94593e-06
1.73141e-05
1.10191e-05
9.97901e-06
4.80842e-05
0.000145745
0.000203675
0.000216398
0.00021267
0.000198074
0.000172921
0.0001397
0.00010851
8.80055e-05
7.96239e-05
8.22578e-05
9.43703e-05
0.000110811
0.000121365
0.000122747
0.000126442
0.000148594
0.000207892
0.000285777
0.000279459
0.000271975
0.000262245
0.000249151
0.000221217
6.47836e-05
1.60348e-05
9.09847e-06
1.45646e-05
3.25162e-05
6.36651e-05
6.81476e-05
9.19236e-05
1.01637e-05
9.78805e-06
4.65356e-05
0.000148134
0.000219352
0.00023019
0.000220578
0.000205096
0.000190022
0.000173545
0.000149419
0.000119525
9.46166e-05
8.032e-05
7.65355e-05
8.2355e-05
9.61392e-05
0.000112052
0.000121541
0.000124625
0.000129711
0.000139854
0.000146864
0.000141426
0.000125609
0.000104085
7.66284e-05
4.43495e-05
1.96286e-05
1.06143e-05
1.28278e-05
2.38561e-05
4.74809e-05
7.87653e-05
4.96577e-05
7.62347e-06
9.83607e-06
4.44046e-05
0.000132808
0.000206409
0.000224046
0.000214933
0.000191898
0.000167928
0.000153174
0.000149567
0.000150297
0.000142261
0.000121782
0.000100351
8.61738e-05
8.02334e-05
8.11889e-05
8.66604e-05
9.30647e-05
9.76796e-05
0.000100845
0.000103765
0.000105041
0.000101648
9.27832e-05
7.98351e-05
6.4231e-05
4.82497e-05
3.51615e-05
2.61303e-05
2.1883e-05
2.34097e-05
2.96002e-05
6.13207e-05
5.28266e-06
9.77593e-06
4.2313e-05
0.000122097
0.000198985
0.000220429
0.000212244
0.000187962
0.000158817
0.00013578
0.000124119
0.000124816
0.000136211
0.00015051
0.000152534
0.000136003
0.000113513
9.6759e-05
8.83301e-05
8.70115e-05
9.05431e-05
9.64699e-05
0.000103049
0.00010872
0.000110657
0.000106209
9.52906e-05
8.14607e-05
7.41383e-05
8.06534e-05
7.18323e-05
3.22113e-05
1.61633e-05
4.37409e-06
1.36578e-06
7.6301e-06
9.73576e-06
4.08913e-05
0.000121957
0.000212948
0.000233822
0.000214722
0.000178806
0.000147812
0.00013106
0.000125287
0.00012693
0.000137302
0.000158483
0.000185103
0.000199404
0.00018435
0.000149034
0.000117105
9.88881e-05
9.41429e-05
0.00010043
0.000115079
0.000133645
0.000146613
0.000144729
0.000132874
0.000126752
9.62555e-05
3.39111e-05
1.69057e-05
1.66333e-05
1.47396e-05
7.24719e-06
1.95133e-05
1.05991e-05
1.06432e-05
4.69025e-05
0.000146068
0.000230841
0.000227993
0.000184392
0.000136538
0.000111479
0.000108891
0.000120759
0.000138613
0.000158735
0.000185879
0.000223873
0.000263017
0.000278315
0.000245873
0.000180039
0.000127221
0.000103667
0.00010564
0.000131175
0.000177483
0.000223075
0.000223571
0.000164817
6.16736e-05
1.51029e-05
1.08089e-05
2.15027e-05
4.25158e-05
4.35095e-05
3.73934e-05
9.73492e-05
1.09403e-05
1.18814e-05
5.91684e-05
0.000180503
0.000228902
0.000201474
0.000144667
0.000103909
9.25137e-05
0.000105455
0.000139067
0.000182252
0.000215425
0.000233271
0.000247587
0.000267329
0.000286725
0.000285345
0.000241635
0.000170978
0.000120344
0.000103972
0.000118434
0.000156758
0.000182307
0.000149351
7.23742e-05
2.03061e-05
8.0605e-06
1.20985e-05
3.01607e-05
6.97075e-05
8.84708e-05
9.03454e-05
6.05109e-05
9.30419e-06
1.2561e-05
7.07746e-05
0.000200414
0.000216437
0.000171364
0.00011445
8.56886e-05
8.43836e-05
0.000105741
0.000149318
0.000207652
0.000259395
0.000287524
0.00028994
0.000274177
0.000250213
0.000222829
0.000192193
0.000159122
0.000128461
0.000108646
0.00010469
0.00011322
0.000117602
9.92726e-05
6.23208e-05
2.64578e-05
1.00465e-05
1.00284e-05
2.08492e-05
4.00282e-05
5.95227e-05
7.66728e-05
3.93019e-05
7.70722e-06
1.23447e-05
7.08372e-05
0.000198226
0.000214292
0.000168704
0.000112156
8.46682e-05
8.46643e-05
0.000106735
0.000145557
0.000189112
0.000225837
0.000250869
0.000261535
0.000254067
0.00022743
0.000190456
0.00015786
0.000137355
0.000127696
0.000124451
0.000124135
0.000124797
0.000123199
0.000114598
9.65147e-05
7.1191e-05
4.55364e-05
2.9011e-05
2.57708e-05
3.13917e-05
3.79256e-05
4.56706e-05
5.46941e-05
5.8279e-06
1.1547e-05
5.74007e-05
0.00017025
0.000210473
0.000189988
0.000135317
8.7281e-05
6.69085e-05
6.95372e-05
9.3953e-05
0.00014047
0.000194479
0.00023289
0.0002484
0.000242265
0.000215614
0.000176872
0.000144476
0.000131145
0.000136882
0.000152901
0.000165996
0.000167937
0.00015957
0.000145432
0.000128429
0.00011073
9.65366e-05
9.01217e-05
9.14557e-05
9.47763e-05
9.75155e-05
3.4864e-05
1.20069e-05
6.35914e-06
1.10347e-05
4.78699e-05
0.000137545
0.000191615
0.000186865
0.000153853
0.000106645
6.8767e-05
5.28367e-05
5.74557e-05
8.4346e-05
0.000139699
0.000216795
0.000285556
0.000322253
0.000319755
0.000277439
0.000212694
0.000162427
0.00014485
0.000157181
0.000187852
0.000215664
0.000222927
0.00021055
0.000190059
0.00017303
0.000167657
0.000163513
0.0001248
7.99947e-05
4.8111e-05
1.74668e-05
1.14017e-05
1.0362e-05
1.06395e-05
4.16969e-05
0.000120699
0.000190252
0.000177146
0.000128676
9.43574e-05
7.35469e-05
5.60205e-05
5.18183e-05
6.92922e-05
0.000119719
0.000218379
0.000348627
0.000448571
0.000458653
0.00045684
0.000378447
0.000268332
0.000194758
0.00017633
0.000204838
0.000257152
0.000287602
0.000278304
0.000245055
0.000190937
0.000104575
5.65483e-05
4.98041e-05
5.57762e-05
4.74561e-05
3.54428e-05
6.88216e-05
1.1501e-05
1.0865e-05
4.09202e-05
0.000121797
0.000194875
0.00014755
8.42546e-05
6.08374e-05
5.82562e-05
5.72698e-05
5.77334e-05
7.84566e-05
0.000140879
0.000261566
0.000399237
0.000463819
0.000463159
0.000400593
0.000304266
0.000249835
0.000260471
0.000339207
0.000417953
0.000413629
0.000408472
0.000332795
0.000203596
9.04874e-05
3.9775e-05
3.05959e-05
4.95266e-05
8.48272e-05
8.8862e-05
8.95298e-05
9.90052e-05
1.03443e-05
1.1953e-05
4.74951e-05
0.000145077
0.000177977
9.32256e-05
5.24515e-05
4.46964e-05
5.22585e-05
6.57589e-05
7.76036e-05
0.000105518
0.000181291
0.000322197
0.000466333
0.000479393
0.000479855
0.000477987
0.00047366
0.00043875
0.00029089
0.00020437
0.000186347
0.000214166
0.000239511
0.000213942
0.000147727
7.86419e-05
3.95836e-05
2.88411e-05
4.02784e-05
7.28337e-05
9.76943e-05
0.000104649
5.20738e-05
8.65302e-06
1.28809e-05
5.68512e-05
0.000175837
0.000117933
4.96043e-05
3.51397e-05
4.16254e-05
5.82186e-05
8.39111e-05
0.000119839
0.000169622
0.000240844
0.00032798
0.000408504
0.000466843
0.000496116
0.000495663
0.000459089
0.00039153
0.000311461
0.000241189
0.00019774
0.000185227
0.000190424
0.000184307
0.000151042
0.000101376
5.85413e-05
3.68606e-05
3.35183e-05
4.33056e-05
6.53708e-05
8.71114e-05
4.33323e-05
7.93039e-06
1.32409e-05
6.46835e-05
0.000166597
7.22493e-05
3.10873e-05
2.94641e-05
5.1057e-05
8.20595e-05
0.000109347
0.000149256
0.000210715
0.000282783
0.000348798
0.000401657
0.000440617
0.000465079
0.000472379
0.000457518
0.000415898
0.000350092
0.00027511
0.00021279
0.000177365
0.000169271
0.000176131
0.000175739
0.000155177
0.000119144
8.22547e-05
5.77392e-05
4.63565e-05
4.72273e-05
6.81021e-05
5.74597e-05
8.19294e-06
1.31997e-05
6.72529e-05
0.000149376
6.58326e-05
2.8254e-05
2.54257e-05
4.74553e-05
8.94292e-05
0.000122699
0.000153125
0.000197867
0.000259685
0.000326628
0.000385005
0.000428387
0.000455811
0.000467356
0.000461611
0.0004351
0.000385161
0.000315962
0.000242547
0.00018485
0.000154505
0.000150775
0.000163019
0.000173132
0.000168508
0.00014881
0.000119462
8.61545e-05
5.89659e-05
5.74134e-05
8.85618e-05
8.96544e-06
1.2895e-05
6.13402e-05
0.000151877
0.000106617
4.12247e-05
2.08567e-05
2.63921e-05
5.59486e-05
9.84092e-05
0.000140571
0.000188497
0.000249828
0.000321599
0.000392801
0.000452596
0.000493869
0.000514351
0.000514934
0.00049525
0.000453733
0.000390183
0.000312201
0.000237074
0.000182182
0.000154012
0.000148504
0.000155881
0.000165506
0.000167799
0.000152596
0.000113226
6.68065e-05
5.53652e-05
0.000105319
9.91449e-06
1.26069e-05
5.16869e-05
0.000132549
0.000145977
7.89666e-05
2.30274e-05
1.29703e-05
2.52706e-05
5.76926e-05
0.000101017
0.000152826
0.000226701
0.000327451
0.000440664
0.000521991
0.000532558
0.000540556
0.000545851
0.000548339
0.000546266
0.00048294
0.000403668
0.000322575
0.000251477
0.000199512
0.000167569
0.00014948
0.00013912
0.000135342
0.000129676
0.000103325
6.88734e-05
6.60613e-05
0.000120792
1.06496e-05
1.26016e-05
4.83203e-05
0.00013027
0.000148004
9.14445e-05
2.99657e-05
9.54519e-06
1.3768e-05
3.96667e-05
8.64071e-05
0.000135845
0.000201007
0.000313585
0.000469047
0.000512551
0.000525685
0.000536431
0.000544655
0.000550181
0.000552846
0.000552505
0.00049451
0.000411784
0.000335251
0.000269452
0.000215101
0.000169678
0.000130447
0.000102589
9.12659e-05
8.40742e-05
7.51685e-05
8.91852e-05
0.00012189
1.09047e-05
1.30731e-05
5.15136e-05
0.000141794
0.0001286
5.25313e-05
2.05279e-05
8.21324e-06
1.14426e-05
3.82051e-05
0.000100068
0.000181755
0.000285962
0.000422512
0.000500771
0.000515683
0.000528628
0.000539532
0.000548288
0.000554741
0.000558721
0.000560048
0.00051393
0.000445022
0.000378291
0.000314353
0.000252093
0.000191043
0.000133449
9.00431e-05
7.20727e-05
7.30395e-05
8.35736e-05
0.000113132
0.000104295
1.07871e-05
1.37396e-05
6.23537e-05
0.000148032
8.54836e-05
2.62695e-05
8.30474e-06
7.28623e-06
1.83228e-05
5.42172e-05
0.000109575
0.000186221
0.000292215
0.000406147
0.000488607
0.00050852
0.000522445
0.000534587
0.000544764
0.000552798
0.000544862
0.000509782
0.000467113
0.000422112
0.000374043
0.000321697
0.000264455
0.000202469
0.000139408
8.785e-05
6.26666e-05
6.38593e-05
8.60083e-05
0.000124974
8.79918e-05
1.06428e-05
1.3412e-05
7.18866e-05
0.000125566
5.924e-05
1.78715e-05
4.16139e-06
8.16289e-06
3.59581e-05
6.76333e-05
8.1275e-05
0.000106644
0.000160529
0.000248414
0.000347485
0.000423779
0.000467007
0.000487256
0.000494601
0.000491467
0.000477532
0.000454475
0.000425335
0.000391952
0.000354557
0.000312468
0.000264747
0.000210571
0.000151246
9.62585e-05
6.25866e-05
5.65275e-05
7.61258e-05
0.000119498
8.02071e-05
1.06323e-05
1.25855e-05
6.66901e-05
0.000138588
9.97979e-05
4.02043e-05
1.0759e-05
2.59302e-06
1.57544e-05
5.05793e-05
7.5905e-05
0.000106037
0.000156162
0.000229519
0.000312544
0.000382221
0.000425448
0.000444582
0.00044816
0.000442456
0.000430113
0.000412107
0.000389058
0.000361353
0.00032902
0.000291861
0.000249541
0.000201611
0.000148735
9.74459e-05
6.2302e-05
5.24043e-05
6.8797e-05
0.000114437
7.39772e-05
1.07184e-05
1.26773e-05
6.23311e-05
0.000146235
0.000161642
0.000144286
5.86647e-05
1.04666e-05
3.03143e-06
2.7292e-06
1.71613e-05
4.06089e-05
7.57163e-05
0.000136724
0.000226558
0.000321395
0.000392174
0.000427624
0.000435354
0.000428198
0.000414384
0.000396764
0.000375415
0.000349676
0.000318973
0.00028296
0.000241343
0.000193836
0.000141582
9.16478e-05
5.77546e-05
4.79643e-05
6.49281e-05
0.000114245
6.49394e-05
1.05693e-05
1.27298e-05
6.52173e-05
0.000164116
0.000158039
0.000134676
0.000111631
4.63132e-05
8.00108e-06
2.1698e-06
1.03279e-06
1.59571e-05
4.28453e-05
8.62583e-05
0.00016121
0.000259171
0.000340727
0.000385139
0.000400017
0.00039858
0.000389529
0.000376422
0.000359359
0.000337117
0.000308629
0.000273432
0.000231495
0.000183281
0.00013144
8.43381e-05
5.40258e-05
4.67175e-05
6.688e-05
0.000116556
5.57722e-05
1.01868e-05
1.25859e-05
6.42782e-05
0.000162985
0.000178355
0.000163737
0.000145575
0.0001193
4.27532e-05
8.95742e-06
2.01408e-06
1.63656e-06
8.29648e-08
2.33861e-05
6.36342e-05
0.000130464
0.000220916
0.000295933
0.000333628
0.000344951
0.000344001
0.000338025
0.000328829
0.000315187
0.000294937
0.000266333
0.000228508
0.000181867
0.000130072
8.31254e-05
5.34131e-05
4.68488e-05
6.89164e-05
0.000116104
5.07354e-05
9.83203e-06
1.24222e-05
6.22012e-05
0.00016931
0.00018875
0.000167764
0.000147872
0.000148894
0.000159021
5.55243e-05
9.01395e-06
1.72526e-07
1.88493e-06
1.51793e-06
1.1389e-05
4.42539e-05
9.95985e-05
0.000180914
0.000254384
0.000291807
0.000302492
0.00030158
0.000296762
0.000289111
0.000276537
0.000256375
0.000226774
0.000187219
0.000140019
9.36902e-05
6.14939e-05
5.22581e-05
7.24455e-05
0.000116546
5.04731e-05
9.63676e-06
1.24122e-05
6.03864e-05
0.00016318
0.000194139
0.000177888
0.000142581
0.000113247
0.000105042
0.000113406
4.509e-05
7.95107e-06
3.72973e-06
6.77476e-07
7.6884e-06
6.22348e-06
3.42885e-05
8.07441e-05
0.00015131
0.000219738
0.000255585
0.00026506
0.000264329
0.000261346
0.000256226
0.000245529
0.000225689
0.00019488
0.000154211
0.000110344
7.61822e-05
6.34961e-05
8.03992e-05
0.00012291
5.57866e-05
9.78428e-06
1.266e-05
6.73522e-05
0.000179283
0.000191725
0.000167294
0.000143509
0.000130788
0.000126652
0.000124351
0.000101165
2.77533e-05
1.66717e-06
3.61261e-06
2.37419e-06
8.18523e-06
4.64439e-06
2.85319e-05
6.77735e-05
0.000127552
0.000186781
0.000218374
0.000227083
0.000227864
0.000227578
0.000225396
0.000217012
0.000198397
0.000168231
0.000130442
9.65962e-05
8.11518e-05
9.46741e-05
0.000133886
6.45176e-05
1.00419e-05
1.25926e-05
6.56053e-05
0.000177658
0.000198914
0.000175055
0.000143403
0.000122851
0.000114548
0.000114273
0.000112513
7.41677e-05
1.87045e-05
2.5967e-06
5.95614e-07
8.11797e-06
1.05782e-05
5.91244e-06
2.74548e-05
6.32825e-05
0.000117073
0.000167204
0.000192024
0.000198719
0.000200717
0.000202416
0.000200906
0.000191376
0.000171335
0.000142985
0.000115176
0.000101562
0.000113999
0.000148083
7.41761e-05
1.04396e-05
1.27407e-05
6.97734e-05
0.000183998
0.000185965
0.000150913
0.000127652
0.000125665
0.000137402
0.000150114
0.000152158
0.000131479
5.84539e-05
1.26407e-05
3.99205e-06
1.42252e-06
1.39228e-06
2.35019e-06
8.01075e-06
2.86397e-05
6.39164e-05
0.000113948
0.000153585
0.000169442
0.000173765
0.00017819
0.000183419
0.000183267
0.000172421
0.000151776
0.00012978
0.000119613
0.000132274
0.000160329
8.11796e-05
1.07327e-05
1.28762e-05
7.22572e-05
0.000187065
0.000181471
0.000143409
0.000121107
0.000120555
0.000134917
0.000155532
0.000171251
0.000166697
0.000122111
3.83274e-05
5.42968e-06
1.43207e-06
8.60277e-06
6.85759e-06
8.86024e-06
1.22521e-05
3.32543e-05
6.95724e-05
0.000114851
0.000142162
0.000149219
0.000151774
0.000157764
0.000163567
0.000162243
0.000152628
0.000141045
0.000138108
0.000152073
0.000171499
8.31867e-05
1.09742e-05
1.28569e-05
7.58565e-05
0.000184138
0.000159651
0.000121199
0.000110984
0.000124156
0.000148193
0.000169914
0.000179609
0.000167726
0.000121346
5.5303e-05
1.29222e-05
1.88115e-06
6.37397e-06
6.39105e-06
3.25563e-06
4.16595e-06
1.76708e-05
4.08505e-05
7.80604e-05
0.000114004
0.000128291
0.000130822
0.000136423
0.000147209
0.000154681
0.000152522
0.00014638
0.000147696
0.000162819
0.000177331
8.39118e-05
1.11259e-05
1.28184e-05
7.76036e-05
0.000181596
0.000140362
0.000103512
0.000101128
0.000124776
0.000161855
0.000194367
0.000209945
0.000202188
0.000163257
9.55873e-05
3.29491e-05
2.87622e-06
1.02961e-06
8.57289e-06
2.0347e-06
1.23352e-05
8.4404e-06
2.17897e-05
4.64972e-05
8.161e-05
0.000105611
0.000111187
0.000113505
0.000122514
0.000136074
0.000146754
0.00015317
0.000161712
0.000176013
0.000180679
7.92642e-05
1.10883e-05
1.2823e-05
7.69617e-05
0.000176712
0.000127559
9.42776e-05
9.75949e-05
0.00012472
0.000161453
0.00019558
0.000220887
0.00023219
0.000217036
0.000156834
7.49055e-05
2.39293e-05
3.4314e-06
8.75279e-06
4.92321e-06
1.26484e-05
3.54621e-06
1.07614e-05
2.47998e-05
5.10018e-05
8.22615e-05
9.66271e-05
9.89003e-05
0.000104848
0.000119614
0.000137028
0.000150428
0.000163134
0.000178076
0.000180001
7.74953e-05
1.1106e-05
1.29724e-05
7.97388e-05
0.000167454
0.000104654
7.71167e-05
8.7195e-05
0.000123131
0.000169879
0.000210731
0.000239874
0.00025758
0.00026165
0.000238003
0.00015961
6.15712e-05
1.73308e-05
3.45805e-06
6.62114e-06
1.69532e-05
1.54917e-06
4.98575e-06
1.14966e-05
2.67059e-05
5.37411e-05
8.02677e-05
8.87478e-05
9.02541e-05
9.87858e-05
0.00011796
0.000142634
0.000164846
0.000180197
0.000176064
7.34581e-05
1.10734e-05
1.30826e-05
8.0559e-05
0.000158698
9.28543e-05
7.20605e-05
8.90095e-05
0.00012926
0.000173524
0.000210303
0.000238639
0.000258932
0.000268704
0.000259965
0.000216297
0.000130025
4.62778e-05
1.01079e-05
2.3428e-09
1.81309e-06
6.7008e-06
6.58015e-06
6.89932e-06
1.31912e-05
3.00587e-05
5.65157e-05
7.76507e-05
8.48082e-05
8.977e-05
0.000102559
0.000123984
0.00014907
0.000170364
0.00017262
7.42831e-05
1.12673e-05
1.31682e-05
8.13294e-05
0.000145545
7.70772e-05
5.99769e-05
8.05845e-05
0.000129033
0.000182881
0.000225179
0.000255585
0.000276305
0.000285908
0.000277195
0.000236147
0.000157821
7.6652e-05
2.885e-05
8.90353e-06
8.64854e-06
1.44269e-05
1.27269e-05
8.35438e-06
8.60305e-06
1.79776e-05
3.8787e-05
6.32829e-05
7.58424e-05
8.07371e-05
9.01122e-05
0.000110236
0.00013864
0.000164045
0.000167889
7.21339e-05
1.14099e-05
1.31431e-05
7.75565e-05
0.000139027
7.53848e-05
5.66188e-05
7.2286e-05
0.000113131
0.000163646
0.000208773
0.00024496
0.000273281
0.000293159
0.000299724
0.000280585
0.000219867
0.000130392
5.99011e-05
2.60602e-05
1.735e-05
2.16418e-05
1.89787e-05
9.82958e-06
5.12529e-06
8.50108e-06
2.35763e-05
4.94071e-05
6.96721e-05
7.647e-05
8.22824e-05
9.65133e-05
0.000122484
0.000153781
0.000166379
7.19798e-05
1.16321e-05
1.28463e-05
6.87866e-05
0.000139855
8.75057e-05
5.58948e-05
5.62872e-05
8.03472e-05
0.000125754
0.000180535
0.000229129
0.000267109
0.00029502
0.000311236
0.000308162
0.000269913
0.000189171
0.000102812
5.08066e-05
2.89274e-05
2.94416e-05
3.35231e-05
2.22371e-05
9.93135e-06
6.70629e-06
1.45677e-05
3.63113e-05
6.1954e-05
7.0516e-05
7.68802e-05
9.35442e-05
0.000123213
0.000156571
0.000163974
6.56184e-05
1.14767e-05
1.24436e-05
5.83104e-05
0.000136564
0.000126337
7.44041e-05
4.67525e-05
4.58181e-05
6.83818e-05
0.00011767
0.000181862
0.000240309
0.000286027
0.000319764
0.000340658
0.000341619
0.000303621
0.000212393
0.00011419
6.00594e-05
3.82825e-05
3.35493e-05
2.3705e-05
9.532e-06
3.46384e-06
6.58867e-06
2.16854e-05
5.13772e-05
7.08188e-05
7.41119e-05
8.95165e-05
0.000123118
0.000158949
0.00015833
5.8237e-05
1.10815e-05
1.20645e-05
5.1494e-05
0.000125498
0.000148478
0.000120709
6.08991e-05
3.46002e-05
3.70562e-05
6.63636e-05
0.000127968
0.000206217
0.000273846
0.000322147
0.000350979
0.000358161
0.000337312
0.000279012
0.000188884
0.000107209
6.2467e-05
4.59356e-05
4.3638e-05
2.855e-05
1.04889e-05
4.83909e-06
1.02289e-05
2.957e-05
6.38344e-05
8.18819e-05
9.36326e-05
0.000124932
0.000159424
0.000149974
5.26009e-05
1.06641e-05
1.20895e-05
5.0352e-05
0.000131933
0.000165132
0.000146397
9.30066e-05
4.25289e-05
2.95983e-05
4.40727e-05
9.12226e-05
0.000173028
0.000261402
0.000332327
0.000382769
0.000414157
0.000425085
0.000408371
0.000349485
0.000247573
0.000147102
8.62107e-05
5.6482e-05
3.98532e-05
2.19287e-05
8.4082e-06
5.56738e-06
1.24956e-05
3.39357e-05
7.43571e-05
0.000103208
0.000125567
0.000154374
0.00014781
5.04337e-05
1.03978e-05
1.25274e-05
5.30828e-05
0.000150128
0.000154562
0.000106153
7.78894e-05
5.21377e-05
3.77684e-05
4.84279e-05
9.34178e-05
0.000174005
0.000260794
0.000330021
0.00037848
0.000407021
0.000415165
0.000401547
0.000364602
0.000303922
0.000226152
0.000150829
9.81786e-05
6.85736e-05
4.79553e-05
2.45306e-05
9.27121e-06
6.79359e-06
1.40008e-05
3.73145e-05
9.01939e-05
0.000135219
0.000154759
0.000140488
4.88481e-05
1.03191e-05
1.33286e-05
6.00311e-05
0.000162934
0.000106836
6.00753e-05
4.67869e-05
4.63242e-05
5.27932e-05
7.865e-05
0.000138653
0.000215527
0.000280564
0.000330586
0.000369833
0.000400435
0.000423237
0.000437704
0.000439435
0.00041862
0.000365938
0.000286279
0.0002029
0.000138687
9.72258e-05
6.66831e-05
3.62474e-05
1.48926e-05
9.37299e-06
1.61586e-05
4.15687e-05
0.000100685
0.000141919
0.000132986
4.83846e-05
1.04081e-05
1.39749e-05
8.07106e-05
0.000126495
5.48032e-05
3.79317e-05
3.97407e-05
5.46481e-05
9.58414e-05
0.000173546
0.000244813
0.000290192
0.000324443
0.000355308
0.000383423
0.000406842
0.000422626
0.000427124
0.000416161
0.000386686
0.000340123
0.000283752
0.000227668
0.000179942
0.000143404
0.000113831
8.04551e-05
4.23505e-05
1.79012e-05
1.20637e-05
2.19603e-05
5.59521e-05
0.00011441
0.000129955
4.91108e-05
1.07573e-05
1.38072e-05
0.000129233
5.1746e-05
2.89115e-05
3.635e-05
6.38375e-05
0.000121388
0.000215868
0.000279323
0.000299307
0.000309211
0.00031919
0.000331447
0.000347747
0.000368312
0.000389497
0.0004037
0.000402656
0.000382579
0.000346714
0.000302981
0.000259578
0.000221706
0.000190162
0.000160686
0.000125257
8.04288e-05
3.88549e-05
1.72027e-05
1.52077e-05
3.31421e-05
8.71997e-05
0.000125445
4.85902e-05
1.10633e-05
1.30675e-05
0.000101047
2.99971e-05
2.96358e-05
7.7059e-05
0.000162386
0.000199807
0.000219956
0.000237876
0.000254214
0.000269057
0.000283056
0.000296437
0.000309045
0.000320327
0.000329441
0.000335258
0.000336261
0.000330805
0.000317989
0.000298587
0.000275093
0.00025045
0.000226204
0.000200904
0.00016965
0.000126685
7.46944e-05
3.34251e-05
1.69355e-05
2.23465e-05
5.7296e-05
0.000121452
4.96221e-05
1.13297e-05
1.21676e-05
0.000102052
4.23586e-05
4.98055e-05
0.000103056
0.000140465
0.000153517
0.000165284
0.00017986
0.000194762
0.000207367
0.000218147
0.00023038
0.000247281
0.000269111
0.000292219
0.000311004
0.000321504
0.000323083
0.000317275
0.000305886
0.000290147
0.000270964
0.000249042
0.000224419
0.000195522
0.000158349
0.00010909
5.67258e-05
2.5276e-05
2.05735e-05
4.32222e-05
0.00011667
5.15733e-05
1.14812e-05
1.16608e-05
7.55733e-05
0.000132405
7.70035e-05
5.56552e-05
5.42919e-05
6.18949e-05
8.0798e-05
0.0001126
0.000150394
0.000183792
0.000208217
0.000222938
0.000230888
0.000238506
0.000250859
0.000268408
0.000287077
0.000301215
0.000307466
0.00030571
0.000297328
0.000283353
0.000263982
0.000239023
0.000208098
0.000169964
0.000122663
7.05957e-05
3.35931e-05
2.32382e-05
4.17812e-05
0.000120618
5.3034e-05
1.14563e-05
1.15534e-05
5.08475e-05
0.000113458
0.000132642
9.0691e-05
5.21714e-05
3.59938e-05
3.11364e-05
3.74925e-05
6.21547e-05
0.000110753
0.000168391
0.000214989
0.000245814
0.00026167
0.000267749
0.000272792
0.000282083
0.000293961
0.000302552
0.000303104
0.000295058
0.000280474
0.000260819
0.000235612
0.00020322
0.000162758
0.000116269
7.0902e-05
3.90644e-05
2.96532e-05
5.15296e-05
0.000135206
5.23785e-05
1.11599e-05
1.16805e-05
5.12711e-05