/*--------------------------------*- C++ -*----------------------------------*\
| =========                 |                                                 |
| \\      /  F ield         | OpenFOAM: The Open Source CFD Toolbox           |
|  \\    /   O peration     | Version:  v2006                                 |
|   \\  /    A nd           | Website:  www.openfoam.com                      |
|    \\/     M anipulation  |                                                 |
\*---------------------------------------------------------------------------*/
FoamFile
{
    version     2.0;
    format      ascii;
    class       volScalarField;
    location    "67";
    object      omega;
}
// * * * * * * * * * * * * * * * * * * * * * * * * * * * * * * * * * * * * * //

dimensions      [0 0 -1 0 0 0 0];


internalField   nonuniform List<scalar> 
78750
(
1298.14
182.097
118.86
51.1664
26.6397
20.5696
17.193
18.2589
19.0579
17.2165
18.4741
17.6065
17.8495
17.649
17.606
17.5557
17.5387
17.5459
17.5684
17.5939
17.6111
17.6177
17.6152
17.6068
17.5948
17.5799
17.5613
17.5381
17.5081
17.4672
17.4071
17.3125
17.1794
16.9399
497.552
499.74
6.38427
11.393
4.02757
11.3046
10.0502
10.4289
10.5219
10.3824
10.4837
10.4184
10.4245
10.3975
10.3802
10.363
10.3499
10.3408
10.3356
10.3337
10.3342
10.3359
10.3378
10.3392
10.3392
10.3375
10.3339
10.328
10.3194
10.3073
10.2907
10.2681
10.2319
10.1311
9.56062
737.634
400.802
5.83002
6.88827
6.90779
6.43561
7.16285
7.46227
7.75445
8.03665
8.26068
8.48439
8.69328
8.89288
9.07765
9.24578
9.39648
9.53059
9.64972
9.7558
9.85098
9.93702
10.0147
10.0841
10.1447
10.1957
10.2363
10.2665
10.2867
10.2978
10.3007
10.2947
10.2733
10.204
10.282
742.044
398.223
5.63291
6.38761
6.62381
6.786
6.75417
6.75411
6.82003
6.89877
6.95779
7.00214
7.0703
7.19149
7.37184
7.5983
7.85083
8.11092
8.36517
8.60553
8.82884
9.03476
9.22469
9.40087
9.56527
9.71881
9.86079
9.98902
10.1002
10.1916
10.2607
10.3032
10.3005
10.1495
9.83567
743.738
401.284
8.68113
9.8933
10.5843
10.9965
11.2066
11.2469
11.1555
10.965
10.6966
10.3627
9.97041
9.53095
9.06734
8.61712
8.22561
7.93249
7.75996
7.70875
7.76301
7.89665
8.08065
8.28927
8.50339
8.71248
8.91733
9.12631
9.3439
9.56638
9.78692
9.99632
10.1881
10.4783
11.7034
748.248
402.132
10.7724
12.4139
13.312
13.8638
14.2161
14.4374
14.5593
14.5962
14.555
14.4385
14.2459
13.9724
13.6103
13.1518
12.5902
11.9217
11.1478
10.2829
9.37085
8.49398
7.76907
7.31393
7.17254
7.26871
7.47259
7.69599
7.91757
8.17127
8.52831
9.029
9.56235
9.86516
11.1292
749.472
404.476
12.6182
14.3388
15.148
15.5571
15.7584
15.8303
15.8115
15.7289
15.6098
15.4815
15.3655
15.2705
15.1897
15.103
14.9851
14.8112
14.5591
14.2107
13.7524
13.1738
12.464
11.6036
10.5835
9.42795
8.2171
7.18233
6.60311
6.45055
6.60341
7.25763
8.70649
10.3067
12.491
752.81
409.418
14.4593
15.8095
16.2689
16.3826
16.3163
16.1129
15.7818
15.3328
14.7988
14.2396
13.7314
13.3514
13.1467
13.1086
13.1892
13.3356
13.4999
13.6362
13.7049
13.6815
13.5595
13.3452
13.0487
12.6776
12.2225
11.5838
10.2505
7.35194
3.9848
3.61728
6.56051
9.55734
12.6919
754.301
417.333
17.0041
17.8358
18.1014
18.1735
18.1134
17.9192
17.5698
17.0495
16.3686
15.5643
14.6956
13.8449
13.1076
12.5558
12.2105
12.0556
12.0663
12.212
12.4378
12.6725
12.856
12.9578
12.9726
12.9031
12.7461
12.4799
12.0547
11.3439
9.5079
5.76573
5.37769
9.49133
13.2257
757.058
416.681
17.0785
18.25
18.7884
19.0704
19.1981
19.1964
19.0629
18.7802
18.3297
17.71
16.9493
16.1061
15.2482
14.4247
13.6643
12.9918
12.4403
12.0489
11.8493
11.8462
11.996
12.2142
12.4185
12.5524
12.5861
12.5092
12.3197
11.9594
11.1372
9.1032
7.36048
11.8193
15.7944
758.424
414.233
17.174
18.8524
19.53
19.8476
19.9938
20.0183
19.9318
19.7327
19.4089
18.9329
18.2828
17.4935
16.6767
15.9424
15.3101
14.728
14.1434
13.5414
12.9493
12.4199
12.0082
11.7653
11.7115
11.7878
11.8949
11.9628
11.947
11.8029
11.4607
10.6357
7.9822
6.48989
14.7565
756.439
419.156
18.2833
19.4773
19.8577
19.9798
19.9714
19.8496
19.6092
19.2672
18.8564
18.3746
17.7746
17.0157
16.1638
15.3899
14.8094
14.3997
14.0738
13.7564
13.4153
13.0577
12.7105
12.396
12.1314
11.9449
11.8611
11.8666
11.9315
12.0325
12.1402
12.1828
12.0454
8.70285
11.0358
757.143
421.766
18.5683
19.706
20.1013
20.2209
20.175
19.9693
19.6053
19.1555
18.7024
18.2483
17.74
17.1068
16.3275
15.5076
14.7963
14.2537
13.8435
13.4987
13.17
12.837
12.5032
12.1774
11.8602
11.5545
11.2713
11.0227
10.8216
10.6845
10.613
10.5827
11.5084
10.442
12.672
762.958
424.904
19.4518
20.4205
20.6949
20.6968
20.5031
20.1041
19.5397
18.9646
18.4819
18.0562
17.6136
17.0927
16.4769
15.8435
15.2941
14.8542
14.4929
14.1617
13.8187
13.4344
13.0053
12.5632
12.1107
11.6287
11.1058
10.525
9.89217
9.22805
8.75164
9.94447
13.6888
16.8513
18.5996
765.417
434.879
20.8951
20.9259
20.7796
20.5247
20.1123
19.5035
18.7851
18.1493
17.6696
17.2755
16.8845
16.4432
15.9449
15.4575
15.073
14.8054
14.6093
14.4359
14.253
14.035
13.7601
13.4143
12.999
12.5253
12.0005
11.4195
10.7648
10.0697
9.58932
10.1162
12.8047
17.317
20.643
760.572
437.182
20.765
20.8372
20.8216
20.7157
20.4796
20.0833
19.5487
18.9601
18.4121
17.9392
17.5139
17.0867
16.6183
16.1114
15.6285
15.2363
14.9449
14.7214
14.5282
14.3367
14.1265
13.8826
13.5953
13.2523
12.8466
12.3787
11.8474
11.2512
10.6522
10.2009
10.1768
10.7665
14.2934
751.245
435.188
20.6345
20.8806
20.9788
21.0009
20.9328
20.7415
20.3891
19.872
19.2604
18.6564
18.1157
17.6312
17.1681
16.7009
16.2381
15.821
15.4815
15.2172
15.0024
14.8076
14.6098
14.3931
14.1477
13.8674
13.5493
13.1974
12.8215
12.4823
12.1008
11.1964
10.1178
6.60359
3.89056
755.345
433.206
20.4641
20.9064
21.1384
21.2802
21.3251
21.2477
21.0157
20.6019
20.0214
19.358
18.7158
18.1449
17.6276
17.1201
16.5999
16.0935
15.6549
15.3129
15.0501
14.8227
14.5862
14.3082
13.9675
13.551
13.0543
12.4901
11.8664
10.8764
10.1765
10.9587
11.1911
9.7995
13.1792
768.616
428.378
19.9709
20.8546
21.3271
21.6593
21.8896
22.0025
21.9643
21.7253
21.2417
20.5392
19.7413
18.9978
18.3818
17.8626
17.3586
16.809
16.231
15.7048
15.2874
14.9682
14.6689
14.3177
13.863
13.2556
12.4104
11.1589
9.78383
10.6647
14.7569
18.2554
18.8095
18.3096
19.5617
767.127
427.547
19.8363
20.7207
21.161
21.4718
21.7299
21.9464
22.1058
22.1654
22.0511
21.6711
20.992
20.1143
19.2231
18.4688
17.8868
17.4119
16.9491
16.4427
15.9144
15.4239
14.9966
14.6017
14.1736
13.6205
12.8212
11.6669
10.3284
10.0877
12.6955
16.5694
19.1679
20.6063
21.558
757.921
427.669
19.861
20.8465
21.3334
21.6448
21.8727
22.0502
22.1991
22.3273
22.4232
22.4364
22.2739
21.8381
21.1119
20.2024
19.2782
18.4709
17.8234
17.2952
16.8181
16.3508
15.8978
15.4781
15.0864
14.6965
14.266
13.7315
13.0317
12.249
11.7167
11.6609
12.0607
13.6885
15.8635
750.212
427.686
19.9753
21.104
21.6626
22.0037
22.2369
22.3975
22.5039
22.5701
22.6105
22.638
22.6396
22.558
22.3093
21.8186
21.0711
20.1495
19.1983
18.3474
17.6463
17.0652
16.5556
16.0937
15.6699
15.2745
14.8907
14.4971
14.1355
13.7919
12.9565
11.2702
9.72104
6.89498
5.07315
757.214
428.495
20.2817
21.3688
21.8632
22.1491
22.3506
22.5125
22.6572
22.7845
22.8757
22.928
22.9573
22.9579
22.8917
22.7073
22.339
21.7108
20.8025
19.725
18.6766
17.7832
17.0356
16.3841
15.796
15.2417
14.6925
14.1624
13.5109
12.1139
11.6148
12.1751
11.4729
9.53138
13.1352
771.808
433.769
21.1891
21.8259
22.0819
22.2236
22.3284
22.4356
22.5797
22.7509
22.8812
22.9311
22.9263
22.9027
22.8605
22.7731
22.6047
22.2917
21.7116
20.7455
19.5049
18.3068
17.3112
16.4596
15.6591
14.8184
13.8249
12.4434
10.6815
11.8829
15.4602
16.76
16.1019
16
19.2451
772.717
440.923
21.9479
22.0829
22.1394
22.18
22.2272
22.323
22.5309
22.8355
23.1068
23.2474
23.26
23.1871
23.0683
22.9228
22.7455
22.5084
22.1458
21.5146
20.4516
19.1168
17.8883
16.8454
15.8113
14.5586
12.8802
10.7511
9.91053
13.4525
18.0515
19.8443
19.9202
19.8732
20.9435
765.364
445.572
22.2516
22.1728
22.1623
22.1699
22.194
22.2781
22.4788
22.7667
23.0479
23.247
23.3467
23.3553
23.2799
23.1267
22.9029
22.6112
22.237
21.7331
21.014
20.038
18.9444
17.8994
16.8466
15.5811
13.9007
11.7244
9.85177
11.0433
14.9132
17.7633
19.4617
20.7752
21.743
758.457
444.03
21.8094
21.8421
21.9008
21.9524
22.0117
22.1498
22.4304
22.7671
23.0468
23.2372
23.3456
23.3806
23.3451
23.2362
23.0458
22.7654
22.4017
21.9835
21.5265
21.0108
20.4243
19.7912
19.1115
18.3407
17.3847
16.124
14.5678
13.1688
12.8437
13.5543
14.6087
15.9715
17.6248
751.942
438.697
21.5701
21.8807
21.9758
21.9621
21.8604
21.7265
21.745
22.0818
22.6056
23.053
23.332
23.4634
23.4767
23.3868
23.1952
22.8958
22.5086
22.1301
21.8521
21.6469
21.4426
21.195
20.8834
20.4943
20.0071
19.3892
18.6109
17.6954
16.6962
15.6573
14.7259
13.1687
9.00497
753.255
435.686
21.8756
22.3667
22.4753
22.432
22.265
21.9542
21.5154
21.28
21.7
22.4738
23.1114
23.4977
23.6894
23.7404
23.6738
23.4876
23.1583
22.6911
22.2275
21.9183
21.7445
21.6222
21.4973
21.3389
21.126
20.8456
20.4919
19.9419
18.9217
17.6446
16.1767
12.8936
11.0206
766.307
434.921
21.8847
22.4125
22.4947
22.4293
22.274
22.0638
21.7298
21.1795
21.1276
21.9257
22.8346
23.438
23.7622
23.9056
23.92
23.8168
23.5829
23.1677
22.5585
21.9597
21.5631
21.313
21.1036
20.8674
20.5578
20.1156
19.3534
18.634
19.1369
19.3463
18.3088
17.0035
19.0482
774.159
437.754
22.3409
22.6296
22.5129
22.2489
21.9031
21.6904
21.6648
21.4611
21.4145
22.2091
23.1625
23.7584
24.0589
24.178
24.1595
23.9955
23.6448
23.0958
22.5063
22.1027
21.8605
21.6591
21.4211
21.082
20.525
19.5407
18.187
18.2408
20.4003
21.2997
20.9152
20.5962
21.8662
770.428
444.946
23.1246
22.8364
22.3765
21.7608
21.1481
21.026
21.4211
21.852
22.2308
23.0313
23.9236
24.4863
24.7871
24.9427
24.9852
24.908
24.7044
24.3617
23.8046
22.9428
22.0072
21.354
20.9536
20.5974
20.1097
19.3379
18.3458
18.1509
19.7579
21.1384
21.5185
21.5961
22.0707
763.899
452.86
23.6003
22.7378
21.8816
20.7851
20.2256
20.6467
21.4494
22.403
23.312
24.1305
24.7933
25.2568
25.5598
25.7455
25.8344
25.8303
25.7246
25.4944
25.0978
24.4802
23.6414
22.7326
21.933
21.2339
20.5184
19.6736
18.6729
17.8506
17.9486
18.807
19.748
20.5309
21.1581
760.98
456.007
23.3469
22.1784
20.9612
19.385
19.3739
20.7041
21.8176
22.9119
24.0082
24.9043
25.5386
25.9793
26.285
26.486
26.5959
26.6195
26.5558
26.3971
26.1237
25.7019
25.1028
24.3748
23.6855
23.1218
22.5753
21.9167
21.0748
20.0644
19.0856
18.427
18.291
18.8709
19.8972
760.91
455.674
23.1628
21.9572
20.553
18.6329
18.3828
20.1284
21.5455
22.7366
23.8886
24.9357
25.7631
26.3688
26.8019
27.1014
27.2875
27.3684
27.3458
27.2155
26.9637
26.5602
25.9577
25.1341
24.2285
23.5684
23.2561
23.0651
22.7668
22.2499
21.5016
20.5475
19.4469
18.7645
19.7364
762.982
451.486
23.0524
22.2001
21.0909
19.2674
17.2894
18.1246
19.9496
21.5424
23.0115
24.3657
25.5045
26.3861
27.0426
27.5208
27.854
28.0597
28.1437
28.1042
27.9315
27.6015
27.0674
26.2658
25.1903
24.0601
23.2747
22.9829
22.9783
22.946
22.6678
22.0375
20.8962
19.7954
20.7738
766.705
448.421
23.4131
22.8499
22.0382
20.6389
17.5925
15.2683
17.2121
19.3209
21.1533
22.9064
24.475
25.722
26.6578
27.3544
27.8891
28.2958
28.5702
28.7057
28.6969
28.5311
28.1725
27.5671
26.6627
25.4846
24.2424
23.2711
22.8099
22.8447
22.986
22.7477
21.8938
21.2706
22.4194
770.576
449.09
23.7584
23.1195
22.2271
20.8827
18.3159
13.3595
14.616
17.5712
19.7868
21.6847
23.464
24.9628
26.061
26.8792
27.5481
28.1016
28.5313
28.8273
28.9808
28.9837
28.8222
28.4594
27.8499
26.9671
25.8429
24.6118
23.5197
22.9393
23.0678
23.2046
22.8523
22.7678
23.8424
773.272
454.381
24.0301
22.9275
21.6513
19.6518
16.5149
12.324
13.349
17.1983
20.0987
22.3179
24.0628
25.3406
26.2747
27.0394
27.7071
28.274
28.7351
29.0823
29.3066
29.3985
29.3477
29.1287
28.7062
28.0489
27.1384
25.9883
24.6886
23.5567
23.2547
23.5691
23.6248
23.8012
24.67
774.439
462.455
24.1185
22.4285
20.549
17.2305
12.4472
11.3255
14.2673
17.5733
20.0616
22.1888
23.7991
24.9648
25.8821
26.6842
27.4095
28.045
28.5819
29.0116
29.3282
29.5288
29.6001
29.5159
29.2476
28.7655
28.0391
27.0412
25.7688
24.368
23.5021
23.7374
24.1247
24.4629
25.2222
775.705
462.384
23.3938
21.7322
19.551
15.2451
9.03915
10.4008
14.7364
17.0097
18.7683
20.8555
22.8519
24.3677
25.452
26.2941
27.0107
27.6468
28.2071
28.6832
29.0674
29.3493
29.5121
29.5329
29.3855
29.0414
28.4696
27.6366
26.5118
25.1251
23.8723
23.6424
24.1002
24.6005
25.4889
777.657
453.576
23.0785
22.3413
21.0261
18.2676
12.9299
7.35176
12.0821
15.1079
17.6135
20.0798
22.1988
23.7642
24.905
25.794
26.5418
27.2021
27.7921
28.3082
28.7389
29.0685
29.2784
29.3472
29.2512
28.9644
28.4588
27.704
26.6707
25.3655
24.0513
23.5644
24.034
24.7235
25.8839
780.109
449.571
23.6109
23.5096
23.2848
22.6074
20.2644
12.9973
8.3004
6.74035
10.7972
14.8738
18.4706
21.2368
23.1307
24.4222
25.4018
26.2186
26.9347
27.5656
28.1035
28.53
28.8236
28.9621
28.922
28.679
28.2065
27.4761
26.4591
25.1628
23.8443
23.3481
23.9782
24.8765
26.2168
780.829
449.892
23.3489
23.1622
22.9216
22.5185
21.7568
19.5137
11.3622
6.84063
5.19593
9.87011
14.4035
18.234
20.9712
22.7907
24.0702
25.0862
25.9637
26.7401
27.4122
27.9596
28.3574
28.5814
28.6081
28.4134
27.9708
27.2508
26.2253
24.9143
23.6146
23.196
23.9684
24.9505
26.2617
779.38
448.016
23.2847
23.3513
23.3197
23.1426
22.7047
21.78
19.2832
11.7695
6.55227
5.8531
4.52227
11.4347
16.4473
19.7587
21.9142
23.4234
24.5999
25.6052
26.4842
27.2285
27.8087
28.1936
28.3562
28.2721
27.9161
27.2585
26.2662
24.948
23.5816
23.0495
23.7996
24.7976
26.0302
777.323
446.75
23.2544
23.5114
23.6659
23.7431
23.7066
23.4987
22.9218
20.4904
11.8272
4.15887
5.89154
5.17811
8.25964
14.1416
18.1911
20.8303
22.6428
24.0215
25.1826
26.1849
27.0223
27.658
28.0567
28.1907
28.0358
27.5641
26.7412
25.5503
24.1572
23.2765
23.5969
24.4155
25.5214
775.414
446.902
23.3244
23.6055
23.7846
23.8775
23.7993
23.3908
22.6454
21.8113
19.2857
11.1834
8.16459
4.80247
6.94812
6.45101
12.7392
17.2379
20.1336
22.117
23.6402
24.9157
26.018
26.9334
27.6132
28.0171
28.1205
27.9038
27.341
26.4065
25.1697
24.0903
23.9026
24.4002
25.3419
775.137
448.228
23.2539
23.4437
23.6235
23.7868
23.886
23.8045
23.3372
22.3544
20.8865
16.7404
5.95196
4.24036
5.44808
6.70005
5.89784
12.0892
16.7118
19.7027
21.7741
23.3869
24.7481
25.9379
26.9235
27.6428
28.0513
28.1262
27.8491
27.1983
26.197
25.1158
24.5649
24.7039
25.4062
775.183
448.373
23.4129
23.7196
24.0011
24.2713
24.4715
24.4526
24.0522
23.2159
21.9895
20.2225
14.5578
6.85023
4.69755
6.781
7.07879
6.38541
12.2993
16.8172
19.7476
21.8063
23.447
24.8609
26.1025
27.1119
27.819
28.1899
28.2107
27.8663
27.1641
26.268
25.6194
25.5154
26.0023
776.602
448.223
23.1403
23.307
23.5352
23.8373
24.1875
24.4536
24.4597
24.0806
23.2474
21.905
19.7012
12.5088
7.73061
4.99716
4.63814
4.95789
7.2549
12.8965
17.2125
19.9899
21.9866
23.6447
25.1288
26.4274
27.4297
28.0609
28.3114
28.1897
27.718
27.0246
26.4339
26.235
26.5687
777.613
450.132
23.3838
23.4896
23.7189
24.0584
24.4529
24.7223
24.7279
24.4595
23.9226
23.0383
21.5222
18.2838
8.78859
5.32078
6.88109
5.73251
6.85352
8.8081
14.1027
18.0343
20.5796
22.4797
24.134
25.6645
26.9777
27.9225
28.4481
28.5724
28.3342
27.8488
27.3611
27.1203
27.3242
779.27
449.735
23.0905
23.1096
23.3225
23.7447
24.3057
24.7194
24.7902
24.4995
23.8669
22.8657
21.3078
18.5291
11.9129
5.76768
6.51172
5.5178
4.9856
5.74424
10.819
15.6779
19.0669
21.3478
23.1738
24.8424
26.3728
27.5665
28.2881
28.5709
28.501
28.1982
27.853
27.665
27.8412
780.293
449.832
23.0641
23.0134
23.1831
23.6453
24.3341
24.8872
25.1102
25.0167
24.6284
23.9062
22.7019
20.6724
16.8098
6.3326
4.73849
6.15504
4.5287
7.64591
7.70861
12.5241
17.0129
20.0031
22.1306
23.9785
25.7289
27.261
28.3118
28.8218
28.9047
28.7186
28.4404
28.2407
28.3171
780.985
449.172
22.981
22.8488
22.9411
23.4156
24.2473
25.0007
25.4391
25.5529
25.3708
24.9011
24.1009
22.75
20.2094
14.91
6.4526
7.14259
5.16523
6.90724
5.46572
9.00493
13.8073
18.0465
20.7557
22.7792
24.6366
26.3986
27.8074
28.6258
28.9248
28.896
28.7214
28.5663
28.6335
781.704
450.345
23.0509
22.7095
22.6165
23.0069
23.8792
24.7009
25.2403
25.5095
25.5348
25.3167
24.8354
24.0298
22.6453
19.7861
12.7824
6.12537
6.03238
7.25097
4.54558
6.29708
9.81749
14.8208
18.9008
21.5012
23.5257
25.4073
27.1215
28.3615
28.9871
29.1549
29.0837
28.9601
29.0062
782.862
451.605
23.221
22.7553
22.5673
23.003
24.0069
24.9022
25.4935
25.8173
25.9046
25.7651
25.3947
24.7631
23.7541
22.0141
18.336
9.65527
3.92683
4.54473
5.54789
6.19848
7.48691
11.0801
16.0963
19.6992
22.1295
24.1292
25.9515
27.4732
28.4478
28.8995
29.0295
29.0578
29.2833
785.203
452.802
23.1648
22.4405
21.9956
22.3146
23.4509
24.5233
25.2738
25.7464
25.9754
25.967
25.716
25.2034
24.3582
22.9373
20.3222
14.8929
8.18589
6.49825
6.80595
7.0713
7.36258
8.97206
13.4332
18.1802
21.126
23.2645
25.1456
26.8242
28.0808
28.7895
29.1081
29.2868
29.6947
787.83
454.056
23.18
22.352
21.7957
21.9471
23.0225
24.1867
25.1
25.7489
26.1536
26.3183
26.2398
25.9078
25.285
24.2392
22.4265
19.1075
13.25
9.20852
8.15083
7.77863
7.27787
7.12527
9.97378
15.7946
19.9732
22.4521
24.4164
26.1533
27.5594
28.4894
29.0251
29.413
30.1005
790.714
452.242
22.7979
22.0497
21.4344
21.1489
21.8086
23.0382
24.265
25.2443
25.9461
26.3814
26.5543
26.4632
26.0945
25.3859
24.1173
21.8017
17.7559
12.7821
10.326
9.56917
9.03104
8.36042
8.91475
13.6006
19.2823
22.372
24.3249
26.1126
27.6042
28.601
29.2156
29.6979
30.4652
790.917
449.425
22.8011
22.4015
21.9174
21.2094
20.6937
21.1508
22.5515
24.0334
25.1996
26.029
26.5539
26.7896
26.74
26.3968
25.7036
24.4335
22.0544
17.9778
13.3725
10.6304
9.166
7.80334
6.82957
9.90401
16.9929
22.2573
24.6045
26.2029
27.7009
28.7671
29.4166
29.8952
30.5491
789.218
445.964
23.0017
23.0116
22.7878
22.2473
21.1544
19.9442
20.4868
22.3503
24.1047
25.405
26.3156
26.9029
27.1891
27.1723
26.8262
26.0633
24.6199
22.0043
18.0041
13.9841
11.7168
10.417
8.99108
8.40758
12.826
20.0947
24.6989
26.5414
27.8024
28.7922
29.4311
29.8738
30.3762
786.857
445.865
23.341
23.4547
23.393
23.1818
22.5829
20.8652
19.6767
21.0489
23.1477
24.8397
26.069
26.9543
27.5534
27.8777
27.9192
27.6542
27.0147
25.7927
23.5764
20.0785
15.97
12.7517
10.7362
9.20795
9.4866
14.7544
21.8854
26.1053
27.6436
28.5641
29.1979
29.6435
30.0871
785.558
449.059
23.5102
23.24
22.9824
22.779
22.667
22.041
20.8786
21.6183
23.4191
25.0118
26.234
27.1838
27.9182
28.4473
28.7575
28.82
28.5859
27.9644
26.7666
24.6487
21.4197
17.6195
14.2408
11.7647
10.0967
10.8235
16.2883
23.2597
27.1046
28.4834
29.139
29.5604
29.9726
785.354
455.928
24.0255
23.059
22.2587
21.6302
21.5201
21.7726
22.1115
23.2799
24.7541
26.0026
27.0337
27.9115
28.6544
29.2539
29.6898
29.9369
29.9688
29.7544
29.2393
28.3003
26.7076
24.2533
21.1577
17.9843
15.0944
12.8271
12.8947
17.6756
23.9308
27.1174
28.4755
29.1923
29.8066
786.794
463.899
24.3114
22.5933
21.3177
20.7497
21.1315
22.1371
23.6274
25.0916
26.1987
27.1316
27.9829
28.7647
29.4624
30.0548
30.5186
30.8286
30.9547
30.8551
30.4691
29.7027
28.4299
26.5462
24.1194
21.4938
18.9659
16.5866
14.6349
14.9527
19.7534
24.6497
27.1008
28.422
29.5884
789.984
466.91
23.5894
21.1443
19.8254
20.7276
22.3518
23.9412
25.3179
26.2669
27.0608
27.832
28.5839
29.293
29.9267
30.4503
30.8372
31.0712
31.1388
31.0171
30.6684
30.0383
29.0697
27.7345
26.0753
24.2113
22.2549
20.2356
18.1207
16.3475
17.4045
22.3223
25.7626
27.6506
29.3855
792.109
460.962
21.8433
19.584
19.5438
22.0445
23.5921
24.5499
25.3511
26.0961
26.8199
27.5308
28.2199
28.8703
29.4618
29.9733
30.3849
30.6782
30.8355
30.8387
30.6693
30.304
29.719
28.8989
27.8494
26.6002
25.1848
23.6007
21.7763
19.6635
18.1005
20.4992
24.3906
26.8242
29.1223
793.382
448.396
20.4393
19.4935
20.0747
21.7523
22.6508
23.4064
24.181
24.9566
25.7044
26.4261
27.134
27.8293
28.4949
29.102
29.6235
30.0436
30.3531
30.5416
30.5963
30.5019
30.2418
29.8032
29.1781
28.3642
27.3608
26.1541
24.6796
22.7816
20.5191
20.3113
23.6475
26.3842
29.0789
793.902
439.605
21.3864
21.1399
20.4624
20.0196
20.0845
20.572
21.4782
22.6305
23.782
24.7939
25.6515
26.392
27.0573
27.6851
28.2792
28.8249
29.3012
29.6888
29.9728
30.1374
30.1641
30.0337
29.7305
29.241
28.5517
27.6395
26.4469
24.8286
22.666
21.466
23.909
26.5448
29.2443
793.423
437.584
22.3033
22.4792
22.1495
21.2175
19.9101
18.6257
17.8789
18.3384
19.9166
21.7474
23.3195
24.5731
25.5669
26.3647
27.0199
27.5811
28.0782
28.5202
28.9066
29.2297
29.4712
29.604
29.5945
29.4072
29.0055
28.3467
27.3681
25.9791
24.1954
23.1751
24.9716
27.1111
29.3944
791.254
438.68
21.9329
22.3738
22.6908
22.8913
22.6054
21.4092
19.2411
16.889
16.3659
18.2483
20.6429
22.6023
24.084
25.2293
26.1311
26.8431
27.397
27.8189
28.1424
28.4011
28.6153
28.7881
28.9029
28.9219
28.7863
28.4176
27.7175
26.6078
25.2626
24.7198
26.0871
27.6582
29.4006
788.728
444.285
22.097
22.0014
21.9983
22.1543
22.5672
22.8474
22.1739
19.8804
16.8005
16.4254
18.664
21.067
22.9312
24.3434
25.4713
26.3973
27.1422
27.7041
28.0897
28.3252
28.4503
28.5035
28.512
28.4837
28.3971
28.185
27.7321
26.9524
26.0842
25.9769
26.9875
28.0625
29.3068
786.424
449.075
22.7662
22.3973
22.0966
21.7496
21.5374
21.8079
22.0885
21.5865
19.3787
17.1671
18.254
20.5128
22.4462
23.9527
25.1808
26.2188
27.0833
27.7583
28.2314
28.5107
28.6251
28.6123
28.5093
28.3495
28.1581
27.9359
27.6296
27.1794
26.7778
26.9467
27.6441
28.3318
29.1583
784.514
448.967
22.4281
22.0212
21.7872
21.6311
21.5723
21.6276
21.7935
21.7517
20.9909
18.9328
18.6981
20.645
22.5975
24.1584
25.4302
26.4962
27.3781
28.0706
28.5675
28.8727
29.0013
28.9749
28.8181
28.5584
28.2332
27.8949
27.5928
27.3527
27.2873
27.5822
28.0508
28.4714
28.9968
783.354
448.271
22.0552
21.3414
20.8004
20.4412
20.6817
21.2503
21.7445
22.0098
21.8635
20.8042
19.1396
20.0161
22.0611
23.8612
25.3125
26.4953
27.4499
28.1931
28.7391
29.101
29.2908
29.3197
29.1989
28.9415
28.5706
28.1408
27.756
27.5382
27.5801
27.8675
28.1823
28.4469
28.838
783.293
451.229
22.2923
21.1124
20.0693
19.0343
18.9019
19.8074
20.9652
21.9413
22.5597
22.6377
21.5105
20.3898
21.6744
23.5511
25.1438
26.4372
27.4724
28.2721
28.8625
29.2686
29.5089
29.5943
29.531
29.3236
28.9823
28.5436
28.1063
27.829
27.821
28.0085
28.2025
28.3837
28.7599
783.711
454.892
22.1775
20.4662
18.9296
17.3656
16.8323
17.6088
19.0492
20.5285
21.7486
22.5389
22.7066
21.8418
22.0371
23.6167
25.1962
26.4753
27.5076
28.3303
28.9601
29.4114
29.6979
29.8296
29.8125
29.6509
29.3525
28.9446
28.508
28.1897
28.1045
28.1808
28.2799
28.4056
28.7689
783.741
458.059
21.5839
19.2013
16.7686
14.1442
13.7337
15.5978
17.9312
19.8919
21.3205
22.2335
22.6375
22.8036
23.805
25.283
26.4187
27.3209
28.0994
28.7734
29.3269
29.745
30.022
30.1569
30.1494
30.0009
29.7184
29.3277
28.8997
28.5629
28.4179
28.4066
28.4286
28.4946
28.7962
783.35
457.441
20.8449
18.1404
14.8522
10.9033
10.9815
15.0895
18.5982
20.9195
22.4026
23.4584
24.4988
25.4695
26.2591
26.9939
27.7009
28.3716
28.9836
29.5148
29.9508
30.2822
30.5022
30.6039
30.5804
30.4263
30.1429
29.7492
29.3036
28.9179
28.6834
28.569
28.5068
28.5091
28.7565
782.898
452.697
20.063
17.2255
13.4377
9.89572
12.8599
18.6794
21.851
23.4052
24.3151
24.9846
25.6733
26.4271
27.1702
27.8657
28.5154
29.1183
29.6611
30.1257
30.499
30.7746
30.9497
31.0213
30.9841
30.8311
30.5588
30.1787
29.7372
29.3228
29.0145
28.8122
28.6833
28.642
28.8434
782.16
448.395
19.836
17.1187
14.3048
12.0066
12.7694
17.6666
20.59
21.9536
22.9513
23.9387
24.9149
25.841
26.7171
27.5474
28.3231
29.0262
29.641
30.1613
30.5855
30.9096
31.1261
31.2272
31.2078
31.0669
30.8097
30.455
30.0479
29.6544
29.33
29.0833
28.9002
28.784
28.8059
779.669
450.588
20.3303
17.1135
14.908
13.877
9.22355
5.80668
8.7365
16.339
19.4416
21.1892
22.6295
24.0091
25.3027
26.4235
27.3596
28.1584
28.8732
29.5102
30.0601
30.5147
30.8664
31.1027
31.2059
31.1604
30.965
30.6466
30.2622
29.8788
29.5413
29.2549
29.0076
28.7871
28.581
777.21
455.179
19.6733
14.3584
10.6056
13.0441
12.9122
9.22348
8.12552
8.55228
14.1747
17.6565
19.3567
20.8476
22.5864
24.5365
26.3014
27.5865
28.4377
29.0386
29.5223
29.9467
30.3228
30.6398
30.8729
30.9886
30.9539
30.7602
30.4416
30.0674
29.6997
29.3623
29.0523
28.7559
28.4354
776.382
455.134
18.5013
11.9109
6.89306
11.1395
11.3989
10.2666
7.51937
5.5664
5.64436
11.7626
17.2543
19.2707
20.5492
21.8398
23.4921
25.3972
27.1512
28.4329
29.2427
29.7495
30.0871
30.3247
30.4992
30.6179
30.6643
30.6081
30.4321
30.1558
29.8286
29.4907
29.1583
28.8241
28.4275
775.558
452.643
18.0515
11.7518
8.25049
9.64654
10.5075
10.5544
9.91493
7.80079
7.41259
5.30684
7.44846
9.05172
16.4658
19.7113
21.5876
23.0437
24.4444
25.9167
27.3551
28.5662
29.4333
29.98
30.2847
30.4167
30.4298
30.3566
30.2199
30.0217
29.7675
29.4732
29.1499
28.7772
28.2142
772.978
448.381
18.9152
14.5597
7.01086
5.99155
7.37007
8.21433
8.99123
9.50801
9.41486
7.62989
7.42627
7.24057
5.9749
4.97438
13.2248
18.1911
21.4839
23.6941
25.239
26.4389
27.5202
28.5026
29.2943
29.8209
30.079
30.1159
30.0067
29.8222
29.5978
29.3406
29.0403
28.6503
27.9539
770.76
446.989
20.891
19.0708
16.0821
11.6395
9.0253
6.8109
5.06431
4.49982
6.20726
7.71441
8.7748
8.74927
7.49041
4.75967
6.34206
7.38313
7.69682
13.4807
18.6422
22.3501
24.8215
26.4836
27.6779
28.5901
29.2514
29.6386
29.7583
29.6759
29.4751
29.2133
28.9077
28.5239
27.8414
770.67
442.767
22.4712
22.7552
22.5752
21.3374
19.5301
17.0455
13.8484
9.48396
6.91671
4.22074
5.0742
6.72489
5.29244
7.27374
8.37394
8.61641
8.16696
7.56834
8.03488
10.8287
15.6914
20.1196
23.3174
25.5711
27.154
28.2356
28.9065
29.2209
29.265
29.1378
28.9122
28.6109
28.1008
773.561
441.424
23.5013
24.4202
25.0948
25.6522
25.6368
25.0208
23.6378
21.296
17.816
12.8444
8.59694
5.45609
5.29825
6.94562
4.96056
7.2163
5.91873
8.63548
10.2384
10.4364
10.2163
12.322
16.4016
20.2346
23.2425
25.4889
27.06
28.064
28.5997
28.7897
28.762
28.6141
28.3661
777.92
441.563
22.9453
23.5922
23.9972
24.3816
24.9106
25.4383
25.7309
25.4777
24.2173
21.5888
17.2027
11.329
8.3888
6.21319
7.60712
6.07315
5.55496
5.26079
9.36136
12.1371
12.9888
12.777
13.8717
16.7518
19.9781
22.8107
25.0624
26.6987
27.7674
28.3653
28.6343
28.7323
28.8651
783.455
446.211
22.8239
22.929
22.996
23.0199
23.0414
23.2026
23.5944
24.0477
24.219
23.674
21.6596
17.3781
10.647
7.21666
7.87725
6.50643
7.03787
4.91271
9.90309
13.6385
15.5216
15.9245
16.0127
17.254
19.5294
22.0097
24.209
25.9549
27.2152
28.0217
28.4878
28.7932
29.2843
787.998
452.833
23.7308
23.6963
23.7348
23.6868
23.4764
23.0984
22.7653
22.7209
22.7535
22.5721
21.8947
19.5956
13.5872
8.0553
4.80115
6.34639
7.3995
4.68424
10.6125
14.8266
17.1493
18.1065
18.4304
19.1821
20.7778
22.7411
24.6071
26.1818
27.3953
28.2365
28.789
29.2307
29.9826
791.814
457.211
24.3543
24.2079
24.2602
24.3141
24.2455
23.9251
23.355
22.8259
22.4398
21.9859
21.2599
19.8521
15.9382
8.66447
7.15954
5.45856
7.95284
7.51951
11.8143
15.9428
18.4761
19.8892
20.7576
21.6939
22.943
24.3434
25.6861
26.8633
27.8177
28.5296
29.0556
29.547
30.4195
792.973
458.889
23.9118
23.5283
23.5246
23.6448
23.7609
23.7255
23.4208
22.902
22.2899
21.572
20.6111
19.0755
15.5961
9.16616
8.06658
4.67353
7.50847
6.26906
12.4192
17.7086
20.2689
21.8389
22.9282
23.9633
25.1053
26.2215
27.1899
27.988
28.6282
29.129
29.5417
29.981
30.7863
792.109
456.145
22.898
22.456
22.3906
22.451
22.5841
22.7383
22.7959
22.6459
22.2675
21.6411
20.6844
19.1823
16.4382
9.83339
6.64247
6.52052
5.05944
6.48335
11.7854
18.5685
21.3715
23.2224
24.6944
25.7999
26.7727
27.7029
28.4923
29.075
29.4804
29.7694
30.0087
30.2874
30.8305
789.092
453.446
22.7466
22.416
22.2787
22.1197
21.9332
21.837
21.9002
21.9894
21.9241
21.5961
20.9205
19.7138
17.4844
12.6848
5.10931
7.11778
5.36734
5.04265
9.64422
18.7154
22.5374
23.9262
25.4436
26.8592
27.8582
28.6075
29.2681
29.8164
30.2029
30.4465
30.6066
30.7553
31.0071
786.464
451.692
22.917
22.7161
22.615
22.4068
21.9945
21.4636
21.1338
21.1792
21.3888
21.4659
21.234
20.5745
19.2715
16.536
9.26175
6.90775
6.71273
7.76775
6.24791
14.0759
22.4505
25.0354
25.7374
26.8863
28.2447
29.139
29.6121
29.9155
30.1467
30.3106
30.4138
30.4778
30.5147
782.485
451.714
22.8825
22.6351
22.5712
22.4677
22.1451
21.4994
20.7536
20.3911
20.5441
20.8913
21.112
21.0204
20.4793
19.2609
16.5185
8.63153
7.64633
6.53853
4.60801
6.48115
14.9472
23.3768
26.7261
27.3469
27.9425
29.0577
29.9922
30.474
30.6645
30.7203
30.7084
30.6403
30.4289
779.943
451.172
22.4363
22.0773
21.9993
21.9754
21.8378
21.4186
20.719
20.0647
19.8639
20.1239
20.5603
20.908
20.9817
20.6338
19.6339
17.2246
10.5889
8.92986
6.29163
7.43799
4.3451
12.0944
21.7476
26.9853
28.4554
28.834
29.485
30.2234
30.7169
30.9328
30.9514
30.8083
30.3658
778.262
450.434
22.2582
21.8852
21.7781
21.7239
21.6029
21.3093
20.8096
20.1935
19.6941
19.544
19.7761
20.2353
20.6998
20.962
20.8438
20.148
18.3399
13.6199
7.64496
4.38181
6.32288
5.10121
9.42209
18.8791
25.7008
28.484
29.1947
29.6527
30.1369
30.5225
30.7257
30.7315
30.4154
779.293
448.831
22.1344
21.8613
21.8147
21.8195
21.7715
21.5679
21.169
20.6024
19.9567
19.4038
19.1541
19.3329
19.8744
20.5167
20.9555
20.9999
20.4936
19.1225
16.0657
10.9078
4.22685
6.33302
4.69076
5.29604
15.6637
24.3649
28.074
29.0997
29.463
29.7333
29.9626
30.0946
30.0125
779.798
448.139
22.1034
21.8235
21.7911
21.889
22.0508
22.1182
21.9442
21.4888
20.7905
19.949
19.1513
18.6862
18.8698
19.7137
20.6968
21.3463
21.4872
21.0371
19.8448
17.7511
14.9711
11.8877
8.09072
5.71078
5.67457
12.3697
23.3163
28.0666
29.656
30.1812
30.3992
30.5114
30.4938
782.432
448.928
21.947
21.4142
21.2038
21.2105
21.4677
21.8261
22.0381
21.9692
21.5854
20.8971
19.9624
18.949
18.329
18.8955
20.2979
21.5731
22.3255
22.5249
22.1975
21.3448
20.0068
18.3302
16.3146
13.4004
8.14809
5.57831
12.4411
22.8708
27.8434
29.8264
30.584
30.8648
30.9296
785.735
450.592
21.8061
21.0036
20.5743
20.3434
20.4068
20.7106
21.0296
21.2072
21.175
20.8909
20.3162
19.4222
18.3696
18.4962
20.1086
21.8616
23.0716
23.6984
23.8496
23.6054
23.0163
22.128
20.9107
19.1301
16.2323
11.9395
6.65066
14.7991
23.1078
27.471
29.5044
30.5038
31.1853
792.048
450.68
21.4614
20.5748
20.0776
19.705
19.4973
19.4824
19.5634
19.6321
19.6186
19.4719
19.1458
18.5814
17.7949
18.3388
20.4115
22.435
23.8074
24.57
24.8973
24.9052
24.6523
24.1553
23.3591
22.0615
20.1098
17.4669
13.3236
11.3481
17.656
23.7101
27.3996
29.479
31.1816
799.179
449.168
21.0738
20.253
19.7966
19.4064
19.0245
18.6773
18.3837
18.1085
17.8016
17.4243
16.9555
16.4053
16.2617
18.447
21.3778
23.4556
24.6452
25.2603