/*--------------------------------*- C++ -*----------------------------------*\
| =========                 |                                                 |
| \\      /  F ield         | OpenFOAM: The Open Source CFD Toolbox           |
|  \\    /   O peration     | Version:  v2006                                 |
|   \\  /    A nd           | Website:  www.openfoam.com                      |
|    \\/     M anipulation  |                                                 |
\*---------------------------------------------------------------------------*/
FoamFile
{
    version     2.0;
    format      ascii;
    class       surfaceScalarField;
    location    "67";
    object      phi;
}
// * * * * * * * * * * * * * * * * * * * * * * * * * * * * * * * * * * * * * //

dimensions      [1 0 -1 0 0 0 0];
oriented        oriented;


internalField   nonuniform List<scalar> 
228225
(
-0.000254408
-2.20264e-05
-2.69542e-06
-0.000232307
-2.04425e-05
-1.57866e-06
-0.000209809
-2.0736e-05
-1.67464e-06
-0.000187766
-1.98478e-05
-2.10438e-06
-0.000168002
-1.71207e-05
-2.5311e-06
-0.000149764
-1.52455e-05
-2.88809e-06
-0.000133332
-1.32678e-05
-3.08041e-06
-0.000118078
-1.19178e-05
-3.22786e-06
-0.000104131
-1.05564e-05
-3.3033e-06
-9.12036e-05
-9.51331e-06
-3.32127e-06
-7.92056e-05
-8.59054e-06
-3.31856e-06
-6.80373e-05
-7.80117e-06
-3.28303e-06
-5.76098e-05
-7.14303e-06
-3.20461e-06
-4.79059e-05
-6.57858e-06
-3.05146e-06
-3.8931e-05
-6.12752e-06
-2.77973e-06
-3.07143e-05
-5.81228e-06
-2.34174e-06
-2.33352e-05
-5.60333e-06
-1.71456e-06
-1.68622e-05
-5.47197e-06
-9.36145e-07
-1.12678e-05
-5.39053e-06
-1.31092e-07
-6.54435e-06
-5.33569e-06
6.97493e-07
-2.48385e-06
-5.28741e-06
1.32336e-06
1.1019e-06
-5.23602e-06
1.75465e-06
4.35835e-06
-5.17681e-06
2.029e-06
7.37651e-06
-5.10585e-06
2.19756e-06
1.02067e-05
-5.01836e-06
2.2972e-06
1.287e-05
-4.90576e-06
2.34904e-06
1.53571e-05
-4.75688e-06
2.37278e-06
1.76282e-05
-4.56007e-06
2.38752e-06
1.96111e-05
-4.29964e-06
2.40985e-06
2.11929e-05
-3.95103e-06
2.4561e-06
2.22016e-05
-3.47366e-06
2.54423e-06
2.23645e-05
-2.78422e-06
2.69095e-06
2.11111e-05
-1.62203e-06
2.93271e-06
1.52565e-05
2.16265e-06
3.7116e-06
1.28697e-05
2.30971e-06
-1.62492e-05
-1.04316e-05
4.59444e-06
-3.04905e-05
-1.07347e-05
4.55991e-06
-4.06379e-05
-1.35296e-05
3.03168e-06
-4.80461e-05
-1.42934e-05
1.96145e-06
-5.27432e-05
-1.35356e-05
1.19236e-06
-5.56314e-05
-1.29901e-05
7.24784e-07
-5.68304e-05
-1.23161e-05
3.47578e-07
-5.70063e-05
-1.17238e-05
7.86616e-08
-5.61509e-05
-1.12147e-05
-9.94946e-08
-5.45471e-05
-1.079e-05
-2.29746e-07
-5.22907e-05
-1.04123e-05
-3.37422e-07
-4.94968e-05
-1.00724e-05
-4.25241e-07
-4.62836e-05
-9.77073e-06
-4.88247e-07
-4.27371e-05
-9.50643e-06
-5.21412e-07
-3.89672e-05
-9.27934e-06
-5.2078e-07
-3.51092e-05
-9.0864e-06
-4.86615e-07
-3.1268e-05
-8.9206e-06
-4.26597e-07
-2.75136e-05
-8.77258e-06
-3.56443e-07
-2.38809e-05
-8.63208e-06
-2.93869e-07
-2.03812e-05
-8.48823e-06
-2.50062e-07
-1.7005e-05
-8.33314e-06
-2.33579e-07
-1.37293e-05
-8.16077e-06
-2.54561e-07
-1.05278e-05
-7.96645e-06
-3.15944e-07
-7.38018e-06
-7.7461e-06
-4.12364e-07
-4.27634e-06
-7.49499e-06
-5.332e-07
-1.21784e-06
-7.20651e-06
-6.64689e-07
1.78051e-06
-6.87054e-06
-7.92791e-07
4.6861e-06
-6.47163e-06
-9.03591e-07
7.44685e-06
-5.98877e-06
-9.828e-07
9.98924e-06
-5.39186e-06
-1.01471e-06
1.22023e-05
-4.62311e-06
-9.7932e-07
1.3817e-05
-3.47223e-06
-8.46305e-07
1.37158e-05
-9.16041e-07
-5.32814e-07
7.86024e-06
7.74969e-06
3.20052e-07
1.94576e-05
1.22598e-06
-1.28766e-05
4.24385e-07
2.02406e-06
-2.06919e-05
-5.4077e-06
2.51665e-06
-2.72244e-05
-8.9794e-06
2.05101e-06
-3.1971e-05
-1.14006e-05
1.95726e-06
-3.42594e-05
-1.30006e-05
1.89399e-06
-3.52634e-05
-1.36874e-05
1.86073e-06
-3.5415e-05
-1.38355e-05
1.83978e-06
-3.51006e-05
-1.36752e-05
1.80867e-06
-3.44405e-05
-1.34703e-05
1.76525e-06
-3.34742e-05
-1.32923e-05
1.70115e-06
-3.22135e-05
-1.31153e-05
1.60114e-06
-3.06923e-05
-1.29076e-05
1.46555e-06
-2.89649e-05
-1.26586e-05
1.30488e-06
-2.70835e-05
-1.23819e-05
1.13159e-06
-2.50871e-05
-1.21005e-05
9.5632e-07
-2.30018e-05
-1.18322e-05
7.86679e-07
-2.08429e-05
-1.15841e-05
6.26254e-07
-1.86193e-05
-1.13539e-05
4.7534e-07
-1.63359e-05
-1.11324e-05
3.30747e-07
-1.39923e-05
-1.09064e-05
1.84777e-07
-1.15793e-05
-1.06611e-05
2.1884e-08
-9.1399e-06
-1.03823e-05
-1.14545e-07
-6.67258e-06
-1.00569e-05
-2.77064e-07
-4.19009e-06
-9.67663e-06
-4.55898e-07
-1.71232e-06
-9.23679e-06
-6.43843e-07
7.34282e-07
-8.73332e-06
-8.31672e-07
3.1142e-06
-8.1583e-06
-1.00793e-06
5.38135e-06
-7.49843e-06
-1.1599e-06
7.47283e-06
-6.73003e-06
-1.27341e-06
9.29159e-06
-5.805e-06
-1.33243e-06
1.06624e-05
-4.60829e-06
-1.3162e-06
1.12534e-05
-2.80779e-06
-1.18978e-06
1.02924e-05
9.64035e-07
-8.54333e-07
5.39254e-06
1.27313e-05
-2.58756e-08
2.3921e-05
8.83381e-07
7.8879e-06
-9.38572e-06
1.98519e-06
1.4352e-05
-1.48373e-05
3.17204e-06
1.90334e-05
-1.66612e-05
3.30022e-06
2.23247e-05
-1.73822e-05
3.03281e-06
2.43173e-05
-1.7437e-05
2.79974e-06
2.53595e-05
-1.70728e-05
2.71189e-06
2.56512e-05
-1.64725e-05
2.73735e-06
2.53631e-05
-1.57863e-05
2.8157e-06
2.45596e-05
-1.51293e-05
2.89295e-06
2.33069e-05
-1.45476e-05
2.938e-06
2.16826e-05
-1.40155e-05
2.93995e-06
1.9763e-05
-1.34916e-05
2.89334e-06
1.76232e-05
-1.29582e-05
2.79614e-06
1.53363e-05
-1.24262e-05
2.6517e-06
1.29761e-05
-1.19231e-05
2.46817e-06
1.06236e-05
-1.14829e-05
2.25668e-06
8.37106e-06
-1.11347e-05
2.02923e-06
6.31684e-06
-1.08928e-05
1.79595e-06
4.55584e-06
-1.0752e-05
1.5637e-06
3.17065e-06
-1.06902e-05
1.33531e-06
2.2251e-06
-1.0674e-05
1.11021e-06
1.76001e-06
-1.06637e-05
8.86037e-07
1.79104e-06
-1.06184e-05
6.59687e-07
2.3054e-06
-1.0499e-05
4.2864e-07
3.26157e-06
-1.02709e-05
1.91069e-07
4.58019e-06
-9.90232e-06
-4.31734e-08
6.13973e-06
-9.36044e-06
-2.57914e-07
7.81198e-06
-8.61785e-06
-4.60507e-07
9.45299e-06
-7.64997e-06
-6.35504e-07
1.08817e-05
-6.38739e-06
-7.6675e-07
1.18212e-05
-4.64155e-06
-8.3187e-07
1.16709e-05
-1.79472e-06
-7.92093e-07
8.81969e-06
4.43546e-06
-5.43916e-07
3.39428e-06
1.81668e-05
7.38019e-08
2.65567e-05
7.21996e-07
5.64795e-07
-1.14828e-05
1.70069e-06
1.95556e-06
-1.83325e-05
2.42051e-06
4.39424e-06
-2.1287e-05
2.5077e-06
7.7646e-06
-2.29033e-05
2.45342e-06
1.19571e-05
-2.36827e-05
2.35396e-06
1.68259e-05
-2.38614e-05
2.24426e-06
2.21696e-05
-2.36056e-05
2.15337e-06
2.76774e-05
-2.2985e-05
2.10419e-06
3.29514e-05
-2.20389e-05
2.10617e-06
3.76056e-05
-2.08184e-05
2.14887e-06
4.13551e-05
-1.93872e-05
2.21359e-06
4.40315e-05
-1.78153e-05
2.28654e-06
4.55531e-05
-1.61705e-05
2.35755e-06
4.58925e-05
-1.45145e-05
2.41757e-06
4.50653e-05
-1.2908e-05
2.45457e-06
4.3133e-05
-1.14116e-05
2.45526e-06
4.02009e-05
-1.00798e-05
2.41103e-06
3.641e-05
-8.95249e-06
2.32179e-06
3.19336e-05
-8.05823e-06
2.19454e-06
2.69896e-05
-7.4271e-06
2.03918e-06
2.18594e-05
-7.0976e-06
1.86434e-06
1.6889e-05
-7.10148e-06
1.67642e-06
1.24507e-05
-7.42941e-06
1.47948e-06
8.86333e-06
-7.99127e-06
1.27572e-06
6.31002e-06
-8.61539e-06
1.06617e-06
4.82078e-06
-9.11311e-06
8.49923e-07
4.32015e-06
-9.34701e-06
6.24154e-07
4.68021e-06
-9.24273e-06
3.88245e-07
5.73741e-06
-8.74406e-06
1.46155e-07
7.19355e-06
-7.66739e-06
-8.18158e-08
8.53559e-06
-5.62012e-06
-2.83427e-07
9.00824e-06
-1.77281e-06
-4.24578e-07
7.4566e-06
6.4067e-06
-3.57881e-07
2.90598e-06
2.25557e-05
1.84907e-07
2.87772e-05
6.50463e-07
-2.95514e-07
-1.29523e-05
1.72166e-06
2.69175e-06
-2.41051e-05
2.60087e-06
8.12349e-06
-2.98041e-05
2.85137e-06
1.48476e-05
-3.29144e-05
3.0458e-06
2.22307e-05
-3.45081e-05
3.20667e-06
2.98729e-05
-3.5039e-05
3.31173e-06
3.74352e-05
-3.47235e-05
3.34916e-06
4.4645e-05
-3.36949e-05
3.31713e-06
5.12991e-05
-3.20682e-05
3.22335e-06
5.72613e-05
-2.99747e-05
3.08302e-06
6.24621e-05
-2.7561e-05
2.91565e-06
6.68809e-05
-2.49642e-05
2.7415e-06
7.05293e-05
-2.22901e-05
2.56871e-06
7.3425e-05
-1.96082e-05
2.39646e-06
7.55478e-05
-1.69611e-05
2.23788e-06
7.68157e-05
-1.43767e-05
2.11022e-06
7.70926e-05
-1.18791e-05
2.02466e-06
7.62174e-05
-9.49653e-06
1.98443e-06
7.40431e-05
-7.27096e-06
1.98572e-06
7.04739e-05
-5.26732e-06
2.01692e-06
6.54914e-05
-3.57246e-06
2.05868e-06
5.91629e-05
-2.27553e-06
2.08795e-06
5.16392e-05
-1.43751e-06
2.08279e-06
4.31733e-05
-1.06775e-06
2.02684e-06
3.42112e-05
-1.18038e-06
1.91819e-06
2.55598e-05
-1.93392e-06
1.77098e-06
1.8328e-05
-3.48931e-06
1.60293e-06
1.33838e-05
-5.54111e-06
1.42273e-06
1.06688e-05
-7.09774e-06
1.22607e-06
9.61803e-06
-7.46662e-06
9.91333e-07
9.72007e-06
-6.30444e-06
6.87901e-07
9.38577e-06
-1.70491e-06
3.39878e-07
6.44702e-06
9.37596e-06
7.61566e-08
2.60635e-06
2.63039e-05
2.07082e-07
3.08311e-05
5.17313e-07
4.15471e-06
-1.88003e-05
1.54237e-06
1.22568e-05
-3.43464e-05
2.05876e-06
2.1013e-05
-4.05897e-05
2.08317e-06
2.9108e-05
-4.29472e-05
2.07444e-06
3.61911e-05
-4.34879e-05
2.07586e-06
4.22155e-05
-4.29521e-05
2.08581e-06
4.71994e-05
-4.16068e-05
2.09796e-06
5.11509e-05
-3.95651e-05
2.10655e-06
5.40715e-05
-3.69291e-05
2.1066e-06
5.60066e-05
-3.38703e-05
2.09458e-06
5.70834e-05
-3.06172e-05
2.0686e-06
5.75129e-05
-2.73848e-05
2.02481e-06
5.75667e-05
-2.43253e-05
1.95542e-06
5.75331e-05
-2.15049e-05
1.85226e-06
5.76454e-05
-1.88973e-05
1.71212e-06
5.80249e-05
-1.64177e-05
1.54078e-06
5.86703e-05
-1.39807e-05
1.35108e-06
5.9489e-05
-1.15412e-05
1.15603e-06
6.03359e-05
-9.10439e-06
9.63849e-07
6.10236e-05
-6.71303e-06
7.86114e-07
6.13104e-05
-4.42301e-06
6.40299e-07
6.0898e-05
-2.28476e-06
5.42878e-07
5.94824e-05
-3.65917e-07
5.12503e-07
5.6637e-05
1.43578e-06
5.73088e-07
5.2166e-05
2.87273e-06
7.49197e-07
4.59883e-05
3.6686e-06
1.04373e-06
3.81414e-05
3.51447e-06
1.38949e-06
2.88823e-05
2.53107e-06
1.64507e-06
2.01414e-05
2.14791e-07
1.72749e-06
1.43344e-05
-3.10047e-06
1.65201e-06
1.17425e-05
-4.95376e-06
1.39514e-06
1.03662e-05
-1.11005e-06
8.19013e-07
6.72877e-06
1.25779e-05
3.56104e-07
2.28797e-06
3.02487e-05
4.33042e-07
3.25524e-05
5.12823e-07
7.21671e-06
-2.73809e-05
1.5797e-06
1.36911e-05
-4.26183e-05
2.24935e-06
1.80981e-05
-4.6876e-05
2.32548e-06
2.14236e-05
-4.80045e-05
2.11387e-06
2.43219e-05
-4.78923e-05
1.83065e-06
2.70572e-05
-4.69575e-05
1.55314e-06
2.96695e-05
-4.526e-05
1.2986e-06
3.2045e-05
-4.27654e-05
1.0759e-06
3.39826e-05
-3.94961e-05
8.96455e-07
3.52807e-05
-3.56418e-05
7.7464e-07
3.58018e-05
-3.15236e-05
7.24745e-07
3.55151e-05
-2.74865e-05
7.48986e-07
3.4532e-05
-2.38202e-05
8.24814e-07
3.31095e-05
-2.06953e-05
9.08319e-07
3.15832e-05
-1.81091e-05
9.59689e-07
3.02601e-05
-1.59099e-05
9.58749e-07
2.93482e-05
-1.38949e-05
8.97777e-07
2.89393e-05
-1.1896e-05
7.7779e-07
2.90244e-05
-9.82759e-06
6.13607e-07
2.95352e-05
-7.70094e-06
4.32467e-07
3.0391e-05
-5.59172e-06
2.61521e-07
3.15197e-05
-3.58055e-06
1.16116e-07
3.28143e-05
-1.7114e-06
2.63452e-09
3.43058e-05
2.51538e-08
-1.267e-07
3.57628e-05
1.60691e-06
-2.37236e-07
3.65972e-05
3.11113e-06
-3.27339e-07
3.5791e-05
4.61357e-06
-3.44899e-07
3.2308e-05
6.10861e-06
-2.41829e-08
2.58066e-05
6.11474e-06
9.85375e-07
1.77651e-05
3.38167e-06
2.01324e-06
1.22545e-05
-1.41135e-06
2.24255e-06
9.66502e-06
-7.36328e-08
1.63769e-06
5.90894e-06
1.57735e-05
4.96771e-07
2.2584e-06
3.36917e-05
2.14695e-07
3.44104e-05
3.48289e-07
2.46908e-07
-2.91328e-05
1.7212e-06
-5.42208e-07
-4.43464e-05
2.43919e-06
-1.06589e-06
-4.9175e-05
2.53137e-06
-9.26202e-07
-5.09559e-05
2.4281e-06
-8.56317e-08
-5.14249e-05
2.259e-06
1.41594e-06
-5.09882e-05
2.06137e-06
3.53146e-06
-4.97107e-05
1.83918e-06
6.20057e-06
-4.75383e-05
1.58848e-06
9.2884e-06
-4.44157e-05
1.31907e-06
1.2523e-05
-4.04021e-05
1.05185e-06
1.54996e-05
-3.57043e-05
8.12798e-07
1.77805e-05
-3.06617e-05
6.24823e-07
1.90488e-05
-2.57189e-05
4.99343e-07
1.92339e-05
-2.13209e-05
4.30355e-07
1.85204e-05
-1.77217e-05
3.949e-07
1.72437e-05
-1.48961e-05
3.66968e-07
1.57743e-05
-1.26436e-05
3.25649e-07
1.44438e-05
-1.07271e-05
2.52756e-07
1.34927e-05
-8.95007e-06
1.36868e-07
1.30246e-05
-7.18946e-06
-1.08772e-08
1.30211e-05
-5.40717e-06
-1.74417e-07
1.33734e-05
-3.63863e-06
-3.05469e-07
1.39794e-05
-1.943e-06
-3.96696e-07
1.47613e-05
-3.2891e-07
-4.5665e-07
1.57656e-05
1.07104e-06
-5.01294e-07
1.70153e-05
2.37378e-06
-5.47471e-07
1.86241e-05
3.56996e-06
-5.99785e-07
2.07405e-05
4.60183e-06
-6.36567e-07
2.20416e-05
5.40005e-06
-5.89889e-07
2.038e-05
5.31614e-06
-1.18031e-07
1.60192e-05
2.15315e-06
1.11311e-06
1.07564e-05
3.47097e-06
1.76143e-06
4.31807e-06
2.0453e-05
1.02762e-06
2.8839e-07
3.64276e-05
4.77578e-07
3.40802e-05
3.19587e-07
-4.19869e-06
-2.69668e-05
1.64376e-06
-4.22956e-06
-4.67076e-05
1.93306e-06
-1.482e-06
-5.38853e-05
1.73024e-06
2.22354e-06
-5.63651e-05
1.62982e-06
6.2022e-06
-5.69877e-05
1.60704e-06
1.01804e-05
-5.65125e-05
1.62694e-06
1.40275e-05
-5.51244e-05
1.67143e-06
1.77032e-05
-5.28534e-05
1.73001e-06
2.12573e-05
-4.97281e-05
1.79287e-06
2.47798e-05
-4.58234e-05
1.84245e-06
2.82408e-05
-4.11762e-05
1.85143e-06
3.13421e-05
-3.57988e-05
1.79232e-06
3.35661e-05
-2.9875e-05
1.65314e-06
3.44576e-05
-2.3924e-05
1.45679e-06
3.38985e-05
-1.86006e-05
1.25089e-06
3.21053e-05
-1.4282e-05
1.07387e-06
2.94483e-05
-1.09542e-05
9.34877e-07
2.63195e-05
-8.39653e-06
8.17217e-07
2.30868e-05
-6.36298e-06
6.93876e-07
2.00661e-05
-4.6513e-06
5.39537e-07
1.74745e-05
-3.10967e-06
3.43603e-07
1.5381e-05
-1.63561e-06
1.23255e-07
1.36956e-05
-1.71001e-07
-7.14502e-08
1.23248e-05
1.25434e-06
-2.11346e-07
1.11286e-05
2.55386e-06
-2.95649e-07
1.00968e-05
3.71593e-06
-3.27111e-07
9.24237e-06
4.72368e-06
-3.21521e-07
8.53503e-06
5.5867e-06
-3.01288e-07
7.88221e-06
6.29055e-06
-2.56669e-07
6.6148e-06
6.66457e-06
-7.43097e-08
2.01371e-06
6.28242e-06
6.05931e-07
-2.27474e-06
6.94826e-06
1.38682e-06
-8.38566e-07
1.89739e-05
7.56269e-07
-1.20155e-06
3.64075e-05
1.20286e-07
3.25383e-05
1.27704e-07
2.89822e-06
-3.06518e-05
6.73991e-07
8.77803e-06
-5.27719e-05
3.33051e-07
1.46753e-05
-5.94766e-05
-3.64476e-10
1.99797e-05
-6.11013e-05
-2.08306e-07
2.46731e-05
-6.0977e-05
-3.2055e-07
2.87497e-05
-5.97908e-05
-3.88094e-07
3.20848e-05
-5.75911e-05
-4.17747e-07
3.44752e-05
-5.43212e-05
-4.20769e-07
3.58609e-05
-5.01996e-05
-3.6927e-07
3.65695e-05
-4.57492e-05
-2.27347e-07
3.70911e-05
-4.12193e-05
3.90982e-08
3.76925e-05
-3.63762e-05
4.037e-07
3.82235e-05
-3.08833e-05
7.76539e-07
3.82826e-05
-2.48474e-05
1.02668e-06
3.76121e-05
-1.89739e-05
1.09214e-06
3.62465e-05
-1.39681e-05
1.02704e-06
3.43328e-05
-1.00253e-05
9.27511e-07
3.19869e-05
-6.96562e-06
8.54252e-07
2.93003e-05
-4.54274e-06
8.18897e-07
2.63991e-05
-2.57887e-06
8.02354e-07
2.34655e-05
-9.55251e-07
7.74748e-07
2.06948e-05
4.41893e-07
7.07744e-07
1.80877e-05
1.87992e-06
5.82159e-07
1.57197e-05
3.23965e-06
4.08841e-07
1.35462e-05
4.50941e-06
2.35819e-07
1.15215e-05
5.64348e-06
1.04672e-07
9.56247e-06
6.6593e-06
2.19575e-08
7.53156e-06
7.61985e-06
-1.04481e-08
5.26174e-06
8.55182e-06
-3.51604e-09
2.44896e-06
9.38105e-06
7.9975e-08
-1.44877e-06
9.83234e-06
3.51823e-07
-4.67983e-06
9.29466e-06
1.29532e-06
4.85772e-07
1.35321e-05
2.28746e-06
2.10466e-06
3.55134e-05
1.10004e-06
3.45661e-05
5.39295e-07
4.08143e-06
-3.48907e-05
1.77581e-07
7.69479e-06
-5.68295e-05
4.55413e-07
1.04808e-05
-6.28088e-05
5.33969e-07
1.29523e-05
-6.4034e-05
4.30066e-07
1.52954e-05
-6.36259e-05
2.68156e-07
1.74827e-05
-6.20882e-05
7.99048e-08
1.93671e-05
-5.92802e-05
-2.00179e-07
2.05794e-05
-5.49731e-05
-5.23412e-07
2.08886e-05
-4.95691e-05
-8.64651e-07
2.04987e-05
-4.41362e-05
-1.12907e-06
1.98745e-05
-3.9271e-05
-1.22314e-06
1.94192e-05
-3.47152e-05
-1.09723e-06
1.92494e-05
-2.9841e-05
-7.54993e-07
1.91485e-05
-2.43171e-05
-3.05257e-07
1.89083e-05
-1.86569e-05
4.52884e-08
1.85947e-05
-1.37597e-05
2.09739e-07
1.83699e-05
-9.9889e-06
2.64888e-07
1.83131e-05
-7.13401e-06
2.72562e-07
1.83741e-05
-4.85693e-06
2.7564e-07
1.84428e-05
-2.93084e-06
2.86972e-07
1.84499e-05
-1.27167e-06
3.01194e-07
1.84789e-05
9.2932e-08
3.06528e-07
1.86238e-05
1.43044e-06
2.91188e-07
1.89643e-05
2.64745e-06
2.43469e-07
1.9508e-05
3.81035e-06
1.56682e-07
2.02128e-05
4.90375e-06
4.38072e-08
2.10282e-05
5.92754e-06
-7.43451e-08
2.18911e-05
6.94407e-06
-1.85267e-07
2.26687e-05
8.05397e-06
-2.96117e-07
2.31035e-05
9.29508e-06
-3.97951e-07
2.25629e-05
1.07423e-05
-4.46335e-07
1.79715e-05
1.42203e-05
-3.84675e-07
1.09852e-05
2.04777e-05
7.35452e-07
5.86346e-06
4.04125e-05
1.75261e-06
3.96356e-05
1.08154e-06
2.74808e-06
-3.78349e-05
5.17434e-08
5.21255e-06
-5.97336e-05
4.49191e-07
7.28089e-06
-6.55072e-05
7.32749e-07
9.02933e-06
-6.64901e-05
8.65886e-07
1.04044e-05
-6.56798e-05
8.8444e-07
1.12465e-05
-6.34829e-05
8.05754e-07
1.13382e-05
-5.96876e-05
6.15236e-07
1.06328e-05
-5.42216e-05
2.85572e-07
9.53233e-06
-4.79601e-05
-1.81113e-07
8.62056e-06
-4.2276e-05
-6.68752e-07
8.20374e-06
-3.76435e-05
-1.00481e-06
8.34049e-06
-3.35658e-05
-1.16313e-06
8.94355e-06
-2.92763e-05
-1.12987e-06
9.76027e-06
-2.42491e-05
-9.15499e-07
1.04637e-05
-1.87925e-05
-6.21236e-07
1.09752e-05
-1.39379e-05
-3.68883e-07
1.14828e-05
-1.03101e-05
-1.95038e-07
1.21842e-05
-7.75159e-06
-7.20907e-08
1.31658e-05
-5.82884e-06
1.38203e-08
1.44092e-05
-4.2205e-06
7.46552e-08
1.58099e-05
-2.77815e-06
1.33379e-07
1.72255e-05
-1.4793e-06
1.79816e-07
1.88207e-05
-3.53377e-07
2.07232e-07
2.06058e-05
6.69619e-07
2.10223e-07
2.26679e-05
1.5857e-06
1.84435e-07
2.50907e-05
2.3831e-06
1.28327e-07
2.79221e-05
3.08909e-06
4.62808e-08
3.12028e-05
3.78449e-06
-8.08276e-08
3.49073e-05
4.6535e-06
-2.84367e-07
3.83328e-05
6.35621e-06
-5.52788e-07
3.7784e-05
1.15271e-05
-8.20617e-07
2.79383e-05
2.31164e-05
-1.06685e-06
9.3807e-06
3.61461e-05
-4.99755e-07
1.38071e-06
4.54795e-05
7.55226e-07
4.03794e-05
4.80527e-07
8.45933e-06
-4.58074e-05
-2.04357e-07
1.29899e-05
-6.36396e-05
-2.14593e-07
1.44115e-05
-6.6554e-05
-1.2604e-07
1.43232e-05
-6.62621e-05
1.98231e-08
1.32235e-05
-6.45585e-05
1.08335e-07
1.11298e-05
-6.14087e-05
1.47826e-07
8.01099e-06
-5.65329e-05
1.02277e-07
4.22409e-06
-5.02155e-05
-7.12205e-08
6.01439e-07
-4.37512e-05
-4.25266e-07
-2.31302e-06
-3.8411e-05
-7.67235e-07
-4.39855e-06
-3.43447e-05
-1.00472e-06
-5.67616e-06
-3.09403e-05
-1.1223e-06
-6.10663e-06
-2.7503e-05
-1.12536e-06
-5.65132e-06
-2.35237e-05
-1.01638e-06
-4.49589e-06
-1.90252e-05
-8.42295e-07
-3.02158e-06
-1.4725e-05
-6.76373e-07
-1.51473e-06
-1.13024e-05
-5.41139e-07
-7.55034e-08
-8.81051e-06
-4.20126e-07
1.30081e-06
-6.94986e-06
-2.95676e-07
2.62488e-06
-5.42382e-06
-1.55848e-07
3.85687e-06
-4.04371e-06
6.76457e-09
4.94213e-06
-2.72552e-06
1.45253e-07
5.75135e-06
-1.45449e-06
2.87214e-07
6.15724e-06
-1.49258e-07
4.14215e-07
6.45055e-06
7.76749e-07
5.20368e-07
6.57973e-06
1.6668e-06
6.00583e-07
6.57179e-06
2.47824e-06
6.55911e-07
6.48469e-06
3.26443e-06
6.86818e-07
6.37933e-06
4.17935e-06
6.78887e-07
6.08329e-06
6.01828e-06
6.27118e-07
4.8696e-06
1.20468e-05
4.54741e-07
1.41772e-06
2.51713e-05
-9.37338e-08
-4.91267e-06
3.95048e-05
-8.88156e-07
-4.84764e-06
4.27261e-05
-6.70163e-07
3.46932e-05
-5.2997e-07
3.57779e-06
-4.92167e-05
4.32349e-07
2.71191e-06
-6.27379e-05
3.48619e-07
3.56502e-07
-6.41955e-05
1.81731e-07
-2.40025e-06
-6.35372e-05
1.28505e-07
-5.37626e-06
-6.16485e-05
1.15013e-07
-8.40962e-06
-5.84673e-05
9.15334e-08
-1.1099e-05
-5.39158e-05
2.82761e-09
-1.29261e-05
-4.83677e-05
-1.69898e-07
-1.37502e-05
-4.27031e-05
-4.22915e-07
-1.40161e-05
-3.76791e-05
-6.57526e-07
-1.42114e-05
-3.34712e-05
-8.19083e-07
-1.44932e-05
-2.98258e-05
-9.04693e-07
-1.47008e-05
-2.6375e-05
-9.19316e-07
-1.44888e-05
-2.28058e-05
-8.66832e-07
-1.36357e-05
-1.90178e-05
-7.73719e-07
-1.23219e-05
-1.52826e-05
-6.86051e-07
-1.09388e-05
-1.20249e-05
-6.20127e-07
-9.75916e-06
-9.41239e-06
-5.61515e-07
-8.87898e-06
-7.33588e-06
-4.94495e-07
-8.30719e-06
-5.59769e-06
-4.09261e-07
-8.04894e-06
-4.0219e-06
-2.99032e-07
-8.15946e-06
-2.47971e-06
-1.59561e-07
-8.77331e-06
-8.68287e-07
-2.25124e-11
-9.83069e-06
6.62576e-07
2.15243e-07
-1.16667e-05
2.14186e-06
4.37785e-07
-1.43862e-05
3.67875e-06
6.71189e-07
-1.81125e-05
5.26036e-06
9.12095e-07
-2.29036e-05
6.91982e-06
1.15491e-06
-2.85936e-05
8.73037e-06
1.39379e-06
-3.40439e-05
1.08858e-05
1.61737e-06
-3.51246e-05
1.41791e-05
1.75327e-06
-2.7149e-05
2.02845e-05
1.54401e-06
-1.31428e-05
2.84386e-05
7.50779e-07
-5.34826e-06
3.55272e-05
-1.38263e-07
2.92556e-05
-1.71739e-07
-2.45909e-06
-4.73048e-05
7.88738e-07
-5.33429e-06
-6.049e-05
7.01138e-07
-7.64486e-06
-6.23826e-05
5.14759e-07
-9.57998e-06
-6.20435e-05
4.32025e-07
-1.11394e-05
-6.05457e-05
4.1898e-07
-1.21039e-05
-5.80138e-05
4.40642e-07
-1.21022e-05
-5.44747e-05
4.6341e-07
-1.09602e-05
-5.00409e-05
4.4426e-07
-9.056e-06
-4.50103e-05
3.44991e-07
-7.04383e-06
-3.98879e-05
1.62302e-07
-5.34706e-06
-3.51579e-05
-3.496e-08
-4.02057e-06
-3.09777e-05
-1.98178e-07
-2.895e-06
-2.71859e-05
-3.35424e-07
-1.77229e-06
-2.35192e-05
-4.17957e-07
-5.21692e-07
-1.98197e-05
-4.36633e-07
7.96582e-07
-1.61641e-05
-4.09114e-07
1.98469e-06
-1.28148e-05
-3.68153e-07
2.90553e-06
-9.97856e-06
-3.31092e-07
3.54329e-06
-7.66142e-06
-2.97041e-07
3.93986e-06
-5.72742e-06
-2.59075e-07
4.14159e-06
-4.01077e-06
-2.10904e-07
4.19096e-06
-2.38321e-06
-1.48405e-07
4.16235e-06
-7.74882e-07
-7.09355e-08
3.89053e-06
9.02548e-07
2.23155e-08
3.10703e-06
2.7244e-06
1.8782e-07
1.7375e-06
4.65253e-06
3.77193e-07
-3.63289e-07
6.73292e-06
6.01234e-07
-3.3817e-06
9.03191e-06
8.68765e-07
-7.5204e-06
1.16472e-05
1.18719e-06
-1.22933e-05
1.41939e-05
1.54838e-06
-1.52758e-05
1.58518e-05
1.90772e-06
-1.23926e-05
1.70946e-05
2.16176e-06
-1.32321e-06
2.01444e-05
2.08182e-06
3.46818e-06
3.43732e-05
1.73153e-06
3.28769e-05
1.20967e-06
-2.1253e-06
-4.6197e-05
8.9772e-07
-3.33315e-06
-6.06869e-05
1.13939e-06
-4.00922e-06
-6.28808e-05
8.48316e-07
-4.14303e-06
-6.28928e-05
6.1975e-07
-3.68391e-06
-6.19067e-05
5.06458e-07
-2.52766e-06
-6.00722e-05
4.80938e-07
-6.06793e-07
-5.73385e-05
5.14594e-07
1.94613e-06
-5.35566e-05
5.707e-07
4.74275e-06
-4.87052e-05
6.01847e-07
7.27204e-06
-4.31477e-05
5.67289e-07
9.18038e-06
-3.75659e-05
4.59842e-07
1.05003e-05
-3.25587e-05
3.03056e-07
1.15829e-05
-2.83119e-05
1.22638e-07
1.28028e-05
-2.4622e-05
-3.27396e-08
1.43551e-05
-2.11545e-05
-1.46871e-07
1.6194e-05
-1.77177e-05
-2.3428e-07
1.8102e-05
-1.44022e-05
-2.87072e-07
1.99283e-05
-1.14695e-05
-3.14381e-07
2.16935e-05
-9.08684e-06
-3.26383e-07
2.34985e-05
-7.19524e-06
-3.28199e-07
2.54197e-05
-5.60385e-06
-3.21133e-07
2.74897e-05
-4.14147e-06
-3.05321e-07
2.97216e-05
-2.71897e-06
-2.81095e-07
3.21986e-05
-1.31798e-06
-2.49222e-07
3.51819e-05
-4.08114e-08
-2.10708e-07
3.81588e-05
1.8479e-06
-1.66773e-07
4.11503e-05
3.85829e-06
-1.16709e-07
4.41063e-05
6.1218e-06
-5.67691e-08
4.69192e-05
8.79634e-06
2.82457e-08
4.8158e-05
1.27745e-05
2.36714e-07
4.55814e-05
1.797e-05
6.51067e-07
3.79398e-05
2.38468e-05
1.2595e-06
2.60218e-05
3.19291e-05
1.62374e-06
1.26928e-05
4.69074e-05
2.66462e-06
4.39932e-05
2.14846e-06
-5.11149e-06
-4.28858e-05
1.39586e-06
-8.08584e-06
-6.00785e-05
2.01135e-06
-9.46436e-06
-6.34218e-05
1.66879e-06
-9.78695e-06
-6.40613e-05
1.29544e-06
-9.20737e-06
-6.36707e-05
1.0131e-06
-7.74425e-06
-6.25312e-05
8.2162e-07
-5.34912e-06
-6.06601e-05
7.16723e-07
-1.94803e-06
-5.79211e-05
6.89062e-07
2.37268e-06
-5.40789e-05
7.15176e-07
7.13914e-06
-4.90143e-05
7.49076e-07
1.15843e-05
-4.30442e-05
7.40283e-07
1.50956e-05
-3.69282e-05
6.695e-07
1.7584e-05
-3.14355e-05
5.55185e-07
1.94518e-05
-2.69094e-05
4.26987e-07
2.12622e-05
-2.32008e-05
3.03717e-07
2.33818e-05
-1.99312e-05
1.92254e-07
2.58098e-05
-1.68241e-05
9.30867e-08
2.83136e-05
-1.3897e-05
3.84272e-09
3.07216e-05
-1.13857e-05
-5.27681e-08
3.3129e-05
-9.45882e-06
-1.06035e-07
3.57318e-05
-8.02932e-06
-1.50762e-07
3.86501e-05
-6.85099e-06
-1.87671e-07
4.1946e-05
-5.77719e-06
-2.1818e-07
4.5632e-05
-4.74094e-06
-2.44164e-07
4.95334e-05
-3.65565e-06
-2.70816e-07
5.40789e-05
-2.38567e-06
-3.08351e-07
5.89943e-05
-7.09237e-07
-3.74979e-07
6.29103e-05
2.58865e-06
-4.863e-07
6.28032e-05
8.85571e-06
-6.18468e-07
5.55944e-05
1.86469e-05
-8.05931e-07
4.27176e-05
2.91944e-05
-1.13265e-06
2.76677e-05
3.77247e-05
-1.2634e-06
1.08197e-05
4.57821e-05
-4.8682e-07
1.23525e-06
5.19368e-05
1.09518e-06
4.38095e-05
9.1008e-07
-3.23044e-06
-4.13689e-05
1.42549e-06
-5.26812e-06
-5.9897e-05
1.73493e-06
-6.36604e-06
-6.37942e-05
1.4603e-06
-6.9522e-06
-6.46111e-05
1.17107e-06
-7.13596e-06
-6.43477e-05
9.19881e-07
-6.95543e-06
-6.33453e-05
7.13537e-07
-6.37832e-06
-6.17099e-05
5.67937e-07
-5.22932e-06
-5.94794e-05
5.0109e-07
-3.19282e-06
-5.65899e-05
5.292e-07
-3.39812e-08
-5.28336e-05
6.44937e-07
4.05118e-06
-4.80074e-05
7.91469e-07
8.34339e-06
-4.22299e-05
8.87868e-07
1.19849e-05
-3.60779e-05
8.88943e-07
1.44895e-05
-3.03002e-05
8.11461e-07
1.59377e-05
-2.53832e-05
7.03879e-07
1.67873e-05
-2.13741e-05
6.05879e-07
1.7485e-05
-1.80079e-05
5.35722e-07
1.81671e-05
-1.50021e-05
4.92288e-07
1.86672e-05
-1.2283e-05
4.62576e-07
1.87849e-05
-9.96283e-06
4.38083e-07
1.85136e-05
-8.1384e-06
4.21206e-07
1.79936e-05
-6.7143e-06
4.15681e-07
1.73609e-05
-5.53957e-06
4.24819e-07
1.6684e-05
-4.47804e-06
4.51881e-07
1.59692e-05
-3.37617e-06
4.95684e-07
1.50905e-05
-1.98293e-06
5.48783e-07
1.34565e-05
2.8368e-07
6.03348e-07
1.13558e-05
3.88786e-06
5.88855e-07
7.44149e-06
1.20374e-05
2.32362e-07
9.26312e-07
2.42849e-05
-6.96227e-07
-7.06515e-06
3.54421e-05
-1.85586e-06
-1.35966e-05
4.15974e-05
-2.44422e-06
-1.56548e-05
4.44176e-05
-2.19214e-06
-1.01974e-05
4.33654e-05
-1.21654e-06
3.23159e-05
-7.9255e-07
-1.39751e-06
-4.11954e-05
1.14817e-06
-2.39563e-06
-6.01809e-05
1.24683e-06
-2.77929e-06
-6.45054e-05
1.06951e-06
-2.84413e-06
-6.54554e-05
8.78881e-07
-2.7163e-06
-6.51998e-05
6.84435e-07
-2.48568e-06
-6.41004e-05
4.79832e-07
-2.26951e-06
-6.22371e-05
2.72352e-07
-2.1834e-06
-5.9668e-05
8.07594e-08
-2.19995e-06
-5.65315e-05
-4.45604e-08
-1.97541e-06
-5.2999e-05
-5.32198e-08
-9.97009e-07
-4.91046e-05
1.14763e-07
1.0296e-06
-4.46776e-05
3.9445e-07
3.82068e-06
-3.95965e-05
6.84502e-07
6.62928e-06
-3.40364e-05
8.86671e-07
8.69839e-06
-2.84406e-05
9.64336e-07
9.6381e-06
-2.32631e-05
9.46445e-07
9.49343e-06
-1.87358e-05
8.88083e-07
8.51809e-06
-1.48317e-05
8.35511e-07
6.85867e-06
-1.13981e-05
8.15406e-07
4.43868e-06
-8.33506e-06
8.34071e-07
1.10259e-06
-5.6515e-06
8.82923e-07
-3.18802e-06
-3.35595e-06
9.53692e-07
-8.39518e-06
-1.37023e-06
1.04713e-06
-1.4443e-05
4.03422e-07
1.17006e-06
-2.11455e-05
2.01442e-06
1.33465e-06
-2.8345e-05
3.78651e-06
1.55622e-06
-3.53941e-05
5.99178e-06
1.83496e-06
-4.13368e-05
9.24499e-06
2.10865e-06
-4.26599e-05
1.44805e-05
2.19158e-06
-3.76377e-05
2.18339e-05
1.83609e-06
-2.91018e-05
2.93015e-05
1.05162e-06
-2.03959e-05
3.44209e-05
1.52279e-07
-1.20945e-05
3.66426e-05
-5.02701e-07
-5.30868e-06
3.64966e-05
-6.74392e-07
2.72207e-05
-3.16187e-07
-1.1536e-06
-4.07558e-05
7.14887e-07
-1.53699e-06
-6.04854e-05
6.69605e-07
-9.50238e-07
-6.56719e-05
5.88137e-07
1.63222e-07
-6.7053e-05
5.13349e-07
1.6021e-06
-6.703e-05
4.30798e-07
3.27093e-06
-6.60506e-05
3.24978e-07
5.04654e-06
-6.41485e-05
1.8121e-07
6.72094e-06
-6.12708e-05
-2.34264e-08
7.9332e-06
-5.74858e-05
-2.06521e-07
8.49356e-06
-5.31071e-05
-4.03723e-07
8.5644e-06
-4.86001e-05
-5.43666e-07
8.73762e-06
-4.42921e-05
-5.57863e-07
9.67476e-06
-4.01595e-05
-4.07301e-07
1.163e-05
-3.59164e-05
-1.30233e-07
1.4223e-05
-3.13271e-05
2.36812e-07
1.67782e-05
-2.63982e-05
5.39611e-07
1.86638e-05
-2.13659e-05
7.29426e-07
1.95634e-05
-1.65356e-05
8.1381e-07
1.94846e-05
-1.21213e-05
8.30506e-07
1.85602e-05
-8.1943e-06
8.23567e-07
1.68674e-05
-4.74184e-06
8.26237e-07
1.44516e-05
-1.75792e-06
8.55133e-07
1.13731e-05
8.18219e-07
9.15278e-07
7.5141e-06
3.26266e-06
1.01054e-06
2.87083e-06
5.50567e-06
1.14936e-06
-2.45053e-06
7.75222e-06
1.346e-06
-8.25746e-06
1.01943e-05
1.61752e-06
-1.38304e-05
1.30024e-05
1.97227e-06
-1.70575e-05
1.60094e-05
2.37905e-06
-1.49769e-05
1.88968e-05
2.74223e-06
-7.67206e-06
2.23892e-05
2.95461e-06
5.4013e-07
2.7339e-05
2.91754e-06
8.05533e-06
3.19644e-05
2.36831e-06
7.35604e-06
3.99212e-05
1.54321e-06
3.41642e-05
1.3386e-06
7.0878e-07
-4.14748e-05
-1.20024e-07
3.1664e-06
-6.25247e-05
-5.45703e-07
6.24425e-06
-6.82538e-05
-5.48754e-07
9.37898e-06
-6.96887e-05
-5.09731e-07
1.24025e-05
-6.95551e-05
-4.82458e-07
1.52292e-05
-6.83578e-05
-4.7726e-07
1.77487e-05
-6.60938e-05
-5.0127e-07
1.98281e-05
-6.26836e-05
-5.61113e-07
2.1393e-05
-5.82592e-05
-6.58179e-07
2.24205e-05
-5.31977e-05
-7.86772e-07
2.28613e-05
-4.79556e-05
-9.32453e-07
2.27826e-05
-4.30115e-05
-1.06433e-06
2.25792e-05
-3.8715e-05
-1.13647e-06
2.28747e-05
-3.50489e-05
-1.10373e-06
2.41555e-05
-3.16575e-05
-9.38557e-07
2.64952e-05
-2.8106e-05
-6.54159e-07
2.95249e-05
-2.41102e-05
-3.18306e-07
3.26409e-05
-1.96444e-05
-2.90568e-08
3.5253e-05
-1.49518e-05
2.19827e-07
3.7177e-05
-1.04364e-05
3.44531e-07
3.8531e-05
-6.44173e-06
3.92326e-07
3.95412e-05
-3.11185e-06
4.01473e-07
4.04985e-05
-4.79637e-07
3.99204e-07
4.14739e-05
1.9377e-06
4.00215e-07
4.24648e-05
4.13814e-06
4.13654e-07
4.35407e-05
6.24429e-06
4.51062e-07
4.4765e-05
8.43519e-06
5.31592e-07
4.64201e-05
1.06611e-05
6.74893e-07
4.81467e-05
1.34352e-05
9.09257e-07
4.76108e-05
1.82133e-05
1.32261e-06
4.33628e-05
2.45644e-05
1.97052e-06
3.67799e-05
3.2336e-05
2.48734e-06
2.73675e-05
4.14778e-05
2.52964e-06
1.33095e-05
5.33473e-05
2.83075e-06
4.57023e-05
2.20978e-06
4.8522e-06
-4.5276e-05
-1.10328e-06
1.04062e-05
-6.63768e-05
-1.54088e-06
1.51969e-05
-7.14145e-05
-1.39987e-06
1.92748e-05
-7.22489e-05
-1.27594e-06
2.27361e-05
-7.15621e-05
-1.20909e-06
2.55194e-05
-6.96835e-05
-1.20127e-06
2.73792e-05
-6.64139e-05
-1.26106e-06
2.80907e-05
-6.17021e-05
-1.39057e-06
2.78815e-05
-5.61841e-05
-1.55898e-06
2.73585e-05
-5.06746e-05
-1.71491e-06
2.6994e-05
-4.55102e-05
-1.8298e-06
2.68748e-05
-4.07707e-05
-1.90387e-06
2.69236e-05
-3.66355e-05
-1.94079e-06
2.72118e-05
-3.32457e-05
-1.93466e-06
2.80159e-05
-3.04683e-05
-1.87101e-06
2.96735e-05
-2.79564e-05
-1.72489e-06
3.23581e-05
-2.52871e-05
-1.46747e-06
3.58778e-05
-2.20527e-05
-1.10297e-06
3.96481e-05
-1.80207e-05
-7.01963e-07
4.30314e-05
-1.3441e-05
-3.65783e-07
4.58348e-05
-9.05877e-06
-1.48835e-07
4.83055e-05
-5.48706e-06
-3.52828e-08
5.07054e-05
-2.80451e-06
-3.35126e-09
5.34958e-05
-7.6854e-07