/*--------------------------------*- C++ -*----------------------------------*\
| =========                 |                                                 |
| \\      /  F ield         | OpenFOAM: The Open Source CFD Toolbox           |
|  \\    /   O peration     | Version:  v2012                                 |
|   \\  /    A nd           | Website:  www.openfoam.com                      |
|    \\/     M anipulation  |                                                 |
\*---------------------------------------------------------------------------*/
FoamFile
{
    version     2.0;
    format      ascii;
    class       volScalarField;
    location    "900/leftSolid";
    object      T;
}
// * * * * * * * * * * * * * * * * * * * * * * * * * * * * * * * * * * * * * //

dimensions      [0 0 0 1 0 0 0];


internalField   nonuniform List<scalar> 
130
(
444.4132
444.5212
444.7635
445.1316
445.6185
446.216
446.9126
447.6926
448.5347
449.4105
450.2814
451.0985
451.8033
444.3999
444.5125
444.7607
445.1379
445.6387
446.2569
446.9838
447.8072
448.7099
449.6678
450.6449
451.5899
452.4325
444.4072
444.5238
444.7808
445.1728
445.6967
446.35
447.1293
448.0299
449.0444
450.1608
451.3553
452.5824
453.7559
444.4209
444.5417
444.8076
445.2149
445.7632
446.4543
447.2915
448.2806
449.4308
450.755
452.2656
453.9644
455.8023
444.4317
444.5551
444.8267
445.2438
445.8079
446.5238
447.4004
448.4525
449.7059
451.2045
453.0235
455.2987
458.2831
444.4338
444.5573
444.829
445.2461
445.8102
446.5263
447.4029
448.4551
449.7085
451.2072
453.0263
455.3015
458.2859
444.4272
444.5481
444.8142
445.2217
445.7702
446.4615
447.2989
448.2882
449.4384
450.7628
452.2738
453.9726
455.8101
444.4173
444.5343
444.7917
445.1841
445.7084
446.3621
447.1417
448.0425
449.0571
450.1738
451.3685
452.5955
453.7684
444.413
444.5267
444.7758
445.1537
445.6551
446.2738
447.0011
447.8247
448.7277
449.6857
450.663
451.6079
452.4502
444.4218
444.5361
444.7803
445.1495
445.6373
446.2354
446.9324
447.7128
448.5552
449.4311
450.3023
451.1198
451.8252
)
;

boundaryField
{
    minX
    {
        type            zeroGradient;
    }
    minZ
    {
        type            zeroGradient;
    }
    maxZ
    {
        type            zeroGradient;
    }
    leftSolid_to_bottomAir
    {
        type            compressible::turbulentTemperatureRadCoupledMixed;
        refValue        nonuniform List<scalar> 
130
(
446.941
447.7026
448.4521
449.1444
449.8142
450.4794
451.1421
451.7956
452.429
453.0278
453.5746
454.0478
454.4205
447.298
448.1123
448.8789
449.5874
450.2826
450.9848
451.6975
452.4154
453.1274
453.8169
454.4614
455.0304
455.4752
447.4144
448.2618
449.066
449.8184
450.567
451.3339
452.1232
452.9295
453.7409
454.5403
455.3052
456.0088
456.5935
447.4236
448.3027
449.1467
449.9426
450.7411
451.567
452.4265
453.3244
454.2562
455.2167
456.2147
457.2961
458.4879
447.3701
448.2569
449.119
449.9366
450.7605
451.6181
452.5216
453.4848
454.5163
455.641
456.96
458.8245
462.3163
447.3727
448.2588
449.1206
449.938
450.7617
451.6191
452.5226
453.4859
454.5174
455.6423
456.9613
458.8259
462.3176
447.4282
448.3064
449.1494
449.9442
450.7419
451.567
452.426
453.3235
454.2552
455.2159
456.2147
457.2975
458.4912
447.4204
448.2664
449.0691
449.8201
450.5674
451.3332
452.1216
452.9271
453.738
454.5374
455.3029
456.0079
456.5945
447.3043
448.1178
448.8832
449.5904
450.2845
450.9855
451.697
452.4139
453.1252
453.8143
454.4591
455.0289
455.4753
446.9443
447.7074
448.4567
449.1483
449.8174
450.4819
451.1437
451.7965
452.4292
453.0278
453.5747
454.0486
454.4226
)
;
        refGradient     nonuniform List<scalar> 
130
(
0.100647
0.100647
0.100647
0.100647
0.06984392
0.06984392
0.06984392
0.06984392
0.01824798
0.01824798
0.01824798
0.01824798
-0.06592802
0.100647
0.100647
0.100647
0.100647
0.06984392
0.06984392
0.06984392
0.06984392
0.01824798
0.01824798
0.01824798
0.01824798
-0.06592802
0.0948137
0.0948137
0.0948137
0.0948137
0.0564063
0.0564063
0.0564063
0.0564063
-0.01549234
-0.01549234
-0.06592802
-0.06592802
-0.06592802
0.0948137
0.0948137
0.0948137
0.0948137
0.0564063
0.0564063
0.0564063
0.0564063
-0.01549234
-0.01549234
-0.06592802
-0.06592802
-0.06592802
0.09368663
0.09368663
0.09368663
0.09368663
0.05067725
0.05067725
0.05067725
0.05067725
-0.01549234
-0.01549234
-0.1316006
-0.1316006
-0.1316006
0.09368663
0.09368663
0.09368663
0.09368663
0.05067725
0.05067725
0.05067725
0.05067725
-0.01549234
-0.01549234
-0.1316006
-0.1316006
-0.1316006
0.09583776
0.09583776
0.09583776
0.09583776
0.05767477
0.05767477
0.05767477
0.05767477
-0.03269782
-0.03269782
-0.03269782
-0.03269782
-0.1316006
0.09583776
0.09583776
0.09583776
0.09583776
0.05767477
0.05767477
0.05767477
0.05767477
-0.03269782
-0.03269782
-0.03269782
-0.03269782
-0.1316006
0.1011373
0.1011373
0.1011373
0.1011373
0.07131539
0.07131539
0.07131539
0.07131539
0.01191588
0.01191588
0.01191588
0.01191588
0.01191588
0.1011373
0.1011373
0.1011373
0.1011373
0.07131539
0.07131539
0.07131539
0.07131539
0.01191588
0.01191588
0.01191588
0.01191588
0.01191588
)
;
        valueFraction   nonuniform List<scalar> 
130
(
0.0003213253
0.0003213253
0.0003213253
0.0003213253
0.0003213253
0.0003213253
0.0003213253
0.0003213253
0.0003213253
0.0003213253
0.0003213253
0.0003213253
0.0003213253
0.0003213253
0.0003213253
0.0003213253
0.0003213253
0.0003213253
0.0003213253
0.0003213253
0.0003213253
0.0003213253
0.0003213253
0.0003213253
0.0003213253
0.0003213253
0.0003213253
0.0003213253
0.0003213253
0.0003213253
0.0003213253
0.0003213253
0.0003213253
0.0003213253
0.0003213253
0.0003213253
0.0003213253
0.0003213253
0.0003213253
0.0003213253
0.0003213253
0.0003213253
0.0003213253
0.0003213253
0.0003213253
0.0003213253
0.0003213253
0.0003213253
0.0003213253
0.0003213253
0.0003213253
0.0003213253
0.0003213253
0.0003213253
0.0003213253
0.0003213253
0.0003213253
0.0003213253
0.0003213253
0.0003213253
0.0003213253
0.0003213253
0.0003213253
0.0003213253
0.0003213253
0.0003213253
0.0003213253
0.0003213253
0.0003213253
0.0003213253
0.0003213253
0.0003213253
0.0003213253
0.0003213253
0.0003213253
0.0003213253
0.0003213253
0.0003213253
0.0003213253
0.0003213253
0.0003213253
0.0003213253
0.0003213253
0.0003213253
0.0003213253
0.0003213253
0.0003213253
0.0003213253
0.0003213253
0.0003213253
0.0003213253
0.0003213253
0.0003213253
0.0003213253
0.0003213253
0.0003213253
0.0003213253
0.0003213253
0.0003213253
0.0003213253
0.0003213253
0.0003213253
0.0003213253
0.0003213253
0.0003213253
0.0003213253
0.0003213253
0.0003213253
0.0003213253
0.0003213253
0.0003213253
0.0003213253
0.0003213253
0.0003213253
0.0003213253
0.0003213253
0.0003213253
0.0003213253
0.0003213253
0.0003213253
0.0003213253
0.0003213253
0.0003213253
0.0003213253
0.0003213253
0.0003213253
0.0003213253
0.0003213253
0.0003213253
0.0003213253
)
;
        value           nonuniform List<scalar> 
130
(
444.3577
444.466
444.7087
445.0772
445.5644
446.1625
446.8596
447.6403
448.4829
449.3593
450.2309
451.0487
451.7536
444.3446
444.4575
444.706
445.0836
445.5848
446.2035
446.931
447.7551
448.6584
449.6171
450.595
451.5407
452.3836
444.3518
444.4688
444.7261
445.1185
445.6428
446.2968
447.0768
447.9781
448.9932
450.1106
451.3058
452.5338
453.7082
444.3655
444.4866
444.753
445.1607
445.7094
446.4012
447.2391
448.2292
449.3801
450.7054
452.2171
453.9172
455.7567
444.3763
444.5
444.7721
445.1897
445.7541
446.4708
447.3481
448.4012
449.6554
451.1554
452.9755
455.2527
458.2402
444.3784
444.5022
444.7743
445.1919
445.7565
446.4732
447.3506
448.4038
449.658
451.158
452.9783
455.2555
458.243
444.3718
444.4931
444.7596
445.1676
445.7165
446.4084
447.2466
448.2367
449.3876
450.7131
452.2254
453.9256
455.7643
444.362
444.4793
444.7371
445.1299
445.6546
446.3089
447.0892
447.9907
449.0058
450.1234
451.3192
452.5471
453.7205
444.3577
444.4716
444.7211
445.0995
445.6013
446.2205
446.9484
447.7728
448.6762
449.6351
450.6131
451.5587
452.4016
444.3664
444.481
444.7256
445.0952
445.5833
446.1819
446.8796
447.6606
448.5034
449.38
450.2519
451.07
451.7759
)
;
        Tnbr            T;
        qrNbr           qr;
        qr              none;
        thermalInertia  false;
        thicknessLayers List<scalar> 0();
        kappaLayers     List<scalar> 0();
        kappaMethod     solidThermo;
        kappa           none;
        alphaAni        none;
        alpha           none;
    }
    leftSolid_to_heater
    {
        type            compressible::turbulentTemperatureCoupledBaffleMixed;
        refValue        nonuniform List<scalar> 10(452.3267 453.0736 454.7141 457.5516 462.4723 462.4754 457.5603 454.7269 453.0904 452.3442);
        refGradient     uniform 0;
        valueFraction   nonuniform List<scalar> 10(0.5000003 0.5000003 0.5000003 0.5000003 0.5000003 0.5000003 0.5000003 0.5000003 0.5000003 0.5000003);
        value           nonuniform List<scalar> 10(452.0399 452.7282 454.2108 456.6539 460.3559 460.3588 456.6621 454.2235 452.7455 452.0596);
        Tnbr            T;
        thicknessLayers List<scalar> 0();
        kappaLayers     List<scalar> 0();
        kappaMethod     solidThermo;
        kappa           none;
        alphaAni        none;
        alpha           none;
        field           T;
    }
    leftSolid_to_topAir
    {
        type            compressible::turbulentTemperatureRadCoupledMixed;
        refValue        nonuniform List<scalar> 
130
(
306.0193
311.7834
317.1283
322.1213
326.8223
331.2828
335.5477
339.6541
343.5953
347.3253
350.8481
354.1617
357.2565
306.0178
311.7184
316.9478
321.7778
326.2666
330.4592
334.3889
338.0765
341.5315
344.7601
347.7538
350.4916
352.9379
306.0181
311.7287
316.9666
321.8017
326.2931
330.4878
334.4222
338.1218
341.6026
344.8712
347.9242
350.7464
353.3084
306.019
311.7348
316.9837
321.8362
326.3532
330.5853
334.5742
338.3536
341.951
345.3895
348.6887
351.8652
354.9309
306.0194
311.7378
316.991
321.8493
326.3743
330.6175
334.6226
338.4259
342.0588
345.5505
348.9302
352.2313
355.4962
306.0195
311.7379
316.9912
321.8496
326.3747
330.618
334.6231
338.4265
342.0594
345.5511
348.9309
352.2321
355.4971
306.0192
311.7353
316.9844
321.8371
326.3543
330.5867
334.5758
338.3554
341.9529
345.3916
348.691
351.8676
354.9335
306.0185
311.7295
316.9678
321.8033
326.295
330.49
334.4248
338.1247
341.6058
344.8747
347.928
350.7504
353.3125
306.0184
311.7195
316.9494
321.7799
326.2692
330.4623
334.3925
338.0805
341.5359
344.765
347.7591
350.4973
352.9439
306.0197
311.7844
317.1299
322.1236
326.8253
331.2865
335.5522
339.6593
343.6011
347.3316
350.855
354.1691
357.2643
)
;
        refGradient     nonuniform List<scalar> 
130
(
-2.175055
-2.175055
-2.175055
-2.175055
-2.194147
-2.194147
-2.194147
-2.194147
-2.247796
-2.247796
-2.247796
-2.247796
-2.356926
-2.175055
-2.175055
-2.175055
-2.175055
-2.194147
-2.194147
-2.194147
-2.194147
-2.247796
-2.247796
-2.247796
-2.247796
-2.356926
-2.188186
-2.188186
-2.188186
-2.188186
-2.233971
-2.233971
-2.233971
-2.233971
-2.31343
-2.31343
-2.356926
-2.356926
-2.356926
-2.188186
-2.188186
-2.188186
-2.188186
-2.233971
-2.233971
-2.233971
-2.233971
-2.31343
-2.31343
-2.356926
-2.356926
-2.356926
-2.19059
-2.19059
-2.19059
-2.19059
-2.242514
-2.242514
-2.242514
-2.242514
-2.31343
-2.31343
-2.444358
-2.444358
-2.444358
-2.19059
-2.19059
-2.19059
-2.19059
-2.242514
-2.242514
-2.242514
-2.242514
-2.31343
-2.31343
-2.444358
-2.444358
-2.444358
-2.1884
-2.1884
-2.1884
-2.1884
-2.234214
-2.234214
-2.234214
-2.234214
-2.334735
-2.334735
-2.334735
-2.334735
-2.444358
-2.1884
-2.1884
-2.1884
-2.1884
-2.234214
-2.234214
-2.234214
-2.234214
-2.334735
-2.334735
-2.334735
-2.334735
-2.444358
-2.175415
-2.175415
-2.175415
-2.175415
-2.194599
-2.194599
-2.194599
-2.194599
-2.254055
-2.254055
-2.254055
-2.254055
-2.254055
-2.175415
-2.175415
-2.175415
-2.175415
-2.194599
-2.194599
-2.194599
-2.194599
-2.254055
-2.254055
-2.254055
-2.254055
-2.254055
)
;
        valueFraction   nonuniform List<scalar> 
130
(
0.0003213253
0.0003213253
0.0003213253
0.0003213253
0.0003213253
0.0003213253
0.0003213253
0.0003213253
0.0003213253
0.0003213253
0.0003213253
0.0003213253
0.0003213253
0.0003213253
0.0003213253
0.0003213253
0.0003213253
0.0003213253
0.0003213253
0.0003213253
0.0003213253
0.0003213253
0.0003213253
0.0003213253
0.0003213253
0.0003213253
0.0003213253
0.0003213253
0.0003213253
0.0003213253
0.0003213253
0.0003213253
0.0003213253
0.0003213253
0.0003213253
0.0003213253
0.0003213253
0.0003213253
0.0003213253
0.0003213253
0.0003213253
0.0003213253
0.0003213253
0.0003213253
0.0003213253
0.0003213253
0.0003213253
0.0003213253
0.0003213253
0.0003213253
0.0003213253
0.0003213253
0.0003213253
0.0003213253
0.0003213253
0.0003213253
0.0003213253
0.0003213253
0.0003213253
0.0003213253
0.0003213253
0.0003213253
0.0003213253
0.0003213253
0.0003213253
0.0003213253
0.0003213253
0.0003213253
0.0003213253
0.0003213253
0.0003213253
0.0003213253
0.0003213253
0.0003213253
0.0003213253
0.0003213253
0.0003213253
0.0003213253
0.0003213253
0.0003213253
0.0003213253
0.0003213253
0.0003213253
0.0003213253
0.0003213253
0.0003213253
0.0003213253
0.0003213253
0.0003213253
0.0003213253
0.0003213253
0.0003213253
0.0003213253
0.0003213253
0.0003213253
0.0003213253
0.0003213253
0.0003213253
0.0003213253
0.0003213253
0.0003213253
0.0003213253
0.0003213253
0.0003213253
0.0003213253
0.0003213253
0.0003213253
0.0003213253
0.0003213253
0.0003213253
0.0003213253
0.0003213253
0.0003213253
0.0003213253
0.0003213253
0.0003213253
0.0003213253
0.0003213253
0.0003213253
0.0003213253
0.0003213253
0.0003213253
0.0003213253
0.0003213253
0.0003213253
0.0003213253
0.0003213253
0.0003213253
0.0003213253
0.0003213253
)
;
        value           nonuniform List<scalar> 
130
(
444.3034
444.4132
444.6574
445.0273
445.5159
446.1151
446.8135
447.5952
448.4389
449.3163
450.1889
451.0075
451.7132
444.2901
444.4045
444.6545
445.0334
445.5359
446.1558
446.8843
447.7093
448.6135
449.573
450.5516
451.498
452.3415
444.2972
444.4158
444.6746
445.0683
445.5937
446.2488
447.0298
447.9321
448.948
450.0662
451.2621
452.4909
453.6659
444.311
444.4336
444.7014
445.1104
445.6603
446.3531
447.1921
448.1831
449.3348
450.6609
452.1734
453.8742
455.7143
444.3218
444.447
444.7205
445.1394
445.705
446.4227
447.3011
448.3551
449.6101
451.1108
452.9315
455.2092
458.1966
444.3239
444.4492
444.7227
445.1417
445.7073
446.4252
447.3036
448.3576
449.6127
451.1135
452.9343
455.212
458.1994
444.3173
444.4401
444.708
445.1173
445.6674
446.3604
447.1995
448.1906
449.3423
450.6687
452.1816
453.8825
455.7218
444.3074
444.4263
444.6855
445.0796
445.6055
446.2609
447.0422
447.9447
448.9606
450.079
451.2755
452.5041
453.6781
444.3032
444.4187
444.6696
445.0493
445.5523
446.1727
446.9016
447.727
448.6313
449.591
450.5697
451.5161
452.3596
444.3121
444.4282
444.6743
445.0452
445.5347
446.1346
446.8334
447.6155
448.4593
449.337
450.2098
451.0288
451.7356
)
;
        Tnbr            T;
        qrNbr           qr;
        qr              none;
        thermalInertia  false;
        thicknessLayers List<scalar> 0();
        kappaLayers     List<scalar> 0();
        kappaMethod     solidThermo;
        kappa           none;
        alphaAni        none;
        alpha           none;
    }
}


// ************************************************************************* //
