/*--------------------------------*- C++ -*----------------------------------*\
| =========                 |                                                 |
| \\      /  F ield         | OpenFOAM: The Open Source CFD Toolbox           |
|  \\    /   O peration     | Version:  v2006                                 |
|   \\  /    A nd           | Website:  www.openfoam.com                      |
|    \\/     M anipulation  |                                                 |
\*---------------------------------------------------------------------------*/
FoamFile
{
    version     2.0;
    format      ascii;
    class       volScalarField;
    location    "24";
    object      k;
}
// * * * * * * * * * * * * * * * * * * * * * * * * * * * * * * * * * * * * * //

dimensions      [0 2 -2 0 0 0 0];


internalField   nonuniform List<scalar> 
78750
(
0.0206996
0.0380084
0.0471739
0.0565085
0.0506864
0.0364138
0.0301396
0.0666143
0.0580178
0.0567458
0.059313
0.0608056
0.0625977
0.0598676
0.0433224
0.0490786
0.0310511
0.0493567
0.0456801
0.0554704
0.052988
0.0673268
0.0624934
0.0566412
0.0448912
0.0369196
0.0360851
0.038064
0.0395102
0.0445248
0.0457302
0.0534224
0.0731055
0.123231
0.148735
0.0909298
0.0967207
0.0844332
0.102101
0.121009
0.127443
0.105532
0.0610324
0.0618467
0.0530758
0.0676057
0.0812459
0.0873845
0.101977
0.0706995
0.0778291
0.0802964
0.0938127
0.0979108
0.108392
0.110621
0.107773
0.111868
0.126111
0.0926604
0.048159
0.019454
0.0243154
0.0308311
0.0312561
0.030986
0.00965369
0.00354898
0.0101065
0.0340102
0.158776
0.273785
0.246852
0.225852
0.199628
0.175288
0.152743
0.121928
0.0813061
0.0626484
0.0772959
0.0768908
0.104616
0.0624223
0.0450024
0.133668
0.0903932
0.0920252
0.0801047
0.0778211
0.0670443
0.0734653
0.0792112
0.0894737
0.0657892
0.0393142
0.0238601
0.0204032
0.0221411
0.0279706
0.017297
0.0362218
0.0332333
0.0199028
0.13933
0.256733
0.321583
0.32863
0.329348
0.318404
0.294532
0.272344
0.244693
0.218009
0.192311
0.189707
0.150397
0.138409
0.118033
0.0672861
0.0576252
0.0782323
0.0858108
0.0881851
0.0809794
0.0687991
0.0573249
0.0489705
0.0493708
0.0503295
0.0408498
0.0388202
0.0308506
0.0317627
0.0309206
0.0278335
0.0350589
0.0315731
0.0146519
0.10474
0.197778
0.246415
0.192001
0.103715
0.10361
0.0742588
0.0879285
0.0688527
0.0656208
0.0491767
0.0268246
0.0666981
0.0182072
0.0680134
0.0252136
0.0527188
0.0430944
0.032538
0.0498919
0.0579731
0.0458263
0.0432529
0.0358498
0.035997
0.0397907
0.0412002
0.0403214
0.0387063
0.0392583
0.0286003
0.0216117
0.0183291
0.0206997
0.0706859
0.156167
0.183435
0.211806
0.089528
0.0275574
0.0354931
0.0203408
0.0447256
0.0289731
0.0225488
0.0343945
0.00329302
0.0252574
0.00643885
0.00793028
0.0055047
0.00404734
0.00888457
0.00375722
0.00216512
0.0121719
0.011741
0.0126136
0.0144803
0.0114862
0.0147873
0.0163271
0.0227276
0.0222843
0.0257159
0.021477
0.0221325
0.0112731
0.0112437
0.0325336
0.181079
0.15092
0.202582
0.188641
0.123012
0.069506
0.0270103
0.0153439
0.0126187
0.00672711
0.0096088
0.00614535
0.00640807
0.00427366
0.00417965
0.00414306
0.00398667
0.00407714
0.00397645
0.00385673
0.00469124
0.00526727
0.00469815
0.0074217
0.00711829
0.00394644
0.000586446
0.00195134
0.00228025
0.0121389
0.0140282
0.0205412
0.0234196
0.0279193
0.0644454
0.187026
0.0910899
0.104062
0.091788
0.0366284
0.0164
0.00262805
0.00598854
0.0070332
0.00729828
0.0061766
0.00479909
0.00267607
0.00138184
0.000642292
0.000271271
0.000716725
0.000982198
0.00163582
0.00151556
0.00343606
0.00613666
0.00595613
0.00558937
0.010428
0.0163675
0.0267888
0.0261212
0.0167275
0.0182464
0.0213472
0.0357145
0.0473397
0.0468123
0.0601601
0.169329
0.0647979
0.0254759
0.0174117
0.00446349
0.00668153
0.00685182
0.00719141
0.0133615
0.0214942
0.0204323
0.0134349
0.00723014
0.00361201
0.00212405
0.00184726
0.00231026
0.00462214
0.00773222
0.00945858
0.0212741
0.0403815
0.0468647
0.040616
0.0300983
0.0194633
0.0079705
0.0087248
0.00751667
0.0105379
0.0140102
0.0216822
0.0198724
0.00550902
0.0443868
0.199894
0.116547
0.0892651
0.0842545
0.0979605
0.120257
0.134913
0.138693
0.121098
0.0881276
0.0541909
0.0268983
0.00898094
0.00149
0.00116637
0.00361986
0.0142448
0.0389348
0.0682454
0.0825419
0.0795211
0.0690125
0.0557046
0.0406441
0.0246023
0.00846977
0.00103283
0.00207884
0.00181072
0.00196596
0.00230668
0.00398971
0.00465092
0.0293553
0.0904625
0.231991
0.150384
0.176621
0.188095
0.202011
0.169811
0.148255
0.102518
0.054362
0.0130567
0.00229033
0.00145885
0.00045649
3.48823e-05
0.00106325
0.00587694
0.0168724
0.0404251
0.0699601
0.0906405
0.0973463
0.0951198
0.0886061
0.0800215
0.0703655
0.0612387
0.0544723
0.0515975
0.0509937
0.052959
0.0605435
0.0763093
0.107297
0.159507
0.22214
0.343679
0.151522
0.1828
0.174772
0.110343
0.0503328
0.0334451
0.00961791
0.00441093
0.00189786
0.000993258
0.000811469
0.00152045
0.00402361
0.00657931
0.011048
0.0206985
0.0379159
0.0601489
0.0816444
0.097447
0.108131
0.116164
0.122737
0.128813
0.135355
0.143322
0.153273
0.165138
0.179642
0.198197
0.221713
0.251437
0.285509
0.316335
0.338968
0.115495
0.131436
0.0527695
0.00225675
0.00777803
0.00523958
0.00143916
0.00557125
0.00123765
0.00288895
0.000493646
0.0011043
0.00178573
0.00417271
0.0069618
0.0104517
0.0165451
0.0261229
0.0392389
0.0541672
0.0697817
0.0858547
0.102645
0.119736
0.137564
0.15606
0.175161
0.194496
0.213854
0.232985
0.251254
0.267302
0.277691
0.273974
0.220492
0.0652483
0.104112
0.015263
0.00746704
0.00806879
0.000189754
0.00532386
0.0050406
0.000205858
0.00418056
0.000653408
0.00204323
0.000704119
0.00180243
0.00296132
0.00542583
0.00836975
0.0115827
0.0155761
0.0207928
0.0273346
0.0355191
0.0455338
0.0572612
0.0706432
0.0852714
0.100632
0.115898
0.130186
0.142509
0.151696
0.156167
0.15348
0.138075
0.0906427
0.0219411
0.105808
0.0373686
0.0138795
0.023534
0.0145875
0.0063237
0.00739285
0.00363687
0.00459911
0.00167441
0.00196453
0.000848148
0.000513529
0.000350362
0.000700413
0.00140048
0.00251281
0.00437408
0.0065599
0.00908038
0.01155
0.0146821
0.0181285
0.0222498
0.0269893
0.0323031
0.0378961
0.0432969
0.0478428
0.0507665
0.051242
0.0483256
0.0402825
0.0255257
0.0315789
0.100653
0.0857684
0.0258795
0.018353
0.0441747
0.0490978
0.0434287
0.0264676
0.014123
0.00858166
0.00643607
0.00482489
0.00384672
0.00235829
0.000695709
0.000392343
0.000133817
0.00028543
0.000783174
0.00163417
0.00315481
0.00467984
0.00640246
0.00816944
0.00991934
0.0115638
0.0129992
0.0141557
0.0150192
0.0155254
0.0154725
0.0146111
0.0125128
0.0103167
0.045669
0.123551
0.121045
0.0683304
0.050527
0.0726606
0.0895717
0.0960568
0.0870455
0.066298
0.0415156
0.0211051
0.0100928
0.0056453
0.00434147
0.00416495
0.00342502
0.0014546
0.000142383
0.00012628
3.78943e-05
0.000136174
0.00077733
0.00153081
0.0024087
0.00346056
0.00468184
0.00600014
0.00726601
0.00820624
0.00867636
0.00877526
0.00854452
0.00778681
0.00698357
0.0571841
0.154154
0.141986
0.114713
0.111228
0.118261
0.117957
0.108915
0.0889673
0.0628368
0.0373831
0.0191379
0.00963065
0.00607128
0.00508237
0.00459882
0.0041537
0.00385655
0.00250855
0.000702644
2.8305e-05
3.78193e-05
8.01358e-05
0.000342347
0.000958354
0.0016196
0.00227261
0.00298802
0.0038436
0.00482784
0.00567855
0.00613791
0.00624412
0.00597498
0.00585595
0.0401501
0.167252
0.159914
0.147268
0.130951
0.103476
0.0798501
0.0575583
0.0359641
0.0189608
0.00927384
0.00566001
0.00485565
0.00470861
0.00456583
0.00434925
0.00406905
0.00364926
0.00318801
0.00234608
0.000755469
0.000241827
2.44635e-05
3.66926e-06
2.1461e-05
0.000217487
0.000740611
0.00141121
0.00213098
0.00286331
0.00363624
0.00423713
0.00452675
0.00454386
0.00489362
0.025356
0.16197
0.160356
0.147754
0.0873441
0.0468995
0.0252588
0.0133461
0.0076983
0.00588148
0.00552518
0.00542758
0.0052733
0.00504595
0.00478108
0.00450935
0.00423493
0.00394065
0.00361111
0.00317868
0.00256531
0.00198529
0.00118754
0.000190863
3.66491e-05
4.76446e-05
4.58091e-05
9.98495e-05
0.000518476
0.00125058
0.00201597
0.00278186
0.003274
0.00353346
0.00455717
0.012079
0.155824
0.156702
0.114361
0.039065
0.0143919
0.00786556
0.00612872
0.00572
0.00560896
0.00553267
0.00541978
0.00524656
0.00500744
0.0047203
0.00441691
0.00411901
0.0038318
0.00354854
0.00325409
0.00292401
0.00253186
0.00197965
0.00129527
0.000527793
0.000110872
2.97566e-05
5.10332e-05
4.37781e-05
7.96895e-05
0.000712866
0.00142261
0.00223639
0.0029686
0.00475354
0.0093675
0.138034
0.168375
0.0683628
0.0164936
0.00758
0.00704423
0.00624044
0.00604518
0.00594442
0.00586612
0.00574126
0.00555703
0.00531978
0.00504322
0.0047413
0.00442378
0.00409789
0.00376666
0.00342691
0.00306478
0.00264416
0.00211843
0.00147757
0.000789671
0.000169195
3.84138e-05
5.15603e-05
2.59722e-05
0.000164147
0.000664576
0.0015608
0.00227531
0.00304481
0.00438
0.00508206
0.0846268
0.151928
0.0307535
0.0118217
0.00813603
0.00797528
0.00654112
0.00619148
0.00592356
0.00585167
0.00576819
0.00562523
0.00542015
0.00517322
0.00490533
0.00462709
0.00434076
0.0040443
0.00373174
0.00339164
0.00300334
0.00252534
0.00193994
0.00129074
0.000681228
0.000255659
3.19224e-05
7.15956e-05
8.84315e-05
0.000733091
0.00201298
0.00279776
0.0031376
0.00315012
0.00751811
0.0401047
0.101968
0.0102916
0.0178384
0.0151088
0.0125997
0.00947465
0.00747208
0.0064446
0.00600382
0.00587285
0.00580539
0.00569802
0.00552707
0.0053034
0.00504963
0.0047851
0.00451835
0.00424874
0.00397212
0.00368302
0.00337177
0.00302426
0.00263134
0.00220583
0.00178798
0.00141742
0.00112525
0.000897154
0.000656082
0.000400192
0.00124932
0.00210337
0.00321576
0.0103182
0.0472823
0.093854
0.0443232
0.0419484
0.0366329
0.029486
0.0213983
0.0141696
0.00938178
0.00692483
0.00594288
0.00565436
0.00556465
0.00547496
0.00533655
0.00515152
0.00493556
0.00470431
0.00446555
0.00421673
0.00394968
0.00365886
0.00334377
0.00300422
0.00264041
0.00224679
0.00184917
0.001454
0.00105587
0.000904902
0.000757252
0.00134846
0.00247526
0.00427112
0.0133023
0.0640494
0.0918236
0.067443
0.0553369
0.0440842
0.0329775
0.0225558
0.0142695
0.0090192
0.00651669
0.00569261
0.00554659
0.00554929
0.00552067
0.00542745
0.00527934
0.0050936
0.00488412
0.00465778
0.00441338
0.00414511
0.00384751
0.00351415
0.00312861
0.00264665
0.00206211
0.00142609
0.000818067
0.000634834
0.00111521
0.00179223
0.00240527
0.00297151
0.00321597
0.00634573
0.0366266
0.0464868
0.0368361
0.0275781
0.0189054
0.0120032
0.00760985
0.00563896
0.00514924
0.00519188
0.00532611
0.00544027
0.00551157
0.0055312
0.00549858
0.00542038
0.00530596
0.00516333
0.00499776
0.00481142
0.00460479
0.00437513
0.0041139
0.0038083
0.00343937
0.00299209
0.00248897
0.00200664
0.00164806
0.00154127
0.00174349
0.00209186
0.00221282
0.00195207
0.00352157
0.00929489
0.0103869
0.00845085
0.00668172
0.00558794
0.0051553
0.00510014
0.00515747
0.00523917
0.00533584
0.00544252
0.00553968
0.00560736
0.00563615
0.0056255
0.00557953
0.0055035
0.00540203
0.00527864
0.0051357
0.00497513
0.0047988
0.00460501
0.00438726
0.00413815
0.00385702
0.00356515
0.00327087
0.00292183
0.00252232
0.00206999
0.00162264
0.00159568
0.00290738
0.00321663
0.00475719
0.0049238
0.00489788
0.00488157
0.00489854
0.00494435
0.00500801
0.00508144
0.00517067
0.00528878
0.00543087
0.0055635
0.00565958
0.00571268
0.00572402
0.0056978
0.00563771
0.00554628
0.00542586
0.00527938
0.00511031
0.00492201
0.00471764
0.00450303
0.00428684
0.00407329
0.00379816
0.0033728
0.00295626
0.00259126
0.00209915
0.00194504
0.0025242
0.00456159
0.00356792
0.00473533
0.00483159
0.00482117
0.00480363
0.00479996
0.00482277
0.00487321
0.0049406
0.00502762
0.00515424
0.00532438
0.00550315
0.00564029
0.00571977
0.00574939
0.00573274
0.00567062
0.00556351
0.00541279
0.00522132
0.00499362
0.00473528
0.00445178
0.0041264
0.00368604
0.00305528
0.00271309
0.00286362
0.00293328
0.00277451
0.00249231
0.00249634
0.00287769
0.0038712
0.00382485
0.00478428
0.00486621
0.00484557
0.00479988
0.00474619
0.00470865
0.00471597
0.00476349
0.00483389
0.00494273
0.00511686
0.00533813
0.00554773
0.00569442
0.00577126
0.0057897
0.00575203
0.00565746
0.00550632
0.00530062
0.00504388
0.00474158
0.00437272
0.00386413
0.00314665
0.00234854
0.00202805
0.00237176
0.00263693
0.00265466
0.00254902
0.00249857
0.0024862
0.0024993
0.00404705
0.00497427
0.00510243
0.00509845
0.00503565
0.00491897
0.00476816
0.00465655
0.00463929
0.004677
0.00473392
0.0048388
0.00502764
0.00527542
0.00551446
0.00569519
0.00580454
0.00584804
0.00582706
0.00573963
0.00558556
0.00536615
0.00507447
0.00468828
0.00417632
0.00350737
0.00273632
0.00214786
0.0020386
0.00215353
0.00222697
0.00221779
0.00216625
0.00205094
0.00206084
0.00426649
0.00527781
0.00551676
0.00557616
0.00553739
0.00538978
0.00511905
0.00479977
0.00461263
0.00459495
0.00463697
0.00468022
0.00475094
0.0048937
0.00510434
0.00533184
0.00553076
0.00568082
0.00577476
0.00580753
0.00577398
0.00566911
0.00548737
0.00522111
0.0048586
0.00438296
0.00379017
0.00314938
0.00263296
0.00233792
0.00221007
0.00214698
0.00208491
0.00199354
0.00219544
0.00452577
0.00561881
0.00596394
0.00610271
0.00612715
0.00601869
0.00572573
0.00524028
0.00478164
0.00458751
0.00459802
0.00467053
0.00474105
0.00481147
0.00490819
0.00504006
0.0051901
0.00533549
0.00546056
0.00555469
0.00560762
0.00560868
0.00554755
0.00541465
0.00520076
0.00489661
0.00449422
0.00399656
0.00344422
0.00292723
0.00254903
0.00234217
0.00223395
0.0021463
0.00236545
0.0048708
0.00589885
0.00624739
0.00641223
0.0064807
0.00643169
0.00620161
0.00571698
0.00510177
0.00469717
0.0045747
0.00459985
0.00467995
0.00478291
0.00490496
0.00504172
0.00518331
0.00531923
0.00544151
0.00554309
0.00561598
0.00565077
0.00563723
0.00556445
0.00542084
0.00519494
0.00487487
0.00444928
0.00391565
0.00330653
0.00273021
0.00233882
0.0021551
0.0020601
0.00226785
0.00521801
0.00603587
0.00630932
0.00645063
0.00652734
0.0065185
0.00636497
0.00598506
0.00540836
0.00492781
0.00472279
0.00468634
0.00470819
0.00475083
0.00481731
0.00491296
0.00503185
0.00516233
0.00529405
0.00541849
0.00552628
0.00560676
0.00564861
0.00563986
0.00556829
0.00542077
0.00518252
0.004837
0.00436873
0.00377724
0.00311892
0.00254408
0.0021891
0.00198992
0.00216149
0.00555069
0.00607522
0.00622939
0.00630633
0.00634184
0.00631243
0.00616864
0.00586191
0.00541794
0.00501466
0.00481414
0.00477965
0.00481361
0.00486407
0.00492159
0.00498916
0.00506977
0.00516362
0.00526861
0.00538088
0.00549327
0.00559497
0.00567335
0.00571569
0.00570931
0.00564058
0.0054938
0.00525069
0.00489133
0.0043999
0.00378776
0.0031451
0.00264054
0.00230489
0.00235183
0.00563937
0.00596988
0.0060542
0.00608579
0.00607644
0.00600111
0.0058361
0.00558737
0.00530226
0.00506258
0.00492428
0.00487483
0.00487626
0.00490097
0.004939
0.00498811
0.00504744
0.00511767
0.0052004
0.00529726
0.00540666
0.0055213
0.00562879
0.00571505
0.00576691
0.00577166
0.00571476
0.00557765
0.00533636
0.00496299
0.00444145
0.00382267
0.00327106
0.00285838
0.00273007
0.00561409
0.00583303
0.00587663
0.00587443
0.00581738
0.00567899
0.00547675
0.00527367
0.00511661
0.00502271
0.00498404
0.0049783
0.00498726
0.00500042
0.00501533
0.00503373
0.00505733
0.00508874
0.00513177
0.00519132
0.005272
0.00537344
0.00548706
0.00559711
0.00568641
0.00574025
0.00574438
0.0056803
0.00552053
0.00522907
0.00478202
0.00422354
0.00369621
0.00323286
0.00287641
0.00535256
0.00564457
0.00570964
0.00570635
0.0056253
0.00544644
0.00522649
0.00506474
0.00498552
0.00495571
0.00495264
0.00496622
0.00498891
0.00501197
0.00502979
0.00504082
0.00504569
0.00504689
0.00504935
0.00506011
0.00508816
0.00514278
0.0052272
0.00533212
0.00543605
0.00551451
0.00554592
0.00550815
0.00537319
0.00511017
0.00470774
0.00421283
0.00372024
0.00320303
0.00261839
0.00506494
0.00553384
0.00564577
0.0056623
0.00558877
0.00540059
0.00514064
0.00492722
0.00483303
0.00482511
0.00485075
0.00488623
0.00492497
0.00496213
0.00499287
0.00501286
0.00501917
0.00501069
0.00498979
0.00496114
0.00493306
0.00491819
0.004931
0.0049814
0.0050621
0.00514336
0.00518484
0.00514945
0.00500709
0.00474027
0.00436012
0.00391502
0.00345327
0.00291811
0.00226103
0.00474959
0.00543095
0.00561205
0.00567748
0.00566037
0.00552765
0.00526421
0.00494122
0.00470067
0.00460773
0.00461675
0.00466876
0.00473392
0.00479952
0.00485953
0.00490874
0.00494175
0.00495284
0.00494003
0.00490514
0.00485255
0.00479032
0.00473146
0.00469401
0.00469733
0.00473858
0.00477991
0.00476371
0.0046436
0.00440328
0.00406251
0.00366787
0.00324877
0.00274664
0.00212603
0.00454304
0.00535214
0.0055845
0.0056992
0.00575304
0.00571715
0.005544
0.00521353
0.00481356
0.00451341
0.00438914
0.00439276
0.00445618
0.00453962
0.00462643
0.00470904
0.00478081
0.00483244
0.00485595
0.00484862
0.00481157
0.00474844
0.00466557
0.00457532
0.0044992
0.00446002
0.00445902
0.00445564
0.00438606
0.0042122
0.0039411
0.00360955
0.00324277
0.00278535
0.00218854
0.00439342
0.00521547
0.00546711
0.00561509
0.00573262
0.00580204
0.00577647
0.0055958
0.00522731
0.00475566
0.00437108
0.00418369
0.00416004
0.00422176
0.00431535
0.00441813
0.00452015
0.00461151
0.00467942
0.00471451
0.0047136
0.00467765
0.00460891
0.0045117
0.00439745
0.00428975
0.00421938
0.00419396
0.00416745
0.00407238
0.00388068
0.00360967
0.00328043
0.00283805
0.00223992
0.0042907
0.00505595
0.00529191
0.00544081
0.00558837
0.00573881
0.00585645
0.00587514
0.00572573
0.00536243
0.00483808
0.00434474
0.00404856
0.00396014
0.00399822
0.00409136
0.00420462
0.00432171
0.00442784
0.00450709
0.00454831
0.00454767
0.00450491
0.00441987
0.00429424
0.00413805
0.00398011
0.00386604
0.00381407
0.00376823
0.00365236
0.00344601
0.00315599
0.00272781
0.0021708
0.00421977
0.00492011
0.00513013
0.00525134
0.00537504
0.00553376
0.00573066
0.00591183
0.00598919
0.00589411
0.00557849
0.00504681
0.00445122
0.00401122
0.00381545
0.00380205
0.00388146
0.00399935
0.00412806
0.00424657
0.00433522
0.00438047
0.00437626
0.00431904
0.00420477
0.00403015
0.00380323
0.00356318
0.00337616
0.00326671
0.00317402
0.00303529
0.00282381
0.00247813
0.00203873
0.00428176
0.00502393
0.00525142
0.00535222
0.00542304
0.00550403
0.00564339
0.00585938
0.00607274
0.00617508
0.00611125
0.00584925
0.00535598
0.00469877
0.00410612
0.00376317
0.00366443
0.00371119
0.00382412
0.00395933
0.00408751
0.00418445
0.00423314
0.00422361
0.00414891
0.00400021
0.00376956
0.00346771
0.00315072
0.0029016
0.00274564
0.00263297
0.00250383
0.00227758
0.00194383
0.00468558
0.00552651
0.00580792
0.00592507
0.00597913
0.00598283
0.00597254
0.00604562
0.0062132
0.00636319
0.00640303
0.0063089
0.00606837
0.0056361
0.00499146
0.00429645
0.00380557
0.00360144
0.00359823
0.00369508
0.00383088
0.00396677
0.00407198
0.00412364
0.00410883
0.00401825
0.00384143
0.00357344
0.00324019
0.00291774
0.00268616
0.00254805
0.00244208
0.00226977
0.00192113
0.00560845
0.0062801
0.00652223
0.00666148
0.00677551
0.00682308
0.00676698
0.00670185
0.00671218
0.0067537
0.00674892
0.0066668
0.00650361
0.00624501
0.00584251
0.00523784
0.00450556
0.00390456
0.00359908
0.00353797
0.0036106
0.00374145
0.00388211
0.00399353
0.00404805
0.00403013
0.00393036
0.00374267
0.0034764
0.00317846
0.00292387
0.0027476
0.00261231
0.00241305
0.00194315
0.00673248
0.0067187
0.00676916
0.00689649
0.00713348
0.00736571
0.00745002
0.00742137
0.00736234
0.00729455
0.00720437
0.00707943
0.00691358
0.0066983
0.00641163
0.0060069
0.00542465
0.00469079
0.00402243
0.00363102
0.00351303
0.00356041
0.00368474
0.0038261
0.00393962
0.00399462
0.00397462
0.00387294
0.00369363
0.00346293
0.00323079
0.00303449
0.00286004
0.00260381
0.00197764
0.00705845
0.00645475
0.00637805
0.00652262
0.00690741
0.00735367
0.00765073
0.00777998
0.00779725
0.00774681
0.00765053
0.00751682
0.00734832
0.00714402
0.00689659
0.00658587
0.00617185
0.00560156
0.00487598
0.00416045
0.00368599
0.00350695
0.00352918
0.00364832
0.00378963
0.00390267
0.00395571
0.00393323
0.00383349
0.00367082
0.00347656
0.00328104
0.00308273
0.0027811
0.00202481
0.0063095
0.00586554
0.00590044
0.00608658
0.00643218
0.00685308
0.00724301
0.0075491
0.00775438
0.00786024
0.00787804
0.00782252
0.0077072
0.00754227
0.00733334
0.00707878
0.00676441
0.00635776
0.00580826
0.00509331
0.00432977
0.00376096
0.00351154
0.00350975
0.00362694
0.00376783
0.00387577
0.00392044
0.00389039
0.00379032
0.00363932
0.00346026
0.00325653
0.00293084
0.00209098
0.00550393
0.00586497
0.00613777
0.00629839
0.00640178
0.00650357
0.00666636
0.00690725
0.00719627
0.00747454
0.0076863
0.0078033
0.00782503
0.00776404
0.00763461
0.00744765
0.00720777
0.00690853
0.00652558
0.00601048
0.00531587
0.00450832
0.00384055
0.00352167
0.00350828
0.00363538
0.00377798
0.00387189
0.00389233
0.00383727
0.00371994
0.00355983
0.00336217
0.00303236
0.00216746
0.00526132
0.00651224
0.00704475
0.00729299
0.00738242
0.00732416
0.00715184
0.00696314
0.00688092
0.00696513
0.00717758
0.00742006
0.00760583
0.00769755
0.00769579
0.00761423
0.00746476
0.00725373
0.00697874
0.00662166
0.00613824
0.00546721
0.00463037
0.00388359
0.00351749
0.00350635
0.00364816
0.00379065
0.00386397
0.00385121
0.00376323
0.0036206
0.00343115
0.00310315
0.00223974
0.00543903
0.00701583
0.00772973
0.008175
0.0085097
0.00870175
0.00867773
0.00839317
0.00791608
0.00744268
0.00716332
0.00713687
0.00727754
0.00744662
0.00755455
0.00757793
0.00752318
0.00740106
0.00721633
0.00696471
0.0066278
0.00616226
0.00550115
0.00465042
0.00389153
0.00355197
0.00356847
0.00370541
0.00381097
0.00383269
0.00377312
0.00365326
0.00348252
0.00317531
0.00235891
0.00580005
0.00701697
0.00763577
0.00811538
0.00862279
0.00914168
0.00954734
0.00970045
0.00953222
0.00903987
0.00834564
0.00771837
0.00737876
0.00732945
0.00740786
0.00747509
0.00748061
0.00742156
0.00730173
0.0071202
0.00687112
0.0065336
0.00605423
0.00535584
0.00447452
0.00378076
0.00355855
0.00364717
0.00378931
0.00385547
0.00382569
0.00372339
0.0035646
0.00327092
0.002492
0.00642998
0.00706387
0.00746546
0.00784176
0.00831937
0.00891938
0.0095516
0.0100345
0.0102524
0.0101932
0.00984437
0.0091732
0.00834598
0.00775069
0.00752115
0.00748355
0.00747265
0.00742897
0.00733976
0.00719684
0.00699579
0.00672935
0.00636194
0.00582234
0.00504027
0.00417693
0.00367155
0.00360527
0.00372753
0.00382999
0.0038406
0.00376747
0.00362562
0.00334157
0.00258771
0.00723318
0.00741806
0.00772617
0.0081377
0.00867702
0.00924696
0.0097841
0.0102184
0.0104763
0.0105445
0.0104346
0.01012
0.00950939
0.00867159
0.00803637
0.00774291
0.00761506
0.00752338
0.00741879
0.00727759
0.00708795
0.00684893
0.00653875
0.00609614
0.00543318
0.00456442
0.00388695
0.00368917
0.00375339
0.00383948
0.00385349
0.003791
0.00366152
0.00339243
0.00266512
0.00730437
0.00712905
0.007468
0.00814438
0.00902353
0.00975371
0.0102403
0.0105323
0.0106749
0.0106884
0.010577
0.0103277
0.00990129
0.00927394
0.00861677
0.00817259
0.00791902
0.00774682
0.00759077
0.00741718
0.0072103
0.00696454
0.00666145
0.00625228
0.00565337
0.00481004
0.00399811
0.00370075
0.00377539
0.0038755
0.00388877
0.00382304
0.00368955
0.00340863
0.00263466
0.00606651
0.00560869
0.00591259
0.00669526
0.00777569
0.00876316
0.00951739
0.01003
0.0103316
0.0104521
0.0104094
0.0102112
0.00986689
0.0094192
0.00896139
0.00858383
0.00829785
0.00806664
0.007854
0.00763631
0.00739917
0.00713112
0.00681422
0.00641097
0.00585126
0.00505976
0.00416898
0.00369088
0.00373275
0.0038764
0.0039185
0.00386493
0.00373071
0.00342913
0.00258115
0.00470036
0.00409534
0.00404316
0.00422428
0.00480014
0.00581568
0.0070359
0.00814163
0.00896891
0.00949779
0.00976334
0.00981073
0.00969522
0.0094803
0.00922082
0.00895121
0.00868757
0.00843207
0.00817896
0.00791991
0.00764655
0.00735004
0.00701529
0.00661299
0.00608966
0.00537693
0.00450862
0.00384782
0.0037061
0.0038241
0.00389676
0.00386956
0.0037507
0.00345026
0.00256572
0.0042773
0.00422967
0.00388692
0.00346759
0.00311947
0.00321732
0.00400198
0.005268
0.00662197
0.0077553
0.00855988
0.00905647
0.00930626
0.00937606
0.00931982
0.00917758
0.00897883
0.00874358
0.00848403
0.00820576
0.00790922
0.00758992
0.00723609
0.00682287
0.00630389
0.0056154
0.00475929
0.0040062
0.00370737
0.0037454
0.00381284
0.00379665
0.00368576
0.00337574
0.00245016
0.00459296
0.00557324
0.00571641
0.00554987
0.0051136
0.00438811
0.00371677
0.00358676
0.00412836
0.005144
0.00632558
0.007396
0.00819071
0.00869265
0.0089601
0.00905144
0.00901241
0.00887983
0.00868119
0.00843478
0.00815082
0.00783201
0.00747217
0.00705112
0.00652448
0.00582075
0.00490823
0.00402251
0.00359658
0.00357895
0.00363984
0.00363421
0.00353523
0.00322498
0.00229787
0.00501572
0.00613723
0.00654968
0.00674651
0.00683116
0.00673225
0.00625033
0.00534855
0.00439067
0.00376413
0.00372617
0.00448357
0.00578404
0.00698986
0.00782609
0.00833504
0.00860144
0.00869081
0.0086511
0.00851609
0.00830809
0.00803986
0.00771547
0.00732713
0.0068451
0.00620319
0.0053261
0.00432159
0.00363908
0.00344851
0.00345772
0.00345702
0.0033834
0.00311063
0.00225731
0.00564704
0.00608361
0.006133
0.00612266
0.00611092
0.00614154
0.00627553
0.00653154
0.00658694
0.00606671
0.00491032
0.00365384
0.00372737
0.00498758
0.00631777
0.00725594
0.00782536
0.00814609
0.008302
0.0083296
0.0082488
0.0080793
0.00783801
0.00752514
0.00712032
0.00658094
0.00582832
0.00485536
0.00397825
0.003541
0.00341854
0.00337729
0.00330585
0.00306522
0.00231223
0.00670826
0.00671747
0.00675939
0.00670878
0.00651952
0.00610445
0.00540818
0.00501177
0.00550085
0.00616218
0.00623093
0.0053062
0.00450828
0.00519092
0.00630896
0.00700488
0.00744419
0.00775945
0.0079637
0.00805824
0.00805069
0.00795242
0.00777652
0.00753709
0.00722255
0.00678487
0.00615834
0.00529523
0.00436809
0.00374912
0.00348276
0.0033698
0.00326955
0.00304273
0.00241452
0.0073048
0.00719267
0.00739954
0.00751726
0.00749152
0.00718801
0.0063866
0.00524833
0.0046917
0.00490279
0.00529248
0.00552862
0.00587742
0.00648822
0.00695808
0.00727297
0.00751331
0.00770386
0.00783321
0.00789322
0.00788244
0.00780431
0.00766601
0.00746921
0.00720103
0.00683393
0.00631993
0.00561104
0.0047888
0.00414354
0.00380099
0.00362518
0.00348333
0.00324182
0.00260913
0.00721276
0.00710974
0.00717666
0.0071962
0.00714375
0.00695173
0.00654422
0.00586651
0.00507685
0.00472998
0.00503775
0.00568518
0.0062615
0.0066955
0.0070158
0.00725473
0.00743725
0.00757375
0.00766537
0.00770942
0.00770292
0.00764427
0.00753242
0.00736486
0.00713475
0.00682649
0.00640958
0.00584545
0.0051581
0.0045358
0.0041326
0.00388735
0.00368802
0.00339472
0.0026889
0.00746368
0.00726593
0.00725251
0.00721517
0.00708273
0.00677732
0.00634022
0.00599151
0.00559885
0.00510997
0.00485748
0.00512897
0.00571312
0.00623017
0.00659943
0.00686294
0.00705909
0.00720701
0.0073135
0.00738004
0.00740477
0.00738521
0.00731862
0.00720153
0.0070283
0.00678731
0.00645256
0.00597793
0.00534246
0.00469138
0.00423763
0.00396645
0.00375153
0.00342928
0.00260976
0.00782756
0.00737592
0.00735406
0.00736124
0.00728742
0.00700374
0.00646986
0.00598946
0.00572039
0.00542279
0.00505745
0.00488043
0.00518902
0.00570226
0.0061013
0.00637409
0.00657015
0.00671877
0.00683041
0.00690774
0.00695093
0.00695911
0.00693011
0.00685913
0.00673638
0.00654252
0.006241
0.00577626
0.00513068
0.00446722
0.00402144
0.00376763
0.00354953
0.00317809
0.00222859
0.0076641
0.00711509
0.00702843
0.00698695
0.00690229
0.00672716
0.00647279
0.00616022
0.00588941
0.00564223
0.00535417
0.00506168
0.00500827
0.00532391
0.00567727
0.00592774
0.00610097
0.0062261
0.00631517
0.00637102
0.00639532
0.0063905
0.00635978
0.00630631
0.00622864
0.00610922
0.00590049
0.00553589
0.00499897
0.00442762
0.00401336
0.00374054
0.00346862
0.00298067
0.00188099
0.00731469
0.0069103
0.0068433
0.00678237
0.00664438
0.00643688
0.00633588
0.00631471
0.00618875
0.00597349
0.00569599
0.0053707
0.00509823
0.0051116
0.00536974
0.00560127
0.00575769
0.0058606
0.00592294
0.00594702
0.00593226
0.00587868
0.00578806
0.00566883
0.00554735
0.00546708
0.00541814
0.00528607
0.00499835
0.00462987
0.00429052
0.00398136
0.00358736
0.00284705
0.00153474
0.00697343
0.00673577
0.00672983
0.00671236
0.00660375
0.00638203
0.0062656
0.00638391
0.00644355
0.00634542
0.00612737
0.00581045
0.00542444
0.00510862
0.00507659
0.00522811
0.00536839
0.00546012
0.00550637
0.0055054
0.00545238
0.00534209
0.00516963
0.00493909
0.00469064
0.00452688
0.00452577
0.00457777
0.00452435
0.00435501
0.00411329
0.00379714
0.00330892
0.00244056
0.00123188
0.00667357
0.00650442
0.00649087
0.00646754
0.00637801
0.00621517
0.00615609
0.00637082
0.00660632
0.00667022
0.0065831
0.00637318
0.00604448
0.00562443
0.00526671
0.00517056
0.00525041
0.00533445
0.00537741
0.00537034
0.00530215
0.00516307
0.00494264
0.00463487
0.00425917
0.00389745
0.00367537
0.00361584
0.00359893
0.00353615
0.00340628
0.00319384
0.00283727
0.00220803
0.00124834
0.00654068
0.00634758
0.00629889
0.00623568
0.00609661
0.00592643
0.00595383
0.00628499
0.00666869
0.00687669
0.00691909
0.00683456
0.00663127
0.00629717
0.0058421
0.00538897
0.00514167
0.00512766
0.00519455
0.00524817
0.00525595
0.00519654
0.00505242
0.00480847
0.00446122
0.00404255
0.00363847
0.0033392
0.00315186
0.00302297
0.00290486
0.00276323
0.00254685
0.00213628
0.00127192
0.00629776
0.00612121
0.00608467
0.00601655
0.00583737
0.00562167
0.00570485
0.00617082
0.00668574
0.00702337
0.00718823
0.00722288
0.00714861
0.00696518
0.00665858
0.0062296
0.00575362
0.00538219
0.00519621
0.00513554
0.00511665
0.00508835
0.00501941
0.00488807
0.00467833
0.00438885
0.00404686
0.00370769
0.00342022
0.00319593
0.00301773
0.00285696
0.00266159
0.00229411
0.00134582
0.0058586
0.00589784
0.00594167
0.0059143
0.00573501
0.00542079
0.00534443
0.00579004
0.00642555
0.00691152
0.00720972
0.00736439
0.00740797
0.00735302
0.00719663
0.00692806
0.00655203
0.00612997
0.00577328
0.00554125
0.00540217
0.00530257
0.00520428
0.00508389
0.00492619
0.00472233
0.00447495
0.00420236
0.00393225
0.00368582
0.00346772
0.00326553
0.00303372
0.00262106
0.0015006
0.00553828
0.00581769
0.00594928
0.00599252
0.00588374
0.00551482
0.00508363
0.00514861
0.00578292
0.00647513
0.00696386
0.00725953
0.00741394
0.00745801
0.00740153
0.00723831
0.0069574
0.0065748
0.00617222
0.00586105
0.00567212
0.00555709
0.0054636
0.00535985
0.00523042
0.00506702
0.00486854
0.0046417
0.00439953
0.00415559
0.00391692
0.00367819
0.00339868
0.00291123