/*--------------------------------*- C++ -*----------------------------------*\
| =========                 |                                                 |
| \\      /  F ield         | OpenFOAM: The Open Source CFD Toolbox           |
|  \\    /   O peration     | Version:  v2006                                 |
|   \\  /    A nd           | Website:  www.openfoam.com                      |
|    \\/     M anipulation  |                                                 |
\*---------------------------------------------------------------------------*/
FoamFile
{
    version     2.0;
    format      ascii;
    class       volScalarField;
    location    "24";
    object      omega;
}
// * * * * * * * * * * * * * * * * * * * * * * * * * * * * * * * * * * * * * //

dimensions      [0 0 -1 0 0 0 0];


internalField   nonuniform List<scalar> 
78750
(
387.655
85.7889
95.5128
104.638
98.1745
83.6853
76.8618
113.695
105.373
104.462
106.775
108.101
109.428
106.453
90.1051
96.5617
76.8402
98.5866
94.2293
104.162
101.428
114.05
109.875
103.977
92.6409
84.4467
82.7364
84.9143
86.1639
91.6851
92.8852
100.679
117.396
153.82
765.183
790.346
80.8178
75.8995
83.8659
91.3699
93.6118
84.628
63.6332
64.1117
58.9267
66.8281
73.6272
76.0791
82.5238
68.4429
72.5803
73.6906
79.6663
81.1922
85.6002
86.0443
84.7996
86.8876
91.3294
75.3324
53.3097
34.3378
39.9995
44.9799
45.3033
45.6369
25.8151
16.0686
28.3587
719.552
977.787
136.351
129.47
123.98
116.347
108.684
101.443
90.5143
73.3399
63.8542
71.2935
71.3761
84.2215
64.4244
52.1069
94.0685
77.9911
78.4942
72.8052
71.6541
66.3529
69.8112
72.5766
76.3355
64.0374
49.4099
39.2874
36.8667
38.8159
42.8282
34.3666
49.0002
45.6722
35.8978
1011.86
1200.54
147.539
148.746
148.654
145.936
139.851
134.14
126.69
119.283
111.775
111.027
98.5741
94.0065
86.0621
62.5064
61.0846
72.8226
75.9622
76.4252
73.0942
67.1811
61.3469
56.9506
57.2881
57.5666
51.7236
50.6947
45.1667
46.4065
44.763
43.3349
48.5593
44.8276
33.0792
928.865
1069.28
129.27
113.044
80.8246
81.7102
67.3739
74.8337
66.0305
65.059
58.0665
38.69
66.8933
31.9239
66.2977
40.6403
58.1862
53.5205
45.7726
56.1326
61.1625
54.1833
52.8123
48.0666
48.3679
50.9176
51.8385
51.278
50.3727
50.7346
42.8538
37.5212
34.2081
36.6695
68.4064
1055.47
1036.14
120.862
81.3198
46.2657
49.1848
34.8245
53.0261
43.5482
35.9056
47.2703
14.891
39.9302
21.1022
21.9391
19.1468
16.1782
24.0236
15.754
11.087
27.6951
27.0271
28.2698
30.3539
26.8393
30.7086
32.1939
38.1118
37.4673
40.4924
36.9766
37.8358
26.8352
28.8645
48.0847
1111.71
947.809
115.864
112.175
88.4422
65.7431
40.6297
30.5985
28.3239
20.7688
24.6044
20.3649
20.2591
17.0418
17.098
17.0066
16.6732
16.8616
16.6017
16.5026
18.0437
18.8201
18.1441
22.5199
21.1476
14.5302
7.51229
13.0736
15.4788
29.8839
31.5886
38.6056
41.8364
45.2222
66.2683
1111.89
773.196
80.3768
74.9556
44.5802
29.3567
10.9351
19.6645
21.8062
22.2682
20.1147
17.6062
13.0902
9.62001
6.99483
5.59996
8.00638
9.03192
10.8965
11.1086
16.6188
21.072
20.9366
22.1144
29.6217
36.1979
43.4984
40.4927
32.1377
34.8248
38.2254
49.1302
55.6609
54.0161
61.4612
1069.1
701.164
39.7481
33.0074
20.7871
15.9715
27.825
27.3687
33.4098
38.5423
35.536
27.8723
20.2212
14.6265
11.8596
11.5212
12.8772
17.5165
22.5438
27.1423
40.75
53.7818
56.5239
51.9198
44.225
34.7194
20.3332
21.5449
20.3121
24.3033
27.9964
34.4187
31.9254
14.4609
54.6838
1144.82
872.892
79.9669
78.3252
84.423
92.5732
97.0511
97.1396
88.9003
74.1089
56.56
38.4922
21.0149
8.46791
10.0192
16.8388
31.5552
50.9489
67.1516
74.323
73.6835
69.3899
62.9645
54.5391
43.7485
28.7129
18.0379
12.4915
12.5141
13.0323
13.9719
15.6118
29.0985
51.4469
83.0395
1239.4
959.674
110.04
113.349
116.703
105.378
97.5217
79.1408
55.3534
24.884
13.0965
5.57396
4.83175
4.60137
9.03778
19.182
31.6449
49.2896
66.007
76.5737
80.6525
80.7432
78.8429
75.924
72.3386
68.7597
65.9395
65.0728
65.4869
67.2645
71.7299
79.4865
91.8211
109.375
126.889
1435.98
956.264
110.23
106.704
82.1114
54.0527
44.5301
22.9945
17.5098
12.0698
9.18223
8.27682
10.2705
16.037
20.0949
25.1219
33.5339
45.7155
58.7465
69.978
77.8957
83.1638
87.0502
90.2472
93.1583
96.128
99.4643
103.321
107.625
112.487
118.171
124.756
132.303
140.159
146.545
1392.93
847.481
93.4925
59.011
13.1962
22.5001
19.0994
10.3846
19.7764
10.3379
14.663
7.64914
9.08593
10.5517
15.7665
20.3732
24.4756
30.1262
37.4887
46.2217
55.0305
63.2973
70.9734
78.3647
85.3471
92.1375
98.739
105.155
111.282
117.058
122.413
127.199
131.105
133.373
132.03
1152.62
677.989
84.4828
36.5907
23.5617
25.2539
7.4541
17.8786
19.9641
5.93947
17.0495
8.87524
12.3295
8.00526
10.4644
12.9269
17.4696
21.9324
25.7434
29.5423
33.8373
38.6026
43.9468
49.8893
56.2236
62.8362
69.4837
75.9612
81.9905
87.316
91.6861
94.8123
96.2837
95.4005
90.2995
849.136
524.991
84.4928
54.7111
31.8721
39.8186
36.8501
5.91428
21.5933
17.2451
18.4695
12.5506
12.3552
9.38588
7.35831
5.92094
6.82832
9.01838
11.7688
15.6441
19.3296
22.894
25.7375
28.8769
31.8987
35.1427
38.5606
42.1231
45.6498
48.8873
51.5166
53.195
53.5504
52.0876
47.6553
662.708
581.637
82.7161
78.6982
44.7448
35.7782
54.8292
59.3673
57.4293
46.6302
34.1732
25.4028
21.4314
18.7134
17.0065
14.0465
8.91957
3.82307
4.49201
5.1605
7.23224
9.9395
13.8546
16.9455
19.8535
22.4326
24.6897
26.5972
28.1141
29.2402
30.0352
30.4995
30.4751
29.7215
27.7235
613.08
635.762
92.3978
91.3636
70.5072
62.2373
72.4274
79.3532
81.4945
77.0156
66.8916
52.9284
37.9822
26.3822
19.7941
17.3272
16.9797
15.642
10.7985
5.17246
4.85081
4.11042
4.56019
7.77265
10.3834
12.7755
15.167
17.5599
19.8429
21.8327
23.2162
23.8874
24.0443
23.7672
22.765
600.996
669.632
102.438
98.5082
89.9295
88.8057
89.7864
88.3108
83.6983
74.5295
61.5677
46.6067
32.9726
23.7959
19.7172
18.5061
17.7383
16.9236
16.2869
13.2111
7.6052
4.01897
4.15928
4.45767
6.06662
8.76148
10.9253
12.7012
14.3999
16.2095
18.0862
19.5806
20.3522
20.5398
20.1288
596.543
598.585
105.749
103.849
99.9424
92.2051
80.3633
69.3871
57.7013
44.5383
31.8578
22.8616
19.0566
18.2432
18.0347
17.7492
17.3259
16.7685
15.914
14.9031
12.826
7.79284
5.46892
3.98178
3.8012
3.95062
5.34017
7.92617
10.3198
12.3824
14.1776
15.8607
17.0664
17.6267
17.6793
592.458
537.415
103.736
103.176
98.1033
72.7778
52.0447
37.533
27.3471
21.6563
19.807
19.4658
19.3037
19.0199
18.6149
18.1417
17.6459
17.1284
16.5522
15.878
14.9419
13.5219
12.0241
9.55915
5.11321
4.08556
4.14869
4.11125
4.50572
6.91175
9.78398
12.0786
14.0114
15.1352
15.7156
591.064
479.409
101.14
102.756
84.4415
48.1064
29.1791
22.3869
20.3131
19.7836
19.6224
19.4971
19.3026
18.9991
18.5747
18.0564
17.4953
16.9266
16.3585
15.7768
15.1473
14.4081
13.4739
12.0337
9.97289
6.98019
4.64608
4.04916
4.21119
4.12407
4.3758
7.80438
10.3777
12.7174
14.5201
591.995
467.986
92.7862
106.135
64.1068
32.0321
22.4781
21.8874
20.6398
20.3406
20.1842
20.0608
19.8562
19.5474
19.1421
18.6598
18.1188
17.5306
16.9046
16.2432
15.5357
14.7443
13.7666
12.4355
10.5894
8.16217
5.07145
4.1567
4.25477
4.04467
5.0475
7.65114
10.8694
12.8614
14.7174
590.324
447.045
69.5472
97.9541
41.1248
28.4137
23.7973
23.3803
21.1958
20.5884
20.1509
20.035
19.9051
19.6728
19.3289
18.9036
18.4299
17.9242
17.3881
16.8149
16.1886
15.4787
14.6269
13.5041
11.9842
10.0314
7.7625
5.65765
4.12928
4.42505
4.50762
7.90569
12.1457
14.1522
14.9478
584.743
462.425
48.7087
79.4593
27.8301
36.3642
33.3195
30.0328
25.7978
22.7168
21.021
20.2823
20.0682
19.966
19.7952
19.5116
19.1296
18.6848
18.209
17.7165
17.2045
16.6632
16.0783
15.424
14.6594
13.7442
12.6787
11.5371
10.4204
9.44674
8.60847
7.60764
6.34263
9.84516
12.4372
585.196
476.066
57.2609
78.3631
56.8651
54.374
50.2298
44.6199
37.7333
30.638
24.9922
21.5981
20.1307
19.696
19.5571
19.4054
19.1657
18.8416
18.4575
18.0382
17.5951
17.1206
16.5957
16.0043
15.3378
14.5859
13.7347
12.7505
11.6748
10.4945
9.16488
8.63146
8.0586
10.2206
13.4029
590.109
486.372
64.3102
75.6141
65.5654
59.0305
52.0845
44.3949
36.1651
28.5867
23.1196
20.3925
19.5942
19.5264
19.555
19.4927
19.3188
19.0543
18.7251
18.3506
17.9383
17.4821
16.9668
16.3761
15.6874
14.8494
13.7297
12.2407
10.3923
8.28265
7.60877
9.51515
11.6331
13.2577
14.6061
585.157
450.36
46.3845
51.2545
45.444
38.8583
31.7577
25.3574
20.9583
19.1193
18.8513
19.0391
19.2593
19.4297
19.5273
19.5395
19.4673
19.3221
19.1176
18.8646
18.5693
18.2328
17.853
17.4215
16.917
16.3073
15.54
14.5593
13.3779
12.1482
11.1585
10.8622
11.47
12.4346
12.7581
578.987
437.007
23.2458
24.1196
22.0885
20.2049
19.1086
18.7653
18.7978
18.9231
19.0709
19.2403
19.4208
19.5779
19.6812
19.7186
19.6911
19.606
19.4713
19.2934
19.0771
18.8247
18.5383
18.2194
17.8626
17.4533
16.9736
16.4175
15.8215
15.1952
14.4145
13.4668
12.299
11.0434
11.0319
583.735
435.947
18.0333
18.3376
18.3459
18.3581
18.4136
18.5111
18.6346
18.771
18.9325
19.1412
19.3859
19.6077
19.7629
19.8442
19.8562
19.8065
19.7007
19.542
19.3329
19.077
18.7785
18.4412
18.0686
17.669
17.2573
16.8394
16.2804
15.3879
14.4773
13.6206
12.3678
11.9911
13.5382
591.298
438.159
18.0595
18.2438
18.2376
18.2186
18.2251
18.2797
18.3818
18.5099
18.6692
18.8948
19.1905
19.494
19.7227
19.8513
19.8959
19.8639
19.7562
19.5722
19.3122
18.978
18.5739
18.1055
17.5772
16.9473
16.0502
14.6878
13.9262
14.3013
14.4577
14.0827
13.4109
13.4414
14.3615
587.999
439.568
18.1355
18.2943
18.2677
18.1961
18.1114
18.0583
18.0865
18.1832
18.316
18.5137
18.8225
19.2058
19.5609
19.8058
19.9315
19.9594
19.8946
19.7348
19.4781
19.1242
18.6739
18.1298
17.4415
16.4438
14.9323
13.0642
12.2449
13.1366
13.7786
13.8194
13.5745
13.4665
13.453
581.529
440.803
18.4663
18.7022
18.7029
18.6003
18.4033
18.1469
17.9624
17.9466
18.0246
18.1321
18.3227
18.6591
19.0909
19.4985
19.8017
19.9829
20.054
20.0188
19.8737
19.616
19.2432
18.7355
18.0423
17.083
15.7459
14.0518
12.6043
12.3073
12.6028
12.7931
12.7775
12.6573
12.3736
579.437
442.041
18.9948
19.413
19.5193
19.4594
19.2147
18.7559
18.2052
17.8848
17.867
17.9513
18.0325
18.1607
18.4162
18.7877
19.1817
19.5205
19.7726
19.9291
19.9838
19.9289
19.7552
19.4503
18.995
18.3575
17.4874
16.3399
15.0003
13.8213
13.0962
12.7712
12.6139
12.4611
12.2329
580.133
443.516
19.5812
20.1644
20.3962
20.4402
20.2682
19.7905
18.975
18.1802
17.8436
17.8743
18.0125
18.1425
18.2692
18.4409
18.6732
18.9349
19.1857
19.3992
19.5588
19.6483
19.6509
19.5491
19.3249
18.9581
18.4238
17.6924
16.7436
15.6216
14.4903
13.603
13.0971
12.8318
12.6201
580.965
445.486
20.0576
20.6368
20.9065
21.0197
20.946
20.5824
19.7931
18.7498
18.0396
17.8262
17.8788
18.0283
18.2158
18.4344
18.6761
18.9233
19.1579
19.3667
19.5388
19.6616
19.7203
19.6983
19.577
19.3347
18.9469
18.3831
17.605
16.5772
15.3187
14.0233
13.0728
12.6093
12.3759
580.483
447.466
20.2933
20.7486
20.9813
21.1084
21.0996
20.8608
20.251
19.2893
18.4567
18.0958
18.0354
18.0783
18.1567
18.2762
18.4466
18.6565
18.8846
19.1125
19.3257
19.5088
19.6447
19.7155
19.7019
19.5831
19.3347
18.926
18.3164
17.4557
16.303
14.9147
13.5866
12.701
12.1884
579.975
449.363
20.3678
20.6306
20.7626
20.827
20.7875
20.5632
20.0664
19.3204
18.6188
18.2636
18.2049
18.2689
18.3608
18.4636
18.5829
18.7241
18.8873
19.0685
19.2608
19.4519
19.6236
19.7553
19.8267
19.8173
19.7042
19.4592
19.0455
18.4161
17.5179
16.3293
14.9797
13.8299
13.019
580.941
449.879
20.203
20.3537
20.4139
20.4077
20.2943
20.0307
19.6184
19.1307
18.7105
18.4651
18.3778
18.3817
18.4267
18.4944
18.5812
18.6851
18.8074
18.9506
19.117
19.3038
19.4981
19.6789
19.8233
19.91
19.9189
19.8261
19.5988
19.1914
18.5421
17.5942
16.3988
15.257
14.352
582.789
449.748
19.9819
20.0665
20.0723
19.9883
19.7686
19.4351
19.0886
18.813
18.6454
18.576
18.5659
18.5823
18.6058
18.632
18.6638
18.7044
18.7583
18.8322
18.9345
19.0727
19.2459
19.4387
19.6241
19.7736
19.8634
19.8709
19.7653
19.4985
19.0016
18.2133
17.179
16.1445
15.184
583.477
448.277
19.6671
19.7886
19.7929
19.6678
19.3759
19.0052
18.7253
18.585
18.5309
18.5245
18.5481
18.5882
18.629
18.6602
18.6791
18.6868
18.6878
18.6906
18.7077
18.7548
18.8482
18.9933
19.1732
19.3505
19.4836
19.5367
19.4731
19.244
18.7899
18.0744
17.1556
16.1918
15.1193
582.223
446.642
19.4778
19.679
19.7161
19.6022
19.2925
18.8517
18.4814
18.316
18.3025
18.3481
18.4107
18.479
18.5445
18.5984
18.6332
18.6437
18.6278
18.5897
18.5372
18.4853
18.4562
18.4762
18.5633
18.7045
18.8468
18.9197
18.8589
18.61
18.1342
17.4349
16.5805
15.647
14.4953
580.487
444.831
19.2995
19.6188
19.7371
19.7162
19.5005
19.0578
18.4996
18.0741
17.9088
17.927
18.0221
18.1398
18.2575
18.3645
18.4517
18.5098
18.5289
18.5054
18.4422
18.3468
18.2329
18.1238
18.0527
18.056
18.1296
18.2052
18.1783
17.963
17.5216
16.8753
16.0949
15.2238
14.1137
579.836
443.631
19.1619
19.5705
19.7712
19.8678
19.8141
19.5293
18.9695
18.2699
17.7296
17.5036
17.513
17.6321
17.7863
17.9451
18.0949
18.224
18.3164
18.358
18.3443
18.277
18.1619
18.0096
17.8417
17.698
17.6223
17.6194
17.615
17.489
17.1647
16.6437
15.9824
15.2174
14.2083
580.153
442.757
18.9228
19.3701
19.6292
19.833
19.954
19.9161
19.6178
18.9922
18.1623
17.4607
17.1119
17.0705
17.1902
17.3679
17.5605
17.7494
17.917
18.0405
18.1038
18.1016
18.0355
17.9087
17.7279
17.5126
17.3062
17.169
17.1193
17.071
16.8924
16.5217
15.9803
15.2957
14.326
580.4
442.154
18.6382
19.0653
19.3307
19.5896
19.8488
20.049
20.083
19.8374
19.225
18.3081
17.4067
16.847
16.6795
16.7568
16.9388
17.1565
17.3784
17.5771
17.7241
17.7999
17.7981
17.7183
17.5588
17.3205
17.0192
16.7078
16.4781
16.3727
16.2832
16.0537
15.6331
15.0203
14.0675
580.051
441.73
18.3847
18.7709
18.9923
19.216
19.4973
19.8375
20.1433
20.273
20.1186
19.5936
18.6784
17.6027
16.7694
16.3887
16.3658
16.5256
16.7581
17.0079
17.2347
17.4025
17.4874
17.4792
17.3708
17.1526
16.8136
16.362
15.869
15.4731
15.238
15.041
14.7431
14.2758
13.4756
579.395
442.06
18.5513
18.9628
19.1458
19.2769
19.4274
19.6776
20.05
20.4069
20.5765
20.476
20.0492
19.2193
18.0592
16.9513
16.2801
16.0844
16.1816
16.4096
16.6779
16.9282
17.1153
17.2087
17.1908
17.0477
16.759
16.3008
15.6805
15.0005
14.4438
14.0873
13.8291
13.53
12.9864
578.928
444.342
19.4107
19.8959
20.0971
20.193
20.2086
20.2055
20.3408
20.6251
20.8736
20.9427
20.7975
20.4137
19.7018
18.5907
17.3183
16.3644
15.9531
15.9485
16.1474
16.4216
16.6915
16.8978
16.9989
16.9714
16.7966
16.449
15.9074
15.2066
14.496
13.9647
13.641
13.3907
12.9729
578.821
449.539
20.6594
21.0613
21.288
21.4708
21.5497
21.4704
21.3796
21.4069
21.4811
21.4814
21.3601
21.1097
20.7034
20.0521
19.0306
17.7171
16.5644
15.9481
15.8226
15.9732
16.2405
16.5233
16.7445
16.8528
16.8198
16.6264
16.2548
15.7118
15.0807
14.5198
14.1194
13.8057
13.3309
578.937
455.819
21.3751
21.4734
21.6798
22.0461
22.3959
22.5218
22.4818
22.399
22.3038
22.1745
21.9913
21.7437
21.4166
20.9718
20.326
19.3578
18.0638
16.8003
16.015
15.7708
15.8693
16.125
16.4115
16.6387
16.7492
16.7126
16.5148
16.1582
15.6867
15.1971
14.7704
14.381
13.7899
579.115
457.735
20.9852
20.8785
21.1173
21.7231
22.3999
22.8365
23.0224
23.0465
22.9742
22.8361
22.643
22.3972
22.0952
21.7236
21.2472
20.5946
19.6595
18.4009
17.0703
16.1286
15.7588
15.805
16.0512
16.3391
16.5666
16.6739
16.6326
16.438
16.1136
15.7165
15.3061
14.8783
14.2036
579.355
453.682
20.0246
20.0887
20.4041
20.9757
21.6474
22.246
22.7003
22.9973
23.1475
23.1714
23.0911
22.925
22.686
22.3799
22.0013
21.5246
20.8914
20.0037
18.7862
17.3935
16.2807
15.7688
15.7654
16.0087
16.2967
16.5149
16.6061
16.5496
16.3533
16.0507
15.6837
15.2552
14.5443
579.689
449.132
19.9896
20.4397
20.7063
20.8851
21.0659
21.3425
21.7316
22.1792
22.5955
22.904
23.0711
23.1006
23.0119
22.8243
22.5514
22.1968
21.7466
21.1563
20.3352
19.1727
17.7276
16.4399
15.7898
15.7631
16.0274
16.3191
16.5094
16.5527
16.4462
16.2136
15.8897
15.4801
14.7714
580.069
447.698
21.0255
21.8513
22.2255
22.3592
22.2765
22.0303
21.7654
21.665
21.8152
22.1494
22.5151
22.788
22.9204
22.9171
22.7982
22.5797
22.268
21.8555
21.3079
20.5434
19.4326
17.9534
16.5256
15.7811
15.76
16.0554
16.3471
16.4966
16.4742
16.3012
16.015
15.6262
14.9288
580.428
448.68
21.8264
22.8941
23.5319
23.9964
24.2546
24.2153
23.8196
23.1532
22.4842
22.0931
22.0746
22.2975
22.5528
22.7125
22.747
22.6673
22.4881
22.2145
21.8363
21.3194
20.5839
19.4919
17.9912
16.5421
15.8538
15.8908
16.1748
16.3912
16.4381
16.3221
16.0829
15.735
15.0881
581.018
450.702
21.846
22.7823
23.478
24.1873
24.8866
25.4147
25.6043
25.3751
24.7156
23.77
22.8966
22.4225
22.3667
22.4915
22.5942
22.6041
22.5184
22.3421
22.0716
21.695
21.1739
20.4107
19.2447
17.666
16.3206
15.8688
16.0555
16.3483
16.4849
16.4295
16.2277
15.9076
15.297
581.672
454.199
21.9139
22.5291
23.085
23.7679
24.596
25.4361
26.0561
26.3271
26.2456
25.7915
24.9059
23.7859
22.9608
22.6445
22.5995
22.5886
22.5272
22.3972
22.1859
21.8845
21.4782
20.9047
20.0321
18.6955
17.1025
16.1014
15.9693
16.2238
16.435
16.4608
16.3186
16.0353
15.4506
582.14
458.647
22.4523
22.9141
23.5054
24.2545
25.0232
25.7296
26.2879
26.6135
26.6981
26.5594
26.1592
25.3663
24.2469
23.3752
22.9682
22.791
22.6619
22.5114
22.3046
22.0226
21.6614
21.1831
20.4805
19.3796
17.8354
16.5359
16.142
16.2781
16.4562
16.4888
16.3683
16.1111
15.561
582.516
459.154
22.062
22.5776
23.5524
24.7546
25.7083
26.3248
26.6884
26.8644
26.8806
26.7424
26.431
25.8889
25.0697
24.187
23.5776
23.2254
22.9833
22.7608
22.5093
22.2046
21.8367
21.374
20.7322
19.754
18.2873
16.7565
16.1644
16.3232
16.5308
16.5626
16.4363
16.172
15.5988
582.371
452.406
19.6731
20.2017
21.4665
23.0809
24.4503
25.439
26.086
26.4569
26.6006
26.5427
26.2908
25.8507
25.2685
24.6608
24.1509
23.7593
23.4385
23.1392
22.8281
22.4837
22.0875
21.6094
20.9848
20.0849
18.7376
17.0951
16.1469
16.2376
16.5343
16.6245
16.5235
16.2594
15.646
582.116
444.595
16.8871
16.8213
17.2157
18.331
20.1012
22.0154
23.6042
24.7207
25.4052
25.7382
25.791
25.6365
25.3541
25.0117
24.6528
24.2978
23.9493
23.5991
23.235
22.8443
22.4125
21.9146
21.3006
20.4737
19.29
17.7416
16.4675
16.1845
16.4298
16.5819
16.5338
16.3013
15.6921
582.039
442.036
17.0516
16.3857
15.5384
14.8266
15.1177
16.8081
19.1658
21.3751
23.0497
24.1627
24.8213
25.1431
25.2286
25.1508
24.9609
24.6953
24.3784
24.0243
23.6392
23.2217
22.7637
22.245
21.6234
20.8159
19.693
18.2005
16.7804
16.1863
16.2701
16.4134
16.3875
16.1698
15.5356
581.468
443.828
19.468
19.7046
19.4177
18.6573
17.3411
16.0705
15.8841
17.0409
18.9435
20.9109
22.53
23.6537
24.3339
24.6866
24.8031
24.7475
24.5676
24.2977
23.9598
23.565
23.1139
22.5942
21.9705
21.1643
20.0361
18.4712
16.8153
15.9615
15.9308
16.0631
16.0584
15.8616
15.2149
580.718
446.269
20.4439
21.1154
21.4264
21.5541
21.3887
20.609
19.1024
17.3971
16.2244
16.2205
17.75
20.0353
21.9218
23.1351
23.8417
24.2018
24.3191
24.2621
24.0756
23.7873
23.4113
22.949
22.3834
21.661
20.66
19.2086
17.3995
16.0563
15.664
15.689
15.6938
15.5458
14.9676
580.52
449.821
20.3472
20.444
20.4404
20.4366
20.5058
20.7405
21.1441
21.2028
20.3436
18.3565
15.9895
16.2236
18.6423
20.8652
22.2949
23.1197
23.5709
23.7858
23.822
23.7081
23.4699
23.1272
22.6755
22.0781
21.2569
20.0558
18.3879
16.7434
15.8619
15.6093
15.5269
15.3808
14.8663
580.793
455.682
21.3293
21.3992
21.3231
21.0318
20.3808
19.2542
18.6283
19.5148
20.5989
20.6832
19.1134
17.6911
18.9456
20.8153
21.8997
22.5563
23.0149
23.3069
23.4408
23.4302
23.2913
23.0406
22.6948
22.2326
21.5735
20.5944
19.1645
17.4994
16.2946
15.75
15.5156
15.306
14.8183
581.305
458.975
22.0782
22.4015
22.5821
22.5484
22.1011
20.8707
19.005
18.0553
18.4624
19.1461
19.5303
20.0999
21.0885
21.82
22.2955
22.6515
22.9302
23.1176
23.2046
23.1903
23.0795
22.8813
22.596
22.2015
21.65
20.8538
19.7034
18.279
17.0793
16.4079
16.0536
15.7632
15.2569
582.265
458.51
21.9715
22.0922
22.1343
22.0675
21.7883
21.1653
20.0756
18.7373
18.1298
18.6878
19.7998
20.7407
21.4232
21.9134
22.272
22.5422
22.7425
22.8762
22.9408
22.9324
22.8486
22.6873
22.4429
22.1027
21.6385
20.9947
20.0909
18.9311
17.8168
17.0578
16.5806
16.1836
15.5821
582.65
459.869
22.1998
22.195
22.1485
21.9593
21.5073
20.8401
20.2905
19.6442
18.8094
18.3691
18.8566
19.8561
20.6996
21.2813
21.6868
21.9837
22.2051
22.3632
22.4616
22.4983
22.47
22.3725
22.1997
21.9412
21.5762
21.0584
20.3011
19.2402
18.0908
17.2491
16.7294
16.3069
15.651
582.253
461.872
22.3776
22.3623
22.3833
22.283
21.8661
21.0504
20.292
19.8575
19.3595
18.727
18.4136
18.962
19.8391
20.4947
20.9306
21.2381
21.468
21.639
21.7565
21.8216
21.8338
21.7898
21.6821
21.4948
21.1957
20.7213
19.9676
18.8716
17.6772
16.8315
16.3334
15.8936
15.113
580.38
461.043
22.0037
21.8893
21.8386
21.7225
21.4646
21.072
20.5763
20.141
19.7355
19.2492
18.7405
18.6458
19.1996
19.8011
20.2161
20.4978
20.6987
20.8402
20.9281
20.9656
20.9569
20.9072
20.8213
20.6971
20.5066
20.1708
19.57
18.6494
17.6177
16.831
16.2921
15.7358
14.6828
578.645
459.163
21.6927
21.6037
21.5203
21.3192
21.0083
20.8583
20.8288
20.6306
20.2856
19.8307
19.2824
18.8094
18.8331
19.2834
19.6782
19.9402
20.1106
20.2129
20.2519
20.2271
20.138
19.9864
19.7849
19.5768
19.4385
19.3583
19.1401
18.6478
17.994
17.3677
16.7742
15.9833
14.3796
576.878
457.301
21.428
21.4334
21.417
21.2594
20.9222
20.7466
20.9413
21.0391
20.8865
20.5403
20.0255
19.3791
18.8325
18.7766
19.0437
19.2877
19.4457
19.5252
19.5242
19.4347
19.2461
18.9466
18.5376
18.0841
17.7748
17.7678
17.8671
17.7762
17.468
17.0134
16.3959
15.3908
13.417
575.301
455.645
21.0718
21.0673
21.043
20.9143
20.6648
20.5749
20.9223
21.2958
21.3974
21.264
20.9364
20.4121
19.7212
19.112
18.9452
19.0863
19.2338
19.3096
19.2995
19.1844
18.9453
18.5589
18.0042
17.301
16.5918
16.1354
16.0067
15.9716
15.8457
15.5796
15.1319
14.3468
12.8407
575.402
454.912
20.8264
20.766
20.6785
20.4698
20.2043
20.2519
20.7873
21.3931
21.7155
21.7821
21.6551
21.3439
20.8216
20.0874
19.3271
18.8982
18.8744
18.9934
19.0891
19.1055
19.0058
18.7575
18.3273
17.6953
16.8994
16.0903
15.4605
15.0518
14.7659
14.5019
14.1812
13.6776
12.6631
575.531
453.586
20.4667
20.4237
20.3269
20.0495
19.7041
19.8471
20.609
21.4217
21.9391
22.188
22.241
22.1317
21.8576
21.3907
20.7191
19.9462
19.3206
18.9997
18.895
18.8638
18.8168
18.6986
18.4694
18.0956
17.5652
16.9153
16.2431
15.649
15.1688
14.7766
14.4147
13.9636
13.0728
575.924
451.142
20.0998
20.1868
20.1547
19.8737
19.3603
19.2416
19.9974
21.0235
21.7749
22.2234
22.4526
22.5171
22.4368
22.206
21.8037
21.2273
20.5606
19.9798
19.5933
19.3589
19.1902
19.0227
18.8155
18.5403
18.1779
17.7275
17.2168
16.6942
16.2018
15.7526
15.3242
14.8182
13.8723
576.735
449.328
19.9644
20.1965
20.2788
20.1132
19.5117
18.7826
18.9082
19.991
21.1058
21.8581
22.3008
22.5284
22.593
22.5103
22.2695
21.8488
21.2623
20.6269
20.1225
19.8111
19.6203
19.4647
19.2905
19.0706
18.7889
18.4404
18.0332
17.5875
17.1261
16.6616
16.1834
15.6047
14.541
577.277
448.634
19.7998
20.0853
20.2629
20.2665
19.8431
18.9366
18.245
18.7403
20.0211
21.152
21.9003
22.3532
22.5996
22.6814
22.6041
22.3468
21.8847
21.2474
20.5787
20.0578
19.738
19.5483
19.4032
19.2497
19.0541
18.7978
18.4752
18.0927
17.6626
17.1942
16.679
16.0304
14.8318
577.224
448.217
19.6022
19.8952
20.1247
20.2458
20.0279
19.3351
18.3894
17.995
18.7559
20.0329
21.095
21.8121
22.2703
22.5452
22.6692
22.6404
22.436
22.036
21.4695
20.8439
20.2922
19.8757
19.5726
19.3362
19.1203
18.8879
18.6132
18.2824
17.8916
17.4399
16.9156
16.232
14.9623
577.202
448.266
19.4669
19.7192
19.9645
20.1369
19.9768
19.4203
18.6433
18.0452
18.1804
19.1287
20.2757
21.1873
21.8199
22.2452
22.518
22.6585
22.6611
22.5076
22.1874
21.7241
21.1856
20.6526
20.1744
19.7638
19.4059
19.0755
18.7466
18.3966
18.0086
17.5689
17.0574
16.3884
15.145
577.619
447.643
19.1093
19.3063
19.5783
19.8553
19.7704
19.2448
18.4746
17.7985
17.663
18.3329
19.4744
20.5213
21.2836
21.8158
22.1898
22.4426
22.5818
22.5986
22.4789
22.22
21.842
21.3863
20.8997
20.4188
19.9581
19.5162
19.0831
18.6454
18.1888
17.6982
17.1501
16.4541
15.1924
577.787
446.86
18.7311
18.8474
19.1155
19.5671
19.7626
19.4986
18.8819
18.0685
17.3311
17.1572
17.8926
19.1287
20.2012
20.9549
21.483
21.8621
22.1228
22.2688
22.294
22.1941
21.9743
21.6524
21.2583
20.8243
20.373
19.9144
19.4489
18.9711
18.4726
17.9416
17.3557
16.6189
15.2943
577.737
446.267
18.3978
18.3805
18.5297
19.035
19.5538
19.6616
19.3788
18.8399
18.1547
17.4758
17.1408
17.6205
18.7866
19.8808
20.6264
21.1321
21.4949
21.745
21.8821
21.9012
21.8021
21.592
21.288
20.9124
20.4873
20.0303
19.5521
19.0566
18.5411
17.9955
17.3941
16.6214
15.1931
577.143
446.102
18.312
18.188
18.1125
18.3386
19.0175
19.5617
19.6516
19.37
18.8367
18.1487
17.4179
16.8691
16.9507
17.9109
19.152
20.0471
20.5985
20.9595
21.2004
21.3344
21.3595
21.2773
21.0985
20.8348
20.4973
20.0973
19.6459
19.1521
18.6202
18.0453
17.4003
16.551
14.9747
576.537
446.888
18.885
18.8716
18.6979
18.3817
18.4923
19.166
19.6657
19.7813
19.6051
19.2097
18.6352
17.9304
17.205
16.7582
17.0712
18.1803
19.3593
20.11
20.5222
20.7426
20.8309
20.808
20.6912
20.4986
20.2445
19.9361
19.5751
19.1599
18.6862
18.1437
17.5036
16.6336
15.0174
576.595
448.485
19.6717
19.8797
19.8737
19.538
19.0009
19.2418
19.8337
20.1707
20.2076
20.0236
19.6713
19.1776
18.5633
17.8581
17.1696
16.8112
17.1806
18.2107
19.2571
19.9073
20.2348
20.3576
20.3294
20.1788
19.9334
19.6197
19.2568
18.853
18.4062
17.9034
17.3127
16.5073
14.9889
576.762
451.604
20.3071
20.4659
20.5714
20.4645
19.9285
19.7787
20.2195
20.5923
20.7285
20.6866
20.5121
20.2211
19.8152
19.2914
18.6471
17.9075
17.2117
16.8956
17.2695
18.1696
19.0313
19.5642
19.8282
19.8986
19.8103
19.5904
19.2676
18.8682
18.4099
17.8964
17.3055
16.508
14.9907
576.704
454.235
20.5065
20.4121
20.5639
20.8447
20.8464
20.8064
21.0624
21.3142
21.4249
21.4162
21.3141
21.1296
20.8643
20.514
20.0692
19.515
18.84
18.0777
17.3945
17.1087
17.4264
18.0969
18.6724
19.0377
19.2286
19.2677
19.1688
18.9462
18.613
18.1765
17.6242
16.8478
15.3554
577.306
455.612
20.3012
19.8183
19.9929
20.7572
21.3342
21.7172
21.9978
22.166
22.2349
22.2239
22.1432
21.9965
21.785
21.509
21.1685
20.7594
20.2686
19.6734
18.9598
18.1823
17.5583
17.4127
17.7377
18.0881
18.3043
18.4081
18.4107
18.3134
18.1155
17.8131
17.3925
16.7741
15.5533
578.576
454.437
19.6481
19.0513
19.7111
21.0089
21.7861
22.2547
22.5559
22.7462
22.8476
22.8725
22.8285
22.7199
22.5483
22.3153
22.0231
21.6736
21.2645
20.784
20.2062
19.4976
18.6646
17.8841
17.5958
17.8811
18.1189
18.1578
18.0717
17.899
17.6608
17.368
17.0144
16.5302
15.5409
578.942
451.153
18.6274
18.0317
19.0565
20.6136
21.5047
22.1078
22.5603
22.8902
23.1097
23.2329
23.2718
23.2346
23.1252
22.9449
22.696
22.3819
22.0058
21.565
21.0402
20.3857
19.5305
18.4423
17.3953
17.2033
17.8944
18.4302
18.6023
18.5368
18.3115
17.9746
17.5453
16.9318
15.629
577.672
448.338
18.0662
17.2785
17.3313
18.7405
20.0089
20.9978
21.7777
22.3859
22.8378
23.154
23.353
23.4501
23.456
23.3788
23.2221
22.9868
22.6742
22.2885
21.8193
21.2234
20.4132
19.2632
17.7382
16.3377
16.0882
16.8501
17.6326
18.0725
18.1957
18.0619
17.7054
17.0266
15.4235
576.363
446.394
18.2488
17.531
16.4099
16.1398
17.0845
18.4614
19.7956
20.9136
21.7908
22.4524
22.9316
23.259
23.4606
23.5554
23.555
23.4662
23.293
23.0357
22.6869
22.2247
21.6021
20.7344
19.5112
17.9276
16.398
15.581
15.5574
15.898
16.2301
16.3991
16.3571
16.0171
14.9084
576.801
444.998
19.3768
19.4715
18.9759
17.6391
16.3907
16.0748
16.7945
18.1556
19.6309
20.8756
21.8156
22.5025
22.991
23.3231
23.5286
23.6261
23.6273
23.5387
23.3612
23.0892
22.7074
22.1867
21.4767
20.5159
19.3055
18.0141
16.9187
16.1999
15.8509
15.7287
15.6738
15.5505
15.0382
579.237
444.331
20.1449
20.9618
21.3438
21.361
20.6234
19.1486
17.5878
16.5828
16.7551
18.1748
19.8177
21.0811
21.9789
22.6172
23.0658
23.3671
23.5488
23.6293
23.6193
23.5232
23.3398
23.0619
22.6752
22.1572
21.485
20.6586
19.7274
18.7895
17.9511
17.2892
16.8228
16.4793
15.9732
581.977
448.045
20.0709
20.5605
21.1028
21.9217
22.7481
23.0484
22.5172
20.9847
18.4946
16.6717
17.5084
19.2915
20.709
21.6699
22.3226
22.7938
23.1379
23.367
23.494
23.5301
23.4837
23.3589
23.1507
22.8499
22.4466
21.928
21.2818
20.5016
19.6061
18.6965
17.9471
17.3822
16.6432
582.623
456.079
19.831
19.1878
19.1068
19.7813
21.1657
22.4588
23.1554
23.2285
22.196
19.0784
17.6123
18.9385
20.2925
21.1456
21.7812
22.3054
22.7112
23.0046
23.1963
23.2976
23.3185
23.2666
23.144
22.9406
22.6381
22.2116
21.6247
20.8469
19.9138
18.9799
18.2098
17.5353
16.4989
580.925
457.381
17.9706
17.1226
17.5906
18.6455
19.7752
20.6752
21.1816
21.1849
20.3404
19.0706
19.7128
20.5092
21.0619
21.5414
21.9715
22.3321
22.6143
22.8186
22.9503
23.0161
23.0219
22.9693
22.8488
22.6405
22.317
21.8434
21.1885
20.3675
19.4836
18.6795
17.997
17.2495
15.8578
578.56
442.934
13.0074
14.5011
16.3425
17.5663
18.3135
18.7328
19.0814
19.8113
20.6592
21.0875
21.3843
21.699
21.9722
22.1945
22.3713
22.5053
22.5982
22.6518
22.6677
22.6464
22.585
22.4757
22.3055
22.0554
21.6996
21.2116
20.5839
19.8602
19.1323
18.4673
17.8358
17.0102
15.3095
576.78
429.317
14.3221
14.6584
14.3068
14.8418
16.1186
17.4273
18.4791
19.3374
20.1397
20.8633
21.4062
21.7707
22.0085
22.1624
22.2549
22.2955
22.2901
22.2432
22.1594
22.0433
21.9025
21.745
21.5676
21.346
21.0459
20.6435
20.1404
19.5714
18.9869
18.4101
17.7978
16.9287
15.1118
575.998
429.669
18.2039
18.5443
18.4853
18.1172
17.3996
16.3507
15.1751
14.3923
14.5875
15.8194
17.5986
19.3257
20.602
21.3476
21.7267
21.9027
21.9606
21.9331
21.8296
21.6528
21.4155
21.1472
20.8884
20.6542
20.4143
20.1237
19.7594
19.3283
18.8508
18.3348
17.7437
16.8876
15.1341
576.171
433.309
18.7526
20.7127
21.5895
21.9891
22.1042
21.9131
21.2327
19.8709
17.8874
15.5684
13.2534
12.1271
14.0011
17.2702
19.7059
21.0145
21.5953
21.7934
21.7911
21.6649
21.4422
21.1375
20.7777
20.408
20.0668
19.7506
19.43
19.079
18.6829
18.229
17.6815
16.8834
15.2702
576.994
449.021
20.4367
20.603
20.6119
20.648
20.8105
21.1746
21.8145
22.5721
23.0116
22.8562
21.9054
19.5611
15.3306
11.7554
13.2321
16.5443
19.0506
20.5256
21.2608
21.5555
21.5772
21.4101
21.0999
20.6904
20.2406
19.8031
19.3951
19.0021
18.5977
18.1528
17.6232
16.8608
15.3347
577.812
465.482
22.3941
21.5256
20.9663
20.5988
20.2772
19.7913
19.2353
19.2066
19.9563
20.818
21.3157
21.3213
19.5212
15.2289
13.229
15.4673
17.8954
19.5095
20.4928
21.0523
21.3221
21.3769
21.2553
20.981
20.5887
20.1318
19.6603
19.1954
18.7309
18.2437
17.6886
16.9138
15.3994
578.438
467.303
20.5304
19.2949
18.8163
19.0629
19.5556
19.6572
19.4076
19.0677
18.8041
18.2774
16.8622
14.8245
14.2269