/*--------------------------------*- C++ -*----------------------------------*\
| =========                 |                                                 |
| \\      /  F ield         | OpenFOAM: The Open Source CFD Toolbox           |
|  \\    /   O peration     | Version:  v2006                                 |
|   \\  /    A nd           | Website:  www.openfoam.com                      |
|    \\/     M anipulation  |                                                 |
\*---------------------------------------------------------------------------*/
FoamFile
{
    version     2.0;
    format      ascii;
    class       volScalarField;
    location    "37";
    object      T;
}
// * * * * * * * * * * * * * * * * * * * * * * * * * * * * * * * * * * * * * //

dimensions      [0 0 0 1 0 0 0];


internalField   nonuniform List<scalar> 
78750
(
297.226
297.016
296.811
296.483
296.007
295.776
295.69
295.564
295.474
295.376
295.29
295.201
295.115
295.028
294.944
294.863
294.787
294.718
294.657
294.604
294.558
294.52
294.49
294.468
294.456
294.456
294.471
294.509
294.58
294.697
294.878
295.143
295.534
296.735
411.435
305.442
307.241
307.908
307.791
306.764
305.801
304.935
304.289
303.748
303.284
302.875
302.511
302.179
301.872
301.581
301.303
301.032
300.767
300.505
300.246
299.99
299.737
299.487
299.239
298.995
298.753
298.513
298.279
298.058
297.868
297.752
297.824
298.699
308.506
422.36
302.778
304.703
305.272
305.837
306.377
306.693
306.897
306.987
306.924
306.749
306.512
306.259
306.029
305.837
305.679
305.545
305.423
305.303
305.174
305.032
304.874
304.702
304.522
304.341
304.168
304.015
303.901
303.85
303.91
304.186
304.932
306.964
313.778
342.335
445.589
301.11
302.402
303.687
305.323
307.16
308.954
310.646
312.236
313.626
314.652
315.164
315.072
314.402
313.327
312.092
310.92
309.963
309.257
308.733
308.294
307.866
307.434
307.057
306.793
306.704
306.915
307.179
307.174
306.994
306.609
306.053
305.584
307.688
336.016
448.142
303.479
309.017
313.378
317.149
320.334
322.971
325.134
326.873
328.225
329.23
329.939
330.403
330.668
330.773
330.746
330.61
330.373
330.035
329.577
328.985
328.21
327.115
325.626
323.98
321.666
316.172
310.214
309.084
311.338
314.462
318.242
323.658
334.375
366.7
463.716
305.083
313.746
319.703
323.878
326.885
329.151
330.936
332.364
333.496
334.374
335.042
335.541
335.909
336.176
336.364
336.486
336.547
336.542
336.461
336.292
336.004
335.56
334.931
334.128
333.047
331.244
329.383
328.124
327.068
325.427
322.803
322.041
332.945
370.501
465.299
307.617
319.075
325.546
329.256
331.752
333.796
335.593
337.011
337.91
338.284
338.238
337.913
337.445
336.948
336.497
336.132
335.865
335.684
335.569
335.495
335.437
335.363
335.24
335.026
334.656
334.057
333.261
332.338
331.212
329.617
327.434
326.409
335.08
376.11
469.867
314.295
327.095
331.418
334.015
336.637
339.269
341.401
342.454
342.263
341.224
339.87
338.555
337.436
336.541
335.843
335.304
334.889
334.572
334.335
334.165
334.052
333.984
333.945
333.908
333.836
333.688
333.417
332.966
332.24
331.119
329.761
330.059
342.334
386.681
475.257
314.534
325.834
330.78
333.986
336.593
338.382
339.611
340.432
340.799
340.771
340.455
339.906
339.174
338.348
337.533
336.797
336.169
335.647
335.219
334.87
334.59
334.371
334.207
334.09
333.999
333.898
333.735
333.45
332.974
332.264
331.511
332.149
344.048
388.434
475.503
318.26
330.921
337.114
340.67
341.984
342.023
341.844
341.756
341.581
341.102
340.373
339.577
338.802
338.07
337.387
336.767
336.217
335.737
335.314
334.933
334.591
334.29
334.026
333.791
333.568
333.335
333.067
332.744
332.369
332.024
332.108
334.699
350.847
396.036
478.282
322.999
336.968
343.2
344.58
342.96
341.825
341.231
340.847
340.504
340.106
339.636
339.148
338.687
338.252
337.825
337.394
336.963
336.547
336.154
335.788
335.442
335.107
334.781
334.469
334.172
333.886
333.597
333.288
332.971
332.796
333.377
337.642
358.009
402.224
478.25
323.957
343.445
348.611
345.316
342.987
342.32
341.83
341.422
341.018
340.59
340.148
339.715
339.31
338.939
338.6
338.288
338.002
337.74
337.497
337.268
337.044
336.815
336.568
336.29
335.964
335.568
335.076
334.47
333.778
333.168
333.203
336.712
357.667
403.609
479.054
320.432
336.787
341.796
340.469
339.05
338.327
337.871
337.609
337.422
337.272
337.142
337.021
336.904
336.791
336.682
336.578
336.48
336.388
336.3
336.211
336.116
336.006
335.868
335.691
335.462
335.174
334.834
334.48
334.224
334.366
335.863
342.879
368.451
411.488
479.017
320.762
331.039
337.359
342.794
340.753
339.383
338.333
337.369
336.543
335.81
335.183
334.667
334.251
333.911
333.621
333.364
333.128
332.907
332.7
332.508
332.336
332.187
332.065
331.972
331.915
331.901
331.946
332.083
332.394
333.117
335.17
343.042
371.287
414.208
478.892
325.563
338.771
338.261
337.427
336.521
337.098
337.596
337.53
337.089
336.343
335.399
334.357
333.31
332.338
331.485
330.764
330.164
329.661
329.229
328.855
328.543
328.298
328.134
328.073
328.141
328.37
328.796
329.485
330.572
332.427
336.452
348.165
379.446
418.75
477.143
320.205
326.234
326.779
329.624
332.57
335.229
337.783
340.056
341.822
343.013
343.59
343.535
342.852
341.579
339.797
337.637
335.33
333.14
331.271
329.851
328.872
328.228
327.771
327.417
327.164
327.045
327.11
327.47
328.379
330.314
334.371
346.438
380.692
419.966
476.826
312.572
315.918
320.787
325.441
329.148
332.34
335.229
337.925
340.492
342.919
345.127
347.031
348.55
349.593
350.06
349.867
348.983
347.359
344.975
342.004
338.64
335.148
332.144
330.198
329.3
328.862
328.466
328.067
327.92
328.924
333.443
347.103
382.608
420.933
476.028
306.054
314.001
323.004
329.582
334.023
337.237
339.746
341.794
343.539
345.119
346.646
348.178
349.719
351.212
352.543
353.568
354.183
354.336
353.991
353.123
351.672
349.524
346.428
342.171
337.587
334.043
332.004
330.812
329.718
328.712
330.727
344.096
381.857
420.947
476.106
306.879
320.167
328.736
333.83
337.153
339.622
341.68
343.549
345.336
347.072
348.744
350.327
351.812
353.191
354.395
355.263
355.721
355.874
355.832
355.59
355.06
354.155
352.735
350.29
346.325
341.562
337.359
334.368
332.211
330.238
330.627
345.18
382.799
421.832
476.675
312.392
326.99
333.417
336.701
339.004
340.983
342.816
344.566
346.265
347.934
349.584
351.218
352.831
354.404
355.85
356.918
357.388
357.381
357.173
356.898
356.534
355.972
355.11
353.675
350.773
346.358
341.727
337.818
334.704
331.969
331.677
348.553
391.69
428.313
477.999
318.117
331.252
335.909
338.642
340.904
342.915
344.757
346.49
348.146
349.709
351.132
352.384
353.489
354.505
355.474
356.355
357.01
357.348
357.423
357.34
357.161
356.866
356.32
355.235
352.823
348.71
344.121
340.061
336.674
333.533
332.516
346.355
389.759
428.04
478.692
315.803
327.236
332.448
335.505
337.825
339.856
341.744
343.575
345.401
347.226
348.981
350.563
351.904
353.003
353.93
354.785
355.629
356.408
356.998
357.335
357.453
357.412
357.215
356.662
354.916
350.984
346.026
341.563
337.741
334.526
335.432
356.008
400.36
435.192
480.685
312.063
325.34
332.155
335.988
338.759
341.097
343.176
345.087
346.893
348.595
350.123
351.406
352.439
353.274
353.97
354.586
355.181
355.802
356.434
356.993
357.39
357.603
357.663
357.578
357.074
354.477
349.36
344.038
339.528
335.728
335.304
354.184
404.041
437.432
480.898
313.675
328.108
334.967
338.739
341.454
343.772
345.909
348.001
350.14
352.293
354.224
355.641
356.465
356.838
356.949
356.943
356.925
356.97
357.107
357.311
357.527
357.697
357.794
357.815
357.713
356.891
353.354
348.164
343.343
338.678
334.769
342.839
396.614
436.054
482.802
314.863
328.427
334.611
338.15
340.806
343.108
345.234
347.308
349.455
351.761
354.143
356.258
357.75
358.563
358.872
358.872
358.696
358.459
358.261
358.142
358.087
358.062
358.036
357.978
357.817
357.183
354.233
348.481
342.305
338.007
341.411
367.43
404.284
437.23
481.069
315.162
329.025
335.8
339.769
342.753
345.315
347.608
349.66
351.446
353.02
354.568
356.176
357.652
358.739
359.359
359.591
359.551
359.348
359.081
358.83
358.628
358.469
358.328
358.17
357.929
357.397
355.665
351.514
346.129
340.775
335.827
349.826
414.341
446.427
485.468
314.313
329.141
336.834
341.293
344.621
347.543
350.218
352.567
354.41
355.675
356.556
357.361
358.21
359.01
359.617
359.954
360.027
359.899
359.656
359.371
359.086
358.809
358.521
358.174
357.652
356.535
353.981
349.943
345.44
339.465
329.37
325.292
374.504
427.297
480.525
314.619
330.956
339.025
343.638
347.194
350.463
353.477
355.956
357.705
358.736
359.232
359.498
359.753
360.034
360.288
360.444
360.446
360.287
360.01
359.67
359.282
358.799
358.056
356.577
353.32
347.684
342.656
343.8
358.006
390.228
423.571
436.191
444.287
459.17
496.92
316.315
333.596
341.43
345.991
349.797
353.503
356.751
359.057
360.506
361.34
361.709
361.772
361.703
361.611
361.525
361.432
361.298
361.086
360.784
360.415
360.011
359.575
359.072
358.381
357.233
355.309
353.071
351.895
352.76
356.152
352.354
323.338
420.477
469.106
506.726
319.225
337.046
344.435
348.993
353.246
357.384
360.325
361.745
362.378
362.766
363.025
363.149
363.15
363.052
362.876
362.637
362.336
361.977
361.572
361.141
360.704
360.271
359.853
359.515
359.032
356.559
351.859
343.221
333.691
321.375
331.029
298.83
306.332
386.607
474.017
321.469
339.033
346.161
351.019
356.055
360.717
363.323
364.081
364.169
364.161
364.154
364.124
364.041
363.885
363.638
363.275
362.773
362.132
361.422
360.742
360.127
359.612
359.724
363.892
380.714
406.68
423.835
427.062
422.105
408.093
389.554
370.211
381.125
429.215
489.771
322.974
339.858
346.748
351.62
356.702
361.224
363.824
364.813
365.11
365.192
365.223
365.234
365.215
365.149
365.023
364.826
364.543
364.146
363.601
362.897
362.094
361.317
360.826
361.515
365.776
376.036
390.105
404.37
418.184
430.723
442.419
454.236
474.189
496.897
524.114
324.871
340.984
347.333
351.927
356.676
361.015
363.919
365.365
365.99
366.244
366.341
366.376
366.385
366.372
366.33
366.251
366.122
365.933
365.672
365.339
364.96
364.55
363.632
361.036
356.672
352.138
350.661
352.894
358.559
365.764
377.45
385.453
406.477
443.753
492.531
324.744
339.391
344.902
348.786
352.713
356.841
360.723
363.661
365.491
366.492
366.996
367.246
367.382
367.475
367.552
367.624
367.699
367.797
367.968
368.404
369.847
374.689
385.959
399.072
406.104
406.325
401.792
394.227
385.882
378.416
372.12
364.995
366.16
406.579
475.181
322.286
335.966
341.123
344.404
347.391
350.604
354.367
358.425
362.028
364.695
366.385
367.299
367.709
367.854
367.905
367.958
368.062
368.223
368.414
368.573
368.651
368.686
369.083
370.763
373.143
374.856
375.916
376.901
381.28
381.806
376.427
365.731
356.57
380.721
450.838
319.846
333.743
339.484
343.032
345.959
348.619
351.256
354.204
357.558
360.937
363.87
366.094
367.565
368.4
368.801
368.964
369.04
369.123
369.271
369.533
369.971
370.707
372.025
374.793
379.397
381.328
379.383
377.012
384.42
394.805
393.091
387.656
390.571
413.501
467.436
317.696
332.085
338.772
342.846
346.085
348.933
351.465
353.75
355.995
358.43
361.048
363.604
365.81
367.452
368.46
368.918
369.012
368.942
368.856
368.862
369.079
369.772
371.737
376.542
383.916
389.047
390.518
393.005
402.935
419.431
429.482
434.685
443.153
462.315
504.579
316.81
331.87
339.124
343.499
346.956
350.09
353.001
355.579
357.658
359.267
360.674
362.179
363.902
365.745
367.473
368.845
369.733
370.181
370.347
370.38
370.373
370.386
370.494
370.934
372.444
375.701
378.571
380.983
387.589
402.64
421.755
438.515
452.639
470.384
506.951
315.711
330.724
338.569
343.321
346.996
350.368
353.703
356.996
359.944
362.164
363.561
364.379
364.987
365.699
366.684
367.89
369.08
369.987
370.503
370.728
370.827
370.925
371.12
371.574
372.744
375.847
380.97
383.764
384.084
387.976
397.614
412.051
430.09
451.869
492.108
315.323
330.805
339.193
344.311
348.303
352.018
355.653
359.075
362.058
364.452
366.133
367.091
367.516
367.669
367.782
368.08
368.742
369.688
370.587
371.158
371.395
371.451
371.476
371.588
371.965
373.159
376.748
382.881
386.2
385.357
386.059
391.542
405.886
428.354
473.017
315.554
332.371
341.277
346.685
351.065
355.393
359.738
363.515
366.248
368.058
369.262
370.015
370.382
370.463
370.376
370.212
370.069
370.161
370.646
371.306
371.824
372.122
372.289
372.432
372.66
373.193
374.721
378.999
386.259
387.838
385.432
386.466
397.206
418.432
464.912
318.268
336.039
344.299
349.433
354.076
359.07
364.104
368.079
370.441
371.556
372.015
372.192
372.24
372.204
372.104
371.958
371.78
371.603
371.592
371.901
372.336
372.653
372.834
372.979
373.202
373.68
374.865
378.077
386.258
395.127
395.655
396.783
406.129
426.672
474.639
322.097
339.196
346.335
351.147
356.044
361.403
366.444
370.11
372.248
373.312
373.764
373.892
373.852
373.724
373.55
373.351
373.141
372.93
372.777
372.835
373.136
373.455
373.645
373.748
373.874
374.179
375.024
377.49
384.552
398.62
409.497
415.735
425.466
444.437
491.147
324.306
340.191
346.581
351.07
355.69
360.587
365.185
368.84
371.361
372.916
373.792
374.24
374.427
374.457
374.391
374.27
374.127
374.01
374
374.187
374.524
374.811
374.898
374.81
374.654
374.552
374.722
375.859
380.292
393.156
413.224
428.771
441.366
459.657
502.432
323.747
338.979
344.85
348.677
352.217
355.884
359.929
364.205
368.08
371.005
372.9
374.001
374.589
374.865
374.948
374.912
374.818
374.757
374.902
375.434
376.23
376.915
377.289
377.388
377.305
377.104
376.836
376.693
377.711
384.034
402.367
426.566
445.735
466.538
506.107
320.833
336.307
342.746
346.619
349.8
352.846
356.201
360.172
364.485
368.405
371.369
373.294
374.433
375.08
375.425
375.565
375.558
375.46
375.366
375.452
375.914
376.724
377.632
378.422
379.03
379.476
379.77
379.876
379.913
381.759
392.404
416.756
441.653
465.464
503.739
319.38
336.205
343.891
348.536
352.269
355.561
358.517
361.336
364.323
367.513
370.509
372.836
374.36
375.279
375.843
376.193
376.377
376.423
376.383
376.336
376.393
376.697
377.329
378.228
379.269
380.361
381.414
382.144
382.05
382.287
388.825
409.229
433.832
458.086
497.681
318.999
336.672
344.913
349.937
354.094
357.938
361.368
364.117
366.198
368.061
370.131
372.327
374.193
375.468
376.289
376.869
377.3
377.578
377.7
377.722
377.73
377.824
378.127
378.773
379.882
381.583
384.003
386.793
388.306
388.368
392.86
408.52
429.228
452.834
495.537
318.568
336.101
344.368
349.354
353.495
357.612
361.818
365.587
368.203
369.625
370.481
371.541
373.072
374.575
375.642
376.378
376.995
377.588
378.098
378.443
378.64
378.766
378.91
379.197
379.813
381.053
383.441
387.689
393.34
397.682
402.484
413.46
429.025
450.705
495.948
319.034
336.623
344.934
349.997
354.25
358.545
363.118
367.65
371.262
373.256
373.833
373.673
373.73
374.499
375.403
376.059
376.552
377.067
377.737
378.485
379.084
379.482
379.771
380.055
380.464
381.219
382.745
385.9
391.982
400.786
409.86
419.85
431.792
450.472
495.761
320.954
339.181
347.278
352.365
356.982
361.808
366.604
370.774
374.073
376.214
377.059
376.914
376.336
376.156
376.435
376.759
377.03
377.312
377.719
378.411
379.36
380.177
380.656
380.906
381.086
381.368
382.053
383.719
387.5
394.973
405.85
418.047
431.091
449.662
493.424
322.592
340.583
348.15
353.147
358.139
363.738
369.203
373.222
375.771
377.401
378.239
378.351
378.016
377.659
377.534
377.538
377.589
377.681
377.861
378.248
379.1
380.588
382.221
383.316
383.741
383.722
383.573
383.797
385.359
390.252
400.858
416.049
432.05
452.345
495.146
322.241
339.66
347.155
352.164
357.188
362.958
368.917
373.468
376.165
377.71
378.595
378.926
378.861
378.645
378.467
378.37
378.324
378.316
378.363
378.524
378.949
379.969
381.986
384.798
387.321
388.715
389.279
389.844
391.54
396.546
407.799
424.21
440.59
461.707
505.023
321.814
339.446
347.139
352.184
357.028
362.388
368.18
373.159
376.313
378.005
378.932
379.418
379.563
379.5
379.358
379.211
379.086
378.983
378.903
378.871
378.952
379.308
380.321
382.682
386.716
391.18
394.548
397.517
401.981
409.931
422.513
437.637
452.38
472.503
513.682
322.282
340.124
347.752
352.721
357.395
362.392
367.793
372.857
376.455
378.409
379.312
379.714
379.891
379.948
379.94
379.9
379.839
379.761
379.669
379.573
379.51
379.557
379.888
380.934
383.567
388.504
394.519
399.787
405.87
415.883
430.32
445.02
458.203
476.018
513.958
322.924
340.464
347.793
352.533
356.913
361.521
366.604
371.794
376.056
378.72
380.004
380.445
380.496
380.434
380.375
380.341
380.324
380.312
380.29
380.249
380.202
380.193
380.307
380.743
382.02
385.255
391.498
399.334
406.321
414.694
427.644
442.398
455.804
473.364
511.452
322.689
340.143
347.487
352.112
356.123
360.059
364.353
369.21
373.992
377.637
379.797
380.791
381.082
381.059
380.96
380.88
380.84
380.84
380.872
380.909
380.926
380.936
380.99
381.199
381.842
383.678
388.358
397.513
409.397
420.009
430.303
442.296
455.057
473.111
511.778
322.203
339.927
347.53
352.227
356.134
359.709
363.244
367.157
371.6
375.824
378.889
380.608
381.331
381.499
381.452
381.368
381.31
381.299
381.354
381.477
381.62
381.729
381.806
381.907
382.164
382.939
385.242
391.316
403.648
420.746
435.99
447.136
457.603
473.39
510.686
321.948
339.752
347.54
352.366
356.39
360.046
363.417
366.633
370.057
373.888
377.496
380.066
381.428
381.924
381.984
381.906
381.822
381.774
381.786
381.903
382.143
382.431
382.676
382.857
383.003
383.213
383.798
385.701
391.236
403.694
422.236
438.69
450.915
466.221
503.923
321.043
338.968
347.18
352.26
356.481
360.409
364.1
367.397
370.251
373.032
376.082
378.971
381.015
382.054
382.398
382.421
382.357
382.295
382.269
382.322
382.537
382.944
383.423
383.864
384.233
384.522
384.725
384.951
385.884
389.853
401.472
420.265
438.621
458.122
496.656
320.599
338.772
347.336
352.623
357.014
361.213
365.352
369.128
372.101
374.317
376.332
378.55
380.633
382.033
382.68
382.86
382.856
382.812
382.781
382.794
382.932
383.335
383.997
384.753
385.519
386.309
387.116
387.736
387.841
388.609
395.919
414.889
435.743
457.566
497.049
320.383
338.816
347.656
353.118
357.667
362.113
366.681
370.995
374.327
376.49
377.929
379.27
380.789
382.133
382.937
383.254
383.323
383.314
383.298
383.303
383.383
383.682
384.368
385.362
386.548
388.02
390.054
392.788
395.417
397.974
405.945
423.851
442.255
463.585
504.979
320.689
339.668
348.709
354.312
359.058
363.813
368.797
373.467
376.944
379.035
380.178
380.925
381.714
382.607
383.302
383.654
383.776
383.807
383.818
383.838
383.9
384.096
384.622
385.592
386.949
388.816
391.727
396.557
403.452
411.197
421.465
436.299
451.056
470.456
511.413
321.993
341.371
350.24
355.828
360.785
365.96
371.452
376.349
379.678
381.502
382.393
382.835
383.153
383.528
383.904
384.143
384.252
384.305
384.346
384.398
384.483
384.657
385.047
385.813
387.001
388.683
391.311
395.962
404.078
415.744
429.329
443.144
455.808
473.065
511.812
323.522
342.918
351.422
356.891
361.951
367.4
373.272
378.397
381.661
383.302
384.04
384.352
384.481
384.567
384.659
384.731
384.778
384.826
384.891
384.984
385.13
385.379
385.804
386.502
387.553
388.985
391.05
394.5
400.882
412.023
427.426
442.839
455.822
472.535
510.279
324.665
343.818
352.003
357.328
362.285
367.595
373.407
378.769
382.38
384.237
385.069
385.402
385.493
385.468
385.404
385.347
385.325
385.357
385.441
385.587
385.83
386.237
386.835
387.644
388.797
390.38
392.635
396.2
402.251
412.428
427.396
443.14
456.439
473.551
511.536
324.668
343.594
351.689
356.879
361.512
366.255
371.515
377.034
381.513
384.179
385.478
386.043
386.236
386.225
386.108
385.969
385.881
385.883
385.981
386.186
386.556
387.179
387.98
388.835
390.028
391.808
394.579
399.246
407.11
418.711
432.869
446.589
458.804
475.623
513.423
323.785
342.747
351.152
356.432
360.91
365.205
369.721
374.723
379.663
383.311
385.354
386.331
386.744
386.851
386.773
386.605
386.452
386.4
386.481
386.722
387.215
388.111
389.257
390.075
390.927
392.349
394.787
399.214
407.348
420.259
435.273
448.247
459.548
475.332
512.198
322.61
341.925
351.016
356.714
361.494
366.026
370.435
374.638
378.766
382.519
385.088
386.465
387.113
387.369
387.388
387.255
387.066
386.941
386.961
387.176
387.711
388.847
390.664
392.017
392.505
393.229
394.705
397.67
403.693
414.954
430.729
445.458
457.394
472.777
508.867
322.085
342.05
351.786
357.929
363.197
368.473
373.697
377.875
380.711
383.218
385.394
386.776
387.496
387.829
387.931
387.867
387.698
387.526
387.464
387.598
388.063
389.21
391.58
394.438
395.589
395.906
396.642
398.514
402.882
412.048
426.951
442.528
455.121
470.996
508.084
322.812
343.392
353.279
359.602
365.291
371.418
377.81
382.553
384.679
385.702
386.747
387.596
388.108
388.376
388.481
388.459
388.334
388.161
388.041
388.079
388.41
389.358
391.66
395.775
399.455
400.684
401.39
403.145
407.61
416.665
430.22
444.195
456.456
473.209
512.062
324.665
345.506
355.098
361.472
367.72
374.828
382
386.646
388.11
388.273
388.431
388.684
388.894
389.027
389.085
389.068
388.978
388.833
388.695
388.654
388.83
389.467
391.177
395.032
400.923
405.631
407.815
410.14
415.345
425.345
438.294
450.385
461.86
478.847
516.999
326.472
347.186
356.449
363.005
370.063
378.273
385.761
389.503
390.064
389.87
389.732
389.702
389.725
389.755
389.765
389.741
389.674
389.565
389.441
389.358
389.402
389.733
390.728
393.275
398.618
406.256
412.73
416.841
422.05
431.526
443.872
455.16
466.044
482.4
519.007
327.254
347.72
356.8
363.502
370.975
379.6
387.269
390.715
390.899
390.689
390.551
390.481
390.457
390.456
390.457
390.446
390.412
390.348
390.261
390.177
390.149
390.271
390.751
392.096
395.431
402.226
412.021
421.066
427.438
434.63
444.469
454.88
465.727
482.266
519.567
327.119
347.412
356.343
362.852
369.837
377.813
385.787
390.591
391.309
391.208
391.112
391.063
391.055
391.074
391.106
391.138
391.161
391.164
391.146
391.112
391.087
391.126
391.349
392.029
393.836
398.238
407.161
420.373
433.322
442.089
449.45
457.799
467.98
484.66
521.19
326.64
346.839
355.666
361.827
367.96
374.697
382.212
388.874
391.312
391.513
391.484
391.475
391.506
391.571
391.658
391.755
391.854
391.942
392.012
392.059
392.087
392.118
392.217
392.532
393.413
395.722
401.326
412.72
429.935
447.252
458.282
465.969
474.445
488.765
521.138
326.211
346.534
355.458
361.521
367.247
373.056
379.236
385.916
390.731
391.734
391.826
391.858
391.927
392.038
392.184
392.354
392.537
392.723
392.901
393.061
393.195
393.302
393.401
393.551
393.908
394.843
397.256
403.113
415.168
433.815
452.692
464.983
474.151
486.669
516.87
325.998
346.616
355.721
361.827
367.481
372.971
378.222
383.544
389.193
391.876
392.234
392.302
392.396
392.537
392.725
392.952
393.209
393.485
393.769
394.051
394.319
394.562
394.777
394.975
395.206
395.601
396.478
398.623
403.814
414.967
433.24
452.037
465.541
480.096
511.68
326.113
347.005
356.236
362.381
368.043
373.546
378.605
383.042
387.46
391.692
392.78
392.88
392.967
393.114
393.318
393.58
393.895
394.256
394.645
395.046
395.444
395.828
396.191
396.533
396.871
397.254
397.806
398.84
401.199
407.154
421.077
442.139
458.904
476.024
509.521
326.506
347.5
356.712
362.847
368.52
374.095
379.281
383.562
387.014
390.594
393.118
393.443
393.518
393.664
393.875
394.157
394.519
394.962
395.469
396.006
396.542
397.06
397.554
398.033
398.513
399.031
399.671
400.631
402.474
406.957
418.603
439.456
456.679
474.538
509.199
326.729
347.635
356.746
362.846
368.542
374.174
379.443
383.853
387.186
389.83
392.733
393.899
394.056
394.206
394.423
394.711
395.095
395.602
396.23
396.927
397.622
398.269
398.864
399.426
399.988
400.593
401.316
402.312
404.012
407.784
417.591
437.097
454.49
472.611
507.509
326.409
347.214
356.37
362.5
368.261
374.036
379.417
383.828
387.157
389.634
391.748
393.872
394.461
394.671
394.913
395.216
395.615
396.169
396.921
397.834
398.777
399.624
400.34
400.961
401.543
402.145
402.84
403.758
405.235
408.356
416.563
434.373
452.03
470.504
505.313
326.222
347.154
356.437
362.647
368.517
374.502
380.132
384.619
387.765
389.937
391.601
393.259
394.582
395.026
395.337
395.677
396.089
396.654
397.479
398.609
399.902
401.098
402.06
402.824
403.484
404.135
404.873
405.842
407.379
410.563
418.679
435.432
452.14
470.341
505.745
326.108
347.24
356.659
362.956
368.91
374.992
380.707
385.278
388.495
390.608
391.996
393.062
394.282
395.117
395.597
396.032
396.497
397.08
397.934
399.218
400.906
402.634
404.037
405.081
405.9
406.653
407.52
408.776
411.011
415.675
425.582
441.503
456.059
473.2
509.647
325.837
347.354
357.076
363.547
369.65
375.878
381.61
386.043
389.107
391.16
392.533
393.447
394.133
394.918
395.557
396.162
396.734
397.359
398.207
399.533
401.525
403.932
406.1
407.775
409.124
410.357
411.696
413.527
416.719
423.004
434.179
448.376
461.015
477.382
514.552
326.071
348.22
358.254
364.933
371.273
377.704
383.397
387.591
390.374
392.174
393.362
394.157
394.686
395.052
395.395
395.932
396.747
397.493
398.31
399.509
401.488
404.376
407.449
409.827
411.692
413.554
415.804
418.885
423.573
431.111
442.002
453.886
465.075
480.978
518.065
326.594
349.193
359.431
366.309
372.971
379.716
385.366
389.249
391.709
393.277
394.32
395.033
395.503
395.776
395.88
395.813
396.18
397.33
398.414
399.579
401.356
404.374
408.593
412.589
415.317
417.525
420.206
424.147
430.061
438.386
448.506
458.697
469.049
484.815
520.972
327.089
349.945
360.367
367.461
374.523
381.698
387.397
391.046
393.219
394.535
395.372
395.932
396.32
396.578
396.708
396.686
396.386
396.312
397.434
398.881
400.493
402.995
407.278
413.127
418.516
422.294
425.697
430.183
436.583
444.79
453.8
462.742
472.443
487.843
522.586
327.782
350.731
361.27
368.625
376.243
383.969
389.739
393.155
395.026
396.075
396.699
397.089
397.337
397.491
397.568
397.565
397.458
397.148
396.698
397.473
399.182
401.061
403.858
408.849
415.982
422.8
427.831
432.665
439.102
447.348
456.166
464.746
474.021
488.746
522.505
328.038
350.945
361.69
369.429
377.777
386.112
391.952
395.166
396.793
397.616
398.037
398.254
398.369
398.425
398.439
398.405
398.303
398.097
397.729
397.339
398.06
400.29
403.229
407.408
414.036
422.988
431.602
438.04
443.812
450.595
458.334
466.443
475.502
489.888
522.583
328.294
351.362
362.433
370.677
379.894
388.784
394.562
397.457
398.745
399.249
399.376
399.345
399.274
399.213
399.173
399.138
399.085
398.987
398.82
398.576
398.475
399.221
401.081
403.97
408.572
416.194
426.894
437.983
446.83
454.01
460.961
468.294
476.698
490.133
521.5
328.926
352.506
363.871
372.643
382.703
391.877
397.244
399.567
400.357
400.413
400.168
399.886
399.677
399.561
399.52
399.523
399.536
399.528
399.477
399.369
399.199
399.077
399.436
400.848
403.689
408.691
417.059
428.893
441.439
451.878
460.334
468.002
476.148
488.842
519.719
329.958
354.321
365.874
375.121
385.812
394.952
399.684
401.276
401.386
400.811
400.156
399.734
399.519
399.426
399.398
399.401
399.417
399.432
399.435
399.427
399.437
399.583
400.136
401.397
403.572
407.164
413.332
423.378
436.521
449.121
459.15
467.558
475.989
488.731
519.11
330.44
355.35
366.962
376.224
386.653
395.481
400.153
401.662
401.621
400.96
400.479
400.362
400.349
400.37
400.415
400.479
400.554
400.631
400.71
400.803
400.949
401.23
401.775
402.731
404.279
406.826
411.275
419.076
430.984
444.702
456.689
466.38
475.285
488.006
517.842
330.414
355.765
367.626
376.68
386.365
394.575
399.601
401.892
402.666
402.519
401.918
401.578
401.522
401.572
401.694
401.884
402.136
402.437
402.777
403.151
403.567
404.058
404.682
405.531
406.75
408.633
411.804
417.441
426.926
439.806
452.733
463.459
473.059
486.653
518.171
331.504
357.479
369.753
379.204
388.93
396.039
399.991
401.994
402.856
403.043
402.761
402.507
402.564
402.656
402.785
402.977
403.247
403.609
404.07
404.638
405.316
406.111
407.046
408.182
409.654
411.731
414.935
420.177
428.635
440.506
453.224
464.013
473.819
487.868
519.566
332.556
358.622
371.067
380.834
391.008
398.105
401.417
402.836
403.449
403.621
403.433
403.032
403.177
403.691
404.02
404.293
404.574
404.884
405.239
405.662
406.19
406.864
407.731
408.844
410.294
412.289
415.314
420.348
428.695
440.526
453.064
463.476
472.919
486.649
518.929
333.258
359.089
371.645
381.592
392.01
399.393
402.759
403.954
404.341
404.403
404.231
403.758
403.3
403.948
404.878
405.596
406.24
406.893
407.578
408.287
409.019
409.794
410.68
411.809
413.399
415.768
419.364
424.859
433.052
443.73
454.521
463.822
473.244
488.117
522.093
333.452
359.119
371.711
381.793
392.438
400.261
403.972
405.213
405.431
405.252
404.888
404.363
403.736
403.841
405.002
405.967
406.698
407.405
408.223
409.242
410.519
412.074
413.878
415.887
418.156
420.971
424.937
430.873
439.244
449.208
458.754
467.281
476.447
491.091
523.107
333.077
358.857
371.519
381.795
392.667
400.766
404.652
405.937
406.089
405.824
405.379
404.832
404.628
405.266
406.335
407.199
407.933
408.604
409.222
409.818
410.48
411.369
412.726
414.845
417.964
422.158
427.456
434.049
441.982
450.505
458.558
466.133
474.572
488.485
521.541
332.51
358.612
371.446
382.068
393.289
401.544
405.413
406.551
406.571
406.398
406.392
406.674
407.402
408.235
408.858
409.408
410.075
411.04
412.437
414.256
416.308
418.357
420.325
422.388
424.973
428.709
434.099
441.025
448.71
456.281
463.465
470.774
479.846
495.279
526.893
331.8
358.224
371.308
382.074
393.183
401.219
405.281
406.808
407.11
407.135
407.422
408.004
408.745
409.49
410.306
411.204
411.971
412.523
413.027
413.744
414.988
417.069
420.187
424.313
429.142
434.313
439.741
445.565
451.759
458.072
464.413
471.083
479.221
492.854
523.156
331.576
358.388
371.782
382.711
393.717
401.163
404.886
406.671
407.312
407.357
407.527
408.376
409.911
411.536
412.33
412.891
413.664
414.954
416.682
418.311
419.466
420.329
421.347
423.106
426.242
431.09
437.344
444.187
450.88
457.222
463.439
469.983
478.076
492.24
525.154
332.255
359.265
372.855
384.089
395.58
403.009
405.975
407.192
407.808
407.922
407.643
407.495
408.298
410.177
412.594
414.942
416.522
417.713
419.232
421.726
425.415
429.861
434.332
438.323
441.776
445.036
448.647
452.998
458.054
463.588
469.593
476.485
485.877
502.133
531.303
333.458
360.256
373.596
384.596
396.233
404.706
408.224
409.032
409.121
409.149
409.114
408.861
408.353
408.038
408.703
410.619
413.386
416.225
418.059
418.635
418.971
419.901
422.217
426.398
432.44
439.759
447.247
453.913
459.675
465.041
470.474
476.326
483.472
495.18
521.975
333.828
360.363
373.447
383.837
394.556
403.527
408.91
411.009
411.404
411.222
410.938
410.671
410.378
409.944
409.337
408.996
409.975
412.831
417.407
422.867
427.94