/*--------------------------------*- C++ -*----------------------------------*\
| =========                 |                                                 |
| \\      /  F ield         | OpenFOAM: The Open Source CFD Toolbox           |
|  \\    /   O peration     | Version:  v2006                                 |
|   \\  /    A nd           | Website:  www.openfoam.com                      |
|    \\/     M anipulation  |                                                 |
\*---------------------------------------------------------------------------*/
FoamFile
{
    version     2.0;
    format      ascii;
    class       volVectorField;
    location    "37";
    object      U;
}
// * * * * * * * * * * * * * * * * * * * * * * * * * * * * * * * * * * * * * //

dimensions      [0 1 -1 0 0 0 0];


internalField   nonuniform List<vector> 
78750
(
(-0.303126 -0.159762 -0.117562)
(-0.266106 -0.146641 -0.115209)
(-0.255321 -0.125202 -0.107569)
(-0.217446 -0.102874 -0.0974823)
(-0.174785 -0.0805056 -0.0857853)
(-0.151065 -0.0718202 -0.0814627)
(-0.144568 -0.062229 -0.0792386)
(-0.121775 -0.0551505 -0.0759853)
(-0.108196 -0.0482939 -0.0736745)
(-0.0927189 -0.0420071 -0.0708945)
(-0.0797367 -0.0366818 -0.068586)
(-0.0683383 -0.0315323 -0.0662084)
(-0.0577441 -0.0271216 -0.0639871)
(-0.0486725 -0.0230485 -0.0618486)
(-0.0403914 -0.0194579 -0.0597861)
(-0.0330652 -0.0162801 -0.0578153)
(-0.0264835 -0.0134919 -0.055926)
(-0.02055 -0.0110634 -0.0541135)
(-0.0151691 -0.00895444 -0.0523712)
(-0.0102531 -0.00712074 -0.0506865)
(-0.00573035 -0.00551629 -0.0490421)
(-0.00154602 -0.00409612 -0.0474158)
(0.00232254 -0.00281792 -0.0457812)
(0.00590526 -0.00164114 -0.0440987)
(0.00923248 -0.000533262 -0.0423153)
(0.0122954 0.00053265 -0.0403711)
(0.0150708 0.00158143 -0.0381857)
(0.0175172 0.00264801 -0.0356627)
(0.0195837 0.00378048 -0.0326678)
(0.0211989 0.00503759 -0.0290207)
(0.0222418 0.00649382 -0.0244737)
(0.022561 0.00823044 -0.0186607)
(0.0216371 0.0101951 -0.0112791)
(0.0228772 0.0123321 0.000424277)
(0.0150133 0.0853206 0.0151952)
(0.0339386 -0.178034 0.00980139)
(-0.051807 -0.149975 -0.0221888)
(-0.0264916 -0.166096 -0.0402671)
(-0.0476416 -0.169042 -0.0528154)
(-0.0540686 -0.145602 -0.0623741)
(-0.0588987 -0.121869 -0.0673126)
(-0.0613353 -0.101408 -0.071657)
(-0.0630616 -0.0870496 -0.074881)
(-0.0635295 -0.0753264 -0.0771128)
(-0.063146 -0.0652232 -0.0786524)
(-0.0619542 -0.056353 -0.079583)
(-0.0600058 -0.0484293 -0.0800438)
(-0.0574231 -0.0412794 -0.0801369)
(-0.054287 -0.0348504 -0.0799564)
(-0.0506963 -0.0291479 -0.079582)
(-0.0467389 -0.0241955 -0.079082)
(-0.042495 -0.0200112 -0.0785099)
(-0.0380424 -0.0165778 -0.0779015)
(-0.0334505 -0.0138301 -0.0772744)
(-0.0287782 -0.0116557 -0.0766317)
(-0.0240731 -0.00990799 -0.075965)
(-0.0193739 -0.00842661 -0.0752573)
(-0.0147167 -0.00705756 -0.0744852)
(-0.0101388 -0.00566541 -0.0736189)
(-0.00567614 -0.0041362 -0.0726196)
(-0.00136261 -0.00238079 -0.0714413)
(0.00278458 -0.00034676 -0.0700264)
(0.00675939 0.00199096 -0.0683137)
(0.0105173 0.00469975 -0.0662281)
(0.013935 0.00789451 -0.0636908)
(0.0167527 0.011748 -0.0606186)
(0.0186139 0.0166554 -0.0567541)
(0.019322 0.0243035 -0.0507079)
(0.0168833 0.0483018 -0.034864)
(0.00546596 0.205724 0.00538549)
(-0.0117759 0.0709359 -0.0396647)
(-0.022033 0.0464611 -0.0529967)
(-0.0344779 0.0139708 -0.0467105)
(-0.0452995 -0.0138698 -0.0385505)
(-0.0533749 -0.0340601 -0.0338752)
(-0.0569415 -0.0425158 -0.0313894)
(-0.0588377 -0.0437991 -0.0295392)
(-0.0593844 -0.0400673 -0.0288409)
(-0.0586368 -0.036347 -0.0297613)
(-0.0576381 -0.0339537 -0.0316778)
(-0.05681 -0.0323096 -0.0341516)
(-0.0563671 -0.0312666 -0.0368117)
(-0.0562858 -0.0306418 -0.039306)
(-0.0563204 -0.0301275 -0.041461)
(-0.0561231 -0.0294665 -0.0432903)
(-0.0553773 -0.0285139 -0.0448955)
(-0.0538669 -0.0271934 -0.046389)
(-0.0514807 -0.0254712 -0.0478714)
(-0.0481977 -0.0233567 -0.0494138)
(-0.0440799 -0.0208863 -0.0510364)
(-0.0392541 -0.0180851 -0.0527054)
(-0.0338836 -0.0149512 -0.0543454)
(-0.0281483 -0.0114835 -0.0558608)
(-0.0222496 -0.00771517 -0.0571616)
(-0.0164566 -0.0037048 -0.0581806)
(-0.01111 0.000450141 -0.0588826)
(-0.00639106 0.0045863 -0.0593059)
(-0.00220994 0.00887241 -0.0595173)
(0.00154845 0.0139206 -0.0595031)
(0.00491054 0.0205101 -0.0591411)
(0.00786642 0.0299528 -0.0582437)
(0.0104056 0.0456937 -0.0565379)
(0.0124618 0.0796069 -0.0531861)
(0.0123994 0.172053 -0.0432777)
(0.00325236 0.306758 -0.00735146)
(0.0025195 0.000555791 -0.00139413)
(0.00976294 -0.0161261 -0.00155971)
(0.0154997 -0.0365092 0.00475105)
(0.0219907 -0.0571874 0.0136846)
(0.0277865 -0.0745408 0.0226823)
(0.032227 -0.0867895 0.0304441)
(0.0364308 -0.0935995 0.0380153)
(0.0406038 -0.0942524 0.046483)
(0.044377 -0.0877702 0.0563974)
(0.0474491 -0.074701 0.0673074)
(0.0496082 -0.0573941 0.0776903)
(0.050754 -0.0394433 0.085195)
(0.0508981 -0.0246204 0.0876738)
(0.0501576 -0.015247 0.0843811)
(0.0486897 -0.0115592 0.0760394)
(0.0466085 -0.0125868 0.0641631)
(0.0439955 -0.01702 0.0506428)
(0.0409414 -0.0234339 0.0371528)
(0.0375096 -0.0304674 0.0244233)
(0.0337086 -0.0370316 0.0122566)
(0.029491 -0.04236 0.000138031)
(0.0248019 -0.0459257 -0.0121108)
(0.0197667 -0.0472351 -0.0239033)
(0.0144553 -0.0459446 -0.0342378)
(0.00845483 -0.0415259 -0.0419556)
(0.00114 -0.0322397 -0.0443936)
(-0.00426739 -0.0187373 -0.0398426)
(-0.00492556 -0.00795142 -0.0359912)
(-0.00178187 0.00140777 -0.035468)
(0.00339294 0.0121562 -0.0358666)
(0.00780328 0.0238283 -0.0348086)
(0.0103452 0.0374158 -0.0306842)
(0.010169 0.0636932 -0.0210529)
(0.00746298 0.175525 -0.00824381)
(0.00197726 0.340912 0.00523652)
(-0.00065168 -0.0314941 0.0308153)
(0.00523421 -0.067262 0.0466426)
(0.0151863 -0.0968068 0.0487377)
(0.0270639 -0.119955 0.0465878)
(0.0395254 -0.135663 0.0425132)
(0.051569 -0.144507 0.037559)
(0.0626113 -0.147677 0.0320534)
(0.0724518 -0.146415 0.0261302)
(0.0811659 -0.141853 0.0200729)
(0.0890283 -0.134801 0.0143983)
(0.0963859 -0.125694 0.00974972)
(0.103483 -0.114758 0.00667187)
(0.110326 -0.10225 0.00539325)
(0.116654 -0.0885518 0.0057893)
(0.122044 -0.0740758 0.0075491)
(0.126068 -0.0591162 0.0103696)
(0.128387 -0.0437908 0.0140615)
(0.128796 -0.0280657 0.0185703)
(0.127164 -0.0117558 0.0240338)
(0.123451 0.00525411 0.0305425)
(0.117676 0.0232775 0.0385737)
(0.109555 0.0425325 0.0485569)
(0.0995282 0.0618827 0.060547)
(0.087694 0.0799937 0.0739483)
(0.0731605 0.10494 0.0946973)
(0.0556264 0.122225 0.126747)
(0.0399287 0.0803532 0.120837)
(0.0277665 0.0145746 0.0666938)
(0.0184433 -0.0188568 0.0110676)
(0.011743 -0.0179795 -0.0303585)
(0.0074579 0.0097872 -0.0619464)
(0.00610068 0.0634848 -0.0831248)
(0.00569819 0.146067 -0.0826557)
(0.00262438 0.268994 -0.0446532)
(-0.00115629 0.384056 -0.00472671)
(0.00110955 -0.0555009 0.0171167)
(0.0147086 -0.150384 0.012894)
(0.0297294 -0.206063 0.00530711)
(0.0449449 -0.236641 -0.00166053)
(0.0592902 -0.250214 -0.00787653)
(0.0722922 -0.251874 -0.0137723)
(0.0836332 -0.244966 -0.0198849)
(0.0930113 -0.232072 -0.0262839)
(0.10033 -0.215394 -0.0325828)
(0.10573 -0.196684 -0.038313)
(0.109485 -0.177214 -0.0431684)
(0.111916 -0.157843 -0.047029)
(0.113339 -0.139087 -0.0498856)
(0.11402 -0.121167 -0.0517699)
(0.114161 -0.104078 -0.0527204)
(0.113896 -0.0876628 -0.0527713)
(0.113314 -0.0716801 -0.0519383)
(0.112488 -0.0558635 -0.0502026)
(0.111502 -0.0399524 -0.0475035)
(0.110399 -0.0237104 -0.0437866)
(0.109308 -0.00703008 -0.0386726)
(0.108167 0.0102412 -0.0318838)
(0.107081 0.0279093 -0.0233298)
(0.106002 0.0455381 -0.013241)
(0.104836 0.0644846 3.04592e-05)
(0.102923 0.0828352 0.0184762)
(0.0996704 0.09171 0.0320321)
(0.0927859 0.0953038 0.0389837)
(0.0785772 0.0985992 0.0449555)
(0.0582673 0.101584 0.05447)
(0.0389503 0.0997315 0.0681019)
(0.0246706 0.099486 0.0683425)
(0.0159482 0.154301 0.0234356)
(0.0109095 0.297756 -0.0138801)
(0.00282653 0.402756 -0.00248838)
(0.00745224 -0.145642 -0.00626778)
(0.0256068 -0.267041 -0.00122675)
(0.0394475 -0.309451 0.00144297)
(0.0490246 -0.317603 0.00206837)
(0.0553386 -0.309235 -7.98636e-05)
(0.0592984 -0.289425 -0.0057831)
(0.0604636 -0.259821 -0.0160235)
(0.0585818 -0.224432 -0.0300823)
(0.0545458 -0.188258 -0.0455007)
(0.0495965 -0.154662 -0.0601495)
(0.0446699 -0.125074 -0.0729388)
(0.0403072 -0.0997124 -0.0834254)
(0.0367665 -0.0781537 -0.0914832)
(0.0341544 -0.0597099 -0.0972013)
(0.0324678 -0.0436335 -0.10083)
(0.0316086 -0.0292056 -0.102685)
(0.0314172 -0.0157736 -0.103044)
(0.0317516 -0.00280454 -0.102101)
(0.0325348 0.0100716 -0.0999809)
(0.0336021 0.0231107 -0.0967138)
(0.0349938 0.0364199 -0.0921591)
(0.0366167 0.0501779 -0.0862534)
(0.0383067 0.064443 -0.0788092)
(0.0398821 0.0791833 -0.0695246)
(0.0412401 0.09418 -0.0579426)
(0.0421913 0.108551 -0.0441375)
(0.0422443 0.121137 -0.0297061)
(0.0408703 0.132371 -0.0155235)
(0.0377762 0.142892 -0.000747107)
(0.0327113 0.15159 0.0166081)
(0.0256877 0.155519 0.0371035)
(0.0177242 0.159693 0.0526031)
(0.00876969 0.204936 0.042291)
(0.00384965 0.35532 0.00571612)
(-0.000313133 0.443001 0.00113034)
(0.00438821 -0.243786 0.0220033)
(0.00878494 -0.33531 0.0412926)
(0.00946067 -0.340981 0.0433187)
(0.00883589 -0.327857 0.0413612)
(0.00644761 -0.295322 0.034605)
(0.00136845 -0.241729 0.0194809)
(-0.00580884 -0.178198 -0.00445684)
(-0.0131877 -0.120421 -0.0301442)
(-0.0190608 -0.0770576 -0.0499748)
(-0.0229057 -0.0477164 -0.0636472)
(-0.0248477 -0.0284673 -0.0745959)
(-0.0252473 -0.0160657 -0.0845148)
(-0.024506 -0.00817533 -0.0932396)
(-0.0229469 -0.00290206 -0.100344)
(-0.0207714 0.00118265 -0.105718)
(-0.0180716 0.00506072 -0.109487)
(-0.0148698 0.00938936 -0.111863)
(-0.0112454 0.0146255 -0.113044)
(-0.00732005 0.0210782 -0.113161)
(-0.0031574 0.0289815 -0.112257)
(0.00120779 0.0385222 -0.110297)
(0.0056961 0.0497692 -0.107188)
(0.0101741 0.0626537 -0.102806)
(0.0144688 0.076953 -0.0969845)
(0.0183882 0.0923389 -0.0895368)
(0.0217154 0.108448 -0.0803027)
(0.0242017 0.124999 -0.0691566)
(0.025597 0.14188 -0.0557868)
(0.0256927 0.158697 -0.0395595)
(0.0242853 0.174151 -0.0196047)
(0.0212604 0.186542 0.00386215)
(0.0166078 0.201225 0.0271414)
(0.00904582 0.259847 0.0351385)
(0.00344526 0.406437 0.012342)
(-0.000356549 0.465905 0.00200385)
(0.00296093 -0.252779 0.0305273)
(0.00862886 -0.339427 0.0339304)
(0.01006 -0.347006 0.0286539)
(0.00920871 -0.327016 0.0212879)
(0.00566058 -0.278386 0.0122279)
(-0.000136569 -0.215224 0.000275469)
(-0.00573304 -0.158728 -0.0165981)
(-0.0098665 -0.118708 -0.0346226)
(-0.0124258 -0.0938268 -0.047539)
(-0.0136989 -0.077365 -0.0542425)
(-0.0140309 -0.0637357 -0.0570547)
(-0.0136087 -0.0503491 -0.0580298)
(-0.012562 -0.0367504 -0.0586871)
(-0.0110815 -0.0236561 -0.0601012)
(-0.00938428 -0.0119148 -0.0625933)
(-0.00760412 -0.0017465 -0.0658406)
(-0.00572914 0.00710164 -0.0693173)
(-0.0037332 0.0151254 -0.072602)
(-0.00161576 0.0228839 -0.0754371)
(0.000608464 0.0309366 -0.0776743)
(0.00291779 0.0398149 -0.0791899)
(0.00528599 0.0500384 -0.0798266)
(0.00767728 0.0620979 -0.0793506)
(0.010033 0.0763416 -0.0774474)
(0.0122617 0.0927843 -0.0737938)
(0.014259 0.110957 -0.068151)
(0.0159348 0.130078 -0.0604046)
(0.0172148 0.149368 -0.0504537)
(0.018012 0.168102 -0.0380443)
(0.0181612 0.185472 -0.0228251)
(0.0174464 0.201194 -0.00484396)
(0.0154048 0.220915 0.01572)
(0.0102209 0.285281 0.0313545)
(0.0047019 0.433542 0.0209865)
(0.000656585 0.47807 0.00896676)
(0.00566968 -0.330661 0.0448033)
(0.0123792 -0.408168 0.0423398)
(0.0109655 -0.394782 0.0276269)
(0.0042097 -0.336462 0.0126248)
(-0.00621694 -0.253177 0.00833507)
(-0.0149196 -0.174915 0.00920059)
(-0.0202391 -0.112278 0.00435351)
(-0.0232122 -0.0639075 -0.0101725)
(-0.0252788 -0.0287574 -0.0307473)
(-0.0273021 -0.00713015 -0.0491324)
(-0.0291433 0.00426645 -0.0602189)
(-0.0304421 0.010651 -0.0656365)
(-0.0311204 0.0151147 -0.068096)
(-0.0311795 0.0190081 -0.0691374)
(-0.0305921 0.0229281 -0.0695364)
(-0.0294138 0.0272015 -0.0696732)
(-0.027794 0.0320143 -0.0696769)
(-0.025891 0.0375274 -0.0695203)
(-0.0237814 0.0440202 -0.0690939)
(-0.0214518 0.0518427 -0.068219)
(-0.0189331 0.0612042 -0.0666762)
(-0.0162472 0.0722183 -0.0642323)
(-0.0133955 0.0849277 -0.0606721)
(-0.0103921 0.0991853 -0.0558623)
(-0.00727181 0.114559 -0.049807)
(-0.00410846 0.130427 -0.0426684)
(-0.00101283 0.14619 -0.034664)
(0.00188655 0.161489 -0.0258944)
(0.00445935 0.176296 -0.0162344)
(0.00655766 0.191033 -0.00538209)
(0.00803036 0.207703 0.00707517)
(0.00841126 0.236607 0.0217368)
(0.00532412 0.322701 0.0322249)
(0.00142133 0.465069 0.0244359)
(-0.000553517 0.486161 0.0125163)
(0.00215226 -0.409241 0.0618388)
(0.000777654 -0.442778 0.0414723)
(-0.0106426 -0.373096 -0.000966589)
(-0.0313444 -0.259184 -0.0325901)
(-0.0447893 -0.185727 -0.0290353)
(-0.0504661 -0.142659 -0.0180054)
(-0.052295 -0.108327 -0.00879224)
(-0.0511443 -0.0752243 -0.00413751)
(-0.047906 -0.0439336 -0.00539341)
(-0.0435653 -0.0182393 -0.0118932)
(-0.0389354 -0.000736632 -0.0204276)
(-0.0344729 0.00976644 -0.027917)
(-0.030364 0.0162993 -0.0335488)
(-0.0266201 0.0210608 -0.0377647)
(-0.0231757 0.0252028 -0.041109)
(-0.0199524 0.0292674 -0.0438982)
(-0.0169462 0.0334792 -0.046211)
(-0.0141433 0.0379661 -0.0480289)
(-0.0114721 0.0428501 -0.0493389)
(-0.00891581 0.0482579 -0.0501296)
(-0.00640382 0.0545104 -0.0503853)
(-0.00385961 0.0620289 -0.0500269)
(-0.00128638 0.0711355 -0.0488958)
(0.00130571 0.0821193 -0.0467675)
(0.00387554 0.0951597 -0.0433549)
(0.00633405 0.110244 -0.0383471)
(0.00854091 0.127085 -0.0314538)
(0.0103252 0.145127 -0.0224587)
(0.0115306 0.163721 -0.0113278)
(0.0120827 0.182705 0.0016362)
(0.0120342 0.204639 0.0160843)
(0.0112499 0.243966 0.0317772)
(0.00791811 0.351056 0.0403404)
(0.00395042 0.486248 0.0328362)
(0.0012249 0.491789 0.020717)
(-0.00602026 -0.405479 0.0857748)
(-0.0173662 -0.406532 0.0508707)
(-0.0368074 -0.252321 -0.0218028)
(-0.0594221 -0.169914 -0.0362109)
(-0.0666469 -0.159994 -0.0227647)
(-0.0707373 -0.141915 -0.020713)
(-0.0726952 -0.122066 -0.0187209)
(-0.0717342 -0.100948 -0.0177221)
(-0.0681921 -0.079141 -0.0181743)
(-0.0625711 -0.0583509 -0.0202624)
(-0.0558669 -0.0403331 -0.0235836)
(-0.048888 -0.0256428 -0.027376)
(-0.0420475 -0.0137332 -0.0311038)
(-0.0355393 -0.00379065 -0.0345767)
(-0.0294498 0.00492271 -0.0377651)
(-0.0238693 0.0129523 -0.0406659)
(-0.0187946 0.0206964 -0.0432874)
(-0.0142313 0.0284147 -0.0456344)
(-0.0102338 0.0363236 -0.0477012)
(-0.00679559 0.044661 -0.0494705)
(-0.0038676 0.0537225 -0.0508783)
(-0.00139426 0.0638436 -0.0517587)
(0.000684733 0.0753314 -0.0518002)
(0.00244318 0.0884005 -0.0505421)
(0.00396766 0.103113 -0.0474169)
(0.00534038 0.119347 -0.0418529)
(0.00661455 0.136739 -0.0334181)
(0.00778245 0.154638 -0.0220174)
(0.00875001 0.172258 -0.00813056)
(0.00934992 0.189385 0.00716083)
(0.00943275 0.208712 0.0230763)
(0.00853673 0.245847 0.0400075)
(0.00538436 0.361606 0.0501597)
(0.00223531 0.500592 0.0440102)
(0.000650383 0.494844 0.0303499)
(-0.0111971 -0.319726 0.0962644)
(-0.0240435 -0.319313 0.0766639)
(-0.0300976 -0.166805 0.0198167)
(-0.0336614 -0.127016 0.0114577)
(-0.0365857 -0.150215 0.0278305)
(-0.0406426 -0.135488 0.027397)
(-0.0440693 -0.124172 0.0246252)
(-0.0466305 -0.115719 0.0212899)
(-0.0480682 -0.105338 0.0167543)
(-0.048246 -0.0926912 0.0113084)
(-0.047247 -0.078773 0.00564899)
(-0.045407 -0.0647041 0.000368859)
(-0.0430549 -0.051057 -0.00425512)
(-0.0403917 -0.0378998 -0.00820401)
(-0.0375443 -0.025088 -0.0115633)
(-0.0345944 -0.0124469 -0.0144187)
(-0.0317018 0.000171396 -0.0168339)
(-0.0289972 0.0128637 -0.0188182)
(-0.0264664 0.0257393 -0.020345)
(-0.0240862 0.0389135 -0.0213486)
(-0.0218232 0.0525085 -0.0217179)
(-0.0196242 0.066609 -0.0212941)
(-0.0174161 0.0812308 -0.0198771)
(-0.015108 0.0963287 -0.0172401)
(-0.0126075 0.111809 -0.013154)
(-0.00984666 0.127558 -0.0074326)
(-0.006806 0.143469 4.52013e-06)
(-0.00354931 0.159518 0.00904419)
(-0.000249828 0.176015 0.0193049)
(0.00281725 0.194419 0.0302703)
(0.00528242 0.220356 0.0419508)
(0.00626711 0.275211 0.0540851)
(0.00346929 0.405264 0.0592446)
(0.00083203 0.520384 0.0531491)
(0.000356082 0.499521 0.0393332)
(-0.00848498 -0.363216 0.100856)
(-0.0182741 -0.4347 0.11605)
(-0.0282973 -0.39946 0.105485)
(-0.0313831 -0.256668 0.0514494)
(-0.0323968 -0.255214 0.067058)
(-0.0304567 -0.226066 0.0792781)
(-0.0283285 -0.183772 0.0796926)
(-0.0273249 -0.16056 0.0794773)
(-0.0268868 -0.140185 0.0764379)
(-0.0272611 -0.121182 0.0712101)
(-0.0280895 -0.103222 0.0646445)
(-0.0292219 -0.0865007 0.0578618)
(-0.0305464 -0.0711031 0.0517116)
(-0.0319593 -0.0568224 0.0465822)
(-0.0333312 -0.0433151 0.0425218)
(-0.0345132 -0.0302669 0.0394274)
(-0.0353824 -0.0175032 0.0371696)
(-0.0358509 -0.00496291 0.0356391)
(-0.0358638 0.007383 0.034751)
(-0.035268 0.0195681 0.0344443)
(-0.0339325 0.031649 0.0346298)
(-0.0318346 0.0436893 0.0352896)
(-0.0289639 0.0557708 0.036421)
(-0.0253051 0.0679938 0.0380327)
(-0.020883 0.0804848 0.0401252)
(-0.0157825 0.0934264 0.042702)
(-0.0101797 0.107055 0.04578)
(-0.00438397 0.121655 0.0493833)
(0.00112104 0.137765 0.0535262)
(0.00574668 0.15718 0.0582594)
(0.00914922 0.186819 0.0638851)
(0.0103175 0.253671 0.0701846)
(0.00650407 0.407383 0.0715249)
(0.00304748 0.519238 0.0651736)
(0.00193856 0.490657 0.0497329)
(-0.0164894 -0.261597 0.0762468)
(-0.0426975 -0.286513 0.058321)
(-0.0555524 -0.235744 0.0478828)
(-0.0509666 -0.226217 0.0490236)
(-0.0449759 -0.279548 0.057887)
(-0.0380861 -0.285438 0.0700637)
(-0.0287055 -0.251803 0.0773609)
(-0.0193069 -0.225479 0.0891312)
(-0.0102396 -0.19392 0.0989644)
(-0.00237537 -0.162689 0.106601)
(0.00407118 -0.133191 0.111239)
(0.00878931 -0.106414 0.1127)
(0.011668 -0.0831186 0.111384)
(0.0125199 -0.0637755 0.108123)
(0.0114171 -0.0483415 0.103901)
(0.00874473 -0.0362908 0.0995952)
(0.00474698 -0.0268532 0.0958577)
(-9.5016e-05 -0.0192271 0.093059)
(-0.00496162 -0.0128245 0.091264)
(-0.00938945 -0.00725313 0.0903125)
(-0.0130972 -0.00221666 0.0899207)
(-0.0157426 0.00255394 0.0898536)
(-0.0171188 0.00746462 0.0898871)
(-0.0170828 0.0130691 0.0898315)
(-0.0155476 0.0201233 0.0894959)
(-0.0124689 0.0295932 0.088746)
(-0.00792132 0.0426185 0.0875153)
(-0.00222309 0.0604772 0.0858181)
(0.00400532 0.0845946 0.0838432)
(0.00962948 0.117397 0.0821656)
(0.0135749 0.167951 0.0818416)
(0.0145033 0.267917 0.082975)
(0.00973866 0.43754 0.080675)
(0.00558925 0.531557 0.074307)
(0.00340222 0.496833 0.0585031)
(-0.0172289 -0.147872 0.0366559)
(-0.0338091 -0.327345 0.00526302)
(-0.0317627 -0.448432 -0.000505208)
(-0.0279499 -0.491053 -0.00248039)
(-0.0230403 -0.493423 -0.00736725)
(-0.0179198 -0.487165 -0.00893231)
(-0.0109438 -0.470077 -0.00408354)
(-0.000774913 -0.441454 0.00441028)
(0.0113316 -0.406914 0.0168851)
(0.0250087 -0.366573 0.0325774)
(0.0394796 -0.321145 0.0506711)
(0.0538635 -0.272118 0.0701444)
(0.0672817 -0.221293 0.0897906)
(0.078884 -0.170803 0.108215)
(0.0878397 -0.123033 0.123968)
(0.0936041 -0.0804299 0.135675)
(0.0957045 -0.0458678 0.142271)
(0.0941907 -0.0211514 0.143837)
(0.089178 -0.00631221 0.141435)
(0.0812082 0.000195473 0.137048)
(0.0707337 0.000869946 0.132682)
(0.0587918 -0.00168892 0.129572)
(0.046781 -0.00574875 0.127807)
(0.0360064 -0.0105993 0.126752)
(0.0271319 -0.0155449 0.125718)
(0.0203317 -0.0190868 0.124255)
(0.0157566 -0.0188347 0.122039)
(0.0136864 -0.0112748 0.11871)
(0.0144765 0.00956932 0.113616)
(0.0174528 0.0518748 0.106192)
(0.0203378 0.121663 0.0980988)
(0.0205677 0.243946 0.0941073)
(0.0145549 0.44374 0.090124)
(0.00902792 0.544613 0.0832791)
(0.00510529 0.509524 0.0657091)
(-0.00648429 -0.0964911 0.0214035)
(-0.00056987 -0.300467 -0.0165723)
(-0.000290871 -0.405888 -0.043567)
(-0.00123981 -0.453925 -0.0571508)
(-0.00165364 -0.481828 -0.0629957)
(-0.0011504 -0.498968 -0.0668775)
(0.000109813 -0.509974 -0.0702223)
(0.0025262 -0.514618 -0.0727004)
(0.00673076 -0.510961 -0.0738042)
(0.01292 -0.498041 -0.0726402)
(0.0213186 -0.475769 -0.0683687)
(0.0319708 -0.444504 -0.0603605)
(0.0447219 -0.404724 -0.0481536)
(0.0591407 -0.357105 -0.0314881)
(0.0746157 -0.302533 -0.0102942)
(0.0902073 -0.242929 0.0149144)
(0.104823 -0.180765 0.0430225)
(0.117594 -0.11745 0.0729562)
(0.127181 -0.056026 0.102483)
(0.132326 -0.00210938 0.128012)
(0.132854 0.0394048 0.146648)
(0.128645 0.0630114 0.156157)
(0.118707 0.0647421 0.155662)
(0.103242 0.0502895 0.149399)
(0.0848985 0.0321165 0.143652)
(0.0668061 0.0161239 0.140299)
(0.0508061 0.00154375 0.137939)
(0.0377887 -0.0108188 0.135531)
(0.028079 -0.0154502 0.132292)
(0.0231304 0.00527678 0.125919)
(0.0233114 0.0910023 0.111861)
(0.023674 0.254625 0.0997151)
(0.0171852 0.475367 0.0945278)
(0.0107914 0.575284 0.0881173)
(0.00582332 0.536785 0.0695051)
(0.00188088 -0.157135 0.0168654)
(0.0193432 -0.377709 0.00127539)
(0.0308266 -0.475237 -0.00708342)
(0.0400502 -0.51703 -0.0114287)
(0.0469008 -0.534766 -0.0152435)
(0.0521078 -0.541379 -0.0191692)
(0.0558454 -0.540872 -0.0237612)
(0.0579981 -0.535515 -0.029564)
(0.0586961 -0.527037 -0.0368871)
(0.0583213 -0.516066 -0.0457567)
(0.057331 -0.50231 -0.0558927)
(0.0562443 -0.484971 -0.0666873)
(0.0556304 -0.463002 -0.077199)
(0.0560419 -0.435302 -0.0861343)
(0.0579177 -0.40127 -0.0917344)
(0.061577 -0.361358 -0.0916406)
(0.0672766 -0.316772 -0.0836378)
(0.0752267 -0.268035 -0.0667463)
(0.0852335 -0.215127 -0.0415925)
(0.0967097 -0.158049 -0.00983421)
(0.108356 -0.0970406 0.0265575)
(0.118067 -0.0328031 0.065785)
(0.124579 0.0359754 0.10709)
(0.124521 0.0955579 0.141439)
(0.114591 0.118295 0.156126)
(0.0973344 0.103163 0.154445)
(0.0780711 0.0744979 0.14835)
(0.0598757 0.0479528 0.143551)
(0.0439315 0.0247689 0.140075)
(0.0313868 0.0049781 0.136848)
(0.02584 0.0479375 0.125156)
(0.0252985 0.22888 0.106336)
(0.0186149 0.490094 0.0967805)
(0.0114833 0.606335 0.089561)
(0.00597791 0.56788 0.0694844)
(0.00662557 -0.254502 0.00194541)
(0.0258901 -0.451557 -0.0147353)
(0.0410168 -0.533516 -0.0209617)
(0.0525021 -0.571266 -0.0215994)
(0.061014 -0.587949 -0.0206424)
(0.0674595 -0.592476 -0.0196423)
(0.0723239 -0.588686 -0.0187997)
(0.0757651 -0.577825 -0.017998)
(0.0778458 -0.560226 -0.0172172)
(0.078584 -0.536306 -0.0167382)
(0.0779742 -0.507106 -0.0172144)
(0.0760843 -0.474187 -0.0196568)
(0.0730688 -0.438844 -0.0254033)
(0.0691056 -0.40133 -0.0360895)
(0.0643846 -0.361699 -0.0528555)
(0.0592774 -0.32266 -0.0733126)
(0.0545879 -0.288578 -0.0907071)
(0.0512566 -0.259857 -0.1001)
(0.0498947 -0.232396 -0.100368)
(0.0512185 -0.201154 -0.0901734)
(0.0557598 -0.162515 -0.0681539)
(0.0628001 -0.115796 -0.0359995)
(0.0712964 -0.0592223 0.00546975)
(0.0811843 0.0146223 0.058324)
(0.0873022 0.0926343 0.110159)
(0.0833044 0.138368 0.140177)
(0.0712772 0.139339 0.147129)
(0.0568881 0.113112 0.143525)
(0.0435761 0.0801187 0.138749)
(0.0314748 0.0426694 0.135876)
(0.0230891 0.0453722 0.127452)
(0.0215171 0.237866 0.106116)
(0.0135608 0.519468 0.0938768)
(0.00696917 0.63883 0.0857215)
(0.00385167 0.593166 0.0643572)
(0.00800425 -0.373841 -0.00974332)
(0.0202203 -0.561519 -0.021584)
(0.0290421 -0.610639 -0.0299199)
(0.0345707 -0.62087 -0.0361369)
(0.0384399 -0.619105 -0.0415739)
(0.0410229 -0.611677 -0.0466843)
(0.0423777 -0.600396 -0.0514665)
(0.0427365 -0.585905 -0.055755)
(0.0422976 -0.56835 -0.0591884)
(0.04123 -0.547556 -0.0611677)
(0.0397045 -0.523121 -0.0609696)
(0.0379347 -0.494429 -0.0580994)
(0.0361477 -0.460614 -0.0528925)
(0.0345325 -0.420306 -0.0472937)
(0.0332054 -0.372278 -0.0458242)
(0.0320654 -0.319775 -0.0536026)
(0.0308729 -0.273217 -0.0684851)
(0.029711 -0.240082 -0.0822071)
(0.0288982 -0.218139 -0.0906827)
(0.028608 -0.201001 -0.0943822)
(0.0292219 -0.182501 -0.0928955)
(0.0317628 -0.156415 -0.0819661)
(0.0365192 -0.118405 -0.0569388)
(0.0437769 -0.0593873 -0.0120148)
(0.0523797 0.0287816 0.0524675)
(0.0551862 0.107951 0.10691)
(0.0504336 0.142696 0.133148)
(0.0416944 0.135358 0.138539)
(0.0324479 0.105748 0.135506)
(0.0234297 0.0636143 0.132373)
(0.0158612 0.0477488 0.125439)
(0.0153926 0.253319 0.103963)
(0.0102032 0.557956 0.0878889)
(0.0050576 0.661387 0.0788401)
(0.00303181 0.608035 0.0587136)
(0.00134542 -0.419803 -0.010088)
(3.91429e-05 -0.555646 -0.0156495)
(0.00149267 -0.577429 -0.016648)
(0.00396903 -0.580445 -0.017534)
(0.00753318 -0.576655 -0.0189697)
(0.0116705 -0.567971 -0.021125)
(0.0159366 -0.554817 -0.0241947)
(0.019962 -0.537103 -0.0284511)
(0.0233498 -0.514823 -0.034145)
(0.0256516 -0.488847 -0.0412305)
(0.0265129 -0.461186 -0.0490605)
(0.0259093 -0.433853 -0.05644)
(0.0242012 -0.407354 -0.062069)
(0.0220582 -0.380223 -0.0649929)
(0.020388 -0.349816 -0.0651784)
(0.0200661 -0.314557 -0.0645819)
(0.021171 -0.277319 -0.0661982)
(0.0227871 -0.244217 -0.0702747)
(0.0239377 -0.21866 -0.0747438)
(0.0243631 -0.199728 -0.0780825)
(0.0243718 -0.184357 -0.0797062)
(0.0243886 -0.16843 -0.0786688)
(0.0251738 -0.145355 -0.0707562)
(0.0280551 -0.103011 -0.0440711)
(0.0344183 -0.0204861 0.0162087)
(0.0385267 0.073224 0.0817443)
(0.0371814 0.126462 0.118998)
(0.0325484 0.133115 0.130746)
(0.0271361 0.111094 0.129855)
(0.0219197 0.0693189 0.126558)
(0.0165962 0.0395954 0.120773)
(0.0133933 0.223717 0.103278)
(0.00832732 0.55981 0.0848829)
(0.00359527 0.670816 0.0734647)
(0.00236112 0.610753 0.052383)
(-0.0049439 -0.371675 -0.0132878)
(-0.00515041 -0.554439 -0.016012)
(-0.000239725 -0.60971 -0.0145495)
(0.00622335 -0.630246 -0.0136339)
(0.0137279 -0.63734 -0.0128677)
(0.0217115 -0.635456 -0.0123127)
(0.029638 -0.625565 -0.0120885)
(0.037207 -0.607561 -0.0123175)
(0.0441519 -0.580795 -0.0132018)
(0.0501137 -0.545179 -0.0150536)
(0.0546896 -0.502798 -0.0181836)
(0.0576282 -0.458016 -0.0227584)
(0.0589097 -0.41554 -0.0286684)
(0.0587187 -0.378393 -0.0353508)
(0.0574208 -0.346769 -0.0418553)
(0.0554959 -0.318059 -0.0472898)
(0.0534684 -0.288497 -0.0514992)
(0.0516666 -0.256628 -0.0553173)
(0.0498592 -0.225348 -0.0594073)
(0.0475334 -0.198722 -0.0633447)
(0.044552 -0.178144 -0.0662949)
(0.0412778 -0.162007 -0.06767)
(0.0380366 -0.146447 -0.0665774)
(0.0350233 -0.123081 -0.0580825)
(0.0358229 -0.0646768 -0.0177842)
(0.0399041 0.0320338 0.0542925)
(0.0395863 0.102098 0.105772)
(0.0349479 0.119311 0.124296)
(0.0285995 0.0993432 0.125293)
(0.0223058 0.0573164 0.121557)
(0.0157304 0.0422519 0.114701)
(0.0132192 0.272483 0.095079)
(0.00444299 0.596528 0.0778819)
(0.00107607 0.684797 0.0671933)
(0.00113625 0.619266 0.0478945)
(0.000636308 -0.3637 -0.0184108)
(0.00806641 -0.580886 -0.023586)
(0.014484 -0.64302 -0.0252809)
(0.0205308 -0.661374 -0.0270119)
(0.0266772 -0.66433 -0.0292399)
(0.0329604 -0.658001 -0.032105)
(0.0390049 -0.643974 -0.0355877)
(0.044642 -0.622471 -0.0396278)
(0.0497012 -0.592957 -0.044097)
(0.0538919 -0.555349 -0.0485228)
(0.0569368 -0.511745 -0.0517784)
(0.058878 -0.465817 -0.0526129)
(0.0600799 -0.420312 -0.0508694)
(0.0608258 -0.376505 -0.0477684)
(0.0610641 -0.335314 -0.0450887)
(0.0605729 -0.297629 -0.0441983)
(0.0592592 -0.263507 -0.0455355)
(0.0572632 -0.231736 -0.0487778)
(0.0548347 -0.201083 -0.0532736)
(0.0520796 -0.172205 -0.0581719)
(0.0488754 -0.147325 -0.062511)
(0.0452083 -0.127884 -0.0655651)
(0.0415683 -0.113182 -0.0670187)
(0.0381348 -0.0997374 -0.0662348)
(0.0344971 -0.0776036 -0.0564472)
(0.0358326 -0.00744004 -0.000808719)
(0.0381546 0.080918 0.0730546)
(0.0346009 0.123083 0.112829)
(0.0265798 0.116441 0.122089)
(0.0164838 0.0767214 0.118963)
(0.00699391 0.0483302 0.112331)
(0.00851366 0.262895 0.0975254)
(0.0108461 0.611498 0.074135)
(0.00658376 0.684463 0.0621214)
(0.00376085 0.610274 0.0442477)
(0.00316054 -0.403444 -0.0194548)
(0.00805396 -0.607535 -0.0172492)
(0.0125081 -0.667563 -0.0149404)
(0.0165814 -0.685657 -0.0141911)
(0.0210006 -0.688262 -0.0145175)
(0.025816 -0.681018 -0.0158707)
(0.030728 -0.664771 -0.0184902)
(0.0355247 -0.638533 -0.0228866)
(0.0399661 -0.600235 -0.0299191)
(0.0436332 -0.549494 -0.0403676)
(0.0459961 -0.492008 -0.0533654)
(0.0468248 -0.437649 -0.0655752)
(0.0465238 -0.39217 -0.0736009)
(0.0458382 -0.35426 -0.0763262)
(0.0453536 -0.319514 -0.0744798)
(0.0452728 -0.284421 -0.0698027)
(0.045383 -0.2482 -0.0647834)
(0.0452925 -0.21256 -0.0617127)
(0.0448042 -0.179653 -0.061466)
(0.0439983 -0.150578 -0.0634365)
(0.0430064 -0.125734 -0.0663594)
(0.041835 -0.105309 -0.069081)
(0.0404633 -0.0889616 -0.0709384)
(0.039073 -0.0753449 -0.0716414)
(0.0375139 -0.0606007 -0.0701022)
(0.0359154 -0.0284596 -0.0515584)
(0.0382065 0.0440862 0.0125511)
(0.0389052 0.105118 0.0732395)
(0.0355992 0.12382 0.10189)
(0.030082 0.102382 0.108544)
(0.025999 0.0433785 0.105416)
(0.0133534 0.148774 0.0972995)
(0.0073132 0.581767 0.0769416)
(0.00452582 0.708995 0.0619811)
(0.0031784 0.642045 0.0424053)
(0.00145342 -0.422209 -0.012894)
(0.00449632 -0.630152 -0.0150827)
(0.00859909 -0.689143 -0.0169091)
(0.0123322 -0.707507 -0.0181109)
(0.0161611 -0.710479 -0.0190405)
(0.0200689 -0.703131 -0.0198765)
(0.0237681 -0.686021 -0.0207428)
(0.0270559 -0.657792 -0.0218271)
(0.0298241 -0.615799 -0.0235717)
(0.0321076 -0.558585 -0.0271693)
(0.0340437 -0.490459 -0.0343491)
(0.0355495 -0.422321 -0.0451461)
(0.0363259 -0.364878 -0.0568274)
(0.0363128 -0.321306 -0.066406)
(0.0357847 -0.287805 -0.0726501)
(0.0351263 -0.258543 -0.0755215)
(0.0347009 -0.228872 -0.075462)
(0.0346974 -0.197214 -0.0737347)
(0.0349977 -0.165624 -0.0721763)
(0.0353849 -0.137221 -0.0718057)
(0.0357408 -0.113531 -0.0724422)
(0.0359848 -0.0942813 -0.0734469)
(0.0360147 -0.078208 -0.0742605)
(0.0357504 -0.0633733 -0.0743455)
(0.0351085 -0.046249 -0.0723166)
(0.0333923 -0.0174428 -0.0605745)
(0.0322548 0.0436685 -0.00897321)
(0.0307836 0.100812 0.0574383)
(0.0253624 0.109328 0.0918606)
(0.0190933 0.0786476 0.0967432)
(0.010793 0.0885713 0.0895273)
(0.0109811 0.362297 0.0746356)
(-0.000587286 0.626905 0.0676058)
(-0.00171517 0.696775 0.0587915)
(-0.00122125 0.627864 0.0401078)
(0.000477437 -0.432362 -0.0197579)
(0.00443381 -0.643112 -0.0304313)
(0.00919002 -0.701607 -0.033421)
(0.0135562 -0.718845 -0.0350483)
(0.0177991 -0.720002 -0.0366599)
(0.0217697 -0.709704 -0.0387279)
(0.0250737 -0.687926 -0.0414825)
(0.0273889 -0.653291 -0.0447759)
(0.0285093 -0.605187 -0.0478066)
(0.0285903 -0.546115 -0.0495037)
(0.0282449 -0.481417 -0.0498169)