/*--------------------------------*- C++ -*----------------------------------*\
| =========                 |                                                 |
| \\      /  F ield         | OpenFOAM: The Open Source CFD Toolbox           |
|  \\    /   O peration     | Version:  v2006                                 |
|   \\  /    A nd           | Website:  www.openfoam.com                      |
|    \\/     M anipulation  |                                                 |
\*---------------------------------------------------------------------------*/
FoamFile
{
    version     2.0;
    format      ascii;
    class       volScalarField;
    location    "78";
    object      nut;
}
// * * * * * * * * * * * * * * * * * * * * * * * * * * * * * * * * * * * * * //

dimensions      [0 2 -1 0 0 0 0];


internalField   nonuniform List<scalar> 
78750
(
2.24782e-09
4.07626e-07
7.55985e-07
1.09814e-06
1.42869e-06
1.74275e-06
2.03567e-06
2.30367e-06
2.5443e-06
2.75637e-06
2.93962e-06
3.09435e-06
3.22114e-06
3.32058e-06
3.39306e-06
3.43943e-06
3.46042e-06
3.45668e-06
3.42884e-06
3.37752e-06
3.30342e-06
3.2074e-06
3.09056e-06
2.95179e-06
2.79256e-06
2.61376e-06
2.41624e-06
2.20046e-06
1.96684e-06
1.71469e-06
1.44096e-06
1.14071e-06
8.15147e-07
4.85684e-07
7.34038e-09
3.21e-09
2.72537e-06
5.20397e-06
7.09215e-06
8.7478e-06
1.04005e-05
1.20688e-05
1.36993e-05
1.52469e-05
1.6694e-05
1.8041e-05
1.93044e-05
2.0515e-05
2.12868e-05
2.14294e-05
2.14356e-05
2.13139e-05
2.10721e-05
2.07173e-05
2.0256e-05
1.96941e-05
1.90368e-05
1.82871e-05
1.74442e-05
1.65117e-05
1.54931e-05
1.41327e-05
1.22232e-05
1.02762e-05
8.19665e-06
5.93466e-06
3.97116e-06
3.00922e-06
1.82451e-06
2.29787e-08
4.93223e-09
1.96159e-06
3.99234e-06
6.12863e-06
8.44747e-06
1.09634e-05
1.35443e-05
1.59936e-05
1.81606e-05
1.99725e-05
2.14131e-05
2.24727e-05
2.29673e-05
2.30524e-05
2.2998e-05
2.28187e-05
2.22336e-05
2.12404e-05
2.00708e-05
1.88342e-05
1.76253e-05
1.65159e-05
1.55427e-05
1.47278e-05
1.40619e-05
1.34674e-05
1.28005e-05
1.18677e-05
1.0458e-05
8.45831e-06
6.20253e-06
4.63627e-06
4.64386e-06
1.89039e-06
3.69312e-08
8.59159e-09
1.82524e-06
3.997e-06
6.87893e-06
1.05527e-05
1.46594e-05
1.8471e-05
2.14835e-05
2.36179e-05
2.49794e-05
2.56666e-05
2.57547e-05
2.53247e-05
2.44696e-05
2.33029e-05
2.19481e-05
2.05092e-05
1.90577e-05
1.76413e-05
1.62935e-05
1.50435e-05
1.39313e-05
1.30032e-05
1.22914e-05
1.18004e-05
1.14797e-05
1.11787e-05
1.06237e-05
9.50439e-06
7.76882e-06
5.96411e-06
5.07397e-06
6.12246e-06
1.8057e-06
4.88151e-08
1.24499e-08
1.83138e-06
4.24351e-06
7.91344e-06
1.30188e-05
1.85558e-05
2.30409e-05
2.59972e-05
2.67415e-05
2.72053e-05
2.74227e-05
2.65366e-05
2.492e-05
2.30629e-05
2.11843e-05
1.94186e-05
1.78261e-05
1.64115e-05
1.51495e-05
1.40081e-05
1.29682e-05
1.20382e-05
1.12519e-05
1.06454e-05
1.02343e-05
9.98311e-06
9.75555e-06
9.29159e-06
8.33314e-06
6.94696e-06
5.71308e-06
5.53644e-06
7.11909e-06
1.74096e-06
5.75682e-08
1.68622e-08
1.84825e-06
4.43241e-06
8.69804e-06
1.49182e-05
2.13764e-05
2.59408e-05
2.82748e-05
2.89572e-05
2.86826e-05
2.72348e-05
2.52029e-05
2.29517e-05
2.0761e-05
1.88004e-05
1.71269e-05
1.57195e-05
1.45259e-05
1.34885e-05
1.25577e-05
1.17062e-05
1.09345e-05
1.02607e-05
9.70455e-06
9.27567e-06
8.94705e-06
8.61357e-06
8.08609e-06
7.21773e-06
6.1495e-06
5.39777e-06
5.81157e-06
7.46563e-06
1.7207e-06
6.45923e-08
2.06197e-08
1.89251e-06
4.63882e-06
9.38346e-06
1.64358e-05
2.34362e-05
2.79119e-05
2.98782e-05
3.00112e-05
2.86987e-05
2.6458e-05
2.38049e-05
2.11747e-05
1.8839e-05
1.68919e-05
1.53153e-05
1.40477e-05
1.30153e-05
1.21501e-05
1.13997e-05
1.07364e-05
1.01556e-05
9.64616e-06
9.19066e-06
8.77493e-06
8.36832e-06
7.89693e-06
7.25899e-06
6.43023e-06
5.60204e-06
5.22184e-06
6.11459e-06
7.35478e-06
1.69825e-06
7.08947e-08
2.44131e-08
1.92346e-06
4.74921e-06
9.76185e-06
1.73361e-05
2.46623e-05
2.89908e-05
3.05636e-05
3.0115e-05
2.82394e-05
2.55447e-05
2.26137e-05
1.98763e-05
1.75434e-05
1.56507e-05
1.41456e-05
1.29512e-05
1.19921e-05
1.12063e-05
1.0552e-05
1.00105e-05
9.57062e-06
9.19242e-06
8.82324e-06
8.41812e-06
7.93856e-06
7.34507e-06
6.61755e-06
5.82053e-06
5.1631e-06
5.04045e-06
6.27235e-06
7.13202e-06
1.68757e-06
7.70114e-08
2.74911e-08
1.94998e-06
4.83334e-06
1.00284e-05
1.79388e-05
2.5431e-05
2.9609e-05
3.08551e-05
2.99912e-05
2.77063e-05
2.47067e-05
2.16199e-05
1.88492e-05
1.65486e-05
1.47086e-05
1.32557e-05
1.21085e-05
1.11963e-05
1.04649e-05
9.88508e-06
9.45341e-06
9.15179e-06
8.91094e-06
8.64271e-06
8.26706e-06
7.73253e-06
7.03282e-06
6.22349e-06
5.43755e-06
4.89191e-06
4.95081e-06
6.43868e-06
6.83409e-06
1.67564e-06
8.32702e-08
3.09424e-08
1.97471e-06
4.89592e-06
1.02214e-05
1.83772e-05
2.59624e-05
2.99886e-05
3.09719e-05
2.9815e-05
2.72768e-05
2.41151e-05
2.09613e-05
1.81856e-05
1.59039e-05
1.40837e-05
1.26423e-05
1.14982e-05
1.05875e-05
9.86535e-06
9.31411e-06
8.94403e-06
8.73383e-06
8.59829e-06
8.42313e-06
8.09522e-06
7.54469e-06
6.78602e-06
5.93082e-06
5.15984e-06
4.6938e-06
4.88087e-06
6.55261e-06
6.56015e-06
1.66676e-06
8.9563e-08
3.39404e-08
1.99403e-06
4.94233e-06
1.03575e-05
1.86745e-05
2.63065e-05
3.02064e-05
3.09778e-05
2.95851e-05
2.68515e-05
2.35792e-05
2.03973e-05
1.7641e-05
1.53916e-05
1.35974e-05
1.21705e-05
1.10302e-05
1.01159e-05
9.39284e-06
8.85696e-06
8.53146e-06
8.39006e-06
8.33711e-06
8.24003e-06
7.95969e-06
7.40996e-06
6.61952e-06
5.73956e-06
4.98399e-06
4.57771e-06
4.86476e-06
6.68622e-06
6.29534e-06
1.65835e-06
9.57766e-08
3.73898e-08
2.01528e-06
4.99397e-06
1.05114e-05
1.89947e-05
2.66356e-05
3.03829e-05
3.09585e-05
2.93812e-05
2.65164e-05
2.31833e-05
1.99948e-05
1.72559e-05
1.50247e-05
1.32394e-05
1.18103e-05
1.06594e-05
9.73091e-06
8.99425e-06
8.4554e-06
8.14953e-06
8.0479e-06
8.05034e-06
8.01375e-06
7.78136e-06
7.25336e-06
6.46448e-06
5.58904e-06
4.85929e-06
4.50465e-06
4.87458e-06
6.81964e-06
6.06155e-06
1.65186e-06
1.01779e-07
4.06009e-08
2.03422e-06
5.04017e-06
1.06415e-05
1.9249e-05
2.68846e-05
3.05029e-05
3.09119e-05
2.91779e-05
2.62083e-05
2.28377e-05
1.96601e-05
1.69495e-05
1.47424e-05
1.29684e-05
1.15376e-05
1.03749e-05
9.42926e-06
8.67586e-06
8.12876e-06
7.83244e-06
7.75503e-06
7.79319e-06
7.79825e-06
7.60367e-06
7.10188e-06
6.3309e-06
5.47673e-06
4.78e-06
4.47423e-06
4.92044e-06
6.9766e-06
5.85114e-06
1.64694e-06
1.075e-07
4.4131e-08
2.05465e-06
5.09273e-06
1.07951e-05
1.95438e-05
2.71516e-05
3.06189e-05
3.08662e-05
2.90024e-05
2.59619e-05
2.25782e-05
1.94203e-05
1.67354e-05
1.45448e-05
1.27736e-05
1.13332e-05
1.01523e-05
9.18374e-06
8.40759e-06
7.84421e-06
7.5452e-06
7.47673e-06
7.53466e-06
7.56809e-06
7.40561e-06
6.93577e-06
6.19753e-06
5.38015e-06
4.72549e-06
4.46984e-06
4.9896e-06
7.14615e-06
5.6707e-06
1.64423e-06
1.12904e-07
4.75449e-08
2.07452e-06
5.14451e-06
1.09396e-05
1.98062e-05
2.73796e-05
3.07134e-05
3.08204e-05
2.88483e-05
2.57563e-05
2.23746e-05
1.92458e-05
1.65916e-05
1.44192e-05
1.26506e-05
1.11989e-05
9.99643e-06
9.00074e-06
8.1967e-06
7.61053e-06
7.30051e-06
7.23112e-06
7.2967e-06
7.34681e-06
7.20908e-06
6.77158e-06
6.07326e-06
5.30124e-06
4.6939e-06
4.49006e-06
5.08396e-06
7.33295e-06
5.51584e-06
1.64356e-06
1.17999e-07
5.11352e-08
2.09505e-06
5.19995e-06
1.10986e-05
2.00943e-05
2.76221e-05
3.08141e-05
3.07881e-05
2.87261e-05
2.56025e-05
2.22351e-05
1.91392e-05
1.65138e-05
1.43562e-05
1.25866e-05
1.11202e-05
9.89278e-06
8.86593e-06
8.02917e-06
7.41319e-06
7.08246e-06
7.00263e-06
7.06713e-06
7.12552e-06
7.00765e-06
6.60338e-06
5.95063e-06
5.2307e-06
4.67556e-06
4.52636e-06
5.19624e-06
7.5294e-06
5.38719e-06
1.64508e-06
1.22794e-07
5.4672e-08
2.11565e-06
5.25616e-06
1.12554e-05
2.03675e-05
2.78462e-05
3.09092e-05
3.07674e-05
2.8633e-05
2.54925e-05
2.2149e-05
1.90908e-05
1.64965e-05
1.43546e-05
1.25839e-05
1.11014e-05
9.84619e-06
8.78395e-06
7.90912e-06
7.25614e-06
6.89525e-06
6.79544e-06
6.85028e-06
6.91078e-06
6.80956e-06
6.43902e-06
5.83497e-06
5.17063e-06
4.67024e-06
4.5777e-06
5.32581e-06
7.73473e-06
5.282e-06
1.64873e-06
1.27327e-07
5.82938e-08
2.13649e-06
5.31457e-06
1.14214e-05
2.06569e-05
2.80818e-05
3.10156e-05
3.07658e-05
2.85712e-05
2.54241e-05
2.21097e-05
1.90902e-05
1.65268e-05
1.44005e-05
1.26291e-05
1.11308e-05
9.84709e-06
8.74753e-06
7.83064e-06
7.13461e-06
6.73438e-06
6.60526e-06
6.64196e-06
6.69817e-06
6.61063e-06
6.27422e-06
5.72127e-06
5.1153e-06
4.67212e-06
4.63862e-06
5.46751e-06
7.94368e-06
5.19777e-06
1.65427e-06
1.3161e-07
6.1894e-08
2.15748e-06
5.37414e-06
1.1589e-05
2.09418e-05
2.83112e-05
3.11255e-05
3.07811e-05
2.85392e-05
2.53946e-05
2.21142e-05
1.91357e-05
1.66043e-05
1.44949e-05
1.27238e-05
1.121e-05
9.89717e-06
8.75792e-06
7.79463e-06
7.04926e-06
6.60059e-06
6.43318e-06
6.44391e-06
6.49033e-06
6.41416e-06
6.1124e-06
5.61229e-06
5.06616e-06
4.68117e-06
4.7083e-06
5.62021e-06
8.15498e-06
5.13231e-06
1.66163e-06
1.3568e-07
6.55293e-08
2.17846e-06
5.43527e-06
1.17642e-05
2.12404e-05
2.85524e-05
3.12493e-05
3.08161e-05
2.85329e-05
2.53947e-05
2.21494e-05
1.92124e-05
1.67146e-05
1.46248e-05
1.28575e-05
1.13313e-05
9.99128e-06
8.81231e-06
7.80004e-06
6.99998e-06
6.49462e-06
6.28027e-06
6.25704e-06
6.28735e-06
6.21891e-06
5.95079e-06
5.50393e-06
5.01866e-06
4.69345e-06
4.78298e-06
5.7801e-06
8.36552e-06
5.08305e-06
1.67055e-06
1.39547e-07
6.91582e-08
2.1994e-06
5.49736e-06
1.1943e-05
2.15421e-05
2.87968e-05
3.13837e-05
3.08705e-05
2.8553e-05
2.54247e-05
2.22159e-05
1.93215e-05
1.68588e-05
1.47908e-05
1.30298e-05
1.14937e-05
1.01277e-05
8.90847e-06
7.84453e-06
6.98472e-06
6.41509e-06
6.14605e-06
6.08186e-06
6.09071e-06
6.02696e-06
5.79149e-06
5.3979e-06
4.97367e-06
4.70873e-06
4.86227e-06
5.94644e-06
8.57433e-06
5.04775e-06
1.68083e-06
1.4324e-07
7.27954e-08
2.22e-06
5.56017e-06
1.21283e-05
2.18579e-05
2.90575e-05
3.15366e-05
3.0944e-05
2.85912e-05
2.54716e-05
2.22992e-05
1.94489e-05
1.7025e-05
1.49838e-05
1.32346e-05
1.16937e-05
1.03057e-05
9.0476e-06
7.93049e-06
7.00647e-06
6.36507e-06
6.03351e-06
5.92096e-06
5.90201e-06
5.83836e-06
5.6329e-06
5.29139e-06
4.92785e-06
4.72353e-06
4.94229e-06
6.11517e-06
8.77835e-06
5.02373e-06
1.69217e-06
1.46765e-07
7.64307e-08
2.24023e-06
5.62299e-06
1.23163e-05
2.21798e-05
2.93267e-05
3.17032e-05
3.1035e-05
2.86463e-05
2.55351e-05
2.23998e-05
1.95954e-05
1.72127e-05
1.52018e-05
1.34686e-05
1.19273e-05
1.05208e-05
9.22573e-06
8.05467e-06
7.06284e-06
6.34343e-06
5.94263e-06
5.7754e-06
5.72323e-06
5.65553e-06
5.4773e-06
5.1862e-06
4.88255e-06
4.73887e-06
5.02376e-06
6.28725e-06
8.98208e-06
5.01057e-06
1.70463e-06
1.50136e-07
8.00557e-08
2.2599e-06
5.68517e-06
1.25046e-05
2.2499e-05
2.95803e-05
3.1855e-05
3.112e-05
2.87011e-05
2.56019e-05
2.25067e-05
1.97514e-05
1.74145e-05
1.54395e-05
1.37289e-05
1.21939e-05
1.07745e-05
9.4459e-06
8.22118e-06
7.15847e-06
6.35509e-06
5.87779e-06
5.64875e-06
5.55681e-06
5.47944e-06
5.32406e-06
5.08039e-06
4.83505e-06
4.75169e-06
5.1038e-06
6.46035e-06
9.18407e-06
5.00606e-06
1.71759e-06
1.53349e-07
8.36773e-08
2.27928e-06
5.74732e-06
1.26931e-05
2.28114e-05
2.98246e-05
3.20002e-05
3.12025e-05
2.87648e-05
2.56778e-05
2.26212e-05
1.99156e-05
1.76268e-05
1.56917e-05
1.40089e-05
1.24862e-05
1.10598e-05
9.70226e-06
8.42595e-06
7.2913e-06
6.40009e-06
5.84e-06
5.543e-06
5.40543e-06
5.313e-06
5.17586e-06
4.97619e-06
4.78709e-06
4.76333e-06
5.18302e-06
6.634e-06
9.3846e-06
5.01194e-06
1.73166e-06
1.56428e-07
8.72795e-08
2.2981e-06
5.80933e-06
1.28835e-05
2.31153e-05
3.00548e-05
3.21307e-05
3.12707e-05
2.88164e-05
2.57457e-05
2.27325e-05
2.00817e-05
1.78463e-05
1.5957e-05
1.43087e-05
1.28055e-05
1.13792e-05
9.99817e-06
8.67312e-06
7.46614e-06
6.48387e-06
5.83392e-06
5.46173e-06
5.27154e-06
5.15744e-06
5.0327e-06
4.87254e-06
4.73696e-06
4.77194e-06
5.26089e-06
6.81164e-06
9.58379e-06
5.02599e-06
1.74668e-06
1.59377e-07
9.08656e-08
2.31612e-06
5.86996e-06
1.30731e-05
2.34104e-05
3.02726e-05
3.225e-05
3.133e-05
2.88624e-05
2.58121e-05
2.28437e-05
2.02479e-05
1.80676e-05
1.62277e-05
1.46194e-05
1.31426e-05
1.17239e-05
1.03266e-05
8.958e-06
7.68109e-06
6.60748e-06
5.86203e-06
5.40823e-06
5.1587e-06
5.01621e-06
4.89759e-06
4.77191e-06
4.68671e-06
4.77939e-06
5.33887e-06
6.99245e-06
9.78221e-06
5.04661e-06
1.76248e-06
1.62207e-07
9.44208e-08
2.33335e-06
5.92848e-06
1.32576e-05
2.36943e-05
3.0475e-05
3.23537e-05
3.13739e-05
2.88942e-05
2.58726e-05
2.29497e-05
2.04103e-05
1.82892e-05
1.65045e-05
1.49429e-05
1.34998e-05
1.20965e-05
1.069e-05
9.28337e-06
7.93933e-06
6.77436e-06
5.92767e-06
5.38545e-06
5.06944e-06
4.89102e-06
4.77121e-06
4.67392e-06
4.63509e-06
4.78373e-06
5.41408e-06
7.17213e-06
9.9775e-06
5.07232e-06
1.7788e-06
1.64922e-07
9.79552e-08
2.35009e-06
5.98605e-06
1.34404e-05
2.39707e-05
3.06653e-05
3.24443e-05
3.14039e-05
2.89113e-05
2.59177e-05
2.30419e-05
2.05622e-05
1.85042e-05
1.67792e-05
1.52699e-05
1.38675e-05
1.24877e-05
1.10806e-05
9.64333e-06
8.23709e-06
6.98259e-06
6.03132e-06
5.39558e-06
5.00684e-06
4.78531e-06
4.65682e-06
4.58146e-06
4.58459e-06
4.78712e-06
5.48827e-06
7.35186e-06
1.01703e-05
5.1023e-06
1.79557e-06
1.67535e-07
1.01459e-07
2.36613e-06
6.04179e-06
1.36187e-05
2.4236e-05
3.08403e-05
3.25189e-05
3.14179e-05
2.8913e-05
2.59493e-05
2.31237e-05
2.07068e-05
1.87154e-05
1.70544e-05
1.56027e-05
1.42476e-05
1.28988e-05
1.14992e-05
1.00385e-05
8.5749e-06
7.23254e-06
6.17395e-06
5.44009e-06
4.97264e-06
4.70068e-06
4.55551e-06
4.49471e-06
4.53444e-06
4.78794e-06
5.55905e-06
7.52839e-06
1.03594e-05
5.13591e-06
1.81267e-06
1.70056e-07
1.04938e-07
2.38182e-06
6.0968e-06
1.37951e-05
2.4493e-05
3.1002e-05
3.2578e-05
3.14144e-05
2.88958e-05
2.59616e-05
2.31875e-05
2.08358e-05
1.89139e-05
1.73208e-05
1.59318e-05
1.46304e-05
1.33207e-05
1.19375e-05
1.04621e-05
8.94792e-06
7.52124e-06
6.35497e-06
5.52005e-06
4.96906e-06
4.64007e-06
4.47045e-06
4.4167e-06
4.48722e-06
4.7881e-06
5.62746e-06
7.7027e-06
1.05451e-05
5.17237e-06
1.83e-06
1.72496e-07
1.08397e-07
2.39715e-06
6.15081e-06
1.39682e-05
2.47395e-05
3.11484e-05
3.26201e-05
3.13928e-05
2.88609e-05
2.59578e-05
2.32381e-05
2.09542e-05
1.91044e-05
1.75823e-05
1.626e-05
1.50176e-05
1.37537e-05
1.23948e-05
1.09127e-05
9.35477e-06
7.84778e-06
6.57433e-06
5.6361e-06
4.99719e-06
4.60483e-06
4.40292e-06
4.3482e-06
4.44295e-06
4.78718e-06
5.69363e-06
7.87237e-06
1.0727e-05
5.21149e-06
1.84751e-06
1.74867e-07
1.11836e-07
2.41233e-06
6.20463e-06
1.41384e-05
2.49757e-05
3.12792e-05
3.26438e-05
3.13504e-05
2.88034e-05
2.59315e-05
2.32687e-05
2.10541e-05
1.92782e-05
1.78298e-05
1.65784e-05
1.54005e-05
1.41892e-05
1.28627e-05
1.13829e-05
9.78921e-06
8.2078e-06
6.83013e-06
5.78821e-06
5.0584e-06
4.59732e-06
4.35581e-06
4.2922e-06
4.40443e-06
4.78773e-06
5.75953e-06
8.03923e-06
1.09056e-05
5.25252e-06
1.8651e-06
1.77174e-07
1.15258e-07
2.42743e-06
6.25912e-06
1.43053e-05
2.52009e-05
3.13934e-05
3.26492e-05
3.12894e-05
2.87278e-05
2.58883e-05
2.32869e-05
2.11423e-05
1.94409e-05
1.80685e-05
1.68909e-05
1.57815e-05
1.46278e-05
1.334e-05
1.18699e-05
1.02481e-05
8.59854e-06
7.12056e-06
5.97556e-06
5.1528e-06
4.61836e-06
4.33038e-06
4.24996e-06
4.37246e-06
4.7896e-06
5.82344e-06
8.2016e-06
1.10812e-05
5.29546e-06
1.88274e-06
1.79429e-07
1.18619e-07
2.44142e-06
6.31082e-06
1.44651e-05
2.54131e-05
3.14908e-05
3.26331e-05
3.12032e-05
2.86259e-05
2.58199e-05
2.32809e-05
2.12082e-05
1.9584e-05
1.82904e-05
1.71902e-05
1.61532e-05
1.50622e-05
1.38195e-05
1.23663e-05
1.07242e-05
9.01376e-06
7.44143e-06
6.19591e-06
5.27995e-06
4.66907e-06
4.32897e-06
4.22452e-06
4.3502e-06
4.79556e-06
5.88761e-06
8.36171e-06
1.12544e-05
5.33971e-06
1.90034e-06
1.81629e-07
1.21979e-07
2.45493e-06
6.36194e-06
1.4626e-05
2.56207e-05
3.15753e-05
3.26027e-05
3.11037e-05
2.85114e-05
2.57364e-05
2.32575e-05
2.12577e-05
1.97133e-05
1.85007e-05
1.74796e-05
1.65176e-05
1.54928e-05
1.42998e-05
1.28696e-05
1.12139e-05
9.44942e-06
7.78895e-06
6.44608e-06
5.4377e-06
4.74851e-06
4.35169e-06
4.21671e-06
4.33864e-06
4.80623e-06
5.95193e-06
8.5189e-06
1.14258e-05
5.38537e-06
1.91789e-06
1.83783e-07
1.25301e-07
2.4676e-06
6.41088e-06
1.47815e-05
2.58146e-05
3.16417e-05
3.2551e-05
3.09797e-05
2.83712e-05
2.56296e-05
2.32139e-05
2.12875e-05
1.98218e-05
1.86923e-05
1.77535e-05
1.68691e-05
1.59139e-05
1.47751e-05
1.33734e-05
1.17107e-05
9.89942e-06
8.15811e-06
6.72231e-06
5.62372e-06
4.85591e-06
4.39937e-06
4.22857e-06
4.34048e-06
4.82454e-06
6.01943e-06
8.67617e-06
1.15961e-05
5.43197e-06
1.93536e-06
1.85885e-07
1.28621e-07
2.47995e-06
6.45952e-06
1.49372e-05
2.60015e-05
3.16942e-05
3.24837e-05
3.08407e-05
2.82171e-05
2.55089e-05
2.31561e-05
2.13046e-05
1.9919e-05
1.88701e-05
1.80136e-05
1.72094e-05
1.63261e-05
1.52443e-05
1.3875e-05
1.22106e-05
1.0359e-05
8.54393e-06
7.01997e-06
5.83418e-06
4.98864e-06
4.47075e-06
4.26009e-06
4.35645e-06
4.85138e-06
6.09075e-06
8.83381e-06
1.17657e-05
5.47946e-06
1.95271e-06
1.87934e-07
1.31903e-07
2.49146e-06
6.50606e-06
1.50878e-05
2.61753e-05
3.17287e-05
3.23957e-05
3.0679e-05
2.80398e-05
2.53658e-05
2.30771e-05
2.1302e-05
1.99985e-05
1.90331e-05
1.82585e-05
1.75349e-05
1.67258e-05
1.57037e-05
1.43704e-05
1.2709e-05
1.0823e-05
8.94115e-06
7.33451e-06
6.06542e-06
5.14424e-06
4.56491e-06
4.31202e-06
4.38876e-06
4.88987e-06
6.16961e-06
8.99569e-06
1.19357e-05
5.52763e-06
1.96992e-06
1.89926e-07
1.35182e-07
2.50263e-06
6.55217e-06
1.52378e-05
2.63411e-05
3.17495e-05
3.22922e-05
3.0502e-05
2.78484e-05
2.52095e-05
2.29854e-05
2.1287e-05
2.00655e-05
1.91838e-05
1.8492e-05
1.78477e-05
1.71126e-05
1.61517e-05
1.48565e-05
1.32017e-05
1.12866e-05
9.34471e-06
7.66127e-06
6.31325e-06
5.31906e-06
4.67898e-06
4.38255e-06
4.43677e-06
4.9405e-06
6.25724e-06
9.16328e-06
1.21071e-05
5.5765e-06
1.987e-06
1.91857e-07
1.38422e-07
2.51311e-06
6.59664e-06
1.53837e-05
2.64946e-05
3.17533e-05
3.21694e-05
3.03044e-05
2.76363e-05
2.50333e-05
2.28748e-05
2.12546e-05
2.01165e-05
1.93195e-05
1.87115e-05
1.81476e-05
1.74858e-05
1.65866e-05
1.53315e-05
1.36856e-05
1.17458e-05
9.75007e-06
7.99635e-06
6.57466e-06
5.51102e-06
4.81178e-06
4.47144e-06
4.50125e-06
5.00494e-06
6.35622e-06
9.33948e-06
1.22798e-05
5.62585e-06
2.00394e-06
1.93717e-07
1.4165e-07
2.52328e-06
6.64068e-06
1.55288e-05
2.66404e-05
3.17443e-05
3.20319e-05
3.0092e-05
2.74107e-05
2.48447e-05
2.27523e-05
2.12107e-05
2.01558e-05
1.9443e-05
1.89182e-05
1.84344e-05
1.78456e-05
1.70062e-05
1.57919e-05
1.41575e-05
1.21965e-05
1.01527e-05
8.33537e-06
6.84572e-06
5.71693e-06
4.96102e-06
4.57732e-06
4.58158e-06
5.08332e-06
6.46739e-06
9.52578e-06
1.24544e-05
5.6757e-06
2.02075e-06
1.955e-07
1.44824e-07
2.53277e-06
6.68312e-06
1.567e-05
2.67747e-05
3.17194e-05
3.18761e-05
2.98604e-05
2.71665e-05
2.46386e-05
2.26135e-05
2.11518e-05
2.01813e-05
1.95533e-05
1.9112e-05
1.87082e-05
1.81921e-05
1.7412e-05
1.62357e-05
1.46138e-05
1.26355e-05
1.05493e-05
8.67509e-06
7.12347e-06
5.93434e-06
5.1251e-06
4.69958e-06
4.67819e-06
5.17694e-06
6.59291e-06
9.72473e-06
1.26315e-05
5.72606e-06
2.03744e-06
1.97206e-07
1.47972e-07
2.54201e-06
6.7252e-06
1.58105e-05
2.69016e-05
3.16826e-05
3.17066e-05
2.9615e-05
2.69097e-05
2.44213e-05
2.24641e-05
2.10826e-05
2.01961e-05
1.96523e-05
1.92935e-05
1.89686e-05
1.85241e-05
1.78023e-05
1.66635e-05
1.50524e-05
1.30588e-05
1.09357e-05
9.01164e-06
7.40425e-06
6.15991e-06
5.30117e-06
4.8362e-06
4.79006e-06
5.28582e-06
6.73364e-06
9.93758e-06
1.2812e-05
5.77734e-06
2.05411e-06
1.98842e-07
1.51051e-07
2.55061e-06
6.76573e-06
1.59471e-05
2.70173e-05
3.16305e-05
3.15196e-05
2.93517e-05
2.66365e-05
2.41891e-05
2.23012e-05
2.10011e-05
2.01992e-05
1.97397e-05
1.94631e-05
1.92162e-05
1.88419e-05
1.81769e-05
1.70746e-05
1.54747e-05
1.34671e-05
1.13113e-05
9.34353e-06
7.68603e-06
6.39134e-06
5.48701e-06
4.98536e-06
4.91605e-06
5.40961e-06
6.8901e-06
1.01652e-05
1.29957e-05
5.82952e-06
2.07079e-06
2.00415e-07
1.54088e-07
2.55899e-06
6.80595e-06
1.6083e-05
2.71257e-05
3.15669e-05
3.13193e-05
2.90755e-05
2.63519e-05
2.39471e-05
2.21291e-05
2.09105e-05
2.01929e-05
1.98169e-05
1.96213e-05
1.94509e-05
1.91451e-05
1.8535e-05
1.74675e-05
1.58783e-05
1.38586e-05
1.16748e-05
9.66916e-06
7.96693e-06
6.62654e-06
5.6805e-06
5.14521e-06
5.05498e-06
5.54803e-06
7.06255e-06
1.04079e-05
1.31831e-05
5.8829e-06
2.08752e-06
2.01937e-07
1.57044e-07
2.56676e-06
6.84462e-06
1.62148e-05
2.72227e-05
3.14885e-05
3.11025e-05
2.87831e-05
2.60533e-05
2.36932e-05
2.19464e-05
2.08104e-05
2.01772e-05
1.98841e-05
1.97687e-05
1.96735e-05
1.94344e-05
1.88769e-05
1.78423e-05
1.62632e-05
1.4233e-05
1.20251e-05
9.98752e-06
8.24584e-06
6.86417e-06
5.87998e-06
5.3138e-06
5.20462e-06
5.69879e-06
7.2498e-06
1.06652e-05
1.33733e-05
5.93734e-06
2.10434e-06
2.03413e-07
1.59942e-07
2.57431e-06
6.88287e-06
1.63455e-05
2.73123e-05
3.1399e-05
3.0873e-05
2.84788e-05
2.57451e-05
2.34315e-05
2.17568e-05
2.07033e-05
2.0154e-05
1.99428e-05
1.99059e-05
1.98841e-05
1.97093e-05
1.92021e-05
1.81984e-05
1.66289e-05
1.45901e-05
1.23628e-05
1.0298e-05
8.52155e-06
7.10288e-06
6.08415e-06
5.49006e-06
5.36467e-06
5.863e-06
7.45147e-06
1.0936e-05
1.35661e-05
5.99284e-06
2.12123e-06
2.04853e-07
1.62748e-07
2.58126e-06
6.91951e-06
1.64719e-05
2.73905e-05
3.12948e-05
3.06276e-05
2.81598e-05
2.54251e-05
2.31605e-05
2.15592e-05
2.0589e-05
2.01235e-05
1.99933e-05
2.00337e-05
2.00833e-05
1.99707e-05
1.95112e-05
1.85364e-05
1.69758e-05
1.49305e-05
1.26884e-05
1.06008e-05
8.79363e-06
7.34171e-06
6.29185e-06
5.67287e-06
5.53407e-06
6.03938e-06
7.66708e-06
1.12198e-05
1.37607e-05
6.04925e-06
2.13821e-06
2.06264e-07
1.65482e-07
2.58791e-06
6.95543e-06
1.65964e-05
2.74605e-05
3.11794e-05
3.03697e-05
2.783e-05
2.50971e-05
2.28838e-05
2.13569e-05
2.04701e-05
2.00875e-05
2.00371e-05
2.01529e-05
2.02717e-05
2.02185e-05
1.9804e-05
1.88559e-05
1.73038e-05
1.52544e-05
1.30026e-05
1.0896e-05
9.06187e-06
7.58019e-06
6.50242e-06
5.86141e-06
5.71181e-06
6.22663e-06
7.89564e-06
1.15154e-05
1.39574e-05
6.10669e-06
2.15526e-06
2.07656e-07
1.6812e-07
2.59398e-06
6.98972e-06
1.67165e-05
2.75192e-05
3.10495e-05
3.00965e-05
2.74867e-05
2.47594e-05
2.26001e-05
2.11491e-05
2.03463e-05
2.00466e-05
2.0075e-05
2.02647e-05
2.04506e-05
2.04542e-05
2.00819e-05
1.91582e-05
1.76141e-05
1.55628e-05
1.33059e-05
1.11838e-05
9.32568e-06
7.8172e-06
6.71447e-06
6.05427e-06
5.89655e-06
6.4235e-06
8.13611e-06
1.18216e-05
1.4155e-05
6.16484e-06
2.17242e-06
2.09034e-07
1.70678e-07
2.59971e-06
7.0231e-06
1.6834e-05
2.75691e-05
3.09079e-05
2.98107e-05
2.71334e-05
2.44151e-05
2.23125e-05
2.09384e-05
2.02198e-05
2.00023e-05
2.01082e-05
2.03698e-05
2.06202e-05
2.06776e-05
2.03445e-05
1.94431e-05
1.79067e-05
1.58559e-05
1.35986e-05
1.14646e-05
9.58562e-06
8.05311e-06
6.92787e-06
6.25095e-06
6.08755e-06
6.62917e-06
8.38763e-06
1.21374e-05
1.43538e-05
6.22386e-06
2.18959e-06
2.10402e-07
1.73141e-07
2.60488e-06
7.05493e-06
1.69474e-05
2.76079e-05
3.07518e-05
2.95097e-05
2.67677e-05
2.40627e-05
2.20198e-05
2.07244e-05
2.00907e-05
1.99552e-05
2.01378e-05
2.04698e-05
2.07827e-05
2.08911e-05
2.0594e-05
1.97122e-05
1.81829e-05
1.61345e-05
1.38808e-05
1.17383e-05
9.84126e-06
8.28716e-06
7.14168e-06
6.45023e-06
6.28347e-06
6.84228e-06
8.64881e-06
1.24612e-05
1.45522e-05
6.28312e-06
2.20688e-06
2.1176e-07
1.75525e-07
2.60972e-06
7.08587e-06
1.70582e-05
2.76376e-05
3.05835e-05
2.91962e-05
2.63927e-05
2.37052e-05
2.17248e-05
2.05091e-05
1.99605e-05
1.99064e-05
2.01643e-05
2.05649e-05
2.09378e-05
2.10944e-05
2.08303e-05
1.99658e-05
1.84431e-05
1.63993e-05
1.41533e-05
1.20055e-05
1.00933e-05
8.51997e-06
7.35629e-06
6.65205e-06
6.48405e-06
7.06241e-06
8.91912e-06
1.27922e-05
1.47504e-05
6.34298e-06
2.22445e-06
2.13112e-07
1.77817e-07
2.61405e-06
7.11543e-06
1.71652e-05
2.76563e-05
3.04009e-05
2.88681e-05
2.6007e-05
2.33417e-05
2.14271e-05
2.02927e-05
1.98296e-05
1.98566e-05
2.0189e-05
2.06569e-05
2.10876e-05
2.12895e-05
2.10552e-05
2.02056e-05
1.86886e-05
1.66511e-05
1.44164e-05
1.22665e-05
1.03418e-05
8.75136e-06
7.57129e-06
6.85606e-06
6.68851e-06
7.28853e-06
9.19723e-06
1.31289e-05
1.49472e-05
6.40288e-06
2.24205e-06
2.14449e-07
1.80034e-07
2.61807e-06
7.14424e-06
1.727e-05
2.76658e-05
3.02056e-05
2.85278e-05
2.56132e-05
2.29749e-05
2.11288e-05
2.00767e-05
1.96991e-05
1.98062e-05
2.02118e-05
2.07452e-05
2.12317e-05
2.14764e-05
2.12691e-05
2.04321e-05
1.89205e-05
1.6891e-05
1.46709e-05
1.2522e-05
1.05873e-05
8.98186e-06
7.78714e-06
7.06237e-06
6.89655e-06
7.52038e-06
9.48285e-06
1.34706e-05
1.51425e-05
6.46288e-06
2.25968e-06
2.15771e-07
1.82159e-07
2.62164e-06
7.17177e-06
1.7371e-05
2.76643e-05
2.99962e-05
2.81742e-05
2.5211e-05
2.26046e-05
2.08302e-05
1.98622e-05
1.95699e-05
1.97562e-05
2.02336e-05
2.0831e-05
2.13714e-05
2.16563e-05
2.14733e-05
2.06468e-05
1.914e-05
1.71204e-05
1.49176e-05
1.27724e-05
1.08301e-05
9.21165e-06
8.00385e-06
7.27111e-06
7.10892e-06
7.75787e-06
9.77522e-06
1.38159e-05
1.5336e-05
6.52293e-06
2.27729e-06
2.17076e-07
1.84208e-07
2.62491e-06
7.19861e-06
1.74698e-05
2.76533e-05
2.97742e-05
2.78093e-05
2.48028e-05
2.2233e-05
2.05329e-05
1.96511e-05
1.94428e-05
1.97062e-05
2.02539e-05
2.09139e-05
2.15063e-05
2.18293e-05
2.16684e-05
2.08508e-05
1.93489e-05
1.73409e-05
1.51578e-05
1.30184e-05
1.10706e-05
9.44104e-06
8.22164e-06
7.48216e-06
7.32476e-06
8.0004e-06
1.00741e-05
1.41647e-05
1.55277e-05
6.58285e-06
2.29486e-06
2.18366e-07
1.86163e-07
2.62772e-06
7.22412e-06
1.75645e-05
2.7631e-05
2.95385e-05
2.74328e-05
2.43889e-05
2.18607e-05
2.02371e-05
1.94426e-05
1.93172e-05
1.96565e-05
2.02733e-05
2.09944e-05
2.16372e-05
2.19961e-05
2.18552e-05
2.10454e-05
1.95491e-05
1.75552e-05
1.5393e-05
1.3261e-05
1.13094e-05
9.67011e-06
8.44043e-06
7.69542e-06
7.54422e-06
8.24807e-06
1.03782e-05
1.45155e-05
1.5717e-05
6.64245e-06
2.31233e-06
2.19635e-07
1.88035e-07
2.63019e-06
7.24871e-06
1.76564e-05
2.75988e-05
2.92901e-05
2.7046e-05
2.3971e-05
2.14896e-05
1.99447e-05
1.92377e-05
1.91946e-05
1.96085e-05
2.02926e-05
2.10729e-05
2.17639e-05
2.21567e-05
2.20342e-05
2.12319e-05
1.9743e-05
1.77662e-05
1.56253e-05
1.35013e-05
1.15471e-05
9.89955e-06
8.6608e-06
7.91129e-06
7.76744e-06
8.50111e-06
1.06885e-05
1.48678e-05
1.59041e-05
6.70194e-06
2.32978e-06
2.20887e-07
1.8981e-07
2.63215e-06
7.27178e-06
1.77438e-05
2.75551e-05
2.90282e-05
2.66486e-05
2.35491e-05
2.11197e-05
1.9656e-05
1.90371e-05
1.90755e-05
1.95627e-05
2.03125e-05
2.11501e-05
2.18872e-05
2.23116e-05
2.22058e-05
2.14112e-05
1.99326e-05
1.79774e-05
1.5857e-05
1.37406e-05
1.17844e-05
1.01295e-05
8.88274e-06
8.12966e-06
7.99416e-06
8.75882e-06
1.10041e-05
1.52218e-05
1.60893e-05
6.76108e-06
2.34711e-06
2.2212e-07
1.91494e-07
2.63368e-06
7.29361e-06
1.78279e-05
2.75011e-05
2.8753e-05
2.62407e-05
2.31238e-05
2.07518e-05
1.9372e-05
1.88419e-05
1.89616e-05
1.95209e-05
2.03347e-05
2.12273e-05
2.20078e-05
2.24612e-05
2.23704e-05
2.15836e-05
2.01177e-05
1.81884e-05
1.60881e-05
1.39793e-05
1.20217e-05
1.03607e-05
9.107e-06
8.35135e-06
8.22505e-06
9.0216e-06
1.13252e-05
1.55776e-05
1.62731e-05
6.82028e-06
2.36442e-06
2.2335e-07
1.93084e-07
2.63469e-06
7.3139e-06
1.79077e-05
2.74356e-05
2.84631e-05
2.58213e-05
2.26942e-05
2.03855e-05
1.90926e-05
1.86527e-05
1.88538e-05
1.94847e-05
2.03611e-05
2.13065e-05
2.21276e-05
2.26071e-05
2.2529e-05
2.17493e-05
2.02981e-05
1.83977e-05
1.63176e-05
1.42168e-05
1.22588e-05
1.05929e-05
9.33349e-06
8.57632e-06
8.46017e-06
9.28954e-06
1.16513e-05
1.59341e-05
1.64562e-05
6.87971e-06
2.38175e-06
2.24582e-07
1.9459e-07
2.63527e-06
7.333e-06
1.79845e-05
2.7359e-05
2.81578e-05
2.53895e-05
2.226e-05
2.00206e-05
1.8818e-05
1.84702e-05
1.87536e-05
1.94559e-05
2.03939e-05
2.13901e-05
2.22491e-05
2.27517e-05
2.26836e-05
2.19098e-05
2.0474e-05
1.86044e-05
1.65448e-05
1.44527e-05
1.24955e-05
1.08261e-05
9.56245e-06
8.80496e-06
8.70009e-06
9.56339e-06
1.19833e-05
1.6292e-05
1.66385e-05
6.93948e-06
2.39914e-06
2.25818e-07
1.96019e-07
2.63543e-06
7.35094e-06
1.80582e-05
2.72704e-05
2.78354e-05
2.4944e-05
2.18201e-05
1.96565e-05
1.85479e-05
1.82944e-05
1.86617e-05
1.94363e-05
2.04354e-05
2.1481e-05
2.23752e-05
2.28976e-05
2.28366e-05
2.20672e-05
2.06468e-05
1.88084e-05
1.67691e-05
1.46863e-05
1.27311e-05
1.10596e-05
9.79297e-06
9.03653e-06
8.94431e-06
9.84282e-06
1.23208e-05
1.66507e-05
1.68201e-05
6.99956e-06
2.4166e-06
2.27061e-07
1.97384e-07
2.63527e-06
7.36819e-06
1.81301e-05
2.71696e-05
2.74945e-05
2.44836e-05
2.1374e-05
1.92925e-05
1.82817e-05
1.81254e-05
1.85785e-05
1.94268e-05
2.04876e-05
2.15816e-05
2.25089e-05
2.3048e-05
2.29912e-05
2.22245e-05
2.0819e-05
1.9011e-05
1.69915e-05
1.4918e-05
1.29656e-05
1.12932e-05
1.00251e-05
9.27111e-06
9.193e-06
1.01283e-05
1.26643e-05
1.70109e-05
1.7001e-05
7.05996e-06
2.43415e-06
2.28311e-07
1.98695e-07
2.63483e-06
7.38486e-06
1.82001e-05
2.70555e-05
2.71337e-05
2.40079e-05
2.09216e-05
1.89287e-05
1.80196e-05
1.79629e-05
1.85041e-05
1.94279e-05
2.05515e-05
2.16937e-05
2.26523e-05
2.32052e-05
2.31499e-05
2.23842e-05
2.09933e-05
1.92136e-05
1.72122e-05
1.51476e-05
1.31984e-05
1.15261e-05
1.02578e-05
9.50797e-06
9.44614e-06
1.04192e-05
1.30135e-05
1.73722e-05
1.7181e-05
7.12054e-06
2.45177e-06
2.29568e-07
1.99962e-07
2.63419e-06
7.40133e-06
1.82689e-05
2.69272e-05
2.67516e-05
2.35164e-05
2.04629e-05
1.85649e-05
1.77611e-05
1.78066e-05
1.84381e-05
1.94397e-05
2.06279e-05
2.18189e-05
2.28077e-05
2.33724e-05
2.33163e-05
2.25507e-05
2.11743e-05
1.94194e-05
1.74332e-05
1.53763e-05
1.34302e-05
1.17587e-05
1.04915e-05
9.74774e-06
9.70466e-06
1.07158e-05
1.33683e-05
1.77346e-05
1.73601e-05
7.18132e-06
2.46951e-06
2.3083e-07
2.0119e-07
2.63334e-06
7.41753e-06
1.83363e-05
2.67833e-05
2.63478e-05
2.30099e-05
1.99989e-05
1.82019e-05
1.75072e-05
1.76564e-05
1.83798e-05
1.9461e-05
2.07158e-05
2.19568e-05
2.29756e-05
2.35503e-05
2.34918e-05
2.27261e-05
2.1365e-05
1.96297e-05
1.7655e-05
1.5604e-05
1.36608e-05
1.19908e-05
1.07261e-05
9.99032e-06
9.96803e-06
1.10184e-05
1.37288e-05
1.80981e-05
1.75382e-05
7.24221e-06
2.48733e-06
2.32099e-07
2.02385e-07
2.63232e-06
7.43368e-06
1.84024e-05
2.66231e-05
2.59216e-05
2.24891e-05
1.95303e-05
1.78399e-05
1.72592e-05
1.75126e-05
1.83284e-05
1.94915e-05
2.08154e-05
2.21081e-05
2.31572e-05
2.37408e-05
2.36786e-05
2.29125e-05
2.15669e-05
1.98463e-05
1.78791e-05
1.58318e-05
1.3891e-05
1.22228e-05
1.09616e-05
1.02353e-05
1.02357e-05
1.13267e-05
1.40947e-05
1.84623e-05
1.77151e-05
7.3032e-06
2.50527e-06
2.33371e-07
2.03547e-07