/*--------------------------------*- C++ -*----------------------------------*\
| =========                 |                                                 |
| \\      /  F ield         | OpenFOAM: The Open Source CFD Toolbox           |
|  \\    /   O peration     | Version:  v2006                                 |
|   \\  /    A nd           | Website:  www.openfoam.com                      |
|    \\/     M anipulation  |                                                 |
\*---------------------------------------------------------------------------*/
FoamFile
{
    version     2.0;
    format      ascii;
    class       volScalarField;
    location    "78";
    object      T;
}
// * * * * * * * * * * * * * * * * * * * * * * * * * * * * * * * * * * * * * //

dimensions      [0 0 0 1 0 0 0];


internalField   nonuniform List<scalar> 
78750
(
300.051
300.151
300.243
300.323
300.393
300.453
300.505
300.55
300.589
300.624
300.655
300.682
300.706
300.727
300.745
300.76
300.773
300.782
300.789
300.793
300.794
300.793
300.788
300.781
300.77
300.757
300.741
300.724
300.705
300.692
300.707
300.813
301.131
301.773
302.694
300.065
300.186
300.294
300.39
300.478
300.558
300.631
300.696
300.755
300.808
300.855
300.897
300.935
300.968
300.996
301.021
301.041
301.057
301.069
301.076
301.077
301.074
301.064
301.049
301.027
300.999
300.967
300.932
300.9
300.886
300.921
301.076
301.447
302.098
303
300.069
300.202
300.323
300.434
300.534
300.624
300.703
300.773
300.835
300.889
300.937
300.98
301.017
301.051
301.081
301.106
301.128
301.147
301.162
301.173
301.18
301.182
301.178
301.168
301.151
301.126
301.095
301.063
301.038
301.039
301.107
301.311
301.72
302.382
303.289
300.084
300.246
300.395
300.531
300.649
300.75
300.835
300.907
300.97
301.024
301.072
301.113
301.15
301.182
301.209
301.232
301.25
301.264
301.275
301.281
301.283
301.281
301.274
301.262
301.244
301.22
301.191
301.164
301.149
301.168
301.268
301.512
301.945
302.612
303.528
300.096
300.282
300.453
300.604
300.73
300.833
300.917
300.988
301.05
301.104
301.152
301.194
301.231
301.264
301.291
301.313
301.331
301.344
301.352
301.355
301.355
301.35
301.341
301.327
301.309
301.287
301.264
301.246
301.247
301.294
301.43
301.713
302.165
302.836
303.759
300.106
300.31
300.497
300.658
300.79
300.895
300.98
301.052
301.115
301.171
301.221
301.265
301.303
301.336
301.363
301.384
301.399
301.409
301.412
301.412
301.407
301.399
301.387
301.372
301.355
301.337
301.32
301.313
301.33
301.401
301.569
301.881
302.348
303.026
303.953
300.114
300.334
300.534
300.704
300.841
300.948
301.035
301.109
301.174
301.232
301.285
301.331
301.372
301.406
301.433
301.453
301.466
301.471
301.471
301.466
301.456
301.443
301.427
301.41
301.393
301.377
301.368
301.373
301.409
301.506
301.704
302.041
302.524
303.211
304.14
300.121
300.353
300.563
300.74
300.881
300.99
301.079
301.155
301.222
301.283
301.337
301.386
301.428
301.464
301.491
301.511
301.522
301.526
301.523
301.513
301.5
301.483
301.464
301.445
301.427
301.414
301.41
301.426
301.478
301.597
301.821
302.179
302.676
303.374
304.307
300.126
300.369
300.587
300.771
300.916
301.029
301.12
301.199
301.269
301.332
301.389
301.441
301.485
301.522
301.551
301.57
301.58
301.582
301.576
301.563
301.546
301.525
301.502
301.48
301.462
301.45
301.451
301.477
301.544
301.684
301.931
302.307
302.818
303.528
304.464
300.132
300.384
300.61
300.801
300.95
301.065
301.158
301.239
301.311
301.377
301.436
301.49
301.536
301.574
301.604
301.623
301.633
301.634
301.626
301.612
301.591
301.567
301.542
301.518
301.498
301.487
301.492
301.526
301.606
301.763
302.03
302.423
302.947
303.669
304.608
300.136
300.397
300.63
300.827
300.98
301.098
301.194
301.277
301.352
301.42
301.482
301.538
301.586
301.626
301.656
301.676
301.686
301.685
301.676
301.659
301.637
301.61
301.582
301.556
301.535
301.526
301.534
301.575
301.668
301.84
302.124
302.531
303.068
303.801
304.743
300.141
300.41
300.651
300.853
301.01
301.13
301.229
301.314
301.391
301.461
301.525
301.583
301.633
301.674
301.705
301.725
301.735
301.734
301.724
301.706
301.681
301.652
301.623
301.595
301.574
301.565
301.578
301.625
301.728
301.914
302.214
302.633
303.181
303.924
304.869
300.145
300.422
300.67
300.877
301.037
301.16
301.261
301.349
301.428
301.501
301.567
301.627
301.678
301.721
301.752
301.773
301.783
301.782
301.771
301.751
301.725
301.694
301.663
301.635
301.614
301.606
301.622
301.675
301.788
301.987
302.3
302.731
303.289
304.041
304.988
300.149
300.435
300.689
300.901
301.064
301.19
301.293
301.383
301.464
301.539
301.607
301.668
301.722
301.765
301.798
301.819
301.829
301.828
301.816
301.795
301.768
301.736
301.703
301.674
301.654
301.648
301.667
301.727
301.848
302.059
302.384
302.824
303.391
304.151
305.099
300.153
300.446
300.707
300.923
301.09
301.218
301.323
301.415
301.498
301.575
301.646
301.709
301.764
301.808
301.842
301.864
301.874
301.872
301.86
301.838
301.81
301.777
301.744
301.714
301.694
301.69
301.713
301.778
301.909
302.13
302.466
302.914
303.488
304.255
305.204
300.157
300.457
300.725
300.946
301.115
301.245
301.352
301.446
301.532
301.611
301.683
301.748
301.804
301.85
301.884
301.907
301.917
301.916
301.903
301.881
301.852
301.818
301.784
301.754
301.734
301.732
301.759
301.83
301.969
302.2
302.546
303
303.58
304.353
305.302
300.161
300.468
300.741
300.967
301.139
301.271
301.38
301.476
301.564
301.645
301.719
301.785
301.843
301.89
301.926
301.949
301.96
301.958
301.946
301.923
301.893
301.859
301.824
301.794
301.775
301.775
301.805
301.882
302.029
302.269
302.623
303.083
303.668
304.445
305.395
300.165
300.479
300.758
300.988
301.162
301.297
301.408
301.506
301.595
301.678
301.754
301.822
301.881
301.929
301.966
301.99
302.001
302
301.988
301.965
301.934
301.9
301.865
301.835
301.816
301.818
301.852
301.934
302.088
302.337
302.698
303.162
303.751
304.533
305.483
300.169
300.49
300.774
301.008
301.185
301.321
301.434
301.534
301.626
301.71
301.787
301.857
301.917
301.967
302.005
302.03
302.042
302.041
302.029
302.007
301.976
301.941
301.905
301.875
301.858
301.862
301.899
301.986
302.146
302.403
302.771
303.239
303.831
304.616
305.566
300.172
300.5
300.79
301.028
301.207
301.345
301.46
301.562
301.655
301.741
301.82
301.892
301.953
302.004
302.043
302.069
302.082
302.082
302.07
302.048
302.017
301.982
301.946
301.917
301.9
301.905
301.945
302.038
302.204
302.467
302.841
303.312
303.907
304.695
305.644
300.176
300.51
300.806
301.047
301.229
301.369
301.486
301.589
301.684
301.772
301.853
301.925
301.988
302.04
302.08
302.107
302.121
302.122
302.111
302.089
302.059
302.023
301.988
301.958
301.942
301.949
301.992
302.089
302.261
302.53
302.909
303.383
303.98
304.77
305.719
300.179
300.52
300.821
301.066
301.251
301.392
301.511
301.616
301.713
301.802
301.884
301.958
302.023
302.076
302.116
302.144
302.159
302.162
302.151
302.13
302.1
302.065
302.03
302
301.985
301.993
302.039
302.14
302.317
302.592
302.976
303.451
304.049
304.842
305.791
300.183
300.53
300.837
301.085
301.272
301.415
301.535
301.642
301.741
301.832
301.916
301.991
302.056
302.11
302.152
302.181
302.197
302.201
302.191
302.171
302.142
302.107
302.072
302.043
302.028
302.038
302.086
302.19
302.373
302.653
303.04
303.517
304.116
304.911
305.861
300.186
300.54
300.852
301.104
301.293
301.438
301.559
301.668
301.768
301.861
301.946
302.023
302.089
302.145
302.188
302.218
302.235
302.239
302.231
302.212
302.183
302.149
302.114
302.085
302.071
302.082
302.133
302.241
302.427
302.712
303.103
303.581
304.181
304.978
305.927
300.19
300.55
300.867
301.122
301.313
301.46
301.583
301.694
301.796
301.89
301.977
302.054
302.122
302.178
302.222
302.253
302.272
302.277
302.27
302.252
302.225
302.191
302.157
302.128
302.115
302.127
302.18
302.291
302.482
302.771
303.164
303.643
304.245
305.043
305.992
300.193
300.56
300.881
301.14
301.333
301.482
301.607
301.719
301.823
301.919
302.007
302.086
302.155
302.212
302.257
302.289
302.308
302.315
302.309
302.292
302.266
302.233
302.2
302.172
302.159
302.173
302.227
302.342
302.536
302.829
303.225
303.704
304.306
305.105
306.055
300.197
300.569
300.896
301.158
301.353
301.504
301.631
301.744
301.849
301.947
302.036
302.117
302.187
302.245
302.291
302.324
302.344
302.352
302.348
302.332
302.307
302.276
302.243
302.216
302.203
302.218
302.275
302.392
302.59
302.886
303.284
303.764
304.366
305.167
306.117
300.2
300.579
300.911
301.176
301.373
301.525
301.654
301.769
301.876
301.975
302.066
302.148
302.218
302.278
302.324
302.358
302.38
302.389
302.386
302.372
302.348
302.318
302.286
302.259
302.248
302.264
302.322
302.442
302.643
302.943
303.343
303.822
304.425
305.226
306.177
300.203
300.588
300.925
301.194
301.393
301.547
301.677
301.794
301.903
302.003
302.095
302.178
302.25
302.31
302.357
302.392
302.415
302.425
302.423
302.411
302.389
302.36
302.329
302.304
302.293
302.31
302.37
302.492
302.696
302.999
303.401
303.88
304.482
305.285
306.235
300.207
300.598
300.939
301.212
301.413
301.568
301.7
301.819
301.929
302.031
302.125
302.209
302.282
302.342
302.391
302.426
302.45
302.461
302.461
302.45
302.429
302.402
302.372
302.348
302.338
302.356
302.418
302.542
302.749
303.055
303.458
303.937
304.539
305.342
306.293
300.21
300.607
300.954
301.229
301.432
301.589
301.723
301.844
301.955
302.059
302.154
302.239
302.313
302.375
302.424
302.46
302.484
302.497
302.498
302.488
302.469
302.443
302.415
302.392
302.384
302.403
302.466
302.592
302.802
303.11
303.514
303.993
304.595
305.398
306.349
300.213
300.616
300.968
301.246
301.452
301.61
301.746
301.868
301.982
302.087
302.183
302.269
302.344
302.407
302.456
302.494
302.519
302.532
302.534
302.526
302.509
302.485
302.459
302.436
302.429
302.449
302.514
302.642
302.854
303.164
303.57
304.048
304.649
305.454
306.405
300.216
300.625
300.982
301.264
301.471
301.631
301.769
301.893
302.008
302.115
302.212
302.3
302.375
302.439
302.489
302.527
302.553
302.567
302.571
302.564
302.549
302.526
302.501
302.481
302.474
302.496
302.562
302.692
302.906
303.219
303.625
304.102
304.703
305.508
306.459
300.22
300.635
300.996
301.281
301.49
301.652
301.791
301.918
302.034
302.143
302.242
302.33
302.407
302.471
302.522
302.56
302.587
302.602
302.607
302.602
302.588
302.567
302.544
302.525
302.52
302.543
302.61
302.742
302.958
303.272
303.679
304.156
304.757
305.561
306.513
300.223
300.644
301.01
301.298
301.509
301.673
301.814
301.942
302.061
302.171
302.271
302.361
302.438
302.503
302.554
302.594
302.621
302.637
302.643
302.639
302.627
302.608
302.587
302.569
302.566
302.589
302.658
302.792
303.01
303.326
303.733
304.209
304.809
305.615
306.566
300.226
300.653
301.024
301.315
301.528
301.694
301.837
301.967
302.087
302.199
302.3
302.391
302.469
302.535
302.587
302.627
302.655
302.672
302.678
302.676
302.665
302.648
302.629
302.613
302.611
302.636
302.706
302.842
303.062
303.379
303.787
304.262
304.861
305.667
306.619
300.229
300.662
301.038
301.332
301.547
301.715
301.859
301.991
302.113
302.227
302.33
302.422
302.501
302.567
302.62
302.66
302.689
302.706
302.714
302.713
302.704
302.689
302.671
302.657
302.657
302.683
302.755
302.892
303.113
303.432
303.84
304.315
304.914
305.719
306.672
300.233
300.671
301.052
301.349
301.566
301.736
301.882
302.016
302.14
302.255
302.359
302.452
302.532
302.599
302.652
302.693
302.722
302.741
302.749
302.749
302.742
302.729
302.713
302.701
302.702
302.731
302.804
302.942
303.165
303.485
303.894
304.368
304.966
305.772
306.725
300.236
300.681
301.066
301.366
301.585
301.757
301.905
302.04
302.166
302.283
302.389
302.483
302.564
302.631
302.685
302.726
302.756
302.775
302.785
302.786
302.78
302.768
302.755
302.745
302.748
302.778
302.852
302.992
303.217
303.539
303.947
304.42
305.018
305.824
306.778
300.239
300.69
301.079
301.383
301.604
301.777
301.928
302.065
302.193
302.311
302.419
302.514
302.595
302.663
302.718
302.759
302.789
302.809
302.82
302.822
302.817
302.808
302.796
302.788
302.794
302.826
302.902
303.043
303.27
303.593
304.001
304.474
305.07
305.877
306.832
300.242
300.699
301.093
301.4
301.623
301.798
301.95
302.09
302.219
302.339
302.448
302.545
302.627
302.695
302.75
302.792
302.823
302.843
302.855
302.858
302.855
302.847
302.837
302.832
302.839
302.873
302.952
303.095
303.323
303.647
304.056
304.527
305.123
305.931
306.886
300.246
300.708
301.107
301.417
301.642
301.819
301.973
302.115
302.246
302.368
302.478
302.576
302.659
302.728
302.783
302.825
302.857
302.878
302.89
302.894
302.892
302.886
302.879
302.875
302.885
302.922
303.002
303.147
303.377
303.702
304.111
304.581
305.176
305.985
306.941
300.249
300.717
301.121
301.434
301.661
301.84
301.996
302.139
302.273
302.397
302.508
302.607
302.691
302.76
302.816
302.859
302.89
302.912
302.924
302.93
302.93
302.925
302.92
302.919
302.931
302.97
303.053
303.2
303.432
303.758
304.167
304.636
305.231
306.039
306.996
300.252
300.726
301.135
301.451
301.68
301.861
302.019
302.164
302.3
302.425
302.539
302.638
302.723
302.792
302.848
302.892
302.924
302.946
302.959
302.966
302.967
302.964
302.96
302.962
302.977
303.019
303.104
303.254
303.488
303.815
304.224
304.692
305.286
306.095
307.052
300.255
300.735
301.149
301.468
301.699
301.882
302.042
302.19
302.327
302.454
302.569
302.669
302.755
302.825
302.881
302.925
302.957
302.979
302.994
303.001
303.004
303.002
303.001
303.005
303.023
303.068
303.156
303.308
303.544
303.873
304.281
304.748
305.341
306.15
307.108
300.258
300.745
301.163
301.485
301.718
301.903
302.065
302.215
302.355
302.484
302.599
302.701
302.787
302.857
302.914
302.958
302.99
303.013
303.028
303.037
303.04
303.041
303.042
303.048
303.069
303.117
303.208
303.363
303.601
303.931
304.339
304.805
305.397
306.207
307.165
300.262
300.754
301.177
301.501
301.737
301.924
302.088
302.24
302.382
302.513
302.63
302.732
302.819
302.89
302.947
302.991
303.024
303.047
303.063
303.072
303.077
303.079
303.082
303.091
303.115
303.166
303.26
303.419
303.659
303.99
304.398
304.862
305.454
306.263
307.222
300.265
300.763
301.191
301.519
301.756
301.945
302.111
302.266
302.41
302.542
302.661
302.764
302.851
302.923
302.98
303.024
303.057
303.081
303.097
303.107
303.113
303.117
303.122
303.134
303.161
303.215
303.313
303.474
303.717
304.05
304.457
304.92
305.511
306.32
307.279
300.268
300.772
301.205
301.536
301.775
301.966
302.135
302.291
302.438
302.572
302.692
302.796
302.884
302.955
303.013
303.057
303.09
303.114
303.131
303.142
303.15
303.155
303.162
303.177
303.206
303.264
303.365
303.53
303.776
304.11
304.516
304.978
305.568
306.377
307.336
300.271
300.781
301.219
301.553
301.794
301.987
302.158
302.317
302.466
302.602
302.723
302.828
302.916
302.988
303.045
303.09
303.123
303.148
303.165
303.177
303.186
303.193
303.202
303.219
303.252
303.313
303.418
303.586
303.834
304.17
304.576
305.036
305.625
306.434
307.392
300.275
300.791
301.233
301.57
301.814
302.008
302.182
302.343
302.494
302.632
302.754
302.86
302.949
303.021
303.078
303.123
303.157
303.181
303.2
303.212
303.222
303.231
303.242
303.261
303.297
303.361
303.47
303.642
303.893
304.23
304.635
305.094
305.682
306.49
307.448
300.278
300.8
301.247
301.587
301.833
302.03
302.206
302.37
302.522
302.662
302.786
302.892
302.981
303.054
303.111
303.156
303.19
303.215
303.233
303.247
303.258
303.268
303.281
303.303
303.342
303.41
303.523
303.698
303.952
304.289
304.694
305.152
305.738
306.546
307.504
300.281
300.809
301.261
301.604
301.852
302.052
302.23
302.396
302.551
302.692
302.818
302.925
303.014
303.086
303.144
303.189
303.223
303.248
303.267
303.282
303.294
303.305
303.321
303.345
303.387
303.458
303.575
303.753
304.01
304.349
304.753
305.209
305.794
306.601
307.559
300.285
300.819
301.275
301.621
301.872
302.073
302.254
302.423
302.58
302.723
302.849
302.957
303.047
303.119
303.177
303.221
303.256
303.282
303.301
303.316
303.329
303.343
303.36
303.387
303.432
303.507
303.626
303.808
304.068
304.408
304.811
305.265
305.85
306.656
307.613
300.288
300.828
301.29
301.639
301.892
302.095
302.278
302.45
302.609
302.754
302.882
302.99
303.08
303.152
303.21
303.254
303.289
303.315
303.335
303.351
303.365
303.38
303.399
303.428
303.476
303.554
303.678
303.863
304.125
304.466
304.868
305.321
305.904
306.71
307.667
300.291
300.838
301.304
301.656
301.911
302.117
302.303
302.477
302.639
302.785
302.914
303.023
303.113
303.185
303.243
303.287
303.322
303.348
303.368
303.385
303.4
303.417
303.438
303.47
303.521
303.602
303.729
303.918
304.182
304.525
304.926
305.377
305.959
306.764
307.719
300.295
300.847
301.319
301.674
301.931
302.14
302.328
302.504
302.668
302.817
302.946
303.056
303.146
303.218
303.276
303.32
303.354
303.381
303.402
303.419
303.436
303.453
303.476
303.511
303.564
303.649
303.78
303.972
304.239
304.582
304.982
305.431
306.012
306.816
307.771
300.298
300.857
301.333
301.692
301.951
302.162
302.353
302.532
302.699
302.849
302.979
303.089
303.179
303.252
303.309
303.353
303.387
303.414
303.436
303.454
303.471
303.49
303.515
303.552
303.608
303.696
303.83
304.026
304.295
304.639
305.037
305.485
306.065
306.868
307.822
300.301
300.866
301.348
301.71
301.972
302.185
302.379
302.56
302.729
302.881
303.012
303.123
303.213
303.285
303.342
303.386
303.42
303.447
303.469
303.488
303.506
303.526
303.553
303.592
303.652
303.743
303.88
304.079
304.35
304.694
305.092
305.539
306.116
306.919
307.872
300.305
300.876
301.363
301.728
301.992
302.208
302.404
302.589
302.76
302.913
303.045
303.156
303.246
303.318
303.375
303.419
303.453
303.48
303.502
303.522
303.541
303.563
303.591
303.632
303.695
303.789
303.93
304.131
304.405
304.75
305.146
305.591
306.167
306.969
307.922
300.308
300.886
301.378
301.746
302.013
302.231
302.431
302.618
302.791
302.946
303.079
303.19
303.28
303.351
303.408
303.452
303.486
303.513
303.536
303.556
303.576
303.599
303.629
303.673
303.738
303.835
303.979
304.183
304.459
304.804
305.199
305.642
306.218
307.018
307.97
300.312
300.896
301.393
301.764
302.034
302.255
302.457
302.647
302.823
302.979
303.113
303.224
303.314
303.385
303.441
303.484
303.519
303.546
303.569
303.59
303.611
303.635
303.667
303.712
303.78
303.881
304.027
304.235
304.512
304.858
305.251
305.693
306.267
307.066
308.018
300.315
300.906
301.408
301.783
302.055
302.279
302.484
302.677
302.855
303.012
303.147
303.258
303.347
303.418
303.474
303.517
303.551
303.579
303.602
303.623
303.645
303.671
303.704
303.752
303.822
303.925
304.075
304.285
304.564
304.91
305.303
305.742
306.315
307.113
308.064
300.319
300.916
301.424
301.802
302.077
302.303
302.512
302.708
302.887
303.046
303.181
303.292
303.382
303.452
303.507
303.55
303.584
303.612
303.635
303.657
303.68
303.706
303.742
303.791
303.864
303.97
304.123
304.335
304.616
304.962
305.353
305.791
306.363
307.16
308.11
300.322
300.926
301.44
301.821
302.099
302.328
302.54
302.739
302.921
303.081
303.216
303.327
303.416
303.486
303.54
303.583
303.617
303.645
303.668
303.691
303.714
303.742
303.779
303.83
303.905
304.014
304.17
304.384
304.667
305.013
305.402
305.839
306.409
307.205
308.154
300.326
300.937
301.456
301.841
302.121
302.354
302.569
302.771
302.955
303.116
303.252
303.362
303.451
303.52
303.574
303.616
303.65
303.678
303.702
303.724
303.749
303.778
303.816
303.869
303.946
304.058
304.216
304.433
304.717
305.063
305.451
305.885
306.454
307.249
308.197
300.33
300.948
301.472
301.861
302.145
302.38
302.599
302.803
302.99
303.152
303.288
303.398
303.486
303.554
303.608
303.65
303.683
303.711
303.735
303.758
303.783
303.813
303.853
303.908
303.987
304.101
304.261
304.481
304.766
305.112
305.498
305.931
306.499
307.292
308.24
300.334
300.959
301.489
301.882
302.168
302.407
302.629
302.837
303.026
303.189
303.325
303.434
303.521
303.589
303.642
303.683
303.716
303.744
303.768
303.792
303.817
303.848
303.889
303.946
304.028
304.144
304.307
304.528
304.814
305.16
305.544
305.976
306.542
307.335
308.281
300.338
300.97
301.507
301.903
302.193
302.435
302.661
302.872
303.062
303.226
303.362
303.471
303.557
303.624
303.676
303.717
303.749
303.777
303.801
303.825
303.852
303.884
303.926
303.984
304.068
304.186
304.351
304.574
304.862
305.207
305.59
306.019
306.584
307.376
308.322
300.342
300.982
301.525
301.925
302.218
302.464
302.693
302.907
303.1
303.265
303.4
303.508
303.593
303.659
303.71
303.75
303.783
303.81
303.835
303.859
303.886
303.919
303.962
304.023
304.108
304.228
304.395
304.62
304.908
305.253
305.634
306.062
306.626
307.417
308.362
300.346
300.994
301.543
301.948
302.243
302.493
302.726
302.944
303.138
303.304
303.439
303.546
303.63
303.694
303.745
303.784
303.816
303.843
303.868
303.893
303.921
303.954
303.999
304.06
304.147
304.27
304.439
304.665
304.954
305.298
305.678
306.104
306.667
307.456
308.401
300.35
301.007
301.562
301.97
302.27
302.523
302.76
302.981
303.177
303.343
303.478
303.584
303.667
303.73
303.78
303.818
303.85
303.877
303.902
303.927
303.955
303.99
304.035
304.098
304.187
304.311
304.482
304.71
305
305.342
305.72
306.145
306.707
307.495
308.44
300.355
301.019
301.581
301.994
302.297
302.554
302.795
303.019
303.217
303.384
303.518
303.623
303.704
303.766
303.815
303.853
303.884
303.911
303.936
303.961
303.99
304.025
304.072
304.136
304.226
304.352
304.525
304.754
305.044
305.386
305.762
306.185
306.746
307.534
308.477
300.359
301.032
301.601
302.018
302.324
302.586
302.831
303.058
303.258
303.425
303.558
303.662
303.742
303.803
303.85
303.888
303.918
303.945
303.97
303.995
304.025
304.061
304.109
304.174
304.266
304.394
304.568
304.798
305.088
305.429
305.804
306.225
306.785
307.572
308.515
300.364
301.046
301.621
302.042
302.352
302.618
302.868
303.098
303.3
303.466
303.599
303.701
303.78
303.84
303.886
303.922
303.953
303.979
304.004
304.03
304.059
304.096
304.145
304.212
304.305
304.435
304.61
304.842
305.132
305.472
305.844
306.264
306.822
307.609
308.552
300.369
301.059
301.642
302.067
302.381
302.652
302.906
303.139
303.342
303.508
303.64
303.741
303.818
303.877
303.922
303.957
303.987
304.013
304.038
304.064
304.094
304.132
304.182
304.25
304.345
304.476
304.653
304.885
305.175
305.514
305.885
306.303
306.86
307.646
308.589
300.373
301.073
301.663
302.093
302.411
302.686
302.944
303.181
303.385
303.551
303.681
303.781
303.856
303.914
303.958
303.993
304.022
304.048
304.072
304.099
304.13
304.168
304.219
304.289
304.385
304.517
304.695
304.928
305.218
305.555
305.924
306.341
306.897
307.683
308.626
300.378
301.087
301.684
302.119
302.441
302.721
302.984
303.224
303.429
303.595
303.724
303.822
303.895
303.951
303.994
304.028
304.057
304.082
304.107
304.134
304.165
304.204
304.256
304.327
304.424
304.558
304.738
304.971
305.261
305.597
305.964
306.379
306.935
307.72
308.663
300.383
301.101
301.706
302.145
302.472
302.757
303.025
303.268
303.474
303.639
303.766
303.863
303.935
303.989
304.031
304.064
304.092
304.117
304.142
304.169
304.2
304.24
304.293
304.365
304.464
304.599
304.78
305.014
305.303
305.638
306.003
306.417
306.972
307.756
308.699
300.388
301.116
301.728
302.172
302.504
302.794
303.067
303.313
303.52
303.684
303.81
303.904
303.974
304.027
304.068
304.1
304.127
304.152
304.177
304.204
304.236
304.277
304.331
304.404
304.504
304.641
304.823
305.057
305.346
305.679
306.042
306.455
307.009
307.793
308.737
300.394
301.131
301.751
302.2
302.536
302.832
303.111
303.359
303.567
303.73
303.854
303.946
304.014
304.065
304.105
304.136
304.163
304.187
304.212
304.24
304.272
304.314
304.369
304.443
304.544
304.682
304.865
305.1
305.389
305.72
306.081
306.492
307.046
307.83
308.773
300.399
301.146
301.774
302.229
302.57
302.871
303.155
303.407
303.614
303.776
303.898
303.989
304.055
304.104
304.142
304.173
304.199
304.223
304.248
304.275
304.308
304.351
304.407
304.482
304.585
304.724
304.908
305.144
305.432
305.762
306.121
306.531
307.083
307.867
308.811
300.404
301.162
301.798
302.257
302.604
302.911
303.2
303.455
303.663
303.824
303.944
304.031
304.096
304.143
304.18
304.209
304.235
304.259
304.283
304.311
304.345
304.388
304.445
304.521
304.626
304.766
304.951
305.187
305.474
305.802
306.16
306.568
307.12
307.904
308.848
300.41
301.178
301.821
302.287
302.638
302.952
303.246
303.503
303.711
303.871
303.989
304.075
304.137
304.183
304.218
304.246
304.271
304.295
304.319
304.347
304.381
304.425
304.483
304.561
304.667
304.808
304.994
305.231
305.517
305.844
306.199
306.607
307.158
307.942
308.886
300.415
301.193
301.845
302.316
302.673
302.993
303.292
303.552
303.76
303.919
304.035
304.118
304.178
304.223
304.256
304.284
304.308
304.331
304.356
304.384
304.418
304.463
304.522
304.601
304.708
304.851
305.038
305.274
305.56
305.885
306.238
306.644
307.196
307.979
308.924
300.421
301.209
301.87
302.346
302.709
303.036
303.34
303.602
303.81
303.967
304.08
304.162
304.22
304.262
304.295
304.321
304.345
304.368
304.392
304.42
304.455
304.501
304.561
304.641
304.749
304.894
305.082
305.319
305.604
305.927
306.278
306.683
307.234
308.018
308.962
300.427
301.225
301.894
302.377
302.746
303.079
303.388
303.652
303.86
304.015
304.126
304.205
304.262
304.302
304.334
304.359
304.382
304.404
304.429
304.457
304.493
304.539
304.6
304.681
304.791
304.936
305.125
305.362
305.647
305.968
306.318
306.722
307.272
308.055
309
300.432
301.242
301.919
302.408
302.784
303.124
303.438
303.704
303.911
304.064
304.173
304.25
304.304
304.343
304.373
304.397
304.419
304.441
304.466
304.494
304.53
304.577
304.639
304.722
304.833
304.98
305.17
305.407
305.69
306.01
306.358
306.761
307.311
308.094
309.039
300.438
301.258
301.945
302.441
302.823
303.171
303.49
303.757
303.963
304.114
304.22
304.294
304.346
304.383
304.412
304.436
304.457
304.479
304.503
304.532
304.568
304.616
304.679
304.763
304.875
305.023
305.214
305.451
305.734
306.052
306.398
306.799
307.349
308.132
309.077
300.444
301.276
301.973
302.475
302.865
303.22
303.544
303.813
304.017
304.165
304.268
304.34
304.389
304.425
304.452
304.474
304.495
304.516
304.54
304.57
304.607
304.655
304.719
304.804
304.918
305.067
305.259
305.496
305.778
306.094
306.439
306.839
307.388
308.171
309.117
300.45
301.294
302.001
302.511
302.908
303.271
303.6
303.87
304.073
304.218
304.318
304.386
304.433
304.466
304.492
304.513
304.533
304.554
304.578
304.607
304.645
304.694
304.759
304.846
304.961
305.111
305.303
305.541
305.821
306.136
306.479
306.878
307.427
308.21
309.156
300.457
301.313
302.03
302.548
302.953
303.324
303.659
303.929
304.13
304.272
304.368
304.433
304.477
304.508
304.532
304.553
304.572
304.592
304.616
304.646
304.684
304.734
304.8
304.888
305.004
305.156
305.349
305.587
305.866
306.179
306.52
306.919
307.467
308.25
309.196
300.464
301.333
302.061
302.587
303
303.38
303.719
303.989
304.188
304.326
304.419
304.48
304.522
304.551
304.573
304.592
304.611
304.631
304.655
304.684
304.723
304.774
304.841
304.93
305.048
305.2
305.394
305.632
305.91
306.221
306.561
306.958
307.506
308.289
309.235
300.471
301.354
302.092
302.626
303.048
303.437
303.78
304.051
304.248
304.382
304.471
304.529
304.567
304.594
304.615
304.633
304.65
304.67
304.694
304.724
304.763
304.814
304.882
304.973
305.092
305.246
305.44
305.678
305.955
306.265
306.602
306.999
307.547
308.33
309.276
300.478
301.375
302.125
302.668
303.099
303.496
303.844
304.115
304.309
304.439
304.523
304.578
304.613
304.638
304.657
304.673
304.69
304.709
304.733
304.763
304.802
304.855
304.924
305.016
305.136
305.291
305.486
305.723
306
306.307
306.643
307.039
307.587
308.369
309.315
300.486
301.397
302.159
302.711
303.151
303.557
303.91
304.18
304.371
304.497
304.577
304.627
304.66
304.682
304.699
304.715
304.731
304.749
304.773
304.803
304.843
304.896
304.966
305.06
305.181
305.338
305.533
305.77
306.046
306.351
306.686
307.081
307.628
308.411
309.357
300.494
301.42
302.195
302.757
303.206
303.621
303.978
304.248
304.434
304.556
304.631
304.678
304.707
304.727
304.742
304.756
304.771
304.79
304.813
304.843
304.883
304.937
305.009
305.103
305.226
305.383
305.579
305.816
306.09
306.394
306.727
307.121
307.668
308.451
309.397
300.503
301.445
302.232
302.804
303.263
303.687
304.048
304.317
304.5
304.616
304.687
304.729
304.755
304.772
304.786
304.799
304.813
304.83
304.853
304.884
304.925
304.979
305.052
305.148
305.272
305.43
305.627
305.864
306.137
306.439
306.77
307.164
307.711
308.493
309.438
300.511
301.47
302.27
302.852
303.321
303.755
304.119
304.387
304.566
304.677
304.743
304.781
304.804
304.818
304.83
304.841
304.854
304.871
304.894
304.924
304.966
305.021
305.095
305.192
305.317
305.476
305.674
305.91
306.181
306.482
306.812
307.204
307.751
308.533
309.478
300.521
301.496
302.31
302.901
303.381
303.823
304.19
304.457
304.633
304.739
304.8
304.834
304.853
304.865
304.875
304.885
304.897
304.913
304.936
304.966
305.008
305.064
305.139
305.237
305.364
305.524
305.722
305.958
306.228
306.527
306.856
307.247
307.794
308.575
309.52
300.53
301.522
302.349
302.952
303.441
303.892
304.263
304.528
304.7
304.801
304.857
304.887
304.903
304.912
304.92
304.928
304.939
304.955
304.977
305.008
305.05
305.107
305.182
305.281
305.409
305.57
305.768
306.004
306.273
306.57
306.897
307.288
307.834
308.615
309.56
300.539
301.549
302.39
303.003
303.503
303.962
304.336
304.6
304.768
304.864
304.916
304.941
304.953
304.96
304.966
304.973
304.983
304.998
305.02
305.05
305.093
305.15
305.227
305.328
305.457
305.619
305.817
306.052
306.32
306.616
306.941
307.332
307.878
308.658
309.602
300.549
301.577
302.431
303.056
303.566
304.034
304.41
304.674
304.837
304.928
304.974
304.996
305.005
305.009
305.012
305.018
305.027
305.041
305.062
305.092
305.135
305.193
305.271
305.372
305.502
305.665
305.863
306.097
306.364
306.658
306.982
307.372
307.917
308.697
309.642
300.559
301.605
302.475
303.111
303.632
304.109
304.488
304.749
304.908
304.994
305.034
305.051
305.057
305.058
305.06
305.063
305.071
305.084
305.105
305.136
305.179
305.238
305.316
305.419
305.55
305.714
305.912
306.146
306.412
306.704
307.027
307.416
307.961
308.741
309.684
300.57
301.635
302.52
303.168
303.701
304.187
304.57
304.828
304.981
305.061
305.096
305.108
305.109
305.108
305.107
305.109
305.116
305.128
305.148
305.179
305.222
305.281
305.36
305.463
305.595
305.759
305.958
306.191
306.455
306.745
307.067
307.455
308.001
308.78
309.723
300.581
301.666
302.567
303.229
303.774
304.269
304.655
304.911
305.058
305.13
305.159
305.166
305.164
305.159
305.156
305.156
305.161
305.173
305.193
305.223
305.266
305.326
305.406