/*--------------------------------*- C++ -*----------------------------------*\
| =========                 |                                                 |
| \\      /  F ield         | OpenFOAM: The Open Source CFD Toolbox           |
|  \\    /   O peration     | Version:  v2012                                 |
|   \\  /    A nd           | Website:  www.openfoam.com                      |
|    \\/     M anipulation  |                                                 |
\*---------------------------------------------------------------------------*/
FoamFile
{
    version     2.0;
    format      ascii;
    class       surfaceScalarField;
    location    "80";
    object      phi;
}
// * * * * * * * * * * * * * * * * * * * * * * * * * * * * * * * * * * * * * //

dimensions      [1 0 -1 0 0 0 0];
oriented        oriented;


internalField   nonuniform List<scalar> 
228225
(
-1.16792e-09
3.25441e-11
9.04805e-10
-3.15223e-09
3.70072e-09
-1.71802e-09
-7.1788e-09
6.2744e-09
-2.2479e-09
-1.34325e-08
8.59952e-09
-2.34636e-09
-2.16798e-08
1.06807e-08
-2.43187e-09
-3.1536e-08
1.24618e-08
-2.60521e-09
-4.25991e-08
1.39348e-08
-2.87312e-09
-5.44513e-08
1.50837e-08
-3.23178e-09
-6.67195e-08
1.5926e-08
-3.65688e-09
-7.90457e-08
1.64664e-08
-4.13907e-09
-9.11244e-08
1.67351e-08
-4.65794e-09
-1.02659e-07
1.67407e-08
-5.2069e-09
-1.13401e-07
1.65148e-08
-5.7689e-09
-1.23135e-07
1.60699e-08
-6.34061e-09
-1.31667e-07
1.544e-08
-6.90775e-09
-1.38829e-07
1.46362e-08
-7.46821e-09
-1.44515e-07
1.369e-08
-8.00946e-09
-1.48594e-07
1.26122e-08
-8.52978e-09
-1.51011e-07
1.14317e-08
-9.01901e-09
-1.51695e-07
1.0158e-08
-9.47089e-09
-1.50629e-07
8.81246e-09
-9.87843e-09
-1.47796e-07
7.40553e-09
-1.02404e-08
-1.43206e-07
5.96198e-09
-1.0547e-08
-1.36904e-07
4.49177e-09
-1.07975e-08
-1.28937e-07
3.01874e-09
-1.09853e-08
-1.19379e-07
1.55521e-09
-1.11117e-08
-1.08345e-07
1.38361e-10
-1.11735e-08
-9.59222e-08
-1.24899e-09
-1.11755e-08
-8.22639e-08
-2.53925e-09
-1.11174e-08
-6.75492e-08
-3.71158e-09
-1.1003e-08
-5.20145e-08
-4.71555e-09
-1.08187e-08
-3.60178e-08
-5.48645e-09
-1.05122e-08
-2.02377e-08
-5.89591e-09
-9.88108e-09
-6.25314e-09
-5.7492e-09
-8.23661e-09
-3.92351e-09
-2.32973e-09
-3.33879e-09
1.57188e-08
-1.23475e-08
-1.40123e-08
2.83004e-08
-1.39254e-08
-2.73248e-08
3.42866e-08
-1.47002e-08
-4.20343e-08
3.87821e-08
-1.54727e-08
-5.7226e-08
4.20152e-08
-1.61437e-08
-7.22646e-08
4.42173e-08
-1.67165e-08
-8.66671e-08
4.55682e-08
-1.72314e-08
-1.00099e-07
4.62197e-08
-1.77033e-08
-1.12314e-07
4.62862e-08
-1.81452e-08
-1.23155e-07
4.58634e-08
-1.85568e-08
-1.32503e-07
4.50269e-08
-1.89449e-08
-1.40298e-07
4.38432e-08
-1.93056e-08
-1.46503e-07
4.23629e-08
-1.96439e-08
-1.51115e-07
4.0636e-08
-1.99547e-08
-1.54137e-07
3.87039e-08
-2.02412e-08
-1.55609e-07
3.66053e-08
-2.04983e-08
-1.55564e-07
3.43744e-08
-2.07286e-08
-1.54069e-07
3.20431e-08
-2.09272e-08
-1.51186e-07
2.9645e-08
-2.10963e-08
-1.47002e-07
2.72069e-08
-2.12313e-08
-1.41605e-07
2.47491e-08
-2.13343e-08
-1.35095e-07
2.22955e-08
-2.1401e-08
-1.27568e-07
1.98685e-08
-2.14326e-08
-1.1914e-07
1.74884e-08
-2.14241e-08
-1.09921e-07
1.51735e-08
-2.13756e-08
-1.00023e-07
1.29407e-08
-2.12818e-08
-8.95517e-08
1.08046e-08
-2.11396e-08
-7.86414e-08
8.77832e-09
-2.09378e-08
-6.73876e-08
6.87378e-09
-2.06651e-08
-5.59018e-08
5.10213e-09
-2.02998e-08
-4.42751e-08
3.4755e-09
-1.98184e-08
-3.25978e-08
2.0144e-09
-1.91786e-08
-2.09886e-08
7.56024e-10
-1.8259e-08
-9.84505e-09
-1.67603e-10
-1.67278e-08
-4.60161e-10
-1.33074e-08
-1.48637e-09
2.6684e-08
-9.47916e-09
-6.43558e-09
4.45511e-08
-1.13005e-08
-1.25219e-08
5.24524e-08
-1.20795e-08
-1.91356e-08
5.80691e-08
-1.26743e-08
-2.58684e-08
6.1903e-08
-1.31555e-08
-3.24333e-08
6.43577e-08
-1.35755e-08
-3.86312e-08
6.57229e-08
-1.39552e-08
-4.43238e-08
6.62263e-08
-1.43163e-08
-4.94117e-08
6.60368e-08
-1.46617e-08
-5.38368e-08
6.52882e-08
-1.50016e-08
-5.75598e-08
6.40832e-08
-1.53321e-08
-6.05644e-08
6.25063e-08
-1.56579e-08
-6.28549e-08
6.06249e-08
-1.59726e-08
-6.44368e-08
5.84972e-08
-1.6279e-08
-6.53348e-08
5.61714e-08
-1.65699e-08
-6.55729e-08
5.36909e-08
-1.68475e-08
-6.51855e-08
5.10929e-08
-1.71049e-08
-6.42125e-08
4.84117e-08
-1.7344e-08
-6.2691e-08
4.56809e-08
-1.75572e-08
-6.06644e-08
4.29277e-08
-1.77467e-08
-5.81918e-08
4.01843e-08
-1.79071e-08
-5.53305e-08
3.74732e-08
-1.80397e-08
-5.21349e-08
3.48129e-08
-1.81392e-08
-4.86618e-08
3.22199e-08
-1.82064e-08
-4.49583e-08
2.97075e-08
-1.82358e-08
-4.10714e-08
2.72805e-08
-1.82269e-08
-3.70388e-08
2.4944e-08
-1.81726e-08
-3.2889e-08
2.26977e-08
-1.80683e-08
-2.86508e-08
2.05347e-08
-1.79013e-08
-2.4329e-08
1.84398e-08
-1.7658e-08
-1.99261e-08
1.63857e-08
-1.73131e-08
-1.54195e-08
1.43332e-08
-1.68257e-08
-1.07801e-08
1.22193e-08
-1.61023e-08
-5.9594e-09
9.95329e-09
-1.49424e-08
5.81282e-09
-1.22322e-08
-9.81427e-10
3.14162e-08
-3.75122e-09
-2.26054e-09
5.12143e-08
-5.38357e-09
-3.61955e-09
6.00555e-08
-6.24457e-09
-5.12032e-09
6.63916e-08
-6.82107e-09
-6.75136e-09
7.08002e-08
-7.26638e-09
-8.44533e-09
7.37143e-08
-7.66339e-09
-1.01283e-08
7.54572e-08
-8.0505e-09
-1.1745e-08
7.62758e-08
-8.43343e-09
-1.32447e-08
7.63601e-08
-8.82444e-09
-1.4592e-08
7.58566e-08
-9.22103e-09
-1.57592e-08
7.48814e-08
-9.62937e-09
-1.67374e-08
7.35249e-08
-1.00424e-08
-1.75116e-08
7.18628e-08
-1.04629e-08
-1.80868e-08
6.99549e-08
-1.08821e-08
-1.84689e-08
6.78538e-08
-1.13012e-08
-1.86679e-08
6.56024e-08
-1.17114e-08
-1.87026e-08
6.3239e-08
-1.21132e-08
-1.85878e-08
6.07961e-08
-1.24981e-08
-1.83438e-08
5.83022e-08
-1.28667e-08
-1.79866e-08
5.57838e-08
-1.32111e-08
-1.75471e-08
5.32727e-08
-1.35295e-08
-1.70459e-08
5.07868e-08
-1.38151e-08
-1.6503e-08
4.83393e-08
-1.40684e-08
-1.59401e-08
4.59394e-08
-1.42828e-08
-1.53663e-08
4.35917e-08
-1.44581e-08
-1.47863e-08
4.12893e-08
-1.45892e-08
-1.4191e-08
3.90229e-08
-1.46743e-08
-1.3559e-08
3.67726e-08
-1.47059e-08
-1.28502e-08
3.45047e-08
-1.4679e-08
-1.19998e-08
3.21692e-08
-1.45807e-08
-1.09084e-08
2.96908e-08
-1.43966e-08
-9.43543e-09
2.6967e-08
-1.41066e-08
-7.36043e-09
2.3842e-08
-1.36976e-08
-4.45991e-09
2.01304e-08
-1.30786e-08
1.26229e-08
-1.12696e-08
-1.84458e-09
3.3123e-08
1.39214e-10
-2.05511e-09
5.25101e-08
-1.08536e-09
-1.44752e-09
6.13065e-08
-1.86023e-09
-4.43609e-10
6.77515e-08
-2.36288e-09
7.26047e-10
7.2369e-08
-2.73923e-09
1.96305e-09
7.557e-08
-3.09212e-09
3.20429e-09
7.76614e-08
-3.44571e-09
4.41055e-09
7.88814e-08
-3.81329e-09
5.55703e-09
7.94093e-08
-4.1931e-09
6.61501e-09
7.93879e-08
-4.59099e-09
7.57468e-09
7.89239e-08
-5.00161e-09
8.42141e-09
7.8106e-08
-5.42838e-09
9.14552e-09
7.70021e-08
-5.86326e-09
9.73603e-09
7.56706e-08
-6.30741e-09
1.0186e-08
7.41571e-08
-6.75201e-09
1.04825e-08
7.25026e-08
-7.19715e-09
1.06161e-08
7.0739e-08
-7.6341e-09
1.05788e-08
6.88962e-08
-8.06255e-09
1.03585e-08
6.69969e-08
-8.47429e-09
9.94703e-09
6.50637e-08
-8.86869e-09
9.34431e-09
6.31131e-08
-9.23805e-09
8.55532e-09
6.11579e-08
-9.58202e-09
7.58469e-09
5.92048e-08
-9.894e-09
6.44113e-09
5.72562e-08
-1.01737e-08
5.14166e-09
5.53065e-08
-1.04154e-08
3.70708e-09
5.33416e-08
-1.06186e-08
2.17312e-09
5.13356e-08
-1.07779e-08
5.88472e-10
4.92488e-08
-1.08924e-08
-9.72639e-10
4.70216e-08
-1.09557e-08
-2.41117e-09
4.45704e-08
-1.09629e-08
-3.5937e-09
4.17756e-08
-1.09019e-08
-4.33035e-09
3.84757e-08
-1.07722e-08
-4.32802e-09
3.44393e-08
-1.06012e-08
-3.20461e-09
2.937e-08
-1.03619e-08
1.86578e-08
-9.23945e-09
-1.77005e-09
3.28803e-08
2.01255e-09
-1.67531e-09
5.1345e-08
1.06967e-09
-6.01313e-10
5.98186e-08
4.15409e-10
1.01042e-09
6.61363e-08
2.16608e-12
2.89497e-09
7.07934e-08
-3.08943e-10
4.90778e-09
7.41627e-08
-6.03856e-10
6.94688e-09
7.65329e-08
-9.11976e-10
8.94163e-09
7.8118e-08
-1.23203e-09
1.08363e-08
7.90859e-08
-1.56978e-09
1.25852e-08
7.95613e-08
-1.92386e-09
1.41616e-08
7.96449e-08
-2.29751e-09
1.55406e-08
7.94121e-08
-2.6842e-09
1.67018e-08
7.89261e-08
-3.08472e-09
1.7628e-08
7.82344e-08
-3.49124e-09
1.83095e-08
7.73787e-08
-3.904e-09
1.87368e-08
7.63905e-08
-4.31521e-09
1.8903e-08
7.5298e-08
-4.72448e-09
1.88004e-08
7.41223e-08
-5.12432e-09
1.84297e-08
7.28822e-08
-5.51412e-09
1.77889e-08
7.15907e-08
-5.88698e-09
1.6886e-08
7.0258e-08
-6.24237e-09
1.57296e-08
6.88886e-08
-6.57415e-09
1.43329e-08
6.74831e-08
-6.88186e-09
1.27151e-08
6.60347e-08
-7.16008e-09
1.08998e-08
6.45291e-08
-7.40857e-09
8.92467e-09
6.29402e-08
-7.62272e-09
6.83278e-09
6.12289e-08
-7.80253e-09
4.68805e-09
5.93381e-08
-7.94394e-09
2.57069e-09
5.7187e-08
-8.04646e-09
5.78243e-10
5.46641e-08
-8.10392e-09
-1.14756e-09
5.16145e-08
-8.11162e-09
-2.42975e-09
4.78305e-08
-8.07247e-09
-2.98367e-09
4.30238e-08
-8.03103e-09
-2.45315e-09
3.68237e-08
-7.98467e-09
2.3489e-08
-7.28396e-09
-1.22698e-09
3.1792e-08
2.31437e-09
-9.51804e-10
4.94932e-08
1.57907e-09
1.30354e-10
5.76817e-08
1.05322e-09
1.66579e-09
6.38737e-08
7.26709e-10
3.43967e-09
6.85368e-08
4.82912e-10
5.33109e-09
7.20255e-08
2.46313e-10
7.25558e-09
7.46076e-08
5.48543e-13
9.14414e-09
7.64857e-08
-2.56158e-10
1.09433e-08
7.78105e-08
-5.23609e-10
1.26126e-08
7.86997e-08
-8.07129e-10
1.41162e-08
7.92416e-08
-1.10177e-09
1.54317e-08
7.95066e-08
-1.40904e-09
1.65337e-08
7.95474e-08
-1.72403e-09
1.74087e-08
7.94073e-08
-2.04728e-09
1.80419e-08
7.91183e-08
-2.37244e-09
1.8424e-08
7.87078e-08
-2.69954e-09
1.85492e-08
7.81954e-08
-3.02249e-09
1.84135e-08
7.75982e-08
-3.34105e-09
1.80187e-08
7.6927e-08
-3.6495e-09
1.73671e-08
7.61903e-08
-3.94759e-09
1.64651e-08
7.53907e-08
-4.23007e-09
1.53221e-08
7.45275e-08
-4.49681e-09
1.39556e-08
7.35929e-08
-4.74316e-09
1.23877e-08
7.2573e-08
-4.96923e-09
1.06429e-08
7.14441e-08
-5.171e-09
8.75985e-09
7.01716e-08
-5.3488e-09
6.78255e-09
6.87047e-08
-5.49922e-09
4.77203e-09
6.69733e-08
-5.62292e-09
2.79556e-09
6.48795e-08
-5.71668e-09
9.48304e-10
6.22909e-08
-5.77943e-09
-6.57557e-10
5.90256e-08
-5.80527e-09
-1.86477e-09
5.48409e-08
-5.80211e-09
-2.43549e-09
4.94037e-08
-5.80972e-09
-2.05457e-09
4.22781e-08
-5.8352e-09
2.68086e-08
-5.37445e-09
-6.62697e-10
3.05178e-08
1.93707e-09
-4.46938e-10
4.78901e-08
1.38628e-09
2.83066e-10
5.596e-08
9.93089e-10
1.29243e-09
6.21088e-08
7.54709e-10
2.45368e-09
6.68019e-08
5.74184e-10
3.69088e-09
7.03845e-08
4.02321e-10
4.95979e-09
7.31188e-08
2.22332e-10
6.21001e-09
7.51982e-08
3.49892e-11
7.41092e-09
7.67708e-08
-1.60367e-10
8.52592e-09
7.79458e-08
-3.60945e-10
9.53163e-09
7.88082e-08
-5.72815e-10
1.04088e-08
7.94203e-08
-7.90997e-10
1.11405e-08
7.98316e-08
-1.01562e-09
1.17119e-08
8.00785e-08
-1.24297e-09
1.2114e-08
8.019e-08
-1.47329e-09
1.2337e-08
8.01865e-08
-1.70209e-09
1.2376e-08
8.00849e-08
-1.92963e-09
1.22322e-08
7.98956e-08
-2.15149e-09
1.18992e-08
7.96262e-08
-2.36792e-09
1.13843e-08
7.92792e-08
-2.57484e-09
1.06962e-08
7.88533e-08
-2.77256e-09
9.83987e-09
7.83415e-08
-2.95741e-09
8.82929e-09
7.77319e-08
-3.12987e-09
7.6861e-09
7.7004e-08
-3.28666e-09
6.42892e-09
7.61286e-08
-3.42848e-09
5.09018e-09
7.50636e-08
-3.55245e-09
3.70355e-09
7.37508e-08
-3.65949e-09
2.31441e-09
7.21103e-08
-3.7472e-09
9.7757e-10
7.00328e-08
-3.81643e-09
-2.41009e-10
6.73716e-08
-3.86375e-09
-1.25264e-09
6.3927e-08
-3.88796e-09
-1.95261e-09
5.94332e-08
-3.8926e-09
-2.16549e-09
5.3527e-08
-3.91068e-09
-1.67556e-09
4.5732e-08
-3.94181e-09
2.87536e-08
-3.62254e-09
-4.55798e-10
2.93565e-08
1.61734e-09
-4.71002e-10
4.66354e-08
1.26943e-09
-2.04689e-10
5.46716e-08
1.02225e-09
2.14416e-10
6.08168e-08
8.72959e-10
7.20838e-10
6.55364e-08
7.59122e-10
1.2802e-09
6.91782e-08
6.46962e-10
1.86764e-09
7.19997e-08
5.31028e-10
2.46213e-09
7.4195e-08
4.08642e-10
3.04419e-09
7.59077e-08
2.8202e-10
3.59516e-09
7.72467e-08
1.48452e-10
4.09875e-09
7.8292e-08
1.16657e-11
4.54423e-09
7.91052e-08
-1.29227e-10
4.91481e-09
7.97308e-08
-2.70002e-10
5.20494e-09
8.02034e-08
-4.14888e-10
5.40528e-09
8.05477e-08
-5.59639e-10
5.51439e-09
8.07834e-08
-7.04795e-10
5.52338e-09
8.09228e-08
-8.4664e-10
5.42988e-09
8.09742e-08
-9.85866e-10
5.23507e-09
8.09408e-08
-1.11939e-09
4.93858e-09
8.08227e-08
-1.24807e-09
4.54728e-09
8.06143e-08
-1.36903e-09
4.06628e-09
8.03063e-08
-1.48323e-09
3.50316e-09
7.98822e-08
-1.58806e-09
2.87302e-09
7.93188e-08
-1.68462e-09
2.18981e-09
7.85824e-08
-1.7706e-09
1.47275e-09
7.76273e-08
-1.84725e-09
7.4809e-10
7.63903e-08
-1.91255e-09
3.86365e-11
7.47863e-08
-1.96798e-09
-6.17105e-10
7.27001e-08
-2.01166e-09
-1.17866e-09
6.99778e-08
-2.04442e-09
-1.59868e-09
6.641e-08
-2.06331e-09
-1.81047e-09
6.17201e-08
-2.07399e-09
-1.71772e-09
5.55301e-08
-2.0963e-09
-1.19946e-09
4.73408e-08
-2.12889e-09
2.9495e-08
-1.93916e-09
-5.82883e-10
2.83565e-08
1.58347e-09
-9.25936e-10
4.55195e-08
1.45736e-09
-1.10694e-09
5.3503e-08
1.35018e-09
-1.19326e-09
5.96142e-08
1.28941e-09
-1.2124e-09
6.43194e-08
1.23631e-09
-1.17873e-09
6.79643e-08
1.17961e-09
-1.10258e-09
7.08067e-08
1.11552e-09
-9.88711e-10
7.3038e-08
1.04699e-09
-8.59134e-10
7.48017e-08
9.7318e-10
-7.1221e-10
7.62042e-08
8.96605e-10
-5.6201e-10
7.73256e-08
8.16125e-10
-4.15923e-10
7.82243e-08
7.34335e-10
-2.8071e-10
7.89451e-08
6.50093e-10
-1.62812e-10
7.95193e-08
5.66802e-10
-6.86439e-11
7.9971e-08
4.83362e-10
-5.07188e-12
8.03161e-08
4.02347e-10
3.10164e-11
8.05664e-08
3.21798e-10
3.23225e-11
8.07275e-08
2.4442e-10
3.62831e-12
8.08021e-08
1.68992e-10
-6.04375e-11
8.07871e-08
9.74795e-11
-1.52359e-10
8.06766e-08
3.00943e-11
-2.72397e-10
8.04583e-08
-3.18223e-11
-4.14391e-10
8.01149e-08
-8.98599e-11
-5.76173e-10
7.96208e-08
-1.4138e-10
-7.4455e-10
7.89415e-08
-1.88871e-10
-9.16096e-10
7.80287e-08
-2.30719e-10
-1.07709e-09
7.68187e-08
-2.68568e-10
-1.21381e-09
7.52246e-08
-3.01061e-10
-1.31201e-09
7.31302e-08
-3.3022e-10
-1.36163e-09
7.03798e-08
-3.54753e-10
-1.33745e-09
6.67645e-08
-3.7656e-10
-1.22508e-09
6.20054e-08
-3.98026e-10
-9.85072e-10
5.57254e-08
-4.35812e-10
-5.81423e-10
4.74232e-08
-4.85407e-10
2.93571e-08
-4.43724e-10
-8.204e-10
2.74506e-08
1.72614e-09
-1.43737e-09
4.43402e-08
1.7966e-09
-1.93464e-09
5.2194e-08
1.80615e-09
-2.34458e-09
5.82081e-08
1.81595e-09
-2.68023e-09
6.28402e-08
1.81384e-09
-2.94719e-09
6.64326e-08
1.79886e-09
-3.15388e-09
6.92377e-08
1.77533e-09
-3.30554e-09
7.14457e-08
1.74417e-09
-3.40918e-09
7.31966e-08
1.70895e-09
-3.47126e-09
7.4596e-08
1.66933e-09
-3.49477e-09
7.57213e-08
1.62802e-09
-3.48595e-09
7.66313e-08
1.58425e-09
-3.44958e-09
7.7368e-08
1.54039e-09
-3.38817e-09
7.79637e-08
1.49543e-09
-3.30946e-09
7.844e-08
1.45148e-09
-3.21508e-09
7.88129e-08
1.40782e-09
-3.1059e-09
7.90914e-08
1.36661e-09
-2.9866e-09
7.92817e-08
1.32646e-09
-2.85845e-09
7.93842e-08
1.2893e-09
-2.72186e-09
7.93967e-08
1.25367e-09
-2.57876e-09
7.9311e-08
1.22133e-09
-2.42554e-09
7.91158e-08
1.19066e-09
-2.26581e-09
7.87919e-08
1.16323e-09
-2.09716e-09
7.83146e-08
1.13731e-09
-1.91948e-09
7.76482e-08
1.11422e-09
-1.72727e-09
7.67463e-08
1.09201e-09
-1.52522e-09
7.55444e-08
1.07173e-09
-1.31023e-09
7.39584e-08
1.05102e-09
-1.08385e-09
7.18736e-08
1.0304e-09
-8.50462e-10
6.91388e-08
1.00696e-09
-6.14719e-10
6.55492e-08
9.80409e-10
-3.87738e-10
6.08338e-08
9.4444e-10
-1.76206e-10
5.46254e-08
8.88119e-10
2.27658e-12
4.64358e-08
8.08933e-10
2.86493e-08
7.1031e-10
-9.63374e-10
2.66382e-08
1.77283e-09
-1.71011e-09
4.31206e-08
1.97161e-09
-2.35513e-09
5.07845e-08
2.05205e-09
-2.90587e-09
5.6653e-08
2.10615e-09
-3.37368e-09
6.1173e-08
2.13387e-09
-3.76083e-09
6.46762e-08
2.14553e-09
-4.08113e-09
6.74108e-08
2.14504e-09
-4.33143e-09
6.95608e-08
2.13727e-09
-4.52403e-09
7.12645e-08
2.1233e-09
-4.65672e-09
7.26237e-08
2.10628e-09
-4.73814e-09
7.37157e-08
2.08612e-09
-4.76748e-09
7.45961e-08
2.06522e-09
-4.75072e-09
7.53078e-08
2.04296e-09
-4.68841e-09
7.58805e-08
2.02141e-09
-4.58455e-09
7.63369e-08
1.99965e-09
-4.44245e-09
7.66914e-08
1.97954e-09
-4.26516e-09
7.69546e-08
1.95995e-09
-4.057e-09
7.71304e-08
1.94256e-09
-3.81939e-09
7.72207e-08
1.92605e-09
-3.55666e-09
7.72213e-08
1.9119e-09
-3.2686e-09
7.71257e-08
1.89861e-09
-2.9611e-09
7.69207e-08
1.88747e-09
-2.635e-09
7.65891e-08
1.8768e-09
-2.29451e-09
7.61051e-08
1.86768e-09
-1.9389e-09
7.54356e-08
1.85821e-09
-1.5765e-09
7.45337e-08
1.84921e-09
-1.20879e-09
7.33388e-08
1.83847e-09
-8.45316e-10
7.17682e-08
1.82627e-09
-4.93273e-10
6.9713e-08
1.80974e-09
-1.7032e-10
6.70262e-08
1.78824e-09
1.08758e-10
6.35128e-08
1.7575e-09
3.18604e-10
5.8911e-08
1.71356e-09
4.28558e-10
5.28709e-08
1.64354e-09
3.98168e-10
4.49234e-08
1.54368e-09
2.76993e-08
1.34817e-09
-8.78241e-10
2.59721e-08
1.54303e-09
-1.5843e-09
4.20554e-08
1.77351e-09
-2.20928e-09
4.95324e-08
1.87543e-09
-2.75352e-09
5.52572e-08
1.93984e-09
-3.21809e-09
5.96636e-08
1.97627e-09
-3.61392e-09
6.30753e-08
1.995e-09
-3.9396e-09
6.57334e-08
2.00308e-09
-4.19972e-09
6.78188e-08
2.00284e-09
-4.39852e-09
6.94653e-08
1.99794e-09
-4.5381e-09
7.07739e-08
1.989e-09
-4.62049e-09
7.1819e-08
1.97857e-09
-4.6478e-09
7.26568e-08
1.96647e-09
-4.62128e-09
7.33277e-08
1.95469e-09
-4.54739e-09
7.3863e-08
1.94264e-09
-4.42599e-09
7.42833e-08
1.93203e-09
-4.25835e-09
7.46046e-08
1.92204e-09
-4.05764e-09
7.48357e-08
1.91413e-09
-3.81428e-09
7.49826e-08
1.90726e-09
-3.54295e-09
7.50452e-08
1.9027e-09
-3.24146e-09
7.50213e-08
1.89919e-09
-2.91677e-09
7.49028e-08
1.89781e-09
-2.57176e-09
7.46787e-08
1.89707e-09
-2.21084e-09
7.43305e-08
1.89786e-09
-1.83975e-09
7.3835e-08
1.8985e-09
-1.46024e-09
7.3158e-08
1.89963e-09
-1.08343e-09
7.22562e-08
1.8993e-09
-7.10686e-10
7.10693e-08
1.89785e-09
-3.54777e-10
6.95193e-08
1.89284e-09
-2.53811e-11
6.75e-08
1.8839e-09
2.61143e-10
6.48715e-08
1.86766e-09
4.87769e-10
6.14453e-08
1.84228e-09
6.24984e-10
5.69713e-08
1.80144e-09
6.46946e-10
5.11135e-08
1.73647e-09
5.09897e-10
4.34233e-08
1.63903e-09
2.67826e-08
1.42471e-09
-5.9644e-10
2.55643e-08
1.00408e-09
-1.12571e-09
4.14054e-08
1.17911e-09
-1.61982e-09
4.87687e-08
1.25734e-09
-2.06944e-09
5.44029e-08
1.30494e-09
-2.4717e-09
5.87356e-08
1.32922e-09
-2.82021e-09
6.20841e-08
1.34074e-09
-3.11907e-09
6.46872e-08
1.34322e-09
-3.36141e-09
6.67219e-08
1.34029e-09
-3.55207e-09
6.83219e-08
1.33298e-09
-3.68695e-09
6.95857e-08
1.32376e-09
-3.76882e-09
7.05883e-08
1.31283e-09
-3.80089e-09
7.13845e-08
1.30209e-09
-3.77866e-09
7.20161e-08
1.2913e-09
-3.71148e-09
7.25125e-08
1.28204e-09
-3.59898e-09
7.28966e-08
1.27381e-09
-3.44332e-09
7.31827e-08
1.26797e-09
-3.25337e-09
7.33815e-08
1.26378e-09
-3.03161e-09
7.34976e-08
1.26238e-09
-2.78086e-09
7.35327e-08
1.26283e-09
-2.51039e-09
7.34833e-08
1.26601e-09
-2.22021e-09
7.33431e-08
1.27078e-09
-1.92032e-09
7.30997e-08
1.27781e-09
-1.61076e-09
7.27368e-08
1.28572e-09
-1.3028e-09
7.22296e-08
1.295e-09
-9.93601e-10
7.15469e-08
1.30407e-09
-6.96817e-10
7.06441e-08
1.31317e-09
-4.11462e-10
6.94643e-08
1.32048e-09
-1.47153e-10
6.79296e-08
1.32589e-09
8.72098e-11
6.5938e-08
1.32707e-09
2.84067e-10
6.3352e-08
1.32325e-09
4.2557e-10
5.99899e-08
1.31106e-09
5.04193e-10
5.56069e-08
1.28773e-09
4.94582e-10
4.98781e-08
1.24546e-09
3.69582e-10
4.23667e-08
1.17989e-09
2.61306e-08
1.02283e-09
-2.15724e-10
2.54981e-08
2.83495e-10
-5.05692e-10
4.13466e-08
3.46389e-10
-8.20972e-10
4.87098e-08
3.75192e-10
-1.14517e-09
5.43387e-08
3.87837e-10
-1.45825e-09
5.86603e-08
3.88815e-10
-1.75062e-09
6.19935e-08
3.82689e-10
-2.01322e-09
6.45764e-08
3.72587e-10
-2.23717e-09
6.65881e-08
3.59189e-10
-2.42201e-09
6.81613e-08
3.44343e-10
-2.56082e-09
6.93968e-08
3.28319e-10
-2.65584e-09
7.03689e-08
3.12698e-10
-2.70146e-09
7.11342e-08
2.97489e-10
-2.70239e-09
7.17339e-08
2.84082e-10
-2.66304e-09
7.21996e-08
2.72282e-10
-2.58282e-09
7.25529e-08
2.63321e-10
-2.46649e-09
7.28104e-08
2.56802e-10
-2.31962e-09
7.29817e-08
2.53746e-10
-2.15064e-09
7.30729e-08
2.53536e-10
-1.95774e-09
7.3085e-08
2.56972e-10
-1.75495e-09
7.30157e-08
2.63202e-10
-1.54211e-09
7.28577e-08
2.72784e-10
-1.32652e-09
7.26001e-08
2.84652e-10
-1.11475e-09
7.2225e-08
2.99148e-10
-9.07111e-10
7.17093e-08
3.15019e-10
-7.13276e-10
7.10199e-08
3.32432e-10
-5.33638e-10
7.01143e-08
3.49987e-10
-3.70986e-10
6.8934e-08
3.67714e-10
-2.29064e-10
6.74031e-08
3.84075e-10
-1.07889e-10
6.54186e-08
3.98922e-10
-1.0639e-11
6.28452e-08
4.1052e-10
5.84928e-11
5.9501e-08
4.18368e-10
1.0065e-10
5.51447e-08
4.20147e-10
1.12969e-10
4.94523e-08
4.14036e-10
8.98579e-11
4.19916e-08
3.9845e-10
2.58697e-08
3.5051e-10
1.39144e-10
2.57927e-08
-4.32791e-10
7.70468e-11
4.18984e-08
-4.91207e-10
-7.26317e-11
4.93767e-08
-5.17373e-10
-2.763e-10
5.50858e-08
-5.41639e-10
-5.11983e-10
5.94609e-08
-5.66624e-10
-7.54146e-10
6.28269e-08
-5.91332e-10
-9.88384e-10
6.54272e-08
-6.16323e-10
-1.20243e-09
6.74435e-08
-6.41008e-10
-1.3871e-09
6.90126e-08
-6.65663e-10
-1.53763e-09
7.02366e-08
-6.89297e-10
-1.65117e-09
7.11929e-08
-7.11905e-10
-1.72106e-09
7.19384e-08
-7.32381e-10
-1.7548e-09
7.2517e-08
-7.50722e-10
-1.74987e-09
7.296e-08
-7.65861e-10
-1.70849e-09
7.32914e-08
-7.7789e-10
-1.6403e-09
7.35269e-08
-7.85897e-10
-1.54613e-09
7.36781e-08
-7.90157e-10
-1.43318e-09
7.37504e-08
-7.89968e-10
-1.30938e-09
7.37461e-08
-7.85846e-10
-1.17825e-09
7.3662e-08
-7.77326e-10
-1.04601e-09
7.34918e-08
-7.65182e-10
-9.19861e-10
7.32231e-08
-7.49192e-10
-8.05484e-10
7.28393e-08
-7.30304e-10
-7.01932e-10
7.23153e-08
-7.08442e-10
-6.16118e-10
7.16189e-08
-6.84695e-10
-5.48424e-10
7.07054e-08
-6.5909e-10
-4.97473e-10
6.95166e-08
-6.32715e-10
-4.62665e-10
6.7974e-08
-6.05541e-10
-4.39141e-10
6.59744e-08
-5.78484e-10
-4.23284e-10
6.33793e-08
-5.51217e-10
-4.01895e-10
6.00057e-08
-5.24227e-10
-3.68845e-10
5.56076e-08
-4.96381e-10
-3.08945e-10
4.98581e-08
-4.66612e-10
-2.06155e-10
4.23185e-08
-4.29836e-10
2.60243e-08
-3.60222e-10
3.81524e-10
2.63843e-08
-9.71303e-10
4.79077e-10
4.29256e-08
-1.12663e-09
4.50492e-10
5.06012e-08
-1.19648e-09
3.35479e-10
5.64534e-08
-1.25095e-09
1.63164e-10
6.09293e-08
-1.29657e-09
-3.86008e-11
6.4365e-08
-1.33706e-09
-2.46208e-10
6.70104e-08
-1.37399e-09
-4.50222e-10
6.90541e-08
-1.40869e-09
-6.31819e-10
7.06364e-08
-1.44121e-09
-7.86335e-10
7.18639e-08
-1.4719e-09
-9.09901e-10
7.28158e-08
-1.50014e-09
-9.98614e-10
7.35524e-08
-1.52587e-09
-1.04968e-09
7.41182e-08
-1.54825e-09
-1.07076e-09
7.4547e-08
-1.56717e-09
-1.06049e-09
7.4863e-08
-1.58179e-09
-1.02488e-09
7.50839e-08
-1.59213e-09
-9.70944e-10
7.52207e-08
-1.59753e-09
-9.02403e-10
7.52804e-08
-1.59819e-09
-8.26671e-10
7.52644e-08
-1.59371e-09
-7.50818e-10
7.51707e-08
-1.58452e-09
-6.80901e-10
7.49917e-08
-1.57046e-09
-6.20799e-10
7.47158e-08
-1.55218e-09
-5.77386e-10
7.43246e-08
-1.52974e-09
-5.50458e-10
7.37935e-08
-1.50399e-09
-5.44754e-10
7.3088e-08
-1.47509e-09
-5.59282e-10
7.21631e-08
-1.44388e-09
-5.89966e-10
7.09577e-08
-1.41044e-09
-6.3144e-10
6.93919e-08
-1.37535e-09
-6.78486e-10
6.73586e-08
-1.33826e-09
-7.15517e-10
6.47164e-08
-1.29908e-09
-7.31354e-10
6.12759e-08
-1.25641e-09
-6.99979e-10
5.67861e-08
-1.20831e-09
-6.03785e-10
5.09096e-08
-1.14952e-09
-4.09111e-10
4.31976e-08
-1.07182e-09
2.65235e-08
-9.08993e-10
4.67314e-10
2.71556e-08
-1.23727e-09
6.31762e-10
4.41983e-08
-1.4395e-09
6.62745e-10
5.21028e-08
-1.53143e-09
5.94114e-10
5.81225e-08
-1.60103e-09
4.61594e-10
6.27191e-08
-1.65745e-09
2.9282e-10
6.62399e-08
-1.70586e-09
1.10576e-10
6.89437e-08
-1.74937e-09
-7.2268e-11
7.1025e-08
-1.78923e-09
-2.38735e-10
7.26301e-08
-1.82643e-09
-3.83621e-10
7.38687e-08
-1.86089e-09
-4.97841e-10
7.48238e-08
-1.89272e-09
-5.82356e-10
7.55576e-08
-1.92132e-09
-6.33895e-10
7.61172e-08
-1.94647e-09
-6.5668e-10
7.65372e-08
-1.96748e-09
-6.54266e-10
7.68436e-08
-1.98412e-09
-6.2794e-10
7.70544e-08
-1.99578e-09
-5.86459e-10
7.71821e-08
-2.00241e-09
-5.36733e-10
7.72331e-08
-2.0036e-09
-4.81434e-10
7.72101e-08
-1.99954e-09
-4.31707e-10
7.711e-08
-1.99005e-09
-3.90907e-10
7.6926e-08
-1.97559e-09
-3.63422e-10
7.66453e-08
-1.95621e-09
-3.55886e-10
7.62493e-08
-1.93257e-09
-3.70213e-10
7.57119e-08
-1.9049e-09
-4.04393e-10
7.4998e-08
-1.87391e-09
-4.62109e-10
7.406e-08
-1.83983e-09
-5.37374e-10
7.28355e-08
-1.80326e-09
-6.23688e-10
7.12411e-08
-1.7641e-09
-7.06758e-10
6.91665e-08
-1.72236e-09
-7.78682e-10
6.6465e-08
-1.67708e-09
-8.18524e-10
6.29417e-08
-1.62698e-09
-7.99621e-10
5.83371e-08
-1.56869e-09
-6.9752e-10
5.23034e-08
-1.496e-09
-4.78622e-10
4.43777e-08
-1.39855e-09
2.72353e-08
-1.19101e-09
4.15382e-10
2.79596e-08
-1.2186e-09
5.64369e-10
4.54629e-08
-1.41397e-09
5.91559e-10
5.35782e-08
-1.5039e-09
5.34723e-10
5.97532e-08
-1.57287e-09
4.20159e-10
6.44622e-08
-1.62872e-09
2.74158e-10
6.80632e-08
-1.67701e-09
1.16544e-10
7.08221e-08
-1.7204e-09
-3.84986e-11
7.29402e-08
-1.76049e-09
-1.77367e-10
7.45678e-08
-1.79782e-09
-2.9627e-10
7.58187e-08
-1.8327e-09
-3.84914e-10
7.67785e-08
-1.86482e-09
-4.46464e-10
7.7512e-08
-1.89396e-09
-4.7766e-10
7.80676e-08
-1.9195e-09
-4.80188e-10
7.84819e-08
-1.94111e-09
-4.60136e-10
7.87814e-08
-1.95817e-09
-4.20042e-10
7.89855e-08
-1.97045e-09
-3.66225e-10
7.91066e-08
-1.9775e-09
-3.07173e-10
7.91523e-08
-1.97928e-09
-2.45427e-10
7.91247e-08
-1.97559e-09
-1.91026e-10
7.90214e-08
-1.96664e-09
-1.47155e-10
7.88347e-08
-1.9525e-09
-1.19625e-10
7.85517e-08
-1.9336e-09
-1.14577e-10
7.81531e-08
-1.91022e-09
-1.29231e-10
7.76119e-08
-1.88296e-09
-1.72658e-10
7.68912e-08
-1.85219e-09
-2.35967e-10
7.59426e-08
-1.8185e-09
-3.18613e-10
7.47009e-08
-1.78214e-09
-4.13687e-10
7.30804e-08
-1.7434e-09
-5.13612e-10
7.09669e-08
-1.70198e-09
-6.01005e-10
6.821e-08
-1.65728e-09
-6.6022e-10
6.46081e-08
-1.60775e-09
-6.65919e-10
5.98952e-08
-1.55052e-09
-5.97167e-10
5.37125e-08
-1.47934e-09
-4.21182e-10
4.55857e-08
-1.38554e-09
2.80028e-08
-1.18637e-09
2.64899e-10
2.86683e-08
-9.74157e-10
3.3698e-10
4.65098e-08
-1.11825e-09
3.21114e-10
5.47808e-08
-1.18685e-09
2.46011e-10
6.10706e-08
-1.24203e-09
1.32626e-10
6.58626e-08
-1.28831e-09
3.94113e-12
6.95223e-08
-1.32944e-09
-1.27608e-10
7.23214e-08
-1.36748e-09
-2.49959e-10
7.44654e-08
-1.40328e-09
-3.54736e-10
7.61085e-08
-1.4373e-09
-4.32576e-10
7.73669e-08
-1.46942e-09
-4.83128e-10
7.83287e-08
-1.49939e-09
-5.06201e-10
7.90602e-08
-1.52671e-09
-4.97617e-10
7.96117e-08
-1.55093e-09
-4.66449e-10
8.00203e-08
-1.57146e-09
-4.10217e-10
8.0314e-08
-1.58789e-09
-3.38081e-10
8.05124e-08
-1.59975e-09
-2.53845e-10
8.06289e-08
-1.60679e-09
-1.61875e-10
8.06708e-08
-1.60876e-09
-7.45553e-11
8.06408e-08
-1.60568e-09
9.34564e-12
8.05362e-08
-1.59753e-09
7.94412e-11
8.03492e-08
-1.58458e-09
1.32318e-10
8.00665e-08
-1.56707e-09
1.61814e-10
7.96681e-08
-1.54549e-09
1.65862e-10
7.91263e-08
-1.52025e-09
1.47234e-10
7.84034e-08
-1.49192e-09
1.01717e-10
7.74491e-08
-1.46098e-09
3.36488e-11
7.61969e-08
-1.42793e-09
-5.18205e-11
7.45589e-08
-1.39299e-09
-1.45948e-10
7.24183e-08
-1.35628e-09
-2.40573e-10
6.96211e-08
-1.31736e-09
-3.1824e-10
6.59616e-08
-1.27533e-09
-3.6278e-10
6.1168e-08
-1.22804e-09
-3.54245e-10
5.48745e-08
-1.17124e-09
-2.67694e-10
4.6598e-08
-1.09984e-09
2.8689e-08
-9.52843e-10
7.34892e-11
2.91899e-08
-5.96666e-10
3.93489e-11
4.72081e-08
-6.62919e-10
-4.23439e-11
5.55607e-08
-6.98372e-10
-1.49783e-10
6.19105e-08
-7.31903e-10
-2.69227e-10
6.67449e-08
-7.62885e-10
-3.89099e-10
7.04334e-08
-7.92621e-10
-4.95385e-10
7.32506e-08
-8.21763e-10
-5.84431e-10
7.54048e-08
-8.50511e-10
-6.48694e-10
7.70516e-08
-8.78737e-10
-6.85717e-10
7.83094e-08
-9.06085e-10
-6.92552e-10
7.92675e-08
-9.32046e-10
-6.68732e-10
7.99933e-08
-9.56072e-10
-6.18016e-10
8.05379e-08
-9.77565e-10
-5.41463e-10
8.09396e-08
-9.95979e-10
-4.42837e-10
8.12268e-08
-1.0108e-09
-3.27712e-10
8.14197e-08
-1.02163e-09
-2.04028e-10
8.15318e-08
-1.02814e-09
-7.30219e-11
8.1571e-08
-1.03015e-09
5.45562e-11
8.15398e-08
-1.02759e-09
1.7647e-10
8.14356e-08
-1.02054e-09
2.84398e-10
8.12505e-08
-1.00916e-09
3.73493e-10
8.09707e-08
-9.93796e-10
4.40617e-10
8.05759e-08
-9.74838e-10
4.82854e-10
8.00378e-08
-9.5281e-10
4.96329e-10
7.93178e-08
-9.28246e-10
4.81456e-10
7.8365e-08
-9.01744e-10
4.40908e-10
7.71117e-08
-8.73854e-10
3.77432e-10
7.54685e-08
-8.45076e-10
2.93365e-10
7.33172e-08
-8.15755e-10
1.98924e-10
7.05017e-08
-7.86017e-10
1.02222e-10
6.68141e-08
-7.5565e-10
1.40668e-11
6.19796e-08
-7.23913e-10
-5.06381e-11
5.56288e-08
-6.89147e-10
-7.61363e-11
4.72743e-08
-6.51565e-10
2.91965e-08
-5.83016e-10
-1.1192e-10
2.94847e-08
-1.83095e-10
-2.53237e-10
4.75144e-08
-1.64164e-10
-4.02998e-10
5.58731e-08
-1.63048e-10
-5.45527e-10
6.22262e-08
-1.72466e-10
-6.75011e-10
6.70607e-08
-1.86318e-10
-7.85594e-10
7.07463e-08
-2.03092e-10
-8.70618e-10
7.35583e-08
-2.21952e-10
-9.29306e-10
7.57051e-08
-2.42219e-10
-9.5679e-10
7.73431e-08
-2.63495e-10
-9.52363e-10
7.8591e-08
-2.85072e-10
-9.1914e-10
7.95386e-08
-3.06166e-10
-8.53142e-10
8.02541e-08
-3.2611e-10
-7.58508e-10
8.07888e-08
-3.44233e-10
-6.41017e-10
8.11815e-08
-3.59949e-10
-5.02775e-10
8.14609e-08
-3.72723e-10
-3.48219e-10
8.16476e-08
-3.82144e-10
-1.83194e-10
8.17554e-08
-3.87884e-10
-1.61237e-11
8.17923e-08
-3.8976e-10
1.52204e-10
8.17608e-08
-3.87695e-10
3.11758e-10
8.16584e-08
-3.81769e-10
4.55576e-10
8.14769e-08
-3.72153e-10
5.83269e-10
8.12025e-08
-3.59175e-10
6.89659e-10
8.08145e-08
-3.43239e-10
7.66964e-10
8.02843e-08
-3.24888e-10
8.16222e-10
7.9573e-08
-3.04687e-10
8.36044e-10
7.86291e-08
-2.83311e-10
8.24459e-10
7.73843e-08
-2.61436e-10
7.84099e-10
7.57491e-08
-2.39762e-10
7.14831e-10
7.36046e-08
-2.19041e-10
6.22556e-10
7.07943e-08
-1.99927e-10
5.09401e-10
6.71099e-08
-1.82804e-10
3.8087e-10
6.22764e-08
-1.68405e-10
2.44732e-10
5.5924e-08
-1.58028e-10
1.11255e-10
4.75659e-08
-1.57465e-10
2.9482e-08
-1.74598e-10
-2.56878e-10
2.95524e-08
1.8991e-10
-4.84743e-10
4.74563e-08
2.86616e-10
-6.93149e-10
5.57577e-08
3.21187e-10
-8.66205e-10
6.20666e-08
3.33992e-10
-1.00762e-09
6.68657e-08
3.36064e-10
-1.11365e-09
7.05217e-08
3.31385e-10
-1.18636e-09
7.33082e-08
3.2185e-10
-1.22308e-09
7.54323e-08
3.08811e-10
-1.22233e-09
7.70497e-08
2.93568e-10
-1.18772e-09
7.82789e-08
2.77201e-10
-1.1184e-09
7.92095e-08
2.60527e-10
-1.01949e-09
7.99096e-08
2.44402e-10
-8.92e-10
8.04308e-08
2.29489e-10
-7.36846e-10
8.08121e-08
2.16407e-10
-5.66354e-10
8.10821e-08
2.05656e-10
-3.75881e-10
8.12618e-08
1.97679e-10
-1.79309e-10
8.13649e-08
1.92751e-10
2.21295e-11
8.13996e-08
1.91092e-10
2.23251e-10
8.13685e-08
1.92735e-10
4.13341e-10
8.12689e-08
1.97644e-10
5.92372e-10
8.10927e-08
2.05614e-10
7.51591e-10
8.0826e-08
2.16361e-10
8.89069e-10
8.0448e-08
2.29448e-10