/*--------------------------------*- C++ -*----------------------------------*\
| =========                 |                                                 |
| \\      /  F ield         | OpenFOAM: The Open Source CFD Toolbox           |
|  \\    /   O peration     | Version:  v2012                                 |
|   \\  /    A nd           | Website:  www.openfoam.com                      |
|    \\/     M anipulation  |                                                 |
\*---------------------------------------------------------------------------*/
FoamFile
{
    version     2.0;
    format      ascii;
    class       volVectorField;
    location    "80";
    object      U;
}
// * * * * * * * * * * * * * * * * * * * * * * * * * * * * * * * * * * * * * //

dimensions      [0 1 -1 0 0 0 0];


internalField   nonuniform List<vector> 
78750
(
(-1.14152e-06 -6.41703e-05 0.000126125)
(-2.41718e-06 -9.18566e-05 0.000220822)
(-7.79863e-06 -9.6079e-05 0.000269412)
(-1.64307e-05 -9.1122e-05 0.000303001)
(-2.86206e-05 -8.08944e-05 0.00032491)
(-4.38593e-05 -6.77652e-05 0.000337804)
(-6.14897e-05 -5.34609e-05 0.000343639)
(-8.07876e-05 -3.9108e-05 0.000343989)
(-0.000101051 -2.55868e-05 0.000340022)
(-0.000121726 -1.32846e-05 0.0003327)
(-0.000142223 -2.59615e-06 0.00032275)
(-0.000162039 6.36769e-06 0.000310814)
(-0.000180732 1.34905e-05 0.000297356)
(-0.000197906 1.88316e-05 0.000282824)
(-0.000213225 2.23888e-05 0.000267548)
(-0.000226383 2.42894e-05 0.000251878)
(-0.000237156 2.45747e-05 0.000236081)
(-0.000245342 2.33948e-05 0.000220461)
(-0.00025079 2.08051e-05 0.000205258)
(-0.000253395 1.69549e-05 0.000190751)
(-0.000253084 1.19118e-05 0.000177159)
(-0.000249826 5.83543e-06 0.00016473)
(-0.00024362 -1.18266e-06 0.000153648)
(-0.000234508 -8.96685e-06 0.000144105)
(-0.000222568 -1.7384e-05 0.000136203)
(-0.000207905 -2.62042e-05 0.000130012)
(-0.00019067 -3.51976e-05 0.000125475)
(-0.000171035 -4.40008e-05 0.000122435)
(-0.000149214 -5.22041e-05 0.000120566)
(-0.000125474 -5.92032e-05 0.000119325)
(-0.000100041 -6.42419e-05 0.000117836)
(-7.30521e-05 -6.62414e-05 0.000114772)
(-4.53936e-05 -6.37523e-05 0.0001082)
(-2.25967e-05 -5.48316e-05 9.52044e-05)
(-6.10032e-06 -3.16162e-05 6.10846e-05)
(-2.28773e-06 9.38994e-05 -0.000183776)
(-1.681e-05 0.000196581 -0.000278402)
(-3.30906e-05 0.000252373 -0.00031353)
(-5.71e-05 0.000297496 -0.000342888)
(-8.27369e-05 0.00033235 -0.000366593)
(-0.000108295 0.000357775 -0.000384996)
(-0.000133009 0.00037528 -0.000399307)
(-0.000156358 0.000385621 -0.000410929)
(-0.00017784 0.000390078 -0.000420293)
(-0.00019715 0.000389118 -0.000428046)
(-0.000214045 0.000383776 -0.000434238)
(-0.000228362 0.000374356 -0.000439271)
(-0.000240062 0.000361671 -0.000443099)
(-0.000249098 0.000345928 -0.000446021)
(-0.000255454 0.000327882 -0.000447913)
(-0.000259196 0.000307648 -0.000449029)
(-0.00026036 0.000285891 -0.000449234)
(-0.000259057 0.000262695 -0.000448741)
(-0.000255371 0.000238653 -0.000447414)
(-0.000249426 0.000213833 -0.000445419)
(-0.000241391 0.000188652 -0.000442659)
(-0.000231418 0.000163174 -0.000439257)
(-0.000219652 0.000137868 -0.000435054)
(-0.000206293 0.000112785 -0.000430112)
(-0.000191512 8.83284e-05 -0.000424226)
(-0.00017551 6.45453e-05 -0.000417368)
(-0.000158454 4.17948e-05 -0.000409167)
(-0.000140561 2.01314e-05 -0.00039924)
(-0.000122024 -1.05129e-07 -0.000386796)
(-0.000103046 -1.88195e-05 -0.000370855)
(-8.3689e-05 -3.55954e-05 -0.000349776)
(-6.37195e-05 -5.00176e-05 -0.00032065)
(-4.31166e-05 -6.07748e-05 -0.000276638)
(-2.62469e-05 -6.47539e-05 -0.000209566)
(-1.44286e-05 -4.52339e-05 -7.40769e-05)
(-1.54512e-07 0.000254185 -0.000144633)
(-8.25621e-06 0.000435492 -0.000236147)
(-1.51515e-05 0.000514991 -0.000273242)
(-2.60373e-05 0.000571275 -0.000297988)
(-3.75511e-05 0.000609351 -0.000315315)
(-4.8804e-05 0.000633674 -0.000327784)
(-5.95268e-05 0.000646766 -0.000337286)
(-6.94873e-05 0.000651268 -0.000344615)
(-7.85216e-05 0.000648476 -0.000350626)
(-8.64782e-05 0.000640077 -0.000355495)
(-9.32992e-05 0.00062673 -0.000359668)
(-9.89104e-05 0.00060963 -0.000363063)
(-0.000103336 0.000589108 -0.000365966)
(-0.000106554 0.000566087 -0.000368211)
(-0.000108622 0.000540741 -0.000370016)
(-0.000109551 0.000513832 -0.000371201)
(-0.00010942 0.000485463 -0.00037195)
(-0.000108254 0.000456272 -0.000372103)
(-0.000106158 0.000426424 -0.000371745)
(-0.000103176 0.000396446 -0.000370744)
(-9.94007e-05 0.000366377 -0.000369266)
(-9.49169e-05 0.000336693 -0.000367156)
(-8.98434e-05 0.000307427 -0.000364504)
(-8.42477e-05 0.00027899 -0.000361142)
(-7.82432e-05 0.000251383 -0.000357104)
(-7.1882e-05 0.000224936 -0.000352151)
(-6.52615e-05 0.000199613 -0.000346167)
(-5.84101e-05 0.000175659 -0.0003387)
(-5.14101e-05 0.000152991 -0.000329273)
(-4.42747e-05 0.000131759 -0.000316924)
(-3.70183e-05 0.000111795 -0.000300301)
(-2.94267e-05 9.31251e-05 -0.000276778)
(-2.12329e-05 7.53879e-05 -0.000241846)
(-1.35299e-05 5.84727e-05 -0.000190159)
(-9.04468e-06 3.18762e-05 -7.59397e-05)
(-3.06756e-07 0.000338259 -1.66252e-05)
(-3.89231e-06 0.000557741 -7.72612e-05)
(-4.72667e-06 0.000655163 -0.000111745)
(-7.1457e-06 0.000724278 -0.000136014)
(-9.85981e-06 0.000771773 -0.000152157)
(-1.27004e-05 0.000802239 -0.000164226)
(-1.5534e-05 0.00081963 -0.000174075)
(-1.83164e-05 0.000826394 -0.000182837)
(-2.09266e-05 0.000825004 -0.000190821)
(-2.33245e-05 0.000816756 -0.000198539)
(-2.54246e-05 0.000803292 -0.000205963)
(-2.72278e-05 0.000785296 -0.000213363)
(-2.86848e-05 0.000763945 -0.000220559)
(-2.98166e-05 0.000739606 -0.000227714)
(-3.06046e-05 0.000713182 -0.000234598)
(-3.10905e-05 0.000684878 -0.000241326)
(-3.12717e-05 0.00065542 -0.000247669)
(-3.12001e-05 0.000624928 -0.000253715)
(-3.0886e-05 0.000593987 -0.000259261)
(-3.03859e-05 0.000562676 -0.000264373)
(-2.97005e-05 0.000531677 -0.000268749)
(-2.89091e-05 0.000501012 -0.000272452)
(-2.80218e-05 0.000471062 -0.000275304)
(-2.70963e-05 0.000441779 -0.000277344)
(-2.61416e-05 0.000413461 -0.000278357)
(-2.5182e-05 0.000385877 -0.000278392)
(-2.41977e-05 0.000359183 -0.000277168)
(-2.31899e-05 0.000333125 -0.000274537)
(-2.20848e-05 0.000307629 -0.000270028)
(-2.0837e-05 0.000282208 -0.00026316)
(-1.92809e-05 0.000256424 -0.000253011)
(-1.71181e-05 0.000229378 -0.000238631)
(-1.37559e-05 0.00019998 -0.000218366)
(-9.45496e-06 0.000166642 -0.000187583)
(-7.12215e-06 0.000101996 -9.98186e-05)
(-1.96221e-06 0.000365601 5.92678e-05)
(-4.32173e-06 0.00058776 2.63477e-05)
(-3.01968e-06 0.000687722 -1.47679e-06)
(-1.64412e-06 0.000760247 -2.20343e-05)
(1.82724e-07 0.000811321 -3.56938e-05)
(2.21422e-06 0.000846015 -4.60268e-05)
(4.30553e-06 0.000867598 -5.51222e-05)
(6.36566e-06 0.000879138 -6.35596e-05)
(8.33425e-06 0.000882412 -7.18819e-05)
(1.01839e-05 0.000879387 -8.00474e-05)
(1.1871e-05 0.000871025 -8.83571e-05)
(1.33861e-05 0.00085866 -9.66998e-05)
(1.46974e-05 0.000842807 -0.000105221)
(1.58034e-05 0.000824439 -0.000113722)
(1.66709e-05 0.000803827 -0.000122283)
(1.73042e-05 0.000781726 -0.000130679)
(1.76619e-05 0.00075827 -0.000138966)
(1.77523e-05 0.000734064 -0.000146919)
(1.75371e-05 0.000709163 -0.00015458)
(1.70181e-05 0.000684086 -0.000161729)
(1.61672e-05 0.000658857 -0.000168386)
(1.50099e-05 0.000633858 -0.00017436)
(1.35339e-05 0.000609002 -0.00017968)
(1.17711e-05 0.000584544 -0.000184167)
(9.71973e-06 0.00056029 -0.00018784)
(7.43259e-06 0.000536321 -0.000190517)
(4.93348e-06 0.000512268 -0.000192184)
(2.31258e-06 0.000487944 -0.000192623)
(-3.50463e-07 0.000462671 -0.000191707)
(-2.90507e-06 0.00043582 -0.00018904)
(-5.19197e-06 0.000406145 -0.000184294)
(-6.86737e-06 0.000372253 -0.000177336)
(-7.27616e-06 0.00033177 -0.000168477)
(-5.81198e-06 0.00028196 -0.000153613)
(-5.22555e-06 0.000178138 -9.14911e-05)
(-2.26316e-06 0.000371348 9.16162e-05)
(-3.71124e-06 0.000583691 7.49566e-05)
(-2.05702e-06 0.00068063 5.34438e-05)
(2.06663e-07 0.000752118 3.66844e-05)
(3.1684e-06 0.000804232 2.55325e-05)
(6.46736e-06 0.000841079 1.67263e-05)
(9.88911e-06 0.000866249 8.81068e-06)
(1.32796e-05 0.000881995 1.15094e-06)
(1.65506e-05 0.000890553 -6.37057e-06)
(1.96027e-05 0.000893143 -1.41222e-05)
(2.23917e-05 0.000891191 -2.20468e-05)
(2.4864e-05 0.000885341 -3.02715e-05)
(2.69947e-05 0.000876591 -3.86114e-05)
(2.87396e-05 0.000865278 -4.71202e-05)
(3.00901e-05 0.000852146 -5.56242e-05)
(3.10152e-05 0.000837356 -6.41503e-05)
(3.1518e-05 0.000821487 -7.2509e-05)
(3.1569e-05 0.000804597 -8.07195e-05)
(3.11793e-05 0.000787143 -8.85942e-05)
(3.03298e-05 0.000769103 -9.61515e-05)
(2.90443e-05 0.000750825 -0.000103217)
(2.73165e-05 0.00073221 -0.000109809)
(2.51853e-05 0.000713495 -0.000115766)
(2.26565e-05 0.000694479 -0.000121105)
(1.97834e-05 0.000675229 -0.000125676)
(1.65997e-05 0.000655348 -0.000129501)
(1.31881e-05 0.000634627 -0.00013244)
(9.62052e-06 0.000612362 -0.000134501)
(6.03196e-06 0.000587904 -0.000135501)
(2.54335e-06 0.000560007 -0.000135333)
(-6.46989e-07 0.000527249 -0.000133762)
(-3.24965e-06 0.000487413 -0.0001312)
(-4.6463e-06 0.000437691 -0.000128481)
(-4.18627e-06 0.000374122 -0.000122292)
(-4.01948e-06 0.000238267 -7.79241e-05)
(-1.7549e-06 0.000361077 9.1974e-05)
(-2.36984e-06 0.000562323 8.24112e-05)
(-8.42734e-07 0.000654992 6.5757e-05)
(1.36928e-06 0.000724668 5.25626e-05)
(4.17942e-06 0.000776614 4.36823e-05)
(7.28215e-06 0.000815054 3.66656e-05)
(1.05001e-05 0.00084285 3.01606e-05)
(1.37075e-05 0.000862528 2.38493e-05)
(1.6804e-05 0.000875603 1.75015e-05)
(1.97159e-05 0.000883642 1.11154e-05)
(2.23752e-05 0.000887469 4.55369e-06)
(2.47371e-05 0.000888123 -2.09869e-06)
(2.67634e-05 0.00088602 -8.95526e-06)
(2.84219e-05 0.000881888 -1.58743e-05)
(2.96826e-05 0.000875911 -2.28744e-05)
(3.05361e-05 0.000868628 -2.9815e-05)
(3.09597e-05 0.000860094 -3.67107e-05)
(3.09542e-05 0.000850721 -4.3415e-05)
(3.05089e-05 0.000840475 -4.99426e-05)
(2.96371e-05 0.000829663 -5.61513e-05)
(2.83339e-05 0.000818169 -6.20585e-05)
(2.6626e-05 0.000806191 -6.75321e-05)
(2.45207e-05 0.000793506 -7.2594e-05)
(2.20654e-05 0.000780162 -7.71242e-05)
(1.92846e-05 0.000765772 -8.115e-05)
(1.62434e-05 0.000750152 -8.45628e-05)
(1.29979e-05 0.000732636 -8.73941e-05)
(9.64642e-06 0.000712653 -8.95426e-05)
(6.28449e-06 0.000689043 -9.10146e-05)
(3.04807e-06 0.000660566 -9.16453e-05)
(8.71997e-08 0.000625178 -9.14322e-05)
(-2.33709e-06 0.000580457 -9.0749e-05)
(-3.72663e-06 0.000522766 -9.0654e-05)
(-3.51277e-06 0.000447563 -8.84585e-05)
(-3.26625e-06 0.000284602 -5.71414e-05)
(-1.10767e-06 0.000347445 7.7583e-05)
(-1.24476e-06 0.000542545 7.13338e-05)
(-2.41058e-07 0.000633067 5.92502e-05)
(1.23228e-06 0.000701751 4.95031e-05)
(3.07186e-06 0.000754004 4.29211e-05)
(5.10303e-06 0.000793524 3.762e-05)
(7.21364e-06 0.000823433 3.27653e-05)
(9.3334e-06 0.000845732 2.80104e-05)
(1.13924e-05 0.000862274 2.3308e-05)
(1.33366e-05 0.00087412 1.85187e-05)
(1.51159e-05 0.00088242 1.36763e-05)
(1.66981e-05 0.000887711 8.70965e-06)
(1.80446e-05 0.000890747 3.71759e-06)
(1.91368e-05 0.000891776 -1.35617e-06)
(1.99553e-05 0.000891323 -6.40565e-06)
(2.04784e-05 0.000889461 -1.1458e-05)
(2.07009e-05 0.000886576 -1.63998e-05)
(2.06124e-05 0.000882634 -2.12546e-05)
(2.02161e-05 0.000877913 -2.59114e-05)
(1.95048e-05 0.000872293 -3.03969e-05)
(1.85001e-05 0.000865952 -3.46054e-05)
(1.72043e-05 0.000858671 -3.85687e-05)
(1.56421e-05 0.000850501 -4.21881e-05)
(1.38345e-05 0.000841083 -4.55008e-05)
(1.18222e-05 0.000830273 -4.84162e-05)
(9.64096e-06 0.00081748 -5.09768e-05)
(7.35174e-06 0.000802238 -5.30992e-05)
(5.01323e-06 0.000783548 -5.48296e-05)
(2.71536e-06 0.000760384 -5.60724e-05)
(5.45422e-07 0.000731026 -5.68269e-05)
(-1.36871e-06 0.000693454 -5.70031e-05)
(-2.84528e-06 0.000644665 -5.70068e-05)
(-3.51942e-06 0.000580851 -5.75626e-05)
(-3.09546e-06 0.0004967 -5.68076e-05)
(-2.57035e-06 0.000313549 -3.53304e-05)
(-8.56718e-07 0.00033405 6.19406e-05)
(-9.72797e-07 0.00052737 5.98512e-05)
(-6.00062e-07 0.000617236 5.27585e-05)
(-3.30392e-08 0.000685954 4.68411e-05)
(7.47796e-07 0.000738576 4.2692e-05)
(1.64945e-06 0.000779113 3.92839e-05)
(2.61761e-06 0.000810306 3.60492e-05)
(3.61269e-06 0.000834473 3.28979e-05)
(4.6022e-06 0.000853072 2.97276e-05)
(5.55478e-06 0.000867483 2.65623e-05)
(6.44156e-06 0.000878453 2.33274e-05)
(7.24001e-06 0.000886839 2.00826e-05)
(7.92285e-06 0.000892992 1.67863e-05)
(8.47861e-06 0.000897477 1.34959e-05)
(8.88983e-06 0.00090042 1.01768e-05)
(9.15395e-06 0.000902203 6.91078e-06)
(9.25295e-06 0.000902817 3.69524e-06)
(9.18349e-06 0.000902529 6.12525e-07)
(8.94191e-06 0.000901231 -2.37828e-06)
(8.53218e-06 0.000899094 -5.19408e-06)
(7.95489e-06 0.000895916 -7.87747e-06)
(7.22522e-06 0.00089176 -1.03491e-05)
(6.34827e-06 0.000886305 -1.26561e-05)
(5.34801e-06 0.000879456 -1.47239e-05)
(4.24385e-06 0.000870702 -1.66047e-05)
(3.06705e-06 0.000859695 -1.823e-05)
(1.85262e-06 0.000845598 -1.96572e-05)
(6.43801e-07 0.000827624 -2.08248e-05)
(-5.11783e-07 0.00080436 -2.1785e-05)
(-1.54846e-06 0.000774247 -2.24561e-05)
(-2.4008e-06 0.000734838 -2.29026e-05)
(-2.94783e-06 0.000683201 -2.33332e-05)
(-2.97892e-06 0.000615026 -2.43668e-05)
(-2.3801e-06 0.000524907 -2.47948e-05)
(-1.76377e-06 0.000328374 -1.2988e-05)
(-1.02611e-06 0.000322462 5.06138e-05)
(-1.41971e-06 0.000515085 5.43087e-05)
(-1.67269e-06 0.000604757 5.23994e-05)
(-1.93217e-06 0.000673372 5.02831e-05)
(-2.03731e-06 0.000726225 4.86328e-05)
(-2.01899e-06 0.000767073 4.70256e-05)
(-1.92287e-06 0.000798935 4.53525e-05)
(-1.75805e-06 0.000823829 4.35593e-05)
(-1.55247e-06 0.000843502 4.1719e-05)
(-1.31635e-06 0.000859011 3.97942e-05)
(-1.06702e-06 0.000871397 3.78498e-05)
(-8.15744e-07 0.000881182 3.5847e-05)
(-5.76236e-07 0.000889008 3.38537e-05)
(-3.61515e-07 0.000895086 3.18647e-05)
(-1.82668e-07 0.000899835 2.99557e-05)
(-5.2845e-08 0.000903315 2.80766e-05)
(3.37123e-08 0.000905809 2.62609e-05)
(6.55682e-08 0.000907241 2.44776e-05)
(4.34027e-08 0.000907786 2.27984e-05)
(-3.43397e-08 0.000907277 2.11794e-05)
(-1.65484e-07 0.000905792 1.96843e-05)
(-3.43277e-07 0.000903058 1.82623e-05)
(-5.64111e-07 0.000899028 1.69737e-05)
(-8.20406e-07 0.000893281 1.57623e-05)
(-1.09874e-06 0.000885572 1.46836e-05)
(-1.38744e-06 0.000875229 1.36751e-05)
(-1.66899e-06 0.000861674 1.27815e-05)
(-1.92352e-06 0.000843799 1.19276e-05)
(-2.1249e-06 0.000820436 1.11458e-05)
(-2.25765e-06 0.000789704 1.03542e-05)
(-2.29022e-06 0.000749378 9.54416e-06)
(-2.18133e-06 0.000696201 8.41765e-06)
(-1.84596e-06 0.000626038 6.5477e-06)
(-1.26441e-06 0.000533163 4.33444e-06)
(-7.98166e-07 0.000330968 6.51356e-06)
(-1.33172e-06 0.000311975 4.34778e-05)
(-2.04869e-06 0.000502601 5.30909e-05)
(-2.74657e-06 0.000591259 5.55606e-05)
(-3.57493e-06 0.000659221 5.66654e-05)
(-4.22534e-06 0.00071152 5.70861e-05)
(-4.72964e-06 0.000752129 5.70265e-05)
(-5.11745e-06 0.000783787 5.65763e-05)
(-5.41528e-06 0.000808755 5.58912e-05)
(-5.62409e-06 0.000828497 5.50149e-05)
(-5.76235e-06 0.000844326 5.4048e-05)
(-5.82973e-06 0.000856994 5.29862e-05)
(-5.84147e-06 0.000867288 5.19041e-05)
(-5.80062e-06 0.000875561 5.07789e-05)
(-5.7187e-06 0.000882304 4.96723e-05)
(-5.59797e-06 0.000887639 4.855e-05)
(-5.45248e-06 0.000891863 4.74886e-05)
(-5.28123e-06 0.000894956 4.64564e-05)
(-5.0896e-06 0.000897116 4.55035e-05)
(-4.88224e-06 0.000898228 4.4587e-05)
(-4.66048e-06 0.000898394 4.37565e-05)
(-4.42649e-06 0.000897401 4.29637e-05)
(-4.17939e-06 0.000895247 4.22544e-05)
(-3.91818e-06 0.000891594 4.15744e-05)
(-3.64394e-06 0.00088629 4.09642e-05)
(-3.35591e-06 0.000878807 4.03615e-05)
(-3.04686e-06 0.000868744 3.97971e-05)
(-2.71892e-06 0.000855249 3.9195e-05)
(-2.36993e-06 0.000837489 3.85656e-05)
(-2.00116e-06 0.00081404 3.78068e-05)
(-1.61503e-06 0.000783301 3.68906e-05)
(-1.22263e-06 0.000742824 3.56442e-05)
(-8.3583e-07 0.00068964 3.38335e-05)
(-4.64377e-07 0.000619455 3.09157e-05)
(-8.06991e-08 0.000526836 2.67909e-05)
(8.23121e-08 0.00032545 2.06612e-05)
(-1.50029e-06 0.000302141 3.72079e-05)
(-2.39259e-06 0.000488688 5.04267e-05)
(-3.3097e-06 0.000575474 5.5569e-05)
(-4.38976e-06 0.000641916 5.8612e-05)
(-5.27885e-06 0.000693135 6.03406e-05)
(-5.99006e-06 0.000732809 6.12121e-05)
(-6.57729e-06 0.000763839 6.15538e-05)
(-7.04851e-06 0.000788214 6.15182e-05)
(-7.41864e-06 0.000807598 6.12639e-05)
(-7.68679e-06 0.000823041 6.08395e-05)
(-7.86605e-06 0.000835518 6.03391e-05)
(-7.95504e-06 0.000845556 5.97672e-05)
(-7.96618e-06 0.000853741 5.91906e-05)
(-7.89686e-06 0.000860305 5.8594e-05)
(-7.75847e-06 0.000865611 5.80319e-05)
(-7.54964e-06 0.000869712 5.7479e-05)
(-7.28309e-06 0.000872835 5.69823e-05)
(-6.95835e-06 0.000874918 5.65091e-05)
(-6.58555e-06 0.000876089 5.61004e-05)
(-6.16608e-06 0.000876194 5.57172e-05)
(-5.70505e-06 0.000875265 5.53946e-05)
(-5.20663e-06 0.000873048 5.50874e-05)
(-4.67652e-06 0.000869454 5.48242e-05)
(-4.11902e-06 0.000864085 5.45523e-05)
(-3.53601e-06 0.000856668 5.42909e-05)
(-2.93558e-06 0.000846568 5.3975e-05)
(-2.32295e-06 0.000833197 5.3606e-05)
(-1.7102e-06 0.000815508 5.30935e-05)
(-1.10724e-06 0.000792363 5.24003e-05)
(-5.37186e-07 0.000761982 5.13813e-05)
(-2.56563e-08 0.000722236 4.99024e-05)
(3.80761e-07 0.00067004 4.76204e-05)
(6.28253e-07 0.000601481 4.40333e-05)
(7.69767e-07 0.000511126 3.86186e-05)
(6.66268e-07 0.000315197 2.73522e-05)
(-1.34201e-06 0.000293446 2.92854e-05)
(-2.19972e-06 0.000475124 4.24197e-05)
(-3.08415e-06 0.000559577 4.80582e-05)
(-4.14171e-06 0.000624282 5.15637e-05)
(-5.01666e-06 0.000674072 5.35934e-05)
(-5.73851e-06 0.000712684 5.47377e-05)
(-6.33323e-06 0.000742762 5.53064e-05)
(-6.82295e-06 0.000766431 5.55194e-05)
(-7.20259e-06 0.000785117 5.54787e-05)
(-7.48641e-06 0.000800046 5.52976e-05)
(-7.66887e-06 0.000811967 5.50111e-05)
(-7.761e-06 0.000821601 5.46885e-05)
(-7.75887e-06 0.000829315 5.43344e-05)
(-7.67498e-06 0.000835543 5.39986e-05)
(-7.50884e-06 0.000840433 5.36708e-05)
(-7.26746e-06 0.000844249 5.33907e-05)
(-6.95672e-06 0.000847002 5.31389e-05)
(-6.58501e-06 0.000848843 5.29481e-05)
(-6.15279e-06 0.000849685 5.27915e-05)
(-5.67298e-06 0.00084959 5.2695e-05)
(-5.14801e-06 0.000848377 5.26258e-05)
(-4.58713e-06 0.000846009 5.26029e-05)
(-3.99616e-06 0.000842189 5.25866e-05)
(-3.38224e-06 0.000836741 5.25877e-05)
(-2.7544e-06 0.000829191 5.25572e-05)
(-2.11932e-06 0.000819135 5.24935e-05)
(-1.49157e-06 0.000805802 5.23305e-05)
(-8.78579e-07 0.00078839 5.20402e-05)
(-3.02027e-07 0.000765605 5.15187e-05)
(2.21589e-07 0.000735943 5.06804e-05)
(6.57649e-07 0.000697175 4.93284e-05)
(9.59056e-07 0.000646532 4.71975e-05)
(1.0601e-06 0.000580112 4.377e-05)
(1.04679e-06 0.000492877 3.84821e-05)
(8.1692e-07 0.000303945 2.63723e-05)
(-9.00262e-07 0.000287026 1.88439e-05)
(-1.54515e-06 0.000464749 2.82157e-05)
(-2.22966e-06 0.000547382 3.24429e-05)
(-3.07182e-06 0.000610609 3.50624e-05)
(-3.81426e-06 0.000659286 3.65421e-05)
(-4.44167e-06 0.000696915 3.73215e-05)
(-4.98305e-06 0.000726234 3.76776e-05)
(-5.43218e-06 0.000749165 3.77455e-05)
(-5.79605e-06 0.000767269 3.76391e-05)
(-6.06583e-06 0.000781583 3.74118e-05)
(-6.24816e-06 0.000793012 3.71305e-05)
(-6.34083e-06 0.000802098 3.68151e-05)
(-6.34943e-06 0.000809376 3.65108e-05)
(-6.27194e-06 0.000815105 3.62207e-05)
(-6.12153e-06 0.000819605 3.59788e-05)
(-5.89452e-06 0.000822967 3.5779e-05)
(-5.60476e-06 0.000825377 3.5647e-05)
(-5.2578e-06 0.000826816 3.55698e-05)
(-4.86167e-06 0.000827371 3.55658e-05)
(-4.42363e-06 0.000826931 3.5615e-05)
(-3.95322e-06 0.000825496 3.57295e-05)
(-3.45856e-06 0.000822854 3.58824e-05)
(-2.94712e-06 0.000818893 3.60787e-05)
(-2.4301e-06 0.000813266 3.62847e-05)
(-1.9117e-06 0.000805688 3.64971e-05)
(-1.40456e-06 0.000795592 3.66725e-05)
(-9.15338e-07 0.000782404 3.67942e-05)
(-4.54441e-07 0.00076518 3.68007e-05)
(-3.3756e-08 0.000742839 3.66467e-05)
(3.30585e-07 0.000713764 3.62309e-05)
(6.19707e-07 0.00067597 3.54402e-05)
(7.977e-07 0.000626634 3.40538e-05)
(8.33568e-07 0.000562152 3.17357e-05)
(7.85469e-07 0.000477534 2.80272e-05)
(5.89131e-07 0.00029459 1.91331e-05)
(-3.07146e-07 0.000284217 7.18282e-06)
(-6.76107e-07 0.000460529 1.05381e-05)
(-1.06651e-06 0.000542451 1.21814e-05)
(-1.62886e-06 0.00060513 1.31214e-05)
(-2.17887e-06 0.000653274 1.34977e-05)
(-2.69313e-06 0.000690472 1.35442e-05)
(-3.15731e-06 0.000719322 1.33816e-05)
(-3.56693e-06 0.000741858 1.30918e-05)
(-3.90822e-06 0.000759505 1.27145e-05)
(-4.18132e-06 0.000773431 1.22983e-05)
(-4.3747e-06 0.000784406 1.18644e-05)
(-4.49376e-06 0.000793109 1.14478e-05)
(-4.53014e-06 0.000799943 1.10597e-05)
(-4.49776e-06 0.000805306 1.07268e-05)
(-4.39509e-06 0.000809386 1.0454e-05)
(-4.22935e-06 0.000812416 1.02612e-05)
(-4.00672e-06 0.000814447 1.01468e-05)
(-3.74062e-06 0.000815601 1.01243e-05)
(-3.43542e-06 0.000815831 1.01855e-05)
(-3.10262e-06 0.000815166 1.03373e-05)
(-2.75293e-06 0.00081347 1.05647e-05)
(-2.39256e-06 0.000810672 1.08682e-05)
(-2.03391e-06 0.000806524 1.12269e-05)
(-1.68118e-06 0.000800819 1.16353e-05)
(-1.34528e-06 0.00079314 1.20672e-05)
(-1.03128e-06 0.000783063 1.25114e-05)
(-7.45582e-07 0.000769887 1.29362e-05)
(-4.8916e-07 0.000752817 1.3323e-05)
(-2.70424e-07 0.000730655 1.36304e-05)
(-8.56565e-08 0.000701944 1.38262e-05)
(5.14191e-08 0.000664608 1.38461e-05)
(1.41875e-07 0.000615998 1.36177e-05)
(1.8138e-07 0.000552463 1.30064e-05)
(2.14521e-07 0.000469215 1.18431e-05)
(1.43061e-07 0.000289288 8.65959e-06)
(2.47876e-07 0.000285599 -3.62505e-06)
(1.33785e-07 0.000463469 -6.5217e-06)
(2.1222e-08 0.000546094 -7.61223e-06)
(-2.69463e-07 0.000609204 -8.47126e-06)
(-6.50398e-07 0.00065763 -9.26286e-06)
(-1.05833e-06 0.000694918 -1.00124e-05)
(-1.46345e-06 0.000723786 -1.07303e-05)
(-1.84081e-06 0.000746202 -1.14297e-05)
(-2.17808e-06 0.000763708 -1.21079e-05)
(-2.4585e-06 0.000777391 -1.27622e-05)
(-2.68124e-06 0.000788136 -1.33769e-05)
(-2.8328e-06 0.000796534 -1.39433e-05)
(-2.92034e-06 0.0008031 -1.4443e-05)
(-2.94146e-06 0.000808141 -1.4867e-05)
(-2.90164e-06 0.000811956 -1.5199e-05)
(-2.80721e-06 0.00081468 -1.54334e-05)
(-2.66921e-06 0.000816475 -1.55589e-05)
(-2.49291e-06 0.000817361 -1.55753e-05)
(-2.29302e-06 0.0008174 -1.54775e-05)
(-2.07632e-06 0.000816519 -1.52719e-05)
(-1.85409e-06 0.000814685 -1.49607e-05)
(-1.63629e-06 0.000811727 -1.45568e-05)
(-1.43249e-06 0.000807494 -1.40662e-05)
(-1.25013e-06 0.000801676 -1.35043e-05)
(-1.08979e-06 0.000793952 -1.28808e-05)
(-9.62645e-07 0.000783795 -1.22128e-05)
(-8.62675e-07 0.000770598 -1.15084e-05)
(-7.93806e-07 0.000753459 -1.07801e-05)
(-7.46036e-07 0.000731275 -1.00274e-05)
(-7.18395e-07 0.000702482 -9.24712e-06)
(-6.91936e-07 0.00066509 -8.41581e-06)
(-6.49354e-07 0.000616349 -7.48551e-06)
(-5.54278e-07 0.000552679 -6.36314e-06)
(-4.00987e-07 0.000469201 -4.91467e-06)
(-3.30298e-07 0.00028884 -1.98966e-06)
(6.39909e-07 0.000290895 -1.16892e-05)
(6.7957e-07 0.000472915 -1.94554e-05)
(7.78167e-07 0.000557402 -2.27208e-05)
(6.82012e-07 0.000621874 -2.50268e-05)
(4.35894e-07 0.000671221 -2.67741e-05)
(1.09548e-07 0.000709153 -2.81787e-05)
(-2.39662e-07 0.000738393 -2.93677e-05)
(-5.90586e-07 0.000761035 -3.04134e-05)
(-9.14958e-07 0.000778595 -3.13576e-05)
(-1.19958e-06 0.000792265 -3.22181e-05)
(-1.43183e-06 0.000802889 -3.30008e-05)
(-1.61071e-06 0.000811152 -3.37012e-05)
(-1.72562e-06 0.000817515 -3.43123e-05)
(-1.78533e-06 0.000822373 -3.4823e-05)
(-1.79172e-06 0.000825962 -3.52239e-05)
(-1.7507e-06 0.000828502 -3.55053e-05)
(-1.67356e-06 0.000830087 -3.56611e-05)
(-1.56777e-06 0.000830817 -3.56862e-05)
(-1.44428e-06 0.000830681 -3.55802e-05)
(-1.31488e-06 0.000829684 -3.53445e-05)
(-1.18983e-06 0.000827714 -3.49836e-05)
(-1.07923e-06 0.00082467 -3.4504e-05)
(-9.90942e-07 0.000820325 -3.39168e-05)
(-9.30587e-07 0.000814435 -3.32328e-05)
(-9.03691e-07 0.000806596 -3.24631e-05)
(-9.10561e-07 0.00079634 -3.16151e-05)
(-9.50857e-07 0.000782972 -3.06922e-05)
(-1.01292e-06 0.000765638 -2.96873e-05)
(-1.09235e-06 0.000743137 -2.85797e-05)
(-1.16813e-06 0.00071394 -2.7325e-05)
(-1.22398e-06 0.00067594 -2.58432e-05)
(-1.21013e-06 0.000626398 -2.39828e-05)
(-1.07273e-06 0.000561582 -2.1477e-05)
(-8.16908e-07 0.000476582 -1.79592e-05)
(-6.69453e-07 0.000292847 -1.02361e-05)
(7.94984e-07 0.000298935 -1.60134e-05)
(8.75181e-07 0.000486495 -2.61846e-05)
(1.07336e-06 0.000573517 -3.05452e-05)
(1.07729e-06 0.000639827 -3.35856e-05)
(9.03714e-07 0.000690506 -3.58185e-05)
(6.3927e-07 0.000729355 -3.75594e-05)
(3.36201e-07 0.000759232 -3.89932e-05)
(2.54819e-08 0.000782262 -4.02231e-05)
(-2.70649e-07 0.000800063 -4.1311e-05)
(-5.33112e-07 0.000813824 -4.22868e-05)
(-7.51252e-07 0.000824471 -4.31646e-05)
(-9.16867e-07 0.00083267 -4.39443e-05)
(-1.0306e-06 0.000838951 -4.46216e-05)
(-1.09068e-06 0.000843677 -4.51871e-05)
(-1.10585e-06 0.000847148 -4.56323e-05)
(-1.07898e-06 0.000849544 -4.59473e-05)
(-1.01954e-06 0.000851016 -4.61266e-05)
(-9.40188e-07 0.00085162 -4.61647e-05)
(-8.49161e-07 0.000851398 -4.60613e-05)
(-7.58862e-07 0.000850302 -4.58174e-05)
(-6.7993e-07 0.000848271 -4.54386e-05)
(-6.20675e-07 0.00084515 -4.49311e-05)
(-5.8969e-07 0.000840753 -4.43054e-05)
(-5.94298e-07 0.000834774 -4.35699e-05)
(-6.34499e-07 0.000826847 -4.27345e-05)
(-7.12807e-07 0.000816433 -4.18033e-05)
(-8.24869e-07 0.000802864 -4.0776e-05)
(-9.6422e-07 0.000785207 -3.96373e-05)
(-1.11017e-06 0.000762268 -3.83561e-05)
(-1.24857e-06 0.000732419 -3.68688e-05)
(-1.3532e-06 0.000693532 -3.50677e-05)
(-1.37227e-06 0.000642738 -3.27509e-05)
(-1.23188e-06 0.000576226 -2.95696e-05)
(-9.45446e-07 0.000488902 -2.50362e-05)
(-8.03385e-07 0.000300089 -1.49039e-05)
(7.36548e-07 0.000308143 -1.65885e-05)
(7.63727e-07 0.000501363 -2.65422e-05)
(9.57661e-07 0.000590966 -3.08421e-05)
(9.64456e-07 0.000659184 -3.38517e-05)
(8.1746e-07 0.000711231 -3.60642e-05)
(5.86703e-07 0.000751066 -3.77956e-05)
(3.25247e-07 0.000781612 -3.92252e-05)
(5.77935e-08 0.000805098 -4.04569e-05)
(-1.90695e-07 0.000823168 -4.15484e-05)
(-4.09019e-07 0.000837087 -4.25316e-05)
(-5.83186e-07 0.000847786 -4.34167e-05)
(-7.0893e-07 0.000855987 -4.42066e-05)
(-7.85499e-07 0.000862212 -4.48935e-05)
(-8.12145e-07 0.000866873 -4.54702e-05)
(-7.95534e-07 0.00087025 -4.59256e-05)
(-7.4243e-07 0.000872566 -4.6252e-05)
(-6.61133e-07 0.000873947 -4.64411e-05)
(-5.63908e-07 0.000874484 -4.64899e-05)
(-4.59386e-07 0.000874191 -4.63954e-05)
(-3.60024e-07 0.000873051 -4.61608e-05)
(-2.74778e-07 0.00087097 -4.57892e-05)
(-2.12728e-07 0.000867817 -4.52897e-05)
(-1.84404e-07 0.000863367 -4.46697e-05)
(-1.90304e-07 0.000857335 -4.39408e-05)
(-2.39818e-07 0.000849308 -4.31103e-05)
(-3.28943e-07 0.000838759 -4.21854e-05)
(-4.53545e-07 0.000824963 -4.11635e-05)
(-6.0464e-07 0.000806986 -4.00334e-05)
(-7.73054e-07 0.000783562 -3.87625e-05)
(-9.36808e-07 0.000753038 -3.72921e-05)
(-1.07137e-06 0.000713186 -3.55153e-05)
(-1.12729e-06 0.000661077 -3.32419e-05)
(-1.04069e-06 0.000592746 -3.01329e-05)
(-7.98281e-07 0.000502974 -2.57144e-05)
(-7.38546e-07 0.000308782 -1.57852e-05)
(5.18786e-07 0.000316883 -1.43207e-05)
(4.37757e-07 0.000514746 -2.19432e-05)
(5.46035e-07 0.000606483 -2.52508e-05)
(4.91897e-07 0.000676266 -2.76071e-05)
(3.2853e-07 0.000729456 -2.93884e-05)
(1.16201e-07 0.000770097 -3.08233e-05)
(-1.08041e-07 0.000801208 -3.20443e-05)
(-3.23994e-07 0.00082506 -3.31236e-05)
(-5.16911e-07 0.000843364 -3.41031e-05)
(-6.7081e-07 0.000857402 -3.49999e-05)
(-7.79502e-07 0.000868154 -3.58201e-05)
(-8.4014e-07 0.000876346 -3.65582e-05)
(-8.51799e-07 0.000882537 -3.7207e-05)
(-8.16787e-07 0.000887136 -3.77545e-05)
(-7.41546e-07 0.000890452 -3.81912e-05)
(-6.31913e-07 0.000892698 -3.85062e-05)
(-4.98127e-07 0.000894025 -3.86932e-05)
(-3.48221e-07 0.000894509 -3.87462e-05)
(-1.95103e-07 0.000894185 -3.86651e-05)
(-4.93737e-08 0.000893016 -3.845e-05)
(8.19882e-08 0.000890924 -3.81072e-05)
(1.86926e-07 0.000887754 -3.7643e-05)
(2.57598e-07 0.000883294 -3.70684e-05)
(2.86828e-07 0.00087723 -3.63928e-05)
(2.74683e-07 0.000869153 -3.56281e-05)
(2.20881e-07 0.000858501 -3.47816e-05)
(1.24295e-07 0.000844545 -3.38587e-05)
(-6.60989e-09 0.000826306 -3.28524e-05)
(-1.60107e-07 0.000802498 -3.17453e-05)
(-3.24551e-07 0.000771408 -3.04944e-05)
(-4.77423e-07 0.000730764 -2.90261e-05)
(-5.84737e-07 0.000677547 -2.71994e-05)
(-5.91092e-07 0.000607706 -2.47708e-05)
(-4.55275e-07 0.000515881 -2.13762e-05)
(-5.18011e-07 0.000317213 -1.37605e-05)
(2.27346e-07 0.000323897 -1.04369e-05)
(2.56758e-08 0.000524711 -1.44763e-05)
(2.27427e-09 0.000617801 -1.62343e-05)
(-1.49802e-07 0.000688585 -1.75636e-05)
(-3.46791e-07 0.000742489 -1.86612e-05)
(-5.55075e-07 0.000783636 -1.96236e-05)
(-7.46988e-07 0.00081508 -2.05047e-05)
(-9.13419e-07 0.000839145 -2.13336e-05)
(-1.04317e-06 0.000857561 -2.2122e-05)
(-1.12853e-06 0.000871648 -2.28709e-05)
(-1.16575e-06 0.000882392 -2.35728e-05)
(-1.15103e-06 0.000890549 -2.42175e-05)
(-1.08741e-06 0.000896681 -2.47914e-05)
(-9.79728e-07 0.000901217 -2.52817e-05)
(-8.30914e-07 0.000904464 -2.56755e-05)
(-6.499e-07 0.000906654 -2.5963e-05)
(-4.47691e-07 0.000907929 -2.61357e-05)
(-2.31935e-07 0.000908383 -2.61889e-05)
(-1.29877e-08 0.000908036 -2.61207e-05)
(1.98143e-07 0.000906866 -2.5933e-05)
(3.92575e-07 0.00090478 -2.56304e-05)
(5.59873e-07 0.000901631 -2.52214e-05)
(6.91752e-07 0.000897188 -2.47158e-05)
(7.84605e-07 0.000891142 -2.41267e-05)
(8.31713e-07 0.000883062 -2.34665e-05)
(8.30314e-07 0.000872387 -2.27485e-05)
(7.83174e-07 0.000858357 -2.19831e-05)
(6.95052e-07 0.000839988 -2.11771e-05)
(5.68835e-07 0.000815957 -2.03292e-05)
(4.1647e-07 0.000784533 -1.94268e-05)
(2.49431e-07 0.000743394 -1.84394e-05)
(8.81639e-08 0.000689482 -1.73073e-05)
(-3.24214e-08 0.000618676 -1.59223e-05)
(-3.64334e-08 0.000525548 -1.40962e-05)
(-2.28147e-07 0.000324034 -1.0051e-05)
(-6.48706e-08 0.000328465 -6.18924e-06)
(-3.72374e-07 0.000530307 -6.30339e-06)
(-5.37282e-07 0.000623878 -6.35438e-06)
(-7.88951e-07 0.000695001 -6.54592e-06)
(-1.02633e-06 0.000749137 -6.88153e-06)
(-1.23113e-06 0.000790421 -7.31071e-06)
(-1.39584e-06 0.000821938 -7.79945e-06)
(-1.51752e-06 0.000846014 -8.32533e-06)
(-1.5897e-06 0.000864402 -8.88224e-06)
(-1.60977e-06 0.000878426 -9.45118e-06)
(-1.57753e-06 0.000889092 -1.00088e-05)