/*--------------------------------*- C++ -*----------------------------------*\
| =========                 |                                                 |
| \\      /  F ield         | OpenFOAM: The Open Source CFD Toolbox           |
|  \\    /   O peration     | Version:  v2012                                 |
|   \\  /    A nd           | Website:  www.openfoam.com                      |
|    \\/     M anipulation  |                                                 |
\*---------------------------------------------------------------------------*/
FoamFile
{
    version     2.0;
    format      ascii;
    class       volScalarField;
    location    "4";
    object      alphat;
}
// * * * * * * * * * * * * * * * * * * * * * * * * * * * * * * * * * * * * * //

dimensions      [1 -1 -1 0 0 0 0];


internalField   nonuniform List<scalar> 
78750
(
1.00955e-08
1.80292e-07
7.80317e-07
1.90754e-06
1.00057e-05
2.12356e-05
2.86669e-05
3.11953e-05
3.02474e-05
2.72508e-05
2.45475e-05
2.35022e-05
2.43217e-05
2.63378e-05
2.74399e-05
2.87649e-05
3.01917e-05
3.16218e-05
3.29864e-05
3.42189e-05
3.53035e-05
3.62304e-05
3.69916e-05
3.75783e-05
3.79773e-05
3.7566e-05
3.69853e-05
3.6177e-05
3.49901e-05
3.32414e-05
3.06317e-05
2.66969e-05
1.98029e-05
6.29046e-06
2.41537e-07
8.52931e-08
2.57651e-05
5.82e-05
8.52709e-05
9.27888e-05
9.35313e-05
7.81344e-05
7.30527e-05
6.97668e-05
6.5979e-05
6.31327e-05
6.2163e-05
6.33511e-05
6.6893e-05
7.2866e-05
8.12451e-05
9.2269e-05
0.00010651
0.000122542
0.000125902
0.000128358
0.000130657
0.000132792
0.000134736
0.000136439
0.000137823
0.000138796
0.00013927
0.000139194
0.000138557
0.000124892
7.55262e-05
2.75444e-05
8.98717e-06
9.30975e-07
1.19127e-07
9.10841e-06
1.51359e-05
2.47831e-05
3.57584e-05
4.53469e-05
5.30156e-05
6.33258e-05
8.20832e-05
9.2162e-05
9.61938e-05
0.000100302
0.00010436
0.000102076
9.51334e-05
9.55934e-05
0.000100534
0.000106093
0.00011101
0.000115959
0.000120871
0.000124754
0.000126162
0.000127128
0.000128134
0.000129112
0.000129914
0.000130343
0.000130212
0.000115269
7.37945e-05
2.84553e-05
1.24018e-05
1.18002e-05
2.02684e-06
8.92591e-08
6.85705e-06
1.01713e-05
1.71773e-05
2.88035e-05
4.71736e-05
7.44374e-05
9.14869e-05
9.38282e-05
9.7393e-05
0.000102194
8.43471e-05
7.94246e-05
8.50866e-05
9.70797e-05
0.000112358
0.000128045
0.000141118
0.000142745
0.000143803
0.000144524
0.000145124
0.000145778
0.000142555
0.000112445
9.35653e-05
8.9256e-05
9.74327e-05
0.000116783
0.000132433
0.00010777
4.27074e-05
9.42159e-06
6.60201e-06
2.48143e-06
1.42588e-07
9.23988e-06
5.84411e-06
7.54807e-06
1.17368e-05
1.91698e-05
3.27137e-05
5.92955e-05
9.84819e-05
0.000101634
0.000105213
0.000109292
0.000113623
0.000104201
0.000101119
0.000105881
0.000112674
0.000115331
0.000109768
9.66555e-05
8.22509e-05
7.51209e-05
8.00287e-05
9.61874e-05
0.000117331
0.00013511
0.000138626
0.000110167
7.65982e-05
5.58653e-05
4.46773e-05
3.28042e-05
1.7828e-05
1.68177e-05
3.27527e-06
1.66554e-07
5.8887e-06
5.83149e-06
4.7607e-06
6.18233e-06
9.60293e-06
1.62494e-05
2.98138e-05
5.76658e-05
9.73792e-05
0.000100798
0.000103838
0.000105818
8.317e-05
6.5996e-05
5.57349e-05
5.28977e-05
5.88595e-05
7.33626e-05
8.93321e-05
9.63836e-05
9.37968e-05
8.81612e-05
8.66826e-05
9.29542e-05
0.000105103
0.00011281
0.000113362
0.000114116
6.42518e-05
2.31801e-05
1.34452e-05
1.13236e-05
1.72847e-05
3.6159e-06
2.46323e-07
3.54179e-06
7.09908e-06
3.79084e-06
3.66982e-06
4.92928e-06
7.68122e-06
1.26531e-05
2.13345e-05
3.55943e-05
5.37416e-05
6.82742e-05
7.43677e-05
7.22226e-05
6.43789e-05
5.4297e-05
4.47065e-05
3.80523e-05
3.78545e-05
4.87385e-05
7.45349e-05
9.77205e-05
0.000102341
0.000107721
0.000113479
0.000119234
0.000113203
9.81202e-05
8.14508e-05
5.8209e-05
2.83875e-05
1.26579e-05
1.134e-05
2.64102e-05
4.27643e-06
3.91552e-07
4.64566e-06
6.61073e-06
3.84986e-06
4.27136e-06
5.92527e-06
8.84385e-06
1.3707e-05
2.14155e-05
3.21485e-05
4.30617e-05
4.89671e-05
4.76384e-05
4.16864e-05
3.56009e-05
3.21125e-05
3.26341e-05
3.96939e-05
5.7993e-05
7.97019e-05
8.69272e-05
9.47265e-05
0.000102818
0.000111064
0.000119388
0.000127655
0.000106226
8.79532e-05
7.95228e-05
6.77868e-05
3.99925e-05
1.62897e-05
1.06484e-05
2.85147e-05
4.6278e-06
4.4622e-07
4.88834e-06
3.8021e-06
2.44712e-06
3.33343e-06
5.6951e-06
9.45991e-06
1.39662e-05
1.85152e-05
2.26047e-05
2.5796e-05
2.78467e-05
2.89013e-05
2.94351e-05
3.0157e-05
3.17787e-05
3.49317e-05
4.04572e-05
5.01079e-05
6.5928e-05
7.28735e-05
7.82879e-05
8.34981e-05
8.82731e-05
9.23516e-05
9.56135e-05
9.83426e-05
5.2619e-05
2.93011e-05
2.06442e-05
1.74287e-05
1.52308e-05
1.67108e-05
5.36285e-05
5.07714e-06
4.26773e-07
4.91352e-06
3.99301e-06
2.12016e-06
2.43647e-06
4.45139e-06
1.01147e-05
2.16974e-05
3.70325e-05
4.65415e-05
5.18455e-05
5.76891e-05
6.35412e-05
6.90612e-05
7.40868e-05
7.37661e-05
7.19773e-05
7.41079e-05
7.86255e-05
8.42493e-05
8.94945e-05
9.11923e-05
8.51068e-05
7.36532e-05
6.64571e-05
6.92366e-05
8.16445e-05
9.4005e-05
8.6054e-05
5.14613e-05
2.04611e-05
1.02031e-05
1.2821e-05
5.88096e-05
5.27321e-06
3.79356e-07
3.93937e-06
5.00479e-06
2.15824e-06
1.77241e-06
2.13478e-06
3.33485e-06
6.37862e-06
1.57825e-05
3.92717e-05
4.68854e-05
5.55159e-05
6.42471e-05
7.26457e-05
8.04255e-05
8.74343e-05
9.36398e-05
9.90391e-05
0.000103622
0.000107398
0.000110323
0.000109124
9.76683e-05
8.38079e-05
6.78439e-05
5.17419e-05
3.87953e-05
3.11166e-05
2.85787e-05
2.79182e-05
2.33789e-05
1.65827e-05
1.99739e-05
7.88933e-05
5.60773e-06
3.97961e-07
4.03772e-06
5.97355e-06
2.74095e-06
2.30838e-06
2.58794e-06
3.60679e-06
6.34486e-06
1.38997e-05
2.95066e-05
4.31245e-05
4.93318e-05
5.49907e-05
6.35851e-05
7.55185e-05
8.96348e-05
0.000104049
0.000113381
0.00011981
0.000125775
0.000131305
0.000136331
0.000132991
0.000117277
0.000100888
8.63887e-05
7.04183e-05
4.99548e-05
2.92442e-05
1.60116e-05
1.13202e-05
1.06075e-05
1.67617e-05
7.8761e-05
5.92577e-06
3.61275e-07
3.50488e-06
4.90491e-06
2.54883e-06
2.41148e-06
3.16438e-06
6.16744e-06
1.78673e-05
5.58778e-05
6.60906e-05
7.69947e-05
8.77092e-05
9.76671e-05
0.000106618
0.00011456
0.00012165
0.000128111
0.000134147
0.000139893
0.000139
0.00011447
9.48618e-05
8.67839e-05
8.91315e-05
9.89481e-05
0.00011086
0.000115985
0.000105772
7.76829e-05
4.20827e-05
1.93432e-05
1.299e-05
2.12697e-05
8.33005e-05
6.45604e-06
3.43763e-07
3.10389e-06
6.07409e-06
3.2863e-06
3.02797e-06
3.68244e-06
5.62033e-06
1.14922e-05
2.88777e-05
6.52089e-05
7.82161e-05
8.83843e-05
9.81171e-05
0.000107157
0.000115503
0.000123291
0.000130684
0.000137769
0.000144507
0.000150761
0.000152774
0.000142863
0.000127253
0.000108951
9.17427e-05
7.82048e-05
6.81267e-05
5.9176e-05
4.81338e-05
3.34471e-05
1.96033e-05
1.39006e-05
2.21119e-05
8.44014e-05
6.94969e-06
2.99986e-07
2.73739e-06
4.87681e-06
3.31332e-06
3.45074e-06
5.03205e-06
9.55089e-06
2.05876e-05
4.04607e-05
6.23939e-05
8.00832e-05
9.43814e-05
0.000107012
0.000118906
0.000127957
0.000135452
0.000142858
0.000149584
0.000144793
0.000132944
0.00012019
0.000113149
0.000113215
0.000117459
0.000121409
0.000121079
0.000113334
9.53058e-05
6.67482e-05
3.6736e-05
1.89363e-05
1.44809e-05
2.51445e-05
8.50656e-05
7.52941e-06
2.60137e-07
2.91774e-06
7.43419e-06
6.26347e-06
6.06335e-06
7.16744e-06
1.06995e-05
1.87899e-05
3.28325e-05
5.0872e-05
6.8776e-05
8.44874e-05
9.88098e-05
0.000113398
0.000129286
0.000144188
0.000152076
0.000160129
0.000168261
0.00015811
0.000143186
0.000132259
0.000127635
0.000127368
0.000127517
0.000124076
0.000113933
9.47951e-05
6.68814e-05
3.81186e-05
2.07193e-05
1.69855e-05
3.09222e-05
7.5156e-05
7.76203e-06
1.9466e-07
2.82038e-06
8.58305e-06
1.16251e-05
1.18486e-05
1.18288e-05
1.25431e-05
1.47631e-05
1.90904e-05
2.59449e-05
3.53186e-05
4.65622e-05
5.96851e-05
7.6074e-05
9.7518e-05
0.000124194
0.000147487
0.000157307
0.000167158
0.000172173
0.000156219
0.000140622
0.000130762
0.000125573
0.000122376
0.000118124
0.00010933
9.21758e-05
6.54178e-05
3.72492e-05
2.0695e-05
1.78265e-05
3.33804e-05
7.28769e-05
7.95159e-06
2.08384e-07
3.05102e-06
9.02333e-06
1.31025e-05
1.37669e-05
1.33742e-05
1.28418e-05
1.27644e-05
1.34667e-05
1.56093e-05
2.0582e-05
2.83101e-05
3.69282e-05
4.78576e-05
6.62736e-05
9.60887e-05
0.00013199
0.000156179
0.000166723
0.000154676
0.000136252
0.000124135
0.000120581
0.000122482
0.000124697
0.000122333
0.000111914
9.14708e-05
6.27039e-05
3.55197e-05
2.0709e-05
1.9763e-05
3.97975e-05
6.29661e-05
8.12618e-06
2.62212e-07
4.86899e-06
1.21259e-05
1.62341e-05
1.60633e-05
1.36929e-05
1.12056e-05
9.65375e-06
9.23425e-06
1.04464e-05
1.31728e-05
1.48284e-05
1.48448e-05
1.79215e-05
2.9683e-05
5.27469e-05
8.48203e-05
0.000117593
0.000140201
0.000145838
0.000137774
0.000125748
0.000117016
0.000113666
0.000113906
0.000113588
0.000107434
9.11689e-05
6.47165e-05
3.74563e-05
2.15906e-05
1.98939e-05
4.01269e-05
6.03488e-05
8.20525e-06
4.80542e-07
7.72779e-06
1.65259e-05
2.57485e-05
2.71402e-05
2.18353e-05
1.51772e-05
9.50776e-06
5.69469e-06
3.97988e-06
4.31773e-06
5.19054e-06
1.15881e-06
7.01502e-06
1.31879e-06
1.41069e-05
3.96776e-05
7.31963e-05
0.000105328
0.00012773
0.000136755
0.000134029
0.000125371
0.000116351
0.000109505
0.000103863
9.56745e-05
8.04578e-05
5.74032e-05
3.45966e-05
2.19365e-05
2.2534e-05
4.72706e-05
5.54882e-05
8.315e-06
1.49588e-06
9.91683e-06
1.98457e-05
3.22599e-05
3.52838e-05
2.68859e-05
1.6563e-05
8.7788e-06
3.77498e-06
2.28972e-06
5.63016e-07
3.07765e-06
6.74865e-06
3.22119e-05
2.00327e-05
1.2441e-05
1.00308e-05
3.67685e-05
7.53348e-05
0.000106131
0.000120097
0.000122576
0.000119926
0.000115526
0.000111365
0.000107531
0.000101789
8.95307e-05
6.68192e-05
3.95873e-05
2.25936e-05
2.09914e-05
4.37456e-05
5.60384e-05
8.35124e-06
6.33964e-06
1.79034e-05
2.16348e-05
1.27765e-05
5.6189e-06
1.23459e-07
1.99003e-06
1.27928e-06
1.57968e-06
2.41482e-06
6.35498e-06
3.52804e-06
1.96834e-06
1.27795e-06
5.5825e-06
8.2527e-06
2.79776e-05
5.23207e-05
7.58534e-05
9.55324e-05
0.000110179
0.000119733
0.000123711
0.000122882
0.000118491
0.000110909
9.90453e-05
8.1238e-05
5.85072e-05
3.74961e-05
2.5433e-05
2.60744e-05
5.27477e-05
5.36436e-05
8.4795e-06
9.64285e-06
6.57655e-06
2.61163e-06
1.06895e-06
9.22846e-06
1.0527e-06
2.91509e-06
2.19323e-06
1.14584e-06
1.83211e-06
2.3563e-06
5.31445e-06
3.22387e-06
8.14851e-07
6.61501e-06
6.96565e-06
1.31138e-05
3.12434e-05
5.08394e-05
7.03604e-05
8.87278e-05
0.000103885
0.00011428
0.00011935
0.000119408
0.000115416
0.000107553
9.34511e-05
6.95468e-05
4.12821e-05
2.42618e-05
2.394e-05
5.16424e-05
5.78453e-05
8.75834e-06
2.52557e-06
1.21784e-05
1.17535e-05
1.84069e-05
3.5501e-05
3.76837e-05
2.70097e-05
1.99367e-05
1.20919e-05
6.99487e-06
1.96304e-06
2.64156e-07
3.50371e-06
5.00042e-06
6.76102e-07
3.47901e-06
4.36558e-06
2.34291e-06
1.99584e-05
4.28182e-05
6.58847e-05
8.44917e-05
9.64579e-05
0.000103397
0.000106624
0.000104404
9.31552e-05
7.3137e-05
5.14285e-05
3.54004e-05
2.75395e-05
3.2081e-05
7.04272e-05
5.13029e-05
8.55372e-06
4.26113e-06
2.68736e-05
5.25462e-05
7.99197e-05
9.27799e-05
9.56522e-05
9.98068e-05
0.000101343
9.2743e-05
7.47003e-05
5.62422e-05
3.88382e-05
2.454e-05
1.45247e-05
7.3185e-06
4.35771e-06
2.79985e-06
2.98513e-06
4.54364e-06
6.84067e-07
4.56686e-06
1.59438e-05
4.78149e-05
7.93792e-05
9.32383e-05
8.9326e-05
8.06703e-05
6.97189e-05
5.31497e-05
3.53974e-05
2.66758e-05
3.34101e-05
7.59102e-05
5.35411e-05
8.56895e-06
4.39616e-06
3.9109e-05
4.02565e-05
4.41864e-05
6.16475e-05
9.64139e-05
0.000134217
0.0001553
0.000160552
0.000155406
0.00014159
0.000122701
0.000102029
8.2158e-05
6.50059e-05
5.06889e-05
3.69723e-05
2.10755e-05
7.72208e-06
2.24712e-06
3.60204e-06
6.68498e-06
1.68666e-06
2.42868e-07
1.22116e-05
4.7206e-05
8.9681e-05
9.07372e-05
6.22065e-05
3.84397e-05
2.65435e-05
2.99761e-05
6.56625e-05
5.74073e-05
8.43143e-06
1.52937e-06
2.11436e-05
2.36077e-05
2.84789e-05
4.05662e-05
6.42179e-05
0.000105289
0.000149559
0.000167236
0.000162359
0.000149398
0.000135355
0.00012318
0.000115913
0.000115966
0.000122425
0.00013034
0.00013053
0.000113411
8.04933e-05
4.03475e-05
1.26974e-05
6.26217e-06
7.64304e-06
6.27059e-06
1.00309e-06
7.23718e-06
2.74312e-05
3.80262e-05
3.27695e-05
2.78878e-05
3.60836e-05
7.90394e-05
5.37179e-05
8.45817e-06
1.74566e-06
1.16214e-05
2.40295e-05
4.53323e-05
8.30161e-05
0.000131377
0.000159305
0.000166132
0.000164705
0.000157924
0.000144504
0.000124151
0.000101913
8.58873e-05
8.16611e-05
9.29161e-05
0.000123656
0.000178451
0.000254888
0.000326081
0.000328358
0.000212576
8.35138e-05
1.7312e-05
3.51367e-06
2.19414e-06
3.03426e-06
8.21126e-06
3.74011e-05
3.95677e-05
2.90318e-05
3.17996e-05
6.64291e-05
6.04479e-05
8.74548e-06
4.73684e-06
2.24967e-05
6.92732e-05
0.000139843
0.000160539
0.000168272
0.000179497
0.000192361
0.000203641
0.000209972
0.000205591
0.000186184
0.000159143
0.000138015
0.000126929
0.00012337
0.000126153
0.000136477
0.000156045
0.000186507
0.000226689
0.000258311
0.000227796
0.000115407
3.16532e-05
4.20337e-06
4.6144e-06
4.11925e-06
3.85709e-06
1.47585e-05
2.19553e-05
3.47075e-05
7.47786e-05
6.13218e-05
9.17047e-06
7.64002e-06
4.16251e-05
0.000121822
0.000148701
0.000157259
0.000168602
0.000182209
0.000191839
0.000193865
0.000188192
0.000174177
0.000149703
0.000118153
9.32607e-05
8.40884e-05
8.88987e-05
0.000102032
0.000118204
0.000133975
0.0001485
0.000163568
0.000181687
0.000199633
0.000195698
0.000136498
5.08089e-05
9.64167e-06
1.72388e-06
2.77465e-06
1.49975e-05
1.69857e-05
2.15336e-05
5.26029e-05
6.9231e-05
9.70329e-06
6.76828e-06
2.44744e-05
5.48426e-05
0.000100896
0.000149656
0.000181999
0.000195141
0.000198562
0.000199496
0.000199919
0.000196821
0.000183733
0.000154696
0.000113593
7.66991e-05
5.61734e-05
5.22018e-05
6.14223e-05
8.22936e-05
0.000114299
0.000154156
0.000194179
0.00022754
0.0002444
0.000213646
0.000112745
2.67445e-05
3.6791e-08
4.7779e-08
2.84542e-06
2.04178e-05
4.76283e-05
0.000107891
5.12668e-05
9.32981e-06
6.1449e-06
2.86216e-05
0.000100673
0.000180386
0.00019533
0.000199081
0.000203591
0.000210942
0.000222275
0.000238981
0.000262196
0.000291178
0.000318644
0.000325517
0.000292204
0.000221794
0.000142163
8.63457e-05
6.13664e-05
6.00545e-05
8.06641e-05
0.000126297
0.000194689
0.000266337
0.000305721
0.000257418
0.000108146
2.44253e-05
3.75632e-06
2.18204e-06
9.85548e-06
2.74836e-05
7.93352e-05
5.21884e-05
9.13133e-06
8.08271e-06
4.19181e-05
0.00012442
0.000167464
0.000185545
0.000197398
0.000205472
0.000209477
0.000208371
0.00020041
0.00018415
0.000162432
0.000145078
0.000143172
0.000164734
0.000213206
0.000268308
0.000261477
0.000155047
7.39231e-05
5.16922e-05
6.49782e-05
0.000108714
0.000183128
0.000262513
0.000289704
0.000217279
6.37174e-05
5.50449e-06
3.04639e-06
4.08214e-06
2.21513e-05
7.48715e-05
5.19966e-05
9.38997e-06
8.04731e-06
3.41411e-05
9.32756e-05
0.000161067
0.000196597
0.00021256
0.000221
0.000227568
0.000234239
0.000239773
0.000241243
0.00023532
0.000216761
0.000182946
0.000152496
0.000147218
0.000172157
0.000219001
0.000240652
0.000151348
6.92611e-05
5.46962e-05
8.27207e-05
0.000155786
0.000276614
0.000376493
0.000345974
0.000171135
4.06544e-05
4.71505e-06
1.79417e-06
1.35835e-05
5.48566e-05
5.31084e-05
9.56768e-06
8.05453e-06
3.96135e-05
0.00013428
0.000189962
0.000203407
0.000210154
0.000216263
0.000223851
0.000234095
0.000247352
0.000262705
0.00027752
0.000286878
0.000283207
0.000260808
0.000229535
0.000211398
0.000211728
0.000208117
0.000164408
9.39123e-05
6.24812e-05
7.52924e-05
0.000128841
0.000216679
0.000288306
0.00026852
0.00015725
4.89289e-05
7.38855e-06
2.65928e-06
1.61378e-05
7.08889e-05
4.64076e-05
9.62326e-06
8.98699e-06
4.75915e-05
0.000132661
0.000176595
0.0001943
0.000205205
0.000212741
0.000217632
0.000219743
0.000218265
0.000211717
0.000198873
0.000181547
0.000166641
0.000162388
0.00017259
0.000195745
0.000225471
0.000246125
0.000226005
0.000151406
8.55105e-05
6.62106e-05
8.61284e-05
0.000136197
0.000189963
0.000198891
0.000138431
5.3623e-05
1.0957e-05
3.70871e-06
1.92985e-05
9.02007e-05
4.04658e-05
9.09654e-06
8.74055e-06
4.19452e-05
0.000126716
0.000184503
0.000202755
0.000210157
0.000215417
0.000221583
0.000228501
0.000234294
0.000236685
0.000232932
0.000218441
0.000191575
0.000166215
0.000160521
0.000180501
0.00022335
0.00027521
0.000304176
0.000262927
0.00015626
8.36241e-05
6.48425e-05
8.45083e-05
0.000129636
0.000167142
0.000156809
8.60271e-05
1.9634e-05
2.48417e-06
1.19252e-05
6.00043e-05
4.39456e-05
9.21793e-06
8.71487e-06
4.61056e-05
0.000143999
0.000186348
0.00019928
0.000207075
0.000214609
0.000223665
0.000234504
0.000246272
0.000257046
0.000263564
0.000260369
0.000240349
0.000205211
0.000176071
0.000171206
0.000193761
0.000238855
0.000290764
0.000313623
0.000257455
0.000141239
7.01444e-05
4.93318e-05
5.93664e-05
8.40371e-05
9.61195e-05
7.42946e-05
2.64086e-05
4.49672e-06
1.03548e-05
5.13639e-05
4.73285e-05
9.40293e-06
8.75365e-06
4.55005e-05
0.000128568
0.000173571
0.000189432
0.000197039
0.000201212
0.000204022
0.00020665
0.000209655
0.000212859
0.000214982
0.000213027
0.0002022
0.00017992
0.000155067
0.000143301
0.000152706
0.000185398
0.000240216
0.000305334
0.000342581
0.000288821
0.000155883
7.6278e-05
5.34518e-05
6.132e-05
7.57899e-05
6.53521e-05
2.82751e-05
6.04672e-06
7.82109e-06
3.50929e-05
5.2612e-05
9.51472e-06
8.26876e-06
4.10059e-05
0.000128658
0.000182777
0.000198071
0.00020392
0.000208513
0.000214917
0.000223558
0.000233492
0.000243373
0.000251985
0.000258019
0.000258757
0.000246965
0.00021463
0.000175402
0.00015552
0.000162836
0.00019452
0.000239771
0.000267202
0.00023145
0.000140772
6.92226e-05
3.99868e-05
3.92147e-05
5.64723e-05
5.6336e-05
2.14682e-05
6.19268e-06
1.00171e-05
4.60497e-05
4.96519e-05
9.66774e-06
8.60895e-06
4.53101e-05
0.000139085
0.000183264
0.00019552
0.000199883
0.000202491
0.000206578
0.000213755
0.000224324
0.000237498
0.000251668
0.000264614
0.000273798
0.000274923
0.000258181
0.000213957
0.000163444
0.000139375
0.000148465
0.000188985
0.000248062
0.000273249
0.00020558
0.000102939
5.13746e-05
3.42117e-05
2.74952e-05
2.22469e-05
1.61209e-05
1.12112e-05
2.0175e-05
8.23223e-05
4.26002e-05
9.22884e-06
8.0962e-06
3.90257e-05
0.000116931
0.000167483
0.000183259
0.00018826
0.000189713
0.00019156
0.0001961
0.00020426
0.000215946
0.000230323
0.000245907
0.000260875
0.000273159
0.000278993
0.000267039
0.000216627
0.000147596
0.000111584
0.000113256
0.000145081
0.000190165
0.000196559
0.000130139
6.229e-05
3.85537e-05
3.89055e-05
2.53866e-05
1.4191e-05
1.28288e-05
2.71243e-05
0.000104466
4.07549e-05
8.8417e-06
7.98876e-06
3.78086e-05
0.000121085
0.000175003
0.000186154
0.000186206
0.000185232
0.000188028
0.000196055
0.000208693
0.000224525
0.00024222
0.000260781
0.000279238
0.000296525
0.000311186
0.000319888
0.000309596
0.000246647
0.000149598
0.000102285
0.000103538
0.000138316
0.000178519
0.000162257
8.37404e-05
2.97106e-05
1.49292e-05
1.99712e-05
1.64432e-05
1.81274e-05
4.14481e-05
0.000123773
3.88931e-05
8.60048e-06
8.30005e-06
3.88076e-05
0.000118505
0.0001638
0.000172985
0.00017245
0.000170906
0.000173657
0.000182947
0.000198261
0.000217435
0.000237946
0.000257941
0.000276593
0.000293977
0.000310466
0.000325526
0.000334481
0.000316723
0.000230197
0.000122927
8.38548e-05
9.34435e-05
0.000135608
0.000170969
0.000133744
5.63008e-05
1.7769e-05
1.30988e-05
1.7471e-05
2.23161e-05
5.04026e-05
0.000129171
3.9174e-05
8.52502e-06
7.89139e-06
3.33613e-05
0.00010159
0.000149708
0.000157833
0.000153498
0.00014747
0.000146587
0.000153941
0.000169639
0.000192046
0.000218522
0.000246063
0.000272016
0.00029447
0.0003125
0.000325659
0.000332107
0.000322489
0.00027006
0.000167012
9.44117e-05
7.80844e-05
9.83895e-05
0.000134737
0.000138217
8.46123e-05
3.16427e-05
1.15954e-05
1.51403e-05
2.88913e-05
6.84814e-05
0.00013175
3.87796e-05
8.37718e-06
8.09316e-06
3.38654e-05
0.000105381
0.000149451
0.000152573
0.000144487
0.000136985
0.000137319
0.000147913
0.000167726
0.000193822
0.000222833
0.000252148
0.000280137
0.000305675
0.000327701
0.00034466
0.000352272
0.000336564
0.000269393
0.000162583
9.30606e-05
7.49496e-05
9.10041e-05
0.000129172
0.00015618
0.000126071
6.098e-05
2.20661e-05
1.39769e-05
2.61689e-05
6.6632e-05
0.000133008
4.04566e-05
8.42869e-06
7.99961e-06
3.14718e-05
9.49625e-05
0.000135625
0.00013801
0.000128496
0.000118154
0.000115236
0.000123589
0.000143532
0.000172881
0.000207325
0.000241932
0.000273151
0.000299484
0.000320929
0.000338097
0.000350342
0.000350389
0.000311547
0.000204592
0.000102133
6.75578e-05
7.47969e-05
0.000107498
0.000140089
0.000132572
8.15765e-05
3.42918e-05
1.59061e-05
2.23715e-05
6.67221e-05
0.000129716
4.01396e-05
8.47969e-06
8.10744e-06
3.20006e-05
9.649e-05
0.000136687
0.000137731
0.000126719
0.000114356
0.000108523
0.000113105
0.000128893
0.000154984
0.000188942
0.000226971
0.000264903
0.000299297
0.000327751
0.00034868
0.000359885
0.000353891
0.000308751
0.000204795
0.000100902
6.02806e-05
6.10509e-05
8.91064e-05
0.000133908
0.000162368
0.000133297
6.77172e-05
2.86034e-05
2.23919e-05
4.61249e-05
0.000123663
4.5184e-05
8.81174e-06
8.30543e-06
3.32584e-05
0.000104522
0.000141475
0.000140131
0.000127563
0.000114421
0.00010874
0.00011428
0.000131345
0.000157919
0.000190402
0.000224966
0.000258723
0.000289789
0.000316793
0.000338524
0.000352883
0.00035304
0.000318237
0.000222639
0.00011186
6.32705e-05
5.86077e-05
7.86293e-05
0.000107525
0.000124906
0.000116214
7.93408e-05
4.00673e-05
2.6204e-05
3.85984e-05
0.000106498
5.2645e-05
9.45098e-06
8.14869e-06
3.3131e-05
0.000103762
0.000145469
0.000144794
0.00013063
0.000114224
0.000104325
0.000105675
0.000119751
0.000146003
0.00018164
0.000221969
0.000262259
0.000299216
0.000331008
0.000356408
0.00037314
0.00037252
0.000326078
0.00020575
8.9874e-05
4.76205e-05
4.68417e-05
7.16291e-05
0.00011611
0.000154803
0.000146286
9.29487e-05
4.61686e-05
2.95676e-05
4.13331e-05
0.000118615
5.51671e-05
9.84406e-06
8.53145e-06
3.76632e-05
0.000119366
0.00015163
0.000146109
0.000131576
0.000119037
0.000114075
0.000118545
0.000133127
0.000157772
0.000191002
0.000229827
0.000270656
0.000310262
0.000346128
0.000375977
0.000396035
0.000394596
0.000338653
0.000208432
9.52662e-05
5.35061e-05
5.56223e-05
7.64507e-05
8.8304e-05
8.88742e-05
7.93223e-05
5.8227e-05
3.92266e-05
3.56682e-05
6.33033e-05
0.000162581
4.98162e-05
9.80002e-06
8.48298e-06
3.69373e-05
0.000118789
0.000151028
0.000143073
0.000125877
0.000112637
0.000108459
0.000113554
0.000127276
0.000149115
0.000178126
0.000212536
0.000249991
0.000288001
0.000324084
0.000355453
0.000377902
0.000380904
0.000334292
0.000211041
9.18749e-05
4.03252e-05
3.30684e-05
5.89732e-05
9.41067e-05
9.09878e-05
6.976e-05
5.27099e-05
4.51027e-05
5.56598e-05
0.000112761
0.000160346
4.04703e-05
8.93551e-06
8.58933e-06
3.90243e-05
0.000122982
0.000153581
0.000141889
0.000123235
0.000111814
0.000110841
0.000118486
0.000132484
0.000151512
0.00017487
0.000201758
0.000231027
0.000261357
0.000291482
0.000320166
0.000346021
0.000367217
0.000379355
0.000360823
0.00025634
0.000109268
4.65365e-05
3.61788e-05
4.76779e-05
5.53195e-05
5.13965e-05
4.61769e-05
4.884e-05
7.34302e-05
0.000146407
0.00015555
3.81793e-05
8.26194e-06
8.8631e-06
4.08564e-05
0.000126179
0.000144095
0.000127423
0.000109376
0.000102477
0.000108153
0.000123573
0.000144656
0.00016784
0.000191378
0.000214982
0.000238697
0.000262311
0.000285214
0.000306288
0.000323284
0.00033102
0.000318586
0.00027122
0.000189245
0.000105069
5.08122e-05
3.13861e-05
3.66252e-05
5.04944e-05
5.25833e-05
5.01223e-05
5.79127e-05
9.30186e-05
0.000164154
0.000151552
3.84356e-05
8.07051e-06
8.83828e-06
4.00603e-05
0.000123543
0.000143953
0.000126255
0.000106457
9.77758e-05
0.000101248
0.000114249
0.000133712
0.00015683
0.000181566
0.000206753
0.000231803
0.00025636
0.000280068
0.00030256
0.000323547
0.000342598
0.000357429
0.000357779
0.000315325
0.000206873
9.38545e-05
4.22954e-05
2.91387e-05
3.40147e-05
4.21199e-05
4.68843e-05
5.84308e-05
9.49946e-05
0.00015989
0.000156909
4.11072e-05
8.30971e-06
8.96432e-06
4.16575e-05
0.000128382
0.000140956
0.000118545
9.90814e-05
9.37745e-05
0.000101427
0.000118264
0.000140349
0.000164495
0.000188848
0.000212633
0.000235598
0.000257553
0.000278128
0.000296721
0.000312358
0.00032301
0.000323542
0.000302726
0.000246811
0.000161761
8.54418e-05
4.53575e-05
3.21897e-05
3.3762e-05
4.0746e-05
4.79645e-05
6.21925e-05
9.9401e-05
0.000160971
0.000164775
4.40863e-05
8.63758e-06
8.8208e-06
3.95298e-05
0.00012207
0.000133751
0.00010954
9.04647e-05
8.68903e-05
9.65052e-05
0.000115095
0.000138757
0.000164687
0.000191274
0.000217625
0.000243196
0.000267534
0.000290167
0.000310547
0.000327957
0.000341071
0.000346216
0.000332897
0.000280857
0.000184041
9.04137e-05
4.48459e-05
3.1282e-05
3.25534e-05
3.92526e-05
4.77319e-05
6.47788e-05
0.000104588
0.000162783
0.000164226
4.53496e-05
8.94076e-06
8.96319e-06
4.157e-05
0.000127285
0.000130785
0.000102676
8.4113e-05
8.28923e-05
9.53508e-05
0.000116407
0.000141517
0.000168232
0.000195869
0.000224213
0.000252839
0.000281015
0.000307783
0.000331993
0.000352184
0.000365849
0.000366136
0.000334423
0.00024796
0.000135358
6.4247e-05
3.68405e-05
3.10659e-05
3.66579e-05
4.6007e-05
5.47559e-05
7.42045e-05
0.000119799
0.000174138
0.000161167
4.45901e-05
9.15387e-06
8.76238e-06
4.05064e-05
0.000123345
0.000125954
9.67986e-05
7.8878e-05
7.96578e-05
9.49566e-05
0.000118578
0.000144932
0.000171969
0.000200165
0.000230282
0.000262418
0.000296047
0.000330243
0.000363556
0.000392465
0.000406366
0.000403695
0.000344748
0.000205005
8.94583e-05
4.20841e-05
3.05393e-05
3.36966e-05
4.20326e-05
5.6104e-05
7.32871e-05
0.000100819
0.000149955
0.000193033
0.000158757
4.24893e-05
8.97147e-06
8.81418e-06
4.10738e-05
0.000121046
0.000119803
8.92855e-05
7.098e-05
7.17974e-05
8.82042e-05
0.000114226
0.000142682
0.0001703
0.000197917
0.00022732
0.000259438
0.000293997
0.000329702
0.000364419
0.000394261
0.000403225
0.000392017
0.000297129
0.000156712
6.652e-05
3.17091e-05
2.69627e-05
4.34009e-05
5.67956e-05
6.10427e-05
8.31645e-05
0.000127605
0.000176761
0.000195115
0.000133593
3.73105e-05
8.34347e-06
8.79907e-06
4.21333e-05
0.000121211
0.000119974
9.05638e-05
7.02305e-05
6.82188e-05
8.23294e-05
0.000107529
0.000135938
0.000162536
0.000187302
0.000212183
0.000238665
0.00026693
0.000295767
0.000322588
0.000343196
0.000350945
0.000333993
0.000273198
0.000169516
7.9349e-05
3.4996e-05
2.19505e-05
3.34457e-05
7.6648e-05
9.02761e-05
9.253e-05
0.000121594
0.000166074
0.000182133
0.000124068
3.55966e-05
7.93046e-06
8.59737e-06
4.02892e-05
0.000116907
0.00012414
9.63936e-05
7.02183e-05
6.12764e-05
6.87522e-05
8.91357e-05
0.000116092
0.000143041
0.000167523
0.000190312
0.000212782
0.00023551
0.000257903
0.000278282
0.000294045
0.000301712
0.000296676
0.000271811
0.000216407
0.000134234
6.47135e-05
3.06157e-05
2.2268e-05
3.6636e-05
9.05793e-05
0.000140769
0.000155598
0.000182149
0.000201802
0.000148216
3.93767e-05
7.91436e-06
8.73082e-06
4.17466e-05
0.000119468
0.000126508
0.000101208
7.40078e-05
6.1054e-05
6.39393e-05
8.06297e-05
0.000106107
0.000133041
0.000157311
0.000178977
0.000199479
0.000219732
0.000239599
0.000258034
0.000273454
0.000283897
0.000286925
0.000279081
0.000254366
0.000203921
0.000130604
6.64142e-05
3.31308e-05
2.35624e-05
3.42109e-05
8.30281e-05
0.000157794
0.000192138
0.000202254
0.000150332
4.08343e-05
7.88219e-06
8.50948e-06
4.03228e-05
0.00011844
0.000134717
0.000115207
8.43635e-05
6.27973e-05
5.768e-05
6.75274e-05
8.90686e-05
0.000115817
0.000141527
0.000164273
0.000185055
0.000205089
0.000224583
0.000242765
0.000258369
0.000270202
0.00027726
0.000278203
0.00027018
0.000247124
0.000200278
0.00013156
6.9119e-05
3.49335e-05
2.45965e-05
3.49696e-05
8.28296e-05
0.000153279
0.00016687
0.000130943
4.00103e-05
8.11857e-06
8.57441e-06
4.114e-05
0.000122376
0.000138288
0.000119289
9.11856e-05
6.89971e-05
5.98867e-05
6.47155e-05
8.21794e-05
0.000107331
0.000133131
0.000155899
0.000176
0.000194925
0.000213279
0.000230419
0.000245102
0.000256419
0.000264147
0.000268229
0.000267436
0.000258061
0.000233581
0.000187515
0.000124219
6.73862e-05
3.68317e-05
3.08281e-05
4.61561e-05
9.30489e-05
0.00015288
0.000149433
4.67777e-05
9.08247e-06
8.41553e-06
4.06631e-05
0.000123553
0.000140567
0.000121862
9.50363e-05
7.35396e-05
6.27986e-05
6.44877e-05
7.89803e-05
0.000103238
0.000130163
0.000154239
0.000174696
0.00019304
0.000210277
0.000226103
0.000239845
0.00025166
0.00026261
0.000273219
0.000281517
0.000281284
0.000262393
0.00021728
0.000152251
8.93994e-05
4.95285e-05
3.56426e-05
4.1856e-05
7.31462e-05
0.000148654
0.000198775
5.35199e-05
9.46479e-06
8.47119e-06
4.21604e-05
0.000130017
0.000143041
0.00011923
9.36642e-05
7.70326e-05
6.86352e-05
6.90609e-05
8.0655e-05
0.000102901
0.00012997
0.00015526
0.000176493
0.000194639
0.000210843
0.000225292
0.000238408
0.000252295
0.000270635
0.000295487
0.000322386
0.000335468
0.000308471
0.000229787
0.000134481
6.83562e-05
3.74735e-05
3.07915e-05
4.81325e-05
0.000105208
0.000185967
0.000167558
3.96747e-05
8.35773e-06
8.49322e-06
4.30492e-05
0.000134004
0.000136451
0.00010557
8.36312e-05
7.49183e-05
7.35568e-05
7.73337e-05
8.84244e-05
0.000108019
0.000132267
0.000155121
0.000173533
0.000187776
0.00019889
0.000207722
0.000216051
0.000227733
0.000247696
0.000278716
0.000315847
0.000339552
0.00031683
0.000230662
0.000127162
6.15636e-05
3.2695e-05
2.61251e-05
4.55059e-05
0.000119893
0.000157628
0.000104211
3.01457e-05
7.35477e-06
8.73322e-06
4.61982e-05
0.000143324
0.000127202
9.09223e-05
7.54384e-05
7.43303e-05
7.90288e-05
8.64685e-05
9.812e-05
0.000115097
0.000134686
0.000152141
0.000164736
0.00017261
0.000177078
0.00017957
0.000181932
0.000187381
0.000199747
0.000221126
0.000249039
0.000273668
0.000278763
0.000247093
0.000175674
9.94721e-05
5.32549e-05
3.55106e-05
4.09159e-05
8.4488e-05
0.000144608
0.000115763
3.34192e-05
7.7882e-06
9.02823e-06
5.00021e-05
0.000146255
0.000101864
7.02911e-05
6.603e-05
7.56378e-05
8.96212e-05
0.000103063
0.000116516
0.000131542
0.000146848
0.000159138
0.000166119
0.000167789
0.000165877
0.000162842
0.000161263
0.000163729
0.000172685
0.000189492
0.000212835
0.000237563
0.00025529
0.000256921
0.000234001
0.000182925
0.000120982
7.77419e-05
6.11164e-05
6.61253e-05
0.000100385
0.000176711
5.46163e-05
9.33206e-06
9.36284e-06
5.58942e-05
0.000137845