/*--------------------------------*- C++ -*----------------------------------*\
| =========                 |                                                 |
| \\      /  F ield         | OpenFOAM: The Open Source CFD Toolbox           |
|  \\    /   O peration     | Version:  v2006                                 |
|   \\  /    A nd           | Website:  www.openfoam.com                      |
|    \\/     M anipulation  |                                                 |
\*---------------------------------------------------------------------------*/
FoamFile
{
    version     2.0;
    format      ascii;
    class       volScalarField;
    location    "4";
    object      k;
}
// * * * * * * * * * * * * * * * * * * * * * * * * * * * * * * * * * * * * * //

dimensions      [0 2 -2 0 0 0 0];


internalField   nonuniform List<scalar> 
78750
(
2.20352e-06
1.02227e-05
1.56319e-05
5.12087e-05
0.000201742
0.000373666
0.000486307
0.000509647
0.000459807
0.000381191
0.000315966
0.000281078
0.000271677
0.000277162
0.000290054
0.000306465
0.000324376
0.000342592
0.000360224
0.000376363
0.00039074
0.000403155
0.000413445
0.000421439
0.000426915
0.000429571
0.000429025
0.000424814
0.000416382
0.000402941
0.000382259
0.000350062
0.000300586
0.00020226
8.7156e-05
2.74892e-05
0.000210446
0.000316243
0.000386346
0.000440844
0.00048186
0.000506505
0.000514346
0.000511523
0.000507033
0.000507528
0.000515954
0.000532473
0.000555662
0.000583346
0.000613264
0.00064345
0.000672269
0.000698601
0.00072307
0.000746497
0.000768835
0.000789973
0.000809606
0.000827168
0.000841849
0.000852682
0.000858779
0.000859642
0.000855265
0.000845783
0.000828191
0.000780835
0.00058608
0.000507982
3.84188e-05
0.000179901
0.000280109
0.000334594
0.000357504
0.000366008
0.000373113
0.000387902
0.000411462
0.000439195
0.000469266
0.000500907
0.000533156
0.000565552
0.00059777
0.000627722
0.00065279
0.000672393
0.000687197
0.000698415
0.000707503
0.000715787
0.00072436
0.000733692
0.000743411
0.000752829
0.000760518
0.000764631
0.000763505
0.000755681
0.000739162
0.000712795
0.000712909
0.000817024
0.00112849
2.87421e-05
0.00015046
0.000257116
0.000340317
0.000390087
0.000413237
0.000424535
0.000435671
0.000453207
0.000480208
0.000517673
0.00056866
0.000633324
0.000701024
0.000761802
0.00081063
0.000846785
0.000871971
0.000888932
0.000900282
0.000908427
0.000915629
0.000923731
0.000934197
0.000948748
0.000968911
0.00099261
0.00101256
0.00101771
0.00100032
0.000953548
0.000852624
0.000652612
0.00060684
0.00139555
4.58517e-05
9.15136e-05
0.000149161
0.000223161
0.000301503
0.000370466
0.00042306
0.000459123
0.000485427
0.000510415
0.000539285
0.00057291
0.000609525
0.000647132
0.000682658
0.000710538
0.000727625
0.000733908
0.000730853
0.000720164
0.000704663
0.000691814
0.000694238
0.000719016
0.00076167
0.000815182
0.000875174
0.000944583
0.00103338
0.00114667
0.00126591
0.00132981
0.00121194
0.0010926
0.00185916
5.35646e-05
7.19219e-05
9.35182e-05
0.000130562
0.000186817
0.000257438
0.000330663
0.000394496
0.000442074
0.000475304
0.000502022
0.000526295
0.00054817
0.000568222
0.000585544
0.000596425
0.000598481
0.000593861
0.000587333
0.000581622
0.000577419
0.000575086
0.000575276
0.000578856
0.000585494
0.00059293
0.000598783
0.000603055
0.000609553
0.000625449
0.000684781
0.000876164
0.00108659
0.00120356
0.00206028
7.92482e-05
8.05348e-05
8.10879e-05
8.6607e-05
0.000104134
0.00013787
0.000186066
0.000240119
0.00029154
0.000335359
0.000370475
0.000398764
0.000422197
0.000441663
0.000456647
0.000464737
0.00046232
0.000448288
0.000433657
0.000435261
0.000453887
0.000482614
0.000519952
0.000564982
0.000615183
0.000667508
0.000719758
0.000769558
0.000809373
0.000829601
0.000824339
0.000845536
0.00108642
0.00144022
0.00244569
0.000126178
0.000104986
0.000100153
0.000107503
0.00012116
0.000136782
0.000155908
0.000178718
0.000200922
0.000219602
0.00023391
0.000244018
0.000250321
0.000253201
0.000253542
0.000253889
0.000259612
0.000278046
0.000311163
0.000353499
0.000402984
0.000460099
0.00052361
0.000592986
0.000667992
0.000747633
0.000839335
0.000954522
0.00108365
0.00120115
0.00126888
0.00121131
0.00114471
0.00147978
0.00266385
0.000143832
9.58893e-05
8.06921e-05
8.69384e-05
0.000108642
0.000130101
0.000143236
0.000149089
0.000150944
0.000151032
0.000150772
0.000151572
0.000154724
0.00016048
0.000168733
0.000179979
0.000195677
0.000217517
0.000245709
0.000277755
0.00031102
0.000345334
0.000379979
0.000413127
0.000442481
0.000466648
0.000487479
0.000515204
0.0005828
0.000732084
0.0010009
0.00133599
0.00156733
0.00189623
0.00292059
0.000137613
9.54137e-05
8.0402e-05
7.63676e-05
8.57079e-05
0.000103788
0.000120255
0.00013374
0.000148539
0.000168073
0.000193789
0.000223878
0.000255926
0.000287972
0.000318722
0.000348426
0.0003776
0.000405688
0.000432488
0.000458984
0.000486651
0.000517711
0.000556302
0.000610031
0.000688697
0.000794202
0.000908116
0.00100122
0.00105568
0.00106364
0.00102736
0.00106697
0.00141648
0.00192509
0.00303566
0.000122209
8.62963e-05
7.25523e-05
6.65102e-05
6.466e-05
6.87994e-05
7.74412e-05
8.9055e-05
0.000108061
0.000135051
0.000169524
0.000212256
0.000259619
0.00030927
0.000359
0.000406975
0.00045202
0.000493213
0.000529657
0.000560719
0.000585429
0.000602931
0.000612692
0.000615057
0.000613006
0.000613823
0.000634124
0.000705659
0.000874056
0.00115194
0.00145451
0.00162643
0.00182513
0.00223514
0.0032291
0.000128244
9.3014e-05
7.92875e-05
7.46362e-05
7.17835e-05
6.99404e-05
7.12058e-05
7.94693e-05
9.97132e-05
0.000131486
0.000172814
0.000224155
0.000284668
0.000351697
0.000421192
0.000488898
0.000553009
0.000613589
0.000671649
0.000728134
0.000782771
0.000834327
0.000881447
0.000922095
0.000949701
0.000951992
0.000914709
0.000831445
0.000716225
0.000641533
0.000797087
0.00123083
0.00176384
0.00229726
0.00340054
0.000116361
7.79964e-05
6.67914e-05
6.88288e-05
7.62778e-05
8.87624e-05
0.0001166
0.000163091
0.000213948
0.000270134
0.000336738
0.000409152
0.000482893
0.000554663
0.000622849
0.000687451
0.000749519
0.000810368
0.000870984
0.000933787
0.00100568
0.00109526
0.00120442
0.00132659
0.00144739
0.00155002
0.00162246
0.00165529
0.00163463
0.00153739
0.00139189
0.00148457
0.00198936
0.00256017
0.00371486
0.0001107
7.96893e-05
7.09534e-05
7.47365e-05
8.59044e-05
0.000101075
0.000123846
0.000165115
0.000222533
0.000281779
0.000343936
0.000413148
0.000485441
0.000558065
0.000629916
0.000701233
0.000772806
0.000844988
0.000916945
0.000986669
0.00105163
0.00111042
0.00116261
0.00120821
0.00124782
0.00128388
0.00132012
0.00136145
0.00141384
0.00148143
0.00155576
0.00169898
0.00216736
0.00275357
0.00400507
9.65608e-05
6.50938e-05
6.11747e-05
7.08928e-05
8.93506e-05
0.000122279
0.00017366
0.000237876
0.000305958
0.000375132
0.000447044
0.000521716
0.000597378
0.000672384
0.000746793
0.000822324
0.000900996
0.000984784
0.00107752
0.00118527
0.0013125
0.0014555
0.00159761
0.00171828
0.00180357
0.00184789
0.0018512
0.00181626
0.00174582
0.00165253
0.00161813
0.00182825
0.00240235
0.00305057
0.00441436
8.37331e-05
6.82235e-05
8.56455e-05
0.00011125
0.000137
0.000170642
0.000224306
0.000297432
0.000375804
0.000452428
0.000526464
0.000599574
0.000673718
0.000750169
0.000829784
0.000913084
0.00100171
0.00109703
0.00119853
0.00130916
0.00143353
0.00157082
0.00171428
0.00185339
0.00197791
0.00207995
0.00215334
0.00219078
0.00218163
0.00211173
0.0020192
0.00215487
0.00269408
0.00336367
0.0048466
6.26134e-05
6.33833e-05
9.88145e-05
0.000144806
0.000189463
0.000228308
0.000263632
0.000301943
0.000346683
0.00039768
0.000454801
0.000517978
0.000587078
0.000664091
0.000751106
0.000847581
0.000951998
0.00106512
0.00118565
0.00131004
0.0014405
0.00157867
0.00171839
0.00185145
0.00197085
0.00207146
0.00214929
0.00219998
0.00221817
0.00219851
0.00217715
0.00236626
0.00292219
0.00360888
0.0051522
6.70163e-05
7.17056e-05
0.000110926
0.000153951
0.000190864
0.000220983
0.000246892
0.000274366
0.00030937
0.000356473
0.000416321
0.000468237
0.000506332
0.000557392
0.00064452
0.000766239
0.000905904
0.00105533
0.00121064
0.00137285
0.00154948
0.00173895
0.00192653
0.0020972
0.00224015
0.00235043
0.00242585
0.00246361
0.00245773
0.0024047
0.00236804
0.00260948
0.00319555
0.00391033
0.00554362
8.43196e-05
0.000141869
0.000232804
0.000295401
0.000323662
0.000321807
0.000300255
0.000274538
0.000262928
0.000282402
0.000310268
0.000295109
0.000262261
0.000285138
0.000404411
0.000591256
0.000799384
0.00100607
0.00120556
0.00139681
0.00158455
0.00177463
0.001965
0.00214627
0.00230606
0.00243796
0.00253679
0.00259819
0.00261548
0.00257932
0.00252589
0.0027003
0.00328097
0.00403063
0.00567907
0.000154927
0.000559188
0.000872578
0.00100527
0.00100721
0.000917036
0.000758894
0.00055334
0.00033879
0.000196356
0.00014018
9.38761e-05
1.51706e-05
0.000103543
2.09604e-05
0.000204028
0.000484643
0.000774764
0.00104739
0.00130583
0.00155142
0.00177867
0.00198834
0.00218046
0.00235178
0.00249696
0.0026091
0.00268514
0.00272037
0.00271347
0.00272209
0.0029791
0.00354856
0.00428461
0.00593727
0.000486813
0.00142495
0.00168985
0.00164165
0.00145573
0.0012038
0.000939022
0.000644358
0.000321469
0.000186369
3.49608e-05
0.000116144
0.000119408
0.00020661
0.000157069
0.000141454
0.000121797
0.000392333
0.000710185
0.00101249
0.00130106
0.00158668
0.0018626
0.00211258
0.00232966
0.00250889
0.00264825
0.00274585
0.00279847
0.0027956
0.00275474
0.00292927
0.0035404
0.00433338
0.00598652
0.00236071
0.00203198
0.00135514
0.000815552
0.000370833
9.38887e-06
0.000163583
0.000105368
0.000107629
0.000112418
0.000199977
9.11358e-05
4.6391e-05
2.73638e-05
0.000104596
0.000134948
0.000403346
0.000701844
0.00100487
0.00131002
0.00161875
0.00191961
0.0021909
0.00242329
0.00261361
0.00276039
0.00286439
0.00292901
0.00296108
0.00297866
0.00303252
0.00324652
0.00374508
0.00448147
0.00616519
0.00373068
0.000795502
0.000302442
4.8552e-05
0.000144118
2.74431e-05
8.30256e-05
6.45857e-05
4.55474e-05
8.23305e-05
0.000104701
0.000223787
0.000127116
3.01081e-05
0.000234177
0.000230352
0.00038915
0.000831279
0.00125162
0.00163589
0.00198346
0.00228602
0.0025421
0.00275652
0.0029302
0.0030617
0.00314887
0.00318884
0.0031757
0.0031027
0.00303154
0.00325931
0.00389683
0.0047309
0.00636799
0.00085961
0.000993982
0.00163841
0.00173038
0.00155739
0.00140262
0.00112918
0.0008828
0.000572785
0.000362269
0.000109044
1.54569e-05
0.000197237
0.000274107
3.25148e-05
0.000168398
0.000189953
9.42918e-05
0.00067688
0.00127321
0.00180609
0.00225257
0.00260005
0.00286245
0.00305991
0.00320386
0.00329991
0.00335259
0.00337138
0.00337715
0.00340282
0.00357679
0.00406178
0.00476313
0.00609206
0.00145639
0.00405375
0.00435151
0.00442448
0.00450719
0.00450328
0.00442593
0.0042387
0.00394931
0.00350294
0.00298592
0.00232836
0.00162356
0.000989978
0.000504943
0.00024517
1.32649e-05
0.000221784
0.000367826
0.000191812
0.000208025
0.000578461
0.00144546
0.00221529
0.00279133
0.00314877
0.00334534
0.00344055
0.0034567
0.00343544
0.00352356
0.0038932
0.00438781
0.00498948
0.00613793
0.00149417
0.00426611
0.00468256
0.00480685
0.0049929
0.00526207
0.00554095
0.00579618
0.00600565
0.00615501
0.00620039
0.00614044
0.00592606
0.00550634
0.00485302
0.0039866
0.0029577
0.00184624
0.000762153
0.00033711
0.000269159
0.000300932
0.00012022
1.28122e-05
0.0005983
0.00168455
0.00253221
0.0030341
0.00332745
0.00343911
0.00342123
0.00364545
0.00419788
0.00485896
0.00601337
0.000505608
0.0021807
0.0027259
0.0030644
0.00343383
0.00384159
0.00422194
0.00452261
0.00474532
0.00491403
0.00506554
0.00523348
0.00547701
0.00586996
0.00642429
0.00698741
0.00728004
0.00706783
0.00625271
0.00490239
0.00309448
0.000900799
0.000144756
0.000377464
0.000215763
4.64621e-05
0.000408917
0.00169913
0.00268149
0.00333016
0.00374391
0.00409907
0.00451528
0.00505928
0.00641949
0.000571951
0.00205664
0.00331155
0.00437097
0.00522383
0.00581759
0.00617146
0.00634112
0.00636213
0.00625199
0.00602627
0.00571494
0.00537937
0.00514809
0.00522836
0.00574263
0.00649424
0.00711153
0.00738054
0.00728842
0.00686554
0.00601939
0.00443297
0.0016891
0.000413381
0.000316992
0.000203201
0.000475947
0.00188807
0.00285808
0.0034752
0.00396607
0.00449514
0.0051375
0.00665138
0.00165508
0.00424642
0.00575845
0.00650037
0.00684052
0.00700788
0.00709794
0.00714258
0.00714879
0.00711983
0.00706414
0.00699896
0.0069555
0.00697061
0.00704408
0.00714496
0.00724934
0.00731514
0.00727626
0.00709121
0.00676371
0.00630653
0.00566017
0.00459314
0.00255209
0.00059603
7.4273e-05
4.81809e-05
0.000337725
0.00153558
0.0028352
0.00399616
0.00474805
0.0054469
0.00721363
0.00279658
0.00461076
0.00495462
0.00508714
0.00524234
0.00544443
0.0056675
0.00586885
0.00600086
0.00601551
0.00587521
0.00557355
0.00517803
0.00489129
0.00496198
0.00543103
0.00609934
0.00673075
0.00715916
0.00730118
0.00715095
0.00676424
0.00622131
0.00555899
0.00471195
0.00338211
0.000565094
1.1451e-05
0.000280733
0.00148079
0.00226494
0.00316439
0.00433273
0.00554554
0.00775725
0.00243297
0.00361794
0.00472607
0.00563757
0.00636031
0.00693657
0.00740699
0.00779792
0.00810549
0.00828509
0.00825343
0.00790317
0.00713211
0.0059497
0.0046636
0.00382553
0.00372735
0.00425999
0.0051134
0.00593535
0.00647041
0.00662339
0.00643165
0.00597991
0.00530323
0.00427543
0.00223728
0.000744278
0.000514036
0.00050853
0.00310855
0.00442704
0.00520275
0.00602875
0.00747355
0.00245056
0.00465203
0.00587756
0.00643339
0.00673839
0.00696013
0.00716796
0.00740937
0.00771337
0.00808218
0.00848824
0.00887646
0.00916258
0.00922189
0.00888969
0.00802656
0.00672635
0.00546609
0.00475691
0.00478566
0.00535943
0.00594347
0.00620602
0.00615522
0.00587543
0.00536748
0.0043957
0.0020804
7.24183e-05
0.000320581
0.00194951
0.00381187
0.00492158
0.00580249
0.00723561
0.00343034
0.00512038
0.00564331
0.00597478
0.00627746
0.00654983
0.00676273
0.00689132
0.00692742
0.0068869
0.00681653
0.00679036
0.00689927
0.00720283
0.00764433
0.008032
0.00816296
0.00789481
0.00705045
0.00567903
0.00485651
0.00515152
0.00571395
0.00600028
0.00600144
0.00578644
0.00530977
0.00417503
0.000726925
0.000487962
0.00085824
0.00329894
0.00480419
0.00591689
0.00773771
0.00348531
0.00467301
0.00557718
0.00624039
0.00678159
0.00726819
0.00771756
0.00812171
0.00845141
0.00866223
0.00870957
0.00856925
0.00825589
0.00784361
0.0074829
0.00729758
0.00723912
0.00717369
0.00699156
0.00648899
0.00532664
0.00483727
0.00536908
0.00585862
0.00603227
0.00599078
0.00578115
0.00527571
0.00377018
0.000938523
0.000462641
0.00256551
0.00441031
0.00585941
0.00818372
0.00373235
0.00523975
0.00593407
0.00630268
0.00657634
0.00681595
0.00704236
0.00727323
0.00752238
0.00779452
0.00808171
0.00836169
0.00859683
0.00873377
0.00871453
0.00850065
0.0081253
0.00766939
0.00716305
0.00653987
0.00564346
0.0047998
0.00496956
0.00546724
0.00575773
0.00582451
0.005703
0.00530101
0.00419235
0.00149058
0.000690706
0.00280754
0.00460082
0.00611837
0.00819949
0.00415033
0.00532975
0.00585213
0.00623583
0.00658486
0.00689199
0.00712995
0.00728001
0.00734177
0.00733673
0.00730575
0.00730246
0.00738242
0.00758466
0.00789043
0.0081818
0.00830403
0.00819274
0.00787817
0.00738312
0.00663803
0.00555192
0.00479649
0.00484805
0.00509234
0.00520021
0.00512294
0.00480438
0.00401307
0.00220057
0.001065
0.00346209
0.00493593
0.00609901
0.00741142
0.00408165
0.00504169
0.00569457
0.00618515
0.00663044
0.0070626
0.00747188
0.00783302
0.008114
0.00828744
0.00834245
0.00829282
0.00817887
0.00806907
0.00805068
0.00815717
0.00828862
0.00831502
0.00819365
0.00793033
0.00749551
0.00675126
0.00555013
0.00465354
0.00456405
0.00470298
0.0047115
0.00449809
0.00394242
0.00264182
0.000654878
0.00279416
0.00456054
0.00588063
0.00748539
0.0040448
0.00508359
0.00560687
0.00595594
0.00626439
0.00655349
0.00682346
0.00707302
0.00730016
0.00750152
0.00767231
0.00780758
0.00790521
0.00797244
0.00803179
0.00812214
0.0082522
0.00834677
0.00833057
0.00818934
0.00792626
0.00749318
0.00669594
0.0052742
0.00401883
0.00370844
0.00379727
0.00382048
0.003591
0.00280615
0.00106098
0.00243265
0.00440654
0.00590661
0.00770075
0.00396014
0.00504412
0.00563567
0.00605166
0.00641175
0.00673154
0.00700121
0.00720958
0.00734939
0.0074204
0.00743084
0.00739696
0.0073419
0.0072965
0.00729589
0.00737993
0.00756639
0.0077925
0.00794616
0.00796924
0.00786918
0.00766272
0.00731604
0.00664667
0.00529998
0.00403525
0.00358178
0.00347369
0.00328481
0.00269068
0.00127465
0.00187994
0.00400331
0.00581169
0.00803766
0.00369248
0.00475164
0.00538061
0.00583352
0.00625067
0.00666656
0.00707263
0.00744616
0.00775913
0.00798649
0.00811264
0.00813517
0.00806627
0.00793381
0.00777239
0.00762178
0.00753653
0.0075584
0.00763477
0.00765451
0.00755435
0.00731795
0.00689883
0.00612826
0.00473177
0.00321528
0.00262573
0.00269263
0.00279867
0.0023706
0.00138119
0.00224935
0.00427932
0.00607056
0.00824113
0.00388474
0.00484638
0.00533479
0.00567307
0.0059823
0.00628675
0.00658886
0.00688502
0.00716568
0.00741567
0.00761632
0.00774906
0.00779972
0.00776724
0.00766201
0.00750375
0.00732249
0.00718319
0.00717462
0.00727308
0.00733962
0.00728179
0.00707535
0.00664738
0.00574655
0.00416409
0.00299609
0.00246704
0.00233459
0.00234829
0.00225103
0.00330743
0.0047979
0.00615098
0.00759445
0.00355713
0.00462488
0.00523509
0.00564877
0.00600659
0.00634861
0.0066799
0.00699524
0.00728431
0.00753557
0.00773803
0.00788082
0.00795245
0.00794497
0.00785567
0.00768812
0.00745075
0.00715106
0.00683359
0.00665618
0.00669038
0.00675366
0.00667397
0.00639118
0.00577613
0.00451938
0.00316883
0.00300169
0.00275846
0.00244721
0.00267617
0.00386754
0.00500281
0.00600028
0.00702183
0.00355418
0.00456964
0.00510415
0.00547082
0.0058109
0.00616756
0.00654307
0.00692264
0.00728225
0.00759873
0.00785658
0.00804827
0.00817051
0.00822065
0.00819936
0.00810779
0.00794808
0.00772086
0.00740862
0.00699206
0.00663811
0.00656354
0.00655834
0.00639711
0.00597714
0.00506729
0.00315138
0.00179707
0.00252719
0.00277243
0.00323653
0.0043524
0.00520576
0.00594221
0.00669556
0.00379116
0.00458376
0.00498148
0.00526588
0.00554323
0.00584807
0.00618952
0.00656171
0.00694339
0.00730583
0.00762364
0.00788013
0.00806643
0.0081783
0.00821659
0.00818511
0.00808886
0.00793291
0.00771582
0.0074014
0.00691407
0.00648277
0.00643952
0.0064342
0.00623136
0.0057131
0.00454548
0.00240272
0.00205408
0.00302959
0.00374722
0.00473831
0.00540503
0.00597242
0.00657405
0.00361038
0.00444068
0.00487601
0.00516682
0.00543318
0.00572265
0.0060529
0.00642318
0.00681168
0.00718534
0.00751513
0.00778317
0.00798133
0.00810708
0.00816015
0.00814549
0.00806957
0.00793914
0.00775874
0.00751963
0.00717495
0.00668123
0.00643894
0.00650294
0.00647243
0.00618688
0.00546495
0.00389933
0.00212517
0.00284984
0.00404578
0.00497914
0.00552791
0.00596623
0.00634011
0.00380821
0.00448135
0.00481225
0.00504933
0.00529038
0.00557797
0.00593213
0.00635089
0.00680011
0.00722862
0.00759598
0.00788311
0.00808584
0.00820627
0.00824806
0.00821713
0.00812197
0.00797127
0.00776957
0.00750491
0.00713899
0.0066871
0.00649327
0.0066555
0.00676437
0.00665225
0.00625722
0.00535723
0.00369179
0.00290831
0.0040591
0.0050337
0.00557756
0.00599687
0.0063812
0.00381505
0.0043985
0.0047147
0.00492184
0.00510719
0.00531377
0.0055781
0.00593153
0.00636971
0.0068426
0.00728767
0.00766295
0.00795104
0.0081483
0.00825594
0.00827757
0.00822047
0.0080937
0.0079055
0.0076517
0.00728606
0.00672883
0.0063003
0.00648177
0.00678151
0.00687353
0.0066988
0.0061399
0.00491725
0.00339934
0.00392248
0.00503579
0.00564104
0.00608595
0.00647297
0.00391618
0.00457645
0.00492669
0.00515372
0.00534532
0.00553388
0.00574406
0.00600791
0.00634251
0.00672474
0.00710564
0.00744271
0.00771307
0.00790863
0.00802816
0.0080723
0.00804482
0.00795045
0.0077921
0.00756197
0.00721571
0.00665681
0.00607682
0.00622834
0.00670757
0.00701648
0.00706969
0.00685952
0.00623665
0.00495792
0.00429027
0.00495903
0.00553604
0.00603167
0.00689783
0.00410815
0.00456294
0.0048916
0.00512685
0.00533084
0.00552926
0.00574568
0.00601475
0.00635694
0.00674644
0.00712832
0.0074588
0.00771726
0.00789794
0.00800113
0.00802913
0.0079875
0.00788255
0.00771933
0.00749389
0.00716952
0.00664287
0.0059341
0.0058454
0.00623402
0.00661407
0.00681918
0.00680609
0.00649609
0.00570022
0.00481944
0.005051
0.00559955
0.0062545
0.00779787
0.00402221
0.00467424
0.00509367
0.00535242
0.00554547
0.00570116
0.00583775
0.0059975
0.00623708
0.00656994
0.00694541
0.00729805
0.00758654
0.00779392
0.00791561
0.00795317
0.00791136
0.0077968
0.00761567
0.00736241
0.00698554
0.00634518
0.00550539
0.00558869
0.00618411
0.00667067
0.00693511
0.00699786
0.00680112
0.0061523
0.00531643
0.00540272
0.00590023
0.00660944
0.00843139
0.0042883
0.00484884
0.00518175
0.00542507
0.00565198
0.00587598
0.00609311
0.00630513
0.00653162
0.00679302
0.00708049
0.00736097
0.00760183
0.00778185
0.00788939
0.0079195
0.00787077
0.00774418
0.00754041
0.00724678
0.0067999
0.00605883
0.005145
0.00522373
0.00577946
0.0062263
0.00651665
0.00662902
0.00650382
0.00609262
0.00573855
0.00601413
0.00644289
0.00704372
0.00838263
0.00424566
0.00468831
0.00499764
0.00522
0.00542358
0.00562977
0.00584435
0.00607115
0.00631828
0.00659325
0.00688901
0.00718269
0.00744787
0.00766369
0.00781685
0.00789978
0.00790817
0.00783956
0.00769129
0.00745055
0.00705855
0.00635094
0.00519014
0.00455869
0.00547694
0.00620088
0.0065661
0.00667282
0.00656431
0.00635235
0.00630885
0.00655053
0.00679774
0.00706767
0.0071465
0.00424867
0.00487027
0.00518514
0.00539817
0.00559979
0.00581666
0.00604996
0.00628773
0.00652047
0.0067505
0.00698218
0.00721115
0.00742504
0.00760951
0.00775248
0.00784546
0.00788238
0.0078591
0.00777331
0.00762418
0.00740702
0.00708242
0.00649888
0.00543192
0.00488108
0.00544272
0.0060294
0.00635953
0.00645836
0.00647731
0.00659198
0.00676373
0.00688015
0.00690571
0.00627959
0.00443654
0.00478701
0.00496882
0.00512306
0.00530328
0.00553403
0.00582459
0.0061599
0.00650519
0.00682925
0.00711764
0.00736713
0.007577
0.00774523
0.00786936
0.00794662
0.00797417
0.00794921
0.00786844
0.00772523
0.00750122
0.00714729
0.00655255
0.00555867
0.00445784
0.00466686
0.00552704
0.00618429
0.0065195
0.00667687
0.00681307
0.00691076
0.00694078
0.00683713
0.00608745
0.00436923
0.00474912
0.00495254
0.00510135
0.00525206
0.00542822
0.00564539
0.00591051
0.00621526
0.00653819
0.00685602
0.00715095
0.00741108
0.00762914
0.00780127
0.00792519
0.00799972
0.00802459
0.00800048
0.00792871
0.00780925
0.00763176
0.00734749
0.00679654
0.0056588
0.00471072
0.00494595
0.00566891
0.00627918
0.00665722
0.00687529
0.00697334
0.00698818
0.0068933
0.00648343
0.00447318
0.0048043
0.00496931
0.00509917
0.00524894
0.00544391
0.00569111
0.0059767
0.00627959
0.00658205
0.00687102
0.00713649
0.0073703
0.00756673
0.0077218
0.00783276
0.00789801
0.0079169
0.00788936
0.00781484
0.00768907
0.00749501
0.0071822
0.00662709
0.00569276
0.00486667
0.00484656
0.00542534
0.0061089
0.0066132
0.00688801
0.00699309
0.0070081
0.00695914
0.00698192
0.00440304
0.00465889
0.0047888
0.00488705
0.00500334
0.00517129
0.00541045
0.00571114
0.00604704
0.00639243
0.00672711
0.00703562
0.00730625
0.00753171
0.00770776
0.00783242
0.00790556
0.00792846
0.00790337
0.00783261
0.0077159
0.00754186
0.00726663
0.0067674
0.00587138
0.00512188
0.00507171
0.00550864
0.00612758
0.00666777
0.00697706
0.00709151
0.0071117
0.00710854
0.00746167
0.00458938
0.00478467
0.00488791
0.00496361
0.00505602
0.00519602
0.00539952
0.00565352
0.00593925
0.00624352
0.00655352
0.00685414
0.00712963
0.00736705
0.00755743
0.00769551
0.00777911
0.00780843
0.00778532
0.0077117
0.00758464
0.00738153
0.00702942
0.00637853
0.00553471
0.00515663
0.0054145
0.00593156
0.00644783
0.006888
0.00715021
0.00726078
0.00730375
0.00735845
0.0077705
0.0044871
0.0046714
0.00476711
0.00482804
0.00490609
0.00504766
0.00527681
0.00555987
0.00585852
0.00616075
0.00646318
0.00675784
0.00703152
0.00726972
0.0074606
0.00759649
0.00767349
0.00769099
0.00765016
0.00755181
0.00738863
0.00711557
0.0066093
0.00577686
0.00520971
0.00537005
0.00576947
0.00640836
0.00690144
0.00720448
0.00735469
0.00740864
0.00742011
0.00741938
0.00739135
0.00457336
0.00473375
0.00478879
0.00480786
0.00483247
0.00491357
0.00510426
0.0053797
0.00568107
0.00598283
0.006282
0.0065761
0.00685623
0.00710889
0.00731991
0.00747734
0.00757272
0.00760146
0.00756149
0.00744976
0.00724752
0.00688636
0.00623069
0.0053271
0.00507402
0.00601105
0.00641311
0.00676596
0.00720412
0.00747693
0.00758828
0.00760029
0.00753343
0.00730565
0.00643753
0.00453148
0.00468862
0.00476499
0.00479426
0.00481154
0.00485739
0.00500185
0.00525742
0.00556238
0.00587161
0.00617302
0.00646485
0.00674331
0.00700024
0.00722469
0.00740529
0.00753183
0.00759572
0.00758934
0.00750368
0.0073208
0.00698916
0.00639562
0.00547891
0.00482168
0.00577897
0.00708638
0.00732298
0.00745021
0.007575
0.00763813
0.00763282
0.00753877
0.0071915
0.00576386
0.00431776
0.00464924
0.00476503
0.00479684
0.00478832
0.00476451
0.00480297
0.00497805
0.00525538
0.00557058
0.00589067
0.00620491
0.0065075
0.00679156
0.0070487
0.00727001
0.00744684
0.00757092
0.00763402
0.00762664
0.00753559
0.0073358
0.00696691
0.00631451
0.00537691
0.00493663
0.00601166
0.00722406
0.0075685
0.00763369
0.0076071
0.00752994
0.007388
0.00701579
0.00554484
0.0043537
0.00467452
0.00480831
0.00486487
0.00487704
0.00484985
0.00483256
0.00492528
0.00514631
0.00543247
0.00573818
0.00604616
0.00634903
0.0066399
0.00691114
0.00715518
0.00736507
0.00753424
0.00765506
0.00771946
0.00771824
0.00763892
0.00745801
0.00711913
0.00651396
0.00563314
0.00511399
0.0057813
0.0068797
0.0073841
0.00755369
0.00756327
0.00744524
0.00705107
0.00556993
0.00411172
0.00457653
0.00478753
0.0048892
0.00492957
0.00490244
0.00482175
0.00479473
0.00492439
0.00517473
0.00547587
0.00579234
0.00611089
0.0064233
0.00672129
0.00699706
0.00724428
0.00745687
0.00762925
0.00775556
0.00782895
0.0078412
0.00778101
0.00762692
0.00732789
0.00678231
0.00596198
0.0053719
0.00589214
0.00672266
0.00719937
0.00740918
0.00744666
0.0072102
0.00604039
0.00413136
0.00461113
0.00483899
0.0049687
0.00504916
0.00506963
0.00501354
0.0049315
0.00495472
0.00511996
0.00536727
0.00564912
0.00594632
0.00624981
0.00655121
0.00684175
0.00711303
0.00735758
0.00756927
0.0077419
0.00786872
0.00794288
0.00795774
0.0079048
0.00776608
0.00749708
0.00700868
0.00629135
0.00592027
0.00625283
0.00666313
0.00695099
0.00712682
0.00722091
0.00729905
0.00399795
0.00449503
0.00475673
0.00491644
0.00503039
0.00509093
0.0050747
0.00499941
0.00497623
0.00508939
0.0053045
0.00556635
0.00584891
0.00614285
0.00644211
0.00674016
0.00702904
0.00730107
0.00754763
0.00775767
0.00791903
0.00802216
0.00806282
0.00803961
0.00794556
0.00775373
0.00739823
0.00680443
0.00626162
0.00638319
0.00670204
0.00695265
0.00714026
0.00740121
0.00803716
0.00402464
0.00455444
0.00480875
0.00497182
0.00510705
0.00520766
0.00523851
0.00518779
0.00512786
0.00516651
0.00531836
0.00553782
0.00579216
0.00606805
0.00635948
0.00666134
0.00696746
0.00727098
0.00756
0.0078141
0.00800843
0.00812573
0.00816305
0.00812323
0.007995
0.00772697
0.0072137
0.00643264
0.00597015
0.00661018
0.00717401
0.00739266
0.00747676
0.00744885
0.00683503
0.00400738
0.00448375
0.00470527
0.00485906
0.00500967
0.00515512
0.00525721
0.00529313
0.00529314
0.00532768
0.00543621
0.00560613
0.00581639
0.0060564
0.00632242
0.00661143
0.00692203
0.00725078
0.0075845
0.00789461
0.00814248
0.00829778
0.00835136
0.00830436
0.00814269
0.00780393
0.00716975
0.00623642
0.00558568
0.00616562
0.00694205
0.00726965
0.00737431
0.00712307
0.00551736
0.00412914
0.00457745
0.0047467
0.00487532
0.00503328
0.0052151
0.00536106
0.00544157
0.00548159
0.00552847
0.00561397
0.00574087
0.00590157
0.00609218
0.00631213
0.0065634
0.00685009
0.00717431
0.00752808
0.0078858
0.00820586
0.00844613
0.00858176
0.00860668
0.00851685
0.00828772
0.007853
0.00714586
0.0063512
0.0061125
0.00642837
0.00665968
0.00672002
0.00653239
0.00562179
0.00430358
0.00456711
0.00464124
0.00472932
0.00491082
0.0051713
0.00540875
0.00557645
0.00568933
0.00578031
0.00587515
0.00598501
0.00611289
0.00626143
0.00643387
0.00663767
0.0068827
0.00717591
0.00751387
0.00787745
0.00823058
0.00852959
0.00874488
0.00886579
0.00889132
0.00881836
0.00863118
0.00829504
0.00779412
0.00726523
0.00690781
0.00667686
0.00659501
0.00661043
0.00706615
0.00455535
0.00461312
0.00459127
0.00463885
0.00486695
0.00521331
0.00551504
0.00573355
0.0058907
0.00601266
0.0061198
0.00622565
0.0063387
0.00646486
0.00661078
0.00678725
0.00700797
0.00728269
0.00760933
0.00796925
0.00832567
0.00863876
0.00888269
0.0090487
0.0091378
0.00915271
0.0090922
0.00894485
0.008681
0.00826217
0.00771238
0.00726551
0.00722526
0.00751143
0.00866011
0.00473958
0.0045317
0.0044055
0.00441702
0.00473922
0.00521479
0.00560397
0.0058887
0.00610101
0.00626317
0.00639124
0.00649968
0.00660196
0.00670962
0.00683565
0.00699721
0.00721368
0.00749564
0.00783267
0.00819192
0.00853047
0.00881981
0.00904836
0.00921355
0.00931565
0.00935489
0.00932783
0.00921982
0.00899613
0.00861767
0.00814622
0.0078586
0.0078863
0.00811986
0.00879861
0.00469456
0.00436619
0.00418107
0.00416469
0.00455494
0.00513395
0.00559634
0.0059423
0.0062109
0.00642095
0.00658411
0.0067128
0.0068211
0.00692389
0.00704086
0.00719826
0.00742563
0.00773796
0.00811005
0.00847609
0.00878358
0.00902403
0.00920777
0.00934261
0.00942848
0.00945846
0.00941914
0.00928907
0.00904508
0.00869751
0.00834911
0.00815255
0.00808208
0.0080105
0.00739339
0.00449978
0.00416533
0.0039472
0.00384678
0.00416695
0.0048519
0.00545716
0.00591334
0.00626333
0.00653311
0.00673655
0.00688681
0.00699814
0.0070885
0.00718199
0.00731152
0.00751741
0.0078327
0.00824085
0.00864452
0.00895364
0.00916183
0.00929789
0.00938195
0.00942062
0.00941066
0.00934111
0.00919641
0.0089684
0.00868154
0.00840491
0.0081881
0.0079708
0.00754175
0.00590472
0.0041951
0.00399401
0.00378375
0.00356098
0.00357978
0.00423686
0.00504834
0.00569809
0.00619283
0.00657196
0.00685776
0.00706447
0.00720632
0.00730059
0.00737034
0.00744752
0.00757613
0.00780977
0.00817646
0.00861024
0.00897747
0.00921114
0.00933303
0.00937552
0.00935508
0.00927977
0.00915543
0.00898499
0.00877177
0.00853051
0.00828545