/*--------------------------------*- C++ -*----------------------------------*\
| =========                 |                                                 |
| \\      /  F ield         | OpenFOAM: The Open Source CFD Toolbox           |
|  \\    /   O peration     | Version:  v2006                                 |
|   \\  /    A nd           | Website:  www.openfoam.com                      |
|    \\/     M anipulation  |                                                 |
\*---------------------------------------------------------------------------*/
FoamFile
{
    version     2.0;
    format      ascii;
    class       volScalarField;
    location    "4";
    object      omega;
}
// * * * * * * * * * * * * * * * * * * * * * * * * * * * * * * * * * * * * * //

dimensions      [0 0 -1 0 0 0 0];


internalField   nonuniform List<scalar> 
78750
(
304.707
11.6952
11.8758
12.2964
13.6236
14.8701
15.59
15.7161
15.3925
14.8903
14.4705
14.2474
14.1925
14.2358
14.3273
14.4408
14.5627
14.6852
14.8026
14.909
15.003
15.0837
15.1502
15.2017
15.237
15.2541
15.2508
15.224
15.1698
15.0825
14.9455
14.7263
14.3825
13.8018
417.48
447.354
5.15156
5.80262
6.19645
6.48415
6.69007
6.80883
6.84537
6.83231
6.8125
6.81692
6.8588
6.93814
7.0473
7.17518
7.31078
7.44508
7.57112
7.68453
7.78848
7.88675
7.97938
8.06614
8.14599
8.21691
8.27593
8.31957
8.34463
8.34945
8.33419
8.29958
8.23448
8.05566
7.27944
616.554
447.445
4.94617
5.58899
5.90773
6.03643
6.08305
6.12102
6.20041
6.32602
6.47063
6.62315
6.77981
6.93569
7.08863
7.23728
7.37258
7.4838
7.56951
7.63347
7.6815
7.72011
7.75512
7.79125
7.83047
7.87109
7.91015
7.94171
7.95824
7.95303
7.92025
7.852
7.74662
7.77955
8.31061
619.914
447.36
4.74038
5.45005
5.94259
6.21769
6.34165
6.40144
6.45948
6.54927
6.68442
6.86762
7.10971
7.40446
7.70028
7.95612
8.15564
8.3001
8.39912
8.46492
8.50859
8.5399
8.56771
8.59907
8.63969
8.69615
8.7738
8.86403
8.93924
8.95871
8.89382
8.71676
8.32427
7.50459
7.41307
621.263
447.511
4.29265
4.73041
5.23464
5.717
6.10831
6.38954
6.57455
6.70638
6.82933
6.96818
7.12599
7.2934
7.46088
7.61504
7.73315
7.8039
7.82867
7.81414
7.76729
7.6998
7.64401
7.65541
7.76376
7.94571
8.16787
8.4099
8.68156
9.0181
9.43191
9.85232
10.0801
9.71445
9.37936
623.531
447.582
4.13603
4.31627
4.60227
4.99969
5.45404
5.88552
6.23552
6.48302
6.65058
6.78236
6.89947
7.0032
7.09672
7.17578
7.22392
7.23152
7.20945
7.17945
7.1535
7.13445
7.12383
7.12457
7.14067
7.17039
7.20301
7.22751
7.24408
7.27101
7.34169
7.60811
8.42437
9.2721
9.776
624.489
447.806
4.20187
4.21719
4.26957
4.41097
4.66309
4.9973
5.34521
5.65524
5.90597
6.09921
6.25039
6.37266
6.4721
6.54695
6.58586
6.57167
6.50009
6.42902
6.44445
6.5454
6.6935
6.87967
7.09614
7.32907
7.564
7.79198
8.00389
8.16954
8.25268
8.23328
8.3278
9.28201
10.5571
626.293
448.204
4.39527
4.37392
4.44116
4.5493
4.66513
4.80011
4.95473
5.10003
5.21882
5.30783
5.36963
5.40757
5.42461
5.42672
5.42993
5.46685
5.58015
5.77612
6.01618
6.28406
6.57892
6.89165
7.21772
7.55461
7.89694
8.27439
8.72684
9.20966
9.63075
9.87072
9.6931
9.50881
10.6957
627.289
448.351
4.3268
4.22527
4.28805
4.46263
4.62509
4.72129
4.76358
4.77702
4.77777
4.77591
4.78134
4.80331
4.84345
4.90052
4.97703
5.08144
5.22254
5.39874
5.59225
5.78592
5.97851
6.16664
6.34112
6.49128
6.6117
6.71351
6.84824
7.16916
7.83476
8.91542
10.1171
10.9069
11.9304
628.447
448.304
4.32726
4.22699
4.20967
4.29416
4.43907
4.56413
4.66213
4.766
4.8995
5.07028
5.26333
5.46173
5.65338
5.83142
5.99849
6.1582
6.30799
6.44764
6.58283
6.72117
6.87334
7.05812
7.30781
7.65872
8.10571
8.56249
8.91838
9.11976
9.14926
9.01968
9.18073
10.4246
12.003
628.964
448.176
4.25231
4.15828
4.12326
4.12041
4.16271
4.23688
4.32978
4.47345
4.66858
4.90661
5.18663
5.48027
5.77207
6.05054
6.30771
6.54001
6.74547
6.92216
7.06926
7.18411
7.26434
7.30856
7.31884
7.30893
7.31202
7.40282
7.71679
8.41337
9.45645
10.4823
11.0422
11.6739
12.8412
629.838
448.229
4.30644
4.21404
4.19035
4.17943
4.17398
4.19011
4.25834
4.41414
4.64634
4.93217
5.26618
5.63443
6.01577
6.38711
6.72926
7.038
7.3177
7.57587
7.81888
8.04716
8.25721
8.44555
8.60582
8.71394
8.72464
8.58279
8.25472
7.77698
7.44976
8.11767
9.75895
11.4895
12.9965
630.613
448.13
4.18751
4.11129
4.13954
4.20925
4.31532
4.53084
4.86205
5.19854
5.54628
5.93161
6.32372
6.6992
7.04517
7.35855
7.64343
7.90738
8.15782
8.39988
8.64415
8.91671
9.24583
9.63194
10.0464
10.44
10.7634
10.9869
11.0887
11.0307
10.7399
10.2902
10.6119
12.1434
13.6648
632.021
448.084
4.20116
4.14382
4.18449
4.28174
4.40551
4.57947
4.87276
5.24971
5.61135
5.96757
6.34074
6.70808
7.05766
7.38704
7.69982
8.00122
8.2939
8.57554
8.83969
9.07872
9.28959
9.47268
9.62991
9.76479
9.88663
10.0086
10.1475
10.3228
10.5478
10.7979
11.2656
12.6281
14.1329
633.303
447.965
4.08316
4.06113
4.14785
4.30171
4.5574
4.92421
5.34288
5.75089
6.13723
6.51524
6.88622
7.24266
7.57918
7.89844
8.20941
8.52094
8.84078
9.18237
9.56474
9.99831
10.4644
10.907
11.2678
11.5149
11.6403
11.6482
11.5472
11.3429
11.0695
10.9824
11.645
13.2417
14.8232
635.092
447.856
4.10901
4.2537
4.4523
4.64324
4.88255
5.24158
5.6926
6.1368
6.54066
6.9081
7.25222
7.58458
7.91199
8.23877
8.56716
8.90294
9.25017
9.60663
9.98133
10.3863
10.8156
11.2466
11.6492
11.9983
12.2774
12.4749
12.5756
12.5543
12.3746
12.1422
12.5507
13.9561
15.5069
636.921
447.67
4.06804
4.35447
4.69634
5.00665
5.26391
5.4901
5.72589
5.98714
6.26843
6.56644
6.87975
7.20684
7.55443
7.92792
8.32156
8.72712
9.14567
9.57086
9.99119
10.4144
10.8445
11.2623
11.646
11.9796
12.2535
12.4613
12.5951
12.6439
12.5973
12.5594
13.0965
14.4901
16.0241
638.211
447.702
4.12826
4.43828
4.75485
5.01256
5.21552
5.3853
5.55873
5.7703
6.03965
6.36027
6.62904
6.82721
7.0832
7.48757
8.01
8.56649
9.12422
9.67065
10.21
10.7673
11.3353
11.8713
12.3386
12.7165
13.0001
13.1905
13.2848
13.2709
13.1416
13.0612
13.6927
15.0911
16.6252
639.824
447.844
4.61474
5.20184
5.57472
5.74134
5.74331
5.64031
5.51744
5.4788
5.61622
5.78806
5.70975
5.53781
5.70076
6.36554
7.27008
8.15714
8.95255
9.65832
10.2891
10.8738
11.4362
11.9736
12.4644
12.8822
13.2181
13.4647
13.6165
13.6613
13.5797
13.4645
13.919
15.2807
16.8643
640.384
448.42
6.92261
8.2607
8.77694
8.79709
8.46874
7.84458
6.94885
5.88603
5.0895
4.74265
4.40987
3.81025
4.54941
3.8851
5.26599
6.79501
8.0736
9.1159
10.0064
10.7845
11.4569
12.0449
12.5603
13.0037
13.3686
13.645
13.8309
13.9186
13.9084
13.941
14.5651
15.8481
17.3547
641.452
450.81
10.2712
11.1523
11.0587
10.5283
9.73315
8.7714
7.5414
5.95307
3.73143
4.17349
4.71017
4.66003
3.60342
4.93288
4.77288
4.62897
6.30096
7.79485
8.98732
9.99591
10.9026
11.7101
12.3955
12.9609
13.4099
13.7493
13.9829
14.1104
14.1111
14.0285
14.4524
15.8211
17.4356
641.641
462.398
12.1837
10.2957
8.46258
6.55418
4.33851
3.87516
4.7869
4.74921
4.76166
3.62667
4.50258
4.15433
3.97788
4.57573
4.75577
6.36064
7.76011
8.96102
10.0289
11.0065
11.8812
12.6161
13.2123
13.6807
14.0309
14.2736
14.4222
14.4963
14.541
14.6773
15.1806
16.2657
17.7362
642.44
471.144
8.57411
3.95139
3.93332
4.71368
3.75467
4.25025
4.27167
4.20328
4.54658
4.83607
3.85345
4.97524
4.27495
5.65655
5.58935
6.41015
8.38755
9.89406
11.0977
12.0848
12.8823
13.5214
14.0344
14.4366
14.7338
14.9277
15.0161
14.9881
14.8285
14.6748
15.197
16.5601
18.184
643.228
454.153
8.56804
10.626
10.9288
10.3722
9.8689
8.934
8.04194
6.73166
5.79015
4.33385
3.80823
5.44064
3.94457
4.60149
5.52413
5.63554
4.93536
7.95009
10.0946
11.6806
12.8544
13.7
14.3092
14.7531
15.0685
15.2741
15.3847
15.425
15.4471
15.5299
15.9289
16.9218
18.2582
642.093
457.287
16.6682
17.1786
17.2687
17.3974
17.3558
17.1711
16.7706
16.1595
15.192
14.0257
12.4051
10.4609
8.36184
6.46459
5.3764
4.14833
5.81752
4.0106
5.78179
5.75534
7.54769
10.6774
12.7974
14.17
14.9568
15.3773
15.5795
15.6138
15.5662
15.7513
16.5319
17.5255
18.6555
642.284
457.876
17.299
18.07
18.2992
18.6231
19.077
19.533
19.9357
20.2499
20.4554
20.4807
20.3297
19.9166
19.1414
17.919
16.2133
13.9725
11.1613
7.60736
6.10776
6.11091
6.36599
5.17445
4.37294
7.59599
11.3332
13.5487
14.7077
15.3484
15.5938
15.5682
16.0495
17.169
18.4239
641.769
451.302
12.7072
14.02
14.7407
15.5089
16.3407
17.0949
17.6797
18.1126
18.4469
18.7526
19.0851
19.5372
20.2087
21.0772
21.8802
22.2267
21.8068
20.4375
18.0569
14.3074
8.0092
5.07453
4.50921
5.91566
4.54308
6.66186
11.3972
13.9435
15.3921
16.2693
16.9955
17.7928
18.7856
643.417
451.405
12.0271
15.0044
17.1386
18.6974
19.7244
20.3183
20.6002
20.6413
20.473
20.1173
19.6188
19.0802
18.7332
18.9505
19.8966
21.149
22.1069
22.5033
22.3507
21.6756
20.2667
17.3675
10.8714
6.66043
6.44151
5.64135
6.7703
11.7797
14.2341
15.6172
16.6797
17.7395
18.9238
644.436
458.266
16.9657
19.7471
21.034
21.6196
21.9065
22.0554
22.1222
22.1239
22.0708
21.9796
21.8789
21.8175
21.8487
21.9649
22.1185
22.2769
22.3769
22.3203
22.0452
21.5505
20.8387
19.7796
17.8705
13.4596
7.47788
4.91483
4.63077
6.08732
10.7957
14.2051
16.697
18.1743
19.4568
646.858
465.362
17.9463
18.5954
18.7959
19.0202
19.327
19.6741
19.9877
20.1884
20.2012
19.9684
19.4802
18.854
18.456
18.7108
19.602
20.7126
21.6672
22.262
22.4209
22.1556
21.5405
20.6709
19.5658
18.051
15.362
6.90331
4.44931
6.12757
10.7312
12.9833
15.0857
17.4544
19.6383
648.957
463.448
15.8613
17.9525
19.5384
20.7303
21.6412
22.356
22.9268
23.3547
23.5799
23.4867
22.9139
21.6756
19.717
17.481
16.0378
16.0973
17.3467
18.9926
20.3838
21.2041
21.4013
21.0647
20.3093
19.1421
17.2231
12.5498
8.13485
4.0418
7.04312
15.0106
17.708
19.0757
20.4348
647.664
463.16
17.7957
20.0114
20.9608
21.4652
21.8232
22.1529
22.5303
22.9962
23.5444
24.1224
24.644
24.9912
24.9947
24.4247
23.0716
21.0405
19.0366
17.9566
18.2118
19.3357
20.326
20.7343
20.6365
20.1675
19.2977
17.5127
12.2135
4.60893
6.32811
11.846
16.3186
18.4868
20.0299
646.858
468.855
18.7947
19.7048
20.2359
20.703
21.1121
21.4232
21.6049
21.6512
21.5928
21.5064
21.5098
21.7382
22.2548
22.9297
23.4648
23.5902
23.1077
21.709
19.4688
18.2303
18.9235
19.9174
20.3812
20.373
20.0085
19.1757
17.0024
7.62589
7.21206
8.37789
15.2549
18.2787
20.2435
649.029
469.359
17.9421
19.5322
20.6327
21.4946
22.2405
22.9029
23.4742
23.9178
24.1794
24.2061
23.972
23.5016
22.9073
22.4209
22.2147
22.1847
22.1156
21.8348
20.9786
18.9424
18.2158
19.2672
20.1189
20.4083
20.3405
19.9871
19.1019
16.1607
8.57529
6.83938
13.6393
17.5688
20.1504
650.67
470.548
18.9199
20.1402
20.7602
21.2057
21.589
21.9486
22.3133
22.701
23.1125
23.5295
23.9155
24.2179
24.3671
24.2921
23.953
23.405
22.7517
22.0118
21.051
19.5353
18.0654
18.4857
19.4129
19.9251
20.0464
19.846
19.1481
17.0673
10.5527
7.88535
14.3117
17.9647
20.5681
650.574
473.003
19.1599
20.0405
20.6534
21.1925
21.6526
21.9985
22.2102
22.2941
22.2872
22.2522
22.2689
22.4157
22.739
23.1941
23.6014
23.7515
23.5692
23.0977
22.3522
21.1869
19.3712
18.0964
18.2736
18.7513
18.961
18.8352
18.2674
16.7646
12.6846
9.21388
15.6797
18.5433
20.5209
647.492
472.731
18.6422
19.776
20.5902
21.3018
21.9678
22.576
23.0933
23.4802
23.7057
23.7617
23.6731
23.5007
23.3468
23.3395
23.5168
23.7183
23.7581
23.582
23.197
22.546
21.3811
19.3773
17.8344
17.7447
18.0396
18.0727
17.6852
16.614
13.7775
7.52466
14.0366
17.7988
20.1641
648.008
472.486
18.6969
19.6142
20.2038
20.7118
21.1791
21.6089
22.0002
22.3502
22.6538
22.9046
23.0966
23.2287
23.3142
23.3891
23.5139
23.6978
23.8271
23.7974
23.5909
23.2064
22.5567
21.2985
18.8769
16.5767
16.0438
16.2709
16.3324
15.8606
14.1096
9.14884
13.1623
17.5118
20.2259
648.925
472.093
18.6589
19.6786
20.3616
20.9323
21.4231
21.8255
22.1294
22.33
22.4313
22.4472
22.4015
22.3275
22.27
22.2817
22.4231
22.7154
23.0533
23.2716
23.2966
23.1447
22.8364
22.3082
21.2383
18.923
16.5923
15.747
15.5625
15.1625
13.7601
9.81253
11.8012
16.7912
20.0955
650.203
470.525
18.1206
19.2535
20.0291
20.7153
21.3743
21.9947
22.5457
22.9919
23.3045
23.4685
23.4854
23.3754
23.1789
22.9456
22.7351
22.6322
22.6926
22.8212
22.8511
22.6974
22.3361
21.6807
20.4156
17.9009
14.8259
13.5618
13.7899
14.0585
12.979
10.2861
12.9704
17.3824
20.5067
650.819
471.618
18.2875
19.1601
19.7436
20.2639
20.7642
21.2488
21.7118
22.1394
22.5104
22.8001
22.9848
23.0475
22.9889
22.8251
22.5847
22.3142
22.1201
22.1365
22.3044
22.4053
22.3115
21.9885
21.3021
19.7767
16.835
14.4232
13.2331
12.9377
13.0126
12.8911
15.4645
18.3474
20.6212
648.113
469.823
17.8959
18.9975
19.7082
20.3013
20.8503
21.3666
21.8456
22.2755
22.6427
22.9343
23.137
23.2357
23.2196
23.0843
22.8331
22.475
22.018
21.541
21.3073
21.4032
21.5168
21.3906
20.9327
19.8952
17.5786
14.8043
14.537
14.0049
13.2779
13.9386
16.5855
18.6927
20.3675
645.85
469.681
17.7774
18.773
19.4251
20.0078
20.5973
21.1955
21.7788
22.3132
22.77
23.1331
23.3971
23.5611
23.6234
23.5852
23.4471
23.2099
22.8706
22.3959
21.7577
21.2469
21.1858
21.2035
20.9538
20.2652
18.6676
14.7496
11.361
13.4705
14.1263
15.2409
17.5218
19.0574
20.2948
644.602
471.064
17.8103
18.5489
19.0608
19.5478
20.0684
20.6332
21.2277
21.8165
22.3579
22.8193
23.1827
23.4406
23.5908
23.6368
23.5847
23.4406
23.2098
22.886
22.4053
21.6419
21.0013
20.9908
21.0089
20.693
19.8355
17.7329
13.0655
12.1906
14.7128
16.3133
18.2267
19.3987
20.3483
644.118
470.051
17.5361
18.3517
18.8769
19.3452
19.8405
20.3885
20.983
21.5869
22.1509
22.6366
23.0234
23.3047
23.4802
23.5518
23.5273
23.4156
23.2252
22.9604
22.6044
22.0766
21.2986
20.9517
21.0965
21.0742
20.6345
19.4459
16.5595
12.4797
14.2527
16.8759
18.6391
19.5996
20.3403
643.187
471.123
17.6067
18.2332
18.6701
19.105
19.6104
20.2117
20.8938
21.5946
22.2373
22.7707
23.1771
23.4579
23.6208
23.6732
23.6238
23.4839
23.2641
22.9683
22.5744
22.0172
21.3126
21.0315
21.3225
21.5181
21.3638
20.7582
19.2873
16.1916
14.416
16.867
18.7228
19.6847
20.401
643.409
471.176
17.4258
18.0162
18.3956
18.7337
19.1095
19.5827
20.1941
20.9183
21.6636
22.3359
22.8835
23.292
23.5646
23.7079
23.7297
23.6408
23.453
23.1759
22.799
22.2434
21.3656
20.6988
21.0282
21.5247
21.6878
21.4394
20.5837
18.5543
15.6133
16.61
18.7196
19.7824
20.5378
643.865
471.703
17.7571
18.398
18.7996
19.133
19.4592
19.822
20.2724
20.8284
21.4419
22.0323
22.5393
22.936
23.2171
23.3854
23.4444
23.4003
23.2595
23.0243
22.6797
22.15
21.2615
20.3201
20.6017
21.3866
21.8804
21.9791
21.6802
20.7385
18.6261
17.3616
18.5737
19.5966
20.4542
645.76
472.799
17.7315
18.3317
18.7507
19.1091
19.4551
19.8301
20.2892
20.8561
21.4779
22.0662
22.5604
22.938
23.197
23.3421
23.3787
23.3153
23.1599
22.9178
22.5796
22.0822
21.2438
20.0713
19.9541
20.6173
21.2346
21.5643
21.5562
21.089
19.8204
18.313
18.7474
19.7233
20.8398
649.469
472.272
17.9213
18.6867
19.141
19.4702
19.7303
19.9579
20.2286
20.633
21.1793
21.7739
22.3141
22.7443
23.0473
23.2221
23.2739
23.2106
23.0409
22.7717
22.3903
21.8087
20.776
19.3465
19.5259
20.5379
21.3173
21.7296
21.8275
21.521
20.4963
19.1656
19.3977
20.2585
21.4097
651.82
473.731
18.2792
18.8907
19.3191
19.705
20.0742
20.4224
20.7575
21.1162
21.53
21.9785
22.4067
22.7666
23.031
23.1867
23.2289
23.1564
22.9692
22.6654
22.2204
21.524
20.3126
18.7158
18.8887
19.865
20.6031
21.0671
21.2437
21.0498
20.421
19.9227
20.4324
21.1245
22.0437
651.292
473.559
17.9782
18.549
18.9486
19.3061
19.6591
20.0171
20.3874
20.7855
21.2237
21.6882
22.1405
22.541
22.8616
23.0862
23.2071
23.2198
23.1207
22.9042
22.5476
21.9534
20.8351
18.8496
17.6621
19.3519
20.5759
21.1628
21.3316
21.1741
20.878
20.865
21.2671
21.6512
22.0537
646.235
473.541
18.3153
18.8958
19.2751
19.6226
19.9844
20.3617
20.7364
21.0978
21.4535
21.8114
22.163
22.4882
22.7657
22.979
23.1177
23.1743
23.1437
23.0222
22.807
22.4883
22.0019
21.0955
19.3123
18.2999
19.2943
20.2971
20.8485
21.0276
21.0919
21.305
21.5827
21.7658
21.8087
642.848
474.618
18.1877
18.5318
18.815
19.1371
19.5379
20.0267
20.5723
21.1166
21.614
22.0477
22.4175
22.7252
22.9701
23.1498
23.2615
23.3018
23.267
23.1521
22.9461
22.6195
22.0929
21.1758
19.539
17.5362
17.9239
19.4636
20.5724
21.1303
21.4062
21.6417
21.8044
21.8604
21.7194
642.219
474.292
18.1023
18.4787
18.7499
19.0201
19.33
19.7038
20.1493
20.6482
21.1627
21.6562
22.1039
22.4913
22.8108
23.0599
23.2373
23.3431
23.3777
23.3425
23.2392
23.0667
22.8084
22.3882
21.5467
19.6827
18.0072
18.449
19.7226
20.746
21.3678
21.7255
21.8892
21.9245
21.8032
643.919
474.867
18.2192
18.5318
18.7721
19.0416
19.3812
19.7986
20.268
20.7548
21.231
21.6772
22.0797
22.4286
22.7175
22.9429
23.1024
23.1951
23.2207
23.1795
23.0702
22.8855
22.5977
22.1246
21.2547
19.7092
18.2851
18.2922
19.3326
20.4867
21.3066
21.7473
21.9195
21.9538
21.902
645.952
474.452
17.9418
18.1945
18.3831
18.6016
18.9074
19.3281
19.8395
20.3935
20.9471
21.4696
21.9401
22.3445
22.6756
22.9302
23.108
23.2103
23.2399
23.2005
23.0949
22.9217
22.6616
22.2422
21.455
19.9762
18.7242
18.7142
19.512
20.5462
21.4085
21.8936
22.0785
22.1224
22.1406
647.868
475.454
18.1697
18.3709
18.5166
18.6901
18.9439
19.3005
19.7336
20.2093
20.7043
21.197
21.6639
22.0829
22.4373
22.7169
22.9167
23.0355
23.0747
23.0375
22.9262
22.735
22.4262
21.8781
20.8249
19.4061
18.804
19.3201
20.2376
21.0785
21.7585
22.1568
22.3295
22.4049
22.5037
648.981
474.875
17.9673
18.1607
18.2837
18.4367
18.6997
19.1055
19.5886
20.0844
20.5753
21.0568
21.5168
21.9362
22.2951
22.5787
22.7783
22.8902
22.9145
22.853
22.7058
22.4601
22.0424
21.2445
19.8621
18.8759
19.2363
19.9254
20.983
21.7731
22.239
22.4661
22.5495
22.5697
22.5695
647.28
475.315
18.0756
18.1903
18.2348
18.2914
18.4528
18.8038
19.2862
19.795
20.2905
20.7712
21.2347
21.6684
22.0536
22.3714
22.6067
22.7493
22.7936
22.7369
22.5735
22.273
21.7271
20.6979
19.1551
18.6152
20.297
21.03
21.5507
22.2103
22.6262
22.8017
22.8304
22.7428
22.4148
643.434
475.15
18.0029
18.1509
18.2105
18.2513
18.3495
18.6253
19.0835
19.6067
20.1196
20.6065
21.0677
21.4998
21.8924
22.2313
22.502
22.6918
22.79
22.7864
22.6675
22.4058
21.9219
21.0257
19.5243
18.2325
19.7278
21.9773
22.4113
22.5943
22.7696
22.8618
22.86
22.7349
22.2475
640.806
473.969
17.9252
18.1456
18.2082
18.1994
18.1687
18.2581
18.5884
19.0818
19.6209
20.1516
20.659
21.1366
21.5763
21.9679
22.3009
22.5652
22.7512
22.8488
22.8456
22.7226
22.443
21.9145
20.9397
19.3933
18.4314
20.0946
22.1141
22.7191
22.8478
22.824
22.7194
22.519
21.9828
639.953
474.199
17.9794
18.2276
18.3307
18.3545
18.3123
18.2978
18.486
18.8899
19.3884
19.9028
20.4067
20.8903
21.3448
21.7609
22.1295
22.4429
22.694
22.8739
22.9726
22.978
22.8728
22.6228
22.1438
21.2531
19.833
18.7941
19.7759
21.5914
22.4302
22.7265
22.7719
22.6232
22.0637
640.099
472.882
17.7981
18.1904
18.3748
18.4468
18.3986
18.2606
18.2318
18.4856
18.9385
19.4606
19.9916
20.5113
21.0082
21.4716
21.8922
22.2632
22.5785
22.8323
23.0183
23.1286
23.1525
23.0745
22.8641
22.4464
21.6572
20.3741
19.2964
20.0668
21.4018
22.1589
22.4985
22.5851
22.2872
642.254
472.982
17.8679
18.2927
18.5274
18.6697
18.7034
18.6026
18.4639
18.5225
18.8291
19.2655
19.7463
20.2391
20.7295
21.2051
21.6538
22.065
22.4298
22.7419
22.9943
23.1794
23.2889
23.3143
23.2443
23.0537
22.6776
21.974
20.8705
20.2166
20.724
21.3649
21.8193
22.1055
22.2958
647.5
472.233
17.649
18.1435
18.4363
18.6405
18.7459
18.714
18.5805
18.5496
18.7643
19.1493
19.6012
20.0747
20.5545
21.0312
21.4954
21.9364
22.3445
22.7094
23.0169
23.2513
23.4004
23.4593
23.4267
23.2923
23.0146
22.4877
21.5736
20.7071
20.9695
21.5095
21.8975
22.1765
22.5612
649.92
472.358
17.7615
18.2443
18.5443
18.7864
18.9613
19.01
18.915
18.8096
18.8858
19.1596
19.5415
19.9714
20.4253
20.893
21.3661
21.8358
22.293
22.7223
23.0961
23.3805
23.552
23.6076
23.5517
23.3674
22.9754
22.2017
20.9575
20.1432
21.2204
22.1772
22.5371
22.6752
22.6143
644.684
472.252
17.6282
18.0568
18.3451
18.6185
18.8748
19.0495
19.1059
19.1008
19.1613
19.3532
19.6472
20.0022
20.3976
20.8253
21.2789
21.7556
22.2502
22.7447
23.2001
23.5641
23.7957
23.8824
23.8261
23.6086
23.1427
22.2404
20.8085
19.6401
20.447
21.706
22.2417
22.4289
22.0917
639.638
472.913
17.8044
18.1369
18.3802
18.6653
18.9819
19.2296
19.3618
19.4249
19.503
19.6502
19.867
20.1367
20.45
20.8037
21.1987
21.6393
22.1272
22.6501
23.1719
23.636
23.9866
24.1917
24.245
24.1429
23.8554
23.2927
22.3305
21.1305
20.62
21.015
21.3461
21.4358
21.186
640.631
473.878
17.793
17.9529
18.126
18.4552
18.91
19.3143
19.5936
19.7785
19.9279
20.0859
20.269
20.48
20.7212
20.9961
21.3146
21.6901
22.1308
22.6297
23.1577
23.664
24.0896
24.3974
24.5763
24.6282
24.5514
24.3276
23.9109
23.2594
22.5012
21.9089
21.4924
21.3622
21.4532
646.947
475.267
17.8857
17.8683
17.9677
18.3793
18.9834
19.4965
19.8599
20.1167
20.3145
20.4883
20.6602
20.8428
21.0442
21.2738
21.5469
21.8828
22.2942
22.7752
23.2956
23.802
24.2404
24.579
24.8098
24.9374
24.9676
24.9001
24.7205
24.3863
23.8297
23.0573
22.4149
22.3846
22.8503
653.1
476.334
17.7513
17.5363
17.5693
18.1594
18.9962
19.6576
20.1281
20.4715
20.7298
20.932
21.1024
21.2623
21.4293
21.6228
21.8678
22.1922
22.6097
23.1013
23.6154
24.0898
24.4879
24.7985
25.022
25.161
25.2171
25.1857
25.0467
24.7532
24.2525
23.6267
23.2523
23.3036
23.6297
652.969
476.149
17.449
17.1132
17.0966
17.8386
18.8743
19.6617
20.2312
20.6628
20.9942
21.2482
21.4464
21.6117
21.7668
21.9411
22.1732
22.506
22.9597
23.4946
24.0121
24.437
24.7619
25.0062
25.184
25.2973
25.3377
25.2875
25.1184
24.8004
24.3472
23.8926
23.6326
23.5284
23.4013
647.001
475.124
17.0655
16.6537
16.4784
17.1373
18.4068
19.4503
20.2025
20.7627
21.1851
21.4983
21.7266
21.8938
22.0274
22.1631
22.3485
22.6417
23.0897
23.6682
24.237
24.6657
24.947
25.1258
25.233
25.2797
25.2633
25.171
24.9832
24.6888
24.3174
23.9541
23.6588
23.3483
22.7126
641.041
473.412
16.7071
16.3002
15.8694
15.9659
17.2904
18.7609
19.8603
20.6625
21.2587
21.6979
22.0102
22.2216
22.3599
22.4591
22.5651
22.7403
23.0608
23.5683
24.1729
24.687
25.0121
25.1785
25.2345
25.2048
25.1014
24.9333
24.7059
24.4241
24.1048
23.7757
23.4371
22.9995
22.0838
637.936
472.393
16.7511
16.4121
15.8361
15.1863
15.9049
17.7143
19.2565
20.3699
21.1781
21.7698
22.1963
22.4932
22.6875
22.8043
22.8743
22.9438
23.0841
23.3772
23.8512
24.4055
24.8647
25.1377
25.2408
25.2121
25.0759
24.8529
24.568
24.2466
23.9074
23.5561
23.1762
22.6831
21.7019
637.005
471.86
16.7701
16.5288
16.0134
15.1032
14.7059
16.319
18.3102
19.808
20.8776
21.655
22.228
22.6458
22.9387
23.1275
23.232
23.2785
23.31
23.3888
23.5889
23.9455
24.3941
24.7988
25.0581
25.1504
25.0951
24.9167
24.6416
24.2996
23.917
23.5064
23.0591
22.5001
21.4677
636.754
471.633
16.8555
16.7155
16.3555
15.6061
14.4561
14.769
16.7946
18.7358
20.1776
21.2233
21.9969
22.5786
23.012
23.3229
23.5283
23.6438
23.6892
23.6938
23.7042
23.7804
23.966
24.2447
24.5376
24.7538
24.8414
24.7924
24.62
24.3443
23.9867
23.5638
23.0782
22.4719
21.4062
636.947
471.577
16.8179
16.6987
16.408
15.8495
14.8744
14.1067
15.3271
17.418
19.1992
20.533
21.5287
22.2863
22.8734
23.3274
23.6681
23.9065
24.0515
24.1155
24.1172
24.0853
24.0594
24.0783
24.1563
24.267
24.3566
24.3749
24.2971
24.1199
23.8484
23.4897
23.0467
22.4805
21.5042
637.943
471.943
16.9074
16.8105
16.5639
16.0848
15.2348
14.1866
14.3103
16.0623
18.0425
19.6524
20.8687
21.7936
22.5222
23.1117
23.5894
23.9649
24.2423
24.4269
24.527
24.5539
24.5229
24.4551
24.3755
24.3041
24.2437
24.1778
24.0805
23.9309
23.7161
23.4278
23.0616
22.5983
21.8383
640.536
471.969
16.865
16.808
16.6216
16.2409
15.5361
14.5465
13.9708
14.9971
16.9134
18.7177
20.1397
21.2186
22.063
22.7566
23.3422
23.8336
24.2319
24.5371
24.7535
24.8877
24.9473
24.9402
24.8763
24.7684
24.6299
24.4703
24.2896
24.0796
23.83
23.5367
23.2045
22.8347
22.3155
644.088
472.43
16.9403
16.9009
16.7532
16.4379
15.833
14.9155
14.0711
14.3468
15.9171
17.803
19.4203
20.6565
21.6054
22.3775
23.0397
23.6177
24.111
24.513
24.8234
25.0484
25.1954
25.2703
25.2772
25.2193
25.1005
24.9246
24.6955
24.4197
24.112
23.7959
23.4894
23.1928
22.8269
646.473
472.268
16.878
16.8906
16.7998
16.571
16.1012
15.3186
14.4011
14.0822
15.0829
16.8703
18.6629
20.0952
21.1698
22.015
22.7329
23.3739
23.9438
24.4263
24.8108
25.1007
25.306
25.4343
25.4885
25.4667
25.3651
25.1821
24.925
24.617
24.2946
23.9874
23.7001
23.4049
22.9651
645.37
472.53
16.9662
17.0078
16.948
16.76
16.3601
15.6944
14.829
14.1795
14.5287
15.9458
17.7813
19.4442
20.7049
21.6479
22.4129
23.0914
23.715
24.2698
24.7287
25.081
25.3342
25.4992
25.5795
25.5716
25.4706
25.279
25.0155
24.7133
24.4061
24.1069
23.8015
23.4244
22.7109
642.053
472.263
16.9388
17.0475
17.0489
16.9375
16.6367
16.0879
15.3207
14.5524
14.3585
15.19
16.7752
18.5727
20.095
21.2092
22.0446
22.7426
23.3803
23.9743
24.4997
24.9245
25.2371
25.4429
25.5489
25.5561
25.4647
25.2836
25.0362
24.7527
24.4532
24.1369
23.7796
23.2842
22.2641
638.923
472.376
17.0405
17.1788
17.2116
17.1452
16.9155
16.4753
15.8336
15.0892
14.5827
14.8219
15.8871
17.5071
19.2251
20.6129
21.6001
22.3424
22.9717
23.5522
24.0941
24.5723
24.9542
25.2228
25.3774
25.4231
25.3656
25.2178
25.0008
24.7371
24.4382
24.0988
23.6929
23.1106
21.9127
637.255
472.37
17.0725
17.2443
17.3202
17.3159
17.1708
16.8368
16.321
15.6748
15.0743
14.9038
15.4183
16.5766
18.1762
19.8019
21.0556
21.9262
22.5763
23.1244
23.6257
24.0893
24.4964
24.8181
25.0331
25.1344
25.1264
25.0208
24.836
24.5894
24.29
23.9346
23.5009
22.8856
21.664
636.795
472.571
17.1305
17.3006
17.3983
17.445
17.3867
17.1689
16.7847
16.2612
15.6866
15.3041
15.3994
16.0536
17.241
18.8129
20.3403
21.4671
22.2323
22.7952
23.2592
23.6712
24.0427
24.3629
24.6102
24.7647
24.8163
24.7675
24.63
24.4172
24.1375
23.7916
23.3659
22.7805
21.6745
637.665
472.872
17.1471
17.2915
17.399
17.4927
17.5226
17.4238
17.174
16.7873
16.308
15.8737
15.7202
15.9879
16.7119
17.9263
19.4794
20.903
21.904
22.5696
23.0507
23.4346
23.7597
24.0374
24.2639
24.4272
24.5134
24.5137
24.4283
24.2632
24.0229
23.7089
23.3151
22.7886
21.8463
639.282
473.139
17.1175
17.2233
17.3312
17.4692
17.5929
17.6181
17.5025
17.2491
16.884
16.4844
16.2178
16.2378
16.6038
17.3867
18.6632
20.2105
21.5232
22.4019
22.9794
23.3914
23.7088
23.9607
24.1564
24.2966
24.3786
24.3972
24.3473
24.2284
24.0397
23.781
23.4501
23.0152
22.2582
641.428
473.341
17.0465
17.1019
17.1993
17.3769
17.596
17.745
17.7601
17.6368
17.3923
17.0706
16.7801
16.6573
16.7817
17.2098
18.076
19.4446
20.9758
22.1607
22.9239
23.4266
23.7843
24.0499
24.2421
24.366
24.4237
24.418
24.352
24.2298
24.0548
23.8282
23.5482
23.1853
22.5401
642.584
473.276
16.9052
16.9107
16.9905
17.2045
17.5266
17.8055
17.9502
17.9521
17.8265
17.6015
17.3442
17.159
17.1336
17.3138
17.8063
18.793
20.267
21.7491
22.7921
23.4492
23.8909
24.21
24.4409
24.5907
24.6571
24.6395
24.5451
24.3883
24.1864
23.95
23.6779
23.3322
22.6945
642.708
473.114
16.7591
16.7113
16.7518
16.9714
17.381
17.789
18.0659
18.1948
18.19
18.0714
17.8785
17.6844
17.5734
17.5912
17.8055
18.3806
19.5113
21.0696
22.4647
23.3631
23.9185
24.2995
24.5785
24.7738
24.8802
24.8872
24.7953
24.6205
24.3882
24.1166
23.8062
23.4053
22.6471
641.707
472.79
16.6078
16.5167
16.5033
16.6888
17.1561
17.6866
18.0971
18.3555
18.4762
18.4759
18.3746
18.2191
18.0784
18.0004
18.03
18.2729
18.9393
20.2045
21.8065
23.1112
23.8883
24.3442
24.6478
24.8617
24.997
25.046
25.0013
24.8682
24.6629
24.3992
24.0743
23.6233
22.7187
640.679
472.548
16.5368
16.4086
16.3248
16.418
16.8803
17.5105
18.0542
18.4444
18.6927
18.8157
18.824
18.7444
18.6252
18.5096
18.4338
18.4555
18.7104
19.4329
20.7584
22.3533
23.613
24.3273
24.6894
24.8781
24.9665
24.9775
24.919
24.7957
24.612
24.3688
24.0526
23.5818
22.5712
639.282
472.342
16.5043
16.3519
16.2041
16.181
16.5773
17.2638
17.9291
18.4548
18.8343
19.0846
19.2151
19.2419
19.1936
19.1
18.9921
18.9054
18.904
19.1312
19.8197
21.0778
22.606
23.8867
24.6538
24.9995
25.1012
25.0646
24.9397
24.7546
24.5238
24.2494
23.9122
23.4168
22.3429
638.17
472.272
16.5167
16.3434
16.1425
16.0034
16.2902
16.9791
17.7359
18.3861
18.8955
19.2701
19.525
19.6741
19.7321
19.7136
19.6403
19.5383
19.4385
19.3955
19.5367
20.0633
21.0891
22.4337
23.7118
24.615
25.0724
25.197
25.1184
24.9151
24.6312
24.2904
23.8874
23.3305
22.1997
637.642
472.279
16.5344
16.343
16.1043
15.8696
16.0316
16.6725
17.4808
18.236
18.8665
19.3601
19.7327
20.0019
20.1804
20.2729
20.2889
20.246
20.1631
20.0606
19.9778
20.0035
20.2857
20.9495
21.9591
23.0978
24.0862
24.7278
25.0072
25.0238
24.8645
24.5808
24.1954
23.6583
22.6199
639.221
472.384
16.5565
16.3467
16.0798
15.7686
15.8087
16.3652
17.1798
18.0114
18.7469
19.3504
19.8298
20.2041
20.4877
20.6876
20.8096
20.8623
20.8561
20.8006
20.7093
20.6047
20.535
20.5891
20.8759
21.4573
22.2815
23.1691
23.8822
24.291
24.4309
24.374
24.1657
23.8011
23.0396
642.015
472.535
16.5743
16.3527
16.0692
15.6975
15.6205
16.0688
16.8494
17.727
18.554
19.2608
19.8377
20.3022
20.6725
20.9616
21.1765
21.3223
21.4044
21.4287
21.4027
21.3345
21.2347
21.1239
21.0473
21.0785
21.3076
21.7938
22.48
23.152
23.6242
23.8752
23.9464
23.8548
23.462
645.357
472.656
16.5831
16.3618
16.077
15.6656
15.4753
15.7892
16.4879
17.3673
18.2673
19.0748
19.7487
20.296
20.7383
21.096
21.3814
21.5999
21.7546
21.8486
21.8868
21.8748
21.817
21.718
21.5864
21.4423
21.3321
21.3488
21.6313
22.2087
22.8559
23.3463
23.6299
23.7297
23.5647
646.791
472.759
16.5903
16.3776
16.1017
15.6712
15.3851
15.5581
16.1405
16.9752
17.9161
18.8161
19.5887
20.2176
20.7244
21.138
21.4777
21.7525
21.9652
22.1171
22.2115
22.2532
22.2461
22.1928
22.0944
21.9524
21.7762
21.6137
21.6202
22.0064
22.6577
23.2238
23.569
23.7236
23.6114
646.797
472.805
16.591
16.3961
16.141
15.7169
15.3595
15.3886
15.8167
16.542
17.464
18.4351
19.3125
20.0352
20.6126
21.0799
21.4648
21.7821
22.0366
22.2293
22.3629
22.4417
22.47
22.4501
22.3823
22.264
22.0923
21.8891
21.7887
22.0572
22.6534
23.1781
23.4791
23.5939
23.3969
645.241
472.809
16.5927
16.4193
16.1883
15.7875
15.3998
15.3211
15.5999
16.1792
17.0167
18.0087
18.9805
19.8029
20.4551
20.9757
21.4028
21.7582
22.0494
22.2779
22.4464
22.5591
22.6206
22.6341
22.6004
22.5174
22.3827
22.2176
22.1454
22.3995
22.9191
23.3311
23.54
23.5701
23.196
643.164
472.717
16.5962
16.4534
16.2523
15.8868
15.4943
15.3352
15.4717
15.8719
16.5425
17.4638
18.4932
19.4337
20.1891
20.783
21.2623
21.6582
21.9829
22.2399
22.4321
22.5644
22.6422
22.6697
22.6491
22.5806
22.4693
22.3536
22.3591
22.6412
23.0707
23.3598
23.4724
23.3954
22.7849
640.458
472.639
16.6275
16.5144
16.3407
16.0118
15.6367
15.4404
15.484
15.7386
16.2211
16.9781
17.9697
18.9938
19.8594
20.54
21.0834
21.5316
21.9029
22.2017
22.43
22.5919
22.693
22.7391