/*--------------------------------*- C++ -*----------------------------------*\
| =========                 |                                                 |
| \\      /  F ield         | OpenFOAM: The Open Source CFD Toolbox           |
|  \\    /   O peration     | Version:  v2012                                 |
|   \\  /    A nd           | Website:  www.openfoam.com                      |
|    \\/     M anipulation  |                                                 |
\*---------------------------------------------------------------------------*/
FoamFile
{
    version     2.0;
    format      ascii;
    class       volScalarField;
    location    "4";
    object      omega;
}
// * * * * * * * * * * * * * * * * * * * * * * * * * * * * * * * * * * * * * //

dimensions      [0 0 -1 0 0 0 0];


internalField   nonuniform List<scalar> 
78750
(
304.707
11.6948
11.8759
12.2974
13.6249
14.871
15.5903
15.716
15.3921
14.89
14.4703
14.2473
14.1925
14.2358
14.3273
14.4408
14.5627
14.6852
14.8026
14.909
15.003
15.0837
15.1502
15.2017
15.237
15.2541
15.2508
15.224
15.1698
15.0825
14.9455
14.7263
14.3825
13.8017
417.48
447.354
5.1517
5.80263
6.19647
6.48419
6.69013
6.80887
6.8454
6.83235
6.81258
6.81703
6.85893
6.93828
7.04745
7.17533
7.31093
7.44523
7.57126
7.68468
7.78862
7.88689
7.97951
8.06626
8.14611
8.21702
8.27603
8.31966
8.34472
8.34953
8.33427
8.29965
8.23453
8.0557
7.27943
616.554
447.445
4.94611
5.58896
5.9077
6.03641
6.08304
6.12102
6.20043
6.32609
6.47075
6.62329
6.77995
6.93584
7.08875
7.23738
7.37267
7.48387
7.56958
7.63353
7.68156
7.72016
7.75517
7.7913
7.83052
7.87114
7.91021
7.94178
7.95831
7.95311
7.92032
7.85207
7.74667
7.77959
8.31064
619.914
447.36
4.74041
5.45011
5.94262
6.21769
6.34164
6.40143
6.45949
6.5493
6.68447
6.86768
7.10978
7.40452
7.70033
7.95618
8.15569
8.30015
8.39918
8.46496
8.50864
8.53994
8.56776
8.59911
8.63974
8.6962
8.77385
8.86409
8.93931
8.95878
8.8939
8.71684
8.32435
7.50463
7.41309
621.263
447.511
4.29263
4.73043
5.23467
5.71702
6.10832
6.38955
6.57455
6.70638
6.82934
6.96819
7.126
7.29342
7.46089
7.61505
7.73316
7.8039
7.82867
7.81413
7.76728
7.69979
7.644
7.65542
7.76377
7.94572
8.16787
8.40991
8.68157
9.01812
9.43196
9.85237
10.0802
9.71447
9.37938
623.531
447.582
4.136
4.31627
4.60228
4.9997
5.45405
5.88553
6.23552
6.48301
6.65057
6.78235
6.89947
7.00319
7.09672
7.17577
7.22392
7.23152
7.20945
7.17945
7.1535
7.13446
7.12384
7.12458
7.14069
7.17042
7.20304
7.22754
7.24411
7.27105
7.34173
7.60818
8.42445
9.27216
9.77605
624.489
447.806
4.20184
4.21717
4.26957
4.41097
4.6631
4.99731
5.34521
5.65523
5.90596
6.0992
6.25037
6.37265
6.47209
6.54694
6.58586
6.57167
6.50009
6.42903
6.44445
6.5454
6.69351
6.87968
7.09615
7.32909
7.56401
7.792
8.00392
8.16957
8.25271
8.2333
8.3278
9.28202
10.5571
626.293
448.204
4.39524
4.37391
4.44115
4.54929
4.66512
4.8001
4.95473
5.10003
5.21882
5.30782
5.36963
5.40757
5.42461
5.42673
5.42994
5.46685
5.58015
5.77612
6.01618
6.28406
6.57892
6.89165
7.21772
7.55461
7.89695
8.2744
8.72686
9.2097
9.63079
9.87076
9.69314
9.50886
10.6957
627.29
448.351
4.32678
4.22526
4.28805
4.46262
4.62508
4.72129
4.76358
4.77703
4.77777
4.77591
4.78134
4.8033
4.84344
4.90051
4.97702
5.08142
5.22252
5.39872
5.59223
5.7859
5.97849
6.16662
6.3411
6.49126
6.61168
6.71349
6.84823
7.16918
7.8348
8.91547
10.1171
10.907
11.9305
628.447
448.304
4.32725
4.22699
4.20967
4.29415
4.43907
4.56413
4.66213
4.76599
4.89948
5.07026
5.2633
5.46171
5.65335
5.83139
5.99847
6.15817
6.30796
6.44761
6.5828
6.72115
6.87332
7.0581
7.30779
7.65871
8.10571
8.56249
8.9184
9.11978
9.14929
9.01971
9.18077
10.4247
12.003
628.964
448.176
4.2523
4.15827
4.12326
4.12041
4.16271
4.23688
4.32978
4.47344
4.66856
4.90658
5.1866
5.48023
5.77203
6.05049
6.30766
6.53997
6.74543
6.92212
7.06923
7.18407
7.26431
7.30853
7.31881
7.30891
7.312
7.40281
7.71679
8.41339
9.45649
10.4824
11.0423
11.674
12.8413
629.838
448.229
4.30643
4.21404
4.19035
4.17943
4.17398
4.19011
4.25833
4.41412
4.6463
4.93212
5.26613
5.63438
6.01571
6.38705
6.7292
7.03795
7.31765
7.57581
7.81881
8.0471
8.25715
8.44548
8.60575
8.71389
8.72459
8.58275
8.25469
7.77697
7.44978
8.11769
9.75896
11.4895
12.9965
630.613
448.13
4.18751
4.11129
4.13954
4.20924
4.31531
4.5308
4.862
5.19848
5.54619
5.93152
6.32362
6.69911
7.04507
7.35846
7.64334
7.90729
8.15773
8.39978
8.64404
8.9166
9.24572
9.63182
10.0463
10.4398
10.7633
10.9868
11.0886
11.0307
10.7398
10.2902
10.6119
12.1435
13.6649
632.021
448.084
4.20116
4.14382
4.18449
4.28173
4.40549
4.57944
4.87271
5.24965
5.61129
5.96749
6.34066
6.70799
7.05757
7.38695
7.69972
8.00112
8.29379
8.57543
8.83957
9.0786
9.28946
9.47255
9.62978
9.76465
9.8865
10.0085
10.1474
10.3227
10.5477
10.7978
11.2655
12.6281
14.1329
633.303
447.965
4.08317
4.06113
4.14785
4.30169
4.55735
4.92414
5.34279
5.7508
6.13714
6.51514
6.88611
7.24256
7.57907
7.89833
8.20929
8.52082
8.84065
9.18223
9.56458
9.99814
10.4642
10.9068
11.2677
11.5148
11.6401
11.6481
11.5471
11.3427
11.0694
10.9823
11.645
13.2418
14.8232
635.092
447.856
4.10903
4.25371
4.4523
4.64324
4.88251
5.24149
5.69248
6.13667
6.54053
6.90798
7.2521
7.58446
7.91187
8.23864
8.56703
8.9028
9.25001
9.60645
9.98114
10.3861
10.8154
11.2463
11.649
11.9981
12.2772
12.4747
12.5754
12.5541
12.3745
12.142
12.5505
13.9559
15.5068
636.921
447.67
4.06807
4.35447
4.69632
5.00662
5.26387
5.49004
5.7258
5.98704
6.26832
6.56633
6.87964
7.20672
7.55429
7.92776
8.32139
8.72692
9.14545
9.57062
9.99093
10.4141
10.8442
11.262
11.6457
11.9793
12.2532
12.4611
12.5948
12.6437
12.597
12.5593
13.0965
14.4902
16.0242
638.211
447.702
4.12834
4.43836
4.75492
5.01263
5.21553
5.38528
5.5587
5.77027
6.03961
6.36021
6.62894
6.82708
7.083
7.48732
8.00971
8.56619
9.12391
9.67031
10.2097
10.767
11.335
11.871
12.3383
12.7162
12.9998
13.1901
13.2845
13.2706
13.1414
13.061
13.6925
15.091
16.625
639.824
447.844
4.61517
5.20243
5.57537
5.74208
5.74377
5.64056
5.5176
5.4789
5.6162
5.7879
5.70951
5.53746
5.70025
6.36494
7.26948
8.15659
8.95205
9.65786
10.2887
10.8734
11.4357
11.9732
12.464
12.8818
13.2177
13.4643
13.6161
13.6609
13.5794
13.4643
13.9189
15.2808
16.8645
640.384
448.421
6.9238
8.262
8.7783
8.79875
8.47004
7.84563
6.94981
5.88678
5.08976
4.74238
4.40924
3.80932
4.54903
3.88396
5.26498
6.79418
8.07293
9.11535
10.0059
10.784
11.4565
12.0444
12.5599
13.0032
13.3682
13.6446
13.8305
13.9182
13.908
13.9407
14.565
15.848
17.3546
641.451
450.812
10.2723
11.153
11.0595
10.5293
9.735
8.77388
7.5438
5.9549
3.73251
4.17352
4.71014
4.65986
3.60261
4.93257
4.77232
4.62771
6.29993
7.79405
8.98668
9.99534
10.9021
11.7095
12.3949
12.9604
13.4094
13.7488
13.9824
14.1099
14.1107
14.0281
14.4521
15.8209
17.4355
641.641
462.402
12.1823
10.2934
8.46057
6.55248
4.3367
3.87327
4.78648
4.74907
4.76133
3.62523
4.50175
4.15325
3.97651
4.57445
4.75374
6.35914
7.75894
8.96008
10.0281
11.0058
11.8805
12.6155
13.2118
13.6802
14.0304
14.2732
14.4218
14.496
14.5406
14.677
15.1804
16.2657
17.7362
642.44
471.145
8.56504
3.94443
3.92727
4.7091
3.74459
4.24233
4.26488
4.19756
4.54438
4.83484
3.85237
4.97538
4.27563
5.65707
5.58932
6.4069
8.38512
9.89237
11.0965
12.0838
12.8815
13.5207
14.0337
14.4359
14.7331
14.9269
15.0154
14.9873
14.8278
14.6742
15.1965
16.5595
18.1834
643.227
454.146
8.55347
10.6148
10.9193
10.363
9.86018
8.92238
8.02627
6.71068
5.78012
4.32359
3.80386
5.4458
3.98152
4.62079
5.53844
5.66479
4.9265
7.94186
10.0912
11.6785
12.853
13.6991
14.3085
14.7526
15.0681
15.2738
15.3846
15.425
15.4469
15.5294
15.9283
16.9217
18.2585
642.095
457.276
16.6584
17.1697
17.2611
17.3919
17.3516
17.1673
16.7653
16.1527
15.1853
14.0187
12.3971
10.4657
8.49436
6.55674
5.73245
5.3448
5.59526
6.10154
4.68688
5.74802
7.53704
10.6725
12.7946
14.1684
14.9557
15.3764
15.5787
15.6131
15.5659
15.7513
16.5316
17.525
18.6549
642.282
457.873
17.2975
18.0687
18.2998
18.6259
19.0819
19.5401
19.9444
20.2585
20.461
20.482
20.3255
19.9032
19.1185
17.908
16.2479
13.9997
10.6166
6.81695
5.04366
5.82237
3.69531
5.13349
4.3876
7.59381
11.3318
13.5473
14.706
15.3464
15.5913
15.5659
16.0488
17.169
18.4239
641.774
451.301
12.7072
14.0204
14.7422
15.5116
16.3449
17.0999
17.6844
18.1165
18.4501
18.7552
19.0864
19.5347
20.1923
21.0429
21.8353
22.2085
21.8658
20.5267
18.1294
13.8798
8.68185
7.06885
4.00625
5.83034
4.50741
6.66827
11.4075
13.9517
15.398
16.2711
16.9927
17.79
18.7851
643.423
451.398
12.0229
15.001
17.1361
18.6956
19.7231
20.3172
20.599
20.6396
20.4703
20.1132
19.6128
19.0711
18.7331
18.9625
19.9021
21.1379
22.0877
22.4896
22.3468
21.6808
20.2487
17.333
10.8334
6.5428
5.58749
5.67438
6.75969
11.7737
14.2356
15.6243
16.6899
17.7466
18.9268
644.432
458.252
16.9611
19.7449
21.0339
21.6208
21.9081
22.0568
22.1227
22.1232
22.069
21.9772
21.8767
21.8158
21.8466
21.9664
22.1279
22.2907
22.3894
22.3287
22.0492
21.5524
20.8448
19.8006
17.9243
13.5358
6.72864
3.95522
4.0217
6.05147
10.7605
14.1787
16.6774
18.1618
19.4494
646.863
465.362
17.9496
18.6001
18.8
19.0234
19.3295
19.6768
19.9913
20.1935
20.2074
19.975
19.4861
18.8585
18.4588
18.7105
19.6013
20.717
21.6782
22.2773
22.4371
22.1705
21.5534
20.6823
19.5743
18.0415
15.2772
8.63599
5.38599
6.14388
10.7697
13.0011
15.098
17.4631
19.6462
648.993
463.484
15.8732
17.9603
19.5435
20.7335
21.6431
22.3567
22.9263
23.3529
23.5765
23.4811
22.9047
21.66
19.6928
17.4508
16.0079
16.077
17.3455
19.0109
20.4102
21.2259
21.4141
21.071
20.312
19.1383
17.2037
12.624
3.97316
4.53798
7.14369
15.0258
17.7078
19.0752
20.4364
647.669
463.214
17.8084
20.0182
20.9645
21.4667
21.8221
22.1486
22.5226
22.9856
23.5321
24.1098
24.6317
24.9786
24.9793
24.4024
23.0375
20.9906
18.9773
17.9179
18.2263
19.3845
20.3706
20.7657
20.6595
20.185
19.3077
17.5145
12.3398
7.00918
6.59862
11.8823
16.3425
18.4983
20.0345
646.836
468.9
18.7989
19.7052
20.2354
20.7024
21.1117
21.4231
21.6042
21.6489
21.588
21.4982
21.4987
21.7263
22.2434
22.9162
23.4439
23.5579
23.055
21.6129
19.3582
18.2264
18.989
19.9741
20.4184
20.3985
20.0273
19.1896
17.0137
7.64945
4.28134
8.44107
15.2619
18.2783
20.2397
649.006
469.364
17.9404
19.5309
20.6316
21.4938
22.2402
22.9031
23.4745
23.9175
24.1768
24.1993
23.9592
23.482
22.8831
22.3971
22.1919
22.1576
22.0794
21.7808
20.8765
18.8368
18.2483
19.3319
20.1633
20.4381
20.3625
20.002
19.107
16.1341
8.39035
6.766
13.647
17.5754
20.1543
650.666
470.526
18.9184
20.1395
20.7594
21.2045
21.5873
21.9466
22.3114
22.6996
23.1116
23.5285
23.9135
24.2136
24.3596
24.2813
23.9408
23.3951
22.7456
22.0083
21.046
19.515
18.0633
18.4978
19.4231
19.9341
20.0549
19.8535
19.1527
17.064
10.5289
7.93956
14.3251
17.9677
20.5664
650.544
472.979
19.1575
20.0396
20.6532
21.1927
21.653
21.9992
22.2109
22.2948
22.288
22.2533
22.2702
22.4171
22.7402
23.1959
23.6069
23.764
23.5913
23.1327
22.4045
21.2549
19.4166
18.0796
18.2385
18.7247
18.9432
18.8235
18.259
16.7537
12.6473
9.17536
15.6786
18.5448
20.5203
647.476
472.726
18.6411
19.775
20.5893
21.3012
21.9674
22.5759
23.0934
23.4802
23.7053
23.7607
23.6711
23.4977
23.3423
23.3331
23.5089
23.7107
23.7514
23.5758
23.1915
22.5438
21.3845
19.3653
17.7894
17.7002
18.0066
18.0503
17.6745
16.6195
13.8065
7.5704
14.0376
17.7954
20.1592
647.996
472.477
18.6959
19.6139
20.2041
20.7127
21.1808
21.6114
22.0034
22.354
22.6579
22.9086
23.0999
23.2308
23.3145
23.3873
23.5094
23.6902
23.8159
23.7813
23.5679
23.1739
22.5102
21.231
18.791
16.4992
15.987
16.2199
16.2782
15.7971
14.0323
9.08607
13.1636
17.5151
20.2282
648.93
472.066
18.6567
19.6779
20.3615
20.9323
21.4233
21.8262
22.1308
22.3326
22.4353
22.4526
22.408
22.3343
22.2762
22.2866
22.4273
22.7225
23.0686
23.2976
23.3326
23.1894
22.8901
22.3732
21.3157
18.9796
16.589
15.7348
15.5597
15.1612
13.7468
9.79984
11.83
16.8042
20.0973
650.155
470.517
18.1192
19.2527
20.0286
20.7149
21.3739
21.9945
22.5459
22.9929
23.3068
23.4723
23.4908
23.3822
23.1861
22.9518
22.7388
22.633
22.6961
22.8364
22.8835
22.7492
22.4132
21.8047
20.641
18.2854
15.0948
13.5532
13.7078
14.0017
12.952
10.2464
12.9338
17.3627
20.4928
650.789
471.639
18.2909
19.1628
19.7465
20.2673
20.7683
21.2532
21.7163
22.1438
22.5146
22.8043
22.9897
23.0536
22.9969
22.8352
22.5969
22.327
22.1299
22.1412
22.3069
22.4092
22.3186
21.9997
21.3248
19.8419
16.9657
14.4582
13.1621
12.8697
12.9807
12.8638
15.4412
18.3352
20.6166
648.154
469.827
17.8955
18.9973
19.7083
20.3017
20.8508
21.3673
21.8465
22.2764
22.6436
22.9351
23.1373
23.2353
23.219
23.0841
22.8343
22.4787
22.0256
21.5538
21.3245
21.4217
21.5348
21.4108
20.959
19.9312
17.6394
14.9034
14.5436
13.957
13.2396
13.9084
16.5637
18.6824
20.3667
645.901
469.69
17.7781
18.7735
19.4257
20.0085
20.5979
21.1959
21.7787
22.3127
22.769
23.1315
23.3948
23.5579
23.6188
23.579
23.4392
23.2005
22.8599
22.3843
21.7483
21.2463
21.1915
21.2088
20.9579
20.2682
18.6667
14.7577
11.4788
13.4758
14.0947
15.2165
17.5061
19.0497
20.2952
644.651
471.069
17.8099
18.5489
19.0612
19.5489
20.0703
20.6359
21.2314
21.8212
22.3636
22.8261
23.1902
23.4485
23.5988
23.6445
23.5914
23.4459
23.2132
22.8869
22.4027
21.6377
21.0052
20.9966
21.0104
20.69
19.8245
17.7018
13.0482
12.2515
14.6977
16.2871
18.2131
19.393
20.3506
644.163
470.023
17.531
18.3489
18.8747
19.3427
19.837
20.3837
20.9769
21.5798
22.1435
22.6296
23.0174
23.2999
23.4769
23.5499
23.5266
23.4156
23.2254
22.9601
22.6028
22.0718
21.2867
20.9367
21.0825
21.0597
20.6164
19.4166
16.5074
12.4811
14.2863
16.8737
18.6356
19.599
20.3442
643.208
471.104
17.6071
18.2354
18.6731
19.1086
19.6144
20.216
20.8982
21.5992
22.2422
22.7763
23.1838
23.466
23.6307
23.6852
23.638
23.5004
23.2826
22.9889
22.5982
22.0459
21.3352
21.0163
21.2897
21.4845
21.3305
20.7206
19.2354
16.1288
14.4305
16.8844
18.7307
19.6891
20.4038
643.394
471.15
17.4223
18.0138
18.3935
18.7316
19.107
19.5797
20.1905
20.9144
21.6602
22.3339
22.8836
23.2947
23.5704
23.7174
23.7432
23.6586
23.4753
23.2029
22.8325
22.2896
21.4259
20.7007
20.9775
21.4712
21.6422
21.3992
20.5441
18.5077
15.5874
16.6259
18.7278
19.7865
20.5387
643.841
471.692
17.7583
18.4003
18.8024
19.1361
19.4627
19.8257
20.2759
20.8315
21.4447
22.0354
22.5433
22.9416
23.2251
23.3966
23.4594
23.4199
23.2842
23.0551
22.7192
22.2066
21.3458
20.3557
20.5443
21.3118
21.816
21.9242
21.631
20.6904
18.5769
17.3526
18.5817
19.6042
20.4582
645.741
472.814
17.7345
18.3332
18.7519
19.1104
19.4569
19.8328
20.2933
20.8616
21.4845
22.0733
22.5677
22.9453
23.2046
23.3505
23.3885
23.3272
23.1748
22.9367
22.604
22.1162
21.2973
20.1303
19.9505
20.5803
21.1942
21.5259
21.5184
21.0495
19.779
18.2966
18.7557
19.7309
20.8388
649.421
472.295
17.9228
18.6867
19.1406
19.4695
19.7294
19.957
20.2278
20.6328
21.1799
21.7751
22.3157
22.746
23.0488
23.2234
23.2753
23.2124
23.0435
22.7754
22.3955
21.8151
20.7839
19.3705
19.5331
20.5288
21.3026
21.7124
21.8093
21.503
20.4781
19.152
19.3913
20.2513
21.3992
651.81
473.756
18.2819
18.8922
19.3202
19.706
20.0752
20.4236
20.7592
21.1187
21.5331
21.9817
22.4092
22.768
23.0308
23.1847
23.2251
23.1507
22.962
22.6567
22.2088
21.5039
20.2767
18.7127
18.9468
19.9028
20.6228
21.0748
21.2439
21.0447
20.4104
19.9107
20.4247
21.1199
22.0455
651.386
473.577
17.979
18.5487
18.9477
19.3047
19.6572
20.0146
20.3846
20.7828
21.2218
21.6869
22.1395
22.5396
22.8589
23.0817
23.2
23.2094
23.1064
22.8852
22.5214
21.912
20.7615
18.7641
17.7428
19.4608
20.6403
21.1989
21.3507
21.1832
20.8802
20.8644
21.2679
21.6541
22.0622
646.308
473.552
18.3166
18.8966
19.2758
19.6232
19.985
20.3621
20.7362
21.0968
21.4516
21.8087
22.1596
22.4841
22.7607
22.973
23.1103
23.1652
23.1325
23.0083
22.7899
22.467
21.9715
21.0408
19.2386
18.3497
19.3725
20.3473
20.8738
21.0388
21.0981
21.3101
21.5879
21.7715
21.8157
642.864
474.617
18.1868
18.5306
18.8135
19.1354
19.5362
20.0252
20.5711
21.1156
21.6129
22.0463
22.4156
22.7226
22.9664
23.1448
23.2548
23.2929
23.2553
23.1365
22.9252
22.5902
22.0488
21.1061
19.4389
17.4808
17.9815
19.5298
20.6148
21.1513
21.4162
21.6481
21.8093
21.8642
21.7207
642.179
474.287
18.1026
18.4789
18.7498
19.0197
19.3291
19.7022
20.1471
20.6455
21.1597
21.6531
22.1007
22.4881
22.8077
23.0568
23.2344
23.3403
23.375
23.3397
23.2361
23.0629
22.8032
22.3793
21.5267
19.6442
18.0109
18.4985
19.7727
20.7808
21.3881
21.7368
21.8964
21.9293
21.803
643.829
474.863
18.2187
18.5311
18.7713
19.0407
19.3802
19.7976
20.267
20.7537
21.2298
21.6758
22.078
22.4265
22.7152
22.9403
23.0998
23.1927
23.2188
23.1782
23.0696
22.8857
22.5991
22.129
21.2672
19.7277
18.2916
18.3043
19.351
20.5034
21.3184
21.7546
21.924
21.9555
21.8963
645.861
474.452
17.942
18.1946
18.383
18.6012
18.9066
19.3267
19.8377
20.3912
20.9445
21.4669
21.9375
22.3419
22.6731
22.9278
23.1056
23.2082
23.2384
23.1997
23.0952
22.9234
22.6657
22.2513
21.4763
20.0118
18.7306
18.6938
19.4922
20.5343
21.4027
21.8908
22.0761
22.1186
22.1342
647.879
475.461
18.1701
18.3708
18.5164
18.6899
18.9439
19.3009
19.7344
20.2104
20.7054
21.1978
21.6643
22.0828
22.4365
22.7154
22.9144
23.0323
23.0708
23.033
22.9212
22.7298
22.4209
21.8722
20.8176
19.4093
18.8019
19.3063
20.2253
21.0717
21.7559
22.1563
22.3298
22.4062
22.5095
649.073
474.874
17.9667
18.1602
18.2832
18.4359
18.6986
19.104
19.5868
20.0827
20.5739
21.0559
21.5162
21.9357
22.2944
22.5774
22.7761
22.8867
22.9094
22.846
22.6963
22.4473
22.0238
21.2124
19.8217
18.8802
19.2685
19.9446
20.993
21.7798
22.2442
22.4706
22.5539
22.5743
22.5753
647.292
475.315
18.0761
18.1908
18.2352
18.2919
18.4537
18.8051
19.2874
19.7957
20.2908
20.7711
21.2343
21.6679
22.0529
22.3704
22.6052
22.747
22.7902
22.7318
22.5658
22.2609
21.7065
20.6637
19.12
18.6298
20.3483
21.0657
21.5701
22.2199
22.6312
22.8046
22.832
22.7427
22.4093
643.35
475.144
18.0015
18.1495
18.2089
18.2494
18.3473
18.6231
19.0818
19.6054
20.1187
20.6058
21.0672
21.4992
21.8918
22.2306
22.5012
22.6911
22.7892
22.7853
22.6656
22.4024
21.9159
21.0162
19.5134
18.2323
19.7398
21.9886
22.428
22.6057
22.7753
22.864
22.86
22.7328
22.2412
640.741
473.964
17.9262
18.1469
18.2096
18.2009
18.1702
18.259
18.5887
19.0813
19.62
20.1505
20.6578
21.1354
21.5751
21.9668
22.2999
22.5645
22.7509
22.8492
22.8466
22.7244
22.4459
21.9199
20.9502
19.4107
18.4405
20.0683
22.0965
22.7142
22.8465
22.8234
22.7187
22.5183
21.9828
639.959
474.195
17.9778
18.2258
18.3287
18.3524
18.3103
18.2962
18.4848
18.8891
19.3877
19.9022
20.4061
20.8897
21.3442
21.7603
22.1289
22.4425
22.6939
22.8742
22.9736
22.98
22.8761
22.6284
22.1536
21.2709
19.8582
18.7994
19.747
21.568
22.4175
22.7194
22.7679
22.6215
22.0661
640.144
472.881
17.7993
18.1918
18.3764
18.4483
18.3999
18.2615
18.2321
18.4855
18.9381
19.4601
19.9911
20.5107
21.0077
21.4712
21.8919
22.2631
22.5785
22.8325
23.019
23.1298
23.1544
23.0775
22.869
22.4547
21.6713
20.3907
19.2948
20.0492
21.3884
22.1507
22.4935
22.5826
22.2885
642.298
472.982
17.8667
18.2913
18.526
18.6682
18.7021
18.6016
18.4633
18.5222
18.8289
19.2654
19.7462
20.239
20.7294
21.2051
21.6538
22.0651
22.4301
22.7423
22.9949
23.1802
23.2899
23.3157
23.2464
23.0568
22.6823
21.9807
20.875
20.2113
20.7166
21.3601
21.8168
22.1047
22.2976
647.526
472.234
17.6499
18.1445
18.4373
18.6413
18.7464
18.7142
18.5805
18.5495
18.7643
19.1493
19.6014
20.0749
20.5547
21.0314
21.4957
21.9367
22.345
22.7099
23.0176
23.252
23.4012
23.4602
23.4277
23.2934
23.0157
22.4887
21.5737
20.7055
20.9683
21.5092
21.8977
22.1771
22.5625
649.922
472.358
17.7611
18.2436
18.5436
18.7856
18.9605
19.0093
18.9145
18.8092
18.8857
19.1596
19.5416
19.9715
20.4255
20.8932
21.3664
21.8362
22.2936
22.723
23.0969
23.3813
23.5528
23.6082
23.5522
23.3677
22.9751
22.2003
20.9554
20.1437
21.2238
22.1794
22.5385
22.6761
22.6143
644.675
472.253
17.6287
18.0572
18.3454
18.6186
18.8747
19.0493
19.1057
19.1006
19.1612
19.3532
19.6473
20.0023
20.3977
20.8255
21.2792
21.756
22.2508
22.7454
23.2009
23.5649
23.7963
23.8829
23.8264
23.6087
23.1421
22.2388
20.8064
19.6407
20.4513
21.7086
22.2434
22.4299
22.0916
639.631
472.914
17.8045
18.1367
18.3799
18.6648
18.9814
19.229
19.3613
19.4246
19.5029
19.6502
19.8671
20.1368
20.4502
20.8039
21.1989
21.6395
22.1276
22.6507
23.1725
23.6367
23.9872
24.1922
24.2453
24.143
23.8552
23.292
22.3294
21.13
20.6217
21.017
21.3476
21.4369
21.1865
640.628
473.879
17.7932
17.953
18.1259
18.4549
18.9096
19.3139
19.5932
19.7782
19.9278
20.0859
20.2692
20.4802
20.7214
20.9963
21.3149
21.6904
22.1312
22.6301
23.1583
23.6646
24.0902
24.3979
24.5767
24.6285
24.5515
24.3276
23.9106
23.2589
22.5013
21.9096
21.4934
21.3631
21.4535
646.942
475.269
17.886
17.8683
17.9673
18.3788
18.9828
19.496
19.8595
20.1164
20.3143
20.4884
20.6604
20.843
21.0445
21.2741
21.5472
21.8832
22.2947
22.7757
23.2962
23.8027
24.2411
24.5796
24.8103
24.9378
24.9679
24.9004
24.7207
24.3864
23.8299
23.0578
22.4156
22.385
22.8501
653.094
476.336
17.7515
17.5363
17.5689
18.1588
18.9956
19.6571
20.1278
20.4713
20.7297
20.932
21.1025
21.2625
21.4296
21.6232
21.8682
22.1928
22.6104
23.1021
23.6163
24.0907
24.4887
24.7992
25.0227
25.1617
25.2177
25.1862
25.0471
24.7536
24.253
23.6273
23.2529
23.304
23.6297
652.968
476.151
17.4492
17.1131
17.0962
17.8381
18.8739
19.6614
20.231
20.6626
20.9942
21.2482
21.4465
21.6118
21.767
21.9414
22.1737
22.5067
22.9607
23.4957
24.0133
24.4381
24.7629
25.0072
25.185
25.2983
25.3386
25.2883
25.1191
24.8011
24.3479
23.8932
23.6332
23.529
23.402
647.005
475.126
17.0657
16.6536
16.4781
17.137
18.4066
19.4502
20.2025
20.7628
21.1852
21.4984
21.7268
21.894
22.0276
22.1634
22.3489
22.6424
23.0909
23.6696
24.2383
24.6667
24.948
25.1268
25.2341
25.2808
25.2645
25.1722
24.9843
24.6899
24.3183
23.9549
23.6596
23.349
22.7135
641.046
473.413
16.7071
16.3
15.8691
15.9657
17.2905
18.7611
19.8606
20.6628
21.259
21.6981
22.0104
22.2217
22.36
22.4593
22.5655
22.741
23.0621
23.57
24.1747
24.6884
25.0131
25.1794
25.2353
25.2057
25.1024
24.9344
24.7071
24.4252
24.1059
23.7767
23.4379
23.0003
22.0846
637.94
472.394
16.7511
16.4119
15.8357
15.1859
15.9047
17.7143
19.2567
20.3703
21.1785
21.77
22.1964
22.4931
22.6873
22.8041
22.8741
22.9438
23.0846
23.3785
23.8532
24.4077
24.8664
25.1389
25.2417
25.2127
25.0765
24.8535
24.5687
24.2473
23.9082
23.5568
23.177
22.6838
21.7027
637.007
471.86
16.77
16.5287
16.0132
15.1028
14.7049
16.3178
18.3093
19.8075
20.8773
21.6547
22.2277
22.6453
22.938
23.1268
23.2312
23.2777
23.3094
23.3887
23.5897
23.9471
24.3962
24.8009
25.0598
25.1516
25.0959
24.9173
24.6421
24.3
23.9175
23.5069
23.0597
22.5008
21.4684
636.756
471.632
16.8555
16.7156
16.3556
15.6063
14.4557
14.7673
16.7928
18.7345
20.1767
21.2227
21.9963
22.5779
23.0112
23.322
23.5272
23.6426
23.6879
23.6926
23.7033
23.7802
23.9667
24.2463
24.5396
24.7557
24.8431
24.7939
24.6212
24.3453
23.9875
23.5645
23.0788
22.4724
21.4066
636.947
471.577
16.8178
16.6987
16.4081
15.8498
14.8748
14.1061
15.3252
17.4161
19.1978
20.5321
21.528
22.2856
22.8726
23.3265
23.667
23.9052
24.05
24.1139
24.1155
24.0837
24.0581
24.0777
24.1565
24.2679
24.3579
24.3764
24.2985
24.1211
23.8494
23.4905
23.0473
22.4808
21.504
637.938
471.942
16.9074
16.8106
16.564
16.0851
15.2353
14.187
14.3094
16.0604
18.0408
19.6512
20.8679
21.793
22.5216
23.1109
23.5886
23.9639
24.241
24.4254
24.5253
24.552
24.5209
24.4531
24.3739
24.3028
24.243
24.1776
24.0806
23.9312
23.7164
23.4281
23.0617
22.5981
21.8374
640.526
471.968
16.8649
16.808
16.6217
16.2412
15.5366
14.5472
13.971
14.9956
16.9113
18.716
20.1385
21.2178
22.0623
22.756
23.3415
23.8328
24.2309
24.5359
24.7521
24.8861
24.9455
24.9382
24.8742
24.7663
24.628
24.4686
24.2882
24.0786
23.8293
23.5362
23.204
22.834
22.3142
644.078
472.429
16.9402
16.901
16.7534
16.4381
15.8335
14.9163
14.0719
14.3464
15.9154
17.801
19.4188
20.6554
21.6046
22.3768
23.0389
23.6168
24.11
24.5119
24.8223
25.0471
25.194
25.2688
25.2755
25.2175
25.0985
24.9226
24.6937
24.4182
24.1109
23.7949
23.4884
23.1917
22.8256
646.468
472.267
16.878
16.8907
16.8
16.5712
16.1015
15.3192
14.402
14.0828
15.082
16.8685
18.6611
20.0939
21.1689
22.0142
22.732
23.373
23.9427
24.4253
24.8098
25.0997
25.3049
25.4332
25.4873
25.4654
25.3637
25.1806
24.9235
24.6157
24.2934
23.9863
23.6991
23.404
22.9646
645.371
472.529
16.9663
17.0079
16.9481
16.7602
16.3604
15.6949
14.8298
14.1805
14.529
15.9448
17.7797
19.4428
20.704
21.6472
22.4122
23.0905
23.7139
24.2686
24.7275
25.0799
25.3332
25.4982
25.5785
25.5706
25.4695
25.278
25.0143
24.7121
24.405
24.1059
23.8007
23.4239
22.7111
642.058
472.263
16.9389
17.0476
17.049
16.9377
16.6369
16.0882
15.3212
14.5532
14.3593
15.19
16.7743
18.5715
20.0942
21.2087
22.0442
22.742
23.3795
23.9732
24.4985
24.9234
25.236
25.4419
25.548
25.5553
25.4639
25.2827
25.0353
24.7517
24.4523
24.1361
23.779
23.2839
22.2645
638.927
472.376
17.0406
17.1789
17.2117
17.1453
16.9156
16.4755
15.8339
15.0897
14.5834
14.8226
15.8871
17.5064
19.2245
20.6126
21.6
22.3422
22.9712
23.5515
24.0932
24.5713
24.9532
25.2217
25.3765
25.4223
25.3648
25.217
25
24.7363
24.4375
24.0982
23.6924
23.1103
21.913
637.257
472.37
17.0726
17.2444
17.3202
17.316
17.1708
16.8369
16.3211
15.6751
15.0748
14.9044
15.4188
16.5767
18.176
19.8018
21.0558
21.9264
22.5764
23.1244
23.6254
24.0887
24.4957
24.8173
25.0322
25.1336
25.1256
25.02
24.8353
24.5886
24.2893
23.934
23.5004
22.8854
21.6643
636.798
472.571
17.1306
17.3007
17.3983
17.445
17.3867
17.1689
16.7848
16.2613
15.6868
15.3045
15.3999
16.054
17.2412
18.813
20.3405
21.4675
22.2327
22.7956
23.2595
23.6713
24.0426
24.3625
24.6097
24.7641
24.8157
24.7669
24.6294
24.4166
24.137
23.7912
23.3656
22.7803
21.6748
637.668
472.873
17.1471
17.2915
17.3991
17.4927
17.5226
17.4237
17.1739
16.7872
16.3079
15.8738
15.7205
15.9883
16.7122
17.9267
19.4799
20.9036
21.9046
22.5702
23.0513
23.4352
23.7601
24.0376
24.264
24.4271
24.5133
24.5135
24.4281
24.2629
24.0227
23.7087
23.3149
22.7886
21.8467
639.285
473.139
17.1175
17.2234
17.3313
17.4693
17.5929
17.6181
17.5024
17.249
16.8839
16.4843
16.2178
16.2379
16.6039
17.3869
18.6636
20.2111
21.524
22.4027
22.9801
23.3921
23.7095
23.9613
24.1569
24.2971
24.379
24.3974
24.3475
24.2285
24.0398
23.781
23.4502
23.0153
22.2585
641.429
473.341
17.0465
17.1019
17.1994
17.377
17.5961
17.745
17.76
17.6366
17.3922
17.0705
16.78
16.6572
16.7816
17.2098
18.0761
19.445
20.9764
22.1615
22.9247
23.4273
23.7851
24.0506
24.2428
24.3667
24.4244
24.4185
24.3524
24.2302
24.055
23.8283
23.5483
23.1853
22.5401
642.583
473.276
16.9053
16.9108
16.9906
17.2046
17.5267
17.8055
17.9501
17.952
17.8263
17.6013
17.344
17.1588
17.1334
17.3136
17.806
18.7928
20.2671
21.7495
22.7928
23.4499
23.8916
24.2107
24.4416
24.5914
24.6578
24.6401
24.5457
24.3887
24.1867
23.9502
23.678
23.3321
22.694
642.704
473.114
16.7592
16.7115
16.752
16.9716
17.3811
17.789
18.0659
18.1947
18.19
18.0713
17.8784
17.6843
17.5733
17.591
17.8051
18.3801
19.5107
21.0692
22.4648
23.3635
23.9189
24.3
24.579
24.7743
24.8807
24.8877
24.7957
24.6209
24.3885
24.1168
23.8062
23.4052
22.6466
641.703
472.79
16.6079
16.5168
16.5035
16.689
17.1562
17.6866
18.0971
18.3555
18.4761
18.4759
18.3746
18.2192
18.0785
18.0004
18.0298
18.2724
18.9384
20.2033
21.8054
23.1108
23.8883
24.3445
24.6481
24.862
24.9973
25.0462
25.0015
24.8683
24.663
24.3992
24.0742
23.6231
22.7183
640.677
472.548
16.5369
16.4088
16.325
16.4183
16.8806
17.5107
18.0543
18.4445
18.6927
18.8158
18.8241
18.7446
18.6253
18.5098
18.4339
18.4554
18.7099
19.4317
20.7565
22.3515
23.612
24.327
24.6894
24.8782
24.9665
24.9776
24.919
24.7956
24.6118
24.3687
24.0524
23.5815
22.5708
639.28
472.342
16.5044
16.3521
16.2043
16.1813
16.5776
17.264
17.9293
18.4549
18.8343
19.0846
19.2153
19.2421
19.1939
19.1003
18.9925
18.9057
18.9041
19.1307
19.8183
21.0757
22.6039
23.8853
24.6531
24.9992
25.1011
25.0646
24.9398
24.7546
24.5237
24.2493
23.9119
23.4165
22.3426
638.169
472.272
16.5168
16.3435
16.1427
16.0037
16.2906
16.9794
17.7361
18.3862
18.8956
19.2702
19.5251
19.6742
19.7323
19.7139
19.6406
19.5386
19.4388
19.3957
19.5363
20.0622
21.0872
22.4316
23.71
24.6139
25.0718
25.1968
25.1183
24.9151
24.6313
24.2904
23.8873
23.3304
22.1996
637.641
472.279
16.5344
16.3431
16.1045
15.8699
16.032
16.6729
17.4811
18.2362
18.8667
19.3602
19.7328
20.0021
20.1806
20.2731
20.2893
20.2464
20.1636
20.061
19.9781
20.0035
20.2852
20.9483
21.9574
23.096
24.0847
24.7268
25.0066
25.0235
24.8643
24.5808
24.1954
23.6583
22.62
639.221
472.384
16.5565
16.3467
16.08
15.7689
15.8091
16.3656
17.1801
18.0116
18.747
19.3505
19.8298
20.2042
20.4878
20.6878
20.8099
20.8626
20.8565
20.801
20.7098
20.6051
20.5353
20.5891
20.8754
21.4564
22.2802
23.1677
23.881
24.2902
24.4303
24.3736
24.1655
23.801
23.0397
642.017
472.535
16.5744
16.3527
16.0694
15.6977
15.6209
16.0692
16.8499
17.7273
18.5542
19.2609
19.8377
20.3022
20.6725
20.9617
21.1767
21.3225
21.4046
21.429
21.4031
21.3349
21.2351
21.1244
21.0476
21.0786
21.3073
21.7931
22.4789
23.151
23.6234
23.8746
23.946
23.8546
23.4621
645.358
472.656
16.5832
16.3618
16.0771
15.6657
15.4756
15.7895
16.4883
17.3677
18.2675
19.075
19.7488
20.2961
20.7384
21.0961
21.3815
21.6
21.7548
21.8488
21.8871
21.8751
21.8174
21.7185
21.5868
21.4427
21.3324
21.3489
21.631
22.208
22.8552
23.3458
23.6295
23.7295
23.5647
646.792
472.76
16.5903
16.3776
16.1018
15.6713
15.3853
15.5585
16.141
16.9756
17.9164
18.8163
19.5888
20.2176
20.7244
21.138
21.4777
21.7525
21.9653
22.1172
22.2117
22.2534
22.2464
22.1931
22.0948
21.9528
21.7766
21.6141
21.6203
22.0061
22.6573
23.2235
23.5688
23.7234
23.6113
646.797
472.805
16.591
16.3961
16.141
15.7169
15.3596
15.3889
15.8171
16.5425
17.4645
18.4355
19.3128
20.0354
20.6127
21.0799
21.4649
21.7822
22.0367
22.2294
22.363
22.4419
22.4701
22.4503
22.3826
22.2643
22.0926
21.8894
21.789
22.0573
22.6533
23.1779
23.479
23.5937
23.3967
645.24
472.81
16.5926
16.4192
16.1882
15.7874
15.3997
15.3211
15.6002
16.1795
17.0172
18.0091
18.9808
19.8031
20.4552
20.9758
21.4029
21.7583
22.0495
22.278
22.4465
22.5592
22.6207
22.6342
22.6005
22.5175
22.3829
22.2178
22.1457
22.3998
22.9192
23.3311
23.54
23.5699
23.1957
643.162
472.717
16.5961
16.4533
16.2521
15.8866
15.4942
15.3352
15.4718
15.8722
16.5429
17.4643
18.4936
19.434
20.1892
20.7831
21.2624
21.6583
21.983
22.2399
22.4322
22.5645
22.6422
22.6697
22.6491
22.5807
22.4694
22.3537
22.3594
22.6416
23.071
23.3599
23.4724
23.3952
22.7844
640.455
472.639
16.6275
16.5143
16.3406
16.0116
15.6365
15.4402
15.484
15.7387
16.2213
16.9785
17.9702
18.9942
19.8596
20.5402
21.0835
21.5318
21.903
22.2018
22.4301
22.592
22.693