/*--------------------------------*- C++ -*----------------------------------*\
| =========                 |                                                 |
| \\      /  F ield         | OpenFOAM: The Open Source CFD Toolbox           |
|  \\    /   O peration     | Version:  v2006                                 |
|   \\  /    A nd           | Website:  www.openfoam.com                      |
|    \\/     M anipulation  |                                                 |
\*---------------------------------------------------------------------------*/
FoamFile
{
    version     2.0;
    format      ascii;
    class       volScalarField;
    location    "4";
    object      T;
}
// * * * * * * * * * * * * * * * * * * * * * * * * * * * * * * * * * * * * * //

dimensions      [0 0 0 1 0 0 0];


internalField   nonuniform List<scalar> 
78750
(
300.103
300.008
300.115
300.933
302.434
304.107
305.603
306.806
307.686
308.255
308.571
308.72
308.778
308.796
308.799
308.795
308.789
308.783
308.777
308.772
308.77
308.771
308.775
308.781
308.792
308.805
308.823
308.844
308.866
308.88
308.858
308.736
308.593
312.307
361.75
301.664
303.966
305.231
306.04
306.681
307.239
307.723
308.109
308.382
308.56
308.665
308.717
308.735
308.731
308.714
308.692
308.671
308.654
308.643
308.641
308.648
308.665
308.696
308.744
308.816
308.922
309.075
309.292
309.593
309.998
310.552
311.468
313.78
324.403
370.414
301.5
303.95
305.572
306.575
307.192
307.6
307.885
308.077
308.194
308.26
308.296
308.311
308.311
308.3
308.28
308.258
308.244
308.242
308.256
308.285
308.328
308.381
308.437
308.486
308.517
308.528
308.524
308.53
308.589
308.77
309.258
310.827
316.909
334.2
375.921
301.184
303.295
305.063
306.456
307.419
308.018
308.361
308.566
308.688
308.737
308.721
308.643
308.506
308.342
308.183
308.053
307.962
307.916
307.915
307.965
308.067
308.221
308.424
308.672
308.97
309.296
309.562
309.675
309.604
309.401
309.169
309.274
312.976
333.291
378.894
300.668
301.842
302.96
304.133
305.232
306.169
306.886
307.353
307.625
307.788
307.875
307.891
307.85
307.766
307.653
307.536
307.434
307.358
307.313
307.308
307.364
307.519
307.801
308.197
308.663
309.174
309.733
310.406
311.342
312.703
314.566
317.229
323.297
341.179
381.032
300.696
301.818
302.681
303.486
304.287
305.089
305.846
306.473
306.908
307.175
307.35
307.468
307.541
307.584
307.605
307.616
307.626
307.64
307.652
307.661
307.665
307.659
307.639
307.597
307.534
307.457
307.384
307.362
307.481
307.908
309.392
314.06
323.944
343.502
381.887
300.666
301.909
302.888
303.626
304.163
304.597
305.029
305.468
305.878
306.223
306.493
306.702
306.869
307.01
307.136
307.261
307.404
307.594
307.867
308.206
308.53
308.819
309.093
309.354
309.586
309.776
309.918
310.007
310.055
310.179
310.922
314.75
326.933
347.376
382.2
300.904
302.553
303.948
305.112
305.886
306.257
306.427
306.554
306.692
306.836
306.979
307.119
307.262
307.414
307.579
307.757
307.948
308.153
308.361
308.561
308.769
309.006
309.283
309.609
309.985
310.408
310.921
311.594
312.396
313.272
314.431
317.46
328.593
350.015
384.073
300.891
302.503
303.939
305.277
306.358
307.047
307.403
307.577
307.679
307.756
307.829
307.905
307.986
308.072
308.163
308.256
308.353
308.453
308.553
308.648
308.733
308.807
308.867
308.906
308.929
308.955
309.032
309.263
310.017
311.925
315.844
323.065
336.588
354.866
383.115
301.036
302.828
304.321
305.633
306.726
307.541
308.045
308.296
308.417
308.49
308.547
308.597
308.648
308.704
308.768
308.845
308.94
309.058
309.201
309.374
309.583
309.838
310.155
310.553
311.025
311.483
311.797
311.919
311.924
312.069
313.389
319.632
336.206
355.709
383.084
300.842
302.354
303.683
304.913
305.97
306.779
307.379
307.816
308.113
308.294
308.42
308.523
308.612
308.694
308.773
308.85
308.924
308.994
309.055
309.108
309.152
309.193
309.246
309.336
309.51
309.842
310.45
311.508
313.185
315.554
319.006
325.968
341.703
358.79
382.655
300.906
302.534
303.923
305.197
306.309
307.132
307.676
308.021
308.244
308.395
308.514
308.627
308.747
308.877
309.021
309.178
309.347
309.523
309.706
309.888
310.057
310.199
310.295
310.33
310.28
310.139
309.942
309.793
309.954
311.077
314.42
322.393
339.873
357.18
380.87
300.82
302.275
303.528
304.711
305.832
306.79
307.524
307.997
308.254
308.432
308.59
308.739
308.891
309.053
309.233
309.435
309.665
309.926
310.222
310.561
310.982
311.524
312.156
312.787
313.316
313.69
313.916
314.044
314.186
314.709
317.086
325.283
342.748
358.884
381.052
300.801
302.256
303.472
304.564
305.596
306.49
307.196
307.707
308.038
308.241
308.397
308.544
308.689
308.837
308.993
309.157
309.328
309.505
309.685
309.866
310.051
310.251
310.489
310.789
311.178
311.682
312.318
313.108
314.123
315.615
318.548
326.381
343.468
359.201
380.862
300.759
302.182
303.382
304.413
305.384
306.309
307.097
307.649
307.998
308.239
308.439
308.63
308.825
309.033
309.26
309.509
309.784
310.087
310.423
310.808
311.244
311.7
312.119
312.454
312.706
312.907
313.113
313.405
313.949
315.214
318.643
327.569
344.826
360.076
381.054
300.844
302.456
303.719
304.661
305.444
306.151
306.798
307.325
307.708
307.988
308.217
308.427
308.638
308.862
309.102
309.363
309.65
309.971
310.327
310.734
311.216
311.771
312.375
312.986
313.579
314.153
314.736
315.402
316.338
318.085
322.25
331.947
347.948
362.653
383.483
300.783
302.28
303.449
304.309
304.995
305.595
306.153
306.674
307.142
307.545
307.886
308.179
308.446
308.71
308.982
309.263
309.551
309.853
310.168
310.491
310.834
311.213
311.629
312.085
312.586
313.148
313.801
314.621
315.815
317.991
322.86
333.426
349.489
364.141
384.779
300.738
302.085
303.097
303.814
304.358
304.813
305.235
305.664
306.121
306.602
307.061
307.458
307.818
308.191
308.608
309.051
309.495
309.944
310.41
310.909
311.471
312.089
312.712
313.291
313.819
314.334
314.914
315.701
317.005
319.652
325.612
337.281
352.448
366.652
387.143
300.66
301.971
303.087
303.92
304.491
304.84
305.027
305.149
305.333
305.642
306.024
306.41
306.815
307.275
307.789
308.314
308.816
309.29
309.755
310.243
310.792
311.43
312.157
312.931
313.702
314.445
315.197
316.077
317.381
319.927
325.823
337.986
353.782
368.18
388.287
301.099
303.858
306.318
307.836
308.495
308.492
307.96
307.056
306.066
305.347
305.083
305.175
305.485
305.954
306.581
307.322
308.06
308.729
309.329
309.887
310.44
311.027
311.683
312.432
313.275
314.208
315.246
316.5
318.3
321.542
328.28
340.743
355.371
369.23
389.314
302.324
307.998
311.747
313.464
313.848
313.422
312.403
310.924
309.2
307.523
306.19
305.317
304.877
304.772
304.924
305.341
306.053
306.894
307.682
308.41
309.12
309.847
310.617
311.444
312.339
313.309
314.376
315.62
317.309
320.256
326.652
339.537
355.282
369.525
389.287
305.763
312.959
314.555
314.195
313.024
311.566
310.03
308.748
307.996
307.636
307.493
307.548
307.762
308.08
308.455
308.843
309.219
309.581
309.959
310.372
310.828
311.327
311.874
312.485
313.179
313.989
314.974
316.275
318.252
321.81
328.861
341.375
355.725
369.422
389.376
312.063
317.494
313.917
312.238
311.631
311.803
311.841
311.459
310.962
310.571
310.291
310.122
310.107
310.268
310.576
310.97
311.381
311.772
312.145
312.496
312.834
313.175
313.541
313.951
314.434
315.02
315.754
316.723
318.167
320.865
327.033
339.653
354.72
368.585
388.361
313.239
319.332
319.681
321.418
320.512
320.303
320.456
320.723
320.711
320.317
319.677
318.805
317.733
316.583
315.524
314.735
314.294
314.181
314.293
314.506
314.751
315.008
315.292
315.63
316.048
316.59
317.353
318.562
320.71
324.753
332.181
344.151
356.93
369.924
390.16
312.482
319.926
318.934
318.055
318.946
320.48
321.988
323.207
324.222
325.06
325.61
325.779
325.477
324.644
323.276
321.502
319.564
317.778
316.427
315.699
315.609
315.936
316.352
316.704
317.058
317.585
318.416
319.685
321.762
325.647
333.259
345.385
357.004
368.878
388.892
310.583
314.804
314.403
314.505
315.424
316.665
318.079
319.583
321.114
322.628
324.102
325.5
326.761
327.791
328.471
328.648
328.164
326.91
324.86
322.207
319.428
317.085
315.841
316.263
317.544
318.348
318.829
319.563
321.043
324.187
330.893
343.024
355.834
368.565
388.792
306.498
309.65
310.608
311.755
313.517
315.851
318.287
320.387
322.088
323.467
324.566
325.403
326.008
326.445
326.845
327.358
328.013
328.675
329.117
329.063
328.207
326.097
322.732
318.833
316
316.411
318.471
319.626
320.99
324.398
332.091
344.485
355.942
367.857
388.888
303.241
307.195
311.172
315.302
319.153
322.295
324.66
326.461
327.858
328.913
329.642
330.035
330.043
329.623
328.874
328.109
327.653
327.577
327.737
327.974
328.192
328.307
328.024
326.183
321.109
315.899
315.96
319.626
322.42
325.355
331.41
343.06
355.387
367.653
387.711
304.076
312.901
319.437
323.326
325.518
326.884
327.821
328.505
329.018
329.394
329.644
329.759
329.708
329.46
329.03
328.486
327.931
327.471
327.158
326.973
326.864
326.774
326.641
326.302
325.017
321.132
316.958
316.702
319.125
322.121
329.231
342.19
354.479
366.464
386.785
307.665
315.818
318.108
319.048
319.891
320.88
322.014
323.223
324.431
325.577
326.615
327.51
328.219
328.668
328.829
328.773
328.588
328.324
328.016
327.696
327.383
327.083
326.785
326.447
325.954
324.881
321.368
317.591
319.852
323.84
326.771
336.972
351.534
365.666
386.314
306.272
311.808
316.194
319.692
322.466
324.692
326.502
327.986
329.187
330.122
330.796
331.209
331.342
331.146
330.604
329.848
329.081
328.429
327.932
327.572
327.296
327.041
326.762
326.431
326.001
325.283
323.462
318.763
318.166
326.187
337.499
347.926
357.612
368.968
390.168
305.209
314.614
320.248
323.091
324.841
326.16
327.232
328.143
328.939
329.642
330.257
330.786
331.228
331.571
331.772
331.73
331.326
330.55
329.571
328.605
327.862
327.373
327.01
326.675
326.307
325.818
324.889
322.217
318.915
322.528
333.537
346.578
357.299
368.538
389.041
307.945
317.254
320.787
322.752
324.304
325.643
326.798
327.773
328.575
329.217
329.719
330.103
330.39
330.602
330.764
330.892
330.972
330.954
330.687
329.864
328.623
327.674
327.119
326.734
326.382
325.974
325.371
324.031
318.882
318.784
329.249
345.187
357.074
368.547
388.943
307.524
315.217
319.788
322.661
324.784
326.554
328.087
329.415
330.538
331.443
332.116
332.554
332.76
332.744
332.517
332.136
331.703
331.289
330.881
330.324
329.186
327.867
327.145
326.74
326.41
326.064
325.614
324.797
322.519
318.694
325.231
341.262
355.496
368.488
389.129
307.736
317.954
322.643
325.119
326.867
328.246
329.332
330.17
330.798
331.258
331.587
331.81
331.942
331.982
331.914
331.706
331.339
330.85
330.273
329.545
328.479
327.102
326.336
326.121
326.012
325.857
325.596
325.098
323.974
322.336
329.868
344.197
357.132
370.062
391.013
309.821
319.088
322.797
324.966
326.684
328.159
329.429
330.5
331.374
332.053
332.542
332.852
332.99
332.962
332.779
332.471
332.072
331.605
331.07
330.413
329.472
327.989
326.368
325.496
325.167
324.983
324.775
324.463
323.994
324.209
333.456
350.526
361.308
372.294
392.495
308.99
317.603
321.79
324.298
326.238
327.899
329.333
330.546
331.532
332.295
332.841
333.183
333.337
333.312
333.11
332.763
332.353
331.948
331.558
331.147
330.625
329.775
328.218
326.376
325.224
324.622
324.16
323.62
322.841
321.937
326.398
345.503
358.724
370.592
390.447
309.763
319.81
323.943
326.295
328.118
329.635
330.882
331.879
332.644
333.2
333.573
333.786
333.859
333.801
333.606
333.266
332.822
332.365
331.947
331.565
331.177
330.691
329.864
328.197
326.085
324.715
324.027
323.571
323.078
322.454
324.718
342.284
357.483
370.371
390.211
309.966
318.808
322.639
324.936
326.763
328.357
329.769
331.007
332.06
332.915
333.559
333.991
334.217
334.248
334.085
333.723
333.193
332.6
332.058
331.607
331.228
330.873
330.456
329.771
328.312
326.433
325.134
324.304
323.553
322.575
323.169
336.674
353.875
368.643
389.122
308.852
318.182
322.542
325.113
327.122
328.87
330.408
331.738
332.854
333.753
334.437
334.915
335.195
335.287
335.199
334.916
334.408
333.699
332.924
332.214
331.605
331.041
330.403
329.461
327.818
325.711
324.396
323.872
323.493
322.927
325.132
338.396
354.625
369.345
390.066
310.21
319.939
323.86
326.115
327.898
329.443
330.797
331.972
332.968
333.788
334.437
334.925
335.264
335.463
335.527
335.454
335.214
334.737
334.007
333.18
332.443
331.845
331.306
330.663
329.598
327.743
326.146
325.522
326.024
327.983
333.193
345.766
358.314
371.155
392.191
309.395
318.326
322.475
324.957
326.924
328.678
330.279
331.727
333.001
334.079
334.952
335.622
336.1
336.4
336.537
336.524
336.364
336.023
335.396
334.415
333.303
332.35
331.6
330.912
330.043
328.609
326.989
326.542
326.899
329.281
336.238
349.119
359.439
370.516
391.818
308.522
318.078
322.549
325.142
327.167
328.969
330.6
332.049
333.289
334.31
335.121
335.747
336.212
336.534
336.729
336.806
336.768
336.613
336.296
335.66
334.542
333.283
332.302
331.567
330.855
329.838
328.036
327.166
328.94
332.83
341.02
352.587
361.177
371.178
392.466
309.888
319.316
323.295
325.616
327.497
329.232
330.866
332.37
333.688
334.777
335.63
336.266
336.716
337.011
337.176
337.232
337.193
337.07
336.858
336.496
335.758
334.41
333.074
332.173
331.537
330.899
329.953
328.756
330.347
335.116
343.778
354.64
362.348
371.55
392.47
308.561
317.242
321.472
324.01
326.052
327.964
329.815
331.573
333.157
334.498
335.57
336.384
336.972
337.366
337.599
337.693
337.667
337.537
337.308
336.96
336.381
335.301
333.851
332.762
332.106
331.639
331.177
330.744
331.977
337.827
346.811
356.283
363.313
372.205
392.853
308.897
318.18
322.515
325.08
327.169
329.142
331.049
332.828
334.369
335.607
336.543
337.221
337.692
337.997
338.164
338.216
338.167
338.027
337.794
337.432
336.816
335.715
334.276
333.191
332.586
332.246
332.032
332
333.005
338.247
347.435
356.461
363.319
372.042
392.48
308.527
317.343
321.626
324.188
326.261
328.228
330.182
332.093
333.84
335.301
336.433
337.263
337.849
338.243
338.482
338.591
338.587
338.485
338.29
337.99
337.492
336.525
334.939
333.602
332.86
332.479
332.293
332.356
333.353
338.067
348.746
358.127
364.486
372.539
392.316
308.275
317.599
322.289
325.07
327.259
329.254
331.156
332.962
334.598
335.974
337.044
337.821
338.354
338.697
338.89
338.963
338.937
338.824
338.626
338.33
337.852
336.953
335.408
334.086
333.445
333.191
333.101
333.153
333.646
336.205
344.9
355.76
362.998
371.116
390.625
308.936
318.622
323.288
326.031
328.195
330.137
331.941
333.609
335.098
336.356
337.357
338.115
338.661
339.03
339.249
339.342
339.326
339.216
339.018
338.724
338.269
337.43
335.872
334.333
333.459
333.072
332.927
332.94
333.264
334.865
341.205
352.308
360.91
370.058
389.501
308.335
318.696
323.958
327.008
329.33
331.341
333.127
334.697
336.042
337.154
338.034
338.699
339.178
339.504
339.699
339.78
339.76
339.647
339.446
339.145
338.66
337.722
336.043
334.801
334.385
334.308
334.313
334.366
334.619
335.964
341.608
352.685
361.282
370.579
390.277
309.57
320.67
325.707
328.642
330.988
333.069
334.895
336.415
337.614
338.533
339.223
339.725
340.074
340.296
340.407
340.421
340.344
340.177
339.919
339.544
338.944
337.835
336.031
334.845
334.639
334.748
334.973
335.344
336.28
339.178
346.312
356.402
363.602
372.255
392.664
309.822
320.735
325.714
328.637
330.991
333.091
334.922
336.415
337.578
338.489
339.216
339.796
340.245
340.575
340.797
340.921
340.951
340.891
340.74
340.478
340.022
339.11
337.339
335.651
336.196
337.356
338.55
340.037
342.406
346.782
353.938
361.452
367.623
376.304
396.019
309.992
321.524
326.809
329.926
332.467
334.759
336.719
338.2
339.191
339.83
340.268
340.599
340.864
341.075
341.23
341.329
341.368
341.344
341.255
341.096
340.858
340.483
339.753
338.23
337.018
337.849
339.68
342.149
345.644
350.906
357.739
363.768
369.155
377.336
396.325
310.97
322.357
327.21
330.135
332.653
335.018
337.116
338.77
339.938
340.71
341.212
341.544
341.771
341.927
342.028
342.083
342.091
342.052
341.963
341.812
341.575
341.183
340.467
339.131
337.4
337.726
340.286
343.89
348.435
354.118
360.245
365.343
370.218
377.983
396.189
311.067
322.503
327.498
330.478
332.981
335.276
337.253
338.786
339.898
340.69
341.264
341.687
342.005
342.242
342.415
342.532
342.6
342.621
342.597
342.525
342.402
342.208
341.87
341.143
339.494
337.966
339.174
342.904
348.329
354.835
361.1
366.014
370.528
377.55
395.097
311.722
323.457
328.429
331.453
334.093
336.55
338.609
340.097
341.074
341.705
342.132
342.436
342.664
342.836
342.963
343.05
343.099
343.112
343.087
343.022
342.91
342.726
342.397
341.718
340.299
338.66
338.965
342.042
347.436
354.203
360.643
365.666
370.152
376.97
394.547
311.546
323.287
328.353
331.426
334.113
336.626
338.72
340.237
341.261
341.955
342.445
342.808
343.085
343.299
343.461
343.58
343.657
343.695
343.696
343.659
343.581
343.445
343.192
342.631
341.312
339.653
339.602
342.157
347.234
353.898
360.287
365.364
369.977
376.961
394.458
312.316
324.443
329.487
332.59
335.381
337.97
339.997
341.324
342.139
342.665
343.038
343.326
343.558
343.748
343.902
344.02
344.105
344.157
344.175
344.16
344.105
343.991
343.738
343.103
341.704
340.319
340.844
343.804
348.957
355.428
361.333
365.984
370.372
377.232
394.508
312.245
324.347
329.45
332.63
335.543
338.292
340.429
341.781
342.579
343.081
343.438
343.72
343.955
344.154
344.32
344.452
344.55
344.614
344.647
344.647
344.61
344.513
344.262
343.615
342.393
341.53
342.733
346.203
351.182
356.795
361.867
366.139
370.569
377.899
395.793
312.593
324.856
329.978
333.19
336.179
339.038
341.252
342.59
343.309
343.713
343.978
344.185
344.369
344.539
344.695
344.831
344.942
345.026
345.08
345.106
345.1
345.047
344.902
344.614
344.318
344.656
346.365
349.831
354.59
359.279
363.426
367.355
372.066
380.226
397.609
313.002
325.088
330.056
333.189
336.117
338.98
341.331
342.841
343.681
344.148
344.435
344.638
344.804
344.954
345.095
345.225
345.341
345.439
345.514
345.566
345.594
345.598
345.583
345.616
346.018
347.553
350.26
353.332
357.388
361.798
365.666
369.252
373.556
381.05
397.293
312.526
324.632
329.759
332.904
335.735
338.564
341.086
342.84
343.845
344.396
344.722
344.944
345.117
345.27
345.413
345.549
345.678
345.796
345.899
345.984
346.051
346.102
346.147
346.239
346.585
347.828
350.805
354.433
357.679
361.191
364.859
368.424
372.474
379.439
396.475
312.859
324.989
330.065
333.172
335.93
338.66
341.202
343.122
344.274
344.891
345.228
345.433
345.58
345.703
345.819
345.934
346.049
346.163
346.273
346.374
346.465
346.545
346.621
346.717
346.925
347.569
349.463
353.254
357.355
360.574
363.75
367.241
371.544
379.055
396.708
312.472
324.673
329.888
332.99
335.602
338.13
340.618
342.739
344.176
345.007
345.474
345.755
345.945
346.091
346.217
346.334
346.447
346.56
346.673
346.784
346.891
346.993
347.089
347.189
347.329
347.642
348.598
351.318
356.447
361.338
364.849
368.077
372.044
378.958
395.177
312.598
325.025
330.378
333.588
336.286
338.809
341.163
343.159
344.577
345.428
345.906
346.188
346.375
346.518
346.64
346.753
346.864
346.975
347.089
347.208
347.331
347.458
347.585
347.714
347.85
348.024
348.379
349.512
352.956
358.571
363.548
367.309
370.805
376.306
391.951
312.431
325.13
330.644
333.944
336.708
339.261
341.573
343.497
344.902
345.793
346.313
346.626
346.832
346.987
347.116
347.232
347.343
347.453
347.568
347.692
347.831
347.986
348.159
348.353
348.577
348.853
349.212
349.725
351.026
354.903
360.422
365.081
368.954
374.873
393.349
312.73
325.849
331.48
334.883
337.798
340.466
342.714
344.399
345.562
346.31
346.768
347.059
347.262
347.423
347.562
347.689
347.807
347.923
348.04
348.172
348.328
348.521
348.758
349.061
349.485
350.173
351.391
353.294
355.393
358.197
362.452
366.676
371.381
379.668
398.479
312.96
326.439
332.173
335.709
338.86
341.723
343.954
345.452
346.389
346.968
347.332
347.576
347.76
347.915
348.056
348.187
348.31
348.42
348.52
348.619
348.737
348.903
349.148
349.511
350.092
351.146
353.218
356.928
361.918
366.646
370.087
373.082
377.063
384.555
399.614
313.661
327.624
333.427
337.113
340.529
343.447
345.427
346.582
347.232
347.616
347.869
348.059
348.222
348.374
348.523
348.67
348.812
348.937
349.038
349.108
349.159
349.222
349.34
349.565
349.973
350.724
352.195
355.097
360.034
366.268
371.51
374.789
377.627
382.47
395.971
314.674
328.928
334.805
338.777
342.621
345.493
347.08
347.84
348.203
348.401
348.541
348.668
348.797
348.937
349.087
349.245
349.403
349.549
349.666
349.737
349.756
349.738
349.717
349.733
349.837
350.097
350.651
351.787
354.027
357.817
362.775
368.019
372.411
377.72
391.324
316.074
330.422
336.512
340.901
345.034
347.436
348.426
348.792
348.939
349.023
349.106
349.212
349.345
349.505
349.688
349.887
350.091
350.282
350.439
350.539
350.569
350.532
350.449
350.35
350.265
350.227
350.287
350.539
351.215
352.87
356.596
363.037
369.173
375.751
389.311
317.614
331.671
338.119
343.06
347.25
349.049
349.56
349.672
349.684
349.689
349.724
349.806
349.94
350.126
350.357
350.623
350.903
351.163
351.366
351.491
351.536
351.511
351.429
351.308
351.168
351.036
350.957
351.039
351.588
353.409
357.776
364.374
369.702
376.007
391.338
318.439
332.284
338.919
344.19
348.304
349.783
350.126
350.181
350.178
350.185
350.23
350.332
350.499
350.74
351.056
351.442
351.868
352.272
352.576
352.751
352.827
352.846
352.83
352.794
352.757
352.761
352.907
353.417
354.753
357.611
362.288
367.42
371.769
378.006
395.269
318.257
332.008
338.384
343.601
348.259
350.203
350.675
350.731
350.694
350.661
350.671
350.749
350.911
351.175
351.554
352.056
352.663
353.304
353.847
354.198
354.398
354.537
354.679
354.866
355.142
355.571
356.27
357.462
359.477
362.558
366.39
370.137
374.037
380.653
397.851
317.158
331.026
336.912
341.656
346.936
349.997
350.964
351.178
351.191
351.166
351.162
351.209
351.334
351.566
351.933
352.463
353.169
354.013
354.865
355.545
355.99
356.305
356.623
357.043
357.655
358.548
359.805
361.511
363.742
366.454
369.397
372.375
375.906
382.295
398.432
315.909
329.954
335.752
340.106
345.295
349.428
351.056
351.477
351.555
351.559
351.567
351.613
351.723
351.923
352.247
352.734
353.424
354.338
355.42
356.503
357.379
357.991
358.472
358.996
359.711
360.741
362.169
364.006
366.176
368.548
371.004
373.568
376.729
382.578
398.143
315.682
329.998
335.957
340.114
344.689
349.093
351.336
351.969
352.08
352.072
352.057
352.073
352.143
352.289
352.54
352.933
353.519
354.349
355.456
356.794
358.191
359.417
360.359
361.102
361.838
362.749
363.963
365.532
367.411
369.5
371.73
374.142
377.161
382.775
398.133
315.54
329.951
335.931
339.9
344.024
348.276
351.135
352.197
352.468
352.515
352.515
352.522
352.561
352.652
352.819
353.095
353.523
354.157
355.065
356.302
357.861
359.616
361.349
362.866
364.127
365.245
366.394
367.714
369.27
371.068
373.098
375.411
378.366
383.797
398.343
315.49
329.853
335.883
339.904
344.002
348.09
351.128
352.506
352.916
353.013
353.029
353.031
353.045
353.086
353.173
353.33
353.588
353.992
354.595
355.471
356.695
358.31
360.271
362.425
364.563
366.514
368.235
369.808
371.367
373.026
374.866
376.983
379.692
384.609
397.957
315.383
329.642
335.668
339.65
343.671
347.798
351.044
352.738
353.321
353.496
353.56
353.591
353.613
353.636
353.674
353.742
353.865
354.072
354.4
354.899
355.635
356.686
358.125
359.978
362.186
364.593
366.992
369.208
371.201
373.068
374.958
377.024
379.547
383.976
396.632
315.175
329.501
335.624
339.655
343.671
347.764
351.102
353.015
353.73
353.961
354.079
354.166
354.235
354.287
354.329
354.368
354.42
354.505
354.649
354.883
355.248
355.797
356.598
357.726
359.239
361.147
363.382
365.805
368.27
370.696
373.092
375.534
378.246
382.676
395.392
315.274
329.583
335.655
339.652
343.633
347.719
351.164
353.291
354.155
354.42
354.566
354.717
354.864
354.991
355.093
355.171
355.229
355.279
355.34
355.437
355.599
355.86
356.266
356.877
357.771
359.037
360.768
363.023
365.756
368.752
371.729
374.591
377.585
382.349
395.73
315.069
329.332
335.45
339.49
343.492
347.59
351.117
353.453
354.521
354.842
354.991
355.185
355.422
355.659
355.875
356.062
356.214
356.325
356.403
356.47
356.558
356.703
356.95
357.361
358.026
359.078
360.687
362.987
365.91
369.095
372.163
375.07
378.218
383.472
397.658
315.028
329.332
335.481
339.556
343.596
347.703
351.226
353.641
354.87
355.264
355.385
355.558
355.845
356.192
356.548
356.897
357.23
357.525
357.755
357.919
358.05
358.204
358.446
358.865
359.583
360.751
362.513
364.905
367.734
370.648
373.431
376.168
379.411
385.191
399.647
314.935
329.377
335.612
339.731
343.777
347.858
351.359
353.814
355.172
355.675
355.789
355.887
356.126
356.512
356.975
357.473
358.005
358.564
359.107
359.573
359.938
360.25
360.6
361.111
361.926
363.188
364.975
367.219
369.706
372.216
374.693
377.274
380.563
386.649
400.813
315.019
329.697
336.026
340.204
344.297
348.352
351.746
354.114
355.495
356.084
356.226
356.265
356.388
356.681
357.137
357.695
358.333
359.07
359.91
360.798
361.64
362.375
363.036
363.741
364.639
365.867
367.486
369.429
371.552
373.744
376.008
378.474
381.714
387.719
401.196
315.291
330.282
336.732
340.993
345.147
349.165
352.413
354.62
355.918
356.522
356.689
356.71
356.753
356.902
357.216
357.694
358.297
359.027
359.925
361.017
362.264
363.558
364.794
365.951
367.107
368.38
369.855
371.535
373.37
375.32
377.403
379.726
382.779
388.355
400.986
315.728
331.055
337.61
341.976
346.256
350.271
353.344
355.333
356.478
357.024
357.183
357.191
357.207
357.28
357.445
357.747
358.197
358.782
359.523
360.481
361.708
363.201
364.869
366.578
368.23
369.814
371.381
372.984
374.657
376.423
378.322
380.451
383.209
388.196
400.215
316.374
332
338.66
343.18
347.668
351.706
354.575
356.293
357.217
357.633
357.732
357.701
357.692
357.746
357.86
358.038
358.308
358.694
359.207
359.883
360.791
362.006
363.558
365.393
367.376
369.354
371.236
373.019
374.755
376.51
378.36
380.407
382.996
387.613
399.379
317.089
332.92
339.661
344.356
349.103
353.182
355.855
357.324
358.043
358.322
358.339
358.251
358.199
358.237
358.355
358.526
358.722
358.955
359.265
359.681
360.249
361.043
362.145
363.61
365.421
367.469
369.596
371.676
373.674
375.632
377.633
379.782
382.393
386.912
398.705
317.775
333.702
340.521
345.425
350.478
354.602
357.091
358.338
358.88
359.038
358.977
358.828
358.722
358.725
358.838
359.039
359.285
359.51
359.717
359.962
360.29
360.754
361.428
362.398
363.736
365.459
367.505
369.739
372.027
374.297
376.561
378.907
381.658
386.34
398.607
318.278
334.231
341.127
346.246
351.616
355.803
358.158
359.245
359.665
359.739
359.623
359.429
359.273
359.232
359.319
359.527
359.84
360.179
360.444
360.652
360.874
361.166
361.588
362.22
363.158
364.488
366.246
368.376
370.736
373.167
375.598
378.085
380.993
386.006
399.055
318.52
334.449
341.425
346.751
352.443
356.75
359.049
360.042
360.384
360.404
360.253
360.029
359.832
359.745
359.794
359.981
360.316
360.772
361.211
361.52
361.755
362.011
362.356
362.869
363.647
364.79
366.356
368.32
370.571
372.963
375.416
377.98
381.072
386.506
399.923
318.511
334.441
341.504
347.008
352.995
357.469
359.784
360.743
361.049
361.044
360.876
360.636
360.409
360.277
360.28
360.428
360.744
361.256
361.895
362.453
362.811
363.086
363.42
363.916
364.686
365.841
367.421
369.354
371.506
373.771
376.127
378.656
381.813
387.423
400.588
318.378
334.364
341.508
347.139
353.364
358.026
360.406
361.366
361.662
361.65
361.483
361.241
360.995
360.819
360.765
360.853
361.106
361.583
362.321
363.204
363.95
364.411
364.739
365.145
365.792
366.823
368.317
370.21
372.33
374.541
376.824
379.284
382.41
388.041
401.043
318.346
334.457
341.671
347.385
353.774
358.586
361.027
361.991
362.277
362.261
362.098
361.864
361.612
361.401
361.285
361.294
361.45
361.803
362.446
363.435
364.641
365.75
366.535
367.062
367.578
368.312
369.425
370.966
372.847
374.933
377.155
379.576
382.689
388.357
401.317
318.396
334.664
341.943
347.712
354.213
359.126
361.618
362.594
362.879
362.865
362.714
362.497
362.255
362.027
361.857
361.78
361.818
362.002
362.4
363.13
364.282
365.786
367.384
368.791
369.884
370.773
371.696
372.856
374.335
376.112
378.14
380.447
383.455
388.895
401.241
318.58
335.011
342.364
348.201
354.808
359.778
362.28
363.243
363.512
363.49
363.346
363.148
362.929
362.712
362.521
362.385
362.326
362.361
362.52
362.873
363.535
364.628
366.189
368.1
370.13
372.025
373.634
375.028
376.411
377.933
379.664
381.68
384.315
389.035
400.395
318.751
335.314
342.738
348.643
355.372
360.429
362.954
363.908
364.158
364.122
363.976
363.791
363.596
363.403
363.224
363.073
362.967
362.915
362.929
363.033
363.276
363.746
364.566
365.847
367.632
369.841
372.244
374.507
376.456
378.208
379.963
381.891
384.297
388.495
399.4
318.968
335.656
343.141
349.112
355.973
361.146
363.705
364.641
364.856
364.789
364.624
364.439
364.258
364.09
363.936
363.801
363.692
363.616
363.577
363.581
363.64
363.785
364.072
364.594
365.477
366.861
368.83
371.283
373.865
376.27
378.526
380.816
383.432
387.711
398.911
319.11
335.914
343.429
349.414
356.363
361.71
364.389
365.36
365.562
365.462
365.268
365.069
364.892
364.739
364.608
364.496
364.407
364.34
364.298
364.281
364.292
364.339
364.44
364.632
364.985
365.626
366.76
368.623
371.244
374.239
377.174
379.963
382.908
387.553
399.381
319.286
336.226
343.759
349.745
356.753
362.269
365.087
366.113
366.31
366.174
365.939
365.711
365.523
365.376
365.26
365.17
365.102
365.056
365.03
365.024
365.038
365.075
365.144
365.26
365.463
365.837
366.565
367.982
370.409
373.634
376.923
379.914
382.985
387.892
400.2
319.386
336.452
343.993
349.952
356.977
362.67
365.675
366.805
367.038
366.889
366.612
366.343
366.134
365.982
365.875
365.802
365.756
365.733
365.73
365.746
365.78
365.834
365.914
366.034
366.225
366.563
367.225
368.566
370.987
374.319
377.654
380.579
383.644
388.75
401.217
319.548
336.724
344.265
350.214
357.273
363.132
366.309
367.534
367.804
367.646
367.322
366.998
366.749
366.581
366.475
366.414
366.387
366.39
366.419
366.47
366.542
366.638
366.762
366.931
367.178
367.59
368.358
369.85
372.42
375.753
378.888
381.62
384.661
389.959
402.178
319.558
336.833
344.372
350.278
357.315
363.353
366.777
368.169
368.53
368.41
368.065
367.676
367.367
367.165
367.046
366.987
366.975
367.002
367.064
367.159
367.287
367.45
367.659
367.937
368.333
368.954
370.003
371.794
374.505
377.637
380.415
382.913
385.903
391.274
402.891
319.625
337.031
344.603
350.505
357.53
363.661
367.272
368.813
369.263
369.197
368.857
368.412
368.022
367.76
367.61
367.539
367.528
367.568
367.656
367.792