/*--------------------------------*- C++ -*----------------------------------*\
| =========                 |                                                 |
| \\      /  F ield         | OpenFOAM: The Open Source CFD Toolbox           |
|  \\    /   O peration     | Version:  v2006                                 |
|   \\  /    A nd           | Website:  www.openfoam.com                      |
|    \\/     M anipulation  |                                                 |
\*---------------------------------------------------------------------------*/
FoamFile
{
    version     2.0;
    format      ascii;
    class       surfaceScalarField;
    location    "15";
    object      phi;
}
// * * * * * * * * * * * * * * * * * * * * * * * * * * * * * * * * * * * * * //

dimensions      [1 0 -1 0 0 0 0];
oriented        oriented;


internalField   nonuniform List<scalar> 
228225
(
-0.000292422
-2.82341e-05
-4.80553e-06
-0.000262233
-2.66112e-05
-3.63377e-06
-0.000232589
-2.63256e-05
-3.36829e-06
-0.000204311
-2.49697e-05
-3.34656e-06
-0.000180327
-2.07571e-05
-3.25702e-06
-0.000159351
-1.79163e-05
-3.0948e-06
-0.000141165
-1.53376e-05
-2.87599e-06
-0.000124967
-1.35358e-05
-2.69034e-06
-0.000110678
-1.18341e-05
-2.47925e-06
-9.78678e-05
-1.05457e-05
-2.28484e-06
-8.64575e-05
-9.35545e-06
-2.07253e-06
-7.62461e-05
-8.36608e-06
-1.85964e-06
-6.71269e-05
-7.47595e-06
-1.65402e-06
-5.89759e-05
-6.69232e-06
-1.46619e-06
-5.16843e-05
-5.99337e-06
-1.30267e-06
-4.51572e-05
-5.36815e-06
-1.16026e-06
-3.93103e-05
-4.8072e-06
-1.03815e-06
-3.40641e-05
-4.30194e-06
-9.39885e-07
-2.93492e-05
-3.84447e-06
-8.63204e-07
-2.51083e-05
-3.42761e-06
-8.03161e-07
-2.12947e-05
-3.04501e-06
-7.55356e-07
-1.78696e-05
-2.69155e-06
-7.16689e-07
-1.47991e-05
-2.36379e-06
-6.85359e-07
-1.20507e-05
-2.06048e-06
-6.60796e-07
-9.58827e-06
-1.7834e-06
-6.43784e-07
-7.36708e-06
-1.53802e-06
-6.35934e-07
-5.32921e-06
-1.33426e-06
-6.38809e-07
-3.39485e-06
-1.18696e-06
-6.57074e-07
-1.45376e-06
-1.11693e-06
-6.98478e-07
6.52203e-07
-1.15022e-06
-7.78741e-07
3.1206e-06
-1.29882e-06
-9.15053e-07
6.06444e-06
-1.4512e-06
-1.12387e-06
8.89656e-06
-1.01726e-06
-1.29615e-06
8.62382e-06
1.79352e-06
-9.03121e-07
8.86044e-06
2.44667e-07
-1.04323e-05
-1.93473e-05
1.62383e-06
-2.08732e-05
-1.79695e-05
1.5171e-06
-2.97289e-05
-1.84354e-05
7.03302e-07
-3.74546e-05
-1.74093e-05
5.8563e-08
-4.29692e-05
-1.47635e-05
-5.33402e-07
-4.7175e-05
-1.29402e-05
-8.33121e-07
-5.00596e-05
-1.14411e-05
-1.07711e-06
-5.20833e-05
-1.02874e-05
-1.29234e-06
-5.30744e-05
-9.39978e-06
-1.5131e-06
-5.32776e-05
-8.6689e-06
-1.74415e-06
-5.2675e-05
-8.04345e-06
-1.98561e-06
-5.13923e-05
-7.49129e-06
-2.22829e-06
-4.94867e-05
-6.98994e-06
-2.46212e-06
-4.70441e-05
-6.52599e-06
-2.67856e-06
-4.41438e-05
-6.08999e-06
-2.87199e-06
-4.08624e-05
-5.67642e-06
-3.03967e-06
-3.72704e-05
-5.28254e-06
-3.18068e-06
-3.34316e-05
-4.90693e-06
-3.29493e-06
-2.94025e-05
-4.54892e-06
-3.38201e-06
-2.52339e-05
-4.20853e-06
-3.44051e-06
-2.09715e-05
-3.88643e-06
-3.46795e-06
-1.6658e-05
-3.58393e-06
-3.46106e-06
-1.23336e-05
-3.30286e-06
-3.41632e-06
-8.03839e-06
-3.0452e-06
-3.33072e-06
-3.81458e-06
-2.81197e-06
-3.20233e-06
2.8678e-07
-2.6025e-06
-3.02832e-06
4.19387e-06
-2.41691e-06
-2.79746e-06
7.79866e-06
-2.25017e-06
-2.49101e-06
1.09356e-05
-2.08029e-06
-2.09419e-06
1.33647e-05
-1.86723e-06
-1.60099e-06
1.47558e-05
-1.52835e-06
-1.01546e-06
1.47008e-05
-8.21176e-07
-3.84332e-07
1.25048e-05
1.25573e-06
1.81022e-07
6.68865e-06
7.31957e-06
6.62581e-07
1.49082e-05
1.02199e-06
-1.45459e-05
-5.37017e-06
5.16215e-07
-2.09394e-05
-1.15025e-05
-1.06563e-07
-2.57752e-05
-1.29069e-05
-7.12128e-07
-2.87472e-05
-1.34334e-05
-1.01551e-06
-2.87914e-05
-1.35149e-05
-1.2081e-06
-2.75687e-05
-1.28e-05
-1.36807e-06
-2.5839e-05
-1.16456e-05
-1.53732e-06
-2.4014e-05
-1.04269e-05
-1.70924e-06
-2.22987e-05
-9.2694e-06
-1.87914e-06
-2.07649e-05
-8.18914e-06
-2.05368e-06
-1.94105e-05
-7.21009e-06
-2.23275e-06
-1.81875e-05
-6.35078e-06
-2.41185e-06
-1.70255e-05
-5.61652e-06
-2.58634e-06
-1.58528e-05
-4.99844e-06
-2.75286e-06
-1.46099e-05
-4.47749e-06
-2.90928e-06
-1.32557e-05
-4.03127e-06
-3.05417e-06
-1.17671e-05
-3.64016e-06
-3.18615e-06
-1.01357e-05
-3.2901e-06
-3.30352e-06
-8.36381e-06
-2.97176e-06
-3.40409e-06
-6.46308e-06
-2.67816e-06
-3.48525e-06
-4.45423e-06
-2.40374e-06
-3.544e-06
-2.36788e-06
-2.14292e-06
-3.57693e-06
-2.4501e-07
-1.89065e-06
-3.58015e-06
1.86321e-06
-1.64275e-06
-3.54902e-06
3.89605e-06
-1.3953e-06
-3.47771e-06
5.78243e-06
-1.14304e-06
-3.35851e-06
7.44074e-06
-8.82907e-07
-3.18351e-06
8.78566e-06
-6.12423e-07
-2.94676e-06
9.71493e-06
-3.21949e-07
-2.61756e-06
1.00433e-05
2.36885e-08
-2.10825e-06
9.55614e-06
4.39405e-07
-1.32335e-06
8.14888e-06
1.1595e-06
-3.49862e-07
6.21687e-06
3.12338e-06
4.11256e-07
3.2734e-06
9.95916e-06
7.92571e-07
1.76116e-05
9.81906e-07
2.57783e-06
-8.52785e-06
5.31816e-07
4.89055e-06
-1.36445e-05
-1.80724e-07
8.09501e-06
-1.50036e-05
-1.08648e-06
1.13683e-05
-1.50525e-05
-1.61864e-06
1.39859e-05
-1.42515e-05
-1.83933e-06
1.59659e-05
-1.28736e-05
-1.86656e-06
1.74278e-05
-1.12864e-05
-1.78988e-06
1.84212e-05
-9.71776e-06
-1.68358e-06
1.90193e-05
-8.25814e-06
-1.60354e-06
1.93366e-05
-6.93152e-06
-1.58176e-06
1.94782e-05
-5.74202e-06
-1.62765e-06
1.95246e-05
-4.6897e-06
-1.73456e-06
1.95305e-05
-3.76874e-06
-1.88812e-06
1.95279e-05
-2.9633e-06
-2.07272e-06
1.95303e-05
-2.24955e-06
-2.27539e-06
1.95405e-05
-1.60323e-06
-2.48733e-06
1.95619e-05
-1.01115e-06
-2.70305e-06
1.9612e-05
-4.77821e-07
-2.91839e-06
1.97387e-05
-2.86859e-08
-3.12927e-06
1.99211e-05
4.08129e-07
-3.33197e-06
2.01883e-05
7.84972e-07
-3.52335e-06
2.05301e-05
1.14432e-06
-3.70116e-06
2.09164e-05
1.50869e-06
-3.86316e-06
2.13057e-05
1.89143e-06
-4.00647e-06
2.16476e-05
2.30141e-06
-4.12708e-06
2.18848e-05
2.74559e-06
-4.21905e-06
2.19486e-05
3.23017e-06
-4.2734e-06
2.17517e-05
3.76413e-06
-4.27659e-06
2.11789e-05
4.36327e-06
-4.20565e-06
2.00773e-05
5.05578e-06
-4.01241e-06
1.81422e-05
5.90228e-06
-3.58494e-06
1.48651e-05
7.10724e-06
-2.67983e-06
9.71691e-06
9.44991e-06
-1.09353e-06
3.54483e-06
1.55916e-05
6.65809e-07
2.02753e-05
1.09465e-06
1.51736e-06
-9.87693e-06
-7.91398e-08
4.02312e-06
-1.55285e-05
-4.83335e-07
6.94617e-06
-1.65657e-05
-1.26898e-06
1.01971e-05
-1.61208e-05
-2.12037e-06
1.35199e-05
-1.457e-05
-2.95061e-06
1.66923e-05
-1.23143e-05
-3.68394e-06
1.96497e-05
-9.96921e-06
-4.238e-06
2.23599e-05
-7.84525e-06
-4.55927e-06
2.47791e-05
-6.02444e-06
-4.64158e-06
2.68732e-05
-4.50177e-06
-4.52235e-06
2.86144e-05
-3.23433e-06
-4.25518e-06
2.99702e-05
-2.1639e-06
-3.89401e-06
3.09097e-05
-1.23775e-06
-3.48771e-06
3.14151e-05
-4.13278e-07
-3.07674e-06
3.14889e-05
3.42063e-07
-2.69034e-06
3.11807e-05
1.02332e-06
-2.3465e-06
3.05288e-05
1.66582e-06
-2.05608e-06
2.95925e-05
2.25459e-06
-1.8296e-06
2.84294e-05
2.77406e-06
-1.67496e-06
2.71592e-05
3.2284e-06
-1.58726e-06
2.58105e-05
3.64471e-06
-1.55005e-06
2.44069e-05
4.05494e-06
-1.54795e-06
2.29644e-05
4.48095e-06
-1.573e-06
2.15011e-05
4.93226e-06
-1.62328e-06
2.00445e-05
5.40854e-06
-1.69943e-06
1.86344e-05
5.90424e-06
-1.80121e-06
1.73146e-05
6.41761e-06
-1.92464e-06
1.61162e-05
6.96094e-06
-2.06042e-06
1.5038e-05
7.5669e-06
-2.19257e-06
1.4019e-05
8.29582e-06
-2.29323e-06
1.28842e-05
9.2669e-06
-2.30683e-06
1.12172e-05
1.08066e-05
-2.11491e-06
8.01879e-06
1.40311e-05
-1.47422e-06
3.02646e-06
2.06235e-05
-1.10122e-07
2.27384e-05
6.64941e-07
4.87697e-06
-1.53337e-05
6.93024e-07
9.23393e-06
-2.11843e-05
1.41201e-06
1.30926e-05
-2.15871e-05
1.23438e-06
1.61421e-05
-1.99182e-05
8.10205e-07
1.75031e-05
-1.60997e-05
2.35569e-07
1.77399e-05
-1.20198e-05
-4.72033e-07
1.7732e-05
-8.66323e-06
-1.25965e-06
1.79974e-05
-6.03412e-06
-2.06339e-06
1.86991e-05
-3.92032e-06
-2.81637e-06
1.97918e-05
-2.14883e-06
-3.47558e-06
2.11674e-05
-6.25379e-07
-4.02907e-06
2.26741e-05
7.41388e-07
-4.46716e-06
2.41646e-05
1.99063e-06
-4.7813e-06
2.55908e-05
3.06322e-06
-4.9701e-06
2.6919e-05
3.98352e-06
-5.03986e-06
2.81058e-05
4.76833e-06
-5.00296e-06
2.91387e-05
5.4365e-06
-4.87425e-06
2.99857e-05
6.00817e-06
-4.66929e-06
3.05935e-05
6.50409e-06
-4.40357e-06
3.09057e-05
6.94638e-06
-4.09216e-06
3.08829e-05
7.35884e-06
-3.74874e-06
3.05056e-05
7.76456e-06
-3.38476e-06
2.97667e-05
8.18247e-06
-3.00959e-06
2.86663e-05
8.62404e-06
-2.63249e-06
2.72149e-05
9.09133e-06
-2.26609e-06
2.54376e-05
9.58023e-06
-1.92704e-06
2.33721e-05
1.00911e-05
-1.63003e-06
2.10597e-05
1.0639e-05
-1.38173e-06
1.85419e-05
1.12573e-05
-1.18246e-06
1.58605e-05
1.20036e-05
-1.0288e-06
1.30446e-05
1.29985e-05
-9.06699e-07
1.00701e-05
1.45913e-05
-7.77073e-07
6.79665e-06
1.79291e-05
-5.34208e-07
3.00114e-06
2.43946e-05
1.78264e-07
2.52308e-05
6.87932e-07
3.6317e-06
-2.04212e-05
1.49446e-06
5.05105e-06
-2.49966e-05
2.33699e-06
5.7838e-06
-2.42315e-05
1.86264e-06
5.17266e-06
-2.04504e-05
1.12351e-06
2.25762e-06
-1.33462e-05
1.58728e-07
-1.23095e-06
-7.84217e-06
-7.06643e-07
-3.68825e-06
-4.91641e-06
-1.33222e-06
-4.91516e-06
-3.09449e-06
-1.77416e-06
-5.08979e-06
-1.69129e-06
-2.12566e-06
-4.46571e-06
-4.0316e-07
-2.44615e-06
-3.22727e-06
8.22062e-07
-2.76623e-06
-1.49979e-06
2.02611e-06
-3.0966e-06
6.15337e-07
3.2175e-06
-3.43014e-06
2.98784e-06
4.35062e-06
-3.75108e-06
5.52251e-06
5.39824e-06
-4.04262e-06
8.14176e-06
6.3464e-06
-4.29156e-06
1.07815e-05
7.19203e-06
-4.48943e-06
1.33862e-05
7.941e-06
-4.6308e-06
1.59038e-05
8.60604e-06
-4.71082e-06
1.82803e-05
9.20487e-06
-4.72361e-06
2.04576e-05
9.75861e-06
-4.6624e-06
2.23713e-05
1.02902e-05
-4.52067e-06
2.3949e-05
1.08225e-05
-4.29463e-06
2.5111e-05
1.1376e-05
-3.98594e-06
2.57731e-05
1.19674e-05
-3.60413e-06
2.5853e-05
1.26086e-05
-3.16745e-06
2.52828e-05
1.331e-05
-2.69972e-06
2.40197e-05
1.40848e-05
-2.22384e-06
2.20499e-05
1.49547e-05
-1.75607e-06
1.93909e-05
1.5961e-05
-1.31111e-06
1.6089e-05
1.72138e-05
-9.05165e-07
1.21729e-05
1.909e-05
-5.42487e-07
7.56136e-06
2.28353e-05
-2.07515e-07
2.96144e-06
2.87792e-05
3.39341e-07
2.7679e-05
6.65804e-07
-3.61689e-06
-1.96787e-05
2.69901e-06
-5.83955e-06
-2.70172e-05
4.10327e-06
-7.12165e-06
-2.68616e-05
3.78186e-06
-7.13889e-06
-2.33163e-05
2.75371e-06
-6.93342e-06
-1.48136e-05
1.15607e-06
-8.94673e-06
-5.63565e-06
-2.76195e-07
-1.15557e-05
-1.28737e-06
-1.0873e-06
-1.3233e-05
1.41147e-07
-1.6169e-06
-1.39403e-05
9.43599e-07
-1.98286e-06
-1.38807e-05
1.72969e-06
-2.24812e-06
-1.32444e-05
2.58673e-06
-2.45861e-06
-1.21373e-05
3.50687e-06
-2.64793e-06
-1.05993e-05
4.45673e-06
-2.83958e-06
-8.67611e-06
5.40782e-06
-3.04521e-06
-6.41717e-06
6.33551e-06
-3.2634e-06
-3.8731e-06
7.21826e-06
-3.48557e-06
-1.09964e-06
8.04552e-06
-3.69911e-06
1.84045e-06
8.81577e-06
-3.88946e-06
4.87698e-06
9.53417e-06
-4.04156e-06
7.93231e-06
1.02115e-05
-4.14086e-06
1.09222e-05
1.08627e-05
-4.17466e-06
1.37579e-05
1.15063e-05
-4.13361e-06
1.63487e-05
1.21622e-05
-4.01291e-06
1.86031e-05
1.28518e-05
-3.81263e-06
2.0429e-05
1.35969e-05
-3.53691e-06
2.17308e-05
1.44195e-05
-3.19252e-06
2.24099e-05
1.53419e-05
-2.78809e-06
2.23708e-05
1.63855e-05
-2.33513e-06
2.15347e-05
1.75715e-05
-1.85063e-06
1.98414e-05
1.89405e-05
-1.35342e-06
1.72143e-05
2.06385e-05
-8.66814e-07
1.34225e-05
2.3206e-05
-4.17208e-07
8.0967e-06
2.8019e-05
-5.74293e-08
2.97535e-06
3.33094e-05
3.77881e-07
3.00954e-05
6.0453e-07
3.49726e-07
-2.24809e-05
2.41041e-06
2.55516e-07
-3.05018e-05
3.5728e-06
-3.88374e-07
-3.00618e-05
3.86109e-06
-1.06325e-06
-2.64688e-05
3.8239e-06
-5.54149e-07
-1.87535e-05
3.38665e-06
-1.41929e-06
-6.77963e-06
1.95444e-06
-4.57749e-06
1.47804e-06
3.38174e-07
-7.44303e-06
3.5023e-06
-5.49813e-07
-9.3816e-06
3.94659e-06
-1.11378e-06
-1.0545e-05
4.38195e-06
-1.53428e-06
-1.10503e-05
4.91133e-06
-1.86386e-06
-1.09671e-05
5.50934e-06
-2.12973e-06
-1.03565e-05
6.1542e-06
-2.35182e-06
-9.2743e-06
6.83011e-06
-2.54827e-06
-7.77031e-06
7.5189e-06
-2.73206e-06
-5.89748e-06
8.20459e-06
-2.9054e-06
-3.72001e-06
8.88279e-06
-3.06296e-06
-1.3066e-06
9.54821e-06
-3.19662e-06
1.27495e-06
1.01966e-05
-3.29788e-06
3.95307e-06
1.08349e-05
-3.35905e-06
6.65249e-06
1.14755e-05
-3.37372e-06
9.29593e-06
1.21339e-05
-3.33698e-06
1.18051e-05
1.28279e-05
-3.24532e-06
1.41004e-05
1.35781e-05
-3.09632e-06
1.60976e-05
1.4408e-05
-2.88773e-06
1.77032e-05
1.53461e-05
-2.61615e-06
1.88089e-05
1.6425e-05
-2.27816e-06
1.92919e-05
1.76811e-05
-1.87601e-06
1.90169e-05
1.91593e-05
-1.42528e-06
1.78119e-05
2.09506e-05
-9.49712e-07
1.53871e-05
2.33256e-05
-4.8091e-07
1.12592e-05
2.70129e-05
-7.54522e-08
5.67755e-06
3.26639e-05
2.79214e-07
1.71464e-06
3.624e-05
5.12066e-07
3.1259e-05
5.84363e-07
7.44917e-06
-3.10299e-05
1.54433e-06
7.81721e-06
-3.28689e-05
2.36475e-06
2.09836e-06
-2.6412e-05
2.42485e-06
-1.06737e-05
-1.55834e-05
2.1552e-06
-2.29803e-05
-8.6209e-06
2.2813e-06
-2.88879e-05
-2.9405e-06
2.02688e-06
-3.04115e-05
2.4054e-06
4.45709e-07
-3.00737e-05
3.68565e-06
-6.28108e-07
-2.92671e-05
4.18761e-06
-1.10585e-06
-2.81699e-05
4.71159e-06
-1.46885e-06
-2.678e-05
5.25953e-06
-1.77459e-06
-2.51104e-05
5.83669e-06
-2.02731e-06
-2.31887e-05
6.44198e-06
-2.2344e-06
-2.10426e-05
7.06724e-06
-2.40377e-06
-1.87011e-05
7.70154e-06
-2.54132e-06
-1.6196e-05
8.33424e-06
-2.64931e-06
-1.35606e-05
8.9619e-06
-2.72701e-06
-1.08348e-05
9.58413e-06
-2.77266e-06
-8.0649e-06
1.02013e-05
-2.7848e-06
-5.29896e-06
1.08212e-05
-2.76264e-06
-2.5857e-06
1.14568e-05
-2.70617e-06
2.63364e-08
1.21237e-05
-2.61559e-06
2.48921e-06
1.2839e-05
-2.49066e-06
4.75475e-06
1.36216e-05
-2.32981e-06
6.77168e-06
1.44947e-05
-2.1291e-06
8.48153e-06
1.5487e-05
-1.88194e-06
9.81315e-06
1.66367e-05
-1.58138e-06
1.06768e-05
1.79949e-05
-1.22484e-06
1.09493e-05
1.96413e-05
-8.17661e-07
1.04413e-05
2.17411e-05
-3.79814e-07
8.81859e-06
2.47055e-05
6.28919e-08
5.67741e-06
2.93013e-05
5.02596e-07
2.15392e-06
3.50194e-05
6.94259e-07
4.22729e-07
3.69662e-05
7.35824e-07
3.11451e-05
6.81581e-07
-6.70487e-06
-2.76024e-05
3.40463e-06
-1.7929e-05
-2.54669e-05
4.36251e-06
-3.1012e-05
-1.63578e-05
3.36495e-06
-4.2821e-05
-5.78433e-06
1.64582e-06
-5.1601e-05
-1.29149e-06
9.29427e-07
-5.46783e-05
-5.44834e-07
5.42761e-07
-5.28057e-05
2.84086e-07
1.53557e-07
-5.00008e-05
1.00607e-06
-2.20509e-07
-4.70465e-05
1.7305e-06
-5.89708e-07
-4.39526e-05
2.47657e-06
-9.4361e-07
-4.07615e-05
3.26085e-06
-1.26696e-06
-3.7514e-05
4.0794e-06
-1.55373e-06
-3.42294e-05
4.90695e-06
-1.80144e-06
-3.09119e-05
5.71961e-06
-2.01012e-06
-2.75638e-05
6.50592e-06
-2.18123e-06
-2.41963e-05
7.26513e-06
-2.3163e-06
-2.08288e-05
8.00261e-06
-2.41598e-06
-1.74873e-05
8.72481e-06
-2.48041e-06
-1.42043e-05
9.43761e-06
-2.50883e-06
-1.10119e-05
1.01474e-05
-2.50006e-06
-7.94136e-06
1.08645e-05
-2.45269e-06
-5.02633e-06
1.16054e-05
-2.36528e-06
-2.30756e-06
1.23923e-05
-2.23631e-06
1.65415e-07
1.32513e-05
-2.06386e-06
2.33506e-06
1.42109e-05
-1.84531e-06
4.13714e-06
1.53035e-05
-1.57732e-06
5.50529e-06
1.65668e-05
-1.25644e-06
6.37093e-06
1.80503e-05
-8.77086e-07
6.67063e-06
1.98354e-05
-4.43525e-07
6.37419e-06
2.21029e-05
7.09109e-10
5.27762e-06
2.52999e-05
6.00465e-07
3.42989e-06
3.02042e-05
1.09539e-06
1.52738e-06
3.58394e-05
1.29112e-06
5.13355e-07
3.70948e-05
1.16415e-06
3.10492e-05
9.47908e-07
-1.6072e-05
-1.62777e-05
4.6233e-06
-2.80465e-05
-1.92455e-05
5.56846e-06
-3.27124e-05
-1.68889e-05
4.90175e-06
-2.81744e-05
-1.45639e-05
4.03355e-06
-2.1547e-05
-1.14774e-05
3.45611e-06
-1.71093e-05
-7.88781e-06
2.83353e-06
-1.43618e-05
-4.69959e-06
2.18337e-06
-1.29293e-05
-2.04455e-06
1.57221e-06
-1.23746e-05
1.14459e-07
1.0144e-06
-1.22861e-05
1.84264e-06
4.94997e-07
-1.22859e-05
3.22163e-06
-1.47336e-08
-1.21792e-05
4.28116e-06
-3.63485e-07
-1.17234e-05
5.11624e-06
-7.18969e-07
-1.08795e-05
5.87161e-06
-1.04662e-06
-9.77756e-06
6.69756e-06
-1.33917e-06
-8.61694e-06
7.65895e-06
-1.5935e-06
-7.507e-06
8.66828e-06
-1.80746e-06
-6.42788e-06
9.60094e-06
-1.97952e-06
-5.30612e-06
1.0409e-05
-2.10944e-06
-4.09724e-06
1.11286e-05
-2.19761e-06
-2.80937e-06
1.1822e-05
-2.24352e-06
-1.48268e-06
1.25351e-05
-2.24454e-06
-1.57359e-07
1.32851e-05
-2.19579e-06
1.13906e-06
1.40786e-05
-2.091e-06
2.38289e-06
1.49339e-05
-1.92389e-06
3.53949e-06
1.58885e-05
-1.68887e-06
4.54596e-06
1.70008e-05
-1.37833e-06
5.30289e-06
1.83514e-05
-9.86264e-07
5.68539e-06
2.00577e-05
-5.20424e-07
5.58472e-06
2.23382e-05
-2.67612e-08
4.70996e-06
2.56782e-05
6.58853e-07
3.09449e-06
3.07901e-05
1.31446e-06
1.45604e-06
3.62169e-05
1.7062e-06
3.97164e-07
3.7037e-05
1.59838e-06
3.06475e-05
1.20263e-06
-9.76997e-06
-1.09338e-05
4.12872e-06
-1.44262e-05
-2.02713e-05
5.31407e-06
-1.39509e-05
-2.36655e-05
5.93526e-06
-1.06505e-05
-2.44444e-05
6.19003e-06
-5.75591e-06
-2.28074e-05
6.07109e-06
3.88825e-07
-2.00473e-05
5.73912e-06
6.70176e-06
-1.64815e-05
5.28011e-06
1.24325e-05
-1.25809e-05
4.69791e-06
1.72025e-05
-8.72555e-06
4.0265e-06
2.06584e-05
-4.91066e-06
3.29776e-06
2.25573e-05
-1.204e-06
2.54739e-06
2.26335e-05
2.40602e-06
1.81799e-06
2.10289e-05
5.58098e-06
1.14568e-06
1.7966e-05
8.37267e-06
5.46625e-07
1.41274e-05
1.04861e-05
7.93643e-09
1.03082e-05
1.17293e-05
-3.1483e-07
7.32419e-06
1.21955e-05
-6.15023e-07
5.62478e-06
1.21227e-05
-8.90826e-07
5.08175e-06
1.20339e-05
-1.1416e-06
5.05964e-06
1.24599e-05
-1.36017e-06
4.99874e-06
1.33762e-05
-1.53695e-06
4.85826e-06
1.43035e-05
-1.66432e-06
4.82807e-06
1.5027e-05
-1.73911e-06
5.02673e-06
1.56228e-05
-1.75895e-06
5.43869e-06
1.62372e-05
-1.718e-06
5.93877e-06
1.70074e-05
-1.60602e-06
6.35797e-06
1.80196e-05
-1.40697e-06
6.55141e-06
1.93104e-05
-1.10022e-06
6.42935e-06
2.0934e-05
-6.7451e-07
5.98534e-06
2.30551e-05
-1.47321e-07
5.19157e-06
2.61165e-05
5.79922e-07
4.11195e-06
3.09112e-05
1.38345e-06
2.67917e-06
3.63546e-05
1.91343e-06
1.08331e-06
3.73806e-05
1.86047e-06
3.08356e-05
1.33271e-06
-4.09097e-06
-8.83622e-06
1.91143e-06
-6.4809e-06
-1.91526e-05
1.16154e-06
-8.08631e-06
-2.38605e-05
1.71093e-06
-8.91231e-06
-2.62867e-05
2.58962e-06
-7.67602e-06
-2.75623e-05
3.41063e-06
-4.08602e-06
-2.78936e-05
4.07651e-06
1.68753e-06
-2.70539e-05
4.55288e-06
9.23173e-06
-2.52081e-05
4.84122e-06
1.79002e-05
-2.25894e-05
4.97227e-06
2.69213e-05
-1.91014e-05
4.96748e-06
3.54442e-05
-1.47227e-05
4.82808e-06
4.28491e-05
-9.66302e-06
4.54882e-06
4.856e-05
-4.29534e-06
4.11953e-06
5.23835e-05
1.05927e-06
3.51657e-06
5.43934e-05
5.78582e-06
2.75406e-06
5.47909e-05
9.46341e-06
1.92336e-06
5.32665e-05
1.26262e-05
1.11441e-06
4.93853e-05
1.55674e-05
4.05654e-07
4.39389e-05
1.75051e-05
-9.79145e-08
3.85629e-05
1.81065e-05
-3.58631e-07
3.45388e-05
1.78642e-05
-5.51979e-07
3.20408e-05
1.74602e-05
-7.45114e-07
3.05466e-05
1.73747e-05
-9.35143e-07
2.94113e-05
1.77824e-05
-1.09529e-06
2.81461e-05
1.86529e-05
-1.20615e-06
2.65562e-05
1.9809e-05
-1.25096e-06
2.46377e-05
2.11284e-05
-1.21196e-06
2.24391e-05
2.25767e-05
-1.06605e-06
2.00064e-05
2.41864e-05
-7.82207e-07
1.7407e-05
2.60977e-05
-3.46761e-07
1.47603e-05
2.87206e-05
2.50673e-07
1.19185e-05
3.30685e-05
1.11118e-06
8.19735e-06
3.88305e-05
1.90293e-06
3.84033e-06
4.03022e-05
2.09115e-06
3.36527e-05
1.47914e-06
2.72886e-06
-1.19375e-05
2.52609e-07
9.76866e-06
-2.53488e-05
-9.78646e-07
1.77244e-05
-3.07045e-05
-1.2132e-06
2.49159e-05
-3.2795e-05
-7.45177e-07
3.08991e-05
-3.34194e-05
-1.47958e-07
3.56286e-05
-3.31604e-05
5.51417e-07
3.95734e-05
-3.21274e-05
1.16055e-06
4.29761e-05
-3.02432e-05
1.65638e-06
4.57706e-05
-2.7437e-05
2.04827e-06
4.80805e-05
-2.38309e-05
2.36813e-06
5.03618e-05
-1.97562e-05
2.64984e-06
5.32045e-05
-1.55498e-05
2.90873e-06
5.70291e-05
-1.13922e-05
3.13051e-06
6.19774e-05
-7.3061e-06
3.28655e-06
6.75685e-05
-3.27788e-06
3.3528e-06
7.2535e-05
1.04127e-06
3.34198e-06
7.5217e-05
6.61895e-06
3.27039e-06
7.4854e-05
1.30563e-05
2.95354e-06
7.15134e-05
1.88265e-05
2.18554e-06
6.62443e-05
2.23522e-05
1.1658e-06
6.03185e-05
2.35877e-05
2.53199e-07
5.43866e-05
2.36732e-05
-3.05913e-07
4.86936e-05
2.36523e-05
-6.31856e-07
4.32878e-05
2.39957e-05
-8.42782e-07
3.82127e-05
2.47139e-05
-1.00906e-06
3.35606e-05
2.55805e-05
-1.14796e-06
2.94109e-05
2.64757e-05
-1.23953e-06
2.57551e-05
2.74381e-05
-1.25686e-06
2.24685e-05
2.8584e-05
-1.16148e-06
1.93181e-05
3.01059e-05
-8.96371e-07
1.59728e-05
3.24517e-05
-4.03481e-07
1.20271e-05
3.66531e-05
3.75539e-07
7.46524e-06
4.21683e-05
1.36243e-06
2.93074e-06
4.32343e-05
1.86722e-06
3.56428e-05
1.28557e-06
9.25562e-06
-2.03894e-05
-8.08499e-07
2.18683e-05
-3.59638e-05
-1.95717e-06
3.43856e-05
-4.0846e-05
-2.32376e-06
4.58715e-05
-4.20074e-05
-2.22599e-06
5.5892e-05
-4.15015e-05
-1.90147e-06
6.39015e-05
-3.96657e-05
-1.47922e-06
6.92024e-05
-3.63754e-05
-1.03909e-06
7.15727e-05
-3.199e-05
-6.19669e-07
7.15477e-05
-2.71577e-05
-2.48261e-07
7.00861e-05
-2.2374e-05
3.9689e-08
6.80888e-05
-1.79039e-05
2.22472e-07
6.61278e-05
-1.38135e-05
3.31088e-07
6.43547e-05
-9.92941e-06
4.22251e-07
6.26715e-05
-6.04348e-06
5.22433e-07
6.10911e-05
-2.26251e-06
6.4577e-07
5.9972e-05
1.34741e-06
8.56889e-07
6.01409e-05
5.23936e-06
1.2111e-06
6.17993e-05
9.71548e-06
1.65409e-06
6.30071e-05
1.55624e-05
2.0365e-06
6.1365e-05
2.19716e-05
2.06985e-06
5.69798e-05
2.64506e-05
1.65265e-06
5.12148e-05
2.86016e-05
9.88339e-07
4.52356e-05
2.93915e-05
3.46536e-07
3.97874e-05
2.96388e-05
-1.51374e-07
3.52152e-05
2.97975e-05
-5.21706e-07
3.14951e-05
3.00488e-05
-8.0025e-07
2.84163e-05
3.04751e-05
-1.00555e-06
2.57264e-05
3.11554e-05
-1.13949e-06
2.31664e-05
3.21993e-05
-1.19296e-06
2.04172e-05
3.38117e-05
-1.12698e-06
1.70091e-05
3.6486e-05
-8.58907e-07
1.25282e-05
4.10805e-05
-2.74575e-07
7.74341e-06
4.61644e-05
5.55221e-07
3.23346e-06
4.65758e-05
1.13906e-06
3.82646e-05
7.99932e-07
1.1932e-05
-3.06092e-05
-1.61605e-06
2.24489e-05
-4.40186e-05
-2.33129e-06
3.05474e-05
-4.62003e-05
-2.65725e-06
3.72453e-05
-4.58146e-05
-2.83782e-06
4.28503e-05
-4.41379e-05
-2.93082e-06
4.66111e-05
-4.04072e-05
-2.97733e-06
4.73702e-05
-3.40319e-05
-3.04064e-06
4.54187e-05
-2.6826e-05
-3.13547e-06
4.20543e-05
-2.05449e-05
-3.17917e-06
3.88897e-05
-1.60963e-05
-3.07273e-06
3.68081e-05
-1.3018e-05
-2.80029e-06
3.57638e-05
-1.03801e-05
-2.41866e-06
3.53519e-05
-7.5627e-06
-2.00469e-06
3.5071e-05
-4.18946e-06
-1.61684e-06
3.41812e-05
-1.12903e-07
-1.27863e-06
3.31779e-05
3.33437e-06
-9.84285e-07
3.25329e-05
6.59385e-06
-7.05722e-07
3.27242e-05
9.87827e-06
-3.5345e-07
3.34413e-05
1.46006e-05
2.56535e-07
3.34033e-05
2.12489e-05
8.06126e-07
3.21904e-05
2.68779e-05
8.2864e-07
3.03581e-05
2.99494e-05
4.99064e-07
2.83565e-05
3.12725e-05
9.6819e-08
2.64461e-05
3.18001e-05
-3.14716e-07
2.46968e-05
3.20941e-05
-6.41547e-07
2.30759e-05
3.2453e-05
-8.97781e-07
2.14901e-05
3.30288e-05
-1.09894e-06
1.9824e-05
3.39166e-05
-1.24642e-06
1.79522e-05
3.52174e-05
-1.32883e-06
1.57078e-05
3.71387e-05
-1.31726e-06
1.2813e-05
4.01829e-05
-1.13122e-06
9.13137e-06
4.49719e-05
-6.48094e-07
5.45667e-06
4.94476e-05
9.1083e-08
2.15524e-06
4.92162e-05
5.60873e-07
4.00946e-05
4.06173e-07
4.82479e-06
-3.41928e-05
-1.18486e-06
8.96568e-06
-4.66203e-05
-1.51613e-06
1.26371e-05
-4.79363e-05
-1.9554e-06
1.62942e-05
-4.72065e-05
-2.30319e-06
1.94934e-05
-4.47754e-05
-2.60178e-06
2.04392e-05
-3.84525e-05
-2.9276e-06
1.80968e-05
-2.82642e-05
-3.44319e-06
1.44455e-05
-1.90901e-05
-4.11743e-06
1.13505e-05
-1.27882e-05
-4.71484e-06
9.15399e-06
-8.97817e-06
-4.98289e-06
7.75051e-06
-6.76013e-06
-4.91395e-06
7.14348e-06
-5.17525e-06
-4.65487e-06
7.51889e-06
-3.71018e-06
-4.2845e-06
9.16807e-06
-2.05069e-06
-3.84518e-06
1.22159e-05
1.43058e-07
-3.35995e-06
1.57999e-05
2.56841e-06
-2.86882e-06
1.93324e-05
5.43079e-06
-2.41324e-06
2.2229e-05
8.91389e-06
-1.96841e-06
2.40655e-05
1.41225e-05
-1.37829e-06
2.4465e-05
2.15295e-05
-6.67944e-07
2.33854e-05
2.82435e-05
-2.65062e-07
2.16081e-05
3.19932e-05
-2.73681e-07
1.96658e-05
3.36444e-05
-4.66835e-07
1.77603e-05
3.43469e-05
-6.99706e-07
1.59856e-05
3.47148e-05
-9.21073e-07
1.43683e-05
3.50962e-05
-1.11416e-06
1.28975e-05
3.56792e-05
-1.27879e-06
1.15389e-05
3.65764e-05
-1.41357e-06
1.02204e-05
3.79114e-05
-1.50786e-06
8.78819e-06
3.99396e-05
-1.53608e-06
6.96572e-06
4.32083e-05
-1.43101e-06
4.69333e-06
4.80387e-05
-1.07078e-06
2.66089e-06
5.18262e-05
-4.78192e-07
8.11956e-07
5.09982e-05
8.21012e-08
4.09254e-05
9.2219e-08
-1.38099e-06
-3.26939e-05
-2.11169e-07
-1.89699e-06
-4.62415e-05
3.50813e-08
-1.44796e-06
-4.81157e-05
-3.53076e-07
-2.77575e-07
-4.76578e-05
-7.97868e-07
1.39869e-06
-4.52899e-05
-1.25256e-06
3.24184e-06
-3.85949e-05
-1.81835e-06
4.38149e-06
-2.68581e-05
-2.66756e-06
4.6303e-06
-1.58645e-05
-3.58346e-06
5.52843e-06
-9.62241e-06
-4.16439e-06
7.31743e-06
-6.40103e-06
-4.46044e-06
9.43364e-06
-4.3797e-06
-4.58678e-06
1.15264e-05
-2.75279e-06
-4.60255e-06
1.34448e-05
-1.17653e-06
-4.53716e-06
1.51803e-05
5.38034e-07
-4.40656e-06
1.67857e-05
2.67897e-06
-4.2201e-06
1.79975e-05
5.25764e-06
-3.97518e-06
1.86727e-05
8.33209e-06
-3.64357e-06
1.85156e-05
1.21559e-05
-3.13331e-06
1.73398e-05
1.75786e-05
-2.28163e-06
1.564e-05
2.45609e-05
-1.27696e-06
1.42255e-05
3.04328e-05
-7.14635e-07
1.33114e-05
3.35829e-05
-6.49246e-07
1.26324e-05
3.51126e-05
-7.89212e-07
1.19999e-05
3.59619e-05
-9.97625e-07
1.13521e-05
3.65483e-05
-1.21076e-06
1.06981e-05
3.71132e-05
-1.39302e-06
1.00689e-05
3.7817e-05
-1.53904e-06
9.47675e-06
3.87922e-05
-1.65182e-06
8.85953e-06
4.02294e-05
-1.72753e-06
7.98885e-06
4.25164e-05
-1.74539e-06
6.47182e-06
4.62853e-05
-1.65223e-06
4.40893e-06
5.13219e-05
-1.36277e-06
2.67359e-06
5.44567e-05
-9.051e-07
1.03619e-06
5.31632e-05
-4.2172e-07
4.23393e-05
-2.27763e-07
-2.80875e-07
-3.22829e-05
-2.71083e-07
1.02206e-06
-4.76917e-05
1.07344e-08
3.1243e-06
-5.03875e-05
8.07853e-08
5.48825e-06
-5.01224e-05
2.01155e-08
8.03218e-06
-4.78046e-05
-1.38807e-07
1.11339e-05
-4.15346e-05
-3.24813e-07
1.49001e-05
-3.00978e-05
-6.98247e-07
1.6942e-05
-1.64076e-05
-1.60968e-06
1.69099e-05
-7.11453e-06
-2.54062e-06
1.64699e-05
-2.88895e-06
-3.1251e-06
1.63647e-05
-8.62685e-07
-3.46323e-06
1.6613e-05
6.08338e-07
-3.6611e-06
1.69496e-05
2.19663e-06
-3.76166e-06
1.70787e-05
4.13699e-06
-3.7787e-06
1.65613e-05
6.87671e-06
-3.72308e-06
1.4767e-05
1.06623e-05
-3.63047e-06
1.1636e-05
1.50176e-05
-3.54037e-06
7.99298e-06
1.91853e-05
-3.34756e-06
5.10243e-06
2.33752e-05
-2.85701e-06
4.06424e-06
2.77706e-05
-2.13399e-06
4.7237e-06
3.13621e-05
-1.59565e-06
6.03278e-06
3.36162e-05
-1.39086e-06
7.33976e-06
3.51071e-05
-1.37534e-06
8.37863e-06
3.62904e-05
-1.46176e-06
9.04869e-06
3.73672e-05
-1.60596e-06
9.33581e-06
3.84502e-05
-1.76679e-06
9.25818e-06
3.96377e-05
-1.91545e-06
8.81774e-06
4.10582e-05
-2.03562e-06
7.94522e-06
4.29464e-05
-2.1119e-06
6.46082e-06
4.57418e-05
-2.11073e-06
4.2961e-06
4.99036e-05
-1.96998e-06
2.17754e-06
5.45448e-05
-1.65036e-06
9.3305e-07
5.66485e-05
-1.23161e-06
4.33474e-09
5.47692e-05
-7.84634e-07
4.27547e-05
-4.79223e-07
4.4132e-06
-3.63505e-05
-3.57371e-07
8.09734e-06
-5.12581e-05
-9.15916e-08
1.09455e-05
-5.32299e-05
2.95792e-08
1.32344e-05
-5.23796e-05
2.04937e-08
1.44007e-05
-4.87907e-05
-8.59516e-08
1.26107e-05
-3.93328e-05
-2.74453e-07
9.13323e-06
-2.61672e-05
-3.86582e-07
6.59961e-06
-1.31256e-05
-7.78137e-07
4.4889e-06
-3.35858e-06
-1.70946e-06
2.50406e-06
1.45723e-06
-2.43414e-06
7.77713e-07
3.60246e-06
-2.81135e-06
-7.05021e-07
5.02523e-06
-3.00278e-06
-1.93736e-06
6.43252e-06
-3.06747e-06
-3.14767e-06
8.27131e-06
-2.98333e-06
-4.69433e-06
1.10839e-05
-2.70928e-06
-6.95998e-06
1.52717e-05
-2.35518e-06
-9.81336e-06
2.02136e-05
-2.27699e-06
-1.23449e-05
2.43906e-05
-2.54527e-06
-1.35905e-05
2.74571e-05
-2.71638e-06
-1.31134e-05
2.99803e-05
-2.62408e-06
-1.13854e-05
3.20443e-05
-2.42117e-06
-9.26942e-06
3.36553e-05
-2.23231e-06
-7.18676e-06
3.49901e-05
-2.09693e-06
-5.2839e-06
3.62292e-05
-2.02247e-06
-3.64632e-06
3.75023e-05
-2.00596e-06
-2.36215e-06
3.89078e-05
-2.03648e-06
-1.53541e-06
4.05362e-05
-2.09655e-06
-1.28863e-06
4.25051e-05
-2.1645e-06
-1.73272e-06
4.50023e-05
-2.21205e-06
-2.82429e-06
4.82796e-05
-2.19551e-06
-4.01429e-06
5.23168e-05
-2.06315e-06
-4.24875e-06
5.58777e-05
-1.81251e-06
-3.39922e-06
5.68911e-05
-1.50042e-06
-2.18355e-06
5.44469e-05
-1.09065e-06
4.11319e-05
-6.85213e-07
2.94194e-06
-3.90267e-05
-2.02246e-07
4.89511e-06
-5.32739e-05
1.3631e-07
6.07174e-06
-5.46299e-05
2.68284e-07
6.70351e-06
-5.32681e-05
2.99991e-07
5.98731e-06
-4.82375e-05
2.40611e-07
2.5598e-06
-3.57925e-05
-5.96892e-09
-3.52186e-06
-1.94064e-05
-6.06848e-07
-9.2938e-06
-6.26296e-06
-1.10001e-06
-1.27571e-05
1.70802e-06
-1.67181e-06
-1.4918e-05
5.71272e-06
-2.18129e-06
-1.67801e-05
7.84123e-06
-2.4618e-06
-1.85271e-05
9.2988e-06
-2.61158e-06
-2.01857e-05
1.06537e-05
-2.65513e-06
-2.17387e-05
1.22611e-05
-2.54875e-06
-2.30829e-05
1.45059e-05
-2.22153e-06
-2.40382e-05
1.77601e-05
-1.70043e-06
-2.45197e-05
2.1855e-05
-1.29366e-06
-2.45513e-05
2.57241e-05
-1.33857e-06
-2.39916e-05
2.86115e-05
-1.67173e-06
-2.26963e-05
3.07618e-05
-2.00835e-06
-2.0835e-05
3.24934e-05
-2.25788e-06
-1.87351e-05
3.39634e-05
-2.39434e-06
-1.66183e-05
3.52667e-05
-2.42458e-06
-1.45719e-05
3.64947e-05
-2.38433e-06
-1.26239e-05
3.77589e-05
-2.31346e-06
-1.08122e-05
3.91893e-05
-2.23711e-06
-9.21954e-06
4.09267e-05
-2.1671e-06
-7.97666e-06
4.31318e-05
-2.10659e-06
-7.21036e-06
4.59751e-05
-2.04722e-06
-6.8595e-06
4.95157e-05
-1.9678e-06
-6.41589e-06
5.33277e-05
-1.8439e-06
-5.20509e-06
5.60959e-05
-1.68424e-06
-3.42914e-06
5.65587e-05
-1.50427e-06
-1.6807e-06
5.39862e-05
-1.18566e-06
4.03429e-05
-7.17964e-07
6.38621e-07
-3.9916e-05
2.7168e-07
4.83836e-07
-5.3913e-05
8.06979e-07
8.7849e-08
-5.51664e-05
9.37689e-07
-7.23349e-07
-5.33981e-05
9.62156e-07
-2.6115e-06
-4.72466e-05
9.58203e-07
-5.11714e-06
-3.41142e-05
8.77125e-07
-7.63952e-06
-1.73136e-05
4.13731e-07
-1.07227e-05
-2.69233e-06
-5.50287e-07
-1.29272e-05
5.17409e-06
-1.33758e-06
-1.44147e-05
8.92708e-06
-1.80659e-06
-1.56489e-05
1.1092e-05
-2.09751e-06
-1.68322e-05
1.26889e-05
-2.29124e-06
-1.79892e-05
1.41307e-05
-2.41395e-06
-1.90224e-05
1.56317e-05
-2.45106e-06
-1.96882e-05
1.7383e-05
-2.35963e-06
-1.96284e-05
1.95974e-05
-2.09559e-06
-1.86844e-05
2.23736e-05
-1.70554e-06
-1.72288e-05
2.54211e-05
-1.39348e-06
-1.56962e-05
2.8211e-05
-1.32212e-06
-1.41645e-05
3.05517e-05
-1.45403e-06