/*--------------------------------*- C++ -*----------------------------------*\
| =========                 |                                                 |
| \\      /  F ield         | OpenFOAM: The Open Source CFD Toolbox           |
|  \\    /   O peration     | Version:  v2012                                 |
|   \\  /    A nd           | Website:  www.openfoam.com                      |
|    \\/     M anipulation  |                                                 |
\*---------------------------------------------------------------------------*/
FoamFile
{
    version     2.0;
    format      ascii;
    class       surfaceScalarField;
    location    "66";
    object      phi;
}
// * * * * * * * * * * * * * * * * * * * * * * * * * * * * * * * * * * * * * //

dimensions      [1 0 -1 0 0 0 0];
oriented        oriented;


internalField   nonuniform List<scalar> 
228225
(
-2.01215e-09
1.26232e-09
4.9457e-10
-6.15435e-09
6.76269e-09
-2.61855e-09
-1.31806e-08
1.03781e-08
-3.35408e-09
-2.31058e-08
1.3522e-08
-3.59164e-09
-3.55628e-08
1.62401e-08
-3.78802e-09
-4.99872e-08
1.84866e-08
-4.06054e-09
-6.5836e-08
2.02714e-08
-4.42038e-09
-8.25535e-08
2.15863e-08
-4.87066e-09
-9.96349e-08
2.24719e-08
-5.38853e-09
-1.16606e-07
2.29391e-08
-5.96904e-09
-1.33054e-07
2.30408e-08
-6.59135e-09
-1.48593e-07
2.27904e-08
-7.25344e-09
-1.62899e-07
2.22449e-08
-7.93775e-09
-1.75677e-07
2.14239e-08
-8.64422e-09
-1.86701e-07
2.03795e-08
-9.35778e-09
-1.95756e-07
1.91285e-08
-1.00726e-08
-2.02694e-07
1.7718e-08
-1.07789e-08
-2.07378e-07
1.61578e-08
-1.14753e-08
-2.09722e-07
1.44895e-08
-1.21466e-08
-2.09666e-07
1.27301e-08
-1.27825e-08
-2.0721e-07
1.09152e-08
-1.33739e-08
-2.02356e-07
9.05916e-09
-1.39171e-08
-1.95145e-07
7.19161e-09
-1.43965e-08
-1.85667e-07
5.32525e-09
-1.48071e-08
-1.74016e-07
3.48719e-09
-1.5137e-08
-1.60326e-07
1.69207e-09
-1.53825e-08
-1.4477e-07
-2.07476e-11
-1.55347e-08
-1.27512e-07
-1.66644e-09
-1.55922e-08
-1.08788e-07
-3.17413e-09
-1.55482e-08
-8.88702e-08
-4.52048e-09
-1.53982e-08
-6.81022e-08
-5.65114e-09
-1.51173e-08
-4.69757e-08
-6.4932e-09
-1.46317e-08
-2.63857e-08
-6.90144e-09
-1.36884e-08
-8.27641e-09
-6.64346e-09
-1.14657e-08
-4.37269e-09
-3.90486e-09
-5.57111e-09
2.08205e-08
-1.39873e-08
-2.07652e-08
3.75208e-08
-1.55633e-08
-3.93605e-08
4.53315e-08
-1.63589e-08
-5.96974e-08
5.10825e-08
-1.72224e-08
-8.05685e-08
5.51032e-08
-1.79921e-08
-1.0114e-07
5.77131e-08
-1.86568e-08
-1.20765e-07
5.9159e-08
-1.92622e-08
-1.39005e-07
5.96509e-08
-1.98229e-08
-1.55531e-07
5.93496e-08
-2.03535e-08
-1.70131e-07
5.83923e-08
-2.0852e-08
-1.82656e-07
5.68899e-08
-2.13263e-08
-1.93027e-07
5.49342e-08
-2.17722e-08
-2.01194e-07
5.26075e-08
-2.21946e-08
-2.07165e-07
4.99823e-08
-2.25872e-08
-2.10953e-07
4.71214e-08
-2.29541e-08
-2.12619e-07
4.40833e-08
-2.32887e-08
-2.12227e-07
4.09197e-08
-2.35939e-08
-2.0987e-07
3.76664e-08
-2.38653e-08
-2.0564e-07
3.43642e-08
-2.41052e-08
-1.99659e-07
3.10569e-08
-2.43078e-08
-1.92048e-07
2.77781e-08
-2.44741e-08
-1.82948e-07
2.45579e-08
-2.45984e-08
-1.72496e-07
2.14222e-08
-2.46819e-08
-1.60846e-07
1.83947e-08
-2.47207e-08
-1.48141e-07
1.54952e-08
-2.47127e-08
-1.34542e-07
1.27424e-08
-2.46503e-08
-1.20185e-07
1.01521e-08
-2.45289e-08
-1.05254e-07
7.73921e-09
-2.43362e-08
-8.98888e-08
5.51797e-09
-2.40583e-08
-7.42434e-08
3.50374e-09
-2.36696e-08
-5.84679e-08
1.71504e-09
-2.31425e-08
-4.27098e-08
1.7784e-10
-2.24296e-08
-2.71935e-08
-1.03254e-09
-2.13849e-08
-1.24866e-08
-1.75498e-09
-1.9596e-08
-1.29344e-09
-1.55654e-08
-3.4e-09
3.35862e-08
-9.36835e-09
-1.08205e-08
5.61404e-08
-1.11954e-08
-1.95275e-08
6.60357e-08
-1.19979e-08
-2.87746e-08
7.29698e-08
-1.26406e-08
-3.80658e-08
7.75783e-08
-1.31844e-08
-4.70492e-08
8.0381e-08
-1.36839e-08
-5.5486e-08
8.1751e-08
-1.41556e-08
-6.31999e-08
8.19875e-08
-1.46224e-08
-7.00785e-08
8.13123e-08
-1.50833e-08
-7.60444e-08
7.99063e-08
-1.55487e-08
-8.10542e-08
7.79092e-08
-1.60099e-08
-8.50863e-08
7.54388e-08
-1.6472e-08
-8.81443e-08
7.25898e-08
-1.69243e-08
-9.02393e-08
6.9445e-08
-1.73695e-08
-9.13921e-08
6.60734e-08
-1.77967e-08
-9.16399e-08
6.25368e-08
-1.82078e-08
-9.10135e-08
5.88872e-08
-1.85927e-08
-8.95749e-08
5.51824e-08
-1.89547e-08
-8.73917e-08
5.14647e-08
-1.92851e-08
-8.45263e-08
4.77766e-08
-1.95835e-08
-8.10554e-08
4.4149e-08
-1.98428e-08
-7.7043e-08
4.06096e-08
-2.00644e-08
-7.25604e-08
3.71825e-08
-2.02423e-08
-6.76774e-08
3.38879e-08
-2.03772e-08
-6.24526e-08
3.07351e-08
-2.04635e-08
-5.69476e-08
2.77355e-08
-2.05003e-08
-5.12098e-08
2.48963e-08
-2.04803e-08
-4.52922e-08
2.22186e-08
-2.03984e-08
-3.92314e-08
1.96987e-08
-2.02409e-08
-3.30613e-08
1.73257e-08
-1.99929e-08
-2.67989e-08
1.50797e-08
-1.96266e-08
-2.04587e-08
1.29327e-08
-1.90961e-08
-1.40316e-08
1.08382e-08
-1.82964e-08
-7.51962e-09
8.72574e-09
-1.69927e-08
5.12286e-09
-1.39367e-08
-3.02214e-09
3.81783e-08
-1.57171e-09
-5.80789e-09
6.20755e-08
-3.14678e-09
-8.37866e-09
7.26801e-08
-4.07436e-09
-1.08923e-08
8.01885e-08
-4.70518e-09
-1.33967e-08
8.53012e-08
-5.21924e-09
-1.58456e-08
8.85436e-08
-5.71243e-09
-1.81858e-08
9.03144e-08
-6.22436e-09
-2.03639e-08
9.09192e-08
-6.75314e-09
-2.23377e-08
9.0598e-08
-7.3116e-09
-2.40753e-08
8.95351e-08
-7.89093e-09
-2.55517e-08
8.78817e-08
-8.49657e-09
-2.67523e-08
8.57554e-08
-9.11595e-09
-2.76687e-08
8.32573e-08
-9.75069e-09
-2.83061e-08
8.04678e-08
-1.03868e-08
-2.86665e-08
7.7459e-08
-1.10244e-08
-2.87681e-08
7.4288e-08
-1.16503e-08
-2.86218e-08
7.10067e-08
-1.22646e-08
-2.82599e-08
6.76706e-08
-1.28515e-08
-2.77084e-08
6.43244e-08
-1.34107e-08
-2.69987e-08
6.09999e-08
-1.3932e-08
-2.61617e-08
5.7726e-08
-1.44155e-08
-2.52234e-08
5.45247e-08
-1.48525e-08
-2.42141e-08
5.14146e-08
-1.52429e-08
-2.3155e-08
4.84081e-08
-1.55791e-08
-2.20619e-08
4.55054e-08
-1.58626e-08
-2.0947e-08
4.27066e-08
-1.60866e-08
-1.98034e-08
4.00026e-08
-1.62499e-08
-1.8615e-08
3.73748e-08
-1.63453e-08
-1.73381e-08
3.479e-08
-1.63685e-08
-1.59064e-08
3.22007e-08
-1.63068e-08
-1.42139e-08
2.95338e-08
-1.6146e-08
-1.21001e-08
2.66875e-08
-1.58693e-08
-9.29895e-09
2.35155e-08
-1.54774e-08
-5.53654e-09
1.9847e-08
-1.48854e-08
1.25837e-08
-1.29962e-08
-3.94588e-09
3.88642e-08
3.26071e-09
-5.03694e-09
6.10955e-08
2.07006e-09
-4.70511e-09
7.11471e-08
1.20235e-09
-3.60441e-09
7.84559e-08
6.30937e-10
-2.10728e-09
8.36167e-08
1.87159e-10
-4.04284e-10
8.70998e-08
-2.59067e-10
1.37912e-09
8.92602e-08
-7.28053e-10
3.16144e-09
9.03765e-08
-1.24046e-09
4.8847e-09
9.06594e-08
-1.78483e-09
6.5079e-09
9.02799e-08
-2.36792e-09
8.00066e-09
8.9368e-08
-2.9788e-09
9.34073e-09
8.80344e-08
-3.61928e-09
1.05108e-08
8.63636e-08
-4.27593e-09
1.14919e-08
8.44321e-08
-4.94656e-09
1.2271e-08
8.22979e-08
-5.61745e-09
1.28315e-08
8.00152e-08
-6.28739e-09
1.31555e-08
7.76258e-08
-6.94348e-09
1.32403e-08
7.51706e-08
-7.58403e-09
1.308e-08
7.26812e-08
-8.19734e-09
1.26751e-08
7.01857e-08
-8.78216e-09
1.20277e-08
6.77044e-08
-9.32883e-09
1.11328e-08
6.52543e-08
-9.83665e-09
1.00011e-08
6.28446e-08
-1.02977e-08
8.64183e-09
6.04784e-08
-1.0712e-08
7.07052e-09
5.815e-08
-1.10731e-08
5.31385e-09
5.58453e-08
-1.13813e-08
3.40988e-09
5.35376e-08
-1.16316e-08
1.42246e-09
5.11856e-08
-1.18242e-08
-5.60245e-10
4.87279e-08
-1.19539e-08
-2.42029e-09
4.60778e-08
-1.20174e-08
-3.99455e-09
4.31124e-08
-1.2004e-08
-5.04495e-09
3.96605e-08
-1.19227e-08
-5.19084e-09
3.54876e-08
-1.18284e-08
-3.91094e-09
3.02894e-08
-1.17197e-08
1.93574e-08
-1.0686e-08
-3.12142e-09
3.71634e-08
4.82356e-09
-3.35957e-09
5.74394e-08
3.89276e-09
-2.0819e-09
6.67394e-08
3.12953e-09
6.93877e-11
7.36518e-08
2.65219e-09
2.69274e-09
7.87159e-08
2.27904e-09
5.55538e-09
8.23328e-08
1.90357e-09
8.50336e-09
8.48212e-08
1.49185e-09
1.14154e-08
8.64146e-08
1.04911e-09
1.42028e-08
8.73018e-08
5.70235e-10
1.67994e-08
8.76224e-08
6.00313e-11
1.91501e-08
8.74931e-08
-4.74577e-10
2.12137e-08
8.70011e-08
-1.03055e-09
2.2961e-08
8.62228e-08
-1.6068e-09
2.43716e-08
8.52151e-08
-2.19335e-09
2.54279e-08
8.40291e-08
-2.78828e-09
2.612e-08
8.27034e-08
-3.37977e-09
2.64368e-08
8.1274e-08
-3.96592e-09
2.6377e-08
7.97673e-08
-4.53637e-09
2.59406e-08
7.82073e-08
-5.08957e-09
2.5132e-08
7.66105e-08
-5.61656e-09
2.39623e-08
7.49909e-08
-6.11616e-09
2.24417e-08
7.33554e-08
-6.58087e-09
2.05908e-08
7.17053e-08
-7.01023e-09
1.84334e-08
7.00332e-08
-7.39841e-09
1.60071e-08
6.83232e-08
-7.74553e-09
1.33506e-08
6.65476e-08
-8.04723e-09
1.05288e-08
6.46644e-08
-8.30425e-09
7.6143e-09
6.26126e-08
-8.51375e-09
4.71422e-09
6.03056e-08
-8.67669e-09
1.95668e-09
5.76249e-08
-8.78858e-09
-4.90573e-10
5.4405e-08
-8.84655e-09
-2.39491e-09
5.04255e-08
-8.86249e-09
-3.37245e-09
4.53787e-08
-8.91097e-09
-2.93894e-09
3.88741e-08
-9.01892e-09
2.48763e-08
-8.45842e-09
-1.78268e-09
3.47231e-08
4.22218e-09
-1.45118e-09
5.36696e-08
3.43895e-09
3.81087e-11
6.2447e-08
2.80419e-09
2.18628e-09
6.90881e-08
2.41362e-09
4.69605e-09
7.40872e-08
2.12034e-09
7.38532e-09
7.78171e-08
1.82567e-09
1.01333e-08
8.05621e-08
1.5111e-09
1.28396e-08
8.2538e-08
1.17104e-09
1.54224e-08
8.39073e-08
8.10636e-10
1.78226e-08
8.4798e-08
4.25842e-10
1.9988e-08
8.53054e-08
2.09876e-11
2.18774e-08
8.5508e-08
-3.96735e-10
2.34632e-08
8.54639e-08
-8.2635e-10
2.47221e-08
8.52222e-08
-1.26652e-09
2.56391e-08
8.48204e-08
-1.70754e-09
2.62019e-08
8.42915e-08
-2.14962e-09
2.6401e-08
8.36586e-08
-2.58432e-09
2.62365e-08
8.29422e-08
-3.01061e-09
2.57088e-08
8.21557e-08
-3.42131e-09
2.48264e-08
8.13096e-08
-3.81567e-09
2.35961e-08
8.04076e-08
-4.18756e-09
2.20395e-08
7.94493e-08
-4.5367e-09
2.01755e-08
7.84268e-08
-4.85805e-09
1.80374e-08
7.73246e-08
-5.15188e-09
1.56553e-08
7.6117e-08
-5.41428e-09
1.30849e-08
7.4766e-08
-5.64613e-09
1.03775e-08
7.32163e-08
-5.84464e-09
7.61074e-09
7.13911e-08
-6.01153e-09
4.87682e-09
6.91845e-08
-6.14483e-09
2.29229e-09
6.64527e-08
-6.24471e-09
6.16919e-12
6.29989e-08
-6.30681e-09
-1.78267e-09
5.85602e-08
-6.34602e-09
-2.75476e-09
5.27762e-08
-6.42615e-09
-2.47715e-09
4.51758e-08
-6.57739e-09
2.86321e-08
-6.23434e-09
-7.671e-10
3.24995e-08
2.99047e-09
-4.17987e-10
5.09493e-08
2.37303e-09
5.9755e-10
5.95349e-08
1.89501e-09
1.98966e-09
6.60881e-08
1.60803e-09
3.58401e-09
7.11011e-08
1.39151e-09
5.28416e-09
7.49347e-08
1.18158e-09
7.02279e-09
7.78657e-08
9.58102e-10
8.7405e-09
8.00971e-08
7.23365e-10
1.03874e-08
8.17859e-08
4.74215e-10
1.1925e-08
8.30477e-08
2.13257e-10
1.33171e-08
8.39736e-08
-6.02999e-11
1.45317e-08
8.46302e-08
-3.37787e-10
1.55503e-08
8.50717e-08
-6.24581e-10
1.63472e-08
8.53376e-08
-9.14481e-10
1.69141e-08
8.54608e-08
-1.20641e-09
1.72373e-08
8.5464e-08
-1.49506e-09
1.73084e-08
8.53661e-08
-1.78021e-09
1.71291e-08
8.5179e-08
-2.05638e-09
1.66969e-08
8.49116e-08
-2.32368e-09
1.60172e-08
8.45668e-08
-2.57737e-09
1.51001e-08
8.41434e-08
-2.81787e-09
1.3955e-08
8.36337e-08
-3.04115e-09
1.26051e-08
8.30243e-08
-3.24805e-09
1.10716e-08
8.22927e-08
-3.43529e-09
9.3896e-09
8.14062e-08
-3.60408e-09
7.58672e-09
8.03185e-08
-3.75189e-09
5.71879e-09
7.89655e-08
-3.88036e-09
3.83674e-09
7.72596e-08
-3.98776e-09
2.01587e-09
7.50812e-08
-4.07604e-09
3.4056e-10
7.22703e-08
-4.1425e-09
-1.08127e-09
6.86086e-08
-4.18709e-09
-2.11155e-09
6.38073e-08
-4.21767e-09
-2.52292e-09
5.74703e-08
-4.28269e-09
-2.03024e-09
4.90793e-08
-4.39559e-09
3.07528e-08
-4.15073e-09
-4.88085e-10
3.08053e-08
2.1825e-09
-4.83162e-10
4.91504e-08
1.79384e-09
-1.43594e-10
5.76936e-08
1.50096e-09
3.82892e-10
6.42373e-08
1.32522e-09
1.0175e-09
6.92747e-08
1.19162e-09
1.72262e-09
7.31722e-08
1.05824e-09
2.4666e-09
7.62012e-08
9.18679e-10
3.22799e-09
7.85669e-08
7.70284e-10
3.97645e-09
8.04204e-08
6.16302e-10
4.69312e-09
8.18774e-08
4.54522e-10
5.35522e-09
8.30228e-08
2.88266e-10
5.94815e-09
8.39225e-08
1.1521e-10
6.45248e-09
8.46242e-08
-5.68993e-11
6.85374e-09
8.51653e-08
-2.29541e-10
7.14472e-09
8.55721e-08
-4.00512e-10
7.31291e-09
8.58654e-08
-5.70902e-10
7.3582e-09
8.60589e-08
-7.36134e-10
7.26912e-09
8.6163e-08
-8.9656e-10
7.04932e-09
8.61808e-08
-1.04843e-09
6.69559e-09
8.61118e-08
-1.19295e-09
6.21882e-09
8.59498e-08
-1.32697e-09
5.61975e-09
8.5684e-08
-1.45195e-09
4.91378e-09
8.52959e-08
-1.56522e-09
4.11443e-09
8.47595e-08
-1.66856e-09
3.24324e-09
8.40374e-08
-1.75975e-09
2.32456e-09
8.30788e-08
-1.84088e-09
1.38592e-09
8.18142e-08
-1.9102e-09
4.6537e-10
8.01504e-08
-1.97017e-09
-3.94509e-10
7.79612e-08
-2.01939e-09
-1.14336e-09
7.50784e-08
-2.05967e-09
-1.72034e-09
7.12743e-08
-2.08857e-09
-2.0453e-09
6.62477e-08
-2.11468e-09
-1.99754e-09
5.95874e-08
-2.16625e-09
-1.41717e-09
5.07496e-08
-2.24954e-09
3.14475e-08
-2.11217e-09
-7.21048e-10
2.9547e-08
1.9796e-09
-1.19483e-09
4.77641e-08
1.86058e-09
-1.49213e-09
5.62436e-08
1.74616e-09
-1.6769e-09
6.27414e-08
1.68161e-09
-1.77901e-09
6.77521e-08
1.62342e-09
-1.80645e-09
7.16411e-08
1.55909e-09
-1.77045e-09
7.46809e-08
1.48465e-09
-1.68289e-09
7.7074e-08
1.40408e-09
-1.54987e-09
7.89726e-08
1.31679e-09
-1.3895e-09
8.04892e-08
1.22618e-09
-1.20692e-09
8.17092e-08
1.13125e-09
-1.014e-09
8.26951e-08
1.03547e-09
-8.22723e-10
8.34946e-08
9.37878e-10
-6.40377e-10
8.41419e-08
8.41783e-10
-4.78373e-10
8.46625e-08
7.47012e-10
-3.43058e-10
8.50736e-08
6.56778e-10
-2.42588e-10
8.53878e-08
5.69985e-10
-1.78485e-10
8.5611e-08
4.88375e-10
-1.53855e-10
8.57459e-08
4.10698e-10
-1.71532e-10
8.5789e-08
3.39655e-10
-2.28398e-10
8.57332e-08
2.73448e-10
-3.23574e-10
8.55645e-08
2.14309e-10
-4.50282e-10
8.52636e-08
1.60017e-10
-6.04761e-10
8.48014e-08
1.12305e-10
-7.76935e-10
8.41397e-08
6.93438e-11
-9.55361e-10
8.32255e-08
3.25753e-11
-1.12763e-09
8.19884e-08
-1.13405e-12
-1.28057e-09
8.03336e-08
-3.07549e-11
-1.39378e-09
7.81346e-08
-5.94349e-11
-1.45254e-09
7.52226e-08
-8.6241e-11
-1.43512e-09
7.13708e-08
-1.14335e-10
-1.31813e-09
6.62779e-08
-1.47029e-10
-1.06035e-09
5.95364e-08
-2.06698e-10
-6.18893e-10
5.06036e-08
-2.93299e-10
3.11342e-08
-3.07372e-10
-1.06886e-09
2.85174e-08
2.09847e-09
-1.92161e-09
4.63989e-08
2.21777e-09
-2.64165e-09
5.47154e-08
2.24767e-09
-3.25501e-09
6.10866e-08
2.26924e-09
-3.77314e-09
6.59969e-08
2.27224e-09
-4.19787e-09
6.98078e-08
2.25747e-09
-4.53303e-09
7.2786e-08
2.23092e-09
-4.78529e-09
7.51326e-08
2.1941e-09
-4.96126e-09
7.6996e-08
2.15175e-09
-5.06444e-09
7.84886e-08
2.10386e-09
-5.10223e-09
7.96927e-08
2.05413e-09
-5.08117e-09
8.06713e-08
2.00199e-09
-5.00624e-09
8.14695e-08
1.95069e-09
-4.88672e-09
8.21221e-08
1.89931e-09
-4.72698e-09
8.26526e-08
1.85078e-09
-4.53673e-09
8.3079e-08
1.80379e-09
-4.32053e-09
8.34112e-08
1.76105e-09
-4.08562e-09
8.36546e-08
1.72152e-09
-3.83802e-09
8.38096e-08
1.68729e-09
-3.57848e-09
8.38734e-08
1.65641e-09
-3.31235e-09
8.38366e-08
1.63078e-09
-3.04275e-09
8.3686e-08
1.60808e-09
-2.76983e-09
8.34004e-08
1.58986e-09
-2.4936e-09
8.2952e-08
1.57349e-09
-2.21583e-09
8.23012e-08
1.56018e-09
-1.93314e-09
8.13967e-08
1.54697e-09
-1.64875e-09
8.01684e-08
1.53465e-09
-1.35996e-09
7.85248e-08
1.51977e-09
-1.06772e-09
7.63418e-08
1.50246e-09
-7.8342e-10
7.34564e-08
1.47856e-09
-5.05797e-10
6.96486e-08
1.44722e-09
-2.56436e-10
6.46276e-08
1.40001e-09
-4.35579e-11
5.80001e-08
1.32278e-09
1.09105e-10
4.92428e-08
1.20844e-09
3.02018e-08
1.04147e-09
-1.24402e-09
2.76538e-08
2.10701e-09
-2.26003e-09
4.5043e-08
2.37333e-09
-3.15788e-09
5.31268e-08
2.48536e-09
-3.94519e-09
5.9316e-08
2.55726e-09
-4.62269e-09
6.40817e-08
2.59319e-09
-5.1947e-09
6.7773e-08
2.6074e-09
-5.66701e-09
7.06518e-08
2.60527e-09
-6.03882e-09
7.29124e-08
2.59305e-09
-6.31643e-09
7.47015e-08
2.57241e-09
-6.50327e-09
7.61274e-08
2.54763e-09
-6.60207e-09
7.72725e-08
2.51903e-09
-6.61662e-09
7.81968e-08
2.48998e-09
-6.55435e-09
7.89465e-08
2.46011e-09
-6.41867e-09
7.9554e-08
2.43234e-09
-6.21674e-09
8.00443e-08
2.40582e-09
-5.95316e-09
8.04332e-08
2.38309e-09
-5.6366e-09
8.07322e-08
2.36292e-09
-5.27509e-09
8.09457e-08
2.34745e-09
-4.87728e-09
8.10756e-08
2.335e-09
-4.44678e-09
8.11168e-08
2.32732e-09
-3.99522e-09
8.10617e-08
2.32231e-09
-3.52354e-09
8.08952e-08
2.3213e-09
-3.04395e-09
8.0598e-08
2.32178e-09
-2.55722e-09
8.0141e-08
2.3247e-09
-2.07244e-09
7.94874e-08
2.32721e-09
-1.58823e-09
7.85857e-08
2.32984e-09
-1.12115e-09
7.73701e-08
2.32928e-09
-6.72092e-10
7.57507e-08
2.32546e-09
-2.53476e-10
7.36106e-08
2.31428e-09
1.14332e-10
7.07921e-08
2.29458e-09
4.1591e-10
6.70876e-08
2.26065e-09
6.17886e-10
6.22178e-08
2.20733e-09
6.87472e-10
5.58117e-08
2.11818e-09
5.74651e-10
4.73703e-08
1.98538e-09
2.90596e-08
1.7173e-09
-1.10714e-09
2.70036e-08
1.75726e-09
-2.05089e-09
4.39403e-08
2.04646e-09
-2.91068e-09
5.18093e-08
2.17691e-09
-3.68047e-09
5.78293e-08
2.25547e-09
-4.3519e-09
6.24568e-08
2.29707e-09
-4.92608e-09
6.60322e-08
2.31525e-09
-5.40315e-09
6.88096e-08
2.31895e-09
-5.78193e-09
7.09805e-08
2.31119e-09
-6.06416e-09
7.26866e-08
2.2968e-09
-6.24954e-09
7.40363e-08
2.27694e-09
-6.34227e-09
7.51088e-08
2.25524e-09
-6.34225e-09
7.59656e-08
2.23194e-09
-6.25629e-09
7.66506e-08
2.21e-09
-6.09002e-09
7.71983e-08
2.18912e-09
-5.84822e-09
7.76317e-08
2.17183e-09
-5.54264e-09
7.79689e-08
2.15737e-09
-5.17728e-09
7.82197e-08
2.14785e-09
-4.76431e-09
7.83907e-08
2.14204e-09
-4.31157e-09
7.84819e-08
2.14157e-09
-3.83038e-09
7.84907e-08
2.14476e-09
-3.32997e-09
7.84074e-08
2.15276e-09
-2.81682e-09
7.82193e-08
2.16342e-09
-2.30063e-09
7.79054e-08
2.17745e-09
-1.79136e-09
7.74393e-08
2.19229e-09
-1.2973e-09
7.67829e-08
2.20826e-09
-8.20034e-10
7.58887e-08
2.22239e-09
-3.75641e-10
7.46904e-08
2.23455e-09
2.85691e-11
7.31038e-08
2.24122e-09
3.8445e-10
7.10143e-08
2.24151e-09
6.72025e-10
6.82731e-08
2.23087e-09
8.74652e-10
6.46792e-08
2.20681e-09
9.63549e-10
5.99675e-08
2.1614e-09
9.07667e-10
5.37831e-08
2.08365e-09
6.68252e-10
4.56514e-08
1.96069e-09
2.80387e-08
1.68819e-09
-7.25841e-10
2.67002e-08
1.02704e-09
-1.42933e-09
4.34135e-08
1.23259e-09
-2.11967e-09
5.11738e-08
1.32637e-09
-2.77118e-09
5.7102e-08
1.3786e-09
-3.36536e-09
6.16494e-08
1.40041e-09
-3.8876e-09
6.51502e-08
1.40518e-09
-4.33258e-09
6.78577e-08
1.39748e-09
-4.69399e-09
6.99595e-08
1.38189e-09
-4.96627e-09
7.15988e-08
1.35995e-09
-5.14618e-09
7.28815e-08
1.33514e-09
-5.23519e-09
7.38891e-08
1.30825e-09
-5.23339e-09
7.46815e-08
1.28217e-09
-5.14455e-09
7.53053e-08
1.25718e-09
-4.97631e-09
7.57935e-08
1.23575e-09
-4.73402e-09
7.61721e-08
1.21775e-09
-4.42913e-09
7.64576e-08
1.20524e-09
-4.06938e-09
7.66625e-08
1.1976e-09
-3.66736e-09
7.67919e-08
1.1964e-09
-3.23214e-09
7.68482e-08
1.2005e-09
-2.78047e-09
7.68268e-08
1.21095e-09
-2.32046e-09
7.67205e-08
1.22609e-09
-1.86041e-09
7.65146e-08
1.24645e-09
-1.41748e-09
7.61901e-08
1.26989e-09
-9.91879e-10
7.57188e-08
1.29651e-09
-5.97442e-10
7.50651e-08
1.32377e-09
-2.40031e-10
7.41794e-08
1.3514e-09
7.43982e-11
7.29992e-08
1.37653e-09
3.38895e-10
7.14392e-08
1.3985e-09
5.5245e-10
6.93895e-08
1.41396e-09
6.9939e-10
6.67024e-08
1.42163e-09
7.76589e-10
6.31844e-08
1.41722e-09
7.71303e-10
5.85752e-08
1.39736e-09
6.71143e-10
5.25316e-08
1.35231e-09
4.57221e-10
4.4591e-08
1.27476e-09
2.74064e-08
1.08914e-09
-2.41788e-10
2.6841e-08
1.01709e-10
-6.48958e-10
4.36596e-08
1.59566e-10
-1.12271e-09
5.14611e-08
1.87895e-10
-1.62385e-09
5.74098e-08
1.93423e-10
-2.11692e-09
6.1959e-08
1.8311e-10
-2.57673e-09
6.54481e-08
1.62712e-10
-2.9867e-09
6.8131e-08
1.3597e-10
-3.33133e-09
7.01998e-08
1.03824e-10
-3.59821e-09
7.1798e-08
6.8841e-11
-3.78429e-09
7.30354e-08
3.17945e-11
-3.88499e-09
7.39935e-08
-4.62365e-12
-3.89857e-09
7.47358e-08
-3.97652e-11
-3.82996e-09
7.53085e-08
-7.13933e-11
-3.68633e-09
7.57481e-08
-9.90472e-11
-3.47186e-09
7.60798e-08
-1.2068e-10
-3.20235e-09
7.6323e-08
-1.36321e-10
-2.88316e-09
7.64893e-08
-1.4438e-10
-2.53394e-09
7.65862e-08
-1.45411e-10
-2.1596e-09
7.66147e-08
-1.38377e-10
-1.78161e-09
7.65721e-08
-1.24409e-10
-1.40786e-09
7.64495e-08
-1.03043e-10
-1.05021e-09
7.62337e-08
-7.5956e-11
-7.20757e-10
7.59036e-08
-4.31963e-11
-4.2681e-10
7.54324e-08
-6.90949e-12
-1.76976e-10
7.47818e-08
3.25482e-11
2.66544e-11
7.39038e-08
7.28181e-11
1.79895e-10
7.27328e-08
1.13149e-10
2.82155e-10
7.11852e-08
1.51091e-10
3.38347e-10
6.91486e-08
1.85939e-10
3.48438e-10
6.64768e-08
2.15237e-10
3.20465e-10
6.2974e-08
2.38254e-10
2.60887e-10
5.83823e-08
2.52217e-10
1.82443e-10
5.23567e-08
2.54723e-10
9.21863e-11
4.44377e-08
2.42482e-10
2.72974e-08
2.01451e-10
1.84812e-10
2.7432e-08
-7.77347e-10
5.1338e-11
4.46652e-08
-8.70223e-10
-2.27581e-10
5.26505e-08
-9.10429e-10
-5.91375e-10
5.87256e-08
-9.5143e-10
-9.95042e-10
6.33573e-08
-9.95189e-10
-1.40039e-09
6.68943e-08
-1.04033e-09
-1.78334e-09
6.95995e-08
-1.08756e-09
-2.11505e-09
7.16699e-08
-1.13598e-09
-2.38687e-09
7.32555e-08
-1.18556e-09
-2.58655e-09
7.44686e-08
-1.2345e-09
-2.70687e-09
7.53959e-08
-1.28213e-09
-2.74576e-09
7.6102e-08
-1.32635e-09
-2.70847e-09
7.66374e-08
-1.36642e-09
-2.5984e-09
7.70388e-08
-1.40039e-09
-2.42594e-09
7.73347e-08
-1.42774e-09
-2.19963e-09
7.75444e-08
-1.44684e-09
-1.93452e-09
7.76819e-08
-1.45763e-09
-1.64389e-09
7.77539e-08
-1.45902e-09
-1.34065e-09
7.77634e-08
-1.45156e-09
-1.04109e-09
7.77063e-08
-1.43476e-09
-7.55459e-10
7.7575e-08
-1.40978e-09
-4.99904e-10
7.73541e-08
-1.37674e-09
-2.82319e-10
7.70235e-08
-1.33731e-09
-1.10707e-10
7.65535e-08
-1.29208e-09
8.43435e-12
7.5906e-08
-1.24305e-09
7.20741e-11
7.50297e-08
-1.19103e-09
8.501e-11
7.38584e-08
-1.13806e-09
5.11757e-11
7.23044e-08
-1.08483e-09
-1.94451e-11
7.02535e-08
-1.03302e-09
-1.15533e-10
6.75542e-08
-9.82637e-10
-2.12935e-10
6.40075e-08
-9.34434e-10
-2.9399e-10
5.9348e-08
-8.87023e-10
-3.21856e-10
5.32243e-08
-8.39144e-10
-2.63334e-10
4.51657e-08
-7.85931e-10
2.77135e-08
-6.80301e-10
4.57802e-10
2.83774e-08
-1.40203e-09
5.02094e-10
4.62304e-08
-1.60963e-09
3.58148e-10
5.44945e-08
-1.70185e-09
9.41889e-11
6.07693e-08
-1.77919e-09
-2.39328e-10
6.55388e-08
-1.84838e-09
-5.99197e-10
6.91678e-08
-1.91357e-09
-9.51445e-10
7.19285e-08
-1.97655e-09
-1.27139e-09
7.40281e-08
-2.03868e-09
-1.53794e-09
7.56219e-08
-2.09957e-09
-1.73888e-09
7.68293e-08
-2.15896e-09
-1.86786e-09
7.774e-08
-2.21531e-09
-1.92278e-09
7.84236e-08
-2.26776e-09
-1.90267e-09
7.89322e-08
-2.31449e-09
-1.81533e-09
7.93063e-08
-2.35459e-09
-1.66847e-09
7.9575e-08
-2.3864e-09
-1.47699e-09
7.97605e-08
-2.40937e-09
-1.24781e-09
7.98765e-08
-2.4223e-09
-1.00218e-09
7.99319e-08
-2.42518e-09
-7.49144e-10
7.99285e-08
-2.41743e-09
-5.06822e-10
7.98638e-08
-2.39969e-09
-2.87905e-10
7.97282e-08
-2.372e-09
-1.04739e-10
7.95071e-08
-2.33562e-09
3.13427e-11
7.91779e-08
-2.29115e-09
1.14453e-10
7.87106e-08
-2.24027e-09
1.4083e-10
7.8064e-08
-2.18391e-09
1.08069e-10
7.71852e-08
-2.12391e-09
2.37584e-11
7.6004e-08
-2.06115e-09
-1.04626e-10
7.44297e-08
-1.99713e-09
-2.6029e-10
7.23421e-08
-1.93208e-09
-4.2618e-10
6.9585e-08
-1.86637e-09
-5.69733e-10
6.59501e-08
-1.79857e-09
-6.57107e-10
6.11638e-08
-1.72642e-09
-6.50148e-10
5.48595e-08
-1.64389e-09
-4.93094e-10
4.65515e-08
-1.54217e-09
2.85454e-08
-1.32549e-09
5.33876e-10
2.95236e-08
-1.67899e-09
6.4296e-10
4.80569e-08
-1.93742e-09
5.612e-10
5.66299e-08
-2.05396e-09
3.52286e-10
6.31284e-08
-2.14812e-09
6.35474e-11
6.80559e-08
-2.22971e-09
-2.57582e-10
7.17927e-08
-2.30434e-09
-5.7673e-10
7.46235e-08
-2.37548e-09
-8.68385e-10
7.67639e-08
-2.4443e-09
-1.11153e-09
7.83775e-08
-2.51142e-09
-1.29626e-09
7.95885e-08
-2.57604e-09
-1.40977e-09
8.04922e-08
-2.63745e-09
-1.45471e-09
8.11612e-08
-2.69409e-09
-1.42871e-09
8.16516e-08
-2.74487e-09
-1.33844e-09
8.20053e-08
-2.78815e-09
-1.1957e-09
8.22545e-08
-2.82297e-09
-1.00864e-09
8.24218e-08
-2.84803e-09
-7.9176e-10
8.2523e-08
-2.86282e-09
-5.61011e-10
8.25668e-08
-2.86659e-09
-3.30369e-10
8.25562e-08
-2.85947e-09
-1.10728e-10
8.24878e-08
-2.84135e-09
7.58043e-11
8.23523e-08
-2.81303e-09
2.25429e-10
8.21336e-08
-2.77502e-09
3.24803e-10
8.18085e-08
-2.72866e-09
3.65343e-10
8.13444e-08
-2.67494e-09
3.44967e-10
8.06989e-08
-2.61551e-09
2.68611e-10
7.98155e-08
-2.55147e-09
1.33856e-10
7.86211e-08
-2.48439e-09
-4.11084e-11
7.702e-08
-2.41495e-09
-2.42299e-10
7.48874e-08
-2.34394e-09
-4.46374e-10
7.20591e-08
-2.27071e-09
-6.19772e-10
6.83191e-08
-2.19409e-09
-7.28938e-10
6.33817e-08
-2.11029e-09
-7.22963e-10
5.68662e-08
-2.0124e-09
-5.50146e-10
4.82676e-08
-1.88921e-09
2.96203e-08
-1.62429e-09
4.51415e-10
3.06863e-08
-1.61422e-09
5.31372e-10
4.98361e-08
-1.85894e-09
4.41671e-10
5.86896e-08
-1.97085e-09
2.40425e-10
6.53923e-08
-2.06273e-09
-2.5949e-11
7.04647e-08
-2.14275e-09
-3.15883e-10
7.43014e-08
-2.21672e-09
-6.04447e-10
7.71971e-08
-2.2875e-09
-8.59385e-10
7.93766e-08
-2.3565e-09
-1.06773e-09
8.10093e-08
-2.42381e-09
-1.21403e-09
8.22255e-08
-2.489e-09
-1.29558e-09
8.31241e-08
-2.55089e-09
-1.31002e-09
8.37818e-08
-2.6083e-09
-1.25431e-09
8.4257e-08
-2.65968e-09
-1.13996e-09
8.45945e-08
-2.70381e-09
-9.728e-10
8.48276e-08
-2.73927e-09
-7.67583e-10
8.4981e-08
-2.76518e-09
-5.33683e-10
8.50709e-08
-2.78059e-09
-2.91134e-10
8.51071e-08
-2.78516e-09
-4.6239e-11
8.50924e-08
-2.77859e-09
1.78627e-10
8.50238e-08
-2.7612e-09
3.72943e-10
8.48911e-08
-2.73333e-09
5.24352e-10
8.46777e-08
-2.69595e-09
6.23888e-10
8.43588e-08
-2.64995e-09
6.65011e-10
8.39007e-08
-2.59676e-09
6.43392e-10
8.32582e-08
-2.53761e-09
5.60407e-10
8.23728e-08
-2.47406e-09
4.2007e-10
8.11676e-08
-2.40727e-09
2.36983e-10
7.95432e-08
-2.33841e-09
2.22292e-11
7.73691e-08
-2.26792e-09
-1.9758e-10
7.44756e-08
-2.19568e-09
-3.96927e-10
7.06375e-08
-2.12027e-09
-5.35878e-10
6.556e-08
-2.03861e-09
-5.73182e-10
5.88479e-08
-1.94405e-09
-4.58827e-10
4.99801e-08
-1.82744e-09
3.07397e-08
-1.57787e-09
2.64441e-10
3.17155e-08
-1.29341e-09
2.4694e-10
5.13271e-08
-1.47383e-09
1.03888e-10
6.03913e-08
-1.559e-09
-1.1748e-10
6.72473e-08
-1.63343e-09
-3.80699e-10
7.24278e-08
-1.70135e-09
-6.48623e-10
7.63377e-08
-1.7663e-09
-9.02681e-10
7.92798e-08
-1.83027e-09
-1.11609e-09
8.14851e-08
-1.89381e-09
-1.28021e-09
8.31285e-08
-1.95681e-09
-1.37785e-09
8.43441e-08
-2.01836e-09
-1.41339e-09
8.52347e-08
-2.07733e-09
-1.37811e-09
8.58795e-08
-2.13224e-09
-1.27834e-09
8.63394e-08
-2.18172e-09
-1.12126e-09
8.66611e-08
-2.2243e-09
-9.14178e-10
8.68797e-08
-2.25877e-09
-6.69674e-10
8.70206e-08
-2.28402e-09
-4.00907e-10
8.71013e-08
-2.29933e-09
-1.22034e-10
8.71319e-08
-2.30414e-09
1.53501e-10
8.71156e-08
-2.29834e-09
4.11388e-10
8.7049e-08
-2.28206e-09
6.35282e-10
8.69218e-08
-2.25584e-09
8.17746e-10
8.67164e-08
-2.2204e-09
9.45148e-10
8.64071e-08
-2.17688e-09
1.0132e-09
8.59586e-08
-2.12646e-09
1.0192e-09
8.53241e-08
-2.07061e-09
9.60452e-10
8.44424e-08
-2.01072e-09
8.40818e-10
8.32342e-08
-1.94826e-09
6.72706e-10
8.15967e-08
-1.88434e-09
4.65557e-10
7.93955e-08
-1.81986e-09
2.38715e-10
7.64555e-08
-1.75493e-09
2.23355e-11
7.25456e-08
-1.68895e-09
-1.62076e-10
6.73629e-08
-1.61984e-09
-2.73158e-10
6.05022e-08
-1.5434e-09
-2.66776e-10
5.14306e-08
-1.45476e-09
3.17424e-08
-1.27048e-09
4.1655e-11
3.25098e-08
-8.33498e-10
-1.03544e-10
5.23898e-08
-9.21416e-10
-3.19291e-10
6.15767e-08
-9.67218e-10
-5.77342e-10
6.85204e-08
-1.0157e-09
-8.4652e-10
7.37607e-08
-1.06521e-09
-1.09956e-09
7.77083e-08
-1.11635e-09
-1.32172e-09
8.06708e-08
-1.16942e-09
-1.4932e-09
8.28831e-08
-1.22417e-09
-1.60919e-09
8.45235e-08
-1.27982e-09
-1.66085e-09
8.57291e-08
-1.33517e-09
-1.64003e-09
8.66051e-08
-1.38881e-09
-1.55606e-09
8.72327e-08
-1.43924e-09
-1.40421e-09
8.76747e-08
-1.48494e-09
-1.19832e-09
8.79791e-08
-1.5245e-09
-9.44639e-10
8.81824e-08
-1.55666e-09
-6.53885e-10
8.83111e-08
-1.58037e-09
-3.42512e-10
8.83833e-08
-1.59485e-09
-1.93263e-11
8.84094e-08
-1.59963e-09
2.97796e-10
8.8393e-08
-1.59453e-09
5.95559e-10
8.83303e-08
-1.57972e-09
8.63855e-10
8.8211e-08
-1.55568e-09
1.0865e-09
8.80165e-08
-1.52319e-09
1.25631e-09
8.77205e-08
-1.48328e-09
1.36652e-09
8.72863e-08
-1.43721e-09
1.40964e-09
8.66657e-08
-1.3864e-09
1.38863e-09
8.5796e-08
-1.33234e-09
1.30461e-09
8.45957e-08
-1.27654e-09
1.16087e-09
8.29596e-08
-1.2204e-09
9.72407e-10
8.07504e-08
-1.1651e-09
7.49155e-10
7.779e-08
-1.1114e-09
5.10618e-10
7.38433e-08
-1.05956e-09
2.79506e-10
6.86027e-08
-1.00913e-09
8.37519e-11
6.16573e-08
-9.59097e-10
-4.19676e-11
5.24675e-08
-9.10579e-10
3.25195e-08
-8.19496e-10
-1.7323e-10
3.30311e-08
-3.49164e-10
-4.32031e-10
5.299e-08
-3.391e-10
-7.26508e-10
6.22124e-08
-3.42865e-10
-1.02279e-09
6.91791e-08
-3.6336e-10
-1.29824e-09
7.44307e-08
-3.9283e-10
-1.54053e-09
7.83798e-08
-4.28664e-10
-1.73605e-09
8.13357e-08
-4.69504e-10
-1.87519e-09
8.35351e-08
-5.14169e-10
-1.94751e-09
8.51578e-08
-5.61262e-10
-1.95185e-09
8.63426e-08
-6.0926e-10
-1.88555e-09
8.71959e-08
-6.56517e-10
-1.7513e-09
8.78006e-08
-7.01455e-10
-1.55674e-09
8.82206e-08
-7.42498e-10
-1.30255e-09
8.85052e-08
-7.78251e-10
-1.00382e-09
8.86916e-08
-8.07446e-10
-6.71678e-10
8.88072e-08
-8.29087e-10
-3.17848e-10
8.88706e-08
-8.42382e-10
4.77335e-11
8.88928e-08
-8.46893e-10
4.05457e-10
8.88771e-08
-8.42435e-10
7.43974e-10
8.88202e-08
-8.29183e-10
1.0521e-09
8.87108e-08
-8.07581e-10
1.31645e-09
8.85305e-08
-7.78405e-10
1.52731e-09
8.82516e-08
-7.42645e-10
1.67948e-09
8.7837e-08
-7.01564e-10
1.76384e-09
8.72371e-08
-6.56559e-10
1.78032e-09
8.63882e-08
-6.09187e-10
1.72994e-09
8.52072e-08
-5.61021e-10
1.61602e-09
8.35878e-08
-5.13693e-10
1.44483e-09
8.1391e-08
-4.68721e-10
1.2247e-09
7.84371e-08
-4.27487e-10
9.6948e-10
7.44894e-08
-3.91147e-10
6.95204e-10
6.92387e-08
-3.60968e-10
4.19362e-10
6.22725e-08
-3.39223e-10
1.69513e-10
5.30501e-08
-3.3328e-10
3.30296e-08
-3.40774e-10
-3.29242e-10
3.32861e-08
7.47226e-11
-6.80088e-10
5.31713e-08
1.68211e-10
-1.02807e-09
6.23592e-08
2.01696e-10
-1.35116e-09
6.92955e-08
2.06281e-10
-1.63404e-09
7.45185e-08
1.95022e-10
-1.86552e-09
7.8439e-08
1.73386e-10
-2.03935e-09
8.13659e-08
1.44074e-10
-2.14992e-09
8.35353e-08
1.09157e-10
-2.19065e-09
8.51278e-08
7.05204e-11
-2.15967e-09
8.62822e-08
3.02597e-11
-2.06121e-09
8.7106e-08
-1.05973e-11
-1.89099e-09
8.76827e-08
-5.03352e-11
-1.66034e-09
8.80771e-08
-8.67109e-11
-1.37742e-09
8.83392e-08
-1.18517e-10
-1.04691e-09
8.85072e-08
-1.44628e-10
-6.85587e-10
8.86088e-08
-1.6403e-10
-3.01236e-10
8.86632e-08
-1.76031e-10
9.08184e-11
8.86815e-08
-1.80146e-10
4.75353e-10
8.86675e-08
-1.76264e-10
8.43155e-10
8.86173e-08
-1.64483e-10
1.17911e-09
8.85199e-08
-1.45293e-10
1.47404e-09
8.8356e-08
-1.19372e-10
1.71473e-09
8.80976e-08
-8.77325e-11
1.89616e-09