/*--------------------------------*- C++ -*----------------------------------*\
| =========                 |                                                 |
| \\      /  F ield         | OpenFOAM: The Open Source CFD Toolbox           |
|  \\    /   O peration     | Version:  v2006                                 |
|   \\  /    A nd           | Website:  www.openfoam.com                      |
|    \\/     M anipulation  |                                                 |
\*---------------------------------------------------------------------------*/
FoamFile
{
    version     2.0;
    format      ascii;
    class       volScalarField;
    location    "19";
    object      alphat;
}
// * * * * * * * * * * * * * * * * * * * * * * * * * * * * * * * * * * * * * //

dimensions      [1 -1 -1 0 0 0 0];


internalField   nonuniform List<scalar> 
78750
(
6.17087e-07
1.21654e-05
1.26197e-05
1.22276e-05
1.17261e-05
1.12646e-05
1.08967e-05
1.06161e-05
1.0409e-05
1.02655e-05
1.01858e-05
1.01691e-05
1.02028e-05
1.02832e-05
1.03968e-05
1.05236e-05
1.06455e-05
1.07493e-05
1.08269e-05
1.08727e-05
1.08825e-05
1.08528e-05
1.07801e-05
1.06603e-05
1.04885e-05
1.02585e-05
9.96241e-06
9.59035e-06
9.1308e-06
8.57211e-06
7.89831e-06
7.02343e-06
5.74982e-06
3.78928e-06
3.68122e-08
9.18992e-08
9.56437e-06
2.00663e-05
2.92994e-05
3.24677e-05
3.60107e-05
4.13366e-05
4.74369e-05
5.33064e-05
5.59973e-05
5.47975e-05
5.38347e-05
4.81992e-05
4.20824e-05
3.75837e-05
3.48367e-05
3.34517e-05
3.29697e-05
3.30712e-05
3.35695e-05
3.43508e-05
3.53308e-05
3.643e-05
3.75216e-05
3.83691e-05
3.85355e-05
3.73002e-05
3.38434e-05
2.81197e-05
2.14688e-05
1.5702e-05
1.19291e-05
1.0537e-05
8.84068e-06
5.09077e-08
1.68825e-07
1.14628e-05
1.64184e-05
1.65565e-05
1.68017e-05
1.74493e-05
1.83031e-05
1.92155e-05
2.03248e-05
2.18144e-05
2.35541e-05
2.53008e-05
2.68271e-05
2.79185e-05
2.85038e-05
2.88481e-05
2.92799e-05
2.98807e-05
3.05324e-05
3.10677e-05
3.13534e-05
3.1308e-05
3.08629e-05
2.99135e-05
2.83124e-05
2.59025e-05
2.26075e-05
1.85735e-05
1.42819e-05
1.04973e-05
7.95021e-06
7.16263e-06
9.12955e-06
7.5237e-06
5.94238e-08
1.45306e-07
1.29943e-05
3.31874e-05
2.97326e-05
2.76517e-05
2.68216e-05
2.75607e-05
2.97204e-05
3.24178e-05
3.34903e-05
3.13688e-05
2.68622e-05
2.24347e-05
1.99869e-05
1.99344e-05
2.21343e-05
2.65561e-05
3.31358e-05
4.05962e-05
4.56754e-05
4.61441e-05
4.31322e-05
3.87228e-05
3.41579e-05
2.98795e-05
2.59303e-05
2.21684e-05
1.83839e-05
1.45049e-05
1.08583e-05
8.12842e-06
6.99231e-06
8.42234e-06
9.1017e-06
5.73528e-08
1.24872e-07
7.86691e-06
3.31282e-05
3.22399e-05
2.9531e-05
2.75319e-05
2.60132e-05
2.41522e-05
2.1402e-05
1.77382e-05
1.3932e-05
1.10812e-05
9.80037e-06
1.00597e-05
1.17318e-05
1.48912e-05
1.99535e-05
2.78176e-05
3.82034e-05
4.26049e-05
4.32166e-05
4.0299e-05
3.31717e-05
2.71743e-05
2.25282e-05
1.88665e-05
1.58953e-05
1.33124e-05
1.0839e-05
8.48735e-06
6.74088e-06
6.3266e-06
8.82184e-06
6.68389e-06
6.2357e-08
9.07187e-08
6.0471e-06
2.83801e-05
3.08093e-05
2.54605e-05
2.19752e-05
2.11251e-05
2.11652e-05
1.89596e-05
1.43461e-05
1.04345e-05
8.50538e-06
8.36302e-06
9.66876e-06
1.23381e-05
1.65217e-05
2.25751e-05
3.07419e-05
3.98114e-05
4.59866e-05
4.62342e-05
4.17156e-05
3.5316e-05
2.89992e-05
2.36287e-05
1.94665e-05
1.6449e-05
1.42989e-05
1.25188e-05
1.05457e-05
8.4499e-06
7.30255e-06
8.80142e-06
9.93632e-06
7.57971e-08
7.01521e-08
5.38332e-06
2.24983e-05
3.12909e-05
3.03919e-05
2.41416e-05
1.5408e-05
9.29853e-06
6.2244e-06
5.09442e-06
5.2579e-06
6.47374e-06
8.72749e-06
1.2132e-05
1.68161e-05
2.27463e-05
2.95468e-05
3.6495e-05
4.25231e-05
4.54127e-05
4.50026e-05
4.03817e-05
3.2378e-05
2.43287e-05
1.79919e-05
1.36466e-05
1.08981e-05
9.25147e-06
8.28382e-06
7.66292e-06
7.28194e-06
7.98881e-06
1.34189e-05
6.30915e-06
9.14531e-08
7.23508e-08
4.84962e-06
1.7786e-05
1.8648e-05
1.17004e-05
6.98912e-06
4.97667e-06
4.69237e-06
5.67507e-06
7.82308e-06
1.1122e-05
1.5435e-05
2.02057e-05
2.44917e-05
2.77313e-05
3.02678e-05
3.2903e-05
3.6319e-05
4.06353e-05
4.47558e-05
4.54746e-05
4.0891e-05
3.08155e-05
2.09804e-05
1.42602e-05
1.03433e-05
8.34084e-06
7.56707e-06
7.47034e-06
7.59526e-06
8.20854e-06
1.12782e-05
2.43654e-05
4.86993e-06
8.36688e-08
7.94181e-08
3.6727e-06
1.31859e-05
9.61822e-06
5.22128e-06
3.93793e-06
4.45015e-06
6.28453e-06
9.11782e-06
1.2155e-05
1.45189e-05
1.62339e-05
1.80217e-05
2.05122e-05
2.40046e-05
2.84658e-05
3.35434e-05
3.85521e-05
4.2496e-05
4.4075e-05
4.17458e-05
3.47624e-05
2.53113e-05
1.70109e-05
1.12774e-05
7.79605e-06
6.01898e-06
5.57606e-06
6.1476e-06
7.30037e-06
9.37343e-06
1.50351e-05
2.26419e-05
4.05601e-06
7.23927e-08
8.71484e-08
3.26923e-06
1.26791e-05
5.87526e-06
4.1051e-06
4.60562e-06
6.53246e-06
9.41218e-06
1.23673e-05
1.47441e-05
1.67399e-05
1.88908e-05
2.15177e-05
2.46638e-05
2.81999e-05
3.19632e-05
3.58104e-05
3.95056e-05
4.25052e-05
4.38075e-05
4.20477e-05
3.62489e-05
2.74912e-05
1.88234e-05
1.22704e-05
7.99105e-06
5.51293e-06
4.46462e-06
4.71393e-06
6.18118e-06
9.33127e-06
1.64152e-05
1.98011e-05
3.70815e-06
6.61098e-08
9.14284e-08
3.13288e-06
1.39713e-05
5.53562e-06
4.51986e-06
5.64612e-06
7.92454e-06
1.0453e-05
1.23093e-05
1.34584e-05
1.45438e-05
1.61922e-05
1.88022e-05
2.25172e-05
2.71421e-05
3.21099e-05
3.66799e-05
4.02245e-05
4.23019e-05
4.25441e-05
4.05702e-05
3.61069e-05
2.94349e-05
2.17967e-05
1.48525e-05
9.60246e-06
6.15019e-06
4.20155e-06
3.52454e-06
4.06251e-06
6.27625e-06
1.21586e-05
1.57456e-05
3.26414e-06
6.64449e-08
8.62116e-08
2.99957e-06
1.80417e-05
7.16502e-06
5.6408e-06
6.64224e-06
8.5811e-06
1.04077e-05
1.14572e-05
1.19401e-05
1.25426e-05
1.38907e-05
1.64194e-05
2.03596e-05
2.5555e-05
3.12687e-05
3.64395e-05
4.02684e-05
4.24128e-05
4.27858e-05
4.13626e-05
3.81131e-05
3.30645e-05
2.65496e-05
1.94733e-05
1.30903e-05
8.2751e-06
5.16018e-06
3.48285e-06
3.03082e-06
3.84373e-06
7.14815e-06
1.37984e-05
2.93085e-06
6.7938e-08
7.7699e-08
2.91066e-06
1.86984e-05
9.55605e-06
6.68787e-06
7.01947e-06
8.33751e-06
9.59186e-06
1.01942e-05
1.03425e-05
1.07002e-05
1.19272e-05
1.45412e-05
1.89154e-05
2.49539e-05
3.15668e-05
3.70825e-05
4.05605e-05
4.20236e-05
4.1828e-05
4.02869e-05
3.75768e-05
3.37435e-05
2.87919e-05
2.28961e-05
1.66443e-05
1.10317e-05
6.83911e-06
4.20627e-06
2.91654e-06
2.79017e-06
4.34853e-06
1.10458e-05
2.61074e-06
6.8268e-08
6.16078e-08
2.60277e-06
1.27725e-05
1.54855e-05
9.38684e-06
8.24477e-06
8.56774e-06
9.01943e-06
8.94369e-06
8.50022e-06
8.44878e-06
9.44967e-06
1.19837e-05
1.64714e-05
2.29847e-05
3.0408e-05
3.65851e-05
4.02771e-05
4.17039e-05
4.1498e-05
4.01335e-05
3.78562e-05
3.47413e-05
3.07819e-05
2.59877e-05
2.04981e-05
1.47572e-05
9.64783e-06
5.9215e-06
3.71394e-06
2.82633e-06
3.28618e-06
7.89204e-06
2.65362e-06
6.87738e-08
4.6715e-08
2.44896e-06
1.00771e-05
1.91162e-05
1.2208e-05
9.4541e-06
8.55397e-06
7.84733e-06
6.86301e-06
6.18758e-06
6.55331e-06
8.33312e-06
1.19004e-05
1.7575e-05
2.48985e-05
3.20334e-05
3.71799e-05
4.0046e-05
4.11452e-05
4.09673e-05
3.98021e-05
3.77774e-05
3.49285e-05
3.12862e-05
2.69716e-05
2.21958e-05
1.7195e-05
1.22925e-05
8.08695e-06
5.14536e-06
3.62871e-06
3.5149e-06
6.62051e-06
3.27154e-06
7.0987e-08
3.9893e-08
2.57227e-06
1.02568e-05
2.04438e-05
1.43958e-05
9.97942e-06
7.35298e-06
5.60526e-06
4.80733e-06
5.23265e-06
7.08148e-06
1.0613e-05
1.59773e-05
2.25762e-05
2.89855e-05
3.41353e-05
3.78718e-05
4.03736e-05
4.17583e-05
4.20611e-05
4.12814e-05
3.94131e-05
3.64726e-05
3.25612e-05
2.79493e-05
2.30276e-05
1.81419e-05
1.35416e-05
9.48768e-06
6.38254e-06
4.57226e-06
4.22235e-06
7.00659e-06
4.22811e-06
7.35825e-08
4.03786e-08
2.59125e-06
1.00466e-05
1.82002e-05
1.14518e-05
6.72154e-06
4.67001e-06
4.17273e-06
4.94021e-06
7.09684e-06
1.07741e-05
1.57953e-05
2.13409e-05
2.64902e-05
3.09347e-05
3.47416e-05
3.78944e-05
4.02386e-05
4.16118e-05
4.19163e-05
4.11093e-05
3.91759e-05
3.61346e-05
3.21146e-05
2.74683e-05
2.26884e-05
1.81499e-05
1.40053e-05
1.03259e-05
7.34473e-06
5.46088e-06
5.04829e-06
8.01374e-06
5.05587e-06
7.65528e-08
4.36747e-08
2.51924e-06
1.04257e-05
1.28864e-05
6.80809e-06
4.55196e-06
4.20535e-06
5.16598e-06
7.51542e-06
1.12313e-05
1.58718e-05
2.06658e-05
2.51134e-05
2.91324e-05
3.273e-05
3.5852e-05
3.84146e-05
4.03356e-05
4.15195e-05
4.1839e-05
4.11302e-05
3.92115e-05
3.59602e-05
3.14979e-05
2.63645e-05
2.13095e-05
1.68429e-05
1.30912e-05
9.98841e-06
7.56338e-06
6.03949e-06
5.94207e-06
1.00312e-05
4.94952e-06
7.99614e-08
4.63284e-08
2.43095e-06
1.15788e-05
9.16841e-06
5.17558e-06
4.38844e-06
5.13052e-06
7.17928e-06
1.04737e-05
1.45201e-05
1.86567e-05
2.25035e-05
2.60305e-05
2.92934e-05
3.23084e-05
3.50516e-05
3.74467e-05
3.936e-05
4.06095e-05
4.09799e-05
4.02335e-05
3.81366e-05
3.45693e-05
2.97692e-05
2.44614e-05
1.94852e-05
1.53066e-05
1.1977e-05
9.37787e-06
7.46235e-06
6.3445e-06
6.71458e-06
1.24344e-05
4.4799e-06
8.37096e-08
4.7496e-08
2.55089e-06
1.45668e-05
7.63977e-06
5.03072e-06
5.10485e-06
6.57898e-06
9.23574e-06
1.26792e-05
1.63117e-05
1.97756e-05
2.30524e-05
2.62324e-05
2.93095e-05
3.21878e-05
3.47679e-05
3.69659e-05
3.86843e-05
3.97768e-05
4.00296e-05
3.91592e-05
3.6857e-05
3.29684e-05
2.78379e-05
2.238e-05
1.75072e-05
1.36293e-05
1.07302e-05
8.65034e-06
7.25981e-06
6.6132e-06
7.6303e-06
1.53985e-05
3.96366e-06
8.78946e-08
4.80228e-08
2.71209e-06
1.62484e-05
8.17565e-06
5.82645e-06
6.2163e-06
7.90647e-06
1.04286e-05
1.32993e-05
1.614e-05
1.88995e-05
2.16911e-05
2.4575e-05
2.74774e-05
3.02641e-05
3.28327e-05
3.51024e-05
3.69525e-05
3.81854e-05
3.85246e-05
3.76312e-05
3.51772e-05
3.10758e-05
2.58247e-05
2.04258e-05
1.57393e-05
1.21142e-05
9.53892e-06
7.87665e-06
6.94117e-06
6.78429e-06
8.51854e-06
1.70235e-05
3.53313e-06
9.14296e-08
4.69759e-08
2.7918e-06
1.69192e-05
9.76097e-06
6.87439e-06
7.06643e-06
8.45066e-06
1.0394e-05
1.2559e-05
1.48221e-05
1.72718e-05
2.00161e-05
2.3021e-05
2.60847e-05
2.89646e-05
3.15201e-05
3.36965e-05
3.5414e-05
3.65009e-05
3.66957e-05
3.56815e-05
3.31849e-05
2.92016e-05
2.42494e-05
1.91976e-05
1.47613e-05
1.12748e-05
8.80378e-06
7.29156e-06
6.57313e-06
6.73871e-06
9.00148e-06
1.668e-05
3.21992e-06
9.56021e-08
4.38475e-08
2.62757e-06
1.45861e-05
1.31168e-05
8.56691e-06
7.93893e-06
8.59017e-06
9.69266e-06
1.10513e-05
1.27317e-05
1.48395e-05
1.74161e-05
2.03443e-05
2.33445e-05
2.61427e-05
2.8644e-05
3.08709e-05
3.27782e-05
3.41409e-05
3.45865e-05
3.3707e-05
3.12486e-05
2.73691e-05
2.27268e-05
1.80998e-05
1.40083e-05
1.07145e-05
8.33306e-06
6.87604e-06
6.23015e-06
6.54722e-06
9.11062e-06
1.55396e-05
2.95943e-06
9.94218e-08
4.03568e-08
2.46242e-06
1.19829e-05
1.64582e-05
1.0257e-05
8.58076e-06
8.48244e-06
8.96797e-06
9.85944e-06
1.12623e-05
1.32433e-05
1.57722e-05
1.86482e-05
2.15e-05
2.4016e-05
2.61837e-05
2.81902e-05
3.01317e-05
3.17883e-05
3.26248e-05
3.20186e-05
2.96486e-05
2.58688e-05
2.15435e-05
1.73535e-05
1.35983e-05
1.04625e-05
8.11185e-06
6.62453e-06
5.94359e-06
6.26883e-06
8.927e-06
1.45134e-05
2.77448e-06
1.02264e-07
3.84215e-08
2.29819e-06
1.01378e-05
1.92251e-05
1.20752e-05
9.26509e-06
8.4787e-06
8.51359e-06
9.09618e-06
1.02817e-05
1.21144e-05
1.45019e-05
1.71636e-05
1.96516e-05
2.1646e-05
2.32342e-05
2.48056e-05
2.67018e-05
2.88274e-05
3.04272e-05
3.03597e-05
2.80126e-05
2.41512e-05
2.01228e-05
1.64945e-05
1.32293e-05
1.03522e-05
8.06759e-06
6.53595e-06
5.77407e-06
6.03405e-06
8.6867e-06
1.35773e-05
2.62509e-06
1.02614e-07
3.70076e-08
2.13846e-06
8.83768e-06
1.89631e-05
1.34028e-05
9.7059e-06
8.43154e-06
8.24639e-06
8.75286e-06
9.92221e-06
1.17661e-05
1.41522e-05
1.67091e-05
1.8878e-05
2.03013e-05
2.11405e-05
2.19622e-05
2.33875e-05
2.562e-05
2.78691e-05
2.8302e-05
2.57577e-05
2.1701e-05
1.81233e-05
1.53158e-05
1.27895e-05
1.03427e-05
8.20135e-06
6.64268e-06
5.78916e-06
5.95371e-06
8.52608e-06
1.3133e-05
2.5709e-06
1.00552e-07
3.52787e-08
1.94478e-06
7.50865e-06
1.80893e-05
1.51711e-05
1.0428e-05
8.65144e-06
8.28178e-06
8.72475e-06
9.84551e-06
1.162e-05
1.39161e-05
1.6327e-05
1.8224e-05
1.91708e-05
1.93118e-05
1.93303e-05
2.00938e-05
2.21636e-05
2.48948e-05
2.55869e-05
2.23676e-05
1.80747e-05
1.52256e-05
1.35656e-05
1.21418e-05
1.04274e-05
8.56307e-06
6.97131e-06
5.95846e-06
5.92968e-06
8.26869e-06
1.34355e-05
2.6004e-06
9.90638e-08
3.178e-08
1.76247e-06
6.38365e-06
1.69974e-05
1.69941e-05
1.12622e-05
9.02961e-06
8.50751e-06
8.89083e-06
9.95415e-06
1.16439e-05
1.38459e-05
1.6171e-05
1.79205e-05
1.85004e-05
1.79897e-05
1.72036e-05
1.72587e-05
1.90597e-05
2.21306e-05
2.24301e-05
1.77995e-05
1.34574e-05
1.14593e-05
1.09276e-05
1.0816e-05
1.03401e-05
9.24993e-06
7.85959e-06
6.7219e-06
6.46953e-06
8.54441e-06
1.50921e-05
2.85273e-06
1.00553e-07
2.78206e-08
1.63162e-06
5.66961e-06
1.5987e-05
1.80434e-05
1.20723e-05
9.5699e-06
8.90489e-06
9.17936e-06
1.01015e-05
1.15636e-05
1.3413e-05
1.52544e-05
1.63916e-05
1.62515e-05
1.50234e-05
1.36572e-05
1.33459e-05
1.52397e-05
1.93439e-05
1.9304e-05
1.33447e-05
9.53527e-06
8.30583e-06
8.4563e-06
9.20942e-06
9.85667e-06
9.77908e-06
8.86636e-06
7.73545e-06
7.3114e-06
9.24702e-06
1.69614e-05
3.17122e-06
1.11735e-07
2.45498e-08
1.63571e-06
5.76963e-06
1.52789e-05
1.72356e-05
1.20382e-05
9.80384e-06
9.21069e-06
9.46925e-06
1.02713e-05
1.14192e-05
1.25951e-05
1.32569e-05
1.28634e-05
1.1448e-05
9.75578e-06
8.64391e-06
8.8331e-06
1.13919e-05
1.67408e-05
1.5058e-05
9.34472e-06
7.00115e-06
6.66136e-06
7.42239e-06
8.85646e-06
1.04151e-05
1.11966e-05
1.06616e-05
9.4399e-06
8.89915e-06
1.1223e-05
1.90121e-05
3.38637e-06
1.19616e-07
2.44461e-08
1.88248e-06
7.07151e-06
1.60153e-05
1.7706e-05
1.28217e-05
1.07372e-05
1.01988e-05
1.04073e-05
1.09348e-05
1.13592e-05
1.11884e-05
1.01226e-05
8.44456e-06
6.84324e-06
5.86959e-06
5.88208e-06
7.47425e-06
1.15978e-05
1.41896e-05
9.56916e-06
6.6177e-06
5.89873e-06
6.54251e-06
8.21929e-06
1.0403e-05
1.20266e-05
1.24789e-05
1.21077e-05
1.16928e-05
1.25101e-05
1.71781e-05
1.61652e-05
3.2263e-06
1.11078e-07
2.41913e-08
2.19413e-06
8.46609e-06
1.70905e-05
1.97134e-05
1.51597e-05
1.27699e-05
1.19211e-05
1.17567e-05
1.1672e-05
1.1147e-05
9.94254e-06
8.3135e-06
6.83143e-06
5.95829e-06
5.94795e-06
7.02726e-06
9.46568e-06
1.29502e-05
1.40717e-05
1.02232e-05
6.7801e-06
5.28238e-06
5.17094e-06
6.26288e-06
8.60011e-06
1.14103e-05
1.28165e-05
1.24632e-05
1.20771e-05
1.34822e-05
1.86916e-05
1.36213e-05
3.05977e-06
9.12475e-08
2.07402e-08
2.27593e-06
8.08611e-06
1.68673e-05
1.92808e-05
1.7311e-05
1.48458e-05
1.35129e-05
1.2773e-05
1.1928e-05
1.05494e-05
8.84569e-06
7.39278e-06
6.56011e-06
6.52938e-06
7.48426e-06
9.62926e-06
1.27022e-05
1.52652e-05
1.58571e-05
1.43374e-05
1.10033e-05
7.18943e-06
4.66359e-06
3.63155e-06
3.76094e-06
4.98816e-06
7.30413e-06
1.04013e-05
1.34606e-05
1.67927e-05
2.15417e-05
1.41033e-05
3.2481e-06
9.0983e-08
1.62605e-08
2.60226e-06
9.66856e-06
1.55243e-05
1.77746e-05
1.718e-05
1.44507e-05
1.13376e-05
8.44225e-06
6.32529e-06
5.06589e-06
4.54523e-06
4.65932e-06
5.43326e-06
7.06527e-06
9.93756e-06
1.40992e-05
1.76457e-05
1.7947e-05
1.57492e-05
1.31749e-05
1.13269e-05
1.02977e-05
9.46742e-06
7.905e-06
5.80081e-06
4.43424e-06
4.31041e-06
5.36086e-06
7.62885e-06
1.15687e-05
1.76382e-05
1.47e-05
3.42984e-06
1.16839e-07
1.73944e-08
2.68593e-06
9.32186e-06
1.42745e-05
1.42153e-05
8.0666e-06
4.78941e-06
3.39419e-06
2.96667e-06
3.19128e-06
3.99009e-06
5.41465e-06
7.64203e-06
1.09909e-05
1.55691e-05
2.01111e-05
2.22827e-05
2.15769e-05
1.92038e-05
1.65046e-05
1.43094e-05
1.28619e-05
1.20326e-05
1.14911e-05
1.07275e-05
9.28827e-06
7.40788e-06
5.95913e-06
5.5501e-06
6.39544e-06
8.92384e-06
1.43653e-05
1.45796e-05
3.31333e-06
1.46087e-07
2.35967e-08
2.26914e-06
8.65557e-06
7.02521e-06
4.13783e-06
3.11923e-06
3.10066e-06
3.87312e-06
5.52104e-06
8.32585e-06
1.26419e-05
1.82778e-05
2.36488e-05
2.69954e-05
2.8232e-05
2.79893e-05
2.64765e-05
2.37328e-05
2.03197e-05
1.71991e-05
1.49673e-05
1.36461e-05
1.29319e-05
1.23689e-05
1.14841e-05
1.00359e-05
8.24185e-06
6.65982e-06
5.77242e-06
5.8888e-06
7.56818e-06
1.26647e-05
1.4216e-05
3.11509e-06
1.63594e-07
3.05665e-08
2.62033e-06
1.0274e-05
4.73988e-06
3.72411e-06
4.12169e-06
5.71302e-06
8.69996e-06
1.26298e-05
1.56985e-05
1.69919e-05
1.76341e-05
1.88491e-05
2.1077e-05
2.38965e-05
2.60758e-05
2.63066e-05
2.415e-05
2.04038e-05
1.6594e-05
1.373e-05
1.19586e-05
1.10232e-05
1.05677e-05
1.01985e-05
9.53441e-06
8.41358e-06
7.10244e-06
6.08963e-06
5.79054e-06
6.75022e-06
1.07525e-05
1.51474e-05
3.12675e-06
1.84632e-07
2.89685e-08
3.13883e-06
1.15631e-05
4.86332e-06
4.04523e-06
4.63291e-06
6.15054e-06
8.24961e-06
1.06408e-05
1.34424e-05
1.69454e-05
2.10504e-05
2.49941e-05
2.78412e-05
2.91659e-05
2.89576e-05
2.72788e-05
2.42652e-05
2.04017e-05
1.65817e-05
1.35903e-05
1.16955e-05
1.07635e-05
1.04703e-05
1.03714e-05
9.96532e-06
8.98398e-06
7.67167e-06
6.53488e-06
6.02279e-06
6.73156e-06
1.05593e-05
1.4254e-05
2.99849e-06
2.05648e-07
2.02395e-08
3.20288e-06
1.14379e-05
6.17786e-06
4.73584e-06
4.89152e-06
5.91873e-06
7.56162e-06
9.59594e-06
1.1806e-05
1.40907e-05
1.65669e-05
1.9456e-05
2.27703e-05
2.60411e-05
2.84146e-05
2.90701e-05
2.74554e-05
2.34946e-05
1.82992e-05
1.37301e-05
1.06808e-05
9.02637e-06
8.38576e-06
8.36585e-06
8.46907e-06
8.19403e-06
7.47405e-06
6.6811e-06
6.31681e-06
7.13896e-06
1.13475e-05
1.29158e-05
2.83637e-06
2.13909e-07
1.61288e-08
4.06216e-06
1.05684e-05
5.93689e-06
4.83068e-06
5.12756e-06
6.24682e-06
7.99153e-06
1.02502e-05
1.2923e-05
1.59458e-05
1.92619e-05
2.27365e-05
2.60886e-05
2.89158e-05
3.07839e-05
3.12707e-05
2.99693e-05
2.6606e-05
2.1567e-05
1.62811e-05
1.21528e-05
9.54925e-06
8.19459e-06
7.69438e-06
7.58318e-06
7.35908e-06
6.87906e-06
6.40251e-06
6.37884e-06
7.69404e-06
1.30577e-05
1.05533e-05
2.57633e-06
2.13472e-07
1.71814e-08
4.05666e-06
1.08219e-05
6.82585e-06
5.84363e-06
6.36917e-06
7.66429e-06
9.29533e-06
1.08994e-05
1.23569e-05
1.38584e-05
1.57762e-05
1.84431e-05
2.19196e-05
2.58054e-05
2.92401e-05
3.11156e-05
3.02626e-05
2.60026e-05
1.97309e-05
1.41693e-05
1.04414e-05
8.28957e-06
7.25749e-06
6.98851e-06
7.01968e-06
6.89729e-06
6.55253e-06
6.30108e-06
6.6593e-06
8.73543e-06
1.50772e-05
7.59591e-06
2.23494e-06
1.89117e-07
1.70375e-08
3.32873e-06
1.10429e-05
9.21525e-06
7.29373e-06
7.31796e-06
8.13331e-06
9.25137e-06
1.03763e-05
1.14842e-05
1.28527e-05
1.48535e-05
1.76856e-05
2.11756e-05
2.47779e-05
2.78536e-05
2.98725e-05
3.02572e-05
2.81162e-05
2.2835e-05
1.61721e-05
1.09475e-05
7.84319e-06
6.32149e-06
5.84601e-06
5.91079e-06
6.01029e-06
5.9708e-06
6.049e-06
6.83086e-06
9.57716e-06
1.46117e-05
6.04485e-06
2.02801e-06
1.65167e-07
1.60406e-08
3.07774e-06
1.099e-05
1.15997e-05
8.56773e-06
7.89028e-06
8.04382e-06
8.45145e-06
9.01897e-06
9.94853e-06
1.15799e-05
1.41993e-05
1.78044e-05
2.18778e-05
2.55852e-05
2.83495e-05
2.99633e-05
3.02736e-05
2.89655e-05
2.55662e-05
2.00535e-05
1.39846e-05
9.37132e-06
6.72104e-06
5.60505e-06
5.47145e-06
5.71595e-06
5.92647e-06
6.19589e-06
7.18439e-06
1.02793e-05
1.468e-05
6.0359e-06
2.05032e-06
1.51172e-07
1.65598e-08
2.68412e-06
1.0694e-05
1.33832e-05
9.70989e-06
8.31235e-06
7.95095e-06
8.04101e-06
8.60063e-06
9.82352e-06
1.19207e-05
1.50123e-05
1.89326e-05
2.30973e-05
2.67622e-05
2.94476e-05
3.09609e-05
3.11631e-05
2.98412e-05
2.67656e-05
2.19835e-05
1.63138e-05
1.11847e-05
7.58439e-06
5.62629e-06
4.96053e-06
5.11406e-06
5.66792e-06
6.42382e-06
7.8866e-06
1.15122e-05
1.51386e-05
6.08106e-06
2.05813e-06
1.4113e-07
1.73561e-08
2.43627e-06
1.05654e-05
1.31953e-05
1.13379e-05
9.18864e-06
8.31348e-06
8.15888e-06
8.72136e-06
1.02156e-05
1.28073e-05
1.65744e-05
2.11539e-05
2.55583e-05
2.88118e-05
3.06458e-05
3.13072e-05
3.10698e-05
3.00683e-05
2.82447e-05
2.528e-05
2.08801e-05
1.55255e-05
1.05855e-05
7.12735e-06
5.30011e-06
4.73217e-06
5.04097e-06
5.93644e-06
7.53186e-06
1.11977e-05
1.6695e-05
6.86444e-06
2.17728e-06
1.44584e-07
1.72888e-08
2.17724e-06
9.95704e-06
1.2603e-05
1.09807e-05
8.44304e-06
7.47773e-06
7.48833e-06
8.38894e-06
1.03673e-05
1.36579e-05
1.84238e-05
2.40361e-05
2.81721e-05
2.88295e-05
2.93918e-05
2.95649e-05
2.78627e-05
2.61408e-05
2.45962e-05
2.30271e-05
2.09511e-05
1.78605e-05
1.3798e-05
9.68119e-06
6.59511e-06
4.90853e-06
4.5113e-06
5.28068e-06
7.40187e-06
1.18613e-05
1.92287e-05
9.15199e-06
2.53721e-06
1.52681e-07
1.45552e-08
1.68334e-06
6.42902e-06
1.02785e-05
7.84778e-06
6.57434e-06
6.44388e-06
7.15034e-06
8.72901e-06
1.14227e-05
1.56237e-05
2.13971e-05
2.57142e-05
2.64117e-05
2.69555e-05
2.74253e-05
2.58684e-05
2.34916e-05
2.18124e-05
2.08724e-05
2.0445e-05
2.00914e-05
1.91456e-05
1.69427e-05
1.34201e-05
9.48833e-06
6.31545e-06
4.46235e-06
3.94887e-06
4.84659e-06
8.13545e-06
1.55181e-05
8.22943e-06
2.44256e-06
1.58189e-07
1.33819e-08
1.92554e-06
6.7091e-06
7.99e-06
6.71455e-06
6.43362e-06
6.99277e-06
8.26292e-06
1.02996e-05
1.32574e-05
1.74193e-05
2.27333e-05
2.43865e-05
2.48167e-05
2.51913e-05
2.54668e-05
2.17136e-05
1.88347e-05
1.70154e-05
1.60496e-05
1.57604e-05
1.59989e-05
1.6483e-05
1.67279e-05
1.60702e-05
1.38898e-05
1.04661e-05
7.09918e-06
4.84326e-06
4.00044e-06
4.87047e-06
9.28544e-06
8.16241e-06
2.30202e-06
1.71206e-07
1.42796e-08
4.0928e-06
1.0924e-05
9.97848e-06
8.23192e-06
7.98056e-06
8.56281e-06
9.65197e-06
1.09878e-05
1.24097e-05
1.40896e-05
1.65655e-05
2.01836e-05
2.28797e-05
2.34699e-05
2.19089e-05
1.87346e-05
1.64127e-05
1.51374e-05
1.46755e-05
1.47585e-05
1.52229e-05
1.59861e-05
1.69375e-05
1.78635e-05
1.82275e-05
1.71613e-05
1.42204e-05
1.03395e-05
7.17031e-06
5.69575e-06
6.85023e-06
1.25969e-05
2.71789e-06
2.06932e-07
1.36909e-08
6.73652e-06
1.14914e-05
8.45048e-06
6.98672e-06
7.14609e-06
8.06092e-06
9.06765e-06
9.75764e-06
1.04852e-05
1.24333e-05
1.72256e-05
2.08195e-05
2.19744e-05
2.30426e-05
1.73071e-05
1.42232e-05
1.34055e-05
1.4269e-05
1.66667e-05
2.04035e-05
2.46474e-05
2.80027e-05
2.94762e-05
2.89814e-05
2.68193e-05
2.31279e-05
1.82101e-05
1.31208e-05
9.23341e-06
7.48075e-06
9.26261e-06
1.31809e-05
2.7873e-06
2.10249e-07
9.76288e-09
4.66837e-06
1.03389e-05
1.25974e-05
1.18292e-05
9.36387e-06
7.65807e-06
6.36898e-06
5.60446e-06
5.63171e-06
6.9104e-06
1.06772e-05
1.81943e-05
2.01356e-05
2.11711e-05
1.51198e-05
1.35818e-05
1.47188e-05
1.81289e-05
2.44156e-05
3.35728e-05
3.99619e-05
4.13652e-05
3.62825e-05
2.76164e-05
2.06307e-05
1.59422e-05
1.29267e-05
1.10134e-05
1.01415e-05
1.12646e-05
1.69368e-05
8.77453e-06
2.46932e-06
1.52026e-07
5.72374e-09
4.33091e-06
8.1641e-06
1.04221e-05
1.20353e-05
1.31197e-05
1.37353e-05
1.29406e-05
1.08079e-05
7.91088e-06
5.2016e-06
3.46244e-06
3.08181e-06
4.72458e-06
9.91247e-06
1.07893e-05
9.45366e-06
9.61518e-06
1.09374e-05
1.2964e-05
1.53163e-05
1.77608e-05
2.00873e-05
2.17301e-05
2.17329e-05
1.9755e-05
1.6841e-05
1.42989e-05
1.28017e-05
1.27825e-05
1.49487e-05
1.63502e-05
6.74996e-06
2.2121e-06
9.51096e-08
4.54626e-09
3.01113e-06
6.39322e-06
8.21135e-06
9.42308e-06
1.01096e-05
1.03734e-05
1.03418e-05
1.01543e-05
9.94452e-06
9.81454e-06
9.80554e-06
9.8581e-06
7.24783e-06
5.64878e-06
4.95092e-06
4.93808e-06
5.74053e-06
6.75698e-06
6.90392e-06
6.82272e-06
6.97672e-06
7.355e-06
7.87783e-06
8.49437e-06
9.1978e-06
9.9992e-06
1.09414e-05
1.22543e-05
1.45654e-05
1.83467e-05
1.85737e-05
7.95489e-06
2.45786e-06
8.73303e-08
5.63311e-09
2.03498e-06
4.70893e-06
6.05932e-06
4.75362e-06
4.43364e-06
4.55902e-06
4.95554e-06
5.54129e-06
6.26399e-06
7.04849e-06
7.75259e-06
8.21123e-06
8.35858e-06
8.27201e-06
8.04359e-06
7.7124e-06
7.32408e-06
6.99708e-06
6.89508e-06
7.08002e-06
7.48079e-06
7.91085e-06
7.93159e-06
7.0764e-06
5.81738e-06
5.04213e-06
4.98497e-06
5.5683e-06
6.8533e-06
9.20175e-06
1.2707e-05
1.10582e-05
3.01749e-06
1.43362e-07
4.77456e-09
2.9614e-06
2.57887e-06
2.82247e-06
3.34979e-06
4.0909e-06
5.06441e-06
6.31615e-06
7.88683e-06
9.83835e-06
1.22033e-05
1.46698e-05
1.61156e-05
1.55387e-05
1.39694e-05
1.26914e-05
1.17847e-05
1.06875e-05
9.15515e-06
7.72953e-06
6.95304e-06
7.01215e-06
7.83896e-06
9.00534e-06
9.81926e-06
9.87703e-06
9.14511e-06
7.9736e-06
7.04303e-06
6.78294e-06
7.48607e-06
9.93472e-06
1.08865e-05
2.77864e-06
2.00487e-07
4.07104e-09
2.01927e-06
3.02991e-06
4.12781e-06
5.58161e-06
7.80518e-06
1.15875e-05
1.73358e-05
1.97617e-05
1.60635e-05
9.49602e-06
5.89111e-06
4.43933e-06
4.5329e-06
6.3303e-06
9.97567e-06
1.45095e-05
1.88221e-05
2.29448e-05
2.51973e-05
2.63445e-05
2.74335e-05
2.84322e-05
2.92525e-05
2.60946e-05
1.93442e-05
1.40339e-05
1.0562e-05
8.55625e-06
7.84526e-06
8.87096e-06
1.33045e-05
8.30241e-06
2.25479e-06
1.78335e-07
5.64127e-09
2.50643e-06
3.68336e-06
4.86489e-06
6.48467e-06
9.27946e-06
1.42021e-05
1.76177e-05
1.54646e-05
9.04572e-06
5.9436e-06
5.05028e-06
5.74562e-06
8.44986e-06
1.4172e-05
2.28846e-05
2.61881e-05
2.83362e-05
2.87993e-05
2.58217e-05
2.50807e-05
2.59627e-05
2.662e-05
2.5421e-05
2.21282e-05
1.79266e-05
1.41294e-05
1.13425e-05
9.69441e-06
9.35362e-06
1.10763e-05
1.50234e-05
6.32997e-06
2.00117e-06
1.40001e-07
7.46474e-09
4.44876e-06
3.17039e-06
3.11379e-06
3.70942e-06
5.17002e-06
8.20536e-06
1.41494e-05
1.9959e-05
1.52368e-05
8.66813e-06
5.44363e-06
3.97816e-06
3.49303e-06
3.95629e-06
5.83785e-06
9.971e-06
1.63689e-05
2.30606e-05
2.78046e-05
2.90065e-05
2.7287e-05
2.48781e-05
2.27804e-05
2.07387e-05
1.83999e-05
1.59007e-05
1.37148e-05
1.23213e-05
1.2219e-05
1.4074e-05
1.52648e-05
6.10784e-06
2.01395e-06
1.21783e-07
7.70044e-09
4.68476e-06
6.02995e-06
4.18658e-06
3.43772e-06
3.27338e-06
3.87955e-06
5.68577e-06
9.41168e-06
1.56482e-05
2.173e-05
1.9216e-05
1.18612e-05
7.3243e-06
5.04958e-06
3.95608e-06
3.70495e-06
4.42602e-06
6.63709e-06
1.09395e-05
1.63909e-05
2.07891e-05
2.29818e-05
2.27102e-05
2.09505e-05
1.89151e-05
1.71221e-05
1.57133e-05
1.48821e-05
1.50271e-05
1.64235e-05
1.55395e-05
6.31992e-06
2.06323e-06
1.17303e-07
1.01204e-08
4.64298e-06
5.90547e-06
4.18749e-06
3.97344e-06
4.61924e-06
6.22996e-06
9.14603e-06
1.33668e-05
1.76953e-05
1.96829e-05
2.0509e-05
2.1183e-05
1.84871e-05
1.30728e-05
8.68411e-06
5.97118e-06
4.44865e-06
3.83716e-06
4.16429e-06
5.82985e-06
9.45832e-06
1.44116e-05
1.82675e-05
1.99826e-05
1.98651e-05
1.87442e-05
1.75105e-05
1.67408e-05
1.67594e-05
1.7418e-05
1.53333e-05
6.39523e-06
2.08203e-06
1.19682e-07
1.38886e-08
2.97276e-06
8.12321e-06
5.15767e-06
4.16842e-06
4.13676e-06
4.81687e-06
6.40297e-06
9.45906e-06
1.48972e-05
2.04714e-05
2.1327e-05
2.19662e-05
2.24029e-05
1.85354e-05
1.39958e-05
1.02915e-05
7.46387e-06
5.45118e-06
4.19694e-06
3.67955e-06
4.01085e-06
5.6031e-06
8.96875e-06
1.34026e-05
1.67432e-05
1.82674e-05
1.85987e-05
1.84876e-05
1.85034e-05
1.85818e-05
1.59443e-05
6.92879e-06
2.23074e-06
1.30754e-07
1.54784e-08
2.53446e-06
8.2952e-06
6.14762e-06
4.53073e-06
4.23479e-06
4.70751e-06
5.96655e-06
8.24003e-06
1.20683e-05
1.79437e-05
1.97682e-05
2.06252e-05
2.14e-05
2.20507e-05
1.93333e-05
1.46415e-05
1.09257e-05
8.13178e-06
6.06364e-06
4.64715e-06
3.85576e-06
3.73746e-06
4.55779e-06
6.77583e-06
1.04746e-05
1.43718e-05
1.7014e-05
1.84453e-05
1.92512e-05
1.94854e-05
1.70149e-05
7.91174e-06
2.49898e-06
1.53985e-07
1.73599e-08
2.37587e-06
8.74071e-06
6.50099e-06
4.66018e-06
4.2693e-06
4.57644e-06
5.46085e-06
6.93225e-06
9.11847e-06
1.23842e-05
1.71187e-05
1.9574e-05
2.04801e-05
2.13275e-05
2.20329e-05
1.76154e-05
1.30274e-05
9.49304e-06
6.95063e-06
5.18703e-06
4.09345e-06
3.58037e-06
3.70529e-06
4.73836e-06
7.07498e-06
1.07918e-05
1.49595e-05
1.81534e-05
1.99954e-05
2.0645e-05
1.8336e-05
8.55822e-06
2.64453e-06
1.80727e-07
1.79126e-08
2.03975e-06
9.05335e-06
8.66646e-06
5.24421e-06
4.16082e-06
3.93911e-06
4.21929e-06
4.91307e-06
5.99715e-06
7.62007e-06
1.0209e-05
1.43671e-05
1.80663e-05
1.93001e-05
2.04293e-05
2.09665e-05
1.48619e-05
9.99026e-06
6.74343e-06
4.65363e-06
3.40239e-06
2.84953e-06
2.99116e-06
4.12526e-06
6.7863e-06
1.0984e-05
1.52857e-05
1.83174e-05
2.02206e-05
2.13104e-05
1.89072e-05
8.00776e-06
2.50644e-06
1.83309e-07
1.27318e-08
1.66394e-06
5.70314e-06
1.039e-05
9.08092e-06
6.23985e-06
4.70366e-06
3.86792e-06
3.48702e-06
3.54982e-06
4.10011e-06
5.29174e-06
7.4651e-06
1.11396e-05
1.59132e-05
1.75299e-05
1.90225e-05
1.62613e-05
1.10651e-05
7.19938e-06
4.60589e-06
2.96323e-06
2.07427e-06
1.85806e-06
2.50923e-06
4.6959e-06
9.20438e-06
1.45877e-05
1.80228e-05
1.94873e-05
1.94436e-05
1.52037e-05
6.47324e-06
2.25513e-06
1.5381e-07
6.88347e-09
1.75033e-06
4.80772e-06
9.1272e-06
1.00409e-05
8.24288e-06
6.3214e-06
4.92549e-06
4.05132e-06
3.65694e-06
3.77478e-06
4.49811e-06
5.94404e-06
8.04459e-06
1.02273e-05
1.16671e-05
1.21686e-05
1.21043e-05
1.15712e-05
1.00548e-05
7.42815e-06
4.74782e-06
2.82881e-06
1.71649e-06
1.29317e-06
1.6603e-06
3.28245e-06
6.81925e-06
1.15717e-05
1.47623e-05
1.51516e-05
1.14443e-05
5.46844e-06
2.1257e-06
1.28585e-07
4.50138e-09
1.70086e-06
4.43166e-06
4.99427e-06
4.10633e-06
3.4201e-06
3.03498e-06
2.94425e-06
3.20034e-06
3.9477e-06
5.51697e-06
8.46763e-06
1.1905e-05
1.34011e-05
1.36701e-05
1.21258e-05
1.10199e-05
1.04589e-05
1.03213e-05
1.04365e-05
1.04225e-05
9.48612e-06
7.17262e-06
4.56391e-06
2.67647e-06
1.62016e-06
1.33752e-06
1.98875e-06
4.0247e-06
7.7754e-06
1.10469e-05
9.49672e-06
4.93919e-06
2.01778e-06
1.25962e-07
4.6074e-09
2.60136e-06
3.24641e-06
3.34004e-06
3.74651e-06
4.45466e-06
5.55045e-06
7.28134e-06
1.01403e-05
1.45817e-05
1.70905e-05
1.81701e-05
1.90992e-05
1.94454e-05
1.73174e-05
1.58895e-05
1.52011e-05
1.50556e-05
1.52311e-05
1.54688e-05
1.54729e-05
1.49293e-05
1.34421e-05
1.08329e-05
7.71103e-06
5.01609e-06
3.17706e-06
2.24419e-06
2.30423e-06
3.74526e-06
7.30407e-06
9.68893e-06
5.01474e-06
1.94221e-06
1.28057e-07
5.73373e-09
2.79573e-06
3.88104e-06
5.27697e-06
7.50327e-06
1.0924e-05
1.54126e-05
1.79586e-05
1.84994e-05
1.89854e-05
1.94352e-05
1.98639e-05
2.02912e-05
2.07394e-05
2.12272e-05
1.98514e-05
1.89831e-05
1.88085e-05
1.91261e-05
1.96584e-05
2.00969e-05
2.00033e-05
1.90077e-05
1.69847e-05
1.41321e-05
1.0943e-05
8.01909e-06
5.82045e-06
4.61735e-06
4.70495e-06
6.75383e-06
1.1127e-05
6.35908e-06
2.07039e-06
1.22135e-07
7.19983e-09
3.08833e-06
4.10962e-06
5.28451e-06
6.82079e-06
8.65375e-06
1.07292e-05
1.31426e-05
1.59066e-05
1.79272e-05
1.85658e-05
1.92131e-05
1.9326e-05
1.7082e-05
1.52655e-05
1.43087e-05
1.42121e-05
1.48887e-05
1.62175e-05
1.79602e-05
1.9688e-05
2.0807e-05
2.09183e-05
1.99887e-05
1.81929e-05
1.57799e-05
1.30862e-05
1.05506e-05
8.66673e-06
7.94546e-06
9.10678e-06
1.27429e-05
8.12635e-06
2.30009e-06
1.10805e-07
1.11582e-08