/*--------------------------------*- C++ -*----------------------------------*\
| =========                 |                                                 |
| \\      /  F ield         | OpenFOAM: The Open Source CFD Toolbox           |
|  \\    /   O peration     | Version:  v2006                                 |
|   \\  /    A nd           | Website:  www.openfoam.com                      |
|    \\/     M anipulation  |                                                 |
\*---------------------------------------------------------------------------*/
FoamFile
{
    version     2.0;
    format      ascii;
    class       volScalarField;
    location    "19";
    object      k;
}
// * * * * * * * * * * * * * * * * * * * * * * * * * * * * * * * * * * * * * //

dimensions      [0 2 -2 0 0 0 0];


internalField   nonuniform List<scalar> 
78750
(
0.000185651
0.000149576
0.000155639
0.000150432
0.000143811
0.000137757
0.000132956
0.000129312
0.000126631
0.000124781
0.000123759
0.000123551
0.000123997
0.000125046
0.000126528
0.000128182
0.000129772
0.000131129
0.000132144
0.000132744
0.000132874
0.000132486
0.000131537
0.000129973
0.000127735
0.000124746
0.000120911
0.000116111
0.000110213
0.00010309
9.45707e-05
8.36358e-05
6.79661e-05
4.4326e-05
1.10118e-05
4.05329e-05
0.000255216
0.000334883
0.000350388
0.000341717
0.000326037
0.000310394
0.000296702
0.000285214
0.000275666
0.000267745
0.000261466
0.000256615
0.000252926
0.000250244
0.000248389
0.000247006
0.000245813
0.000244591
0.000243113
0.000241135
0.000238427
0.000234831
0.000230213
0.000224441
0.000217379
0.000208867
0.000198676
0.000186494
0.000171864
0.000154371
0.000133765
0.000109625
7.62289e-05
2.23568e-05
7.4537e-05
0.000170012
0.000210929
0.000217832
0.000206896
0.000192833
0.000182021
0.000175059
0.00017112
0.00016923
0.000168633
0.000169127
0.000170557
0.000172892
0.000175983
0.000179522
0.000183095
0.000186315
0.000188928
0.00019081
0.0001919
0.00019213
0.000191398
0.000189558
0.000186422
0.00018174
0.000175198
0.000166355
0.000154715
0.000140156
0.000123677
0.000107057
9.02074e-05
6.63871e-05
2.61512e-05
6.41603e-05
0.000142794
0.000179846
0.000198746
0.000206804
0.000207504
0.000204434
0.000199646
0.000194038
0.000188059
0.000182146
0.000177217
0.000174858
0.00017637
0.00018175
0.000189565
0.000197898
0.000205272
0.000211023
0.000215168
0.000217896
0.00021927
0.000219202
0.000217512
0.000214001
0.00020846
0.000200602
0.000189981
0.000175989
0.000158145
0.000137206
0.000115646
9.40836e-05
6.70608e-05
2.52641e-05
5.51508e-05
0.000124234
0.000158871
0.00017857
0.000190055
0.000193636
0.00019077
0.000183129
0.000171959
0.000158315
0.000143837
0.000131807
0.000126773
0.000130294
0.000140446
0.000153898
0.000167458
0.000178901
0.00018727
0.000192951
0.000196509
0.000198219
0.000198189
0.000196349
0.000192613
0.00018696
0.000179373
0.00016965
0.000157242
0.00014155
0.000123179
0.000104016
8.54631e-05
6.24252e-05
2.75109e-05
4.00676e-05
0.000104379
0.000138304
0.000158281
0.000172081
0.000179935
0.000181365
0.00017644
0.000165501
0.00015
0.000134506
0.000126038
0.000128924
0.00014147
0.000159036
0.000177017
0.000192351
0.000203744
0.000211264
0.000215711
0.000217886
0.000218255
0.000216952
0.00021392
0.000209098
0.000202641
0.00019502
0.000186793
0.000177776
0.000166697
0.000151688
0.00013161
0.00010697
7.66193e-05
3.34249e-05
3.09845e-05
9.0078e-05
0.000123528
0.000141581
0.000151338
0.000153199
0.000145179
0.00012812
0.000110336
0.000101877
0.000107168
0.000124053
0.000146677
0.000169035
0.000187088
0.000199421
0.000206588
0.000209919
0.000210642
0.000209579
0.00020713
0.000203349
0.000197958
0.000190455
0.000180509
0.000168604
0.000156325
0.000145704
0.000138165
0.000133755
0.000129412
0.000120364
0.000104731
7.99346e-05
4.03635e-05
3.19555e-05
8.3857e-05
0.00011009
0.00011869
0.000115876
0.000105233
9.65463e-05
9.96712e-05
0.000116713
0.000142461
0.000168592
0.000189116
0.000202284
0.000209424
0.000212767
0.000214204
0.000214797
0.000214862
0.000214269
0.000212748
0.000210002
0.000205593
0.000198707
0.000188218
0.000173718
0.000157025
0.000142191
0.000132743
0.000129045
0.000127067
0.000122315
0.000112141
9.82249e-05
7.67433e-05
3.69671e-05
3.50796e-05
7.29701e-05
8.93192e-05
8.92479e-05
8.15719e-05
7.97059e-05
9.24598e-05
0.000115644
0.000140122
0.000159563
0.000173069
0.000182568
0.000190069
0.000196536
0.000202131
0.000206576
0.000209627
0.000211191
0.000211242
0.000209722
0.000206404
0.000200736
0.000191706
0.000178084
0.000159518
0.000138231
0.000119925
0.000110916
0.000111465
0.000113689
0.000111415
0.000102996
9.03513e-05
6.97377e-05
3.20327e-05
3.84947e-05
6.69505e-05
7.88106e-05
8.07434e-05
8.47359e-05
0.000100874
0.000125037
0.000148232
0.000165967
0.00017819
0.000186706
0.000193271
0.000198756
0.000203447
0.00020737
0.000210517
0.000212862
0.000214338
0.000214812
0.00021409
0.000211854
0.000207541
0.00020014
0.00018812
0.000170002
0.000146053
0.000120635
0.00010225
9.72177e-05
9.94205e-05
9.97241e-05
9.41043e-05
8.32568e-05
6.37816e-05
2.92992e-05
4.03864e-05
6.5734e-05
7.77844e-05
8.43164e-05
9.57721e-05
0.000114834
0.000134343
0.000149344
0.000159562
0.000166668
0.000172711
0.000179023
0.000185886
0.000192767
0.000198972
0.000204096
0.000208029
0.000210787
0.000212367
0.000212696
0.000211567
0.000208596
0.000203107
0.000193977
0.000179606
0.000158598
0.000131777
0.000104832
8.76898e-05
8.34088e-05
8.46072e-05
8.27967e-05
7.51615e-05
5.8698e-05
2.94948e-05
3.80827e-05
6.52279e-05
7.94976e-05
9.00878e-05
0.000105312
0.000123293
0.000138039
0.00014726
0.000152697
0.000156753
0.000161449
0.000168083
0.000176565
0.000185673
0.000194064
0.000201039
0.000206508
0.000210611
0.000213472
0.000215117
0.000215432
0.000214137
0.000210727
0.000204351
0.000193661
0.000176862
0.000152636
0.000122539
9.39178e-05
7.71653e-05
7.23924e-05
7.13496e-05
6.6507e-05
5.38432e-05
3.01983e-05
3.43227e-05
6.50045e-05
8.18367e-05
9.45423e-05
0.000109852
0.000124814
0.000135101
0.000139848
0.000141326
0.000142595
0.000146072
0.000153417
0.000164209
0.000176208
0.000187105
0.000195856
0.000202491
0.000207389
0.000210872
0.00021313
0.000214198
0.000213944
0.000212034
0.000207864
0.000200426
0.000188154
0.000169145
0.00014226
0.00011024
8.24741e-05
6.71495e-05
6.19081e-05
5.79222e-05
4.8429e-05
3.03878e-05
2.72159e-05
5.9512e-05
7.99797e-05
9.4226e-05
0.000107923
0.000120705
0.000128945
0.000131439
0.000129565
0.000127202
0.000129177
0.00013806
0.000152626
0.000168843
0.000183121
0.000194107
0.000202084
0.000207789
0.000211821
0.00021457
0.000216227
0.000216798
0.000216085
0.000213654
0.000208762
0.000200288
0.000186476
0.000165397
0.000136376
0.000103808
7.80846e-05
6.34209e-05
5.54164e-05
4.58225e-05
3.06582e-05
2.06373e-05
5.24348e-05
7.4856e-05
8.96186e-05
0.000101677
0.000111917
0.000117375
0.000116707
0.00011183
0.000109136
0.000115966
0.000132499
0.000153393
0.000172639
0.000187326
0.000197504
0.000204327
0.000208879
0.000211915
0.000213926
0.000215171
0.000215701
0.000215363
0.000213784
0.000210329
0.000204119
0.000193932
0.000178078
0.000155233
0.000126335
9.81125e-05
7.66993e-05
6.24101e-05
4.89731e-05
3.16774e-05
1.76239e-05
4.8554e-05
7.08913e-05
8.47421e-05
9.42225e-05
9.98677e-05
9.96646e-05
9.51955e-05
9.35741e-05
0.000103442
0.000125004
0.000150577
0.00017273
0.000188587
0.00019893
0.000205477
0.000209648
0.000212397
0.000214321
0.000215756
0.000216823
0.000217464
0.000217461
0.000216425
0.000213747
0.000208622
0.000199959
0.000186462
0.00016689
0.000141584
0.00011508
9.18674e-05
7.33366e-05
5.52434e-05
3.28471e-05
1.78391e-05
4.6942e-05
6.6928e-05
7.7538e-05
8.24681e-05
8.29036e-05
8.15858e-05
8.56846e-05
0.000101285
0.00012677
0.00015312
0.000174008
0.000188264
0.000197381
0.000203138
0.000206826
0.000209294
0.000211083
0.000212511
0.000213737
0.000214774
0.000215509
0.000215704
0.000214978
0.000212766
0.000208361
0.000200817
0.000189036
0.00017207
0.000150038
0.000126185
0.000103324
8.28783e-05
6.14128e-05
3.4162e-05
1.92959e-05
4.56029e-05
6.23539e-05
7.04897e-05
7.39104e-05
7.68316e-05
8.56638e-05
0.000104432
0.000130903
0.000156413
0.000176016
0.000189552
0.000198426
0.000204029
0.000207486
0.000209632
0.000211073
0.000212213
0.000213282
0.000214365
0.000215403
0.000216211
0.000216478
0.000215759
0.000213439
0.000208797
0.000200978
0.000189162
0.000172888
0.000152864
0.000131128
0.000109024
8.83198e-05
6.55375e-05
3.56857e-05
2.04687e-05
4.43328e-05
5.90616e-05
6.72354e-05
7.36188e-05
8.39334e-05
0.000102052
0.000126246
0.000150602
0.000169945
0.000183623
0.000192635
0.000198222
0.000201462
0.000203283
0.000204392
0.000205284
0.000206263
0.000207457
0.000208858
0.000210321
0.000211579
0.000212247
0.000211797
0.000209549
0.000204759
0.000196696
0.000184917
0.000169574
0.000151768
0.000131918
0.000110621
9.04054e-05
6.77642e-05
3.73785e-05
2.09844e-05
4.46253e-05
5.92139e-05
6.96058e-05
8.15407e-05
9.85789e-05
0.000120566
0.000143877
0.000163789
0.0001784
0.000188196
0.000194297
0.000197801
0.000199616
0.000200508
0.000201065
0.0002017
0.000202661
0.000204035
0.000205763
0.000207644
0.000209336
0.000210357
0.000210055
0.00020761
0.000202182
0.000193178
0.000180714
0.000165858
0.000149596
0.000131013
0.000110249
9.07517e-05
6.90151e-05
3.92875e-05
2.12172e-05
4.63192e-05
6.23012e-05
7.52402e-05
9.10764e-05
0.000110349
0.000130783
0.000149487
0.000164443
0.000175053
0.000181962
0.000186081
0.000188249
0.00018917
0.000189474
0.000189698
0.000190247
0.000191366
0.000193132
0.000195468
0.00019813
0.000200717
0.000202653
0.000203153
0.000201224
0.00019585
0.000186477
0.000173776
0.000159834
0.000145068
0.00012795
0.000108274
8.97466e-05
6.91291e-05
4.09214e-05
2.07549e-05
4.77211e-05
6.51731e-05
7.96873e-05
9.69208e-05
0.000115659
0.000133161
0.000147875
0.000159586
0.000168253
0.000174255
0.000178053
0.000180101
0.000180879
0.000180951
0.000180887
0.000181168
0.000182126
0.000183914
0.000186508
0.000189695
0.000193066
0.000195992
0.000197581
0.000196667
0.000191969
0.000182694
0.00016967
0.000155686
0.000141207
0.000124907
0.000106351
8.87006e-05
6.90735e-05
4.28488e-05
1.93735e-05
4.67846e-05
6.5689e-05
8.08801e-05
9.71686e-05
0.000113726
0.000127839
0.000138872
0.000147843
0.000155494
0.000161591
0.000165818
0.00016812
0.000168801
0.000168473
0.000167841
0.000167538
0.000168031
0.000169576
0.000172231
0.000175839
0.000180035
0.000184201
0.000187399
0.000188338
0.000185477
0.000177657
0.000165468
0.000151712
0.000137108
0.000121134
0.000103571
8.68792e-05
6.84348e-05
4.46225e-05
1.78319e-05
4.47754e-05
6.46304e-05
7.97831e-05
9.44552e-05
0.000108891
0.000120766
0.000130006
0.000138003
0.000145909
0.000152907
0.000157906
0.000160475
0.000160893
0.000159877
0.000158275
0.000156872
0.000156298
0.000156962
0.000159042
0.00016248
0.000167009
0.000172094
0.000176799
0.000179744
0.000179141
0.000173441
0.000162744
0.00014938
0.000134347
0.000118145
0.000101123
8.52392e-05
6.78769e-05
4.59541e-05
1.69774e-05
4.29189e-05
6.29487e-05
7.74003e-05
9.0328e-05
0.000102957
0.000113498
0.000122092
0.000129974
0.000138062
0.000145425
0.000150483
0.000152669
0.000152345
0.000150315
0.000147487
0.00014473
0.000142821
0.00014234
0.000143598
0.000146636
0.000151319
0.000157273
0.000163644
0.000168914
0.000171045
0.000168168
0.00015984
0.000147513
0.000132168
0.000115365
9.84641e-05
8.32148e-05
6.67799e-05
4.61615e-05
1.63533e-05
4.09074e-05
6.03483e-05
7.40666e-05
8.57763e-05
9.7254e-05
0.000107521
0.000116676
0.000125419
0.000133919
0.000141164
0.000145701
0.000147134
0.000145932
0.000142877
0.000138796
0.000134512
0.000130906
0.000128783
0.000128667
0.000130742
0.000135053
0.000141518
0.000149452
0.000157183
0.000162385
0.000162881
0.000157701
0.000147296
0.000132231
0.00011478
9.74796e-05
8.22871e-05
6.59959e-05
4.52656e-05
1.55899e-05
3.84534e-05
5.70836e-05
7.0263e-05
8.11931e-05
9.20667e-05
0.000102589
0.000112486
0.000121695
0.000129804
0.000136069
0.00013966
0.000140325
0.000138491
0.000134769
0.000129758
0.000124134
0.000118804
0.000114807
0.000112955
0.000113593
0.000116985
0.000123528
0.000132921
0.000143452
0.00015244
0.000157248
0.000156263
0.000148771
0.000134556
0.000116247
9.7845e-05
8.22935e-05
6.58701e-05
4.46074e-05
1.40441e-05
3.50085e-05
5.26724e-05
6.55621e-05
7.62229e-05
8.70025e-05
9.80206e-05
0.00010845
0.000117695
0.00012523
0.000130626
0.000133495
0.000133692
0.000131509
0.000127351
0.0001216
0.000114763
0.000107719
0.000101731
9.79368e-05
9.67489e-05
9.85438e-05
0.000104262
0.000114268
0.000127282
0.000140522
0.000150901
0.000156208
0.00015415
0.000143157
0.000124974
0.000104485
8.69835e-05
6.88103e-05
4.52489e-05
1.22946e-05
3.15641e-05
4.83436e-05
6.12733e-05
7.21021e-05
8.28886e-05
9.38834e-05
0.000104072
0.000112771
0.000119502
0.000123953
0.000125926
0.000125375
0.000122463
0.000117464
0.000110686
0.000102659
9.44369e-05
8.75137e-05
8.31331e-05
8.14469e-05
8.26375e-05
8.78855e-05
9.80891e-05
0.000112514
0.000128815
0.000143914
0.000155034
0.000158669
0.000152368
0.000136519
0.00011557
9.65418e-05
7.64588e-05
5.02414e-05
1.08492e-05
2.9174e-05
4.52839e-05
5.83132e-05
6.95034e-05
8.05471e-05
9.15972e-05
0.000101606
0.000109761
0.000115478
0.000118453
0.000118616
0.000116053
0.000110956
0.000103671
9.48686e-05
8.58068e-05
7.8193e-05
7.34261e-05
7.17891e-05
7.26657e-05
7.64086e-05
8.42901e-05
9.68981e-05
0.000113666
0.000132624
0.000151101
0.000165371
0.000171608
0.000166921
0.000150838
0.000127946
0.000107001
8.4824e-05
5.37202e-05
1.08032e-05
3.09796e-05
4.79296e-05
6.14449e-05
7.30522e-05
8.42777e-05
9.49038e-05
0.000103567
0.000109335
0.000111783
0.000110962
0.000107191
0.000100779
9.22308e-05
8.26212e-05
7.38422e-05
6.80763e-05
6.64693e-05
6.81892e-05
7.15984e-05
7.6457e-05
8.41301e-05
9.61651e-05
0.000113185
0.000133718
0.000154474
0.0001714
0.000182126
0.000184873
0.00017796
0.000161382
0.000139456
0.000116818
8.94326e-05
4.99e-05
1.06904e-05
3.36449e-05
5.20374e-05
6.60353e-05
7.74756e-05
8.77948e-05
9.673e-05
0.000102969
0.000105792
0.000105072
0.000101194
9.48534e-05
8.68862e-05
7.85513e-05
7.17983e-05
6.85804e-05
6.94533e-05
7.29302e-05
7.67433e-05
7.97271e-05
8.20231e-05
8.49091e-05
9.12117e-05
0.000104274
0.000125373
0.000150917
0.000171755
0.000182313
0.000181912
0.000171913
0.000154645
0.00013419
0.000111892
8.27257e-05
4.10317e-05
9.16522e-06
3.26481e-05
5.14226e-05
6.50812e-05
7.55638e-05
8.42783e-05
9.11956e-05
9.5618e-05
9.68962e-05
9.47807e-05
8.96002e-05
8.25062e-05
7.54732e-05
7.02931e-05
6.8408e-05
7.03032e-05
7.51117e-05
8.10866e-05
8.66301e-05
9.07166e-05
9.25413e-05
9.13319e-05
8.70901e-05
8.2311e-05
8.30763e-05
9.57529e-05
0.000121645
0.000150292
0.000168681
0.000170387
0.0001581
0.000138633
0.000114936
8.31365e-05
4.09767e-05
7.18551e-06
2.93519e-05
4.66523e-05
5.93623e-05
6.89647e-05
7.58815e-05
7.96927e-05
7.96769e-05
7.58153e-05
6.95724e-05
6.37137e-05
6.08128e-05
6.19516e-05
6.71406e-05
7.55338e-05
8.5599e-05
9.54982e-05
0.000103852
0.000110217
0.000114675
0.000117412
0.000118615
0.000118143
0.000114981
0.00010811
9.91231e-05
9.46476e-05
0.000102153
0.00011995
0.000137028
0.000142644
0.00013521
0.000118131
9.0252e-05
5.26395e-05
7.6869e-06
2.92748e-05
4.48597e-05
5.41465e-05
5.84605e-05
5.83959e-05
5.47613e-05
5.06912e-05
5.00187e-05
5.48899e-05
6.49951e-05
7.86947e-05
9.39351e-05
0.000108677
0.000121077
0.000130007
0.000135433
0.000137889
0.000137944
0.000136195
0.000133443
0.000130725
0.000128942
0.000128274
0.000127845
0.000126217
0.000122727
0.000119154
0.000120272
0.000127078
0.000132706
0.000130071
0.000118337
9.647e-05
6.58559e-05
1.04279e-05
2.79275e-05
3.96637e-05
4.58907e-05
4.86535e-05
5.10917e-05
5.74922e-05
7.01371e-05
8.77085e-05
0.000106877
0.000123883
0.000136089
0.000142986
0.000145516
0.000144921
0.000142331
0.000138558
0.000134105
0.000129305
0.000124554
0.000120417
0.000117524
0.000116378
0.000117166
0.000119691
0.000123403
0.000126862
0.000128463
0.00012867
0.000129704
0.00013081
0.000127686
0.000118228
0.000100399
7.38001e-05
1.3507e-05
3.14773e-05
4.4178e-05
5.37251e-05
6.30191e-05
7.43046e-05
8.87151e-05
0.000102767
0.00011317
0.000119516
0.000123127
0.00012558
0.00012807
0.000130987
0.000134078
0.000136874
0.000138982
0.000140109
0.000140006
0.000138536
0.000135871
0.000132617
0.000129618
0.000127665
0.000127335
0.000128942
0.000131842
0.000134483
0.000135647
0.000135515
0.000134214
0.000129787
0.000121028
0.000106033
8.3324e-05
1.27996e-05
3.34869e-05
4.77097e-05
5.84029e-05
6.78778e-05
7.73439e-05
8.8074e-05
9.85014e-05
0.000108189
0.000117195
0.000125466
0.000132717
0.000138685
0.000143269
0.000146495
0.000148439
0.000149184
0.000148792
0.000147314
0.00014489
0.000141903
0.000139087
0.000137327
0.000137264
0.000139092
0.00014233
0.000145703
0.000147744
0.000147381
0.000144652
0.000140191
0.000133656
0.000124783
0.000111763
9.2951e-05
8.94261e-06
2.90823e-05
4.2523e-05
5.2065e-05
5.99299e-05
6.73225e-05
7.61977e-05
8.59105e-05
9.53356e-05
0.000103947
0.000111689
0.00011868
0.000125009
0.000130616
0.000135378
0.000139197
0.000142001
0.000143698
0.000144125
0.000143061
0.000140437
0.00013686
0.000133842
0.00013318
0.000136095
0.000142166
0.000149019
0.000154217
0.000155895
0.000153326
0.000147067
0.00013823
0.000127843
0.00011441
9.68503e-05
7.12624e-06
2.60035e-05
3.90666e-05
4.908e-05
5.845e-05
6.85862e-05
8.07903e-05
9.36871e-05
0.000105941
0.000116755
0.000125806
0.000133091
0.000138819
0.000143254
0.000146632
0.000149117
0.000150779
0.000151593
0.000151428
0.000150054
0.000147191
0.000142883
0.000138136
0.00013502
0.00013586
0.000141153
0.000148329
0.000154616
0.000157852
0.000156733
0.000150977
0.00014173
0.000130029
0.000114674
9.68178e-05
7.59132e-06
2.63743e-05
4.00668e-05
5.16188e-05
6.34942e-05
7.59159e-05
8.85871e-05
9.99372e-05
0.000109052
0.000116025
0.000121506
0.000126225
0.000130635
0.000134799
0.00013855
0.000141677
0.000143997
0.000145341
0.000145508
0.000144264
0.000141472
0.000137548
0.000133838
0.000132449
0.000135491
0.000141925
0.000148784
0.000153839
0.000155688
0.000153534
0.000147093
0.000137421
0.000124345
0.000106466
8.57925e-05
7.52802e-06
2.6697e-05
4.09565e-05
5.29145e-05
6.48837e-05
7.63939e-05
8.65888e-05
9.51285e-05
0.000102027
0.000107891
0.000113568
0.000119621
0.000126029
0.000132367
0.000138173
0.000143126
0.000146985
0.000149502
0.000150382
0.000149274
0.000145802
0.000140094
0.000133742
0.000129825
0.000131447
0.000137593
0.000143842
0.000147508
0.000147789
0.000144692
0.000138378
0.000129447
0.000116651
9.79639e-05
7.48423e-05
7.08781e-06
2.63934e-05
4.07582e-05
5.21717e-05
6.28466e-05
7.24929e-05
8.02623e-05
8.65282e-05
9.22602e-05
9.83789e-05
0.000105478
0.000113384
0.000121331
0.000128603
0.000134912
0.000140278
0.000144746
0.00014822
0.000150397
0.000150804
0.000148826
0.000143955
0.000136705
0.000129925
0.000128285
0.000133455
0.000140422
0.000144545
0.000144442
0.000140849
0.000134596
0.000126178
0.000113819
9.4073e-05
6.84672e-05
7.31759e-06
2.56615e-05
3.959e-05
5.04062e-05
6.02692e-05
6.92628e-05
7.67304e-05
8.32874e-05
9.04819e-05
9.90397e-05
0.000108531
0.000117842
0.00012594
0.000132461
0.000137619
0.000141832
0.000145428
0.000148515
0.000150915
0.000152151
0.000151443
0.000147873
0.000140971
0.000132095
0.000125753
0.000126714
0.000133105
0.000139015
0.000140185
0.000136799
0.000130578
0.000122243
0.000109657
8.93894e-05
6.39224e-05
7.66981e-06
2.54552e-05
3.90896e-05
4.96503e-05
5.89654e-05
6.7209e-05
7.40829e-05
8.01336e-05
8.68327e-05
9.51041e-05
0.000103812
0.00011171
0.00011814
0.000123171
0.000127262
0.000130923
0.000134561
0.000138413
0.000142457
0.000146337
0.000149278
0.00015016
0.000147719
0.000141251
0.000132542
0.00012709
0.000128808
0.000135546
0.000140092
0.000137877
0.000130743
0.000121938
0.00010982
9.0429e-05
6.53891e-05
7.64031e-06
2.46273e-05
3.75861e-05
4.72384e-05
5.53356e-05
6.23321e-05
6.84615e-05
7.45898e-05
8.19027e-05
9.06966e-05
9.94539e-05
0.000106906
0.000112593
0.00011678
0.000120031
0.000122835
0.000125594
0.000128727
0.000132539
0.00013702
0.000141659
0.000145393
0.000146687
0.000143954
0.000136539
0.000126917
0.000120337
0.000122534
0.000132305
0.000140222
0.000139178
0.000131286
0.000118342
9.72038e-05
6.89987e-05
6.43254e-06
1.93899e-05
2.98723e-05
3.79434e-05
4.51016e-05
5.22721e-05
5.97631e-05
6.79821e-05
7.70043e-05
8.61353e-05
9.41853e-05
0.000100419
0.000104943
0.000108294
0.000110931
0.000113226
0.000115611
0.00011857
0.000122559
0.000127917
0.000134629
0.000142092
0.000148904
0.000152957
0.000152022
0.000144464
0.000130919
0.000117497
0.000113273
0.000120052
0.000128126
0.000127934
0.00011859
9.84901e-05
7.15801e-05
5.91375e-06
1.92787e-05
2.97669e-05
3.83275e-05
4.66352e-05
5.53389e-05
6.42645e-05
7.29351e-05
8.0851e-05
8.74649e-05
9.25084e-05
9.61056e-05
9.87039e-05
0.000100749
0.000102544
0.000104303
0.000106253
0.000108657
0.000111755
0.000115877
0.000121407
0.000128681
0.000137636
0.000147292
0.000155553
0.0001592
0.000154748
0.000140865
0.000121964
0.000108
0.000104789
0.000106633
0.000103949
9.24112e-05
7.752e-05
6.3095e-06
2.63904e-05
4.05082e-05
5.11634e-05
6.0088e-05
6.73455e-05
7.31314e-05
7.76825e-05
8.10577e-05
8.34797e-05
8.53828e-05
8.72439e-05
8.93636e-05
9.18186e-05
9.45952e-05
9.77215e-05
0.000101266
0.000105274
0.000109786
0.000114946
0.000121008
0.000128324
0.00013732
0.000148111
0.000160061
0.000171272
0.00017848
0.000177932
0.000167056
0.000147356
0.000126283
0.000111633
0.000104334
9.89103e-05
9.35054e-05
6.04902e-06
2.81388e-05
4.27679e-05
5.31539e-05
6.04221e-05
6.50979e-05
6.82203e-05
7.01073e-05
7.13012e-05
7.25388e-05
7.465e-05
7.8052e-05
8.25067e-05
8.78121e-05
9.37679e-05
0.000100501
0.00010829
0.000116901
0.000126392
0.000136923
0.000148279
0.000159963
0.000171626
0.00018325
0.000194868
0.000206024
0.000215123
0.000218915
0.000212659
0.000193234
0.000165141
0.000140991
0.000127396
0.000116367
9.46419e-05
4.31383e-06
2.43854e-05
3.81953e-05
4.72166e-05
5.29422e-05
5.6019e-05
5.68256e-05
5.62889e-05
5.55602e-05
5.59181e-05
5.85903e-05
6.38499e-05
7.08759e-05
7.95261e-05
9.01367e-05
0.000102997
0.000117771
0.000132697
0.000146925
0.000159889
0.000171031
0.000180284
0.000188139
0.000195182
0.000201695
0.000207435
0.000211479
0.000211989
0.000206228
0.00019239
0.000172958
0.000154559
0.000137024
0.000111142
6.8484e-05
2.52936e-06
1.79364e-05
2.97401e-05
3.85237e-05
4.49507e-05
4.93432e-05
5.18622e-05
5.25412e-05
5.12702e-05
4.78094e-05
4.21668e-05
3.62087e-05
3.4344e-05
4.06442e-05
5.43984e-05
7.19374e-05
9.2067e-05
0.000113661
0.000134671
0.000154149
0.000171472
0.000186285
0.000198081
0.000206093
0.000209644
0.000208346
0.000202319
0.000192407
0.000179913
0.000165865
0.000150836
0.00013485
0.000114699
8.43477e-05
4.31052e-05
2.00927e-06
1.36821e-05
2.30309e-05
2.99323e-05
3.46185e-05
3.73018e-05
3.83338e-05
3.82001e-05
3.74518e-05
3.6617e-05
3.60965e-05
3.60511e-05
3.62494e-05
3.60203e-05
3.46989e-05
3.25066e-05
3.08966e-05
3.21503e-05
3.79935e-05
4.87645e-05
6.37128e-05
8.20851e-05
0.000102926
0.000124865
0.000146288
0.000165202
0.000179114
0.000185422
0.000182628
0.000171461
0.000154959
0.000135716
0.000111406
7.78026e-05
3.9722e-05
2.48961e-06
1.03431e-05
1.67675e-05
2.18446e-05
2.60748e-05
2.9803e-05
3.33676e-05
3.70122e-05
4.06948e-05
4.42584e-05
4.75176e-05
5.03281e-05
5.26417e-05
5.44982e-05
5.59604e-05
5.70485e-05
5.7708e-05
5.79105e-05
5.76867e-05
5.72821e-05
5.71455e-05
5.76318e-05
5.86936e-05
6.00874e-05
6.19904e-05
6.5761e-05
7.36884e-05
8.66565e-05
0.00010214
0.000115366
0.00012215
0.000120319
0.000108822
8.71708e-05
6.51234e-05
2.10979e-06
1.23578e-05
2.22617e-05
3.24744e-05
4.24057e-05
5.1428e-05
5.91697e-05
6.54393e-05
7.02087e-05
7.35232e-05
7.54476e-05
7.62219e-05
7.64612e-05
7.68323e-05
7.76472e-05
7.87169e-05
7.95464e-05
7.94711e-05
7.78385e-05
7.46256e-05
7.10427e-05
6.89548e-05
6.94291e-05
7.20506e-05
7.5462e-05
7.85913e-05
8.17006e-05
8.62604e-05
9.34866e-05
0.00010254
0.000110138
0.000112305
0.000107551
9.73718e-05
9.10645e-05
1.79842e-06
2.36727e-05
4.32445e-05
5.93259e-05
7.08147e-05
7.77131e-05
8.05516e-05
8.01301e-05
7.73333e-05
7.24951e-05
6.55279e-05
5.72054e-05
5.06065e-05
4.99384e-05
5.70515e-05
6.87043e-05
8.01648e-05
8.9409e-05
9.65499e-05
0.000102485
0.000107984
0.000113297
0.000118253
0.000122391
0.00012526
0.000126608
0.000126273
0.000124521
0.000122118
0.000119549
0.000116326
0.000111722
0.000104964
9.44275e-05
8.09092e-05
2.49166e-06
3.0303e-05
5.06039e-05
6.22544e-05
6.7311e-05
6.91084e-05
6.93098e-05
6.80045e-05
6.4833e-05
5.95943e-05
5.35817e-05
5.0348e-05
5.32757e-05
6.35375e-05
7.87884e-05
9.42298e-05
0.000107263
0.000117754
0.000126305
0.000133958
0.000141395
0.000148512
0.000154893
0.000159995
0.000163218
0.00016386
0.000161282
0.000155275
0.000146355
0.00013558
0.000124187
0.000113407
0.000102015
8.61743e-05
6.33431e-05
3.29764e-06
2.19675e-05
3.61284e-05
4.76681e-05
5.70452e-05
6.4971e-05
7.16145e-05
7.63124e-05
7.81832e-05
7.67426e-05
7.13289e-05
6.2813e-05
5.44742e-05
4.9994e-05
5.28159e-05
6.52182e-05
8.64548e-05
0.000111924
0.000135852
0.000154853
0.000168485
0.000177799
0.000183949
0.000187625
0.000189001
0.000187791
0.000183441
0.000175495
0.000163941
0.000149527
0.000133857
0.000118596
0.000102497
8.17738e-05
5.50177e-05
3.40238e-06
1.6668e-05
2.56238e-05
3.1056e-05
3.40565e-05
3.78621e-05
4.62095e-05
5.92637e-05
7.28189e-05
8.26871e-05
8.79196e-05
8.91456e-05
8.61535e-05
7.86898e-05
6.87893e-05
6.02469e-05
5.71574e-05
6.3223e-05
8.04729e-05
0.000107749
0.000138932
0.00016655
0.00018639
0.000198081
0.000202859
0.000202053
0.000196646
0.000187234
0.000174196
0.000158111
0.00014027
0.000122101
0.00010265
7.93789e-05
5.30016e-05
4.47162e-06
1.83517e-05
2.83324e-05
3.58327e-05
4.22346e-05
4.90443e-05
5.64416e-05
6.32217e-05
6.86211e-05
7.30037e-05
7.69614e-05
8.06404e-05
8.36785e-05
8.53957e-05
8.48214e-05
8.10138e-05
7.4219e-05
6.68266e-05
6.3114e-05
6.76196e-05
8.39329e-05
0.000112016
0.000145347
0.000174686
0.000194496
0.000203769
0.00020359
0.000195703
0.000181954
0.000164151
0.00014422
0.000123775
0.000102328
7.85995e-05
5.40412e-05
6.137e-06
1.98554e-05
2.95386e-05
3.63535e-05
4.15519e-05
4.64176e-05
5.26385e-05
6.04015e-05
6.84662e-05
7.53588e-05
8.0501e-05
8.43533e-05
8.72617e-05
8.92664e-05
9.03788e-05
9.03394e-05
8.85234e-05
8.42693e-05
7.78309e-05
7.13961e-05
6.87646e-05
7.4368e-05
9.21198e-05
0.000120984
0.000152901
0.000178613
0.000193399
0.000196591
0.000189438
0.000174384
0.000154551
0.000132747
0.000109516
8.44625e-05
5.89466e-05
6.83972e-06
2.05578e-05
3.02066e-05
3.68145e-05
4.16936e-05
4.5873e-05
5.07425e-05
5.67404e-05
6.29264e-05
6.85269e-05
7.32782e-05
7.7416e-05
8.12374e-05
8.4731e-05
8.76959e-05
8.9929e-05
9.12011e-05
9.1034e-05
8.87895e-05
8.43002e-05
7.88137e-05
7.48014e-05
7.58239e-05
8.65375e-05
0.000108473
0.000136319
0.000161299
0.00017741
0.000182589
0.000177269
0.000163702
0.000144909
0.000122347
9.64907e-05
6.93222e-05
7.67129e-06
2.19261e-05
3.19261e-05
3.87851e-05
4.37802e-05
4.75803e-05
5.12806e-05
5.55455e-05
5.99593e-05
6.42359e-05
6.84163e-05
7.25305e-05
7.65945e-05
8.06288e-05
8.44487e-05
8.76671e-05
8.99764e-05
9.10305e-05
9.02449e-05
8.7187e-05
8.22153e-05
7.74055e-05
7.49951e-05
7.82938e-05
9.06601e-05
0.000111619
0.000135465
0.000155522
0.000167526
0.000170064
0.000163678
0.000150324
0.000131383
0.00010761
8.13752e-05
7.916e-06
2.28561e-05
3.31521e-05
3.97077e-05
4.38377e-05
4.58047e-05
4.65407e-05
4.74525e-05
4.91974e-05
5.172e-05
5.51539e-05
5.95439e-05
6.46298e-05
7.00039e-05
7.54062e-05
8.04348e-05
8.44126e-05
8.68505e-05
8.70014e-05
8.39009e-05
7.76156e-05
7.05632e-05
6.7007e-05
7.1213e-05
8.70446e-05
0.000112765
0.000139382
0.000159143
0.000169623
0.000170907
0.000164114
0.000151168
0.000132925
0.000109676
8.28075e-05
5.62681e-06
2.02433e-05
3.13404e-05
3.83868e-05
4.23892e-05
4.38259e-05
4.28752e-05
4.04087e-05
3.80247e-05
3.73499e-05
3.8864e-05
4.24238e-05
4.76436e-05
5.39803e-05
6.0777e-05
6.76752e-05
7.41862e-05
7.94657e-05
8.24364e-05
8.1397e-05
7.51622e-05
6.4913e-05
5.53744e-05
5.36139e-05
6.75216e-05
9.99297e-05
0.000140449
0.000172188
0.000187372
0.000187497
0.000176323
0.000157317
0.000132584
0.000103309
6.97664e-05
3.0423e-06
1.63485e-05
2.69085e-05
3.37715e-05
3.73777e-05
3.82667e-05
3.68156e-05
3.38146e-05
3.05393e-05
2.84076e-05
2.84565e-05
3.09253e-05
3.53668e-05
4.10122e-05
4.72348e-05
5.38324e-05
6.0916e-05
6.84114e-05
7.55461e-05
8.06391e-05
8.13232e-05
7.54154e-05
6.2937e-05
4.84499e-05
4.05573e-05
4.95837e-05
7.96928e-05
0.000120918
0.000155712
0.000173282
0.000173102
0.00015857
0.000132584
9.80411e-05
5.83972e-05
1.98959e-06
1.04009e-05
1.68925e-05
2.11183e-05
2.33583e-05
2.40454e-05
2.3964e-05
2.41182e-05
2.53505e-05
2.81456e-05
3.25666e-05
3.81921e-05
4.4276e-05
5.03238e-05
5.6088e-05
6.15455e-05
6.68389e-05
7.21337e-05
7.76441e-05
8.32884e-05
8.81973e-05
9.05332e-05
8.77707e-05
7.77936e-05
6.12148e-05
4.42649e-05
3.7676e-05
4.95159e-05
7.67899e-05
0.000106052
0.000124788
0.000129098
0.000117852
9.12371e-05
5.71007e-05
2.03612e-06
1.1092e-05
1.91872e-05
2.65923e-05
3.31686e-05
3.88979e-05
4.41902e-05
4.95483e-05
5.51266e-05
6.06043e-05
6.57149e-05
7.03662e-05
7.4425e-05
7.78161e-05
8.06694e-05
8.32097e-05
8.56975e-05
8.84896e-05
9.19127e-05
9.61214e-05
0.000101
0.000105941
0.000109407
0.000109072
0.00010232
8.7752e-05
6.81763e-05
5.23151e-05
5.01184e-05
6.35349e-05
8.28709e-05
9.61973e-05
9.67943e-05
8.1546e-05
5.78714e-05
2.53325e-06
2.02522e-05
3.56841e-05
4.82819e-05
5.72353e-05
6.29834e-05
6.67099e-05
6.94767e-05
7.18341e-05
7.39713e-05
7.59632e-05
7.78729e-05
7.97859e-05
8.18025e-05
8.40089e-05
8.65091e-05
8.94656e-05
9.30685e-05
9.7517e-05
0.000102987
0.000109598
0.000116797
0.000123706
0.000129116
0.000131285
0.000128099
0.000117899
0.000101898
8.64681e-05
8.01323e-05
8.39895e-05
8.95606e-05
8.82348e-05
7.56138e-05
5.50444e-05
3.18067e-06
2.47309e-05
4.10007e-05
5.13517e-05
5.66929e-05
5.95313e-05
6.1781e-05
6.41473e-05
6.66975e-05
6.93801e-05
7.21651e-05
7.50136e-05
7.79057e-05
8.0928e-05
8.41872e-05
8.77133e-05
9.15652e-05
9.58835e-05
0.000100891
0.00010686
0.000114067
0.000122206
0.000130748
0.000139018
0.00014599
0.000150082
0.000149395
0.000142415
0.000129919
0.000116418
0.000106811
0.000100319
9.11801e-05
7.44535e-05
4.98807e-05