/*--------------------------------*- C++ -*----------------------------------*\
| =========                 |                                                 |
| \\      /  F ield         | OpenFOAM: The Open Source CFD Toolbox           |
|  \\    /   O peration     | Version:  v2006                                 |
|   \\  /    A nd           | Website:  www.openfoam.com                      |
|    \\/     M anipulation  |                                                 |
\*---------------------------------------------------------------------------*/
FoamFile
{
    version     2.0;
    format      ascii;
    class       volScalarField;
    location    "19";
    object      nut;
}
// * * * * * * * * * * * * * * * * * * * * * * * * * * * * * * * * * * * * * //

dimensions      [0 2 -1 0 0 0 0];


internalField   nonuniform List<scalar> 
78750
(
5.16873e-07
1.01509e-05
1.05307e-05
1.02036e-05
9.78526e-06
9.40039e-06
9.0936e-06
8.8597e-06
8.68705e-06
8.56758e-06
8.50129e-06
8.48754e-06
8.51593e-06
8.58329e-06
8.67837e-06
8.78445e-06
8.88635e-06
8.97321e-06
9.0381e-06
9.07645e-06
9.08474e-06
9.06e-06
8.99931e-06
8.89929e-06
8.75581e-06
8.56371e-06
8.31639e-06
8.00562e-06
7.62179e-06
7.15521e-06
6.59272e-06
5.86308e-06
4.80215e-06
3.1687e-06
3.08544e-08
7.71533e-08
8.00166e-06
1.67619e-05
2.44608e-05
2.71009e-05
3.00571e-05
3.45031e-05
3.95963e-05
4.44975e-05
4.67458e-05
4.57463e-05
4.49446e-05
4.02416e-05
3.51364e-05
3.13817e-05
2.90892e-05
2.79338e-05
2.75321e-05
2.76177e-05
2.80343e-05
2.86872e-05
2.95058e-05
3.04237e-05
3.13351e-05
3.20424e-05
3.21807e-05
3.11483e-05
2.82607e-05
2.34805e-05
1.79264e-05
1.31113e-05
9.96253e-06
8.80451e-06
7.39563e-06
4.26766e-08
1.41808e-07
9.59837e-06
1.37228e-05
1.38252e-05
1.40251e-05
1.4565e-05
1.52784e-05
1.60411e-05
1.69682e-05
1.82127e-05
1.96663e-05
2.11259e-05
2.24016e-05
2.33144e-05
2.38046e-05
2.40936e-05
2.44556e-05
2.49586e-05
2.55039e-05
2.59517e-05
2.6191e-05
2.61533e-05
2.57815e-05
2.49882e-05
2.36503e-05
2.16366e-05
1.88835e-05
1.55134e-05
1.19285e-05
8.7676e-06
6.64095e-06
5.98518e-06
7.63452e-06
6.29989e-06
4.98663e-08
1.22084e-07
1.08873e-05
2.77638e-05
2.48504e-05
2.3097e-05
2.23956e-05
2.30083e-05
2.4809e-05
2.70596e-05
2.79548e-05
2.61845e-05
2.2424e-05
1.87296e-05
1.66879e-05
1.66463e-05
1.84857e-05
2.21812e-05
2.76796e-05
3.3914e-05
3.81593e-05
3.85524e-05
3.60372e-05
3.23537e-05
2.85398e-05
2.49649e-05
2.16647e-05
1.8521e-05
1.53585e-05
1.21176e-05
9.07136e-06
6.79181e-06
5.84508e-06
7.04655e-06
7.62526e-06
4.81519e-08
1.04955e-07
6.59563e-06
2.77352e-05
2.69668e-05
2.46835e-05
2.30005e-05
2.17238e-05
2.01647e-05
1.78657e-05
1.48061e-05
1.16289e-05
9.24997e-06
8.18181e-06
8.39972e-06
9.79756e-06
1.24382e-05
1.6669e-05
2.32413e-05
3.19212e-05
3.5601e-05
3.61137e-05
3.36766e-05
2.77211e-05
2.27092e-05
1.88263e-05
1.57659e-05
1.32823e-05
1.11234e-05
9.05627e-06
7.09154e-06
5.63345e-06
5.29016e-06
7.38404e-06
5.60304e-06
5.23929e-08
7.62674e-08
5.07265e-06
2.3775e-05
2.5787e-05
2.12944e-05
1.83681e-05
1.76491e-05
1.76768e-05
1.58313e-05
1.19776e-05
8.71153e-06
7.10147e-06
6.98358e-06
8.07534e-06
1.03066e-05
1.38035e-05
1.88633e-05
2.56899e-05
3.32713e-05
3.8434e-05
3.86423e-05
3.48666e-05
2.95182e-05
2.42385e-05
1.97495e-05
1.62701e-05
1.37474e-05
1.19497e-05
1.04613e-05
8.81223e-06
7.06171e-06
6.10551e-06
7.3657e-06
8.32779e-06
6.36678e-08
5.89859e-08
4.51768e-06
1.88564e-05
2.62035e-05
2.54335e-05
2.0191e-05
1.28799e-05
7.7695e-06
5.1995e-06
4.25519e-06
4.39192e-06
5.40817e-06
7.29205e-06
1.01381e-05
1.4054e-05
1.90118e-05
2.46974e-05
3.05067e-05
3.55468e-05
3.79633e-05
3.76212e-05
3.37586e-05
2.70677e-05
2.03385e-05
1.50406e-05
1.14075e-05
9.10927e-06
7.73214e-06
6.92276e-06
6.40373e-06
6.08633e-06
6.68063e-06
1.12325e-05
5.28909e-06
7.68475e-08
6.08333e-08
4.06965e-06
1.49059e-05
1.5614e-05
9.78921e-06
5.8437e-06
4.1592e-06
3.92074e-06
4.74164e-06
6.53679e-06
9.29427e-06
1.28999e-05
1.68885e-05
2.04722e-05
2.31813e-05
2.53026e-05
2.75065e-05
3.03634e-05
3.39729e-05
3.7419e-05
3.80208e-05
3.41891e-05
2.57653e-05
1.7542e-05
1.19228e-05
8.64734e-06
6.9725e-06
6.32498e-06
6.24382e-06
6.34884e-06
6.86385e-06
9.43716e-06
2.0407e-05
4.08445e-06
7.03456e-08
6.67773e-08
3.0821e-06
1.10501e-05
8.05199e-06
4.36731e-06
3.2919e-06
3.719e-06
5.25162e-06
7.61956e-06
1.01586e-05
1.21353e-05
1.35698e-05
1.50653e-05
1.71484e-05
2.00691e-05
2.38001e-05
2.80465e-05
3.22356e-05
3.55345e-05
3.68559e-05
3.49092e-05
2.90704e-05
2.11673e-05
1.42262e-05
9.43133e-06
6.51972e-06
5.03326e-06
4.66257e-06
5.14053e-06
6.10562e-06
7.84296e-06
1.25894e-05
1.89766e-05
3.40429e-06
6.09127e-08
7.32745e-08
2.74318e-06
1.06235e-05
4.91734e-06
3.43293e-06
3.84974e-06
5.45952e-06
7.86632e-06
1.03368e-05
1.23244e-05
1.39938e-05
1.57929e-05
1.79902e-05
2.06215e-05
2.35792e-05
2.67269e-05
2.99449e-05
3.3036e-05
3.55456e-05
3.66359e-05
3.51654e-05
3.03169e-05
2.29935e-05
1.57446e-05
1.0264e-05
6.6847e-06
4.61184e-06
3.73498e-06
3.9439e-06
5.17278e-06
7.81289e-06
1.37543e-05
1.66073e-05
3.11474e-06
5.56716e-08
7.68732e-08
2.62869e-06
1.17057e-05
4.63286e-06
3.77974e-06
4.71978e-06
6.62368e-06
8.73725e-06
1.02895e-05
1.1251e-05
1.21593e-05
1.35384e-05
1.57216e-05
1.8829e-05
2.26974e-05
2.68527e-05
3.06756e-05
3.3641e-05
3.53795e-05
3.55833e-05
3.39337e-05
3.02018e-05
2.46222e-05
1.8234e-05
1.24259e-05
8.03436e-06
5.14642e-06
3.51624e-06
2.95014e-06
3.40143e-06
5.25775e-06
1.01937e-05
1.32148e-05
2.74388e-06
5.59986e-08
7.24905e-08
2.51711e-06
1.51192e-05
5.99826e-06
4.71846e-06
5.55378e-06
7.17373e-06
8.7005e-06
9.57817e-06
9.98251e-06
1.0487e-05
1.1615e-05
1.37304e-05
1.70262e-05
2.13719e-05
2.61513e-05
3.0477e-05
3.36804e-05
3.54752e-05
3.57884e-05
3.45992e-05
3.18824e-05
2.76606e-05
2.22119e-05
1.62932e-05
1.09539e-05
6.92575e-06
4.31965e-06
2.91628e-06
2.53868e-06
3.22138e-06
5.99595e-06
1.15874e-05
2.46532e-06
5.72953e-08
6.53369e-08
2.4429e-06
1.56734e-05
8.00242e-06
5.5961e-06
5.87072e-06
6.9715e-06
8.01979e-06
8.52356e-06
8.64805e-06
8.94777e-06
9.97455e-06
1.21613e-05
1.58204e-05
2.08716e-05
2.64036e-05
3.1018e-05
3.39283e-05
3.51532e-05
3.49907e-05
3.37027e-05
3.14367e-05
2.82311e-05
2.40899e-05
1.91585e-05
1.3929e-05
9.23373e-06
5.72597e-06
3.52296e-06
2.44392e-06
2.33954e-06
3.64959e-06
9.28159e-06
2.19756e-06
5.76141e-08
5.18137e-08
2.18535e-06
1.07109e-05
1.29745e-05
7.85912e-06
6.89922e-06
7.16717e-06
7.54381e-06
7.48006e-06
7.10922e-06
7.06646e-06
7.9039e-06
1.00237e-05
1.37778e-05
1.92265e-05
2.54366e-05
3.06046e-05
3.36941e-05
3.48887e-05
3.47177e-05
3.35774e-05
3.16733e-05
2.90685e-05
2.5757e-05
2.17468e-05
1.71548e-05
1.23521e-05
8.07748e-06
4.95969e-06
3.11257e-06
2.37063e-06
2.75933e-06
6.63573e-06
2.2353e-06
5.80838e-08
3.92932e-08
2.05693e-06
8.45431e-06
1.6025e-05
1.02274e-05
7.91612e-06
7.15978e-06
6.56682e-06
5.74241e-06
5.17691e-06
5.48268e-06
6.97152e-06
9.95578e-06
1.4703e-05
2.08299e-05
2.67994e-05
3.11057e-05
3.35045e-05
3.44251e-05
3.42775e-05
3.33038e-05
3.1611e-05
2.92285e-05
2.6182e-05
2.25728e-05
1.85774e-05
1.43936e-05
1.02919e-05
6.77312e-06
4.31196e-06
3.04373e-06
2.95198e-06
5.56884e-06
2.75725e-06
5.99835e-08
3.35573e-08
2.16093e-06
8.60772e-06
1.71446e-05
1.20658e-05
8.36015e-06
6.15748e-06
4.69254e-06
4.02364e-06
4.3789e-06
5.92539e-06
8.87974e-06
1.33676e-05
1.88886e-05
2.42513e-05
2.85607e-05
3.16878e-05
3.37821e-05
3.49418e-05
3.51964e-05
3.45454e-05
3.29835e-05
3.05243e-05
2.72524e-05
2.33942e-05
1.92763e-05
1.51883e-05
1.1339e-05
7.94684e-06
5.34878e-06
3.83508e-06
3.54625e-06
5.89447e-06
3.56417e-06
6.2187e-08
3.39668e-08
2.1771e-06
8.43272e-06
1.52661e-05
9.6003e-06
5.63189e-06
3.91116e-06
3.49342e-06
4.13487e-06
5.93895e-06
9.01541e-06
1.32166e-05
1.78569e-05
2.21657e-05
2.58852e-05
2.90714e-05
3.17103e-05
3.36728e-05
3.48231e-05
3.50792e-05
3.44053e-05
3.27888e-05
3.02451e-05
2.68822e-05
2.29948e-05
1.89953e-05
1.51975e-05
1.17292e-05
8.65004e-06
6.15548e-06
4.58024e-06
4.23945e-06
6.74082e-06
4.2613e-06
6.46861e-08
3.67397e-08
2.11662e-06
8.75109e-06
1.08089e-05
5.7069e-06
3.81349e-06
3.52147e-06
4.32449e-06
6.29002e-06
9.39909e-06
1.32821e-05
1.72939e-05
2.10158e-05
2.43794e-05
2.73904e-05
3.00036e-05
3.21488e-05
3.37575e-05
3.47495e-05
3.50183e-05
3.44267e-05
3.28227e-05
3.01034e-05
2.63701e-05
2.20748e-05
1.78446e-05
1.41066e-05
1.09667e-05
8.36989e-06
6.34067e-06
5.06688e-06
4.99094e-06
8.43843e-06
4.17169e-06
6.75682e-08
3.8972e-08
2.04243e-06
9.71899e-06
7.68991e-06
4.33797e-06
3.67608e-06
4.29593e-06
6.00992e-06
8.76665e-06
1.21528e-05
1.56146e-05
1.8834e-05
2.17859e-05
2.45167e-05
2.70403e-05
2.93365e-05
3.13417e-05
3.29439e-05
3.39909e-05
3.43025e-05
3.36795e-05
3.19263e-05
2.89424e-05
2.49262e-05
2.04846e-05
1.63201e-05
1.28228e-05
1.00362e-05
7.86086e-06
6.25827e-06
5.3248e-06
5.64179e-06
1.04629e-05
3.77667e-06
7.07535e-08
3.99535e-08
2.1431e-06
1.22266e-05
6.40752e-06
4.21627e-06
4.27605e-06
5.50891e-06
7.73203e-06
1.06138e-05
1.3654e-05
1.6553e-05
1.92955e-05
2.1957e-05
2.45325e-05
2.69417e-05
2.91016e-05
3.09419e-05
3.23811e-05
3.32969e-05
3.35102e-05
3.27837e-05
3.08587e-05
2.76058e-05
2.33129e-05
1.87452e-05
1.46669e-05
1.14211e-05
8.9946e-06
7.25416e-06
6.09145e-06
5.55335e-06
6.41479e-06
1.29635e-05
3.34296e-06
7.43279e-08
4.03965e-08
2.27849e-06
1.36381e-05
6.85709e-06
4.88338e-06
5.2075e-06
6.62132e-06
8.73197e-06
1.11346e-05
1.35121e-05
1.58217e-05
1.81582e-05
2.05719e-05
2.30012e-05
2.53338e-05
2.7484e-05
2.93844e-05
3.09338e-05
3.19671e-05
3.22528e-05
3.15069e-05
2.9455e-05
2.60237e-05
2.16296e-05
1.71111e-05
1.31885e-05
1.01542e-05
7.99889e-06
6.60834e-06
5.82727e-06
5.70056e-06
7.16619e-06
1.43404e-05
2.98165e-06
7.73673e-08
3.95166e-08
2.34556e-06
1.42021e-05
8.18768e-06
5.76262e-06
5.92077e-06
7.07845e-06
8.70468e-06
1.05167e-05
1.24108e-05
1.44611e-05
1.6758e-05
1.92731e-05
2.18375e-05
2.4248e-05
2.63874e-05
2.82097e-05
2.96482e-05
3.05593e-05
3.07241e-05
2.9877e-05
2.77891e-05
2.44565e-05
2.03124e-05
1.60843e-05
1.23711e-05
9.45277e-06
7.38462e-06
6.11985e-06
5.52099e-06
5.6655e-06
7.57715e-06
1.406e-05
2.71912e-06
8.09537e-08
3.68871e-08
2.20791e-06
1.22461e-05
1.10052e-05
7.1836e-06
6.65394e-06
7.19748e-06
8.1195e-06
9.25623e-06
1.06625e-05
1.24267e-05
1.45832e-05
1.70342e-05
1.95454e-05
2.18877e-05
2.39816e-05
2.58463e-05
2.74438e-05
2.85858e-05
2.89604e-05
2.82261e-05
2.61699e-05
2.29239e-05
1.90389e-05
1.51663e-05
1.17417e-05
8.98467e-06
6.99154e-06
5.77304e-06
5.23518e-06
5.50739e-06
7.67348e-06
1.3107e-05
2.50081e-06
8.42454e-08
3.39526e-08
2.06948e-06
1.00625e-05
1.38121e-05
8.60338e-06
7.19417e-06
7.10932e-06
7.51437e-06
8.25979e-06
9.43359e-06
1.10916e-05
1.32083e-05
1.56157e-05
1.80028e-05
2.01089e-05
2.19237e-05
2.36039e-05
2.52301e-05
2.66183e-05
2.73203e-05
2.68145e-05
2.48322e-05
2.16692e-05
1.80492e-05
1.45424e-05
1.13993e-05
8.77466e-06
6.80729e-06
5.56339e-06
4.9962e-06
5.27559e-06
7.52268e-06
1.22483e-05
2.34594e-06
8.67056e-08
3.23261e-08
1.93174e-06
8.51462e-06
1.61379e-05
1.01313e-05
7.77018e-06
7.10813e-06
7.13535e-06
7.62191e-06
8.61375e-06
1.01476e-05
1.21461e-05
1.43741e-05
1.64567e-05
1.81262e-05
1.94559e-05
2.07718e-05
2.23602e-05
2.41413e-05
2.54825e-05
2.54278e-05
2.34642e-05
2.02323e-05
1.68605e-05
1.38238e-05
1.10912e-05
8.68326e-06
6.77131e-06
5.49032e-06
4.85531e-06
5.08015e-06
7.32379e-06
1.14645e-05
2.22087e-06
8.70498e-08
3.11379e-08
1.7977e-06
7.4239e-06
1.5921e-05
1.12477e-05
8.14174e-06
7.07014e-06
6.91279e-06
7.33554e-06
8.31387e-06
9.85728e-06
1.18547e-05
1.39951e-05
1.58106e-05
1.70019e-05
1.77044e-05
1.83925e-05
1.95867e-05
2.14573e-05
2.33424e-05
2.37068e-05
2.15775e-05
1.81813e-05
1.51863e-05
1.28369e-05
1.07231e-05
8.67574e-06
6.88417e-06
5.58078e-06
4.8691e-06
5.01409e-06
7.19111e-06
1.10939e-05
2.17592e-06
8.5331e-08
2.96846e-08
1.63509e-06
6.30857e-06
1.51903e-05
1.27344e-05
8.74956e-06
7.25629e-06
6.94407e-06
7.31356e-06
8.25123e-06
9.73656e-06
1.16588e-05
1.3677e-05
1.52648e-05
1.60569e-05
1.61745e-05
1.61899e-05
1.68297e-05
1.85641e-05
2.0853e-05
2.14343e-05
1.87392e-05
1.51443e-05
1.27589e-05
1.13701e-05
1.01797e-05
8.74626e-06
7.18715e-06
5.85648e-06
5.01154e-06
4.99445e-06
6.97553e-06
1.13522e-05
2.20136e-06
8.40795e-08
2.67419e-08
1.482e-06
5.36433e-06
1.42763e-05
1.42679e-05
9.45191e-06
7.57548e-06
7.1352e-06
7.45462e-06
8.34417e-06
9.75858e-06
1.1602e-05
1.35485e-05
1.50126e-05
1.54972e-05
1.50687e-05
1.441e-05
1.44563e-05
1.59654e-05
1.85389e-05
1.87912e-05
1.49133e-05
1.12766e-05
9.60361e-06
9.1595e-06
9.06787e-06
8.67186e-06
7.76167e-06
6.60036e-06
5.6514e-06
5.44718e-06
7.20607e-06
1.27487e-05
2.41428e-06
8.53154e-08
2.34112e-08
1.37214e-06
4.76516e-06
1.34305e-05
1.51525e-05
1.01345e-05
8.03106e-06
7.47059e-06
7.6986e-06
8.46969e-06
9.69338e-06
1.12414e-05
1.27825e-05
1.37336e-05
1.3615e-05
1.25853e-05
1.14404e-05
1.11795e-05
1.27662e-05
1.62052e-05
1.61732e-05
1.11818e-05
7.99102e-06
6.96183e-06
7.08905e-06
7.72167e-06
8.26625e-06
8.20428e-06
7.44323e-06
6.50025e-06
6.15245e-06
7.79436e-06
1.43206e-05
2.68259e-06
9.47624e-08
2.06593e-08
1.37568e-06
4.84984e-06
1.28377e-05
1.44766e-05
1.01077e-05
8.22884e-06
7.72833e-06
7.9427e-06
8.6129e-06
9.57297e-06
1.05564e-05
1.11092e-05
1.07782e-05
9.59125e-06
8.17298e-06
7.24116e-06
7.39947e-06
9.54309e-06
1.40249e-05
1.26168e-05
7.83128e-06
5.86879e-06
5.58535e-06
6.22468e-06
7.42843e-06
8.73715e-06
9.39513e-06
8.95031e-06
7.93092e-06
7.48564e-06
9.4551e-06
1.60424e-05
2.86272e-06
1.01382e-07
2.05717e-08
1.58318e-06
5.94403e-06
1.34562e-05
1.48713e-05
1.07651e-05
9.0115e-06
8.55654e-06
8.72849e-06
9.16824e-06
9.5219e-06
9.37705e-06
8.48276e-06
7.07589e-06
5.73363e-06
4.91741e-06
4.92741e-06
6.26075e-06
9.71484e-06
1.18872e-05
8.01835e-06
5.54738e-06
4.94702e-06
5.48923e-06
6.89803e-06
8.73229e-06
1.00969e-05
1.04795e-05
1.01726e-05
9.83133e-06
1.05295e-05
1.44767e-05
1.36422e-05
2.7278e-06
9.41619e-08
2.03568e-08
1.84513e-06
7.11545e-06
1.43576e-05
1.65549e-05
1.27262e-05
1.07161e-05
1.00005e-05
9.85975e-06
9.78652e-06
9.34476e-06
8.33401e-06
6.96781e-06
5.72501e-06
4.99257e-06
4.983e-06
5.8861e-06
7.92732e-06
1.08448e-05
1.17846e-05
8.56349e-06
5.6818e-06
4.42948e-06
4.33916e-06
5.25888e-06
7.22476e-06
9.58834e-06
1.07727e-05
1.04798e-05
1.01616e-05
1.13544e-05
1.57595e-05
1.15001e-05
2.58825e-06
7.73945e-08
1.7453e-08
1.91399e-06
6.79648e-06
1.41711e-05
1.61932e-05
1.45343e-05
1.24608e-05
1.1339e-05
1.07157e-05
1.00051e-05
8.84744e-06
7.41752e-06
6.19819e-06
5.499e-06
5.47198e-06
6.27067e-06
8.06588e-06
1.06376e-05
1.27814e-05
1.32749e-05
1.20014e-05
9.21051e-06
6.01942e-06
3.90687e-06
3.04509e-06
3.15709e-06
4.19184e-06
6.1437e-06
8.75529e-06
1.13382e-05
1.41562e-05
1.81771e-05
1.19156e-05
2.74958e-06
7.72305e-08
1.36835e-08
2.1885e-06
8.12715e-06
1.30442e-05
1.49303e-05
1.44271e-05
1.21323e-05
9.51669e-06
7.08478e-06
5.30688e-06
4.24902e-06
3.81109e-06
3.90543e-06
4.55266e-06
5.91842e-06
8.32249e-06
1.18058e-05
1.4774e-05
1.50257e-05
1.31856e-05
1.10308e-05
9.48405e-06
8.62261e-06
7.92789e-06
6.62078e-06
4.86073e-06
3.71882e-06
3.61927e-06
4.50722e-06
6.42231e-06
9.75084e-06
1.48841e-05
1.24213e-05
2.90371e-06
9.91866e-08
1.46381e-08
2.25911e-06
7.83708e-06
1.19967e-05
1.19433e-05
6.77495e-06
4.02072e-06
2.84796e-06
2.48789e-06
2.67486e-06
3.34288e-06
4.5347e-06
6.39839e-06
9.20074e-06
1.30322e-05
1.68341e-05
1.86527e-05
1.80633e-05
1.60782e-05
1.38198e-05
1.19831e-05
1.07722e-05
1.00789e-05
9.62661e-06
8.98848e-06
7.7846e-06
6.21144e-06
5.00049e-06
4.66242e-06
5.37989e-06
7.51782e-06
1.21196e-05
1.23194e-05
2.80542e-06
1.24041e-07
1.9857e-08
1.90833e-06
7.2751e-06
5.90137e-06
3.47355e-06
2.61652e-06
2.59908e-06
3.24462e-06
4.62313e-06
6.97003e-06
1.05823e-05
1.53003e-05
1.97982e-05
2.26025e-05
2.36407e-05
2.34402e-05
2.21757e-05
1.98797e-05
1.70223e-05
1.44095e-05
1.25408e-05
1.14348e-05
1.08374e-05
1.03668e-05
9.62672e-06
8.41467e-06
6.91295e-06
5.58929e-06
4.84893e-06
4.9529e-06
6.37509e-06
1.06854e-05
1.20144e-05
2.63826e-06
1.38947e-07
2.57191e-08
2.20289e-06
8.63054e-06
3.97854e-06
3.12333e-06
3.45438e-06
4.78592e-06
7.28658e-06
1.05773e-05
1.31474e-05
1.42308e-05
1.47687e-05
1.5786e-05
1.76514e-05
2.00124e-05
2.18376e-05
2.20313e-05
2.0226e-05
1.70897e-05
1.39e-05
1.15024e-05
1.00197e-05
9.23718e-06
8.85686e-06
8.54896e-06
7.9942e-06
7.05686e-06
5.96024e-06
5.11432e-06
4.86864e-06
5.68399e-06
9.06959e-06
1.27997e-05
2.64803e-06
1.56836e-07
2.43723e-08
2.63813e-06
9.71034e-06
4.08088e-06
3.39196e-06
3.88276e-06
5.15311e-06
6.91061e-06
8.91275e-06
1.12584e-05
1.41914e-05
1.76287e-05
2.09312e-05
2.33159e-05
2.44261e-05
2.42529e-05
2.28485e-05
2.03261e-05
1.70917e-05
1.38933e-05
1.13887e-05
9.80255e-06
9.02306e-06
8.77887e-06
8.69759e-06
8.35903e-06
7.53829e-06
6.44024e-06
5.48987e-06
5.06503e-06
5.66932e-06
8.90869e-06
1.20488e-05
2.54072e-06
1.74811e-07
1.70289e-08
2.69228e-06
9.6074e-06
5.18592e-06
3.97318e-06
4.10198e-06
4.96177e-06
6.33748e-06
8.04095e-06
9.89144e-06
1.18044e-05
1.38778e-05
1.62971e-05
1.90727e-05
2.1812e-05
2.38002e-05
2.43497e-05
2.29982e-05
1.96819e-05
1.53313e-05
1.15051e-05
8.95193e-06
7.56724e-06
7.03219e-06
7.01763e-06
7.10662e-06
6.87863e-06
6.27761e-06
5.6158e-06
5.31519e-06
6.01561e-06
9.57871e-06
1.09242e-05
2.40514e-06
1.81985e-07
1.35705e-08
3.41478e-06
8.8778e-06
4.9841e-06
4.05303e-06
4.29997e-06
5.23648e-06
6.69699e-06
8.58802e-06
1.0826e-05
1.33574e-05
1.61347e-05
1.9045e-05
2.18531e-05
2.42218e-05
2.57875e-05
2.61966e-05
2.5108e-05
2.22921e-05
1.80722e-05
1.36449e-05
1.01872e-05
8.00683e-06
6.87312e-06
6.4559e-06
6.36527e-06
6.18036e-06
5.78109e-06
5.38538e-06
5.37176e-06
6.48914e-06
1.10323e-05
8.93447e-06
2.18687e-06
1.81769e-07
1.4456e-08
3.41004e-06
9.0902e-06
5.7299e-06
4.90243e-06
5.34073e-06
6.42451e-06
7.79e-06
9.13318e-06
1.03537e-05
1.16113e-05
1.32177e-05
1.54516e-05
1.83638e-05
2.16191e-05
2.44969e-05
2.60692e-05
2.53562e-05
2.17891e-05
1.65363e-05
1.18777e-05
8.75529e-06
6.95336e-06
6.09006e-06
5.8669e-06
5.89601e-06
5.79677e-06
5.51145e-06
5.30559e-06
5.61477e-06
7.37701e-06
1.27539e-05
6.43745e-06
1.89847e-06
1.61063e-07
1.43354e-08
2.79838e-06
9.277e-06
7.73712e-06
6.1206e-06
6.13832e-06
6.82012e-06
7.75601e-06
8.69783e-06
9.62538e-06
1.07713e-05
1.2447e-05
1.48191e-05
1.77422e-05
2.07596e-05
2.33361e-05
2.50278e-05
2.53511e-05
2.3559e-05
1.91364e-05
1.35555e-05
9.17918e-06
6.57912e-06
5.30545e-06
4.90926e-06
4.96679e-06
5.05399e-06
5.02514e-06
5.09657e-06
5.76309e-06
8.09226e-06
1.23646e-05
5.12353e-06
1.72231e-06
1.40596e-07
1.34972e-08
2.58768e-06
9.2342e-06
9.7415e-06
7.192e-06
6.62079e-06
6.74758e-06
7.08787e-06
7.56237e-06
8.34041e-06
9.7066e-06
1.19007e-05
1.49208e-05
1.83332e-05
2.14391e-05
2.37551e-05
2.51074e-05
2.5368e-05
2.42732e-05
2.14265e-05
1.68089e-05
1.17248e-05
7.86002e-06
5.6402e-06
4.70684e-06
4.59809e-06
4.80739e-06
4.98883e-06
5.22097e-06
6.06125e-06
8.68399e-06
1.24184e-05
5.11392e-06
1.74063e-06
1.28658e-07
1.39347e-08
2.25699e-06
8.98696e-06
1.12416e-05
8.15273e-06
6.97669e-06
6.67121e-06
6.7449e-06
7.21256e-06
8.23633e-06
9.9929e-06
1.25828e-05
1.58672e-05
1.93567e-05
2.24276e-05
2.46781e-05
2.59468e-05
2.61171e-05
2.50105e-05
2.24344e-05
1.84282e-05
1.3678e-05
9.38043e-06
6.36392e-06
4.72412e-06
4.16868e-06
4.30186e-06
4.77273e-06
5.41528e-06
6.65645e-06
9.7288e-06
1.28096e-05
5.15317e-06
1.74751e-06
1.20118e-07
1.46053e-08
2.04878e-06
8.88016e-06
1.10857e-05
9.52156e-06
7.71384e-06
6.97684e-06
6.84506e-06
7.31503e-06
8.56637e-06
1.07379e-05
1.38946e-05
1.77325e-05
2.14237e-05
2.41507e-05
2.56881e-05
2.6243e-05
2.60446e-05
2.52058e-05
2.3678e-05
2.11938e-05
1.75066e-05
1.30191e-05
8.87918e-06
5.98137e-06
4.45119e-06
3.97801e-06
4.24227e-06
5.00186e-06
6.35422e-06
9.45919e-06
1.41206e-05
5.81396e-06
1.84746e-06
1.22964e-07
1.45491e-08
1.8311e-06
8.3698e-06
1.05895e-05
9.22293e-06
7.08892e-06
6.27627e-06
6.2832e-06
7.03695e-06
8.69456e-06
1.14524e-05
1.54472e-05
2.01518e-05
2.3619e-05
2.41703e-05
2.46423e-05
2.47882e-05
2.33618e-05
2.19189e-05
2.06244e-05
1.93094e-05
1.75694e-05
1.49788e-05
1.15736e-05
8.12288e-06
5.53649e-06
4.124e-06
3.79427e-06
4.4466e-06
6.24029e-06
1.0012e-05
1.62501e-05
7.74501e-06
2.15136e-06
1.29798e-07
1.22494e-08
1.41596e-06
5.40535e-06
8.63848e-06
6.59312e-06
5.52117e-06
5.40961e-06
6.00067e-06
7.32348e-06
9.58148e-06
1.31036e-05
1.79446e-05
2.15648e-05
2.21501e-05
2.2607e-05
2.30021e-05
2.16974e-05
1.97048e-05
1.82971e-05
1.75091e-05
1.71508e-05
1.68542e-05
1.60609e-05
1.42135e-05
1.12597e-05
7.96337e-06
5.30369e-06
3.75126e-06
3.32413e-06
4.08598e-06
6.8686e-06
1.31185e-05
6.96692e-06
2.0721e-06
1.34565e-07
1.12616e-08
1.61954e-06
5.64017e-06
6.71406e-06
5.63989e-06
5.40169e-06
5.86903e-06
6.93308e-06
8.64028e-06
1.11205e-05
1.46112e-05
1.90692e-05
2.04573e-05
2.08201e-05
2.11364e-05
2.13697e-05
1.8222e-05
1.58073e-05
1.42813e-05
1.34712e-05
1.32285e-05
1.34285e-05
1.38342e-05
1.4039e-05
1.34866e-05
1.16572e-05
8.78554e-06
5.9624e-06
4.07183e-06
3.36839e-06
4.10848e-06
7.84688e-06
6.91046e-06
1.95335e-06
1.45678e-07
1.20151e-08
3.44095e-06
9.17856e-06
8.37995e-06
6.91029e-06
6.69719e-06
7.18444e-06
8.09765e-06
9.21855e-06
1.04123e-05
1.18234e-05
1.39033e-05
1.69431e-05
1.92098e-05
1.97087e-05
1.84009e-05
1.57372e-05
1.37884e-05
1.2718e-05
1.23303e-05
1.23998e-05
1.27895e-05
1.34298e-05
1.42281e-05
1.50049e-05
1.53099e-05
1.44145e-05
1.19458e-05
8.68899e-06
6.03087e-06
4.79795e-06
5.78262e-06
1.06568e-05
2.30447e-06
1.75878e-07
1.15191e-08
5.66298e-06
9.65399e-06
7.0958e-06
5.86459e-06
5.99721e-06
6.76464e-06
7.6099e-06
8.18998e-06
8.80218e-06
1.044e-05
1.44679e-05
1.74912e-05
1.84668e-05
1.93702e-05
1.45529e-05
1.19629e-05
1.12771e-05
1.20038e-05
1.40191e-05
1.71579e-05
2.07204e-05
2.35339e-05
2.47657e-05
2.43451e-05
2.25264e-05
1.94257e-05
1.52969e-05
1.10252e-05
7.76388e-06
6.29805e-06
7.812e-06
1.11366e-05
2.35928e-06
1.78355e-07
8.21501e-09
3.92522e-06
8.68796e-06
1.05812e-05
9.93273e-06
7.86082e-06
6.42796e-06
5.34577e-06
4.70443e-06
4.72819e-06
5.80342e-06
8.97009e-06
1.5291e-05
1.69291e-05
1.78072e-05
1.27232e-05
1.14342e-05
1.23951e-05
1.52679e-05
2.05587e-05
2.82587e-05
3.36204e-05
3.47821e-05
3.04906e-05
2.31943e-05
1.73186e-05
1.33791e-05
1.08494e-05
9.2481e-06
8.52357e-06
9.47951e-06
1.42738e-05
7.40748e-06
2.08943e-06
1.29036e-07
4.81688e-09
3.64271e-06
6.86359e-06
8.75863e-06
1.01114e-05
1.10201e-05
1.15356e-05
1.08674e-05
9.0761e-06
6.64317e-06
4.36789e-06
2.90726e-06
2.58751e-06
3.96719e-06
8.3265e-06
9.06859e-06
7.95232e-06
8.09513e-06
9.21522e-06
1.09287e-05
1.29157e-05
1.49786e-05
1.69391e-05
1.83194e-05
1.83139e-05
1.66383e-05
1.41766e-05
1.20326e-05
1.0773e-05
1.07628e-05
1.26e-05
1.38017e-05
5.70973e-06
1.87682e-06
8.09868e-08
3.82646e-09
2.53357e-06
5.37767e-06
6.90523e-06
7.9225e-06
8.49812e-06
8.7185e-06
8.69063e-06
8.53193e-06
8.35456e-06
8.24431e-06
8.23574e-06
8.27894e-06
6.08611e-06
4.74276e-06
4.15629e-06
4.14515e-06
4.81894e-06
5.67352e-06
5.79939e-06
5.73464e-06
5.86838e-06
6.19162e-06
6.63732e-06
7.16259e-06
7.76147e-06
8.4431e-06
9.24356e-06
1.03578e-05
1.23177e-05
1.55264e-05
1.57339e-05
6.74906e-06
2.09038e-06
7.44982e-08
4.74118e-09
1.71216e-06
3.96058e-06
5.09461e-06
3.99538e-06
3.72509e-06
3.82911e-06
4.16081e-06
4.6513e-06
5.25663e-06
5.91374e-06
6.50339e-06
6.88722e-06
7.01011e-06
6.93699e-06
6.7451e-06
6.46722e-06
6.14156e-06
5.86743e-06
5.78206e-06
5.93736e-06
6.27379e-06
6.63513e-06
6.65382e-06
5.93853e-06
4.88491e-06
4.23779e-06
4.19479e-06
4.69223e-06
5.78363e-06
7.77716e-06
1.0756e-05
9.37642e-06
2.56448e-06
1.22195e-07
4.01788e-09
2.4904e-06
2.16732e-06
2.37053e-06
2.81177e-06
3.43212e-06
4.24716e-06
5.29533e-06
6.61081e-06
8.24558e-06
1.02271e-05
1.22942e-05
1.35062e-05
1.30231e-05
1.17081e-05
1.06373e-05
9.87768e-06
8.95866e-06
7.67498e-06
6.48081e-06
5.83074e-06
5.88119e-06
6.57537e-06
7.55442e-06
8.23819e-06
8.28857e-06
7.67775e-06
6.69926e-06
5.92418e-06
5.71421e-06
6.31841e-06
8.40257e-06
9.22761e-06
2.36111e-06
1.70847e-07
3.42492e-09
1.69678e-06
2.54338e-06
3.46209e-06
4.67869e-06
6.54044e-06
9.7089e-06
1.45261e-05
1.65616e-05
1.34656e-05
7.96291e-06
4.94193e-06
3.72544e-06
3.8049e-06
5.31407e-06
8.37384e-06
1.21785e-05
1.57968e-05
1.92557e-05
2.11453e-05
2.2108e-05
2.30226e-05
2.38622e-05
2.45533e-05
2.19066e-05
1.62446e-05
1.17912e-05
8.88131e-06
7.20311e-06
6.61474e-06
7.49334e-06
1.12598e-05
7.04017e-06
1.91607e-06
1.51894e-07
4.74507e-09
2.10517e-06
3.09023e-06
4.07859e-06
5.43468e-06
7.77612e-06
1.19017e-05
1.47656e-05
1.29634e-05
7.58475e-06
4.98536e-06
4.23753e-06
4.82231e-06
7.09314e-06
1.18971e-05
1.92106e-05
2.19826e-05
2.37848e-05
2.41728e-05
2.16734e-05
2.10521e-05
2.17938e-05
2.23479e-05
2.13449e-05
1.85849e-05
1.50622e-05
1.1879e-05
9.54435e-06
8.16697e-06
7.89103e-06
9.35887e-06
1.27131e-05
5.36479e-06
1.69894e-06
1.19094e-07
6.27986e-09
3.73829e-06
2.66149e-06
2.6119e-06
3.10974e-06
4.33265e-06
6.875e-06
1.18545e-05
1.67224e-05
1.27675e-05
7.26492e-06
4.56385e-06
3.33644e-06
2.93063e-06
3.32035e-06
4.90063e-06
8.37142e-06
1.37439e-05
1.93628e-05
2.33465e-05
2.43566e-05
2.29143e-05
2.08938e-05
1.91355e-05
1.7425e-05
1.54657e-05
1.33722e-05
1.15425e-05
1.03796e-05
1.03052e-05
1.18845e-05
1.29062e-05
5.17133e-06
1.70816e-06
1.03524e-07
6.47931e-09
3.93849e-06
5.06579e-06
3.51495e-06
2.88455e-06
2.74521e-06
3.25209e-06
4.76454e-06
7.88503e-06
1.31086e-05
1.82031e-05
1.60979e-05
9.9379e-06
6.13808e-06
4.23309e-06
3.31758e-06
3.10811e-06
3.7143e-06
5.57153e-06
9.18564e-06
1.3766e-05
1.74634e-05
1.93095e-05
1.90859e-05
1.76122e-05
1.59071e-05
1.44061e-05
1.32289e-05
1.25388e-05
1.26727e-05
1.38648e-05
1.31339e-05
5.34931e-06
1.74976e-06
9.97246e-08
8.51536e-09
3.90314e-06
4.96061e-06
3.51502e-06
3.33324e-06
3.87309e-06
5.22193e-06
7.66483e-06
1.12013e-05
1.48281e-05
1.64936e-05
1.7186e-05
1.77511e-05
1.54925e-05
1.09561e-05
7.27894e-06
5.006e-06
3.73057e-06
3.2188e-06
3.49443e-06
4.89386e-06
7.94278e-06
1.2107e-05
1.53524e-05
1.6801e-05
1.67102e-05
1.5776e-05
1.47469e-05
1.41091e-05
1.41367e-05
1.47063e-05
1.29603e-05
5.41296e-06
1.76545e-06
1.01713e-07
1.16864e-08
2.49924e-06
6.82432e-06
4.33021e-06
3.49769e-06
3.46959e-06
4.03879e-06
5.36765e-06
7.92869e-06
1.24862e-05
1.71576e-05
1.78744e-05
1.84101e-05
1.87763e-05
1.55354e-05
1.17312e-05
8.62708e-06
6.25761e-06
4.57104e-06
3.52013e-06
3.08705e-06
3.36611e-06
4.70423e-06
7.53336e-06
1.12634e-05
1.40787e-05
1.53699e-05
1.56595e-05
1.55779e-05
1.56044e-05
1.56848e-05
1.34722e-05
5.8618e-06
1.89028e-06
1.1103e-07
1.30244e-08
2.13089e-06
6.96955e-06
5.16214e-06
3.80243e-06
3.55254e-06
3.94791e-06
5.00281e-06
6.90829e-06
1.01171e-05
1.50421e-05
1.65711e-05
1.72893e-05
1.79389e-05
1.84846e-05
1.62073e-05
1.22749e-05
9.16054e-06
6.81894e-06
5.08555e-06
3.89829e-06
3.23512e-06
3.13662e-06
3.82623e-06
5.69057e-06
8.80158e-06
1.20838e-05
1.43154e-05
1.55315e-05
1.62236e-05
1.64355e-05
1.43654e-05
6.68761e-06
2.1157e-06
1.30655e-07
1.46077e-08
1.99757e-06
7.344e-06
5.45908e-06
3.91135e-06
3.58192e-06
3.83865e-06
4.57979e-06
5.81331e-06
7.64622e-06
1.03842e-05
1.43535e-05
1.64116e-05
1.71711e-05
1.78816e-05
1.84737e-05
1.47708e-05
1.0925e-05
7.96231e-06
5.8311e-06
4.35258e-06
3.43567e-06
3.00552e-06
3.11076e-06
3.97867e-06
5.94233e-06
9.06818e-06
1.25776e-05
1.52732e-05
1.68356e-05
1.73968e-05
1.54656e-05
7.22751e-06
2.23764e-06
1.53346e-07
1.50736e-08
1.7152e-06
7.60819e-06
7.27938e-06
4.40289e-06
3.49205e-06
3.30516e-06
3.53972e-06
4.12139e-06
5.03042e-06
6.39125e-06
8.56198e-06
1.20482e-05
1.51493e-05
1.61834e-05
1.71305e-05
1.75822e-05
1.24648e-05
8.38088e-06
5.65901e-06
3.90688e-06
2.85759e-06
2.39396e-06
2.51318e-06
3.4657e-06
5.70049e-06
9.22693e-06
1.28444e-05
1.54003e-05
1.70132e-05
1.79472e-05
1.59423e-05
6.76373e-06
2.12274e-06
1.5579e-07
1.07149e-08
1.39954e-06
4.79441e-06
8.73071e-06
7.628e-06
5.23991e-06
3.94899e-06
3.24684e-06
2.9268e-06
2.97924e-06
3.44068e-06
4.43993e-06
6.26226e-06
9.34302e-06
1.33447e-05
1.46992e-05
1.59506e-05
1.36365e-05
9.28108e-06
6.04103e-06
3.86705e-06
2.48966e-06
1.74404e-06
1.56313e-06
2.11147e-06
3.9512e-06
7.74318e-06
1.22715e-05
1.51658e-05
1.64095e-05
1.63906e-05
1.28362e-05
5.4774e-06
1.91404e-06
1.31e-07
5.79354e-09
1.47258e-06
4.04328e-06
7.67357e-06
8.43965e-06
6.92702e-06
5.31142e-06
4.13797e-06
3.4031e-06
3.07131e-06
3.16961e-06
3.77599e-06
4.98836e-06
6.74926e-06
8.57828e-06
9.78371e-06
1.02026e-05
1.01477e-05
9.70096e-06
8.43106e-06
6.2309e-06
3.98508e-06
2.37646e-06
1.44353e-06
1.08867e-06
1.39894e-06
2.76734e-06
5.75138e-06
9.76349e-06
1.2463e-05
1.28037e-05
9.68439e-06
4.63663e-06
1.80685e-06
1.09593e-07
3.78888e-09
1.43126e-06
3.7282e-06
4.20044e-06
3.45274e-06
2.87494e-06
2.55048e-06
2.47348e-06
2.68777e-06
3.31436e-06
4.63036e-06
7.10466e-06
9.98607e-06
1.12385e-05
1.14621e-05
1.01658e-05
9.23758e-06
8.76666e-06
8.65118e-06
8.74806e-06
8.73738e-06
7.95444e-06
6.01719e-06
3.83144e-06
2.24918e-06
1.36318e-06
1.12686e-06
1.67766e-06
3.3991e-06
6.57384e-06
9.34952e-06
8.04666e-06
4.19079e-06
1.71484e-06
1.07259e-07
3.87749e-09
2.18798e-06
2.72898e-06
2.80612e-06
3.14593e-06
3.73876e-06
4.6565e-06
6.10651e-06
8.5019e-06
1.22233e-05
1.43245e-05
1.52282e-05
1.60064e-05
1.62965e-05
1.45134e-05
1.33172e-05
1.27408e-05
1.26195e-05
1.27673e-05
1.29673e-05
1.29719e-05
1.25178e-05
1.1273e-05
9.08758e-06
6.47186e-06
4.21311e-06
2.67121e-06
1.88929e-06
1.94264e-06
3.16224e-06
6.17553e-06
8.20171e-06
4.24998e-06
1.64824e-06
1.08874e-07
4.82417e-09
2.3498e-06
3.25903e-06
4.42794e-06
6.29277e-06
9.15878e-06
1.29203e-05
1.50539e-05
1.55074e-05
1.59154e-05
1.62933e-05
1.66536e-05
1.70125e-05
1.7389e-05
1.77985e-05
1.66454e-05
1.59176e-05
1.57715e-05
1.60381e-05
1.6485e-05
1.68534e-05
1.67761e-05
1.59427e-05
1.42482e-05
1.18581e-05
9.18562e-06
6.73503e-06
4.89236e-06
3.88522e-06
3.964e-06
5.69804e-06
9.39977e-06
5.37904e-06
1.7541e-06
1.03699e-07
6.05701e-09
2.59497e-06
3.44978e-06
4.43313e-06
5.71987e-06
7.25589e-06
8.99568e-06
1.10191e-05
1.33367e-05
1.50311e-05
1.55669e-05
1.61102e-05
1.62057e-05
1.43249e-05
1.28025e-05
1.2001e-05
1.19209e-05
1.24892e-05
1.36045e-05
1.50671e-05
1.65173e-05
1.7457e-05
1.75517e-05
1.67736e-05
1.52692e-05
1.32474e-05
1.09901e-05
8.86532e-06
7.28778e-06
6.68772e-06
7.6741e-06
1.07516e-05
6.86623e-06
1.94704e-06