/*--------------------------------*- C++ -*----------------------------------*\
| =========                 |                                                 |
| \\      /  F ield         | OpenFOAM: The Open Source CFD Toolbox           |
|  \\    /   O peration     | Version:  v2006                                 |
|   \\  /    A nd           | Website:  www.openfoam.com                      |
|    \\/     M anipulation  |                                                 |
\*---------------------------------------------------------------------------*/
FoamFile
{
    version     2.0;
    format      ascii;
    class       volVectorField;
    location    "19";
    object      U;
}
// * * * * * * * * * * * * * * * * * * * * * * * * * * * * * * * * * * * * * //

dimensions      [0 1 -1 0 0 0 0];


internalField   nonuniform List<vector> 
78750
(
(-0.0307501 -0.0148233 0.00542714)
(-0.0271263 -0.0228452 0.00823393)
(-0.0242331 -0.0213457 0.00710136)
(-0.0219383 -0.0190116 0.00797271)
(-0.0198136 -0.0165308 0.00902264)
(-0.0178417 -0.0143039 0.00996051)
(-0.0160458 -0.0124441 0.01071)
(-0.0144436 -0.0109469 0.0113058)
(-0.0130258 -0.00979366 0.0117919)
(-0.0117724 -0.00899699 0.0121948)
(-0.0106505 -0.00859329 0.0125053)
(-0.00960703 -0.00859474 0.0127137)
(-0.00855805 -0.00897475 0.0128458)
(-0.0074365 -0.00969151 0.0128913)
(-0.00616748 -0.0106521 0.0128701)
(-0.00469441 -0.0117262 0.0128229)
(-0.00299774 -0.0127882 0.0127868)
(-0.00109244 -0.0137397 0.0127868)
(0.00098825 -0.0145126 0.0128363)
(0.00319196 -0.0150639 0.012941)
(0.00545333 -0.0153658 0.0131033)
(0.00770755 -0.0154001 0.0133239)
(0.00988534 -0.0151534 0.0136032)
(0.0119144 -0.0146144 0.013942)
(0.0137199 -0.0137707 0.0143425)
(0.0152242 -0.0126084 0.0148088)
(0.0163463 -0.0111111 0.0153472)
(0.0170006 -0.00926267 0.0159665)
(0.0170957 -0.00705216 0.0166738)
(0.0165349 -0.00447263 0.0174606)
(0.0152106 -0.00151048 0.0182589)
(0.0129476 0.00187789 0.0188393)
(0.00955546 0.00571971 0.0184826)
(0.00530104 0.00900762 0.0156363)
(0.00125779 0.00755409 0.00771617)
(-0.00267175 0.0145449 -0.00148735)
(-0.00771108 -0.00780804 -0.0140099)
(-0.0130826 -0.0196364 -0.0211172)
(-0.0171695 -0.0225247 -0.023235)
(-0.0202904 -0.021373 -0.0227325)
(-0.0226617 -0.0193749 -0.0211482)
(-0.0242908 -0.0179227 -0.0192691)
(-0.0252071 -0.0169943 -0.0173122)
(-0.0254827 -0.0163546 -0.0153143)
(-0.0252166 -0.0158665 -0.0132853)
(-0.0245083 -0.0156219 -0.0112752)
(-0.0234386 -0.0157828 -0.00936974)
(-0.0219901 -0.0163999 -0.00760058)
(-0.0201929 -0.0176097 -0.0060246)
(-0.0181608 -0.0194258 -0.00471557)
(-0.0159239 -0.0216056 -0.00366256)
(-0.0135023 -0.0238324 -0.0028024)
(-0.0109299 -0.0258449 -0.00206432)
(-0.00825397 -0.0274676 -0.00138885)
(-0.00552849 -0.0285948 -0.000730278)
(-0.00280923 -0.0291648 -5.36989e-05)
(-0.000150963 -0.0291422 0.000667617)
(0.00239273 -0.0285063 0.00145423)
(0.0047686 -0.0272434 0.00232373)
(0.00692298 -0.0253422 0.00329309)
(0.00879989 -0.0227898 0.00438126)
(0.0103401 -0.0195624 0.00561529)
(0.0114766 -0.0156035 0.00703893)
(0.0121233 -0.010794 0.00871833)
(0.0121476 -0.00494699 0.0107217)
(0.0113367 0.00213484 0.0130369)
(0.00945713 0.0103725 0.015317)
(0.00653325 0.0186648 0.016407)
(0.00331453 0.0238359 0.0147005)
(0.00056774 0.0182924 0.00781575)
(3.61896e-05 0.0411203 -0.00145287)
(-0.00234255 0.0554612 -0.00733145)
(-0.0060569 0.0540359 -0.0102298)
(-0.00975367 0.0484363 -0.0105406)
(-0.0129558 0.041474 -0.00936043)
(-0.0154503 0.0341059 -0.00782587)
(-0.0173661 0.0266223 -0.00643934)
(-0.0188521 0.0190789 -0.0052515)
(-0.0199909 0.0115398 -0.00419475)
(-0.0207908 0.00419898 -0.00318438)
(-0.0212802 -0.00279691 -0.00216383)
(-0.0214186 -0.00943389 -0.00115084)
(-0.0211712 -0.0157368 -0.000185448)
(-0.0204993 -0.0216994 0.000664062)
(-0.0193765 -0.0272589 0.00133681)
(-0.0178216 -0.0322893 0.00180854)
(-0.0159009 -0.0366235 0.00210832)
(-0.0137085 -0.0401066 0.00230399)
(-0.0113431 -0.0426385 0.00247261)
(-0.00889514 -0.0441836 0.00267772)
(-0.00644388 -0.0447517 0.00295868)
(-0.00405517 -0.0443736 0.00333482)
(-0.00178511 -0.043081 0.00381719)
(0.000315312 -0.040896 0.00441852)
(0.00219908 -0.0378239 0.0051596)
(0.00382129 -0.0338403 0.00607292)
(0.00513933 -0.0288657 0.00720552)
(0.00611348 -0.0227263 0.00862209)
(0.00669645 -0.015094 0.0103917)
(0.00682823 -0.00547722 0.0125262)
(0.00641393 0.00646612 0.0147994)
(0.00527244 0.0197465 0.0164444)
(0.0035259 0.0305205 0.0162994)
(0.0016918 0.0342351 0.0136029)
(0.000272873 0.0228304 0.00675838)
(1.91378e-05 0.0377452 -0.00218437)
(-0.00025822 0.0535482 -0.00745437)
(-0.000591472 0.0517678 -0.0102056)
(-0.000771079 0.0468221 -0.011544)
(-0.00097952 0.0404041 -0.0121293)
(-0.0012986 0.0332112 -0.0122956)
(-0.00171273 0.0259367 -0.0121772)
(-0.00222095 0.0191068 -0.0117169)
(-0.00282266 0.0130487 -0.0107736)
(-0.0034886 0.00774951 -0.00923811)
(-0.0041541 0.00280644 -0.00708063)
(-0.00475871 -0.00250857 -0.00440997)
(-0.0052647 -0.0090363 -0.0015812)
(-0.005502 -0.0170308 0.000818006)
(-0.00537379 -0.0258577 0.00232101)
(-0.00487798 -0.0344743 0.00288729)
(-0.00406117 -0.0420247 0.0027927)
(-0.00299626 -0.0480128 0.00238877)
(-0.00176992 -0.0522757 0.00195309)
(-0.000446609 -0.0549016 0.0016386)
(0.000925058 -0.0560581 0.001494)
(0.00229729 -0.0558684 0.0015343)
(0.00360784 -0.0544094 0.00176373)
(0.00479664 -0.0517438 0.00217865)
(0.00580846 -0.0479309 0.00278033)
(0.00659274 -0.04302 0.00358035)
(0.00710122 -0.0370386 0.00461738)
(0.00729371 -0.0299477 0.0059751)
(0.00714624 -0.0215504 0.00778328)
(0.00664647 -0.011409 0.0101509)
(0.00577949 0.000964724 0.0129072)
(0.00449283 0.0149807 0.0151552)
(0.00288825 0.0269808 0.0154161)
(0.00140863 0.0317137 0.0129682)
(0.000308406 0.0220392 0.0066048)
(0.000480131 0.0355077 -0.0023329)
(0.00138805 0.0571562 -0.0074076)
(0.00183172 0.0584216 -0.0100172)
(0.00206083 0.0556662 -0.0112991)
(0.00216077 0.0512983 -0.0118198)
(0.0020778 0.0459508 -0.0116571)
(0.00186512 0.0401669 -0.0108326)
(0.00155582 0.0342215 -0.0093409)
(0.0011594 0.0281548 -0.00714167)
(0.000710941 0.021732 -0.00419095)
(0.000315232 0.0143986 -0.000562974)
(0.000103996 0.00549628 0.00333563)
(0.000245313 -0.00509069 0.00670949)
(0.000788433 -0.0165523 0.00883393)
(0.00157617 -0.0277295 0.00952093)
(0.00246093 -0.0376869 0.00906453)
(0.00335986 -0.0459015 0.00794765)
(0.00422209 -0.0521282 0.00663204)
(0.00501038 -0.0563004 0.00545761)
(0.00575221 -0.0586728 0.00453684)
(0.00645613 -0.059498 0.00386559)
(0.00710117 -0.0588936 0.00343643)
(0.00768673 -0.0568526 0.00323731)
(0.00818535 -0.0533589 0.00325079)
(0.00855304 -0.0484675 0.00345411)
(0.0087498 -0.0422134 0.00383288)
(0.00872916 -0.0346435 0.00440649)
(0.00845218 -0.0258069 0.00526701)
(0.00790548 -0.0156469 0.00660406)
(0.00709095 -0.0038772 0.0086528)
(0.00601431 0.00975291 0.0113946)
(0.00461455 0.0241161 0.0139478)
(0.00303594 0.0349665 0.0146244)
(0.0015173 0.0378214 0.0125002)
(0.000296219 0.0243636 0.006209)
(0.000216786 0.0293922 -0.00161236)
(0.00122987 0.0521367 -0.00585998)
(0.00195038 0.0554337 -0.00813444)
(0.00246011 0.0538129 -0.00922354)
(0.00285531 0.0499874 -0.00970878)
(0.00299109 0.0442957 -0.009664)
(0.00287042 0.0376854 -0.00900368)
(0.00267397 0.0312814 -0.00753577)
(0.00264282 0.0252624 -0.0050233)
(0.00299209 0.0186841 -0.0013838)
(0.00386245 0.010245 0.00294172)
(0.00525392 -0.000554481 0.00688369)
(0.00697412 -0.0128803 0.00939019)
(0.00872611 -0.0252807 0.0101302)
(0.010325 -0.0364992 0.00944278)
(0.0116914 -0.0458348 0.00794043)
(0.0128109 -0.0530649 0.0061883)
(0.0137042 -0.0582338 0.00456403)
(0.0144102 -0.0615271 0.00323651)
(0.0149727 -0.0631966 0.00221623)
(0.0154296 -0.0634562 0.00146607)
(0.0157868 -0.0624074 0.000951656)
(0.0160296 -0.0600494 0.000652236)
(0.0161268 -0.0563154 0.000548246)
(0.0160338 -0.0511122 0.000596556)
(0.0156895 -0.0443965 0.000734543)
(0.0150335 -0.0362624 0.000925542)
(0.0140361 -0.0269575 0.00123959)
(0.0127207 -0.0167456 0.00191895)
(0.0111369 -0.00558683 0.00336008)
(0.00928026 0.00710086 0.00591976)
(0.007061 0.0215309 0.00923812)
(0.00457686 0.0343452 0.0114641)
(0.00233005 0.039114 0.0107488)
(0.000535251 0.026812 0.00569)
(-2.41939e-05 0.0253273 -5.84704e-05)
(0.000165575 0.0464605 -0.00304886)
(0.000235998 0.0511204 -0.00514417)
(0.000130608 0.0510145 -0.00610528)
(-9.05746e-05 0.0495836 -0.00615278)
(-0.000329604 0.0473452 -0.00502471)
(-0.000379453 0.0435914 -0.00217584)
(6.87935e-05 0.0367121 0.00252045)
(0.00121881 0.0258112 0.00786139)
(0.00301464 0.0117398 0.0121306)
(0.00521977 -0.00369826 0.0143332)
(0.0075013 -0.018775 0.014402)
(0.00955169 -0.0321344 0.0128264)
(0.0112093 -0.0430227 0.0103856)
(0.0124558 -0.051306 0.00781248)
(0.013355 -0.0572701 0.00557779)
(0.0140018 -0.0613468 0.00385553)
(0.0144851 -0.0639131 0.00262132)
(0.0148671 -0.0652076 0.00177369)
(0.0151848 -0.0653522 0.00120868)
(0.0154556 -0.0643763 0.000856715)
(0.01568 -0.0622195 0.000686151)
(0.0158371 -0.0587012 0.000681709)
(0.0158752 -0.0535257 0.000799052)
(0.0157102 -0.0463833 0.000923137)
(0.0152381 -0.0371506 0.000867806)
(0.0143669 -0.026071 0.000494666)
(0.0130588 -0.013689 -9.11793e-05)
(0.0113433 -0.000545311 -0.000470146)
(0.00929363 0.0130625 -1.58898e-05)
(0.00701527 0.0270513 0.0017928)
(0.00456792 0.040576 0.00461572)
(0.00250312 0.0497602 0.00665006)
(0.000899559 0.0506073 0.00654359)
(-6.34923e-05 0.0312346 0.00314677)
(-0.000228735 0.0263332 0.00183077)
(-0.00132603 0.0480069 0.00129754)
(-0.00261559 0.0530291 0.000760028)
(-0.00386557 0.0526133 0.00146729)
(-0.00502065 0.0489534 0.00386761)
(-0.00558201 0.0407802 0.0078885)
(-0.00508302 0.0277123 0.0118481)
(-0.00369764 0.0116788 0.0138984)
(-0.00188254 -0.00462135 0.0134809)
(-5.28547e-05 -0.0191401 0.0111548)
(0.00153058 -0.0308771 0.00798613)
(0.00277982 -0.0397957 0.00496454)
(0.00373137 -0.0464474 0.00263801)
(0.00446852 -0.0515436 0.00109669)
(0.00507388 -0.0556638 0.000184229)
(0.00560388 -0.0591334 -0.000307371)
(0.0060935 -0.0620305 -0.000545454)
(0.00655805 -0.0642528 -0.00063357)
(0.0069984 -0.0656118 -0.000621899)
(0.00740714 -0.0659235 -0.000529202)
(0.00777491 -0.0650491 -0.000353865)
(0.00808931 -0.0628213 -8.16321e-05)
(0.00832895 -0.058899 0.0003023)
(0.00844641 -0.0527017 0.000748478)
(0.00836903 -0.0436669 0.00102056)
(0.00802231 -0.0317444 0.000694786)
(0.00733448 -0.0177369 -0.000489906)
(0.00627598 -0.00298831 -0.00212974)
(0.00495623 0.0115576 -0.00326415)
(0.00355256 0.0256774 -0.00312544)
(0.00218231 0.0390236 -0.00161253)
(0.000976616 0.0496622 0.000489459)
(0.000251657 0.0544372 0.00178911)
(-0.000133196 0.0524062 0.00209255)
(-0.000157575 0.0298584 0.000885557)
(-0.000135253 0.0289105 0.00346309)
(-0.00133844 0.0536125 0.00590616)
(-0.00284827 0.0593131 0.00734736)
(-0.00420366 0.0570847 0.00945363)
(-0.00518739 0.0482978 0.012305)
(-0.005229 0.0333803 0.0140296)
(-0.00457641 0.0162939 0.0131239)
(-0.00381441 0.000793929 0.0102963)
(-0.00321939 -0.0118023 0.00712462)
(-0.0028145 -0.0220242 0.0046134)
(-0.00253087 -0.0308859 0.00296866)
(-0.00227191 -0.0390507 0.00197612)
(-0.00195583 -0.0466307 0.0013296)
(-0.00155313 -0.0533857 0.000809156)
(-0.00107633 -0.0590237 0.000332025)
(-0.000556212 -0.0633891 -8.86798e-05)
(-2.93449e-05 -0.0664756 -0.000408088)
(0.000473611 -0.0683571 -0.000587887)
(0.000934393 -0.069115 -0.000606543)
(0.00134623 -0.0687832 -0.000454762)
(0.00170808 -0.0673045 -0.000124475)
(0.00202158 -0.0644708 0.000406306)
(0.00228724 -0.0598488 0.00116841)
(0.00249904 -0.0527875 0.00213202)
(0.00265209 -0.0426252 0.00304784)
(0.00273201 -0.0291027 0.00334482)
(0.00266527 -0.0129521 0.00238494)
(0.00232647 0.00392352 0.000229821)
(0.00165969 0.0196277 -0.00197492)
(0.000827736 0.0334 -0.00301495)
(0.000102714 0.0447865 -0.00267075)
(-0.000296204 0.0522476 -0.00168974)
(-0.000416293 0.0546939 -0.000912794)
(-0.000328047 0.0508007 -0.000363897)
(-7.70645e-05 0.0276806 -0.000117204)
(-0.000208479 0.0310197 0.00457378)
(-0.00155168 0.0575851 0.00929427)
(-0.00315981 0.0618729 0.011466)
(-0.00456027 0.0557345 0.012705)
(-0.00560619 0.0410519 0.0124899)
(-0.00594848 0.0229843 0.00985034)
(-0.0060975 0.0066522 0.00599113)
(-0.00626457 -0.00649996 0.00261969)
(-0.00642027 -0.0172903 0.000344326)
(-0.00648853 -0.0267153 -0.00100856)
(-0.00641973 -0.0352539 -0.00177657)
(-0.00621135 -0.0429459 -0.00222204)
(-0.00589898 -0.0496708 -0.00250194)
(-0.00552995 -0.0553466 -0.00268647)
(-0.0051439 -0.0599804 -0.00279411)
(-0.00476395 -0.0636294 -0.0028232)
(-0.00439838 -0.0663466 -0.00276836)
(-0.00404698 -0.0681544 -0.00262489)
(-0.00370683 -0.0690427 -0.00238754)
(-0.00337541 -0.0689707 -0.00204652)
(-0.00305025 -0.0678493 -0.00158068)
(-0.00272385 -0.0654895 -0.000947026)
(-0.00237738 -0.0615179 -7.45561e-05)
(-0.00197816 -0.0553125 0.00110237)
(-0.00148005 -0.0460624 0.002527)
(-0.000848072 -0.0330571 0.00383497)
(-0.00011716 -0.0163144 0.00427886)
(0.000568478 0.0026037 0.00316627)
(0.000943248 0.0207445 0.000802282)
(0.000873229 0.0356015 -0.00142304)
(0.000561903 0.0461646 -0.00246245)
(0.000285404 0.0520042 -0.00247603)
(0.00012056 0.0535188 -0.0020751)
(3.92205e-05 0.0489882 -0.00137636)
(1.05879e-05 0.0265462 -0.00037418)
(-1.50351e-05 0.0320938 0.00425091)
(-0.00078573 0.0601181 0.00956997)
(-0.00190355 0.0639243 0.0114795)
(-0.00308593 0.0563582 0.0112569)
(-0.00431827 0.0402335 0.00854536)
(-0.00529264 0.022996 0.00429698)
(-0.00622721 0.00847962 0.000495792)
(-0.00708363 -0.00344206 -0.0019254)
(-0.00779844 -0.0139484 -0.00309785)
(-0.00834353 -0.0238433 -0.00343665)
(-0.00869962 -0.0333472 -0.00333303)
(-0.00885069 -0.042252 -0.0031049)
(-0.00880154 -0.0501774 -0.00295248)
(-0.00858303 -0.0568128 -0.00293246)
(-0.00824461 -0.062051 -0.00299926)
(-0.00783675 -0.0659673 -0.00307735)
(-0.00739847 -0.0687159 -0.00310594)
(-0.00695485 -0.0704393 -0.00304764)
(-0.00651971 -0.0712288 -0.00288128)
(-0.00609912 -0.0711161 -0.00259272)
(-0.005693 -0.0700695 -0.002166)
(-0.00529317 -0.0679764 -0.00157313)
(-0.00487778 -0.0646001 -0.000763117)
(-0.00440558 -0.0595092 0.000338367)
(-0.00381338 -0.0520027 0.00179173)
(-0.00301978 -0.0411311 0.00352797)
(-0.00195958 -0.0260525 0.00514429)
(-0.000687725 -0.0069451 0.00581852)
(0.000535518 0.0139519 0.004823)
(0.00132323 0.0327909 0.00252115)
(0.00147601 0.0463588 0.000304284)
(0.0011862 0.0534625 -0.000847171)
(0.000805398 0.0551508 -0.00106812)
(0.00039345 0.050103 -0.000685904)
(4.43446e-05 0.0270845 4.8059e-05)
(9.50418e-05 0.0310661 0.00304226)
(-0.000190601 0.0599122 0.00750906)
(-0.000838178 0.064707 0.00873695)
(-0.00170675 0.0592807 0.00774869)
(-0.0028662 0.0456432 0.00422959)
(-0.00393454 0.0302927 -0.000134029)
(-0.00487476 0.0166187 -0.00352054)
(-0.00563651 0.00469236 -0.00538839)
(-0.00623418 -0.00632418 -0.00597813)
(-0.00669873 -0.0170715 -0.00570928)
(-0.00703643 -0.0277 -0.00502062)
(-0.00723425 -0.0378899 -0.00432247)
(-0.00728366 -0.0470741 -0.00388372)
(-0.00719853 -0.0547668 -0.00375297)
(-0.0070126 -0.0607904 -0.0038222)
(-0.00676297 -0.0652594 -0.00395689)
(-0.00647832 -0.0684092 -0.00406631)
(-0.00617716 -0.0704516 -0.00410402)
(-0.00587101 -0.0715252 -0.00404649)
(-0.00556746 -0.0716998 -0.00387714)
(-0.00527101 -0.0709883 -0.00357768)
(-0.0049814 -0.0693456 -0.00312204)
(-0.00468962 -0.0666469 -0.00246881)
(-0.00437168 -0.0626365 -0.00155204)
(-0.00398394 -0.0568392 -0.000278682)
(-0.00345733 -0.0484536 0.00143821)
(-0.00269708 -0.036363 0.00354993)
(-0.00162992 -0.0196076 0.00561946)
(-0.000325819 0.00138831 0.00670942)
(0.000878174 0.023547 0.00601723)
(0.00151216 0.0420255 0.00399548)
(0.00140135 0.0531229 0.00211424)
(0.000993591 0.0563855 0.00122962)
(0.000477028 0.0515817 0.000988242)
(4.59339e-05 0.0278513 0.000796181)
(0.000113895 0.0291845 0.00170604)
(0.00034401 0.0581443 0.00476791)
(0.000238073 0.0641007 0.00545365)
(-0.000113096 0.0605811 0.00439058)
(-0.000766083 0.0492829 0.0012549)
(-0.00160059 0.0347897 -0.00248568)
(-0.00242908 0.0208885 -0.00523511)
(-0.00317106 0.00838089 -0.00651865)
(-0.00382604 -0.00324145 -0.00653247)
(-0.00441149 -0.0146183 -0.00567867)
(-0.00490468 -0.0259971 -0.00445922)
(-0.00525035 -0.0370617 -0.00341329)
(-0.00541958 -0.0470844 -0.00289341)
(-0.00543012 -0.0553785 -0.0029003)
(-0.00532627 -0.0616912 -0.00320485)
(-0.00515323 -0.066207 -0.0035815)
(-0.00494427 -0.0692766 -0.00390666)
(-0.00472024 -0.0711946 -0.00413258)
(-0.00449403 -0.0721419 -0.0042426)
(-0.00427445 -0.0722127 -0.00422797)
(-0.0040678 -0.0714432 -0.00407951)
(-0.00387795 -0.0698236 -0.00378331)
(-0.00370452 -0.0672909 -0.00331518)
(-0.00353841 -0.0636994 -0.00263171)
(-0.0033569 -0.0587607 -0.00165766)
(-0.0031193 -0.0519346 -0.000276784)
(-0.00275284 -0.0422899 0.0016418)
(-0.00214937 -0.0285481 0.0040859)
(-0.00122371 -0.00975261 0.00656427)
(-7.71318e-05 0.0130414 0.00797363)
(0.000875023 0.0353836 0.0074719)
(0.00114663 0.0512236 0.00573137)
(0.000913452 0.0569257 0.00429952)
(0.000454267 0.0525894 0.00328155)
(6.44206e-05 0.0283054 0.00177645)
(0.000200659 0.025475 0.000481269)
(0.00109678 0.0531428 0.00184318)
(0.00178528 0.0614446 0.00211496)
(0.00219067 0.0604323 0.0013077)
(0.00233226 0.0536471 -0.000671269)
(0.00209873 0.0425926 -0.00332204)
(0.00156895 0.0302542 -0.00549505)
(0.000912413 0.0181014 -0.00655259)
(0.000240623 0.00622884 -0.00635387)
(-0.000353359 -0.00588086 -0.00511589)
(-0.000750157 -0.0185535 -0.00344666)
(-0.000905822 -0.0313081 -0.00217368)
(-0.000899119 -0.0429792 -0.00178175)
(-0.000826857 -0.0525372 -0.00215158)
(-0.000742895 -0.0596577 -0.00286937)
(-0.000664999 -0.0646299 -0.00360675)
(-0.000596011 -0.0679484 -0.00422378)
(-0.000535559 -0.0700143 -0.00468967)
(-0.000484374 -0.0710695 -0.00500471)
(-0.000444904 -0.0712426 -0.00517187)
(-0.000420934 -0.0705941 -0.00519193)
(-0.000417249 -0.0691371 -0.00506198)
(-0.000439068 -0.0668393 -0.00477214)
(-0.000490301 -0.063613 -0.00429911)
(-0.000571029 -0.0592863 -0.00359489)
(-0.000666108 -0.0535379 -0.00256832)
(-0.000745238 -0.0457736 -0.00106392)
(-0.000738876 -0.0349378 0.00112696)
(-0.000520762 -0.0196067 0.00406102)
(1.18674e-05 0.000973578 0.00717212)
(0.000718657 0.0245615 0.00913601)
(0.00112964 0.0448385 0.00909789)
(0.00103344 0.0546643 0.00787173)
(0.00059546 0.0521718 0.00612804)
(0.000147988 0.0285544 0.00298236)
(5.30882e-05 0.021597 0.000270064)
(0.000772789 0.0462854 0.000633312)
(0.00165429 0.0554364 0.000521683)
(0.00236423 0.0559906 -8.74738e-05)
(0.00288822 0.0520683 -0.00118628)
(0.0031534 0.0440912 -0.00263426)
(0.0030381 0.0337342 -0.00368941)
(0.0027423 0.0222923 -0.00369969)
(0.00251134 0.00983951 -0.00248483)
(0.00253425 -0.00401414 -0.000572418)
(0.0028287 -0.018824 0.000938881)
(0.003222 -0.0329872 0.00121641)
(0.00352464 -0.0448427 0.000328646)
(0.00366115 -0.0536994 -0.00109253)
(0.00366383 -0.05984 -0.00248878)
(0.00359464 -0.0639434 -0.00362584)
(0.0034982 -0.0666028 -0.00448466)
(0.00339872 -0.0681858 -0.00510788)
(0.00330669 -0.0688869 -0.00553638)
(0.00322359 -0.0688016 -0.00579992)
(0.00314525 -0.0679672 -0.00591879)
(0.00306379 -0.0663801 -0.00590451)
(0.00296859 -0.0639976 -0.00575874)
(0.0028466 -0.0607326 -0.0054704)
(0.00268094 -0.0564412 -0.00500981)
(0.00245688 -0.0509016 -0.00431653)
(0.00217096 -0.043766 -0.00327741)
(0.00183493 -0.0344361 -0.00169536)
(0.00149902 -0.0218745 0.000705838)
(0.00127459 -0.00484561 0.00401653)
(0.00125091 0.0164771 0.00753105)
(0.00127262 0.0377745 0.00973524)
(0.00107346 0.0507937 0.00981789)
(0.00062599 0.0507904 0.0080726)
(0.000172042 0.0288067 0.00381138)
(-5.63884e-05 0.0196112 0.000665039)
(0.000143623 0.0412741 0.000864517)
(0.00057393 0.049499 0.000546367)
(0.000956043 0.0504904 8.39359e-05)
(0.00124991 0.0479915 -0.000395265)
(0.00143773 0.0421627 -0.0006575)
(0.00151955 0.0332405 -0.000167228)
(0.00173443 0.0213502 0.0012302)
(0.00228117 0.00665955 0.00281966)
(0.0031084 -0.00952286 0.00342924)
(0.00394693 -0.0248597 0.00249078)
(0.00455156 -0.0374318 0.000471394)
(0.0048614 -0.0467115 -0.00174089)
(0.00495642 -0.0532619 -0.00357414)
(0.00494146 -0.0579089 -0.00490677)
(0.00489368 -0.0612545 -0.00582849)
(0.00485458 -0.0636247 -0.00645533)
(0.00483962 -0.0651717 -0.00687442)
(0.00484813 -0.0659614 -0.00714322)
(0.00487202 -0.0660169 -0.00729743)
(0.00490049 -0.0653342 -0.00735713)
(0.00492144 -0.0638847 -0.0073305)
(0.00492155 -0.06161 -0.00721556)
(0.00488547 -0.0584109 -0.0069996)
(0.00479301 -0.0541351 -0.00665578)
(0.00462014 -0.0485679 -0.00613421)
(0.00434176 -0.04142 -0.00534619)
(0.00394231 -0.0322726 -0.0041349)
(0.00342301 -0.0204695 -0.00224917)
(0.00282139 -0.00512359 0.000586769)
(0.00222932 0.0140218 0.00424765)
(0.00169454 0.0342231 0.00759391)
(0.00118481 0.048047 0.00898805)
(0.000630588 0.0495104 0.00792714)
(0.000161546 0.0289997 0.00376071)
(-0.000114333 0.0198919 0.0013487)
(-0.000441403 0.0407983 0.00219884)
(-0.000724641 0.0484489 0.00227433)
(-0.000940287 0.0493933 0.00232094)
(-0.00107871 0.0468266 0.00265772)
(-0.00103749 0.0399947 0.00349823)
(-0.000581011 0.0283009 0.00458641)
(0.000356297 0.0128196 0.00503406)
(0.00156342 -0.00396186 0.00408033)
(0.00269709 -0.0192579 0.00186162)
(0.00353423 -0.0314627 -0.000760708)
(0.00406064 -0.0405558 -0.00301329)
(0.00437845 -0.0473166 -0.00464685)
(0.00459835 -0.0524927 -0.0057601)
(0.00478919 -0.0565238 -0.00652139)
(0.00498455 -0.0596102 -0.00705825)
(0.0051923 -0.0618386 -0.00744923)
(0.00540827 -0.0632561 -0.00773947)
(0.00562471 -0.0638932 -0.007954)
(0.00583324 -0.0637664 -0.00810573)
(0.00602521 -0.0628743 -0.00819991)
(0.00619124 -0.0611924 -0.00823629)
(0.00632028 -0.058663 -0.00820973)
(0.00639782 -0.0551826 -0.00810941)
(0.00640232 -0.0505921 -0.00791607)
(0.00630402 -0.044683 -0.00759393)
(0.00606618 -0.0372161 -0.0070762)
(0.00565316 -0.0279053 -0.00623619)
(0.0050437 -0.0163355 -0.00485061)
(0.00424445 -0.00192649 -0.00261687)
(0.00330393 0.0155502 0.000584506)
(0.00230321 0.0341117 0.00406389)
(0.00142131 0.0473336 0.00617035)
(0.000671615 0.0491659 0.00598493)
(0.000131949 0.0293527 0.0028971)
(-0.000108666 0.0210849 0.00205602)
(-0.000647577 0.0424743 0.00404566)
(-0.00127214 0.0493348 0.00483841)
(-0.00177579 0.0490026 0.00531643)
(-0.00206225 0.0437338 0.00583245)
(-0.00189283 0.0326379 0.00605191)
(-0.00116162 0.0171693 0.00519243)
(-0.000169059 0.000498044 0.00297431)
(0.00073976 -0.0144079 2.29807e-05)
(0.00140588 -0.0262646 -0.00274286)
(0.00185669 -0.0353506 -0.00485288)
(0.00218895 -0.0424331 -0.0063191)
(0.00248543 -0.0480972 -0.00732343)
(0.00279006 -0.0526557 -0.00802439)
(0.00311406 -0.0562639 -0.00852117)
(0.00345643 -0.0590107 -0.0088726)
(0.00381147 -0.0609558 -0.0091158)
(0.00417274 -0.0621381 -0.00927642)
(0.0045337 -0.0625786 -0.00937293)
(0.00488754 -0.0622803 -0.00941825)
(0.00522674 -0.0612261 -0.00942021)
(0.00554241 -0.0593721 -0.0093818)
(0.00582322 -0.0566327 -0.00930108)
(0.00605355 -0.0528618 -0.00917085)
(0.00620996 -0.0478421 -0.00897767)
(0.00625882 -0.0413057 -0.0086971)
(0.00615683 -0.0329886 -0.00828291)
(0.00585787 -0.0226685 -0.00764026)
(0.00532404 -0.0101469 -0.00658659)
(0.00454032 0.00474316 -0.00485053)
(0.00353595 0.0217318 -0.00225889)
(0.00238403 0.0387412 0.00075827)
(0.00138169 0.0500629 0.00285455)
(0.000581476 0.0508307 0.00327293)
(5.68344e-05 0.0300189 0.00159549)
(-7.70802e-05 0.0220255 0.00241793)
(-0.000558669 0.0441608 0.00528717)
(-0.00115098 0.0503334 0.00649987)
(-0.00162649 0.0485229 0.00686795)
(-0.00187514 0.0402583 0.00650671)
(-0.00167023 0.0262491 0.00488849)
(-0.00116276 0.0100642 0.00202469)
(-0.00065774 -0.00490991 -0.00126058)
(-0.000272632 -0.0171902 -0.00407534)
(2.53204e-05 -0.0269365 -0.00609763)
(0.000305498 -0.034804 -0.00743937)
(0.000617995 -0.0412982 -0.00831045)
(0.000978321 -0.0466956 -0.00887347)
(0.00138217 -0.0511369 -0.0092337)
(0.00181682 -0.0547023 -0.00945746)
(0.00227132 -0.0574409 -0.00958888)
(0.00273598 -0.0593833 -0.00965862)
(0.00320213 -0.0605483 -0.00968811)
(0.00366184 -0.060944 -0.00969167)
(0.00410743 -0.060566 -0.00967771)
(0.00453086 -0.0593909 -0.00964944)
(0.00492272 -0.0573642 -0.0096054)
(0.00527095 -0.054382 -0.00953997)
(0.00555887 -0.0502671 -0.00944399)
(0.00576166 -0.0447623 -0.0093054)
(0.00584449 -0.0375671 -0.00910769)
(0.00576488 -0.0284156 -0.00882181)
(0.00548197 -0.0171419 -0.00837927)
(0.0049722 -0.00369976 -0.0076293)
(0.0042331 0.0117867 -0.00633344)
(0.00329107 0.0286574 -0.0043195)
(0.00219889 0.044535 -0.00187851)
(0.00127122 0.0540094 -5.79884e-05)
(0.000531962 0.0534153 0.000721486)
(2.48488e-05 0.0308739 0.000368283)
(-6.15136e-05 0.0223503 0.00230057)
(-0.000468708 0.0444361 0.00532933)
(-0.000960922 0.0495051 0.00636714)
(-0.00138081 0.0464116 0.00614217)
(-0.00168881 0.0359985 0.00448557)
(-0.00172518 0.0210484 0.00145868)
(-0.00166991 0.00575362 -0.00202978)
(-0.00163544 -0.00753785 -0.00500559)
(-0.00159712 -0.0184577 -0.00709777)
(-0.00150309 -0.0274701 -0.00842878)
(-0.00132379 -0.0350439 -0.00924294)
(-0.00105588 -0.0414457 -0.00973339)
(-0.000713055 -0.0467996 -0.0100218)
(-0.000314626 -0.0511769 -0.0101796)
(0.000120463 -0.0546392 -0.0102479)
(0.000577986 -0.0572412 -0.0102532)
(0.00104739 -0.0590251 -0.010215)
(0.00152064 -0.0600179 -0.0101495)
(0.00199115 -0.0602303 -0.0100693)
(0.00245292 -0.0596549 -0.00998276)
(0.00289945 -0.0582591 -0.00989296)
(0.00332261 -0.0559717 -0.00979757)
(0.00371158 -0.0526576 -0.00968893)
(0.0040509 -0.04809 -0.00955554)
(0.00431686 -0.0419477 -0.00938573)
(0.00447487 -0.0338743 -0.00917351)
(0.00448087 -0.0235955 -0.00891887)
(0.00428923 -0.0110372 -0.00860005)
(0.0038676 0.00360858 -0.00811119)
(0.00323175 0.0198369 -0.00723407)
(0.00244474 0.0365659 -0.00577857)
(0.00157149 0.0511468 -0.00392206)
(0.00087876 0.0586301 -0.0024446)
(0.000348758 0.0565126 -0.0014473)
(-2.41556e-05 0.0318589 -0.000651471)
(-1.31926e-05 0.0224051 0.00162096)
(-0.000280347 0.0444173 0.00394564)
(-0.000656398 0.0490899 0.00445747)
(-0.00104426 0.0457867 0.00364257)
(-0.00145965 0.0354354 0.00123968)
(-0.00178229 0.0214894 -0.0020908)
(-0.00207042 0.00767994 -0.00521238)
(-0.00231252 -0.00446405 -0.00748544)
(-0.0024596 -0.0148624 -0.0088941)
(-0.00248503 -0.0238329 -0.00968716)
(-0.00238759 -0.0316131 -0.0101079)
(-0.00218402 -0.0383008 -0.0103158)
(-0.00189982 -0.0439331 -0.0103948)
(-0.00156027 -0.0485522 -0.0103841)
(-0.00118549 -0.0522177 -0.0103044)
(-0.000789476 -0.0549877 -0.0101736)
(-0.000381749 -0.0569055 -0.0100119)
(3.10446e-05 -0.0579976 -0.00984025)
(0.000443937 -0.0582737 -0.00967645)
(0.000852656 -0.0577246 -0.0095319)
(0.00125254 -0.0563128 -0.00940955)
(0.0016375 -0.0539552 -0.00930329)
(0.00199948 -0.0504942 -0.0091982)
(0.00232739 -0.0456668 -0.00907173)
(0.0026048 -0.0391024 -0.00889899)
(0.00280784 -0.0303862 -0.008667)
(0.00290394 -0.0191952 -0.00839364)
(0.00285335 -0.00548965 -0.00811878)
(0.00262064 0.0103061 -0.0078278)
(0.00220257 0.0272524 -0.00736017)
(0.00165258 0.0437887 -0.00648874)
(0.00105166 0.0570552 -0.00523387)
(0.000587169 0.0628925 -0.00408175)
(0.000236423 0.0593768 -0.00294896)
(-3.09784e-05 0.0327345 -0.00130008)
(3.94523e-05 0.0219952 0.000677585)
(-1.14819e-05 0.0439843 0.00182829)
(-0.000210085 0.0488632 0.00180856)
(-0.000496827 0.0461378 0.00076961)
(-0.000899278 0.0369622 -0.00156466)
(-0.00135691 0.0242213 -0.00442956)
(-0.00182465 0.0111808 -0.00684125)
(-0.0022332 -0.000804295 -0.00842697)
(-0.00252317 -0.0115166 -0.00931018)
(-0.00267063 -0.0210375 -0.00976694)
(-0.00268061 -0.0294024 -0.0100159)
(-0.00257629 -0.0365814 -0.0101625)
(-0.00238806 -0.0425619 -0.0102291)
(-0.00214426 -0.0473936 -0.0102073)
(-0.00186604 -0.051169 -0.0100932)
(-0.00156727 -0.0539791 -0.00990004)
(-0.00125649 -0.0558907 -0.00965675)
(-0.000938784 -0.0569436 -0.00939943)
(-0.000617196 -0.0571554 -0.0091617)
(-0.000293889 -0.0565205 -0.00896698)
(2.87437e-05 -0.055001 -0.00882474)
(0.000346784 -0.0525083 -0.00872974)
(0.000654452 -0.0488765 -0.0086619)
(0.000944072 -0.0438339 -0.0085856)
(0.0012055 -0.0369992 -0.00845229)
(0.00142536 -0.0279241 -0.00821742)
(0.0015851 -0.0162127 -0.00787834)
(0.00165751 -0.00175427 -0.00750666)
(0.00160725 0.014961 -0.00720044)
(0.00141174 0.0326781 -0.00693328)
(0.0010951 0.0493719 -0.00649817)
(0.000722606 0.0619334 -0.00574878)
(0.000418022 0.0668486 -0.0048704)
(0.000176505 0.0621999 -0.00368402)
(-2.61653e-05 0.0337452 -0.00157404)
(6.69018e-05 0.0210995 -0.000105408)
(0.00023961 0.0431906 -9.49551e-05)
(0.000279991 0.0491742 -0.000532763)
(0.00021671 0.0477038 -0.00151875)
(2.99666e-05 0.0408899 -0.00326146)
(-0.000328774 0.0302044 -0.0053262)
(-0.000785891 0.0182614 -0.00700579)
(-0.00123724 0.00644624 -0.00807876)
(-0.00160982 -0.00473212 -0.00870142)
(-0.00186706 -0.0150233 -0.00912415)
(-0.00200592 -0.0242006 -0.00949599)
(-0.00204667 -0.0320863 -0.00982266)
(-0.00201656 -0.0386234 -0.0100369)
(-0.0019402 -0.0438814 -0.0100804)
(-0.00183436 -0.0479915 -0.00993812)
(-0.00170865 -0.0510748 -0.00963815)
(-0.00156733 -0.0532118 -0.00923923)
(-0.00141159 -0.0544468 -0.00881341)
(-0.00124128 -0.0547993 -0.00842711)
(-0.00105586 -0.0542657 -0.00812682)
(-0.000855333 -0.0528084 -0.00793448)
(-0.0006413 -0.050334 -0.00784957)
(-0.000417551 -0.0466689 -0.00785084)
(-0.000189126 -0.0415422 -0.00789225)
(3.91702e-05 -0.0345877 -0.00789869)
(0.00025798 -0.025365 -0.00777888)
(0.000457235 -0.0134407 -0.00747145)
(0.000621641 0.00137675 -0.00701534)
(0.000717891 0.0186339 -0.00656652)
(0.000710157 0.036924 -0.00625617)
(0.000591927 0.0538638 -0.00599567)
(0.000402564 0.0660805 -0.00555736)
(0.0002269 0.0704399 -0.00488685)
(8.21166e-05 0.0647875 -0.00374644)
(-3.47295e-05 0.0346942 -0.00156632)
(4.08878e-05 0.0201124 -0.000451766)
(0.000233536 0.0418929 -0.0011533)
(0.000373329 0.0487938 -0.00187554)
(0.000441492 0.0483002 -0.00272275)
(0.000410127 0.0433195 -0.00387634)
(0.000218589 0.0343558 -0.00518829)
(-0.000114075 0.0233301 -0.00625257)
(-0.000490965 0.0116483 -0.00700312)
(-0.000833099 9.3111e-05 -0.00763105)
(-0.00110115 -0.0107823 -0.008324)
(-0.00128808 -0.0205239 -0.00909139)
(-0.00140651 -0.0288448 -0.00978768)
(-0.00147759 -0.0356803 -0.010248)
(-0.00152125 -0.0411438 -0.0103811)
(-0.00154952 -0.0454184 -0.0101794)