/*--------------------------------*- C++ -*----------------------------------*\
| =========                 |                                                 |
| \\      /  F ield         | OpenFOAM: The Open Source CFD Toolbox           |
|  \\    /   O peration     | Version:  v2006                                 |
|   \\  /    A nd           | Website:  www.openfoam.com                      |
|    \\/     M anipulation  |                                                 |
\*---------------------------------------------------------------------------*/
FoamFile
{
    version     2.0;
    format      ascii;
    class       volVectorField;
    location    "59";
    object      U;
}
// * * * * * * * * * * * * * * * * * * * * * * * * * * * * * * * * * * * * * //

dimensions      [0 1 -1 0 0 0 0];


internalField   nonuniform List<vector> 
78750
(
(0.000113142 -0.00108399 0.000622347)
(0.000582998 -0.00233728 0.00183836)
(0.00128415 -0.0031263 0.00282547)
(0.00214458 -0.00370659 0.0035307)
(0.0031143 -0.00419523 0.00397594)
(0.00417597 -0.00462901 0.0042156)
(0.00531804 -0.00500664 0.00430852)
(0.00652519 -0.00531342 0.00430418)
(0.00777774 -0.00553382 0.0042386)
(0.00905309 -0.00565609 0.00413544)
(0.0103269 -0.00567333 0.00400908)
(0.011574 -0.00558295 0.00386763)
(0.0127693 -0.00538582 0.00371539)
(0.0138882 -0.00508548 0.00355453)
(0.0149075 -0.00468757 0.0033862)
(0.0158052 -0.0041995 0.00321124)
(0.0165612 -0.0036304 0.00303057)
(0.0171576 -0.00299124 0.00284544)
(0.0175798 -0.00229503 0.00265749)
(0.0178168 -0.00155684 0.00246886)
(0.0178633 -0.000793838 0.00228196)
(0.0177134 -2.80385e-05 0.00209982)
(0.0173591 0.000719642 0.00192591)
(0.0168078 0.0014296 0.00176381)
(0.0160773 0.00208408 0.00161627)
(0.0151912 0.00266979 0.00148403)
(0.0141747 0.00318059 0.00136516)
(0.0130518 0.00361998 0.0012538)
(0.0118424 0.00400692 0.0011394)
(0.0105537 0.00439719 0.00100668)
(0.00915582 0.00493809 0.000837309)
(0.00753726 0.00593795 0.000621001)
(0.0054995 0.00761121 0.000371041)
(0.00304764 0.00899067 0.000136888)
(0.000745293 0.00642679 -1.21795e-06)
(2.5263e-05 -0.00304501 0.00065314)
(0.000407953 -0.00686434 0.0017479)
(0.00103993 -0.00932984 0.00252375)
(0.00186709 -0.011126 0.00304773)
(0.00284093 -0.0125439 0.00339108)
(0.00390897 -0.013672 0.00360435)
(0.00503201 -0.0145305 0.00372644)
(0.00617849 -0.0151178 0.00378496)
(0.00732158 -0.0154315 0.00379675)
(0.00843838 -0.0154694 0.00377216)
(0.00950897 -0.0152323 0.00371724)
(0.0105156 -0.0147238 0.00363533)
(0.0114424 -0.0139509 0.00352815)
(0.0122753 -0.0129236 0.00339647)
(0.0130013 -0.0116543 0.00324054)
(0.013609 -0.010158 0.00306039)
(0.0140873 -0.00845252 0.00285593)
(0.0144264 -0.00656022 0.00262703)
(0.0146173 -0.00450912 0.00237363)
(0.0146516 -0.00233434 0.00209572)
(0.0145181 -7.99657e-05 0.00179383)
(0.0142203 0.00219642 0.00147153)
(0.0137672 0.00442768 0.00113433)
(0.0131646 0.00654445 0.00079112)
(0.0124252 0.00848191 0.000453604)
(0.01157 0.0101865 0.00013305)
(0.0106258 0.0116311 -0.000160798)
(0.00961523 0.012838 -0.000423781)
(0.00855005 0.0139185 -0.00065853)
(0.00743707 0.0151272 -0.000870004)
(0.00622729 0.0169442 -0.00104123)
(0.00481898 0.0199288 -0.00112257)
(0.00319751 0.023648 -0.00105442)
(0.00152783 0.0248937 -0.000805442)
(0.000151419 0.0159458 -0.000342324)
(1.45457e-06 -0.00438939 0.0008998)
(0.000323739 -0.0106849 0.00230711)
(0.000924334 -0.0152354 0.00329179)
(0.00174714 -0.01861 0.00395201)
(0.00271592 -0.0210933 0.00438504)
(0.00376202 -0.0228468 0.00466514)
(0.00483027 -0.0239826 0.00484529)
(0.00589231 -0.0245902 0.004964)
(0.00692457 -0.0247298 0.00504168)
(0.00790179 -0.0244414 0.00508861)
(0.00880894 -0.0237583 0.0051109)
(0.0096342 -0.0227095 0.00511188)
(0.0103679 -0.0213207 0.00509308)
(0.0110026 -0.0196151 0.00505492)
(0.0115331 -0.0176135 0.00499702)
(0.0119556 -0.0153341 0.00491883)
(0.0122665 -0.0127949 0.00481889)
(0.0124626 -0.0100192 0.00469368)
(0.0125385 -0.00703929 0.00453793)
(0.0124904 -0.00389505 0.00434535)
(0.0123153 -0.000607687 0.00411304)
(0.0120064 0.00278352 0.00383368)
(0.0115595 0.00617146 0.00349126)
(0.0109793 0.00941111 0.0030725)
(0.0102856 0.0123516 0.00257495)
(0.00949864 0.0149143 0.00201067)
(0.00863658 0.0170945 0.00139948)
(0.00772279 0.0189592 0.000764965)
(0.00678113 0.0207111 0.00013592)
(0.00579901 0.0227809 -0.000454502)
(0.00472422 0.0258086 -0.000948811)
(0.0035119 0.0300946 -0.00124591)
(0.00222808 0.0342358 -0.00124366)
(0.00100934 0.0339416 -0.000923873)
(0.000103711 0.0201809 -0.000328151)
(1.58226e-05 -0.00601263 0.000943371)
(0.00037326 -0.0151522 0.00228664)
(0.000996613 -0.0219294 0.00313201)
(0.00181743 -0.0268313 0.00363267)
(0.00274571 -0.0301808 0.00391294)
(0.00371093 -0.0323064 0.00406031)
(0.00467107 -0.0335068 0.00413231)
(0.00561532 -0.0339932 0.00416685)
(0.00652833 -0.033876 0.00418222)
(0.00738832 -0.033225 0.00418564)
(0.00818663 -0.032097 0.00418106)
(0.0089165 -0.03054 0.00417051)
(0.00957215 -0.0285954 0.00415496)
(0.0101482 -0.0262997 0.00413492)
(0.0106384 -0.0236914 0.00410844)
(0.0110367 -0.0208011 0.00407476)
(0.0113391 -0.0176293 0.00403996)
(0.0115392 -0.0141701 0.00401109)
(0.0116291 -0.0104352 0.00399096)
(0.0116027 -0.00644808 0.00397972)
(0.0114554 -0.00224966 0.0039726)
(0.0111837 0.00208931 0.00395626)
(0.0107878 0.00645412 0.00390541)
(0.0102683 0.0106855 0.00378472)
(0.0096284 0.0146057 0.00355852)
(0.0088811 0.0180749 0.00320421)
(0.00804563 0.0210527 0.00271768)
(0.00714353 0.0236491 0.00211146)
(0.00618727 0.026172 0.0014095)
(0.0051756 0.029172 0.000654275)
(0.00409529 0.0333066 -6.82484e-05)
(0.00293235 0.0385742 -0.000603025)
(0.00179581 0.0428026 -0.000792081)
(0.000788261 0.0410789 -0.000619682)
(7.11218e-05 0.0234419 -0.000181177)
(1.27751e-05 -0.00755076 0.000955857)
(0.000358366 -0.0191031 0.00221859)
(0.000945839 -0.0275746 0.00296602)
(0.00170497 -0.0334928 0.00339519)
(0.00254308 -0.0373054 0.00363749)
(0.00339541 -0.0395487 0.00377266)
(0.00423301 -0.0406922 0.00384905)
(0.00505433 -0.0410244 0.00389942)
(0.00584761 -0.0406822 0.00393576)
(0.00659525 -0.0397516 0.00396041)
(0.00729352 -0.0383025 0.00397441)
(0.00793952 -0.0363934 0.00397831)
(0.00852544 -0.0340768 0.00397178)
(0.00904523 -0.0313884 0.0039546)
(0.00949263 -0.0283322 0.00393206)
(0.00985695 -0.0249119 0.00390902)
(0.010128 -0.0211457 0.00388923)
(0.0102999 -0.017055 0.00387785)
(0.0103709 -0.0126647 0.00388073)
(0.0103423 -0.00800374 0.00390351)
(0.0102163 -0.00311037 0.00394933)
(0.00999532 0.00195594 0.00401471)
(0.00967997 0.00709631 0.00408377)
(0.00926762 0.0121598 0.00412389)
(0.00875373 0.0169554 0.00408835)
(0.00813619 0.0213064 0.00392889)
(0.0074197 0.0251391 0.0036117)
(0.00661362 0.0285679 0.00312367)
(0.00572412 0.0319439 0.00246772)
(0.00475264 0.0358525 0.00167045)
(0.00370305 0.0408665 0.00082364)
(0.00259193 0.0466297 0.000119149)
(0.00155696 0.0504503 -0.000238966)
(0.000671439 0.0471414 -0.000238597)
(5.64317e-05 0.0260444 -1.6224e-05)
(2.09836e-05 -0.00922476 0.000849586)
(0.000371656 -0.0233246 0.00190245)
(0.000943498 -0.0335173 0.0024795)
(0.00166186 -0.0404329 0.00278493)
(0.00243623 -0.0446917 0.00294089)
(0.00321272 -0.0470566 0.00301463)
(0.00396812 -0.0481527 0.00304217)
(0.00470801 -0.0483488 0.00304713)
(0.00542822 -0.0478068 0.00303969)
(0.00611221 -0.046627 0.00302203)
(0.0067579 -0.044894 0.00299564)
(0.00735677 -0.0426778 0.00296231)
(0.00790518 -0.0400075 0.00292411)
(0.00839462 -0.0368843 0.0028856)
(0.0088091 -0.0333319 0.00285028)
(0.00913795 -0.0293809 0.00282375)
(0.00937459 -0.0250689 0.00281269)
(0.0095155 -0.0204391 0.00282456)
(0.00956057 -0.0155374 0.0028674)
(0.00951314 -0.010407 0.00294943)
(0.00937914 -0.00508775 0.00307779)
(0.00916553 0.000377747 0.00325525)
(0.00887797 0.00592852 0.00347441)
(0.00851823 0.0114663 0.0037103)
(0.00808266 0.0168498 0.00391665)
(0.00756317 0.0219249 0.00403183)
(0.00695169 0.0266072 0.00399519)
(0.00624291 0.0309879 0.00376187)
(0.00543229 0.0354094 0.00330527)
(0.00451681 0.0404399 0.00262456)
(0.00350479 0.0465296 0.00179068)
(0.00242995 0.0529748 0.000998613)
(0.00144951 0.0566474 0.000482518)
(0.000624222 0.0521482 0.000260355)
(5.6132e-05 0.0282009 0.000171274)
(2.01473e-05 -0.0106788 0.000698056)
(0.000335327 -0.0268362 0.00154304)
(0.000842309 -0.0382913 0.00200791)
(0.00147426 -0.0458347 0.00226475)
(0.00214943 -0.0502877 0.0024036)
(0.00282127 -0.0526302 0.00247222)
(0.00347775 -0.0536177 0.00249847)
(0.00412662 -0.0536541 0.00250013)
(0.00476394 -0.0529084 0.00248605)
(0.00537711 -0.0514903 0.00245788)
(0.00595765 -0.0494915 0.00241695)
(0.00650364 -0.0469538 0.00236337)
(0.00700963 -0.0438758 0.0022996)
(0.00745851 -0.0402794 0.00222939)
(0.00783962 -0.0361967 0.00215759)
(0.00814448 -0.0316748 0.00208995)
(0.00836663 -0.0267753 0.00203341)
(0.00850265 -0.0215689 0.00199633)
(0.00855237 -0.0161279 0.00198877)
(0.00851864 -0.0105175 0.00202262)
(0.00840649 -0.00479138 0.00211121)
(0.00822197 0.00100628 0.00226691)
(0.00797186 0.00682964 0.00249576)
(0.0076609 0.0126176 0.00278889)
(0.00728815 0.0182873 0.00311419)
(0.00684629 0.02375 0.00341425)
(0.00632332 0.0289713 0.00361625)
(0.00570571 0.0340648 0.00364867)
(0.00498038 0.0393644 0.00345183)
(0.00413957 0.045368 0.00299038)
(0.0031916 0.0523137 0.00230094)
(0.00218669 0.059108 0.00155315)
(0.00128381 0.0623764 0.000973242)
(0.000537058 0.0565983 0.000589564)
(4.10283e-05 0.0300509 0.000266339)
(2.01954e-05 -0.012065 0.000574328)
(0.000305697 -0.0302195 0.00128358)
(0.000763896 -0.0429528 0.0016936)
(0.00133594 -0.0512029 0.00193445)
(0.00194688 -0.055961 0.00206976)
(0.00255623 -0.0583924 0.0021367)
(0.00315445 -0.0593618 0.00215905)
(0.00374809 -0.0593189 0.00215261)
(0.00433458 -0.058452 0.00212815)
(0.004897 -0.0568797 0.00208859)
(0.00543353 -0.0546676 0.00203434)
(0.00594171 -0.0518294 0.00196589)
(0.00640691 -0.0483838 0.00188691)
(0.00681911 -0.0443571 0.00180153)
(0.00716938 -0.0397935 0.00171431)
(0.00745015 -0.0347596 0.00163027)
(0.0076562 -0.0293406 0.00155504)
(0.00778513 -0.0236301 0.00149514)
(0.00783737 -0.0177204 0.00145865)
(0.00781573 -0.0116928 0.0014559)
(0.00772489 -0.00561099 0.00149984)
(0.00757079 0.000479203 0.0016052)
(0.00735898 0.00654347 0.00178519)
(0.00709331 0.0125508 0.00204491)
(0.00677408 0.0184693 0.00237217)
(0.00639497 0.0242762 0.00272982)
(0.00594242 0.0300007 0.00305612)
(0.00539789 0.0357972 0.0032738)
(0.00474192 0.0420007 0.00330116)
(0.0039617 0.0490355 0.00306881)
(0.0030628 0.0569228 0.00256915)
(0.00210444 0.0641901 0.00192545)
(0.00124296 0.0672466 0.00133557)
(0.000524724 0.060449 0.000837478)
(4.6672e-05 0.0316665 0.000332215)
(2.04098e-05 -0.0132293 0.000467192)
(0.000283448 -0.0330177 0.00106865)
(0.000705691 -0.0467646 0.00144377)
(0.00123238 -0.0555449 0.00168194)
(0.00179301 -0.0605023 0.00182346)
(0.00235084 -0.0629627 0.00189741)
(0.00290221 -0.0638795 0.0019262)
(0.0034507 -0.0637291 0.00192245)
(0.00398813 -0.0627192 0.00189618)
(0.0045063 -0.0609554 0.00185045)
(0.00500281 -0.0584797 0.00178542)
(0.00546821 -0.055312 0.00170461)
(0.00589399 -0.0514689 0.00161136)
(0.00627156 -0.0469825 0.00150925)
(0.00659298 -0.0419116 0.00140243)
(0.0068519 -0.0363424 0.00129561)
(0.00704399 -0.0303817 0.00119401)
(0.00716706 -0.0241458 0.00110371)
(0.00722107 -0.0177489 0.00103225)
(0.00720786 -0.0112902 0.00098919)
(0.00713077 -0.00484798 0.00098663)
(0.00699421 0.00152245 0.0010392)
(0.00680338 0.00778611 0.00116218)
(0.00656273 0.0139293 0.001367)
(0.00627331 0.0199634 0.00165408)
(0.00593024 0.0259344 0.00200467)
(0.00552103 0.0319522 0.00237568)
(0.00502624 0.0382379 0.00269987)
(0.00442383 0.0451435 0.00289041)
(0.00369807 0.0530087 0.00285614)
(0.00285217 0.0616135 0.00255054)
(0.00195395 0.0691228 0.00204567)
(0.00114831 0.0718436 0.00149693)
(0.000477416 0.0640036 0.000948575)
(3.90052e-05 0.03316 0.000347562)
(1.74395e-05 -0.0143828 0.000410264)
(0.000256019 -0.0358516 0.000974966)
(0.000643265 -0.0506865 0.00135409)
(0.00113003 -0.0600773 0.00160539)
(0.0016497 -0.0653081 0.00175641)
(0.00216781 -0.0678607 0.00183538)
(0.00268288 -0.0687789 0.00186677)
(0.00319497 -0.0685699 0.00186439)
(0.00369712 -0.0674527 0.00183695)
(0.00418304 -0.0655253 0.0017873)
(0.0046464 -0.0628278 0.00171914)
(0.00508038 -0.0593762 0.0016355)
(0.00547726 -0.0551879 0.00153911)
(0.00582947 -0.0503022 0.00143284)
(0.00613049 -0.0447901 0.00131983)
(0.0063754 -0.0387525 0.00120359)
(0.00656098 -0.0323119 0.00108826)
(0.00668555 -0.0255997 0.000978917)
(0.00674893 -0.018744 0.00088198)
(0.0067521 -0.0118565 0.000805762)
(0.00669726 -0.00502673 0.000761133)
(0.00658756 0.0016806 0.000761749)
(0.00642646 0.00822676 0.00082301)
(0.0062169 0.0146059 0.000959238)
(0.00595938 0.0208559 0.00117869)
(0.00564915 0.0270722 0.00147671)
(0.00527418 0.0334307 0.00182867)
(0.00481527 0.0402165 0.00218414)
(0.00425005 0.0478075 0.00246354)
(0.0035619 0.0564753 0.00256727)
(0.00275227 0.0657831 0.00241969)
(0.00189378 0.0735671 0.002045)
(0.00112043 0.0760444 0.00155584)
(0.000468816 0.0672951 0.000996514)
(4.17967e-05 0.0345644 0.000349417)
(1.92036e-05 -0.0153723 0.000368132)
(0.000251332 -0.0382634 0.00090181)
(0.000625736 -0.0540097 0.00127692)
(0.00109295 -0.0639032 0.00153087)
(0.00158821 -0.0693508 0.00168392)
(0.00207937 -0.0719665 0.00176364)
(0.00256626 -0.0728679 0.00179503)
(0.00304928 -0.0725863 0.00179253)
(0.00352143 -0.0713455 0.00176356)
(0.00397613 -0.0692402 0.00171289)
(0.0044077 -0.0663062 0.00164399)
(0.00480979 -0.0625569 0.0015597)
(0.00517558 -0.0580128 0.00146245)
(0.00549871 -0.052722 0.00135455)
(0.00577403 -0.0467686 0.00123831)
(0.00599789 -0.0402688 0.00111628)
(0.00616803 -0.0333598 0.000991633)
(0.00628328 -0.0261869 0.000868565)
(0.00634347 -0.0188906 0.000752654)
(0.00634916 -0.0115944 0.000651409)
(0.00630168 -0.00439841 0.00057485)
(0.00620311 0.0026229 0.000535724)
(0.00605609 0.00942537 0.000548857)
(0.00586295 0.0160095 0.000629384)
(0.0056238 0.0224379 0.000789477)
(0.00533406 0.028851 0.00103321)
(0.00498233 0.0354853 0.00134964)
(0.00455019 0.042685 0.00170397)
(0.00401603 0.0508487 0.00202834)
(0.00336349 0.0601755 0.00222403)
(0.00259325 0.0700186 0.00219806)
(0.00178264 0.0779267 0.0019371)
(0.00105179 0.0800883 0.00151594)
(0.000434247 0.0704136 0.000976513)
(3.59916e-05 0.0358949 0.000330191)
(1.62825e-05 -0.0164199 0.000358597)
(0.000234276 -0.0408489 0.000899593)
(0.000587978 -0.0575879 0.0012884)
(0.00103068 -0.0680277 0.00155113)
(0.00149956 -0.0737122 0.00170718)
(0.00196409 -0.0764031 0.00178721)
(0.00242475 -0.0772979 0.00181828)
(0.00288181 -0.0769535 0.0018157)
(0.00332813 -0.0755992 0.00178748)
(0.00375721 -0.0733295 0.00173857)
(0.00416352 -0.0701782 0.0016726)
(0.00454109 -0.0661592 0.0015924)
(0.00488387 -0.0612965 0.00150017)
(0.00518647 -0.0556464 0.00139756)
(0.00544488 -0.0493033 0.00128582)
(0.00565644 -0.0423934 0.00116624)
(0.00581962 -0.0350632 0.00104058)
(0.00593362 -0.0274658 0.00091167)
(0.0059982 -0.0197488 0.000783863)
(0.00601349 -0.012043 0.000663585)
(0.00598002 -0.00445625 0.000559822)
(0.0058987 0.00292854 0.000484305)
(0.00577079 0.0100602 0.000451122)
(0.00559733 0.0169396 0.000475668)
(0.00537752 0.0236435 0.000572566)
(0.00510649 0.0303437 0.000751943)
(0.00477327 0.0373234 0.0010133)
(0.0043606 0.0449742 0.00133552)
(0.00384851 0.053711 0.00166406)
(0.00322207 0.063667 0.00190678)
(0.00248209 0.0740066 0.00196235)
(0.00170911 0.0820274 0.00178945)
(0.00101047 0.0839017 0.00143232)
(0.000415879 0.0733578 0.000927948)
(3.52838e-05 0.0371512 0.000306472)
(1.82485e-05 -0.0173487 0.000349386)
(0.000234901 -0.0431152 0.000887555)
(0.000581748 -0.060707 0.00127631)
(0.00101104 -0.0716125 0.00153652)
(0.00146146 -0.0774977 0.0016886)
(0.00190476 -0.0802497 0.00176511)
(0.00234259 -0.0811315 0.00179363)
(0.00277549 -0.080721 0.00178965)
(0.00319657 -0.0792516 0.00176135)
(0.00359962 -0.0768162 0.00171395)
(0.00397947 -0.0734475 0.00165132)
(0.0043307 -0.0691601 0.00157636)
(0.00464798 -0.0639843 0.00149109)
(0.00492693 -0.0579858 0.00139662)
(0.00516449 -0.0512702 0.00129332)
(0.00535884 -0.0439742 0.00118127)
(0.00550906 -0.0362531 0.00106088)
(0.00561469 -0.0282666 0.000933604)
(0.00567558 -0.0201681 0.000802575)
(0.00569165 -0.0120935 0.000673215)
(0.00566294 -0.00415569 0.00055364)
(0.00558967 0.00355637 0.000454723)
(0.00547232 0.0109873 0.000389735)
(0.00531109 0.0181412 0.000373668)
(0.00510449 0.0251097 0.00042198)
(0.00484737 0.0320931 0.000548056)
(0.00452911 0.0394129 0.0007581)
(0.00413352 0.0474962 0.00104122)
(0.00364247 0.0567601 0.00135486)
(0.0030428 0.0672625 0.00161618)
(0.0023362 0.0779882 0.00172267)
(0.00160609 0.0860232 0.0016152)
(0.000946394 0.0875619 0.00131513)
(0.000384035 0.0761391 0.000854395)
(3.06636e-05 0.0383268 0.000275911)
(1.60831e-05 -0.0183487 0.000359465)
(0.000224144 -0.045565 0.000916272)
(0.000556913 -0.0640713 0.0013144)
(0.00096819 -0.0754585 0.00157505)
(0.00139806 -0.0815381 0.0017234)
(0.00181986 -0.0843421 0.00179607)
(0.00223591 -0.0852047 0.00182206)
(0.00264666 -0.0847241 0.0018172)
(0.00304524 -0.0831383 0.00178992)
(0.00342565 -0.0805407 0.00174571)
(0.00378302 -0.0769643 0.00168865)
(0.00411243 -0.0724269 0.00162177)
(0.00440932 -0.0669647 0.00154692)
(0.0046702 -0.0606521 0.00146467)
(0.00489287 -0.0536026 0.00137449)
(0.00507623 -0.0459596 0.00127512)
(0.0052198 -0.0378824 0.00116537)
(0.00532328 -0.029534 0.00104493)
(0.00538637 -0.0210697 0.000915254)
(0.00540857 -0.0126279 0.000780346)
(0.00538922 -0.00432543 0.000647256)
(0.00532761 0.00374354 0.000526173)
(0.00522316 0.0115184 0.000430053)
(0.00507503 0.0190029 0.000374003)
(0.00488098 0.0262987 0.000374336)
(0.00463557 0.0336274 0.000446721)
(0.00432864 0.0413406 0.000601973)
(0.00394541 0.0498909 0.00083681)
(0.00347004 0.0596889 0.00111891)
(0.00289173 0.0707162 0.00137539)
(0.00221364 0.0817904 0.00150687)
(0.00152109 0.0898171 0.00144379)
(0.000895582 0.0910252 0.00119115)
(0.000360559 0.0787551 0.000775632)
(2.88036e-05 0.0394234 0.000246606)
(1.74245e-05 -0.0192612 0.000363195)
(0.000223786 -0.0477686 0.000923105)
(0.000549047 -0.0670736 0.00131689)
(0.000946648 -0.0788765 0.00156881)
(0.00135847 -0.0851231 0.00170862)
(0.00176015 -0.0879707 0.00177512)
(0.0021549 -0.0888123 0.0017973)
(0.00254335 -0.0882631 0.00179082)
(0.00291889 -0.0865642 0.00176418)
(0.00327588 -0.0838092 0.0017231)
(0.00360981 -0.080032 0.00167194)
(0.00391632 -0.0752547 0.00161393)
(0.00419155 -0.0695213 0.00155092)
(0.00443281 -0.0629152 0.00148318)
(0.00463868 -0.055559 0.0014095)
(0.00480864 -0.0476023 0.00132763)
(0.00494263 -0.0392082 0.00123495)
(0.00504055 -0.0305407 0.00112949)
(0.00510207 -0.0217552 0.00101083)
(0.00512642 -0.0129902 0.000881166)
(0.00511243 -0.00436312 0.000745958)
(0.00505869 0.00402929 0.000614216)
(0.00496376 0.0121237 0.000498243)
(0.00482597 0.0199259 0.000413065)
(0.00464236 0.0275474 0.000375555)
(0.00440721 0.0352286 0.000402895)
(0.00411071 0.0433443 0.000508991)
(0.00373943 0.0523616 0.000696048)
(0.00327983 0.0626718 0.000940068)
(0.00272362 0.0741717 0.00117789)
(0.00207584 0.0855192 0.00131618)
(0.00142305 0.0934735 0.00128115)
(0.000834771 0.0943213 0.00106691)
(0.00033148 0.0812077 0.000695404)
(2.52573e-05 0.0404387 0.000218359)
(1.57776e-05 -0.0202276 0.000377747)
(0.000215564 -0.050104 0.000953116)
(0.000529284 -0.0702453 0.00134827)
(0.000911503 -0.0824658 0.00159325)
(0.00130538 -0.0888659 0.00172449)
(0.00168814 -0.0917446 0.00178441)
(0.00206353 -0.0925564 0.00180259)
(0.00243205 -0.0919327 0.0017946)
(0.00278722 -0.0901181 0.00176904)
(0.00312367 -0.0872075 0.00173184)
(0.00343724 -0.0832377 0.00168761)
(0.00372412 -0.0782358 0.00163974)
(0.0039812 -0.0722536 0.00159004)
(0.00420655 -0.0653825 0.00153845)
(0.00439944 -0.0577513 0.00148315)
(0.00455991 -0.049513 0.00142088)
(0.00468819 -0.0408312 0.00134773)
(0.00478428 -0.0318686 0.00126003)
(0.00484768 -0.0227781 0.00115548)
(0.00487718 -0.0136963 0.00103428)
(0.00487095 -0.0047405 0.00090006)
(0.00482669 0.00399085 0.000760423)
(0.00474198 0.0124311 0.000626945)
(0.00461421 0.0205856 0.000514678)
(0.0044398 0.0285727 0.000441177)
(0.00421285 0.0366472 0.000424965)
(0.0039241 0.045201 0.000482304)
(0.00356167 0.0547084 0.000619561)
(0.00311448 0.0655342 0.000819552)
(0.00257693 0.0774878 0.00102808)
(0.00195612 0.0890768 0.00115923)
(0.00133899 0.0969401 0.00113905)
(0.000784121 0.0974309 0.000954587)
(0.000308665 0.0835039 0.000623219)
(2.3483e-05 0.0413801 0.000195043)
(1.64351e-05 -0.021129 0.000384785)
(0.00021338 -0.052251 0.000960265)
(0.000518734 -0.0731344 0.00134448)
(0.000887222 -0.0857169 0.00157489)
(0.00126388 -0.092247 0.00169392)
(0.00162799 -0.095149 0.00174566)
(0.00198397 -0.0959296 0.00175902)
(0.00233237 -0.095233 0.00174906)
(0.00266691 -0.0933067 0.00172434)
(0.00298258 -0.0902469 0.00169097)
(0.0032756 -0.0860938 0.00165383)
(0.00354267 -0.0808809 0.00161656)
(0.00378129 -0.0746685 0.00158104)
(0.00399021 -0.0675569 0.00154711)
(0.00416928 -0.059681 0.00151257)
(0.00431902 -0.0511972 0.00147347)
(0.00444001 -0.0422686 0.00142483)
(0.00453244 -0.0330546 0.00136147)
(0.00459577 -0.0237034 0.00127916)
(0.00462855 -0.0143467 0.00117582)
(0.00462842 -0.00509827 0.00105275)
(0.00459228 0.00394431 0.000915484)
(0.00451678 0.0127131 0.000774249)
(0.00439836 0.0212135 0.000643674)
(0.00423278 0.0295695 0.00054177)
(0.00401391 0.0380469 0.000488221)
(0.00373303 0.0470488 0.000501261)
(0.00337974 0.057048 0.000590656)
(0.00294535 0.0683731 0.000745021)
(0.00242687 0.0807417 0.000918477)
(0.00183358 0.092519 0.00103332)
(0.00125205 0.100253 0.00101843)
(0.000730882 0.100373 0.000856461)
(0.000284338 0.0856501 0.000560501)
(2.09859e-05 0.0422502 0.000176281)
(1.51436e-05 -0.0220627 0.000397241)
(0.000206335 -0.0544736 0.00097923)
(0.000501483 -0.0761162 0.00135596)
(0.000856259 -0.0890551 0.00157327)
(0.00121696 -0.0957016 0.00168037)
(0.00156436 -0.0986161 0.0017238)
(0.00190329 -0.0993584 0.0017322)
(0.00223415 -0.0985846 0.00172021)
(0.00255078 -0.0965454 0.00169631)
(0.00284844 -0.0933393 0.0016668)
(0.00312372 -0.089011 0.00163676)
(0.00337379 -0.083601 0.00160998)
(0.00359676 -0.0771781 0.00158839)
(0.00379195 -0.0698498 0.00157173)
(0.00395977 -0.0617558 0.00155749)
(0.00410114 -0.0530538 0.00154123)
(0.00421695 -0.0439046 0.00151714)
(0.00430753 -0.0344627 0.00147884)
(0.00437229 -0.0248698 0.0014204)
(0.0044095 -0.0152509 0.0013376)
(0.00441626 -0.00571482 0.00122927)
(0.00438864 0.00364339 0.00109855)
(0.00432227 0.0127546 0.000953835)
(0.00421265 0.0216228 0.000808932)
(0.00405483 0.0303746 0.000682042)
(0.0038426 0.0392826 0.00059386)
(0.00356785 0.0487565 0.000564379)
(0.00322173 0.0592611 0.000606337)
(0.00279797 0.071084 0.000713467)
(0.00229612 0.08385 0.000847585)
(0.0017275 0.095791 0.000939454)
(0.0011777 0.103385 0.00092252)
(0.000686426 0.103144 0.000776661)
(0.00026503 0.0876577 0.000510609)
(1.96689e-05 0.0430571 0.000163338)
(1.53865e-05 -0.0229472 0.000402843)
(0.000203225 -0.0565513 0.000978355)
(0.000490216 -0.0788778 0.00133772)
(0.000832358 -0.0921266 0.00153609)
(0.00117765 -0.0988684 0.00162863)
(0.00150869 -0.101788 0.00166264)
(0.00183079 -0.102489 0.0016655)
(0.00214427 -0.101639 0.0016511)
(0.0024432 -0.0994906 0.00162775)
(0.00272315 -0.0961442 0.00160187)
(0.00298101 -0.09165 0.00157875)
(0.00321439 -0.0860564 0.00156238)
(0.00342187 -0.0794408 0.00155483)
(0.00360326 -0.0719188 0.00155587)
(0.00375939 -0.0636352 0.00156287)
(0.00389158 -0.0547485 0.00157111)
(0.00400106 -0.0454168 0.00157422)
(0.00408841 -0.0357881 0.00156483)
(0.00415317 -0.0259951 0.0015355)
(0.0041935 -0.0161537 0.00147989)
(0.00420613 -0.006364 0.0013942)
(0.00418639 0.00328456 0.00127871)
(0.00412895 0.0127238 0.0011393)
(0.00402825 0.0219561 0.000988242)
(0.0038786 0.0311086 0.000843419)
(0.00367354 0.0404571 0.000726267)
(0.00340551 0.0504113 0.000658428)
(0.00306713 0.0614217 0.000655468)
(0.00265436 0.0737281 0.000715917)
(0.00216912 0.0868615 0.00080891)
(0.00162478 0.0989297 0.000873792)
(0.00110537 0.106365 0.00084971)
(0.000642783 0.105761 0.000714673)
(0.00024592 0.0895365 0.000473006)
(1.80408e-05 0.0438055 0.000155418)
(1.43572e-05 -0.0238478 0.000410611)
(0.000197069 -0.0586636 0.000982423)
(0.000475116 -0.0816765 0.00132656)
(0.000805248 -0.0952249 0.0015074)
(0.00113665 -0.102049 0.00158601)
(0.00145331 -0.104964 0.00161081)
(0.00176084 -0.10562 0.00160816)
(0.00205939 -0.104691 0.00159122)
(0.00234314 -0.102433 0.00156819)
(0.00260791 -0.0989499 0.00154551)
(0.0028509 -0.0942974 0.00152865)
(0.00307005 -0.0885321 0.0015217)
(0.00326438 -0.0817398 0.00152684)
(0.0034341 -0.074043 0.00154388)
(0.0035804 -0.0655906 0.00157021)
(0.00370493 -0.0565414 0.00160099)
(0.00380922 -0.0470499 0.00162955)
(0.00389409 -0.0372569 0.00164793)
(0.0039592 -0.0272853 0.00164756)
(0.00400268 -0.0172399 0.00162033)
(0.00402096 -0.00721016 0.00155998)
(0.00400873 0.00272253 0.00146379)
(0.00395973 0.0124926 0.00133469)
(0.00386739 0.0221003 0.00118277)
(0.00372522 0.0316708 0.00102496)
(0.00352654 0.041479 0.000883007)
(0.00326432 0.05193 0.000779966)
(0.00293259 0.0634544 0.000734094)
(0.00252941 0.0762406 0.000748524)
(0.00205888 0.0897267 0.000799434)
(0.00153624 0.101905 0.000834686)
(0.00104369 0.109179 0.000799654)
(0.000606262 0.108226 0.000670885)
(0.000230599 0.0912972 0.000448068)
(1.71929e-05 0.0445019 0.000152557)
(1.43933e-05 -0.0247097 0.000412603)
(0.00019374 -0.060662 0.0009706)
(0.000464492 -0.084301 0.00129231)
(0.00078369 -0.0981102 0.00145163)
(0.00110197 -0.104998 0.00151465)
(0.00140487 -0.107902 0.00152956)
(0.00169837 -0.10851 0.00152097)
(0.00198249 -0.107503 0.00150117)
(0.00225162 -0.105138 0.00147808)
(0.00250182 -0.101523 0.0014582)
(0.00273052 -0.0967206 0.00144708)
(0.00293598 -0.090795 0.001449)
(0.0031175 -0.083841 0.00146627)
(0.00327561 -0.0759886 0.00149883)
(0.00341182 -0.067391 0.00154419)
(0.0035281 -0.0582074 0.00159756)
(0.00362629 -0.0485884 0.00165217)
(0.00370754 -0.0386668 0.00169963)
(0.00377177 -0.028554 0.00173057)
(0.00381723 -0.0183412 0.00173535)
(0.00384019 -0.0081044 0.00170538)
(0.00383486 0.00208675 0.00163487)
(0.00379414 0.0121719 0.00152334)
(0.0037104 0.0221497 0.001378)
(0.00357628 0.0321415 0.00121414)
(0.00338472 0.042417 0.00105333)
(0.00312909 0.0533714 0.000919765)
(0.00280466 0.0654092 0.000834316)
(0.00241138 0.0786637 0.000804633)
(0.00195529 0.0924803 0.000813796)
(0.00145344 0.104745 0.000818153)
(0.000985908 0.111851 0.0007696)
(0.000571862 0.110554 0.00064332)
(0.000216109 0.0929496 0.000434233)
(1.62453e-05 0.0451504 0.000153838)
(1.36016e-05 -0.0255774 0.00041496)
(0.00018847 -0.0626686 0.000959953)
(0.000451621 -0.0869269 0.00126063)
(0.000760673 -0.100984 0.00139977)
(0.00106729 -0.107924 0.00144803)
(0.00135823 -0.110809 0.00145342)
(0.0016397 -0.111365 0.001439)
(0.00191155 -0.110277 0.00141621)
(0.00216827 -0.107806 0.0013927)
(0.00240615 -0.104063 0.00137494)
(0.0026228 -0.0991172 0.00136854)
(0.00281669 -0.0930404 0.00137788)
(0.00298736 -0.0859364 0.00140538)
(0.00313558 -0.077942 0.00145118)
(0.0032631 -0.0692146 0.00151297)
(0.00337216 -0.0599137 0.00158614)
(0.00346487 -0.0501859 0.00166405)
(0.00354269 -0.0401561 0.00173825)
(0.0036058 -0.0299239 0.00179889)
(0.00365261 -0.0195657 0.00183527)
(0.00367941 -0.00914189 0.00183685)
(0.00368006 0.00129249 0.00179495)
(0.00364676 0.0116852 0.00170549)
(0.00357093 0.0220344 0.00157221)
(0.00344431 0.0324561 0.00140803)
(0.00325942 0.0432113 0.00123364)
(0.00300991 0.0546802 0.00107402)
(0.00269219 0.0672369 0.00095243)
(0.00230789 0.0809561 0.000880928)
(0.00186481 0.0950924 0.000849331)
(0.00138157 0.107433 0.000822341)
(0.000936118 0.114375 0.000758417)
(0.000542568 0.11275 0.000631363)
(0.000204147 0.0945019 0.000431113)
(1.57398e-05 0.0457559 0.000159059)
(1.35569e-05 -0.0264135 0.000412495)
(0.000185244 -0.0645829 0.000936835)
(0.000442145 -0.0894116 0.00121153)
(0.000742146 -0.103684 0.00132806)
(0.00103803 -0.11066 0.00136066)
(0.00131782 -0.11352 0.00135619)
(0.00158799 -0.114021 0.0013357)
(0.0018483 -0.112853 0.00130963)
(0.00209341 -0.110279 0.00128532)
(0.00231977 -0.106413 0.00126914)
(0.00252514 -0.10133 0.00126677)
(0.00270811 -0.0951108 0.00128266)
(0.00286838 -0.0878681 0.00131941)
(0.00300691 -0.0797462 0.00137738)
(0.00312567 -0.0709069 0.00145451)
(0.00322714 -0.0615102 0.00154647)
(0.00331373 -0.0516991 0.00164685)
(0.00338721 -0.0415899 0.00174732)
(0.00344812 -0.0312697 0.00183781)
(0.00349514 -0.0207988 0.00190691)
(0.00352469 -0.0102193 0.00194248)
(0.00353049 0.000431288 0.00193313)
(0.00350413 0.0111123 0.00187111)
(0.00343617 0.0218231 0.0017562)
(0.00331738 0.0326734 0.00159825)
(0.00313969 0.0439124 0.00141643)
(0.0028969 0.0559001 0.00123602)
(0.00258634 0.0689748 0.00108249)
(0.00221111 0.0831498 0.000972208)
(0.00178055 0.0975902 0.000901618)
(0.00131479 0.109993 0.00084366)
(0.00088963 0.11677 0.000763286)
(0.000514913 0.114825 0.000632765)
(0.000192687 0.0959617 0.000436964)
(1.50978e-05 0.0463214 0.00016731)
(1.29927e-05 -0.0272485 0.000409293)
(0.000180885 -0.0664883 0.000912705)
(0.000431577 -0.0918755 0.00116233)
(0.000723411 -0.106349 0.00125744)
(0.00100995 -0.113351 0.00127525)
(0.0012802 -0.116178 0.00126134)
(0.00154079 -0.116621 0.00123489)
(0.0017914 -0.115373 0.0012054)
(0.00202684 -0.112696 0.00117984)
(0.00224367 -0.10871 0.0011645)
(0.00243968 -0.103494 0.00116502)
(0.00261352 -0.0971385 0.00118592)
(0.00276502 -0.0897647 0.00122997)
(0.00289526 -0.0815242 0.00129773)
(0.00300637 -0.0725834 0.00138744)
(0.00310101 -0.0631032 0.00149515)
(0.00318182 -0.053223 0.00161484)
(0.00325087 -0.0430516 0.00173851)
(0.00330902 -0.0326635 0.00185628)
(0.00335531 -0.0221023 0.00195642)
(0.00338638 -0.0113906 0.00202566)
(0.00339603 -0.000545437 0.00205038)
(0.00337547 0.0104077 0.00201919)
(0.0033145 0.0214722 0.00192762)
(0.00320297 0.0327514 0.00178171)
(0.00303217 0.0444799 0.00159833)
(0.00279586 0.0569935 0.00140248)
(0.00249212 0.07059 0.00122146)
(0.0021253 0.0852187 0.00107577)
(0.0017061 0.0999562 0.000968355)
(0.00125608 0.112415 0.000880233)
(0.00084903 0.119033 0.000782697)
(0.000491023 0.116785 0.000646318)
(0.00018306 0.0973359 0.000450862)