/*--------------------------------*- C++ -*----------------------------------*\
| =========                 |                                                 |
| \\      /  F ield         | OpenFOAM: The Open Source CFD Toolbox           |
|  \\    /   O peration     | Version:  v2012                                 |
|   \\  /    A nd           | Website:  www.openfoam.com                      |
|    \\/     M anipulation  |                                                 |
\*---------------------------------------------------------------------------*/
FoamFile
{
    version     2.0;
    format      ascii;
    class       surfaceScalarField;
    location    "23";
    object      phi;
}
// * * * * * * * * * * * * * * * * * * * * * * * * * * * * * * * * * * * * * //

dimensions      [1 0 -1 0 0 0 0];
oriented        oriented;


internalField   nonuniform List<scalar> 
228225
(
-7.69726e-09
1.22026e-08
-4.76037e-09
-2.84468e-08
3.19265e-08
-1.11772e-08
-5.84091e-08
4.3682e-08
-1.37235e-08
-9.58477e-08
5.2484e-08
-1.50418e-08
-1.38538e-07
5.84984e-08
-1.58101e-08
-1.8413e-07
6.19256e-08
-1.63303e-08
-2.30911e-07
6.35552e-08
-1.6776e-08
-2.77652e-07
6.39862e-08
-1.72438e-08
-3.23541e-07
6.36612e-08
-1.7773e-08
-3.67684e-07
6.2512e-08
-1.83725e-08
-4.09109e-07
6.04189e-08
-1.89905e-08
-4.46895e-07
5.75153e-08
-1.97294e-08
-4.80326e-07
5.40602e-08
-2.06305e-08
-5.08713e-07
5.01128e-08
-2.1724e-08
-5.31611e-07
4.58423e-08
-2.29458e-08
-5.48619e-07
4.13357e-08
-2.43268e-08
-5.59535e-07
3.67183e-08
-2.57995e-08
-5.64194e-07
3.20283e-08
-2.737e-08
-5.62579e-07
2.73666e-08
-2.89816e-08
-5.54776e-07
2.27861e-08
-3.0589e-08
-5.40966e-07
1.83403e-08
-3.21515e-08
-5.21401e-07
1.40668e-08
-3.36303e-08
-4.96411e-07
9.99804e-09
-3.49899e-08
-4.66374e-07
6.16013e-09
-3.6195e-08
-4.31732e-07
2.57299e-09
-3.72151e-08
-3.9298e-07
-7.36117e-10
-3.8018e-08
-3.50631e-07
-3.77306e-09
-3.85761e-08
-3.05284e-07
-6.48813e-09
-3.88559e-08
-2.57599e-07
-8.86001e-09
-3.88254e-08
-2.08327e-07
-1.08388e-08
-3.84347e-08
-1.58361e-07
-1.2362e-08
-3.76041e-08
-1.08902e-07
-1.33116e-08
-3.61448e-08
-6.18696e-08
-1.34694e-08
-3.35676e-08
-2.08995e-08
-1.24853e-08
-2.84804e-08
-7.83353e-09
-1.30669e-08
-2.47145e-08
5.87257e-08
-2.18079e-08
-7.50221e-08
1.05015e-07
-2.27808e-08
-1.33916e-07
1.25987e-07
-2.3414e-08
-1.95965e-07
1.39228e-07
-2.46931e-08
-2.5708e-07
1.45716e-07
-2.61024e-08
-3.14353e-07
1.46745e-07
-2.75462e-08
-3.65708e-07
1.44023e-07
-2.91122e-08
-4.0992e-07
1.3898e-07
-3.07833e-08
-4.46413e-07
1.32593e-07
-3.24382e-08
-4.75164e-07
1.25197e-07
-3.39355e-08
-4.96457e-07
1.16939e-07
-3.52278e-08
-5.10789e-07
1.08169e-07
-3.63204e-08
-5.18685e-07
9.91706e-08
-3.72156e-08
-5.20632e-07
9.00109e-08
-3.79503e-08
-5.17151e-07
8.09209e-08
-3.85599e-08
-5.08799e-07
7.20394e-08
-3.90563e-08
-4.96097e-07
6.34738e-08
-3.94577e-08
-4.79588e-07
5.5295e-08
-3.97749e-08
-4.59796e-07
4.75886e-08
-4.00154e-08
-4.37213e-07
4.03889e-08
-4.01841e-08
-4.12303e-07
3.37145e-08
-4.02865e-08
-3.85479e-07
2.75703e-08
-4.03267e-08
-3.57125e-07
2.19505e-08
-4.03068e-08
-3.27576e-07
1.68422e-08
-4.02294e-08
-2.9714e-07
1.22268e-08
-4.00922e-08
-2.66065e-07
8.08425e-09
-3.98935e-08
-2.3461e-07
4.39428e-09
-3.96235e-08
-2.02966e-07
1.1394e-09
-3.92706e-08
-1.71336e-07
-1.68325e-09
-3.88082e-08
-1.39903e-07
-4.07016e-09
-3.82013e-08
-1.08863e-07
-5.99858e-09
-3.74036e-08
-7.84208e-08
-7.40074e-09
-3.63529e-08
-4.89448e-08
-8.14353e-09
-3.4802e-08
-2.16024e-08
-7.81727e-09
-3.20118e-08
-3.85019e-09
-2.55854e-08
-2.88973e-08
8.39054e-08
3.71756e-09
-7.05068e-08
1.42163e-07
4.46152e-09
-1.14691e-07
1.65614e-07
4.55638e-09
-1.58187e-07
1.78778e-07
3.94518e-09
-1.98801e-07
1.83643e-07
2.68669e-09
-2.35389e-07
1.82612e-07
7.22988e-10
-2.67221e-07
1.77784e-07
-1.92925e-09
-2.93443e-07
1.70505e-07
-5.30402e-09
-3.13405e-07
1.6177e-07
-9.21502e-09
-3.26943e-07
1.52127e-07
-1.33934e-08
-3.34543e-07
1.4195e-07
-1.74099e-08
-3.36849e-07
1.31432e-07
-2.0956e-08
-3.34595e-07
1.20726e-07
-2.38114e-08
-3.28595e-07
1.09989e-07
-2.59776e-08
-3.19569e-07
9.94997e-08
-2.76045e-08
-3.08113e-07
8.94428e-08
-2.88591e-08
-2.9473e-07
7.99213e-08
-2.98317e-08
-2.79837e-07
7.0996e-08
-3.05935e-08
-2.63814e-07
6.27365e-08
-3.11705e-08
-2.46973e-07
5.51438e-08
-3.1597e-08
-2.29563e-07
4.81988e-08
-3.18929e-08
-2.11814e-07
4.18971e-08
-3.20781e-08
-1.93913e-07
3.62167e-08
-3.21662e-08
-1.76023e-07
3.11207e-08
-3.21686e-08
-1.58274e-07
2.65722e-08
-3.20946e-08
-1.40761e-07
2.25212e-08
-3.19489e-08
-1.23561e-07
1.89275e-08
-3.1735e-08
-1.06721e-07
1.57487e-08
-3.1448e-08
-9.02765e-08
1.29502e-08
-3.10797e-08
-7.42395e-08
1.0502e-08
-3.06082e-08
-5.86226e-08
8.38835e-09
-3.0003e-08
-4.34362e-08
6.60562e-09
-2.91942e-08
-2.87218e-08
5.17137e-09
-2.80286e-08
-1.45351e-08
4.11607e-09
-2.61219e-08
3.32298e-09
-2.17068e-08
-2.7566e-08
8.13219e-08
3.01511e-08
-4.8455e-08
1.31015e-07
3.20344e-08
-6.64685e-08
1.51632e-07
3.19973e-08
-8.36337e-08
1.641e-07
3.18431e-08
-1.01105e-07
1.69896e-07
3.12175e-08
-1.19156e-07
1.70935e-07
2.97276e-08
-1.37093e-07
1.68835e-07
2.68857e-08
-1.53884e-07
1.64447e-07
2.2849e-08
-1.68352e-07
1.58416e-07
1.78215e-08
-1.79622e-07
1.51069e-07
1.23296e-08
-1.87114e-07
1.4272e-07
6.72074e-09
-1.90658e-07
1.33585e-07
1.39133e-09
-1.90437e-07
1.23935e-07
-3.42972e-09
-1.86994e-07
1.14053e-07
-7.50722e-09
-1.80978e-07
1.0429e-07
-1.08074e-08
-1.73055e-07
9.49468e-08
-1.34264e-08
-1.63747e-07
8.6215e-08
-1.56038e-08
-1.5351e-07
7.81777e-08
-1.74158e-08
-1.42723e-07
7.08821e-08
-1.89348e-08
-1.31699e-07
6.43182e-08
-2.01979e-08
-1.20697e-07
5.84462e-08
-2.12485e-08
-1.0993e-07
5.32334e-08
-2.2105e-08
-9.95492e-08
4.86279e-08
-2.27916e-08
-8.96724e-08
4.45674e-08
-2.33231e-08
-8.03746e-08
4.09884e-08
-2.37155e-08
-7.16973e-08
3.78297e-08
-2.39848e-08
-6.36437e-08
3.50155e-08
-2.41421e-08
-5.61696e-08
3.24714e-08
-2.41967e-08
-4.91749e-08
3.01104e-08
-2.41551e-08
-4.25051e-08
2.78511e-08
-2.40197e-08
-3.59237e-08
2.55917e-08
-2.37835e-08
-2.90852e-08
2.32285e-08
-2.3462e-08
-2.13721e-08
2.06073e-08
-2.31491e-08
-1.20903e-08
1.76685e-08
-2.2832e-08
1.22177e-08
-2.09867e-08
-1.66549e-08
6.28646e-08
3.51127e-08
-1.78615e-08
9.53313e-08
3.68903e-08
-1.36006e-08
1.10503e-07
3.68689e-08
-7.79732e-09
1.21538e-07
3.67585e-08
-2.83451e-09
1.28827e-07
3.61061e-08
3.54172e-10
1.32999e-07
3.47473e-08
1.79757e-09
1.34654e-07
3.27383e-08
1.90609e-09
1.34251e-07
3.00872e-08
1.29303e-09
1.32156e-07
2.68732e-08
5.32491e-10
1.28662e-07
2.31668e-08
8.74411e-11
1.2402e-07
1.9145e-08
2.00181e-10
1.18471e-07
1.50014e-08
9.02173e-10
1.1226e-07
1.09713e-08
2.09614e-09
1.05663e-07
7.19658e-09
3.6409e-09
9.8952e-08
3.79362e-09
5.38822e-09
9.23957e-08
8.03284e-10
7.15855e-09
8.62047e-08
-1.75927e-09
8.77021e-09
8.05113e-08
-3.94683e-09
1.00845e-08
7.53733e-08
-5.80542e-09
1.09827e-08
7.08043e-08
-7.3833e-09
1.13593e-08
6.67834e-08
-8.71493e-09
1.11656e-08
6.32615e-08
-9.83477e-09
1.0377e-08
6.01838e-08
-1.0766e-08
8.99626e-09
5.74792e-08
-1.15328e-08
7.0614e-09
5.50781e-08
-1.21531e-08
4.62578e-09
5.29054e-08
-1.26396e-08
1.77455e-09
5.08744e-08
-1.30095e-08
-1.34782e-09
4.88803e-08
-1.32849e-08
-4.56192e-09
4.68129e-08
-1.34899e-08
-7.60203e-09
4.45413e-08
-1.36494e-08
-1.01506e-08
4.19121e-08
-1.37734e-08
-1.17459e-08
3.87308e-08
-1.39047e-08
-1.16013e-08
3.47484e-08
-1.4287e-08
-8.51686e-09
2.97053e-08
-1.51235e-08
1.90715e-08
-1.53685e-08
-6.48298e-09
4.47006e-08
2.46479e-08
-3.41967e-09
6.65687e-08
2.56976e-08
4.20468e-09
7.74635e-08
2.54154e-08
1.4555e-08
8.59712e-08
2.52169e-08
2.63966e-08
9.22623e-08
2.47237e-08
3.88786e-08
9.6667e-08
2.38489e-08
5.13512e-08
9.95548e-08
2.26263e-08
6.33306e-08
1.01148e-07
2.11237e-08
7.444e-08
1.01668e-07
1.9377e-08
8.43906e-08
1.01269e-07
1.74448e-08
9.29286e-08
1.00104e-07
1.53767e-08
9.98602e-08
9.83001e-08
1.324e-08
1.05031e-07
9.59995e-08
1.10893e-08
1.08361e-07
9.33465e-08
8.98599e-09
1.09845e-07
9.04955e-08
6.9734e-09
1.09565e-07
8.75878e-08
5.08765e-09
1.07679e-07
8.47403e-08
3.35006e-09
1.04365e-07
8.20389e-08
1.78587e-09
9.98175e-08
7.95334e-08
3.88759e-10
9.41948e-08
7.72501e-08
-8.24705e-10
8.76712e-08
7.51833e-08
-1.87555e-09
8.03971e-08
7.33144e-08
-2.77832e-09
7.25187e-08
7.16029e-08
-3.54238e-09
6.41724e-08
7.00062e-08
-4.17966e-09
5.54914e-08
6.84634e-08
-4.70478e-09
4.66189e-08
6.69114e-08
-5.13397e-09
3.77153e-08
6.52648e-08
-5.48664e-09
2.89471e-08
6.34327e-08
-5.78428e-09
2.05189e-08
6.12948e-08
-6.05387e-09
1.26696e-08
5.87127e-08
-6.32165e-09
5.69058e-09
5.54977e-08
-6.60592e-09
-4.51339e-11
5.1422e-08
-6.95725e-09
-3.8429e-09
4.61715e-08
-7.62375e-09
-4.64402e-09
3.93169e-08
-8.81116e-09
2.43087e-08
-9.8809e-09
-2.23319e-09
3.35524e-08
1.33815e-08
3.66692e-10
5.12633e-08
1.2706e-08
6.09047e-09
5.99299e-08
1.18102e-08
1.38753e-08
6.68411e-08
1.13446e-08
2.29683e-08
7.22645e-08
1.09056e-08
3.28036e-08
7.64947e-08
1.03359e-08
4.29102e-08
7.97861e-08
9.66269e-09
5.28618e-08
8.22984e-08
8.89859e-09
6.23167e-08
8.41606e-08
8.05416e-09
7.09942e-08
8.54638e-08
7.1257e-09
7.86785e-08
8.62875e-08
6.13183e-09
8.51905e-08
8.66991e-08
5.08988e-09
9.03858e-08
8.67733e-08
4.03231e-09
9.41658e-08
8.65827e-08
2.98328e-09
9.64846e-08
8.62034e-08
1.97217e-09
9.73611e-08
8.56978e-08
1.01556e-09
9.6851e-08
8.51215e-08
1.27225e-10
9.5052e-08
8.45101e-08
-6.71708e-10
9.20653e-08
8.3897e-08
-1.37577e-09
8.80187e-08
8.32882e-08
-1.99221e-09
8.30345e-08
8.26839e-08
-2.51771e-09
7.72446e-08
8.20643e-08
-2.95769e-09
7.07552e-08
8.14081e-08
-3.31749e-09
6.36943e-08
8.06744e-08
-3.60661e-09
5.61688e-08
7.98218e-08
-3.83391e-09
4.83054e-08
7.87859e-08
-4.01189e-09
4.02282e-08
7.7497e-08
-4.15225e-09
3.2079e-08
7.58526e-08
-4.27234e-09
2.40321e-08
7.37315e-08
-4.38956e-09
1.63086e-08
7.09615e-08
-4.52555e-09
9.17541e-09
6.73206e-08
-4.68787e-09
3.01885e-09
6.25101e-08
-4.93374e-09
-1.44936e-09
5.6129e-08
-5.4882e-09
-3.20315e-09
4.75966e-08
-6.52628e-09
2.85824e-08
-7.47634e-09
-9.83642e-10
2.76079e-08
6.92856e-09
-1.87845e-09
4.62838e-08
5.87246e-09
-1.81502e-09
5.49672e-08
4.90141e-09
-9.52262e-10
6.16708e-08
4.30707e-09
5.51397e-10
6.69155e-08
3.84408e-09
2.6357e-09
7.10449e-08
3.36656e-09
5.26449e-09
7.43149e-08
2.84204e-09
8.35991e-09
7.69182e-08
2.28484e-09
1.18192e-08
7.89974e-08
1.70358e-09
1.55069e-08
8.06634e-08
1.11286e-09
1.92781e-08
8.19985e-08
5.1765e-10
2.29751e-08
8.30701e-08
-6.83112e-11
2.64519e-08
8.39291e-08
-6.32064e-10
2.9587e-08
8.46217e-08
-1.17356e-09
3.22915e-08
8.51833e-08
-1.68545e-09
3.44986e-08
8.56472e-08
-2.15527e-09
3.61617e-08
8.60353e-08
-2.57742e-09
3.72456e-08
8.63677e-08
-2.94262e-09
3.77426e-08
8.6654e-08
-3.25318e-09
3.76376e-08
8.68929e-08
-3.49959e-09
3.69332e-08
8.70727e-08
-3.68415e-09
3.56261e-08
8.71787e-08
-3.80764e-09
3.37302e-08
8.71798e-08
-3.87682e-09
3.12609e-08
8.70408e-08
-3.89683e-09
2.82535e-08
8.67074e-08
-3.87846e-09
2.47537e-08
8.61167e-08
-3.8304e-09
2.08377e-08
8.51786e-08
-3.76661e-09
1.6605e-08
8.37842e-08
-3.69903e-09
1.22017e-08
8.17802e-08
-3.64435e-09
7.80241e-09
7.89736e-08
-3.61412e-09
3.65205e-09
7.50936e-08
-3.62355e-09
8.56378e-11
6.9792e-08
-3.71437e-09
-2.33187e-09
6.25775e-08
-4.03178e-09
-2.85583e-09
5.28016e-08
-4.68137e-09
3.09376e-08
-5.2109e-09
-1.73179e-09
2.51745e-08
4.16354e-09
-3.66634e-09
4.4501e-08
3.72004e-09
-5.4049e-09
5.34217e-08
3.28203e-09
-6.97014e-09
6.02553e-08
2.98148e-09
-8.28846e-09
6.55316e-08
2.70245e-09
-9.26587e-09
6.96378e-08
2.38353e-09
-9.82941e-09
7.28572e-08
2.02157e-09
-9.93685e-09
7.54041e-08
1.62348e-09
-9.58489e-09
7.7439e-08
1.20446e-09
-8.77793e-09
7.9085e-08
7.72423e-10
-7.55861e-09
8.04367e-08
3.41883e-10
-5.97873e-09
8.15676e-08
-7.67767e-11
-4.12188e-09
8.25354e-08
-4.62778e-10
-2.06837e-09
8.33845e-08
-8.1711e-10
9.06798e-11
8.41496e-08
-1.12548e-09
2.26709e-09
8.48551e-08
-1.38414e-09
4.37152e-09
8.55177e-08
-1.58458e-09
6.31976e-09
8.61448e-08
-1.72789e-09
8.04763e-09
8.67379e-08
-1.81059e-09
9.48887e-09
8.7289e-08
-1.83794e-09
1.05897e-08
8.7783e-08
-1.80996e-09
1.13075e-08
8.81953e-08
-1.73589e-09
1.16153e-08
8.8493e-08
-1.6193e-09
1.14971e-08
8.86312e-08
-1.47269e-09
1.09539e-08
8.8553e-08
-1.3023e-09
1.00099e-08
8.81841e-08
-1.1229e-09
8.69999e-09
8.74296e-08
-9.42775e-10
7.10015e-09
8.6167e-08
-7.78604e-10
5.28136e-09
8.42355e-08
-6.39917e-10
3.37541e-09
8.14247e-08
-5.42835e-10
1.51236e-09
7.74525e-08
-4.95814e-10
-1.11606e-10
7.1947e-08
-5.32621e-10
-1.1964e-09
6.44011e-08
-7.37469e-10
-1.35453e-09
5.41377e-08
-1.1783e-09
3.12105e-08
-1.62696e-09
-2.80318e-09
2.39549e-08
4.02386e-09
-5.83863e-09
4.32666e-08
4.26911e-09
-8.82969e-09
5.21256e-08
4.28639e-09
-1.16812e-08
5.88562e-08
4.2503e-09
-1.42818e-08
6.40007e-08
4.13264e-09
-1.65424e-08
6.79545e-08
3.94427e-09
-1.83904e-08
7.10106e-08
3.69389e-09
-1.97781e-08
7.33898e-08
3.40076e-09
-2.06722e-08
7.52597e-08
3.07534e-09
-2.10727e-08
7.67475e-08
2.73633e-09
-2.09804e-08
7.79531e-08
2.39348e-09
-2.04298e-08
7.89522e-08
2.06443e-09
-1.94595e-08
7.98063e-08
1.75691e-09
-1.81199e-08
8.05605e-08
1.48611e-09
-1.6477e-08
8.12512e-08
1.25637e-09
-1.46042e-08
8.19023e-08
1.07922e-09
-1.25725e-08
8.25315e-08
9.54698e-10
-1.04623e-08
8.31448e-08
8.90112e-10
-8.34807e-09
8.37422e-08
8.81948e-10
-6.30697e-09
8.43127e-08
9.32784e-10
-4.39483e-09
8.48406e-08
1.03344e-09
-2.68155e-09
8.52972e-08
1.18258e-09
-1.20326e-09
8.56483e-08
1.36702e-09
2.84001e-12
8.58444e-08
1.58206e-09
9.15643e-10
8.58271e-08
1.81134e-09
1.53495e-09
8.55176e-08
2.04772e-09
1.87068e-09
8.48208e-08
2.27266e-09
1.95031e-09
8.36111e-08
2.47734e-09
1.8123e-09
8.17306e-08
2.6419e-09
1.51059e-09
7.89696e-08
2.75782e-09
1.10008e-09
7.50572e-08
2.8054e-09
6.50641e-10
6.96304e-08
2.76557e-09
2.69997e-10
6.2209e-08
2.57297e-09
8.57774e-11
5.21377e-08
2.1854e-09
2.97254e-08
1.5702e-09
-3.69783e-09
2.31995e-08
4.45438e-09
-7.41159e-09
4.17727e-08
5.20674e-09
-1.10676e-08
5.02619e-08
5.52091e-09
-1.45435e-08
5.66777e-08
5.65212e-09
-1.77164e-08
6.15356e-08
5.6408e-09
-2.05088e-08
6.52185e-08
5.52478e-09
-2.28416e-08
6.80124e-08
5.33238e-09
-2.4665e-08
7.01358e-08
5.07826e-09
-2.59417e-08
7.17525e-08
4.78423e-09
-2.66527e-08
7.29929e-08
4.46342e-09
-2.6791e-08
7.39554e-08
4.137e-09
-2.63759e-08
7.47214e-08
3.81628e-09
-2.5442e-08
7.53517e-08
3.5201e-09
-2.40373e-08
7.58986e-08
3.25631e-09
-2.22233e-08
7.63981e-08
3.04008e-09
-2.00771e-08
7.68809e-08
2.87484e-09
-1.76792e-08
7.73626e-08
2.77127e-09
-1.51177e-08
7.78551e-08
2.7277e-09
-1.24804e-08
7.83551e-08
2.74976e-09
-9.85441e-09
7.88561e-08
2.83044e-09
-7.32024e-09
7.93362e-08
2.97033e-09
-4.94986e-09
7.97702e-08
3.15735e-09
-2.80645e-09
8.01158e-08
3.38759e-09
-9.3208e-10
8.0327e-08
3.6447e-09
6.35631e-10
8.03379e-08
3.92112e-09
1.8779e-09
8.00753e-08
4.19715e-09
2.79864e-09
7.94398e-08
4.46261e-09
3.39881e-09
7.83149e-08
4.69609e-09
3.69825e-09
7.6544e-08
4.88659e-09
3.71889e-09
7.39354e-08
5.01291e-09
3.48276e-09
7.02316e-08
5.06347e-09
3.00424e-09
6.51012e-08
5.00791e-09
2.31337e-09
5.8101e-08
4.79835e-09
1.43903e-09
4.86371e-08
4.37282e-09
2.76426e-08
3.52425e-09
-3.67216e-09
2.25747e-08
4.29459e-09
-7.4726e-09
4.02805e-08
5.2961e-09
-1.12968e-08
4.83381e-08
5.7469e-09
-1.49544e-08
5.43804e-08
5.95441e-09
-1.83052e-08
5.89035e-08
5.98322e-09
-2.125e-08
6.22681e-08
5.89507e-09
-2.37062e-08
6.4754e-08
5.71498e-09
-2.56071e-08
6.65701e-08
5.4668e-09
-2.69024e-08
6.78818e-08
5.16533e-09
-2.75576e-08
6.8816e-08
4.83319e-09
-2.75653e-08
6.94772e-08
4.48488e-09
-2.69326e-08
6.99473e-08
4.1421e-09
-2.56953e-08
7.02962e-08
3.81788e-09
-2.39052e-08
7.05778e-08
3.53197e-09
-2.16409e-08
7.08381e-08
3.29373e-09
-1.89848e-08
7.11087e-08
3.11778e-09
-1.60431e-08
7.14145e-08
3.00731e-09
-1.29247e-08
7.17651e-08
2.97083e-09
-9.73984e-09
7.21643e-08
3.00525e-09
-6.59526e-09
7.26001e-08
3.11292e-09
-3.599e-09
7.30549e-08
3.28444e-09
-8.40117e-10
7.34949e-08
3.51617e-09
1.60202e-09
7.38809e-08
3.79253e-09
3.66991e-09
7.41563e-08
4.10399e-09
5.31711e-09
7.42587e-08
4.42998e-09
6.53042e-09
7.41059e-08
4.75805e-09
7.29787e-09
7.36053e-08
5.06628e-09
7.63452e-09
7.26363e-08
5.3416e-09
7.56095e-09
7.10567e-08
5.56156e-09
7.10449e-09
6.86784e-08
5.71357e-09
6.29368e-09
6.52691e-08
5.77453e-09
5.15602e-09
6.0515e-08
5.72256e-09
3.7416e-09
5.40176e-08
5.49799e-09
2.11995e-09
4.52251e-08
5.03587e-09
2.5727e-08
4.03413e-09
-3.14987e-09
2.25715e-08
3.15397e-09
-6.81294e-09
3.97975e-08
4.14585e-09
-1.06803e-08
4.75938e-08
4.60975e-09
-1.44836e-08
5.33802e-08
4.80597e-09
-1.80341e-08
5.76338e-08
4.81832e-09
-2.11826e-08
6.07104e-08
4.70632e-09
-2.38134e-08
6.28848e-08
4.50121e-09
-2.58334e-08
6.43703e-08
4.21902e-09
-2.7165e-08
6.53332e-08
3.88014e-09
-2.77592e-08
6.59103e-08
3.49967e-09
-2.75891e-08
6.62097e-08
3.0982e-09
-2.66598e-08
6.63256e-08
2.69228e-09
-2.50045e-08
6.63335e-08
2.30789e-09
-2.26936e-08
6.6301e-08
1.96459e-09
-1.98186e-08
6.62801e-08
1.68343e-09
-1.64972e-08
6.63145e-08
1.47381e-09
-1.28609e-08
6.6431e-08
1.34768e-09
-9.05228e-09
6.66481e-08
1.3069e-09
-5.211e-09
6.6967e-08
1.35627e-09
-1.48169e-09
6.73804e-08
1.49087e-09
2.00149e-09
6.78635e-08
1.70864e-09
5.11605e-09
6.83834e-08
1.99738e-09
7.75952e-09
6.88894e-08
2.34759e-09
9.85538e-09
6.93233e-08
2.73738e-09
1.13592e-08
6.96095e-08
3.14622e-09
1.2252e-08
6.96652e-08
3.54714e-09
1.25458e-08
6.93871e-08
3.92397e-09
1.22693e-08
6.86574e-08
4.25678e-09
1.14673e-08
6.7327e-08
4.53165e-09
1.01991e-08
6.52166e-08
4.72884e-09
8.53977e-09
6.20948e-08
4.8338e-09
6.57209e-09
5.76665e-08
4.81758e-09
4.41264e-09
5.15487e-08
4.62768e-09
2.22221e-09
4.32301e-08
4.18518e-09
2.47312e-08
3.21802e-09
-2.32396e-09
2.35438e-08
1.35204e-09
-5.75592e-09
4.10799e-08
2.1485e-09
-9.65414e-09
4.89603e-08
2.53209e-09
-1.36541e-08
5.47236e-08
2.65759e-09
-1.74846e-08
5.88619e-08
2.60117e-09
-2.094e-08
6.17408e-08
2.42503e-09
-2.38572e-08
6.36509e-08
2.15194e-09
-2.61045e-08
6.48162e-08
1.8007e-09
-2.75742e-08
6.54204e-08
1.38353e-09
-2.81933e-08
6.5611e-08
9.17302e-10
-2.7916e-08
6.55145e-08
4.17906e-10
-2.67412e-08
6.52357e-08
-8.50795e-11
-2.47134e-08
6.48684e-08
-5.62177e-10
-2.19204e-08
6.44896e-08
-9.81899e-10
-1.8481e-08
6.4167e-08
-1.32561e-09
-1.45427e-08
6.39506e-08
-1.57666e-09
-1.02614e-08
6.38797e-08
-1.72907e-09
-5.8112e-09
6.39739e-08
-1.77577e-09
-1.36804e-09
6.42411e-08
-1.71778e-09
2.89676e-09
6.46691e-08
-1.55376e-09
6.81644e-09
6.52339e-08
-1.29051e-09
1.0242e-08
6.58919e-08
-9.33939e-10
1.30425e-08
6.65886e-08
-5.0066e-10
1.51236e-08
6.72515e-08
-9.40722e-12
1.64286e-08
6.77989e-08
5.06767e-10
1.69446e-08
6.81313e-08
1.0183e-09
1.66983e-08
6.81379e-08
1.49382e-09
1.57536e-08
6.76856e-08
1.91744e-09
1.41874e-08
6.66193e-08
2.27298e-09
1.21102e-08
6.4746e-08
2.54892e-09
9.64488e-09
6.18312e-08
2.72744e-09
6.95205e-09
5.75708e-08
2.78823e-09
4.24122e-09
5.15831e-08
2.67738e-09
1.7919e-09
4.33546e-08
2.32593e-09
2.49617e-08
1.55984e-09
-1.58635e-09
2.56445e-08
-5.1652e-10
-4.76962e-09
4.42706e-08
-6.24243e-12
-8.64153e-09
5.25849e-08
2.49203e-10
-1.27715e-08
5.85809e-08
2.71615e-10
-1.68189e-08
6.27816e-08
1.26768e-10
-2.05299e-08
6.55887e-08
-1.36379e-10
-2.36967e-08
6.7315e-08
-4.96179e-10
-2.61538e-08
6.82132e-08
-9.4166e-10
-2.77562e-08
6.84859e-08
-1.46149e-09
-2.84083e-08
6.83055e-08
-2.04279e-09
-2.80511e-08
6.7815e-08
-2.65821e-09
-2.66866e-08
6.71426e-08
-3.2716e-09
-2.43734e-08
6.63962e-08
-3.84153e-09
-2.12175e-08
6.56728e-08
-4.3377e-09
-1.73631e-08
6.505e-08
-4.73697e-09
-1.29774e-08
6.45928e-08
-5.02862e-09
-8.23964e-09
6.43452e-08
-5.20365e-09
-3.34099e-09
6.43363e-08
-5.26024e-09
1.52294e-09
6.45724e-08
-5.19508e-09
6.15834e-09
6.50446e-08
-5.01085e-09
1.038e-08
6.57209e-08
-4.709e-09
1.40156e-08
6.65548e-08
-4.29807e-09
1.69146e-08
6.74782e-08
-3.78871e-09
1.89611e-08
6.84105e-08
-3.20408e-09
2.00822e-08
6.92514e-08
-2.5753e-09
2.02697e-08
6.98892e-08
-1.94467e-09
1.9565e-08
7.0192e-08
-1.34962e-09
1.80572e-08
7.00125e-08
-8.18738e-10
1.58677e-08
6.91736e-08
-3.64473e-10
1.31424e-08
6.74671e-08
3.855e-12
1.00658e-08
6.46345e-08
2.72357e-10
6.85718e-09
6.03546e-08
4.25687e-10
3.80217e-09
5.42172e-08
4.20129e-10
1.27416e-09
4.56868e-08
1.96722e-10
2.65122e-08
-2.75966e-10
-1.06661e-09
2.86434e-08
-1.93279e-09
-4.00433e-09
4.8887e-08
-1.67924e-09
-7.75162e-09
5.7884e-08
-1.54957e-09
-1.18477e-08
6.43004e-08
-1.62485e-09
-1.59248e-08
6.87118e-08
-1.85349e-09
-1.97003e-08
7.15593e-08
-2.1938e-09
-2.29462e-08
7.3193e-08
-2.63275e-09
-2.5463e-08
7.38937e-08
-3.16172e-09
-2.70985e-08
7.38943e-08
-3.77511e-09
-2.77255e-08
7.33889e-08
-4.45467e-09
-2.72911e-08
7.2547e-08
-5.16752e-09
-2.57971e-08
7.1515e-08
-5.86616e-09
-2.33164e-08
7.04232e-08
-6.50748e-09
-1.99675e-08
6.93825e-08
-7.05681e-09
-1.59125e-08
6.84881e-08
-7.49557e-09
-1.13195e-08
6.78136e-08
-7.81205e-09
-6.38642e-09
6.74148e-08
-8.00269e-09
-1.30817e-09
6.73228e-08
-8.06422e-09
3.71199e-09
6.75493e-08
-7.99739e-09
8.47541e-09
6.80812e-08
-7.80116e-09
1.27907e-08
6.88859e-08
-7.47833e-09
1.64711e-08
6.99059e-08
-7.03213e-09
1.93563e-08
7.10661e-08
-6.47388e-09
2.13203e-08
7.22693e-08
-5.82225e-09
2.22813e-08
7.34026e-08
-5.11195e-09
2.2224e-08
7.43331e-08
-4.38682e-09
2.11974e-08
7.49119e-08
-3.69517e-09
1.93173e-08
7.49671e-08
-3.07099e-09
1.67193e-08
7.43017e-08
-2.5329e-09
1.35949e-08
7.26796e-08
-2.08643e-09
1.01518e-08
6.98166e-08
-1.73927e-09
6.6504e-09
6.53582e-08
-1.50293e-09
3.42262e-09
5.88584e-08
-1.41345e-09
8.92239e-10
4.97359e-08
-1.5166e-09
2.91476e-08
-1.74481e-09
-8.74154e-10
3.21847e-08
-2.66591e-09
-3.64539e-09
5.42411e-08
-2.58595e-09
-7.23464e-09
6.40195e-08
-2.54505e-09
-1.11929e-08
7.09439e-08
-2.68483e-09
-1.51566e-08
7.56398e-08
-2.96399e-09
-1.88434e-08
7.85955e-08
-3.3513e-09
-2.20066e-08
8.01961e-08
-3.83659e-09
-2.44542e-08
8.07566e-08
-4.41739e-09
-2.60084e-08
8.0536e-08
-5.08692e-09
-2.65524e-08
7.97565e-08
-5.82506e-09
-2.60222e-08
7.86085e-08
-6.59065e-09
-2.44373e-08
7.72622e-08
-7.33271e-09
-2.18739e-08
7.58648e-08
-8.0037e-09
-1.84665e-08
7.45461e-08
-8.57214e-09
-1.43712e-08
7.34132e-08
-9.02028e-09
-9.76892e-09
7.25533e-08
-9.34186e-09
-4.84734e-09
7.20279e-08
-9.53432e-09
1.9825e-10
7.18752e-08
-9.59831e-09
5.17337e-09
7.21065e-08
-9.53301e-09
9.88465e-09
7.27099e-08
-9.33891e-09
1.4138e-08
7.36462e-08
-9.01504e-09
1.77566e-08
7.48532e-08
-8.5636e-09
2.05694e-08
7.62426e-08
-7.99064e-09
2.24457e-08
7.77063e-08
-7.31371e-09
2.33e-08
7.91133e-08
-6.56444e-09
2.31113e-08
8.03149e-08
-5.79077e-09
2.19253e-08
8.11393e-08
-5.04448e-09
1.98665e-08
8.13945e-08
-4.36733e-09
1.70911e-08
8.08565e-08
-3.78001e-09
1.37943e-08
7.92643e-08
-3.28899e-09
1.0209e-08
7.63008e-08
-2.89646e-09
6.59878e-09
7.15786e-08
-2.61136e-09
3.31168e-09
6.46067e-08
-2.46149e-09
7.75129e-10
5.47562e-08
-2.48422e-09
3.24703e-08
-2.54666e-09
-9.14216e-10
3.58788e-08
-2.77954e-09
-3.64516e-09
5.97273e-08
-2.75717e-09
-7.1569e-09
7.02838e-08
-2.75057e-09
-1.10188e-08
7.77185e-08
-2.91239e-09
-1.48813e-08
8.27087e-08
-3.20814e-09
-1.84613e-08
8.57849e-08
-3.60958e-09
-2.15234e-08
8.73692e-08
-4.10987e-09
-2.38642e-08
8.78067e-08
-4.70785e-09
-2.53182e-08
8.73853e-08
-5.39819e-09
-2.5756e-08
8.6351e-08
-6.15588e-09
-2.51286e-08
8.49188e-08
-6.9363e-09
-2.34607e-08
8.32782e-08
-7.68424e-09
-2.08392e-08
8.15969e-08
-8.35319e-09
-1.73993e-08
8.00194e-08
-8.91318e-09
-1.33036e-08
7.86682e-08
-9.35127e-09
-8.72671e-09
7.76397e-08
-9.66357e-09
-3.85127e-09
7.70044e-08
-9.85093e-09
1.13352e-09
7.68035e-08
-9.9136e-09
6.04114e-09
7.70515e-08
-9.85191e-09
1.06825e-08
7.77335e-08
-9.66534e-09
1.48744e-08
7.88081e-08
-9.35336e-09
1.84377e-08
8.02045e-08
-8.91493e-09
2.12085e-08
8.18255e-08
-8.35373e-09
2.30499e-08
8.35481e-08
-7.68258e-09
2.38674e-08
8.52268e-08
-6.93146e-09
2.36357e-08
8.66934e-08
-6.1471e-09
2.24036e-08
8.77572e-08
-5.38511e-09
2.02866e-08
8.82019e-08
-4.69062e-09
1.74517e-08
8.77804e-08
-4.08886e-09
1.40985e-08
8.62035e-08
-3.58512e-09
1.04552e-08
8.31247e-08
-3.18023e-09
6.793e-09
7.81205e-08
-2.88039e-09
3.45175e-09
7.06585e-08
-2.71166e-09
8.5728e-10
6.00599e-08
-2.70621e-09
3.6042e-08
-2.71593e-09
-1.12505e-09
3.94229e-08
-2.41682e-09
-3.9437e-09
6.4894e-08
-2.34998e-09
-7.48506e-09
7.61516e-08
-2.32754e-09
-1.13304e-08
8.40416e-08
-2.47635e-09
-1.51484e-08
8.92856e-08
-2.76087e-09
-1.86634e-08
9.24539e-08
-3.15283e-09
-2.16505e-08
9.40001e-08
-3.64479e-09
-2.39043e-08
9.42995e-08
-4.23702e-09
-2.52617e-08
9.36646e-08
-4.92276e-09
-2.56022e-08
9.23667e-08
-5.67494e-09
-2.48816e-08
9.06421e-08
-6.44526e-09
-2.31254e-08
8.87023e-08
-7.17811e-09
-2.04325e-08
8.67321e-08
-7.82763e-09
-1.69403e-08
8.4894e-08
-8.36751e-09
-1.28073e-08
8.33231e-08
-8.78728e-09
-8.21044e-09
8.21281e-08
-9.0862e-09
-3.32624e-09
8.13858e-08
-9.26549e-09
1.66163e-09
8.11434e-08
-9.32606e-09
6.56336e-09
8.14154e-08
-9.26755e-09
1.12002e-08
8.21873e-08
-9.0902e-09
1.53913e-08
8.34116e-08
-8.79294e-09
1.89582e-08
8.50116e-08
-8.37443e-09
2.17393e-08
8.68781e-08
-7.83527e-09
2.35992e-08
8.88756e-08
-7.18586e-09
2.44362e-08
9.08412e-08
-6.45248e-09
2.42226e-08
9.25894e-08
-5.68109e-09
2.2999e-08
9.3908e-08
-4.92749e-09
2.08806e-08
9.45598e-08
-4.24018e-09
1.80349e-08
9.42727e-08
-3.64634e-09
1.46593e-08
9.27333e-08
-3.15266e-09
1.09763e-08
8.95653e-08
-2.75871e-09
7.25273e-09
8.43142e-08
-2.47139e-09
3.8215e-09
7.64085e-08
-2.31756e-09
1.08582e-09
6.51254e-08
-2.33119e-09
3.95164e-08
-2.38754e-09
-1.45215e-09
4.26084e-08
-1.73287e-09
-4.44569e-09
6.9437e-08
-1.55e-09
-8.09011e-09
8.12739e-08
-1.47751e-09
-1.19865e-08
8.9527e-08
-1.58926e-09
-1.58123e-08
9.49559e-08
-1.84477e-09
-1.93078e-08
9.81624e-08
-2.21214e-09
-2.22546e-08
9.96278e-08
-2.68258e-09
-2.44511e-08
9.97524e-08
-3.25521e-09
-2.57365e-08
9.8872e-08
-3.92194e-09
-2.59965e-08
9.728e-08
-4.65385e-09
-2.51865e-08
9.52348e-08
-5.40164e-09
-2.33438e-08
9.29682e-08
-6.10985e-09
-2.05605e-08
9.06846e-08
-6.73459e-09
-1.69798e-08
8.85637e-08
-7.2517e-09
-1.27589e-08
8.67556e-08
-7.65298e-09
-8.07286e-09
8.53813e-08
-7.93862e-09
-3.10334e-09
8.45258e-08
-8.11026e-09
1.96602e-09
8.42416e-08
-8.16828e-09
6.94958e-09
8.45452e-08
-8.11258e-09
1.16603e-08
8.54202e-08
-7.94318e-09
1.59168e-08
8.6814e-08
-7.65963e-09
1.95472e-08
8.86415e-08
-7.26019e-09
2.23891e-08
9.07818e-08
-6.74461e-09
2.42995e-08
9.30843e-08
-6.12107e-09
2.51846e-08
9.53691e-08
-5.41367e-09
2.50105e-08
9.74312e-08
-4.66635e-09
2.38137e-08
9.90382e-08
-3.9346e-09
2.17106e-08
9.99313e-08
-3.2678e-09
1.88621e-08
9.98163e-08
-2.69482e-09
1.54625e-08
9.83571e-08
-2.22374e-09
1.17294e-08
9.51523e-08
-1.85529e-09
7.92299e-09
8.97202e-08
-1.59786e-09
4.35268e-09
8.14583e-08
-1.48222e-09
1.4231e-09
6.96064e-08
-1.54767e-09
4.26588e-08
-1.72136e-09
-1.82203e-09
4.5339e-08
-9.0886e-10
-5.0263e-09
7.32205e-08
-5.78284e-10
-8.80934e-09
8.54972e-08
-4.40247e-10
-1.27909e-08
9.40104e-08
-5.04101e-10
-1.66589e-08
9.95476e-08
-7.22489e-10
-2.01706e-08
1.02734e-07
-1.05872e-09
-2.31133e-08
1.0407e-07
-1.50181e-09
-2.52871e-08
1.03978e-07
-2.04917e-09
-2.65384e-08
1.02813e-07
-2.69106e-09
-2.67485e-08
1.00887e-07
-3.3977e-09
-2.5872e-08
9.84802e-08
-4.11988e-09
-2.39483e-08
9.58456e-08
-4.80307e-09
-2.10653e-08
9.32082e-08
-5.40516e-09
-1.73658e-08
9.07672e-08
-5.90343e-09
-1.30092e-08
8.86901e-08
-6.29067e-09
-8.17215e-09
8.71115e-08
-6.56696e-09
-3.04072e-09
8.61277e-08
-6.7334e-09
2.19338e-09
8.57977e-08
-6.78965e-09
7.33365e-09
8.61404e-08
-6.73559e-09
1.21881e-08
8.71371e-08
-6.57128e-09
1.65704e-08
8.87288e-08
-6.29703e-09
2.03032e-08
9.08192e-08
-5.91169e-09
2.32277e-08
9.32736e-08
-5.41512e-09
2.52029e-08
9.59243e-08
-4.81453e-09
2.61308e-08
9.85719e-08
-4.13264e-09
2.5984e-08
1.00991e-07
-3.41152e-09
2.48e-08
1.02928e-07
-2.70575e-09
2.26929e-08
1.04103e-07
-2.06445e-09
1.9825e-08
1.04202e-07
-1.51729e-09
1.63875e-08
1.0287e-07
-1.07412e-09
1.25876e-08
9.96869e-08
-7.37361e-10
8.67848e-09
9.41492e-08
-5.17565e-10
4.95524e-09
8.56319e-08
-4.50569e-10
1.79545e-09
7.33475e-08
-5.828e-10
4.53612e-08
-9.05678e-10
-2.13836e-09
4.7598e-08
-1.21209e-10
-5.5239e-09
7.62633e-08
3.43388e-10
-9.43014e-09
8.8857e-08
5.45151e-10
-1.3489e-08
9.75427e-08
5.27925e-10
-1.74137e-08
1.03126e-07
3.4618e-10
-2.09694e-08
1.06248e-07
4.0808e-11
-2.39455e-08
1.07422e-07
-3.75479e-10
-2.61502e-08
1.07083e-07
-8.98458e-10
-2.74204e-08
1.05599e-07
-1.51702e-09
-2.76336e-08
1.03301e-07
-2.20131e-09
-2.67385e-08
1.00488e-07
-2.90263e-09
-2.47586e-08
9.74346e-08
-3.56775e-09
-2.17868e-08
9.43909e-08
-4.15556e-09
-1.7955e-08
9.15802e-08
-4.64385e-09
-1.34314e-08
8.9192e-08
-5.02565e-09
-8.3986e-09
8.73785e-08
-5.29964e-09
-3.05397e-09
8.62483e-08
-5.46524e-09
2.39749e-09
8.58672e-08
-5.52123e-09
7.7486e-09
8.62566e-08
-5.46716e-09
1.27949e-08
8.73951e-08
-5.30344e-09
1.73372e-08
8.92173e-08
-5.03127e-09
2.11934e-08
9.16145e-08
-4.65117e-09
2.41973e-08
9.44345e-08
-4.16446e-09
2.6213e-08
9.74875e-08
-3.5781e-09
2.71494e-08
1.0055e-07
-2.91429e-09
2.69828e-08
1.03372e-07
-2.21414e-09
2.57622e-08
1.05677e-07
-1.53085e-09
2.36118e-08
1.07168e-07
-9.13083e-10
2.06912e-08
1.07513e-07
-3.90625e-10
1.71941e-08
1.06342e-07
2.55076e-11
1.33267e-08
1.03224e-07
3.31139e-10
9.32131e-09
9.76411e-08
5.13879e-10
5.46391e-09
8.89547e-08
5.33524e-10
2.11569e-09
7.63589e-08
3.36417e-10
4.75995e-08
-1.22264e-10
-2.3155e-09
4.94336e-08
4.80908e-10
-5.79972e-09
7.86826e-08
1.06408e-09
-9.76242e-09
9.15051e-08
1.3152e-09
-1.38631e-08
1.00307e-07
1.33584e-09
-1.78281e-08
1.05906e-07
1.18535e-09
-2.1438e-08
1.08949e-07
9.07229e-10
-2.44895e-08
1.09959e-07
5.1466e-10
-2.67891e-08
1.0937e-07
1.26108e-11
-2.81615e-08
1.0756e-07
-5.88266e-10
-2.84707e-08
1.04867e-07
-1.25799e-09
-2.76396e-08
1.01607e-07
-1.94932e-09
-2.56716e-08
9.80764e-08
-2.60965e-09
-2.26429e-08
9.45597e-08
-3.19802e-09
-1.86869e-08
9.13154e-08
-3.69143e-09
-1.39789e-08
8.85633e-08
-4.07946e-09
-8.71755e-09
8.64758e-08
-4.35905e-09
-3.11659e-09
8.51767e-08
-4.5285e-09
2.59987e-09
8.47365e-08
-4.58571e-09
8.2042e-09
8.51817e-08
-4.53016e-09
1.3476e-08
8.6486e-08
-4.36233e-09
1.81964e-08
8.8579e-08
-4.08429e-09
2.21728e-08
9.13371e-08
-3.69771e-09
2.52258e-08
9.45876e-08
-3.20564e-09
2.72211e-08
9.81106e-08
-2.61851e-09
2.80841e-08
1.01647e-07
-1.95933e-09
2.78092e-08
1.04913e-07
-1.26906e-09
2.64771e-08