/*--------------------------------*- C++ -*----------------------------------*\
| =========                 |                                                 |
| \\      /  F ield         | OpenFOAM: The Open Source CFD Toolbox           |
|  \\    /   O peration     | Version:  v2006                                 |
|   \\  /    A nd           | Website:  www.openfoam.com                      |
|    \\/     M anipulation  |                                                 |
\*---------------------------------------------------------------------------*/
FoamFile
{
    version     2.0;
    format      ascii;
    class       volScalarField;
    location    "75";
    object      nut;
}
// * * * * * * * * * * * * * * * * * * * * * * * * * * * * * * * * * * * * * //

dimensions      [0 2 -1 0 0 0 0];


internalField   nonuniform List<scalar> 
78750
(
0.000523024
0.00104787
0.000561934
7.10891e-05
2.50392e-05
2.20292e-05
3.86298e-05
3.34188e-05
4.32422e-05
5.09052e-05
5.57734e-05
6.47073e-05
7.28077e-05
8.15223e-05
9.08155e-05
0.000100729
0.000110963
0.000115275
0.000115954
0.000116565
0.000117089
0.000117494
0.000117729
0.000117714
0.000117329
0.000116418
0.000114772
0.00010888
9.32151e-05
8.10776e-05
7.1681e-05
6.3596e-05
5.17039e-05
2.01115e-05
1.17239e-06
9.17497e-06
3.44786e-05
2.07939e-05
2.41531e-05
9.88846e-06
1.9614e-05
2.2207e-05
3.02319e-05
3.68638e-05
4.34807e-05
5.12068e-05
5.87535e-05
6.65047e-05
7.4385e-05
8.22977e-05
9.02101e-05
9.79939e-05
0.000105419
0.000112135
0.000117639
0.000121442
0.000123086
0.000122307
0.000118928
0.000112969
0.000105447
9.83221e-05
9.34709e-05
9.28077e-05
9.8896e-05
0.000113215
0.000131744
0.000121087
4.2504e-05
2.2273e-06
2.76579e-06
2.92696e-05
8.05251e-05
9.29889e-05
0.000103097
9.99532e-05
8.79188e-05
7.91376e-05
7.43753e-05
7.21737e-05
7.06023e-05
6.94978e-05
6.85925e-05
6.77611e-05
6.69129e-05
6.58623e-05
6.43922e-05
6.23582e-05
5.9794e-05
5.68323e-05
5.34963e-05
4.98606e-05
4.60578e-05
4.18351e-05
3.71699e-05
3.32114e-05
2.99508e-05
2.59166e-05
2.3366e-05
2.26282e-05
2.20936e-05
2.49232e-05
3.30605e-05
4.3349e-05
2.91789e-06
2.13891e-06
1.27642e-05
5.51433e-05
0.000104059
7.14328e-05
6.64754e-05
7.813e-05
9.70029e-05
0.000119618
0.000143254
0.000165825
0.000185295
0.000200192
0.000206106
0.000208032
0.0002097
0.000211128
0.000212319
0.000201716
0.000185655
0.000169996
0.000157549
0.000151347
0.000147923
0.000133581
0.00010444
7.10179e-05
3.76627e-05
1.71825e-05
8.89259e-06
1.02322e-05
1.4487e-05
1.89957e-05
2.70555e-05
3.8058e-06
2.29326e-06
2.25692e-05
7.15287e-05
9.66765e-05
9.20394e-05
8.3543e-05
7.8685e-05
7.86893e-05
8.22826e-05
8.79207e-05
9.47517e-05
0.000102638
0.000111793
0.00012244
0.000134372
0.000146688
0.000157999
0.000167197
0.00016749
0.000167728
0.000160668
0.000130649
9.5612e-05
6.42277e-05
4.81336e-05
4.68851e-05
5.68022e-05
6.68461e-05
5.32118e-05
3.99007e-05
3.89411e-05
3.68768e-05
3.66439e-05
5.55237e-05
5.25911e-06
2.90601e-06
2.01824e-05
6.79767e-05
8.67279e-05
8.94412e-05
9.44997e-05
0.000104414
0.000117458
0.000130401
0.000140115
0.000145065
0.000145609
0.000143566
0.000141154
0.000139859
0.000139954
0.00014038
0.00013891
0.000132346
0.000115572
8.36705e-05
5.04179e-05
3.56415e-05
3.94466e-05
4.92522e-05
3.04542e-05
2.57684e-05
2.95991e-05
4.01499e-05
5.2231e-05
4.79405e-05
3.75838e-05
4.00679e-05
7.94157e-05
5.2296e-06
2.78091e-06
2.56178e-05
7.86226e-05
9.57999e-05
8.90503e-05
8.0953e-05
7.95516e-05
8.57128e-05
9.79689e-05
0.000114678
0.000134732
0.000156717
0.000177442
0.000191004
0.000192369
0.000193478
0.000194243
0.000194619
0.000194589
0.000194155
0.000190868
0.000154566
0.000103474
7.09761e-05
6.82139e-05
6.97089e-05
3.62842e-05
2.57634e-05
2.678e-05
3.50416e-05
5.31852e-05
7.26491e-05
8.8855e-05
0.000121973
5.90059e-06
2.96767e-06
2.40519e-05
7.08978e-05
8.71617e-05
9.26032e-05
9.51001e-05
9.5569e-05
9.54283e-05
9.64718e-05
9.9667e-05
0.000105131
0.000112698
0.000122158
0.00013303
0.000144388
0.000155059
0.000163782
0.000169282
0.000170661
0.000168071
0.000162844
0.000155947
0.000145046
0.000124723
9.75537e-05
7.54772e-05
5.93788e-05
3.88172e-05
2.32342e-05
1.89668e-05
2.15082e-05
3.28385e-05
6.4028e-05
9.64516e-05
5.62741e-06
3.04485e-06
3.5172e-05
0.000110933
0.000119194
0.000100209
8.83277e-05
8.90315e-05
9.97478e-05
0.000117192
0.000137455
0.000156437
0.000171592
0.000182511
0.000189816
0.0001941
0.000195648
0.000194603
0.00019117
0.000185605
0.00017802
0.000168293
0.000156301
0.00014227
0.000126734
0.000110186
9.33062e-05
7.72939e-05
6.15649e-05
4.14011e-05
2.31298e-05
1.62403e-05
1.82439e-05
3.47783e-05
7.80665e-05
5.65627e-06
2.97078e-06
2.86354e-05
8.65305e-05
0.00010251
0.000105657
0.000105913
0.000105125
0.000104153
0.000104179
0.000106273
0.000110883
0.0001178
0.000126359
0.000135651
0.000144683
0.000152535
0.000158512
0.00016224
0.000163611
0.000162679
0.000159588
0.000154522
0.00014775
0.000139692
0.000130576
0.000119802
0.00010679
9.12782e-05
7.2031e-05
4.73867e-05
2.48869e-05
1.50411e-05
1.75787e-05
4.44707e-05
5.17346e-06
3.05335e-06
4.27812e-05
0.000116033
0.000120557
0.000109781
0.000104188
0.000106334
0.000113949
0.000124314
0.000135642
0.000147195
0.000158529
0.000168769
0.000176661
0.000181259
0.000182489
0.00018107
0.000177978
0.000173961
0.000169357
0.000164164
0.000158199
0.000151252
0.000143267
0.000134523
0.000125064
0.000114389
0.000101869
8.63741e-05
6.55029e-05
3.92962e-05
1.91994e-05
1.48972e-05
2.96699e-05
5.18398e-06
3.14372e-06
3.46056e-05
0.000109578
0.000122772
0.0001195
0.000114895
0.000112323
0.000112107
0.000113862
0.000117271
0.00012223
0.000128671
0.000136264
0.000144209
0.000151316
0.000156438
0.000159024
0.000159273
0.000157884
0.000155585
0.000152767
0.000149409
0.000145235
0.000139928
0.000133333
0.000125701
0.000117232
0.000107611
9.58878e-05
7.94984e-05
5.42479e-05
2.6121e-05
1.46696e-05
2.16919e-05
5.02278e-06
3.10834e-06
4.4951e-05
0.000112996
0.000118135
0.000112284
0.000110274
0.000114225
0.000122501
0.000132754
0.000143105
0.000152567
0.000160902
0.000168101
0.000173808
0.000177136
0.000177112
0.000173512
0.000167295
0.000160109
0.000153357
0.000147628
0.000142701
0.000137815
0.000132352
0.000126059
0.000118883
0.000110798
0.000101524
9.02078e-05
7.47927e-05
5.23509e-05
2.731e-05
1.62299e-05
2.43879e-05
5.15852e-06
3.29671e-06
3.89433e-05
0.000112479
0.000120255
0.000115874
0.000112855
0.000113505
0.000117154
0.000122562
0.000128694
0.000134927
0.000141069
0.00014721
0.000153351
0.000158941
0.000162655
0.000162861
0.000158744
0.00015122
0.000142466
0.000134444
0.000127907
0.000122599
0.000117846
0.00011295
0.000107405
0.000100927
9.32705e-05
8.37801e-05
7.05649e-05
5.04406e-05
2.67662e-05
1.62291e-05
2.54745e-05
5.27699e-06
3.17564e-06
4.69753e-05
0.000116278
0.000119525
0.000115031
0.000115531
0.000121954
0.000132257
0.000144017
0.000155301
0.000164894
0.000172262
0.000177444
0.000180829
0.00018271
0.00018273
0.000179647
0.000172145
0.000160313
0.000146183
0.000132454
0.000120905
0.000112026
0.000105388
0.000100054
9.49854e-05
8.93442e-05
8.24834e-05
7.35558e-05
6.08869e-05
4.27479e-05
2.4083e-05
1.72547e-05
3.27904e-05
5.59754e-06
3.33214e-06
4.32232e-05
0.000115028
0.000118711
0.000114911
0.000115301
0.000120585
0.000129111
0.000139128
0.000149331
0.000158812
0.00016693
0.000173289
0.000177784
0.000180582
0.000181831
0.00018107
0.000176907
0.000167756
0.00015351
0.000136296
0.000119354
0.000105167
9.45835e-05
8.71259e-05
8.16245e-05
7.67588e-05
7.13588e-05
6.42233e-05
5.3461e-05
3.73404e-05
2.13263e-05
1.69568e-05
3.87368e-05
5.84637e-06
3.13229e-06
4.78579e-05
0.000113694
0.000112367
0.000108989
0.000113752
0.000125732
0.000141839
0.000159034
0.000175141
0.000188875
0.000199511
0.000206638
0.000210165
0.000210419
0.000208077
0.000203674
0.0001969
0.000186466
0.000171093
0.000151074
0.000128982
0.00010838
9.17929e-05
7.98725e-05
7.18e-05
6.60029e-05
6.069e-05
5.40651e-05
4.42705e-05
3.08064e-05
1.91965e-05
1.85349e-05
5.18198e-05
6.22178e-06
3.28787e-06
4.57604e-05
0.00010799
0.000106123
0.000103109
0.000107552
0.000118602
0.000133783
0.000150778
0.000167894
0.000184003
0.000198224
0.00020959
0.000217142
0.000220259
0.000218583
0.000214191
0.000209547
0.000201186
0.000187806
0.000169023
0.000145476
0.000120028
9.66966e-05
7.83322e-05
6.557e-05
5.7299e-05
5.15043e-05
4.57868e-05
3.76461e-05
2.62963e-05
1.71457e-05
1.89265e-05
6.02054e-05
6.49365e-06
3.10653e-06
5.02554e-05
0.000106681
0.000103121
0.000102268
0.000110791
0.000126485
0.0001458
0.000165842
0.000185028
0.000202775
0.000218534
0.000230307
0.00023121
0.000228037
0.000224148
0.000219689
0.000214819
0.000209715
0.000204578
0.000195306
0.000169847
0.000138661
0.000108443
8.31323e-05
6.44727e-05
5.21607e-05
4.42824e-05
3.80804e-05
3.09155e-05
2.22607e-05
1.62938e-05
2.10317e-05
6.77966e-05
6.89335e-06
3.19752e-06
5.19273e-05
0.000105253
9.91774e-05
9.80102e-05
0.000107024
0.000123453
0.000143583
0.00016451
0.000184691
0.000203654
0.000221126
0.000235012
0.000235723
0.000233057
0.000229551
0.000225328
0.000220531
0.000215321
0.000209881
0.000204425
0.000191958
0.00016133
0.000126559
9.45068e-05
6.87489e-05
5.07528e-05
3.97004e-05
3.27377e-05
2.64369e-05
1.94767e-05
1.52956e-05
2.18595e-05
6.83616e-05
7.17641e-06
3.06128e-06
5.68766e-05
0.000103598
9.74134e-05
9.89917e-05
0.000111662
0.000131481
0.000153926
0.000176013
0.000196622
0.00021567
0.000232546
0.000241745
0.000240575
0.000238428
0.000235354
0.000231443
0.000226814
0.000221612
0.00021601
0.000210208
0.000204443
0.000184595
0.000147705
0.000110069
7.75474e-05
5.29341e-05
3.7109e-05
2.79947e-05
2.20545e-05
1.72095e-05
1.53945e-05
2.46297e-05
6.84208e-05
7.54919e-06
3.05104e-06
6.19572e-05
0.000103905
9.50698e-05
9.71728e-05
0.000111693
0.000133607
0.000157698
0.000180793
0.000201874
0.000221008
0.000237582
0.000244529
0.000244035
0.000242578
0.000240167
0.000236843
0.000232685
0.000227805
0.000222355
0.000216521
0.000210528
0.000202476
0.000166112
0.000126
8.9067e-05
5.86148e-05
3.7578e-05
2.56004e-05
1.91119e-05
1.52081e-05
1.47826e-05
2.55726e-05
6.32238e-05
7.64762e-06
2.96323e-06
6.87547e-05
0.000102508
9.36696e-05
9.86172e-05
0.000116685
0.000141527
0.000167202
0.000190722
0.000211501
0.000229861
0.00024504
0.000247574
0.000247579
0.00024667
0.000244829
0.000242063
0.000238411
0.000233946
0.000228788
0.000223099
0.000217092
0.000211036
0.000179933
0.000139895
0.000100975
6.62558e-05
4.00331e-05
2.46202e-05
1.71373e-05
1.39299e-05
1.50185e-05
2.84121e-05
6.42749e-05
7.82983e-06
2.89774e-06
7.62617e-05
9.97772e-05
9.02738e-05
9.8064e-05
0.000119983
0.000148089
0.00017563
0.000199906
0.000220781
0.000238205
0.000248414
0.000249807
0.00025036
0.00025003
0.000248786
0.000246616
0.000243531
0.000239573
0.000234829
0.000229435
0.000223577
0.000217512
0.00018982
0.000150685
0.000111097
7.39006e-05
4.35246e-05
2.46146e-05
1.56992e-05
1.2419e-05
1.39051e-05
2.76782e-05
5.67739e-05
7.87493e-06
2.83173e-06
8.42808e-05
9.6609e-05
8.8447e-05
9.98078e-05
0.000125521
0.000156175
0.000184671
0.000208985
0.00022953
0.000245919
0.000249627
0.000251521
0.000252615
0.000252862
0.000252221
0.000250661
0.000248173
0.000244771
0.000240514
0.000235506
0.000229907
0.000223948
0.000201004
0.000161787
0.000120551
8.11092e-05
4.75474e-05
2.55377e-05
1.52209e-05
1.18897e-05
1.40457e-05
2.96748e-05
5.76003e-05
8.08648e-06
2.75701e-06
9.25759e-05
9.23796e-05
8.5934e-05
0.000101304
0.000131252
0.000164653
0.000194199
0.000218608
0.00023811
0.000247153
0.000250235
0.000252643
0.000254298
0.000255147
0.000255141
0.000254234
0.000252392
0.000249598
0.000245879
0.000241305
0.000235999
0.000230159
0.000214375
0.000173638
0.000129053
8.62366e-05
4.95592e-05
2.53259e-05
1.42104e-05
1.10179e-05
1.3652e-05
3.00255e-05
5.00244e-05
8.03521e-06
2.66341e-06
9.64981e-05
8.62446e-05
8.33417e-05
0.000103138
0.000137038
0.00017253
0.000202476
0.00022622
0.000242544
0.000246525
0.000249985
0.000252852
0.000255057
0.000256529
0.000257207
0.000257036
0.000255959
0.00025393
0.000250938
0.000247012
0.000242232
0.000236746
0.000229215
0.000187148
0.000139556
9.36107e-05
5.3803e-05
2.68118e-05
1.43262e-05
1.09879e-05
1.45077e-05
3.37701e-05
4.8587e-05
8.14759e-06
2.58673e-06
9.77956e-05
8.19342e-05
8.34429e-05
0.000107693
0.000144652
0.000180914
0.000210255
0.000232352
0.000241636
0.000245777
0.000249461
0.000252632
0.000255237
0.000257214
0.000258493
0.000259001
0.000258672
0.000257431
0.000255232
0.000252061
0.000247951
0.000243001
0.000237391
0.000195391
0.000146167
9.8447e-05
5.66619e-05
2.78098e-05
1.42516e-05
1.06613e-05
1.42815e-05
3.46972e-05
4.24511e-05
7.89902e-06
2.48267e-06
9.26491e-05
7.74476e-05
8.41501e-05
0.000112753
0.000151923
0.000188007
0.000215952
0.00023622
0.000240829
0.000245063
0.000248868
0.000252212
0.000255064
0.000257386
0.000259122
0.000260203
0.000260553
0.000260097
0.00025877
0.000256527
0.000253364
0.00024934
0.000236847
0.000195749
0.000150084
0.000105219
6.37721e-05
3.23081e-05
1.59403e-05
1.14015e-05
1.57288e-05
3.79462e-05
4.35123e-05
7.95402e-06
2.37785e-06
7.69498e-05
6.76727e-05
7.80549e-05
0.000107366
0.000146044
0.00018243
0.000211765
0.000233797
0.000240318
0.000244717
0.000248692
0.000252217
0.000255275
0.000257846
0.000259895
0.000261365
0.000262177
0.000262258
0.000261544
0.000259977
0.000257538
0.000254263
0.000236599
0.000199367
0.000158365
0.000116502
7.50561e-05
3.98485e-05
1.87946e-05
1.11258e-05
1.32932e-05
3.31989e-05
4.13497e-05
7.82558e-06
2.31865e-06
5.48917e-05
4.69283e-05
5.55322e-05
8.0658e-05
0.000116857
0.000154542
0.000188816
0.000218168
0.000239155
0.000243865
0.000248177
0.000252036
0.000255428
0.000258345
0.000260768
0.000262658
0.000263945
0.000264541
0.000264371
0.000263356
0.000261451
0.000251534
0.000219074
0.000181415
0.000143492
0.000106115
7.05067e-05
4.0712e-05
2.18766e-05
1.44378e-05
1.68104e-05
3.75244e-05
4.42329e-05
7.912e-06
2.56331e-06
3.36912e-05
2.87709e-05
2.66271e-05
3.5385e-05
5.87953e-05
9.65405e-05
0.000135546
0.000172484
0.000209328
0.000241724
0.000246669
0.000251162
0.000255159
0.00025866
0.000261677
0.0002642
0.000266191
0.000267565
0.000268228
0.000268071
0.000266974
0.000264864
0.000238597
0.000204708
0.000167358
0.000126958
8.44903e-05
4.64038e-05
2.22454e-05
1.279e-05
1.41553e-05
3.2415e-05
4.23672e-05
7.88237e-06
3.24473e-06
2.13494e-05
3.30916e-05
2.06963e-05
1.48697e-05
1.70772e-05
3.30547e-05
7.5219e-05
0.00012682
0.000167401
0.000208923
0.000243337
0.000248784
0.000253548
0.000257669
0.000261216
0.000264244
0.00026678
0.0002688
0.000270239
0.000270981
0.000270908
0.000264848
0.000229227
0.000191139
0.000154754
0.000119355
8.40409e-05
5.11666e-05
2.75894e-05
1.68058e-05
1.77975e-05
3.84553e-05
4.34546e-05
7.91256e-06
4.71746e-06
2.49597e-05
5.38457e-05
5.11472e-05
2.59151e-05
1.22529e-05
1.09331e-05
2.34872e-05
6.91263e-05
0.000148132
0.00019776
0.000234849
0.000246004
0.000252159
0.00025725
0.000261481
0.000265
0.000267905
0.000270239
0.000271991
0.000273071
0.000273323
0.000272566
0.000241831
0.000195601
0.00015149
0.000111175
7.44538e-05
4.3968e-05
2.41339e-05
1.59034e-05
1.85906e-05
4.06368e-05
3.72704e-05
7.70809e-06
6.09898e-06
4.02317e-05
4.78685e-05
4.4087e-05
3.20361e-05
1.6828e-05
1.15462e-05
2.51402e-05
0.000143598
0.000219784
0.000230112
0.000239468
0.000247495
0.000254277
0.000260013
0.000264897
0.000269085
0.000272685
0.000275758
0.000278333
0.000280375
0.000281773
0.000282335
0.000281477
0.000244971
0.000202887
0.00015646
0.000106671
6.08925e-05
3.0755e-05
1.81123e-05
1.9262e-05
4.14768e-05
3.87459e-05
7.69069e-06
6.12937e-06
2.75029e-05
1.72533e-05
1.28273e-05
1.3892e-05
3.5193e-05
0.000127969
0.00014218
0.000169237
0.000212222
0.000234189
0.000241619
0.000248334
0.000254302
0.000259591
0.000264282
0.000268446
0.000272119
0.000275303
0.000277974
0.000280074
0.000281512
0.00023503
0.000190734
0.000154756
0.000124908
9.8001e-05
7.18878e-05
4.75419e-05
2.91679e-05
2.04196e-05
2.45034e-05
5.19648e-05
3.15851e-05
7.38764e-06
4.2514e-06
1.9167e-05
2.77112e-05
6.5192e-05
5.96576e-05
4.86794e-05
5.83026e-05
7.62597e-05
9.04256e-05
0.000103898
0.000119298
0.000137592
0.000159946
0.000187672
0.000221267
0.000257714
0.000263419
0.00026893
0.000273989
0.000278405
0.000282089
0.000284906
0.000286745
0.000248388
0.000203074
0.000163775
0.000129901
9.82023e-05
6.75677e-05
4.22843e-05
2.81416e-05
2.78945e-05
4.93702e-05
3.83141e-05
7.20184e-06
4.60026e-06
4.90298e-05
4.20472e-05
3.13002e-05
3.17601e-05
3.97878e-05
5.32518e-05
7.14919e-05
9.06723e-05
0.000105548
0.000114876
0.00012073
0.000125529
0.000131199
0.000139413
0.000151721
0.000169573
0.000194304
0.000224613
0.000251742
0.000261927
0.000251587
0.000229
0.000200322
0.000167983
0.000134516
0.000102578
7.4486e-05
5.19445e-05
3.63208e-05
2.93802e-05
3.5726e-05
6.6329e-05
3.78778e-05
7.26444e-06
5.77508e-06
6.45047e-05
4.88138e-05
4.62085e-05
4.84463e-05
5.05598e-05
5.3241e-05
5.77735e-05
6.4681e-05
7.39065e-05
8.42791e-05
9.30347e-05
9.71873e-05
9.69638e-05
9.54409e-05
9.56071e-05
9.93969e-05
0.000107876
0.000121319
0.000137594
0.000149998
0.00015093
0.000141517
0.000128706
0.000115901
0.000103422
9.10736e-05
7.84075e-05
6.53496e-05
5.28533e-05
4.4878e-05
4.72904e-05
6.15884e-05
3.17656e-05
5.64104e-06
5.05326e-06
5.1804e-05
7.00378e-05
8.12194e-05
7.51487e-05
5.98067e-05
4.89761e-05
4.27181e-05
3.90417e-05
3.70648e-05
3.64812e-05
3.7249e-05
3.96163e-05
4.42797e-05
5.25339e-05
6.61279e-05
8.44566e-05
9.8176e-05
9.67653e-05
8.66189e-05
7.76356e-05
7.5688e-05
8.30388e-05
9.35044e-05
9.72826e-05
9.25387e-05
7.90221e-05
6.01798e-05
4.3708e-05
3.28441e-05
2.87412e-05
3.63124e-05
6.4905e-05
4.08448e-05
6.54162e-06
4.77252e-06
2.57446e-05
2.95934e-05
4.34857e-05
6.64533e-05
7.72478e-05
7.22215e-05
6.19624e-05
5.30514e-05
4.63912e-05
4.12162e-05
3.69412e-05
3.31877e-05
2.9705e-05
2.65706e-05
2.41815e-05
2.35168e-05
2.69389e-05
3.8273e-05
6.00255e-05
6.91083e-05
4.86654e-05
3.71216e-05
3.82428e-05
5.23091e-05
7.97134e-05
0.000104874
0.000117187
0.000122242
0.000116038
9.00663e-05
6.92566e-05
6.77159e-05
3.88938e-05
6.01127e-06
3.93641e-06
2.17018e-05
2.09254e-05
2.81603e-05
4.62277e-05
6.73768e-05
7.81668e-05
7.85664e-05
7.39053e-05
6.82699e-05
6.34628e-05
5.95273e-05
5.58182e-05
5.16768e-05
4.65883e-05
4.02782e-05
3.29489e-05
2.55154e-05
1.8249e-05
1.07187e-05
5.5438e-06
5.87027e-06
1.72774e-05
3.75252e-05
2.60193e-05
4.11453e-05
0.000116229
4.47489e-05
2.49958e-05
2.262e-05
2.76031e-05
3.75327e-05
5.20083e-05
3.4816e-05
7.11183e-06
3.35925e-06
1.32138e-05
2.3413e-05
3.90493e-05
5.83679e-05
7.52112e-05
8.17897e-05
7.87609e-05
7.33332e-05
6.96349e-05
6.88228e-05
7.1132e-05
7.61278e-05
8.19328e-05
8.52976e-05
8.40053e-05
7.86307e-05
7.06838e-05
6.03947e-05
4.81994e-05
3.47249e-05
2.21118e-05
1.46997e-05
4.55186e-06
1.39324e-06
3.51171e-06
1.02608e-06
9.08648e-06
3.68855e-05
5.96681e-05
7.02082e-05
7.71899e-05
7.82249e-05
2.83744e-05
4.56002e-06
6.81456e-06
2.79486e-05
7.91219e-05
0.000126093
0.000111962
9.36554e-05
8.22286e-05
7.77953e-05
7.74847e-05
7.80298e-05
7.72915e-05
7.51658e-05
7.30916e-05
7.2765e-05
7.53237e-05
8.10454e-05
9.00226e-05
0.000102983
0.000117673
0.000122867
0.000100777
0.000100575
0.000112196
9.06434e-05
6.42729e-05
5.77068e-05
4.58457e-05
2.0494e-05
9.32159e-06
5.01647e-06
8.85485e-06
2.07984e-05
2.87976e-05
3.19949e-05
5.85797e-06
8.44678e-06
9.51429e-05
0.00010106
9.87191e-05
0.00010351
9.99271e-05
0.000101447
0.000108479
0.000113614
0.000114121
0.000112171
0.000110157
0.000108841
0.000106616
9.99379e-05
8.6863e-05
7.14027e-05
6.44531e-05
7.42681e-05
0.000108735
4.17743e-05
9.11006e-06
1.26847e-05
3.82695e-05
4.28052e-05
2.84858e-05
1.2807e-05
1.32457e-06
1.44812e-07
7.05021e-06
1.90203e-05
3.13594e-05
4.91287e-05
6.75118e-05
9.14634e-06
5.76048e-06
2.24994e-05
5.1331e-05
7.24582e-05
8.32446e-05
8.53435e-05
8.35847e-05
8.19543e-05
8.19221e-05
8.23206e-05
7.9725e-05
7.19522e-05
6.11265e-05
5.08271e-05
4.25051e-05
3.23495e-05
1.32286e-05
2.03898e-06
9.48315e-07
9.21752e-09
3.06686e-07
1.31234e-05
2.76366e-05
3.42945e-05
3.83193e-05
3.8792e-05
3.88423e-05
4.22035e-05
4.72537e-05
5.42907e-05
6.23068e-05
6.67348e-05
5.20181e-05
2.32004e-05
7.20618e-06
7.68173e-06
4.48922e-05
0.000129173
9.91517e-05
6.97579e-05
5.60935e-05
5.19406e-05
5.45449e-05
6.47331e-05
8.41825e-05
0.000109909
0.000123794
0.000105552
7.5028e-05
5.73591e-05
5.59243e-05
6.89587e-05
7.18854e-05
3.36916e-05
1.53917e-05
8.85255e-06
4.78052e-06
1.18243e-06
7.60024e-07
4.72998e-06
1.26236e-05
2.32353e-05
4.09836e-05
5.83949e-05
6.72971e-05
6.58967e-05
5.93391e-05
4.57173e-05
2.0392e-05
2.24385e-06
7.95006e-06
8.6233e-05
7.31686e-05
4.93252e-05
4.14103e-05
4.76656e-05
7.04675e-05
0.000104351
0.000134004
0.000149022
0.000149004
0.000145026
0.000143822
0.000141059
0.000123689
9.32832e-05
6.96116e-05
5.80019e-05
5.35687e-05
4.75974e-05
3.50112e-05
2.27738e-05
1.37514e-05
6.77308e-06
1.82287e-06
4.14283e-06
2.33047e-06
2.30517e-06
3.83242e-06
5.11309e-06
1.76112e-05
3.12541e-05
2.74507e-05
1.26627e-05
1.94351e-06
6.6154e-06
3.39848e-05
0.000102496
0.000108849
8.0468e-05
5.81206e-05
5.00899e-05
5.03232e-05
5.45504e-05
6.09648e-05
6.96738e-05
8.13606e-05
9.42513e-05
0.000104358
0.000113244
0.000125185
0.000136591
0.000135019
0.00011878
9.99008e-05
8.38588e-05
6.98606e-05
5.68817e-05
4.5135e-05
3.53533e-05
2.76398e-05
2.19961e-05
1.78981e-05
1.45937e-05
9.29153e-06
2.36525e-06
8.56806e-06
4.03094e-06
3.64237e-06
2.02997e-06
7.60199e-06
4.85194e-05
0.000140169
0.000100147
5.96821e-05
4.75036e-05
5.07648e-05
6.48434e-05
8.48472e-05
9.44221e-05
8.69063e-05
7.63061e-05
7.39622e-05
8.61344e-05
0.000118342
0.000167531
0.000214738
0.000233554
0.000232489
0.000231191
0.000229339
0.000179814
0.000126012
8.78945e-05
6.36969e-05
4.76245e-05
3.63335e-05
2.8527e-05
2.37727e-05
2.24204e-05
2.44299e-05
2.49788e-05
2.55397e-05
2.89771e-05
4.05067e-06
7.97388e-06
5.4968e-05
0.000103223
5.54716e-05
3.30614e-05
2.9202e-05
3.77338e-05
6.21172e-05
0.000106024
0.000159025
0.000199821
0.000211885
0.000187078
0.000154224
0.00013994
0.000142111
0.000150198
0.000157165
0.000161289
0.000162945
0.000161452
0.00015394
0.000137004
0.000111061
8.23034e-05
5.75909e-05
3.95218e-05
2.72452e-05
1.97423e-05
1.64265e-05
1.69174e-05
2.26406e-05
3.96837e-05
3.07657e-05
3.22564e-06
7.19582e-06
4.31978e-05
0.000109491
7.24045e-05
4.68178e-05
3.94562e-05
4.15884e-05
4.71168e-05
5.38111e-05
6.42057e-05
8.31525e-05
0.000116886
0.000167222
0.000219753
0.000252564
0.000255586
0.000256643
0.000239592
0.000213534
0.000187598
0.000164985
0.00014516
0.000127035
0.000109946
9.35059e-05
7.7911e-05
6.5384e-05
6.02939e-05
6.31483e-05
6.18642e-05
5.21025e-05
3.58895e-05
1.67977e-05
1.73455e-05
2.69972e-06
7.7083e-06
4.28417e-05
0.000107735
8.89928e-05
5.27773e-05
3.75542e-05
3.98806e-05
5.74002e-05
8.37994e-05
9.72641e-05
9.54225e-05
9.6018e-05
0.000107644
0.000131118
0.000162437
0.000194351
0.000220059
0.000235337
0.000238978
0.000232388
0.000217647
0.000196346
0.000170639
0.000150438
0.000155007
0.000201166
0.000145957
5.05963e-05
2.56875e-05
2.68653e-05
3.17769e-05
2.50085e-05
2.19493e-05
5.07081e-05
6.25878e-06
7.77551e-06
4.80383e-05
9.27452e-05
5.78515e-05
3.52438e-05
2.60379e-05
2.4967e-05
3.45408e-05
6.58622e-05
0.000137217
0.000234225
0.000248509
0.000251756
0.000253792
0.00025464
0.00025444
0.000253285
0.000251165
0.000247964
0.000243482
0.000237465
0.000229664
0.000219953
0.000125098
3.5035e-05
1.05521e-05
7.59504e-06
2.25508e-05
5.22928e-05
6.65918e-05
6.24796e-05
5.80159e-05
7.27858e-05
7.27548e-05
5.80466e-06
6.80528e-06
3.70976e-05
9.77706e-05
0.00011872
0.000113041
7.39448e-05
4.51153e-05
3.52034e-05
3.48015e-05
3.99296e-05
5.00307e-05
6.66713e-05
9.32161e-05
0.000131298
0.000174456
0.000210955
0.000234386
0.000244915
0.000244662
0.000236056
0.000221271
0.000201604
0.000175195
0.000130439
6.85152e-05
2.73693e-05
1.22523e-05
1.02111e-05
1.53608e-05
2.22245e-05
3.09997e-05
4.56101e-05
6.07391e-05
2.40818e-05
2.68934e-06
7.76615e-06
4.54188e-05
0.000115686
0.000104648
7.6111e-05
5.60385e-05
4.48619e-05
3.97468e-05
4.03287e-05
4.66082e-05
5.81257e-05
7.50083e-05
9.91361e-05
0.000132266
0.000170248
0.000202806
0.000222491
0.000228637
0.000224155
0.000212585
0.000196802
0.000178394
0.000158191
0.00013777
0.000117576
9.21234e-05
6.09971e-05
3.90261e-05
2.87089e-05
2.44511e-05
2.38556e-05
2.8347e-05
4.06146e-05
2.88701e-05
1.87821e-06
7.01435e-06
4.26165e-05
0.000125169
0.000145618
0.000142141
0.000121649
8.56305e-05
5.47166e-05
3.80271e-05
3.11e-05
3.07912e-05
3.75573e-05
5.46829e-05
8.65528e-05
0.000131411
0.000175614
0.000206811
0.000223187
0.00022789
0.000224807
0.000216547
0.000204341
0.000189097
0.000171597
0.000152712
0.00013397
0.000115739
9.64998e-05
7.66628e-05
5.9544e-05
4.72099e-05
3.97227e-05
3.96918e-05
6.54397e-05
2.43797e-06
7.03473e-06
3.55683e-05
0.000108268
0.000141562
0.000121962
0.000100371
9.48088e-05
9.63362e-05
8.19465e-05
5.68945e-05
4.02691e-05
3.32556e-05
3.43103e-05
4.48402e-05
6.98746e-05
0.000116095
0.000179348
0.000233118
0.000235761
0.000237016
0.000237812
0.000238113
0.000237915
0.000236443
0.00021632
0.000192833
0.000170835
0.000152983
0.000137717
0.000117078
7.77991e-05
3.74243e-05
2.41591e-05
3.42204e-05
3.59037e-06
7.68375e-06
4.64161e-05
0.000129752
0.000120675
9.28876e-05
7.40853e-05
6.97414e-05
7.73898e-05
8.83927e-05
8.40868e-05
6.31754e-05
4.61007e-05
4.03814e-05
4.74989e-05
7.31083e-05
0.000125558
0.000195098
0.000228368
0.000230303
0.000231827
0.000232839
0.000233291
0.000233176
0.000232509
0.000231322
0.000229686
0.000206972
0.000181183
0.000142018
7.55791e-05
3.33013e-05
2.03229e-05
2.24305e-05
5.55203e-05
4.97729e-06
7.17845e-06
3.65399e-05
0.000108305
0.000139214
0.000125004
9.61178e-05
8.03896e-05
8.31572e-05
9.75905e-05
0.00010584
8.86741e-05
5.93522e-05
4.02077e-05
3.39596e-05
4.04102e-05
6.56647e-05
0.000122572
0.000206288
0.000223125
0.000224738
0.000225892
0.000226464
0.000226392
0.000225658
0.000224275
0.000222291
0.000219813
0.000165648
7.19483e-05
2.91093e-05
1.68465e-05
1.79839e-05
3.31117e-05
9.64869e-05
5.45994e-06
8.09692e-06
5.04219e-05
0.000126319
0.00011306
8.14016e-05
5.92442e-05
5.22337e-05
5.9262e-05
8.24533e-05
0.000119481
0.000145061
0.000125431
7.8759e-05
5.17421e-05
4.73458e-05
6.49475e-05
0.00011586
0.000200187
0.000219324
0.000220729
0.000221794
0.000222297
0.000222111
0.000221166
0.000219435
0.000216921
0.000181688
7.67241e-05
3.26002e-05
1.68579e-05
1.32826e-05
2.09155e-05
5.08329e-05
4.7444e-05
4.68342e-06
7.63746e-06
4.62424e-05
0.000128283
0.000139253
0.000123194
0.000102415
8.83153e-05
8.38352e-05
8.84525e-05
9.94948e-05
0.000109902
0.000108302
8.72801e-05
5.93815e-05
4.29787e-05
4.18902e-05
5.9013e-05
0.000102182
0.000168336
0.0002155
0.000216932
0.000218019
0.000218541
0.000218354
0.000217367
0.000215538
0.000143596
7.05521e-05
3.35325e-05
1.75447e-05
1.24763e-05
1.78132e-05
4.50155e-05
3.13246e-05
3.73001e-06
7.94639e-06
5.01221e-05
0.000124746
0.000117577
8.83724e-05
6.43663e-05
5.43298e-05
5.6263e-05
6.93796e-05
9.4542e-05
0.000128162
0.000155661
0.000156234
0.000118647
7.40481e-05
5.26583e-05
5.32907e-05
7.65625e-05
0.000124072
0.000175806
0.000207021
0.000215306
0.000216404
0.000217114
0.000208843
0.000178896
0.000136824
9.07346e-05
5.20061e-05
2.83199e-05
1.76717e-05
1.72001e-05
3.28271e-05
3.52043e-05
3.35993e-06
7.53821e-06
4.65634e-05
0.000124555
0.000135476
0.000129152
0.000114261
9.2678e-05
7.49497e-05
6.82409e-05
7.25316e-05
8.5946e-05
0.000104805
0.000121019
0.000121786
9.83732e-05
6.74402e-05
5.12619e-05
5.34431e-05
7.60133e-05
0.000119482
0.000167442
0.000197355
0.000205485
0.000199874
0.000186215
0.00016632
0.000141029
0.000110707
7.71338e-05
4.70928e-05
2.79885e-05
2.09769e-05
2.83243e-05
6.046e-05
3.49662e-06
7.63191e-06
4.6943e-05
0.000129184
0.000133371
0.000112326
8.6575e-05
6.71052e-05
5.67974e-05
5.51166e-05
6.22814e-05
7.94672e-05
0.000106271
0.000135564
0.000151734
0.000140042
0.000104784
7.47124e-05
6.5943e-05
8.20966e-05
0.000128835
0.000190821
0.000209056
0.000209519
0.000208352
0.000181416
0.000152404
0.000127558
0.000105102
8.15066e-05
5.63166e-05
3.54139e-05
2.53235e-05
3.10666e-05
7.78699e-05
3.84997e-06
7.69392e-06
5.21339e-05
0.000146365
0.000150336
0.000135787
0.000118973
0.000100449
8.15762e-05
6.83196e-05
6.42004e-05
6.94569e-05
8.29928e-05
0.000101646
0.00011759
0.00011927
0.000102275
7.98068e-05
6.93229e-05
8.04167e-05
0.000124228
0.000193255
0.000206831
0.000206424
0.000206761
0.000167952
0.000127449
0.000100991
8.45845e-05
7.00712e-05
5.29169e-05
3.68779e-05
2.93097e-05
3.83798e-05
7.96404e-05
4.14528e-06
7.62017e-06
5.24482e-05
0.000147223
0.000135345
0.000103724
8.0822e-05
6.95005e-05
6.51665e-05
6.50253e-05
6.88942e-05
7.70901e-05
8.87801e-05
0.000100721
0.000107058
0.000103503
9.35776e-05
8.7637e-05
9.70933e-05
0.000133089
0.000189423
0.000207148
0.00020532
0.000204314
0.000175893
0.000126893
9.06772e-05
7.23226e-05
6.44236e-05
5.83233e-05
4.89013e-05
3.90138e-05
3.62735e-05
5.15352e-05
6.77169e-05
4.21228e-06
7.47116e-06
5.11107e-05
0.00013976
0.000132186
0.000106409
8.97067e-05
8.40417e-05
8.10222e-05
7.55667e-05
7.05144e-05
6.92007e-05
7.17085e-05
7.59994e-05
7.92461e-05
7.98456e-05
7.99964e-05
8.55931e-05
0.000103466
0.000136642
0.000174907
0.000198727
0.000199252
0.000177322
0.000138484
9.78719e-05
6.93971e-05
5.48775e-05
4.96336e-05
4.79434e-05
4.51386e-05
4.16432e-05
4.41338e-05
6.33947e-05
5.47703e-05
4.09406e-06
7.10835e-06
4.44239e-05
0.000128566
0.00012274
8.85249e-05
6.75703e-05
6.39552e-05
7.05623e-05
7.77868e-05
7.80832e-05
7.39149e-05
7.05793e-05
7.00047e-05
7.25385e-05
7.86669e-05
8.87856e-05
0.000102986
0.000121534
0.000143856
0.000165355
0.000177302
0.000172341
0.000149837
0.000116787
8.4155e-05
6.00348e-05
4.61577e-05
4.03369e-05
3.9458e-05
4.05458e-05
4.26225e-05
4.97901e-05
6.90167e-05
4.46702e-05
3.88353e-06
7.41983e-06
4.6223e-05
0.000133283
0.000131659
9.7024e-05
7.33036e-05
6.81745e-05
7.62515e-05
8.97898e-05
9.69412e-05
9.21695e-05
8.21041e-05
7.39239e-05
6.98873e-05
7.0024e-05
7.4229e-05
8.26299e-05
9.5372e-05
0.000111794
0.000128944
0.000141203
0.000143563
0.000134527
0.000115187
8.95232e-05
6.46617e-05
4.65996e-05
3.65303e-05
3.2743e-05
3.33598e-05
3.7655e-05
4.76315e-05
6.61267e-05
3.87528e-05