/*--------------------------------*- C++ -*----------------------------------*\
| =========                 |                                                 |
| \\      /  F ield         | OpenFOAM: The Open Source CFD Toolbox           |
|  \\    /   O peration     | Version:  v2006                                 |
|   \\  /    A nd           | Website:  www.openfoam.com                      |
|    \\/     M anipulation  |                                                 |
\*---------------------------------------------------------------------------*/
FoamFile
{
    version     2.0;
    format      ascii;
    class       volScalarField;
    location    "75";
    object      omega;
}
// * * * * * * * * * * * * * * * * * * * * * * * * * * * * * * * * * * * * * //

dimensions      [0 0 -1 0 0 0 0];


internalField   nonuniform List<scalar> 
78750
(
1473.95
194.128
118.365
56.3209
30.0581
20.9768
28.2087
23.9039
26.488
25.8836
26.1986
26.3487
26.5014
26.6461
26.7815
26.9063
27.0187
27.1183
27.2052
27.2774
27.3306
27.3587
27.3521
27.296
27.1695
26.9458
26.5894
26.0584
25.3365
24.5064
23.723
23.0916
22.5251
21.4373
472.079
537.005
20.4946
13.755
11.0383
8.70085
11.9175
11.0095
11.9043
12.043
12.3537
12.6215
12.8827
13.1361
13.3805
13.6137
13.8336
14.0389
14.2307
14.4125
14.5908
14.7746
14.9741
15.2057
15.4903
15.8557
16.3365
16.9456
17.6577
18.3766
18.9396
19.1942
19.0849
18.6198
17.395
698.86
422.679
13.2189
13.9386
13.5881
13.752
13.4419
13.4691
13.3928
13.3574
13.3076
13.2502
13.1855
13.1144
13.0374
12.9545
12.8643
12.7635
12.6467
12.5064
12.336
12.1285
11.8739
11.5716
11.2165
10.7999
10.3517
9.92978
9.5564
9.48409
10.3194
12.0529
14.0201
15.5092
15.7937
701.04
420.119
9.29601
10.0185
10.6988
11.2717
11.9739
12.5827
13.0888
13.4894
13.8055
14.0561
14.2575
14.4227
14.5633
14.6852
14.7902
14.8793
14.9529
15.0107
15.047
15.0523
15.0199
14.9477
14.8419
14.6919
14.4403
13.9702
12.973
10.8808
8.33677
8.12537
10.4552
13.1309
14.4622
703.789
420.524
11.4037
12.1082
12.3598
12.4939
12.5545
12.5858
12.6034
12.6057
12.5856
12.5395
12.47
12.3848
12.2947
12.2119
12.1453
12.1004
12.0796
12.0839
12.1117
12.1564
12.2255
12.3934
12.834
13.6189
14.4924
15.0513
15.0779
14.5367
13.6396
13.172
13.5826
14.5453
15.2843
708.03
422.354
11.1107
11.7746
12.2961
12.8075
13.3068
13.7643
14.1614
14.4908
14.7521
14.9464
15.0744
15.1367
15.1371
15.0828
14.9827
14.8447
14.6709
14.4546
14.1743
13.7658
13.0631
11.9873
11.1524
11.1126
11.9894
13.4645
14.8033
15.5622
15.6839
15.4829
15.3311
15.408
15.6295
707.936
421.987
11.5007
12.1138
12.3912
12.573
12.7103
12.8266
12.9358
13.045
13.1579
13.274
13.3891
13.498
13.5973
13.6839
13.7522
13.7972
13.8168
13.8108
13.7796
13.7208
13.6179
13.4119
13.0067
12.5797
12.535
13.1214
14.5125
16.0758
17.2105
17.6262
17.4243
17.1195
16.9924
709.882
422.533
11.3431
12.1652
12.7728
13.2807
13.6753
13.9443
14.095
14.1521
14.1489
14.1174
14.0808
14.0511
14.031
14.0178
14.0063
13.991
13.9665
13.9276
13.8696
13.7884
13.6811
13.5425
13.3566
13.0858
12.6995
12.2875
12.1505
12.7263
14.1594
15.8832
17.0601
17.2622
17.0813
709.014
422.765
12.144
12.796
13.1383
13.4236
13.6849
13.9119
14.0945
14.2333
14.3338
14.4025
14.4452
14.4669
14.4716
14.4627
14.4425
14.4118
14.3702
14.3163
14.2477
14.1607
14.0505
13.9104
13.7314
13.5012
13.2045
12.8312
12.4127
12.085
12.1923
13.1934
14.9242
16.311
16.6629
709.04
422.553
11.5446
12.3938
12.9335
13.3329
13.6071
13.7732
13.8601
13.9002
13.9216
13.943
13.973
14.0122
14.0571
14.1031
14.1457
14.1816
14.2082
14.2224
14.2213
14.2018
14.1607
14.094
13.9969
13.8627
13.685
13.4557
13.1628
12.8094
12.4311
12.1896
12.5728
13.9706
15.177
707.648
422.788
12.4253
13.2231
13.6944
14.0819
14.3874
14.5903
14.6908
14.7089
14.6717
14.6054
14.531
14.4628
14.4083
14.3703
14.3476
14.337
14.3339
14.3332
14.3299
14.3186
14.2945
14.2527
14.188
14.0946
13.9669
13.7977
13.578
13.2963
12.94
12.5145
12.1769
12.6937
14.2099
707.689
423.051
12.0745
12.8782
13.3701
13.7628
14.0659
14.2748
14.3938
14.4367
14.4229
14.373
14.3069
14.2403
14.1841
14.1439
14.1214
14.1161
14.1246
14.1428
14.1659
14.1883
14.204
14.2069
14.1915
14.153
14.0856
13.9814
13.8315
13.6259
13.3523
12.9878
12.5243
12.3421
13.4672
707.242
422.947
12.3982
13.2639
13.809
14.2566
14.6003
14.8224
14.9275
14.9373
14.8777
14.773
14.6443
14.5091
14.3815
14.2712
14.1836
14.1202
14.0808
14.0639
14.0663
14.0827
14.1063
14.1295
14.146
14.149
14.1297
14.0776
13.9812
13.8274
13.6014
13.2795
12.826
12.5426
13.5009
707.673
423.487
12.3058
13.1664
13.7273
14.1988
14.5741
14.8359
14.9825
15.0264
14.9869
14.885
14.7413
14.575
14.4038
14.242
14.0999
13.9831
13.8934
13.8317
13.7982
13.7915
13.8077
13.841
13.8843
13.9285
13.9625
13.9725
13.9433
13.8579
13.6973
13.4351
13.0161
12.6647
13.5156
708.05
423.14
12.3013
13.221
13.852
14.4004
14.8417
15.1488
15.3221
15.3806
15.3485
15.248
15.098
14.915
14.7136
14.5079
14.3099
14.1282
13.9684
13.8339
13.7285
13.656
13.6192
13.6192
13.6525
13.7102
13.7775
13.8363
13.866
13.8439
13.7458
13.537
13.1796
12.9773
13.9367
708.998
423.59
12.2803
13.2011
13.8587
14.4509
14.9477
15.3164
15.5496
15.6588
15.6634
15.5843
15.4408
15.2502
15.0277
14.7873
14.5421
14.3034
14.0795
13.8758
13.6957
13.5431
13.4257
13.3532
13.3328
13.3644
13.437
13.53
13.6175
13.6693
13.6534
13.5222
13.2236
13.1091
14.1796
709.726
423.01
12.0104
12.9462
13.6575
14.3341
14.9226
15.3753
15.683
15.8594
15.925
15.8993
15.7997
15.6413
15.4374
15.1998
14.9399
14.6685
14.3966
14.1329
13.8835
13.6524
13.4466
13.2779
13.1639
13.1206
13.151
13.2394
13.356
13.4653
13.5287
13.4946
13.34
13.5109
14.7282
710.806
423.456
12.0493
12.9657
13.6777
14.3603
14.9606
15.4357
15.7766
15.9938
16.1031
16.1203
16.0609
15.9389
15.7657
15.5508
15.3017
15.0264
14.7364
14.4423
14.1513
13.8681
13.5968
13.3437
13.1239
12.9634
12.8905
12.9158
13.0204
13.1635
13.2936
13.3439
13.2947
13.6928
15.0484
711.582
422.932
11.8434
12.8128
13.596
14.3538
15.014
15.5324
15.909
16.1612
16.3067
16.3608
16.337
16.2473
16.0996
15.8993
15.6544
15.3745
15.0697
14.7514
14.4323
14.1233
13.8229
13.5253
13.2367
12.9788
12.7892
12.7084
12.7516
12.8949
13.0856
13.255
13.4101
14.1013
15.5642
712.715
423.192
11.8868
12.8275
13.6069
14.3706
15.0383
15.5685
15.9648
16.2459
16.4284
16.5243
16.5441
16.4963
16.3867
16.2182
15.997
15.7313
15.4303
15.1044
14.7654
14.4267
14.0981
13.7738
13.4455
13.1209
12.8266
12.6128
12.5443
12.6413
12.8545
13.099
13.3837
14.2767
15.8416
713.51
422.802
11.7729
12.7756
13.6276
14.4498
15.1487
15.693
16.1002
16.3966
16.6013
16.7263
16.7804
16.7694
16.6955
16.5598
16.3656
16.1191
15.8279
15.5017
15.1515
14.7903
14.4327
14.083
13.7288
13.3619
12.9934
12.6581
12.4367
12.4286
12.6552
13.0361
13.5683
14.6872
16.305
714.564
422.77
11.7487
12.7479
13.6194
14.4619
15.17
15.7192
16.1351
16.447
16.6747
16.8296
16.9191
16.948
16.917
16.8249
16.6725
16.4626
16.2006
15.8938
15.5523
15.1879
14.8151
14.4482
14.0781
13.6867
13.2742
12.8551
12.4866
12.3085
12.449
12.874
13.5526
14.7942
16.4874
715.332
422.52
11.6984
12.7487
13.6874
14.5719
15.29
15.8362
16.2498
16.5653
16.8035
16.9752
17.0872
17.1435
17.144
17.0865
16.9698
16.7948
16.5642
16.2828
15.9586
15.6021
15.2271
14.8506
14.4687
14.0626
13.6249
13.155
12.6769
12.3192
12.3245
12.8007
13.7417
15.2213
16.9555
716.395
422.329
11.6069
12.678
13.6716
14.5895
15.3148
15.8614
16.2802
16.6081
16.8651
17.0611
17.2018
17.2905
17.3256
17.3045
17.2253
17.0875
16.8919
16.6416
16.3423
16.0029
15.6356
15.2567
14.8671
14.4509
13.9965
13.4944
12.9421
12.4226
12.2212
12.5802
13.538
15.1028
16.9848
717.255
422.14
11.5755
12.6842
13.7316
14.6567
15.3622
15.8903
16.301
16.6317
16.9005
17.1161
17.2842
17.4048
17.4743
17.4899
17.4489
17.3495
17.1914
16.9755
16.7059
16.3895
16.0367
15.6624
15.273
14.8553
14.3918
13.8689
13.273
12.6508
12.2993
12.6379
13.7759
15.5467
17.5137
718.573
421.924
11.5028
12.6432
13.7479
14.6808
15.3688
15.881
16.2852
16.6179
16.8968
17.1324
17.3287
17.4821
17.5875
17.6415
17.6411
17.5833
17.4661
17.2886
17.0527
16.763
16.4276
16.0593
15.6703
15.2489
14.7688
14.2125
13.5593
12.8308
12.2994
12.485
13.5834
15.361
17.4297
718.771
421.65
11.4451
12.6273
13.7707
14.6841
15.3405
15.8309
16.2241
16.5558
16.8435
17.097
17.3174
17.5
17.6406
17.7346
17.778
17.7673
17.6992
17.5705
17.3809
17.1322
16.8299
16.4835
16.1079
15.693
15.2084
14.6348
13.9524
13.1782
12.5859
12.7785
14.0284
15.8742
17.9031
719.524
421.423
11.5004
12.7295
13.8717
14.7308
15.3386
15.7977
16.1738
16.4982
16.7886
17.0522
17.2868
17.4888
17.6549
17.7812
17.8631
17.8962
17.8761
17.7983
17.6597
17.4597
17.2004
16.8885
16.5356
16.1303
15.6393
15.037
14.2955
13.4165
12.6514
12.6737
13.7656
15.5164
17.5329
718.42
421.114
11.6017
12.8792
13.9829
14.7741
15.3336
15.7653
16.1277
16.4481
16.7409
17.0097
17.2514
17.4639
17.6452
17.793
17.9039
17.9733
17.9966
17.9689
17.8861
17.7455
17.547
17.2944
16.9917
16.6255
16.1687
15.5991
14.8879
14.0126
13.1526
13.0933
14.3367
15.9859
17.7978
718.689
420.794
11.637
12.9394
13.9896
14.7407
15.2855
15.7163
16.084
16.4122
16.7139
16.9925
17.244
17.467
17.6606
17.8236
17.9536
18.0472
18.0992
18.1053
18.0613
17.9634
17.8106
17.6052
17.3472
17.0246
16.6177
16.1062
15.4543
14.6049
13.577
12.8933
13.6404
15.4174
17.4203
718.173
420.591
11.4031
12.6624
13.6937
14.4865
15.0876
15.5668
15.9721
16.328
16.65
16.9469
17.2182
17.461
17.6744
17.858
18.0106
18.1299
18.2115
18.2497
18.2399
18.177
18.058
17.8825
17.644
17.3295
16.9283
16.4256
15.7993
15.036
14.2443
13.899
14.5539
15.9645
17.7074
718.346
421.256
10.7358
11.5661
12.4025
13.3447
14.2591
15.0106
15.6012
16.0802
16.4798
16.8235
17.1322
17.4129
17.6627
17.8818
18.0708
18.2291
18.3543
18.4411
18.4835
18.4746
18.4069
18.2756
18.0744
17.7916
17.4144
16.9212
16.2669
15.3689
14.2016
13.3309
13.8984
15.5453
17.5125
718.577
423.189
11.3652
11.5993
11.524
11.5235
12.1234
13.3867
14.5545
15.4054
16.0448
16.5415
16.9367
17.2722
17.567
17.823
18.0439
18.2329
18.3914
18.5179
18.6082
18.655
18.651
18.5874
18.4516
18.2276
17.9071
17.4841
16.941
16.2329
15.3222
14.4936
14.6869
16.006
17.7798
718.245
427.32
13.6536
13.9682
13.792
13.1048
11.7342
11.2287
12.5363
14.0765
15.2067
16.0193
16.63
17.099
17.4791
17.7957
18.06
18.2807
18.4636
18.611
18.7222
18.7915
18.8091
18.7634
18.6366
18.399
18.0207
17.4826
16.7672
15.8583
14.8266
14.1281
14.5784
15.8911
17.5801
717.711
434.012
15.0029
15.0748
14.916
14.5084
13.4072
12.0972
13.1044
14.5673
15.3891
16.0477
16.6456
17.1573
17.5884
17.9525
18.2624
18.5282
18.7569
18.9526
19.1173
19.2488
19.3403
19.3798
19.3523
19.2352
18.9947
18.6003
18.0143
17.1667
16.0073
14.8875
14.8558
15.9541
17.5199
716.904
435.524
14.1552
13.651
12.8235
12.3771
13.3389
14.2421
14.7037
15.2562
15.8016
16.313
16.7898
17.2165
17.5938
17.927
18.2217
18.4832
18.7141
18.9148
19.0841
19.2183
19.3117
19.3586
19.3403
19.2163
18.9348
18.4526
17.7537
16.8404
15.7478
14.7826
14.8118
15.8747
17.3286
715.278
426.388
13.1901
13.8352
14.3509
14.5461
14.6624
14.9184
15.1723
15.4333
15.7265
16.0482
16.3922
16.7528
17.1219
17.4897
17.853
18.2112
18.5542
18.8684
19.143
19.3734
19.551
19.6691
19.7234
19.7004
19.5669
19.2774
18.7922
18.1011
17.2284
16.2823
15.7084
15.9652
16.8544
713.568
427.013
14.3218
14.7737
14.5427
14.2968
14.3204
14.5309
14.8085
15.0738
15.3027
15.5
15.6838
15.8773
16.1043
16.3864
16.7344
17.1437
17.5954
18.0615
18.5188
18.9505
19.3349
19.6384
19.8273
19.8694
19.7304
19.3617
18.707
17.7513
16.6435
15.7793
15.6206
16.2114
17.2804
713.713
430.371
15.0192
15.4564
15.3055
14.9101
14.5915
14.4196
14.378
14.4351
14.5596
14.7242
14.9069
15.0897
15.2608
15.4189
15.5804
15.7798
16.0579
16.4382
16.9172
17.4741
18.0725
18.6582
19.1606
19.5092
19.6363
19.539
19.1953
18.5931
17.772
16.9158
16.3263
16.1399
16.3467
709.156
428.492
16.1976
16.475
16.5193
16.4229
16.1865
15.856
15.4817
15.0963
14.7293
14.4075
14.1524
13.983
13.9117
13.9349
14.0251
14.1323
14.2011
14.1828
14.064
13.9165
13.931
14.3328
15.1646
16.2387
17.2758
18.0216
18.2644
17.8981
16.9768
15.9034
15.4321
15.8015
16.5557
711.784
427.557
17.7416
18.1489
18.5794
18.689
18.6651
18.524
18.2585
17.8742
17.3804
16.785
16.0969
15.3274
14.4979
13.6516
12.8687
12.2956
12.1412
12.4968
13.2239
14.1427
15.0616
15.8184
16.5577
17.3824
18.2017
18.944
19.5682
20.0109
20.038
19.3391
18.0254
16.7861
16.3744
710.232
425.438
16.8973
18.1464
18.7972
19.2154
19.5014
19.7173
19.8827
19.9889
20.0166
19.9457
19.7551
19.417
18.8928
18.1371
17.1053
15.7603
14.1289
12.2689
10.0983
8.15249
7.98707
9.33475
11.2479
12.9136
14.6314
16.1571
17.5525
17.5469
16.6699
16.3705
16.4443
16.6005
17.2111
713.171
423.312
14.8529
16.5762
17.4096
17.8545
18.0977
18.2206
18.2737
18.3005
18.3479
18.4656
18.6962
19.0587
19.5316
20.0457
20.49
20.727
20.6135
20.0333
18.8501
17.0326
14.4413
12.0856
7.38448
5.96069
7.11184
5.37404
8.6665
13.2139
17.3787
18.6562
18.3045
17.4847
16.7708
705.657
444.931
20.0327
20.5725
20.6147
20.4759
20.2576
20.0078
19.7484
19.479
19.1981
18.9137
18.6511
18.4517
18.3637
18.4226
18.6292
18.9535
19.3518
19.7598
20.1376
20.2324
20.1131
20.1043
19.6646
18.67
17.177
14.9483
10.9453
8.01322
6.25603
8.04865
11.5981
13.5922
13.302
711.335
448.456
19.042
18.5998
18.1906
18.0207
18.1117
18.3752
18.6809
18.9297
19.0798
19.1097
19.006
18.7667
18.4037
17.9438
17.4304
16.9237
16.5802
16.709
17.0787
16.2551
10.9445
12.1759
14.5315
14.8726
12.8618
9.11941
4.90865
4.82409
7.79236
11.4571
14.4464
16.5872
18.8783
727.182
438.175
17.6516
18.4566
19.0121
19.4021
19.6517
19.8092
19.922
20.0041
20.0191
19.8941
19.5363
18.8421
17.7034
16.0271
13.7785
10.7288
6.63363
5.7591
4.55583
4.34795
6.57799
9.44593
12.8561
14.8522
15.6815
15.8099
16.0567
16.5143
17.1364
17.8222
18.3825
18.7903
19.1289
713.606
452.901
20.5195
20.3223
20.0755
19.7984
19.5789
19.5475
19.7379
20.057
20.3655
20.5635
20.6018
20.4253
19.9183
18.9724
17.7327
16.5823
15.456
13.8439
11.6872
9.36493
7.14355
5.25479
4.63735
6.17531
8.61881
10.7366
12.7656
14.3668
15.5875
16.2944
16.4876
16.0682
14.9797
698.785
451.113
18.7906
18.1789
17.7072
17.3893
17.3132
17.5442
17.9401
18.3359
18.6668
18.9323
19.143
19.2887
19.3368
19.2265
18.8486
18.1025
17.0426
15.8415
14.5799
13.2041
11.6505
9.95276
8.04639
5.9726
4.24279
5.92322
5.62838
5.87232
5.72707
7.94639
10.1847
11.7002
11.4808
698.036
443.004
18.8634
19.2573
19.4245
19.444
19.3085
19.0486
18.7137
18.3348
17.9499
17.6172
17.3982
17.3387
17.4388
17.6433
17.8668
18.0328
18.0842
17.9794
17.6887
17.2057
16.5456
15.7387
14.7852
13.6935
12.4939
11.2593
9.96595
8.53763
6.78326
5.14435
6.10336
5.23213
5.2256
698.451
447.276
19.3662
19.2009
18.9628
18.6705
18.5263
18.7022
19.0327
19.2385
19.195
18.8932
18.3673
17.7276
17.1571
16.7841
16.5863
16.4844
16.421
16.3641
16.2912
16.1818
16.0094
15.7325
15.3091
14.7349
14.0404
13.2719
12.5035
11.8106
11.208
10.5945
9.89286
9.65785
10.7692
704.631
453.152
19.6407
19.0215
18.4452
17.7531
17.2406
17.2085
17.6177
18.1375
18.5334
18.7727
18.8733
18.8389
18.666
18.4012
18.122
17.8601
17.6105
17.3594
17.0958
16.8117
16.4975
16.1361
15.7005
15.1551
14.4737
13.6491
12.7378
11.8905
11.2914
10.9814
10.9242
11.3473
12.2214
701.937
446.486
18.9818
18.9053
18.6854
18.3248
17.981
17.7543
17.5427
17.3407
17.2176
17.208
17.2979
17.44
17.591
17.7272
17.8337
17.8967
17.9114
17.8771
17.7916
17.6555
17.4724
17.2463
16.9802
16.6737
16.3286
15.9443
15.5547
15.1333
14.4471
13.43
12.2173
10.4842
9.2052
700.699
450.1
19.769
19.3878
18.9246
18.2967
17.7451
17.7782
18.1769
18.4361
18.4498
18.2846
18.0458
17.8332
17.6845
17.5868
17.5148
17.4476
17.3693
17.2674
17.133
16.9599
16.7412
16.4661
16.1228
15.739
15.4452
15.2401
14.5222
13.7241
14.1084
14.5162
14.2216
13.5702
14.2826
711.173
452.491
19.569
19.1214
18.5889
17.7413
16.751
16.0677
16.082
16.483
16.8775
17.188
17.4393
17.6301
17.7434
17.7842
17.7623
17.6837
17.5469
17.3438
17.061
16.6817
16.1893
15.5747
14.6818
12.975
9.99953
8.87671
11.9013
14.3293
15.5902
16.1809
16.2103
16.0607
16.2526
709.367
443.825
19.281
19.7059
19.842
19.7718
19.3579
18.5319
17.6193
16.9855
16.6845
16.6174
16.6859
16.8206
16.9684
17.0977
17.1963
17.26
17.2844
17.262
17.1807
17.0213
16.7542
16.3362
15.6941
14.6433
12.8748
10.6426
9.71405
10.5025
11.5447
12.5101
13.2234
13.6169
13.6322
700.188
450.503
20.0791
19.9939
19.8217
19.4812
18.9254
18.2499
17.5876
17.0826
16.8275
16.7856
16.8572
16.9623
17.0623
17.1437
17.2038
17.243
17.2608
17.2545
17.2198
17.1507
17.0388
16.8705
16.6222
16.2585
15.7223
14.9347
13.9321
12.9813
12.2643
11.8007
11.5551
11.5077
11.4817
697.826
444.846
19.2933
19.8636
20.2043
20.4166
20.4334
20.1026
19.2815
18.0931
16.9037
16.0808
15.7919
15.9101
16.1835
16.449
16.6589
16.8158
16.9296
17.0059
17.0469
17.0532
17.0248
16.961
16.8597
16.7165
16.5249
16.2736
15.9493
15.5443
15.0634
14.5224
13.927
13.2119
12.5918
699.695
445.181
19.7391
20.1226
20.2911
20.4219
20.5674
20.7042
20.6849
20.2705
19.3105
17.9815
16.7487
16.0253
15.8612
16.0001
16.201
16.3678
16.4947
16.5939
16.6682
16.7136
16.7282
16.7117
16.6649
16.5888
16.4824
16.3445
16.1763
15.9819
15.7594
15.47
14.986
14.309
13.8326
703.335
450.449
19.9186
19.9368
19.961
19.9663
19.9355
19.8728
19.773
19.5778
19.1591
18.3594
17.2271
16.1939
15.6912
15.673
15.8311
15.9931
16.1319
16.2512
16.343
16.4016
16.4246
16.4119
16.3645
16.2842
16.175
16.0422
15.8866
15.6921
15.3772
14.7522
14.4487
14.6419
14.9779
707.4
447.365
19.8217
20.1469
20.3196
20.4528
20.5885
20.7395
20.8559
20.8343
20.5935
20.025
18.9629
17.4677
16.103
15.4435
15.3914
15.5369
15.6791
15.7975
15.8971
15.9661
15.9979
15.9888
15.938
15.8463
15.7167
15.556
15.344
14.9749
14.1888
13.49
14.0376
14.897
15.5075
708.587
454.105
20.3892
20.1741
20.0746
19.9824
19.8516
19.7026
19.6057
19.5514
19.4691
19.2965
18.928
18.1437
16.9095
15.8362
15.397
15.3743
15.4585
15.553
15.6427
15.709
15.7392
15.726
15.6656
15.5567
15.3997
15.1794
14.7999
14.0244
12.8673
12.2388
13.1868
14.144
14.75
706.221
450.467
19.6686
19.8239
20.021
20.2318
20.4361
20.5952
20.6674
20.6347
20.4926
20.2368
19.8404
19.2084
18.1577
16.7325
15.5755
15.125
15.1103
15.2092
15.3132
15.4042
15.4728
15.5061
15.4958
15.4369
15.3274
15.1402
14.7821
14.0923
12.9684
11.8588
11.9506
12.6766
13.2927
703.47
452.417
19.9682
19.864
19.8259
19.7605
19.6404
19.5168
19.4766
19.522
19.5785
19.5814
19.4986
19.2936
18.8628
17.9881
16.6982
15.6392
15.1778
15.0925
15.1371
15.215
15.2966
15.3668
15.4128
15.4252
15.3948
15.3039
15.1142
14.7434
14.0585
13.0411
12.2129
12.1527
12.5229
702.439
449.035
19.5276
19.8235
20.0746
20.2585
20.3335
20.2843
20.1592
20.0577
20.0127
19.9678
19.8658
19.6794
19.3767
18.8619
17.9311
16.6193
15.542
15.0388
14.9156
14.9396
15.0104
15.0944
15.1776
15.2486
15.2962
15.3073
15.2626
15.1264
14.8264
14.2523
13.4175
12.8065
12.8546
702.889
449.772
19.8933
20.0779
20.1921
20.2147
20.0893
19.7818
19.3723
19.0597
18.9693
19.0259
19.0899
19.0816
18.9689
18.7108
18.2006
17.2838
16.1623
15.3663
15.0113
14.8967
14.8799
14.9136
14.9756
15.0528
15.1384
15.2171
15.2634
15.243
15.1055
14.7632
14.1418
13.5215
13.4957
703.958
450.227
19.8622
20.1193
20.3712
20.5881
20.6845
20.5613
20.1709
19.6382
19.2227
19.0307
18.9642
18.9009
18.7716
18.5306
18.1062
17.3853
16.389
15.5051
15.0197
14.8173
14.732
14.7109
14.735
14.7934
14.893
15.0289
15.1606
15.2288
15.1726
14.9182
14.4317
13.9674
13.975
704.824
450.136
19.611
19.7111
19.8532
19.9953
20.0461
19.8769
19.4394
18.858
18.3612
18.0784
17.9555
17.8721
17.7352
17.4785
17.0444
16.4182
15.73
15.2179
14.929
14.7539
14.6414
14.5802
14.5614
14.5867
14.6807
14.852
15.0454
15.1692
15.148
14.9329
14.5428
14.2024
14.1864
705.012
448.921
19.4246
19.6467
19.8906
20.163
20.3867
20.4184
20.1425
19.5566
18.808
18.1246
17.6326
17.2984
17.0187
16.6983
16.2855
15.8031
15.3554
15.0295
14.8112
14.6533
14.5291
14.4303
14.3564
14.3195
14.355
14.498
14.7222
14.9188
14.9785
14.8497
14.5642
14.2884
14.1967
704.66
446.005
19.022
19.2927
19.4996
19.729
19.9865
20.1708
20.1358
19.8037
19.1785
18.3542
17.5093
16.8002
16.2779
15.9074
15.6256
15.3833
15.1626
14.9652
14.7925
14.6383
14.494
14.3531
14.2151
14.0911
14.0144
14.039
14.1958
14.4195
14.5779
14.573
14.4057
14.1891
14.043
704.03
447.745
19.464
19.713
19.9303
20.187
20.5089
20.8449
21.0708
21.0676
20.7814
20.1978
19.348
18.347
17.3581
16.5215
15.9025
15.4837
15.2035
14.9997
14.8322
14.6792
14.5276
14.3688
14.1978
14.0143
13.8309
13.6864
13.6462
13.7423
13.909
14.0154
13.9812
13.852
13.7246
703.384
448.62
19.1496
19.2265
19.3705
19.596
19.9239
20.2939
20.6523
20.9335
21.074
21.0534
20.8395
20.3603
19.5641
18.507
17.3561
16.336
15.6113
15.1828
14.9425
14.7883
14.6584
14.5214
14.3614
14.1706
13.9468
13.699
13.4656
13.3124
13.2868
13.3468
13.38
13.3409
13.3035
702.989
450.237
19.3296
19.3448
19.4902
19.7631
20.1697
20.5578
20.8001
20.93
20.9961
21.0104
20.9704
20.8589
20.624
20.1544
19.3161
18.1267
16.8549
15.8546
15.2536
14.9397
14.7714
14.6597
14.5538
14.4236
14.2501
14.0222
13.7398
13.4269
13.1477
12.9728
12.903
12.8846
12.9513
702.94
446.793
18.683
18.7822
18.9
19.0762
19.4124
19.9054
20.3462
20.6026
20.7008
20.7002
20.6382
20.5305
20.3765
20.1519
19.7785
19.0919
18.0012
16.7753
15.8242
15.2625
14.966
14.8028
14.6972
14.6064
14.5
14.3518
14.1381
13.8432
13.4782
13.1077
12.833
12.7235
12.8315
703.122
448.732
19.4729
19.4999
19.5265
19.5616
19.6541
19.8932
20.2654
20.5863
20.7546
20.7845
20.7164
20.5765
20.375
20.1059
19.7395
19.2036
18.3878
17.3156
16.2992
15.5977
15.1994
14.978
14.8426
14.7481
14.6673
14.5737
14.4379
14.2278
13.9177
13.5185
13.1251
12.9047
12.9821
703.45
451.137
19.4948
19.2777
19.2015
19.2826
19.5877
19.9028
20.2112
20.4865
20.6528
20.7012
20.6553
20.5303
20.3252
20.0215
19.5799
18.947
18.1004
17.1395
16.29
15.7039
15.3513
15.1329
14.9813
14.8673
14.7771
14.6965
14.602
14.4592
14.2286
13.8899
13.5019
13.2417
13.2699
703.785
454.278
19.697
19.2496
19.0361
19.1373
19.7914
20.3692
20.651
20.766
20.7848
20.7305
20.6116
20.4265
20.1606
19.7833
19.2506
18.5387
17.7072
16.9062
16.2713
15.8326
15.5347
15.3144
15.1344
14.9801
14.8478
14.7356
14.6341
14.5182
14.3472
14.0865
13.7637
13.5188
13.4998
703.911
452.797
19.3004
18.8248
18.4933
18.404
19.1359
19.9735
20.4269
20.6152
20.6552
20.5943
20.4481
20.2157
19.883
19.4279
18.8425
18.1696
17.4994
16.9166
16.4554
16.1006
15.8163
15.5713
15.3474
15.1371
14.9399
14.7597
14.5999
14.4537
14.2947
14.0864
13.8303
13.6182
13.5664
703.739
452.948
19.5798
19.1253
18.742
18.3908
18.7372
19.4761
19.9973
20.2671
20.3694
20.3514
20.2304
20.0091
19.6814
19.2458
18.7235
18.1684
17.6439
17.1889
16.808
16.4845
16.1966
15.927
15.6648
15.4045
15.1446
14.8881
14.6415
14.4122
14.1984
13.982
13.754
13.5645
13.4948
703.408
452.127
19.2441
18.7316
18.2877
17.8663
18.1544
18.918
19.509
19.8409
19.9965
20.0268
19.9497
19.7685
19.4857
19.1156
18.6911
18.2574
17.8524
17.4916
17.171
16.8781
16.6001
16.3267
16.0504
15.7662
15.4711
15.1646
14.8493
14.5326
14.226
13.9387
13.6796
13.4841
13.4006
703.131
452.37
19.3363
18.83
18.3321
17.7267
17.8162
18.4856
19.0576
19.4007
19.579
19.6372
19.5932
19.4542
19.2306
18.9435
18.6241
18.3021
17.9957
17.7104
17.4427
17.1854
16.9315
16.6748
16.4092
16.1296
15.8318
15.5125
15.1694
14.8039
14.4254
14.055
13.7273
13.4923
13.3777
702.986
450.405
19.0517
18.6894
18.2721
17.6177
17.4696
18.0261
18.577
18.9298
19.1254
19.2057
19.1914
19.095
18.932
18.7233
18.4915
18.2541
18.0202
17.7921
17.5689
17.3477
17.1251
16.8965
16.6566
16.4003
16.1222
15.8172
15.48
15.1068
14.7003
14.2794
13.8898
13.6008
13.4385
702.958
448.667
19.0084
18.8063
18.5013
17.8351
17.2478
17.5284
18.0628
18.4524
18.6815
18.7927
18.8127
18.7584
18.6456
18.492
18.3142
18.125
17.9314
17.7368
17.5425
17.3487
17.1545
16.9561
16.7481
16.5248
16.2793
16.0048
15.6936
15.3388
14.938
14.5035
14.0794
13.7442
13.5301
703.004
448.164
19.1166
18.9563
18.7132
18.1654
17.3249
17.1955
17.6522
18.0773
18.3438
18.4872
18.5397
18.5197
18.4416
18.3197
18.1667
17.993
17.8076
17.6161
17.4217
17.2284
17.0397
16.8548
16.6697
16.4776
16.2695
16.0352
15.764
15.4454
15.0726
14.6512
14.2183
13.8535
13.5967
703.071
450.536
19.3624
18.9827
18.6499
18.2455
17.5786
17.2173
17.5417
17.9513
18.2204
18.3669
18.4292
18.4276
18.3692
18.261
18.1123
17.933
17.7331
17.5219
17.3083
17.0957
16.8831
16.6748
16.4764
16.2869
16.0984
15.8982
15.6706
15.3992
15.0707
14.6831
14.2645
13.8904
13.61
703.104
452.59
19.2276
18.4583
17.9081
17.7562
17.5864
17.4903
17.8036
18.1342
18.3303
18.4321
18.4747
18.4673
18.4091
18.3032
18.1549
17.971
17.7593
17.5276
17.285
17.0415
16.7962
16.5467
16.3013
16.0701
15.856
15.6528
15.4454
15.2126
14.9323
14.5925
14.2106
13.8535
13.5757
703.053
451.481
18.5344
17.54
16.9938
17.329
17.6259
17.8845
18.1879
18.3989
18.5203
18.5835
18.6029
18.5809
18.5168
18.4112
18.2662
18.0856
17.8739
17.6365
17.38
17.1137
16.8395
16.5532
16.2583
15.9667
15.6904
15.4354
15.1983
14.9644
14.71
14.4139
14.081
13.7645
13.512
702.888
447.092
17.3153
16.4202
16.3517
17.1551
17.6672
18.0351
18.3001
18.4774
18.5911
18.6562
18.6795
18.6635
18.6096
18.5186
18.3909
18.2281
18.0331
17.8092
17.5611
17.2948
17.0095
16.7024
16.3771
16.0413
15.7057
15.3816
15.0768
14.7917
14.5155
14.2306
13.9338
13.6609
13.4374
702.638
443.199
16.72
15.9533
15.6649
16.4948
17.1668
17.6456
17.9882
18.2334
18.4065
18.5232
18.5917
18.6163
18.6002
18.5456
18.4547
18.3294
18.1714
17.9822
17.7628
17.5151
17.2397
16.937
16.6089
16.2594
15.895
15.5241
15.1564
14.8014
14.4642
14.1441
13.8441
13.5882
13.3726
702.387
441.79
16.9061
16.2558
15.1514
15.072
15.8475
16.6152
17.1859
17.6003
17.9051
18.1266
18.2813
18.3814
18.4328
18.4396
18.4054
18.3327
18.2237
18.0796
17.9014
17.6896
17.4452
17.1689
16.8619
16.5261
16.1648
15.7824
15.3849
14.981
14.5822
14.2027
13.8613
13.5848
13.3494
702.234
441.199
17.2963
17.0438
16.274
14.7792
14.3289
15.02
15.897
16.5812
17.0841
17.4596
17.7406
17.9458
18.0864
18.1716
18.2085
18.2009
18.1517
18.0628
17.9356
17.7706
17.569
17.3319
17.0602
16.755
16.4176
16.0499
15.6539
15.234
14.7993
14.3683
13.973
13.6532
13.3807
702.24
440.22
17.5306
17.7557
17.6299
16.6657
14.8232
13.8905
14.3622
15.2712
16.0305
16.5896
17.0105
17.3328
17.5765
17.7533
17.8713
17.9357
17.9524
17.9247
17.8539
17.7413
17.5885
17.3969
17.1675
16.901
16.5981
16.2589
15.8834
15.4722
15.0297
14.572
14.1356
13.7738
13.467
702.418
439.738
17.5553
18.0367
18.298
18.2882
17.3354
15.3027
13.8638
13.9411
14.7708
15.5547
16.1424
16.5887
16.9371
17.2076
17.4108
17.5539
17.6423
17.6788
17.6672
17.6096
17.5083
17.3648
17.1805
16.956
16.6916
16.3868
16.0405
15.6509
15.219
14.7567
14.2999
13.911
13.5853
702.727
439.718
17.4222
17.9305
18.3706
18.7725
18.9196
18.1766
16.207
14.2999
13.7848
14.3853
15.1439
15.7432
16.205
16.5715
16.8614
17.0843
17.246
17.3503
17.3999
17.3988
17.35
17.2556
17.1172
16.9356
16.7111
16.4429
16.1293
15.7675
15.3564
14.9044
14.4459
14.0488
13.7249
703.136
440.789
17.4166
17.7549
18.1701
18.7771
19.3191
19.5385
19.0584
17.3712
15.1499
13.9736
14.1999
14.8566
15.4341
15.8933
16.2656
16.5648
16.7969
16.9662
17.077
17.1326
17.1363
17.0908
16.998
16.859
16.6741
16.4426
16.1626
15.8308
15.445
15.0118
14.5642
14.1737
13.8681
703.597
442.95
17.4757
17.5009
17.7954
18.5429
19.3573
19.8629
20.0061
19.6723
18.3062
16.0065
14.4425
14.3379
14.8219
15.3142
15.7259
16.0707
16.3539
16.5757
16.7381
16.8438
16.8954
16.8951
16.8449
16.7461
16.5991
16.4032
16.1563
15.855
15.4966
15.087
14.6591
14.2864
14.0109
704.079
446.059
17.5618
17.1533
17.3342
18.3612
19.4271
20.0671
20.3027
20.24
19.8092
18.4761
16.2608
14.8632
14.7311
15.064
15.4229
15.7403
16.0193
16.2556
16.4431
16.5799
16.6649
16.6987
16.6824
16.6168
16.5023
16.3379
16.1213
15.8489
15.5178
15.1342
14.7311
14.383
14.1436
704.52
447.89
17.3337
16.494
16.5467
17.9738
19.3236
20.0642
20.3637
20.3608
20.0683
19.3016
17.6779
15.9232
15.2078
15.2456
15.4599
15.6816
15.896
16.0934
16.2618
16.3951
16.4873
16.5349
16.5365
16.4917
16.3997
16.2593
16.0675
15.8204
15.5152
15.1587
14.7843
14.464
14.263
704.846
447.714
17.1113
16.11
15.7319
16.9952
18.5089
19.405
19.8417
19.9493
19.7266
19.0564
17.8121
16.4284
15.7653
15.6848
15.7618
15.8728
15.9978
16.1227
16.2359
16.3291
16.3957
16.43
16.4277
16.3862
16.3031
16.1757
16.0003
15.7725
15.4897
15.1593
14.8146
14.5228
14.3495
704.98
445.766
17.0346
16.1824
15.1813
15.2638
16.7259
17.8815
18.5229
18.7388
18.5194
17.8643
17.0377
16.4588
16.2258
16.1653
16.1665
16.1951
16.2385
16.2872
16.3327
16.3683
16.3886
16.3884
16.363
16.3082
16.2203
16.095
15.9276
15.713
15.4487
15.1427
14.8269
14.5606
14.3942
704.889
443.683
17.2167
16.679
15.6609
14.3231
14.7127
15.8738
16.6936
17.0577
17.0985
16.9787
16.807
16.6625
16.5749
16.5273
16.5009
16.4862
16.4772
16.4689
16.4573
16.4399
16.4136
16.3748
16.3195
16.2437
16.1431
16.0128
15.8473
15.6411
15.392
15.1076
14.8169
14.5675
14.3898
704.587
442.466
17.409
17.1539
16.737
15.6672
14.2901
14.1719
14.9522
15.7429
16.235
16.475
16.5734
16.6124
16.6283
16.6332
16.6293
16.6158
16.5921
16.56
16.5203
16.4729
16.4171
16.3513
16.2732
16.1799
16.0673
15.931
15.7655
15.5655
15.3289
15.0629
14.7914
14.55
14.346
704.218
445.107
17.6434
17.0599
16.9528
17.4216
16.9796
15.5024
14.1491
13.9366
14.6477
15.3868
15.8813
16.1848
16.3683
16.4778
16.5378
16.5627
16.5614
16.5395
16.5008
16.4479
16.3822
16.3045
16.2145
16.1107
15.9906
15.8504
15.6853
15.4905
15.264
15.0116
14.7523
14.5112
14.2779
703.933
450.204
17.6282
16.149
15.4103
16.6184
17.8013
17.9198
16.8687
14.9632
13.9332
14.3153
15.0015
15.5264
15.8841
16.1272
16.2884
16.3873
16.4377
16.4496
16.4307
16.3874
16.3242
16.2444
16.1497
16.0406
15.916
15.7733
15.6089
15.4186
15.2006
14.9593
14.7088
14.4669
14.215
703.791
449.156
16.7144
15.2332
14.3555
15.2574
16.5223
17.1257
17.0425
16.0176
14.6696
14.561
15.0513
15.4335
15.7107
15.9346
16.1093
16.2311
16.3047
16.338
16.3372
16.3066
16.2505
16.173
16.0774
15.9658
15.8384
15.6939
15.5295
15.342
15.1295
14.8953
14.6505
14.4084
14.1478
703.645
442.559
16.1049
15.3429
14.1705
13.4529
14.2005
15.0328
15.2859
15.0473
14.8356
15.0834
15.3736
15.6024
15.7917
15.9497
16.0751
16.1659
16.2234
16.2494
16.2459
16.215
16.1594
16.0821
15.986
15.8734
15.7453
15.601
15.4386
15.2554
15.0494
14.8228
14.5847
14.345
14.0738
703.339
441.383
17.6089
17.2107
15.5889
12.6565
11.56
12.5402
13.6188
14.342
14.7821
15.1106
15.3755
15.589
15.7623
15.9003
16.0045
16.0782
16.1233
16.1413
16.1333
16.1004
16.0444
15.9672
15.8713