/*--------------------------------*- C++ -*----------------------------------*\
| =========                 |                                                 |
| \\      /  F ield         | OpenFOAM: The Open Source CFD Toolbox           |
|  \\    /   O peration     | Version:  v2006                                 |
|   \\  /    A nd           | Website:  www.openfoam.com                      |
|    \\/     M anipulation  |                                                 |
\*---------------------------------------------------------------------------*/
FoamFile
{
    version     2.0;
    format      ascii;
    class       volScalarField;
    location    "75";
    object      T;
}
// * * * * * * * * * * * * * * * * * * * * * * * * * * * * * * * * * * * * * //

dimensions      [0 0 0 1 0 0 0];


internalField   nonuniform List<scalar> 
78750
(
315.568
316.615
317.4
318.443
318.946
318.734
318.78
318.565
318.398
318.167
317.906
317.609
317.275
316.894
316.461
315.969
315.411
314.772
314.023
313.136
312.084
310.83
309.33
307.535
305.391
302.869
299.956
296.676
293.271
290.52
289.555
291.486
297.522
314.193
398.571
304.668
310.156
314.077
317.68
320.831
322.948
324.016
324.753
325.238
325.569
325.793
325.94
326.031
326.078
326.087
326.057
325.987
325.877
325.722
325.517
325.255
324.928
324.527
324.04
323.447
322.735
321.852
320.769
319.557
318.549
318.417
319.996
324.466
337.991
403.933
307.538
316.276
319.138
320.456
321.364
322.254
323.191
324.051
324.767
325.325
325.74
326.033
326.224
326.325
326.349
326.304
326.191
326.008
325.748
325.407
324.974
324.439
323.795
323.034
322.142
321.125
320.017
318.783
317.46
316.658
317.205
319.34
324.814
340.3
399.555
306.609
314.874
318.966
321.123
322.901
324.695
326.213
327.403
328.318
329.017
329.546
329.939
330.222
330.414
330.522
330.547
330.491
330.355
330.132
329.799
329.332
328.705
327.918
327.024
326.073
325.025
323.715
321.727
318.155
313.191
308.734
305.646
308.335
328.452
400.111
306.111
312.994
316.173
318.121
319.686
321.105
322.412
323.576
324.567
325.383
326.037
326.543
326.918
327.173
327.32
327.368
327.317
327.164
326.9
326.519
326.018
325.343
324.421
323.424
322.912
323.203
323.719
323.516
321.922
318.86
316.237
317.135
326.542
348.995
405.827
307.875
317.211
321.41
323.892
325.84
327.462
328.777
329.814
330.627
331.276
331.812
332.271
332.679
333.055
333.41
333.746
334.059
334.334
334.537
334.609
334.397
333.42
330.773
327.085
323.929
322.015
322.083
323.667
324.876
324.333
322.981
324.559
335.881
356.6
402.609
307.7
315.639
319.004
321.034
322.741
324.337
325.787
327.011
327.993
328.767
329.376
329.857
330.239
330.551
330.811
331.029
331.208
331.353
331.469
331.552
331.592
331.555
331.313
330.49
329.008
327.706
327.31
329.252
334.033
340.243
346.553
353.292
363.623
379.828
416.862
308.286
317.67
321.831
324.302
326.179
327.645
328.77
329.629
330.297
330.838
331.298
331.706
332.074
332.405
332.701
332.963
333.191
333.387
333.553
333.689
333.795
333.869
333.903
333.869
333.682
333.174
332.303
331.495
332.128
336.409
345.633
358.953
373.742
390.872
427.035
309.619
318.591
321.95
323.981
325.781
327.469
328.928
330.089
330.974
331.643
332.159
332.568
332.905
333.194
333.449
333.683
333.901
334.107
334.303
334.485
334.652
334.795
334.908
334.977
334.984
334.9
334.709
334.473
334.562
336.274
342.724
357.73
380.481
401.124
435.736
309.39
318.952
322.845
325.111
326.856
328.253
329.378
330.288
331.029
331.637
332.139
332.561
332.926
333.249
333.543
333.817
334.077
334.328
334.572
334.811
335.043
335.267
335.478
335.671
335.837
335.963
336.038
336.054
336.053
336.262
337.697
343.912
361.462
387.498
435.247
310.466
319.298
322.768
324.988
326.952
328.718
330.21
331.395
332.298
332.973
333.477
333.858
334.155
334.401
334.617
334.82
335.021
335.227
335.441
335.666
335.9
336.143
336.392
336.646
336.902
337.157
337.409
337.662
337.943
338.353
339.33
342.843
355.732
383.387
437.547
310.48
320.193
323.798
325.922
327.664
329.15
330.399
331.424
332.251
332.91
333.434
333.851
334.189
334.471
334.717
334.943
335.162
335.384
335.615
335.861
336.122
336.399
336.689
336.993
337.309
337.637
337.976
338.33
338.709
339.164
339.907
342.014
350.972
377.505
437.243
311.18
320.1
323.735
326.117
328.203
330.031
331.546
332.733
333.629
334.291
334.777
335.131
335.391
335.588
335.747
335.887
336.024
336.174
336.346
336.547
336.782
337.053
337.357
337.696
338.068
338.476
338.925
339.425
340.006
340.751
341.949
344.846
354.902
381.276
439.182
310.994
320.579
324.245
326.506
328.428
330.102
331.521
332.688
333.625
334.364
334.938
335.378
335.71
335.958
336.146
336.294
336.421
336.544
336.679
336.84
337.04
337.288
337.586
337.937
338.34
338.797
339.313
339.899
340.584
341.444
342.757
345.771
356.178
382.872
440.18
311.704
320.875
324.611
327.084
329.256
331.141
332.689
333.902
334.829
335.529
336.054
336.446
336.737
336.948
337.1
337.21
337.294
337.367
337.444
337.541
337.677
337.868
338.128
338.468
338.89
339.398
340
340.717
341.596
342.766
344.643
348.875
361.507
388.21
441.509
311.663
321.191
324.931
327.341
329.45
331.292
332.836
334.088
335.083
335.864
336.471
336.939
337.294
337.558
337.749
337.883
337.973
338.035
338.083
338.132
338.199
338.308
338.484
338.754
339.136
339.639
340.274
341.06
342.048
343.385
345.573
350.604
365.192
392.219
442.468
311.86
320.98
324.778
327.383
329.735
331.779
333.445
334.749
335.759
336.542
337.153
337.631
338.005
338.295
338.516
338.679
338.795
338.874
338.926
338.964
339
339.057
339.161
339.35
339.668
340.15
340.822
341.714
342.901
344.599
347.512
354.16
371.296
397.468
442.754
312.1
321.539
325.423
328.058
330.405
332.422
334.056
335.336
336.331
337.107
337.716
338.2
338.585
338.893
339.139
339.333
339.484
339.596
339.675
339.729
339.768
339.804
339.856
339.959
340.163
340.536
341.143
342.043
343.324
345.236
348.631
356.528
375.845
401.361
443.113
312.303
321.45
325.422
328.253
330.804
332.961
334.662
335.964
336.959
337.729
338.333
338.813
339.198
339.515
339.781
340.002
340.182
340.325
340.435
340.518
340.581
340.633
340.689
340.772
340.925
341.223
341.767
342.677
344.105
346.385
350.567
359.945
380.547
404.961
443.752
312.834
322.051
326.04
328.916
331.509
333.672
335.354
336.629
337.599
338.35
338.942
339.415
339.798
340.119
340.394
340.627
340.824
340.988
341.123
341.232
341.32
341.395
341.468
341.554
341.687
341.927
342.388
343.243
344.723
347.245
352.024
362.597
384.143
407.953
445.108
313.169
322.167
326.246
329.309
332.054
334.286
335.979
337.244
338.203
338.946
339.534
340.007
340.396
340.728
341.015
341.262
341.473
341.653
341.807
341.938
342.05
342.15
342.244
342.349
342.492
342.723
343.149
343.976
345.541
348.419
353.954
365.539
386.996
410.109
446.315
313.815
322.703
326.783
329.938
332.761
335.006
336.671
337.898
338.826
339.548
340.122
340.589
340.979
341.316
341.61
341.865
342.087
342.28
342.449
342.598
342.731
342.853
342.97
343.095
343.255
343.494
343.907
344.703
346.296
349.458
355.831
368.756
390.503
413.345
448.988
314.337
322.991
327.143
330.494
333.446
335.718
337.361
338.559
339.462
340.168
340.733
341.197
341.59
341.932
342.23
342.49
342.718
342.917
343.095
343.254
343.4
343.538
343.671
343.813
343.989
344.241
344.652
345.419
346.966
350.125
356.638
369.746
390.974
413.382
448.935
314.936
323.361
327.572
331.13
334.202
336.478
338.08
339.237
340.112
340.8
341.357
341.823
342.224
342.574
342.879
343.145
343.377
343.582
343.764
343.93
344.084
344.232
344.378
344.536
344.73
345.003
345.442
346.25
347.897
351.34
358.622
373.04
394.593
417.142
452.543
315.617
323.842
328.12
331.88
335.015
337.249
338.791
339.903
340.751
341.425
341.979
342.453
342.866
343.228
343.542
343.817
344.057
344.269
344.457
344.629
344.789
344.943
345.098
345.263
345.463
345.741
346.184
346.992
348.626
351.933
358.58
372.304
393.51
416.002
451.727
316.209
324.219
328.568
332.56
335.765
337.961
339.453
340.53
341.359
342.027
342.591
343.081
343.512
343.887
344.216
344.503
344.754
344.976
345.175
345.356
345.526
345.693
345.862
346.045
346.266
346.579
347.09
348.054
350.112
354.513
362.854
377.476
398.024
420.258
455.609
316.526
324.557
329.061
333.273
336.485
338.612
340.047
341.092
341.91
342.585
343.168
343.681
344.133
344.529
344.877
345.182
345.45
345.687
345.898
346.09
346.269
346.442
346.617
346.801
347.018
347.318
347.797
348.682
350.564
354.738
363.046
377.69
397.432
419.282
455.174
316.866
325.149
329.836
334.139
337.237
339.24
340.599
341.608
342.415
343.1
343.705
344.242
344.718
345.14
345.513
345.844
346.137
346.398
346.633
346.847
347.047
347.243
347.442
347.656
347.917
348.291
348.905
350.061
352.533
357.939
368.073
383.748
402.79
423.975
458.946
317.068
325.947
330.88
335.14
338.025
339.865
341.133
342.1
342.894
343.587
344.208
344.763
345.26
345.705
346.103
346.461
346.782
347.07
347.331
347.566
347.782
347.982
348.172
348.361
348.571
348.849
349.277
350.073
351.872
356.371
366.331
382.645
401.303
421.987
457.29
316.369
326.14
331.488
335.765
338.559
340.339
341.58
342.539
343.336
344.038
344.674
345.248
345.766
346.234
346.659
347.046
347.401
347.729
348.035
348.324
348.602
348.874
349.147
349.437
349.775
350.212
350.834
351.832
353.728
357.939
367.284
383.73
403.064
424.033
458.925
314.196
324.528
330.605
335.481
338.638
340.599
341.924
342.923
343.741
344.454
345.102
345.699
346.243
346.738
347.188
347.597
347.971
348.313
348.627
348.919
349.191
349.45
349.702
349.971
350.291
350.709
351.317
352.312
354.192
358.228
367.073
383.29
402.766
423.618
458.186
309.673
318.299
324.403
330.587
335.769
339.32
341.476
342.849
343.842
344.636
345.316
345.942
346.535
347.091
347.607
348.087
348.531
348.944
349.328
349.688
350.029
350.356
350.674
351.004
351.384
351.861
352.522
353.55
355.409
359.246
367.297
382.008
401.12
422.506
458.08
306.458
313.233
317.281
321.26
326.442
332.885
338.58
341.863
343.613
344.718
345.531
346.193
346.796
347.377
347.934
348.464
348.964
349.435
349.876
350.288
350.671
351.028
351.365
351.705
352.088
352.562
353.222
354.284
356.286
360.56
369.584
385.289
404.414
425.41
459.839
309.008
318.209
321.339
321.707
321.103
322.503
329.047
336.518
341.119
343.513
344.957
345.971
346.765
347.459
348.108
348.732
349.338
349.929
350.507
351.072
351.623
352.163
352.692
353.241
353.865
354.631
355.646
357.134
359.603
364.177
372.793
386.989
404.155
424.792
460.818
316.508
329.767
334.52
334.468
331.37
327.885
330.348
338.279
342.21
343.938
345.142
346.137
346.955
347.644
348.252
348.814
349.352
349.881
350.406
350.929
351.449
351.963
352.469
352.97
353.509
354.165
355.061
356.481
359.107
364.466
374.858
390.941
408.618
428.394
461.92
320.674
335.906
340.122
339.085
338.573
341.616
343.378
344.427
345.562
346.56
347.436
348.227
348.931
349.567
350.16
350.727
351.283
351.839
352.4
352.968
353.542
354.12
354.735
355.43
356.203
357.048
358.031
359.411
361.877
366.957
377.022
392.73
409.217
428.797
463.721
322.061
338.877
341.982
342.594
342.953
343.503
344.557
345.508
346.35
347.133
347.858
348.527
349.147
349.729
350.285
350.834
351.404
352.013
352.668
353.382
354.173
355.055
356.037
357.177
358.576
360.309
362.421
365.024
368.474
373.67
382.324
395.724
410.809
428.337
460.4
320.719
333.133
338.641
341.788
343.299
344.218
345.072
345.96
346.829
347.648
348.408
349.099
349.708
350.227
350.649
350.98
351.228
351.408
351.533
351.614
351.66
351.682
351.704
351.766
351.946
352.361
353.203
354.804
357.799
363.381
373.217
387.727
403.318
422.551
459.125
325.179
338.562
342.755
344.444
344.944
345.2
345.533
345.994
346.567
347.233
347.986
348.838
349.82
350.97
352.32
353.873
355.593
357.418
359.281
361.145
363.021
364.959
367.003
369.165
371.449
373.892
376.542
379.516
383.072
387.796
394.779
404.926
417.284
434.365
466.747
334.925
350.145
349.889
348.563
347.946
347.801
347.915
348.123
348.333
348.518
348.681
348.844
349.033
349.272
349.559
349.848
350.051
350.06
349.78
349.143
348.13
346.858
345.646
344.916
344.979
346.017
348.172
351.722
357.106
364.697
374.715
386.844
399.159
415.41
452.704
336.139
351.148
346.171
343.967
344.354
345.457
346.853
348.318
349.665
350.767
351.574
352.084
352.334
352.398
352.39
352.503
353.076
354.572
357.177
360.475
363.977
366.833
367.474
366.364
365.617
366.135
367.849
370.926
375.752
382.234
390.575
401.523
414.741
432.316
464.866
328.58
342.115
339.532
337.025
337.615
339.697
342.228
344.875
347.488
349.921
352.032
353.727
354.958
355.713
356.006
355.891
355.477
354.966
354.611
354.613
355.634
358.498
361.779
364.382
366.521
368.368
369.601
368.996
365.805
365.42
370.483
380.52
394.329
414.733
456.109
312.681
321.337
327.44
333.657
339.344
344.238
348.336
351.695
354.368
356.41
357.91
358.985
359.749
360.285
360.638
360.817
360.795
360.53
359.985
359.145
358.129
357.224
356.877
356.636
356.986
358.2
355.773
363.928
385.244
401.321
411.513
419.865
428.811
443.466
475.311
314.293
330.542
342.448
350.588
356.456
361.168
364.869
367.588
369.456
370.67
371.404
371.768
371.807
371.548
371.036
370.349
369.564
368.721
367.822
366.858
365.652
364.105
362.834
361.718
360.768
361.153
361.907
362.773
365.806
369.922
376.764
386.957
399.585
414.486
449.121
327.965
343.086
349.623
353.626
355.466
355.968
355.982
356.071
356.442
357.1
358.021
359.177
360.514
361.962
363.466
365.019
366.658
368.295
369.435
369.598
368.4
362.274
356.925
352.173
346.588
340.46
335.449
333.602
335.82
341.85
352.073
366.37
384.004
406.344
447.56
315.205
325.988
331.788
336.046
340.246
344.514
348.39
351.395
353.329
354.33
354.755
355.015
355.472
356.411
358.069
360.738
364.951
371.203
378.835
385.699
389.142
387.578
383.239
376.708
369.434
363.936
361.561
363.073
368.135
376.136
386.659
399.517
415.507
437.733
472.419
318.65
338.627
349.753
357.715
365.198
371.818
376.205
377.772
376.998
374.853
372.197
369.472
366.76
364.148
362.113
361.361
362.073
363.883
367.014
371.843
377.341
382.642
387.526
391.386
393.982
395.605
397.423
400.094
403.634
408.114
413.794
421.167
431.295
447.092
473.574
331.683
346.033
351.817
357.403
363.446
368.389
370.888
371.537
371.472
371.241
370.952
370.553
369.988
369.221
368.208
366.949
365.634
364.642
364.268
364.703
366.111
368.543
371.829
375.838
380.499
385.46
390.718
396.174
401.705
407.433
413.688
420.601
429.037
439.501
467.044
318.794
334.031
339.462
342.659
345.867
349.572
353.373
356.772
359.642
362.025
363.968
365.506
366.655
367.434
367.872
368.021
367.944
367.694
367.315
366.87
366.466
366.236
366.305
366.809
367.89
369.626
372.033
374.997
378.233
381.371
384.17
386.077
387.049
394.808
446.323
321.038
340.257
348.845
354.873
361.187
366.675
369.43
369.594
368.567
367.414
366.539
366.063
365.976
366.149
366.396
366.6
366.738
366.819
366.85
366.833
366.775
366.683
366.564
366.451
366.447
366.7
367.371
368.588
370.335
372.321
374.031
375.563
379.746
395.258
445.489
326.764
342.189
348.212
353.304
359.879
366.329
370.986
373.207
373.5
372.896
372.001
371.03
370.047
369.133
368.427
367.969
367.677
367.473
367.311
367.169
367.037
366.906
366.766
366.613
366.457
366.368
366.527
367.278
369.044
372.109
376.661
383.393
393.638
410.36
449.598
322.214
339.171
346.146
351.388
356.928
361.561
364.556
366.503
367.985
369.113
369.861
370.255
370.382
370.338
370.181
369.942
369.66
369.368
369.08
368.801
368.545
368.319
368.125
367.956
367.796
367.62
367.382
367.092
367.013
367.602
369.024
371.018
373.657
387.906
442.949
320.286
336.353
343.641
348.897
354.83
361.448
366.3
368.217
368.501
368.357
368.199
368.11
368.083
368.081
368.082
368.078
368.071
368.062
368.057
368.064
368.092
368.15
368.247
368.391
368.551
368.573
368.245
367.402
364.91
360.107
354.797
351.77
358.793
377.977
423.457
325.035
341.208
347.767
353.114
359.346
365.446
370.648
373.669
374.468
374.247
373.72
373.05
372.275
371.511
370.826
370.249
369.782
369.425
369.179
369.056
369.082
369.298
369.748
370.627
372.77
377.708
383.089
383.915
380.792
377.391
375.648
378.215
387.8
406.131
446.217
317.783
333.785
340.321
344.094
347.372
351.359
356.431
361.41
365.175
367.557
368.864
369.478
369.712
369.749
369.685
369.561
369.394
369.193
368.97
368.741
368.539
368.423
368.502
368.967
370.262
373.363
378.94
385.171
390.24
395.138
401.009
408.552
418.477
435.013
469.555
322.045
339.471
346.677
351.333
355.645
359.804
363.715
367.309
370.173
371.954
372.693
372.666
372.228
371.678
371.172
370.741
370.368
370.03
369.712
369.406
369.108
368.822
368.561
368.365
368.335
368.682
369.803
372.146
375.748
380.576
387.047
395.799
406.818
421.446
454.021
321.741
338.771
345.099
348.773
351.643
354.103
356.547
359.427
362.78
366.074
368.744
370.456
371.234
371.392
371.262
371.026
370.753
370.462
370.163
369.861
369.565
369.278
369.004
368.744
368.505
368.304
368.182
368.22
368.544
369.327
370.869
373.903
380.877
395.689
436.176
317.982
335.65
343.987
349.075
353.428
357.596
361.082
363.447
365.07
366.639
368.448
370.21
371.426
371.889
371.819
371.546
371.25
370.968
370.682
370.385
370.089
369.804
369.536
369.291
369.068
368.86
368.667
368.492
368.341
368.218
368.108
368.059
371.26
386.321
433.911
322.972
340.685
347.548
352.142
356.734
361.341
365.28
367.894
369.248
369.892
370.364
370.993
371.675
372.053
372.035
371.818
371.562
371.294
371.005
370.71
370.429
370.175
369.959
369.784
369.65
369.554
369.488
369.438
369.395
369.357
369.697
372.389
381.99
398.914
437.064
318.202
334.702
342.453
347.367
351.837
356.734
361.908
366.214
368.962
370.469
371.27
371.752
372.184
372.517
372.492
372.158
371.776
371.463
371.181
370.903
370.651
370.448
370.314
370.261
370.298
370.42
370.613
370.886
371.343
372.244
374.412
381.576
395.95
413.576
445.891
322.26
339.506
346.665
351.636
356.866
362.607
367.978
371.809
373.791
374.501
374.591
374.376
373.979
373.548
373.085
372.521
371.995
371.6
371.265
370.949
370.677
370.482
370.397
370.453
370.679
371.097
371.768
373.036
375.818
380.118
385.332
393.883
406.541
423.913
458.755
321.205
337.552
344.425
349.036
353.516
358.298
363.226
367.687
371.067
373.211
374.383
374.925
375.045
374.816
374.291
373.518
372.649
371.923
371.399
370.999
370.657
370.373
370.185
370.135
370.269
370.633
371.376
373.036
376.653
383.118
391.986
402.326
413.657
429.914
464.338
321.874
337.934
344.544
349.052
353.683
358.881
364.24
368.895
372.285
374.374
375.486
375.99
376.123
375.958
375.445
374.568
373.487
372.492
371.747
371.2
370.761
370.384
370.068
369.84
369.734
369.805
370.178
371.158
373.457
378.441
387.584
400.611
414.499
430.869
462.756
321.165
337.691
344.405
348.596
352.193
355.625
359.338
363.559
367.855
371.461
373.974
375.488
376.297
376.643
376.625
376.168
375.179
373.882
372.709
371.847
371.229
370.747
370.34
369.992
369.713
369.528
369.498
369.753
370.621
372.94
378.597
390.234
407.725
425.55
455.783
320.511
337.973
345.139
349.545
353.402
357.153
360.942
364.756
368.456
371.69
374.099
375.637
376.502
376.918
377.006
376.749
376
374.758
373.447
372.458
371.789
371.277
370.839
370.476
370.184
369.975
369.897
370.036
370.579
372.042
375.896
385.415
403.039
421.259
451.213
323.169
341.976
349.355
353.966
357.982
361.533
364.559
367.188
369.695
372.137
374.241
375.767
376.716
377.214
377.378
377.229
376.672
375.607
374.292
373.217
372.505
371.97
371.522
371.177
370.936
370.826
370.945
371.401
372.333
374.168
378.193
387.236
403.216
420.671
450.568
323.964
341.854
348.763
353.421
358.158
363.085
367.624
371.208
373.744
375.472
376.63
377.348
377.713
377.791
377.605
377.119
376.297
375.25
374.298
373.609
373.074
372.621
372.267
372.033
371.96
372.189
372.934
374.292
376.307
379.347
384.523
393.723
407.325
423.689
454.246
324.43
341.685
348.384
353.045
357.855
362.815
367.244
370.721
373.354
375.338
376.756
377.636
378.034
378.038
377.72
377.131
376.347
375.526
374.831
374.298
373.881
373.545
373.289
373.149
373.225
373.74
374.993
377.151
380.226
384.448
390.595
399.717
411.518
427.083
458.653
321.087
337.736
344.591
349.304
354.309
359.942
365.251
369.321
372.193
374.297
375.914
377.102
377.818
378.057
377.891
377.457
376.897
376.324
375.807
375.377
375.033
374.771
374.603
374.577
374.818
375.56
377.127
379.778
383.592
388.665
395.402
404.296
415.034
430.154
462.415
321.16
338.811
346.195
351.109
356.062
361.413
366.29
369.813
372.056
373.561
374.761
375.855
376.851
377.651
378.147
378.285
378.104
377.713
377.244
376.797
376.42
376.137
375.97
375.963
376.213
376.917
378.4
381.042
385.093
390.631
397.766
406.623
416.945
431.855
464.389
321.81
339.273
346.556
351.675
357.427
364.144
370.206
374.202
376.155
376.893
377.118
377.179
377.256
377.456
377.802
378.199
378.487
378.541
378.365
378.056
377.712
377.407
377.195
377.13
377.291
377.822
378.99
381.227
385.024
390.69
398.245
407.457
417.851
432.685
465.049
323.656
340.395
347.056
351.978
357.919
365.063
371.648
376.319
378.978
380.176
380.542
380.496
380.244
379.864
379.406
378.989
378.778
378.781
378.816
378.742
378.567
378.356
378.174
378.083
378.157
378.503
379.303
380.9
383.848
388.814
396.231
405.912
416.943
432.057
464.165
320.571
336.725
343.402
348.197
353.885
360.942
368.051
373.771
377.639
379.985
381.306
381.979
382.243
382.232
382.001
381.532
380.804
380.03
379.528
379.278
379.115
378.974
378.86
378.81
378.882
379.166
379.795
381.011
383.257
387.261
393.874
403.455
415.062
430.549
462.483
319.502
336.854
344.279
349.336
354.717
360.421
365.919
370.964
375.041
377.94
379.872
381.137
381.951
382.444
382.681
382.674
382.368
381.7
380.862
380.209
379.82
379.603
379.488
379.457
379.539
379.808
380.376
381.428
383.3
386.617
392.353
401.362
413.047
428.612
460.431
320.563
338.447
346.309
352.386
359.975
366.987
371.589
374.781
377.257
379.08
380.351
381.246
381.896
382.37
382.694
382.847
382.756
382.346
381.691
381.05
380.606
380.353
380.23
380.21
380.32
380.632
381.266
382.394
384.299
387.496
392.865
401.349
412.592
427.896
459.676
322.498
340.111
348.1
355.226
365.4
373.958
378.241
380.068
381.055
381.733
382.234
382.612
382.895
383.098
383.215
383.212
383.033
382.656
382.163
381.705
381.377
381.177
381.079
381.084
381.233
381.614
382.37
383.705
385.902
389.4
394.896
403.129
413.788
428.757
460.685
322.314
339.747
348.159
356.003
366.944
375.955
380.502
382.317
383.098
383.508
383.761
383.925
384.02
384.047
383.986
383.814
383.526
383.16
382.785
382.464
382.226
382.071
381.998
382.03
382.218
382.661
383.526
385.063
387.608
391.579
397.487
405.749
416.009
430.737
462.713
323.06
341.004
349.423
356.938
366.825
375.165
379.981
382.268
383.373
383.969
384.318
384.522
384.622
384.629
384.542
384.362
384.108
383.818
383.537
383.292
383.099
382.963
382.895
382.924
383.103
383.528
384.367
385.893
388.508
392.703
398.945
407.418
417.634
432.293
464.113
323.571
341.453
349.995
357.775
368.089
376.338
380.937
383.066
384.058
384.573
384.861
385.018
385.078
385.055
384.959
384.802
384.607
384.4
384.2
384.021
383.87
383.756
383.694
383.712
383.86
384.221
384.944
386.283
388.652
392.626
398.789
407.341
417.69
432.416
464.135
324.184
342.18
350.96
359.113
369.697
377.828
382.029
383.897
384.742
385.16
385.373
385.464
385.47
385.408
385.298
385.159
385.01
384.864
384.729
384.607
384.503
384.425
384.386
384.413
384.546
384.858
385.472
386.605
388.632
392.137
397.824
406.084
416.41
431.159
463.01
324.996
343.039
351.606
359.491
369.916
378.629
382.962
384.696
385.405
385.714
385.837
385.852
385.795
385.692
385.566
385.436
385.316
385.213
385.128
385.062
385.017
384.999
385.019
385.098
385.27
385.596
386.183
387.215
389.02
392.134
397.287
405.023
415.046
429.641
461.722
325.024
343.171
351.094
357.786
366.915
376.585
382.551
385.007
385.896
386.209
386.286
386.244
386.133
385.986
385.828
385.681
385.558
385.464
385.406
385.385
385.405
385.473
385.595
385.787
386.075
386.51
387.184
388.257
390.019
392.952
397.743
404.988
414.576
428.917
461.213
325.127
343.554
351.802
358.229
365.589
373.903
381.081
384.781
386.176
386.64
386.747
386.694
386.557
386.375
386.179
385.988
385.819
385.687
385.602
385.574
385.618
385.746
385.975
386.32
386.802
387.458
388.36
389.644
391.561
394.537
399.19
406.1
415.295
429.431
461.917
327.91
346.313
355.769
363.682
370.432
375.529
381.019
384.865
386.518
387.083
387.23
387.206
387.086
386.899
386.672
386.43
386.196
385.991
385.834
385.745
385.739
385.84
386.085
386.513
387.162
388.07
389.296
390.942
393.21
396.451
401.194
407.964
416.901
430.931
463.486
333.364
350.937
361.909
372.846
379.125
381.636
384.072
386.303
387.34
387.703
387.808
387.792
387.683
387.5
387.264
386.995
386.715
386.447
386.213
386.036
385.941
385.951
386.107
386.476
387.13
388.149
389.612
391.62
394.327
398
403.046
409.896
418.745
432.734
465.113
337.994
356.009
368.602
381.982
385.78
386.454
387.199
387.959
388.339
388.49
388.524
388.479
388.365
388.186
387.953
387.681
387.384
387.082
386.794
386.544
386.359
386.261
386.287
386.505
387.007
387.911
389.35
391.476
394.459
398.518
403.946
411.039
419.953
433.928
466.013
337.992
358.405
373.016
387.046
388.852
388.852
389.001
389.185
389.301
389.345
389.328
389.257
389.134
388.962
388.746
388.49
388.203
387.897
387.59
387.302
387.054
386.867
386.774
386.832
387.129
387.786
388.97
390.891
393.792
397.937
403.587
410.922
419.974
433.962
465.911
334.523
353.719
367.916
384.507
389.361
390.138
390.246
390.271
390.275
390.255
390.202
390.115
389.989
389.826
389.627
389.394
389.133
388.852
388.559
388.268
387.994
387.756
387.585
387.526
387.651
388.067
388.932
390.475
392.998
396.86
402.401
409.785
418.92
432.9
464.968
329.197
346.238
357.463
372.705
384.992
389.745
391.009
391.254
391.255
391.196
391.115
391.013
390.888
390.737
390.558
390.352
390.121
389.869
389.603
389.329
389.061
388.815
388.614
388.498
388.524
388.781
389.403
390.603
392.694
396.098
401.271
408.468
417.552
431.478
463.776
325.853
344.328
352.712
360.632
373.963
384.669
389.827
391.568
392.01
392.064
392.002
391.899
391.774
391.632
391.471
391.289
391.087
390.868
390.633
390.389
390.145
389.915
389.721
389.594
389.583
389.763
390.249
391.227
392.99
395.976
400.718
407.595
416.526
430.36
462.842
327.025
346.774
354.46
359.665
366.404
376.629
385.355
390.199
392.088
392.643
392.748
392.705
392.604
392.475
392.328
392.165
391.987
391.794
391.589
391.377
391.164
390.963
390.794
390.684
390.678
390.839
391.273
392.143
393.719
396.423
400.816
407.37
416.109
429.849
462.447
328.895
348.952
357.347
362.636
367.064
372.294
379.627
386.409
390.702
392.6
393.216
393.358
393.335
393.244
393.119
392.973
392.813
392.641
392.46
392.274
392.091
391.921
391.783
391.704
391.722
391.9
392.332
393.171
394.666
397.218
401.381
407.678
416.228
429.891
462.569
329.134
348.795
357.547
363.897
369.479
373.664
377.374
382.184
387.291
391.099
393.034
393.727
393.911
393.91
393.831
393.711
393.569
393.414
393.251
393.086
392.926
392.783
392.675
392.627
392.678
392.886
393.343
394.192
395.67
398.156
402.188
408.301
416.679
430.267
463.02
328.101
347.329
356.434
363.764
371.237
376.808
379.984
382.065
384.681
388.209
391.463
393.395
394.166
394.398
394.424
394.361
394.252
394.117
393.97
393.821
393.68
393.558
393.476
393.458
393.543
393.789
394.284
395.167
396.666
399.143
403.116
409.107
417.331
430.849
463.667
327.003
346.285
356.242
364.861
373.943
380.643
384.329
385.988
386.776
387.718
389.733
392.195
393.863
394.588
394.829
394.876
394.832
394.737
394.616
394.486
394.361
394.258
394.198
394.208
394.328
394.615
395.156
396.088
397.633
400.139
404.098
410.006
418.089
431.528
464.392
326.891
346.177
357.633
368.763
379.409
385.857
389.025
390.366
390.822
390.86
390.91
391.888
393.476
394.587
395.077
395.25
395.288
395.254
395.177
395.077
394.976
394.894
394.857
394.896
395.051
395.383
395.978
396.972
398.581
401.142
405.12
410.972
418.927
432.291
465.177
327.289
346.635
359.665
373.895
385.604
390.989
393.001
393.711
393.885
393.781
393.496
393.38
394.029
394.903
395.41
395.618
395.693
395.7
395.664
395.601
395.531
395.478
395.469
395.541
395.739
396.124
396.784
397.857
399.553
402.197
406.221
412.04
419.884
433.186
466.055
328.337
348.545
361.846
376.583
388.502
393.446
395.048
395.525
395.578
395.418
395.145
394.959
395.198
395.668
395.956
396.085
396.138
396.15
396.13
396.092
396.051
396.03
396.056
396.17
396.417
396.865
397.602
398.767
400.566
403.311
407.398
413.192
420.94
434.192
466.997
329.795
350.737
362.722
375.182
387.848
394.036
396.004
396.499
396.5
396.333
396.186
396.195
396.341
396.49
396.58
396.626
396.643
396.637
396.615
396.588
396.567
396.576
396.641
396.802
397.109
397.629
398.455
399.723
401.637
404.491
408.643
414.411
422.071
435.282
467.967
331.11
352.102
362.623
372.663
384.833
393.309
396.601
397.415
397.43
397.298
397.21
397.179
397.186
397.201
397.207
397.201
397.183
397.157
397.127
397.103
397.099
397.134
397.237
397.447
397.814
398.407
399.319
400.688
402.711
405.663
409.867
415.597
423.173
436.331
468.851
331.567
352.647
362.93
371.269
379.429
387.749
394.048
397.192
398.176
398.263
398.136
398.016
397.935
397.879
397.832
397.786
397.74
397.695
397.657
397.634
397.64
397.695
397.829
398.08
398.498
399.153
400.14
401.591
403.7
406.722
410.946
416.613
424.084
437.147
469.498
331.096
352.803
365.213
375.181
380.097
382.016
385.517
390.692
395.435
398.012
398.8
398.867
398.744
398.604
398.486
398.391
398.311
398.244
398.192
398.162
398.168
398.231
398.38
398.653
399.104
399.8
400.836
402.344
404.509
407.568
411.78
417.363
424.718
437.661
469.875
332.583
354.486
369.961
386.163
393.501
392.337
389.544
388.09
390.038
394.353
397.484
398.767
399.144
399.196
399.135
399.035
398.926
398.825
398.745
398.696
398.691
398.75
398.902
399.186
399.652
400.372
401.438
402.98
405.174
408.242
412.417
417.903
425.149
437.995
470.108
334.601
356.682
372.853
391.279
400.392
400.778
398.573
395.836
393.942
395.169
397.638
398.898
399.334
399.495
399.536
399.506
399.439
399.361
399.289
399.238
399.23
399.289
399.445
399.739
400.223
400.965
402.058
403.63
405.846
408.912
413.041
418.443
425.617
438.426
470.422
330.51
351.564
365.493
381.134
394.214
399.44
399.867
398.891
398.202
398.623
399.411
399.799
399.97
400.037
400.041
400.003
399.942
399.871
399.808
399.768
399.771
399.842
400.014
400.326
400.832
401.601
402.724
404.325
406.562
409.627
413.725
419.073
426.211
439.025
470.855
326.304
345.915
356.29
368.088
385.209
396.444
400.04
400.652
400.593
400.576
400.656
400.71
400.717
400.687
400.63
400.558
400.478
400.403
400.342