/*--------------------------------*- C++ -*----------------------------------*\
| =========                 |                                                 |
| \\      /  F ield         | OpenFOAM: The Open Source CFD Toolbox           |
|  \\    /   O peration     | Version:  v2006                                 |
|   \\  /    A nd           | Website:  www.openfoam.com                      |
|    \\/     M anipulation  |                                                 |
\*---------------------------------------------------------------------------*/
FoamFile
{
    version     2.0;
    format      ascii;
    class       volVectorField;
    location    "75";
    object      U;
}
// * * * * * * * * * * * * * * * * * * * * * * * * * * * * * * * * * * * * * //

dimensions      [0 1 -1 0 0 0 0];


internalField   nonuniform List<vector> 
78750
(
(-0.42461 -0.258837 -0.0682038)
(-0.359581 -0.247359 -0.0619415)
(-0.348603 -0.218291 -0.0487977)
(-0.263987 -0.181211 -0.0338831)
(-0.199175 -0.145852 -0.0319574)
(-0.210093 -0.13134 -0.0343186)
(-0.155604 -0.114597 -0.0372883)
(-0.145364 -0.10335 -0.0402183)
(-0.111965 -0.0931836 -0.0436172)
(-0.0952029 -0.0846832 -0.0469367)
(-0.0751919 -0.0771132 -0.0502445)
(-0.0587888 -0.070426 -0.053623)
(-0.0440887 -0.0643786 -0.0570511)
(-0.030913 -0.0587969 -0.0605546)
(-0.019185 -0.0536026 -0.0641833)
(-0.00877145 -0.0487602 -0.0679739)
(0.000339901 -0.0442924 -0.0719253)
(0.00831269 -0.0401054 -0.0760509)
(0.015298 -0.0360353 -0.0804404)
(0.0212021 -0.0320632 -0.0852034)
(0.025997 -0.0282678 -0.0904101)
(0.0297422 -0.024717 -0.0960806)
(0.0324798 -0.021471 -0.102173)
(0.0342415 -0.0185587 -0.108554)
(0.0350495 -0.0159367 -0.114958)
(0.035018 -0.013441 -0.120902)
(0.0343361 -0.0108747 -0.125979)
(0.033198 -0.00784327 -0.129692)
(0.0317458 -0.00422111 -0.131641)
(0.0302051 -0.000825558 -0.131975)
(0.0286577 0.00145428 -0.131525)
(0.0268294 0.00300084 -0.13095)
(0.0247813 0.00612747 -0.129439)
(0.0223659 0.0188693 -0.121294)
(0.0109135 0.0696876 -0.0576618)
(0.0456534 -0.276476 0.0532418)
(-0.0376011 -0.306214 0.055396)
(-0.00191688 -0.354567 0.0571137)
(-0.0165054 -0.382281 0.0641567)
(-0.0263104 -0.338036 0.0689818)
(-0.0186859 -0.2754 0.0675013)
(-0.0215991 -0.234816 0.0647063)
(-0.0135986 -0.201264 0.0620318)
(-0.00857505 -0.174325 0.059388)
(-0.00109042 -0.151387 0.0566933)
(0.00643436 -0.132028 0.0540714)
(0.0143991 -0.115396 0.0516625)
(0.0224677 -0.100864 0.0495901)
(0.0303951 -0.0879477 0.0478942)
(0.0380073 -0.0762422 0.046548)
(0.0451494 -0.0654285 0.045474)
(0.0516821 -0.05526 0.0445592)
(0.0574931 -0.0455456 0.043675)
(0.0624853 -0.0361359 0.0426359)
(0.0665894 -0.0269289 0.0411854)
(0.0697694 -0.0178854 0.0390138)
(0.0719938 -0.00901643 0.0357398)
(0.0732461 -0.000387159 0.0308351)
(0.0735459 0.00786399 0.0236189)
(0.0729357 0.0155048 0.0131729)
(0.0713235 0.0220703 -0.00161431)
(0.0685292 0.0264831 -0.0218078)
(0.0645561 0.0270523 -0.0476591)
(0.0593256 0.0222593 -0.0777306)
(0.0525951 0.0129814 -0.108111)
(0.0442024 0.00386342 -0.134229)
(0.0348438 0.000616721 -0.153533)
(0.0261095 0.00693279 -0.166175)
(0.0170831 0.0322157 -0.169978)
(0.00228622 0.12117 -0.109451)
(-0.017506 -0.11343 -0.0151384)
(-0.00979988 -0.203115 -0.048995)
(-0.0203972 -0.214721 -0.0653078)
(-0.0210919 -0.214266 -0.0725693)
(-0.0218517 -0.221369 -0.0715055)
(-0.0211286 -0.227204 -0.065106)
(-0.0168439 -0.225406 -0.0570842)
(-0.0119868 -0.218873 -0.0486069)
(-0.00607455 -0.209647 -0.0404363)
(0.000298579 -0.199312 -0.0327986)
(0.00720197 -0.188397 -0.0256947)
(0.0145049 -0.177209 -0.0190226)
(0.0220908 -0.165911 -0.0126334)
(0.0298366 -0.154557 -0.00634564)
(0.0376271 -0.143167 -1.42795e-05)
(0.0453432 -0.131713 0.0065216)
(0.0528998 -0.120117 0.0134566)
(0.0602191 -0.108261 0.0210357)
(0.0672009 -0.0960349 0.0295451)
(0.0737465 -0.0834396 0.0391621)
(0.0797601 -0.0705467 0.050003)
(0.085176 -0.0574342 0.0621302)
(0.0899154 -0.0440631 0.0753328)
(0.0939131 -0.0302241 0.0893464)
(0.0970173 -0.0151931 0.104063)
(0.0990005 0.0019694 0.118843)
(0.0996626 0.0209805 0.131938)
(0.09922 0.0425647 0.14262)
(0.0971651 0.0692317 0.149436)
(0.0909882 0.0984017 0.141364)
(0.0786721 0.122589 0.105142)
(0.0616012 0.135194 0.0429041)
(0.0420362 0.142607 -0.0258058)
(0.0262881 0.164101 -0.0749869)
(0.00879115 0.210113 -0.0731989)
(0.00196977 -0.153129 -0.00329667)
(0.00179967 -0.246781 -0.00284423)
(0.00591392 -0.272213 -0.00186918)
(0.00929746 -0.276846 -0.00233906)
(0.013521 -0.269977 -0.00366477)
(0.0179107 -0.254597 -0.00693818)
(0.020872 -0.238512 -0.0119576)
(0.0233573 -0.224664 -0.0176086)
(0.0256996 -0.213274 -0.0230555)
(0.0280312 -0.203793 -0.0278519)
(0.0304007 -0.19563 -0.0318241)
(0.0328598 -0.18828 -0.0349553)
(0.035451 -0.181342 -0.0372992)
(0.0382509 -0.174529 -0.0389254)
(0.0413018 -0.167773 -0.0398727)
(0.0446047 -0.161113 -0.0401802)
(0.048179 -0.154494 -0.0398666)
(0.0519923 -0.147776 -0.0389175)
(0.0560924 -0.140787 -0.0371766)
(0.0605056 -0.13352 -0.0343272)
(0.065134 -0.126143 -0.0301544)
(0.0698485 -0.118706 -0.024635)
(0.0743567 -0.110934 -0.0181407)
(0.0781883 -0.10218 -0.0115311)
(0.0809201 -0.0917923 -0.00510153)
(0.082122 -0.0793412 0.00236533)
(0.0813728 -0.0645396 0.0132649)
(0.0781379 -0.0458894 0.03297)
(0.072764 -0.0136287 0.0742802)
(0.0654325 0.0421282 0.126075)
(0.0554964 0.103548 0.145825)
(0.0437641 0.148347 0.114312)
(0.0292832 0.188039 0.0435954)
(0.0171313 0.243851 -0.0218469)
(0.0049476 0.295275 -0.0426244)
(0.000918953 -0.14419 0.0179132)
(0.00409433 -0.227164 0.0256796)
(0.00519857 -0.247672 0.0255663)
(0.0058645 -0.251595 0.0256761)
(0.00652774 -0.2479 0.0269194)
(0.00755918 -0.239247 0.0294104)
(0.00916211 -0.227289 0.0326404)
(0.0111355 -0.213894 0.0359313)
(0.0132732 -0.200586 0.0389286)
(0.0154469 -0.188142 0.041627)
(0.0175706 -0.17682 0.044144)
(0.0195724 -0.166655 0.0465521)
(0.0213999 -0.157596 0.048825)
(0.0230288 -0.149521 0.0508699)
(0.0244532 -0.142235 0.0525863)
(0.0256889 -0.135477 0.0539572)
(0.0267627 -0.128965 0.0550519)
(0.027716 -0.12243 0.0560007)
(0.0286037 -0.115687 0.0569288)
(0.0294555 -0.108589 0.0579073)
(0.030307 -0.100691 0.0590659)
(0.0312974 -0.0908653 0.0606288)
(0.0326468 -0.0773457 0.0616652)
(0.0345811 -0.0572752 0.0574941)
(0.037077 -0.0278698 0.0415379)
(0.0391114 0.00970496 0.0147065)
(0.0393141 0.0490175 -0.0111799)
(0.0370313 0.0847547 -0.024402)
(0.0323417 0.118943 -0.0197083)
(0.0261161 0.156136 0.0018266)
(0.0204878 0.196288 0.020834)
(0.0154395 0.238882 0.0184916)
(0.00856893 0.288361 -0.00668755)
(0.00306313 0.335901 -0.031692)
(-0.00111519 0.354693 -0.039565)
(0.000125539 -0.176273 -0.00470827)
(0.00304009 -0.264854 -0.0256061)
(0.00653609 -0.279567 -0.0356404)
(0.0104194 -0.278337 -0.0416377)
(0.0149819 -0.270625 -0.04658)
(0.0197204 -0.259506 -0.0511057)
(0.0241975 -0.247361 -0.0551973)
(0.0283262 -0.235725 -0.0585237)
(0.0321257 -0.225172 -0.0607215)
(0.0356296 -0.215638 -0.0615415)
(0.0388529 -0.206836 -0.0608197)
(0.0417815 -0.198495 -0.0584587)
(0.0443686 -0.190463 -0.0544909)
(0.0465365 -0.182717 -0.0491634)
(0.048195 -0.175324 -0.0429153)
(0.0492753 -0.168379 -0.0362354)
(0.0497455 -0.161955 -0.0294671)
(0.0496062 -0.156046 -0.0226476)
(0.0488778 -0.150572 -0.0154216)
(0.0476198 -0.145443 -0.00687459)
(0.0458011 -0.140886 0.00528865)
(0.0431087 -0.138452 0.0265546)
(0.0387639 -0.139194 0.0616537)
(0.0338605 -0.135944 0.0948452)
(0.0298801 -0.121207 0.110678)
(0.0276021 -0.0889184 0.104014)
(0.0275251 -0.0364935 0.0707205)
(0.028535 0.0243264 0.0228701)
(0.0276252 0.0812793 -0.0194239)
(0.0234829 0.127649 -0.0416407)
(0.0174325 0.169909 -0.0471198)
(0.0109446 0.222502 -0.0476974)
(0.00478105 0.288689 -0.0518379)
(0.00142611 0.334514 -0.0557255)
(-8.25102e-05 0.342595 -0.0508409)
(0.0008418 -0.169165 0.0145439)
(0.000135868 -0.244016 0.0260772)
(-0.00137753 -0.258613 0.0310062)
(-0.00284202 -0.258849 0.0347574)
(-0.00410856 -0.251331 0.0383866)
(-0.00484181 -0.237586 0.0411296)
(-0.00479432 -0.219966 0.0417616)
(-0.00400071 -0.201622 0.0398498)
(-0.00266444 -0.184673 0.0359132)
(-0.000989148 -0.169783 0.0307476)
(0.0008672 -0.15686 0.0250865)
(0.00277485 -0.145526 0.0195425)
(0.0046356 -0.135256 0.014572)
(0.00640769 -0.125492 0.0104494)
(0.00807279 -0.11589 0.00735392)
(0.0095684 -0.106458 0.00544543)
(0.0108047 -0.0972762 0.00477631)
(0.011702 -0.0883385 0.00524534)
(0.0121697 -0.079659 0.00666591)
(0.0121246 -0.0712921 0.0088643)
(0.0115414 -0.0632301 0.0118628)
(0.0103657 -0.0553652 0.0163396)
(0.00823024 -0.0482391 0.0245154)
(0.00440196 -0.0437196 0.040436)
(-0.000924389 -0.0399932 0.0607093)
(-0.00541181 -0.0290072 0.0734379)
(-0.00854871 -0.00022375 0.0716085)
(-0.00837962 0.0591972 0.0418549)
(-0.00391118 0.136388 -0.012704)
(0.00111793 0.211585 -0.0704397)
(0.00272802 0.27076 -0.109232)
(0.000217496 0.312294 -0.119982)
(-0.00240597 0.346271 -0.115832)
(-0.00345458 0.367319 -0.107134)
(-0.00320258 0.353518 -0.0849253)
(-0.000612333 -0.178878 -0.000999364)
(0.00150885 -0.254896 -0.0237645)
(0.00434436 -0.266418 -0.0331744)
(0.00742328 -0.26597 -0.0364137)
(0.0105949 -0.261069 -0.0363896)
(0.0133287 -0.253939 -0.033538)
(0.0154314 -0.245697 -0.0280135)
(0.0169518 -0.23667 -0.020391)
(0.0180099 -0.226795 -0.0118171)
(0.0187178 -0.216044 -0.00361576)
(0.0191678 -0.204606 0.00320118)
(0.0194366 -0.192865 0.00815433)
(0.0195894 -0.181271 0.0112561)
(0.0196899 -0.170171 0.012855)
(0.0197803 -0.15969 0.0134547)
(0.0198732 -0.14977 0.0135564)
(0.0199589 -0.14027 0.0135814)
(0.0199949 -0.131025 0.0138652)
(0.0199167 -0.121866 0.0146677)
(0.0196385 -0.112664 0.0161828)
(0.0190594 -0.103375 0.0185306)
(0.018083 -0.0940752 0.0217482)
(0.0165909 -0.0848958 0.0258616)
(0.0143623 -0.0758678 0.031185)
(0.0110232 -0.0667784 0.0387237)
(0.00628982 -0.0568692 0.049691)
(0.00131879 -0.0438112 0.0629583)
(-0.00223317 -0.0205802 0.0730925)
(-0.00278348 0.0257295 0.0685598)
(0.000555975 0.104801 0.0359503)
(0.00644399 0.205378 -0.0228887)
(0.00937742 0.296278 -0.0831608)
(0.00627759 0.347662 -0.111428)
(0.00293423 0.36829 -0.110884)
(1.45015e-05 0.342985 -0.0833502)
(0.000763718 -0.174515 0.00148603)
(-0.000313633 -0.238259 0.00303702)
(-0.00136932 -0.247669 0.0036073)
(-0.00205764 -0.244998 0.00343479)
(-0.00227774 -0.234589 0.00239708)
(-0.00175194 -0.217833 0.000237147)
(-0.000599781 -0.198116 -0.00271334)
(0.000900949 -0.178982 -0.00569904)
(0.00252491 -0.162203 -0.00811184)
(0.00412858 -0.148023 -0.00968095)
(0.00563759 -0.13599 -0.0103897)
(0.00701844 -0.125518 -0.0103525)
(0.00825031 -0.116106 -0.00973957)
(0.00931004 -0.107366 -0.00873411)
(0.0101707 -0.0990053 -0.00749637)
(0.0108051 -0.0907998 -0.00613524)
(0.011188 -0.0825841 -0.00469714)
(0.0112971 -0.0742421 -0.00316836)
(0.0111115 -0.0656998 -0.00148364)
(0.0106105 -0.0569091 0.000464446)
(0.00976836 -0.0478252 0.00281949)
(0.00854567 -0.0383865 0.00575633)
(0.0068881 -0.0285156 0.00947853)
(0.00472909 -0.018147 0.0142271)
(0.0019555 -0.00726313 0.0203046)
(-0.00162876 0.00413362 0.0280679)
(-0.00611604 0.0162488 0.0377807)
(-0.0111154 0.0303512 0.04911)
(-0.0155277 0.0511213 0.0601614)
(-0.0175538 0.0911739 0.064733)
(-0.0144567 0.168846 0.0496387)
(-0.00611646 0.283345 0.00663679)
(-4.68395e-05 0.380076 -0.0410266)
(0.000738961 0.402912 -0.0543064)
(-0.000737001 0.361849 -0.0389172)
(-0.00101497 -0.176795 0.00809376)
(-0.00021235 -0.246196 0.000479549)
(0.00101511 -0.257262 -0.00186492)
(0.0022169 -0.25775 -0.0014589)
(0.00327398 -0.253651 0.000556266)
(0.00405905 -0.246527 0.00378249)
(0.00471407 -0.236986 0.00765179)
(0.0053891 -0.225314 0.0114721)
(0.00614084 -0.211932 0.0146355)
(0.00696843 -0.197505 0.0167668)
(0.00785763 -0.182767 0.0177747)
(0.00879718 -0.168299 0.0178)
(0.00977566 -0.154436 0.017103)
(0.0107751 -0.14128 0.0159593)
(0.0117685 -0.128786 0.0146012)
(0.0127219 -0.116829 0.0132024)
(0.0135979 -0.105256 0.011889)
(0.0143584 -0.0939233 0.0107561)
(0.0149661 -0.082708 0.00988435)
(0.0153844 -0.0715127 0.00934995)
(0.015577 -0.0602606 0.00923208)
(0.0155069 -0.0488914 0.00961844)
(0.0151392 -0.0373579 0.0106097)
(0.0144568 -0.0256337 0.0123224)
(0.013476 -0.0137278 0.0148906)
(0.012113 -0.00165953 0.0184514)
(0.010115 0.0106521 0.0231367)
(0.00728116 0.0234352 0.0290999)
(0.00374542 0.0376365 0.0363642)
(-1.90616e-05 0.0565342 0.0446933)
(-0.00266462 0.0903629 0.0524326)
(-0.00126816 0.161863 0.0525513)
(0.00358528 0.280855 0.0350702)
(0.00552235 0.362173 0.0172788)
(0.00261221 0.352486 0.0132102)
(0.000665522 -0.169544 -0.00277119)
(0.000624272 -0.223223 -0.0093095)
(0.000638974 -0.230614 -0.012128)
(0.000922226 -0.227477 -0.014064)
(0.0015307 -0.217878 -0.015587)
(0.00240819 -0.203845 -0.016338)
(0.00336475 -0.188011 -0.0159291)
(0.00427963 -0.172558 -0.0142917)
(0.00512561 -0.158519 -0.0116765)
(0.00591604 -0.146044 -0.00850119)
(0.00667161 -0.134876 -0.00521355)
(0.00740945 -0.124649 -0.00219192)
(0.0081428 -0.115007 0.000317023)
(0.00888251 -0.105636 0.00220797)
(0.00963601 -0.0962816 0.00348297)
(0.0104048 -0.0867631 0.00420603)
(0.0111818 -0.0769708 0.00447205)
(0.0119515 -0.0668568 0.00439282)
(0.0126918 -0.056416 0.00409151)
(0.0133767 -0.0456625 0.00369853)
(0.0139786 -0.0346094 0.00334697)
(0.0144685 -0.0232558 0.00316916)
(0.0148101 -0.01158 0.00329613)
(0.0149401 0.00045877 0.00386004)
(0.0147569 0.0128997 0.00499888)
(0.0142588 0.0257402 0.00684277)
(0.0134224 0.0390218 0.00951079)
(0.0120898 0.0528641 0.0131402)
(0.0101227 0.0676082 0.0178896)
(0.00753583 0.0844151 0.0240177)
(0.0045931 0.107434 0.0321491)
(0.00225392 0.150651 0.0431154)
(0.0021529 0.244173 0.0530483)
(0.00294975 0.347288 0.050663)
(0.00180334 0.35909 0.0380769)
(-0.000708889 -0.179916 0.00760268)
(5.3238e-07 -0.244827 0.00541733)
(0.000789917 -0.253684 0.0041522)
(0.00156131 -0.252428 0.0036687)
(0.00236663 -0.245996 0.0035561)
(0.00313144 -0.235827 0.00370737)
(0.00392579 -0.223094 0.00409809)
(0.00480709 -0.208842 0.004765)
(0.00577716 -0.193914 0.00574914)
(0.00680656 -0.17892 0.00703065)
(0.0078614 -0.164277 0.00850033)
(0.00891648 -0.150243 0.00998153)
(0.00995999 -0.13693 0.0112845)
(0.0109931 -0.124312 0.0122621)
(0.0120256 -0.112256 0.0128353)
(0.0130683 -0.100558 0.0129864)
(0.0141268 -0.0890059 0.0127363)
(0.0151972 -0.0774223 0.0121287)
(0.0162654 -0.0656917 0.0112255)
(0.01731 -0.0537601 0.0101089)
(0.0183066 -0.0416157 0.00888152)
(0.0192324 -0.0292584 0.0076625)
(0.020071 -0.0166729 0.0065794)
(0.0208095 -0.0038156 0.00575761)
(0.0213841 0.00938963 0.00530863)
(0.0217044 0.0230237 0.00535429)
(0.0217014 0.0371222 0.00603243)
(0.0212751 0.0517228 0.00749158)
(0.0202949 0.0669466 0.00988744)
(0.0186444 0.083281 0.0134238)
(0.0163182 0.102784 0.0186265)
(0.0132685 0.134006 0.0272616)
(0.00901478 0.206636 0.042382)
(0.00513236 0.319589 0.0532463)
(0.00243191 0.354349 0.0427786)
(0.000513945 -0.172509 -0.000575602)
(0.000983405 -0.222582 -0.00670901)
(0.00133998 -0.229173 -0.00921079)
(0.00172792 -0.225955 -0.0105915)
(0.00222372 -0.216893 -0.0113556)
(0.00274139 -0.204067 -0.0113809)
(0.00322551 -0.189723 -0.0105853)
(0.00367753 -0.17556 -0.00904587)
(0.00412717 -0.162356 -0.0069374)
(0.00460715 -0.150224 -0.0044521)
(0.00514196 -0.138988 -0.00177243)
(0.00574483 -0.12841 0.000925362)
(0.00642003 -0.118278 0.00347071)
(0.0071687 -0.108402 0.00571395)
(0.00799418 -0.0985945 0.00754623)
(0.00890378 -0.0886577 0.00890566)
(0.00990554 -0.0783971 0.00976574)
(0.0110012 -0.0676532 0.0101197)
(0.0121796 -0.0563391 0.00997666)
(0.0134141 -0.0444562 0.00937237)
(0.0146669 -0.0320732 0.00838337)
(0.0158949 -0.0192749 0.00712822)
(0.0170523 -0.00610555 0.00575257)
(0.0180913 0.00747296 0.00439659)
(0.0189979 0.0215321 0.00320434)
(0.0197495 0.0361664 0.00232512)
(0.0202691 0.0514727 0.00192155)
(0.0204497 0.0675666 0.00217369)
(0.0201564 0.0846653 0.00328855)
(0.0192599 0.103393 0.00555086)
(0.0176636 0.125916 0.00958127)
(0.0150714 0.16017 0.0172848)
(0.0100627 0.230849 0.0323789)
(0.00456955 0.331994 0.0456527)
(0.00141961 0.360079 0.0382711)
(-0.000324896 -0.185697 0.000145035)
(0.000976932 -0.245172 -0.00544036)
(0.00219176 -0.252175 -0.00760255)
(0.00328212 -0.249385 -0.00868282)
(0.00439332 -0.241157 -0.00929138)
(0.00535521 -0.229177 -0.00941687)
(0.00620141 -0.215049 -0.00897774)
(0.00698639 -0.200123 -0.007929)
(0.00773202 -0.185284 -0.00628681)
(0.00844159 -0.17099 -0.00412027)
(0.00911709 -0.157419 -0.0015398)
(0.00976438 -0.144592 0.00130793)
(0.0103931 -0.132463 0.00424491)
(0.0110171 -0.120949 0.00707877)
(0.0116554 -0.109923 0.00963433)
(0.0123325 -0.0991953 0.0117843)
(0.0130758 -0.0885071 0.0134568)
(0.0139099 -0.0775609 0.0146151)
(0.014849 -0.0660744 0.0152289)
(0.0158883 -0.0538573 0.0152665)
(0.0169992 -0.0408639 0.0147172)
(0.0181355 -0.0271733 0.0136244)
(0.019247 -0.0128961 0.0120883)
(0.02029 0.00189648 0.0102602)
(0.0212171 0.0172131 0.00832289)
(0.0219806 0.0331396 0.00647247)
(0.0225343 0.0498133 0.00491259)
(0.0227997 0.0674104 0.00385721)
(0.0226501 0.0861909 0.00354279)
(0.0219342 0.106782 0.00426955)
(0.0205251 0.131376 0.00661084)
(0.0180154 0.168241 0.0123198)
(0.0125616 0.243108 0.0253693)
(0.00608889 0.343727 0.0380691)
(0.00178684 0.364648 0.032715)
(0.000515275 -0.178465 -0.00218603)
(0.00129406 -0.225979 -0.00824013)
(0.00200888 -0.231068 -0.0111135)
(0.00271098 -0.226971 -0.0130115)
(0.00345705 -0.217336 -0.0145185)
(0.00411667 -0.204332 -0.0154778)
(0.00467976 -0.190141 -0.0157115)
(0.00517942 -0.176273 -0.0151787)
(0.00564512 -0.163378 -0.0139477)
(0.00609617 -0.151552 -0.0121251)
(0.00654613 -0.140643 -0.0098172)
(0.00700523 -0.130433 -0.0071252)
(0.00748077 -0.120713 -0.00415601)
(0.00797763 -0.111308 -0.00103474)
(0.00850047 -0.102072 0.00209336)
(0.00905785 -0.092858 0.00507877)
(0.00966709 -0.0834871 0.00779393)
(0.0103547 -0.0737152 0.0101464)
(0.0111522 -0.0632472 0.0120632)
(0.0120857 -0.0517958 0.01346)
(0.0131609 -0.0391679 0.0142321)
(0.0143503 -0.0253235 0.0142828)
(0.0155892 -0.0103595 0.0135746)
(0.0167918 0.00555603 0.0121789)
(0.0179003 0.0222818 0.0102784)
(0.0188728 0.0397987 0.00812051)
(0.0196476 0.0582374 0.0059812)
(0.020151 0.0778684 0.00414807)
(0.0202798 0.0991632 0.00293221)
(0.0199043 0.123171 0.00272345)
(0.0188704 0.152999 0.00422406)
(0.0167017 0.198549 0.00929252)
(0.0113163 0.281921 0.0209885)
(0.00525605 0.371871 0.031008)
(0.00131531 0.376414 0.0266571)
(-0.000221574 -0.188148 -0.00301725)
(0.00126229 -0.241156 -0.00942929)
(0.00278142 -0.246093 -0.0122659)
(0.00423627 -0.241813 -0.0142089)
(0.0057464 -0.23207 -0.0159535)
(0.00703703 -0.218878 -0.0173334)
(0.00812941 -0.204174 -0.0180895)
(0.0090926 -0.189357 -0.0180797)
(0.00995815 -0.175167 -0.0172982)
(0.0107297 -0.161893 -0.015817)
(0.0114046 -0.149576 -0.0137365)
(0.0119839 -0.138137 -0.0111607)
(0.0124744 -0.127439 -0.00819096)
(0.0128873 -0.117324 -0.00493086)
(0.0132374 -0.10764 -0.00149549)
(0.0135426 -0.0982369 0.00198448)
(0.013828 -0.0889592 0.00537367)
(0.0141273 -0.0796014 0.00855613)
(0.0144826 -0.0698725 0.0114491)
(0.0149389 -0.0593938 0.0139842)
(0.0155359 -0.0477476 0.0160643)
(0.0162926 -0.0345586 0.0175217)
(0.0171949 -0.0196217 0.0181467)
(0.0181908 -0.00297635 0.0177835)
(0.0191745 0.0151565 0.0164376)
(0.0200295 0.0345486 0.0143051)
(0.0206808 0.0551337 0.0117174)
(0.0210568 0.0771028 0.00905923)
(0.021059 0.100975 0.00673182)
(0.0205554 0.12801 0.00518879)
(0.0193654 0.162031 0.00516317)
(0.0169823 0.21514 0.00855941)
(0.0112789 0.309945 0.0182843)
(0.005424 0.395358 0.025858)
(0.00166452 0.386228 0.0218557)
(0.000308355 -0.181013 0.00062255)
(0.00123989 -0.226025 -0.0036585)
(0.00221478 -0.229502 -0.00687301)
(0.00327753 -0.223967 -0.00981519)
(0.00446688 -0.212763 -0.0130604)
(0.00555064 -0.198539 -0.0162044)
(0.00651107 -0.183784 -0.0187355)
(0.00739022 -0.169887 -0.0203737)
(0.00821358 -0.157247 -0.0210698)
(0.00898557 -0.14579 -0.020888)
(0.0096999 -0.135304 -0.0199249)
(0.0103476 -0.125575 -0.0182784)
(0.0109214 -0.116412 -0.0160403)
(0.0114167 -0.107648 -0.0132959)
(0.0118312 -0.0991407 -0.0101305)
(0.0121639 -0.0907683 -0.0066414)
(0.0124215 -0.0824249 -0.0029481)
(0.0126228 -0.0739873 0.000817679)
(0.0128009 -0.0652677 0.00453855)
(0.0130042 -0.055973 0.00812551)
(0.0132915 -0.0456893 0.0114979)
(0.0137217 -0.0338968 0.0145237)
(0.014339 -0.0200647 0.0169631)
(0.0151424 -0.00381705 0.0184748)
(0.0160705 0.0149054 0.0187434)
(0.0170043 0.0358579 0.0176784)
(0.0177951 0.0587457 0.0155174)
(0.0183088 0.0835791 0.0127452)
(0.0184319 0.110993 0.00994191)
(0.0180513 0.142854 0.00773038)
(0.0169975 0.184376 0.00699854)
(0.0147428 0.249335 0.00969479)
(0.00928609 0.352529 0.0176896)
(0.0043866 0.423992 0.0226863)
(0.00157322 0.400428 0.0188318)
(-0.000212009 -0.189023 8.83212e-05)
(0.000934871 -0.236956 -0.00480737)
(0.00218736 -0.239947 -0.00784761)
(0.003499 -0.23368 -0.0105314)
(0.00495047 -0.221532 -0.0134955)
(0.00629652 -0.206224 -0.0164382)
(0.00756682 -0.190267 -0.0189475)
(0.00880893 -0.175106 -0.0207746)
(0.0100211 -0.161228 -0.0218443)
(0.0111753 -0.148643 -0.0221746)
(0.0122395 -0.137193 -0.0218183)
(0.0131903 -0.126686 -0.0208379)
(0.014012 -0.11693 -0.0192925)
(0.014687 -0.107737 -0.0172311)
(0.0152068 -0.0989347 -0.0147014)
(0.015566 -0.0903668 -0.0117367)
(0.0157696 -0.0819328 -0.00838512)
(0.0158355 -0.0735965 -0.00474837)
(0.015798 -0.0652587 -0.000937293)
(0.0157086 -0.0566883 0.00297273)
(0.0156348 -0.0475445 0.00692375)
(0.0156423 -0.0373354 0.0108541)
(0.0158038 -0.0253762 0.0146437)
(0.0161715 -0.0108576 0.0180158)
(0.0167504 0.00694461 0.0204788)
(0.0174537 0.0283522 0.0214597)
(0.018105 0.0531479 0.0206549)
(0.0184998 0.0809463 0.0183036)
(0.0184602 0.111969 0.0151006)
(0.0178446 0.148125 0.0119439)
(0.0164837 0.195626 0.0100065)
(0.0139332 0.270543 0.0115722)
(0.00856431 0.382934 0.0182792)
(0.00423013 0.445735 0.0216772)
(0.00188062 0.411652 0.0178443)
(0.000215275 -0.182307 0.000739164)
(0.000924761 -0.223517 -0.00335378)
(0.00175465 -0.225233 -0.00667378)
(0.00270863 -0.217971 -0.0100201)
(0.0038141 -0.20504 -0.0138961)
(0.00489978 -0.18973 -0.0177558)
(0.00598981 -0.174636 -0.0210392)
(0.0071254 -0.160832 -0.023497)
(0.00830585 -0.148418 -0.0251095)
(0.00949926 -0.137172 -0.0259418)
(0.0106622 -0.126853 -0.0260745)
(0.0117519 -0.117267 -0.0255848)
(0.0127272 -0.108233 -0.0245359)
(0.0135618 -0.0994714 -0.0229445)
(0.0142382 -0.0908093 -0.02081)
(0.0147304 -0.082281 -0.0181612)
(0.0150366 -0.0739271 -0.0150453)
(0.0151676 -0.0657451 -0.0115292)
(0.0151422 -0.0576947 -0.00770895)
(0.0149923 -0.0497073 -0.00371601)
(0.0147775 -0.0416147 0.000321973)
(0.0145662 -0.0328868 0.0044432)
(0.0144248 -0.0226998 0.0087555)
(0.0144402 -0.0101539 0.0131861)
(0.0146802 0.00582925 0.0173998)
(0.0151702 0.026335 0.0207203)
(0.0158125 0.0519792 0.0222951)
(0.0163517 0.0826283 0.0216531)
(0.0164802 0.118266 0.0191566)
(0.0159662 0.160972 0.0158527)
(0.0146222 0.217891 0.013301)
(0.0120877 0.304346 0.0140338)
(0.00722819 0.418606 0.0191737)
(0.00352098 0.470521 0.0212892)
(0.00166646 0.425979 0.0175719)
(-0.00027514 -0.186008 0.00210161)
(0.000255505 -0.226564 -0.00140787)
(0.00101709 -0.227379 -0.00454662)
(0.0019475 -0.219119 -0.007898)
(0.00306736 -0.204964 -0.0119244)
(0.00421778 -0.188561 -0.0160238)
(0.00543459 -0.172681 -0.0196191)
(0.0067428 -0.158353 -0.02247)
(0.00812103 -0.145585 -0.0245577)
(0.00952588 -0.134081 -0.0259367)
(0.0109082 -0.123553 -0.0266684)
(0.0122175 -0.113784 -0.0268089)
(0.0133942 -0.104588 -0.0264079)
(0.0144188 -0.095657 -0.0254862)
(0.0152699 -0.0868151 -0.0240271)
(0.0159191 -0.0781233 -0.0220316)
(0.0163644 -0.0696332 -0.0195177)
(0.0166105 -0.0613619 -0.0165222)
(0.0166646 -0.0532917 -0.0131058)
(0.0165365 -0.0453717 -0.00936)
(0.0162511 -0.0375213 -0.0054155)
(0.0158774 -0.0295121 -0.00137104)
(0.0154783 -0.020696 0.00287328)
(0.0151309 -0.0100763 0.00747723)
(0.0149432 0.00352183 0.0123806)
(0.0149997 0.0216971 0.01719)
(0.0153046 0.0462751 0.0209997)
(0.0156878 0.0784111 0.0225674)
(0.0157925 0.118039 0.0212976)
(0.0152211 0.166396 0.0179729)
(0.0136812 0.230776 0.0146743)
(0.010953 0.326535 0.0150601)
(0.00650348 0.443537 0.0201239)
(0.00323835 0.489511 0.0217339)
(0.00157074 0.436014 0.0176937)
(-9.12024e-05 -0.179923 0.00238673)
(2.36345e-05 -0.215236 -0.000786941)
(0.000373064 -0.214946 -0.00405241)
(0.000925216 -0.205762 -0.0078445)
(0.00166382 -0.191073 -0.0124174)
(0.00252993 -0.174979 -0.0169337)
(0.00356048 -0.160027 -0.0207772)
(0.00476462 -0.146808 -0.0237942)
(0.006112 -0.135066 -0.0260482)
(0.0075528 -0.124416 -0.0276364)
(0.00902963 -0.114559 -0.0286352)
(0.0104764 -0.105279 -0.029101)
(0.0118332 -0.0963335 -0.0290754)
(0.0130726 -0.0874743 -0.0285767)
(0.0141491 -0.0786555 -0.0275857)
(0.0150278 -0.0699636 -0.026089)
(0.0156952 -0.0614579 -0.0240834)
(0.0161418 -0.0531731 -0.02158)
(0.0163637 -0.045115 -0.0186091)
(0.016362 -0.0372573 -0.0152269)
(0.0161424 -0.0295399 -0.0115216)
(0.0157414 -0.0218623 -0.00762044)
(0.0152379 -0.0138431 -0.00354039)
(0.0146783 -0.00462347 0.000915973)
(0.0141606 0.00701923 0.00595218)
(0.013808 0.022712 0.0115027)
(0.0137234 0.0449715 0.0170501)
(0.0138977 0.0769163 0.0212583)
(0.0140495 0.120522 0.0223605)
(0.0136574 0.177005 0.0198414)
(0.0122327 0.252226 0.0153242)
(0.00950092 0.356875 0.0130017)
(0.00547086 0.469663 0.0158325)
(0.00254024 0.508712 0.0169667)
(0.00105294 0.446745 0.013774)
(-0.000440443 -0.178494 0.004858)
(-0.000567081 -0.210744 0.00269282)
(-0.000472551 -0.20943 -0.000350923)
(-0.000152211 -0.199207 -0.00427785)
(0.000377119 -0.183495 -0.00921422)
(0.00108152 -0.166906 -0.0141284)
(0.00201545 -0.151963 -0.0183287)
(0.00316891 -0.139 -0.0216793)
(0.00450089 -0.12758 -0.0242733)
(0.00595985 -0.11723 -0.0262269)
(0.00748874 -0.107614 -0.0276239)
(0.00901844 -0.098497 -0.0285219)
(0.0104981 -0.0896066 -0.0289658)
(0.0118988 -0.0807245 -0.0289764)
(0.0131664 -0.0718454 -0.0285336)
(0.0142629 -0.063047 -0.0276174)
(0.0151622 -0.0543903 -0.0262156)
(0.0158404 -0.0459201 -0.0243263)
(0.0162786 -0.0376611 -0.021962)
(0.0164647 -0.0296141 -0.0191547)
(0.0163918 -0.0217511 -0.0159622)
(0.0160636 -0.0140123 -0.0124745)
(0.0155446 -0.00624822 -0.00879566)
(0.0148807 0.00223588 -0.0047832)
(0.0141185 0.0126218 -0.000121902)
(0.0133629 0.0263274 0.00530847)
(0.0127374 0.0459096 0.0114056)
(0.0123448 0.0756628 0.0173621)
(0.0121129 0.120408 0.0210528)
(0.0116193 0.182822 0.0204596)
(0.0103006 0.267512 0.0163645)
(0.00782386 0.381198 0.0127097)
(0.00456808 0.493001 0.0129543)
(0.00224616 0.527989 0.0129778)
(0.000960304 0.45489 0.0100413)
(-0.000497063 -0.17283 0.00616021)
(-0.000892272 -0.20068 0.0044954)
(-0.00115594 -0.198269 0.00146867)
(-0.00124368 -0.186945 -0.00283457)
(-0.00110084 -0.170644 -0.00823509)
(-0.000686355 -0.154362 -0.0134535)
(3.09863e-05 -0.140203 -0.0178077)
(0.00103443 -0.128085 -0.0212515)
(0.00227455 -0.117402 -0.023933)
(0.00369431 -0.107648 -0.0259916)
(0.00523361 -0.0984866 -0.027522)
(0.0068127 -0.0896878 -0.0285879)
(0.00839528 -0.080963 -0.029248)
(0.00994472 -0.0721558 -0.0295136)
(0.0114006 -0.0633247 -0.029359)
(0.0127284 -0.0545273 -0.0287629)
(0.0138942 -0.0458136 -0.0277114)
(0.0148638 -0.0372261 -0.0261991)
(0.0156068 -0.0287965 -0.0242313)
(0.0160987 -0.0205426 -0.0218286)
(0.0163197 -0.0124645 -0.0190334)
(0.0162555 -0.00454324 -0.0159171)
(0.0159291 0.00327678 -0.0125877)
(0.0153849 0.0115409 -0.00894893)
(0.0146474 0.0212597 -0.00470512)
(0.013799 0.0336717 0.000368615)
(0.0129526 0.051059 0.00643503)
(0.0122293 0.0780608 0.0133138)
(0.0116901 0.122095 0.0193342)
(0.0110771 0.189233 0.0209949)
(0.00982942 0.282734 0.0167657)
(0.00746582 0.403298 0.0106719)
(0.00434588 0.511395 0.00874801)
(0.00215082 0.54262 0.00804596)
(0.000770517 0.465254 0.00564872)
(-0.000770906 -0.168491 0.00899172)
(-0.00144189 -0.19252 0.00823235)
(-0.00206778 -0.188858 0.00542233)
(-0.0025578 -0.176023 0.000862458)
(-0.00277695 -0.158746 -0.00498241)
(-0.00263957 -0.142533 -0.0105853)
(-0.00214209 -0.128993 -0.015256)
(-0.00131666 -0.117594 -0.0190017)
(-0.000213154 -0.107561 -0.0219909)
(0.0011113 -0.0983546 -0.0243598)
(0.00258997 -0.0896277 -0.0261997)
(0.00415964 -0.0810874 -0.0275843)
(0.00579062 -0.0724985 -0.0285724)
(0.0074297 -0.0638083 -0.0291535)
(0.00902998 -0.0550657 -0.029301)
(0.0105539 -0.0463093 -0.0289979)
(0.0119603 -0.0375761 -0.0282353)
(0.0132076 -0.0289012 -0.0270117)
(0.0142577 -0.0203162 -0.0253345)
(0.0150776 -0.0118463 -0.0232232)
(0.015639 -0.00350798 -0.0207149)
(0.0159178 0.00469031 -0.0178727)
(0.0159041 0.0127603 -0.0147951)
(0.0156253 0.0211179 -0.0114279)
(0.0150927 0.0306169 -0.0075322)
(0.0143479 0.0423705 -0.00284911)
(0.0134618 0.0583878 0.00291049)
(0.0125172 0.0831172 0.0100004)
(0.0115922 0.12537 0.0176903)
(0.0106209 0.195497 0.0226022)
(0.00920587 0.297392 0.0209063)
(0.00707816 0.426584 0.012249)
(0.00430967 0.535644 0.00493677)
(0.00216462 0.565169 0.00245502)
(0.000686033 0.475334 0.00167561)
(-0.000989263 -0.162871 0.00951597)
(-0.00186085 -0.183164 0.0090932)
(-0.00280537 -0.178268 0.00651088)
(-0.00369065 -0.163949 0.00193421)
(-0.00424591 -0.146083 -0.00384292)
(-0.00436768 -0.130279 -0.00926766)
(-0.00408755 -0.117482 -0.0137961)
(-0.00345236 -0.106802 -0.0175067)
(-0.00251094 -0.0973788 -0.0205651)
(-0.00131832 -0.0886753 -0.0230818)
(5.08904e-05 -0.0803541 -0.025123)
(0.00156347 -0.0720849 -0.0267664)
(0.0031883 -0.063698 -0.0280299)
(0.00486996 -0.0552197 -0.0288703)
(0.00657314 -0.0466665 -0.0292565)
(0.00825578 -0.0380556 -0.02917)
(0.00987044 -0.0294089 -0.0286035)
(0.0113693 -0.0207524 -0.0275591)
(0.0127077 -0.0121139 -0.0260478)
(0.0138463 -0.00352007 -0.024091)
(0.0147506 0.005006 -0.0217245)
(0.0153899 0.0134434 -0.0190072)
(0.0157388 0.0217776 -0.0160325)
(0.0158164 0.0302853 -0.0127994)
(0.0156285 0.0397173 -0.00911758)
(0.0151911 0.0511943 -0.00468604)
(0.0145282 0.0665555 0.000826596)
(0.0136625 0.0899392 0.0078178)
(0.0125918 0.130539 0.0160632)
(0.0112478 0.202157 0.0226824)
(0.00917099 0.310387 0.0242935)
(0.0063203 0.446458 0.0204547)
(0.00343334 0.556151 0.0140759)
(0.00144952 0.583714 0.010279)
(0.000364209 0.489082 0.00726629)
(-0.00120541 -0.157274 0.0112496)
(-0.00222441 -0.174042 0.0113855)
(-0.00347074 -0.167847 0.00900011)