/*--------------------------------*- C++ -*----------------------------------*\
| =========                 |                                                 |
| \\      /  F ield         | OpenFOAM: The Open Source CFD Toolbox           |
|  \\    /   O peration     | Version:  v2006                                 |
|   \\  /    A nd           | Website:  www.openfoam.com                      |
|    \\/     M anipulation  |                                                 |
\*---------------------------------------------------------------------------*/
FoamFile
{
    version     2.0;
    format      ascii;
    class       volScalarField;
    location    "5";
    object      omega;
}
// * * * * * * * * * * * * * * * * * * * * * * * * * * * * * * * * * * * * * //

dimensions      [0 0 -1 0 0 0 0];


internalField   nonuniform List<scalar> 
78750
(
2310.71
341.221
233.516
131.605
34.7597
20.3442
18.513
15.2015
17.8045
17.1004
16.0399
17.4341
16.5846
16.8196
16.7156
16.6938
16.6433
16.6081
16.5672
16.5279
16.4919
16.4567
16.4222
16.3872
16.3502
16.3091
16.2604
16.1995
16.12
16.0127
15.8637
15.6537
15.3516
14.8656
501.071
703.225
28.8076
17.6537
16.1303
4.26796
8.45644
7.05042
8.2559
7.98083
8.22268
8.3602
8.43396
8.53432
8.60541
8.65587
8.68333
8.69366
8.69412
8.69319
8.69697
8.70903
8.73104
8.76307
8.80427
8.85327
8.90829
8.96677
9.02479
9.0766
9.11451
9.12811
9.09571
8.92325
8.07575
741.267
453.591
8.04722
4.34434
4.18855
4.27214
4.21285
5.02653
4.77222
5.37363
5.55244
5.88512
6.06667
6.2597
6.41797
6.55895
6.6841
6.79782
6.90205
6.99736
7.08525
7.16886
7.25251
7.34071
7.43787
7.5476
7.67207
7.81135
7.96329
8.12377
8.28792
8.45272
8.6205
8.80132
9.12283
745.42
442.158
4.83895
4.9195
5.0497
5.26841
5.97874
6.21166
5.77462
4.98627
5.14875
5.60263
5.97986
6.26991
6.50606
6.69065
6.84057
6.97735
7.10973
7.23513
7.35139
7.45943
7.56143
7.66019
7.75972
7.86544
7.98228
8.11264
8.25571
8.40745
8.56172
8.70336
8.78629
8.65888
8.83493
747.555
443.888
5.59712
5.11371
4.8331
5.0815
5.6136
6.03627
6.23729
6.28268
6.25801
6.29174
6.35128
6.4218
6.49315
6.5655
6.63812
6.70876
6.77649
6.84228
6.90845
6.97853
7.05714
7.14924
7.25955
7.39221
7.55072
7.73792
7.9558
8.20475
8.48291
8.7829
9.09922
9.5363
10.5876
750.831
441.797
4.91481
5.32594
5.38086
5.14172
4.85137
4.67728
4.61354
4.7637
5.11019
5.45356
5.72327
5.93629
6.11933
6.28649
6.44223
6.58767
6.72391
6.85228
6.97454
7.09254
7.20799
7.32208
7.43582
7.55056
7.66876
7.79537
7.94147
8.12585
8.36201
8.64048
8.87588
9.06434
10.4982
752.552
442.208
5.9174
6.43188
6.62237
6.50937
6.12673
5.67514
5.41267
5.37042
5.44565
5.57268
5.72405
5.88887
6.05821
6.22779
6.39578
6.56173
6.72559
6.88698
7.04501
7.20134
7.35859
7.51551
7.66952
7.81853
7.96038
8.09446
8.22981
8.38171
8.58148
8.89596
9.39969
10.0605
11.778
755.007
442.891
6.94607
7.88429
8.22484
8.25998
7.99672
7.3533
6.5424
5.85339
5.45775
5.30866
5.29029
5.33734
5.42935
5.56195
5.72787
5.91934
6.13159
6.35995
6.59941
6.84369
7.08485
7.32127
7.55903
7.79893
8.03335
8.25672
8.46375
8.64422
8.78469
8.8887
9.11054
9.96896
12.196
756.625
442.98
8.31957
9.5372
10.1441
10.4528
10.5346
10.4156
10.0302
9.39925
8.733
8.10159
7.5075
6.9539
6.45357
6.02972
5.7133
5.53119
5.4962
5.6003
5.81332
6.09365
6.40668
6.73132
7.05944
7.39222
7.73364
8.08885
8.45886
8.8384
9.21294
9.5489
9.85267
10.7481
13.2404
758.416
443.699
9.99925
11.5054
12.3195
12.8599
13.2288
13.4582
13.5527
13.4943
13.2686
12.8912
12.3928
11.796
11.1135
10.352
9.51716
8.61941
7.67561
6.73693
5.92857
5.4569
5.4953
5.89665
6.37464
6.81444
7.21337
7.58182
7.93378
8.28541
8.66431
9.12825
9.79627
11.0163
13.6625
759.563
442.733
9.69077
11.5548
12.7016
13.4281
13.8645
14.1103
14.2264
14.2468
14.1866
14.0487
13.8336
13.5482
13.2094
12.8386
12.4461
12.012
11.4871
10.8047
9.88782
8.66144
7.07618
5.41822
4.77146
5.55169
6.57843
7.37353
7.99289
8.50884
8.95798
9.36643
9.92317
11.4566
14.4276
761.233
443.347
10.0701
12.0453
13.1087
13.6586
13.8799
13.8745
13.6901
13.343
12.8364
12.1824
11.4209
10.6211
9.89992
9.4241
9.33508
9.58054
9.95328
10.2608
10.3798
10.252
9.8452
9.16469
7.95247
6.51924
5.78249
6.26174
7.08224
7.83774
8.58973
9.39271
10.3689
12.152
15.069
762.523
447.099
12.7622
14.2812
14.8105
14.9173
14.7915
14.4804
13.9786
13.2598
12.2881
11.063
9.61642
7.91945
6.00276
4.34341
4.26206
5.52497
6.73229
7.44881
7.63162
7.13167
6.03017
4.79565
4.36125
4.04539
5.29445
6.3846
7.06274
7.62754
8.2816
9.022
10.1053
12.4095
15.7146
764.342
449.956
13.9018
14.5359
14.7757
14.9118
14.9512
14.8726
14.6412
14.2287
13.6498
12.9514
12.1112
11.0055
9.53596
7.91022
6.60179
5.77315
5.3784
5.38227
5.72551
5.95163
6.23221
6.45759
6.79905
7.18361
7.68814
8.14301
8.56402
9.01931
9.56135
10.2609
11.3876
13.8373
16.9243
765.146
444.641
11.1288
12.8761
14.1022
14.9451
15.5738
16.1028
16.5745
16.9857
17.2978
17.4531
17.4072
17.1526
16.7117
16.0796
15.2005
14.022
12.5237
10.7126
8.61298
6.3157
4.10401
4.60976
4.30793
5.52417
6.66395
7.63165
8.44119
9.10545
9.69044
10.3535
11.7943
14.735
17.5802
765.159
444.893
11.4548
13.6603
14.7511
15.3009
15.5684
15.6576
15.6069
15.44
15.189
14.9075
14.6793
14.6116
14.7902
15.2171
15.792
16.3533
16.7491
16.854
16.5395
15.6531
14.054
11.2783
7.07609
4.63247
4.55459
4.13992
5.38219
7.37388
8.99111
10.3814
12.1132
15.1799
17.9237
765.964
451.07
15.0279
16.2358
16.5974
16.7526
16.825
16.8335
16.7678
16.6019
16.3013
15.8369
15.2073
14.4618
13.6935
12.9988
12.4572
12.1387
12.0779
12.2284
12.4589
12.5562
12.1901
10.906
8.13459
4.34678
4.37601
3.90048
4.83414
5.80525
7.95691
9.85642
12.2461
15.6964
18.4693
767.339
451.169
13.7613
14.7765
15.3595
15.7895
16.144
16.4457
16.7024
16.9185
17.0955
17.2246
17.2739
17.1809
16.8649
16.2594
15.3395
14.1387
12.7715
11.4341
10.3403
9.59451
9.03373
8.18564
6.15515
4.62759
3.79367
4.34009
4.0943
5.51118
7.46417
10.2247
12.8604
16.2601
18.9931
768.432
450.367
13.5469
15.124
15.8712
16.2866
16.5373
16.6607
16.6651
16.5583
16.3634
16.1337
15.9514
15.8782
15.8877
15.8782
15.7435
15.4057
14.8119
13.9191
12.6753
11.1123
9.44441
7.87667
6.25233
4.98144
4.8294
3.7596
4.29154
4.01376
5.33965
9.16111
12.5792
16.4788
19.3574
769.432
454.825
15.7349
16.6321
17.0316
17.3114
17.5241
17.6697
17.7362
17.7065
17.5634
17.2965
16.9101
16.4332
15.9194
15.424
14.9752
14.565
14.1591
13.7055
13.1305
12.3095
11.1078
9.45426
7.3302
4.54499
4.64173
3.88558
4.02637
4.367
4.12053
9.35748
13.4097
16.9804
19.7236
770.188
452.742
14.0441
15.1334
15.7142
16.1189
16.4486
16.7286
16.9664
17.1632
17.3155
17.4129
17.4374
17.3623
17.162
16.8253
16.3644
15.8095
15.1948
14.5458
13.8725
13.1624
12.3633
11.3832
10.1158
8.3962
5.60324
4.30414
4.38423
3.71001
5.57423
7.87212
13.1185
17.2766
20.1173
771.403
453.674
14.9888
16.16
16.7088
17.0684
17.3354
17.5196
17.6171
17.6235
17.543
17.3923
17.1975
16.9847
16.7662
16.5354
16.2731
15.9571
15.5696
15.1
14.5445
13.8997
13.1545
12.2824
11.2631
10.046
8.38384
5.41084
3.99607
4.15316
5.813
7.79955
12.6592
17.2336
20.3152
772.5
455.368
15.4006
16.2721
16.7216
17.0649
17.3638
17.6258
17.8441
18.0046
18.0904
18.0853
17.9784
17.7697
17.4725
17.1124
16.7179
16.3089
15.8933
15.4693
15.0316
14.5694
14.0472
13.4219
12.6708
11.7787
10.7328
9.12144
6.11127
4.72959
5.62435
8.09419
13.2623
17.4865
20.5598
773.716
454.109
14.5681
15.5989
16.1311
16.5057
16.8156
17.0822
17.3129
17.5096
17.6699
17.7874
17.8513
17.8478
17.7639
17.5914
17.3306
16.9909
16.5893
16.1473
15.6857
15.2094
14.6915
14.0998
13.4184
12.6302
11.7514
10.5796
7.78727
3.92111
5.65597
7.77496
13.4056
18.105
21.3028
775.289
455.37
15.3942
16.3855
16.8837
17.2435
17.541
17.786
17.9751
18.1017
18.162
18.1581
18.0971
17.9885
17.8396
17.653
17.4281
17.1621
16.8539
16.5075
16.1296
15.7081
15.2229
14.6644
14.0252
13.2972
12.4768
11.4589
9.63056
5.84755
5.48507
9.00199
14.3957
18.4036
21.3733
775.375
455.418
15.0969
16.0187
16.5087
16.8784
17.2059
17.5077
17.7854
18.0317
18.2331
18.3744
18.4429
18.4326
18.3438
18.1827
17.9583
17.6809
17.359
17.0021
16.6237
16.2158
15.7574
15.235
14.6347
13.9361
13.1106
12.136
10.5685
6.2754
4.37272
8.55542
13.6169
18.1746
21.2776
775.367
455.22
15.0338
16.04
16.56
16.9329
17.247
17.5221
17.7658
17.9812
18.1694
18.3281
18.4515
18.5308
18.557
18.5226
18.4235
18.2584
18.0283
17.7375
17.3895
16.9884
16.5311
16.0071
15.3992
14.6624
13.7039
12.347
10.0572
6.20482
6.79971
13.3562
17.9905
20.2048
22.6131
775.391
456.189
15.4072
16.3623
16.8664
17.2396
17.5617
17.8478
18.0989
18.3113
18.481
18.6079
18.6952
18.7478
18.7694
18.7608
18.7206
18.6451
18.5297
18.3688
18.156
17.8816
17.5355
17.1029
16.5672
15.9048
15.0804
14.0278
12.6282
10.4533
6.96962
7.81129
16.8886
21.22
23.317
767.199
456.857
15.3263
16.218
16.7081
17.0779
17.4058
17.7104
17.9969
18.2628
18.5005
18.7011
18.8581
18.9697
19.0381
19.0681
19.0644
19.0301
18.9666
18.8731
18.7474
18.5853
18.38
18.1221
17.8044
17.4264
17.0143
16.5303
15.7357
15.189
14.8319
12.6582
9.13378
10.2626
12.345
765.482
457.659
15.5626
16.4445
16.924
17.2828
17.5973
17.8854
18.1522
18.3966
18.6157
18.8056
18.9626
19.0839
19.1683
19.2163
19.2287
19.2051
19.1428
19.0364
18.8778
18.6552
18.3524
17.9369
17.3676
16.7764
16.4045
16.3684
13.9211
11.3794
11.9389
6.99999
4.468
16.2465
23.1199
796.468
458.434
15.7969
16.587
17.0246
17.3682
17.6823
17.979
18.257
18.509
18.7277
18.9091
19.0521
19.157
19.2237
19.252
19.2396
19.1785
19.0554
18.8504
18.5339
18.0629
17.3531
16.2203
14.3323
11.7753
12.0255
17.0441
20.3605
20.078
18.4375
16.9401
18.2563
21.6329
24.5397
780.648
459.013
15.85
16.5738
16.9858
17.3163
17.6245
17.9208
18.2041
18.4671
18.7007
18.8976
19.0553
19.1752
19.2606
19.3142
19.3369
19.3278
19.2839
19.1992
19.0627
18.8486
18.5123
17.9778
17.1226
15.8067
14.2307
14.0474
15.9453
17.8979
19.4411
20.8402
22.3675
24.013
24.4848
751.911
459.854
16.0094
16.6872
17.0804
17.3994
17.6965
17.98
18.2485
18.4967
18.7186
18.9082
19.0618
19.1792
19.2622
19.3133
19.3341
19.3253
19.2868
19.2191
19.1234
19.004
18.8681
18.7098
18.5556
18.4806
17.9507
16.7568
14.8671
12.819
12.7739
15.8823
18.9961
20.6804
18.9306
745.099
460.647
16.1587
16.7558
17.1151
17.4205
17.7124
17.9928
18.2539
18.4862
18.6832
18.8412
18.9587
19.036
19.0737
19.0714
19.0267
18.9346
18.7879
18.5849
18.3324
18.0403
17.7014
17.2419
16.6024
18.3791
21.0324
21.8763
21.3873
19.9033
17.7507
16.0986
15.8785
15.9246
15.12
763.146
461.065
16.1664
16.718
17.0638
17.366
17.659
17.9413
18.2031
18.434
18.6262
18.7769
18.8871
18.9597
18.997
19.0002
18.968
18.8953
18.7718
18.5798
18.2941
17.8815
17.3106
16.6735
16.6364
18.3436
21.1535
23.1165
23.9634
23.7936
22.7886
20.7356
17.6096
16.6437
18.8047
773.779
461.949
16.2539
16.754
17.0843
17.3798
17.6659
17.9395
18.1925
18.4151
18.5977
18.7341
18.8243
18.8719
18.8813
18.8564
18.8011
18.7202
18.6203
18.5101
18.4016
18.3121
18.2434
18.1272
17.8399
17.353
16.9627
16.9838
17.8363
19.6974
21.0375
20.6401
19.0475
19.2352
21.4688
774.994
462.926
16.2921
16.7396
17.0604
17.3578
17.646
17.9167
18.1589
18.363
18.5199
18.6225
18.6688
18.6607
18.6011
18.4935
18.3421
18.155
17.9443
17.7251
17.531
17.4837
17.6551
17.7935
17.8756
18.0469
17.9203
17.2389
16.4415
17.048
19.3271
20.5876
20.7771
21.2496
22.2083
769.588
463.139
16.2113
16.6627
16.9929
17.3013
17.5994
17.8772
18.1207
18.317
18.4547
18.5236
18.5173
18.4318
18.2644
18.0147
17.688
17.2997
16.8597
16.3565
15.9329
16.6235
19.158
21.0459
21.5329
21.4503
21.0572
20.34
19.3581
18.7114
19.4974
20.7367
21.0936
21.0613
20.9506
766.328
462.792
16.1287
16.6062
16.9445
17.2569
17.5565
17.8358
18.0844
18.2918
18.4455
18.5317
18.5375
18.4499
18.2538
17.9331
17.4768
16.8758
16.0861
15.0654
14.4045
16.0224
19.5271
21.8385
22.4498
22.5595
22.4025
21.9114
20.9259
19.4646
18.5048
19.1729
20.2106
20.8318
21.7335
773.76
462.044
16.0047
16.5168
16.8713
17.1978
17.5075
17.791
18.0413
18.2556
18.4284
18.5493
18.6062
18.5841
18.4606
18.2022
17.7638
17.0936
16.132
14.7888
13.1916
12.8198
15.7188
19.5921
21.8118
22.6554
22.7915
22.3497
21.136
19.2631
18.0949
18.9349
20.2386
21.2324
22.3935
769.692
460.927
15.8685
16.4222
16.7931
17.1358
17.4639
17.7645
18.0281
18.2559
18.4505
18.6072
18.717
18.7699
18.7528
18.6443
18.4071
17.9797
17.2707
16.1583
14.5127
12.3607
10.8663
12.3946
15.6907
18.5471
20.5403
21.6096
21.7685
21.2314
20.6689
20.7478
20.9942
21.0137
20.5395
755.222
460.178
15.7573
16.3176
16.6932
17.0476
17.3958
17.7216
18.0097
18.258
18.4719
18.6556
18.8079
18.924
18.998
19.0224
18.986
18.8704
18.6415
18.2398
17.5671
16.4808
14.8454
12.7672
11.0144
10.6975
12.0078
14.0898
16.1428
17.7772
18.9094
19.5966
19.7961
19.4379
18.1092
748.236
459.702
15.6487
16.2194
16.6059
16.9729
17.3369
17.6818
17.9928
18.2667
18.5077
18.7191
18.9014
19.0533
19.1731
19.2585
19.3058
19.3121
19.2729
19.1796
19.0144
18.7471
18.3272
17.6806
16.7325
15.4722
14.0411
12.7623
12.0443
12.1639
13.0006
14.1095
15.0413
15.6171
15.5576
746.652
459.871
15.6048
16.1423
16.5233
16.8984
17.2816
17.6503
17.9812
18.2678
18.5166
18.7363
18.9314
19.1017
19.2459
19.3626
19.4507
19.5106
19.543
19.548
19.5234
19.4654
19.3675
19.2192
19.0033
18.6908
18.2432
17.6328
16.8837
16.0611
15.2194
14.4589
14.1867
14.4255
13.9155
747.293
460.212
15.5042
16.0057
16.3808
16.7616
17.1632
17.5623
17.9295
18.2495
18.5227
18.7557
18.9545
19.1221
19.259
19.3656
19.4422
19.4912
19.5143
19.5133
19.4901
19.4476
19.3888
19.3167
19.2336
19.1411
19.0412
18.9019
18.5972
18.1497
17.75
17.3861
16.866
15.679
14.302
756.46
460.456
15.4488
15.9257
16.2896
16.6677
17.078
17.4935
17.876
18.2064
18.4854
18.7207
18.9177
19.0778
19.1995
19.2813
19.324
19.3281
19.293
19.2181
19.1058
18.9628
18.7993
18.6298
18.4681
18.3129
18.1747
18.6684
19.6329
20.1294
19.984
19.3273
18.3464
17.672
18.3848
766.247
460.536
15.349
15.7766
16.1075
16.4706
16.8953
17.3513
17.7805
18.1467
18.4456
18.6872
18.8814
19.0328
19.1405
19.2023
19.217
19.1808
19.0859
18.9255
18.697
18.4055
18.0703
17.7135
17.278
16.9513
18.1688
20.6398
21.7768
21.7023
21.0783
20.0749
19.2045
19.1432
19.9829
765.751
460.208
15.2459
15.6464
15.9334
16.2511
16.6518
17.1199
17.587
17.9968
18.3334
18.6032
18.8167
18.9814
19.1007
19.1741
19.198
19.1671
19.0715
18.8981
18.6351
18.2771
17.8122
17.1833
16.3697
15.7821
16.5843
19.224
21.5874
22.3367
22.1065
21.3454
20.4301
19.819
19.529
759.371
460.101
15.2881
15.649
15.8791
16.1327
16.4838
16.9423
17.433
17.8778
18.2466
18.5426
18.7786
18.9653
19.1093
19.2126
19.2731
19.2873
19.2482
19.1445
18.9601
18.6731
18.257
17.6848
16.9262
15.996
15.256
15.6701
17.4259
19.2723
20.5474
21.0347
20.7946
20.1574
19.1748
755.275
460.027
15.3234
15.6563
15.8341
16.0121
16.2815
16.7014
17.2126
17.7071
18.1276
18.4691
18.7436
18.9636
19.138
19.2724
19.3699
19.4301
19.4494
19.4234
19.3426
19.1935
18.9575
18.6105
18.1232
17.4648
16.6234
15.7204
15.1821
15.408
16.3083
17.5183
18.5721
18.9413
18.5925
754.892
460.52
15.5757
15.9063
16.06
16.1786
16.3424
16.6523
17.1086
17.5994
18.0413
18.4123
18.7181
18.9695
19.1749
19.3404
19.4705
19.5681
19.6345
19.6683
19.666
19.6195
19.5217
19.3618
19.1259
18.7948
18.3428
17.7463
17.0134
16.2406
15.6292
15.4054
15.7397
16.6867
17.3382
755.813
461.343
15.7956
16.1111
16.2679
16.3802
16.5071
16.7585
17.1698
17.6382
18.0717
18.4422
18.7528
19.0125
19.2289
19.4076
19.553
19.669
19.7579
19.8203
19.8559
19.8631
19.8389
19.7795
19.6801
19.5297
19.3159
19.0228
18.6323
18.1322
17.5368
16.8839
16.1893
15.6939
16.4396
758.009
462.616
16.0432
16.301
16.4504
16.5709
16.7005
16.9289
17.3029
17.739
18.1514
18.5105
18.8163
19.0751
19.2924
19.4725
19.6195
19.7373
19.8295
19.8981
19.944
19.9673
19.9671
19.9419
19.8889
19.8043
19.6827
19.5166
19.2962
19.0055
18.6237
18.1251
17.3051
16.1697
16.9452
762.358
463.881
16.1902
16.3646
16.504
16.6617
16.8678
17.1564
17.5286
17.9232
18.2907
18.6158
18.8985
19.1412
19.3461
19.5151
19.6509
19.7571
19.8371
19.8934
19.9271
19.9389
19.9291
19.8975
19.8428
19.7624
19.6525
19.5096
19.3311
19.119
18.8725
18.5157
17.8459
17.5908
18.9838
766.762
464.744
16.2254
16.3032
16.4023
16.5695
16.8535
17.2383
17.6578
18.0522
18.4019
18.7076
18.9733
19.2014
19.3925
19.5471
19.6667
19.754
19.8123
19.8437
19.8479
19.8252
19.7768
19.7046
19.6071
19.4781
19.3094
19.0965
18.866
18.7557
18.8134
18.7323
18.551
19.1284
20.582
768.7
465.207
16.225
16.2359
16.2993
16.4663
16.8062
17.2559
17.7043
18.1011
18.4451
18.7446
19.0047
19.2275
19.4134
19.5619
19.6733
19.7506
19.7966
19.8108
19.7918
19.7391
19.6528
19.534
19.3782
19.1678
18.8844
18.5361
18.2242
18.3389
18.9746
19.2467
19.3773
19.9611
20.9917
767.581
465.094
16.1306
16.1069
16.1385
16.2899
16.6691
17.1829
17.6724
18.0884
18.4416
18.7461
19.0089
19.2327
19.4187
19.5671
19.6778
19.753
19.7947
19.8017
19.7721
19.7042
19.5965
19.4478
19.2413
18.9508
18.5655
18.0899
17.6247
17.696
18.8701
19.7856
20.019
20.3009
20.7946
765.112
464.956
16.075
16.0247
16.0187
16.1195
16.4809
17.0257
17.555
18.0026
18.3798
18.7033
18.9814
19.2173
19.4131
19.5704
19.6905
19.7746
19.8242
19.8395
19.8189
19.7607
19.6627
19.5146
19.3003
19.0043
18.6081
18.0864
17.4569
17.058
17.8625
19.5511
20.2018
20.3985
20.557
763.166
464.7
15.9881
15.9271
15.8988
15.958
16.2889
16.8449
17.4037
17.8806
18.2837
18.6302
18.9286
19.1821
19.3926
19.5623
19.6935
19.7889
19.8499
19.8775
19.8722
19.8335
19.7592
19.6438
19.4787
19.251
18.9395
18.509
17.9191
17.2179
16.9627
18.1296
19.4434
19.9058
20.1145
762.653
464.594
15.9414
15.8581
15.7965
15.8
16.0846
16.6386
17.221
17.7257
18.1559
18.5287
18.852
19.1286
19.3594
19.5464
19.6922
19.7995
19.871
19.9089
19.9155
19.8923
19.8399
19.7574
19.6428
19.4928
19.2989
19.034
18.6442
18.0681
17.3626
17.1879
18.1201
18.8927
19.5369
764.163
464.509
15.8889
15.7855
15.6924
15.6431
15.8861
16.4419
17.0454
17.5725
18.0247
18.4199
18.7661
19.0646
19.3153
19.519
19.6777
19.794
19.8711
19.9118
19.9193
19.8968
19.847
19.7712
19.6707
19.5518
19.4306
19.3141
19.1502
18.8225
18.2287
17.4939
17.4871
18.3516
19.6391
767.075
464.503
15.864
15.7384
15.61
15.4945
15.6688
16.2082
16.8313
17.3845
17.8623
18.2835
18.6566
18.9822
19.2584
19.4838
19.6589
19.7871
19.8711
19.9118
19.9113
19.8744
19.8067
19.7089
19.579
19.4271
19.2988
19.2693
19.3111
19.2237
18.8234
18.1038
17.8111
18.7022
20.2454
768.54
464.52
15.8424
15.6937
15.5338
15.3643
15.4833
15.9955
16.6173
17.1808
17.6741
18.1154
18.5131
18.867
19.1735
19.4288
19.6313
19.7835
19.8856
19.9358
19.9346
19.8853
19.7939
19.6604
19.4759
19.2446
19.0314
18.9921
19.1892
19.3433
19.1739
18.7005
18.5383
19.2448
20.4593
767.028
464.59
15.8333
15.656
15.4578
15.2206
15.2749
15.7704
16.3969
16.9683
17.4712
17.9262
18.3436
18.7236
19.0628
19.3555
19.5964
19.7847
19.9197
19.998
20.0175
19.9786
19.884
19.7297
19.5025
19.1991
18.8639
18.673
18.8518
19.2172
19.334
19.169
19.1364
19.5344
20.2487
764.602
464.605
15.8218
15.6328
15.413
15.117
15.0746
15.5219
16.1426
16.7192
17.2295
17.6955
18.1298
18.5342
18.9049
19.2369
19.5246
19.7629
19.9465
20.0719
20.1358
20.1351
20.0675
19.9266
19.7011
19.3763
18.956
18.5496
18.4584
18.8344
19.2238
19.3279
19.3799
19.5713
19.9589
763.138
464.459
15.8037
15.6224
15.3953
15.0506
14.8816
15.2484
15.8551
16.437
16.9534
17.4266
17.8728
18.2957
18.6934
19.0617
19.3949
19.6865
19.9294
20.1169
20.2432
20.303
20.2907
20.1988
20.0154
19.722
19.2977
18.7655
18.3193
18.3541
18.841
19.1959
19.3466
19.4779
19.7444
762.472
464.305
15.8103
15.6548
15.4389
15.0648
14.7413
14.9774
15.5557
16.1426
16.664
17.1401
17.5908
18.0238
18.4402
18.8375
19.2104
19.5516
19.8524
20.1044
20.3002
20.4333
20.4969
20.4823
20.3776
20.1658
19.8226
19.3224
18.705
18.2477
18.3651
18.8281
19.1354
19.3199
19.5949
762.239
464.133
15.8354
15.714
15.5215
15.1496
14.6932
14.7375
15.2526
15.8417
16.37
16.8467
17.2958
17.7311
18.1576
18.5752
18.9787
19.3596
19.7073
20.0122
20.2673
20.4679
20.6095
20.6858
20.6866
20.5974
20.3963
20.0528
19.5374
18.9013
18.4577
18.551
18.8711
19.1235
19.4956
763.007
464.342
15.9149
15.7878
15.5944
15.2212
14.7159
14.6099
15.0389
15.6105
16.1338
16.6002
17.0369
17.463
17.8879
18.314
18.7363
19.1435
19.521
19.8569
20.1451
20.3847
20.5761
20.7186
20.8075
20.8313
20.7716
20.6015
20.283
19.7759
19.1421
18.7348
18.7661
19.0296
19.6507
765.426
464.844
16.0021
15.8373
15.6176
15.2151
14.7065
14.5583
14.9325
15.4775
15.9815
16.4262
16.841
17.2488
17.6628
18.0886
18.5217
18.9465
19.3417
19.6908
19.9876
20.2346
20.4372
20.6008
20.7264
20.8097
20.8381
20.7865
20.6126
20.2548
19.6765
19.0982
18.963
19.3181
20.2754
768.713
465.501
16.0968
15.8745
15.6081
15.1475
14.6439
14.5342
14.9012
15.4214
15.8959
16.31
16.6956
17.0778
17.4735
17.8925
18.3325
18.7735
19.1846
19.5413
19.8354
20.0721
20.2606
20.4101
20.5257
20.6102
20.664
20.677
20.6071
20.3764
19.9372
19.4901
19.4768
19.9283
20.9604
770.305
466.07
16.1535
15.8722
15.5515
15.0191
14.529
14.5125
14.9162
15.4188
15.8579
16.2358
16.5867
16.9367
17.3056
17.7088
18.1496
18.6071
19.0402
19.4125
19.7103
19.9394
20.1114
20.236
20.3171
20.3598
20.3861
20.4408
20.5083
20.4638
20.2425
20.0199
20.0981
20.4546
21.2195
768.876
466.464
16.1971
15.8677
15.4961
14.8941
14.4084
14.4741
14.9233
15.4173
15.8283
16.1745
16.4919
16.8072
17.142
17.5171
17.944
18.4094
18.8698
19.2748
19.5986
19.8418
20.0159
20.128
20.1785
20.1676
20.127
20.158
20.3298
20.4996
20.5159
20.4656
20.5152
20.6757
21.054
766.057
466.686
16.2101
15.8394
15.4214
14.7548
14.2779
14.4211
14.918
15.4127
15.8059
16.129
16.4194
16.7033
17.0026
17.3402
17.7345
18.1855
18.661
19.1064
19.4783
19.764
19.9683
20.0978
20.1519
20.1244
20.0285
19.9534
20.0493
20.299
20.4887
20.5551
20.5753
20.5959
20.7042
764.052
466.864
16.2268
15.8282
15.3744
14.6412
14.1352
14.3346
14.882
15.3905
15.7792
16.0907
16.3642
16.6259
16.8974
17.2006
17.5567
17.976
18.443
18.9131
19.3346
19.6761
19.9315
20.1055
20.1997
20.2078
20.1232
19.9778
19.8925
19.9904
20.1848
20.3056
20.3302
20.3106
20.3628
763.633
466.865
16.2145
15.8135
15.3487
14.5682
13.9948
14.2147
14.8136
15.3466
15.7422
16.0516
16.3174
16.5667
16.8214
17.1029
17.4335
17.828
18.2808
18.7576
19.2088
19.5942
19.8992
20.1245
20.2727
20.3404
20.3168
20.1956
20.0171
19.8984
19.9179
19.9843
20.0051
20.0095
20.1718
764.438
466.817
16.2148
15.8268
15.368
14.5597
13.8809
14.0606
14.7033
15.2736
15.6868
16.0013
16.265
16.5074
16.7515
17.0205
17.34
17.7297
18.1865
18.6744
19.1399
19.5451
19.878
20.1403
20.3346
20.4587
20.5028
20.45
20.2911
20.0682
19.8909
19.8175
19.8062
19.8642
20.202
765.724
466.778
16.2179
15.8421
15.3932
14.5756
13.7998
13.8962
14.573
15.1919
15.6306
15.9545
16.2182
16.4545
16.6872
16.9419
17.2497
17.641
18.1209
18.6444
19.1338
19.5468
19.8832
20.1566
20.3759
20.5406
20.641
20.6577
20.5637
20.3485
20.0768
19.8831
19.8383
19.9491
20.4186
766.824
466.863
16.2286
15.8493
15.3998
14.5772
13.7479
13.7487
14.4407
15.1144
15.5864
15.9249
16.192
16.423
16.6417
16.8734
17.1519
17.5191
18.0053
18.5788
19.1287
19.5726
19.9112
20.1769
20.3937
20.5714
20.7058
20.7786
20.7582
20.613
20.3664
20.1493
20.0912
20.2137
20.6989
767.253
467.061
16.2401
15.8388
15.3706
14.5294
13.6958
13.6384
14.333
15.0606
15.571
15.9293
16.2046
16.4335
16.6389
16.8429
17.0747
17.3773
17.804
18.3759
19.0048
19.545
19.9364
20.2126
20.4186
20.5808
20.7096
20.8007
20.833
20.7749
20.6263
20.4719
20.42
20.507
20.8941
766.762
467.268
16.2311
15.7978
15.2976
14.4217
13.617
13.5636
14.2521
15.0258
15.5795
15.9647
16.2544
16.4881
16.6876
16.8702
17.0561
17.2767
17.5841
18.0402
18.6466
19.2937
19.8324
20.2071
20.452
20.6126
20.717
20.78
20.8073
20.7923
20.7314
20.6586
20.6281
20.6732
20.921
765.617
467.325
16.2009
15.75
15.2221
14.3016
13.5065
13.4976
14.1876
14.9938
15.5922
16.011
16.3232
16.5718
16.7785
16.9565
17.1173
17.2776
17.4694
17.7493
18.1763
18.7569
19.3982
19.9627
20.3712
20.6271
20.7656
20.8178
20.8098
20.7674
20.7117
20.6609
20.6317
20.6403
20.7703
764.315
467.015
16.1424
15.713
15.1903
14.2502
13.4097
13.3992
14.083
14.9159
15.5674
16.031
16.3772
16.6529
16.8822
17.0762
17.2412
17.3832
17.5147
17.6642
17.8811
18.2252
18.7226
19.3207
19.9074
20.379
20.6898
20.8466
20.8791
20.8266
20.733
20.6361
20.5565
20.5032
20.52
763.06
466.55
16.106
15.723
15.2339
14.3042
13.3603
13.257
13.9054
14.7589
15.4708
15.9909
16.3813
16.6943
16.9585
17.1865
17.3822
17.5457
17.6781
17.7865
17.8906
18.0299
18.2616
18.6307
19.1285
19.6827
20.1894
20.5632
20.7685
20.8189
20.7575
20.6362
20.4973
20.3633
20.2468
761.867
466.031
16.0828
15.7581
15.3255
14.4569
13.413
13.1154
13.662
14.5183
15.2943
15.8815
16.3237
16.6777
16.9795
17.2471
17.4862
17.6954
17.8694
18.0039
18.1007
18.1724
18.2467
18.3684
18.5878
18.9307
19.3712
19.8302
20.2118
20.4471
20.5227
20.4728
20.3472
20.1867
20.0095
761.244
465.761
16.1011
15.8155
15.4294
14.6331
13.551
13.0382
13.4164
14.2353
15.0613
15.7158
16.2123
16.606
16.9409
17.2422
17.5212
17.779
18.0092
18.2028
18.3522
18.4547
18.5161
18.5531
18.5966
18.6866
18.86
19.1257
19.4464
19.746
19.946
20.0148
19.9744
19.8778
19.8123
761.743
465.705
16.1292
15.8611
15.5045
14.7713
13.7253
13.065
13.2472
13.9746
14.815
15.5252
16.0736
16.5052
16.8677
17.1926
17.4978
17.7893
18.0652
18.3172
18.5342
18.7055
18.8255
18.8953
18.9239
18.9287
18.9367
18.9799
19.0818
19.2363
19.4003
19.5149
19.5612
19.595
19.797
763.549
465.945
16.1886
15.9048
15.5444
14.8293
13.8476
13.1481
13.1833
13.7976
14.6104
15.3489
15.9369
16.4023
16.7886
17.1308
17.4509
17.7604
18.0627
18.3547
18.6266
18.8643
19.0547
19.1904
19.2706
19.3005
19.2893
19.2527
19.2133
19.1969
19.221
19.2846
19.3885
19.5775
20.0854
765.846
466.361
16.2481
15.9179
15.5229
14.7899
13.89
13.2451
13.2114
13.7207
14.4736
15.2089
15.8217
16.314
16.7211
17.0776
17.4071
17.7244
18.0374
18.3485
18.6534
18.9397
19.1901
19.389
19.5289
19.6095
19.6339
19.607
19.5384
19.4507
19.3894
19.4164
19.5726
19.8712
20.5425
767.367
467.029
16.323
15.9033
15.4293
14.6317
13.8232
13.3023
13.2874
13.7314
14.4145
15.1183
15.7335
16.243
16.6687
17.0396
17.3778
17.6987
18.0126
18.326
18.6409
18.9514
19.242
19.4918
19.6846
19.8139
19.8796
19.8842
19.8333
19.7493
19.6888
19.7297
19.9062
20.2069
20.8325
767.261
467.821
16.3697
15.8262
15.2333
14.3477
13.6687
13.3327
13.3959
13.8086
14.4195
15.0679
15.6628
16.1778
16.6198
17.007
17.3563
17.6813
17.9921
18.2976
18.6045
18.9151
19.2224
19.5082
19.75
19.9316
20.0468
20.096
20.0863
20.0414
20.0138
20.0623
20.1998
20.4176
20.8691
766.046
468.502
16.3656
15.6953
14.9599
13.961
13.422
13.3137
13.504
13.9193
14.4687
15.0507
15.6059
16.1115
16.5639
16.9687
17.3334
17.6662
17.9755
18.2697
18.5577
18.8473
19.1416
19.4335
19.7048
19.933
20.102
20.2053
20.2472
20.2467
20.2417
20.2694
20.3377
20.4502
20.7163
764.705
468.566
16.2785
15.5598
14.7296
13.6025
13.1474
13.2448
13.5608
13.9965
14.5048
15.0301
15.5409
16.0259
16.481
16.9031
17.2892
17.6395
17.9576
18.2498
18.5242
18.7904
19.0568
19.3277
19.5975
19.8499
20.0638
20.2225
20.3201
20.3637
20.3743
20.3761
20.3834
20.4132
20.5581
763.988
467.784
16.1668
15.5461
14.7493
13.4692
12.838
13.0463
13.4827
13.9651
14.4682
14.9656
15.4435
15.9054
16.3551
16.7901
17.201
17.579
17.9199
18.2255
18.5016
18.7563
18.9989
19.2383
19.4794
19.7189
19.9433
20.1331
20.2719
20.3527
20.381
20.3726
20.3485
20.3399
20.4527
763.954
466.518
16.1426
15.7352
15.1243
13.8464
12.6727
12.6918
13.2021
13.7642
14.3086
14.8189
15.2919
15.7407
16.1801
16.6199
17.0539
17.4674
17.8467
18.1857
18.4858
18.753
18.9949
19.2202
19.4371
19.6507
19.8587
20.0493
20.2048
20.3092
20.3566
20.3559
20.3317
20.3268
20.4736
764.437
465.538
16.226
15.9952
15.5958
14.6138
12.9974
12.3639
12.7599
13.401
14.0276
14.5923
15.0902
15.5409
15.9715
16.4056
16.8488
17.2926
17.7162
18.1021
18.4434
18.7424
19.005
19.2386
19.4503
19.647
19.8323
20.0035
20.1496
20.2555
20.3115
20.3227
20.3143
20.3347
20.5386
764.967
465.647
16.3707
16.1433
15.8214
15.1618
13.776
12.462
12.4163
13.0228
13.7223
14.3572
14.8996
15.3657
15.7882
16.2026
16.6325
17.084
17.5419
17.9788
18.3738
18.7204
19.0217
19.284
19.5136
19.7158
19.8951
20.0527
20.1845
20.2817
20.3375
20.3575
20.3657
20.4094
20.6479
765.296
467.345
16.5765
16.1066
15.6258
15.0245
14.1689
12.8835
12.4259
12.8684
13.5677
14.2365
14.8074
15.284
15.6954
16.0796
16.47
16.8913
17.3465
17.8137
18.2593
18.6598
19.0084
19.3087
19.5663
19.786
19.9712
20.1242
20.2442
20.3282
20.3749
20.3923
20.4026
20.4483
20.6777
765.147
470.388
16.7844
15.8564
14.9922
14.2903
13.8161
13.0794
12.7023
13.0656
13.7063
14.3404
14.8926
15.3538
15.742
16.0888
16.427
16.7881
17.194
17.6449
18.1136
18.562
18.9639
19.3114
19.6066
19.8539
20.0566
20.2173
20.3369
20.4156
20.4557
20.4668
20.4691
20.4991
20.6832
764.714
472.393
16.6038
15.2033
13.8798
13.24
13.1847
13.0509
13.0823
13.4991
14.0614
14.6182
15.1197
15.5467
15.903
16.2104
16.4952
16.7866
17.1135
17.4967
17.9349
18.3974
18.8423
19.2397
19.5788
19.859
20.0831
20.2541
20.3749
20.4483
20.4791
20.4773
20.4616
20.4625
20.5815
763.984
470.655
15.9459
14.5439
13.0536
12.421
12.6872
12.9941
13.3437
13.8063
14.3246
14.845
15.3288
15.7478
16.0943
16.3811
16.6293
16.8632
17.1101
17.3997
17.755
18.1752
18.6286
19.0696
19.4629
19.793
20.0562
20.254
20.3899
20.4688
20.4978
20.4882
20.4583
20.4347
20.496
763.353
466.536
15.6925
14.9663
13.8236
12.4349
12.0714
12.4585
13.0211
13.5952
14.1747
14.7528
15.3001
15.7817
16.1786
16.4959
16.7516
16.9669
17.1651
17.373
17.6222
17.9402
18.3319
18.7684
19.2
19.5842
19.8992
20.1378
20.3008
20.3938
20.4258
20.4108
20.3684
20.3235
20.3392
762.735
463.696
16.2599
16.1995
15.7326
14.3313
12.4193
11.5494
11.9173
12.6792
13.4506
14.1911
14.8915
15.521
16.0497
16.4707
16.7974
17.0517
17.2562
17.4331
17.609
17.8171
18.0897
18.4397
18.8453
19.2588
19.6322
19.9335
20.1507
20.2837
20.3409
20.3386
20.3002
20.2538
20.2619
762.592
463.238
16.5997
16.7489
16.6938
16.3413
14.8468
12.4448
11.1005
11.4137
12.3273
13.2793
14.1724
14.9886
15.697
16.2764
16.7282
17.0735
17.3375
17.542
17.7075
17.8583
18.0264
18.2465
18.5381
18.8887
19.2565
19.5925
19.861
20.0442
20.1416
20.1673
20.1473
20.116
20.1511
762.644
465.801
16.7288
16.539
16.3264
16.1742
15.9367
14.3614
11.9705
10.9801
11.517
12.5151
13.5198
14.4599
15.3078
16.0274
16.6033
17.0496
17.3926
17.6557
17.8574
18.0144
18.1475
18.2859
18.4626
18.7001
18.992
19.3031
19.5877
19.8098
19.9524
20.0203
20.0383
20.0479
20.1543
763.147
471.258
17.2452
16.4054
15.6403
15.0018
14.8432
14.2894
12.6152
11.3764
11.5808
12.4297
13.3632
14.2774
15.1427
15.9109
16.5505
17.0604
17.4608
17.7739