/*--------------------------------*- C++ -*----------------------------------*\
| =========                 |                                                 |
| \\      /  F ield         | OpenFOAM: The Open Source CFD Toolbox           |
|  \\    /   O peration     | Version:  v2006                                 |
|   \\  /    A nd           | Website:  www.openfoam.com                      |
|    \\/     M anipulation  |                                                 |
\*---------------------------------------------------------------------------*/
FoamFile
{
    version     2.0;
    format      ascii;
    class       volScalarField;
    location    "5";
    object      T;
}
// * * * * * * * * * * * * * * * * * * * * * * * * * * * * * * * * * * * * * //

dimensions      [0 0 0 1 0 0 0];


internalField   nonuniform List<scalar> 
78750
(
307.318
307.762
308.113
308.566
309.043
309.165
309.36
309.516
309.752
309.919
310.109
310.208
310.296
310.348
310.399
310.438
310.478
310.514
310.55
310.585
310.619
310.652
310.685
310.716
310.746
310.774
310.8
310.823
310.841
310.855
310.878
310.967
311.494
317.31
403.631
301.244
303.783
305.466
306.972
308.096
308.528
308.969
309.202
309.4
309.54
309.665
309.791
309.91
310.024
310.132
310.237
310.34
310.441
310.543
310.647
310.754
310.864
310.98
311.102
311.231
311.371
311.524
311.696
311.896
312.143
312.489
313.114
315.11
329.381
414.234
304.152
304.667
304.529
305.257
305.787
306.397
306.811
307.457
308.145
308.649
308.871
309.019
309.133
309.237
309.34
309.446
309.557
309.673
309.794
309.924
310.064
310.215
310.382
310.567
310.774
311.008
311.28
311.608
312.026
312.616
313.598
315.747
322.43
347.223
425.954
301.203
301.825
302.995
304.086
305.043
305.786
305.721
304.912
304.927
306.209
307.461
308.158
308.544
308.783
308.942
309.061
309.169
309.278
309.392
309.511
309.637
309.775
309.927
310.094
310.281
310.49
310.728
311.003
311.336
311.774
312.455
313.97
319.902
347.316
429.427
301.739
304.873
307.546
309.738
311.058
311.421
311.096
310.33
309.45
309.011
308.873
308.856
308.9
308.972
309.057
309.151
309.25
309.353
309.46
309.574
309.696
309.832
309.987
310.167
310.382
310.644
310.972
311.397
311.986
312.898
314.607
318.74
330.799
362.369
436.005
301.05
302.327
303.116
303.981
305.034
305.995
306.502
306.775
307.133
307.572
307.94
308.204
308.399
308.559
308.703
308.839
308.97
309.096
309.22
309.342
309.463
309.586
309.714
309.85
310.002
310.183
310.414
310.73
311.195
311.918
313.19
316.27
327.321
361.388
436.989
301.661
304.743
306.657
307.826
308.514
308.761
308.855
308.872
308.845
308.827
308.84
308.881
308.946
309.029
309.126
309.235
309.354
309.479
309.608
309.737
309.865
309.994
310.123
310.253
310.388
310.539
310.733
311.026
311.543
312.571
314.856
320.505
335.654
370.463
440.097
301.858
305.408
307.888
309.131
309.82
310.251
310.356
310.187
309.956
309.789
309.69
309.631
309.598
309.589
309.606
309.65
309.723
309.821
309.941
310.077
310.222
310.369
310.516
310.667
310.824
310.988
311.163
311.372
311.676
312.269
313.853
319.05
335.369
371.827
440.701
303.442
309.547
312.823
314.616
315.651
316.127
316.215
315.934
315.299
314.566
313.857
313.182
312.546
311.958
311.435
310.995
310.658
310.43
310.313
310.293
310.348
310.456
310.599
310.771
310.977
311.23
311.557
312.007
312.677
313.825
316.284
323.05
342.308
378.925
442.37
304.965
312.221
315.985
318.234
319.851
321.088
322.013
322.632
322.919
322.853
322.453
321.783
320.901
319.852
318.67
317.386
316.029
314.639
313.288
312.096
311.207
310.756
310.694
310.816
310.981
311.164
311.381
311.684
312.192
313.22
315.715
322.726
342.573
379.545
441.888
304.518
310.649
314.618
317.489
319.544
320.994
322.031
322.788
323.34
323.72
323.932
323.969
323.836
323.563
323.205
322.801
322.341
321.741
320.867
319.546
317.629
315.129
312.543
310.815
310.47
310.906
311.474
312.034
312.702
313.814
316.478
324.471
346.588
383.151
441.813
303.824
310.183
314.478
317.324
319.168
320.318
320.975
321.249
321.184
320.79
320.076
319.085
317.932
316.816
316.021
315.84
316.365
317.393
318.599
319.666
320.327
320.378
319.571
317.566
314.774
312.525
311.65
311.766
312.394
313.727
316.896
325.835
349.606
384.954
440.409
306.648
315.948
320.408
322.538
323.629
324.202
324.415
324.276
323.729
322.702
321.148
319.083
316.6
313.941
311.679
310.689
311.357
313.014
314.786
316.241
316.907
316.302
314.709
312.959
311.658
311.173
311.267
311.522
311.922
312.881
315.792
325.375
351.382
386.895
439.923
310.912
318.766
320.386
321.228
322.072
322.916
323.683
324.277
324.58
324.524
324.136
323.402
322.093
320.002
317.492
315.353
313.948
313.076
312.501
312.217
312.159
312.107
311.995
311.894
311.933
312.151
312.53
313.13
314.193
316.337
321.226
333.414
361.294
392.834
438.434
306.452
310.521
313.164
315.785
317.991
319.883
321.684
323.525
325.453
327.419
329.282
330.872
332.071
332.826
333.062
332.63
331.365
329.219
326.341
323.01
319.483
316.086
313.466
312.057
311.894
312.281
312.801
313.45
314.501
316.742
322.459
337.138
367.084
396.04
437.46
303.318
310.012
315.238
318.638
320.807
322.281
323.317
323.991
324.328
324.356
324.155
323.892
323.846
324.37
325.734
327.958
330.777
333.798
336.645
338.904
340.038
339.389
336.018
328.642
319.971
314.493
312.695
312.978
314.213
316.658
322.54
337.903
369.001
397.007
436.867
306.936
317.665
322.039
324.028
325.418
326.642
327.776
328.822
329.734
330.428
330.791
330.739
330.292
329.596
328.855
328.267
328.026
328.307
329.194
330.655
332.511
334.279
334.85
332.384
325.817
318.912
314.808
313.559
314.299
316.792
323.43
340.606
372.394
399.205
437.536
307.648
314.165
317.032
318.849
320.258
321.5
322.676
323.839
325.033
326.301
327.675
329.137
330.578
331.789
332.532
332.641
332.087
331.023
329.795
328.829
328.433
328.626
329.019
328.511
324.948
319.536
315.29
313.655
314.862
318.632
326.306
343.824
374.592
400.884
438.809
305.428
313.564
318.44
321.167
322.974
324.371
325.467
326.261
326.732
326.89
326.827
326.764
326.977
327.593
328.497
329.46
330.276
330.773
330.828
330.343
329.269
327.868
326.547
325.227
323.044
319.224
315.313
312.875
313.095
316.734
325.302
343.574
374.942
401.096
438.682
308.972
319.37
323.013
324.933
326.48
327.898
329.228
330.461
331.552
332.428
333.003
333.212
333.054
332.618
332.06
331.519
331.067
330.706
330.391
330.04
329.522
328.612
327.063
324.83
321.701
317.687
314.097
312.047
312.755
317.533
328.819
349.133
378.331
403.675
441.26
307.416
314.653
318.171
320.126
321.501
322.646
323.67
324.634
325.589
326.584
327.649
328.773
329.887
330.873
331.607
332.015
332.096
331.905
331.52
331.002
330.383
329.642
328.681
327.308
325.276
321.868
316.844
312.927
311.945
315.145
325.336
347.765
378.254
403.934
441.583
307.614
317.51
321.964
324.295
325.982
327.41
328.625
329.606
330.325
330.772
330.984
331.042
331.046
331.071
331.138
331.224
331.283
331.267
331.133
330.854
330.41
329.782
328.937
327.809
326.256
323.948
319.92
314.91
312.992
316.416
326.444
347.601
378.352
404.14
441.87
309.424
318.643
322.111
324.003
325.49
326.846
328.133
329.36
330.503
331.518
332.351
332.958
333.311
333.419
333.323
333.085
332.767
332.408
332.029
331.63
331.202
330.707
330.091
329.308
328.304
326.962
324.636
319.314
314.554
316.389
327.45
349.636
379.818
405.58
443.317
307.746
316.1
319.971
322.067
323.579
324.867
326.022
327.086
328.082
329.027
329.924
330.762
331.516
332.147
332.623
332.917
333.026
332.965
332.767
332.473
332.112
331.677
331.142
330.489
329.69
328.723
327.293
323.832
318.104
318.435
328.509
350.33
380.405
406.399
444.021
308.864
318.736
322.821
325.007
326.654
328.094
329.384
330.518
331.472
332.221
332.765
333.128
333.349
333.468
333.514
333.502
333.434
333.307
333.121
332.879
332.573
332.186
331.706
331.118
330.407
329.559
328.4
326.107
321.035
321.091
333.188
357.041
383.481
407.625
445.984
308.835
317.558
321.271
323.312
324.865
326.258
327.577
328.846
330.055
331.174
332.16
332.977
333.605
334.042
334.301
334.404
334.377
334.244
334.031
333.763
333.445
333.065
332.612
332.072
331.419
330.624
329.623
327.934
324.028
323.111
331.935
353.507
383.821
409.897
447.715
308.071
317.206
321.424
323.714
325.395
326.847
328.154
329.342
330.413
331.365
332.2
332.919
333.525
334.019
334.4
334.67
334.83
334.884
334.84
334.704
334.489
334.199
333.831
333.369
332.768
331.923
330.611
328.47
326.899
333.666
355.346
376.126
394.535
416.167
453.116
308.707
318.293
322.519
324.816
326.538
328.055
329.447
330.724
331.865
332.842
333.638
334.257
334.721
335.057
335.295
335.455
335.554
335.599
335.593
335.535
335.422
335.248
335.004
334.675
334.24
333.66
332.847
331.576
329.566
328.674
339.851
379.102
404.495
421.997
454.823
308.497
317.609
321.78
324.092
325.826
327.359
328.779
330.109
331.337
332.439
333.389
334.177
334.807
335.294
335.657
335.92
336.102
336.219
336.285
336.306
336.288
336.234
336.147
336.034
335.895
335.708
335.404
334.948
334.382
335.855
332.256
324.036
345.687
384.048
441.054
308.586
318.353
322.846
325.327
327.189
328.828
330.328
331.694
332.896
333.902
334.704
335.321
335.785
336.131
336.385
336.573
336.71
336.81
336.877
336.92
336.944
336.965
337.022
337.241
337.768
338.102
337.078
334.805
331.106
321.13
302.646
304.047
345.438
381.615
426.631
309.065
318.994
323.34
325.761
327.644
329.359
330.975
332.472
333.788
334.87
335.703
336.313
336.743
337.04
337.243
337.387
337.492
337.57
337.635
337.713
337.855
338.177
339.022
341.642
349.935
366.663
380.331
376.345
362.331
350.239
347.282
362.554
389.206
417.359
461.02
309.078
318.972
323.389
325.871
327.813
329.584
331.242
332.753
334.064
335.138
335.978
336.613
337.082
337.426
337.678
337.863
338.003
338.111
338.201
338.277
338.341
338.386
338.462
338.907
340.903
347.186
359.24
372.12
382.852
394.023
404.911
418.463
437.494
460.861
478.534
309.327
319.617
324.193
326.785
328.835
330.711
332.456
334.015
335.311
336.311
337.037
337.548
337.905
338.16
338.349
338.498
338.625
338.744
338.871
339.017
339.194
339.421
339.744
340.221
340.071
339.295
339.607
342.573
350.061
364.132
386.695
404.465
415.799
417.224
441.234
309.819
320.214
324.648
327.199
329.283
331.231
333.064
334.703
336.057
337.092
337.835
338.351
338.706
338.956
339.142
339.296
339.445
339.615
339.835
340.135
340.559
341.208
342.477
346.244
351.289
349.747
345.582
342.024
339.83
340.747
347.743
356.288
360.319
365.274
415.957
309.916
320.388
324.917
327.545
329.704
331.713
333.568
335.181
336.481
337.462
338.173
338.68
339.041
339.299
339.482
339.608
339.687
339.734
339.778
339.887
340.217
341.16
343.626
348.638
354.488
355.664
352.423
347.692
343.342
339.696
336.742
336.217
343.545
359.785
408.535
310.158
320.877
325.508
328.222
330.478
332.576
334.5
336.147
337.435
338.366
339.005
339.444
339.755
339.994
340.196
340.386
340.582
340.795
341.033
341.292
341.534
341.66
341.617
341.646
342.435
344.278
346.59
348.417
347.334
342.496
337.817
340.214
355.105
377.237
420.873
310.594
321.383
325.951
328.672
330.976
333.128
335.099
336.778
338.085
339.022
339.662
340.101
340.419
340.675
340.91
341.156
341.434
341.769
342.192
342.753
343.4
343.824
344.099
344.458
344.901
345.898
348.309
352.647
357.352
357.632
356.231
360.749
372.812
394.011
442.999
310.95
321.92
326.491
329.246
331.613
333.816
335.804
337.455
338.703
339.578
340.171
340.582
340.898
341.184
341.493
341.867
342.345
342.992
344.003
345.775
347.913
347.369
344.589
343.022
342.715
343.576
346.21
351.723
360.593
369.238
373.886
379.957
391.064
411.181
457.241
311.197
322.239
326.805
329.596
332.025
334.294
336.336
338.02
339.272
340.122
340.669
341.02
341.265
341.481
341.737
342.112
342.706
343.742
345.784
349.484
352.848
350.936
345.196
341.564
339.266
337.551
336.686
338.087
344.894
359.91
378.75
394.69
406.962
422.418
456.422
311.308
322.371
326.911
329.707
332.151
334.429
336.483
338.194
339.497
340.41
341.009
341.386
341.618
341.767
341.9
342.106
342.53
343.424
345.345
349.392
355.931
361.043
359.441
353.412
347.263
341.46
335.719
331.758
335.183
350.688
371.729
387.3
399.906
418.186
458.563
311.347
322.519
327.088
329.889
332.328
334.591
336.621
338.316
339.627
340.574
341.22
341.643
341.91
342.065
342.137
342.156
342.181
342.356
343.001
344.814
349.167
357.046
365.774
371.034
372.197
370.115
366.066
362.182
362.191
369.923
383.156
396.227
411.181
434.554
473.577
311.289
322.416
327.017
329.848
332.32
334.623
336.687
338.41
339.752
340.737
341.428
341.896
342.206
342.409
342.537
342.609
342.632
342.609
342.557
342.579
342.995
344.568
348.486
355.233
363.907
372.997
381.422
388.929
396.132
404.127
413.099
422.581
433.792
449.302
474.181
311.11
322.273
326.975
329.848
332.336
334.647
336.723
338.473
339.857
340.892
341.633
342.147
342.495
342.727
342.88
342.979
343.04
343.075
343.088
343.081
343.058
343.054
343.205
343.845
345.511
348.781
354.017
361.224
370.009
379.505
388.274
395.479
402.631
413.45
443.988
311.207
322.415
327.158
330.059
332.576
334.924
337.03
338.796
340.188
341.234
341.991
342.525
342.892
343.142
343.311
343.426
343.506
343.562
343.603
343.636
343.665
343.692
343.719
343.755
343.83
344.026
344.509
345.509
347.237
349.86
353.557
358.053
362.297
367.626
413.742
311.184
322.346
327.128
330.079
332.667
335.109
337.317
339.162
340.599
341.665
342.431
342.969
343.34
343.594
343.768
343.89
343.98
344.054
344.123
344.196
344.283
344.389
344.52
344.682
344.875
345.068
345.162
345.264
345.625
346.19
346.596
346.009
342.476
345.855
407.635
311.232
322.436
327.216
330.186
332.836
335.383
337.702
339.625
341.101
342.18
342.946
343.478
343.841
344.085
344.25
344.367
344.46
344.55
344.654
344.79
344.975
345.227
345.562
346.006
346.647
347.755
349.072
348.938
347.648
346.117
344.523
343.013
345.051
358.257
406.258
311.256
322.312
326.994
329.945
332.661
335.362
337.858
339.909
341.454
342.567
343.351
343.897
344.269
344.517
344.677
344.787
344.874
344.96
345.072
345.249
345.535
345.981
346.654
347.956
351.312
355.829
356.402
353.326
350.75
349.363
350.141
354.767
364.417
380.985
420.869
310.943
321.781
326.423
329.376
332.155
335.027
337.742
339.973
341.63
342.807
343.634
344.211
344.61
344.881
345.059
345.171
345.24
345.289
345.342
345.436
345.628
346.013
346.848
348.849
353.21
360.148
366.104
367.165
365.606
364.301
365.116
370.448
381.184
399.66
442.258
310.611
321.172
325.779
328.724
331.543
334.569
337.513
339.944
341.733
342.986
343.859
344.471
344.902
345.203
345.408
345.544
345.627
345.672
345.689
345.695
345.719
345.823
346.141
346.987
349.117
353.867
361.673
370.198
377.261
382.699
386.691
390.899
398.618
415.206
457.483
310.142
320.426
325.08
328.059
330.917
334.068
337.215
339.845
341.776
343.118
344.047
344.7
345.165
345.498
345.734
345.898
346.01
346.081
346.122
346.137
346.133
346.12
346.129
346.237
346.642
347.826
350.749
356.442
365.043
376.148
389.31
402.597
412.826
427.004
462.369
309.719
319.996
324.852
327.952
330.887
334.111
337.335
340.036
342.011
343.37
344.302
344.96
345.435
345.784
346.041
346.231
346.37
346.47
346.541
346.59
346.62
346.634
346.636
346.63
346.638
346.724
347.068
348.082
350.51
355.426
364.283
379.167
399.817
418.916
451.005
309.588
320.255
325.375
328.645
331.733
335.045
338.222
340.804
342.659
343.921
344.783
345.391
345.834
346.165
346.415
346.606
346.752
346.866
346.957
347.03
347.091
347.144
347.192
347.237
347.281
347.326
347.383
347.485
347.738
348.412
350.171
355.056
370.426
395.277
439.155
309.82
321.112
326.459
329.918
333.253
336.691
339.707
341.986
343.564
344.63
345.366
345.896
346.292
346.595
346.829
347.012
347.158
347.277
347.377
347.465
347.546
347.625
347.707
347.798
347.901
348.021
348.161
348.316
348.469
348.583
348.619
348.833
356.677
381.139
433.015
310.451
322.301
327.715
331.347
335.031
338.66
341.5
343.419
344.664
345.491
346.071
346.499
346.828
347.086
347.292
347.457
347.594
347.71
347.814
347.911
348.007
348.108
348.221
348.357
348.53
348.76
349.078
349.521
350.105
350.756
351.265
352.552
363.585
385.769
428.936
311.176
323.239
328.594
332.36
336.394
340.203
342.903
344.561
345.577
346.243
346.716
347.073
347.353
347.577
347.758
347.906
348.03
348.14
348.242
348.341
348.444
348.559
348.695
348.869
349.112
349.486
350.112
351.206
352.919
354.915
357.6
363.596
378.626
398.379
433.285
311.816
323.834
329.138
333.044
337.41
341.379
343.988
345.47
346.334
346.894
347.294
347.6
347.845
348.045
348.21
348.346
348.463
348.569
348.667
348.761
348.861
348.975
349.118
349.317
349.638
350.228
351.389
353.703
357.51
361.604
366.866
376.596
391.117
409.3
443.726
312.1
324.031
329.315
333.305
337.875
341.989
344.628
346.079
346.901
347.422
347.79
348.07
348.295
348.48
348.635
348.766
348.88
348.983
349.077
349.167
349.257
349.357
349.482
349.671
350.021
350.73
352.255
355.584
361.821
369.382
376.393
386.424
398.816
415.859
452.209
312.259
324.222
329.521
333.55
338.217
342.419
345.098
346.555
347.371
347.881
348.237
348.506
348.72
348.896
349.047
349.177
349.292
349.396
349.493
349.583
349.67
349.757
349.86
350.011
350.284
350.857
352.172
355.314
362.285
373.839
385.385
394.955
405.233
420.994
458.116
312.318
324.338
329.651
333.698
338.43
342.724
345.465
346.947
347.769
348.279
348.634
348.901
349.113
349.288
349.438
349.569
349.689
349.799
349.904
350.003
350.101
350.2
350.307
350.434
350.613
350.939
351.68
353.564
358.399
369.157
385.509
399.488
409.74
424.075
460.173
312.375
324.462
329.77
333.807
338.585
342.978
345.8
347.321
348.155
348.668
349.023
349.289
349.5
349.675
349.825
349.959
350.082
350.198
350.312
350.427
350.545
350.67
350.809
350.969
351.161
351.404
351.772
352.564
354.714
360.637
373.963
392.196
406.37
422.523
457.935
312.433
324.555
329.873
333.935
338.799
343.3
346.18
347.714
348.543
349.05
349.4
349.663
349.874
350.05
350.202
350.337
350.464
350.586
350.711
350.84
350.979
351.133
351.315
351.548
351.858
352.261
352.727
353.258
354.206
356.885
364.803
381.511
400.116
419.636
454.786
312.415
324.563
329.901
333.986
338.93
343.557
346.538
348.112
348.948
349.451
349.795
350.054
350.262
350.436
350.586
350.72
350.847
350.974
351.105
351.247
351.403
351.582
351.804
352.118
352.606
353.367
354.394
355.483
356.663
358.885
365.103
379.877
399.028
419.575
454.582
312.428
324.663
330.037
334.162
339.188
343.881
346.885
348.463
349.297
349.797
350.141
350.401
350.613
350.79
350.945
351.083
351.214
351.344
351.478
351.623
351.787
351.98
352.229
352.609
353.268
354.438
356.309
358.677
361.261
364.85
371.964
385.749
402.224
421.353
456.514
312.459
324.735
330.122
334.276
339.403
344.247
347.321
348.9
349.713
350.192
350.519
350.769
350.973
351.149
351.304
351.445
351.577
351.708
351.841
351.982
352.139
352.326
352.575
352.967
353.659
354.971
357.365
361
365.425
370.893
379.213
391.845
405.311
422.359
457.842
312.498
324.754
330.108
334.223
339.346
344.353
347.586
349.237
350.07
350.55
350.875
351.121
351.324
351.499
351.657
351.802
351.94
352.073
352.205
352.342
352.491
352.667
352.902
353.255
353.861
355.024
357.335
361.457
367.294
374.309
383.333
394.928
406.702
422.593
458.437
312.427
324.612
329.923
333.942
338.944
344.153
347.681
349.495
350.388
350.886
351.214
351.462
351.665
351.843
352.006
352.158
352.304
352.445
352.585
352.725
352.874
353.042
353.254
353.557
354.054
354.987
356.908
360.791
367.415
376.135
385.976
396.826
407.75
423.226
459.141
312.28
324.388
329.674
333.56
338.309
343.616
347.541
349.642
350.656
351.196
351.538
351.79
351.996
352.179
352.349
352.512
352.671
352.827
352.981
353.134
353.288
353.452
353.641
353.887
354.263
354.931
356.294
359.258
365.283
375.091
386.857
398.037
408.329
423.026
458.63
312.052
324.202
329.546
333.338
337.794
342.96
347.174
349.629
350.838
351.459
351.834
352.101
352.316
352.507
352.687
352.864
353.041
353.22
353.398
353.574
353.749
353.923
354.104
354.306
354.567
354.973
355.741
357.418
361.258
369.145
381.341
394.335
405.373
419.966
455.671
311.927
324.217
329.676
333.52
337.945
342.921
347.082
349.684
351.022
351.707
352.111
352.393
352.619
352.82
353.012
353.207
353.408
353.615
353.827
354.041
354.256
354.47
354.684
354.897
355.117
355.373
355.759
356.527
358.374
362.951
372.465
386.135
399.597
416.08
452.126
311.989
324.482
330.043
334.015
338.632
343.569
347.509
350.014
351.34
352.025
352.428
352.71
352.938
353.143
353.345
353.556
353.782
354.022
354.276
354.54
354.815
355.102
355.403
355.713
356.021
356.313
356.609
357.041
358.053
360.959
368.477
381.934
396.817
414.759
451.166
312.198
324.886
330.526
334.666
339.605
344.598
348.272
350.532
351.741
352.378
352.761
353.034
353.258
353.465
353.673
353.898
354.147
354.423
354.723
355.048
355.403
355.8
356.256
356.79
357.405
358.058
358.668
359.308
360.55
363.916
371.931
385.256
399.07
416.573
453.908
312.515
325.37
331.068
335.387
340.691
345.776
349.223
351.194
352.226
352.779
353.123
353.376
353.588
353.788
353.993
354.22
354.48
354.779
355.118
355.499
355.938
356.466
357.139
358.042
359.27
360.816
362.424
363.945
366.142
370.762
379.574
391.737
403.644
420.131
458.452
312.808
325.778
331.533
336.005
341.591
346.718
350.006
351.78
352.683
353.172
353.484
353.719
353.92
354.11
354.307
354.524
354.774
355.068
355.412
355.816
356.302
356.921
357.766
359.002
360.871
363.551
366.795
370.019
373.522
378.845
387.15
397.326
407.778
423.616
461.803
313.078
326.121
331.929
336.539
342.385
347.57
350.72
352.331
353.131
353.569
353.855
354.076
354.267
354.449
354.636
354.84
355.07
355.336
355.649
356.023
356.486
357.091
357.935
359.208
361.231
364.416
368.915
374.173
379.531
385.455
392.745
401.076
410.343
425.412
462.642
313.271
326.338
332.176
336.861
342.865
348.16
351.283
352.814
353.558
353.969
354.242
354.456
354.644
354.825
355.01
355.208
355.424
355.663
355.935
356.253
356.642
357.146
357.843
358.883
360.543
363.284
367.636
373.704
380.758
387.95
395.164
402.63
411.096
425.342
461.779
313.447
326.559
332.407
337.107
343.168
348.59
351.763
353.263
353.975
354.37
354.639
354.857
355.053
355.245
355.444
355.656
355.88
356.115
356.363
356.635
356.952
357.346
357.871
358.626
359.797
361.727
364.979
370.158
377.335
385.607
393.833
401.753
410.259
424.234
460.39
313.504
326.657
332.499
337.153
343.158
348.7
352.05
353.624
354.352
354.753
355.03
355.26
355.475
355.695
355.931
356.188
356.459
356.726
356.982
357.236
357.51
357.83
358.235
358.789
359.606
360.907
363.106
366.868
372.873
381.077
390.303
399.344
408.453
422.619
458.857
313.573
326.845
332.728
337.372
343.305
348.831
352.281
353.932
354.687
355.099
355.387
355.634
355.876
356.134
356.429
356.77
357.145
357.51
357.824
358.092
358.351
358.639
358.992
359.459
360.115
361.106
362.716
365.496
370.286
377.728
387.227
397.018
406.531
420.844
457.541
313.665
327.07
333.018
337.703
343.642
349.092
352.545
354.231
354.998
355.412
355.704
355.962
356.224
356.518
356.874
357.318
357.849
358.406
358.883
359.234
359.512
359.794
360.14
360.609
361.278
362.264
363.782
366.266
370.482
377.264
386.427
396.182
405.7
420.116
457.504
313.832
327.415
333.474
338.279
344.328
349.636
352.928
354.563
355.308
355.706
355.988
356.241
356.507
356.816
357.206
357.723
358.402
359.209
360.007
360.625
361.033
361.35
361.702
362.196
362.951
364.131
365.956
368.767
373.119
379.636
388.177
397.341
406.696
421.33
458.94
314.114
327.843
333.997
338.959
345.223
350.443
353.472
354.953
355.636
356
356.257
356.489
356.737
357.031
357.411
357.931
358.659
359.632
360.785
361.906
362.767
363.332
363.767
364.271
365.044
366.336
368.469
371.793
376.625
383.145
391.021
399.39
408.444
423.14
460.353
314.425
328.233
334.432
339.511
345.982
351.256
354.099
355.4
355.996
356.313
356.534
356.733
356.945
357.199
357.527
357.981
358.635
359.575
360.853
362.397
363.97
365.285
366.237
366.972
367.771
368.971
370.99
374.297
379.201
385.601
392.93
400.626
409.277
423.793
460.983
314.643
328.489
334.662
339.741
346.281
351.742
354.615
355.833
356.368
356.648
356.838
357.001
357.172
357.372
357.628
357.979
358.484
359.231
360.326
361.855
363.793
365.936
367.976
369.691
371.108
372.506
374.332
377.126
381.358
387.101
393.873
401.181
409.622
424.106
461.814
314.716
328.576
334.669
339.632
346.087
351.81
354.943
356.223
356.746
357.008
357.178
357.317
357.453
357.604
357.79
358.037
358.384
358.893
359.659
360.808
362.471
364.708
367.423
370.361
373.228
375.877
378.438
381.307
385.006
389.896
395.933
402.879
411.259
425.817
463.087
314.666
328.556
334.588
339.386
345.607
351.498
355.016
356.514
357.098
357.373
357.545
357.677
357.798
357.922
358.061
358.231
358.453
358.765
359.224
359.923
360.996
362.609
364.912
367.961
371.648
375.725
379.932
384.153
388.52
393.338
398.882
405.329
413.329
427.325
462.967
314.586
328.545
334.582
339.28
345.285
351.171
354.978
356.734
357.424
357.733
357.918
358.06
358.186
358.308
358.435
358.575
358.735
358.93
359.187
359.556
360.118
360.995
362.359
364.411
367.333
371.205
375.943
381.304
386.973
392.728
398.601
404.918
412.484
425.588
460.312
314.562
328.641
334.742
339.431
345.34
351.11
355.002
356.939
357.733
358.078
358.282
358.44
358.581
358.718
358.861
359.012
359.174
359.346
359.532
359.746
360.022
360.426
361.056
362.064
363.65
366.056
369.503
374.099
379.748
386.136
392.903
399.981
407.899
420.926
456.278
314.613
328.848
335.059
339.844
345.841
351.488
355.275
357.238
358.075
358.435
358.645
358.812
358.967
359.123
359.29
359.473
359.674
359.89
360.11
360.325
360.533
360.751
361.029
361.448
362.134
363.274
365.133
368.042
372.345
378.254
385.659
394.033
403
416.827
453.428
314.773
329.213
335.595
340.576
346.797
352.288
355.823
357.663
358.464
358.808
359.007
359.172
359.335
359.507
359.697
359.914
360.166
360.454
360.77
361.095
361.4
361.663
361.893
362.129
362.453
362.994
363.972
365.76
368.947
374.242
381.94
391.168
400.818
415.392
453.324
315.046
329.715
336.348
341.653
348.224
353.492
356.638
358.228
358.919
359.213
359.383
359.532
359.689
359.865
360.068
360.309
360.601
360.956
361.377
361.856
362.359
362.837
363.252
363.607
363.958
364.422
365.216
366.743
369.693
374.916
382.684
391.868
401.495
416.456
455.514
315.496
330.381
337.358
343.127
350.1
355.03
357.645
358.882
359.411
359.638
359.772
359.897
360.039
360.206
360.407
360.654
360.963
361.354
361.847
362.457
363.175
363.959
364.742
365.479
366.188
366.981
368.089
369.935
373.183
378.526
385.972
394.477
403.729
418.805
458.178
316.115
331.123
338.438
344.716
352.089
356.7
358.755
359.602
359.941
360.088
360.184
360.282
360.401
360.549
360.733
360.964
361.258
361.638
362.134
362.783
363.614
364.629
365.791
367.03
368.312
369.702
371.405
373.802
377.433
382.752
389.623
397.355
406.169
421.081
459.921
316.736
331.771
339.187
345.738
353.446
358.041
359.746
360.296
360.477
360.551
360.612
360.69
360.793
360.924
361.088
361.293
361.553
361.889
362.331
362.925
363.725
364.783
366.127
367.736
369.565
371.611
373.987
376.962
380.91
386.107
392.437
399.57
407.983
422.509
460.475
317.029
332.037
339.119
345.36
353.239
358.559
360.463
360.931
361.013
361.025
361.052
361.112
361.206
361.331
361.487
361.675
361.903
362.188
362.553
363.042
363.71
364.633
365.891
367.542
369.601
372.058
374.944
378.388
382.603
387.747
393.776
400.588
408.748
422.921
460.237
316.82
331.821
338.359
343.79
351.151
357.684
360.639
361.424
361.528
361.499
361.49
361.531
361.621
361.753
361.921
362.12
362.348
362.613
362.93
363.331
363.868
364.611
365.657
367.113
369.069
371.576
374.66
378.363
382.771
387.959
393.914
400.648
408.742
422.78
459.856
316.275
331.433
337.841
342.652
348.777
355.568
359.993
361.627
361.972
361.962
361.919
361.931
362.008
362.147
362.338
362.573
362.842
363.135
363.457
363.829
364.29
364.903
365.758
366.973
368.679
370.994
373.997
377.729
382.223
387.492
393.514
400.32
408.494
422.629
459.818
315.949
331.57
338.457
343.399
348.812
354.25
358.97
361.492
362.281
362.386
362.339
362.319
362.373
362.504
362.711
362.989
363.327
363.702
364.097
364.515
364.985
365.562
366.327
367.393
368.903
371.006
373.832
377.467
381.946
387.257
393.345
400.23
408.518
422.876
460.32
316.284
332.468
340.164
346.011
351.886
355.896
359.159
361.565
362.57
362.779
362.747
362.706
362.731
362.84
363.042
363.342
363.741
364.221
364.745
365.286
365.851
366.484
367.263
368.297
369.726
371.71
374.405
377.931
382.349
387.643
393.741
400.652
409.036
423.645
461.246
317.728
334.192
343.039
350.408
356.845
359.721
361.152
362.432
363.086
363.214
363.161
363.101
363.101
363.186
363.366
363.661
364.088
364.651
365.318
366.037
366.777
367.554
368.437
369.532
370.979
372.94
375.575
379.019
383.345
388.547
394.56
401.407
409.828
424.628
462.205
320.051
336.388
346.518
355.801
361.877
363.285
363.406
363.623
363.749
363.701
363.594
363.507
363.483
363.54
363.693
363.963
364.38
364.973
365.74
366.64
367.608
368.611
369.683
370.917
372.452
374.448
377.07
380.454
384.68
389.754
395.632
402.374
410.785
425.693
463.049
321.556
337.65
347.72
357.648
363.913
365.05
364.806
364.566
364.396
364.225
364.061
363.934
363.873
363.894
364.007
364.232
364.601
365.158
365.938
366.943
368.119
369.394
370.734
372.185
373.864
375.929
378.547
381.863
385.966
390.882
396.594
403.192
411.519
426.384
463.47
320.181
335.62
343.532
351.43
360.014
364.456
365.502
365.409
365.125
364.853
364.615
364.424
364.3
364.261
364.313
364.47
364.755
365.214
365.904
366.873
368.13
369.622
371.269
373.029
374.95
377.158
379.82
383.094
387.098
391.882
397.459
403.936
412.166
426.912
463.674
317.091
331.939
337.829
342.595
350.153
358.654
363.874
365.702
365.89
365.628
365.31
365.028
364.816
364.691
364.661
364.73
364.91
365.233
365.753
366.542
367.666
369.153
370.965
373.021
375.267
377.734
380.539
383.842
387.784
392.458
397.912
404.265
412.338
426.816
463.31
315.396
331.212
338.181
342.373
346.266
351.96
358.752
363.764
365.874
366.25
366.043
365.721
365.428
365.218
365.105
365.091
365.177
365.377
365.727
366.289
367.145
368.382
370.054
372.147
374.594
377.337
380.393
383.857
387.864
392.533
397.947
404.248
412.218
426.483
462.837
316.112
333.769
342.245
348.137
353.187
355.717
357.993
361.895
365.115
366.405
366.554
366.326
366.029
365.774
365.608
365.538
365.56
365.677
365.906
366.29
366.896
367.817
369.156
370.987
373.328
376.133
379.358
383.01
387.165
391.925
397.387
403.704
411.622
425.73
462.131
318.705
336.658
345.904
353.492
360.868
363.964
363.788
364.166
365.832
366.834
366.985
366.799
366.533
366.287
366.113
366.028
366.027
366.106