/*--------------------------------*- C++ -*----------------------------------*\
| =========                 |                                                 |
| \\      /  F ield         | OpenFOAM: The Open Source CFD Toolbox           |
|  \\    /   O peration     | Version:  v2006                                 |
|   \\  /    A nd           | Website:  www.openfoam.com                      |
|    \\/     M anipulation  |                                                 |
\*---------------------------------------------------------------------------*/
FoamFile
{
    version     2.0;
    format      ascii;
    class       volScalarField;
    location    "51";
    object      omega;
}
// * * * * * * * * * * * * * * * * * * * * * * * * * * * * * * * * * * * * * //

dimensions      [0 0 -1 0 0 0 0];


internalField   nonuniform List<scalar> 
78750
(
2377.63
351.841
239.993
133.76
50.9435
23.0732
21.6504
21.8876
23.7249
20.7014
22.9683
20.884
21.6827
21.0908
21.0453
20.6268
20.6212
20.2806
20.1397
19.9125
19.7201
19.5247
19.3352
19.1495
18.9671
18.7868
18.6064
18.4219
18.2261
18.0068
17.7425
17.3949
16.9009
15.9856
541.595
487.995
28.9163
12.7852
17.3717
17.4009
14.4839
15.8618
15.2466
15.2256
15.1329
14.9403
14.8157
14.6246
14.4271
14.1993
13.9497
13.6741
13.3807
13.0702
12.7511
12.4342
12.1313
11.8544
11.6125
11.4122
11.256
11.1438
11.0709
11.0272
10.9952
10.947
10.8362
10.5396
9.57479
803.251
426.905
7.68653
13.1939
11.4613
11.957
12.7412
12.8539
13.3268
13.5583
13.8327
14.0333
14.2248
14.3964
14.548
14.6758
14.7778
14.8487
14.8843
14.8786
14.8272
14.7249
14.5702
14.3659
14.1202
13.8475
13.5665
13.2958
13.0478
12.8328
12.6582
12.5258
12.4248
12.3041
11.9895
809.048
410.386
7.18524
7.43332
7.51559
7.61109
7.9238
8.52206
9.0916
9.77842
10.467
11.0316
11.5028
11.9623
12.4154
12.8257
13.1875
13.522
13.8435
14.1558
14.4547
14.73
14.9639
15.1454
15.2554
15.2772
15.2006
15.0256
14.7647
14.4407
14.0758
13.677
13.2155
12.6272
12.2971
813.114
409.174
9.13888
10.4081
10.9629
11.1539
11.0589
10.8521
10.7808
10.8142
10.8255
10.7154
10.4439
10.2117
10.1259
10.1977
10.4315
10.7876
11.2173
11.7091
12.2576
12.8506
13.4485
14.0014
14.4868
14.8971
15.2265
15.4619
15.581
15.5675
15.4227
15.1585
14.773
14.2645
14.2372
817.384
410.61
11.7551
13.0443
13.4368
13.4847
13.3278
12.985
12.459
11.8048
11.1419
10.5995
10.2389
10.0802
10.106
10.1744
10.1127
9.86933
9.65332
9.63049
9.73203
9.94689
10.362
10.9672
11.7528
12.6582
13.5025
14.149
14.6119
14.927
15.091
15.0675
14.8091
14.3848
14.8012
820.009
412.867
12.9448
14.2014
14.5109
14.4884
14.2895
13.9978
13.6094
13.0137
12.2292
11.4837
11.0218
10.7993
10.6758
10.5994
10.558
10.5451
10.5618
10.574
10.507
10.3413
10.1978
10.1476
10.1793
10.4831
11.1935
12.1631
13.1907
14.0735
14.7577
15.2328
15.434
15.4203
16.2609
822.668
420.574
14.1316
14.4236
14.2132
13.7222
12.9822
12.318
11.8985
11.6261
11.4463
11.3634
11.3128
11.2662
11.2166
11.1623
11.1017
11.0331
10.9548
10.8642
10.7595
10.6286
10.4439
10.2233
10.0786
10.0085
10.0081
10.286
11.1265
12.3051
13.3696
14.1922
14.7702
15.254
16.7488
824.629
427.357
15.0673
14.7591
14.197
13.2247
12.2444
11.7397
11.6127
11.5887
11.5625
11.5504
11.554
11.5604
11.5585
11.543
11.513
11.4675
11.4039
11.3204
11.2162
11.0907
10.9421
10.7697
10.5771
10.382
10.214
10.0795
10.2093
11.111
12.5437
13.8852
14.982
16.0399
18.0103
826.576
422.537
14.7915
15.1295
15.2108
15.177
14.9954
14.6068
14.0506
13.4499
12.8997
12.454
12.1517
11.9979
11.9526
11.9539
11.9589
11.9497
11.9203
11.8667
11.7834
11.6647
11.5061
11.3046
11.0568
10.7622
10.447
10.145
9.83981
9.76374
10.8216
12.6275
14.4031
16.3012
18.6835
827.436
416.29
14.0544
15.2544
15.8202
16.1693
16.3882
16.4667
16.3426
15.9858
15.4204
14.6862
13.8453
13.0142
12.3811
12.0777
12.0185
12.0465
12.085
12.1023
12.0819
12.0158
11.8986
11.7249
11.4883
11.1839
10.8192
10.419
9.97817
9.45129
9.42442
11.3383
13.8222
16.5694
19.2839
828.692
417.012
13.5281
14.7625
15.2589
15.5374
15.7604
15.9701
16.1646
16.3027
16.3057
16.0718
15.5273
14.6664
13.5974
12.6217
12.0647
11.9164
11.9325
11.9801
12.0283
12.0523
12.0354
11.967
11.8372
11.6322
11.3382
10.9629
10.5468
10.0473
9.3535
9.9842
12.6788
16.2702
19.5226
830.392
420.74
14.6836
15.6189
15.9857
16.1491
16.202
16.1687
16.0715
15.9589
15.8859
15.8456
15.7364
15.3846
14.6273
13.5467
12.5703
12.081
11.9933
12.0331
12.094
12.1564
12.1978
12.2012
12.1535
12.043
11.8587
11.5931
11.2464
10.785
10.041
9.70903
12.6023
16.7905
20.3283
832.615
423.247
15.395
16.2498
16.6192
16.8078
16.8994
16.9065
16.8129
16.6018
16.3097
16.0347
15.8407
15.6705
15.3684
14.7224
13.6928
12.6699
12.1121
12.0075
12.0587
12.1367
12.217
12.2723
12.2816
12.2295
12.1045
11.8996
11.6165
11.2255
10.5782
10.0777
13.2643
17.7572
21.1611
833.755
425.128
15.628
16.2548
16.5034
16.6159
16.6519
16.6166
16.5143
16.3792
16.2286
16.0555
15.8975
15.7944
15.7061
15.5366
15.1226
14.2909
13.2115
12.3758
12.0534
12.0239
12.0674
12.1321
12.1836
12.1933
12.1409
12.0137
11.7972
11.4604
10.8982
10.3295
13.1352
18.4294
21.7725
834.566
430.421
16.9292
17.2167
17.2889
17.2718
17.1664
16.9364
16.5666
16.1563
15.8335
15.6136
15.4524
15.3393
15.2725
15.2184
15.1234
14.8894
14.3304
13.4234
12.6012
12.2048
12.1091
12.1048
12.1273
12.1439
12.1262
12.0532
11.9049
11.6515
11.2128
10.6475
12.6055
18.5342
22.0325
835.077
431.441
17.0747
17.3794
17.4874
17.4975
17.4012
17.1535
16.7509
16.3104
15.9585
15.7224
15.5544
15.4095
15.2749
15.1506
15.0264
14.8727
14.6205
14.1252
13.3438
12.627
12.2552
12.1358
12.1069
12.0994
12.0845
12.036
11.9274
11.7272
11.3713
10.9429
12.9538
18.8208
22.3558
836.002
430.226
17.2962
17.7649
17.8888
17.8699
17.715
17.3766
16.8634
16.338
15.9514
15.7243
15.5993
15.5121
15.4231
15.3163
15.1868
15.0285
14.819
14.5001
13.9671
13.2369
12.6114
12.2794
12.1478
12.0943
12.0613
12.0187
11.9427
11.8052
11.5485
11.038
12.1196
18.5698
22.4168
836.825
430.894
17.909
18.4315
18.5469
18.5006
18.3067
17.9101
17.2819
16.5837
16.0497
15.7517
15.6214
15.5666
15.526
15.4693
15.3824
15.2565
15.0785
14.8205
14.4232
13.8172
13.0942
12.5325
12.2367
12.0995
12.0203
11.9489
11.8599
11.7344
11.5496
11.4525
12.6513
18.7135
22.7386
838.541
432.855
18.2385
18.7238
18.8434
18.8021
18.6091
18.2096
17.5628
16.7788
16.102
15.6939
15.5337
15.5118
15.5331
15.5469
15.5299
15.4701
15.3561
15.1684
14.8686
14.3911
13.7
12.9506
12.4034
12.1067
11.95
11.8446
11.7441
11.616
11.4376
11.7118
14.1804
19.6218
23.5278
840.472
432.322
18.4142
19.0279
19.1827
19.1485
18.953
18.5629
17.9585
17.1843
16.3981
15.8133
15.521
15.452
15.4907
15.5532
15.5954
15.5976
15.5481
15.4325
15.2244
14.8739
14.3119
13.5401
12.759
12.189
11.831
11.5888
11.3972
11.2334
11.2185
12.3759
16.7417
21.2903
24.4739
840.789
432.425
18.9037
19.5557
19.6716
19.5843
19.3396
18.9648
18.4827
17.8323
16.9983
16.1656
15.6005
15.3796
15.3898
15.4896
15.5954
15.6706
15.6991
15.6693
15.5648
15.3551
14.9864
14.3962
13.6143
12.8598
12.3249
11.9958
11.7772
11.6005
11.4661
11.8387
15.5572
21.2216
24.271
839.341
433.106
19.2175
19.7531
19.7212
19.4613
19.0312
18.615
18.342
18.0543
17.5282
16.727
15.9296
15.449
15.3207
15.3921
15.526
15.6521
15.7424
15.7843
15.7652
15.6653
15.4495
15.0615
14.4399
13.604
12.7345
12.039
11.5598
11.2206
10.8891
10.6099
12.1325
19.6335
23.6213
840.489
440.823
20.474
20.3606
19.8897
19.1535
18.2738
17.6971
17.5143
17.4404
17.2057
16.689
16.0221
15.5408
15.3885
15.4481
15.5714
15.6984
15.8145
15.9013
15.9349
15.8971
15.7674
15.5034
15.0314
14.28
13.2768
12.2259
11.3853
10.8778
10.8243
11.6053
13.1398
20.1606
24.6239
845.552
452.798
21.3965
20.4084
19.3266
17.8804
16.8167
16.5999
16.7275
16.7761
16.6357
16.3057
15.8808
15.5582
15.4312
15.4478
15.5333
15.6496
15.7816
15.9136
16.0201
16.0703
16.0332
15.8815
15.5786
15.0522
14.2159
13.0713
11.7922
10.6583
10.9743
13.6619
16.5317
21.602
25.6396
847.404
454.102
20.7402
19.6059
18.2726
16.7921
16.1307
16.0781
16.1282
16.1661
16.1419
16.0416
15.8935
15.739
15.6074
15.5101
15.4517
15.4315
15.4452
15.4861
15.5438
15.6014
15.6315
15.5926
15.4313
15.0887
14.5123
13.6753
12.6305
11.8512
13.0971
17.4938
21.8419
24.129
26.4998
843.401
442.658
19.8534
19.8893
19.6
18.9887
18.0351
16.9482
16.1217
15.7406
15.6921
15.7579
15.8105
15.8271
15.8218
15.8062
15.7903
15.7822
15.7885
15.8122
15.8511
15.8975
15.9375
15.9478
15.89
15.7062
15.322
14.6599
13.6919
12.5892
12.3509
15.2721
21.1662
24.4995
26.2504
838.01
436.942
20.4934
21.1576
21.3535
21.2399
20.6666
19.4717
17.8587
16.3033
15.3285
15.0926
15.22
15.3464
15.3708
15.3144
15.2163
15.1052
15.0004
14.9202
14.8842
14.9099
15.0034
15.1549
15.3415
15.5288
15.6631
15.6563
15.3725
14.6813
13.6438
12.8883
15.1154
20.8506
23.7706
836.026
436.943
19.8607
20.4451
20.737
20.9525
21.0692
20.888
20.0544
18.3803
16.2571
14.7045
14.424
14.9122
15.4475
15.7831
15.9287
15.9306
15.8209
15.6216
15.3478
15.0221
14.6905
14.4141
14.2364
14.1721
14.2233
14.3929
14.6886
15.0333
14.8871
13.6477
12.163
17.9488
22.5639
840.56
437.274
19.2235
19.7699
20.0848
20.325
20.5259
20.6683
20.6376
20.0577
18.3445
15.7328
13.6242
13.1354
13.7308
14.4982
15.0975
15.5158
15.7984
15.9736
16.0416
15.9912
15.8277
15.5853
15.3009
14.9881
14.6454
14.27
13.8333
13.6403
14.5418
14.1738
13.438
19.4574
24.4605
847.616
439.074
19.8243
20.4
20.6644
20.7861
20.8126
20.7705
20.681
20.5032
19.914
18.175
15.4218
13.2273
12.7033
13.2242
13.9239
14.5218
15.0081
15.4035
15.6993
15.8786
15.9439
15.9081
15.7725
15.5153
15.1018
14.4949
13.545
12.3414
13.9275
15.4216
16.6169
21.8713
26.3942
851.805
440.097
20.0318
20.59
20.8923
21.0701
21.1485
21.1244
20.9931
20.7664
20.4247
19.6808
17.8165
14.8974
12.4915
11.9051
12.4691
13.2179
13.8943
14.4967
15.045
15.5502
15.9635
16.2081
16.2387
16.0216
15.5031
14.594
13.2161
12.4416
15.9843
20.1717
21.7512
24.3336
27.2069
848.866
440.011
19.9646
20.5099
20.8208
21.0279
21.164
21.2314
21.2226
21.1359
20.9903
20.7529
20.1127
18.2817
15.0535
11.9503
10.8979
11.4448
12.5882
14.2082
15.806
16.8085
17.3258
17.544
17.5236
17.2437
16.646
15.6665
14.329
13.5421
16.3339
21.9706
25.1537
26.4304
27.6803
842.203
440.446
20.012
20.4638
20.7061
20.8596
20.9575
21.0027
20.9852
20.8901
20.7387
20.6114
20.5196
20.1934
18.7695
15.4397
11.793
10.5125
11.2616
12.9788
15.2614
17.0896
18.0573
18.5156
18.705
18.6732
18.3847
17.7821
16.8405
15.7416
15.6127
18.3358
22.4438
25.0414
26.4843
839.19
443.414
20.5339
20.7458
20.8528
20.9125
20.9357
20.9242
20.879
20.7859
20.6004
20.3099
20.0192
19.8222
19.5602
18.3882
14.9728
11.2435
10.0472
10.9112
12.7854
15.1239
17.0619
18.248
18.919
19.3041
19.4768
19.424
19.0936
18.4432
17.5878
17.0908
17.7322
21.0807
24.1112
841.07
447.62
20.9597
20.9152
20.9138
20.9094
20.8785
20.8106
20.7109
20.5934
20.4552
20.2481
19.9296
19.5372
19.1356
18.5943
16.8233
13.225
10.5493
10.2861
11.3967
13.2491
15.411
17.1844
18.3415
19.0731
19.5573
19.8609
19.9755
19.8406
19.3771
18.4587
16.9223
19.6362
24.0595
847.395
448.607
20.7525
20.5969
20.5389
20.4838
20.4034
20.312
20.2345
20.1433
20.0088
19.8137
19.5242
19.0966
18.4943
17.6178
16.0309
13.1982
10.8662
10.5328
11.2883
12.5834
14.4231
16.3731
17.8429
18.8081
19.4701
19.9554
20.3043
20.4994
20.3922
19.7359
18.9233
21.8818
26.2835
853.294
450.238
20.8815
20.5714
20.379
20.1622
19.8679
19.5552
19.3476
19.2224
19.0934
18.9074
18.6212
18.1616
17.3973
16.1283
14.2033
11.981
10.9621
11.1696
11.7201
12.5827
14.0062
15.8862
17.5833
18.7334
19.5142
20.1235
20.6656
21.1548
21.3735
21.3173
21.8544
24.5496
28.0024
854.199
450.452
20.8609
20.5709
20.3731
20.1096
19.7015
19.2073
18.8045
18.4981
18.1893
17.8142
17.3277
16.6543
15.6565
14.2445
12.6937
11.7339
11.6975
11.8688
12.0751
12.4356
13.2447
14.7834
16.7257
18.3309
19.4067
20.2279
21.0373
21.9225
22.5672
23.0252
24.0619
25.9551
28.3074
850.367
449.45
20.6352
20.3379
20.1126
19.7997
19.301
18.6506
18.0704
17.6234
17.1804
16.6332
15.9283
15.059
14.0794
13.1613
12.594
12.4857
12.5299
12.5424
12.5075
12.4576
12.5311
13.0963
14.5848
16.6663
18.4195
19.6879
20.8315
22.1449
23.4022
24.2706
25.2341
26.4322
27.9594
845.978
448.924
20.6033
20.3848
20.2031
19.9183
19.4175
18.6549
17.8189
17.0938
16.4079
15.6416
14.761
13.8628
13.1651
12.8431
12.8478
12.9717
13.0606
13.0727
12.9986
12.8303
12.5778
12.3436
12.5421
13.9631
16.3114
18.2522
19.8014
21.3725
23.1279
24.5731
25.5815
26.44
27.5283
844.084
446.319
20.4037
20.3353
20.2298
20.0247
19.6348
18.972
18.1299
17.3535
16.6413
15.8445
14.8865
13.8375
12.9368
12.4716
12.4983
12.7479
12.9699
13.0918
13.1068
13.0056
12.7659
12.3688
11.9019
12.1162
14.2436
16.6778
18.5742
20.1965
21.9428
23.7385
25.0533
25.9711
27.1122
845.509
446.803
20.6018
20.4943
20.3617
20.1426
19.757
19.1117
18.2253
17.3608
16.6685
15.9983
15.1724
14.1348
13.0368
12.2129
11.9394
12.1295
12.4437
12.6767
12.788
12.7683
12.5844
12.1826
11.6307
11.8637
14.061
16.428
18.2502
19.7041
21.13
22.7952
24.3572
25.5637
27.1534
849.151
447.225
20.5375
20.3706
20.2162
19.9947
19.6385
19.0998
18.3658
17.5335
16.8054
16.1563
15.4164
14.4643
13.3299
12.2548
11.5694
11.4448
11.704
12.0101
12.1997
12.2363
12.0752
11.6585
11.3115
12.5832
15.5865
17.6366
18.9662
20.0831
21.2812
22.7955
24.4272
25.8167
27.7143
851.304
449.408
20.7086
20.3591
20.0801
19.7164
19.174
18.4938
17.8372
17.2053
16.6102
16.0541
15.4255
14.6137
13.5949
12.5057
11.6
11.0952
11.0661
11.3381
11.6075
11.7104
11.5817
11.2298
11.2644
13.4114
17.3236
19.4626
20.2473
20.9224
21.9756
23.4712
25.0002
26.3077
28.0556
849.038
450.954
20.6713
20.261
19.968
19.565
18.9245
18.1065
17.4158
16.9213
16.4755
16.0142
15.472
14.7753
13.8956
12.9055
11.9712
11.2432
10.8303
10.8132
11.0725
11.2917
11.2732
11.0277
11.0753
12.9637
17.1863
20.5777
21.7117
22.0544
22.7289
24.0014
25.3043
26.3876
27.7269
844.072
449.303
20.3015
20.0207
19.8091
19.4593
18.835
17.9421
17.1055
16.5943
16.265
15.9433
15.5451
15.0181
14.3364
13.5298
12.6924
11.9199
11.2706
10.8399
10.7736
11.0058
11.1933
11.1216
10.9602
11.6391
14.5411
18.7947
21.8548
23.0844
23.5454
24.329
25.2627
26.0779
27.029
839.941
445.871
20.0719
20.0656
20.0262
19.8673
19.482
18.746
17.7208
16.8044
16.2409
15.9133
15.6341
15.2858
14.8178
14.2297
13.5673
12.8947
12.2422
11.6279
11.1516
11.0058
11.1974
11.3899
11.3411
11.2366
11.9553
14.5865
18.5199
21.9727
23.6855
24.4597
25.1163
25.7253
26.4699
838.327
442.42
19.93
20.1267
20.2042
20.2048
20.0919
19.7531
19.0081
17.8667
16.7323
15.9789
15.6066
15.3935
15.1598
14.8273
14.3907
13.8901
13.3611
12.8067
12.2331
11.7269
11.5007
11.6514
11.8855
11.9147
11.8044
12.155
14.0234
17.7163
21.6251
23.6124
24.6008
25.2901
26.1204
839.175
441.376
20.0295
20.2389
20.3005
20.308
20.2819
20.2155
20.0086
19.3985
18.2409
16.8824
15.8806
15.4038
15.2234
15.0974
14.9099
14.6405
14.3055
13.9153
13.4676
12.9618
12.4613
12.1701
12.252
12.5049
12.6222
12.5373
12.5817
13.8356
17.565
21.409
23.4514
24.6401
25.9026
841.962
442.922
20.265
20.2946
20.2236
20.101
19.9377
19.7924
19.7404
19.6826
19.2719
18.2201
16.8323
15.7871
15.3156
15.1869
15.1519
15.094
14.9763
14.7891
14.5299
14.1911
13.7683
13.3087
12.9832
12.9737
13.1733
13.3151
13.2554
13.1713
14.5103
18.8696
22.1038
24.0259
25.9529
845.637
446.874
20.7527
20.4914
20.256
19.9949
19.6725
19.3428
19.1289
19.0772
19.024
18.6212
17.6398
16.4704
15.6865
15.3738
15.3224
15.3589
15.3951
15.3901
15.325
15.1834
14.9521
14.6235
14.2266
13.8886
13.7652
13.8235
13.8776
13.7659
13.869
17.1622
21.147
23.7359
26.274
848.851
451.442
21.0324
20.4321
20.0192
19.5929
19.0947
18.6613
18.3907
18.2461
18.1415
17.9272
17.4264
16.6839
16.0493
15.7187
15.6285
15.666
15.7518
15.8406
15.9064
15.9275
15.8817
15.7425
15.4807
15.1024
14.7249
14.5036
14.4298
14.3529
14.2887
16.541
20.841
23.8141
26.6796
850.811
454.05
20.9591
20.1995
19.6782
19.0679
18.3102
17.7272
17.4717
17.354
17.2088
16.9807
16.6662
16.3045
16.0005
15.8284
15.7821
15.8274
15.9321
16.0687
16.2131
16.3369
16.4133
16.4284
16.3758
16.2357
16.0006
15.7214
15.4502
15.1848
15.0099
16.644
20.976
24.0712
27.0144
851.662
453.455
20.8117
20.1548
19.6303
18.8956
17.8398
16.851
16.3067
16.0931
15.9595
15.8039
15.6393
15.4983
15.4003
15.3563
15.3722
15.4527
15.5978
15.7993
16.0519
16.3897
16.8667
17.4142
17.853
18.0518
17.9792
17.6788
17.2163
16.63
16.1021
17.1918
21.2458
24.2897
27.2051
851.95
451.446
21.0073
20.5666
20.1298
19.4701
18.3697
16.9794
15.8077
15.1269
14.7968
14.6029
14.4533
14.335
14.2536
14.2221
14.2616
14.414
14.7378
15.3318
16.3098
17.5182
18.6291
19.4605
19.985
20.2151
20.1639
19.8494
19.2926
18.4984
17.6104
18.0195
21.5082
24.413
27.3029
851.967
450.664
21.4373
21.0994
20.7102
20.1503
19.1995
17.8169
16.2434
14.8882
14.0264
13.5481
13.2445
13.0018
12.7981
12.6566
12.6658
13.1036
14.3429
16.1894
18.061
19.5504
20.6086
21.3409
21.817
22.0555
22.0473
21.7767
21.225
20.3626
19.2865
19.1349
21.87
24.5755
27.3984
851.504
452.145
21.9086
21.53
21.0919
20.4673
19.4662
18.2562
16.9069
15.3508
13.9606
13.0061
12.372
11.8712
11.417
11.0157
10.9368
12.1285
14.8373
17.5855
19.6274
20.9939
21.928
22.6095
23.0995
23.3964
23.4715
23.2873
22.7998
21.9589
20.8489
20.4292
22.4544
24.8439
27.4554
850.301
455.212
22.3627
21.8516
21.3208
20.5372
19.2248
17.8416
16.7861
15.5228
14.0286
12.7485
11.8242
11.0714
10.3414
9.60579
9.27965
11.0786
15.1527
18.4621
20.5078
21.7877
22.6799
23.3726
23.9161
24.2991
24.4819
24.4125
24.0294
23.2703
22.2182
21.7094
23.1708
25.128
27.4026
848.568
458.635
22.7057
22.0502
21.4453
20.5401
18.9885
17.3166
16.3199
15.3666
14.031
12.6165
11.493
10.5737
9.65422
8.58463
7.65038
9.27005
14.5321
18.759
20.8729
22.1326
23.0311
23.7633
24.3747
24.8516
25.1524
25.2178
24.9752
24.3541
23.4244
22.8843
23.8555
25.3537
27.2559
846.935
461.003
22.7965
22.0263
21.3536
20.336
18.643
16.8164
15.8126
15.0571
13.9631
12.5874
11.3666
10.3804
9.39291
8.15119
6.56504
6.69969
12.1402
18.1095
20.8546
22.1874
23.1115
23.8914
24.5731
25.1403
25.5541
25.7575
25.6758
25.2361
24.4925
23.9865
24.5407
25.6011
27.1503
845.725
462.164
22.7516
21.9355
21.2314
20.1486
18.3764
16.4377
15.3869
14.7363
13.8395
12.5928
11.329
10.314
9.35228
8.14972
6.42971
5.0974
9.04713
16.2238
20.4081
22.0423
23.0422
23.8599
24.5978
25.2426
25.7496
26.0669
26.1308
25.8812
25.3687
24.9858
25.2586
25.9472
27.1611
844.622
461.696
22.5694
21.8255
21.1882
20.1821
18.4688
16.3564
15.0521
14.43
13.7165
12.6733
11.4425
10.3791
9.44332
8.34352
6.77397
4.94681
6.48884
11.5872
18.5977
21.6744
22.8584
23.7108
24.5016
25.2289
25.8247
26.2233
26.3833
26.2846
25.9905
25.7643
25.8921
26.3069
27.2012
843.161
459.587
22.2953
21.7751
21.3373
20.5962
19.2104
17.083
15.1577
14.19
13.5349
12.7299
11.68
10.6176
9.69352
8.70286
7.33224
5.3935
6.30909
7.83566
14.219
20.1427
22.5751
23.5296
24.2956
25.0797
25.8043
26.3227
26.5553
26.5341
26.3702
26.2457
26.299
26.5307
27.1467
841.429
455.564
21.9662
21.8045
21.6683
21.3279
20.5286
18.9018
16.567
14.6832
13.5963
12.8377
12.0147
11.0693
10.1684
9.2855
8.17593
6.48203
4.13752
5.25527
8.25596
15.2101
21.0485
23.3857
24.1793
24.81
25.5461
26.2613
26.7104
26.8036
26.6796
26.5361
26.4859
26.5619
26.9445
839.685
451.797
21.7548
21.8888
21.9978
21.992
21.7381
20.9603
19.2211
16.7497
14.59
13.1996
12.3256
11.5574
10.7716
10.0053
9.15154
7.95556
6.0655
5.82779
6.91536
7.66194
15.1196
21.325
24.136
24.8994
25.3051
25.8674
26.5133
26.9406
27.0172
26.8912
26.7305
26.6322
26.767
838.136
448.785
21.4866
21.7759
21.9981
22.1755
22.2636
22.152
21.5534
19.9291
17.3951
14.8551
13.0568
12.0307
11.3361
10.716
10.086
9.30553
8.13
6.21263
6.14176
5.49987
6.36626
13.9342
20.7545
24.5683
25.6596
25.8633
26.1277
26.5711
26.9468
27.0664
26.986
26.8284
26.7664
837.085
447.885
21.4387
21.7156
21.904
22.0612
22.1999
22.3038
22.3047
21.9487
20.6226
18.1326
15.2674
13.0901
11.9169
11.2924
10.8267
10.3384
9.67334
8.61387
6.80656
6.72879
5.76946
4.71836
11.6828
19.0819
24.1314
26.0796
26.3091
26.283
26.412
26.6044
26.6833
26.6364
26.5928
836.518
448.28
21.5654
21.7995
21.9419
22.0333
22.0826
22.0983
22.1013
22.0912
21.8834
20.8432
18.4428
15.4498
13.1706
11.9981
11.4634
11.1229
10.7544
10.204
9.29619
7.75242
5.3049
4.9604
6.80253
9.36743
16.6684
22.6652
25.7563
26.3651
26.2021
26.0263
25.946
25.9123
25.9922
836.16
450.721
21.9002
21.9929
22.083
22.1545
22.1823
22.1263
21.9655
21.7498
21.5486
21.2332
20.1762
17.8151
15.1044
13.2283
12.3219
11.9189
11.6626
11.3635
10.8921
10.1099
8.80077
6.68676
6.5114
4.60536
8.05781
14.753
21.3061
25.2018
26.3375
26.1962
25.8824
25.6414
25.6879
836.031
453.349
21.9629
21.8306
21.8363
21.8934
21.9626
21.9732
21.8419
21.5363
21.1097
20.6267
19.9424
18.5479
16.4318
14.5763
13.4985
12.987
12.7244
12.5147
12.2447
11.8204
11.1276
9.99508
8.15642
5.51194
6.49754
7.71275
12.5874
19.8436
24.6763
26.6466
26.8005
26.6584
26.5999
836.451
455.73
21.9242
21.5787
21.474
21.461
21.4979
21.5021
21.3816
21.0882
20.6143
19.9811
19.1832
18.1289
16.7931
15.5612
14.7424
14.2861
14.0321
13.8544
13.6754
13.4368
13.0718
12.4919
11.5708
10.119
7.99405
5.40078
5.31261
11.478
18.137
23.5986
26.4291
27.2152
27.3922
837.608
455.625
21.5799
21.1519
20.9832
20.9058
20.8907
20.836
20.6485
20.3114
19.8411
19.2514
18.5547
17.7889
17.0278
16.3731
15.8914
15.5757
15.3807
15.2417
15.1198
14.9853
14.8081
14.5465
14.1425
13.5134
12.5479
11.1225
9.30543
8.46961
10.7161
15.3117
21.2251
24.2312
25.6938
839.972
454.661
21.4014
20.932
20.6836
20.5128
20.448
20.3601
20.123
19.7396
19.2736
18.7977
18.3413
17.9063
17.5017
17.1471
16.8548
16.6314
16.4746
16.3665
16.2874
16.2204
16.1508
16.0602
15.9199
15.6957
15.338
14.7781
13.9339
12.7959
11.8233
11.3881
13.0715
19.0087
23.4287
845.894
453.778
21.2665
20.7065
20.3404
20.0485
19.9816
19.9868
19.8429
19.525
19.1147
18.7279
18.4142
18.1502
17.9102
17.691
17.4972
17.3358
17.2115
17.1231
17.0644
17.0263
16.9998
16.9755
16.9426
16.8838
16.7748
16.5825
16.246
15.6885
14.958
13.3208
10.1102
17.521
24.5811
855.332
454.65
21.3198
20.6139
20.1154
19.6728
19.5793
19.7222
19.7495
19.5632
19.2112
18.8234
18.5121
18.288
18.1152
17.9679
17.8348
17.7165
17.6179
17.5413
17.4878
17.4546
17.4372
17.4303
17.4268
17.4173
17.3862
17.3121
17.169
16.9186
16.3644
14.7279
13.7525
20.5492
27.32
859.86
455.637
21.2195
20.4083
19.8178
19.2141
18.9853
19.2012
19.4075
19.4047
19.1869
18.8495
18.5417
18.3297
18.1906
18.0873
17.996
17.9097
17.8297
17.7591
17.7013
17.6569
17.6245
17.6012
17.5823
17.5612
17.5295
17.4813
17.4409
17.4396
17.2213
16.8265
18.6574
23.5774
28.3818
854.379
455.329
21.0788
20.3421
19.7705
19.0466
18.4681
18.5008
18.794
18.9705
18.9422
18.7514
18.5203
18.3458
18.236
18.1614
18.0972
18.0329
17.9666
17.8997
17.8359
17.7774
17.7242
17.6748
17.6247
17.5674
17.497
17.4274
17.4636
17.8056
18.3435
19.2493
21.7924
25.014
27.9863
845.458
452.756
20.9523
20.488
20.0603
19.3567
18.3304
17.7295
17.8892
18.2319
18.4341
18.4639
18.3956
18.3163
18.2608
18.2211
18.1835
18.1404
18.0896
18.0317
17.9701
17.9071
17.8443
17.7809
17.712
17.6288
17.52
17.4039
17.4299
17.9856
19.2297
20.9019
23.2106
25.3024
27.12
839.551
450.444
21.1094
20.8983
20.6397
20.1222
19.006
17.5036
16.965
17.29
17.7142
17.9862
18.1207
18.1824
18.215
18.2319
18.2351
18.2244
18.2005
18.1648
18.1206
18.0713
18.0198
17.967
17.9091
17.8328
17.7178
17.5641
17.485
17.9135
19.3898
21.5061
23.5281
25.0238
26.2953
837.212
449.953
21.2262
21.0647
20.8931
20.5766
19.8249
18.1298
16.5462
16.403
16.9062
17.3822
17.7096
17.9241
18.065
18.1585
18.219
18.2546
18.2704
18.2696
18.2567
18.2365
18.2147
18.1954
18.1781
18.1471
18.0761
17.9418
17.7851
17.9099
19.0505
21.2845
23.2406
24.5319
25.6708
837.041
451.497
21.2935
20.9659
20.7209
20.4056
19.8784
18.7386
16.8261
15.9483
16.2672
16.8269
17.2813
17.6082
17.8404
18.007
18.1275
18.2147
18.2765
18.318
18.3449
18.364
18.3834
18.4116
18.4511
18.4899
18.4994
18.4412
18.3002
18.2165
18.7991
20.7053
22.6996
24.0183
25.2658
837.877
453.903
21.4224
20.8672
20.4557
19.9419
19.2647
18.4692
17.0832
15.9189
15.958
16.4745
16.9635
17.3372
17.6158
17.8262
17.988
18.1146
18.2149
18.295
18.3613
18.4215
18.486
18.5679
18.6737
18.7972
18.9115
18.9698
18.9271
18.814
19.0063
20.3389
22.254
23.6568
25.0933
838.997
456.023
21.4374
20.7044
20.1614
19.4315
18.4555
17.6032
16.7562
15.948
15.9356
16.3738
16.8192
17.1741
17.45
17.6676
17.8432
17.9884
18.1111
18.2171
18.313
18.4071
18.5116
18.6435
18.8149
19.0259
19.2515
19.4392
19.5289
19.5008
19.5595
20.4198
22.1027
23.5271
25.1124
839.954
456.301
21.0624
20.2294
19.5953
18.6814
17.5035
16.6187
16.1373
15.8752
16.0336
16.4176
16.7848
17.0858
17.33
17.5312
17.7005
17.8467
17.9764
18.0947
18.2083
18.3262
18.463
18.6401
18.8767
19.1799
19.525
19.8513
20.0867
20.192
20.2898
20.9166
22.3107
23.6481
25.2655
840.493
454.135
20.5592
19.778
19.1205
18.0974
16.7912
15.8904
15.638
15.7269
16.0202
16.3764
16.6964
16.9632
17.1853
17.3727
17.5341
17.677
17.8073
17.9303
18.053
18.1858
18.3463
18.5622
18.8614
19.2588
19.7289
20.199
20.5849
20.8415
21.0597
21.6285
22.7653
23.9289
25.4553
840.543
451.114
20.3374
19.743
19.2023
18.3023
16.9295
15.6867
15.2318
15.3534
15.6997
16.0807
16.4178
16.6981
16.9306
17.1264
17.2951
17.4447
17.5824
17.7139
17.8468
17.9934
18.1747
18.4261
18.7867
19.2823
19.8851
20.5061
21.0466
21.4598
21.8214
22.4022
23.3259
24.2874
25.6432
840.29
449.585
20.3845
19.8998
19.4876
18.841
17.6667
16.1101
15.0479
14.8508
15.1437
15.5672
15.9623
16.2923
16.5632
16.7883
16.9801
17.1493
17.3043
17.4515
17.5993
17.7612
17.9618
18.2434
18.6585
19.2479
19.9846
20.7597
21.4558
22.0215
22.5153
23.1109
23.8592
24.6315
25.7933
839.904
450.023
20.4071
19.8503
19.4153
18.8311
17.9261
16.5829
15.1976
14.5474
14.6389
15.045
15.4803
15.8562
16.1658
16.4224
16.6409
16.8341
17.0112
17.179
17.346
17.526
17.7458
18.0519
18.5093
19.1778
20.0392
20.9647
21.8109
22.5146
23.1131
23.7073
24.319
24.9384
25.9253
839.604
451.25
20.3818
19.705
19.1677
18.427
17.4641
16.4101
15.2453
14.4583
14.3684
14.6993
15.1241
15.5103
15.8343
16.1057
16.3398
16.5493
16.7437
16.9297
17.1155
17.314
17.5524
17.8769
18.3602
19.0822
20.0443
21.1065
22.0922
22.9161
23.5903
24.1696
24.6801
25.1838
26.0285
839.388
451.633
20.3428
19.662
19.0971
18.2328
17.0301
15.9145
14.9938
14.351
14.2227
14.491
14.8822
15.256
15.5779
15.8524
16.0931
16.3119
16.5184
16.7196
16.9232
17.1411
17.3988
17.7382
18.233
18.9785
20.0068
21.1842
22.2964
23.2221
23.9495
24.512
24.9551
25.381
26.1288
839.368
450.927
20.3165
19.7187
19.2054
18.3775
17.0967
15.7649
14.7822
14.2009
14.0651
14.2894
14.6533
15.0184
15.3411
15.6208
15.869
16.0971
16.3153
16.5314
16.7535
16.9932
17.2732
17.6289
18.1279
18.8699
19.9188
21.1734
22.396
23.4162
24.1916
24.7482
25.1538
25.5336
26.2217
839.454
450.557
20.3852
19.8156
19.3305
18.5799
17.4111
16.0152
14.8206
14.0933
13.867
14.0336
14.3787
14.7482
15.0832
15.3772
15.6392
15.8811
16.1144
16.3485
16.5924
16.8577
17.1642
17.5416
18.0485
18.7804
19.8235
21.12
22.429
23.53
24.3484
24.9095
25.3
25.6591
26.3226
839.722
451.313
20.4915
19.8498
19.3159
18.5398
17.4808
16.2497
15.0163
14.1168
13.7316
13.7994
14.1058
14.4731
14.8199
15.1289
15.405
15.6606
15.9093
16.1619
16.4289
16.7227
17.0604
17.4659
17.9858
18.7026
19.7119
21.0065
22.375
23.5547
24.4263
25.01
25.407
25.7675
26.4329
840.096
452.302
20.4922
19.7536
19.1356
18.2362
17.1514
16.1118
15.0657
14.1734
13.6862
13.6517
13.8997
14.2466
14.5925
14.9072
15.1905
15.4552
15.7155
15.9835
16.2711
16.5922
16.963
17.4046
17.9557
18.6832
19.6732
20.9453
22.3319
23.5601
24.4737
25.0824
25.4949
25.8688
26.5538
840.566
452.202
20.3568
19.59
18.9305
17.9472
16.7787
15.799
14.9502
14.1899
13.6906
13.5715
13.7456
14.0539
14.3864
14.6992
14.9858
15.2564
15.5257
15.8067
16.113
16.46
16.863
17.3405
17.9232
18.6653
19.6418
20.8874
22.2759
23.5416
24.497
25.1369
25.5735
25.9702
26.6835
841.026
451.214
20.2194
19.4745
18.8247
17.8768
16.6924
15.6421
14.8374
14.1704
13.686
13.4999
13.5975
13.8598
14.1742
14.4845
14.775
15.0522
15.33
15.6227
15.9458
16.3175
16.755
17.2776
17.9123
18.7003
19.6962
20.9273
22.2967
23.5667
24.5406
25.2
25.6551
26.0714
26.8087
841.423
451.009
20.1983
19.3869
18.7051
17.8479
16.8154
15.7355
14.8625
14.1894
13.6879
13.4266
13.4343
13.6386
13.9307
14.2397
14.5368
14.8236
15.1128
15.4195
15.7606
16.1566
16.6251
17.1857
17.8636
18.6942
19.7211
20.9612
22.3271
23.6027
24.592
25.2686
25.7412
26.1756
26.9314
841.733
452.205
20.1637
19.126
18.276
17.4238
16.6653
15.7749
14.9189
14.2304
13.7106
13.3907
13.3088
13.4396
13.6946
13.9933
14.292
14.5853
14.8838
15.2027
15.5606
15.9812
16.4853
17.0956
17.8357
18.7323
19.8123
21.0755
22.4352
23.6974
24.6807
25.3583
25.836
26.277
27.0356
841.926
453.175
19.9357
18.6701
17.5927
16.62
16.0888
15.5192
14.8479
14.2279
13.727
13.3822
13.2316
13.2846
13.4863
13.7601
14.0522
14.3482
14.6547
14.9858
15.3604
15.8026
16.3341
16.9794
17.7641
18.7142
19.85
21.1566
22.5349
23.7975
24.7769
25.4532
25.9327
26.3766
27.1315
842.05
451.988
19.5788
18.3658
17.2317
16.0158
15.4373
15.0787
14.6345
14.1484
13.7054
13.3638
13.1689
13.1521
13.2935
13.5326
13.8117
14.1061
14.4171
14.7574
15.1472
15.6135
16.1811
16.8771
17.7257
18.7454
19.9443
21.2938
22.6858
23.9383
24.9004
25.563
26.0335
26.469
27.2048
842.052
449.527
19.5073
18.6321
17.7018
16.2366
15.1493
14.6946
14.3739
14.0141
13.6385
13.3076
13.0763
12.9928
13.069
13.2685
13.5355
13.8336
14.156
14.512
14.9207
15.4087
16.002
16.7304
17.622
18.6976
19.96
21.367
22.7945
24.0554
25.01
25.6629
26.1252
26.5518
27.2669
842.016
448.537
19.8284
19.157
18.4506
17.115
15.4597
14.5425
14.1419
13.8479
13.5398
13.2329
12.9754
12.8268
12.83
12.9791
13.2256
13.5225
13.8527
14.2225
14.6521
15.1709
15.8071
16.5907
17.5466
18.6894
20.0142
21.4701
22.9239
24.1859
25.1271
25.7651
26.2138
26.6243
27.3072
841.892
450.094
20.0557
19.2089
18.4863
17.4876
15.9312
14.6524
14.0353
13.7084
13.434
13.159
12.898
12.7021
12.6314
12.7154
12.9271
13.2171
13.5575
13.946
14.3962
14.9352
15.5933
16.4045
17.3982
18.5912
19.9755
21.4899
22.9873
24.2685
25.2097
25.841
26.2811
26.6793
27.3361
841.803
452.649
19.9275
18.6235
17.5938
16.747
15.7616
14.6757
14.0097
13.6427
13.3682
13.111
12.8588
12.6408
12.5126
12.5236
12.6764
12.933
13.2622
13.6564
14.1279
14.701
15.4041
16.2682
17.3161
18.5577
19.9837
21.5335
23.0565
24.348
25.2865
25.9105
26.3415
26.7263
27.3555
841.693
453.409
19.4566
17.7135
16.3097
15.6264
15.1597
14.5134
13.9805
13.617
13.3325
13.0743
12.8241
12.5975
12.4341
12.3875
12.4864
12.7112
13.0304
13.427
13.9073