/*--------------------------------*- C++ -*----------------------------------*\
| =========                 |                                                 |
| \\      /  F ield         | OpenFOAM: The Open Source CFD Toolbox           |
|  \\    /   O peration     | Version:  v2006                                 |
|   \\  /    A nd           | Website:  www.openfoam.com                      |
|    \\/     M anipulation  |                                                 |
\*---------------------------------------------------------------------------*/
FoamFile
{
    version     2.0;
    format      ascii;
    class       volScalarField;
    location    "81";
    object      alphat;
}
// * * * * * * * * * * * * * * * * * * * * * * * * * * * * * * * * * * * * * //

dimensions      [1 -1 -1 0 0 0 0];


internalField   nonuniform List<scalar> 
78750
(
5.40114e-09
4.49629e-07
7.3852e-07
1.01967e-06
1.2897e-06
1.54292e-06
1.77647e-06
1.98892e-06
2.17951e-06
2.3479e-06
2.49408e-06
2.61829e-06
2.72098e-06
2.80273e-06
2.86418e-06
2.9049e-06
2.92547e-06
2.92662e-06
2.90899e-06
2.87302e-06
2.81949e-06
2.74748e-06
2.65685e-06
2.5474e-06
2.41852e-06
2.26936e-06
2.09895e-06
1.90556e-06
1.68763e-06
1.44386e-06
1.17206e-06
8.73597e-07
5.70721e-07
3.17922e-07
6.39362e-09
3.42239e-09
1.98424e-06
5.00248e-06
8.51175e-06
1.16256e-05
1.36849e-05
1.50054e-05
1.59948e-05
1.6858e-05
1.76882e-05
1.85341e-05
1.94243e-05
2.03838e-05
2.14443e-05
2.25579e-05
2.27122e-05
2.25082e-05
2.22088e-05
2.18252e-05
2.13673e-05
2.08438e-05
2.02587e-05
1.96151e-05
1.89148e-05
1.81555e-05
1.73324e-05
1.64414e-05
1.48811e-05
1.25448e-05
1.01183e-05
7.51667e-06
5.11823e-06
3.75827e-06
2.49844e-06
2.7284e-08
5.43678e-09
2.3142e-06
5.01226e-06
8.35928e-06
1.22638e-05
1.62881e-05
1.97652e-05
2.22832e-05
2.38896e-05
2.48417e-05
2.53732e-05
2.56369e-05
2.57229e-05
2.56844e-05
2.55501e-05
2.53188e-05
2.49721e-05
2.45069e-05
2.39329e-05
2.32596e-05
2.24978e-05
2.16719e-05
2.08035e-05
1.98895e-05
1.89124e-05
1.784e-05
1.66097e-05
1.5127e-05
1.32671e-05
1.09384e-05
8.38447e-06
6.49436e-06
6.30308e-06
2.71378e-06
4.61148e-08
9.77924e-09
2.18568e-06
4.90178e-06
8.63886e-06
1.33891e-05
1.84435e-05
2.27194e-05
2.56731e-05
2.73943e-05
2.81672e-05
2.82519e-05
2.78523e-05
2.71219e-05
2.6175e-05
2.50955e-05
2.39461e-05
2.27709e-05
2.15999e-05
2.04543e-05
1.93524e-05
1.83161e-05
1.73736e-05
1.65546e-05
1.58742e-05
1.53172e-05
1.4822e-05
1.42577e-05
1.34183e-05
1.20869e-05
1.0239e-05
8.34359e-06
7.41048e-06
8.54019e-06
2.50897e-06
5.962e-08
1.44995e-08
2.19426e-06
5.10828e-06
9.51834e-06
1.55347e-05
2.19765e-05
2.71257e-05
3.03411e-05
3.18204e-05
3.19477e-05
3.1117e-05
2.96865e-05
2.7947e-05
2.61093e-05
2.43081e-05
2.26147e-05
2.10548e-05
1.96252e-05
1.83097e-05
1.70927e-05
1.59723e-05
1.49667e-05
1.41068e-05
1.34164e-05
1.28991e-05
1.25145e-05
1.21417e-05
1.15695e-05
1.05949e-05
9.26994e-06
8.12258e-06
8.15029e-06
9.71239e-06
2.35573e-06
6.88999e-08
1.9675e-08
2.22846e-06
5.3518e-06
1.04357e-05
1.772e-05
2.5328e-05
3.07699e-05
3.3543e-05
3.41819e-05
3.32964e-05
3.14436e-05
2.91044e-05
2.66467e-05
2.43081e-05
2.22084e-05
2.03811e-05
1.88084e-05
1.74483e-05
1.62535e-05
1.5185e-05
1.4224e-05
1.33737e-05
1.2643e-05
1.20331e-05
1.15382e-05
1.11277e-05
1.07144e-05
1.01532e-05
9.3413e-06
8.41369e-06
7.89018e-06
8.74586e-06
9.82111e-06
2.24088e-06
7.51539e-08
2.45642e-08
2.27128e-06
5.55641e-06
1.1144e-05
1.93474e-05
2.76333e-05
3.30488e-05
3.5361e-05
3.53008e-05
3.35956e-05
3.09414e-05
2.79448e-05
2.50338e-05
2.24401e-05
2.02403e-05
1.84158e-05
1.69074e-05
1.56466e-05
1.45705e-05
1.36334e-05
1.2817e-05
1.21243e-05
1.15418e-05
1.10387e-05
1.05859e-05
1.01479e-05
9.66654e-06
9.07261e-06
8.36433e-06
7.731e-06
7.66753e-06
9.12907e-06
9.31295e-06
2.15108e-06
7.99571e-08
2.89495e-08
2.31437e-06
5.71484e-06
1.16669e-05
2.05749e-05
2.93522e-05
3.46362e-05
3.64326e-05
3.56796e-05
3.32619e-05
3.0018e-05
2.66269e-05
2.35129e-05
2.08557e-05
1.86715e-05
1.69042e-05
1.54783e-05
1.43201e-05
1.33677e-05
1.25808e-05
1.19443e-05
1.14415e-05
1.10148e-05
1.05961e-05
1.01363e-05
9.60888e-06
9.00054e-06
8.32052e-06
7.64607e-06
7.192e-06
7.42394e-06
9.26652e-06
8.71385e-06
2.08381e-06
8.45691e-08
3.3004e-08
2.34743e-06
5.81412e-06
1.19898e-05
2.13301e-05
3.03254e-05
3.54052e-05
3.6801e-05
3.558e-05
3.27236e-05
2.9153e-05
2.55744e-05
2.23851e-05
1.97169e-05
1.75483e-05
1.58009e-05
1.43958e-05
1.32664e-05
1.23603e-05
1.1654e-05
1.11523e-05
1.08286e-05
1.05876e-05
1.03145e-05
9.91529e-06
9.34821e-06
8.63704e-06
7.86631e-06
7.18095e-06
6.81524e-06
7.21407e-06
9.26226e-06
8.1706e-06
2.03196e-06
8.96837e-08
3.67679e-08
2.3775e-06
5.8927e-06
1.22326e-05
2.18985e-05
3.10569e-05
3.59686e-05
3.70302e-05
3.54266e-05
3.22382e-05
2.84506e-05
2.47743e-05
2.1568e-05
1.89187e-05
1.67767e-05
1.50532e-05
1.36645e-05
1.25488e-05
1.16666e-05
1.1009e-05
1.05964e-05
1.03927e-05
1.02844e-05
1.01278e-05
9.79059e-06
9.20819e-06
8.42286e-06
7.57578e-06
6.86472e-06
6.53923e-06
7.03116e-06
9.1887e-06
7.72102e-06
1.99229e-06
9.5235e-08
4.05317e-08
2.40243e-06
5.94898e-06
1.24053e-05
2.22943e-05
3.15082e-05
3.62311e-05
3.70233e-05
3.51545e-05
3.17637e-05
2.78646e-05
2.41545e-05
2.09562e-05
1.83254e-05
1.61954e-05
1.44727e-05
1.30764e-05
1.19494e-05
1.10621e-05
1.04241e-05
1.00719e-05
9.96201e-06
9.97123e-06
9.93415e-06
9.68314e-06
9.12476e-06
8.30617e-06
7.40728e-06
6.66898e-06
6.35908e-06
6.90658e-06
9.13074e-06
7.35218e-06
1.96255e-06
1.01079e-07
4.42735e-08
2.42735e-06
6.00704e-06
1.25767e-05
2.26682e-05
3.19248e-05
3.64794e-05
3.70318e-05
3.49304e-05
3.13733e-05
2.73973e-05
2.36798e-05
2.05069e-05
1.79057e-05
1.57949e-05
1.40769e-05
1.26724e-05
1.15291e-05
1.06252e-05
9.98217e-06
9.65171e-06
9.58835e-06
9.66728e-06
9.71365e-06
9.53701e-06
9.01906e-06
8.20145e-06
7.28402e-06
6.53566e-06
6.24109e-06
6.83548e-06
9.11725e-06
7.04952e-06
1.94122e-06
1.06952e-07
4.81232e-08
2.45026e-06
6.05861e-06
1.27283e-05
2.29865e-05
3.2241e-05
3.66183e-05
3.69602e-05
3.46794e-05
3.10126e-05
2.70012e-05
2.32966e-05
2.01531e-05
1.75764e-05
1.54769e-05
1.37558e-05
1.23368e-05
1.11722e-05
1.02468e-05
9.59257e-06
9.27053e-06
9.23418e-06
9.36034e-06
9.47059e-06
9.36072e-06
8.89357e-06
8.10187e-06
7.19348e-06
6.4533e-06
6.18085e-06
6.8245e-06
9.16345e-06
6.8014e-06
1.92726e-06
1.12746e-07
5.20439e-08
2.47457e-06
6.11751e-06
1.2898e-05
2.33263e-05
3.25708e-05
3.67739e-05
3.69164e-05
3.4473e-05
3.07172e-05
2.66898e-05
2.30122e-05
1.99066e-05
1.73592e-05
1.52729e-05
1.35486e-05
1.21125e-05
1.09216e-05
9.96646e-06
9.28755e-06
8.95524e-06
8.92191e-06
9.06658e-06
9.21268e-06
9.15077e-06
8.73271e-06
7.9822e-06
7.10592e-06
6.3944e-06
6.15753e-06
6.86059e-06
9.26205e-06
6.60122e-06
1.91996e-06
1.18379e-07
5.60363e-08
2.49749e-06
6.17295e-06
1.30573e-05
2.36362e-05
3.28505e-05
3.68833e-05
3.68498e-05
3.42772e-05
3.04635e-05
2.64389e-05
2.27943e-05
1.97246e-05
1.72016e-05
1.51238e-05
1.33926e-05
1.19371e-05
1.07179e-05
9.73072e-06
9.0222e-06
8.67131e-06
8.63121e-06
8.78224e-06
8.95006e-06
8.92588e-06
8.55574e-06
7.85569e-06
7.02686e-06
6.35909e-06
6.1696e-06
6.94225e-06
9.40646e-06
6.43903e-06
1.91796e-06
1.23845e-07
6.01197e-08
2.52203e-06
6.23518e-06
1.3234e-05
2.39696e-05
3.31464e-05
3.70096e-05
3.68109e-05
3.41263e-05
3.02729e-05
2.62652e-05
2.26617e-05
1.96316e-05
1.71344e-05
1.50648e-05
1.33247e-05
1.1846e-05
1.0593e-05
9.56628e-06
8.81714e-06
8.43269e-06
8.3695e-06
8.51004e-06
8.68317e-06
8.68306e-06
8.35658e-06
7.71286e-06
6.94349e-06
6.33232e-06
6.20146e-06
7.05416e-06
9.58207e-06
6.31268e-06
1.92085e-06
1.29155e-07
6.4225e-08
2.54537e-06
6.29494e-06
1.34037e-05
2.42832e-05
3.34139e-05
3.71179e-05
3.67744e-05
3.40005e-05
3.01244e-05
2.61411e-05
2.25789e-05
1.9586e-05
1.71119e-05
1.50487e-05
1.32988e-05
1.1796e-05
1.05079e-05
9.43937e-06
8.64531e-06
8.22032e-06
8.12629e-06
8.24815e-06
8.41908e-06
8.43778e-06
8.15242e-06
7.56788e-06
6.86489e-06
6.31872e-06
6.25524e-06
7.19681e-06
9.7834e-06
6.21342e-06
1.92744e-06
1.34319e-07
6.84267e-08
2.57015e-06
6.36018e-06
1.3588e-05
2.46173e-05
3.36972e-05
3.72454e-05
3.67693e-05
3.39222e-05
3.00374e-05
2.60872e-05
2.25704e-05
1.96161e-05
1.71655e-05
1.51086e-05
1.33477e-05
1.18177e-05
1.04898e-05
9.3721e-06
8.52295e-06
8.04312e-06
7.90371e-06
7.99284e-06
8.14939e-06
8.17922e-06
7.93352e-06
7.41127e-06
6.78057e-06
6.30627e-06
6.31708e-06
7.35449e-06
9.99619e-06
6.13885e-06
1.93714e-06
1.39362e-07
7.26179e-08
2.59387e-06
6.42408e-06
1.37701e-05
2.49428e-05
3.3968e-05
3.737e-05
3.67755e-05
3.3868e-05
2.99816e-05
2.60659e-05
2.25933e-05
1.96766e-05
1.72503e-05
1.52015e-05
1.34319e-05
1.1877e-05
1.051e-05
9.34191e-06
8.43445e-06
7.89333e-06
7.7014e-06
7.75057e-06
7.88601e-06
7.92181e-06
7.71353e-06
7.25462e-06
6.69946e-06
6.3016e-06
6.39247e-06
7.53234e-06
1.02217e-05
6.08366e-06
1.94945e-06
1.44283e-07
7.69088e-08
2.61873e-06
6.49242e-06
1.39652e-05
2.52885e-05
3.42567e-05
3.75173e-05
3.68159e-05
3.38603e-05
2.99811e-05
2.61039e-05
2.2677e-05
1.97987e-05
1.73975e-05
1.53581e-05
1.35802e-05
1.19997e-05
1.05906e-05
9.36637e-06
8.39142e-06
7.77599e-06
7.51863e-06
7.51598e-06
7.62055e-06
7.656e-06
7.48282e-06
7.08809e-06
6.61109e-06
6.29305e-06
6.46796e-06
7.71449e-06
1.04468e-05
6.04519e-06
1.96361e-06
1.49104e-07
8.11729e-08
2.64251e-06
6.5601e-06
1.41626e-05
2.56365e-05
3.45457e-05
3.76709e-05
3.6869e-05
3.38686e-05
2.99962e-05
2.6156e-05
2.27742e-05
1.99362e-05
1.7564e-05
1.55389e-05
1.37586e-05
1.21575e-05
1.07093e-05
9.42932e-06
8.38461e-06
7.68951e-06
7.36026e-06
7.29903e-06
7.36623e-06
7.39587e-06
7.25418e-06
6.92219e-06
6.52378e-06
6.28753e-06
6.54988e-06
7.90716e-06
1.06739e-05
6.01884e-06
1.97926e-06
1.53814e-07
8.55407e-08
2.66695e-06
6.631e-06
1.43722e-05
2.60072e-05
3.48595e-05
3.7854e-05
3.69579e-05
3.39175e-05
3.00546e-05
2.62526e-05
2.29169e-05
2.01204e-05
1.7779e-05
1.57706e-05
1.39902e-05
1.23697e-05
1.08819e-05
9.54267e-06
8.42149e-06
7.63608e-06
7.22444e-06
7.09502e-06
7.11665e-06
7.13427e-06
7.02021e-06
6.74922e-06
6.42932e-06
6.27617e-06
6.62858e-06
8.09995e-06
1.08978e-05
6.00558e-06
1.99636e-06
1.58432e-07
8.98742e-08
2.69009e-06
6.70068e-06
1.45841e-05
2.63854e-05
3.51823e-05
3.80488e-05
3.7057e-05
3.39696e-05
3.01115e-05
2.6347e-05
2.30596e-05
2.03089e-05
1.80047e-05
1.60205e-05
1.42479e-05
1.26151e-05
1.10926e-05
9.69608e-06
8.49706e-06
7.61701e-06
7.11736e-06
6.91379e-06
6.88383e-06
6.88362e-06
6.79202e-06
6.57809e-06
6.33436e-06
6.26359e-06
6.70676e-06
8.29328e-06
1.11135e-05
5.99724e-06
2.01368e-06
1.62932e-07
9.43112e-08
2.71353e-06
6.77192e-06
1.48015e-05
2.67669e-05
3.54902e-05
3.82313e-05
3.71608e-05
3.40393e-05
3.01941e-05
2.6471e-05
2.32338e-05
2.05306e-05
1.82657e-05
1.63089e-05
1.45479e-05
1.29065e-05
1.13514e-05
9.89712e-06
8.61634e-06
7.63419e-06
7.03798e-06
6.75226e-06
6.66357e-06
6.63924e-06
6.56479e-06
6.40394e-06
6.23415e-06
6.24552e-06
6.7813e-06
8.48637e-06
1.13277e-05
6.00018e-06
2.03232e-06
1.67335e-07
9.87095e-08
2.73591e-06
6.84229e-06
1.50182e-05
2.71377e-05
3.57809e-05
3.83964e-05
3.72477e-05
3.41032e-05
3.0269e-05
2.65853e-05
2.34003e-05
2.07498e-05
1.85311e-05
1.66102e-05
1.487e-05
1.32287e-05
1.16482e-05
1.01402e-05
8.77825e-06
7.69164e-06
6.99329e-06
6.61956e-06
6.46616e-06
6.41147e-06
6.34778e-06
6.23416e-06
6.13383e-06
6.22457e-06
6.85146e-06
8.67331e-06
1.15264e-05
6.0031e-06
2.05036e-06
1.716e-07
1.03208e-07
2.75852e-06
6.91499e-06
1.52438e-05
2.75069e-05
3.60608e-05
3.85513e-05
3.73289e-05
3.41686e-05
3.03528e-05
2.67141e-05
2.35845e-05
2.09888e-05
1.88191e-05
1.69377e-05
1.52232e-05
1.35877e-05
1.1987e-05
1.04285e-05
8.98574e-06
7.79183e-06
6.98412e-06
6.51508e-06
6.28996e-06
6.19809e-06
6.13851e-06
6.06625e-06
6.03116e-06
6.19926e-06
6.91773e-06
8.8598e-06
1.17275e-05
6.01443e-06
2.0691e-06
1.75746e-07
1.07654e-07
2.77958e-06
6.9851e-06
1.54663e-05
2.78611e-05
3.63188e-05
3.86833e-05
3.73874e-05
3.42128e-05
3.04213e-05
2.68297e-05
2.37577e-05
2.12209e-05
1.91067e-05
1.72731e-05
1.55934e-05
1.39732e-05
1.23608e-05
1.07583e-05
9.23829e-06
7.93837e-06
7.01668e-06
6.44675e-06
6.14378e-06
6.00784e-06
5.94485e-06
5.90668e-06
5.931e-06
6.17265e-06
6.98087e-06
9.04303e-06
1.19218e-05
6.02648e-06
2.08722e-06
1.79733e-07
1.12188e-07
2.80079e-06
7.05606e-06
1.56914e-05
2.82134e-05
3.65668e-05
3.88052e-05
3.74387e-05
3.42541e-05
3.04979e-05
2.6953e-05
2.39372e-05
2.14608e-05
1.9405e-05
1.76234e-05
1.59841e-05
1.43859e-05
1.2769e-05
1.11286e-05
9.53542e-06
8.13083e-06
7.09014e-06
6.41357e-06
6.02676e-06
5.84001e-06
5.76606e-06
5.75449e-06
5.83209e-06
6.1435e-06
7.04123e-06
9.2281e-06
1.21138e-05
6.04629e-06
2.10577e-06
1.83574e-07
1.16666e-07
2.82086e-06
7.125e-06
1.59122e-05
2.85511e-05
3.67925e-05
3.89029e-05
3.74641e-05
3.42675e-05
3.05453e-05
2.70516e-05
2.40989e-05
2.16899e-05
1.96995e-05
1.79773e-05
1.63867e-05
1.48195e-05
1.32069e-05
1.15362e-05
9.87489e-06
8.36832e-06
7.20623e-06
6.41931e-06
5.94402e-06
5.70046e-06
5.60816e-06
5.61544e-06
5.73992e-06
6.11756e-06
7.10529e-06
9.42105e-06
1.23066e-05
6.07114e-06
2.12476e-06
1.8725e-07
1.21218e-07
2.8412e-06
7.1953e-06
1.61369e-05
2.88876e-05
3.70096e-05
3.89909e-05
3.74813e-05
3.42755e-05
3.05903e-05
2.71496e-05
2.42611e-05
2.19201e-05
1.99967e-05
1.83371e-05
1.68002e-05
1.52708e-05
1.36708e-05
1.19775e-05
1.02537e-05
8.64784e-06
7.36256e-06
6.46213e-06
5.89426e-06
5.58836e-06
5.47066e-06
5.48905e-06
5.65361e-06
6.09308e-06
7.16973e-06
9.6162e-06
1.24976e-05
6.09964e-06
2.14396e-06
1.90751e-07
1.25711e-07
2.86078e-06
7.26426e-06
1.63574e-05
2.92092e-05
3.72042e-05
3.90542e-05
3.74714e-05
3.4255e-05
3.06074e-05
2.72242e-05
2.44048e-05
2.21372e-05
2.02863e-05
1.86955e-05
1.72194e-05
1.5736e-05
1.41569e-05
1.2449e-05
1.06689e-05
8.96723e-06
7.55898e-06
6.54342e-06
5.88004e-06
5.50721e-06
5.35773e-06
5.37999e-06
5.57827e-06
6.07564e-06
7.24036e-06
9.81823e-06
1.26878e-05
6.13062e-06
2.16321e-06
1.94062e-07
1.30263e-07
2.88089e-06
7.33545e-06
1.65823e-05
2.95294e-05
3.73897e-05
3.91062e-05
3.745e-05
3.42238e-05
3.06158e-05
2.7293e-05
2.45435e-05
2.23492e-05
2.05718e-05
1.90521e-05
1.76412e-05
1.62099e-05
1.46598e-05
1.29458e-05
1.11164e-05
9.32319e-06
7.79307e-06
6.66126e-06
5.89979e-06
5.45593e-06
5.26874e-06
5.28781e-06
5.51307e-06
6.06327e-06
7.31364e-06
1.00236e-05
1.28757e-05
6.16367e-06
2.18239e-06
1.9718e-07
1.34757e-07
2.90062e-06
7.4068e-06
1.6803e-05
2.98337e-05
3.75526e-05
3.9133e-05
3.7401e-05
3.41636e-05
3.05963e-05
2.73421e-05
2.4665e-05
2.25465e-05
2.08467e-05
1.94033e-05
1.80631e-05
1.66905e-05
1.51766e-05
1.34643e-05
1.15927e-05
9.71292e-06
8.06365e-06
6.81567e-06
5.95444e-06
5.43608e-06
5.20585e-06
5.21508e-06
5.46084e-06
6.05942e-06
7.39436e-06
1.0234e-05
1.30604e-05
6.19761e-06
2.20131e-06
2.00096e-07
1.39272e-07
2.92059e-06
7.48094e-06
1.70263e-05
3.01345e-05
3.77043e-05
3.91472e-05
3.73395e-05
3.40909e-05
3.05638e-05
2.73768e-05
2.47733e-05
2.2733e-05
2.11132e-05
1.97484e-05
1.84823e-05
1.7173e-05
1.5702e-05
1.3999e-05
1.20928e-05
1.01327e-05
8.36803e-06
7.00467e-06
6.04242e-06
5.44648e-06
5.1683e-06
5.16154e-06
5.42189e-06
6.065e-06
7.48383e-06
1.04496e-05
1.32429e-05
6.23272e-06
2.21992e-06
2.02815e-07
1.4368e-07
2.93913e-06
7.55118e-06
1.72422e-05
3.04203e-05
3.78361e-05
3.91369e-05
3.725e-05
3.39901e-05
3.05063e-05
2.73909e-05
2.48653e-05
2.29069e-05
2.13701e-05
2.00871e-05
1.88984e-05
1.76567e-05
1.62338e-05
1.45468e-05
1.2613e-05
1.05788e-05
8.70395e-06
7.2272e-06
6.16361e-06
5.48772e-06
5.15728e-06
5.12892e-06
5.39818e-06
6.08162e-06
7.58226e-06
1.06717e-05
1.34239e-05
6.26884e-06
2.2382e-06
2.05341e-07
1.48064e-07
2.95744e-06
7.62197e-06
1.74621e-05
3.07048e-05
3.79583e-05
3.91149e-05
3.71484e-05
3.38757e-05
3.04305e-05
2.73842e-05
2.49399e-05
2.3067e-05
2.16156e-05
2.04165e-05
1.93078e-05
1.81371e-05
1.67671e-05
1.51021e-05
1.31477e-05
1.10466e-05
9.06769e-06
7.48041e-06
6.31594e-06
5.5584e-06
5.17198e-06
5.11683e-06
5.38947e-06
6.1086e-06
7.68797e-06
1.08983e-05
1.36029e-05
6.30615e-06
2.25617e-06
2.07681e-07
1.5237e-07
2.97498e-06
7.69141e-06
1.76795e-05
3.09767e-05
3.80614e-05
3.90712e-05
3.70236e-05
3.37396e-05
3.03381e-05
2.73642e-05
2.49994e-05
2.32116e-05
2.18495e-05
2.07381e-05
1.97121e-05
1.86151e-05
1.73016e-05
1.56635e-05
1.36944e-05
1.15328e-05
9.45638e-06
7.7621e-06
6.49799e-06
5.65787e-06
5.21249e-06
5.12593e-06
5.39667e-06
6.14675e-06
7.80141e-06
1.11294e-05
1.37799e-05
6.34452e-06
2.27383e-06
2.09846e-07
1.56627e-07
2.99215e-06
7.7604e-06
1.78963e-05
3.12405e-05
3.81508e-05
3.90115e-05
3.68808e-05
3.35837e-05
3.02248e-05
2.73252e-05
2.50454e-05
2.33456e-05
2.20712e-05
2.10488e-05
2.01083e-05
1.90876e-05
1.78338e-05
1.6227e-05
1.42491e-05
1.20338e-05
9.8666e-06
8.06933e-06
6.70733e-06
5.78425e-06
5.27755e-06
5.15551e-06
5.41938e-06
6.19563e-06
7.92178e-06
1.1364e-05
1.39554e-05
6.3841e-06
2.29121e-06
2.1185e-07
1.60784e-07
3.00847e-06
7.82766e-06
1.81093e-05
3.14905e-05
3.82207e-05
3.89306e-05
3.67165e-05
3.34079e-05
3.00938e-05
2.72698e-05
2.50767e-05
2.34679e-05
2.22844e-05
2.13498e-05
2.04962e-05
1.9555e-05
1.83634e-05
1.67912e-05
1.48091e-05
1.25459e-05
1.02948e-05
8.39916e-06
6.94176e-06
5.93613e-06
5.36649e-06
5.2056e-06
5.45815e-06
6.256e-06
8.04972e-06
1.16021e-05
1.41298e-05
6.42483e-06
2.30832e-06
2.13705e-07
1.64882e-07
3.02443e-06
7.89434e-06
1.83212e-05
3.17312e-05
3.82758e-05
3.8832e-05
3.65327e-05
3.3212e-05
2.99433e-05
2.71966e-05
2.50929e-05
2.35771e-05
2.24864e-05
2.16423e-05
2.08744e-05
2.00137e-05
1.88878e-05
1.73537e-05
1.53718e-05
1.30664e-05
1.07378e-05
8.74861e-06
7.19861e-06
6.11131e-06
5.47773e-06
5.27527e-06
5.51256e-06
6.32766e-06
8.18486e-06
1.18431e-05
1.43033e-05
6.46678e-06
2.32517e-06
2.15422e-07
1.68855e-07
3.0394e-06
7.95854e-06
1.85272e-05
3.19563e-05
3.8311e-05
3.87122e-05
3.63274e-05
3.2996e-05
2.97746e-05
2.71071e-05
2.50947e-05
2.36737e-05
2.26773e-05
2.19253e-05
2.12451e-05
2.04635e-05
1.94045e-05
1.79117e-05
1.59341e-05
1.35919e-05
1.11922e-05
9.11496e-06
7.47568e-06
6.30811e-06
5.61019e-06
5.36411e-06
5.58285e-06
6.41132e-06
8.32807e-06
1.20875e-05
1.44766e-05
6.50998e-06
2.34179e-06
2.17012e-07
1.7274e-07
3.05384e-06
8.02162e-06
1.87308e-05
3.21705e-05
3.83301e-05
3.85737e-05
3.61022e-05
3.27607e-05
2.95881e-05
2.70015e-05
2.50826e-05
2.37579e-05
2.28569e-05
2.21977e-05
2.16062e-05
2.09055e-05
1.99123e-05
1.84627e-05
1.64935e-05
1.41199e-05
1.16553e-05
9.49572e-06
7.77074e-06
6.52455e-06
5.76231e-06
5.47112e-06
5.66852e-06
6.50683e-06
8.47923e-06
1.2335e-05
1.465e-05
6.55444e-06
2.35819e-06
2.18485e-07
1.76498e-07
3.0674e-06
8.08242e-06
1.89286e-05
3.2369e-05
3.83295e-05
3.84141e-05
3.5856e-05
3.2506e-05
2.93843e-05
2.68806e-05
2.5057e-05
2.38301e-05
2.30252e-05
2.24593e-05
2.19567e-05
2.13372e-05
2.0411e-05
1.90049e-05
1.70469e-05
1.46471e-05
1.21245e-05
9.88869e-06
8.08196e-06
6.75913e-06
5.93296e-06
5.5957e-06
5.76964e-06
6.61484e-06
8.63937e-06
1.25866e-05
1.48244e-05
6.60035e-06
2.37444e-06
2.19852e-07
1.80145e-07
3.08027e-06
8.14139e-06
1.91219e-05
3.2554e-05
3.83114e-05
3.82348e-05
3.55898e-05
3.22331e-05
2.91644e-05
2.67454e-05
2.5019e-05
2.38909e-05
2.31825e-05
2.27098e-05
2.22959e-05
2.17573e-05
2.08981e-05
1.95365e-05
1.75923e-05
1.51714e-05
1.25975e-05
1.0292e-05
8.40773e-06
7.01035e-06
6.1208e-06
5.73676e-06
5.88549e-06
6.73502e-06
8.80841e-06
1.28421e-05
1.49998e-05
6.64772e-06
2.39056e-06
2.21125e-07
1.8366e-07
3.09228e-06
8.19796e-06
1.93088e-05
3.27231e-05
3.82736e-05
3.80344e-05
3.53028e-05
3.19415e-05
2.89285e-05
2.65964e-05
2.49692e-05
2.39411e-05
2.33296e-05
2.29499e-05
2.26238e-05
2.21651e-05
2.13722e-05
2.00553e-05
1.81267e-05
1.569e-05
1.3072e-05
1.07039e-05
8.74666e-06
7.27718e-06
6.32503e-06
5.89381e-06
6.01597e-06
6.86774e-06
8.98708e-06
1.31023e-05
1.51774e-05
6.69687e-06
2.40665e-06
2.2232e-07
1.87048e-07
3.10349e-06
8.25218e-06
1.94895e-05
3.28772e-05
3.82176e-05
3.78139e-05
3.4996e-05
3.16324e-05
2.86778e-05
2.64347e-05
2.49084e-05
2.39812e-05
2.34668e-05
2.31795e-05
2.29403e-05
2.25601e-05
2.18324e-05
2.05603e-05
1.86491e-05
1.62002e-05
1.35458e-05
1.11225e-05
9.09731e-06
7.55837e-06
6.54458e-06
6.06595e-06
6.16048e-06
7.01273e-06
9.17536e-06
1.33671e-05
1.53574e-05
6.74789e-06
2.42274e-06
2.23448e-07
1.90298e-07
3.11382e-06
8.30372e-06
1.96631e-05
3.30151e-05
3.81419e-05
3.75721e-05
3.46686e-05
3.13056e-05
2.84124e-05
2.62608e-05
2.48374e-05
2.40122e-05
2.35952e-05
2.33997e-05
2.32457e-05
2.29419e-05
2.22774e-05
2.1049e-05
1.91572e-05
1.67017e-05
1.40185e-05
1.15472e-05
9.45897e-06
7.85335e-06
6.77899e-06
6.25285e-06
6.31879e-06
7.16992e-06
9.37364e-06
1.36373e-05
1.55409e-05
6.80103e-06
2.43894e-06
2.24528e-07
1.93416e-07
3.12326e-06
8.35253e-06
1.98297e-05
3.31375e-05
3.80473e-05
3.73095e-05
3.43209e-05
3.09615e-05
2.81328e-05
2.60751e-05
2.47565e-05
2.40345e-05
2.37151e-05
2.36108e-05
2.35406e-05
2.3311e-05
2.2707e-05
2.15208e-05
1.96493e-05
1.71921e-05
1.44881e-05
1.1976e-05
9.8302e-06
8.16116e-06
7.02763e-06
6.4541e-06
6.4909e-06
7.34018e-06
9.58213e-06
1.3913e-05
1.57282e-05
6.85651e-06
2.45531e-06
2.25574e-07
1.964e-07
3.13183e-06
8.39858e-06
1.99891e-05
3.32439e-05
3.79329e-05
3.70249e-05
3.39527e-05
3.06003e-05
2.78396e-05
2.58784e-05
2.46666e-05
2.4049e-05
2.38274e-05
2.38135e-05
2.38254e-05
2.36671e-05
2.31204e-05
2.19743e-05
2.01237e-05
1.76697e-05
1.49537e-05
1.24076e-05
1.02098e-05
8.48096e-06
7.29007e-06
6.66964e-06
6.67704e-06
7.52376e-06
9.80139e-06
1.41947e-05
1.59206e-05
6.91464e-06
2.47195e-06
2.26605e-07
1.99257e-07
3.1395e-06
8.4418e-06
2.01411e-05
3.33345e-05
3.77987e-05
3.67183e-05
3.35636e-05
3.02221e-05
2.75331e-05
2.5671e-05
2.4568e-05
2.40561e-05
2.39329e-05
2.40091e-05
2.41014e-05
2.40116e-05
2.35186e-05
2.24094e-05
2.05795e-05
1.81328e-05
1.54128e-05
1.28398e-05
1.05958e-05
8.81116e-06
7.56519e-06
6.8988e-06
6.8769e-06
7.72059e-06
1.00322e-05
1.44836e-05
1.61181e-05
6.97542e-06
2.4889e-06
2.27631e-07
2.01996e-07
3.14637e-06
8.48246e-06
2.02864e-05
3.34096e-05
3.76443e-05
3.63892e-05
3.31541e-05
2.98277e-05
2.72141e-05
2.54537e-05
2.44614e-05
2.40563e-05
2.4032e-05
2.41978e-05
2.43689e-05
2.43447e-05
2.39018e-05
2.28261e-05
2.10159e-05
1.85799e-05
1.58633e-05
1.32706e-05
1.09864e-05
9.15069e-06
7.85248e-06
7.14147e-06
7.09061e-06
7.93085e-06
1.02749e-05
1.47801e-05
1.63222e-05
7.03928e-06
2.50629e-06
2.28668e-07
2.04623e-07
3.1524e-06
8.52042e-06
2.04249e-05
3.34691e-05
3.74693e-05
3.60374e-05
3.27244e-05
2.94178e-05
2.68835e-05
2.52272e-05
2.43474e-05
2.40503e-05
2.41254e-05
2.43807e-05
2.46293e-05
2.4668e-05
2.42709e-05
2.32248e-05
2.14324e-05
1.90093e-05
1.63026e-05
1.36968e-05
1.13788e-05
9.49704e-06
8.15018e-06
7.39666e-06
7.31791e-06
8.15511e-06
1.0531e-05
1.50862e-05
1.65331e-05
7.10612e-06
2.52413e-06
2.29728e-07
2.07148e-07
3.15769e-06
8.55599e-06
2.05569e-05
3.35132e-05
3.72737e-05
3.5663e-05
3.22751e-05
2.89936e-05
2.65425e-05
2.49925e-05
2.42265e-05
2.40382e-05
2.42132e-05
2.45577e-05
2.48826e-05
2.49815e-05
2.46265e-05
2.36058e-05
2.18288e-05
1.94198e-05
1.67284e-05
1.41162e-05
1.17713e-05
9.84938e-06
8.45793e-06
7.66424e-06
7.55858e-06
8.393e-06
1.08001e-05
1.54013e-05
1.67507e-05
7.17623e-06
2.54254e-06
2.30822e-07
2.09579e-07
3.16222e-06
8.58913e-06
2.06827e-05
3.35416e-05
3.70569e-05
3.52661e-05
3.18072e-05
2.85563e-05
2.61923e-05
2.47509e-05
2.40999e-05
2.40209e-05
2.42959e-05
2.47296e-05
2.51296e-05
2.52864e-05
2.49697e-05
2.39701e-05
2.22058e-05
1.98115e-05
1.71394e-05
1.45263e-05
1.21606e-05
1.0204e-05
8.77231e-06
7.94186e-06
7.81152e-06
8.64455e-06
1.10835e-05
1.57275e-05
1.69747e-05
7.24923e-06
2.5615e-06
2.31956e-07
2.11921e-07
3.16602e-06
8.61988e-06
2.08019e-05
3.3554e-05
3.6819e-05
3.48472e-05
3.13221e-05
2.81076e-05
2.58348e-05
2.45038e-05
2.39682e-05
2.39985e-05
2.43733e-05
2.48955e-05
2.53698e-05
2.55821e-05
2.53003e-05
2.43181e-05
2.25634e-05
2.01837e-05
1.75342e-05
1.49251e-05
1.25446e-05
1.05597e-05
9.09329e-06
8.22957e-06
8.07688e-06
8.91021e-06
1.13818e-05
1.6065e-05
1.7205e-05
7.32531e-06
2.58109e-06
2.33139e-07
2.14188e-07
3.16916e-06
8.64858e-06
2.09156e-05
3.35509e-05
3.65598e-05
3.44069e-05
3.08212e-05
2.76493e-05
2.54716e-05
2.42534e-05
2.38333e-05
2.39719e-05
2.44458e-05
2.5056e-05
2.56035e-05
2.58696e-05
2.56197e-05
2.46511e-05
2.29036e-05
2.05382e-05
1.79134e-05
1.53121e-05
1.29219e-05
1.0914e-05
9.41724e-06
8.52381e-06
8.35255e-06
9.18947e-06
1.16958e-05
1.64154e-05
1.74412e-05
7.40422e-06
2.60133e-06
2.3437e-07
2.1638e-07
3.17158e-06
8.6749e-06
2.10226e-05
3.35314e-05
3.62796e-05
3.39464e-05
3.03061e-05
2.71828e-05
2.5104e-05
2.40025e-05
2.36963e-05
2.3941e-05
2.45125e-05
2.52098e-05
2.58293e-05
2.61473e-05
2.59266e-05
2.49688e-05
2.32262e-05
2.08749e-05
1.82761e-05
1.56858e-05
1.32905e-05
1.1265e-05
9.74376e-06
8.826e-06
8.63932e-06
9.48277e-06
1.20259e-05
1.67787e-05
1.76825e-05
7.48573e-06
2.62221e-06
2.35651e-07
2.18512e-07
3.17341e-06
8.69945e-06
2.11246e-05
3.34966e-05
3.59785e-05
3.34663e-05
2.97787e-05
2.67102e-05
2.47327e-05
2.37483e-05
2.35555e-05
2.39056e-05
2.45741e-05
2.53576e-05
2.60481e-05
2.64163e-05
2.62223e-05
2.52727e-05
2.35337e-05
2.11969e-05
1.86246e-05
1.60472e-05
1.36505e-05
1.16119e-05
1.00707e-05
9.13251e-06
8.93423e-06
9.78888e-06
1.23723e-05
1.71557e-05
1.79286e-05
7.5698e-06
2.64379e-06
2.36983e-07
2.20583e-07
3.17457e-06
8.72183e-06
2.12206e-05
3.3446e-05
3.56572e-05
3.29683e-05
2.92409e-05
2.62334e-05
2.43599e-05
2.34928e-05
2.34124e-05
2.38668e-05
2.46311e-05
2.54995e-05
2.62592e-05
2.66755e-05
2.65061e-05
2.55631e-05
2.38274e-05
2.15064e-05
1.896e-05
1.63964e-05
1.4001e-05
1.19537e-05
1.03972e-05
9.4436e-06
9.23873e-06
1.0108e-05
1.27345e-05
1.75455e-05
1.81782e-05
7.65593e-06
2.66597e-06
2.38363e-07
2.22608e-07
3.17519e-06
8.74271e-06
2.13124e-05
3.33804e-05
3.53153e-05
3.24525e-05
2.86936e-05
2.57538e-05
2.39874e-05
2.32382e-05
2.32698e-05
2.38274e-05
2.46859e-05
2.56374e-05
2.64642e-05
2.69262e-05
2.67791e-05
2.58416e-05
2.41102e-05
2.18075e-05
1.9285e-05
1.67348e-05
1.43426e-05
1.22898e-05
1.07223e-05
9.75771e-06
9.55057e-06
1.04392e-05
1.31129e-05
1.79487e-05
1.84309e-05
7.744e-06
2.6888e-06
2.39792e-07
2.24587e-07
3.17521e-06
8.76182e-06
2.13994e-05
3.32996e-05
3.49533e-05
3.19199e-05
2.81381e-05
2.52721e-05
2.36151e-05
2.2984e-05
2.31269e-05
2.37865e-05
2.47381e-05
2.5771e-05
2.66628e-05
2.7168e-05
2.70411e-05
2.61084e-05
2.43832e-05
2.21024e-05
1.96019e-05
1.70643e-05
1.46761e-05
1.26205e-05
1.10458e-05
1.00744e-05
9.8698e-06
1.0783e-05
1.35068e-05
1.8364e-05
1.86854e-05
7.83363e-06
2.71218e-06
2.41267e-07
2.26528e-07
3.17476e-06
8.7797e-06
2.14828e-05
3.32039e-05
3.45707e-05
3.13708e-05
2.75755e-05
2.47902e-05
2.32454e-05
2.27331e-05
2.29869e-05
2.37477e-05
2.47908e-05
2.59032e-05
2.68571e-05
2.74022e-05
2.72925e-05
2.63636e-05
2.46461e-05
2.23902e-05
1.99105e-05
1.73849e-05
1.5002e-05
1.2946e-05
1.13673e-05
1.0393e-05
1.01953e-05
1.11382e-05
1.3916e-05
1.87907e-05
1.89413e-05
7.92463e-06
2.73614e-06
2.42791e-07
2.28438e-07
3.17385e-06
8.79649e-06
2.15631e-05
3.30933e-05
3.41672e-05
3.08054e-05
2.70062e-05
2.43079e-05
2.28777e-05
2.24845e-05
2.28489e-05
2.37105e-05
2.48443e-05
2.60344e-05
2.70479e-05
2.76298e-05
2.75343e-05
2.66075e-05
2.48987e-05
2.26698e-05
2.02107e-05
1.76973e-05
1.53208e-05
1.32665e-05
1.1687e-05
1.07136e-05
1.05274e-05
1.15049e-05
1.43403e-05
1.92278e-05
1.91976e-05
8.01659e-06
2.76057e-06
2.44355e-07
2.30322e-07
3.17259e-06
8.81249e-06
2.16407e-05
3.29673e-05
3.37427e-05
3.02251e-05
2.64325e-05
2.38275e-05
2.25139e-05
2.22399e-05
2.27145e-05
2.36763e-05
2.48997e-05
2.61659e-05
2.72363e-05
2.78513e-05
2.77667e-05
2.684e-05
2.51398e-05
2.29391e-05
2.0501e-05
1.80009e-05
1.56324e-05
1.35823e-05
1.20047e-05
1.10359e-05
1.08654e-05
1.18827e-05
1.47797e-05
1.96757e-05
1.9454e-05
8.10917e-06
2.78541e-06
2.45963e-07
2.32186e-07
3.17103e-06
8.82798e-06
2.17161e-05
3.28256e-05
3.32973e-05
2.96309e-05
2.58557e-05
2.33499e-05
2.21544e-05
2.19995e-05
2.25838e-05
2.36451e-05
2.49576e-05
2.62985e-05
2.74236e-05
2.80685e-05
2.79911e-05
2.70623e-05
2.53704e-05
2.31979e-05
2.07811e-05
1.82956e-05
1.59374e-05
1.38941e-05
1.23214e-05
1.13601e-05
1.12093e-05
1.2271e-05
1.52326e-05
2.01323e-05
1.97097e-05
8.20236e-06
2.81063e-06
2.47607e-07
2.34025e-07
3.1692e-06
8.84297e-06
2.17889e-05
3.26676e-05
3.28317e-05
2.90255e-05
2.52785e-05
2.28771e-05
2.18007e-05
2.17639e-05
2.24565e-05
2.36164e-05
2.50172e-05
2.64316e-05
2.76092e-05
2.82811e-05
2.8208e-05
2.72752e-05
2.55913e-05
2.34458e-05
2.10497e-05
1.85795e-05
1.62338e-05
1.42004e-05
1.2636e-05
1.16861e-05
1.15592e-05
1.26707e-05
1.57001e-05
2.05981e-05
1.99636e-05
8.29544e-06
2.83614e-06
2.49288e-07
2.35832e-07
3.167e-06
8.85709e-06
2.18579e-05
3.2492e-05
3.23461e-05
2.841e-05
2.47023e-05
2.24103e-05
2.14537e-05
2.15336e-05
2.23327e-05
2.35897e-05
2.50776e-05
2.65646e-05
2.77931e-05
2.84896e-05
2.84187e-05
2.74809e-05
2.58053e-05
2.36844e-05
2.13074e-05
1.88529e-05
1.65213e-05
1.45003e-05
1.29476e-05
1.20126e-05
1.19139e-05
1.30803e-05
1.61804e-05
2.10708e-05
2.02138e-05
8.38743e-06
2.8617e-06
2.50991e-07
2.37591e-07
3.16438e-06
8.86996e-06
2.1922e-05
3.22987e-05
3.18418e-05
2.7787e-05
2.41293e-05
2.19514e-05
2.11153e-05
2.13095e-05
2.2212e-05
2.35638e-05
2.51374e-05
2.66956e-05
2.79736e-05
2.86931e-05
2.86232e-05
2.76811e-05
2.60155e-05
2.39156e-05
2.15552e-05
1.91158e-05
1.67997e-05
1.4794e-05
1.32567e-05
1.23412e-05
1.22757e-05
1.35019e-05
1.66749e-05
2.15506e-05
2.04615e-05
8.47883e-06
2.88738e-06
2.5272e-07
2.39288e-07
3.16113e-06
8.8808e-06
2.19794e-05
3.20867e-05
3.13185e-05
2.71567e-05
2.35596e-05
2.15003e-05
2.07879e-05
2.10928e-05
2.20947e-05
2.35385e-05
2.51959e-05
2.6824e-05
2.81502e-05
2.88916e-05
2.88227e-05
2.7878e-05
2.62251e-05
2.41422e-05
2.1795e-05
1.93696e-05
1.70696e-05
1.50811e-05
1.35619e-05
1.26692e-05
1.26412e-05
1.39329e-05
1.7181e-05
2.2035e-05
2.0705e-05
8.56894e-06
2.913e-06
2.54475e-07
2.40912e-07
3.15719e-06
8.88914e-06
2.20289e-05
3.18551e-05
3.07763e-05
2.65198e-05
2.29936e-05
2.10564e-05
2.0468e-05
2.08818e-05
2.19809e-05
2.35146e-05
2.52537e-05
2.69499e-05
2.83225e-05
2.90844e-05
2.90165e-05
2.80714e-05
2.64334e-05
2.43638e-05
2.2027e-05
1.96143e-05
1.73307e-05
1.53613e-05
1.38634e-05
1.29984e-05
1.30141e-05
1.43742e-05
1.76988e-05
2.25236e-05
2.09446e-05
8.65801e-06
2.9388e-06
2.56266e-07
2.42459e-07