/*--------------------------------*- C++ -*----------------------------------*\
| =========                 |                                                 |
| \\      /  F ield         | OpenFOAM: The Open Source CFD Toolbox           |
|  \\    /   O peration     | Version:  v2006                                 |
|   \\  /    A nd           | Website:  www.openfoam.com                      |
|    \\/     M anipulation  |                                                 |
\*---------------------------------------------------------------------------*/
FoamFile
{
    version     2.0;
    format      ascii;
    class       volScalarField;
    location    "81";
    object      omega;
}
// * * * * * * * * * * * * * * * * * * * * * * * * * * * * * * * * * * * * * //

dimensions      [0 0 -1 0 0 0 0];


internalField   nonuniform List<scalar> 
78750
(
352.417
13.5649
13.5939
13.6218
13.6485
13.6736
13.6968
13.7179
13.7369
13.7537
13.7684
13.781
13.7915
13.8001
13.8066
13.8112
13.8139
13.8147
13.8138
13.8111
13.8068
13.8007
13.7929
13.7833
13.772
13.7589
13.7438
13.7266
13.7074
13.6863
13.6644
13.6449
13.6351
13.6452
356.942
517.12
4.165
4.26539
4.3542
4.43124
4.49737
4.55345
4.60018
4.63828
4.66851
4.69164
4.70837
4.71935
4.72519
4.72647
4.72385
4.71777
4.70865
4.69683
4.68267
4.66645
4.6483
4.62837
4.60672
4.58331
4.55804
4.53081
4.50134
4.46867
4.43121
4.38663
4.33233
4.27101
4.21564
524.107
517.129
4.22023
4.36084
4.48211
4.58245
4.6629
4.72629
4.77568
4.81352
4.84156
4.86112
4.87324
4.87879
4.87854
4.87322
4.8635
4.85003
4.83348
4.81448
4.79366
4.77161
4.7488
4.72556
4.70201
4.67803
4.65324
4.62703
4.59853
4.56642
4.52849
4.4814
4.4224
4.35623
4.29338
524.472
517.145
4.27738
4.45124
4.5956
4.70884
4.79431
4.85784
4.90463
4.93827
4.96109
4.97466
4.98013
4.97841
4.97025
4.95638
4.93754
4.91451
4.88819
4.85955
4.82967
4.79973
4.77086
4.74396
4.71944
4.69708
4.67607
4.65511
4.6325
4.60604
4.57275
4.52891
4.47267
4.41051
4.34844
524.829
517.162
4.33032
4.53149
4.6926
4.81274
4.89865
4.95958
5.00261
5.03203
5.05033
5.05898
5.0589
5.05076
5.03513
5.01265
4.98413
4.95056
4.91313
4.87326
4.83257
4.79296
4.75641
4.72463
4.69843
4.67762
4.66114
4.64712
4.63299
4.61551
4.59071
4.55438
4.50512
4.44908
4.38869
525.163
517.181
4.37925
4.60273
4.7765
4.90102
4.98678
5.04605
5.08706
5.11419
5.12971
5.13476
5.12997
5.11576
5.09259
5.06114
5.0224
4.97771
4.92867
4.87723
4.82562
4.77652
4.73277
4.69644
4.66824
4.64786
4.63421
4.62529
4.61818
4.60899
4.59297
4.56534
4.52451
4.47486
4.41639
525.483
517.199
4.42154
4.6629
4.84671
4.97491
5.06114
5.11978
5.15968
5.1852
5.19841
5.20024
5.19105
5.1711
5.14079
5.10095
5.05284
4.99811
4.9388
4.87731
4.81649
4.75976
4.71064
4.67096
4.64101
4.62038
4.60807
4.60228
4.60016
4.59757
4.58923
4.56971
4.53675
4.49269
4.43617
525.793
517.215
4.45861
4.71564
4.90857
5.04055
5.12776
5.18635
5.22569
5.25012
5.26152
5.2606
5.24751
5.22244
5.18587
5.13883
5.08284
5.01991
4.95242
4.88318
4.81562
4.7539
4.7015
4.65936
4.62726
4.60481
4.59136
4.58567
4.58538
4.58662
4.58385
4.57096
4.54467
4.5056
4.4518
526.079
517.23
4.49247
4.76364
4.96494
5.10071
5.18931
5.24825
5.28729
5.31076
5.32042
5.31682
5.30002
5.27016
5.22786
5.17434
5.11141
5.04137
4.96694
4.89137
4.81874
4.75397
4.70007
4.65686
4.6236
4.59969
4.58464
4.57769
4.57718
4.57987
4.58044
4.57237
4.55136
4.51675
4.4665
526.343
517.244
4.52368
4.8078
5.01683
5.15621
5.2462
5.30555
5.34438
5.36704
5.37518
5.3692
5.34906
5.31493
5.26755
5.20836
5.1394
5.06325
4.98297
4.90223
4.82577
4.75916
4.70458
4.66099
4.62715
4.60223
4.5857
4.57709
4.57534
4.57794
4.58008
4.57521
4.5583
4.52769
4.48146
526.584
517.257
4.55429
4.8508
5.06713
5.20988
5.30119
5.36091
5.39946
5.4212
5.42768
5.4192
5.39567
5.3573
5.30495
5.24028
5.16556
5.08366
4.99796
4.91257
4.83294
4.76531
4.71089
4.66787
4.6345
4.60958
4.59241
4.58261
4.57953
4.5813
4.58382
4.58081
4.56689
4.5397
4.49737
526.808
517.271
4.58379
4.89176
5.11467
5.26041
5.35288
5.41294
5.45128
5.47222
5.47723
5.46647
5.43983
5.39755
5.34064
5.2709
5.19084
5.10357
5.01279
4.92303
4.84039
4.7718
4.71766
4.67554
4.6432
4.61903
4.60208
4.59188
4.58796
4.5889
4.59124
4.58923
4.57743
4.55303
4.5141
527.016
517.285
4.61311
4.93208
5.16119
5.30965
5.40316
5.46348
5.50153
5.5216
5.52505
5.51198
5.48223
5.43612
5.37478
5.30018
5.21501
5.12261
5.02698
4.93302
4.84751
4.778
4.72425
4.6833
4.65242
4.62961
4.61363
4.60383
4.59973
4.60018
4.60222
4.60063
4.59023
4.56793
4.53161
527.213
517.3
4.64195
4.97121
5.20594
5.35681
5.45125
5.51184
5.54969
5.56901
5.57108
5.55591
5.52331
5.47368
5.40824
5.32911
5.23915
5.14188
5.04155
4.94342
4.85486
4.78414
4.73057
4.69071
4.66144
4.64034
4.62585
4.61709
4.6135
4.61398
4.6159
4.61455
4.60506
4.58424
4.5497
527.399
517.314
4.67025
5.00927
5.24929
5.40239
5.49771
5.55858
5.59623
5.61484
5.61557
5.59838
5.56307
5.51011
5.44084
5.35749
5.26305
5.16119
5.05635
4.95411
4.86237
4.79017
4.73659
4.69779
4.6702
4.65107
4.6385
4.63133
4.62883
4.62985
4.63192
4.63071
4.62174
4.60181
4.56822
527.579
517.329
4.69841
5.04673
5.29166
5.4468
5.54294
5.60414
5.64169
5.65971
5.65927
5.64024
5.60248
5.54649
5.47371
5.38647
5.28784
5.18162
5.0724
4.96604
4.87083
4.79663
4.7426
4.70457
4.67859
4.66147
4.65104
4.64587
4.64496
4.64703
4.6496
4.64861
4.63995
4.62047
4.58711
527.75
517.344
4.72573
5.08279
5.33232
5.48941
5.58641
5.64798
5.6855
5.70301
5.7015
5.6808
5.64079
5.58204
5.50607
5.41528
5.3128
5.20248
5.08905
4.9786
4.87974
4.80317
4.74837
4.71091
4.68647
4.67152
4.66348
4.66065
4.66176
4.6653
4.66869
4.66802
4.65949
4.64004
4.60625
527.917
517.359
4.75312
5.11866
5.37259
5.53154
5.6294
5.69141
5.72898
5.74607
5.74362
5.72142
5.67939
5.61816
5.53933
5.44532
5.33931
5.22514
5.10764
4.99304
4.8902
4.81056
4.75436
4.71698
4.69381
4.68093
4.6754
4.67518
4.67867
4.68407
4.68863
4.68843
4.67996
4.66026
4.62556
528.077
517.374
4.77954
5.15301
5.41111
5.57188
5.67067
5.7332
5.77089
5.78764
5.78434
5.76078
5.71693
5.6535
5.57212
5.47526
5.36606
5.24837
5.12703
5.00835
4.90142
4.81829
4.76024
4.7226
4.70051
4.6897
4.68683
4.68949
4.69573
4.70337
4.7094
4.70983
4.70137
4.68115
4.64504
528.234
517.39
4.80613
5.18741
5.44961
5.61224
5.71203
5.77513
5.81299
5.82943
5.82534
5.80054
5.75506
5.68968
5.60608
5.50673
5.3947
5.2738
5.14882
5.02605
4.91469
4.82731
4.76663
4.72808
4.70662
4.69764
4.69743
4.70314
4.71239
4.72261
4.73041
4.73167
4.72325
4.70237
4.66454
528.385
517.405
4.8317
5.22028
5.48644
5.65102
5.75194
5.81571
5.85372
5.86983
5.86496
5.839
5.79205
5.72498
5.63948
5.53798
5.42351
5.29978
5.17148
5.04481
4.929
4.83701
4.77323
4.73332
4.71215
4.70486
4.70734
4.71627
4.72882
4.74192
4.75175
4.754
4.74563
4.72394
4.68407
528.534
517.421
4.85741
5.2532
5.5234
5.69016
5.79251
5.85699
5.895
5.91063
5.90492
5.87786
5.82962
5.76111
5.67403
5.57075
5.45422
5.32801
5.19664
5.06614
4.94567
4.84838
4.78072
4.7387
4.71724
4.71128
4.7163
4.72853
4.74458
4.76085
4.77305
4.77654
4.76832
4.74576
4.70359
528.678
517.436
4.88201
5.28447
5.55858
5.72785
5.83203
5.89731
5.93511
5.94998
5.94337
5.9153
5.86595
5.79626
5.70792
5.60322
5.48502
5.35675
5.22269
5.08866
4.96365
4.86084
4.78886
4.74423
4.72204
4.71709
4.72454
4.7401
4.75981
4.77945
4.79416
4.79898
4.79094
4.76747
4.72289
528.82
517.452
4.90667
5.3156
5.59352
5.76536
5.87085
5.93695
5.97504
5.98928
5.9819
5.95297
5.90272
5.8321
5.74279
5.63703
5.51753
5.38755
5.25113
5.11377
4.98418
4.87541
4.79841
4.7504
4.72678
4.72236
4.73197
4.75083
4.77433
4.79759
4.81514
4.82158
4.81389
4.78946
4.7422
528.959
517.468
4.93027
5.34514
5.62658
5.80077
5.90761
5.97464
6.0132
6.0273
6.01902
5.98925
5.93824
5.86692
5.77694
5.67046
5.55008
5.41884
5.28052
5.14026
5.00639
4.89172
4.8093
4.75737
4.73176
4.7274
4.73888
4.76091
4.78821
4.81516
4.8356
4.84365
4.83626
4.81097
4.76106
529.095
517.484
4.95388
5.37461
5.65973
5.83579
5.94378
6.01168
6.05075
6.06486
6.05586
6.02547
5.97392
5.90216
5.81179
5.70491
5.58399
5.45187
5.31205
5.16925
5.03136
4.91077
4.82236
4.76577
4.7374
4.73244
4.74537
4.77038
4.80148
4.83226
4.85581
4.86576
4.85906
4.83261
4.7798
529.23
517.5
4.97628
5.40226
5.69091
5.86861
5.97777
6.04664
6.08638
6.10072
6.0913
6.06038
6.00841
5.93637
5.84585
5.73889
5.61781
5.48527
5.34444
5.19966
5.0583
4.93226
4.83766
4.77592
4.74414
4.73796
4.75184
4.77953
4.81429
4.84886
4.87552
4.88741
4.88168
4.85383
4.79805
529.363
517.516
4.99862
5.42961
5.72158
5.90082
6.0111
6.08093
6.1214
6.13613
6.12667
6.09512
6.0428
5.97066
5.88025
5.77348
5.65258
5.51997
5.37856
5.23225
5.08789
4.95681
4.85576
4.78833
4.75244
4.7443
4.75852
4.78848
4.8267
4.86501
4.89491
4.90917
4.90432
4.87532
4.81607
529.495
517.532
5.01986
5.45532
5.75029
5.93096
6.04235
6.11316
6.15439
6.16955
6.16014
6.12818
6.07578
6.00382
5.91378
5.80751
5.68711
5.55484
5.41332
5.26605
5.11931
4.98382
4.87645
4.80313
4.76265
4.75192
4.76587
4.79764
4.83905
4.88104
4.91429
4.93119
4.92712
4.8969
4.83387
529.625
517.548
5.04102
5.48075
5.77853
5.9605
6.07292
6.14471
6.18673
6.2024
6.19315
6.16091
6.10854
6.03687
5.94736
5.84179
5.72215
5.59052
5.44927
5.30147
5.15287
5.01349
4.89996
4.82061
4.77508
4.76112
4.77414
4.80717
4.85141
4.89689
4.93349
4.95313
4.94986
4.91839
4.85138
529.753
517.564
5.06121
5.5047
5.80496
5.98807
6.10149
6.17425
6.2171
6.23336
6.2244
6.19208
6.13991
6.06873
5.97996
5.87533
5.75672
5.62608
5.48551
5.3377
5.18784
5.04523
4.92601
4.84075
4.78996
4.77227
4.78375
4.81749
4.86417
4.91295
4.95283
4.97514
4.97257
4.93972
4.86853
529.88
517.58
5.08134
5.52843
5.83089
6.01498
6.1293
6.203
6.24668
6.26358
6.25501
6.22275
6.17085
6.10022
6.01228
5.90873
5.79136
5.66195
5.52238
5.37497
5.22436
5.07911
4.95467
4.86369
4.80747
4.7856
4.79491
4.82875
4.87739
4.92912
4.97205
4.99698
4.99508
4.96078
4.88525
530.006
517.596
5.10061
5.55101
5.85516
6.04002
6.15519
6.22982
6.27436
6.29197
6.28394
6.2521
6.20043
6.13043
6.04349
5.94122
5.82531
5.69742
5.55919
5.41261
5.26181
5.11459
4.98561
4.88932
4.8277
4.80132
4.80791
4.84124
4.89129
4.94561
4.99147
5.0187
5.01731
4.98147
4.90149
530.129
517.612
5.11963
5.57338
5.87876
6.06425
6.18019
6.25571
6.30108
6.31938
6.31187
6.28043
6.22912
6.1599
6.0741
5.97325
5.85896
5.73276
5.59613
5.45073
5.30021
5.15164
5.0188
4.91762
4.85073
4.81958
4.82292
4.85511
4.90603
4.9626
5.01131
5.04037
5.03927
5.00175
4.9172
530.25
517.628
5.13751
5.59413
5.90065
6.08672
6.20341
6.27981
6.32603
6.34506
6.33818
6.30726
6.25646
6.18815
6.10361
6.00432
5.89181
5.76749
5.63269
5.48881
5.33903
5.18975
5.05387
4.9484
4.87651
4.84051
4.84016
4.8706
4.92182
4.9802
5.03145
5.06199
5.06093
5.02157
4.93238
530.369
517.643
5.155
5.61439
5.92179
6.10828
6.22564
6.30287
6.3499
6.36963
6.36333
6.33299
6.28282
6.21553
6.13236
6.03474
5.92411
5.80181
5.66901
5.52689
5.37824
5.22881
5.09063
4.98149
4.90498
4.86411
4.85971
4.88783
4.93874
4.99842
5.05179
5.0835
5.08225
5.04093
4.94701
530.485
517.658
5.17162
5.63327
5.94132
6.12818
6.24619
6.32428
6.37215
6.39264
6.38701
6.3573
6.30781
6.24168
6.16004
6.06421
5.95559
5.83544
5.70481
5.56468
5.41751
5.26846
5.12877
5.01662
4.93594
4.89034
4.88165
4.90691
4.95689
5.0173
5.07232
5.10484
5.1032
5.05979
4.9611
530.599
517.673
5.18771
5.6514
5.95996
6.14707
6.26568
6.34455
6.39324
6.41447
6.40951
6.3805
6.33182
6.26688
6.18679
6.09289
5.98636
5.86845
5.74012
5.60216
5.45675
5.30856
5.16804
5.05352
4.9692
4.91909
4.90595
4.92789
4.97631
5.03684
5.09301
5.12599
5.12375
5.07814
4.97466
530.71
517.688
5.2029
5.66825
5.97712
6.16442
6.28359
6.36325
6.41275
6.43474
6.43051
6.40227
6.35453
6.29091
6.21247
6.12049
6.01623
5.90068
5.77476
5.63913
5.49573
5.34879
5.2081
5.09188
5.00447
4.95017
4.93255
4.95079
4.99707
5.0571
5.11388
5.14695
5.14388
5.09597
4.9877
530.819
517.702
5.21753
5.68432
5.99333
6.18073
6.30039
6.38079
6.43107
6.4538
6.45029
6.42285
6.37611
6.31389
6.23718
6.14721
6.04518
5.93213
5.80871
5.67555
5.53437
5.38902
5.24872
5.13141
5.04147
4.98336
4.96133
4.97557
5.01917
5.07809
5.13491
5.16768
5.16358
5.11329
5.00023
530.925
517.716
5.23123
5.69914
6.00815
6.19557
6.31571
6.39683
6.44789
6.47136
6.46859
6.44202
6.39639
6.33565
6.26077
6.17289
6.07317
5.96257
5.84182
5.71123
5.57245
5.429
5.28959
5.17179
5.07991
5.01842
4.99212
5.00218
5.04263
5.09985
5.15616
5.18823
5.18288
5.1301
5.01228
531.029
517.73
5.24431
5.71311
6.02197
6.20935
6.3299
6.41169
6.46348
6.48768
6.48565
6.45996
6.41551
6.35631
6.2833
6.19758
6.10022
5.99216
5.87403
5.74616
5.60991
5.46862
5.33053
5.21281
5.11953
5.05511
5.02475
5.03052
5.06742
5.12238
5.17762
5.2086
5.20177
5.14641
5.02386
531.131
517.743
5.25655
5.72596
6.03452
6.22178
6.3427
6.42514
6.47765
6.50256
6.5013
6.47653
6.43334
6.37575
6.30466
6.22114
6.12621
6.02074
5.9053
5.78017
5.64661
5.5077
5.37132
5.25423
5.16007
5.09317
5.05903
5.06049
5.09352
5.14571
5.19935
5.22883
5.2203
5.16227
5.03501
531.231
517.756
5.26809
5.7379
6.04604
6.23311
6.35436
6.43741
6.49061
6.51621
6.5157
6.49189
6.45001
6.39408
6.32495
6.24366
6.15117
6.04831
5.9356
5.81327
5.6825
5.54616
5.41185
5.29587
5.20134
5.1324
5.09476
5.09193
5.12084
5.16981
5.22134
5.24894
5.23849
5.17769
5.04576
531.329
517.768
5.27885
5.7488
6.05638
6.24321
6.36474
6.44837
6.50223
6.52853
6.52878
6.50595
6.46546
6.41124
6.34411
6.26507
6.17505
6.07482
5.96487
5.84537
5.71745
5.58389
5.45196
5.33755
5.24313
5.1726
5.13177
5.12474
5.14933
5.19469
5.24363
5.26899
5.2564
5.19274
5.05616
531.425
517.78
5.2889
5.75879
6.06571
6.25223
6.374
6.45817
6.51267
6.53964
6.54065
6.51883
6.47978
6.42731
6.3622
6.28543
6.19788
6.10029
5.99312
5.87648
5.75147
5.62078
5.49157
5.37915
5.28527
5.21356
5.16987
5.15875
5.1789
5.22031
5.26623
5.28901
5.27406
5.20744
5.06625
531.519
517.792
5.2982
5.76781
6.07396
6.26012
6.38208
6.46676
6.52188
6.5495
6.55128
6.53051
6.49296
6.44228
6.37922
6.30472
6.21965
6.1247
6.0203
5.90656
5.78455
5.6569
5.53069
5.42062
5.32767
5.25518
5.20893
5.19387
5.20948
5.24662
5.28916
5.30904
5.29154
5.22188
5.07609
531.612
517.803
5.3068
5.77595
6.08122
6.26697
6.38908
6.47423
6.52994
6.5582
6.56074
6.54105
6.50505
6.45619
6.39521
6.32299
6.24039
6.14807
6.04644
5.93561
5.81664
5.69218
5.56926
5.46185
5.37019
5.29729
5.24881
5.22998
5.24102
5.27373
5.31245
5.32913
5.30889
5.23609
5.08573
531.703
517.814
5.31471
5.78322
6.08751
6.27279
6.39501
6.4806
6.53686
6.56574
6.56905
6.55045
6.51607
6.46907
6.41017
6.34024
6.26009
6.17038
6.07151
5.96359
5.84773
5.72661
5.60728
5.50277
5.4127
5.33976
5.28938
5.267
5.2735
5.30164
5.33616
5.34935
5.32618
5.25015
5.09523
531.793
517.824
5.32198
5.78967
6.09289
6.27763
6.39992
6.4859
6.54268
6.57216
6.57624
6.55877
6.52605
6.48095
6.42416
6.35651
6.2788
6.19168
6.09555
5.99054
5.87781
5.76014
5.6447
5.5433
5.45511
5.38244
5.3305
5.30481
5.30684
5.33028
5.36032
5.36975
5.34348
5.26413
5.10466
531.881
517.834
5.32866
5.79535
6.0974
6.28155
6.40385
6.49018
6.54745
6.57751
6.58235
6.56602
6.53502
6.49184
6.43717
6.3718
6.29652
6.21197
6.11854
6.01643
5.90685
5.79273
5.68139
5.5833
5.49724
5.42518
5.37203
5.34331
5.34099
5.35965
5.38497
5.39039
5.36086
5.27811
5.11408
531.968
517.843
5.33476
5.8003
6.10107
6.28457
6.40684
6.49348
6.5512
6.5818
6.5874
6.57224
6.54301
6.50179
6.44925
6.38617
6.3133
6.23129
6.14054
6.04129
5.93487
5.82436
5.71729
5.62267
5.53897
5.46781
5.41381
5.38237
5.37587
5.38973
5.41014
5.41136
5.3784
5.29215
5.12354
532.053
517.852
5.34036
5.80458
6.10398
6.28675
6.40893
6.49583
6.55396
6.58509
6.59143
6.57746
6.55003
6.5108
6.4604
6.3996
6.32913
6.24962
6.16151
6.06509
5.96181
5.85495
5.75228
5.66129
5.58017
5.51024
5.45573
5.4219
5.4114
5.42046
5.43584
5.4327
5.39619
5.30634
5.13311
532.138
517.861
5.34546
5.8082
6.10612
6.28811
6.41016
6.49728
6.55579
6.58741
6.59451
6.58175
6.55616
6.51893
6.47068
6.41215
6.34407
6.26704
6.18154
6.08791
5.98775
5.88454
5.78636
5.69907
5.62068
5.5522
5.49748
5.46162
5.44739
5.45173
5.46205
5.45445
5.41427
5.32074
5.14283
532.221
517.869
5.35008
5.8112
6.10755
6.28869
6.41055
6.49784
6.55669
6.5888
6.59665
6.58513
6.5614
6.52617
6.48006
6.42379
6.35808
6.28352
6.20059
6.10973
6.01266
5.91312
5.81947
5.73595
5.66042
5.59365
5.5391
5.50154
5.48383
5.48357
5.48881
5.47666
5.43271
5.33541
5.15275
532.304
517.878
5.35428
5.81361
6.1083
6.28853
6.41016
6.49759
6.55674
6.58932
6.59795
6.58773
6.56585
6.5326
6.48861
6.43459
6.37123
6.29912
6.21875
6.13063
6.03663
5.94076
5.85166
5.77192
5.69933
5.6344
5.58024
5.54124
5.52043
5.51582
5.51607
5.49935
5.45157
5.35041
5.16291
532.386
517.886
5.35804
5.81543
6.10836
6.28764
6.40899
6.49651
6.55593
6.58896
6.59844
6.5897
6.56952
6.53818
6.49627
6.44449
6.38348
6.31381
6.236
6.15061
6.05968
5.96751
5.88294
5.80699
5.73739
5.67444
5.62093
5.58092
5.55726
5.5485
5.54384
5.52252
5.47085
5.36576
5.17333
532.467
517.893
5.36142
5.81672
6.10781
6.28608
6.40711
6.49468
6.55433
6.58776
6.59805
6.59081
6.57234
6.54291
6.5031
6.45355
6.39489
6.32766
6.25239
6.16974
6.08191
5.99348
5.91342
5.84121
5.77459
5.7137
5.66101
5.62022
5.59398
5.58143
5.57203
5.5462
5.49062
5.38152
5.18405
532.549
517.901
5.36439
5.81746
6.10663
6.28386
6.40454
6.49212
6.55195
6.58576
6.59686
6.59112
6.57436
6.54683
6.5091
6.46178
6.40546
6.34068
6.26798
6.1881
6.10342
6.01885
5.94319
5.87466
5.81098
5.7522
5.70048
5.65916
5.63074
5.61459
5.60062
5.57033
5.51084
5.39767
5.19506
532.629
517.909
5.36702
5.81771
6.10488
6.28102
6.40131
6.48889
6.54887
6.58304
6.59495
6.59074
6.5757
6.55006
6.51439
6.46928
6.41528
6.35294
6.28284
6.20578
6.12435
6.04381
5.97241
5.90743
5.84663
5.78995
5.73929
5.69765
5.66732
5.64784
5.62953
5.59492
5.53155
5.41425
5.20638
532.711
517.916
5.36928
5.81746
6.10256
6.27756
6.39744
6.48497
6.54507
6.57958
6.59229
6.58963
6.5763
6.55256
6.51895
6.47603
6.42435
6.36447
6.29698
6.22282
6.14479
6.06851
6.00121
5.93966
5.88164
5.82702
5.77747
5.73567
5.70368
5.68122
5.65872
5.61991
5.55269
5.43124
5.218
532.792
517.923
5.37123
5.81676
6.09971
6.27353
6.39297
6.48043
6.54062
6.57546
6.58899
6.58792
6.57632
6.55447
6.52288
6.48212
6.43274
6.37529
6.31044
6.23924
6.16472
6.09288
6.0296
5.97137
5.91605
5.86345
5.81504
5.7732
5.73976
5.71458
5.68814
5.64528
5.57427
5.44864
5.22994
532.873
517.93
5.37289
5.81562
6.09632
6.26891
6.38787
6.47522
6.53548
6.57063
6.58501
6.58555
6.57571
6.55575
6.52618
6.48757
6.44047
6.38545
6.32324
6.25503
6.18412
6.11684
6.05753
6.00257
5.9499
5.89929
5.85203
5.81025
5.77556
5.74791
5.71776
5.67096
5.59624
5.46641
5.24215
532.955
517.937
5.37427
5.81406
6.09242
6.26373
6.38219
6.46941
6.52971
6.56517
6.5804
6.5826
6.57453
6.55646
6.5289
6.49242
6.44756
6.39495
6.33538
6.2702
6.20295
6.14031
6.08494
6.03323
5.9832
5.93456
5.88848
5.84683
5.81105
5.78117
5.74755
5.69699
5.61859
5.48455
5.25465
533.038
517.944
5.37538
5.81207
6.08799
6.25796
6.37588
6.46294
6.52326
6.55903
6.57515
6.57905
6.57278
6.55661
6.53106
6.49669
6.45407
6.40385
6.34692
6.28476
6.22124
6.16324
6.1118
6.06334
6.01595
5.9693
5.92442
5.88296
5.8462
5.8143
5.77741
5.72327
5.64129
5.50305
5.26743
533.12
517.951
5.37621
5.80963
6.08301
6.25161
6.36896
6.45585
6.51618
6.55227
6.5693
6.57493
6.57046
6.55619
6.53265
6.50039
6.46
6.41216
6.35786
6.29877
6.23903
6.18565
6.13807
6.09284
6.04808
6.00345
5.95982
5.91864
5.88103
5.84733
5.80738
5.74981
5.66433
5.52186
5.28043
533.204
517.958
5.37672
5.8067
6.07745
6.24462
6.36139
6.4481
6.50845
6.5449
6.56289
6.57026
6.56759
6.55522
6.53368
6.50353
6.46538
6.41995
6.36831
6.31234
6.25648
6.20761
6.16381
6.12173
6.07958
6.03696
5.99461
5.95376
5.91541
5.88009
5.83729
5.77646
5.68756
5.54087
5.29359
533.288
517.964
5.37686
5.80325
6.07128
6.23701
6.35319
6.43971
6.50011
6.53698
6.55603
6.56512
6.5642
6.55369
6.53414
6.50611
6.47021
6.42721
6.3783
6.32555
6.27374
6.22921
6.18906
6.15005
6.11047
6.06988
6.02887
5.98849
5.94959
5.91282
5.8673
5.80333
5.71107
5.56015
5.30694
533.372
517.97
5.37659
5.79921
6.06446
6.22872
6.3443
6.43066
6.49114
6.52857
6.54895
6.55958
6.56032
6.55162
6.53405
6.50815
6.47453
6.43401
6.38791
6.33851
6.29093
6.25057
6.21389
6.17783
6.14071
6.1021
6.06242
6.02253
5.98314
5.94519
5.8972
5.83025
5.73472
5.57958
5.32041
533.457
517.977
5.37588
5.79459
6.057
6.21976
6.33475
6.42093
6.48152
6.51955
6.54136
6.55352
6.55592
6.54904
6.53343
6.50965
6.47832
6.44033
6.39711
6.3512
6.30802
6.27167
6.23833
6.20509
6.17037
6.13368
6.09537
6.0561
6.01657
5.97739
5.92706
5.85729
5.75856
5.59923
5.33409
533.542
517.983
5.37473
5.78938
6.04888
6.21013
6.32452
6.41055
6.47129
6.51
6.53334
6.54709
6.55116
6.54608
6.53241
6.51071
6.48166
6.44621
6.40592
6.36358
6.3249
6.29244
6.26233
6.23182
6.19941
6.16462
6.1277
6.08919
6.04978
6.00938
5.9568
5.88431
5.78247
5.61899
5.34794
533.628
517.988
5.37318
5.78363
6.04013
6.19981
6.31358
6.39947
6.46041
6.49992
6.52492
6.54034
6.54613
6.54285
6.53108
6.51145
6.48465
6.45173
6.4144
6.3757
6.34152
6.31287
6.28591
6.25805
6.22789
6.19498
6.15948
6.12184
6.08273
6.04121
5.98648
5.91139
5.80651
5.63892
5.36197
533.713
517.994
5.37131
5.7774
6.03077
6.1888
6.30189
6.38763
6.44883
6.48925
6.51608
6.53331
6.5409
6.53943
6.52957
6.51196
6.48738
6.45698
6.42263
6.38762
6.35791
6.33295
6.30903
6.28374
6.25578
6.22472
6.19065
6.15395
6.11525
6.07272
6.01597
5.93839
5.83055
5.6589
5.37609
533.799
517.999
5.36922
5.77078
6.02085
6.17711
6.28945
6.375
6.43649
6.47796
6.50681
6.52601
6.53552
6.53595
6.528
6.51241
6.49004
6.46216
6.43081
6.39956
6.37419
6.35278
6.33179
6.30897
6.28314
6.25388
6.22125
6.18553
6.14736
6.10396
6.04532
5.96537
5.85466
5.67898
5.39033
533.885
518.005
5.36697
5.76377
6.01036
6.16468
6.27616
6.36145
6.42325
6.4659
6.49697
6.51834
6.52994
6.53238
6.52642
6.51289
6.49275
6.46741
6.43914
6.41177
6.39052
6.37245
6.35424
6.33377
6.30997
6.28245
6.25123
6.21653
6.17896
6.13478
6.07439
5.99219
5.87868
5.69903
5.40457
533.97
518.01
5.36468
5.75647
5.99934
6.15157
6.26204
6.34696
6.40906
6.453
6.48649
6.51023
6.52409
6.5287
6.52485
6.51345
6.4956
6.47288
6.44779
6.42444
6.40707
6.39214
6.37651
6.35825
6.33636
6.31049
6.28063
6.24696
6.21007
6.16522
6.10322
6.0189
5.90269
5.71913
5.41887
534.055
518.015
5.36228
5.74884
5.98779
6.13771
6.247
6.33144
6.39382
6.43916
6.47522
6.50152
6.51784
6.52478
6.52318
6.51403
6.49858
6.47857
6.45678
6.43758
6.42386
6.41186
6.39865
6.38246
6.36236
6.33805
6.3095
6.27683
6.24062
6.19518
6.13166
6.04533
5.9265
5.73908
5.43308
534.139
518.021
5.3598
5.74095
5.97572
6.12313
6.23105
6.31485
6.3775
6.42437
6.46313
6.49211
6.51106
6.52052
6.52135
6.5146
6.50165
6.48447
6.4661
6.45109
6.44086
6.43163
6.42069
6.40643
6.38801
6.36517
6.33786
6.30617
6.27071
6.22475
6.15984
6.07161
5.95024
5.75901
5.44729
534.224
518.027
5.35728
5.73279
5.96316
6.10782
6.21413
6.2971
6.36003
6.4087
6.45008
6.48184
6.50359
6.51577
6.5192
6.51502
6.50475
6.49054
6.47571
6.4649
6.45801
6.45141
6.44262
6.43017
6.41333
6.39185
6.36569
6.33492
6.30017
6.25374
6.18752
6.09749
5.97366
5.77868
5.46129
534.307
518.032
5.35474
5.72444
5.95017
6.09183
6.19626
6.27815
6.34125
6.39198
6.43591
6.47056
6.49529
6.51039
6.51664
6.51522
6.50779
6.49672
6.4856
6.47893
6.47526
6.47117
6.46442
6.4537
6.43837
6.4182
6.39316
6.36331
6.32927
6.28237
6.21491
6.12315
5.99693
5.79824
5.47521
534.391
518.038
5.3522
5.71589
5.93673
6.07516
6.1774
6.2579
6.32098
6.37371
6.42036
6.45812
6.48608
6.50432
6.5136
6.51515
6.51078
6.50308
6.49589
6.49322
6.4926
6.49089
6.48606
6.47695
6.46301
6.44403
6.41998
6.39091
6.35762
6.31035
6.24174
6.14834
6.01978
5.81744
5.48883
534.472
518.044
5.34969
5.70719
5.92293
6.05787
6.15762
6.23641
6.29929
6.35402
6.40344
6.44445
6.47581
6.49742
6.50994
6.51469
6.51362
6.50955
6.50656
6.50773
6.51001
6.51054
6.50753
6.49996
6.48735
6.46956
6.44657
6.41858
6.3857
6.33796
6.26822
6.17324
6.04241
5.83645
5.5023
534.554
518.05
5.34717
5.6983
5.90877
6.03999
6.13694
6.21366
6.27609
6.33273
6.38498
6.4294
6.46436
6.48954
6.50553
6.51373
6.51621
6.51604
6.51749
6.52237
6.52742
6.53008
6.5288
6.52269
6.51136
6.49472
6.47283
6.44597
6.41332
6.36501
6.29413
6.19761
6.06455
5.85503
5.51542
534.634
518.056
5.34457
5.6892
5.89426
6.02157
6.11543
6.18976
6.25149
6.3099
6.36496
6.41286
6.45158
6.48052
6.5002
6.51206
6.51834
6.52234
6.52841
6.53691
6.54467
6.54943
6.54982
6.54514
6.53508
6.51961
6.49883
6.47313
6.44067
6.39174
6.31973
6.2217
6.08644
5.8734
5.52837
534.714
518.062
5.34182
5.67987
5.87942
6.00266
6.09316
6.16478
6.22556
6.28557
6.34339
6.3948
6.43737
6.47022
6.49378
6.50953
6.51987
6.52828
6.53907
6.55117
6.56161
6.56843
6.57049
6.56721
6.55839
6.54405
6.52436
6.49979
6.46745
6.41787
6.34475
6.24523
6.10782
5.89132
5.54097
534.792
518.068
5.33894
5.67034
5.8643
5.98331
6.07019
6.13886
6.1985
6.25997
6.32043
6.37531
6.42177
6.45863
6.48623
6.50608
6.52071
6.53382
6.54932
6.56498
6.57809
6.587
6.59074
6.58889
6.58133
6.56816
6.54958
6.52613
6.49392
6.44369
6.36946
6.26848
6.12895
5.90903
5.55342
534.87
518.074
5.336
5.6607
5.84892
5.96349
6.04649
6.11198
6.17041
6.23325
6.29628
6.35457
6.40489
6.44581
6.47757
6.5017
6.52088
6.53895
6.55908
6.57821
6.59398
6.60497
6.61042
6.61
6.6037
6.59168
6.57419
6.55184
6.51973
6.46886
6.39355
6.29117
6.14956
5.92628
5.56551
534.945
518.08
5.33327
5.65114
5.83337
5.94317
6.02194
6.08407
6.14131
6.20558
6.27119
6.33286
6.387
6.43198
6.46795
6.49649
6.52041
6.54369
6.56829
6.59081
6.60922
6.62232
6.6295
6.63058
6.6256
6.61478
6.59843
6.57719
6.54518
6.49368
6.41733
6.31357
6.16992
5.94333
5.57745
535.021
518.086
5.33095
5.64177
5.81765
5.92225
5.9963
6.05482
6.11106
6.17681
6.24514
6.31028
6.36828
6.41732
6.45751
6.49053
6.51934
6.54794
6.57684
6.60268
6.62368
6.63889
6.64784
6.65043
6.64678
6.63716
6.62193
6.60179
6.56989
6.5178
6.44046
6.33536
6.18973
5.95988
5.589
535.094
518.093
5.32926
5.63273
5.80181
5.90066
5.96936
6.02385
6.0794
6.14657
6.21789
6.28678
6.34879
6.40193
6.44637
6.48391
6.51768
6.55158
6.58465
6.61372
6.63733
6.65469
6.66546
6.66963
6.66739
6.65904
6.64499
6.62597
6.59419
6.54152
6.46323
6.35684
6.20926
5.97621
5.60035
535.167
518.1
5.32811
5.62391
5.78582
5.87839
5.94093
5.99062
6.0451
6.11395
6.18879
6.26193
6.3283
6.38577
6.43457
6.47672
6.51553
6.55455
6.59161
6.62383
6.65
6.66952
6.68215
6.68794
6.68713
6.68006
6.66717
6.6493
6.61766
6.56447
6.48528
6.37766
6.22819
5.99198
5.61123
535.237
518.109
5.32726
5.61513
5.76968
5.85557
5.91126
5.95536
6.00822
6.07861
6.15723
6.23509
6.30627
6.3684
6.42183
6.46878
6.5128
6.55672
6.5976
6.63288
6.66163
6.68336
6.69791
6.7054
6.70611
6.70041
6.6888
6.672
6.64055
6.58691
6.50689
6.39811
6.24679
6.00747
5.62183
535.308
518.117
5.32622
5.60611
5.75335
5.83234
5.88055
5.91815
5.96851
6.03998
6.12246
6.20543
6.28192
6.34919
6.40763
6.45971
6.50918
6.55779
6.60235
6.64065
6.67196
6.69592
6.71246
6.72174
6.72406
6.71986
6.70978
6.69382
6.66251
6.60845
6.52768
6.4178
6.26471
6.02236
5.63189
535.375
518.124
5.32467
5.59671
5.73687
5.80899
5.84936
5.87973
5.92658
5.99828
6.08424
6.17239
6.25453
6.32735
6.39122
6.44881
6.504
6.55726
6.60551
6.64688
6.68085
6.70717
6.72584
6.73704
6.74114
6.73862
6.73021
6.71506
6.68387
6.62942
6.54794
6.43703
6.28224
6.0369
5.64163
535.444
518.131
5.32241
5.58679
5.72013
5.78551
5.81792
5.84061
5.88299
5.95403
6.04282
6.13591
6.22377
6.30241
6.37206
6.4355
6.49663
6.5546
6.60663
6.65118
6.68793
6.71674
6.73766
6.75093
6.75692
6.75619
6.74951
6.73521
6.70416
6.64938
6.56729
6.45543
6.29901
6.05078
5.65082
535.509
518.137
5.31964
5.57646
5.70311
5.76184
5.78638
5.80127
5.83869
5.90821
5.99899
6.09646
6.18984
6.27435
6.34996
6.41952
6.4867
6.54947
6.60544
6.65338
6.69312
6.72464
6.74802
6.76354
6.77162
6.77281
6.76797
6.75457
6.72373
6.66867
6.58602
6.47328
6.31531
6.06426
5.65964
535.576
518.143
5.31667
5.56582
5.68564
5.73755
5.75413
5.76142
5.79394
5.86162
5.95375
6.055
6.15349
6.2437
6.32528
6.40107
6.47419
6.54174
6.60173
6.65318
6.69609
6.73049
6.75651
6.77444
6.78473
6.78798
6.78505
6.77264
6.74207
6.68683
6.60374
6.49022
6.33079
6.07702
5.66787
535.639
518.15
5.31397
5.55508
5.66765
5.7123
5.72056
5.7204
5.74845
5.81456
5.90789
6.01245
6.1156
6.21119
6.2986
6.38064
6.4594
6.53161
6.59565
6.65075
6.69701
6.73449
6.76335
6.78391
6.7966
6.80203
6.80112
6.78976
6.75953
6.70418
6.62071
6.50647
6.34566
6.08925
5.67566
535.705
518.157
5.31173
5.54429
5.64907
5.68582
5.68513
5.67742
5.70151
5.7667
5.86152
5.96931
6.07681
6.17744
6.27042
6.35854
6.44253
6.51919
6.5872
6.64596
6.69563
6.73631
6.76816
6.79147
6.80669
6.81443
6.81562
6.80542
6.77564
6.7203
6.63656
6.52172
6.35962
6.10066
5.68274
535.766
518.166
5.30993
5.53347
5.62996
5.6581
5.6476
5.63182
5.65222
5.71706
5.81399
5.92527
6.03706
6.14256
6.24091
6.33486
6.42378
6.50472
6.57665
6.63911
6.6923
6.73632
6.77131
6.79754
6.81544
6.8256
6.82896
6.81997
6.7907
6.73543
6.65149
6.53611
6.37279
6.11138
5.6892
535.831
518.175
5.30828
5.52257
5.6105
5.62948
5.60831
5.58364
5.6
5.66476
5.76432
5.8795
5.99577
6.10612
6.20972
6.30928
6.40289
6.48798
6.56377
6.62992
6.68666
6.73409
6.77232
6.80158
6.82227
6.83497
6.84061
6.83294
6.80429
6.74922
6.66522
6.5494
6.38497
6.1212
5.69484
535.89
518.184
5.30658
5.51164
5.5909
5.60033
5.56774
5.53327
5.54487
5.60929
5.71153
5.83096
5.95203
6.06744
6.17637
6.28144
6.3797
6.46895
6.54866
6.6186
6.67903
6.73001
6.77162
6.80405
6.82765
6.84297
6.85092
6.84463
6.81666
6.76186
6.67784
6.56166
6.39618
6.13013
5.69971
535.954
518.192
5.30487
5.50086
5.57142
5.57097
5.52642
5.48146
5.48732
5.55062
5.65533
5.77911
5.90522
6.02587
6.14025
6.25075
6.35363
6.4471
6.53082
6.60465
6.66886
6.7235
6.76862
6.80436
6.83102
6.8491
6.85946
6.85465
6.8275
6.77309
6.6892
6.57277
6.40637
6.13815
5.70374
536.013
518.201
5.30355
5.49056
5.55223
5.54144
5.48435
5.42847
5.42781
5.48931
5.59605
5.724
5.85518
5.98121
6.10121
6.21709
6.32468
6.42251
6.51041
6.58831
6.65649
6.71498
6.76376
6.80294
6.83274
6.85363
6.86647
6.86322
6.83695
6.78301
6.69931
6.58271
6.41544
6.14514
5.70688
536.077
518.211
5.30313
5.48114
5.53358
5.51176
5.44132
5.37423
5.36653
5.42585
5.53423
5.66607
5.80218
5.93355
6.05914
6.18026
6.29254
6.3948
6.48701
6.56911
6.6414
6.70387
6.75647
6.79925
6.83241
6.85641
6.87165
6.87003
6.84477
6.79144
6.70808
6.59143
6.42343
6.15117
5.70919
536.135
518.222
5.304
5.47291
5.51574
5.48203
5.39696
5.31768
5.30275
5.36005
5.47013
5.60577
5.74662
5.88319
6.0143
6.14053
6.25755
6.36436
6.46103
6.54751