/*--------------------------------*- C++ -*----------------------------------*\
| =========                 |                                                 |
| \\      /  F ield         | OpenFOAM: The Open Source CFD Toolbox           |
|  \\    /   O peration     | Version:  v2006                                 |
|   \\  /    A nd           | Website:  www.openfoam.com                      |
|    \\/     M anipulation  |                                                 |
\*---------------------------------------------------------------------------*/
FoamFile
{
    version     2.0;
    format      ascii;
    class       surfaceScalarField;
    location    "81";
    object      phi;
}
// * * * * * * * * * * * * * * * * * * * * * * * * * * * * * * * * * * * * * //

dimensions      [1 0 -1 0 0 0 0];
oriented        oriented;


internalField   nonuniform List<scalar> 
228225
(
-2.48303e-06
-5.93753e-08
9.50353e-08
-2.07298e-06
-5.03786e-07
9.38704e-08
-1.36215e-06
-8.11733e-07
1.01192e-07
-4.37751e-07
-1.03597e-06
1.11859e-07
6.31054e-07
-1.19127e-06
1.22753e-07
1.79024e-06
-1.29124e-06
1.3231e-07
2.99772e-06
-1.3473e-06
1.40057e-07
4.21987e-06
-1.36796e-06
1.46016e-07
5.42898e-06
-1.35926e-06
1.50341e-07
6.60155e-06
-1.32562e-06
1.53203e-07
7.71742e-06
-1.27051e-06
1.5475e-07
8.75921e-06
-1.19682e-06
1.55109e-07
9.7119e-06
-1.10703e-06
1.5438e-07
1.05627e-05
-1.00349e-06
1.52648e-07
1.13011e-05
-8.88411e-07
1.4999e-07
1.19176e-05
-7.63091e-07
1.46505e-07
1.24044e-05
-6.29203e-07
1.42275e-07
1.27561e-05
-4.89193e-07
1.3738e-07
1.29692e-05
-3.45297e-07
1.31917e-07
1.30427e-05
-1.99778e-07
1.2598e-07
1.2979e-05
-5.62019e-08
1.19668e-07
1.27747e-05
9.08019e-08
1.13066e-07
1.24336e-05
2.34449e-07
1.06265e-07
1.19624e-05
3.71318e-07
9.93409e-08
1.13691e-05
5.00469e-07
9.23321e-08
1.06631e-05
6.20167e-07
8.52341e-08
9.85618e-06
7.28341e-07
7.80123e-08
8.96154e-06
8.23439e-07
7.05951e-08
7.99181e-06
9.06216e-07
6.29e-08
6.95262e-06
9.83775e-07
5.48036e-08
5.82594e-06
1.08018e-06
4.5926e-08
4.54383e-06
1.24602e-06
3.55737e-08
3.00712e-06
1.51248e-06
2.39533e-08
1.27118e-06
1.72158e-06
1.46435e-08
1.25979e-06
1.25098e-08
2.54315e-08
-1.72917e-07
8.82204e-08
2.60261e-07
-8.71165e-07
1.32008e-07
6.91627e-07
-1.40187e-06
1.59193e-07
1.28629e-06
-1.80859e-06
1.77899e-07
2.01241e-06
-2.10827e-06
1.91005e-07
2.83525e-06
-2.31412e-06
2.00275e-07
3.72137e-06
-2.43993e-06
2.06732e-07
4.64098e-06
-2.49839e-06
2.11017e-07
5.56841e-06
-2.50008e-06
2.13609e-07
6.48177e-06
-2.4536e-06
2.14863e-07
7.36239e-06
-2.36591e-06
2.15032e-07
8.19428e-06
-2.24275e-06
2.14287e-07
8.96374e-06
-2.08899e-06
2.1273e-07
9.65914e-06
-1.90907e-06
2.10397e-07
1.02706e-05
-1.70701e-06
2.07306e-07
1.07899e-05
-1.48583e-06
2.03704e-07
1.12092e-05
-1.24819e-06
1.99795e-07
1.15221e-05
-9.97489e-07
1.95594e-07
1.17228e-05
-7.37061e-07
1.91134e-07
1.1807e-05
-4.7032e-07
1.86429e-07
1.17706e-05
-2.01389e-07
1.81531e-07
1.16177e-05
6.71703e-08
1.76508e-07
1.134e-05
3.40648e-07
1.71425e-07
1.09404e-05
6.04417e-07
1.66372e-07
1.04208e-05
8.5841e-07
1.61403e-07
9.78425e-06
1.09997e-06
1.56502e-07
9.03389e-06
1.32682e-06
1.51555e-07
8.17125e-06
1.53921e-06
1.46485e-07
7.19379e-06
1.74217e-06
1.4108e-07
6.09267e-06
1.94996e-06
1.34499e-07
4.85276e-06
2.19466e-06
1.25034e-07
3.4713e-06
2.51702e-06
1.10214e-07
2.01854e-06
2.87677e-06
8.85705e-08
7.03598e-07
2.97502e-06
6.21779e-08
1.9329e-06
3.19205e-08
1.85279e-07
-4.25388e-07
6.70745e-08
5.43401e-07
-1.34495e-06
1.15481e-07
1.06944e-06
-2.07264e-06
1.44632e-07
1.72441e-06
-2.6264e-06
1.62754e-07
2.46281e-06
-3.02058e-06
1.73861e-07
3.24646e-06
-3.27863e-06
1.80849e-07
4.04719e-06
-3.42629e-06
1.85633e-07
4.84465e-06
-3.48515e-06
1.89301e-07
5.62343e-06
-3.47125e-06
1.92387e-07
6.37098e-06
-3.39629e-06
1.95128e-07
7.07651e-06
-3.26906e-06
1.97617e-07
7.73037e-06
-3.09649e-06
1.99879e-07
8.3238e-06
-2.88433e-06
2.01899e-07
8.84868e-06
-2.63758e-06
2.03634e-07
9.29751e-06
-2.36087e-06
2.05017e-07
9.66436e-06
-2.05864e-06
2.0596e-07
9.94481e-06
-1.73503e-06
2.06391e-07
1.01351e-05
-1.39403e-06
2.06257e-07
1.0232e-05
-1.03944e-06
2.05469e-07
1.02326e-05
-6.74962e-07
2.04001e-07
1.01336e-05
-3.04285e-07
2.01835e-07
9.9331e-06
6.8655e-08
1.98997e-07
9.63542e-06
4.42691e-07
1.95557e-07
9.23727e-06
8.10864e-07
1.91608e-07
8.73854e-06
1.16971e-06
1.87294e-07
8.14031e-06
1.51524e-06
1.82779e-07
7.44402e-06
1.84469e-06
1.78178e-07
6.65063e-06
2.15888e-06
1.73459e-07
5.75848e-06
2.46578e-06
1.68246e-07
4.76151e-06
2.78518e-06
1.61459e-07
3.65706e-06
3.1481e-06
1.50794e-07
2.47858e-06
3.56251e-06
1.3297e-07
1.34089e-06
3.90792e-06
1.06913e-07
4.15488e-07
3.82681e-06
7.45211e-08
2.31481e-06
3.51855e-08
1.82756e-07
-6.67305e-07
5.94909e-08
6.2189e-07
-1.89053e-06
1.0559e-07
1.23933e-06
-2.81959e-06
1.29383e-07
1.9529e-06
-3.48206e-06
1.42152e-07
2.69823e-06
-3.91536e-06
1.49295e-07
3.43664e-06
-4.17089e-06
1.53656e-07
4.14952e-06
-4.29583e-06
1.56539e-07
4.82876e-06
-4.32293e-06
1.58467e-07
5.47026e-06
-4.27254e-06
1.59729e-07
6.0707e-06
-4.15743e-06
1.60622e-07
6.62622e-06
-3.98615e-06
1.61469e-07
7.13203e-06
-3.76499e-06
1.62576e-07
7.5826e-06
-3.49917e-06
1.64183e-07
7.97202e-06
-3.19355e-06
1.66457e-07
8.29462e-06
-2.85304e-06
1.69492e-07
8.54538e-06
-2.48278e-06
1.73312e-07
8.72045e-06
-2.08807e-06
1.77873e-07
8.81741e-06
-1.67414e-06
1.83061e-07
8.83507e-06
-1.24588e-06
1.88693e-07
8.77313e-06
-8.07657e-07
1.94541e-07
8.6317e-06
-3.63254e-07
2.0031e-07
8.4109e-06
8.37144e-08
2.05653e-07
8.1108e-06
5.32488e-07
2.10196e-07
7.73076e-06
9.77215e-07
2.1357e-07
7.27023e-06
1.41465e-06
2.1546e-07
6.72912e-06
1.84055e-06
2.1565e-07
6.10771e-06
2.25187e-06
2.14043e-07
5.40574e-06
2.65005e-06
2.10597e-07
4.62082e-06
3.0454e-06
2.05086e-07
3.75011e-06
3.45919e-06
1.96518e-07
2.80351e-06
3.91217e-06
1.82426e-07
1.83417e-06
4.37226e-06
1.59698e-07
9.48201e-07
4.66581e-06
1.28565e-07
2.69063e-07
4.4165e-06
9.04629e-08
2.54415e-06
4.14039e-08
1.86917e-07
-8.96516e-07
4.21408e-08
6.13383e-07
-2.39052e-06
7.33476e-08
1.17819e-06
-3.47328e-06
8.87134e-08
1.80035e-06
-4.20148e-06
9.71162e-08
2.42627e-06
-4.64311e-06
1.01711e-07
3.03189e-06
-4.88003e-06
1.0341e-07
3.61124e-06
-4.97767e-06
1.02397e-07
4.16429e-06
-4.97511e-06
9.90381e-08
4.69091e-06
-4.89336e-06
9.41189e-08
5.18891e-06
-4.74405e-06
8.85464e-08
5.65372e-06
-4.53413e-06
8.30835e-08
6.0788e-06
-4.26847e-06
7.83138e-08
6.45635e-06
-3.9515e-06
7.46917e-08
6.77835e-06
-3.58824e-06
7.26096e-08
7.03763e-06
-3.18479e-06
7.23933e-08
7.22878e-06
-2.74832e-06
7.43073e-08
7.34866e-06
-2.28659e-06
7.85435e-08
7.39655e-06
-1.80732e-06
8.52047e-08
7.37374e-06
-1.31748e-06
9.43062e-08
7.28299e-06
-8.22754e-07
1.05756e-07
7.12759e-06
-3.27258e-07
1.1931e-07
6.91031e-06
1.66346e-07
1.34538e-07
6.63543e-06
6.5646e-07
1.50806e-07
6.30331e-06
1.14196e-06
1.6726e-07
5.91331e-06
1.62164e-06
1.82874e-07
5.46311e-06
2.09406e-06
1.96541e-07
4.94884e-06
2.55877e-06
2.07211e-07
4.36512e-06
3.01961e-06
2.14e-07
3.70603e-06
3.4883e-06
2.16028e-07
2.97063e-06
3.98264e-06
2.1184e-07
2.17861e-06
4.50523e-06
1.98935e-07
1.39168e-06
4.98433e-06
1.75075e-07
6.95137e-07
5.22142e-06
1.41503e-07
1.84809e-07
4.82884e-06
9.90332e-08
2.68805e-06
4.26162e-08
1.60968e-07
-1.08686e-06
2.92869e-08
5.25877e-07
-2.8084e-06
5.30011e-08
9.98827e-07
-4.01394e-06
6.72952e-08
1.51082e-06
-4.79058e-06
7.68629e-08
2.02129e-06
-5.23604e-06
8.24134e-08
2.51582e-06
-5.45846e-06
8.3877e-08
2.99308e-06
-5.53647e-06
8.14616e-08
3.45408e-06
-5.51209e-06
7.58646e-08
3.89812e-06
-5.40552e-06
6.79909e-08
4.32191e-06
-5.22661e-06
5.86528e-08
4.71965e-06
-4.98047e-06
4.85209e-08
5.08349e-06
-4.67059e-06
3.8198e-08
5.40451e-06
-4.3009e-06
2.82926e-08
5.67398e-06
-3.87722e-06
1.94069e-08
5.88469e-06
-3.40771e-06
1.21068e-08
6.03182e-06
-2.90249e-06
6.93938e-09
6.11329e-06
-2.37262e-06
4.45724e-09
6.12967e-06
-1.82897e-06
5.17447e-09
6.0839e-06
-1.2811e-06
9.29533e-09
5.98058e-06
-7.36485e-07
1.69502e-08
5.82492e-06
-2.00038e-07
2.83428e-08
5.62226e-06
3.25402e-07
4.35085e-08
5.37698e-06
8.39519e-07
6.2122e-08
5.09175e-06
1.34358e-06
8.35033e-08
4.76678e-06
1.83995e-06
1.06557e-07
4.39907e-06
2.33185e-06
1.29823e-07
3.98213e-06
2.82401e-06
1.51601e-07
3.50679e-06
3.32479e-06
1.70054e-07
2.96441e-06
3.84744e-06
1.8314e-07
2.35523e-06
4.40347e-06
1.88297e-07
1.70379e-06
4.97443e-06
1.82295e-07
1.07014e-06
5.45544e-06
1.62842e-07
5.19752e-07
5.64116e-06
1.31286e-07
1.32537e-07
5.12805e-06
8.90758e-08
2.78757e-06
3.47396e-08
1.36572e-07
-1.24372e-06
2.01152e-08
4.39452e-07
-3.15055e-06
3.91206e-08
8.28719e-07
-4.45639e-06
5.30108e-08
1.24953e-06
-5.275e-06
6.34605e-08
1.67086e-06
-5.72755e-06
7.00668e-08
2.08251e-06
-5.94275e-06
7.25526e-08
2.4835e-06
-6.00871e-06
7.11502e-08
2.87377e-06
-5.96899e-06
6.65254e-08
3.25143e-06
-5.84275e-06
5.94504e-08
3.61237e-06
-5.6382e-06
5.05513e-08
3.95034e-06
-5.35883e-06
4.02957e-08
4.2576e-06
-5.00697e-06
2.90302e-08
4.52593e-06
-4.58649e-06
1.71683e-08
4.74774e-06
-4.10447e-06
5.34567e-09
4.91687e-06
-3.57142e-06
-5.53084e-09
5.02941e-06
-3.00038e-06
-1.47532e-08
5.08443e-06
-2.40565e-06
-2.21023e-08
5.08346e-06
-1.80121e-06
-2.68961e-08
5.0302e-06
-1.19936e-06
-2.85818e-08
4.9299e-06
-6.09618e-07
-2.66742e-08
4.78767e-06
-3.71994e-08
-2.07276e-08
4.61161e-06
5.11661e-07
-1.03082e-08
4.40565e-06
1.0408e-06
4.56707e-09
4.1727e-06
1.55293e-06
2.34847e-08
3.91194e-06
2.05433e-06
4.6273e-08
3.61883e-06
2.55326e-06
7.15903e-08
3.28488e-06
3.06019e-06
9.76691e-08
2.89902e-06
3.58831e-06
1.22252e-07
2.45193e-06
4.15195e-06
1.42507e-07
1.94512e-06
4.75535e-06
1.54909e-07
1.40372e-06
5.3605e-06
1.55453e-07
8.80266e-07
5.83802e-06
1.41226e-07
4.26296e-07
5.98252e-06
1.13285e-07
1.10677e-07
5.37069e-06
7.40572e-08
2.87378e-06
2.61929e-08
1.09882e-07
-1.36844e-06
1.44774e-08
3.59507e-07
-3.43227e-06
3.21167e-08
6.85248e-07
-4.82934e-06
4.72577e-08
1.04206e-06
-5.69122e-06
5.92683e-08
1.40373e-06
-6.15647e-06
6.70549e-08
1.76093e-06
-6.37045e-06
7.03522e-08
2.11172e-06
-6.4292e-06
6.96194e-08
2.45477e-06
-6.37777e-06
6.56815e-08
2.78728e-06
-6.23462e-06
5.93103e-08
3.10468e-06
-6.00673e-06
5.10516e-08
3.40094e-06
-5.69634e-06
4.115e-08
3.66918e-06
-5.30507e-06
2.97651e-08
3.90251e-06
-4.83715e-06
1.7226e-08
4.0948e-06
-4.30098e-06
4.13114e-09
4.24125e-06
-3.70902e-06
-8.93107e-09
4.33888e-06
-3.0766e-06
-2.14967e-08
4.38627e-06
-2.42041e-06
-3.2707e-08
4.38411e-06
-1.75712e-06
-4.20335e-08
4.3352e-06
-1.10162e-06
-4.89357e-08
4.24415e-06
-4.65897e-07
-5.27705e-08
4.11809e-06
1.41628e-07
-5.28766e-08
3.96173e-06
7.16561e-07
-4.8637e-08
3.78218e-06
1.25975e-06
-3.9476e-08
3.58301e-06
1.77699e-06
-2.49747e-08
3.36349e-06
2.27847e-06
-4.70544e-09
3.12022e-06
2.77782e-06
1.86364e-08
2.8435e-06
3.29139e-06
4.5439e-08
2.52123e-06
3.83733e-06
7.31911e-08
2.14349e-06
4.43119e-06
9.84797e-08
1.71117e-06
5.07078e-06
1.1694e-07
1.24609e-06
5.70202e-06
1.23739e-07
7.91736e-07
6.1776e-06
1.15214e-07
3.91675e-07
6.29128e-06
9.20496e-08
1.07623e-07
5.59822e-06
5.7657e-08
2.96497e-06
1.8209e-08
9.5438e-08
-1.47683e-06
1.27817e-08
3.13686e-07
-3.68217e-06
3.15184e-08
6.01339e-07
-5.16515e-06
4.80302e-08
9.19341e-07
-6.07051e-06
6.11632e-08
1.2438e-06
-6.55111e-06
7.0058e-08
1.56546e-06
-6.76688e-06
7.46744e-08
1.88162e-06
-6.82096e-06
7.55135e-08
2.19033e-06
-6.75991e-06
7.33407e-08
2.48857e-06
-6.6018e-06
6.88464e-08
2.77196e-06
-6.35271e-06
6.24996e-08
3.03511e-06
-6.01406e-06
5.44723e-08
3.27229e-06
-5.58717e-06
4.48146e-08
3.4781e-06
-5.0768e-06
3.37441e-08
3.64796e-06
-4.49254e-06
2.16153e-08
3.77825e-06
-3.84836e-06
8.94133e-09
3.86639e-06
-3.1612e-06
-3.63808e-09
3.91232e-06
-2.44941e-06
-1.70368e-08
3.91562e-06
-1.73137e-06
-2.91641e-08
3.87782e-06
-1.02404e-06
-3.99006e-08
3.80207e-06
-3.41553e-07
-4.87167e-08
3.69315e-06
3.05279e-07
-5.48529e-08
3.55687e-06
9.10205e-07
-5.74803e-08
3.39912e-06
1.47316e-06
-5.57804e-08
3.22403e-06
2.00093e-06
-4.89509e-08
3.03222e-06
2.50649e-06
-3.63163e-08
2.81961e-06
3.00787e-06
-1.75315e-08
2.57752e-06
3.52679e-06
6.59989e-09
2.29571e-06
4.08624e-06
3.28398e-08
1.9637e-06
4.70343e-06
5.97636e-08
1.58085e-06
5.37165e-06
8.20623e-08
1.1646e-06
6.02452e-06
9.39774e-08
7.50858e-07
6.50088e-06
9.094e-08
3.79221e-07
6.5906e-06
7.31042e-08
1.08274e-07
5.82581e-06
4.45333e-08
3.06206e-06
1.29904e-08
8.43027e-08
-1.57305e-06
1.1855e-08
2.8151e-07
-3.91087e-06
3.11905e-08
5.44719e-07
-5.47694e-06
4.84292e-08
8.37747e-07
-6.42571e-06
6.2136e-08
1.13791e-06
-6.9228e-06
7.15092e-08
1.43602e-06
-7.14168e-06
7.66218e-08
1.72896e-06
-7.19213e-06
7.81274e-08
2.01433e-06
-7.12229e-06
7.68882e-08
2.28891e-06
-6.95009e-06
7.3606e-08
2.5484e-06
-6.68098e-06
6.87011e-08
2.78785e-06
-6.31587e-06
6.22979e-08
3.00232e-06
-5.85611e-06
5.43998e-08
3.18749e-06
-5.30715e-06
4.51112e-08
3.33992e-06
-4.67967e-06
3.46118e-08
3.45717e-06
-3.98887e-06
2.3168e-08
3.53754e-06
-3.25287e-06
1.1186e-08
3.57942e-06
-2.4912e-06
-1.89088e-10
3.58481e-06
-1.72334e-06
-1.35255e-08
3.55385e-06
-9.67655e-07
-2.55204e-08
3.48875e-06
-2.40119e-07
-3.64399e-08
3.39334e-06
4.46299e-07
-4.57121e-08
3.27261e-06
1.08339e-06
-5.25521e-08
3.13167e-06
1.67008e-06
-5.60859e-08
2.97442e-06
2.2135e-06
-5.54259e-08
2.80193e-06
2.72851e-06
-4.96294e-08
2.61114e-06
3.23642e-06
-3.78522e-08
2.39432e-06
3.7632e-06
-1.96445e-08
2.14019e-06
4.33597e-06
4.38364e-09
1.84062e-06
4.97384e-06
2.91897e-08
1.4928e-06
5.66696e-06
5.26388e-08
1.11016e-06
6.33946e-06
6.79953e-08
7.23311e-07
6.81849e-06
6.97686e-08
3.69856e-07
6.88762e-06
5.72576e-08
1.07281e-07
6.05508e-06
3.4529e-08
3.16156e-06
9.62571e-09
7.92279e-08
-1.66504e-06
1.26116e-08
2.6562e-07
-4.13136e-06
3.39385e-08
5.14296e-07
-5.77814e-06
5.24041e-08
7.90579e-07
-6.76885e-06
6.67624e-08
1.073e-06
-7.28189e-06
7.6581e-08
1.35295e-06
-7.50389e-06
8.21618e-08
1.62739e-06
-7.55092e-06
8.42597e-08
1.89384e-06
-7.47261e-06
8.37726e-08
2.14908e-06
-7.28682e-06
8.14098e-08
2.389e-06
-6.99859e-06
7.75966e-08
2.6091e-06
-6.60854e-06
7.24735e-08
2.80515e-06
-6.11829e-06
6.60442e-08
2.97365e-06
-5.5341e-06
5.83566e-08
3.11212e-06
-4.86772e-06
4.94829e-08
3.21898e-06
-4.13536e-06
3.95332e-08
3.29328e-06
-3.35596e-06
2.86825e-08
3.3345e-06
-2.54973e-06
1.72091e-08
3.34232e-06
-1.73688e-06
5.60397e-09
3.31749e-06
-9.36562e-07
-6.37509e-09
3.26192e-06
-1.66052e-07
-1.86157e-08
3.1781e-06
5.598e-07
-2.97967e-08
3.06988e-06
1.23087e-06
-3.93951e-08
2.94151e-06
1.84491e-06
-4.65895e-08
2.79646e-06
2.40894e-06
-5.05112e-08
2.63609e-06
2.939e-06
-5.02209e-08
2.45827e-06
3.45883e-06
-4.4683e-08
2.25673e-06
3.99766e-06
-3.29884e-08
2.02156e-06
4.58591e-06
-1.48089e-08
1.74319e-06
5.24442e-06
7.81971e-09
1.41968e-06
5.96089e-06
2.97111e-08
1.06135e-06
6.65156e-06
4.65326e-08
6.95194e-07
7.13322e-06
5.19755e-08
3.57145e-07
7.18224e-06
4.42768e-08
1.03841e-07
6.28272e-06
2.68945e-08
3.25988e-06
7.37623e-09
7.53743e-08
-1.75394e-06
1.34258e-08
2.53516e-07
-4.34528e-06
3.5714e-08
4.90568e-07
-6.06977e-06
5.44027e-08
7.52874e-07
-7.10006e-06
6.87271e-08
1.02007e-06
-7.62773e-06
7.85262e-08
1.28421e-06
-7.85233e-06
8.42266e-08
1.54235e-06
-7.89576e-06
8.66438e-08
1.792e-06
-7.80901e-06
8.66852e-08
2.02998e-06
-7.60991e-06
8.50379e-08
2.25237e-06
-7.30318e-06
8.21106e-08
2.45506e-06
-6.88937e-06
7.80532e-08
2.63436e-06
-6.37056e-06
7.2881e-08
2.78747e-06
-5.75392e-06
6.66212e-08
2.91261e-06
-5.05226e-06
5.93049e-08
3.00888e-06
-4.28268e-06
5.09706e-08
3.07592e-06
-3.46478e-06
4.16851e-08
3.11368e-06
-2.61916e-06
3.15723e-08
3.12223e-06
-1.76637e-06
2.08328e-08
3.10186e-06
-9.26048e-07
9.74541e-09
3.05282e-06
-1.16317e-07
-8.09307e-10
2.97891e-06
6.46678e-07
-1.30962e-08
2.88226e-06
1.35128e-06
-2.3867e-08
2.76596e-06
1.99413e-06
-3.30318e-08
2.63264e-06
2.58197e-06
-3.98304e-08
2.48337e-06
3.13157e-06
-4.33937e-08
2.31645e-06
3.66835e-06
-4.26837e-08
2.1267e-06
4.22394e-06
-3.65918e-08
1.90575e-06
4.83117e-06
-2.43328e-08
1.64431e-06
5.51194e-06
-6.03456e-09
1.34034e-06
6.25162e-06
1.33908e-08
1.00328e-06
6.95916e-06
2.97872e-08
6.57531e-07
7.44206e-06
3.74739e-08
3.37147e-07
7.46981e-06
3.36755e-08
9.7285e-08
6.50297e-06
2.08699e-08
3.35331e-06
5.71939e-09
7.26472e-08
-1.84142e-06
1.46918e-08
2.44213e-07
-4.55547e-06
3.84968e-08
4.71687e-07
-6.35516e-06
5.77889e-08
7.22048e-07
-7.42279e-06
7.2253e-08
9.7591e-07
-7.96371e-06
8.2028e-08
1.22606e-06
-8.19029e-06
8.77328e-08
1.46983e-06
-8.22989e-06
9.0282e-08
1.7048e-06
-8.13468e-06
9.06129e-08
1.92786e-06
-7.92247e-06
8.94109e-08
2.13531e-06
-7.5978e-06
8.70812e-08
2.32341e-06
-7.16135e-06
8.37838e-08
2.48899e-06
-6.61579e-06
7.95446e-08
2.62987e-06
-5.96926e-06
7.43753e-08
2.74483e-06
-5.23558e-06
6.82714e-08
2.83345e-06
-4.43261e-06
6.12158e-08
2.89571e-06
-3.58034e-06
5.32008e-08
2.93176e-06
-2.69957e-06
4.42592e-08
2.94172e-06
-1.81093e-06
3.44872e-08
2.92578e-06
-9.34257e-07
2.40312e-08
2.88445e-06
-8.82523e-08
1.31412e-08
2.81874e-06
7.09862e-07
2.40832e-09
2.7314e-06
1.44724e-06
-8.74963e-09
2.6247e-06
2.11963e-06
-1.89268e-08
2.50049e-06
2.73346e-06
-2.73827e-08
2.3594e-06
3.30595e-06
-3.34143e-08
2.19992e-06
3.86383e-06
-3.6095e-08
2.01766e-06
4.44046e-06
-3.4324e-08
1.80561e-06
5.07027e-06
-2.70818e-08
1.55627e-06
5.77543e-06
-1.41086e-08
1.2666e-06
6.53856e-06
2.8961e-09
9.47182e-07
7.26155e-06
1.73471e-08
6.20215e-07
7.74364e-06
2.5945e-08
3.17273e-07
7.74858e-06
2.50266e-08
9.10518e-08
6.71446e-06
1.59848e-08
3.4418e-06
4.42035e-09
7.0343e-08
-1.92776e-06
1.57761e-08
2.35823e-07
-4.76145e-06
4.03902e-08
4.53873e-07
-6.63291e-06
5.9641e-08
6.92264e-07
-7.73506e-06
7.38105e-08
9.32704e-07
-8.28759e-06
8.33381e-08
1.16874e-06
-8.5154e-06
8.89625e-08
1.39801e-06
-8.55089e-06
9.16229e-08
1.61822e-06
-8.44722e-06
9.22379e-08
1.8264e-06
-8.22221e-06
9.14652e-08
2.0191e-06
-7.88029e-06
8.97011e-08
2.19297e-06
-7.42242e-06
8.71184e-08
2.34533e-06
-6.85199e-06
8.37568e-08
2.47451e-06
-6.17816e-06
7.96265e-08
2.57981e-06
-5.41568e-06
7.47081e-08
2.6612e-06
-4.58305e-06
6.89509e-08
2.71899e-06
-3.70053e-06
6.2291e-08
2.75351e-06
-2.78888e-06
5.46812e-08
2.76493e-06
-1.86858e-06
4.6121e-08
2.7533e-06
-9.59397e-07
3.66634e-08
2.71878e-06
-8.03036e-08
2.64566e-08
2.66205e-06
7.50672e-07
1.57985e-08
2.58429e-06
1.51968e-06
5.19704e-09
2.48719e-06
2.22172e-06
-5.10401e-09
2.37224e-06
2.86293e-06
-1.46539e-08
2.23951e-06
3.46088e-06
-2.23046e-08
2.08737e-06
4.04322e-06
-2.73443e-08
1.91193e-06
4.64461e-06
-2.87803e-08
1.70736e-06
5.30038e-06
-2.55546e-08
1.46776e-06
6.03216e-06
-1.70855e-08
1.19138e-06
6.81914e-06
-4.04876e-09
8.88416e-07
7.5562e-06
8.64002e-09
5.8018e-07
8.03537e-06
1.70595e-08
2.95555e-07
8.01603e-06
1.80291e-08
8.41942e-08
6.91511e-06
1.19548e-08
3.52449e-06
3.34871e-09
6.7733e-08
-2.01246e-06
1.6805e-08
2.26887e-07
-4.96301e-06
4.22817e-08
4.35889e-07
-6.90364e-06
6.16225e-08
6.63361e-07
-8.03821e-06
7.55771e-08
8.91961e-07
-8.60114e-06
8.48513e-08
1.1158e-06
-8.82967e-06
9.03337e-08
1.33267e-06
-8.86088e-06
9.30225e-08
1.54035e-06
-8.74882e-06
9.3833e-08
1.73596e-06
-8.51132e-06
9.34003e-08
1.91633e-06
-8.15285e-06
9.21051e-08
2.07847e-06
-7.67477e-06
9.01239e-08
2.2202e-06
-7.08131e-06
8.75029e-08
2.34031e-06
-6.38261e-06
8.42459e-08
2.43852e-06
-5.5943e-06
8.03181e-08
2.5151e-06
-4.73538e-06
7.56452e-08
2.57055e-06
-3.82621e-06
7.01284e-08
2.60524e-06
-2.88735e-06
6.36719e-08
2.61925e-06
-1.93891e-06
5.62131e-08
2.6124e-06
-1.00039e-06
4.77388e-08
2.58445e-06
-9.0795e-08
3.83261e-08
2.53549e-06
7.7132e-07
2.81894e-08
2.46615e-06
1.5712e-06
1.76853e-08
2.37731e-06
2.30311e-06
7.32143e-09
2.26949e-06
2.9729e-06
-2.2687e-09
2.143e-06
3.5984e-06
-1.11517e-08
1.99598e-06
4.20799e-06
-1.78494e-08
1.82496e-06
4.83721e-06
-2.16447e-08
1.6251e-06
5.52175e-06
-2.15475e-08
1.39211e-06
6.28201e-06
-1.68242e-08
1.12609e-06
7.0931e-06
-7.78791e-09
8.36825e-07
7.84281e-06
2.9651e-09
5.4513e-07
8.31719e-06
1.04216e-08
2.76992e-07
8.27254e-06
1.24542e-08
7.86784e-08
7.106e-06
8.65381e-09
3.60251e-06
2.47882e-09
6.59055e-08
-2.09612e-06
1.76502e-08
2.19507e-07
-5.16037e-06
4.35932e-08
4.19909e-07
-7.16687e-06
6.26781e-08
6.36682e-07
-8.33127e-06
7.61799e-08
8.53506e-07
-8.90313e-06
8.50844e-08
1.06512e-06
-9.13174e-06
9.03824e-08
1.26954e-06
-9.15847e-06
9.30806e-08
1.46467e-06
-9.03811e-06
9.40686e-08
1.64781e-06
-8.78851e-06
9.39551e-08
1.81604e-06
-8.41429e-06
9.31113e-08
1.96678e-06
-7.91732e-06
9.17203e-08
2.09823e-06
-7.30269e-06
8.98364e-08
2.20963e-06
-6.58156e-06
8.74625e-08
2.30105e-06
-5.77035e-06
8.45527e-08
2.37306e-06
-4.88849e-06
8.10097e-08
2.42638e-06
-3.95633e-06
7.66977e-08
2.46147e-06
-2.99401e-06
7.14673e-08
2.47836e-06
-2.0211e-06
6.51888e-08
2.47664e-06
-1.05657e-06
5.77781e-08
2.45564e-06
-1.19153e-07
4.92419e-08
2.41483e-06
7.72275e-07
3.97278e-08
2.35414e-06
1.60223e-06
2.95374e-08
2.27381e-06
2.36422e-06
1.91036e-08
2.17395e-06
3.06368e-06
8.96308e-09
2.0536e-06
3.71858e-06
6.91445e-11
1.91183e-06
4.35783e-06
-8.17942e-09
1.74517e-06
5.01756e-06
-1.37753e-08
1.54968e-06
5.73333e-06
-1.61229e-08
1.32252e-06
6.52367e-06
-1.44614e-08
1.06548e-06
7.35907e-06
-8.79905e-09
7.88629e-07
8.12021e-06
-2.50572e-10
5.12255e-07
8.58837e-06
5.72467e-09
2.59587e-07
8.51787e-06
8.16945e-09
7.35208e-08
7.28726e-06
6.02927e-09
3.67605e-06
1.79554e-09
6.32885e-08
-2.17788e-06
1.83222e-08
2.11064e-07
-5.35282e-06
4.45241e-08
4.03419e-07
-7.42262e-06
6.32683e-08
6.10695e-07
-8.61494e-06
7.62832e-08
8.17379e-07
-9.1947e-06
8.47979e-08
1.01864e-06
-9.423e-06
8.99002e-08
1.21263e-06
-9.44516e-06
9.26031e-08
1.39729e-06
-9.31662e-06
9.3761e-08
1.57006e-06
-9.05534e-06
9.395e-08
1.72829e-06
-8.66615e-06
9.35257e-08
1.86972e-06
-8.15152e-06
9.26739e-08
1.99294e-06
-7.51747e-06
9.14546e-08
2.09753e-06
-6.77611e-06
8.98676e-08
2.18385e-06
-5.94464e-06
8.78616e-08
2.25274e-06
-5.04281e-06
8.53297e-08
2.30505e-06
-4.09086e-06
8.21181e-08
2.34133e-06
-3.10844e-06
7.80452e-08
2.36152e-06
-2.11434e-06
7.29303e-08
2.36498e-06
-1.12676e-06
6.66244e-08
2.3506e-06
-1.63952e-07
5.90574e-08
2.31723e-06
7.55222e-07
5.0297e-08
2.2641e-06
1.61467e-06
4.05796e-08
2.19081e-06
2.40709e-06
3.02948e-08
2.09703e-06
3.13739e-06
1.99366e-08
1.98196e-06
3.82346e-06
1.00691e-08
1.84374e-06
4.49454e-06
1.41531e-09
1.67977e-06
5.18704e-06
-5.59819e-09
1.48696e-06
5.93602e-06
-9.91877e-09
1.26378e-06
6.75765e-06
-1.07793e-08
1.01361e-06
7.61736e-06
-7.99881e-09
7.47835e-07
8.38882e-06
-2.54297e-09
4.84481e-07
8.84963e-06
2.60768e-09
2.45091e-07
8.75306e-06
4.99908e-09
6.93731e-08
7.46015e-06
4.02502e-09
3.74591e-06
1.30059e-09
6.16763e-08
-2.25854e-06
1.88315e-08
2.0488e-07
-5.54116e-06
4.50383e-08
3.90185e-07
-7.67129e-06
6.32506e-08
5.88685e-07
-8.88922e-06
7.56512e-08
7.85733e-07
-9.47557e-06
8.3706e-08
9.77036e-07
-9.70298e-06
8.85683e-08
1.16093e-06
-9.72038e-06
9.12355e-08
1.33547e-06
-9.58377e-06
9.25235e-08
1.49826e-06
-9.31121e-06
9.29782e-08
1.64687e-06
-8.90779e-06
9.29435e-08
1.77933e-06
-8.37669e-06
9.26092e-08
1.89456e-06
-7.72484e-06
9.20421e-08
1.99244e-06
-6.96532e-06
9.12404e-08
2.07362e-06
-6.11606e-06
9.01464e-08
2.13918e-06
-5.19711e-06
8.86403e-08
2.19022e-06
-4.22855e-06
8.65472e-08
2.22742e-06
-3.22939e-06
8.36536e-08
2.25074e-06
-2.2175e-06
7.97328e-08
2.25938e-06
-1.21008e-06
7.45755e-08
2.25182e-06
-2.24548e-07
6.80396e-08
2.22626e-06
7.20547e-07
6.01148e-08
2.18113e-06
1.6087e-06
5.09702e-08
2.11533e-06
2.43181e-06
4.09524e-08
2.02798e-06
3.19409e-06
3.05349e-08
1.91798e-06
3.91309e-06
2.02623e-08
1.78359e-06
4.61809e-06
1.07342e-08
1.6224e-06
5.34549e-06
2.65624e-09
1.4321e-06
6.12949e-06
-3.21063e-09
1.21248e-06
6.98347e-06
-6.17594e-09
9.68314e-07
7.86751e-06
-5.85636e-09
7.11907e-07
8.64839e-06
-2.89304e-09
4.60038e-07
9.10115e-06
8.4628e-10
2.32394e-07
8.97864e-06
2.85269e-09
6.5758e-08
7.62534e-06
2.62102e-09
3.81245e-06
9.89983e-10
5.9551e-08
-2.33738e-06
1.91377e-08
1.97984e-07
-5.72477e-06
4.50491e-08
3.76801e-07
-7.91278e-06
6.25553e-08
5.67686e-07
-9.15448e-06
7.42582e-08
7.56601e-07
-9.74642e-06
8.18291e-08
9.39582e-07
-9.97252e-06
8.64602e-08
1.11506e-06
-9.98506e-06
8.91082e-08
1.28116e-06
-9.84051e-06
9.05347e-08
1.43565e-06
-9.55704e-06
9.12484e-08
1.57631e-06
-9.14012e-06
9.1578e-08
1.70141e-06
-8.59361e-06
9.17158e-08
1.81014e-06
-7.9254e-06
9.17348e-08
1.9026e-06
-7.14952e-06
9.16358e-08
1.97967e-06
-6.2846e-06
9.13631e-08
2.04265e-06
-5.35099e-06
9.07968e-08
2.0928e-06
-4.36856e-06
8.97559e-08
2.13096e-06
-3.35565e-06
8.80089e-08
2.15713e-06
-2.32908e-06
8.52935e-08
2.1704e-06
-1.30481e-06
8.13445e-08
2.16894e-06
-2.99139e-07
7.59438e-08
2.15033e-06
6.70035e-07
6.89916e-08
2.1123e-06
1.58604e-06
6.05728e-08
2.05302e-06
2.43998e-06
5.09761e-08
1.97112e-06
3.23522e-06
4.06484e-08
1.86521e-06
3.98874e-06
3.01297e-08
1.73361e-06
4.72956e-06
2.00151e-08
1.57429e-06
5.49375e-06
1.09652e-08
1.38573e-06
6.31428e-06
3.71876e-09
1.16879e-06
7.20141e-06
-9.94071e-10
9.29504e-07
8.10969e-06
-2.78398e-09
6.80909e-07
8.89925e-06
-2.00127e-09
4.38915e-07
9.34348e-06
1.47471e-10
2.21429e-07
9.19531e-06
1.57492e-09
6.26503e-08
7.78352e-06
1.75705e-09
3.87598e-06
8.6188e-10
5.83201e-08
-2.41514e-06
1.92872e-08
1.93289e-07
-5.90459e-06
4.47168e-08
3.6683e-07
-8.14784e-06
6.14105e-08
5.511e-07
-9.41119e-06
7.23541e-08
7.32669e-07
-1.00075e-05
7.94007e-08
9.07979e-07
-1.02317e-05
8.37628e-08
1.07563e-06
-1.02392e-05
8.63521e-08
1.23387e-06
-1.00867e-05
8.78791e-08
1.3806e-06
-9.79269e-06
8.8818e-08
1.51377e-06
-9.36288e-06
8.94825e-08
1.63187e-06
-8.80188e-06
9.00654e-08
1.73428e-06
-8.11855e-06
9.06448e-08
1.82133e-06
-7.32789e-06
9.12214e-08
1.89412e-06
-6.44923e-06
9.17392e-08
1.95417e-06
-5.50322e-06
9.2077e-08
2.003e-06
-4.50955e-06
9.20497e-08
2.04164e-06
-3.48581e-06
9.1414e-08
2.07024e-06
-2.44768e-06
8.98835e-08
2.08786e-06
-1.40968e-06
8.71505e-08
2.09238e-06
-3.86703e-07
8.29312e-08
2.08083e-06
6.04422e-07
7.7038e-08
2.05015e-06
1.54715e-06
6.94637e-08
1.99774e-06
2.43184e-06
6.04235e-08
1.9216e-06
3.2609e-06
5.03243e-08
1.82004e-06
4.05049e-06
3.9695e-08
1.69136e-06
4.829e-06
2.91326e-08
1.5339e-06
5.63182e-06
1.92933e-08
1.34689e-06
6.49034e-06
1.08986e-08
1.13222e-06
7.41142e-06
4.66171e-09
8.97019e-07
8.34393e-06
1.05207e-09
6.54952e-07
9.14165e-06
-8.02402e-11
4.21411e-07
9.57716e-06
3.20316e-10
2.12493e-07
9.40383e-06
1.14769e-09
6.02113e-08
7.93544e-06
1.4966e-09
3.93691e-06
9.99946e-10
5.68442e-08
-2.49138e-06
1.92412e-08
1.88502e-07
-6.08028e-06
4.38942e-08
3.57394e-07
-8.37645e-06
5.95939e-08
5.36015e-07
-9.65961e-06
6.96889e-08
7.11399e-07
-1.02592e-05
7.61878e-08
8.80263e-07
-1.04809e-05
8.02894e-08
1.04134e-06
-1.04832e-05
8.28323e-08
1.193e-06
-1.0323e-05
8.44619e-08
1.33326e-06
-1.00187e-05
8.56135e-08
1.46018e-06
-9.57649e-06
8.6584e-08
1.57243e-06
-9.00179e-06
8.75674e-08
1.66952e-06
-8.30438e-06
8.86476e-08
1.75195e-06
-7.50025e-06
8.98293e-08
1.82101e-06
-6.60944e-06
9.10612e-08
1.87839e-06
-5.65294e-06
9.22285e-08
1.92582e-06
-4.65023e-06
9.31501e-08
1.96452e-06
-3.61821e-06
9.35816e-08
1.99483e-06
-2.57132e-06
9.32219e-08
2.01584e-06
-1.52253e-06
9.17296e-08
2.02528e-06
-4.85026e-07
8.87603e-08
2.01976e-06
5.25788e-07
8.40376e-08
1.99551e-06
1.49384e-06
7.74512e-08
1.94921e-06
2.40889e-06
6.91269e-08
1.87825e-06
3.27232e-06
5.94158e-08
1.78058e-06
4.09921e-06
4.88278e-08
1.65446e-06
4.91703e-06
3.79637e-08
1.49859e-06
5.7601e-06
2.74876e-08
1.31286e-06
6.65788e-06
1.81228e-08
1.10012e-06
7.61356e-06
1.05902e-08
8.68477e-07
8.57024e-06
5.4191e-09
6.32097e-07
9.37565e-06
2.6082e-09
4.05789e-07
9.80237e-06
1.54131e-09
2.044e-07
9.6044e-06
1.53707e-09
5.79429e-08
8.08126e-06
1.75559e-09
3.99523e-06
1.31623e-09
5.60962e-08
-2.56667e-06
1.90572e-08
1.85486e-07
-6.25259e-06
4.27917e-08
3.50752e-07
-8.59927e-06
5.74345e-08
5.24673e-07
-9.9003e-06
6.66544e-08
6.94705e-07
-1.05019e-05
7.25882e-08
8.57857e-07
-1.07206e-05
7.64075e-08
1.01305e-06
-1.07173e-05
7.88783e-08
1.1588e-06
-1.05494e-05
8.05843e-08
1.29319e-06
-1.02351e-05
8.19231e-08
1.41438e-06
-9.78096e-06
8.31743e-08
1.52111e-06
-9.19315e-06
8.45305e-08
1.61306e-06
-8.48252e-06
8.60794e-08
1.69091e-06
-7.66603e-06
8.78262e-08
1.75611e-06
-6.76447e-06
8.9722e-08
1.81058e-06
-5.79917e-06
9.16564e-08
1.85625e-06
-4.78945e-06
9.34547e-08
1.8946e-06
-3.75153e-06
9.48771e-08
1.92617e-06
-2.6986e-06
9.56205e-08
1.95015e-06
-1.64194e-06
9.5325e-08
1.9642e-06
-5.92794e-07
9.36017e-08
1.96452e-06
4.35249e-07
9.00962e-08
1.94668e-06
1.42696e-06
8.45941e-08
1.90659e-06
2.37172e-06
7.71181e-08
1.84098e-06
3.26985e-06
6.79451e-08
1.74737e-06
4.13514e-06
5.75501e-08
1.62396e-06
4.99379e-06
4.65316e-08
1.46973e-06
5.87866e-06
3.55665e-08
1.2852e-06
6.81694e-06
2.5393e-08
1.0741e-06
7.80789e-06
1.67538e-08
8.45376e-07
8.7888e-06
1.02361e-08
6.13609e-07
9.60167e-06
5.95925e-09
3.93151e-07
1.00197e-05
3.51746e-09
1.97923e-07
9.79777e-06
2.55322e-09
5.61908e-08
8.22167e-06
2.40807e-09
4.05134e-06
1.74804e-09
5.52759e-08
-2.6408e-06
1.86993e-08
1.82624e-07
-6.42133e-06
4.12514e-08
3.44779e-07
-8.81623e-06
5.46734e-08
5.14766e-07
-1.01333e-05
6.29393e-08
6.80401e-07
-1.07359e-05
6.8289e-08
8.39023e-07
-1.09511e-05
7.18298e-08
9.89529e-07
-1.09422e-05
7.42287e-08
1.1304e-06
-1.07663e-05
7.59999e-08
1.25987e-06
-1.04422e-05
7.75037e-08
1.37616e-06
-9.97635e-06
7.9003e-08
1.47812e-06
-9.37591e-06
8.06905e-08
1.56555e-06
-8.65271e-06
8.26588e-08
1.63924e-06
-7.82474e-06
8.49157e-08
1.70079e-06
-6.91354e-06
8.74167e-08
1.75226e-06
-5.94079e-06
9.00582e-08
1.79578e-06
-4.92574e-06
9.26746e-08
1.83305e-06
-3.88394e-06
9.50349e-08
1.86488e-06
-2.82737e-06
9.68395e-08
1.89066e-06
-1.76555e-06
9.77198e-08
1.90811e-06
-7.07603e-07
9.72538e-08
1.91317e-06
3.35046e-07
9.50194e-08
1.90087e-06
1.34844e-06
9.07006e-08
1.86642e-06
2.32184e-06
8.42083e-08
1.80583e-06
3.25459e-06
7.57288e-08
1.71613e-06
4.15902e-06
6.56866e-08
1.59539e-06
5.05974e-06
5.46692e-08
1.44281e-06
5.98777e-06
4.33677e-08
1.25949e-06
6.96765e-06
3.25449e-08
1.04994e-06
7.99444e-06
2.29777e-08
8.23891e-07
8.99959e-06
1.53146e-08
5.96296e-07
9.8197e-06
9.77269e-09
3.81125e-07
1.02292e-05
6.09319e-09
1.91556e-07
9.98386e-06
4.15221e-09
5.43427e-08
8.35648e-06
3.45846e-09
4.10502e-06
2.30505e-09
5.48314e-08
-2.714e-06
1.82244e-08
1.80698e-07
-6.5868e-06
3.948e-08
3.40325e-07