/*--------------------------------*- C++ -*----------------------------------*\
| =========                 |                                                 |
| \\      /  F ield         | OpenFOAM: The Open Source CFD Toolbox           |
|  \\    /   O peration     | Version:  v2006                                 |
|   \\  /    A nd           | Website:  www.openfoam.com                      |
|    \\/     M anipulation  |                                                 |
\*---------------------------------------------------------------------------*/
FoamFile
{
    version     2.0;
    format      ascii;
    class       volScalarField;
    location    "31";
    object      T;
}
// * * * * * * * * * * * * * * * * * * * * * * * * * * * * * * * * * * * * * //

dimensions      [0 0 0 1 0 0 0];


internalField   nonuniform List<scalar> 
78750
(
299.537
299.084
299.039
299.021
299.01
299.001
298.995
298.989
298.983
298.978
298.972
298.966
298.961
298.955
298.95
298.944
298.939
298.933
298.927
298.922
298.916
298.91
298.903
298.897
298.889
298.881
298.873
298.863
298.852
298.844
298.856
298.944
299.237
299.894
300.949
299.813
299.504
299.3
299.188
299.13
299.099
299.082
299.07
299.062
299.054
299.048
299.041
299.035
299.029
299.024
299.018
299.013
299.007
299.002
298.996
298.989
298.983
298.976
298.969
298.962
298.954
298.948
298.944
298.947
298.965
299.027
299.19
299.548
300.183
301.165
299.853
299.584
299.373
299.222
299.127
299.076
299.051
299.039
299.032
299.027
299.023
299.02
299.018
299.017
299.016
299.016
299.017
299.018
299.02
299.022
299.025
299.028
299.032
299.038
299.045
299.055
299.071
299.095
299.135
299.209
299.346
299.592
300.001
300.642
301.618
299.878
299.655
299.484
299.354
299.251
299.174
299.116
299.073
299.039
299.012
298.99
298.974
298.963
298.956
298.954
298.953
298.955
298.958
298.961
298.966
298.97
298.976
298.984
298.993
299.007
299.026
299.054
299.095
299.16
299.265
299.442
299.736
300.19
300.861
301.851
299.902
299.712
299.554
299.424
299.312
299.213
299.129
299.061
299.01
298.977
298.963
298.964
298.976
298.995
299.017
299.039
299.058
299.074
299.084
299.089
299.09
299.086
299.079
299.073
299.07
299.076
299.1
299.152
299.242
299.389
299.616
299.959
300.44
301.127
302.133
299.91
299.732
299.579
299.451
299.338
299.241
299.164
299.114
299.09
299.094
299.121
299.163
299.212
299.262
299.308
299.348
299.379
299.403
299.418
299.425
299.424
299.414
299.395
299.367
299.33
299.291
299.26
299.257
299.306
299.433
299.668
300.039
300.557
301.277
302.299
299.92
299.76
299.618
299.498
299.395
299.312
299.253
299.224
299.227
299.254
299.299
299.35
299.399
299.443
299.479
299.508
299.531
299.549
299.562
299.571
299.575
299.575
299.57
299.559
299.542
299.518
299.492
299.479
299.503
299.603
299.82
300.19
300.721
301.456
302.488
299.928
299.781
299.651
299.54
299.448
299.376
299.333
299.319
299.332
299.363
299.402
299.443
299.48
299.511
299.538
299.56
299.578
299.593
299.605
299.613
299.618
299.62
299.619
299.615
299.608
299.598
299.59
299.592
299.627
299.728
299.94
300.309
300.849
301.598
302.635
299.935
299.801
299.681
299.58
299.497
299.439
299.409
299.408
299.428
299.462
299.501
299.539
299.574
299.605
299.631
299.654
299.673
299.689
299.702
299.712
299.718
299.721
299.722
299.719
299.713
299.705
299.7
299.707
299.747
299.853
300.071
300.446
300.994
301.752
302.793
299.941
299.82
299.71
299.617
299.545
299.497
299.477
299.481
299.502
299.532
299.565
299.597
299.626
299.652
299.674
299.695
299.712
299.728
299.742
299.753
299.763
299.77
299.775
299.779
299.781
299.782
299.787
299.803
299.849
299.96
300.181
300.559
301.113
301.877
302.919
299.949
299.843
299.746
299.664
299.6
299.559
299.54
299.542
299.559
299.583
299.612
299.64
299.667
299.691
299.712
299.732
299.75
299.766
299.78
299.793
299.804
299.813
299.821
299.829
299.836
299.844
299.858
299.884
299.942
300.062
300.29
300.675
301.232
301.999
303.042
299.957
299.868
299.784
299.713
299.658
299.622
299.605
299.605
299.617
299.637
299.661
299.686
299.709
299.731
299.75
299.769
299.785
299.801
299.815
299.828
299.84
299.851
299.861
299.872
299.884
299.898
299.919
299.954
300.02
300.148
300.381
300.768
301.329
302.098
303.143
299.965
299.89
299.819
299.759
299.711
299.68
299.664
299.662
299.67
299.685
299.704
299.725
299.745
299.764
299.781
299.798
299.814
299.828
299.842
299.855
299.868
299.881
299.893
299.907
299.924
299.944
299.973
300.019
300.096
300.234
300.475
300.868
301.431
302.202
303.251
299.971
299.907
299.846
299.794
299.752
299.724
299.709
299.707
299.713
299.726
299.742
299.76
299.778
299.795
299.811
299.827
299.841
299.855
299.869
299.882
299.895
299.909
299.923
299.94
299.961
299.987
300.024
300.08
300.168
300.316
300.567
300.967
301.532
302.306
303.362
299.976
299.923
299.871
299.825
299.789
299.764
299.75
299.746
299.751
299.761
299.774
299.79
299.806
299.821
299.836
299.85
299.863
299.876
299.889
299.901
299.915
299.929
299.945
299.965
299.99
300.024
300.071
300.139
300.243
300.408
300.673
301.085
301.654
302.431
303.494
299.981
299.937
299.894
299.855
299.824
299.802
299.79
299.786
299.79
299.798
299.809
299.822
299.835
299.848
299.86
299.872
299.882
299.893
299.904
299.916
299.929
299.943
299.961
299.983
300.012
300.052
300.107
300.188
300.309
300.494
300.779
301.205
301.783
302.564
303.634
299.986
299.95
299.913
299.88
299.853
299.834
299.823
299.82
299.822
299.828
299.836
299.846
299.856
299.865
299.875
299.884
299.893
299.902
299.912
299.923
299.935
299.951
299.97
299.995
300.028
300.073
300.137
300.23
300.368
300.575
300.884
301.331
301.918
302.703
303.777
299.989
299.958
299.926
299.897
299.873
299.855
299.845
299.841
299.842
299.847
299.853
299.86
299.869
299.877
299.886
299.894
299.903
299.911
299.92
299.93
299.942
299.956
299.976
300.002
300.038
300.087
300.157
300.259
300.411
300.637
300.969
301.437
302.037
302.824
303.897
299.991
299.966
299.938
299.912
299.89
299.874
299.864
299.859
299.859
299.862
299.867
299.875
299.885
299.895
299.907
299.918
299.928
299.938
299.946
299.955
299.964
299.976
299.991
300.014
300.048
300.099
300.172
300.28
300.441
300.682
301.032
301.52
302.129
302.917
303.985
299.994
299.974
299.951
299.928
299.909
299.894
299.884
299.879
299.878
299.882
299.889
299.901
299.915
299.931
299.948
299.963
299.977
299.989
299.998
300.007
300.014
300.021
300.031
300.046
300.072
300.117
300.187
300.296
300.461
300.709
301.07
301.57
302.186
302.974
304.037
299.997
299.982
299.964
299.945
299.928
299.915
299.906
299.902
299.904
299.91
299.922
299.938
299.958
299.979
299.999
300.017
300.033
300.046
300.057
300.067
300.074
300.08
300.087
300.097
300.115
300.149
300.212
300.317
300.48
300.728
301.093
301.599
302.218
303.005
304.067
299.999
299.989
299.976
299.961
299.947
299.937
299.931
299.931
299.937
299.948
299.965
299.986
300.008
300.029
300.048
300.065
300.079
300.092
300.103
300.113
300.121
300.129
300.137
300.146
300.161
300.189
300.243
300.339
300.498
300.744
301.108
301.615
302.235
303.026
304.093
300.001
299.996
299.986
299.974
299.965
299.958
299.958
299.964
299.976
299.993
300.013
300.034
300.053
300.07
300.085
300.098
300.109
300.12
300.131
300.141
300.151
300.161
300.172
300.185
300.203
300.23
300.279
300.368
300.519
300.761
301.123
301.631
302.254
303.05
304.128
300.003
300
299.993
299.985
299.98
299.979
299.985
299.996
300.012
300.03
300.048
300.064
300.078
300.091
300.102
300.112
300.123
300.133
300.144
300.156
300.168
300.182
300.197
300.216
300.24
300.273
300.324
300.409
300.555
300.793
301.154
301.664
302.292
303.096
304.186
300.004
300.004
300
299.995
299.993
299.997
300.006
300.019
300.033
300.047
300.06
300.072
300.084
300.095
300.105
300.117
300.128
300.14
300.153
300.167
300.183
300.2
300.221
300.247
300.28
300.323
300.382
300.471
300.616
300.851
301.212
301.726
302.359
303.172
304.274
300.005
300.007
300.005
300.003
300.003
300.008
300.016
300.026
300.038
300.049
300.061
300.074
300.086
300.099
300.112
300.125
300.139
300.153
300.168
300.184
300.202
300.223
300.248
300.282
300.326
300.384
300.459
300.561
300.714
300.953
301.317
301.835
302.47
303.286
304.397
300.006
300.01
300.01
300.009
300.01
300.015
300.021
300.03
300.042
300.054
300.068
300.083
300.098
300.113
300.127
300.142
300.156
300.17
300.186
300.202
300.221
300.244
300.274
300.314
300.372
300.45
300.552
300.682
300.857
301.11
301.482
302
302.633
303.449
304.559
300.007
300.013
300.015
300.017
300.019
300.024
300.031
300.041
300.054
300.068
300.084
300.099
300.115
300.129
300.143
300.157
300.17
300.184
300.198
300.214
300.233
300.256
300.287
300.331
300.399
300.499
300.635
300.808
301.022
301.302
301.688
302.202
302.827
303.639
304.735
300.009
300.018
300.023
300.028
300.033
300.04
300.05
300.062
300.075
300.089
300.104
300.118
300.131
300.144
300.156
300.169
300.181
300.194
300.208
300.223
300.24
300.261
300.289
300.33
300.396
300.502
300.662
300.879
301.146
301.468
301.873
302.383
302.999
303.8
304.876
300.011
300.024
300.034
300.042
300.051
300.061
300.073
300.086
300.099
300.112
300.125
300.137
300.149
300.161
300.173
300.185
300.198
300.21
300.224
300.238
300.254
300.272
300.295
300.328
300.38
300.468
300.618
300.849
301.162
301.54
301.983
302.503
303.113
303.898
304.952
300.013
300.032
300.045
300.057
300.069
300.081
300.094
300.106
300.119
300.131
300.144
300.156
300.169
300.182
300.194
300.207
300.22
300.233
300.247
300.261
300.277
300.294
300.314
300.339
300.375
300.436
300.546
300.742
301.051
301.467
301.963
302.52
303.138
303.911
304.95
300.015
300.037
300.054
300.069
300.082
300.094
300.107
300.12
300.133
300.146
300.16
300.174
300.188
300.202
300.215
300.229
300.242
300.256
300.271
300.286
300.302
300.32
300.34
300.362
300.39
300.43
300.499
300.632
300.879
301.275
301.803
302.419
303.07
303.848
304.884
300.017
300.041
300.06
300.076
300.09
300.104
300.118
300.133
300.148
300.164
300.179
300.194
300.208
300.223
300.236
300.25
300.264
300.279
300.293
300.309
300.327
300.347
300.369
300.393
300.421
300.454
300.498
300.578
300.741
301.053
301.552
302.205
302.907
303.716
304.762
300.018
300.044
300.065
300.083
300.1
300.117
300.134
300.151
300.168
300.185
300.201
300.217
300.232
300.247
300.261
300.275
300.29
300.305
300.321
300.338
300.357
300.38
300.406
300.435
300.468
300.502
300.54
300.593
300.694
300.909
301.317
301.94
302.673
303.523
304.594
300.019
300.048
300.072
300.093
300.113
300.133
300.152
300.171
300.189
300.207
300.224
300.241
300.256
300.272
300.287
300.302
300.317
300.334
300.351
300.372
300.395
300.423
300.457
300.497
300.54
300.582
300.622
300.668
300.742
300.9
301.225
301.783
302.498
303.362
304.458
300.021
300.053
300.08
300.104
300.127
300.148
300.169
300.189
300.209
300.228
300.246
300.263
300.28
300.296
300.311
300.327
300.344
300.362
300.382
300.406
300.436
300.474
300.523
300.581
300.642
300.699
300.747
300.797
300.871
301.018
301.315
301.832
302.499
303.34
304.467
300.022
300.058
300.087
300.114
300.139
300.163
300.185
300.207
300.228
300.247
300.266
300.284
300.301
300.318
300.334
300.35
300.368
300.387
300.41
300.438
300.476
300.529
300.601
300.688
300.776
300.851
300.914
300.979
301.074
301.247
301.559
302.053
302.687
303.521
304.668
300.024
300.062
300.094
300.123
300.15
300.176
300.2
300.222
300.244
300.265
300.284
300.302
300.32
300.337
300.353
300.37
300.387
300.407
300.431
300.462
300.506
300.573
300.669
300.79
300.914
301.021
301.111
301.203
301.333
301.542
301.875
302.346
302.963
303.812
304.957
300.025
300.066
300.1
300.131
300.16
300.187
300.212
300.236
300.258
300.279
300.299
300.318
300.336
300.353
300.369
300.386
300.403
300.421
300.443
300.473
300.515
300.582
300.687
300.835
301.006
301.167
301.303
301.435
301.6
301.837
302.18
302.632
303.235
304.091
305.222
300.026
300.069
300.106
300.138
300.169
300.197
300.224
300.248
300.271
300.293
300.313
300.332
300.35
300.367
300.384
300.4
300.417
300.434
300.453
300.476
300.51
300.564
300.653
300.797
300.995
301.218
301.427
301.615
301.816
302.073
302.416
302.855
303.445
304.293
305.407
300.027
300.072
300.111
300.145
300.177
300.207
300.234
300.26
300.283
300.305
300.326
300.345
300.364
300.382
300.399
300.415
300.431
300.448
300.465
300.484
300.509
300.545
300.606
300.713
300.889
301.135
301.415
301.686
301.945
302.229
302.575
303.004
303.582
304.417
305.516
300.028
300.075
300.115
300.151
300.185
300.216
300.244
300.271
300.295
300.318
300.339
300.359
300.378
300.396
300.414
300.431
300.447
300.463
300.48
300.498
300.517
300.543
300.581
300.647
300.767
300.97
301.261
301.603
301.947
302.289
302.66
303.091
303.659
304.481
305.568
300.029
300.078
300.12
300.158
300.193
300.225
300.255
300.282
300.308
300.331
300.353
300.374
300.393
300.412
300.43
300.447
300.464
300.481
300.498
300.516
300.535
300.556
300.583
300.623
300.695
300.828
301.059
301.399
301.808
302.234
302.668
303.127
303.698
304.508
305.587
300.03
300.081
300.125
300.164
300.201
300.235
300.266
300.295
300.321
300.346
300.368
300.39
300.41
300.429
300.448
300.466
300.483
300.501
300.519
300.537
300.557
300.578
300.601
300.631
300.676
300.757
300.909
301.178
301.578
302.065
302.582
303.107
303.705
304.512
305.585
300.031
300.084
300.13
300.172
300.211
300.246
300.279
300.309
300.336
300.362
300.385
300.407
300.428
300.448
300.467
300.486
300.504
300.523
300.542
300.562
300.583
300.606
300.63
300.659
300.694
300.747
300.844
301.03
301.358
301.838
302.418
303.028
303.677
304.489
305.555
300.032
300.087
300.136
300.18
300.221
300.259
300.293
300.324
300.353
300.379
300.404
300.427
300.448
300.469
300.489
300.508
300.527
300.547
300.567
300.589
300.613
300.639
300.667
300.699
300.734
300.778
300.848
300.978
301.224
301.643
302.229
302.905
303.605
304.424
305.477
300.034
300.091
300.143
300.19
300.233
300.273
300.309
300.341
300.371
300.399
300.424
300.448
300.47
300.491
300.511
300.531
300.552
300.572
300.594
300.619
300.646
300.677
300.712
300.751
300.792
300.837
300.898
301
301.192
301.541
302.087
302.777
303.494
304.308
305.346
300.035
300.096
300.15
300.2
300.246
300.287
300.325
300.359
300.39
300.418
300.444
300.468
300.491
300.513
300.534
300.555
300.576
300.598
300.621
300.649
300.681
300.719
300.764
300.814
300.866
300.92
300.984
301.079
301.246
301.548
302.039
302.691
303.385
304.181
305.213
300.037
300.101
300.158
300.21
300.259
300.302
300.341
300.376
300.408
300.437
300.464
300.489
300.512
300.534
300.556
300.577
300.599
300.621
300.647
300.677
300.714
300.761
300.819
300.884
300.953
301.022
301.097
301.199
301.362
301.641
302.085
302.671
303.321
304.104
305.146
300.038
300.105
300.165
300.221
300.271
300.316
300.357
300.393
300.426
300.455
300.483
300.509
300.533
300.555
300.577
300.598
300.62
300.643
300.669
300.7
300.741
300.795
300.866
300.951
301.042
301.133
301.229
301.347
301.52
301.79
302.196
302.714
303.321
304.107
305.172
300.04
300.11
300.172
300.23
300.283
300.33
300.371
300.409
300.442
300.473
300.502
300.528
300.552
300.575
300.597
300.618
300.64
300.662
300.687
300.718
300.758
300.814
300.892
300.994
301.111
301.232
301.357
301.499
301.686
301.956
302.334
302.8
303.374
304.173
305.26
300.041
300.114
300.179
300.239
300.294
300.342
300.385
300.424
300.459
300.49
300.52
300.546
300.571
300.595
300.617
300.638
300.659
300.681
300.704
300.732
300.769
300.82
300.896
301.003
301.139
301.293
301.453
301.626
301.834
302.107
302.467
302.9
303.455
304.263
305.364
300.042
300.118
300.186
300.248
300.304
300.355
300.399
300.439
300.474
300.507
300.537
300.565
300.591
300.614
300.637
300.658
300.679
300.7
300.722
300.747
300.779
300.822
300.886
300.983
301.122
301.296
301.493
301.702
301.938
302.223
302.575
302.993
303.537
304.348
305.455
300.044
300.122
300.192
300.257
300.315
300.367
300.413
300.454
300.491
300.525
300.555
300.584
300.61
300.635
300.658
300.68
300.701
300.721
300.743
300.766
300.793
300.829
300.881
300.96
301.081
301.253
301.47
301.715
301.985
302.293
302.652
303.066
303.607
304.417
305.526
300.045
300.126
300.198
300.265
300.326
300.38
300.427
300.47
300.508
300.543
300.575
300.604
300.631
300.657
300.68
300.702
300.724
300.744
300.766
300.788
300.813
300.845
300.887
300.95
301.048
301.198
301.409
301.672
301.975
302.314
302.694
303.118
303.66
304.47
305.578
300.047
300.13
300.205
300.275
300.338
300.393
300.443
300.487
300.526
300.562
300.595
300.626
300.654
300.68
300.704
300.727
300.748
300.77
300.791
300.814
300.838
300.868
300.905
300.959
301.039
301.163
301.35
301.606
301.926
302.295
302.705
303.148
303.699
304.511
305.62
300.048
300.134
300.213
300.285
300.35
300.408
300.459
300.505
300.546
300.583
300.618
300.649
300.678
300.705
300.73
300.753
300.775
300.797
300.819
300.842
300.867
300.896
300.933
300.982
301.054
301.161
301.323
301.558
301.873
302.259
302.698
303.165
303.731
304.549
305.662
300.05
300.139
300.221
300.297
300.365
300.425
300.478
300.525
300.567
300.606
300.642
300.674
300.704
300.731
300.757
300.781
300.804
300.826
300.849
300.873
300.898
300.929
300.966
301.017
301.087
301.189
301.337
301.552
301.852
302.24
302.698
303.186
303.768
304.597
305.717
300.052
300.145
300.231
300.31
300.381
300.443
300.497
300.546
300.59
300.63
300.667
300.7
300.731
300.759
300.785
300.81
300.834
300.857
300.88
300.904
300.932
300.963
301.004
301.059
301.134
301.24
301.388
301.595
301.884
302.267
302.731
303.231
303.826
304.669
305.796
300.054
300.152
300.242
300.325
300.398
300.462
300.518
300.568
300.613
300.654
300.692
300.726
300.758
300.787
300.814
300.839
300.864
300.887
300.911
300.937
300.965
300.999
301.043
301.103
301.187
301.305
301.463
301.675
301.963
302.343
302.806
303.306
303.907
304.762
305.891
300.056
300.16
300.254
300.34
300.416
300.481
300.538
300.589
300.635
300.678
300.717
300.752
300.785
300.815
300.843
300.869
300.894
300.918
300.943
300.969
300.998
301.033
301.08
301.145
301.239
301.37
301.545
301.773
302.069
302.449
302.908
303.402
304.003
304.862
305.985
300.059
300.167
300.266
300.355
300.432
300.499
300.557
300.609
300.656
300.7
300.74
300.777
300.81
300.841
300.87
300.897
300.923
300.948
300.973
301
301.03
301.066
301.114
301.182
301.282
301.424
301.616
301.863
302.174
302.559
303.013
303.498
304.094
304.952
306.064
300.062
300.175
300.277
300.369
300.448
300.515
300.574
300.627
300.676
300.721
300.762
300.8
300.835
300.867
300.897
300.924
300.951
300.977
301.003
301.03
301.06
301.097
301.145
301.213
301.314
301.461
301.665
301.929
302.256
302.65
303.102
303.58
304.17
305.02
306.121
300.064
300.182
300.288
300.382
300.463
300.531
300.591
300.645
300.695
300.741
300.784
300.823
300.859
300.892
300.922
300.951
300.978
301.005
301.032
301.06
301.09
301.127
301.174
301.241
301.339
301.484
301.69
301.964
302.306
302.712
303.166
303.642
304.227
305.068
306.159
300.067
300.188
300.298
300.395
300.477
300.546
300.607
300.662
300.713
300.761
300.805
300.846
300.882
300.916
300.948
300.977
301.006
301.033
301.061
301.089
301.121
301.158
301.204
301.269
301.363
301.502
301.704
301.979
302.329
302.746
303.207
303.685
304.267
305.103
306.188
300.069
300.195
300.308
300.407
300.49
300.56
300.622
300.679
300.732
300.781
300.826
300.868
300.906
300.941
300.973
301.004
301.033
301.062
301.09
301.12
301.152
301.19
301.237
301.301
301.392
301.526
301.72
301.99
302.34
302.764
303.234
303.716
304.299
305.133
306.216
300.071
300.201
300.317
300.418
300.503
300.574
300.637
300.695
300.749
300.8
300.847
300.89
300.93
300.966
300.999
301.03
301.061
301.09
301.12
301.15
301.184
301.223
301.272
301.336
301.428
301.559
301.749
302.012
302.359
302.783
303.259
303.745
304.332
305.167
306.25
300.073
300.207
300.326
300.429
300.515
300.587
300.65
300.71
300.766
300.819
300.867
300.912
300.952
300.99
301.024
301.057
301.088
301.118
301.149
301.181
301.216
301.257
301.308
301.375
301.468
301.601
301.791
302.053
302.396
302.818
303.295
303.783
304.372
305.208
306.287
300.075
300.212
300.334
300.439
300.526
300.599
300.664
300.725
300.782
300.836
300.886
300.932
300.974
301.013
301.049
301.082
301.114
301.146
301.178
301.211
301.248
301.291
301.343
301.413
301.509
301.646
301.84
302.105
302.45
302.872
303.346
303.832
304.42
305.251
306.314
300.077
300.217
300.342
300.449
300.538
300.612
300.678
300.739
300.798
300.853
300.904
300.951
300.995
301.035
301.072
301.107
301.14
301.173
301.206
301.241
301.279
301.323
301.377
301.448
301.546
301.686
301.884
302.156
302.508
302.933
303.404
303.886
304.465
305.276
306.31
300.078
300.222
300.35
300.46
300.55
300.625
300.692
300.754
300.813
300.868
300.921
300.969
301.014
301.055
301.094
301.13
301.165
301.199
301.233
301.269
301.308
301.353
301.409
301.48
301.577
301.716
301.913
302.187
302.545
302.974
303.445
303.92
304.484
305.263
306.26
300.08
300.227
300.358
300.47
300.562
300.639
300.706
300.768
300.828
300.884
300.936
300.986
301.032
301.075
301.115
301.152
301.189
301.224
301.26
301.297
301.337
301.383
301.438
301.508
301.602
301.734
301.924
302.19
302.542
302.971
303.44
303.907
304.453
305.199
306.168
300.082
300.232
300.366
300.481
300.575
300.652
300.721
300.783
300.842
300.898
300.952
301.002
301.049
301.093
301.134
301.174
301.211
301.248
301.286
301.324
301.366
301.412
301.467
301.535
301.625
301.748
301.923
302.171
302.504
302.919
303.378
303.836
304.366
305.093
306.052
300.083
300.237
300.374
300.492
300.588
300.667
300.736
300.799
300.858
300.914
300.967
301.017
301.065
301.11
301.153
301.194
301.234
301.272
301.311
301.351
301.394
301.442
301.498
301.565
301.65
301.765
301.925
302.149
302.454
302.842
303.281
303.726
304.246
304.97
305.943
300.085
300.243
300.383
300.503
300.602
300.682
300.752
300.816
300.875
300.93
300.983
301.033
301.082
301.128
301.172
301.215
301.256
301.296
301.337
301.379
301.424
301.473
301.53
301.597
301.681
301.789
301.937
302.14
302.418
302.774
303.187
303.615
304.128
304.862
305.861
300.087
300.248
300.392
300.515
300.616
300.698
300.769
300.833
300.892
300.948
301
301.05
301.099
301.145
301.191
301.234
301.277
301.319
301.362
301.406
301.454
301.506
301.565
301.633
301.717
301.824
301.964
302.154
302.409
302.738
303.124
303.536
304.043
304.791
305.821
300.089
300.254
300.402
300.528
300.631
300.715
300.787
300.852
300.911
300.967
301.019
301.068
301.116
301.163
301.209
301.254
301.298
301.342
301.387
301.434
301.484
301.538
301.6
301.672
301.759
301.866
302.004
302.187
302.428
302.737
303.102
303.5
304.003
304.763
305.82
300.092
300.261
300.413
300.542
300.647
300.733
300.806
300.872
300.931
300.987
301.038
301.087
301.135
301.182
301.229
301.274
301.32
301.365
301.412
301.46
301.513
301.571
301.637
301.713
301.804
301.915
302.055
302.236
302.471
302.767
303.117
303.504
304.004
304.773
305.85
300.094
300.268
300.424
300.556
300.664
300.751
300.825
300.891
300.952
301.007
301.059
301.107
301.155
301.202
301.248
301.295
301.341
301.388
301.436
301.486
301.541
301.602
301.672
301.753
301.849
301.965
302.11
302.293
302.527
302.817
303.156
303.536
304.034
304.81
305.899
300.096
300.275
300.435
300.571
300.681
300.769
300.844
300.911
300.972
301.028
301.079
301.128
301.175
301.222
301.269
301.315
301.362
301.41
301.459
301.511
301.568
301.632
301.706
301.791
301.892
302.015
302.166
302.355
302.59
302.877
303.21
303.586
304.084
304.864
305.959
300.099
300.283
300.447
300.586
300.697
300.787
300.864
300.931
300.993
301.048
301.1
301.148
301.196
301.243
301.289
301.336
301.384
301.432
301.482
301.535
301.594
301.66
301.736
301.826
301.933
302.062
302.219
302.414
302.653
302.941
303.27
303.643
304.141
304.923
306.021
300.102
300.29
300.459
300.601
300.715
300.806
300.884
300.952
301.014
301.07
301.121
301.169
301.216
301.263
301.311
301.358
301.406
301.454
301.505
301.558
301.618
301.685
301.764
301.856
301.968
302.103
302.268
302.469
302.713
303.002
303.33
303.702
304.2
304.983
306.08
300.104
300.298
300.471
300.617
300.734
300.827
300.905
300.974
301.036
301.092
301.142
301.19
301.238
301.285
301.332
301.38
301.428
301.477
301.528
301.582
301.641
301.709
301.788
301.883
301.998
302.137
302.308
302.515
302.764
303.055
303.383
303.754
304.254
305.037
306.132
300.107
300.306
300.484
300.635
300.754
300.848
300.928
300.998
301.06
301.115
301.165
301.213
301.26
301.308
301.356
301.404
301.453
301.502
301.553
301.606
301.665
301.733
301.812
301.907
302.023
302.166
302.34
302.553
302.807
303.101
303.43
303.801
304.301
305.085
306.177
300.11
300.315
300.498
300.653
300.775
300.872
300.953
301.023
301.085
301.139
301.188
301.235
301.283
301.331
301.38
301.43
301.48
301.529
301.58
301.634
301.692
301.758
301.836
301.931
302.046
302.189
302.366
302.582
302.84
303.136
303.466
303.839
304.34
305.124
306.215
300.113
300.324
300.513
300.673
300.799
300.898
300.981
301.052
301.113
301.166
301.213
301.259
301.307
301.356
301.407
301.458
301.509
301.56
301.612
301.665
301.723
301.788
301.865
301.957
302.071
302.212
302.389
302.606
302.866
303.165
303.497
303.87
304.373
305.16
306.254
300.117
300.335
300.53
300.695
300.825
300.927
301.011
301.083
301.143
301.194
301.24
301.285
301.332
301.382
301.435
301.489
301.543
301.596
301.648
301.703
301.761
301.825
301.9
301.989
302.1
302.239
302.414
302.63
302.89
303.19
303.522
303.897
304.404
305.198
306.3
300.12
300.346
300.548
300.719
300.853
300.957
301.043
301.115
301.175
301.225
301.268
301.311
301.357
301.409
301.464
301.522
301.579
301.636
301.691
301.748
301.807
301.871
301.945
302.033
302.141
302.277
302.449
302.662
302.921
303.22
303.552
303.929
304.443
305.25
306.369
300.124
300.358
300.567
300.744
300.882
300.989
301.077
301.15
301.209
301.256
301.297
301.338
301.383
301.435
301.494
301.556
301.619
301.68
301.74
301.8
301.862
301.929
302.003
302.091
302.198
302.332
302.501
302.712
302.968
303.265
303.597
303.977
304.501
305.328
306.466
300.129
300.37
300.587
300.769
300.911
301.021
301.111
301.184
301.243
301.289
301.327
301.365
301.409
301.461
301.523
301.59
301.659
301.728
301.795
301.861
301.929
302
302.078
302.168
302.276
302.41
302.579
302.788
303.042
303.336
303.665
304.05
304.588
305.437
306.591
300.133
300.383
300.607
300.794
300.939
301.052
301.144
301.219
301.277
301.321
301.357
301.391
301.433
301.485
301.549
301.621
301.698
301.775
301.851
301.927
302.003
302.081
302.166
302.262
302.375
302.512
302.683
302.892
303.143
303.433
303.76
304.148
304.701
305.568
306.729
300.137
300.395
300.626
300.818
300.967
301.083
301.177
301.252
301.311
301.353
301.386
301.418
301.455
301.505
301.57
301.647
301.731
301.817
301.905
301.992
302.08
302.17
302.265
302.37
302.491
302.635
302.81
303.02
303.269
303.554
303.877
304.268
304.831
305.707
306.862
300.141
300.407
300.644
300.841
300.993
301.111
301.207
301.285
301.343
301.386
301.416
301.444
301.477
301.523
301.586
301.664
301.753
301.849
301.948
302.049
302.151
302.255
302.364
302.482
302.614
302.767
302.947
303.16
303.406
303.686
304.004
304.395
304.963
305.835
306.973
300.145
300.417
300.66
300.861
301.017
301.138
301.236
301.316
301.376
301.418
301.447
301.47
301.498
301.538
301.597
301.673
301.765
301.867
301.976
302.09
302.207
302.328
302.453
302.585
302.73
302.893
303.08
303.294
303.538
303.813
304.126
304.515
305.08
305.939
307.053
300.148
300.427
300.675
300.88
301.039
301.163
301.264
301.346
301.407
301.45
301.478
301.498
301.521
301.554
301.605
301.677
301.767
301.871
301.987
302.111
302.241
302.377
302.518
302.666
302.824
302.998
303.191
303.408
303.65
303.92
304.228
304.611
305.17
306.01
307.1
300.151
300.435
300.687
300.897
301.059
301.187
301.291
301.375
301.438
301.482
301.51
301.528
301.546
301.573
301.616
301.679
301.764
301.866
301.984
302.114
302.254
302.403
302.559
302.722
302.893
303.077
303.277
303.495
303.736
304.002
304.304
304.681
305.23
306.052
307.12
300.154
300.442
300.7
300.914
301.08
301.211
301.318
301.405
301.47
301.516
301.543
301.56
301.574
301.594
301.629
301.684
301.76
301.857
301.972
302.103
302.249
302.406
302.574
302.75
302.935
303.128
303.335
303.556
303.796
304.058
304.355
304.726
305.265
306.069
307.117
300.157
300.451
300.713
300.932
301.102
301.236
301.346
301.436
301.503
301.55
301.578
301.594
301.605
301.619
301.647
301.692
301.76
301.849
301.959
302.087
302.233
302.395
302.571
302.758
302.954
303.158
303.372
303.597
303.837
304.097
304.389
304.753
305.283
306.069
307.099
300.159
300.459
300.727
300.95
301.124
301.262
301.376
301.468
301.537
301.586
301.615
301.63
301.638
301.648
301.668
301.706
301.764
301.844
301.946
302.069
302.212
302.374
302.554
302.749
302.954
303.168
303.389
303.619
303.86
304.119
304.407
304.766
305.285
306.054
307.068
300.162
300.468
300.743
300.971
301.149
301.29
301.406
301.501
301.573
301.623
301.652
301.667
301.674
301.68
301.694
301.724
301.774
301.845
301.938
302.053
302.19
302.349
302.529
302.728
302.94
303.162
303.391
303.627
303.871
304.129
304.414
304.767
305.277
306.03
307.03
300.166
300.478
300.759
300.992
301.173
301.318
301.437
301.534
301.609
301.66
301.691
301.706
301.711
301.714
301.724
301.747
301.789
301.852
301.935
302.041
302.169
302.321
302.498
302.696
302.912
303.14
303.375
303.616
303.863
304.121
304.404
304.752
305.254
305.994
306.985
300.169
300.489
300.775
301.013
301.198
301.346
301.468
301.568
301.645
301.698
301.731
301.746
301.75
301.751
301.756
301.775
301.81
301.865
301.94
302.036
302.154
302.297
302.466
302.66
302.875
303.106
303.346
303.592
303.842
304.101
304.382
304.727
305.222
305.954
306.942
300.173
300.5
300.792
301.034
301.222
301.372
301.497
301.6
301.679
301.736
301.77
301.786
301.79
301.788
301.791
301.805
301.835
301.885
301.953
302.04
302.148
302.279
302.436
302.621
302.83
303.059
303.301
303.549
303.802
304.062
304.342
304.685
305.178
305.909
306.901
300.177
300.51
300.808
301.054
301.245
301.398
301.526
301.632
301.714
301.772
301.809
301.826
301.83
301.827
301.827
301.836
301.863
301.908
301.972
302.054
302.153
302.274
302.419
302.592
302.792
303.015
303.254
303.503
303.757
304.019
304.3
304.643
305.138
305.872
306.871
300.181
300.521
300.824
301.073
301.268
301.424
301.554
301.662
301.747
301.809
301.847
301.866
301.871
301.867
301.863
301.869
301.891
301.934
301.995
302.074
302.168
302.28
302.414
302.574
302.762
302.974
303.207
303.452
303.705
303.966
304.247
304.592
305.091
305.834
306.843
300.184
300.53
300.839
301.093
301.291
301.449
301.582
301.693
301.781
301.845
301.886
301.907
301.912
301.907
301.9
301.901
301.918
301.957
302.018
302.096
302.19
302.298
302.425