/*--------------------------------*- C++ -*----------------------------------*\
| =========                 |                                                 |
| \\      /  F ield         | OpenFOAM: The Open Source CFD Toolbox           |
|  \\    /   O peration     | Version:  v2006                                 |
|   \\  /    A nd           | Website:  www.openfoam.com                      |
|    \\/     M anipulation  |                                                 |
\*---------------------------------------------------------------------------*/
FoamFile
{
    version     2.0;
    format      ascii;
    class       volVectorField;
    location    "31";
    object      U;
}
// * * * * * * * * * * * * * * * * * * * * * * * * * * * * * * * * * * * * * //

dimensions      [0 1 -1 0 0 0 0];


internalField   nonuniform List<vector> 
78750
(
(-0.024446 -0.0135055 -0.00464714)
(-0.0202018 -0.0233197 -0.0088962)
(-0.0172762 -0.023295 -0.00995141)
(-0.0147013 -0.0223884 -0.0102095)
(-0.0121622 -0.0209219 -0.0100278)
(-0.00954113 -0.0192558 -0.00964985)
(-0.00694034 -0.0175849 -0.00921729)
(-0.00444069 -0.0159901 -0.00878476)
(-0.00208389 -0.0144719 -0.00834924)
(0.000103018 -0.0130283 -0.00790685)
(0.00210738 -0.011665 -0.00746012)
(0.00392528 -0.0103911 -0.00701227)
(0.00556262 -0.00921624 -0.00657272)
(0.00703543 -0.00814509 -0.00614855)
(0.00836371 -0.00717468 -0.00574134)
(0.0095652 -0.00629734 -0.00534899)
(0.0106536 -0.00550294 -0.00496716)
(0.0116386 -0.00478003 -0.00458985)
(0.0125264 -0.00411668 -0.00421027)
(0.013319 -0.00350022 -0.00382209)
(0.0140158 -0.0029164 -0.00341775)
(0.0146117 -0.00234997 -0.00298818)
(0.0150978 -0.00178608 -0.00252299)
(0.0154609 -0.00121119 -0.00201273)
(0.0156856 -0.000612403 -0.00144771)
(0.0157447 2.24485e-05 -0.000819906)
(0.0156066 0.000707775 -0.00010068)
(0.015224 0.00145506 0.000729937)
(0.0145558 0.00227426 0.00170225)
(0.0135488 0.00316831 0.00286607)
(0.0121254 0.00418894 0.00426233)
(0.0101559 0.00558335 0.00584511)
(0.00745746 0.00771197 0.00713823)
(0.00414023 0.00972799 0.00684085)
(0.000991452 0.0074344 0.00359837)
(-0.00157363 0.0100276 -0.00188423)
(-0.00428314 -0.005253 -0.0128022)
(-0.00804565 -0.0153811 -0.0211132)
(-0.0110082 -0.0197236 -0.0256313)
(-0.0131222 -0.0204546 -0.0275067)
(-0.0145137 -0.0195091 -0.0279948)
(-0.0153482 -0.0181301 -0.0278543)
(-0.0157217 -0.0166995 -0.0274015)
(-0.0157033 -0.0152882 -0.0267807)
(-0.0153838 -0.0139217 -0.0260666)
(-0.0148503 -0.0126178 -0.0253027)
(-0.0141434 -0.0114015 -0.0245294)
(-0.0132943 -0.0103208 -0.0237906)
(-0.0123297 -0.00940195 -0.0231095)
(-0.0112582 -0.0086241 -0.0224829)
(-0.0100896 -0.0079508 -0.0218988)
(-0.00883657 -0.00734533 -0.0213427)
(-0.00751072 -0.00677442 -0.0207996)
(-0.00612404 -0.0062149 -0.0202567)
(-0.0046945 -0.00564822 -0.0197026)
(-0.00324084 -0.0050488 -0.0191232)
(-0.00178002 -0.00438431 -0.0185005)
(-0.000329271 -0.00362569 -0.0178145)
(0.00108581 -0.00274981 -0.0170451)
(0.00243179 -0.00173001 -0.0161692)
(0.00367179 -0.000531738 -0.0151556)
(0.00475923 0.000890251 -0.0139626)
(0.00562517 0.00259787 -0.0125429)
(0.00620402 0.00469254 -0.0108343)
(0.00643905 0.00736913 -0.00867207)
(0.0061879 0.0109324 -0.00586071)
(0.00527476 0.0156418 -0.00251138)
(0.00370059 0.0209753 0.000651376)
(0.0018836 0.0239819 0.00241856)
(0.000254784 0.0171654 0.00193886)
(0.000222473 0.0195713 -0.00104568)
(-0.000508962 0.0283111 -0.00635637)
(-0.00255047 0.0291221 -0.00990681)
(-0.00476669 0.0266833 -0.011382)
(-0.00686894 0.0225506 -0.0113576)
(-0.00862535 0.0176081 -0.0106876)
(-0.00995276 0.012649 -0.00999464)
(-0.0108511 0.00845928 -0.00940434)
(-0.0113879 0.00539163 -0.00883984)
(-0.0115942 0.00329308 -0.00824739)
(-0.0115439 0.00175438 -0.007696)
(-0.0113004 0.000505773 -0.00723003)
(-0.0109003 -0.000535346 -0.00685091)
(-0.0103757 -0.00140654 -0.00655551)
(-0.00975064 -0.00213008 -0.00634159)
(-0.00904331 -0.00271982 -0.00620778)
(-0.00826707 -0.00318288 -0.00615277)
(-0.00743192 -0.00352045 -0.0061746)
(-0.00654599 -0.00372836 -0.00627054)
(-0.00561675 -0.00379778 -0.00643669)
(-0.00465144 -0.00371416 -0.00666682)
(-0.00365761 -0.00345622 -0.0069508)
(-0.0026445 -0.00299384 -0.00727313)
(-0.00162567 -0.00228672 -0.00761196)
(-0.000621587 -0.00128221 -0.00793628)
(0.000336892 8.77844e-05 -0.00820291)
(0.00121674 0.0019153 -0.00835389)
(0.00198114 0.0043388 -0.00829173)
(0.00258567 0.00758946 -0.00790638)
(0.00294493 0.0118878 -0.00706237)
(0.00294164 0.0172662 -0.00565333)
(0.00250416 0.0233642 -0.00371367)
(0.0017349 0.0286974 -0.00164552)
(0.000859594 0.0301926 1.15999e-05)
(9.75633e-05 0.0199272 0.00074756)
(-2.71428e-06 0.0141584 -0.000383805)
(2.79186e-05 0.0209056 -0.00343649)
(-0.000157261 0.0204442 -0.00555034)
(-0.000268222 0.0175678 -0.00650275)
(-0.0003747 0.0134628 -0.00648627)
(-0.000520633 0.00867261 -0.00577023)
(-0.000711855 0.00385282 -0.00462331)
(-0.000906571 -0.000320689 -0.0032277)
(-0.00102643 -0.00349846 -0.00165404)
(-0.00105255 -0.00577998 5.92696e-05)
(-0.00102983 -0.00739813 0.00179674)
(-0.000949167 -0.00855427 0.00343797)
(-0.00080052 -0.00938966 0.00489815)
(-0.000588603 -0.0100005 0.00612682)
(-0.000324203 -0.0104475 0.00710296)
(-1.74713e-05 -0.0107643 0.00782599)
(0.000321603 -0.010966 0.00830663)
(0.000683352 -0.011056 0.00855889)
(0.00105914 -0.0110299 0.00859423)
(0.00144191 -0.0108765 0.00841857)
(0.00182635 -0.0105761 0.0080318)
(0.00220858 -0.0100978 0.00742976)
(0.00258509 -0.00939622 0.00660913)
(0.00295041 -0.00840741 0.00557571)
(0.0032918 -0.00704576 0.00435736)
(0.00358936 -0.00519055 0.00302588)
(0.00382649 -0.00266217 0.00166474)
(0.00395897 0.000725994 0.000373001)
(0.00393459 0.00514506 -0.000699366)
(0.00371592 0.0107979 -0.00137667)
(0.00327109 0.0177341 -0.00150891)
(0.00256964 0.0253644 -0.00107025)
(0.0017175 0.0316395 -0.000274415)
(0.000864454 0.0330979 0.000520195)
(0.000135213 0.021465 0.000821085)
(0.000133368 0.0130099 -0.000213446)
(0.000381734 0.0219923 -0.0021129)
(0.000372552 0.0234521 -0.0035325)
(0.000213796 0.0219545 -0.00413563)
(-5.52059e-05 0.0192123 -0.00391177)
(-0.000428111 0.0157625 -0.00287571)
(-0.000881627 0.0119817 -0.00111285)
(-0.00137864 0.00816296 0.00122015)
(-0.00187784 0.00447286 0.00389371)
(-0.00228439 0.000985858 0.00661003)
(-0.00251676 -0.00221405 0.00907179)
(-0.00256766 -0.00505473 0.0110778)
(-0.00245087 -0.00748533 0.0125597)
(-0.00218594 -0.00949736 0.0135598)
(-0.0017991 -0.0111119 0.0141677)
(-0.00132137 -0.0123437 0.0144897)
(-0.000782045 -0.0132069 0.0146267)
(-0.00020854 -0.0137211 0.0146549)
(0.000374292 -0.0139078 0.0146214)
(0.000944802 -0.0137849 0.0145444)
(0.0014848 -0.0133606 0.0144146)
(0.0019795 -0.0126267 0.0141935)
(0.00241748 -0.0115492 0.0138134)
(0.00278988 -0.0100551 0.0131802)
(0.00309131 -0.00801885 0.0121836)
(0.00331554 -0.00527074 0.0107099)
(0.00344866 -0.00163666 0.00870346)
(0.00345881 0.00302923 0.00627313)
(0.00334042 0.00881896 0.00375555)
(0.00307863 0.0157437 0.00159867)
(0.00263152 0.0235727 0.000200991)
(0.00197937 0.0314023 -0.000298333)
(0.0012656 0.0370321 -0.000113298)
(0.00059277 0.0373101 0.000347558)
(5.47269e-05 0.0232767 0.000596545)
(3.11359e-06 0.0105131 0.000131558)
(4.38918e-05 0.0188052 -0.000855307)
(-7.3407e-05 0.0206748 -0.0016159)
(-0.000279033 0.0195089 -0.00174531)
(-0.00054957 0.0167665 -0.00111947)
(-0.000855304 0.0128832 0.000304347)
(-0.00115166 0.0082336 0.00241462)
(-0.00138642 0.00321851 0.00494042)
(-0.00151177 -0.00184513 0.00749844)
(-0.00152065 -0.00673585 0.00968782)
(-0.00142756 -0.0112763 0.0112062)
(-0.00123052 -0.0153109 0.0119487)
(-0.000929907 -0.0187261 0.0120168)
(-0.000536578 -0.0214663 0.0116312)
(-6.95511e-05 -0.0235301 0.0110267)
(0.000448512 -0.0249604 0.0103862)
(0.000994604 -0.0258266 0.00982294)
(0.00155205 -0.0261968 0.00940639)
(0.0021063 -0.0261269 0.00917851)
(0.0026428 -0.025656 0.00916595)
(0.00314639 -0.0248034 0.00938662)
(0.00360113 -0.0235663 0.00985039)
(0.00399013 -0.0219138 0.0105525)
(0.00429331 -0.0197762 0.0114553)
(0.00448948 -0.0170336 0.0124415)
(0.00456602 -0.013496 0.0132493)
(0.00452273 -0.00889224 0.0134543)
(0.00437734 -0.00293371 0.0126039)
(0.00410975 0.00455539 0.0105398)
(0.00368005 0.0135009 0.00761881)
(0.00307868 0.0233849 0.00465303)
(0.00229684 0.0329212 0.00244322)
(0.00147026 0.0394977 0.00133451)
(0.000700992 0.0396961 0.000974444)
(9.78157e-05 0.0244094 0.000729106)
(2.34899e-05 0.0094898 0.000527047)
(7.66184e-05 0.0176374 0.000379712)
(1.09348e-05 0.0199882 0.000185073)
(-0.000151118 0.0193036 0.000392554)
(-0.00038184 0.0169056 0.00120188)
(-0.000647143 0.0131978 0.00267651)
(-0.00090619 0.00844277 0.00466651)
(-0.00112195 0.00299908 0.0067788)
(-0.00125768 -0.00273803 0.00851613)
(-0.00128737 -0.0083552 0.00948125)
(-0.00121321 -0.0134793 0.00956717)
(-0.00104992 -0.0178609 0.00896034)
(-0.000813896 -0.0214001 0.00798107)
(-0.000521601 -0.0240962 0.00692016)
(-0.000190438 -0.0259881 0.00596275)
(0.000173061 -0.0271912 0.0051643)
(0.000564662 -0.0278483 0.00452386)
(0.00097555 -0.0280642 0.00403673)
(0.00140063 -0.0279014 0.00369446)
(0.00183295 -0.0273939 0.00349198)
(0.00226363 -0.0265491 0.0034327)
(0.00268176 -0.0253471 0.00353155)
(0.00307194 -0.0237294 0.00381744)
(0.00341696 -0.0215767 0.00433881)
(0.00369731 -0.0187237 0.0051587)
(0.00388277 -0.0149861 0.00630202)
(0.00394297 -0.0100993 0.00765324)
(0.0038585 -0.00366405 0.00884518)
(0.00362259 0.00467135 0.00927611)
(0.00323295 0.0148563 0.00848183)
(0.00267911 0.0261018 0.00662886)
(0.00195371 0.0366338 0.00449969)
(0.0012002 0.0434205 0.0029234)
(0.00052658 0.0429026 0.00193551)
(4.96524e-05 0.025744 0.00101577)
(-1.33617e-05 0.00831342 0.000824779)
(-5.90707e-05 0.0157171 0.00134426)
(-0.00021452 0.0179726 0.00165881)
(-0.00043188 0.0172494 0.00222392)
(-0.000681563 0.0145955 0.00326857)
(-0.000916978 0.0102795 0.00480695)
(-0.00107808 0.00463219 0.00654397)
(-0.00113369 -0.00180719 0.00800561)
(-0.00109055 -0.00841037 0.00879673)
(-0.000972032 -0.0145943 0.0088119)
(-0.00079459 -0.0199648 0.00824231)
(-0.000570614 -0.0243632 0.00739887)
(-0.000309077 -0.0277952 0.00653781)
(-1.92007e-05 -0.030328 0.00580016)
(0.000296249 -0.0320834 0.00522218)
(0.000638502 -0.0332136 0.00478153)
(0.00100772 -0.033836 0.00445693)
(0.00139739 -0.0340237 0.00423322)
(0.00180072 -0.0338165 0.00409919)
(0.0022087 -0.0332319 0.00404763)
(0.00261089 -0.0322674 0.00407539)
(0.00299568 -0.0308995 0.00418382)
(0.00334679 -0.0290719 0.00438125)
(0.00364895 -0.0266625 0.00469232)
(0.00388731 -0.0235016 0.00514731)
(0.00403455 -0.0194073 0.00577248)
(0.00406485 -0.0141157 0.00657122)
(0.0039584 -0.00721996 0.00745413)
(0.00370444 0.00173013 0.0081259)
(0.0032966 0.0128664 0.0081175)
(0.00272813 0.0254541 0.00715149)
(0.00199687 0.0374298 0.00552053)
(0.0012329 0.0451799 0.0039355)
(0.000547487 0.044657 0.00262535)
(7.23335e-05 0.0264918 0.00121852)
(-1.72515e-05 0.00764539 0.00116852)
(-9.44358e-05 0.0146027 0.00240585)
(-0.000290912 0.0167134 0.00327349)
(-0.000539182 0.0157697 0.0041924)
(-0.000797492 0.0126383 0.00536422)
(-0.00101063 0.0075856 0.00668698)
(-0.00113396 0.00117707 0.0077737)
(-0.0011706 -0.0058046 0.00825624)
(-0.00114117 -0.0125858 0.00801874)
(-0.00106313 -0.0186171 0.0072294)
(-0.000943922 -0.0236579 0.00617899)
(-0.000783512 -0.0276964 0.00510996)
(-0.000582705 -0.0308155 0.00415678)
(-0.000346122 -0.0331033 0.00336942)
(-7.3366e-05 -0.0346998 0.00273148)
(0.000237016 -0.0357465 0.00221242)
(0.000579935 -0.0363308 0.00180228)
(0.000948289 -0.0365028 0.00149674)
(0.00133381 -0.0362892 0.00129471)
(0.00172712 -0.0356971 0.00119815)
(0.0021183 -0.0347148 0.00121207)
(0.00249686 -0.033309 0.00134442)
(0.00284664 -0.0314097 0.00160723)
(0.00315683 -0.0288634 0.00202988)
(0.00341484 -0.0254692 0.00265389)
(0.00359217 -0.0210407 0.00350446)
(0.0036611 -0.0153067 0.00457857)
(0.00359508 -0.00786909 0.00579933)
(0.00337232 0.00170686 0.00693409)
(0.00298883 0.0135542 0.00756753)
(0.00245094 0.0269211 0.00731088)
(0.00176549 0.0395866 0.00618744)
(0.0010622 0.0476039 0.0047314)
(0.000448424 0.0466697 0.00322718)
(5.09579e-05 0.0272908 0.00141118)
(-1.09135e-05 0.00688185 0.0013335)
(-3.69875e-05 0.01319 0.00303972)
(-0.0001748 0.0149361 0.00426508)
(-0.000364945 0.0135196 0.00530867)
(-0.000574252 0.00967805 0.00628532)
(-0.000759487 0.00387495 0.00704304)
(-0.000898373 -0.00306627 0.00732425)
(-0.000994475 -0.0102428 0.00702751)
(-0.00105006 -0.0169396 0.00627636)
(-0.00105889 -0.0227643 0.00531261)
(-0.00101097 -0.0276031 0.00434735)
(-0.000900396 -0.031488 0.00349827)
(-0.000730108 -0.0344886 0.0028057)
(-0.000508005 -0.0366974 0.00226212)
(-0.000238082 -0.0382573 0.00183159)
(7.60088e-05 -0.0392877 0.00148577)
(0.000423555 -0.0398564 0.00121038)
(0.000795528 -0.0400035 0.000995244)
(0.00118241 -0.039752 0.000834161)
(0.00157434 -0.0391088 0.000725424)
(0.00196088 -0.0380649 0.000672302)
(0.00233109 -0.0365913 0.000683673)
(0.00266956 -0.0346247 0.000775706)
(0.00296611 -0.0320129 0.00097977)
(0.00321236 -0.0285309 0.00134263)
(0.0033839 -0.023956 0.00191913)
(0.00345621 -0.017994 0.0027612)
(0.00340553 -0.0102228 0.00387835)
(0.00321155 -0.00017706 0.0051464)
(0.00286092 0.0123219 0.00622155)
(0.00235233 0.02654 0.0066353)
(0.00169838 0.0401243 0.00614507)
(0.00102497 0.0487585 0.00501464)
(0.000436392 0.0478112 0.00351259)
(5.8758e-05 0.0277525 0.00148971)
(1.72072e-06 0.00583386 0.00134735)
(9.05089e-05 0.0111924 0.00321121)
(0.000122794 0.0125817 0.00455015)
(0.000104149 0.0109982 0.00554705)
(4.58602e-05 0.00708401 0.00627261)
(-4.65629e-05 0.00137217 0.00664759)
(-0.000159166 -0.00531214 0.00659017)
(-0.000269058 -0.0121589 0.0061422)
(-0.000363563 -0.0185774 0.00544784)
(-0.000423643 -0.0242458 0.00466784)
(-0.000432979 -0.0290476 0.00391792)
(-0.000382734 -0.0329747 0.00325914)
(-0.000271532 -0.0360551 0.00271329)
(-0.000104814 -0.0383598 0.00227396)
(0.000115344 -0.0400152 0.00191933)
(0.000383084 -0.0411266 0.00162934)
(0.000688147 -0.041752 0.00139208)
(0.00102194 -0.0419263 0.0011987)
(0.00137411 -0.0416691 0.00104355)
(0.00173333 -0.0409845 0.000924489)
(0.00208937 -0.0398625 0.00084339)
(0.00243253 -0.0382761 0.000806488)
(0.00274473 -0.0361644 0.000826482)
(0.00301539 -0.0333584 0.000926816)
(0.00323346 -0.0296216 0.00114267)
(0.00337387 -0.0247535 0.00151903)
(0.00341699 -0.0184557 0.00211529)
(0.00334193 -0.0103118 0.00298055)
(0.00312731 0.000129904 0.00408214)
(0.00276513 0.0130356 0.00519774)
(0.00226003 0.0276657 0.00590631)
(0.00162224 0.0416108 0.00583237)
(0.000975611 0.0503579 0.00499904)
(0.000414562 0.0491426 0.00358417)
(5.54419e-05 0.02829 0.0014969)
(-6.51122e-06 0.00453784 0.00127137)
(9.91751e-05 0.00845019 0.00306283)
(0.000197927 0.00917154 0.00434215)
(0.000275322 0.00733181 0.00523157)
(0.000320414 0.00342431 0.00578171)
(0.000333392 -0.00204991 0.0059744)
(0.000311195 -0.00837692 0.00580907)
(0.000260589 -0.0148725 0.00535629)
(0.000201593 -0.0210237 0.00473268)
(0.000154009 -0.0265281 0.00405824)
(0.000134868 -0.0312576 0.00342417)
(0.000158034 -0.0351885 0.00288122)
(0.000233361 -0.038338 0.00244457)
(0.000361251 -0.040736 0.00210603)
(0.000542269 -0.0424858 0.00184336)
(0.000773445 -0.0436858 0.00163538)
(0.00104518 -0.0443834 0.00146604)
(0.00134933 -0.0446044 0.00132319)
(0.00167599 -0.0443619 0.00119869)
(0.00201414 -0.0436562 0.00108862)
(0.00235367 -0.0424765 0.000993613)
(0.00268243 -0.0407952 0.000919228)
(0.00298147 -0.0385405 0.000877855)
(0.00324203 -0.0355414 0.000884772)
(0.00344737 -0.031573 0.000968791)
(0.00357283 -0.0264259 0.00117101)
(0.00359773 -0.0197992 0.00155225)
(0.00350152 -0.0112827 0.00218059)
(0.0032674 -0.000436201 0.0030796)
(0.00288502 0.0129104 0.00412624)
(0.00235607 0.0280345 0.00498121)
(0.0016961 0.0424861 0.00522031)
(0.0010317 0.0515502 0.00467836)
(0.000450551 0.0502875 0.00342933)
(6.49994e-05 0.028835 0.00142033)
(-1.41916e-05 0.00349798 0.00119123)
(4.70592e-05 0.00608588 0.00286421)
(0.00011146 0.00606591 0.00403969)
(0.000177411 0.00390627 0.00481547)
(0.000232004 1.92087e-05 0.00523752)
(0.000266417 -0.00514013 0.00531993)
(0.000273332 -0.0109758 0.00510249)
(0.000255883 -0.016932 0.00467475)
(0.000225755 -0.0225998 0.00415267)
(0.000199306 -0.0277423 0.00364172)
(0.000193809 -0.0322597 0.00320938)
(0.000224863 -0.036127 0.00287966)
(0.00030476 -0.039339 0.00264498)
(0.000438378 -0.041882 0.00248281)
(0.000625104 -0.0438004 0.00236675)
(0.000864572 -0.0451607 0.00228035)
(0.00114626 -0.0459957 0.00220588)
(0.00146066 -0.0463177 0.00213033)
(0.0017983 -0.0461293 0.00204538)
(0.00214902 -0.0454253 0.00194749)
(0.0025026 -0.0441915 0.00183799)
(0.00284368 -0.0423971 0.00172381)
(0.00315383 -0.0399485 0.00161807)
(0.00342458 -0.0366628 0.00152996)
(0.00363429 -0.0323317 0.00148103)
(0.00376016 -0.0267432 0.00150667)
(0.00378074 -0.0196053 0.00166147)
(0.00367251 -0.0105414 0.00201436)
(0.00341418 0.000826468 0.00261674)
(0.00299767 0.0145942 0.00342105)
(0.00243208 0.0299995 0.00418738)
(0.00173752 0.044582 0.00452401)
(0.00105306 0.0535502 0.00416843)
(0.000459461 0.0519578 0.00309974)
(6.12157e-05 0.0296107 0.00127273)
(-1.34328e-05 0.00272305 0.00108565)
(1.61475e-05 0.00423893 0.0025947)
(3.33459e-05 0.00350079 0.00362161)
(5.25977e-05 0.000915441 0.00425029)
(6.16515e-05 -0.00313448 0.00453358)
(5.27439e-05 -0.00820904 0.00452076)
(2.42384e-05 -0.0137958 0.00429342)
(-1.75919e-05 -0.0194497 0.00396055)
(-5.94817e-05 -0.0248596 0.00362605)
(-8.52052e-05 -0.0298493 0.00335961)
(-7.94333e-05 -0.0343361 0.00318852)
(-2.9693e-05 -0.0382812 0.0031078)
(7.34659e-05 -0.0416554 0.00309532)
(0.000235541 -0.044423 0.0031229)
(0.000452973 -0.0465621 0.00316401)
(0.000724257 -0.0481046 0.00320452)
(0.00104185 -0.0490807 0.00323087)
(0.00139276 -0.0494938 0.00322753)
(0.00176678 -0.0493389 0.00318381)
(0.00215352 -0.0486069 0.00309458)
(0.00254181 -0.0472826 0.00296125)
(0.00290916 -0.0453342 0.0027931)
(0.00324264 -0.0426408 0.00259986)
(0.00353184 -0.0390037 0.0023904)
(0.00375113 -0.0342515 0.00218805)
(0.00388262 -0.0281567 0.00203245)
(0.00390721 -0.0204139 0.00197816)
(0.00380122 -0.0106545 0.00208941)
(0.00354047 0.00144799 0.00242013)
(0.00311177 0.0158952 0.00295853)
(0.00252269 0.0318298 0.00354334)
(0.00179775 0.0467201 0.00385003)
(0.00109072 0.0556779 0.00359324)
(0.000479648 0.0537784 0.00269155)
(6.27303e-05 0.0304824 0.00109738)
(-9.84135e-06 0.00204507 0.000971579)
(2.84172e-05 0.00272154 0.00228586)
(5.70118e-05 0.00152685 0.00315958)
(7.50583e-05 -0.00120799 0.00369005)
(7.63322e-05 -0.00515247 0.0039522)
(5.7714e-05 -0.0099381 0.00401935)
(1.95723e-05 -0.0151718 0.00397552)
(-2.87643e-05 -0.0205266 0.00390102)
(-7.3434e-05 -0.0257692 0.00385389)
(-0.000100383 -0.0307472 0.00386529)
(-9.75514e-05 -0.0353615 0.00394656)
(-5.47064e-05 -0.0395408 0.00409643)
(3.79035e-05 -0.0432241 0.0043026)
(0.000189766 -0.0463484 0.00454073)
(0.000404795 -0.0488451 0.00477752)
(0.000680941 -0.0506938 0.00498428)
(0.00101511 -0.0519088 0.00514539)
(0.00139486 -0.0524871 0.00524346)
(0.00180483 -0.0524125 0.00525996)
(0.00223236 -0.0516664 0.00518462)
(0.00265792 -0.0502282 0.00501694)
(0.00305473 -0.0480448 0.00476421)
(0.00340981 -0.0449836 0.00442561)
(0.00369998 -0.0408702 0.0040137)
(0.00390274 -0.035556 0.00356484)
(0.00400567 -0.0288254 0.00313755)
(0.00399791 -0.020367 0.0028022)
(0.00386407 -0.00980817 0.00262678)
(0.00358394 0.00313328 0.00265743)
(0.00314199 0.0183341 0.00288566)
(0.00254037 0.034771 0.00319685)
(0.00180137 0.0497868 0.00334465)
(0.00109044 0.058455 0.00308368)
(0.000480236 0.0560109 0.00230416)
(5.94465e-05 0.0315145 0.00093803)
(-2.71406e-05 0.00145489 0.000943454)
(-6.16088e-05 0.0012955 0.00217793)
(-0.000114796 -0.000395357 0.00299394)
(-0.000172766 -0.00334987 0.0035239)
(-0.000239432 -0.0073185 0.00385895)
(-0.000316426 -0.0120176 0.00406695)
(-0.000401639 -0.0171505 0.00420404)
(-0.000489163 -0.0224559 0.0043167)
(-0.000571201 -0.0277254 0.00444633)
(-0.000638532 -0.0328067 0.00463328)
(-0.000679446 -0.0375975 0.00491226)
(-0.000678904 -0.0420312 0.00529961)
(-0.000619487 -0.0460529 0.00578211)
(-0.000484171 -0.0495967 0.0063164)
(-0.000260436 -0.0525741 0.00684071)
(5.22843e-05 -0.0548853 0.00729435)
(0.000443497 -0.056469 0.00764239)
(0.000901666 -0.0573071 0.00787391)
(0.00141098 -0.0573707 0.00797906)
(0.00194723 -0.0566227 0.00794695)
(0.00247805 -0.0550225 0.00777091)
(0.00298159 -0.0524765 0.00743884)
(0.00343218 -0.0488394 0.00693234)
(0.00378653 -0.044018 0.00626091)
(0.0040182 -0.0379161 0.00547781)
(0.0041151 -0.0303728 0.00467756)
(0.00407624 -0.0210982 0.00397345)
(0.00390364 -0.00969739 0.00346359)
(0.00359431 0.00413534 0.00319531)
(0.00314029 0.0202227 0.0031398)
(0.00253912 0.0373777 0.00318254)
(0.00180361 0.0527396 0.00312944)
(0.00109822 0.0612693 0.00279973)
(0.000489617 0.0583317 0.00207787)
(6.19348e-05 0.0326112 0.000856718)
(-4.53715e-05 0.00133937 0.000981603)
(-0.000189101 0.000780106 0.00227438)
(-0.0003909 -0.00125825 0.00313683)
(-0.000614884 -0.00443481 0.00371937)
(-0.000845516 -0.0085094 0.00411565)
(-0.00107582 -0.0132279 0.00438511)
(-0.00130445 -0.0183391 0.0045815)
(-0.00152918 -0.0236226 0.00476914)
(-0.0017435 -0.028912 0.00502539)
(-0.00193372 -0.0341065 0.00542332)
(-0.00207798 -0.039159 0.00600345)
(-0.002149 -0.0440392 0.00675296)
(-0.00212043 -0.048687 0.00760629)
(-0.00197424 -0.0529829 0.00846779)
(-0.00170537 -0.0567551 0.00924532)
(-0.00132144 -0.0598215 0.00987703)
(-0.000840209 -0.0620391 0.0103394)
(-0.000282335 -0.063331 0.0106412)
(0.000333562 -0.0636651 0.0108039)
(0.000986007 -0.0630008 0.0108363)
(0.00165329 -0.061248 0.010724)
(0.00231316 -0.0582591 0.0104239)
(0.00292508 -0.053874 0.0098791)
(0.00343765 -0.048011 0.00905021)
(0.00380023 -0.040679 0.00796468)
(0.00398022 -0.0318743 0.00674113)
(0.00397228 -0.0214404 0.00556401)
(0.00379335 -0.00902869 0.00461436)
(0.00346676 0.0056983 0.00398952)
(0.00300783 0.0225839 0.0036539)
(0.0024217 0.0403521 0.00345836)
(0.00171443 0.0559574 0.00321191)
(0.00104178 0.0642596 0.00278431)
(0.000461615 0.0607446 0.00205744)
(5.52753e-05 0.0337222 0.000867589)
(-4.43625e-05 0.00158418 0.000979402)
(-0.000233375 0.00108807 0.00232415)
(-0.000526995 -0.00110662 0.00322358)
(-0.000873504 -0.00450335 0.00380907)
(-0.00124404 -0.00878535 0.0041768)
(-0.00162141 -0.013666 0.00441224)
(-0.00199857 -0.0189038 0.00461718)
(-0.00236714 -0.0243267 0.00490847)
(-0.00271112 -0.0298505 0.00539049)
(-0.00300452 -0.0354667 0.00611443)
(-0.00321383 -0.041191 0.00704927)
(-0.00330593 -0.0469867 0.00808454)
(-0.00325895 -0.0527074 0.00907048)
(-0.00307024 -0.0580961 0.0098804)
(-0.00275572 -0.0628517 0.0104596)
(-0.00234114 -0.0667197 0.010831)
(-0.00185157 -0.0695507 0.0110617)
(-0.00130577 -0.0712933 0.0112215)
(-0.00071587 -0.0719388 0.0113593)
(-8.87289e-05 -0.0714541 0.011498)
(0.000572141 -0.0697265 0.0116302)
(0.00126075 -0.0665332 0.0117072)
(0.00195642 -0.0615856 0.0116172)
(0.00261235 -0.0546909 0.011199)
(0.00315708 -0.0458776 0.0103225)
(0.0035149 -0.0353457 0.00900727)
(0.00363977 -0.0232367 0.00747503)
(0.00353552 -0.00941861 0.00605495)
(0.00324289 0.0064127 0.00500264)
(0.0028075 0.0241874 0.00436169)
(0.00225535 0.0426609 0.00396492)
(0.00159432 0.058659 0.00357431)
(0.000968337 0.0668937 0.00305505)
(0.000425885 0.0629035 0.00226942)
(4.98621e-05 0.03469 0.000981384)
(-1.17198e-05 0.00173397 0.000865639)
(-0.000102932 0.00151363 0.00212174)
(-0.000306691 -0.000547732 0.00297106)
(-0.000578575 -0.00388069 0.00351437)
(-0.000893707 -0.00811772 0.00385919)
(-0.00123325 -0.0129609 0.00412648)
(-0.00158212 -0.018214 0.0044519)
(-0.00192108 -0.0237954 0.00495403)
(-0.0022231 -0.0297236 0.00568851)
(-0.00245423 -0.0360568 0.00660944)
(-0.00258045 -0.0427932 0.00756438)
(-0.00257934 -0.0497766 0.00834306)
(-0.00245096 -0.0566706 0.00877158)
(-0.00221872 -0.0630384 0.00879982)
(-0.00191911 -0.0684872 0.00851927)
(-0.00158668 -0.072786 0.00810178)
(-0.00124338 -0.0758821 0.00771521)
(-0.000897323 -0.0778266 0.00747647)
(-0.000546487 -0.0786806 0.00745099)
(-0.000182651 -0.0784492 0.00767111)
(0.000207436 -0.0770345 0.00814974)
(0.000642902 -0.0741759 0.00887425)
(0.00114251 -0.0694316 0.00976072)
(0.00170496 -0.0623096 0.0105747)
(0.00228422 -0.0525513 0.0109306)
(0.0027818 -0.040341 0.0104907)
(0.00308357 -0.0261827 0.00925854)
(0.00312607 -0.0104604 0.00764759)
(0.0029264 0.0068118 0.00619404)
(0.00254791 0.0255589 0.00519452)
(0.00204476 0.0446658 0.00457951)
(0.00143916 0.0609797 0.00407542)
(0.000869176 0.0691384 0.00348652)
(0.000374523 0.0647115 0.0026188)
(4.04386e-05 0.0354416 0.00115471)
(1.61242e-05 0.00131194 0.000739135)
(7.89396e-05 0.00098186 0.00185736)
(7.43795e-05 -0.00100371 0.00264464)
(1.50738e-05 -0.00422392 0.00318336)
(-8.6579e-05 -0.00836134 0.00358336)
(-0.000214726 -0.0131761 0.00396737)
(-0.000349393 -0.0185451 0.00444996)
(-0.00046394 -0.0244641 0.00509269)
(-0.000526668 -0.0309961 0.00585736)
(-0.000507087 -0.0381697 0.00658421)
(-0.000387078 -0.045856 0.00702884)
(-0.000172161 -0.0536998 0.00696815)
(0.000105188 -0.0611726 0.00632466)
(0.000402043 -0.0677422 0.00521913)
(0.000677004 -0.0730561 0.00390605)
(0.000901622 -0.077021 0.00264693)
(0.00106835 -0.0797393 0.00162222)
(0.00118011 -0.0813762 0.000927406)
(0.00124516 -0.0820634 0.000611902)
(0.00127635 -0.0818589 0.000710959)
(0.00129228 -0.0807229 0.00126172)
(0.00131962 -0.078458 0.00231255)
(0.00139656 -0.0746321 0.0039065)
(0.00157008 -0.0685319 0.00597229)
(0.00187142 -0.0593569 0.00812291)
(0.0022647 -0.0467151 0.009633)
(0.00262296 -0.0310195 0.00987461)
(0.002794 -0.0132244 0.0088952)
(0.00270713 0.00592002 0.007398)
(0.00239774 0.0259907 0.00610068)
(0.00193603 0.0459263 0.00523791)
(0.00136476 0.0626848 0.00460833)
(0.000827061 0.0708853 0.00395474)
(0.00035715 0.0661423 0.00299939)
(4.1393e-05 0.0359984 0.00133934)
(1.65866e-05 0.000409224 0.000713802)
(0.000167368 -0.000570417 0.00178304)
(0.000321134 -0.00270399 0.00257347)
(0.00045786 -0.00588813 0.00317806)
(0.000574055 -0.00996216 0.00370247)
(0.000682355 -0.0147994 0.00424495)
(0.00080912 -0.0203718 0.00486443)
(0.000988168 -0.0267313 0.00553084)
(0.00125066 -0.0339176 0.00609181)
(0.00161009 -0.0418252 0.00629776)
(0.00205055 -0.0501047 0.005907)
(0.00252658 -0.0581874 0.00482498)
(0.00297833 -0.0654468 0.00317827)
(0.00335478 -0.0714079 0.00126019)
(0.00362988 -0.0758824 -0.000613493)
(0.00380207 -0.0789539 -0.00222945)
(0.00388189 -0.0808424 -0.00349974)
(0.0038811 -0.0817664 -0.00440651)
(0.00380865 -0.0818838 -0.00494554)
(0.00367216 -0.0812855 -0.00509984)
(0.00348033 -0.0799847 -0.0048282)
(0.0032472 -0.0778899 -0.0040546)
(0.00299678 -0.0747292 -0.0026508)
(0.00276907 -0.0699133 -0.000453597)
(0.00262811 -0.0624376 0.00254732)
(0.00263728 -0.0511495 0.00582818)
(0.00277668 -0.0355562 0.00827404)
(0.00290187 -0.016473 0.00899042)
(0.00284697 0.00452971 0.0081967)
(0.00255961 0.0261451 0.00689162)
(0.00208797 0.0470228 0.00581431)
(0.0014872 0.0642247 0.00503381)
(0.00091897 0.0724651 0.00430786)
(0.000415658 0.0674582 0.00327781)
(5.95607e-05 0.0365548 0.00146849)
(-5.86391e-06 -0.000497476 0.000857157)
(9.14158e-05 -0.0025043 0.00208946)
(0.000215379 -0.00514292 0.00302988)
(0.000358644 -0.00860658 0.00381666)
(0.000526532 -0.0129411 0.00455326)
(0.000743522 -0.0181849 0.00528555)
(0.00104818 -0.0244107 0.00595907)
(0.00147583 -0.031652 0.0063919)
(0.00203578 -0.0397696 0.00631939)
(0.00269589 -0.0483571 0.00552406)
(0.003387 -0.0567855 0.00397952)
(0.00402765 -0.064383 0.0018984)
(0.00455498 -0.0706455 -0.000358584)
(0.00494359 -0.0753614 -0.0024483)
(0.00520332 -0.0786005 -0.00417308)
(0.0053614 -0.080591 -0.00549541)
(0.00544465 -0.0815753 -0.00646455)
(0.0054715 -0.0817364 -0.00714303)
(0.00545018 -0.0811935 -0.00757439)
(0.00538141 -0.0800168 -0.00777494)
(0.00526162 -0.0782174 -0.00772561)
(0.0050865 -0.0757493 -0.00736895)
(0.00485342 -0.0724638 -0.00658706)
(0.00456658 -0.0680085 -0.00516412)
(0.00424096 -0.0616559 -0.00279674)
(0.00392942 -0.0521698 0.000636775)
(0.00371277 -0.0381834 0.00448147)
(0.00358788 -0.0193704 0.00727325)
(0.00342141 0.00279627 0.00804644)
(0.00307933 0.0260336 0.00731853)
(0.00253891 0.0481575 0.00621101)
(0.00183906 0.066033 0.00527486)
(0.00116743 0.0744474 0.00445497)
(0.000557112 0.0692498 0.00336341)
(8.9675e-05 0.0374904 0.0014839)
(-4.21893e-05 -0.000842786 0.00110348)
(-0.000100099 -0.0036824 0.00273419)
(-0.000154058 -0.0070244 0.00401715)
(-0.000163138 -0.0111567 0.00510558)
(-8.54066e-05 -0.0163024 0.00604197)
(0.000126576 -0.022632 0.0067192)
(0.000510044 -0.0301815 0.00688647)
(0.0010666 -0.0387195 0.00626216)
(0.00174593 -0.0476991 0.00472393)
(0.00245795 -0.0563816 0.00243907)
(0.00310858 -0.0640771 -0.000178246)
(0.0036352 -0.0703492 -0.00265451)
(0.00402242 -0.0750838 -0.00465673)
(0.00429378 -0.0784194 -0.00608208)
(0.004489 -0.0806005 -0.00700569)
(0.00464434 -0.0818506 -0.00756652)
(0.00478495 -0.0823229 -0.0078904)
(0.00492467 -0.0821073 -0.00806707)
(0.00506789 -0.0812504 -0.00815218)
(0.00521115 -0.0797628 -0.00817197)
(0.00534426 -0.0776066 -0.00812094)
(0.00545207 -0.0746999 -0.0079642)
(0.00551152 -0.0708917 -0.0076221)
(0.00549311 -0.0659184 -0.00693516)
(0.00536652 -0.0593168 -0.00561477)
(0.0051162 -0.0502684 -0.00326868)
(0.00477385 -0.0374904 0.000225869)
(0.00441406 -0.0198261 0.00399843)
(0.0040465 0.00232621 0.0064383)
(0.00357967 0.02661 0.00689154)
(0.00294286 0.0499441 0.00616521)
(0.00213414 0.0686075 0.00520275)
(0.00135849 0.077268 0.00430343)
(0.000650055 0.0718497 0.00316536)
(9.4403e-05 0.0389249 0.00131759)
(-5.22579e-05 -0.000627976 0.00130213)
(-0.000210783 -0.00381845 0.00340433)
(-0.00041589 -0.0079212 0.00506707)
(-0.000570447 -0.0131547 0.00629708)
(-0.000593488 -0.0197481 0.00692784)
(-0.000435129 -0.0277273 0.00665894)
(-9.55914e-05 -0.0367457 0.00525906)
(0.00036631 -0.0460973 0.00281684)
(0.000856288 -0.0549524 -0.000190019)
(0.00128948 -0.0626625 -0.00309864)
(0.00162576 -0.0689368 -0.00538036)
(0.00187376 -0.0738152 -0.00683865)
(0.00206992 -0.0775144 -0.0075776)
(0.00225349 -0.0802621 -0.00782974)
(0.00245293 -0.0822133 -0.00781372)
(0.00268403 -0.0834493 -0.00768386)