/*--------------------------------*- C++ -*----------------------------------*\
| =========                 |                                                 |
| \\      /  F ield         | OpenFOAM: The Open Source CFD Toolbox           |
|  \\    /   O peration     | Version:  v2012                                 |
|   \\  /    A nd           | Website:  www.openfoam.com                      |
|    \\/     M anipulation  |                                                 |
\*---------------------------------------------------------------------------*/
FoamFile
{
    version     2.0;
    format      ascii;
    class       volScalarField;
    location    "1000";
    object      epsilon;
}
// * * * * * * * * * * * * * * * * * * * * * * * * * * * * * * * * * * * * * //

dimensions      [0 2 -3 0 0 0 0];


internalField   nonuniform List<scalar> 
4000
(
1.03204e-07
6.66363e-08
6.11329e-08
5.54519e-08
4.72585e-08
4.43449e-08
4.37671e-08
4.57943e-08
4.92415e-08
5.23543e-08
5.34508e-08
5.13909e-08
4.73531e-08
4.31896e-08
4.02493e-08
3.99518e-08
4.47836e-08
4.96795e-08
8.24546e-08
1.9006e-07
4.39181e-07
3.43499e-07
2.15057e-07
1.10878e-07
8.08962e-08
8.44612e-08
8.93904e-08
9.46894e-08
9.66684e-08
9.78889e-08
9.42297e-08
8.47567e-08
7.38197e-08
6.48161e-08
6.30105e-08
6.10777e-08
1.01277e-07
2.20273e-07
3.5708e-07
4.81959e-07
6.11822e-07
5.41137e-07
4.22706e-07
2.82421e-07
1.77425e-07
1.02794e-07
9.43887e-08
1.07267e-07
1.14564e-07
1.2282e-07
1.15605e-07
9.70588e-08
8.02916e-08
6.79108e-08
1.00117e-07
1.81356e-07
2.64202e-07
3.80788e-07
5.08637e-07
6.25403e-07
7.07113e-07
6.65333e-07
5.55317e-07
4.17062e-07
2.82186e-07
1.96863e-07
1.40355e-07
1.02144e-07
1.02214e-07
1.28864e-07
1.20465e-07
8.8735e-08
8.20867e-08
1.16895e-07
1.63194e-07
2.34315e-07
3.43024e-07
4.7834e-07
6.23514e-07
7.13305e-07
7.75618e-07
7.74872e-07
7.07605e-07
6.00408e-07
4.98427e-07
4.25263e-07
3.66755e-07
3.10431e-07
2.49394e-07
2.01041e-07
1.91734e-07
2.06964e-07
2.36334e-07
2.83491e-07
3.5062e-07
4.27464e-07
5.24479e-07
6.39168e-07
7.42156e-07
7.7896e-07
8.34505e-07
8.85266e-07
8.87819e-07
8.65788e-07
8.40346e-07
8.1392e-07
7.78369e-07
7.26501e-07
6.56128e-07
5.80374e-07
5.6454e-07
5.93235e-07
6.31715e-07
6.73988e-07
7.17161e-07
7.60073e-07
8.02711e-07
8.44439e-07
8.69182e-07
8.37858e-07
8.95346e-07
1.00622e-06
1.09142e-06
1.15597e-06
1.20686e-06
1.23593e-06
1.23471e-06
1.19957e-06
1.1302e-06
1.02974e-06
9.90029e-07
1.02068e-06
1.05512e-06
1.08308e-06
1.09972e-06
1.10091e-06
1.08567e-06
1.05489e-06
9.99596e-07
8.95052e-07
9.64526e-07
1.14266e-06
1.31135e-06
1.45603e-06
1.57762e-06
1.66604e-06
1.71268e-06
1.70462e-06
1.63443e-06
1.49917e-06
1.42914e-06
1.46596e-06
1.49672e-06
1.50528e-06
1.48663e-06
1.44045e-06
1.36666e-06
1.26698e-06
1.13405e-06
9.56163e-07
1.05229e-06
1.31702e-06
1.57513e-06
1.8057e-06
2.00874e-06
2.16972e-06
2.27426e-06
2.30187e-06
2.23231e-06
2.05206e-06
1.9396e-06
1.98874e-06
2.01263e-06
1.99337e-06
1.93054e-06
1.82729e-06
1.68638e-06
1.51194e-06
1.29555e-06
1.03487e-06
1.17465e-06
1.54456e-06
1.90608e-06
2.22169e-06
2.4991e-06
2.73249e-06
2.90846e-06
3.00712e-06
2.99916e-06
2.84761e-06
2.68194e-06
2.7128e-06
2.68251e-06
2.59447e-06
2.45818e-06
2.28122e-06
2.06727e-06
1.81336e-06
1.50221e-06
1.14409e-06
6.66363e-08
7.46453e-08
8.28653e-08
9.19056e-08
8.83552e-08
8.19401e-08
8.00007e-08
8.30564e-08
8.8047e-08
9.06963e-08
8.89003e-08
8.23101e-08
7.41603e-08
6.83138e-08
6.49988e-08
7.07605e-08
8.09309e-08
7.28687e-08
1.00639e-07
1.76568e-07
3.43499e-07
3.08115e-07
1.97516e-07
1.52138e-07
1.12864e-07
9.59844e-08
9.51091e-08
9.46842e-08
9.28085e-08
8.92108e-08
8.37088e-08
7.67198e-08
7.14513e-08
7.32112e-08
8.20646e-08
1.10097e-07
1.99382e-07
3.08845e-07
4.74438e-07
4.77708e-07
5.41137e-07
6.02148e-07
4.59814e-07
3.15418e-07
2.30697e-07
1.65129e-07
1.21655e-07
1.03778e-07
9.94412e-08
9.50944e-08
8.78953e-08
8.07206e-08
8.15129e-08
1.0983e-07
1.74779e-07
2.45499e-07
3.14992e-07
4.47936e-07
6.03793e-07
6.31155e-07
6.65333e-07
6.63281e-07
5.81864e-07
4.19367e-07
2.82856e-07
2.05321e-07
1.6176e-07
1.35129e-07
1.25758e-07
1.13904e-07
1.01638e-07
9.66819e-08
1.08124e-07
1.33549e-07
1.71655e-07
2.33945e-07
3.3148e-07
4.8178e-07
6.37782e-07
7.31211e-07
7.74872e-07
7.10419e-07
6.65206e-07
5.62595e-07
4.14673e-07
3.1079e-07
2.44338e-07
1.97924e-07
1.66245e-07
1.50254e-07
1.46244e-07
1.42699e-07
1.57648e-07
1.97224e-07
2.54811e-07
3.2643e-07
4.41712e-07
5.78503e-07
7.03209e-07
8.14157e-07
8.85266e-07
7.91227e-07
7.71756e-07
7.32099e-07
6.66048e-07
5.57816e-07
4.68972e-07
3.97131e-07
3.36763e-07
3.01313e-07
2.97808e-07
3.05424e-07
3.27613e-07
3.72127e-07
4.34595e-07
5.33353e-07
6.29467e-07
7.16495e-07
7.88428e-07
8.95854e-07
1.00622e-06
9.06137e-07
9.06998e-07
9.16795e-07
9.31705e-07
8.96748e-07
8.0016e-07
6.79527e-07
5.64669e-07
5.05134e-07
4.89064e-07
5.00741e-07
5.31828e-07
5.97458e-07
6.9256e-07
7.75552e-07
8.24352e-07
8.54485e-07
8.84868e-07
9.88805e-07
1.14266e-06
1.08955e-06
1.12696e-06
1.17313e-06
1.25281e-06
1.3058e-06
1.3121e-06
1.26321e-06
1.14733e-06
9.64936e-07
9.0737e-07
9.51538e-07
1.01679e-06
1.06094e-06
1.07747e-06
1.07707e-06
1.05559e-06
1.0475e-06
1.04544e-06
1.10699e-06
1.31702e-06
1.44518e-06
1.61887e-06
1.78031e-06
1.95526e-06
2.10877e-06
2.20513e-06
2.19644e-06
2.05006e-06
1.75745e-06
1.63079e-06
1.73732e-06
1.8056e-06
1.81534e-06
1.77354e-06
1.69734e-06
1.59787e-06
1.49787e-06
1.37698e-06
1.25877e-06
1.54456e-06
2.00994e-06
2.4798e-06
2.91395e-06
3.32273e-06
3.69341e-06
3.99622e-06
4.18844e-06
4.21484e-06
4.02966e-06
3.75717e-06
3.76325e-06
3.67845e-06
3.50793e-06
3.27129e-06
2.98783e-06
2.66924e-06
2.31398e-06
1.90187e-06
1.4495e-06
6.11329e-08
8.28653e-08
1.00751e-07
1.1487e-07
1.12232e-07
1.07334e-07
1.07155e-07
1.11087e-07
1.15944e-07
1.17021e-07
1.12069e-07
1.01766e-07
9.06547e-08
8.38672e-08
8.13122e-08
8.8665e-08
1.03229e-07
8.6569e-08
8.89258e-08
1.34475e-07
2.15057e-07
1.97516e-07
1.69868e-07
1.58618e-07
1.27082e-07
1.14424e-07
1.12312e-07
1.10587e-07
1.08835e-07
1.05434e-07
9.87739e-08
8.93563e-08
8.24447e-08
8.46013e-08
9.54736e-08
1.2516e-07
2.10348e-07
3.00098e-07
4.3251e-07
4.35965e-07
4.22706e-07
4.59814e-07
3.64923e-07
2.90241e-07
2.3784e-07
1.86085e-07
1.4315e-07
1.22349e-07
1.14211e-07
1.0679e-07
9.71713e-08
8.91862e-08
9.44034e-08
1.30188e-07
2.04779e-07
2.76045e-07
3.36044e-07
4.48922e-07
5.88797e-07
5.97666e-07
5.55317e-07
5.81864e-07
4.99883e-07
3.65772e-07
2.72193e-07
2.19813e-07
1.90396e-07
1.67547e-07
1.46157e-07
1.26452e-07
1.11354e-07
1.0728e-07
1.25511e-07
1.53013e-07
1.88601e-07
2.44624e-07
3.30739e-07
4.71333e-07
6.25479e-07
7.1397e-07
7.07605e-07
6.65206e-07
5.86921e-07
4.66377e-07
3.41136e-07
2.5872e-07
2.08175e-07
1.77835e-07
1.6443e-07
1.61258e-07
1.52628e-07
1.3882e-07
1.43888e-07
1.71123e-07
2.12855e-07
2.72347e-07
3.74161e-07
5.29631e-07
6.93549e-07
8.23969e-07
8.87819e-07
7.71756e-07
6.67996e-07
5.65286e-07
4.59656e-07
3.66624e-07
2.98669e-07
2.46994e-07
2.09649e-07
1.92989e-07
1.91385e-07
1.87956e-07
1.99328e-07
2.33053e-07
2.81995e-07
3.56888e-07
4.66867e-07
6.2679e-07
7.91632e-07
9.4419e-07
1.09142e-06
9.06998e-07
7.87907e-07
6.72689e-07
5.80594e-07
5.08771e-07
4.37669e-07
3.7005e-07
3.11955e-07
2.77608e-07
2.67238e-07
2.70004e-07
2.8702e-07
3.25658e-07
3.83027e-07
4.54521e-07
5.67426e-07
7.45724e-07
9.16403e-07
1.08703e-06
1.31135e-06
1.12696e-06
1.05126e-06
9.37209e-07
8.05279e-07
7.55068e-07
7.30709e-07
6.86424e-07
6.12588e-07
5.22347e-07
4.80293e-07
4.99505e-07
5.36913e-07
5.76415e-07
6.14468e-07
6.63426e-07
8.20372e-07
9.85094e-07
1.12245e-06
1.26093e-06
1.57513e-06
1.61887e-06
1.83588e-06
2.05949e-06
2.3234e-06
2.54281e-06
2.6792e-06
2.62955e-06
2.33434e-06
1.87016e-06
1.67641e-06
1.83298e-06
1.98303e-06
2.0484e-06
2.04196e-06
2.00139e-06
1.88068e-06
1.73406e-06
1.57508e-06
1.49067e-06
1.90608e-06
2.4798e-06
3.05036e-06
3.59162e-06
4.1248e-06
4.63527e-06
5.07626e-06
5.38145e-06
5.46312e-06
5.24587e-06
4.84664e-06
4.82109e-06
4.66818e-06
4.40301e-06
4.05848e-06
3.66804e-06
3.25101e-06
2.80305e-06
2.2997e-06
1.75236e-06
5.54519e-08
9.19056e-08
1.1487e-07
1.24917e-07
1.24647e-07
1.25501e-07
1.29716e-07
1.3607e-07
1.41014e-07
1.39891e-07
1.30373e-07
1.15226e-07
1.0126e-07
9.42194e-08
9.23519e-08
9.80723e-08
1.15427e-07
9.87857e-08
7.92878e-08
8.45363e-08
1.10878e-07
1.52138e-07
1.58618e-07
1.47791e-07
1.30899e-07
1.28607e-07
1.28222e-07
1.2947e-07
1.30981e-07
1.2987e-07
1.20082e-07
1.04287e-07
9.28805e-08
9.20859e-08
1.01862e-07
1.20891e-07
1.8643e-07
2.46995e-07
3.23206e-07
3.54989e-07
2.82421e-07
3.15418e-07
2.90241e-07
2.61667e-07
2.27299e-07
1.8413e-07
1.51026e-07
1.36869e-07
1.31047e-07
1.24818e-07
1.11182e-07
9.85948e-08
1.00859e-07
1.31062e-07
2.01821e-07
2.74827e-07
3.21648e-07
3.95023e-07
5.08666e-07
5.13596e-07
4.17062e-07
4.19367e-07
3.65772e-07
3.00534e-07
2.54831e-07
2.29332e-07
2.06982e-07
1.79804e-07
1.57492e-07
1.42368e-07
1.23689e-07
1.14484e-07
1.3122e-07
1.62696e-07
1.97086e-07
2.4622e-07
3.1983e-07
4.37143e-07
5.73009e-07
6.37042e-07
6.00408e-07
5.62595e-07
4.66377e-07
3.68223e-07
2.88156e-07
2.35675e-07
2.03924e-07
1.87279e-07
1.80996e-07
1.77987e-07
1.60582e-07
1.42133e-07
1.42775e-07
1.63673e-07
1.98446e-07
2.51778e-07
3.43024e-07
4.88547e-07
6.62039e-07
7.76917e-07
8.65787e-07
7.32099e-07
5.65286e-07
4.42333e-07
3.4913e-07
2.80816e-07
2.32728e-07
1.98095e-07
1.76921e-07
1.73151e-07
1.75962e-07
1.65928e-07
1.67111e-07
1.89521e-07
2.26536e-07
2.86014e-07
3.9048e-07
5.64744e-07
7.80635e-07
9.45026e-07
1.15597e-06
9.16795e-07
6.72689e-07
5.11953e-07
4.17817e-07
3.56713e-07
3.09977e-07
2.70669e-07
2.38835e-07
2.20906e-07
2.17879e-07
2.18115e-07
2.26026e-07
2.48434e-07
2.82305e-07
3.35237e-07
4.45634e-07
6.71893e-07
9.29182e-07
1.14716e-06
1.45603e-06
1.17313e-06
9.37209e-07
7.14282e-07
6.61005e-07
6.74753e-07
7.01364e-07
6.96119e-07
6.35229e-07
5.36236e-07
4.85447e-07
5.15368e-07
5.62773e-07
5.90561e-07
5.92368e-07
5.92652e-07
6.71035e-07
9.4932e-07
1.17548e-06
1.38506e-06
1.8057e-06
1.78031e-06
2.05949e-06
2.35468e-06
2.70788e-06
3.23103e-06
3.64279e-06
3.7173e-06
3.36951e-06
2.76103e-06
2.48827e-06
2.70993e-06
2.90342e-06
2.90012e-06
2.71035e-06
2.42104e-06
2.28333e-06
2.02513e-06
1.73932e-06
1.68907e-06
2.22169e-06
2.91395e-06
3.59162e-06
4.24638e-06
4.92269e-06
5.60938e-06
6.23102e-06
6.69535e-06
6.90443e-06
6.7524e-06
6.18575e-06
6.04532e-06
5.7623e-06
5.35563e-06
4.86646e-06
4.33563e-06
3.80322e-06
3.25388e-06
2.65315e-06
2.00745e-06
4.72585e-08
8.83552e-08
1.12232e-07
1.24647e-07
1.32505e-07
1.41148e-07
1.51399e-07
1.61909e-07
1.68408e-07
1.64446e-07
1.47859e-07
1.2579e-07
1.09677e-07
1.02935e-07
1.01111e-07
1.04089e-07
1.17338e-07
1.10772e-07
8.07218e-08
6.39237e-08
8.08962e-08
1.12864e-07
1.27082e-07
1.30899e-07
1.34838e-07
1.38663e-07
1.43573e-07
1.51651e-07
1.614e-07
1.63809e-07
1.45972e-07
1.20767e-07
1.04283e-07
9.96217e-08
1.05275e-07
1.15736e-07
1.5149e-07
1.94204e-07
2.28695e-07
2.55818e-07
1.77425e-07
2.30697e-07
2.3784e-07
2.27299e-07
2.00422e-07
1.70993e-07
1.5456e-07
1.51478e-07
1.56296e-07
1.52051e-07
1.29627e-07
1.08047e-07
1.03446e-07
1.22561e-07
1.75411e-07
2.45746e-07
2.89082e-07
3.18952e-07
3.75308e-07
4.01743e-07
2.82186e-07
2.82856e-07
2.72193e-07
2.54831e-07
2.43507e-07
2.30219e-07
2.05794e-07
1.82237e-07
1.74545e-07
1.65984e-07
1.38623e-07
1.18567e-07
1.2847e-07
1.61072e-07
1.9501e-07
2.32073e-07
2.84831e-07
3.63977e-07
4.71563e-07
5.16628e-07
4.98427e-07
4.14673e-07
3.41136e-07
2.88156e-07
2.48928e-07
2.23171e-07
2.08293e-07
2.01064e-07
2.01573e-07
2.05475e-07
1.77493e-07
1.46229e-07
1.42135e-07
1.59058e-07
1.89293e-07
2.35127e-07
3.10781e-07
4.31754e-07
5.90262e-07
6.88702e-07
8.40346e-07
6.66048e-07
4.59656e-07
3.4913e-07
2.81438e-07
2.36122e-07
2.04946e-07
1.85381e-07
1.81796e-07
2.01157e-07
2.12334e-07
1.79258e-07
1.6239e-07
1.74007e-07
2.03703e-07
2.55247e-07
3.48367e-07
5.06925e-07
7.38077e-07
9.14541e-07
1.20686e-06
9.31705e-07
5.80594e-07
4.17817e-07
3.37206e-07
2.92405e-07
2.63699e-07
2.43772e-07
2.33477e-07
2.40987e-07
2.58237e-07
2.48909e-07
2.33726e-07
2.3614e-07
2.53371e-07
2.93792e-07
3.90407e-07
5.94873e-07
9.10303e-07
1.17456e-06
1.57762e-06
1.25281e-06
8.0528e-07
6.61005e-07
6.73904e-07
7.42672e-07
8.11519e-07
8.26254e-07
7.59076e-07
6.50211e-07
6.0291e-07
6.52291e-07
7.11491e-07
7.20898e-07
6.8296e-07
6.33356e-07
6.47114e-07
8.72789e-07
1.19958e-06
1.47349e-06
2.00874e-06
1.95526e-06
2.3234e-06
2.70788e-06
3.51373e-06
4.37159e-06
4.96486e-06
5.01341e-06
4.44199e-06
3.63063e-06
3.30394e-06
3.65634e-06
3.9931e-06
3.99208e-06
3.66004e-06
3.11602e-06
2.64171e-06
2.26726e-06
1.87123e-06
1.84628e-06
2.4991e-06
3.32273e-06
4.1248e-06
4.92269e-06
5.80425e-06
6.71045e-06
7.55466e-06
8.24239e-06
8.66712e-06
8.69357e-06
7.88024e-06
7.52981e-06
7.04142e-06
6.43712e-06
5.75818e-06
5.04595e-06
4.34795e-06
3.67341e-06
2.96724e-06
2.22024e-06
4.43449e-08
8.19401e-08
1.07334e-07
1.25501e-07
1.41148e-07
1.57432e-07
1.75121e-07
1.92748e-07
2.04046e-07
1.9612e-07
1.67807e-07
1.36147e-07
1.18585e-07
1.11527e-07
1.09153e-07
1.10006e-07
1.15821e-07
1.15141e-07
9.14223e-08
6.20379e-08
8.44612e-08
9.59844e-08
1.14424e-07
1.28607e-07
1.38663e-07
1.48773e-07
1.63003e-07
1.84376e-07
2.09619e-07
2.14219e-07
1.79173e-07
1.40526e-07
1.18141e-07
1.09315e-07
1.09589e-07
1.14956e-07
1.26766e-07
1.50725e-07
1.65824e-07
1.77887e-07
1.02794e-07
1.65129e-07
1.86085e-07
1.8413e-07
1.70993e-07
1.61354e-07
1.62117e-07
1.78864e-07
2.0587e-07
1.97094e-07
1.55226e-07
1.21033e-07
1.0852e-07
1.15712e-07
1.44268e-07
1.97907e-07
2.45912e-07
2.60812e-07
2.6825e-07
2.82556e-07
1.96863e-07
2.05321e-07
2.19813e-07
2.29332e-07
2.30219e-07
2.15398e-07
1.95189e-07
1.94246e-07
2.22243e-07
2.16385e-07
1.62325e-07
1.24286e-07
1.23749e-07
1.5075e-07
1.85817e-07
2.12923e-07
2.40977e-07
2.79903e-07
3.34167e-07
3.87285e-07
4.25263e-07
3.1079e-07
2.5872e-07
2.35675e-07
2.23171e-07
2.16417e-07
2.12977e-07
2.15954e-07
2.46771e-07
2.71764e-07
2.05176e-07
1.49682e-07
1.40068e-07
1.53664e-07
1.77723e-07
2.11673e-07
2.63118e-07
3.45314e-07
4.76493e-07
5.89524e-07
8.1392e-07
5.57816e-07
3.66624e-07
2.80816e-07
2.36122e-07
2.09119e-07
1.93444e-07
1.92005e-07
2.22169e-07
2.98744e-07
2.82756e-07
1.96467e-07
1.60881e-07
1.6428e-07
1.88123e-07
2.30921e-07
3.05366e-07
4.33926e-07
6.60517e-07
8.65802e-07
1.23593e-06
8.96748e-07
5.08771e-07
3.56713e-07
2.92405e-07
2.63196e-07
2.50561e-07
2.50171e-07
2.72548e-07
3.39534e-07
3.70568e-07
3.03833e-07
2.53668e-07
2.38776e-07
2.45521e-07
2.76808e-07
3.54113e-07
5.1983e-07
8.65468e-07
1.1745e-06
1.66604e-06
1.3058e-06
7.55068e-07
6.74753e-07
7.42672e-07
8.559e-07
9.48406e-07
9.59237e-07
8.77219e-07
7.91786e-07
7.55808e-07
7.95308e-07
8.51949e-07
8.48543e-07
7.82713e-07
6.98779e-07
6.62411e-07
7.52874e-07
1.21296e-06
1.52415e-06
2.16972e-06
2.10877e-06
2.54281e-06
3.23103e-06
4.37159e-06
5.41847e-06
6.02189e-06
5.89139e-06
5.09093e-06
4.32536e-06
3.95919e-06
4.37421e-06
4.89482e-06
4.94781e-06
4.50482e-06
3.77054e-06
2.99427e-06
2.46572e-06
1.96831e-06
1.95493e-06
2.73249e-06
3.69341e-06
4.63527e-06
5.60938e-06
6.71045e-06
7.85334e-06
8.96721e-06
9.97838e-06
1.07923e-05
1.1222e-05
1.00152e-05
9.26643e-06
8.4434e-06
7.56415e-06
6.65185e-06
5.73741e-06
4.85826e-06
4.04644e-06
3.23342e-06
2.38853e-06
4.37671e-08
8.00007e-08
1.07155e-07
1.29716e-07
1.51399e-07
1.75121e-07
2.0263e-07
2.33036e-07
2.56294e-07
2.44421e-07
1.93115e-07
1.47807e-07
1.28344e-07
1.19511e-07
1.1561e-07
1.14658e-07
1.15979e-07
1.13563e-07
9.54357e-08
6.47681e-08
8.93904e-08
9.51091e-08
1.12312e-07
1.28222e-07
1.43573e-07
1.63003e-07
1.92224e-07
2.3613e-07
2.88755e-07
2.99082e-07
2.29531e-07
1.66384e-07
1.34788e-07
1.20104e-07
1.15049e-07
1.14818e-07
1.17925e-07
1.23387e-07
1.22885e-07
1.14909e-07
9.43887e-08
1.21655e-07
1.4315e-07
1.51026e-07
1.5456e-07
1.62117e-07
1.8472e-07
2.37017e-07
3.094e-07
2.98802e-07
2.09167e-07
1.45832e-07
1.20906e-07
1.15547e-07
1.24195e-07
1.49001e-07
1.87585e-07
2.10225e-07
2.03272e-07
1.95234e-07
1.40355e-07
1.6176e-07
1.90396e-07
2.06982e-07
2.05794e-07
1.95189e-07
1.98731e-07
2.50683e-07
3.69073e-07
3.81495e-07
2.43946e-07
1.50541e-07
1.28664e-07
1.39202e-07
1.67981e-07
1.96109e-07
2.08717e-07
2.17247e-07
2.34268e-07
2.74199e-07
3.66755e-07
2.44338e-07
2.08175e-07
2.03924e-07
2.08293e-07
2.12977e-07
2.20987e-07
2.66937e-07
4.37836e-07
5.57749e-07
3.32115e-07
1.7621e-07
1.44418e-07
1.51438e-07
1.67576e-07
1.87988e-07
2.15484e-07
2.60139e-07
3.46781e-07
4.93749e-07
7.78369e-07
4.68972e-07
2.98669e-07
2.32728e-07
2.04946e-07
1.93444e-07
1.96736e-07
2.38799e-07
4.12965e-07
7.45032e-07
4.99148e-07
2.33717e-07
1.63253e-07
1.57405e-07
1.73542e-07
2.04205e-07
2.56003e-07
3.509e-07
5.5486e-07
8.05265e-07
1.23471e-06
8.0016e-07
4.37669e-07
3.09977e-07
2.63699e-07
2.50561e-07
2.5747e-07
2.97726e-07
4.55581e-07
8.38627e-07
6.93939e-07
3.73828e-07
2.69698e-07
2.41855e-07
2.40796e-07
2.61731e-07
3.18035e-07
4.49517e-07
7.94892e-07
1.14787e-06
1.71268e-06
1.3121e-06
7.30709e-07
7.01364e-07
8.11519e-07
9.48406e-07
1.03942e-06
1.04501e-06
1.0482e-06
1.27352e-06
1.11432e-06
9.02164e-07
9.28471e-07
9.28414e-07
8.52322e-07
7.44243e-07
6.67477e-07
6.86421e-07
1.18926e-06
1.53119e-06
2.27426e-06
2.20513e-06
2.67919e-06
3.64279e-06
4.96486e-06
6.02189e-06
6.44575e-06
6.10248e-06
5.53573e-06
5.62196e-06
5.02352e-06
4.86614e-06
5.43221e-06
5.61573e-06
5.12755e-06
4.21075e-06
3.19653e-06
2.45037e-06
1.97839e-06
2.00143e-06
2.90846e-06
3.99622e-06
5.07626e-06
6.23102e-06
7.55466e-06
8.96721e-06
1.04397e-05
1.19678e-05
1.35271e-05
1.48528e-05
1.29575e-05
1.13755e-05
9.97124e-06
8.69554e-06
7.49377e-06
6.35212e-06
5.28743e-06
4.3397e-06
3.4325e-06
2.50544e-06
4.57943e-08
8.30563e-08
1.11087e-07
1.3607e-07
1.61909e-07
1.92748e-07
2.33036e-07
2.84272e-07
3.3005e-07
3.16336e-07
2.2175e-07
1.61543e-07
1.38336e-07
1.2532e-07
1.18304e-07
1.1504e-07
1.13767e-07
1.09568e-07
9.31205e-08
6.1651e-08
9.46894e-08
9.46842e-08
1.10587e-07
1.2947e-07
1.51651e-07
1.84376e-07
2.3613e-07
3.1517e-07
4.14363e-07
4.79681e-07
3.1578e-07
2.03435e-07
1.55679e-07
1.30802e-07
1.1962e-07
1.14295e-07
1.11246e-07
1.08049e-07
9.79402e-08
7.99803e-08
1.07267e-07
1.03778e-07
1.22349e-07
1.36869e-07
1.51478e-07
1.78864e-07
2.37017e-07
3.55022e-07
5.6059e-07
8.33236e-07
4.91014e-07
2.13089e-07
1.46917e-07
1.20813e-07
1.13469e-07
1.17024e-07
1.30034e-07
1.45006e-07
1.42163e-07
1.21683e-07
1.02144e-07
1.35129e-07
1.67547e-07
1.79804e-07
1.82237e-07
1.94246e-07
2.50683e-07
4.31743e-07
8.97649e-07
1.48807e-06
8.85801e-07
2.92307e-07
1.71628e-07
1.3682e-07
1.40333e-07
1.61596e-07
1.79632e-07
1.76666e-07
1.70512e-07
1.95576e-07
3.10431e-07
1.97924e-07
1.77835e-07
1.87279e-07
2.01064e-07
2.15954e-07
2.66937e-07
5.00993e-07
1.30732e-06
2.51146e-06
1.53048e-06
4.15645e-07
1.95194e-07
1.59889e-07
1.63057e-07
1.70211e-07
1.79643e-07
2.00527e-07
2.62081e-07
4.14491e-07
7.26501e-07
3.97131e-07
2.46994e-07
1.98095e-07
1.85381e-07
1.92005e-07
2.38799e-07
4.78209e-07
1.50562e-06
3.65494e-06
2.27292e-06
5.38083e-07
2.04736e-07
1.61692e-07
1.63903e-07
1.79383e-07
2.09548e-07
2.73754e-07
4.37642e-07
7.37569e-07
1.19957e-06
6.79527e-07
3.7005e-07
2.70669e-07
2.43772e-07
2.50171e-07
2.97726e-07
5.27051e-07
1.63074e-06
4.40519e-06
2.90173e-06
7.33709e-07
3.14104e-07
2.49758e-07
2.3744e-07
2.44439e-07
2.78907e-07
3.80182e-07
6.9912e-07
1.09709e-06
1.70462e-06
1.26321e-06
6.86423e-07
6.96119e-07
8.26254e-07
9.59237e-07
1.04501e-06
1.18048e-06
2.07315e-06
5.24062e-06
3.55792e-06
1.20336e-06
9.31828e-07
9.24945e-07
8.59928e-07
7.44953e-07
6.41228e-07
6.18331e-07
1.11961e-06
1.49508e-06
2.30187e-06
2.19644e-06
2.62955e-06
3.7173e-06
5.0134e-06
5.89139e-06
6.10248e-06
6.01089e-06
6.83301e-06
9.50853e-06
8.16003e-06
5.50203e-06
5.34578e-06
5.62884e-06
5.24871e-06
4.31649e-06
3.18739e-06
2.29256e-06
1.90538e-06
1.98438e-06
3.00712e-06
4.18844e-06
5.38145e-06
6.69535e-06
8.24239e-06
9.97838e-06
1.19678e-05
1.43602e-05
1.73046e-05
2.04317e-05
1.73509e-05
1.40644e-05
1.16231e-05
9.75414e-06
8.19447e-06
6.81474e-06
5.57719e-06
4.51648e-06
3.53815e-06
2.55746e-06
4.92415e-08
8.8047e-08
1.15944e-07
1.41014e-07
1.68408e-07
2.04046e-07
2.56294e-07
3.3005e-07
3.94295e-07
4.0297e-07
2.54475e-07
1.76112e-07
1.4989e-07
1.2901e-07
1.16925e-07
1.10461e-07
1.0693e-07
1.01779e-07
8.69741e-08
5.71297e-08
9.66684e-08
9.28085e-08
1.08835e-07
1.30981e-07
1.614e-07
2.09619e-07
2.88755e-07
4.14363e-07
6.25692e-07
1.9503e-06
1.22691e-06
3.01381e-07
1.94102e-07
1.48272e-07
1.27357e-07
1.16577e-07
1.08682e-07
9.93564e-08
8.34977e-08
5.99476e-08
1.14564e-07
9.94412e-08
1.14211e-07
1.31047e-07
1.56296e-07
2.0587e-07
3.094e-07
5.6059e-07
1.43126e-06
5.96775e-06
4.25138e-06
6.11891e-07
2.08196e-07
1.27616e-07
1.07274e-07
1.00336e-07
9.7571e-08
9.72983e-08
9.03671e-08
7.45562e-08
1.02214e-07
1.25758e-07
1.46157e-07
1.57492e-07
1.74545e-07
2.22243e-07
3.69073e-07
8.97649e-07
2.72882e-06
1.08811e-05
8.34696e-06
1.36828e-06
3.09884e-07
1.43418e-07
1.21211e-07
1.21304e-07
1.29765e-07
1.3645e-07
1.27183e-07
1.39186e-07
2.49394e-07
1.66245e-07
1.6443e-07
1.80996e-07
2.01573e-07
2.46771e-07
4.37836e-07
1.30732e-06
4.49671e-06
1.65108e-05
1.34332e-05
2.58266e-06
4.74383e-07
1.86251e-07
1.55554e-07
1.52025e-07
1.50238e-07
1.57868e-07
2.04664e-07
3.4773e-07
6.56128e-07
3.36763e-07
2.09649e-07
1.76921e-07
1.81796e-07
2.22169e-07
4.12965e-07
1.50562e-06
6.3576e-06
2.1695e-05
1.81293e-05
3.48289e-06
5.19825e-07
2.00222e-07
1.65214e-07
1.60654e-07
1.71612e-07
2.16511e-07
3.58962e-07
6.6696e-07
1.1302e-06
5.64669e-07
3.11955e-07
2.38835e-07
2.33477e-07
2.72548e-07
4.55581e-07
1.63074e-06
7.63468e-06
2.48846e-05
2.08114e-05
3.95069e-06
6.18444e-07
2.86611e-07
2.40285e-07
2.2735e-07
2.39814e-07
3.16229e-07
5.89093e-07
1.02403e-06
1.63443e-06
1.14733e-06
6.12588e-07
6.35228e-07
7.59076e-07
8.77219e-07
1.0482e-06
2.07315e-06
8.17504e-06
2.40688e-05
2.02102e-05
4.12635e-06
1.05907e-06
8.32871e-07
7.78964e-07
6.79526e-07
5.70806e-07
5.35515e-07
1.00019e-06
1.41349e-06
2.23231e-06
2.05006e-06
2.33434e-06
3.36951e-06
4.44199e-06
5.09093e-06
5.53573e-06
6.83301e-06
1.13522e-05
2.00342e-05
1.72652e-05
8.15073e-06
5.21696e-06
4.83685e-06
4.62454e-06
3.90405e-06
2.86845e-06
1.9894e-06
1.74038e-06
1.8928e-06
2.99916e-06
4.21484e-06
5.46312e-06
6.90443e-06
8.66712e-06
1.07923e-05
1.35271e-05
1.73046e-05
2.2603e-05
2.83361e-05
2.36116e-05
1.75879e-05
1.33953e-05
1.06246e-05
8.62568e-06
7.01377e-06
5.63847e-06
4.50491e-06
3.50263e-06
2.51697e-06
5.23543e-08
9.06963e-08
1.17021e-07
1.39891e-07
1.64446e-07
1.9612e-07
2.44421e-07
3.16336e-07
4.0297e-07
4.43686e-07
2.62205e-07
2.01665e-07
1.61896e-07
1.31527e-07
1.13592e-07
1.03884e-07
9.8459e-08
9.2471e-08
7.91534e-08
5.29419e-08
9.78889e-08
8.92108e-08
1.05434e-07
1.2987e-07
1.63809e-07
2.14219e-07
2.99083e-07
4.79681e-07
1.9503e-06
2.72546e-06
1.97709e-06
1.3293e-06
2.51085e-07
1.63081e-07
1.3729e-07
1.25199e-07
1.15237e-07
1.03327e-07
8.33323e-08
5.08269e-08
1.2282e-07
9.50944e-08
1.0679e-07
1.24818e-07
1.52051e-07
1.97094e-07
2.98803e-07
8.33236e-07
5.96776e-06
5.39581e-06
4.07209e-06
4.46983e-06
3.994e-07
1.3214e-07
1.06034e-07
9.80041e-08
9.06673e-08
8.1428e-08
6.88062e-08
5.20579e-08
1.28864e-07
1.13904e-07
1.26452e-07
1.42368e-07
1.65984e-07
2.16386e-07
3.81495e-07
1.48807e-06
1.08811e-05
8.51803e-06
6.6687e-06
8.15034e-06
6.42978e-07
1.44338e-07
1.12322e-07
1.08222e-07
1.06211e-07
1.03009e-07
9.51211e-08
9.04692e-08
2.01041e-07
1.50254e-07
1.61258e-07
1.77987e-07
2.05475e-07
2.71764e-07
5.57749e-07
2.51146e-06
1.65108e-05
1.19931e-05
9.77259e-06
1.21441e-05
1.00946e-06
1.92878e-07
1.40796e-07
1.32212e-07
1.25492e-07
1.25613e-07
1.61718e-07
2.91343e-07
5.80374e-07
3.01313e-07
1.92989e-07
1.73152e-07
2.01157e-07
2.98744e-07
7.45032e-07
3.65494e-06
2.1695e-05
1.54995e-05
1.31704e-05
1.59869e-05
1.49706e-06
2.64905e-07
1.67249e-07
1.4649e-07
1.44662e-07
1.80056e-07
3.12283e-07
5.98811e-07
1.02974e-06
5.05134e-07
2.77608e-07
2.20906e-07
2.40987e-07
3.39534e-07
8.38627e-07
4.40519e-06
2.48846e-05
1.84026e-05
1.62412e-05
1.82535e-05
1.94511e-06
3.81443e-07
2.44715e-07
2.07789e-07
2.02796e-07
2.65494e-07
5.05127e-07
9.24793e-07
1.49917e-06
9.64936e-07
5.22347e-07
5.36236e-07
6.50211e-07
7.91786e-07
1.27352e-06
5.24062e-06
2.40688e-05
1.98788e-05
1.79996e-05
1.73969e-05
2.16026e-06
7.57246e-07
6.38047e-07
5.53857e-07
4.58743e-07
4.42654e-07
8.5279e-07
1.26972e-06
2.05206e-06
1.75745e-06
1.87016e-06
2.76103e-06
3.63063e-06
4.32536e-06
5.62196e-06
9.50853e-06
2.00342e-05
2.09462e-05
1.88159e-05
1.50285e-05
6.57909e-06
4.15755e-06
3.61714e-06
3.09685e-06
2.26743e-06
1.52879e-06
1.4493e-06
1.69231e-06
2.84761e-06
4.02966e-06
5.24587e-06
6.7524e-06
8.69357e-06
1.1222e-05
1.48528e-05
2.04317e-05
2.83361e-05
3.08983e-05
2.58698e-05
2.14048e-05
1.51072e-05
1.11312e-05
8.63812e-06
6.83009e-06
5.37164e-06
4.22697e-06
3.27045e-06
2.32953e-06
5.34508e-08
8.89003e-08
1.12069e-07
1.30373e-07
1.47859e-07
1.67807e-07
1.93115e-07
2.2175e-07
2.54475e-07
2.62205e-07
1.80958e-07
1.5874e-07
1.4089e-07
1.20996e-07
1.05769e-07
9.68764e-08
9.09458e-08
8.48157e-08
7.27327e-08
4.89772e-08
9.42297e-08
8.37088e-08
9.87739e-08
1.20082e-07
1.45972e-07
1.79173e-07
2.29531e-07
3.1578e-07
1.22691e-06
1.97709e-06
1.58496e-06
9.66351e-07
1.88765e-07
1.39846e-07
1.2995e-07
1.26422e-07
1.21721e-07
1.13098e-07
9.43623e-08
4.84305e-08
1.15605e-07
8.78953e-08
9.71713e-08
1.11182e-07
1.29627e-07
1.55226e-07
2.09167e-07
4.91015e-07
4.25138e-06
4.07209e-06
3.52816e-06
3.5889e-06
2.95124e-07
1.2377e-07
1.12678e-07
1.11022e-07
1.07646e-07
9.96108e-08
8.38201e-08
5.74092e-08
1.20465e-07
1.01638e-07
1.11354e-07
1.23689e-07
1.38623e-07
1.62325e-07
2.43946e-07
8.85801e-07
8.34696e-06
6.6687e-06
6.07426e-06
6.12322e-06
4.24131e-07
1.34255e-07
1.22213e-07
1.22286e-07
1.20228e-07
1.13718e-07
1.00186e-07
8.21806e-08
1.91734e-07
1.46244e-07
1.52628e-07
1.60582e-07
1.77493e-07
2.05176e-07
3.32116e-07
1.53049e-06
1.34332e-05
9.77259e-06
9.26098e-06
8.71714e-06
6.00874e-07
1.60695e-07
1.38168e-07
1.34066e-07
1.28684e-07
1.25513e-07
1.50064e-07
2.62568e-07
5.64541e-07
2.97808e-07
1.91385e-07
1.75962e-07
2.12334e-07
2.82756e-07
4.99148e-07
2.27292e-06
1.81293e-05
1.31704e-05
1.29227e-05
1.12811e-05
8.58573e-07
2.03626e-07
1.56111e-07
1.42936e-07
1.40906e-07
1.72356e-07
3.00342e-07
5.76735e-07
9.9003e-07
4.89064e-07
2.67238e-07
2.17879e-07
2.58237e-07
3.70568e-07
6.93939e-07
2.90173e-06
2.08114e-05
1.62412e-05
1.6454e-05
1.28145e-05
1.18354e-06
3.07735e-07
2.21405e-07
1.87756e-07
1.81737e-07
2.43473e-07
4.73137e-07
8.84422e-07
1.42914e-06
9.0737e-07
4.80293e-07
4.85447e-07
6.0291e-07
7.55808e-07
1.11432e-06
3.55791e-06
2.02102e-05
1.79996e-05
1.88513e-05
1.21954e-05
1.49169e-06
6.68593e-07
5.64013e-07
4.70866e-07
3.85356e-07
3.93892e-07
7.96301e-07
1.20121e-06
1.9396e-06
1.63079e-06
1.67641e-06
2.48827e-06
3.30394e-06
3.95919e-06
5.02352e-06
8.16003e-06
1.72652e-05
1.88159e-05
1.91873e-05
1.21961e-05
5.61584e-06
3.80661e-06
3.31534e-06
2.73506e-06
1.94303e-06
1.29486e-06
1.31648e-06
1.57675e-06
2.68194e-06
3.75717e-06
4.84664e-06
6.18575e-06
7.88024e-06
1.00152e-05
1.29575e-05
1.73509e-05
2.36117e-05
2.58698e-05
2.3782e-05
1.84566e-05
1.32326e-05
9.97062e-06
7.83855e-06
6.22277e-06
4.89585e-06
3.86055e-06
3.0023e-06
2.15631e-06
5.13909e-08
8.23101e-08
1.01766e-07
1.15227e-07
1.2579e-07
1.36147e-07
1.47807e-07
1.61543e-07
1.76112e-07
2.01665e-07
1.5874e-07
1.22247e-07
1.06607e-07
9.71625e-08
9.18428e-08
8.76799e-08
8.39472e-08
7.88698e-08
6.81636e-08
4.58094e-08
8.47568e-08
7.67198e-08
8.93563e-08
1.04287e-07
1.20767e-07
1.40526e-07
1.66384e-07
2.03435e-07
3.01381e-07
1.3293e-06
9.66351e-07
1.91203e-07
1.27887e-07
1.21059e-07
1.24882e-07
1.27614e-07
1.26881e-07
1.21949e-07
1.07287e-07
4.91341e-08
9.70588e-08
8.07206e-08
8.91862e-08
9.85948e-08
1.08047e-07
1.21033e-07
1.45832e-07
2.13089e-07
6.11891e-07
4.46983e-06
3.5889e-06
4.01849e-07
1.38227e-07
1.2308e-07
1.28552e-07
1.35026e-07
1.37611e-07
1.32144e-07
1.14758e-07
8.04676e-08
8.8735e-08
9.66819e-08
1.0728e-07
1.14484e-07
1.18567e-07
1.24286e-07
1.50541e-07
2.92307e-07
1.36828e-06
8.15035e-06
6.12322e-06
6.27859e-07
1.58096e-07
1.37014e-07
1.42922e-07
1.48379e-07
1.50264e-07
1.46892e-07
1.35118e-07
1.16196e-07
2.06964e-07
1.42699e-07
1.3882e-07
1.42133e-07
1.46229e-07
1.49682e-07
1.7621e-07
4.15645e-07
2.58266e-06
1.21441e-05
8.71714e-06
8.88956e-07
1.86343e-07
1.48961e-07
1.51062e-07
1.54971e-07
1.56815e-07
1.58943e-07
1.8081e-07
2.80018e-07
5.93235e-07
3.05424e-07
1.87956e-07
1.65928e-07
1.79257e-07
1.96467e-07
2.33717e-07
5.38083e-07
3.48289e-06
1.59869e-05
1.12812e-05
1.24646e-06
2.38845e-07
1.70861e-07
1.63108e-07
1.60827e-07
1.64747e-07
1.95225e-07
3.2096e-07
5.97935e-07
1.02068e-06
5.00741e-07
2.70004e-07
2.18115e-07
2.48909e-07
3.03833e-07
3.73828e-07
7.33708e-07
3.95069e-06
1.82535e-05
1.28145e-05
1.69251e-06
3.78135e-07
2.61974e-07
2.29095e-07
2.0445e-07
1.99061e-07
2.57397e-07
4.93137e-07
9.11383e-07
1.46596e-06
9.51538e-07
4.99505e-07
5.15368e-07
6.52291e-07
7.95308e-07
9.02164e-07
1.20336e-06
4.12635e-06
1.73969e-05
1.21954e-05
2.02095e-06
8.45215e-07
7.56442e-07
6.68699e-07
5.4204e-07
4.25929e-07
4.17041e-07
8.43258e-07
1.24232e-06
1.98874e-06
1.73732e-06
1.83298e-06
2.70993e-06
3.65634e-06
4.37421e-06
4.86614e-06
5.50203e-06
8.15073e-06
1.50285e-05
1.21961e-05
5.89122e-06
4.51057e-06
4.41787e-06
3.95674e-06
3.14349e-06
2.19744e-06
1.46983e-06
1.42345e-06
1.642e-06
2.7128e-06
3.76325e-06
4.82109e-06
6.04532e-06
7.52981e-06
9.26643e-06
1.13755e-05
1.40644e-05
1.75879e-05
2.14048e-05
1.84566e-05
1.43301e-05
1.13707e-05
9.24779e-06
7.57138e-06
6.15212e-06
4.92622e-06
3.93722e-06
3.078e-06
2.22778e-06
4.73531e-08
7.41604e-08
9.06547e-08
1.0126e-07
1.09677e-07
1.18585e-07
1.28344e-07
1.38336e-07
1.4989e-07
1.61896e-07
1.4089e-07
1.06607e-07
9.36125e-08
8.70073e-08
8.2706e-08
8.05276e-08
7.96541e-08
7.5727e-08
6.57174e-08
4.43084e-08
7.38197e-08
7.14513e-08
8.24447e-08
9.28805e-08
1.04283e-07
1.18141e-07
1.34788e-07
1.55679e-07
1.94102e-07
2.51085e-07
1.88765e-07
1.27887e-07
1.1743e-07
1.21694e-07
1.31617e-07
1.40054e-07
1.41447e-07
1.36891e-07
1.22869e-07
5.15109e-08
8.02916e-08
8.15129e-08
9.44034e-08
1.00859e-07
1.03446e-07
1.0852e-07
1.20906e-07