/*--------------------------------*- C++ -*----------------------------------*\
| =========                 |                                                 |
| \\      /  F ield         | OpenFOAM: The Open Source CFD Toolbox           |
|  \\    /   O peration     | Version:  v2012                                 |
|   \\  /    A nd           | Website:  www.openfoam.com                      |
|    \\/     M anipulation  |                                                 |
\*---------------------------------------------------------------------------*/
FoamFile
{
    version     2.0;
    format      ascii;
    class       volScalarField;
    location    "1000";
    object      k;
}
// * * * * * * * * * * * * * * * * * * * * * * * * * * * * * * * * * * * * * //

dimensions      [0 2 -2 0 0 0 0];


internalField   nonuniform List<scalar> 
4000
(
1.63595e-05
1.20724e-05
1.13078e-05
1.06222e-05
9.53867e-06
9.13865e-06
9.05362e-06
9.31692e-06
9.76254e-06
1.01581e-05
1.02944e-05
1.0031e-05
9.50264e-06
8.94168e-06
8.5362e-06
8.50628e-06
9.20507e-06
9.8281e-06
1.40235e-05
2.45217e-05
4.23958e-05
3.60239e-05
2.64114e-05
1.69421e-05
1.35845e-05
1.39825e-05
1.45217e-05
1.50887e-05
1.52962e-05
1.54178e-05
1.50279e-05
1.40114e-05
1.2788e-05
1.1735e-05
1.15247e-05
1.12937e-05
1.60632e-05
2.68515e-05
3.69472e-05
4.50592e-05
5.272e-05
4.85867e-05
4.12263e-05
3.15523e-05
2.31421e-05
1.5996e-05
1.50673e-05
1.63905e-05
1.71341e-05
1.79488e-05
1.72365e-05
1.53482e-05
1.35362e-05
1.21155e-05
1.57708e-05
2.34245e-05
3.00903e-05
3.8432e-05
4.66296e-05
5.35063e-05
5.80368e-05
5.57394e-05
4.94301e-05
4.08725e-05
3.15412e-05
2.48259e-05
1.97671e-05
1.59425e-05
1.58869e-05
1.85463e-05
1.77318e-05
1.44596e-05
1.37496e-05
1.74198e-05
2.17551e-05
2.77318e-05
3.57994e-05
4.47209e-05
5.33734e-05
5.83721e-05
6.17187e-05
6.16899e-05
5.80854e-05
5.2093e-05
4.6055e-05
4.14602e-05
3.75612e-05
3.35943e-05
2.90312e-05
2.51412e-05
2.43307e-05
2.55849e-05
2.79365e-05
3.15172e-05
3.63066e-05
4.14372e-05
4.75091e-05
5.42205e-05
5.9906e-05
6.18773e-05
6.4801e-05
6.74105e-05
6.75496e-05
6.6438e-05
6.51345e-05
6.37474e-05
6.18477e-05
5.90473e-05
5.51774e-05
5.08505e-05
4.98844e-05
5.1551e-05
5.37391e-05
5.60963e-05
5.84616e-05
6.07759e-05
6.30443e-05
6.52316e-05
6.65207e-05
6.49372e-05
6.79107e-05
7.3409e-05
7.74913e-05
8.05037e-05
8.28267e-05
8.41207e-05
8.40304e-05
8.24007e-05
7.91772e-05
7.44252e-05
7.24613e-05
7.39501e-05
7.55955e-05
7.69168e-05
7.77012e-05
7.77642e-05
7.706e-05
7.56188e-05
7.29823e-05
6.78411e-05
7.13604e-05
7.98907e-05
8.75533e-05
9.38519e-05
9.89703e-05
0.000102595
0.000104456
0.000104091
0.000101188
9.55312e-05
9.25019e-05
9.40924e-05
9.53999e-05
9.57585e-05
9.49646e-05
9.29946e-05
8.98058e-05
8.54081e-05
7.93589e-05
7.08807e-05
7.56189e-05
8.78076e-05
9.89061e-05
0.000108298
0.000116225
0.000122304
0.000126147
0.000127116
0.000124503
0.000117708
0.000113344
0.000115263
0.000116181
0.000115434
0.000112994
0.000108938
0.000103282
9.60588e-05
8.66985e-05
7.46993e-05
8.13611e-05
9.76229e-05
0.000112276
0.000124303
0.000134394
0.000142582
0.000148586
0.00015188
0.000151574
0.000146414
0.000140649
0.00014173
0.00014067
0.000137574
0.000132715
0.000126276
0.000118269
0.000108402
9.56566e-05
7.98428e-05
1.20724e-05
1.2909e-05
1.386e-05
1.48652e-05
1.44812e-05
1.37673e-05
1.35466e-05
1.38672e-05
1.43916e-05
1.46588e-05
1.44512e-05
1.37242e-05
1.2806e-05
1.21309e-05
1.17434e-05
1.2472e-05
1.3621e-05
1.26726e-05
1.59419e-05
2.33128e-05
3.60239e-05
3.5916e-05
2.77855e-05
2.57446e-05
2.50954e-05
2.41888e-05
2.60665e-05
2.74945e-05
2.79886e-05
2.75773e-05
2.61888e-05
2.40468e-05
2.19291e-05
2.06117e-05
2.02472e-05
2.32739e-05
2.98491e-05
3.7564e-05
4.91982e-05
4.47764e-05
4.85867e-05
5.90642e-05
5.0267e-05
3.9496e-05
3.35788e-05
2.96091e-05
2.90001e-05
2.88591e-05
3.01608e-05
3.04044e-05
2.85883e-05
2.55895e-05
2.34567e-05
2.46717e-05
2.92419e-05
3.48566e-05
4.00402e-05
5.01421e-05
5.98518e-05
5.38185e-05
5.57394e-05
6.45948e-05
6.10774e-05
4.88321e-05
3.75718e-05
3.10703e-05
2.81169e-05
2.81309e-05
3.20155e-05
3.26224e-05
2.99369e-05
2.59923e-05
2.34749e-05
2.42945e-05
2.75632e-05
3.3195e-05
4.15744e-05
5.35808e-05
6.33981e-05
5.93372e-05
6.16899e-05
6.82682e-05
6.77212e-05
6.03129e-05
4.81224e-05
3.91379e-05
3.33044e-05
2.95221e-05
2.80533e-05
2.92074e-05
3.00646e-05
2.70991e-05
2.60373e-05
2.90659e-05
3.41286e-05
4.03242e-05
5.00461e-05
6.12149e-05
6.86502e-05
6.37277e-05
6.74105e-05
7.36169e-05
7.52205e-05
7.29482e-05
6.71905e-05
5.77898e-05
5.02102e-05
4.42956e-05
3.97318e-05
3.7723e-05
3.79846e-05
3.78774e-05
3.88729e-05
4.23313e-05
4.75917e-05
5.60943e-05
6.45617e-05
7.1613e-05
7.4691e-05
6.79086e-05
7.3409e-05
8.04832e-05
8.38937e-05
8.64116e-05
8.82315e-05
8.56121e-05
7.78263e-05
6.7911e-05
5.82782e-05
5.35002e-05
5.23614e-05
5.32733e-05
5.57909e-05
6.15186e-05
6.98341e-05
7.67647e-05
8.02984e-05
8.14126e-05
8.06272e-05
7.25107e-05
7.98907e-05
9.00813e-05
9.59661e-05
0.000102209
0.000110595
0.000116389
0.000117636
0.000114803
0.000107233
9.46213e-05
9.02537e-05
9.34457e-05
9.82409e-05
0.000101439
0.000102197
0.000100459
9.63628e-05
9.26404e-05
8.86275e-05
7.81479e-05
8.78076e-05
0.000104595
0.000116992
0.000128541
0.000140386
0.000149948
0.000155821
0.000155571
0.000147099
0.000130732
0.000123505
0.00012906
0.000133614
0.00013489
0.000132682
0.000127714
0.000120279
0.000112044
0.000102143
8.51022e-05
9.76229e-05
0.000116321
0.000133757
0.000148886
0.000162435
0.000174231
0.000183558
0.000189335
0.000190081
0.000184447
0.000176005
0.000176204
0.000173546
0.000168137
0.000160488
0.000151089
0.000140172
0.000127479
0.000111908
9.34536e-05
1.13078e-05
1.386e-05
1.58045e-05
1.72518e-05
1.69791e-05
1.64846e-05
1.64622e-05
1.68429e-05
1.73045e-05
1.73886e-05
1.68761e-05
1.58153e-05
1.46424e-05
1.39095e-05
1.36356e-05
1.45011e-05
1.60262e-05
1.42021e-05
1.45881e-05
1.94126e-05
2.64114e-05
2.77855e-05
2.779e-05
2.97749e-05
2.91253e-05
2.92955e-05
3.15362e-05
3.31919e-05
3.39858e-05
3.36332e-05
3.17981e-05
2.87578e-05
2.57602e-05
2.408e-05
2.38812e-05
2.69695e-05
3.33275e-05
3.85056e-05
4.72709e-05
4.21086e-05
4.12263e-05
5.0267e-05
4.48693e-05
4.03645e-05
3.82342e-05
3.64609e-05
3.54355e-05
3.55143e-05
3.65764e-05
3.62288e-05
3.35186e-05
2.96174e-05
2.74157e-05
2.94633e-05
3.53229e-05
4.0538e-05
4.44322e-05
5.25972e-05
6.07498e-05
5.18579e-05
4.94301e-05
6.10774e-05
5.78495e-05
4.74928e-05
4.00074e-05
3.64623e-05
3.62131e-05
3.79804e-05
3.95756e-05
3.85807e-05
3.48462e-05
3.03199e-05
2.87296e-05
2.95254e-05
3.2247e-05
3.71763e-05
4.47344e-05
5.62381e-05
6.50835e-05
5.83557e-05
5.80854e-05
6.77212e-05
6.61421e-05
5.71347e-05
4.60784e-05
3.85673e-05
3.4285e-05
3.26904e-05
3.47578e-05
3.89195e-05
3.86866e-05
3.21362e-05
2.86215e-05
3.00294e-05
3.37869e-05
3.94201e-05
4.89446e-05
6.22042e-05
7.11407e-05
6.41936e-05
6.75496e-05
7.52205e-05
7.30735e-05
6.63561e-05
5.66823e-05
4.76487e-05
4.10783e-05
3.64343e-05
3.40121e-05
3.45942e-05
3.57328e-05
3.34899e-05
3.2243e-05
3.47358e-05
3.93345e-05
4.66204e-05
5.74583e-05
7.10161e-05
7.86697e-05
7.02873e-05
7.74913e-05
8.38937e-05
8.20619e-05
7.63346e-05
6.89347e-05
6.20338e-05
5.51947e-05
4.87999e-05
4.34909e-05
4.08467e-05
4.04617e-05
4.03181e-05
4.11557e-05
4.4624e-05
5.01853e-05
5.71827e-05
6.79612e-05
8.08696e-05
8.69607e-05
7.71952e-05
8.75533e-05
9.59661e-05
9.85325e-05
9.66561e-05
9.12194e-05
8.83018e-05
8.63928e-05
8.26639e-05
7.59457e-05
6.76817e-05
6.39437e-05
6.59373e-05
6.95842e-05
7.33536e-05
7.67176e-05
8.05407e-05
8.9988e-05
9.69002e-05
9.82973e-05
8.51972e-05
9.89061e-05
0.000116992
0.000137834
0.00015907
0.000179991
0.000195403
0.000205001
0.000203566
0.000185501
0.000157433
0.000146143
0.000156594
0.000167188
0.000171908
0.000170177
0.000164664
0.000151993
0.000135514
0.000117379
9.52134e-05
0.000112276
0.000133757
0.000153503
0.000171099
0.000187562
0.00020265
0.000215222
0.000223689
0.000225888
0.000219817
0.000208485
0.000207771
0.000203355
0.000195572
0.000185227
0.000173159
0.000159801
0.000144808
0.000126967
0.000106006
1.06222e-05
1.48652e-05
1.72518e-05
1.82407e-05
1.82121e-05
1.82983e-05
1.86967e-05
1.92837e-05
1.97256e-05
1.95987e-05
1.86772e-05
1.71859e-05
1.57662e-05
1.50331e-05
1.48479e-05
1.54997e-05
1.72932e-05
1.55131e-05
1.34791e-05
1.42231e-05
1.69421e-05
2.57446e-05
2.97749e-05
3.13619e-05
3.15043e-05
3.35441e-05
3.61322e-05
3.82175e-05
3.94944e-05
3.93521e-05
3.66914e-05
3.22151e-05
2.82345e-05
2.60617e-05
2.56427e-05
2.72901e-05
3.27082e-05
3.50379e-05
3.89897e-05
3.66985e-05
3.15523e-05
3.9496e-05
4.03645e-05
4.0839e-05
4.10708e-05
4.01479e-05
3.9639e-05
4.05979e-05
4.18883e-05
4.13246e-05
3.7378e-05
3.2198e-05
2.92888e-05
3.08574e-05
3.68922e-05
4.22484e-05
4.45817e-05
4.90117e-05
5.53479e-05
4.68386e-05
4.08725e-05
4.88321e-05
4.74928e-05
4.34907e-05
4.10987e-05
4.12172e-05
4.27434e-05
4.39874e-05
4.45892e-05
4.35876e-05
3.85358e-05
3.27785e-05
3.11107e-05
3.2553e-05
3.50116e-05
3.90477e-05
4.52611e-05
5.46411e-05
6.19539e-05
5.40359e-05
5.2093e-05
6.03129e-05
5.71347e-05
5.01453e-05
4.34978e-05
3.93487e-05
3.76708e-05
3.87309e-05
4.27238e-05
4.65257e-05
4.30812e-05
3.53505e-05
3.10222e-05
3.15842e-05
3.46186e-05
3.97436e-05
4.84356e-05
6.07371e-05
6.99356e-05
6.16765e-05
6.6438e-05
7.29482e-05
6.63561e-05
5.79495e-05
4.96667e-05
4.30767e-05
3.85567e-05
3.59112e-05
3.58615e-05
3.89187e-05
4.09351e-05
3.64113e-05
3.28459e-05
3.37716e-05
3.72374e-05
4.33394e-05
5.39001e-05
6.87671e-05
7.96053e-05
7.02911e-05
8.05037e-05
8.64116e-05
7.63346e-05
6.61476e-05
5.82119e-05
5.21678e-05
4.74556e-05
4.37324e-05
4.1301e-05
4.11085e-05
4.23083e-05
4.14318e-05
4.01834e-05
4.14375e-05
4.45504e-05
5.00233e-05
6.11978e-05
7.90474e-05
9.05283e-05
7.99819e-05
9.38519e-05
0.000102209
9.66561e-05
8.67048e-05
8.39037e-05
8.45326e-05
8.5914e-05
8.49672e-05
7.97781e-05
7.17642e-05
6.81859e-05
7.11013e-05
7.50488e-05
7.74873e-05
7.78976e-05
7.84111e-05
8.48523e-05
0.000100441
0.00010538
9.06636e-05
0.000108298
0.000128541
0.00015907
0.000190126
0.000211883
0.000237238
0.000256246
0.000258145
0.000238523
0.000205343
0.000191792
0.000205763
0.000218577
0.000220763
0.000212374
0.000198049
0.000187945
0.000161189
0.000130113
0.000103442
0.000124303
0.000148886
0.000171099
0.000191245
0.000210963
0.000230055
0.000246657
0.000258684
0.000263978
0.000260043
0.000245236
0.000241534
0.000233938
0.000222786
0.000208996
0.000193515
0.000177363
0.000159897
0.000139618
0.000116013
9.53867e-06
1.44812e-05
1.69791e-05
1.82121e-05
1.8973e-05
1.97834e-05
2.0716e-05
2.16452e-05
2.22031e-05
2.18384e-05
2.03186e-05
1.8223e-05
1.66219e-05
1.59455e-05
1.57749e-05
1.61143e-05
1.74995e-05
1.67757e-05
1.35808e-05
1.17294e-05
1.35845e-05
2.50954e-05
2.91253e-05
3.15043e-05
3.42911e-05
3.73952e-05
4.04541e-05
4.33167e-05
4.5588e-05
4.569e-05
4.14563e-05
3.53057e-05
3.04953e-05
2.78642e-05
2.69777e-05
2.7075e-05
3.01448e-05
3.14717e-05
3.14581e-05
2.95053e-05
2.31421e-05
3.35788e-05
3.82342e-05
4.10708e-05
4.20287e-05
4.19847e-05
4.30932e-05
4.54635e-05
4.79045e-05
4.69891e-05
4.11606e-05
3.42834e-05
3.0318e-05
3.07242e-05
3.54465e-05
4.09364e-05
4.27527e-05
4.29327e-05
4.46964e-05
3.9746e-05
3.15412e-05
3.75718e-05
4.00074e-05
4.10987e-05
4.29981e-05
4.5409e-05
4.69559e-05
4.79971e-05
4.9788e-05
4.87334e-05
4.1798e-05
3.42979e-05
3.18854e-05
3.37627e-05
3.61509e-05
3.87178e-05
4.25753e-05
4.82202e-05
5.38668e-05
4.69559e-05
4.6055e-05
4.81224e-05
4.60784e-05
4.34978e-05
4.14555e-05
4.08101e-05
4.18946e-05
4.51648e-05
5.01189e-05
5.33678e-05
4.72342e-05
3.75015e-05
3.25452e-05
3.25624e-05
3.50077e-05
3.92086e-05
4.61507e-05
5.6037e-05
6.44352e-05
5.6888e-05
6.51345e-05
6.71905e-05
5.66823e-05
4.96667e-05
4.44843e-05
4.08292e-05
3.86697e-05
3.84215e-05
4.13886e-05
4.78739e-05
5.0358e-05
4.1698e-05
3.50461e-05
3.43268e-05
3.68891e-05
4.2121e-05
5.13611e-05
6.46642e-05
7.70562e-05
6.87515e-05
8.28267e-05
8.82315e-05
6.89347e-05
5.82119e-05
5.19709e-05
4.80454e-05
4.55152e-05
4.41895e-05
4.48019e-05
4.85623e-05
5.27528e-05
4.9762e-05
4.46446e-05
4.30526e-05
4.41858e-05
4.83183e-05
5.80804e-05
7.47397e-05
9.09327e-05
8.12272e-05
9.89703e-05
0.000110595
9.12194e-05
8.39037e-05
8.52955e-05
8.97872e-05
9.41513e-05
9.4867e-05
9.00868e-05
8.28043e-05
8.08427e-05
8.4967e-05
8.86539e-05
8.8956e-05
8.6119e-05
8.30065e-05
8.53363e-05
9.93314e-05
0.000109421
9.44561e-05
0.000116225
0.000140386
0.000179991
0.000211883
0.000251854
0.000291167
0.000316637
0.00031624
0.000286911
0.000245329
0.000231108
0.000252038
0.000271981
0.000275018
0.000260823
0.000235196
0.000211651
0.000180638
0.000139865
0.000109734
0.000134394
0.000162435
0.000187562
0.000210963
0.000235361
0.000259162
0.000280371
0.000297062
0.000307123
0.000307703
0.000288125
0.000279549
0.000267333
0.000251801
0.000233759
0.000214071
0.000193879
0.000173323
0.000150394
0.000124034
9.13865e-06
1.37673e-05
1.64846e-05
1.82983e-05
1.97834e-05
2.12633e-05
2.28075e-05
2.42925e-05
2.52207e-05
2.45626e-05
2.21105e-05
1.9208e-05
1.74976e-05
1.68145e-05
1.65967e-05
1.6707e-05
1.73244e-05
1.72482e-05
1.47464e-05
1.1406e-05
1.39825e-05
2.41888e-05
2.92955e-05
3.35441e-05
3.73952e-05
4.11564e-05
4.51048e-05
4.94269e-05
5.3323e-05
5.32318e-05
4.64889e-05
3.84257e-05
3.30473e-05
3.00123e-05
2.85697e-05
2.77876e-05
2.789e-05
2.84622e-05
2.67313e-05
2.32033e-05
1.5996e-05
2.96091e-05
3.64609e-05
4.01479e-05
4.19847e-05
4.39061e-05
4.69041e-05
5.14743e-05
5.58457e-05
5.32886e-05
4.4758e-05
3.65015e-05
3.17907e-05
3.0833e-05
3.3113e-05
3.75875e-05
4.00888e-05
3.84996e-05
3.57649e-05
3.1406e-05
2.48259e-05
3.10703e-05
3.64623e-05
4.12172e-05
4.5409e-05
4.79834e-05
4.93447e-05
5.23733e-05
5.72423e-05
5.498e-05
4.47392e-05
3.5572e-05
3.23331e-05
3.38911e-05
3.65224e-05
3.78241e-05
3.88226e-05
4.03682e-05
4.187e-05
3.87301e-05
4.14602e-05
3.91379e-05
3.85673e-05
3.93487e-05
4.08101e-05
4.30829e-05
4.65219e-05
5.13641e-05
5.85507e-05
6.15114e-05
5.06294e-05
3.87257e-05
3.3499e-05
3.30923e-05
3.4677e-05
3.73126e-05
4.13911e-05
4.73458e-05
5.44028e-05
5.12852e-05
6.37474e-05
5.77898e-05
4.76487e-05
4.30767e-05
4.08292e-05
3.98324e-05
4.02097e-05
4.30519e-05
5.05369e-05
6.20989e-05
6.0517e-05
4.56793e-05
3.6547e-05
3.45817e-05
3.6279e-05
4.02883e-05
4.71697e-05
5.7393e-05
7.05261e-05
6.62766e-05
8.41207e-05
8.56121e-05
6.20338e-05
5.21678e-05
4.80454e-05
4.6324e-05
4.60444e-05
4.75667e-05
5.27708e-05
6.30945e-05
6.84942e-05
5.86149e-05
4.88428e-05
4.4936e-05
4.47722e-05
4.77336e-05
5.51728e-05
6.85068e-05
8.83241e-05
8.12096e-05
0.000102595
0.000116389
8.83018e-05
8.45326e-05
8.97872e-05
9.75606e-05
0.000103763
0.000104748
0.000100171
9.60282e-05
9.57215e-05
9.77287e-05
9.97581e-05
9.86134e-05
9.37788e-05
8.82774e-05
8.69131e-05
9.31817e-05
0.00011163
9.65897e-05
0.000122304
0.000149948
0.000195403
0.000237238
0.000291167
0.00033713
0.000360716
0.000351183
0.000311762
0.000270958
0.000255857
0.000280795
0.000309716
0.000316757
0.00029945
0.000266294
0.00022904
0.000194387
0.000146316
0.000113973
0.000142582
0.000174231
0.00020265
0.000230055
0.000259162
0.000287715
0.000314229
0.000337366
0.000355427
0.000364758
0.000337999
0.000320974
0.000301689
0.000280357
0.000257327
0.000233177
0.000208738
0.000184838
0.000159229
0.000130196
9.05362e-06
1.35466e-05
1.64622e-05
1.86967e-05
2.0716e-05
2.28075e-05
2.51099e-05
2.75348e-05
2.93299e-05
2.84391e-05
2.42968e-05
2.02672e-05
1.84392e-05
1.7599e-05
1.72374e-05
1.71645e-05
1.73157e-05
1.70798e-05
1.51995e-05
1.17517e-05
1.45217e-05
2.60665e-05
3.15362e-05
3.61322e-05
4.04541e-05
4.51048e-05
5.06231e-05
5.72666e-05
6.35716e-05
6.30772e-05
5.26039e-05
4.20541e-05
3.59516e-05
3.24068e-05
3.03982e-05
2.89664e-05
2.77332e-05
2.64257e-05
2.35746e-05
1.73169e-05
1.50673e-05
2.90001e-05
3.54355e-05
3.9639e-05
4.30932e-05
4.69041e-05
5.22031e-05
6.01486e-05
6.7517e-05
6.23011e-05
4.95696e-05
3.97421e-05
3.44642e-05
3.21842e-05
3.19976e-05
3.36372e-05
3.59732e-05
3.52605e-05
3.06939e-05
2.45623e-05
1.97671e-05
2.81169e-05
3.62131e-05
4.27434e-05
4.69559e-05
4.93447e-05
5.26641e-05
6.05023e-05
7.14023e-05
6.73803e-05
5.08273e-05
3.87305e-05
3.42104e-05
3.42042e-05
3.63171e-05
3.76607e-05
3.66039e-05
3.46851e-05
3.28596e-05
3.07314e-05
3.75612e-05
3.33044e-05
3.4285e-05
3.76708e-05
4.18946e-05
4.65219e-05
5.16985e-05
6.01195e-05
7.68585e-05
8.20279e-05
5.92775e-05
4.15081e-05
3.53029e-05
3.42598e-05
3.46534e-05
3.54062e-05
3.6503e-05
3.85203e-05
4.24081e-05
4.55661e-05
6.18476e-05
5.02102e-05
4.10783e-05
3.85567e-05
3.86697e-05
4.02097e-05
4.37852e-05
5.21975e-05
7.17164e-05
9.64414e-05
7.6166e-05
4.94747e-05
3.7911e-05
3.48191e-05
3.53239e-05
3.75781e-05
4.15695e-05
4.83093e-05
6.06636e-05
6.31474e-05
8.40304e-05
7.78263e-05
5.51947e-05
4.74556e-05
4.55152e-05
4.60444e-05
4.8671e-05
5.56407e-05
7.3409e-05
0.000102776
9.37023e-05
6.59102e-05
5.14772e-05
4.60707e-05
4.48803e-05
4.63981e-05
5.11238e-05
6.10513e-05
8.26975e-05
7.99705e-05
0.000104456
0.000117636
8.63928e-05
8.5914e-05
9.41513e-05
0.000103763
0.00011039
0.000112412
0.000115703
0.000130219
0.000120872
0.000105595
0.000104622
0.000103521
9.81934e-05
9.1103e-05
8.64969e-05
8.75563e-05
0.000110519
9.68746e-05
0.000126147
0.000155821
0.000205001
0.000256246
0.000316637
0.000360716
0.000374597
0.000355674
0.000326474
0.000318155
0.000291028
0.000293473
0.000325441
0.000340282
0.000323757
0.000284696
0.000237259
0.000195109
0.000146722
0.000115754
0.000148586
0.000183558
0.000215222
0.000246657
0.000280371
0.000314229
0.000347684
0.00038079
0.000413156
0.000439688
0.000401268
0.000367945
0.000337028
0.000307633
0.000278587
0.000249531
0.000220841
0.000193645
0.000165681
0.000134389
9.31692e-06
1.38672e-05
1.68429e-05
1.92837e-05
2.16452e-05
2.42925e-05
2.75348e-05
3.13979e-05
3.46792e-05
3.37613e-05
2.66356e-05
2.14871e-05
1.93811e-05
1.81611e-05
1.74993e-05
1.71955e-05
1.70819e-05
1.66633e-05
1.49499e-05
1.13727e-05
1.50887e-05
2.74945e-05
3.31919e-05
3.82175e-05
4.33167e-05
4.94269e-05
5.72666e-05
6.71307e-05
7.65244e-05
7.68102e-05
5.85761e-05
4.62314e-05
3.9205e-05
3.47038e-05
3.19955e-05
2.99999e-05
2.80593e-05
2.56637e-05
2.16065e-05
1.35454e-05
1.63905e-05
2.88591e-05
3.55143e-05
4.05979e-05
4.54635e-05
5.14743e-05
6.01486e-05
7.3432e-05
8.90502e-05
9.40896e-05
6.58386e-05
4.54092e-05
3.82529e-05
3.42367e-05
3.20133e-05
3.10105e-05
3.08308e-05
3.00711e-05
2.59698e-05
1.79302e-05
1.59425e-05
2.81309e-05
3.79804e-05
4.39874e-05
4.79971e-05
5.23733e-05
6.05023e-05
7.86163e-05
0.000109305
0.000128095
8.65535e-05
4.97791e-05
3.94511e-05
3.56174e-05
3.50092e-05
3.58907e-05
3.54082e-05
3.17116e-05
2.71501e-05
2.45184e-05
3.35943e-05
2.95221e-05
3.26904e-05
3.87309e-05
4.51648e-05
5.13641e-05
6.01195e-05
8.2643e-05
0.000134779
0.000180712
0.000121248
5.86417e-05
4.16691e-05
3.74028e-05
3.59858e-05
3.4628e-05
3.32134e-05
3.24508e-05
3.44538e-05
4.05573e-05
5.90473e-05
4.42956e-05
3.64343e-05
3.59112e-05
3.84215e-05
4.30519e-05
5.21975e-05
7.71296e-05
0.000146408
0.000236256
0.000160625
6.87847e-05
4.28341e-05
3.67033e-05
3.51589e-05
3.51029e-05
3.62187e-05
3.97131e-05
4.95006e-05
5.95679e-05
8.24007e-05
6.79109e-05
4.87999e-05
4.37324e-05
4.41895e-05
4.75667e-05
5.56407e-05
7.96073e-05
0.000153509
0.000273104
0.00019595
8.75566e-05
5.59171e-05
4.76545e-05
4.49432e-05
4.44586e-05
4.63036e-05
5.31232e-05
7.43272e-05
7.75991e-05
0.000104091
0.000114803
8.26638e-05
8.49672e-05
9.4867e-05
0.000104748
0.000112412
0.000125936
0.00018168
0.000310732
0.000230586
0.000121261
0.000103721
0.000102195
9.77348e-05
9.00591e-05
8.29713e-05
8.05047e-05
0.000105724
9.53462e-05
0.000127116
0.000155571
0.000203566
0.000258145
0.00031624
0.000351183
0.000355674
0.000348166
0.00037675
0.000459625
0.000397533
0.000307508
0.000311213
0.000332541
0.000323615
0.000286138
0.000234148
0.000186765
0.000141836
0.000115095
0.00015188
0.000189335
0.000223689
0.000258684
0.000297062
0.000337366
0.00038079
0.000429959
0.00048686
0.000543832
0.000487461
0.000423815
0.00037326
0.000332102
0.000295685
0.000261504
0.000228839
0.00019887
0.000169058
0.000136233
9.76254e-06
1.43916e-05
1.73045e-05
1.97256e-05
2.22031e-05
2.52207e-05
2.93299e-05
3.46792e-05
3.90448e-05
3.96266e-05
2.91676e-05
2.27482e-05
2.04541e-05
1.85266e-05
1.7369e-05
1.67382e-05
1.63888e-05
1.58603e-05
1.42831e-05
1.08079e-05
1.52962e-05
2.79886e-05
3.39858e-05
3.94944e-05
4.5588e-05
5.3323e-05
6.35716e-05
7.65243e-05
9.08993e-05
0.000157542
0.000111586
5.24317e-05
4.38744e-05
3.76477e-05
3.37257e-05
3.10194e-05
2.85314e-05
2.54299e-05
2.05746e-05
1.11579e-05
1.71341e-05
3.01608e-05
3.65764e-05
4.18883e-05
4.79045e-05
5.58457e-05
6.7517e-05
8.90502e-05
0.000139182
0.000308554
0.000227683
6.75901e-05
4.22296e-05
3.52766e-05
3.17416e-05
2.93612e-05
2.73478e-05
2.51441e-05
2.09756e-05
1.28888e-05
1.58869e-05
3.20155e-05
3.95756e-05
4.45892e-05
4.9788e-05
5.72423e-05
7.14023e-05
0.000109305
0.000204205
0.000467043
0.000360557
0.000102718
4.70797e-05
3.62309e-05
3.311e-05
3.17105e-05
3.0959e-05
2.89066e-05
2.37104e-05
1.9558e-05
2.90312e-05
2.80533e-05
3.47578e-05
4.27238e-05
5.01189e-05
5.85506e-05
7.68585e-05
0.000134779
0.000284854
0.00063554
0.000512976
0.000156339
5.87422e-05
4.12645e-05
3.71055e-05
3.4207e-05
3.09438e-05
2.83679e-05
2.91359e-05
3.61168e-05
5.51774e-05
3.97318e-05
3.40121e-05
3.58615e-05
4.13886e-05
5.05369e-05
7.17164e-05
0.000146408
0.000362312
0.000785683
0.00064799
0.000196704
6.36291e-05
4.24603e-05
3.69463e-05
3.3785e-05
3.20732e-05
3.33478e-05
4.1992e-05
5.57253e-05
7.91772e-05
5.82782e-05
4.34909e-05
4.1301e-05
4.48019e-05
5.27708e-05
7.3409e-05
0.000153509
0.000414626
0.000883035
0.000730868
0.000224323
7.5476e-05
5.24082e-05
4.61197e-05
4.27008e-05
4.14761e-05
4.55958e-05
6.40929e-05
7.41252e-05
0.000101188
0.000107233
7.59457e-05
7.97781e-05
9.00868e-05
0.000100171
0.000115703
0.00018168
0.000445246
0.000883864
0.000738557
0.000245075
0.000108422
9.50434e-05
9.113e-05
8.39755e-05
7.56498e-05
7.15459e-05
9.70529e-05
9.18513e-05
0.000124503
0.000147099
0.000185501
0.000238523
0.000286911
0.000311762
0.000326474
0.00037675
0.000541384
0.000784442
0.000674484
0.000393379
0.000291807
0.000288919
0.000289907
0.000262991
0.000214861
0.000167439
0.000131101
0.000111535
0.000151574
0.000190081
0.000225888
0.000263978
0.000307123
0.000355427
0.000413156
0.00048686
0.000581735
0.000676357
0.000598611
0.000491919
0.000410276
0.000351564
0.000305973
0.000266586
0.000230535
0.00019855
0.000167937
0.000134795
1.01581e-05
1.46588e-05
1.73886e-05
1.95987e-05
2.18384e-05
2.45626e-05
2.84391e-05
3.37613e-05
3.96266e-05
4.22417e-05
2.97455e-05
2.49569e-05
2.15784e-05
1.88043e-05
1.70652e-05
1.60853e-05
1.55216e-05
1.48845e-05
1.34186e-05
1.0272e-05
1.54178e-05
2.75773e-05
3.36332e-05
3.93521e-05
4.569e-05
5.32318e-05
6.30772e-05
7.68102e-05
0.000157542
0.000150717
0.000111313
0.000108413
4.62862e-05
3.91468e-05
3.51019e-05
3.238e-05
2.9718e-05
2.64491e-05
2.11658e-05
9.98957e-06
1.79488e-05
3.04044e-05
3.62288e-05
4.13246e-05
4.69891e-05
5.32887e-05
6.23011e-05
9.40897e-05
0.000308554
0.000255491
0.0001925
0.0002222
5.08172e-05
3.4578e-05
3.10552e-05
2.86086e-05
2.5962e-05
2.27028e-05
1.81525e-05
1.01284e-05
1.85463e-05
3.26224e-05
3.85807e-05
4.35876e-05
4.87334e-05
5.498e-05
6.73803e-05
0.000128095
0.000467043
0.000365326
0.000281968
0.000336556
6.1957e-05
3.45138e-05
3.08834e-05
2.88708e-05
2.6855e-05
2.42921e-05
2.02099e-05
1.47126e-05
2.51412e-05
2.92074e-05
3.89195e-05
4.65258e-05
5.33678e-05
6.15114e-05
8.2028e-05
0.000180712
0.00063554
0.000480134
0.000381663
0.000452079
8.15444e-05
4.00816e-05
3.49922e-05
3.19414e-05
2.84696e-05
2.51469e-05
2.50861e-05
3.21819e-05
5.08505e-05
3.7723e-05
3.45942e-05
3.89187e-05
4.78739e-05
6.20989e-05
9.64414e-05
0.000236256
0.000785683
0.000593058
0.000487089
0.000560839
0.000107582
4.78039e-05
3.84758e-05
3.30885e-05
2.93472e-05
2.93525e-05
3.75681e-05
5.19076e-05
7.44253e-05
5.35002e-05
4.08467e-05
4.11085e-05
4.85623e-05
6.30945e-05
0.000102776
0.000273104
0.000883035
0.000688858
0.000583721
0.000632521
0.00013365
6.00895e-05
4.77841e-05
4.0947e-05
3.69561e-05
3.94315e-05
5.58944e-05
6.9273e-05
9.55312e-05
9.46213e-05
6.76817e-05
7.17642e-05
8.28043e-05
9.60282e-05
0.000130219
0.000310732
0.000883864
0.000747404
0.000648411
0.000634063
0.000152579
8.81505e-05
8.03319e-05
7.32521e-05
6.47126e-05
6.14857e-05
8.67064e-05
8.55154e-05
0.000117708
0.000130732
0.000157433
0.000205343
0.000245329
0.000270958
0.000318155
0.000459625
0.000784442
0.000787995
0.000685795
0.000590309
0.000323192
0.000245861
0.000237764
0.000220523
0.00018025
0.000137794
0.000112986
0.000103521
0.000146414
0.000184447
0.000219817
0.000260043
0.000307703
0.000364758
0.000439688
0.000543832
0.000676357
0.000716604
0.00063598
0.000560761
0.000444535
0.000362654
0.000306282
0.000261942
0.000223245
0.00019034
0.000160459
0.000128033
1.02944e-05
1.44512e-05
1.68761e-05
1.86772e-05
2.03186e-05
2.21105e-05
2.42968e-05
2.66356e-05
2.91676e-05
2.97455e-05
2.32837e-05
2.13375e-05
1.97056e-05
1.78187e-05
1.63011e-05
1.53792e-05
1.47419e-05
1.4066e-05
1.26898e-05
9.75003e-06
1.50279e-05
2.61888e-05
3.17981e-05
3.66914e-05
4.14563e-05
4.64889e-05
5.26039e-05
5.85761e-05
0.000111586
0.000111313
8.97787e-05
8.62848e-05
3.83265e-05
3.49348e-05
3.30992e-05
3.1753e-05
3.00848e-05
2.75287e-05
2.27322e-05
9.66521e-06
1.72365e-05
2.85883e-05
3.35187e-05
3.7378e-05
4.11606e-05
4.4758e-05
4.95696e-05
6.58386e-05
0.000227683
0.0001925
0.00016249
0.00018278
4.31488e-05
3.27819e-05
3.09124e-05
2.94167e-05
2.73403e-05
2.42169e-05
1.92927e-05
1.08012e-05
1.77318e-05
2.99369e-05
3.48462e-05
3.85358e-05
4.1798e-05
4.47393e-05
5.08273e-05
8.65535e-05
0.000360558
0.000281968
0.000246021
0.000261469
4.88297e-05
3.27791e-05
3.07017e-05
2.91376e-05
2.7099e-05
2.41674e-05
1.97581e-05
1.37464e-05
2.43307e-05
3.00646e-05
3.86866e-05
4.30812e-05
4.72342e-05
5.06294e-05
5.92775e-05
0.000121248
0.000512976
0.000381663
0.000342329
0.000338549
5.90463e-05
3.63468e-05
3.31964e-05
3.06916e-05
2.76966e-05
2.45253e-05
2.37827e-05
3.00979e-05
4.98844e-05
3.79847e-05
3.57328e-05
4.09351e-05
5.0358e-05
6.0517e-05
7.6166e-05
0.000160625
0.000647991
0.000487089
0.0004483
0.000415792
7.51983e-05
4.24844e-05
3.65937e-05
3.21295e-05
2.85431e-05
2.82653e-05
3.63137e-05
5.06143e-05
7.24614e-05
5.23614e-05
4.04618e-05
4.23083e-05
5.27528e-05
6.84942e-05
9.37023e-05
0.00019595
0.000730868
0.000583721
0.000550827
0.000470599
9.79985e-05
5.51642e-05
4.57972e-05
3.87417e-05
3.42043e-05
3.65749e-05
5.2614e-05
6.72244e-05
9.2502e-05
9.02537e-05
6.39437e-05
6.81859e-05
8.08427e-05
9.57215e-05
0.000120872
0.000230586
0.000738558
0.000648411
0.000627486
0.000475699
0.000121946
8.34791e-05
7.54595e-05
6.64299e-05
5.75266e-05
5.60602e-05
8.27695e-05
8.23945e-05
0.000113344
0.000123505
0.000146143
0.000191792
0.000231108
0.000255857
0.000291028
0.000397533
0.000674485
0.000685795
0.000654458
0.000492127
0.000285792
0.000233589
0.00022582
0.000203098
0.000162023
0.000122664
0.000104783
9.87475e-05
0.000140649
0.000176005
0.000208485
0.000245236
0.000288125
0.000337999
0.000401268
0.000487461
0.000598612
0.00063598
0.000602267
0.000508236
0.000407087
0.000337112
0.000287202
0.0002463
0.000209984
0.000179288
0.000151635
0.000121626
1.0031e-05
1.37242e-05
1.58153e-05
1.71859e-05
1.8223e-05
1.9208e-05
2.02672e-05
2.14871e-05
2.27482e-05
2.49569e-05
2.13375e-05
1.79402e-05
1.63744e-05
1.53955e-05
1.48422e-05
1.43951e-05
1.39829e-05
1.34103e-05
1.21628e-05
9.32169e-06
1.40114e-05
2.40468e-05
2.87578e-05
3.22151e-05
3.53057e-05
3.84257e-05
4.20541e-05
4.62314e-05
5.24317e-05
0.000108413
8.62848e-05
3.65603e-05
3.23812e-05
3.14382e-05
3.14536e-05
3.10079e-05
2.98457e-05
2.79306e-05
2.39836e-05
9.75357e-06
1.53482e-05
2.55895e-05
2.96175e-05
3.2198e-05
3.42834e-05
3.65015e-05
3.97421e-05
4.54092e-05
6.75901e-05
0.0002222
0.00018278
4.91091e-05
3.36759e-05
3.20809e-05
3.18818e-05
3.14353e-05
3.01049e-05
2.7377e-05
2.24737e-05
1.35686e-05
1.44596e-05
2.59923e-05
3.03199e-05
3.27785e-05
3.42979e-05
3.5572e-05
3.87305e-05
4.97791e-05
0.000102718
0.000336557
0.000261469
5.97986e-05
3.47618e-05
3.25772e-05
3.19942e-05
3.11698e-05
2.97273e-05
2.72823e-05
2.324e-05
1.73162e-05
2.55849e-05
2.70991e-05
3.21362e-05
3.53505e-05
3.75015e-05
3.87257e-05
4.15081e-05
5.86417e-05
0.000156339
0.000452079
0.000338549
7.3044e-05
3.81511e-05
3.47512e-05
3.34592e-05
3.20667e-05
3.01305e-05
2.77589e-05
2.67748e-05
3.13589e-05
5.1551e-05
3.78774e-05
3.34899e-05
3.64113e-05
4.1698e-05
4.56793e-05
4.94747e-05
6.87847e-05
0.000196704
0.000560839
0.000415792
9.28782e-05
4.52372e-05
3.95259e-05
3.65967e-05
3.36467e-05
3.09852e-05
3.06555e-05
3.82157e-05
5.18079e-05
7.39501e-05
5.32733e-05
4.03181e-05
4.14318e-05
4.9762e-05
5.86149e-05
6.59102e-05
8.75566e-05
0.000224323
0.000632521
0.000470599
0.000121119
6.16072e-05
5.25303e-05
4.68403e-05
4.09608e-05
3.65185e-05
3.83194e-05
5.46805e-05
6.85539e-05
9.40924e-05
9.34457e-05
6.59373e-05
7.11013e-05
8.4967e-05
9.77287e-05
0.000105595
0.000121261
0.000245075
0.000634063
0.000475699
0.000147921
9.81661e-05
9.34047e-05
8.58647e-05
7.4114e-05
6.22354e-05
5.88636e-05
8.60931e-05
8.42366e-05
0.000115263
0.00012906
0.000156594
0.000205763
0.000252038
0.000280795
0.000293473
0.000307508
0.000393379
0.000590309
0.000492127
0.0003006
0.000266063
0.000276578
0.000263969
0.000227895
0.000178456
0.000134924
0.000111539
0.000101421
0.00014173
0.000176204
0.000207771
0.000241534
0.000279549
0.000320974
0.000367945
0.000423815
0.000491919
0.000560762
0.000508236
0.000429303
0.000367961
0.000320625
0.000280625
0.000244393
0.000210793
0.00018159
0.00015412
0.000124259
9.50264e-06
1.2806e-05
1.46424e-05
1.57663e-05
1.66219e-05
1.74976e-05
1.84392e-05
1.93811e-05
2.04541e-05
2.15784e-05
1.97056e-05
1.63744e-05
1.49983e-05
1.42799e-05
1.38185e-05
1.35783e-05
1.34721e-05
1.30263e-05
1.18594e-05
9.11141e-06
1.2788e-05
2.19291e-05
2.57602e-05
2.82345e-05
3.04953e-05
3.30473e-05
3.59516e-05
3.9205e-05
4.38744e-05
4.62862e-05
3.83266e-05
3.23812e-05
3.07204e-05
3.08424e-05
3.17423e-05
3.21504e-05
3.11549e-05
2.91095e-05
2.52622e-05
1.00643e-05
1.35362e-05
2.34567e-05
2.74157e-05
2.92888e-05
3.0318e-05
3.17907e-05
3.44642e-05
3.82529e-05
4.22296e-05