/*--------------------------------*- C++ -*----------------------------------*\
| =========                 |                                                 |
| \\      /  F ield         | OpenFOAM: The Open Source CFD Toolbox           |
|  \\    /   O peration     | Version:  v2012                                 |
|   \\  /    A nd           | Website:  www.openfoam.com                      |
|    \\/     M anipulation  |                                                 |
\*---------------------------------------------------------------------------*/
FoamFile
{
    version     2.0;
    format      ascii;
    class       surfaceScalarField;
    location    "1000";
    object      phi;
}
// * * * * * * * * * * * * * * * * * * * * * * * * * * * * * * * * * * * * * //

dimensions      [1 0 -1 0 0 0 0];
oriented        oriented;


internalField   nonuniform List<scalar> 
11200
(
0.000561305
-0.00112226
0.000561305
0.000492769
-0.000276942
0.000345559
0.000427019
-0.000199533
0.00026531
0.000903171
-0.000785365
0.000309299
0.00138221
-0.000734286
0.000255325
0.00165387
-0.000533502
0.000261892
0.00178374
-0.000420635
0.000290787
0.0018243
-0.0003438
0.000303234
0.00178545
-0.000267082
0.000305898
0.00164316
-0.000172119
0.00031436
0.00141311
-9.91139e-05
0.000329111
0.0011347
-8.66428e-05
0.000365007
0.000885985
-0.000166133
0.000414825
0.000743725
-0.000320613
0.000462877
0.00067137
-0.000437369
0.000509753
0.000886714
-0.000755095
0.000539819
0.000774713
-0.000603277
0.000715336
-0.000119407
2.77132e-05
0.000866406
-0.000841455
-0.00043946
0.00116169
-0.0024535
0.00161246
0.0025652
-0.00625255
0.0025652
0.00317362
-0.00304235
0.00215716
0.00182907
-0.00038227
0.00152753
-0.000251725
0.000382346
0.000913212
-0.00127785
0.000135792
0.00015607
-0.00104877
-0.000678589
-8.39543e-05
-0.000593674
-0.000631556
-0.000244152
-0.000159313
-0.000503662
-0.000274484
0.000238729
-0.000402505
-0.000262609
0.000631927
-0.000342386
-0.000222929
0.00100879
-0.000299546
-0.000176428
0.00135211
-0.000313436
-0.000116535
0.00162569
-0.000397881
-4.1824e-05
0.00189041
-0.000669828
8.45207e-05
0.00164491
-0.000434911
0.000243077
0.00019895
0.000270911
0.000419984
-0.00213971
0.000635727
0.0010998
-0.00358605
-2.68453e-05
0.00150108
-0.00290805
-0.00284677
0.00172941
-0.00732495
0.00196343
0.00204542
-0.0103434
0.00204542
0.00356896
-0.00675739
0.0021915
0.00402546
-0.00290986
0.00207111
0.00295345
-0.000254962
0.0017094
0.00107534
0.000761181
0.00125282
-0.000486109
0.000178531
0.000704368
-0.000966919
-0.000196184
4.54618e-05
-0.00081717
-0.000401122
-0.000252271
-0.000365207
-0.000456577
-0.000397879
0.000158316
-0.000370486
-0.000495415
0.000677843
-0.000342472
-0.000476593
0.00108222
-0.000372816
-0.000344991
0.00109602
-0.000253743
-0.000157921
0.000198004
2.91137e-05
0.000199087
-0.00160648
0.000587564
0.000782053
-0.00344276
0.00106835
0.00103889
-0.00419362
0.000123207
0.00126339
-0.0035603
-0.00213959
0.00147945
-0.00195491
-0.00603643
0.00158428
-0.0109008
0.00162099
0.00117605
-0.0126955
0.00117605
0.00201884
-0.00928136
0.00168117
0.00281779
-0.0056136
0.00190479
0.00318286
-0.00251595
0.00189593
0.0030854
-0.000867697
0.00172639
0.00222982
-0.000419512
0.00145369
0.00116384
-0.00022691
0.00109675
0.000224808
-0.00010007
0.000637995
-0.000145715
-4.81117e-05
-3.79341e-05
-2.54245e-05
-9.78576e-06
-0.000480985
0.000124053
4.16502e-05
-0.000533594
-0.000128348
7.60827e-05
-0.000196492
-0.000919424
0.0001368
0.000400543
-0.0018779
0.000163691
0.000823907
-0.00241392
-2.0084e-05
0.00114368
-0.00224427
-0.000565592
0.00146431
-0.00188711
-0.00197428
0.00174033
-0.00126281
-0.00457043
0.00180655
-0.000615761
-0.00829577
0.0016123
-0.0128778
0.00136117
0.000530493
-0.0137565
0.000530492
0.000452406
-0.0105712
0.00136793
0.000413584
-0.00741058
0.00183579
0.000643396
-0.00494941
0.00220365
0.000837215
-0.00342654
0.00236503
0.000824706
-0.00267791
0.00227093
0.000722651
-0.00217516
0.00205034
0.000605785
-0.00173802
0.00175484
0.000477378
-0.0012959
0.00137622
0.000472933
-0.00097388
0.000968559
0.000634567
-0.000904474
0.000784501
0.000754219
-0.00104792
0.00100436
0.000791054
-0.00128457
0.00138453
0.00085458
-0.00160547
0.00170563
0.000922121
-0.00209766
0.00201004
0.000970602
-0.00287798
0.00226391
0.000907682
-0.00423802
0.00232666
0.00070033
-0.00642105
0.00205798
0.000347212
-0.00961191
0.00166925
-0.0136787
0.00114813
-8.38967e-06
-0.0137397
-8.39029e-06
-0.000707779
-0.0110428
0.00117099
-0.00132651
-0.00852378
0.00173192
-0.0015978
-0.00678322
0.0021051
-0.0016185
-0.00571176
0.00230592
-0.0014867
-0.00508576
0.00227604
-0.00119225
-0.00459867
0.00212905
-0.000756615
-0.00414975
0.0019761
-0.000213691
-0.00370156
0.00186274
0.00030362
-0.00332344
0.00183225
0.00084734
-0.00324215
0.00179395
0.00146124
-0.00345495
0.00179312
0.00201846
-0.00370353
0.00186175
0.00247446
-0.00402789
0.00196642
0.00274889
-0.00447378
0.00210169
0.00276504
-0.00511151
0.00221739
0.00246631
-0.00612231
0.00218302
0.00184666
-0.00773893
0.00193753
0.000905567
-0.0102514
0.00158062
-0.0136552
0.000882082
-0.000416368
-0.012907
-0.000416368
-0.00158899
-0.0107803
0.000910062
-0.00252576
-0.00897333
0.00138633
-0.00300674
-0.00789372
0.00159149
-0.00304859
-0.00729062
0.0016207
-0.00274222
-0.00693947
0.00154735
-0.00217259
-0.00662529
0.001457
-0.0014222
-0.00630664
0.0014065
-0.000586197
-0.00596141
0.00142384
0.000228692
-0.00563406
0.00149573
0.00101995
-0.00553057
0.00149716
0.00186094
-0.0057247
0.00142877
0.00265354
-0.00590896
0.00141282
0.0033073
-0.00612204
0.00144039
0.00372317
-0.00638575
0.00149611
0.00378581
-0.00673566
0.00156151
0.00340305
-0.00733031
0.00159077
0.00255861
-0.00837479
0.0014803
0.00125503
-0.0102019
0.00125406
-0.0128543
0.000454149
-0.000963486
-0.01098
-0.000963486
-0.00252122
-0.0094243
0.000201789
-0.00368524
-0.00833755
0.000528241
-0.00424919
-0.00779815
0.000468379
-0.00421789
-0.00753247
0.000210564
-0.00372078
-0.00740493
-3.16477e-05
-0.00287316
-0.00727675
-0.000196164
-0.0018136
-0.00710817
-0.000258028
-0.000704296
-0.00687475
-0.000195962
0.00023628
-0.00661337
3.87369e-05
0.001159
-0.00653948
8.61849e-05
0.00219195
-0.00670666
-5.09928e-05
0.00322161
-0.00680776
-0.000130862
0.0040898
-0.00687988
-0.00011035
0.00465177
-0.00695332
5.59731e-06
0.00478162
-0.00706665
0.000201143
0.00434861
-0.00733341
0.000436111
0.00331323
-0.00788299
0.00054358
0.00167934
-0.0090307
0.000462689
-0.0109198
-0.000255159
-0.00190607
-0.00716787
-0.00190607
-0.00385622
-0.00631663
-0.00115752
-0.00511433
-0.00591918
-0.00116025
-0.00563507
-0.00586743
-0.00140997
-0.00549215
-0.00593132
-0.00174406
-0.00482459
-0.00604435
-0.00202814
-0.00373823
-0.00613573
-0.00222736
-0.0023747
-0.0061568
-0.00231491
-0.000931513
-0.00607067
-0.00224727
0.000243885
-0.00588674
-0.00190203
0.00139221
-0.00585135
-0.00183646
0.00272657
-0.00596127
-0.00207975
0.00402787
-0.00596948
-0.00213958
0.00510112
-0.00589012
-0.00206302
0.00580628
-0.00576263
-0.00189585
0.00602577
-0.0056332
-0.00165293
0.00562093
-0.00556474
-0.00136383
0.00447915
-0.00563277
-0.00110843
0.00250908
-0.00607752
-0.000983101
-0.00712488
-0.00128583
-0.00358393
-0.00358393
-0.0060121
-0.00388845
-0.00727881
-0.00465246
-0.00771254
-0.0054337
-0.00745311
-0.00619074
-0.00661268
-0.00688477
-0.00527543
-0.00747298
-0.00353092
-0.00790129
-0.00156238
-0.00803921
0.000213467
-0.00766258
0.00190311
-0.00754099
0.00375099
-0.00780915
0.00541152
-0.00763001
0.00673155
-0.00721015
0.00760787
-0.00663894
0.00794279
-0.00596812
0.0076199
-0.00524185
0.00646991
-0.00448278
0.0040752
-0.00368279
-0.00304967
0.00034556
-0.000276943
0.000492769
0.000428838
-0.00016653
0.000428838
0.000694086
-0.000515887
0.00051602
0.00129206
-0.000969004
0.000680416
0.00169192
-0.0008248
0.000680339
0.00190438
-0.000619029
0.000668505
0.00198698
-0.000469798
0.000678003
0.00197729
-0.000379638
0.000692569
0.0018747
-0.000312314
0.000720785
0.0016504
-0.000224668
0.000763306
0.00131999
-0.000147317
0.000806817
0.000948817
-0.000124944
0.000861091
0.000635317
-0.000201824
0.000930134
0.000451552
-0.000348115
0.000994765
0.000353678
-0.000445511
0.00105316
0.000522217
-0.000733119
0.00110446
0.000421194
-0.000484952
0.00130136
-0.000300508
2.08695e-05
0.00156723
-0.000841863
-0.000330587
0.00203378
-0.00186361
0.00263458
0.00215716
-0.00304235
0.00317362
0.00266007
-0.00117211
0.00266007
0.0017506
0.000123407
0.00179795
0.000411709
0.000260408
0.00102279
-0.000385486
-0.00012315
0.000251643
-0.000298071
-0.000799906
9.5483e-06
2.06609e-07
-0.000903274
-0.000108924
0.000285174
-0.000770413
-0.000168655
0.000512677
-0.000659817
-0.000142595
0.000659097
-0.000498161
-9.5851e-05
0.000760044
-0.000383675
-4.1018e-05
0.000872175
-0.000383677
3.00664e-05
0.000986519
-0.000489267
0.000131283
0.00112508
-0.000706537
0.000304407
0.000763145
-0.000357313
0.000516832
-0.000667715
0.000232298
0.000885466
-0.00259136
0.000692449
0.0018462
-0.00372591
4.13989e-05
0.00261527
-0.00298514
-0.00250775
0.00316591
-0.00638529
0.00350001
0.0021915
-0.00675739
0.00356896
0.00375752
-0.00430416
0.00375752
0.00411935
-0.00149126
0.00332396
0.00312098
0.000461147
0.00250712
0.00164761
0.000937359
0.00166578
0.000425993
0.000250029
0.000876093
-0.00015468
-0.000404456
0.000127344
-0.000175912
-0.000713807
-0.000287625
-1.85301e-05
-0.000717616
-0.000497448
0.000143078
-0.000534311
-0.000620865
0.000291149
-0.000412045
-0.000596291
0.000390303
-0.000398886
-0.000428932
0.000165622
-0.000308669
-0.000113831
-0.000809079
5.21177e-05
0.000415151
-0.00229898
0.000798181
0.00111651
-0.00395439
0.00128061
0.00164602
-0.00472443
0.000566085
0.00215982
-0.00412167
-0.00164809
0.0025662
-0.0024089
-0.00541427
0.00277804
-0.00980049
0.0026273
0.00168117
-0.00928136
0.00201884
0.00299011
-0.00692204
0.00299011
0.00388653
-0.00380041
0.00331751
0.00408981
-0.000894187
0.00304801
0.00362794
0.000562774
0.00256289
0.0026001
0.000750869
0.00198075
0.00147885
0.000525931
0.00128764
0.000637965
0.000245772
0.000519318
0.000111538
4.35254e-05
-0.000272639
-0.000101782
-4.7359e-06
-0.000797234
-0.000295281
6.22413e-05
-0.000814379
-0.000779783
0.000238118
-0.00034899
-0.0016116
0.000523988
0.00039971
-0.00264593
0.000839913
0.00107046
-0.00336541
0.00106434
0.00159701
-0.00358917
0.000929242
0.00203945
-0.00332953
-0.000388762
0.00243554
-0.00253842
-0.00330889
0.00267625
-0.00147014
-0.00736314
0.00249288
-0.0116933
0.00178387
0.00136793
-0.0105712
0.000452405
0.00207997
-0.00834612
0.00207997
0.00246563
-0.00530357
0.00295329
0.00280996
-0.00232376
0.00328888
0.00288345
-0.00036308
0.0032174
0.00252796
0.000489088
0.00288823
0.00195038
0.000731476
0.00242239
0.00129654
0.000812824
0.00184165
0.000718518
0.000870706
0.00112708
0.000397184
0.000855393
0.000429775
0.00021206
0.000872615
0.000159255
-0.000118225
0.000983914
0.000588845
-0.000599904
0.0011
0.0012902
-0.00103879
0.00111876
0.00186566
-0.00131188
0.000973909
0.00237356
-0.00124675
0.000308002
0.00282001
-0.00107479
-0.00134547
0.00311141
-0.00103475
-0.00425755
0.0029666
-0.000806549
-0.00826927
0.0023472
-0.0124196
0.0010679
0.00117099
-0.0110428
-0.000707779
0.00139475
-0.00879365
0.00139475
0.00120457
-0.00594884
0.00256737
0.00105572
-0.00321576
0.00314596
0.000987888
-0.00131411
0.00332476
0.000899108
-0.000300467
0.00315438
0.000712157
0.000233235
0.00281424
0.000496686
0.000601124
0.00240327
0.000365755
0.000876313
0.00198806
0.000398578
0.00102453
0.00163028
0.000544169
0.00108935
0.00143162
0.000674825
0.00109196
0.00155441
0.000709196
0.00101988
0.0019075
0.000698821
0.00079939
0.00229616
0.000738725
0.000315753
0.00271993
0.000699672
-0.000581708
0.00314615
0.000419252
-0.00220047
0.00331844
-8.23543e-05
-0.00479257
0.00297415
-0.00039761
-0.00843241
0.00205901
-0.0122833
0.000348133
0.000910062
-0.0107803
-0.00158899
0.000716518
-0.00840657
0.000716519
0.000136892
-0.00595597
0.00197308
-0.000212914
-0.00382612
0.00255165
-0.000389716
-0.00227161
0.00275501
-0.000417816
-0.0013391
0.00261408
-0.000316956
-0.000808297
0.00239767
-0.000131592
-0.000394894
0.00221715
8.25702e-05
1.14827e-05
0.0020745
0.000350999
0.000323939
0.00192788
0.000712121
0.000397254
0.00182813
0.0010724
0.000322262
0.00183817
0.00140828
0.000121485
0.00197532
0.00168733
-0.000202722
0.00216345
0.0018144
-0.000721648
0.00240643
0.0016925
-0.00160646
0.00270815
0.00126418
-0.00303446
0.00285308
0.00060175
-0.00510118
0.00245134
4.32022e-06
-0.00806653
0.00148562
-0.0113779
-0.000446885
0.000201788
-0.0094243
-0.00252122
-0.000342192
-0.0073186
-0.000342191
-0.00116009
-0.00539232
0.000782494
-0.00159681
-0.00406422
0.0011432
-0.0016943
-0.00312513
0.00116158
-0.00154775
-0.00251301
0.000995718
-0.001185
-0.00214801
0.000780794
-0.000676998
-0.00184495
0.000684026
-0.000125589
-0.00150744
0.000771543
0.000353568
-0.0011371
0.00102061
0.000863794
-0.00108081
0.00105401
0.00145385
-0.00124547
0.000926677
0.00204451
-0.00144506
0.000845007
0.00253016
-0.00168231
0.000883583
0.00278972
-0.00201991
0.0010443
0.00273315
-0.00261188
0.00126313
0.00230341
-0.00352673
0.00135813
0.00148613
-0.00489183
0.00115151
0.000498074
-0.00700241
0.000386631
-0.00965202
-0.00148294
-0.00115752
-0.00631663
-0.00385622
-0.00243098
-0.00477166
-0.00243098
-0.00338795
-0.00376891
-0.00182669
-0.0038229
-0.00322748
-0.00181175
-0.0036953
-0.00289574
-0.00210105
-0.00317323
-0.00271412
-0.00234911
-0.00240454
-0.00258748
-0.00255658
-0.00150072
-0.00243411
-0.00262957
-0.000518008
-0.00220126
-0.00253615
0.0003471
-0.00182116
-0.00208308
0.00120659
-0.00182803
-0.00194873
0.00219005
-0.0021355
-0.00217317
0.0031176
-0.00228731
-0.00222488
0.00389208
-0.00238172
-0.00213808
0.00442979
-0.00246942
-0.00198406
0.00459038
-0.00262423
-0.00180117
0.0042047
-0.00293453
-0.00157036
0.00320926
-0.00349251
-0.00151231
0.00165634
-0.00456965
-0.00186293
-0.00635256
-0.00292894
-0.00388845
-0.0060121
-0.00627428
-0.00627428
-0.00751463
-0.007181
-0.0079405
-0.00823531
-0.00771667
-0.00931031
-0.00696183
-0.0103537
-0.00574406
-0.0112782
-0.00410799
-0.0119715
-0.00211949
-0.012229
0.000189229
-0.0117925
0.00244045
-0.0116202
0.00435722
-0.0118614
0.00594994
-0.01151
0.00716812
-0.0108101
0.00795302
-0.00989326
0.00822164
-0.00886097
0.0078545
-0.00780924
0.00664292
-0.00676371
0.00418126
-0.00579078
-0.00522096
0.00026531
-0.000199533
0.00042702
0.000516021
-0.000515887
0.000694086
0.000976171
-0.000920203
0.000976171
0.00155959
-0.00108884
0.00118593
0.00191309
-0.000857379
0.00118429
0.00211495
-0.000689481
0.00115616
0.00218729
-0.000546921
0.00115262
0.00215177
-0.000450538
0.00117864
0.00198872
-0.000359794
0.00124363
0.00166815
-0.000249591
0.00133345
0.0012197
-0.000154213
0.00140946
0.000744201
-0.000124232
0.0014608
0.000365728
-0.000199934
0.00150853
0.000155217
-0.00034404
0.00154932
8.18021e-05
-0.000444123
0.00157072
0.000256891
-0.00072096
0.00165038
0.000342824
-0.00054008
0.00175555
-8.32152e-05
1.55483e-05
0.00197771
-0.000483744
2.56036e-05
0.00240876
-0.00078531
0.00293644
0.00152753
-0.000382271
0.00182907
0.00179795
0.000123406
0.0017506
0.00120033
0.000275185
0.00120033
0.000428859
6.25764e-05
0.000642881
5.09417e-05
-0.000458151
0.00023037
0.000183013
-0.000958962
0.000146998
0.00042198
-0.00101502
0.000120239
0.000593279
-0.000896187
0.000105719
0.000666682
-0.000734563
0.000158786
0.00061167
-0.000515683
0.000225258
0.000510953
-0.00036609
0.000271574
0.000470921
-0.000362819
0.000308682
0.000525887
-0.000494993
0.00037138
0.000668998
-0.000676772
0.000494044
0.000402384
-0.000335758
0.000675098
-0.000749072
0.000193715
0.00112228
-0.00228644
0.000632193
0.00221144
-0.0033074
0.000381367
0.00327058
-0.00268281
-0.0015534
0.00412043
-0.00447222
0.00450416
0.00207111
-0.00290986
0.00402546
0.00332396
-0.00149126
0.00411935
0.00347624
-2.92885e-05
0.00347624
0.00260056
0.000987378
0.0024581
0.00144833
0.0008536
0.00150634
0.000559646
8.13504e-05
0.000724507
0.000151711
-0.000608719
0.000129004
9.62223e-05
-0.000919589
-0.000208716
9.16006e-05
-0.000833
-0.000394376
3.83607e-05
-0.000588332
-0.000494971
-2.86612e-05
-0.000423657
-0.000471701
-8.58244e-05
-0.000418488
-0.000316099
-0.000344042
-0.000336874
-1.3726e-05
-0.00118872
8.04605e-05
0.00050262
-0.00250685
0.000862679
0.00123625
-0.00400911
0.00136757
0.00197446
-0.00480768
0.000791876
0.00279871
-0.00422676
-0.00107149
0.00343815
-0.00250723
-0.00417163
0.00367675
-0.00760852
0.00325638
0.00190479
-0.0056136
0.00281779
0.00331751
-0.00380041
0.00388653
0.00410512
-0.0016045
0.00410512
0.00414649
0.000349385
0.00364468
0.00349561
0.00116768
0.00289974
0.00243496
0.00106051
0.00206229
0.00137303
0.000554666
0.00118621
0.000581792
4.15086e-05
0.000349471
9.9699e-05
-0.000286017
-0.000337519
-0.000229023
-0.000327318
-0.000729521
-0.000590544
-0.000184563
-0.000691953
-0.00118253
8.27971e-05
-0.00025829
-0.0020434
0.000475529
0.000448184
-0.00307048
0.000998082
0.00117993
-0.00389053
0.00145238
0.00182737
-0.0043095
0.00145773
0.00236827
-0.00416799
0.00023418
0.00285173
-0.00326442
-0.00247405
0.00317525
-0.00185763
-0.00596165
0.00287612
-0.00936777
0.00168551
0.00183579
-0.00741058
0.000413584
0.00295329
-0.00530357
0.00246563
0.00365315
-0.00300424
0.00365315
0.00397284
-0.000624974
0.00394356
0.00377452
0.000936608
0.00364681
0.00317424
0.00144549
0.00310355
0.00236181
0.00133751
0.00245201
0.00148663
0.00107554
0.00168281
0.000720032
0.000818609
0.000789067
0.000128963
0.000664688
2.88392e-05
-0.000413793
0.000692744
-0.000175298
-0.00104592
0.000913342
0.000390422
-0.00174049
0.00125558
0.00120471
-0.00234816
0.0015923
0.00187911
-0.00276701
0.0017976
0.00244718
-0.00284494
0.00141571
0.00293997
-0.00261484
-0.000179473
0.00329497
-0.00217972
-0.00317271
0.00323014
-0.0013904
-0.00676112
0.00235735
-0.010109
0.0004187
0.00173192
-0.00852378
-0.00132651
0.00256737
-0.00594884
0.00120457
0.00285442
-0.00357836
0.00285442
0.00289536
-0.00115124
0.00363128
0.00275729
0.000628575
0.00377087
0.00239155
0.00147184
0.00349377
0.00187212
0.0016426
0.00302858
0.00131565
0.00156577
0.00246951
0.00080929
0.00146848
0.00184456
0.000423206
0.00144246
0.00123858
0.000140538
0.00149486
0.000912164
-0.000161964
0.00159176
0.00117849
-0.000506652
0.00174393
0.00176383
-0.000808994
0.00186037
0.00233042
-0.000987449
0.00181981
0.00287617
-0.00107287
0.00125294
0.00339433
-0.00120908
-0.000385689
0.00366086
-0.00132843
-0.00331877
0.00323957
-0.00106348
-0.00683291
0.00186587
-0.0102146
-0.000609733
0.00138633
-0.00897333
-0.00252576
0.00197308
-0.00595597
0.000136893
0.00199208
-0.00361638
0.00199208
0.00181559
-0.00134976
0.00292666
0.00158855
0.000390685
0.00321994
0.00136715
0.0012131
0.00309421
0.0011189
0.00148118
0.00280734
0.00086778
0.00153631
0.00249773
0.000650885
0.001568
0.00219187
0.000489007
0.00163763
0.00189458
0.000429723
0.00169465
0.00168761
0.000427939
0.00170112
0.00173058
0.000415782
0.00171938
0.00201201
0.00039798
0.00168611
0.00235551
0.000356814
0.00149601
0.00277139
0.000191243
0.00087963
0.00324702
-0.000137554
-0.000667565
0.00346375
-0.000618646
-0.00317921
0.00279288
-0.000687962
-0.00639454
0.00111658
-0.00982173
-0.00152765
0.000528242
-0.00833755
-0.00368524
0.000782493
-0.00539232
-0.00116008
0.000540832
-0.00313305
0.000540832
0.000340645
-0.00139665
0.00139027
0.000375696
-0.000238603
0.00175581
0.000453687
0.000450772
0.00168005
0.000528519
0.000721792
0.00146534
0.000599501
0.000836632
0.00131271
0.000644174
0.00101292
0.00128194
0.000584346
0.00135267
0.00136539
0.000587943
0.00140661
0.00133844
0.000804359
0.00117406
0.0012373
0.00104539
0.00105835
0.00126499
0.00125251
0.000944844
0.00141772
0.00138015
0.000708705
0.00170396
0.00144385
1.49777e-05
0.00206408
0.001098
-0.00103926
0.00207568
0.00047392
-0.00280441
0.00140079
0.000140979
-0.00545616
-0.000218792
-0.00858217
-0.00258151
-0.00116025
-0.00591918
-0.00511433
-0.00182669
-0.00376891
-0.00338795
-0.00220149
-0.00238345
-0.00220149
-0.0022698
-0.00151679
-0.0016233
-0.00191636
-0.000898378
-0.00179471
-0.001292
-0.000493473
-0.00202922
-0.000676948
-0.000196419
-0.00225343
-0.00015347
2.49191e-05
-0.00234134
0.000258865
0.000311358
-0.00224694
0.0005787
0.000762094
-0.00181235
0.000934561
0.000742933
-0.00164092
0.00140015
0.000339954
-0.00180466
0.00193702
0.000120799
-0.0018242
0.00253116
-6.33489e-05
-0.00172404
0.00312036
-0.000308548
-0.00155601
0.00338941
-0.000722676
-0.00133257
0.00325945
-0.00131321
-0.00116646
0.00268558
-0.00218235
-0.0015605
0.00155527
-0.00364292
-0.00254585
-0.00590347
-0.00405235
-0.00465246
-0.00727881
-0.007181
-0.00751463
-0.00837272
-0.00837272
-0.00868537
-0.00943945
-0.00836279
-0.0105313
-0.00755872
-0.0116513
-0.00631255
-0.0127208
-0.00463182
-0.0136273
-0.00245764
-0.0140918
0.000242148
-0.0137302
0.00287241
-0.0135076
0.00495718
-0.0136062
0.00659087
-0.0130229
0.00780948
-0.012092
0.00861577
-0.0110081
0.00892476
-0.00989266
0.0086109
-0.00880859
0.00740457
-0.00773973
0.00479197
-0.00682111
-0.00633246
0.000309299
-0.000785365
0.000903171
0.000680416
-0.000969004
0.00129207
0.00118593
-0.00108884
0.00155959
0.00168065
-0.000989366
0.00168065
0.00202403
-0.000822726
0.00166369
0.0022461
-0.000705626
0.00163975
0.00233975
-0.000587155
0.00164615
0.00230011
-0.000489372
0.00170768
0.00208647
-0.000376028
0.00183331
0.00166269
-0.000240595
0.00199782
0.00107825
-0.000120067
0.00211395
0.000489759
-7.92893e-05
0.00212855
4.65084e-05
-0.000161222
0.00211298
-0.000175459
-0.000312513
0.0020838
-0.000241696
-0.000425558
0.00206253
-3.46769e-05
-0.000664442
0.00210785
0.000270775
-0.000717896
0.00216804
0.000146971
-0.000112244
0.00221374
-7.43575e-05
0.000214313
0.00241578
0.000136701
0.00272556
0.000913212
0.000382346
-0.000251724
0.00102279
0.000260408
0.00041171
0.000642881
6.25765e-05
0.00042886
0.000328459
-0.000360482
0.000328459
0.000288632
-0.000834944
0.000282456
0.000501694
-0.00113223
0.000360571
0.000697463
-0.00107123
0.000408576
0.000790501
-0.000949413
0.000472745
0.000714112
-0.000730078
0.000589239
0.000465701
-0.000470508
0.000703583
0.000195574
-0.000302665
0.00072429
5.09503e-05
-0.00030395
0.000677957
8.23533e-05
-0.000454213
0.000632967
0.000258937
-0.000646217
0.000651174
0.00022832
-0.00044442
0.000724593
-0.00046229
7.18808e-05
0.00107658
-0.00153055
0.000453725
0.00210818
-0.00235759
0.000715018
0.00327053
-0.00200049
-0.000264378
0.00424213
-0.00204506
0.00468548
0.0017094
-0.000254963
0.00295345
0.00250712
0.000461147
0.00312098
0.0024581
0.000987378
0.00260056
0.00178408
0.000987653
0.00178408
0.000999064
0.000414871
0.0010416
0.000449594
-0.000345659
0.000487444
0.000252078
-0.000896375
0.000151687
0.00018812
-0.00106132
-3.28286e-05
4.99913e-05
-0.000869353
-0.000116962
-0.000173578
-0.000589453
-0.000152455
-0.000387276
-0.00041305
-0.000147621
-0.000513925
-0.000412209
-8.11937e-05
-0.000685075
-0.000379025
8.22394e-05
-0.001265
-8.08376e-06
0.000444423
-0.00229644
0.000715298
0.00110802
-0.00353755
0.00134109
0.00194641
-0.00433416
0.00108618
0.00296287
-0.00387653
-0.000189928
0.00388547
-0.0023409
-0.0023021
0.00417885
-0.00481897
0.00368941
0.00189593
-0.00251595
0.00318286
0.00304801
-0.000894188
0.00408981
0.00364468
0.000349384
0.00414649
0.00355502
0.00116703
0.00355502
0.00287821
0.00129759
0.00269388
0.00192509
0.000890445
0.00177935
0.00104916
0.000222407
0.000943378
0.000412744
-0.000333461
0.000258043
-2.52806e-05
-0.000558015
-0.000210824
-0.000436339
-0.000482722
-0.000425192
-0.000908564
-0.000276268
-0.000356512
-0.00150101
-5.23525e-05
-2.57002e-05
-0.00227151
0.000343386
0.000496276
-0.00318661
0.000931992
0.00115497
-0.00399946
0.00148396
0.00187157
-0.00444334
0.00162513
0.00252813
-0.00435011
0.000756465
0.00308822
-0.00346512
-0.00130808
0.00340842
-0.0019399
-0.00393772
0.00298653
-0.0066124
0.00153905
0.00220365
-0.00494941
0.000643396
0.00328888
-0.00232376
0.00280996
0.00394356
-0.000624974
0.00397284
0.0041317
0.000790755
0.0041317
0.00381562
0.00155656
0.00370393
0.0031491
0.00160868
0.00305187
0.00227642
0.0012473
0.00229982
0.00137477
0.000797046
0.00145397
0.000569991
0.000434231
0.000601606
-0.000186928
0.000283511
1.95258e-05
-0.000994447
0.000342064
1.38853e-05
-0.0017906
0.000601859
0.000532362
-0.00254344
0.00104226
0.00125867
-0.0031741
0.00154436
0.0018974
-0.00362482
0.00193702
0.00244484
-0.00375669
0.00177132
0.00292565
-0.00344471
0.000500174
0.00323929
-0.00270903
-0.00192781
0.0031142
-0.0016149
-0.00472454
0.00205006
-0.00770132
-0.000107264
0.0021051
-0.00678322
-0.0015978
0.00314596
-0.00321577
0.00105572
0.00363128
-0.00115124
0.00289536
0.00375673
0.000539845
0.00375673
0.0035642
0.00165187
0.0038681
0.00310601
0.00200571
0.00355494
0.00248056
0.00185828
0.00304306
0.00178624
0.00154185
0.00241903
0.00108476
0.00126954
0.00171072
0.000406225
0.00114628
0.00105434
-0.000288973
0.00114866
0.000800754
-0.000986986
0.00129065
0.0011877
-0.00157835
0.00158927
0.00180816
-0.0020184
0.00193656
0.00237827
-0.00227146
0.00217746
0.00288879
-0.00233409
0.00190046
0.00332781
-0.00223186
0.000549236
0.00350957
-0.00196404
-0.00194669
0.00299063
-0.0013069
-0.00490765
0.00139186
-0.00840571
-0.00121222
0.00159149
-0.00789373
-0.00300675
0.00255165
-0.00382612
-0.000212914
0.00292666
-0.00134977
0.00181559
0.00289991
0.000593326
0.00289991
0.00276314
0.00168153
0.00332705
0.00251045
0.00206817
0.00328444
0.00214953
0.00201049
0.00301603
0.00170402
0.00183185
0.00265323
0.00120918
0.00170939
0.00224686
0.000689172
0.00170486
0.00185599
0.000199133
0.0017024
0.00162389
-0.000230433
0.00169339
0.0017574
-0.000573955
0.00180747
0.00213732
-0.000786394
0.0019754
0.00252909
-0.000879192
0.00209752
0.00294412
-0.000928362
0.00183751
0.00335914
-0.00108094
0.000691589
0.00347398
-0.00116931
-0.00173033
0.00266489
-0.0008507
-0.00471473
0.000605055
-0.00866787
-0.00211618
0.000468377
-0.00779815
-0.00424919
0.0011432
-0.00406422
-0.00159681
0.00139027
-0.00139665
0.000340645
0.00151388
0.000346108
0.00151388
0.00155914
0.00142842
0.00196364
0.00162011
0.00168829
0.00199895
0.00161721
0.00162635
0.00185237
0.00151546
0.00156315
0.00168315
0.00129717
0.00162547
0.00158414
0.000859994
0.00192628
0.00158113
0.000457727
0.00192748
0.00151562
0.000307558
0.0016379
0.00144294
0.00026167
0.00156977
0.00154857
0.000294928
0.00160299
0.00175686
0.000386682
0.0016482
0.00206152
0.00044123
0.00144265
0.00240439
0.000377059
0.000326775
0.00250466
4.70124e-05
-0.00143979
0.0014403
0.000132355
-0.00431286
-0.000705997
-0.00797498
-0.00314203
-0.00140997
-0.00586743
-0.00563507
-0.00181175
-0.00322748
-0.0038229
-0.0016233
-0.00151679
-0.0022698
-0.0012949
-0.000310697
-0.0012949
-0.000842438
0.000348496
-0.00116725
-0.000381451
0.000572947
-0.00137488
2.92164e-06
0.000698139
-0.00170959
0.000348758
0.00087409
-0.00199812
0.000627479
0.0011744
-0.0020746
0.000744797
0.00176177
-0.00176516
0.000886877
0.00170018
-0.00155571
0.00117188
0.00112764
-0.00157941
0.00152154
0.00085462
-0.00145872
0.00192747
0.000701981
-0.00122896
0.00237379
0.000580504
-0.000934649
0.00274299
0.000362929
-0.000622056
0.00279294
-0.000290003
-0.000599631
0.00260096
-0.00142477
-0.00138353
0.00170993
-0.00314235
-0.00282532
-0.0057929
-0.00452448
-0.0054337
-0.00771254
-0.00823531
-0.0079405
-0.00943945
-0.00868537
-0.0095948
-0.0095948
-0.00913247
-0.0106451
-0.00830512
-0.0119057
-0.0070857
-0.0132421
-0.00535329
-0.0144856
-0.00294224
-0.0153284
0.000318698
-0.0152294
0.00347583
-0.0149646
0.0057605
-0.0147633
0.00740368
-0.0138115
0.0085578
-0.0125442
0.00933763
-0.0112074
0.00974475
-0.00993687
0.00952255
-0.0088764
0.00828416
-0.00792612
0.00544012
-0.00711943
-0.00668524
0.000255325
-0.000734286
0.00138221
0.000680339
-0.0008248
0.00169192
0.00118429
-0.000857379
0.00191309
0.00166369
-0.000822726
0.00202403
0.00204474
-0.000762054
0.00204474
0.00231308
-0.000683875
0.00205532
0.0024513
-0.000598381
0.00210634
0.00242446
-0.000503865
0.00223842
0.00216622
-0.000380393
0.00247195
0.00161421
-0.00022519
0.00277502
0.000851953
-6.94058e-05
0.00294559
0.000151422
-1.05848e-05
0.00283963
-0.000324164
-9.8595e-05
0.00268713
-0.000538671
-0.000255848
0.00255414
-0.000561048
-0.000399707
0.00248461
-0.000390366
-0.000557422
0.00249461
2.4403e-05
-0.000820994
0.00257431
0.000217675
-0.000475062
0.00249554
0.000106816
0.000117096
0.00240951
0.000308765
0.00252366
0.00015607
0.000135793
-0.00127785
0.000251642
-0.000123149
-0.000385486
0.00023037
-0.000458151
5.09418e-05
0.000282455
-0.000834944
0.000288632
0.000471386
-0.00113988
0.000471386
0.000705886
-0.00117189
0.000614116
0.000878472
-0.00109482
0.000732458
0.000899844
-0.000940243
0.000887771
0.000666657
-0.000677135
0.00111918
0.000204758
-0.000395698
0.00133598
-0.000224919
-0.000216069
0.00130061
-0.000436093
-0.000231561
0.00111009
-0.000417925
-0.000395053
0.00091125
-0.000215112
-0.000595723
0.00078824
-2.75482e-05
-0.000617062
0.000754395
-0.000204178
-0.000195594
0.000891383
-0.000732539
0.000191938
0.00162365
-0.00125043
0.000632756
0.00268074
-0.00118055
0.000755494
0.00353398
-0.000132908
0.00394668
0.00125282
0.000761182
0.00107534
0.00166578
0.000937359
0.00164761
0.00150634
0.0008536
0.00144833
0.0010416
0.000414871
0.000999064
0.000580748
-0.000218133
0.000580749
0.000358065
-0.000810161
0.000348429
0.000290654
-0.00112508
0.00024938
0.000177212
-0.00109046
0.00023085
-0.000111745
-0.000830765
0.000325632
-0.000519161
-0.000537782
0.000397043
-0.000832329
-0.000383584
0.000333054
-0.000965588
-0.000401386
0.000221884
-0.00100076
-0.000434493
0.000156848
-0.00123382
-0.000191086
0.000272861
-0.00185491
0.000382368
0.000729712
-0.00271398
0.00109838
0.00151156
-0.00338817
0.00131255
0.00251648
-0.00321319
0.000765406
0.00357785
-0.00198669
-0.000420256
0.0041281
-0.00212549
0.00369531
0.00172639
-0.000867698
0.00308541
0.00256289
0.000562773
0.00362794
0.00289974
0.00116768
0.00349561
0.00269388
0.00129759
0.00287821
0.00207339
0.00102289
0.00207339
0.00132524
0.000419978
0.00129739
0.000683265
-0.000218879
0.000679173
0.000211484
-0.000622043
0.000261414
-0.000238218
-0.000673273
8.13925e-05
-0.000757272
-0.000506036
6.2116e-05
-0.00126989
-0.000333766