/*--------------------------------*- C++ -*----------------------------------*\
| =========                 |                                                 |
| \\      /  F ield         | OpenFOAM: The Open Source CFD Toolbox           |
|  \\    /   O peration     | Version:  v2006                                 |
|   \\  /    A nd           | Website:  www.openfoam.com                      |
|    \\/     M anipulation  |                                                 |
\*---------------------------------------------------------------------------*/
FoamFile
{
    version     2.0;
    format      ascii;
    class       volScalarField;
    location    "57";
    object      k;
}
// * * * * * * * * * * * * * * * * * * * * * * * * * * * * * * * * * * * * * //

dimensions      [0 2 -2 0 0 0 0];


internalField   nonuniform List<scalar> 
78750
(
0.731606
0.264398
0.140279
0.0590804
0.0090292
0.000482963
0.00292881
0.00189047
0.00211245
0.00196108
0.0018267
0.00167319
0.00150986
0.00135766
0.00122852
0.00112879
0.00105604
0.00100527
0.000971227
0.000949263
0.00093593
0.000929194
0.000928268
0.0009332
0.00094432
0.000961652
0.000984594
0.00101154
0.0010395
0.00106352
0.00107593
0.00106352
0.00100379
0.000803112
0.00050491
0.00603101
0.00367943
0.00175749
0.000812975
0.000569775
0.00198683
0.00212327
0.00251381
0.0026767
0.00275848
0.00275212
0.00265669
0.00247645
0.00224964
0.00202918
0.00184396
0.00169332
0.00157233
0.00147822
0.00140832
0.00135949
0.00132914
0.00131559
0.00131862
0.00133903
0.00137794
0.00143663
0.00151559
0.00161347
0.00172579
0.00184169
0.00193891
0.00197181
0.00179164
0.00158844
0.00335303
0.00514204
0.00551816
0.0054577
0.00452912
0.00323682
0.00252797
0.00212837
0.00195952
0.00189846
0.00188378
0.00187476
0.00184672
0.00180628
0.00175896
0.0017078
0.00165859
0.00161451
0.00157733
0.00154927
0.00153253
0.00152893
0.00153987
0.00156622
0.00160775
0.00166296
0.00172994
0.00180793
0.00189784
0.00199933
0.0021077
0.00220738
0.00224055
0.00208855
0.00253132
0.00206186
0.00230599
0.00235037
0.00231954
0.00241761
0.0025325
0.00252997
0.00248999
0.00242487
0.00235199
0.00228414
0.00222525
0.00216908
0.00211045
0.00204918
0.00198899
0.00193471
0.0018892
0.00185142
0.00182091
0.00179928
0.00178952
0.00179495
0.00181846
0.00186175
0.00192419
0.00200358
0.00209383
0.00218597
0.00227231
0.0023525
0.00243982
0.00256055
0.00266146
0.00350527
0.00307059
0.00430293
0.00449503
0.00440739
0.00390596
0.00319181
0.00263957
0.00229805
0.00208323
0.0019417
0.00185103
0.00179666
0.00176527
0.00174614
0.00173299
0.00172265
0.00171309
0.00170405
0.00169583
0.001689
0.00168468
0.00168481
0.00169242
0.00171147
0.00174532
0.00179501
0.00185978
0.00193906
0.00202918
0.00212068
0.00219591
0.00223318
0.00224447
0.00256294
0.00424932
0.00193666
0.00299934
0.00337269
0.00359625
0.00381375
0.00394327
0.00385689
0.00356108
0.00318091
0.00280015
0.00246959
0.00221689
0.00204475
0.00193361
0.00185901
0.00180411
0.00176102
0.00172625
0.00169764
0.00167339
0.00165217
0.00163339
0.00161754
0.00160683
0.00160541
0.00161998
0.00165492
0.00170924
0.00177684
0.00184904
0.00191925
0.001967
0.00184295
0.00197893
0.00467081
0.00201986
0.00345281
0.00385455
0.00401164
0.00407675
0.00409828
0.0041058
0.00407758
0.00394612
0.00367911
0.00331015
0.00289886
0.0025101
0.00220079
0.00200216
0.0019028
0.00186079
0.00184267
0.00183153
0.00181922
0.00180135
0.00177486
0.00173655
0.00168256
0.00161224
0.00153093
0.00145291
0.00140057
0.00139201
0.00143996
0.00162072
0.00217922
0.00335
0.00429818
0.00610006
0.00163535
0.00285537
0.00343356
0.00372144
0.00389983
0.00402944
0.00412542
0.00419331
0.00423078
0.00421384
0.00410421
0.00387672
0.00353518
0.00311259
0.0026693
0.00228745
0.0020291
0.00189428
0.00183828
0.00182086
0.0018181
0.00181787
0.00181349
0.00179938
0.00176905
0.0017184
0.00165062
0.00158432
0.00156113
0.00160747
0.0016698
0.00167087
0.00164775
0.00271798
0.00543962
0.00228783
0.00345784
0.00378601
0.00389952
0.00393609
0.00392113
0.00386804
0.00379622
0.00372502
0.00366971
0.00363481
0.00360197
0.0035249
0.00334763
0.00304215
0.00263828
0.0022357
0.00196199
0.00184271
0.00179987
0.00178609
0.00178586
0.00179
0.00179107
0.00178242
0.0017558
0.00170358
0.00162149
0.00151452
0.00138764
0.0011447
0.000879374
0.0004513
0.00146611
0.00651644
0.00268571
0.00361614
0.0039928
0.00417562
0.00428595
0.004355
0.00438304
0.00435936
0.0042707
0.00411647
0.0039265
0.00375665
0.00364469
0.00357025
0.00346247
0.00323097
0.00285852
0.00244775
0.00211846
0.00192451
0.00184047
0.00180282
0.00178219
0.00176392
0.00173543
0.00168145
0.00157458
0.00137614
0.00107142
0.000733492
0.000695416
0.00157953
0.0028722
0.00417048
0.00801691
0.00330192
0.0038859
0.0040091
0.00404668
0.00405088
0.00402377
0.00396437
0.00387669
0.00376574
0.0036262
0.00344396
0.0032278
0.00303212
0.00290127
0.00281956
0.00272931
0.00256304
0.0023421
0.00215284
0.00204308
0.00198616
0.00194956
0.00192093
0.00189372
0.00185979
0.00180919
0.0017268
0.00159141
0.00139571
0.00120147
0.0011938
0.00177629
0.00339523
0.0050674
0.0072052
0.00336181
0.00384611
0.00409172
0.00422316
0.00430033
0.00433095
0.00430806
0.0042264
0.00409367
0.00392616
0.0037339
0.00351995
0.00330181
0.00310916
0.00294031
0.00276042
0.00254279
0.00232175
0.00216426
0.00207869
0.00203298
0.00200221
0.00197434
0.00194304
0.00190309
0.0018485
0.00177111
0.00165892
0.00150146
0.00129623
0.00110931
0.000957773
0.00102196
0.00289362
0.0067803
0.0032387
0.00396907
0.00421619
0.00431559
0.00434846
0.00432062
0.00422229
0.00405013
0.00381851
0.00355047
0.00326917
0.00299801
0.00276752
0.00261038
0.00252434
0.00246674
0.00240135
0.00232592
0.00226132
0.00221665
0.00218533
0.00215921
0.00213255
0.00210114
0.00206029
0.00200406
0.00192485
0.00181358
0.00166422
0.00144344
0.000993963
0.000553914
0.000299433
0.00232567
0.00816465
0.00309752
0.00399286
0.00435491
0.00451994
0.0046051
0.00463511
0.00460874
0.00452272
0.00438215
0.00418504
0.00392117
0.00358888
0.00321264
0.00285493
0.00258771
0.00242883
0.00234559
0.00230383
0.00227988
0.0022636
0.00224917
0.00223232
0.00220932
0.00217621
0.00212966
0.00206442
0.001972
0.00183994
0.00164654
0.00134623
0.000989054
0.00141008
0.00232263
0.00425929
0.00875289
0.00302787
0.00425952
0.00463988
0.00476799
0.00479312
0.00473609
0.00458783
0.00437069
0.0041522
0.00397088
0.00381201
0.00363727
0.00341092
0.00312386
0.00282197
0.00258019
0.00243869
0.00237648
0.0023539
0.00234523
0.00233789
0.00232499
0.00230092
0.00226038
0.00219817
0.00210669
0.00197557
0.0017876
0.00152178
0.00117598
0.000980261
0.00193813
0.00398361
0.00553124
0.00827313
0.00341979
0.00480265
0.00523346
0.0053644
0.00537638
0.00529756
0.00511709
0.00485444
0.00458336
0.00435512
0.00417301
0.00401169
0.00383689
0.00361264
0.00331547
0.00297436
0.00267389
0.00248818
0.00241083
0.00239173
0.00239278
0.00239549
0.00239037
0.00237118
0.00233131
0.00226276
0.00215513
0.00199434
0.00175778
0.00142
0.00108204
0.00122729
0.0030766
0.00495429
0.00778197
0.00368139
0.00518468
0.00556646
0.00562927
0.00556157
0.00537291
0.00503778
0.00463799
0.00430116
0.00406139
0.00390555
0.00380619
0.00373139
0.00365081
0.00353184
0.00333693
0.0030614
0.00278296
0.00259634
0.00251376
0.00248893
0.0024847
0.00248418
0.00247846
0.00245944
0.00241806
0.00234411
0.00222648
0.00204907
0.00176714
0.00139306
0.00111495
0.00198771
0.00420541
0.00832611
0.00436295
0.005735
0.00601771
0.00600088
0.00584818
0.00555255
0.00511367
0.00469638
0.00442395
0.00424356
0.00409819
0.00397303
0.00386453
0.00376537
0.00366192
0.00353245
0.00334795
0.0031034
0.00286232
0.00270015
0.00262442
0.00259845
0.00259165
0.00258916
0.00258203
0.00256095
0.00251397
0.00242591
0.00227398
0.0019971
0.00152914
0.00146056
0.00237031
0.00459337
0.00899489
0.00460389
0.00586461
0.00601942
0.00590019
0.00562769
0.00520062
0.00467973
0.00425672
0.00405257
0.00397563
0.00392925
0.00388294
0.00383086
0.00377069
0.00369829
0.00360513
0.0034763
0.00329704
0.00308479
0.00290324
0.00279572
0.00274701
0.00272649
0.00271676
0.002709
0.00269566
0.00266635
0.00260393
0.00247497
0.00219931
0.00173173
0.00209452
0.00351031
0.00554618
0.00940359
0.00548467
0.00628205
0.00616038
0.0058263
0.00533481
0.00485167
0.00449363
0.00426761
0.00418241
0.00415403
0.00412089
0.00407329
0.00401393
0.00394487
0.00386543
0.00377147
0.00365511
0.00350683
0.00332722
0.00314612
0.00300775
0.002925
0.00287926
0.0028506
0.00282705
0.00280099
0.00276526
0.00271003
0.00261662
0.00242961
0.00204997
0.0023666
0.00410464
0.00603151
0.0095525
0.00657366
0.00644077
0.00589956
0.00517931
0.00431647
0.00388771
0.00379352
0.00381392
0.00390207
0.00398595
0.00403251
0.00404844
0.00404064
0.00401182
0.00396288
0.00389293
0.00379904
0.00367802
0.00353296
0.00338253
0.00325542
0.00316561
0.00310507
0.0030597
0.00301822
0.00297194
0.00291266
0.0028309
0.0027177
0.00257301
0.00229738
0.00233184
0.00417343
0.00623816
0.010051
0.00799196
0.00671156
0.00566104
0.00440838
0.00344537
0.0034513
0.00368007
0.00383553
0.00394318
0.00401745
0.00406479
0.00408902
0.00409237
0.00407646
0.0040414
0.00398652
0.00390988
0.00380974
0.00368942
0.00356435
0.00345849
0.00338449
0.00333592
0.00329961
0.00326461
0.00322157
0.0031603
0.00306663
0.00292223
0.00275065
0.00257367
0.0026119
0.00451729
0.00680851
0.011074
0.00740742
0.0060215
0.00494368
0.00361116
0.00294833
0.00305243
0.00321525
0.0033894
0.00356157
0.00370781
0.00382324
0.00391051
0.00397129
0.00400809
0.00402181
0.00401288
0.00398085
0.00392515
0.00384727
0.00375529
0.00366503
0.00359105
0.00353586
0.00349188
0.00344927
0.00339842
0.00332816
0.0032219
0.0030558
0.00286414
0.00285763
0.00328803
0.0052801
0.00765072
0.0120091
0.00605582
0.00593265
0.00564
0.00512691
0.00443672
0.00374634
0.00320431
0.00292936
0.00290696
0.00303636
0.00321968
0.00339798
0.00354818
0.0036664
0.00375488
0.00381771
0.00385382
0.00386077
0.00383834
0.00379212
0.00373403
0.00367817
0.00363163
0.00359138
0.00354903
0.00349472
0.00341636
0.00329666
0.0031183
0.00295499
0.00318749
0.00409759
0.00606337
0.00828514
0.012273
0.00482167
0.00632391
0.00674579
0.00680111
0.00649182
0.0057261
0.00465177
0.00359279
0.00280727
0.00240362
0.0023427
0.00249387
0.00272424
0.00295613
0.00316479
0.00334867
0.00350959
0.00363996
0.0037236
0.00375862
0.00375759
0.00373797
0.00371171
0.00368135
0.00364353
0.00359072
0.00351081
0.00338493
0.0031906
0.00302727
0.00346663
0.00488039
0.00666695
0.00856669
0.0119489
0.004579
0.00616266
0.00671736
0.006987
0.0071231
0.00705485
0.00660528
0.00569029
0.00451652
0.00337507
0.00250106
0.00202443
0.00192265
0.00206379
0.00230715
0.00257486
0.00285012
0.00314404
0.0034394
0.00366772
0.00379584
0.00384877
0.00385693
0.00383776
0.0037984
0.00373923
0.00365391
0.00352922
0.00334449
0.00313932
0.00339966
0.0049724
0.00672301
0.00844106
0.0115007
0.00402043
0.00522953
0.00580034
0.00615559
0.00645551
0.00673191
0.00694586
0.00698008
0.0066375
0.00581223
0.0046811
0.00350331
0.00251628
0.00189359
0.00167565
0.00176321
0.00200729
0.00231508
0.00268204
0.00312186
0.00354633
0.00384362
0.0040071
0.00407903
0.00408767
0.00404437
0.0039519
0.00380902
0.00361432
0.00338864
0.00338647
0.00458756
0.00639009
0.00816181
0.0114014
0.00395466
0.00541558
0.00611613
0.00642858
0.00657634
0.00665647
0.00673633
0.00687443
0.0070765
0.0072207
0.00707288
0.00644567
0.00537654
0.00407896
0.00281768
0.00187061
0.00141189
0.00141566
0.0016913
0.00208132
0.00256042
0.00310468
0.00358708
0.00392367
0.00412763
0.00422967
0.00424334
0.00416813
0.00399745
0.00373819
0.00351782
0.00416232
0.00597974
0.00795523
0.011711
0.0038426
0.00584259
0.00673545
0.00709723
0.00721572
0.00718753
0.00704656
0.00683564
0.00666183
0.00667633
0.00692508
0.00725133
0.00739521
0.00710119
0.00620538
0.00481956
0.00324629
0.00188716
0.00114515
0.0011009
0.00144816
0.00194689
0.00255606
0.00317629
0.00366614
0.00399576
0.00419609
0.00428678
0.00426521
0.00411402
0.00384452
0.00406904
0.00581594
0.00802057
0.0123536
0.00475258
0.0066509
0.00731532
0.00752905
0.00756625
0.00750376
0.00736734
0.00719006
0.00699541
0.00676624
0.00655862
0.00653827
0.00677449
0.00711711
0.00733811
0.00722666
0.00649854
0.00503805
0.00315427
0.00152965
0.000863798
0.00102777
0.00151623
0.00214282
0.00282021
0.00340816
0.0038322
0.00410306
0.00424254
0.00425001
0.00414787
0.00437447
0.00608286
0.00842836
0.0131258
0.00649717
0.00756646
0.00766473
0.00755394
0.00736924
0.00711571
0.00682466
0.00665501
0.00677612
0.00706055
0.00722522
0.00717341
0.00702708
0.00698027
0.00708114
0.00721716
0.00726586
0.00706915
0.00620387
0.00432669
0.00210199
0.00088773
0.000862997
0.00136097
0.00203268
0.00273457
0.00334556
0.00379928
0.00409593
0.00425356
0.00439092
0.00492421
0.00663044
0.00894968
0.0136838
0.00872629
0.00831435
0.00796422
0.0076866
0.00737837
0.00697995
0.00653124
0.00625373
0.00637721
0.00683828
0.00733242
0.00766608
0.00780266
0.00776376
0.00763809
0.00753295
0.0074618
0.00737565
0.00718597
0.00657514
0.00477079
0.00238127
0.00106936
0.000979479
0.00144444
0.00209942
0.00277226
0.00335497
0.0038037
0.00412323
0.00448844
0.00537517
0.00709245
0.00931519
0.0139935
0.00817846
0.0076958
0.00768194
0.00762628
0.00747034
0.0071943
0.00684234
0.00652822
0.00637222
0.00647626
0.00682341
0.0072765
0.0076986
0.00801043
0.00817336
0.00818377
0.00808423
0.00792323
0.00770519
0.00734363
0.00644937
0.00441352
0.00222223
0.00125906
0.00133871
0.00184547
0.00247314
0.00308369
0.00361025
0.00404823
0.0045874
0.00573997
0.0074448
0.00958523
0.0142708
0.00650001
0.00768206
0.0081553
0.00825052
0.00817551
0.00795753
0.00756692
0.00698379
0.0062815
0.00567531
0.005457
0.00573474
0.00634129
0.00702229
0.00760778
0.00802811
0.00826824
0.00833864
0.00825912
0.00802648
0.00752695
0.00638093
0.00448163
0.00276058
0.00200612
0.00203965
0.00244283
0.00296464
0.00348784
0.00398995
0.0046546
0.00599904
0.00770525
0.00979006
0.014536
0.0057757
0.00773944
0.00828178
0.0083535
0.00824483
0.00801232
0.00768553
0.00727603
0.00660314
0.00552809
0.00441235
0.00390464
0.00425919
0.00513555
0.00608637
0.00687837
0.00745724
0.00783788
0.00803155
0.00797736
0.00736519
0.00590533
0.00420087
0.00302107
0.0025723
0.00260622
0.00286884
0.00322298
0.00360302
0.00402862
0.00470199
0.00611238
0.0078266
0.009924
0.0148117
0.00684605
0.00799679
0.00808889
0.00787305
0.00750672
0.0069743
0.00645234
0.00635063
0.0063898
0.005782
0.00439381
0.00301451
0.00269712
0.00348918
0.00457467
0.00543637
0.00594499
0.00611903
0.00606285
0.00584915
0.00542469
0.00481199
0.00421447
0.00383223
0.0036891
0.00371279
0.00383458
0.00400456
0.00419689
0.0044514
0.00500196
0.0063422
0.00804518
0.0101746
0.0149783
0.00876832
0.00895112
0.00846333
0.00787017
0.00710587
0.0060821
0.00516271
0.00509643
0.00578797
0.00605449
0.005286
0.00364197
0.00220026
0.00223115
0.00338675
0.00452661
0.00528826
0.00571463
0.00590755
0.00592771
0.00580508
0.00558224
0.00533319
0.00512324
0.00497694
0.00489555
0.00487214
0.00489081
0.00493755
0.00504913
0.00545436
0.00665774
0.00831598
0.0103858
0.0146892
0.0111954
0.00960143
0.00856216
0.00762542
0.00645502
0.00517493
0.00437184
0.0043443
0.00528037
0.00625426
0.00663576
0.00621429
0.0048143
0.003119
0.0023273
0.00296022
0.00407288
0.00493774
0.00547973
0.00581647
0.00602451
0.00613324
0.00616385
0.00613655
0.00606854
0.00597675
0.00587877
0.00578794
0.00571466
0.00570252
0.00596339
0.00699431
0.00854553
0.0104609
0.0142063
0.0112173
0.00842386
0.00738064
0.0063538
0.00490912
0.00354177
0.00316035
0.00348595
0.00409841
0.0048735
0.00543634
0.00573326
0.00554272
0.00452409
0.00313369
0.0023991
0.00293326
0.00403382
0.00491757
0.00551218
0.00592999
0.00624319
0.00647556
0.00663383
0.00672049
0.00673938
0.00669853
0.00661048
0.00649443
0.00640358
0.00654569
0.00739959
0.00878196
0.0105106
0.0139333
0.00925636
0.00809708
0.00774509
0.00707021
0.00582272
0.00409721
0.0027967
0.00274137
0.00310359
0.00342528
0.00363483
0.00367006
0.00350465
0.00313576
0.00274355
0.00269506
0.00318823
0.00404959
0.00485715
0.00544665
0.00588932
0.00625397
0.00656547
0.00682709
0.00703314
0.0071744
0.00724251
0.00723534
0.00716359
0.00707696
0.00717863
0.00790949
0.00911237
0.0106846
0.0140031
0.00865649
0.00875449
0.00865807
0.00834561
0.00761142
0.00600508
0.00357011
0.00204129
0.00203809
0.00236781
0.00256851
0.00260489
0.00257861
0.00253681
0.00250429
0.00257665
0.00292207
0.00362221
0.00448142
0.00520111
0.00573075
0.00614705
0.0065036
0.00682393
0.00711359
0.00736446
0.00755631
0.00766663
0.00769376
0.00769335
0.00786947
0.00856824
0.00961216
0.0110366
0.0142089
0.0082771
0.0081133
0.00808318
0.00801609
0.00781671
0.00726495
0.00597078
0.00395886
0.00236847
0.00165622
0.00153883
0.00168881
0.00189112
0.00202637
0.00208431
0.00212447
0.00226602
0.00268587
0.00345389
0.00433777
0.00507402
0.00565835
0.00613532
0.00654244
0.00691207
0.0072712
0.00762357
0.00793024
0.00813983
0.00829191
0.00859506
0.00927875
0.0101631
0.0113961
0.0142332
0.00702271
0.00779325
0.00812099
0.00832481
0.00852353
0.00871801
0.00876903
0.00820652
0.00651623
0.00424748
0.00220589
0.000967902
0.000666451
0.000922026
0.00122261
0.00139833
0.00147589
0.00160765
0.00209265
0.00307773
0.00410201
0.00487914
0.0055125
0.00605304
0.00652643
0.00696718
0.00743333
0.00795054
0.00843784
0.00882179
0.00925338
0.0098876
0.0106117
0.0116337
0.0141062
0.00723059
0.00819403
0.00846243
0.0085387
0.00853648
0.00850141
0.00850594
0.00859827
0.00854928
0.00771073
0.00566985
0.00297711
0.000762589
0.000472797
0.000170574
0.000612792
0.000897
0.000979695
0.000987943
0.00138717
0.00265124
0.00392978
0.00477233
0.00541963
0.0059987
0.00654432
0.00708308
0.00771529
0.00846528
0.00915798
0.00974434
0.0103311
0.0109232
0.0117748
0.0140829
0.00747607
0.00796143
0.00819529
0.00831514
0.00836113
0.00831975
0.00817625
0.00797006
0.00781142
0.00770945
0.00731719
0.00594841
0.00344865
0.000845993
0.000591615
0.000253617
0.000323138
0.000694692
0.000822877
0.000770875
0.00107904
0.00246866
0.00394352
0.00486313
0.00552979
0.00612526
0.00672355
0.00740528
0.00826522
0.00922502
0.0100222
0.0106355
0.0111693
0.0119424
0.0143234
0.00747316
0.00821026
0.00857366
0.00878512
0.00893173
0.00902442
0.00904318
0.00894299
0.00868399
0.00832333
0.00796869
0.00752852
0.00650289
0.00438192
0.0015344
1.8401e-05
0.000277413
0.000509512
0.000396609
0.000655915
0.000682491
0.00098761
0.00237871
0.00397632
0.00499157
0.00571073
0.00635659
0.00706122
0.00795525
0.00906082
0.0100691
0.0107876
0.0113456
0.0121291
0.0147213
0.00746075
0.00820301
0.00853152
0.00870719
0.00881812
0.0088893
0.00893067
0.0089446
0.00890583
0.00875492
0.00845731
0.00803293
0.00744393
0.00642621
0.00471738
0.00242137
0.000332313
0.000445087
0.000315194
0.000201672
0.000434061
0.000511023
0.000869402
0.00232627
0.004033
0.00515294
0.00595479
0.00669422
0.00757674
0.00872492
0.00988775
0.0107439
0.0113852
0.0122659
0.015303
0.00783906
0.00839147
0.00865108
0.00879211
0.00887484
0.00891226
0.00890618
0.00886248
0.00879418
0.00870533
0.00856867
0.00834556
0.00798531
0.00731194
0.0060038
0.00426454
0.00251399
0.00098991
0.000272534
0.000302967
0.00055763
0.000692799
0.000683636
0.00103768
0.00258029
0.00429378
0.00547475
0.00636967
0.00725756
0.00838949
0.00964428
0.0106335
0.0113837
0.0124176
0.016005
0.00833026
0.0086855
0.00886263
0.00895305
0.00899288
0.0089888
0.00894289
0.00886545
0.00877255
0.00866618
0.00852364
0.00831465
0.00803037
0.00764622
0.00692271
0.00549748
0.00381627
0.00235373
0.00129713
0.000896203
0.000947905
0.00106236
0.00105676
0.000971871
0.00150625
0.00324116
0.00485935
0.00603138
0.00703544
0.00818851
0.00952131
0.0106305
0.0114818
0.0126659
0.0167772
0.00913186
0.00896622
0.00895152
0.00894028
0.0089011
0.00881784
0.00868535
0.00852682
0.00837937
0.00823892
0.00806398
0.00780628
0.00741514
0.00684756
0.00610241
0.00510512
0.00398559
0.00304315
0.00233536
0.00198652
0.00192185
0.00189703
0.00179528
0.00158422
0.00151194
0.00257807
0.0044413
0.00585045
0.0069188
0.00802935
0.00939677
0.0106258
0.0116053
0.0129928
0.0174661
0.0098684
0.00911617
0.00894373
0.00884584
0.0087246
0.0085403
0.00828415
0.00801459
0.00779343
0.00756845
0.00725545
0.00680369
0.00620822
0.00555518
0.00495123
0.00435737
0.00387671
0.00359541
0.00340973
0.00327294
0.00314915
0.00299351
0.00276789
0.00244834
0.00214664
0.0026171
0.00446228
0.00626314
0.00746282
0.00847474
0.00968288
0.0108536
0.0118656
0.0133202
0.0172983
0.0100834
0.00911463
0.00891138
0.00877068
0.0085767
0.00827474
0.00786015
0.00745468
0.0071507
0.00682452
0.00632015
0.00554713
0.00465191
0.00426957
0.00459858
0.0049089
0.00498924
0.00494967
0.00484403
0.00469784
0.00451273
0.00427024
0.00394095
0.00349735
0.00301994
0.00306312
0.00450797
0.00667537
0.0082447
0.00937984
0.0103878
0.0113142
0.0121665
0.0133833
0.0162592
0.00979236
0.00901579
0.00883342
0.00867054
0.00842597
0.00803198
0.00748257
0.00694782
0.0065728
0.00619725
0.00558655
0.00470508
0.00413938
0.00485981
0.00592974
0.00621484
0.00628362
0.00626478
0.0061838
0.00604713
0.00585132
0.00558348
0.00522067
0.00473453
0.00414341
0.00372699
0.00431479
0.00629168
0.0082229
0.00960677
0.0107039
0.011537
0.0122592
0.0132644
0.0156312
0.00950969
0.00905069
0.00889188
0.00873576
0.00850079
0.00811173
0.00753041
0.00690185
0.00649404
0.00628274
0.00599253
0.00546002
0.00486341
0.00495482
0.00588946
0.00647038
0.00679886
0.00698867
0.00707021
0.00705803
0.00695566
0.00675777
0.00644904
0.00600233
0.00538981
0.00467341
0.00430534
0.00535046
0.00758954
0.00921045
0.0104253
0.0113444
0.0121157
0.0131639
0.0156944
0.00931425
0.00904953
0.00889542
0.00875034
0.00854614
0.00820931
0.00766594
0.00696101
0.00639053
0.00622999
0.00633297
0.00632058
0.0058689
0.00481049
0.00424689
0.00508452
0.00601291
0.00664217
0.00706394
0.0073502
0.00751158
0.0075423
0.00742958
0.00715128
0.00667089
0.00594801
0.00506856
0.00479821
0.00654817
0.00889017
0.0102876
0.0112583
0.0120926
0.0132153
0.0157198
0.00939601
0.00913735
0.00894598
0.00877846
0.00856074
0.00821738
0.00767122
0.00691682
0.00611028
0.00556774
0.00555608
0.00597298
0.00640371
0.00651126
0.00590974
0.00455679
0.00438313
0.00523237
0.00606727
0.00668128
0.00715056
0.00750438
0.00772691
0.00778036
0.007614
0.00716633
0.00638386
0.00547386
0.00575377
0.00820802
0.0102818
0.0114497
0.0123212
0.0134052
0.0155838
0.00965479
0.00920809
0.00894928
0.0087479
0.00849956
0.00811365
0.00750482
0.00668076
0.0057791
0.00500472
0.00462212
0.00482762
0.00546492
0.00616166
0.00660842
0.0065923
0.005528
0.00482906
0.00524628
0.00594786
0.00656172
0.00708058
0.0075267
0.00787994
0.00807583
0.00802248
0.00763162
0.00688009
0.00624361
0.00729886
0.00965252
0.0112473
0.012251
0.0133262
0.0159221
0.0101562
0.00927689
0.00893321
0.00869867
0.00841331
0.00796117
0.00723829
0.00625895
0.00517929
0.0041761
0.00355299
0.00374028
0.00449892
0.0053785
0.00611967
0.0066172
0.00660198
0.0058374
0.00550051
0.0058337
0.00634008
0.00681904
0.00727584
0.00773443
0.00817011
0.00847934
0.0085243
0.0082132
0.00759197
0.00736647
0.00866725
0.0103626
0.0116213
0.0130175
0.0173822
0.0104533
0.00919282
0.00883401
0.00859974
0.00829098
0.00776872
0.00690313
0.00571832
0.00441451
0.00311664
0.00211825
0.00240694
0.00362558
0.00485237
0.00579239
0.00638749
0.00652933
0.00613875
0.00607675
0.00641043
0.00678087
0.00711632
0.00745317
0.00783768
0.00830562
0.00881185
0.00917345
0.00922149
0.00886594
0.0082311
0.00849018
0.00997233
0.0114936
0.0134938
0.0197878
0.0102934
0.0090422
0.00875995
0.00855812
0.00825287
0.00769915
0.00674076
0.00539346
0.00384334
0.00220295
0.000976575
0.00167612
0.00355661
0.00498078
0.00579495
0.00625628
0.00669486
0.00704598
0.00727232
0.00748387
0.00769276
0.00790247
0.00813246
0.00842905
0.00886293
0.00942297
0.00989167
0.01004
0.00973703
0.00912264
0.0093253
0.0108048
0.0123991
0.0147124
0.0213134
0.00986716
0.00890668
0.00869568
0.00852732
0.00826478
0.00778343
0.00693169
0.00565206
0.00407379
0.00234692
0.00103729
0.00176494
0.00419723
0.00587775
0.00667862
0.00711689
0.00741953
0.00766888
0.00787856
0.00806924
0.00825847
0.00847176
0.00875385
0.00916232
0.00970388
0.0102608
0.0106635
0.0107917
0.0106042
0.010385
0.0109365
0.012224
0.0135703
0.0155795
0.0201573
0.00969408
0.00889323
0.00867738
0.00851373
0.00828816
0.00790956
0.00727074
0.00629756
0.00505264
0.00357373
0.00174947
0.000513912
0.00224236
0.004614
0.0061265
0.00683776
0.00725244
0.00753456
0.00774458
0.00791721
0.00808148
0.00828599
0.00863433
0.00927723
0.0101941
0.0109765
0.0113442
0.0114505
0.0115443
0.011858
0.012587
0.0135013
0.0144163
0.0156495
0.017478
0.00964672
0.00884198
0.00860351
0.00842301
0.00818754
0.00782476
0.00726746
0.00645072
0.00540074
0.00431455
0.00316696
0.00155031
0.000468775
0.000562441
0.00420246
0.00605739
0.00685703
0.00729419
0.00757125
0.00775637
0.00788279
0.00799556
0.00821349
0.00878987
0.00993273
0.0112346
0.01193
0.0120561
0.0121658
0.012612
0.0132801
0.013903
0.0144527
0.0150141
0.0152976
0.00963058
0.00882697
0.00855868
0.00835649
0.00810831
0.00776217
0.00729441
0.00662968
0.00565187
0.00442628
0.0031948
0.00201591
0.000638616
3.1747e-05
0.00122325
0.00461722
0.00626278
0.00701231
0.00744393
0.00772293
0.00788956
0.00796794
0.0080281
0.00828378
0.00911587
0.0106369
0.0121174
0.0128359
0.0130699
0.0133419
0.0137092
0.0140346
0.0142838
0.0144038
0.0138871
0.00974333
0.00880131
0.00846938
0.00822853
0.00794548
0.00758306
0.00717929
0.00673881
0.00618049
0.00536848
0.0042699
0.00295908
0.00153526
0.000433796
0.000153354
0.00221459
0.00521396
0.00658066
0.00727815
0.00770864
0.00798677
0.00813568
0.00817877
0.00821325
0.00851492
0.00947919
0.0110953
0.0126194
0.0134833
0.0139238
0.0142207
0.0143969
0.0144392
0.0142215
0.0133636
0.00974351
0.0087203
0.00836711
0.00810288
0.00778707
0.00740131
0.00699956
0.00653803
0.00598678
0.00535301
0.00458055
0.00362706
0.00241482
0.000916415
0.000673328
0.000712864
0.00397971
0.00610201
0.0071684
0.00779109
0.00819821
0.0084558
0.00857206
0.00856527
0.0085409
0.008783
0.00966048
0.0111642
0.0126281
0.0134274
0.0137491
0.0138827
0.0138949
0.0138016
0.0141879
0.00962935
0.0086578
0.00829746
0.00800508
0.0076481
0.007251
0.00695478
0.00666303
0.00620666
0.00555235
0.00471686
0.00373128
0.00257303
0.00123974
0.000436018
0.000500144
0.00318682
0.00596267
0.00728116
0.00803517
0.00857813
0.00901068
0.00932247
0.00947158
0.00943604
0.00928408
0.00927073
0.00981319
0.0111047
0.0126189
0.0135528
0.0139735
0.0141904
0.0144189
0.0153531
0.00951897
0.00862111
0.00825271
0.00793187
0.00752383
0.00705913
0.00677506
0.00663686
0.00641609
0.0059958
0.00533089
0.0044105
0.00323289
0.00174524
0.000217201
0.00036774
0.00253272
0.00548217
0.00702626
0.007888
0.00845665
0.0089078
0.00930707
0.00966843
0.00996814
0.0101582
0.0102081
0.0101887
0.0103673
0.0110987
0.0121806
0.012982
0.013479
0.0139398
0.0156745
0.00937362
0.00859397
0.00823018
0.00788752
0.00743371
0.00688629
0.00655206
0.00647201
0.00638562
0.00614586
0.00569014
0.00496386
0.00394436
0.00259838
0.00103199
0.000514194
0.00235097
0.00548536
0.00697641
0.00794075
0.00863322
0.00912637
0.009428
0.0095727
0.00963211
0.00969758
0.00987145
0.0102085
0.0105831
0.0108243
0.0112005
0.0118894
0.0126453
0.0138336
0.0182561
0.00914861
0.00860504
0.00825984
0.00790582
0.00742353
0.00679505
0.00636763
0.00633176
0.00640393
0.00636956
0.00614198
0.005657
0.00483905
0.00362087
0.00193499
0.000316251
0.00137405
0.0052621
0.00759233
0.00839005
0.00903676
0.0097978
0.010653
0.0113952
0.0117619
0.0116279
0.0110643
0.0103932
0.0102109
0.010816
0.0118417
0.0128973
0.0139051
0.0153845
0.0187589
0.00906945
0.00870457
0.00832987
0.0079427
0.00742648
0.00671723
0.00613236
0.00602497
0.00620732
0.00640817
0.00649961
0.00641531
0.00608675
0.00541757
0.00431681
0.00262268
0.00061306
0.00113662
0.00498683
0.00741551
0.00814234
0.00860846
0.00922082
0.010104
0.011206
0.012283
0.0129015
0.0126873
0.0118368
0.0112887
0.0117433
0.012638
0.0134698
0.0144316
0.015763
0.00924067
0.00884294
0.00835153
0.00787655
0.0072719
0.00647771
0.00580397
0.00558766
0.0057477
0.00604768
0.00634068
0.00655159
0.00662183
0.00648119
0.00603562
0.00518175
0.00374811
0.00157339
0.000999003
0.00351748
0.00594502
0.00689309
0.00722753
0.00741436
0.00767259
0.00822713
0.00935272
0.0109082
0.0120091
0.0122729
0.0124346
0.0128443
0.0133393
0.014137
0.0167411
0.0097578
0.00902293
0.00831348
0.00768299
0.00689272
0.00593868
0.00521647
0.00496375
0.0050874
0.00541291
0.00582084
0.00623555
0.0065965
0.0068231
0.00679342
0.00633679
0.00527116
0.00351125
0.00173364
0.00270106
0.00661754
0.00967828
0.0114044
0.0120625
0.0119643
0.0113083
0.0104756
0.0103371
0.0112694
0.012434
0.0132745
0.0138945
0.0144605
0.0152748
0.0170768
0.0108201
0.00918296
0.00816499
0.00732328
0.00625428
0.00509743
0.00431323
0.00399616
0.00402336
0.00431555
0.00479212
0.00535759
0.00596589
0.00659012
0.00715074
0.00754557
0.00766977
0.00740951
0.00665309
0.00566782
0.00543656
0.00619689
0.00767164
0.00949669
0.0112704
0.0124955
0.0128231
0.0124397
0.0120951
0.0123073
0.0128261
0.0132955
0.0136513
0.0139588
0.0145304
0.0118109
0.00901281
0.00773874
0.00666764
0.00520696
0.00376591
0.00284518
0.00242683
0.00242308
0.00288192
0.00364819
0.00446185
0.00524546
0.00594891
0.00651082
0.00696563
0.00726076
0.00732622
0.00717573
0.00687945
0.00651774
0.00619828
0.00607359
0.00629046
0.00705656
0.00852577
0.0103824
0.0119617
0.012838
0.013154
0.0132699
0.0133307
0.0133953
0.0135769
0.0145073
0.011668
0.00845886
0.00718472
0.00592655
0.0040748
0.0023404
0.00125281
0.000800899
0.00131777
0.00311996
0.00528648
0.00719967
0.00937321
0.0113575
0.012248
0.0125698
0.0126007
0.0123931
0.0119662
0.0113747
0.0106743
0.0098852
0.00905484
0.00832567
0.00798069
0.00832807
0.00943501
0.0110355
0.0126309
0.0137347
0.0143069
0.0146452
0.0149383
0.0151818
0.0143109
0.0110314
0.00823034
0.00709897
0.0058546
0.00399429
0.00211042
0.000880418
0.000779715
0.00319662
0.00801464
0.0119456
0.0127811
0.0129588
0.0132012
0.0135609
0.0139863
0.0143768
0.0145943
0.0145713
0.014362
0.0140276
0.0135989
0.0131082
0.0126191
0.0122092
0.0119166
0.0117734
0.0118733
0.012304
0.0129784
0.0136102
0.0139783
0.0139972
0.0135038
0.0136015
0.0106666
0.00819142