/*--------------------------------*- C++ -*----------------------------------*\
| =========                 |                                                 |
| \\      /  F ield         | OpenFOAM: The Open Source CFD Toolbox           |
|  \\    /   O peration     | Version:  v2006                                 |
|   \\  /    A nd           | Website:  www.openfoam.com                      |
|    \\/     M anipulation  |                                                 |
\*---------------------------------------------------------------------------*/
FoamFile
{
    version     2.0;
    format      ascii;
    class       volScalarField;
    location    "57";
    object      nut;
}
// * * * * * * * * * * * * * * * * * * * * * * * * * * * * * * * * * * * * * //

dimensions      [0 2 -1 0 0 0 0];


internalField   nonuniform List<scalar> 
78750
(
0.000504039
0.0011777
0.000857972
0.000334463
5.59378e-05
4.35897e-06
2.99098e-05
1.89303e-05
2.47439e-05
2.72097e-05
3.04715e-05
3.44648e-05
3.84534e-05
4.16856e-05
4.2686e-05
4.1733e-05
3.95807e-05
3.69489e-05
3.44123e-05
3.23082e-05
3.07372e-05
2.96714e-05
2.90425e-05
2.87817e-05
2.8822e-05
2.90854e-05
2.94782e-05
2.98808e-05
3.01394e-05
3.00572e-05
2.9377e-05
2.76825e-05
2.37399e-05
1.03028e-05
1.00937e-06
1.15441e-05
0.000155167
3.3652e-05
3.282e-05
1.9027e-05
3.2935e-05
2.92446e-05
3.49973e-05
3.87984e-05
4.03782e-05
4.01681e-05
4.0833e-05
4.61443e-05
5.91868e-05
7.84335e-05
9.28282e-05
9.60547e-05
9.34792e-05
8.98948e-05
8.69582e-05
8.48418e-05
8.33437e-05
8.23663e-05
8.20257e-05
8.25761e-05
8.4125e-05
8.64122e-05
8.87317e-05
8.99429e-05
8.86716e-05
8.33095e-05
6.97484e-05
4.07643e-05
1.57935e-05
2.14381e-06
7.90013e-06
5.43225e-05
0.000173438
5.86933e-05
3.42418e-05
3.17132e-05
4.24009e-05
6.03091e-05
8.06266e-05
9.17446e-05
8.81919e-05
9.48769e-05
0.000125415
0.000157268
0.000155023
0.00015255
0.00014497
0.00013145
0.000119741
0.00011134
0.000104978
9.98592e-05
9.59433e-05
9.33693e-05
9.21635e-05
9.21095e-05
9.262e-05
9.2513e-05
9.01611e-05
8.39169e-05
7.20375e-05
5.2375e-05
2.93264e-05
1.65894e-05
3.39826e-06
4.61002e-06
1.9664e-05
4.93993e-05
7.10802e-05
5.11933e-05
3.32264e-05
2.79865e-05
2.87952e-05
3.21886e-05
3.70121e-05
4.18423e-05
4.53947e-05
4.82131e-05
5.2945e-05
6.26391e-05
7.89757e-05
9.85036e-05
0.000111303
0.000113196
0.000109801
0.000106099
0.000103028
9.98369e-05
9.61398e-05
9.23487e-05
8.90865e-05
8.67221e-05
8.49293e-05
8.17823e-05
7.31547e-05
5.52908e-05
3.46618e-05
2.41296e-05
2.46191e-05
4.6814e-06
6.60109e-06
6.15782e-05
0.000132682
6.39313e-05
3.85305e-05
3.42174e-05
4.0155e-05
4.87922e-05
5.35676e-05
5.67625e-05
6.07424e-05
6.50057e-05
6.81053e-05
7.00017e-05
7.2602e-05
7.77453e-05
8.51666e-05
9.19877e-05
9.49013e-05
9.34518e-05
8.99002e-05
8.66281e-05
8.48764e-05
8.47413e-05
8.5335e-05
8.54516e-05
8.46149e-05
8.29805e-05
8.05307e-05
7.63706e-05
6.64351e-05
4.29054e-05
1.99432e-05
1.98448e-05
5.6539e-06
4.60713e-06
2.1119e-05
5.18844e-05
7.70295e-05
8.94442e-05
6.89643e-05
4.49375e-05
3.41505e-05
2.98674e-05
2.84369e-05
2.93552e-05
3.29711e-05
3.95856e-05
4.84342e-05
5.76708e-05
6.64423e-05
7.50127e-05
8.25024e-05
8.69004e-05
8.73464e-05
8.4841e-05
8.10812e-05
7.76275e-05
7.57876e-05
7.65049e-05
7.92584e-05
8.12678e-05
8.02287e-05
7.59956e-05
6.70431e-05
4.97266e-05
2.79741e-05
1.34011e-05
1.40066e-05
6.20095e-06
4.89094e-06
3.15907e-05
0.000100505
0.00013995
0.00013494
0.00012855
0.000114612
8.47359e-05
5.75365e-05
4.17395e-05
3.34252e-05
2.93833e-05
2.89027e-05
3.33385e-05
4.70421e-05
7.66095e-05
0.000111793
0.000124244
0.000121972
0.000116605
0.000108409
9.70725e-05
8.40806e-05
7.15505e-05
6.1119e-05
5.33846e-05
4.81806e-05
4.41508e-05
3.8336e-05
2.81545e-05
1.74003e-05
1.38075e-05
2.4252e-05
8.68015e-05
8.04325e-06
3.90154e-06
1.6986e-05
5.10257e-05
9.70471e-05
0.000118928
0.00011758
0.000106006
9.48751e-05
8.43829e-05
7.05981e-05
5.54287e-05
4.30606e-05
3.44443e-05
2.90964e-05
2.70018e-05
2.91195e-05
3.72133e-05
5.23223e-05
7.29774e-05
9.47626e-05
0.000108994
0.000109101
9.73922e-05
8.13175e-05
6.63895e-05
5.43732e-05
4.54184e-05
4.04193e-05
4.2468e-05
5.33636e-05
5.94766e-05
3.78077e-05
1.07092e-05
1.75206e-05
7.1959e-06
5.02969e-06
2.78118e-05
9.38454e-05
0.000127305
0.000118594
0.000102405
9.11877e-05
8.57639e-05
8.39989e-05
8.37078e-05
8.13991e-05
7.24809e-05
5.72451e-05
4.2357e-05
3.20424e-05
2.71339e-05
2.91568e-05
4.54676e-05
9.67478e-05
0.000156858
0.000156168
0.000156145
0.000156351
0.000133441
0.000101747
7.70011e-05
5.97542e-05
4.7668e-05
3.99291e-05
3.54418e-05
2.70119e-05
1.30603e-05
2.71595e-06
8.54232e-06
8.57281e-06
5.16938e-06
2.32446e-05
7.08528e-05
0.00011687
0.0001295
0.000125611
0.00011217
9.39202e-05
7.6653e-05
6.44926e-05
5.90369e-05
6.03244e-05
6.5338e-05
6.41184e-05
5.0276e-05
3.62221e-05
2.95567e-05
3.00187e-05
3.97105e-05
7.07402e-05
0.000145878
0.000156932
0.000155923
0.00015504
0.000153672
0.000118369
7.27193e-05
4.30412e-05
2.27238e-05
8.88907e-06
4.63918e-06
8.95121e-06
2.2807e-05
8.20566e-05
9.33755e-06
6.09047e-06
3.67741e-05
0.000117166
0.000130863
0.000117015
0.000100114
8.81711e-05
8.16164e-05
7.64286e-05
6.78348e-05
5.69565e-05
4.98747e-05
4.97311e-05
5.42132e-05
5.39851e-05
4.41597e-05
3.63205e-05
3.83994e-05
5.77836e-05
0.000113537
0.00016541
0.000163731
0.000162404
0.000161136
0.000122767
9.18218e-05
6.73543e-05
4.8357e-05
3.44025e-05
2.21342e-05
1.20026e-05
1.03082e-05
2.07331e-05
8.87928e-05
9.009e-06
5.86316e-06
2.98617e-05
9.61149e-05
0.000134447
0.000136109
0.000119773
9.81907e-05
8.18227e-05
7.22395e-05
6.59181e-05
5.91713e-05
5.19949e-05
4.71728e-05
4.50689e-05
4.22402e-05
3.66526e-05
3.22922e-05
3.42832e-05
4.75348e-05
7.60509e-05
0.000108351
0.000123077
0.0001195
0.000107366
9.22111e-05
7.62501e-05
6.06655e-05
4.67512e-05
3.50894e-05
2.41149e-05
1.86135e-05
1.25561e-05
6.12317e-06
2.32167e-05
8.91019e-06
5.9938e-06
3.75861e-05
0.000114323
0.000137765
0.000124926
9.78758e-05
7.47818e-05
6.13252e-05
5.48995e-05
5.16173e-05
4.8536e-05
4.48399e-05
4.23309e-05
4.33181e-05
4.75996e-05
5.21562e-05
5.63618e-05
6.43087e-05
7.91955e-05
9.72868e-05
0.000109733
0.000113442
0.000111004
0.000105187
9.71747e-05
8.74389e-05
7.64115e-05
6.51332e-05
5.38369e-05
2.97331e-05
1.10893e-05
4.2848e-06
1.5386e-06
1.77267e-05
9.72693e-06
5.60867e-06
2.95169e-05
9.61826e-05
0.000138415
0.000140938
0.000118064
8.91633e-05
7.09622e-05
6.27259e-05
5.83006e-05
5.31113e-05
4.6189e-05
3.93247e-05
3.48955e-05
3.44355e-05
3.86036e-05
4.79193e-05
6.3322e-05
8.5e-05
0.000109355
0.000128446
0.000136828
0.000135696
0.000128646
0.000118012
0.00010459
8.83317e-05
6.84215e-05
4.33125e-05
1.66067e-05
5.80075e-06
7.13422e-06
1.55211e-05
7.08595e-05
9.77518e-06
5.77977e-06
3.31935e-05
0.000103584
0.000144011
0.000133584
9.61232e-05
6.47441e-05
5.03475e-05
4.80735e-05
5.32222e-05
6.04836e-05
6.25463e-05
5.68936e-05
4.89351e-05
4.44889e-05
4.64213e-05
5.6529e-05
7.60306e-05
0.00010338
0.000131747
0.000151669
0.00015836
0.000153785
0.000142239
0.00012672
0.000108379
8.69975e-05
6.14359e-05
3.33806e-05
1.25498e-05
5.06196e-06
8.53472e-06
3.16175e-05
8.54455e-05
9.41393e-06
5.89864e-06
2.93364e-05
8.98344e-05
0.000130596
0.00012944
0.000102228
6.97979e-05
5.20199e-05
4.70654e-05
4.98945e-05
5.71247e-05
6.44424e-05
6.57676e-05
5.85242e-05
4.81e-05
4.13587e-05
4.16795e-05
5.17037e-05
7.41664e-05
0.000105492
0.000131604
0.000142477
0.000139846
0.000129201
0.000114739
9.87146e-05
8.17456e-05
6.28253e-05
4.04666e-05
1.92033e-05
7.9945e-06
5.78037e-06
1.80339e-05
8.43968e-05
9.0879e-06
6.24031e-06
3.19456e-05
9.4799e-05
0.000130819
0.000115184
7.50317e-05
4.68294e-05
3.64835e-05
3.70717e-05
4.55051e-05
6.17668e-05
8.45733e-05
0.000104552
0.000106752
8.83529e-05
6.54005e-05
5.14718e-05
4.96133e-05
6.23013e-05
9.42929e-05
0.000136362
0.000158294
0.000154901
0.000140422
0.000123295
0.000106234
8.97268e-05
7.28003e-05
5.1789e-05
2.51787e-05
1.21243e-05
5.94236e-06
1.01624e-05
6.47048e-05
9.34334e-06
6.53339e-06
3.07016e-05
9.24786e-05
0.000122587
9.95906e-05
6.11101e-05
3.93904e-05
3.34372e-05
3.7629e-05
4.89398e-05
6.412e-05
8.01659e-05
9.47718e-05
0.000103692
0.000100896
8.5332e-05
6.63863e-05
5.48062e-05
5.49509e-05
6.9978e-05
0.000102952
0.000142007
0.000160576
0.000155869
0.000140966
0.000123786
0.000106824
8.9222e-05
6.51697e-05
2.87247e-05
1.11139e-05
6.90403e-06
1.23951e-05
7.51089e-05
9.6626e-06
6.74463e-06
3.24406e-05
0.000101158
0.000115711
7.22263e-05
4.09244e-05
2.82785e-05
2.64755e-05
3.44264e-05
5.61886e-05
9.35653e-05
0.000132142
0.000153725
0.000155468
0.00014194
0.00011812
9.15004e-05
7.16622e-05
6.45386e-05
7.31105e-05
0.000100549
0.00013877
0.000160452
0.000156979
0.00014079
0.000120814
0.00010023
7.95994e-05
5.59016e-05
2.65852e-05
1.01405e-05
9.29749e-06
2.26187e-05
9.77869e-05
9.88516e-06
7.17885e-06
3.3425e-05
0.000111243
9.5333e-05
4.98169e-05
3.24035e-05
2.78132e-05
2.98721e-05
3.96442e-05
5.98899e-05
8.88163e-05
0.000117419
0.000136837
0.000144089
0.000139724
0.000125409
0.000105004
8.5333e-05
7.33237e-05
7.31097e-05
8.69659e-05
0.000113074
0.000137483
0.000144579
0.000135465
0.000117929
9.64749e-05
7.35977e-05
5.13318e-05
2.86792e-05
1.16809e-05
1.00101e-05
2.70017e-05
9.42645e-05
9.95664e-06
7.99415e-06
4.41214e-05
0.000120649
5.201e-05
2.63401e-05
2.18571e-05
2.49494e-05
3.37471e-05
5.42806e-05
9.32609e-05
0.000137221
0.000164627
0.000173853
0.000170531
0.000158531
0.000140598
0.00012007
0.000101458
8.9462e-05
8.73379e-05
9.60181e-05
0.000112239
0.000126691
0.000130732
0.0001238
0.00010953
9.04778e-05
6.8384e-05
4.74567e-05
3.04745e-05
1.42942e-05
9.5782e-06
2.39074e-05
9.50128e-05
1.01396e-05
8.78877e-06
6.53349e-05
7.26248e-05
2.7832e-05
1.8284e-05
2.41197e-05
3.74076e-05
5.1786e-05
6.84079e-05
8.67093e-05
0.000103007
0.000115715
0.00012446
0.000128615
0.00012734
0.000120404
0.000109112
9.67841e-05
8.79453e-05
8.65643e-05
9.44316e-05
0.000109061
0.000122324
0.000126483
0.000120594
0.000107328
8.85024e-05
6.5256e-05
4.25013e-05
2.72215e-05
1.53127e-05
1.05407e-05
2.48734e-05
9.87186e-05
1.05961e-05
8.75911e-06
8.27157e-05
4.66465e-05
2.27033e-05
2.09846e-05
3.22291e-05
4.37324e-05
5.41933e-05
6.67456e-05
7.95295e-05
9.09564e-05
0.000100243
0.000106952
0.000110949
0.000112197
0.000110749
0.000106785
0.000101169
9.61167e-05
9.48949e-05
0.00010012
0.000111367
0.000123292
0.000128463
0.000123642
0.000109978
8.90142e-05
6.23649e-05
3.67444e-05
2.1454e-05
1.41839e-05
1.32657e-05
3.22644e-05
9.56228e-05
1.10183e-05
8.062e-06
5.45461e-05
9.72312e-05
7.01522e-05
4.54407e-05
3.27047e-05
2.71662e-05
2.72946e-05
3.26737e-05
4.29445e-05
5.66525e-05
7.07329e-05
8.2053e-05
8.91155e-05
9.23654e-05
9.34006e-05
9.35565e-05
9.33179e-05
9.31099e-05
9.45565e-05
0.000100052
0.000110544
0.000122811
0.000129764
0.000126177
0.000111805
8.83034e-05
5.87832e-05
3.23434e-05
1.80198e-05
1.38463e-05
1.74779e-05
4.50838e-05
8.36663e-05
1.11383e-05
7.1743e-06
3.68827e-05
8.88329e-05
0.000111711
9.62914e-05
5.93172e-05
3.66755e-05
2.5765e-05
2.11248e-05
2.13737e-05
2.70041e-05
3.87361e-05
5.46065e-05
6.83335e-05
7.47415e-05
7.52585e-05
7.54372e-05
7.94268e-05
8.76067e-05
9.80183e-05
0.000109267
0.00012083
0.000130369
0.000133455
0.000127099
0.000111266
8.69261e-05
5.67814e-05
3.0124e-05
1.59978e-05
1.36881e-05
2.28745e-05
6.41523e-05
6.9445e-05
1.09448e-05
6.7932e-06
3.34861e-05
9.05467e-05
0.000123661
0.000132016
0.000124581
8.89221e-05
5.29706e-05
3.30651e-05
2.27514e-05
1.7838e-05
1.72644e-05
2.15634e-05
3.13178e-05
4.34236e-05
5.0706e-05
5.20435e-05
5.43709e-05
6.42827e-05
8.38975e-05
0.000107278
0.000123463
0.000129009
0.00012635
0.000117503
0.000103482
8.45581e-05
6.05254e-05
3.49358e-05
1.75975e-05
1.28095e-05
2.23722e-05
6.86411e-05
6.22269e-05
1.06442e-05
6.41845e-06
3.27734e-05
9.24048e-05
0.000136094
0.000154273
0.00016233
0.000162311
0.00013947
8.99404e-05
5.34782e-05
3.42965e-05
2.36344e-05
1.7687e-05
1.5588e-05
1.78368e-05
2.49161e-05
3.33894e-05
3.72653e-05
3.93683e-05
4.7361e-05
6.65289e-05
9.56665e-05
0.000120169
0.000128173
0.000122246
0.000107585
8.7687e-05
6.50991e-05
4.18926e-05
2.25521e-05
1.36188e-05
1.9255e-05
5.66707e-05
6.31104e-05
1.05226e-05
6.20959e-06
2.83661e-05
7.61913e-05
0.000124613
0.000144386
0.000141592
0.00012887
0.000119801
0.000118131
0.000114004
9.28163e-05
6.39874e-05
4.23116e-05
2.81778e-05
1.91575e-05
1.41837e-05
1.34711e-05
1.78288e-05
2.48987e-05
3.00475e-05
3.62018e-05
4.94165e-05
7.1433e-05
9.41805e-05
0.000106244
0.000105627
9.47154e-05
7.59913e-05
5.29341e-05
3.03463e-05
1.60568e-05
1.66107e-05
4.22769e-05
7.15615e-05
1.06077e-05
6.01374e-06
2.58895e-05
6.66764e-05
0.000115537
0.000137813
0.000134473
0.000113741
8.89015e-05
7.39098e-05
7.30053e-05
8.60687e-05
0.000108551
0.000119783
9.48641e-05
5.99365e-05
3.65001e-05
2.21776e-05
1.36882e-05
1.04696e-05
1.34863e-05
2.01126e-05
2.68361e-05
3.77429e-05
5.67964e-05
7.91236e-05
9.27362e-05
9.28064e-05
8.08773e-05
6.07844e-05
3.82013e-05
1.98609e-05
1.60894e-05
3.53375e-05
8.30967e-05
1.08541e-05
6.55646e-06
2.69959e-05
7.22181e-05
0.000128916
0.000148368
0.000137009
0.000111867
8.92037e-05
7.4495e-05
6.51284e-05
6.10907e-05
6.6391e-05
8.63619e-05
0.000123207
0.000156886
0.000133952
7.58431e-05
3.96378e-05
2.08316e-05
1.10326e-05
8.53929e-06
1.34573e-05
2.11515e-05
3.12718e-05
4.76291e-05
6.76834e-05
8.03675e-05
7.76137e-05
5.97202e-05
3.78441e-05
2.16888e-05
1.77982e-05
3.71229e-05
8.9526e-05
1.11847e-05
7.75171e-06
3.33784e-05
9.50058e-05
0.000146489
0.000138887
0.000105481
7.42856e-05
6.01927e-05
6.28656e-05
7.85616e-05
9.48376e-05
9.55826e-05
9.00847e-05
9.64732e-05
0.000124445
0.000173214
0.00020521
0.000147335
6.63134e-05
2.9247e-05
1.3297e-05
7.35651e-06
9.99944e-06
1.83157e-05
2.98618e-05
4.57237e-05
6.19849e-05
6.76257e-05
5.47071e-05
3.3663e-05
2.14607e-05
2.11033e-05
4.55964e-05
8.75031e-05
1.14343e-05
9.02923e-06
4.61842e-05
0.000124891
0.000135875
0.000112505
7.91372e-05
5.61166e-05
4.75127e-05
5.19878e-05
7.1749e-05
0.00010781
0.000143488
0.000150508
0.000132266
0.000120416
0.000130388
0.00016169
0.000193802
0.000169716
8.02699e-05
3.30642e-05
1.49906e-05
8.8077e-06
1.0937e-05
1.8714e-05
3.01024e-05
4.37936e-05
5.29883e-05
4.70663e-05
2.9848e-05
2.06184e-05
2.40222e-05
5.53641e-05
8.18693e-05
1.15489e-05
8.90374e-06
4.71515e-05
0.000117187
0.000133583
0.000114291
8.31066e-05
6.25248e-05
5.39434e-05
5.38738e-05
6.20578e-05
8.02282e-05
0.000108116
0.000138562
0.000157959
0.000158278
0.000150591
0.000151518
0.000162675
0.000165746
0.000127904
6.31809e-05
2.87471e-05
1.47561e-05
1.13424e-05
1.58503e-05
2.48378e-05
3.56391e-05
4.40389e-05
4.12269e-05
2.75175e-05
2.02885e-05
2.67183e-05
6.54418e-05
7.51602e-05
1.16191e-05
7.76513e-06
3.42722e-05
9.24311e-05
0.00012982
0.00013039
0.00010683
7.46234e-05
5.23045e-05
4.13836e-05
3.83067e-05
4.23195e-05
5.45597e-05
7.5705e-05
0.000104234
0.000134806
0.000159341
0.000173873
0.00018161
0.000182485
0.000163179
0.00011091
5.87795e-05
3.20263e-05
2.10941e-05
1.95764e-05
2.47949e-05
3.34428e-05
4.06972e-05
3.88671e-05
2.68613e-05
2.0237e-05
2.83453e-05
7.25866e-05
6.9098e-05
1.16299e-05
6.95565e-06
2.71918e-05
7.28374e-05
0.000122518
0.00013331
0.000112782
8.0798e-05
5.75253e-05
4.27012e-05
3.29242e-05
2.82421e-05
3.04582e-05
4.2103e-05
6.43383e-05
9.70774e-05
0.000137385
0.00017777
0.000204749
0.000200921
0.000152791
8.52838e-05
4.72939e-05
3.21628e-05
2.82875e-05
3.14875e-05
3.83679e-05
4.53506e-05
4.85379e-05
4.23317e-05
2.8351e-05
2.10028e-05
2.95353e-05
7.64713e-05
6.48234e-05
1.16831e-05
7.43638e-06
2.85667e-05
8.08595e-05
0.000135941
0.000116431
6.99689e-05
4.62588e-05
4.36914e-05
4.83704e-05
4.14953e-05
3.00841e-05
2.40354e-05
2.77573e-05
4.36032e-05
6.85656e-05
9.03843e-05
9.22806e-05
8.51482e-05
8.33429e-05
8.24843e-05
7.42535e-05
6.39651e-05
5.88412e-05
5.92602e-05
6.13481e-05
6.27037e-05
6.27743e-05
5.8854e-05
4.70158e-05
3.09935e-05
2.31112e-05
3.25859e-05
8.43203e-05
6.17778e-05
1.18703e-05
8.60255e-06
3.71803e-05
0.000108743
0.000129951
8.30963e-05
4.31625e-05
2.75361e-05
2.88318e-05
4.67307e-05
6.04205e-05
4.2811e-05
2.64071e-05
1.84636e-05
2.36314e-05
4.48341e-05
7.64428e-05
0.000100685
0.000108094
0.000108279
0.000105284
9.87676e-05
9.11288e-05
8.5438e-05
8.16237e-05
7.83176e-05
7.50239e-05
7.10182e-05
6.37328e-05
5.03249e-05
3.42674e-05
2.61658e-05
3.65636e-05
9.18211e-05
6.10671e-05
1.19725e-05
9.77963e-06
4.9359e-05
0.000123287
9.89721e-05
5.23153e-05
2.96742e-05
2.27619e-05
2.52651e-05
4.34439e-05
8.29891e-05
9.2809e-05
6.04369e-05
3.72109e-05
2.60134e-05
2.40803e-05
3.50467e-05
5.80438e-05
8.5141e-05
0.000100708
0.000104759
0.000105555
0.000106262
0.000106033
0.000103313
9.79346e-05
9.09237e-05
8.26917e-05
7.18334e-05
5.64603e-05
3.94589e-05
3.05396e-05
4.1459e-05
9.78626e-05
6.33377e-05
1.19347e-05
9.61439e-06
5.66023e-05
0.000104388
6.43218e-05
3.11385e-05
1.81797e-05
1.80953e-05
2.60603e-05
4.22406e-05
7.35526e-05
0.000101293
9.25343e-05
6.13454e-05
3.89749e-05
2.83746e-05
2.65332e-05
3.6605e-05
6.09408e-05
9.52994e-05
0.000120362
0.000128296
0.000127331
0.000123972
0.000119682
0.000113796
0.000105698
9.51267e-05
8.14496e-05
6.40007e-05
4.57883e-05
3.61792e-05
4.78745e-05
0.000104652
6.76926e-05
1.19107e-05
8.6513e-06
4.91846e-05
0.000108049
8.9111e-05
4.96904e-05
2.39729e-05
1.50456e-05
1.78016e-05
2.62392e-05
3.67712e-05
4.47972e-05
4.47116e-05
4.08651e-05
3.72989e-05
3.60475e-05
3.78136e-05
4.45756e-05
6.19302e-05
8.99119e-05
0.000114426
0.000123656
0.000122882
0.000119112
0.000115144
0.000111028
0.000105689
9.76054e-05
8.5217e-05
6.81795e-05
5.04948e-05
4.19326e-05
5.58808e-05
0.000113767
7.24358e-05
1.20276e-05
8.62437e-06
4.73697e-05
0.000107915
0.000113074
8.70199e-05
4.21776e-05
1.71525e-05
9.68335e-06
1.23839e-05
1.98841e-05
2.86812e-05
3.45721e-05
3.85993e-05
4.00637e-05
3.74599e-05
3.41706e-05
3.49051e-05
4.38506e-05
6.39573e-05
9.06818e-05
0.000109339
0.000114401
0.000111649
0.00010686
0.000102303
9.78305e-05
9.1791e-05
8.18057e-05
6.72238e-05
5.27225e-05
4.8101e-05
6.72447e-05
0.000126794
7.52021e-05
1.21892e-05
8.74015e-06
4.86289e-05
0.00011068
0.00011384
0.000100677
7.53395e-05
4.25067e-05
2.1091e-05
1.1978e-05
9.85536e-06
1.2806e-05
2.08854e-05
3.05202e-05
3.51007e-05
3.40372e-05
3.02557e-05
2.71019e-05
2.86187e-05
3.86164e-05
5.87624e-05
8.25894e-05
9.89354e-05
0.000103852
9.99651e-05
9.22707e-05
8.48723e-05
7.92177e-05
7.34376e-05
6.46818e-05
5.57982e-05
5.69679e-05
8.32281e-05
0.000140358
7.41121e-05
1.21801e-05
8.14192e-06
4.16046e-05
0.000112219
0.000137728
0.000143036
0.000142407
0.000126357
8.0374e-05
4.06541e-05
2.02297e-05
9.83817e-06
5.00805e-06
4.95371e-06
1.11949e-05
2.15042e-05
2.65392e-05
2.34353e-05
1.88593e-05
2.01537e-05
3.1972e-05
5.55075e-05
7.8793e-05
9.07168e-05
9.34336e-05
8.86368e-05
7.85598e-05
6.87695e-05
6.31144e-05
6.02785e-05
5.92057e-05
6.77181e-05
0.000100492
0.000149042
7.06848e-05
1.20001e-05
8.16098e-06
3.85089e-05
0.000106772
0.000141952
0.000141583
0.000131523
0.000128481
0.000135563
0.000125261
7.46159e-05
3.36076e-05
1.32081e-05
3.28229e-06
2.60915e-06
1.57669e-06
1.05838e-05
2.18362e-05
2.04088e-05
1.24454e-05
1.22267e-05
2.49525e-05
5.27337e-05
7.79213e-05
8.38051e-05
8.03957e-05
7.27266e-05
6.25584e-05
5.53218e-05
5.47001e-05
6.06636e-05
7.72378e-05
0.000113979
0.000151608
6.7412e-05
1.18202e-05
8.28165e-06
3.97988e-05
0.000108285
0.000139646
0.000139501
0.000126445
0.000110112
0.000102101
0.000108838
0.000121321
9.84828e-05
4.75647e-05
1.79701e-05
3.79855e-06
3.0441e-06
1.97531e-06
4.70641e-06
1.63294e-05
1.77055e-05
9.51181e-06
8.75519e-06
2.12588e-05
5.06074e-05
7.6912e-05
7.8091e-05
6.92933e-05
5.90628e-05
5.06968e-05
4.89909e-05
5.76036e-05
8.03646e-05
0.000119874
0.000150124
6.48637e-05
1.17665e-05
8.2715e-06
3.87088e-05
0.000104156
0.000142024
0.000150879
0.000147215
0.000133293
0.000112678
9.56421e-05
8.93581e-05
9.19475e-05
8.76928e-05
5.69912e-05
2.60709e-05
7.39558e-06
9.02682e-08
1.79597e-06
5.7143e-06
7.90708e-06
1.37686e-05
8.49822e-06
7.83521e-06
1.91817e-05
4.58669e-05
6.94853e-05
6.83553e-05
5.75975e-05
4.80588e-05
4.47297e-05
5.22983e-05
7.64275e-05
0.000118282
0.000146773
6.28344e-05
1.17942e-05
8.25289e-06
3.70396e-05
0.000100756
0.000143481
0.000150373
0.00014258
0.000128868
0.000115007
0.000104252
9.81251e-05
9.64159e-05
9.40367e-05
8.05117e-05
5.49911e-05
3.17124e-05
1.36297e-05
1.72522e-06
2.71538e-06
3.04354e-06
3.3541e-06
8.29611e-06
6.2932e-06
6.87215e-06
1.81778e-05
4.28004e-05
6.26607e-05
5.93917e-05
4.82853e-05
4.21386e-05
4.68321e-05
6.82698e-05
0.00011062
0.000143314
6.17545e-05
1.18883e-05
8.37298e-06
3.6458e-05
9.9337e-05
0.00014172
0.000147454
0.000137751
0.000120519
0.000103246
9.17658e-05
8.77896e-05
9.12246e-05
9.97966e-05
0.000101445
7.61718e-05
4.49076e-05
2.70755e-05
1.48423e-05
5.56127e-06
1.80656e-06
3.16613e-06
9.74013e-06
1.32587e-05
8.21805e-06
8.05546e-06
1.97451e-05
4.21168e-05
5.61611e-05
5.06959e-05
4.2244e-05
4.33401e-05
6.06792e-05
0.000101766
0.000141218
6.13798e-05
1.2047e-05
8.55411e-06
3.66486e-05
9.90104e-05
0.000140869
0.000144859
0.000132845
0.00011358
9.65557e-05
8.76791e-05
8.59717e-05
8.74851e-05
9.01364e-05
9.37989e-05
9.12323e-05
6.59805e-05
3.86305e-05
2.3466e-05
1.40384e-05
8.19853e-06
7.46556e-06
1.27338e-05
2.12731e-05
1.92236e-05
1.02535e-05
1.1035e-05
2.47172e-05
4.39379e-05
4.92623e-05
4.3018e-05
4.22991e-05
5.70042e-05
9.66049e-05
0.000140703
6.13827e-05
1.22646e-05
8.81499e-06
3.84482e-05
0.000104327
0.000142735
0.000141438
0.000123264
9.94796e-05
8.28608e-05
7.79535e-05
8.27851e-05
9.21096e-05
9.59681e-05
8.5862e-05
6.70786e-05
4.96892e-05
3.5335e-05
2.52625e-05
1.96254e-05
1.71133e-05
1.97793e-05
3.14226e-05
4.76246e-05
4.37133e-05
2.28621e-05
1.23914e-05
1.75064e-05
3.4323e-05
4.65426e-05
4.31593e-05
4.13702e-05
5.50033e-05
9.58541e-05
0.000142448
6.06448e-05
1.25334e-05
8.98575e-06
4.17343e-05
0.000114883
0.000144621
0.000135638
0.000109536
8.34554e-05
7.11295e-05
7.24457e-05
8.11977e-05
8.6972e-05
7.97961e-05
6.13757e-05
4.40492e-05
3.3929e-05
2.84848e-05
2.62047e-05
2.81072e-05
3.64144e-05
5.57818e-05
8.36916e-05
9.26188e-05
7.04725e-05
3.77134e-05
1.81978e-05
1.58261e-05
2.75247e-05
4.32688e-05
4.59061e-05
4.57656e-05
6.14084e-05
0.000107429
0.000146498
5.68479e-05
1.25815e-05
8.96092e-06
4.44337e-05
0.00012134
0.000142552
0.000126343
9.40104e-05
6.89934e-05
6.11255e-05
6.73558e-05
7.73799e-05
7.16829e-05
4.8433e-05
2.9799e-05
2.45049e-05
3.00384e-05
4.03123e-05
5.20932e-05
6.97906e-05
9.60355e-05
0.000120855
0.000130046
0.000118326
8.78492e-05
5.09149e-05
2.56787e-05
1.72483e-05
2.26866e-05
3.71471e-05
4.82241e-05
5.60712e-05
7.7781e-05
0.000125032
0.000146455
5.31445e-05
1.23412e-05
8.87089e-06
4.57818e-05
0.000123431
0.000137493
0.000115423
8.14679e-05
5.86144e-05
5.14608e-05
5.54777e-05
5.95735e-05
4.8649e-05
3.04586e-05
2.25127e-05
3.18433e-05
6.12049e-05
8.7731e-05
0.000102376
0.000115787
0.000129986
0.000141046
0.000142968
0.000130852
0.00010378
6.857e-05
3.84301e-05
2.21652e-05
2.00058e-05
2.9751e-05
4.38592e-05
5.81818e-05
8.64288e-05
0.000132849
0.000146127
5.31892e-05
1.22429e-05
8.93688e-06
4.60514e-05
0.000124906
0.00013718
0.000113778
8.00517e-05
5.58606e-05
4.5401e-05
4.60868e-05
5.30975e-05
5.44439e-05
4.2489e-05
3.04718e-05
3.28678e-05
5.86209e-05
9.49656e-05
0.000112163
0.000125308
0.000140491
0.000153307
0.000157894
0.000150115
0.000128422
9.54497e-05
5.97542e-05
3.28216e-05
2.02906e-05
2.20987e-05
3.64055e-05
5.55898e-05
8.3089e-05
0.000129148
0.000148424
5.58135e-05
1.23309e-05
9.04603e-06
4.47499e-05
0.00012284
0.000138874
0.000117603
8.53615e-05
5.94604e-05
4.50331e-05
4.0979e-05
4.77456e-05
6.6047e-05
8.09269e-05
5.90247e-05
3.01167e-05
2.42586e-05
4.32678e-05
8.98406e-05
0.000133211
0.000151665
0.000160528
0.000166325
0.000165974
0.000155053
0.000130674
9.40361e-05
5.50675e-05
2.80942e-05
1.83566e-05
2.54689e-05
4.92654e-05
8.48028e-05
0.000128535
0.000149329
5.69013e-05
1.22822e-05
9.16457e-06
4.34869e-05
0.000119625
0.000137968
0.000117319
8.617e-05
6.16557e-05
4.73644e-05
3.98363e-05
3.74812e-05
4.27344e-05
6.15356e-05
9.86622e-05
0.000115751
5.45905e-05
2.61819e-05
2.85794e-05
6.00968e-05
0.000119267
0.000160749
0.000173667
0.000172881
0.000164655
0.000149261
0.000123685
8.63994e-05
4.76017e-05
2.39214e-05
1.94373e-05
3.46977e-05
7.80128e-05
0.000131926
0.000145259
5.56104e-05
1.20932e-05
9.31124e-06
4.32229e-05
0.000117369
0.000135651
0.000114728
8.32643e-05
5.90187e-05
4.57621e-05
3.94285e-05
3.64831e-05
3.62469e-05
4.07636e-05
5.40637e-05
8.37458e-05
0.000123712
8.27367e-05
3.75503e-05
3.13298e-05
5.38844e-05
0.00010502
0.000150657
0.00016578
0.000161538
0.00014924
0.000133027
0.000109853
7.60882e-05
4.18527e-05
2.39462e-05
2.63077e-05
5.45927e-05
0.00011821
0.000144097
5.70883e-05
1.20805e-05
9.47571e-06
4.45329e-05
0.000118046
0.00013272
0.000110488
7.91142e-05
5.57207e-05
4.29986e-05
3.59965e-05
3.06427e-05
2.79408e-05
3.25723e-05
4.41513e-05
6.01363e-05
8.05791e-05
9.46011e-05
6.46816e-05
4.05681e-05
4.29153e-05
7.27292e-05
0.000126575
0.000164369
0.000165004
0.000147905
0.000130651
0.000116924
9.9621e-05
7.12634e-05
4.16633e-05
2.95667e-05
3.90698e-05
7.86368e-05
0.000137423
6.43168e-05
1.25189e-05
9.42787e-06
4.63136e-05
0.000119651
0.000129854
0.000106449
7.4998e-05
5.24034e-05
4.04092e-05
3.33638e-05
2.50309e-05
1.67236e-05
1.94323e-05
3.39924e-05
5.45402e-05
7.20637e-05
7.60229e-05
5.76685e-05
4.35532e-05
5.17749e-05
9.18125e-05
0.000153033
0.000184307
0.000174328
0.000146764
0.000122884
0.000111957
0.000107962
9.48464e-05
6.3718e-05
3.77871e-05
3.44832e-05
5.86998e-05
0.000125489
7.32336e-05
1.33509e-05
9.17199e-06
4.69477e-05
0.000121008
0.000128258
0.000103754
7.2359e-05
5.04323e-05
3.81375e-05
2.9228e-05
1.75137e-05
7.26117e-06
1.21512e-05
2.97275e-05
4.627e-05
4.7713e-05
4.76108e-05
6.39622e-05
0.000104045
0.000144017
0.000164559
0.000171727
0.000169036
0.000151958
0.000124421
0.000103845
9.89016e-05
0.000101749
9.24855e-05
6.30627e-05
3.97007e-05
3.86819e-05
7.0563e-05
0.000148855
7.25304e-05
1.39494e-05
8.95851e-06
4.65311e-05
0.000121536
0.000126497
9.99828e-05
6.96751e-05
4.96809e-05
3.79175e-05
2.83458e-05
1.60937e-05
6.20801e-06
9.75637e-06
2.75369e-05
5.5234e-05
8.87838e-05
0.000120335
0.000142041
0.000154999
0.000158279
0.000154134
0.000144117
0.000127982
0.000108734
9.36675e-05
8.73685e-05
8.76299e-05
8.66803e-05
7.61575e-05
5.8161e-05
4.74051e-05
5.83742e-05
0.000111635
0.000168001
6.1984e-05
1.36885e-05
8.96677e-06
4.63826e-05
0.000122171
0.000125883
9.76442e-05
6.92353e-05
5.20772e-05
4.27427e-05
3.66294e-05
2.75823e-05
1.21083e-05
2.93064e-06
1.25187e-05
3.47993e-05
7.22234e-05
0.000113022
0.00015111
0.000179518
0.000184224
0.000164694
0.000132919
0.000101132
7.81677e-05
6.86865e-05
7.2275e-05
7.99676e-05
7.71914e-05
6.66296e-05
6.03727e-05
6.63281e-05
9.75626e-05
0.000158027
0.000150948
5.16171e-05
1.27138e-05
8.9841e-06
4.65705e-05
0.000122698
0.000124081
9.30293e-05
6.61704e-05
5.28115e-05
4.62955e-05
4.17523e-05
3.82954e-05
2.99724e-05
1.1938e-05
2.60431e-06
2.75954e-06
3.01503e-05
9.1295e-05
0.000166851
0.000211823
0.000216891
0.000189012
0.000143514
9.93881e-05
6.89341e-05
5.51248e-05
5.72596e-05
7.21091e-05
8.167e-05
7.34444e-05
6.88424e-05
8.42278e-05
0.000128348
0.000171726
0.000137441
4.64642e-05
1.17661e-05
9.00125e-06
4.68486e-05
0.000123401
0.000121798
8.73202e-05
6.1132e-05
5.10332e-05
4.86663e-05
4.53788e-05
3.86354e-05
3.04667e-05
1.95128e-05
5.08738e-06
1.88235e-07
6.55221e-06
3.86508e-05
0.000122988
0.000203242
0.000222508
0.000201686
0.000160086
0.000112456
7.39911e-05
5.17834e-05
4.52356e-05
5.31433e-05
7.3104e-05
8.93743e-05
9.55847e-05
0.000113352
0.000151218
0.000177614
0.000133309
4.44162e-05
1.11627e-05
9.10083e-06
4.77743e-05
0.000123751
0.000117443
8.04488e-05
5.64152e-05
4.97423e-05
5.2784e-05
5.7768e-05
5.6859e-05
4.70041e-05
3.05527e-05
1.31635e-05
2.90366e-06
8.17476e-07
1.24161e-05
5.1895e-05
0.000143448
0.000206907
0.000210615
0.000182351
0.000139177
9.52653e-05
6.28167e-05
4.56553e-05
4.22085e-05
5.15147e-05
7.40932e-05
0.000105942
0.000140701
0.000171736
0.000179421
0.000132395
4.45658e-05
1.09161e-05
9.08807e-06
4.80894e-05
0.000123361
0.00011226
7.33212e-05
5.13041e-05
4.70113e-05
5.18876e-05
5.85461e-05
6.17491e-05
5.81325e-05
4.58341e-05
2.59564e-05
7.24198e-06
3.86598e-06
3.51785e-06
2.67022e-05
8.86721e-05
0.000178552
0.000223785
0.000217603
0.000183853
0.000138153
9.4193e-05
6.27305e-05
4.65453e-05
4.39581e-05
5.55931e-05
8.63258e-05
0.000129323
0.000159211
0.00017067
0.000140626
4.8491e-05
1.1383e-05
9.0372e-06
4.78322e-05
0.00012206
0.000109347
6.9055e-05
4.79101e-05
4.57613e-05
5.42189e-05
6.42109e-05
6.81622e-05
6.35458e-05
5.03779e-05
3.01833e-05
1.07629e-05
2.6666e-06
2.39605e-06
1.78976e-05
6.55521e-05
0.000165742
0.000231067
0.000234092
0.00020979
0.000176001
0.000137088
9.7543e-05
6.59139e-05
4.77246e-05
4.33045e-05
5.50734e-05
9.24288e-05
0.000142972
0.000161258
0.000137873
5.13842e-05
1.19588e-05
8.99661e-06
4.72879e-05
0.000120185
0.000108482
6.70146e-05
4.49205e-05
4.28253e-05
5.32821e-05
6.79606e-05
7.71909e-05
7.60328e-05
6.36357e-05
4.14085e-05
1.65267e-05
1.3808e-06
1.73005e-06
1.25078e-05
4.53563e-05
0.000120965
0.000201355
0.000227464
0.000209882
0.000178488
0.000148229
0.000122183
9.81464e-05
7.51864e-05
5.72596e-05
5.01553e-05
6.08082e-05
0.000100101
0.000147761
0.000144377
5.35581e-05
1.19872e-05
8.94452e-06
4.66413e-05
0.000118287
0.000108294
6.58769e-05
4.21291e-05
3.89812e-05
4.95359e-05
6.7158e-05
8.18581e-05
8.64957e-05
7.82431e-05
5.69759e-05
2.87281e-05
7.4966e-06
2.53117e-06
1.10948e-05
4.19405e-05
0.000108497
0.00016504
0.000202146
0.000225373
0.000231825
0.000212542
0.000172855
0.000130616
9.88737e-05
7.82836e-05
6.34181e-05
5.48909e-05
6.15944e-05
9.57204e-05
0.000144639
6.59336e-05
1.29931e-05
8.89438e-06
4.52829e-05
0.00011632
0.000111126
6.82017e-05
4.11709e-05
3.54645e-05
4.40085e-05
6.19179e-05
8.0631e-05
9.17945e-05
9.13875e-05
7.67279e-05
4.80585e-05
1.73551e-05
1.74961e-06
5.85806e-06
3.11747e-05
0.000120397
0.000239127
0.000226296
0.00019135
0.000173973
0.000172384
0.000170021
0.000146344
0.000104764
6.94013e-05
5.18058e-05
5.06028e-05
6.84887e-05
0.000117903
0.000160082
6.15874e-05
1.32158e-05
8.93254e-06