/*--------------------------------*- C++ -*----------------------------------*\
| =========                 |                                                 |
| \\      /  F ield         | OpenFOAM: The Open Source CFD Toolbox           |
|  \\    /   O peration     | Version:  v2006                                 |
|   \\  /    A nd           | Website:  www.openfoam.com                      |
|    \\/     M anipulation  |                                                 |
\*---------------------------------------------------------------------------*/
FoamFile
{
    version     2.0;
    format      ascii;
    class       surfaceScalarField;
    location    "57";
    object      phi;
}
// * * * * * * * * * * * * * * * * * * * * * * * * * * * * * * * * * * * * * //

dimensions      [1 0 -1 0 0 0 0];
oriented        oriented;


internalField   nonuniform List<scalar> 
228225
(
-0.000246895
-3.00394e-05
-4.10225e-06
-0.000211044
-3.25388e-05
-3.31287e-06
-0.000175016
-3.27547e-05
-3.26342e-06
-0.000138965
-3.27961e-05
-3.24288e-06
-0.000104504
-3.17383e-05
-2.74755e-06
-7.41146e-05
-2.81664e-05
-2.23623e-06
-4.77466e-05
-2.45431e-05
-1.8534e-06
-2.58547e-05
-2.03262e-05
-1.59971e-06
-8.00753e-06
-1.64629e-05
-1.42907e-06
6.00765e-06
-1.27347e-05
-1.33097e-06
1.63517e-05
-9.08116e-06
-1.31072e-06
2.32257e-05
-5.52101e-06
-1.38922e-06
2.71125e-05
-2.32477e-06
-1.58026e-06
2.89192e-05
4.86024e-08
-1.85534e-06
2.9166e-05
1.93259e-06
-2.16737e-06
2.86303e-05
3.01579e-06
-2.46364e-06
2.7692e-05
3.66859e-06
-2.71474e-06
2.65665e-05
4.05043e-06
-2.91284e-06
2.53824e-05
4.25335e-06
-3.06093e-06
2.42123e-05
4.34239e-06
-3.16671e-06
2.30948e-05
4.3621e-06
-3.24002e-06
2.20523e-05
4.338e-06
-3.29051e-06
2.11031e-05
4.28222e-06
-3.32675e-06
2.02668e-05
4.20068e-06
-3.35641e-06
1.95642e-05
4.09932e-06
-3.38714e-06
1.90103e-05
3.98907e-06
-3.42465e-06
1.86087e-05
3.88647e-06
-3.47407e-06
1.83438e-05
3.81466e-06
-3.53967e-06
1.81716e-05
3.80417e-06
-3.62395e-06
1.80084e-05
3.89416e-06
-3.72647e-06
1.77117e-05
4.13685e-06
-3.8415e-06
1.70397e-05
4.61645e-06
-3.95453e-06
1.5494e-05
5.56667e-06
-4.04162e-06
1.1385e-05
8.10033e-06
-4.00675e-06
1.33889e-05
-2.0257e-06
4.96938e-06
-3.1656e-05
-2.89028e-06
1.31793e-05
-3.74168e-05
-3.29096e-06
2.18772e-05
-3.81802e-05
-3.2464e-06
2.82933e-05
-3.6225e-05
-2.90273e-06
2.97744e-05
-3.05052e-05
-2.58456e-06
2.84973e-05
-2.4335e-05
-2.39527e-06
2.59491e-05
-1.95303e-05
-2.33484e-06
2.37816e-05
-1.58092e-05
-2.26557e-06
2.2073e-05
-1.26163e-05
-2.10351e-06
2.06801e-05
-9.51996e-06
-1.83353e-06
1.93727e-05
-6.33915e-06
-1.48408e-06
1.80875e-05
-3.17345e-06
-1.13815e-06
1.70612e-05
-4.54861e-07
-9.32486e-07
1.60723e-05
1.89502e-06
-9.49268e-07
1.55057e-05
3.55382e-06
-1.14397e-06
1.51482e-05
4.71266e-06
-1.42295e-06
1.49194e-05
5.55145e-06
-1.73036e-06
1.47595e-05
6.17946e-06
-2.03876e-06
1.46281e-05
6.64961e-06
-2.33003e-06
1.45098e-05
6.98996e-06
-2.59183e-06
1.44049e-05
7.22424e-06
-2.81812e-06
1.4319e-05
7.37298e-06
-3.00807e-06
1.42585e-05
7.45166e-06
-3.16485e-06
1.4229e-05
7.47385e-06
-3.29536e-06
1.42333e-05
7.45762e-06
-3.40873e-06
1.42658e-05
7.431e-06
-3.51383e-06
1.43084e-05
7.43212e-06
-3.62027e-06
1.43285e-05
7.50767e-06
-3.73822e-06
1.42751e-05
7.7117e-06
-3.87448e-06
1.4067e-05
8.11139e-06
-4.0295e-06
1.35604e-05
8.80328e-06
-4.18791e-06
1.24686e-05
9.9745e-06
-4.31294e-06
1.01381e-05
1.21599e-05
-4.345e-06
5.34172e-06
1.67833e-05
-4.02793e-06
2.06411e-05
-2.03371e-06
-7.89874e-06
-2.45845e-05
9.18099e-07
-9.85899e-06
-3.72787e-05
1.80701e-06
-1.102e-05
-3.9291e-05
2.31148e-06
-1.18959e-05
-3.78258e-05
2.54382e-06
-1.25573e-05
-3.23166e-05
2.55485e-06
-1.32444e-05
-2.5855e-05
2.29589e-06
-1.43931e-05
-2.01631e-05
1.86739e-06
-1.59159e-05
-1.56138e-05
1.39862e-06
-1.75152e-05
-1.19315e-05
9.68644e-07
-1.87688e-05
-8.85175e-06
6.24918e-07
-1.93517e-05
-6.11894e-06
3.91281e-07
-1.91426e-05
-3.61853e-06
2.57398e-07
-1.82883e-05
-1.42977e-06
1.34077e-07
-1.67687e-05
4.21908e-07
-4.36319e-08
-1.4764e-05
1.79943e-06
-2.56762e-07
-1.25531e-05
2.98126e-06
-4.93298e-07
-1.02137e-05
3.93425e-06
-7.42074e-07
-7.81069e-06
4.74601e-06
-9.95829e-07
-5.44361e-06
5.50099e-06
-1.25185e-06
-3.21508e-06
6.23075e-06
-1.50966e-06
-1.19542e-06
6.92656e-06
-1.76875e-06
5.88417e-07
7.56525e-06
-2.02859e-06
2.14437e-06
8.12709e-06
-2.28851e-06
3.50161e-06
8.60342e-06
-2.54706e-06
4.69967e-06
8.99994e-06
-2.80171e-06
5.77928e-06
9.33956e-06
-3.04814e-06
6.7738e-06
9.66322e-06
-3.28182e-06
7.70234e-06
1.00341e-05
-3.50572e-06
8.55778e-06
1.05406e-05
-3.73011e-06
9.27154e-06
1.13101e-05
-3.95835e-06
9.62321e-06
1.25614e-05
-4.17192e-06
9.04084e-06
1.47689e-05
-4.33408e-06
6.54241e-06
1.8765e-05
-4.37626e-06
2.72043e-06
2.41675e-05
-3.93722e-06
2.50793e-05
-1.89831e-06
3.19504e-06
-2.96239e-05
1.81707e-06
1.54981e-06
-3.90834e-05
3.34681e-06
-1.11278e-06
-4.04949e-05
3.708e-06
-3.4344e-06
-3.91443e-05
3.47206e-06
-4.21853e-06
-3.482e-05
3.13918e-06
-4.29425e-06
-2.8638e-05
2.75856e-06
-4.14707e-06
-2.26776e-05
2.32367e-06
-3.813e-06
-1.78132e-05
1.85121e-06
-3.301e-06
-1.38106e-05
1.35723e-06
-2.54776e-06
-1.04958e-05
8.76584e-07
-1.40748e-06
-7.72742e-06
4.49943e-07
1.84949e-07
-5.33074e-06
9.90751e-08
2.0029e-06
-3.15894e-06
-1.11052e-07
3.80197e-06
-1.1713e-06
-2.28457e-07
5.27907e-06
5.95151e-07
-2.94915e-07
6.43807e-06
2.14009e-06
-3.39113e-07
7.38112e-06
3.34795e-06
-3.77933e-07
8.1634e-06
4.35817e-06
-4.16973e-07
8.80069e-06
5.29953e-06
-4.60923e-07
9.27208e-06
6.2481e-06
-5.17028e-07
9.53629e-06
7.22447e-06
-5.9382e-07
9.54965e-06
8.21497e-06
-6.98231e-07
9.28147e-06
9.19126e-06
-8.34582e-07
8.72771e-06
1.012e-05
-1.00471e-06
7.91696e-06
1.09729e-05
-1.2065e-06
6.9081e-06
1.17399e-05
-1.43609e-06
5.78767e-06
1.24368e-05
-1.69347e-06
4.66381e-06
1.31074e-05
-1.97738e-06
3.6514e-06
1.38298e-05
-2.28046e-06
2.86691e-06
1.47215e-05
-2.59045e-06
2.43614e-06
1.5986e-05
-2.89409e-06
2.46275e-06
1.8113e-05
-3.18128e-06
2.58129e-06
2.22584e-05
-3.3933e-06
1.2888e-06
2.86741e-05
-3.13848e-06
2.78933e-05
-1.5225e-06
-5.04792e-06
-2.69162e-05
2.33395e-06
-9.2129e-06
-3.80792e-05
3.08663e-06
-1.24374e-05
-4.04252e-05
3.05312e-06
-1.44876e-05
-4.01622e-05
2.94039e-06
-1.49031e-05
-3.73476e-05
2.76254e-06
-1.30893e-05
-3.31489e-05
2.47464e-06
-9.5995e-06
-2.85035e-05
2.14367e-06
-5.708e-06
-2.36709e-05
1.84564e-06
-2.19146e-06
-1.89563e-05
1.5707e-06
5.5456e-07
-1.45661e-05
1.30999e-06
2.45828e-06
-1.06916e-05
1.07324e-06
3.7374e-06
-7.45992e-06
8.74467e-07
4.74286e-06
-4.8592e-06
7.18858e-07
5.73603e-06
-2.75107e-06
6.03788e-07
6.78909e-06
-9.71912e-07
5.22446e-07
7.89514e-06
5.69174e-07
4.6538e-07
8.9434e-06
1.87233e-06
4.21603e-07
9.85242e-06
3.05483e-06
3.83642e-07
1.06181e-05
4.16863e-06
3.50274e-07
1.12467e-05
5.27834e-06
3.22125e-07
1.17194e-05
6.43102e-06
2.97292e-07
1.19888e-05
7.64782e-06
2.69645e-07
1.19948e-05
8.92237e-06
2.29789e-07
1.16856e-05
1.02237e-05
1.67295e-07
1.10406e-05
1.15023e-05
7.21763e-08
1.00802e-05
1.27034e-05
-5.1581e-08
8.85984e-06
1.3796e-05
-1.92272e-07
7.49609e-06
1.47932e-05
-3.78414e-07
6.12587e-06
1.57605e-05
-6.11115e-07
4.90112e-06
1.68144e-05
-8.86052e-07
4.01317e-06
1.81523e-05
-1.18721e-06
3.7341e-06
2.02924e-05
-1.49523e-06
4.14823e-06
2.47256e-05
-1.79361e-06
2.88242e-06
3.28776e-05
-1.87197e-06
3.16753e-05
-8.18088e-07
-5.86623e-06
-2.364e-05
2.3645e-06
-1.08715e-05
-3.65853e-05
3.25367e-06
-1.46788e-05
-4.03432e-05
3.49299e-06
-1.67995e-05
-4.1765e-05
3.49701e-06
-1.5826e-05
-4.20869e-05
3.52305e-06
-1.16769e-05
-4.12052e-05
3.61817e-06
-5.45288e-06
-3.87969e-05
3.72735e-06
1.77245e-06
-3.49613e-05
3.7221e-06
9.00109e-06
-3.0056e-05
3.56943e-06
1.52907e-05
-2.43738e-05
3.28863e-06
2.00066e-05
-1.84491e-05
2.89922e-06
2.28762e-05
-1.28275e-05
2.43665e-06
2.39871e-05
-7.92849e-06
1.95398e-06
2.37825e-05
-4.02804e-06
1.50565e-06
2.29375e-05
-1.22381e-06
1.1281e-06
2.20731e-05
6.27311e-07
8.33206e-07
2.15207e-05
1.83069e-06
6.13028e-07
2.13427e-05
2.79358e-06
4.50187e-07
2.14995e-05
3.68298e-06
3.33142e-07
2.19274e-05
4.59175e-06
2.57414e-07
2.25619e-05
5.57134e-06
2.19188e-07
2.33323e-05
6.6545e-06
2.1253e-07
2.41486e-05
7.86382e-06
2.277e-07
2.48925e-05
9.21017e-06
2.50824e-07
2.54277e-05
1.06801e-05
2.64355e-07
2.56302e-05
1.22252e-05
2.50004e-07
2.5427e-05
1.37759e-05
1.94163e-07
2.48279e-05
1.52657e-05
8.89381e-08
2.38909e-05
1.6691e-05
-5.83813e-08
2.25069e-05
1.82805e-05
-2.26741e-07
2.0012e-05
2.07293e-05
-4.61004e-07
1.4686e-05
2.53544e-05
-8.02206e-07
5.87505e-06
3.25667e-05
-1.24883e-06
1.1054e-06
3.74301e-05
-1.40788e-06
3.30374e-05
-5.56668e-07
-2.8452e-06
-2.24601e-05
1.4627e-06
-3.59752e-06
-3.71755e-05
1.23306e-06
-3.47035e-06
-4.15309e-05
1.04265e-06
-3.45547e-06
-4.26994e-05
9.46237e-07
-3.73543e-06
-4.26259e-05
8.6879e-07
-3.82838e-06
-4.18752e-05
8.1879e-07
-2.76261e-06
-4.06673e-05
8.39351e-07
1.34183e-07
-3.88497e-05
9.67468e-07
4.83859e-06
-3.60602e-05
1.19963e-06
1.09384e-05
-3.21017e-05
1.47321e-06
1.76857e-05
-2.70784e-05
1.70866e-06
2.41295e-05
-2.12722e-05
1.84656e-06
2.93722e-05
-1.51245e-05
1.84844e-06
3.27922e-05
-9.19739e-06
1.70538e-06
3.41811e-05
-4.06766e-06
1.45534e-06
3.38306e-05
-1.81058e-07
1.17591e-06
3.21403e-05
2.61637e-06
9.24653e-07
2.98748e-05
4.35886e-06
7.19698e-07
2.74859e-05
5.52133e-06
5.65984e-07
2.52186e-05
6.40201e-06
4.65743e-07
2.31766e-05
7.19576e-06
4.18772e-07
2.13678e-05
8.03344e-06
4.23714e-07
1.97323e-05
9.00776e-06
4.78773e-07
1.81546e-05
1.0188e-05
5.80358e-07
1.64733e-05
1.16161e-05
7.19184e-07
1.44942e-05
1.32976e-05
8.74407e-07
1.20259e-05
1.51983e-05
1.01074e-06
8.94785e-06
1.72338e-05
1.08566e-06
5.33971e-06
1.925e-05
1.06955e-06
1.71532e-06
2.10894e-05
9.48166e-07
-9.85014e-07
2.31362e-05
6.64583e-07
-1.6193e-06
2.65587e-05
7.38736e-08
-1.65215e-08
3.18154e-05
-6.6146e-07
-2.82015e-07
3.81059e-05
-1.04345e-06
3.30779e-05
-7.44523e-07
2.31833e-06
-2.5449e-05
6.23886e-07
5.42631e-06
-4.07986e-05
5.0038e-07
7.93776e-06
-4.46789e-05
6.5726e-07
9.95707e-06
-4.54784e-05
8.01442e-07
1.15838e-05
-4.50798e-05
8.85516e-07
1.27015e-05
-4.3837e-05
9.26398e-07
1.31432e-05
-4.19197e-05
9.26759e-07
1.31019e-05
-3.95552e-05
8.93428e-07
1.32642e-05
-3.69257e-05
8.55453e-07
1.44537e-05
-3.40338e-05
8.64909e-07
1.71947e-05
-3.07173e-05
9.64186e-07
2.15314e-05
-2.67612e-05
1.154e-06
2.69344e-05
-2.19718e-05
1.39121e-06
3.23133e-05
-1.6265e-05
1.6051e-06
3.62798e-05
-9.83135e-06
1.71689e-06
3.77414e-05
-3.36268e-06
1.67227e-06
3.67828e-05
2.07742e-06
1.4879e-06
3.42486e-05
5.66182e-06
1.24378e-06
3.12887e-05
7.48801e-06
1.01032e-06
2.83975e-05
8.48569e-06
8.19585e-07
2.5705e-05
9.21296e-06
6.79052e-07
2.32366e-05
9.9091e-06
5.88611e-07
2.09852e-05
1.06996e-05
5.4806e-07
1.89112e-05
1.16843e-05
5.58468e-07
1.69264e-05
1.2953e-05
6.20245e-07
1.48915e-05
1.45641e-05
7.30332e-07
1.264e-05
1.65216e-05
8.77184e-07
9.98106e-06
1.87916e-05
1.03368e-06
6.79804e-06
2.12043e-05
1.15447e-06
3.39615e-06
2.33036e-05
1.21385e-06
9.07258e-07
2.48345e-05
1.25343e-06
1.32946e-06
2.64137e-05
1.31604e-06
6.10676e-06
2.97156e-05
1.32118e-06
4.58472e-06
4.19507e-05
7.99048e-07
3.75843e-05
4.48871e-07
3.44429e-06
-2.89127e-05
2.61124e-08
6.90733e-06
-4.37202e-05
-4.92415e-07
9.81815e-06
-4.69253e-05
-6.3161e-07
1.22734e-05
-4.73298e-05
-5.88417e-07
1.43734e-05
-4.66574e-05
-5.2372e-07
1.61964e-05
-4.52101e-05
-4.66156e-07
1.77977e-05
-4.31258e-05
-4.14395e-07
1.91246e-05
-4.05153e-05
-3.70449e-07
2.00122e-05
-3.74387e-05
-3.45209e-07
2.03676e-05
-3.39758e-05
-3.44252e-07
2.03978e-05
-3.02971e-05
-3.50932e-07
2.06795e-05
-2.66133e-05
-3.21688e-07
2.19628e-05
-2.29653e-05
-2.00799e-07
2.4729e-05
-1.90372e-05
5.43505e-08
2.88017e-05
-1.4301e-05
4.01944e-07
3.3116e-05
-8.41961e-06
7.24833e-07
3.62974e-05
-1.9951e-06
8.80169e-07
3.78237e-05
3.30491e-06
8.31409e-07
3.78882e-05
6.72819e-06
6.93668e-07
3.71746e-05
8.64233e-06
5.54673e-07
3.62854e-05
9.66741e-06
4.3732e-07
3.54708e-05
1.03799e-05
3.49109e-07
3.48707e-05
1.10124e-05
2.94598e-07
3.46086e-05
1.16782e-05
2.74463e-07
3.47851e-05
1.24896e-05
2.89737e-07
3.54437e-05
1.35631e-05
3.4237e-07
3.6525e-05
1.50082e-05
4.29157e-07
3.78404e-05
1.69288e-05
5.39435e-07
3.895e-05
1.94177e-05
6.53273e-07
3.87732e-05
2.26454e-05
7.55313e-07
3.49528e-05
2.73962e-05
8.7623e-07
2.47901e-05
3.4277e-05
9.16592e-07
1.04494e-05
4.06567e-05
9.41135e-07
3.33966e-06
4.7251e-05
8.10941e-07
4.03603e-05
5.72409e-07
4.29539e-06
-3.2625e-05
-4.71691e-07
7.87444e-06
-4.63418e-05
-8.30851e-07
1.0983e-05
-4.88967e-05
-1.03587e-06
1.38029e-05
-4.89479e-05
-1.11336e-06
1.63554e-05
-4.79979e-05
-1.12694e-06
1.86607e-05
-4.63192e-05
-1.11259e-06
2.07097e-05
-4.40137e-05
-1.08507e-06
2.247e-05
-4.11692e-05
-1.04906e-06
2.3907e-05
-3.78374e-05
-1.00784e-06
2.4917e-05
-3.40012e-05
-9.74354e-07
2.52775e-05
-2.96736e-05
-9.73004e-07
2.48157e-05
-2.51051e-05
-1.01462e-06
2.37703e-05
-2.08007e-05
-1.06369e-06
2.285e-05
-1.7003e-05
-1.04623e-06
2.27661e-05
-1.32834e-05
-8.71898e-07
2.36775e-05
-8.81986e-06
-4.75135e-07
2.49177e-05
-3.27252e-06
4.32844e-08
2.54105e-05
2.37426e-06
4.27458e-07
2.49294e-05
6.60735e-06
5.87024e-07
2.39851e-05
8.99823e-06
5.69002e-07
2.29228e-05
1.02143e-05
4.98934e-07
2.18578e-05
1.09973e-05
4.34844e-07
2.0832e-05
1.16336e-05
3.91476e-07
1.9876e-05
1.22391e-05
3.80917e-07
1.90193e-05
1.29225e-05
4.10211e-07
1.82999e-05
1.37879e-05
4.87543e-07
1.77107e-05
1.49708e-05
6.2966e-07
1.71533e-05
1.66544e-05
8.43591e-07
1.64593e-05
1.89992e-05
1.09975e-06
1.53532e-05
2.22506e-05
1.29131e-06
1.3233e-05
2.75589e-05
1.18305e-06
8.35219e-06
3.64828e-05
6.01201e-07
1.9554e-07
4.50114e-05
3.9756e-08
-1.6782e-06
4.65793e-05
-2.87559e-07
3.8176e-05
-3.46963e-07
3.01871e-06
-3.51744e-05
-3.76781e-07
4.69516e-06
-4.75114e-05
-4.29471e-07
5.74583e-06
-4.92316e-05
-6.75151e-07
6.70168e-06
-4.89431e-05
-9.36108e-07
7.6287e-06
-4.77565e-05
-1.14639e-06
8.44517e-06
-4.58019e-05
-1.30327e-06
9.02488e-06
-4.31321e-05
-1.41227e-06
9.3013e-06
-3.99e-05
-1.4753e-06
9.38993e-06
-3.63553e-05
-1.48869e-06
9.54114e-06
-3.26248e-05
-1.45205e-06
9.88679e-06
-2.85854e-05
-1.38047e-06
1.02229e-05
-2.40941e-05
-1.31698e-06
1.01479e-05
-1.94042e-05
-1.30274e-06
9.48755e-06
-1.50061e-05
-1.31984e-06
8.44945e-06
-1.09249e-05
-1.30311e-06
7.41316e-06
-6.60109e-06
-1.16731e-06
6.48875e-06
-1.48534e-06
-8.58931e-07
5.7303e-06
3.61152e-06
-4.9099e-07
5.16404e-06
7.37987e-06
-2.31147e-07
4.71996e-06
9.51576e-06
-1.03755e-07
4.17358e-06
1.07656e-05
-3.73117e-08
3.41481e-06
1.17119e-05
9.6184e-09
2.37536e-06
1.25851e-05
4.97426e-08
9.86395e-07
1.34801e-05
1.07352e-07
-8.09119e-07
1.44824e-05
1.92661e-07
-3.0636e-06
1.56692e-05
3.20454e-07
-5.78833e-06
1.71239e-05
5.04273e-07
-8.9257e-06
1.89646e-05
7.55416e-07
-1.22541e-05
2.12637e-05
1.06472e-06
-1.50472e-05
2.40102e-05
1.37183e-06
-1.53676e-05
2.76289e-05
1.56606e-06
-1.01783e-05
3.25755e-05
1.51113e-06
-2.33634e-06
3.91136e-05
1.12536e-06
-5.03783e-07
4.49689e-05
5.92729e-07
3.72672e-05
1.31831e-07
3.02482e-07
-3.5277e-05
-1.81968e-07
5.108e-07
-4.74659e-05
-2.45852e-07
9.94778e-07
-4.93316e-05
-3.94026e-07
1.82054e-06
-4.92143e-05
-5.79742e-07
2.97283e-06
-4.81695e-05
-7.78434e-07
4.32692e-06
-4.62359e-05
-9.69378e-07
5.60429e-06
-4.33185e-05
-1.1407e-06
6.45943e-06
-3.95064e-05
-1.28687e-06
6.67193e-06
-3.51885e-05
-1.39882e-06
6.26961e-06
-3.07599e-05
-1.46501e-06
5.50515e-06
-2.63378e-05
-1.47681e-06
4.66223e-06
-2.18085e-05
-1.43836e-06
3.76179e-06
-1.71317e-05
-1.37532e-06
2.62574e-06
-1.25712e-05
-1.3087e-06
1.25998e-06
-8.35105e-06
-1.2217e-06
1.67612e-08
-4.29596e-06
-1.07716e-06
-4.37352e-07
-1.88824e-07
-8.60019e-07
-5.97566e-08
3.84208e-06
-6.30231e-07
9.04212e-07
6.85757e-06
-4.67969e-07
1.97872e-06
8.78358e-06
-3.7193e-07
2.9162e-06
1.0102e-05
-3.05078e-07
3.64862e-06
1.11938e-05
-2.45389e-07
4.14518e-06
1.22411e-05
-1.8238e-07
4.38491e-06
1.33205e-05
-1.08379e-07
4.38206e-06
1.44745e-05
-1.62275e-08
4.18325e-06
1.57429e-05
9.81218e-08
3.8565e-06
1.71769e-05
2.44396e-07
3.51379e-06
1.88411e-05
4.31308e-07
3.29301e-06
2.07834e-05
6.65013e-07
3.35141e-06
2.30264e-05
9.47973e-07
3.10321e-06
2.67903e-05
1.27986e-06
3.33234e-06
3.20169e-05
1.64527e-06
5.95864e-06
3.86334e-05
1.97607e-06
3.69941e-06
4.85074e-05
1.81684e-06
4.02149e-05
1.07693e-06
-9.95186e-07
-3.43511e-05
3.3401e-08
-1.5855e-06
-4.69162e-05
9.07333e-09
-1.99074e-06
-4.89913e-05
3.90724e-08
-2.20752e-06
-4.90375e-05
1.15217e-08
-2.13171e-06
-4.81452e-05
-1.35875e-07
-1.75486e-06
-4.63235e-05
-3.30718e-07
-1.18223e-06
-4.33861e-05
-5.4812e-07
-6.15084e-07
-3.9366e-05
-7.51013e-07
-1.98077e-07
-3.47454e-05
-9.05273e-07
2.79742e-08
-3.00268e-05
-1.00461e-06
7.99487e-08
-2.53671e-05
-1.06469e-06
-2.44151e-09
-2.06557e-05
-1.10596e-06
-2.46819e-07
-1.57705e-05
-1.14593e-06
-8.12152e-07
-1.08465e-05
-1.18411e-06
-1.73625e-06
-6.2598e-06
-1.19031e-06
-2.65734e-06
-2.26391e-06
-1.13322e-06
-2.93052e-06
1.07822e-06
-1.01492e-06
-1.9241e-06
3.69099e-06
-8.7646e-07
-4.00621e-08
5.71295e-06
-7.62531e-07
2.18073e-06
7.21646e-06
-6.79635e-07
4.46429e-06
8.40503e-06
-6.14848e-07
6.72808e-06
9.45701e-06
-5.56239e-07
8.95875e-06
1.04773e-05
-4.95495e-07
1.11614e-05
1.15181e-05
-4.26445e-07
1.33517e-05
1.26076e-05
-3.44525e-07
1.55587e-05
1.37689e-05
-2.46089e-07
1.78293e-05
1.50315e-05
-1.27883e-07
2.02203e-05
1.64413e-05
1.56372e-08
2.27682e-05
1.80828e-05
1.57902e-07
2.51227e-05
2.03007e-05
3.33332e-07
2.48661e-05
2.59267e-05
6.26553e-07
1.8223e-05
3.67091e-05
8.31027e-07
8.53806e-06
4.59989e-05
1.23781e-06
3.21575e-06
5.2372e-05
1.48907e-06
4.28549e-05
9.11528e-07
-1.30008e-06
-3.30832e-05
3.44077e-09
-1.11414e-06
-4.68415e-05
-2.6626e-07
-4.05595e-07
-4.95184e-05
-1.80817e-07
4.07409e-07
-4.98323e-05
-2.48373e-08
1.29413e-06
-4.91052e-05
5.33163e-08
2.22577e-06
-4.73244e-05
3.79023e-08
3.03668e-06
-4.41411e-05
-8.98013e-08
3.4482e-06
-3.95353e-05
-2.71158e-07
3.40898e-06
-3.43048e-05
-4.29515e-07
3.14084e-06
-2.92941e-05
-5.01464e-07
2.94883e-06
-2.4745e-05
-4.79921e-07
3.06578e-06
-2.04334e-05
-3.97449e-07
3.57038e-06
-1.60241e-05
-3.06764e-07
4.30558e-06
-1.13588e-05
-2.64941e-07
4.96818e-06
-6.65366e-06
-2.93837e-07
5.44016e-06
-2.39152e-06
-3.58517e-07
5.87414e-06
1.04469e-06
-4.11634e-07
6.45743e-06
3.53198e-06
-4.37588e-07
7.28726e-06
5.31201e-06
-4.45906e-07
8.31439e-06
6.61403e-06
-4.45188e-07
9.48239e-06
7.65149e-06
-4.37718e-07
1.07623e-05
8.5743e-06
-4.22683e-07
1.21363e-05
9.47383e-06
-3.98167e-07
1.35852e-05
1.04008e-05
-3.61061e-07
1.50854e-05
1.13833e-05
-3.06923e-07
1.66095e-05
1.24438e-05
-2.30741e-07
1.81198e-05
1.36162e-05
-1.25593e-07
1.95323e-05
1.49826e-05
1.58346e-08
2.05949e-05
1.68052e-05
1.61453e-07
2.02835e-05
2.00005e-05
3.64948e-07
1.70488e-05
2.76898e-05
5.64159e-07
9.07655e-06
4.17764e-05
3.84692e-07
7.87275e-07
5.06074e-05
3.50846e-07
-7.36484e-07
5.14996e-05
3.96131e-07
4.15357e-05
1.87277e-07
4.44614e-07
-3.33999e-05
-1.31658e-07
2.21633e-06
-4.8423e-05
-1.91427e-07
4.46167e-06
-5.16371e-05
-1.19065e-07
6.67429e-06
-5.20644e-05
2.57247e-08
8.71149e-06
-5.12636e-05
1.18235e-07
1.04463e-05
-4.92223e-05
1.48482e-07
1.1682e-05
-4.54468e-05
5.20557e-08
1.2204e-05
-3.98448e-05
-2.18653e-07
1.19732e-05
-3.35375e-05
-5.26304e-07
1.12095e-05
-2.77544e-05
-7.58838e-07
1.02832e-05
-2.29455e-05
-8.62783e-07
9.60614e-06
-1.89222e-05
-8.40375e-07
9.50145e-06
-1.52316e-05
-7.1299e-07
1.0051e-05
-1.14219e-05
-5.23001e-07
1.09759e-05
-7.26842e-06
-3.43908e-07
1.17715e-05
-2.97201e-06
-2.38022e-07
1.20847e-05
9.22916e-07
-2.07249e-07
1.18326e-05
3.98354e-06
-2.14914e-07
1.12794e-05
6.07826e-06
-2.31065e-07
1.06213e-05
7.49394e-06
-2.42923e-07
9.94929e-06
8.5456e-06
-2.45699e-07
9.28929e-06
9.44499e-06
-2.36483e-07
8.6337e-06
1.0314e-05
-2.1238e-07
7.95344e-06
1.1221e-05
-1.69795e-07
7.20163e-06
1.22063e-05
-1.03646e-07
6.31098e-06
1.32999e-05
-1.35348e-09
5.22702e-06
1.45407e-05
1.19336e-07
3.85854e-06
1.6018e-05
2.90561e-07
2.10149e-06
1.80132e-05
5.1982e-07
-6.1526e-08
2.14235e-05
8.16288e-07
-1.41097e-06
2.84427e-05
1.08467e-06
-5.97982e-07
4.04767e-05
9.53275e-07
-1.59684e-06
5.00647e-05
5.82216e-07
-1.18786e-06
4.99059e-05
3.35119e-07
4.00488e-05
7.01911e-08
1.32879e-06
-3.4641e-05
-6.75196e-08
4.19414e-06
-5.13989e-05
1.31197e-07
7.62462e-06
-5.5186e-05
1.47409e-07
1.11028e-05
-5.5663e-05
1.55245e-07
1.43367e-05
-5.46408e-05
1.80301e-07
1.69717e-05
-5.20195e-05
1.98222e-07
1.84634e-05
-4.70475e-05
1.41174e-07
1.8571e-05
-3.98563e-05
-6.68201e-08
1.77366e-05
-3.22793e-05
-3.94149e-07
1.647e-05
-2.57763e-05
-6.81204e-07
1.51415e-05
-2.07232e-05
-8.65947e-07
1.40596e-05
-1.68805e-05
-9.39413e-07
1.35126e-05
-1.37632e-05
-9.13805e-07
1.37274e-05
-1.08501e-05
-7.95185e-07
1.47116e-05
-7.68186e-06
-5.94185e-07
1.60681e-05
-3.99492e-06
-3.62166e-07
1.7181e-05
-3.06855e-08
-1.83247e-07
1.73317e-05
3.91522e-06
-1.01257e-07
1.66351e-05
6.84834e-06
-9.24436e-08
1.54706e-05
8.74746e-06
-1.10732e-07
1.41319e-05
9.98815e-06
-1.29026e-07
1.27408e-05
1.09447e-05
-1.37013e-07
1.13209e-05
1.18322e-05
-1.30241e-07
9.85207e-06
1.27592e-05
-1.05e-07
8.2926e-06
1.37833e-05
-5.72045e-08
6.5913e-06
1.49411e-05
1.5995e-08
4.69052e-06
1.62649e-05
1.27078e-07
2.56448e-06
1.78087e-05
2.80194e-07
2.9673e-07
1.97367e-05
4.9088e-07
-1.71359e-06
2.26561e-05
7.84319e-07
-2.5739e-06
2.86048e-05
1.14252e-06
8.98316e-07
3.75722e-05
1.4092e-06
3.02657e-06
4.90503e-05
1.27749e-06
1.82559e-06
5.1076e-05
1.06944e-06
4.11785e-05
6.31212e-07
2.79495e-06
-3.7401e-05
-3.01247e-08
6.24943e-06
-5.52295e-05
3.81077e-07
9.76215e-06
-5.90579e-05
3.85738e-07
1.31805e-05
-5.92988e-05
2.61073e-07
1.62256e-05
-5.77452e-05
1.17586e-07
1.83032e-05
-5.39695e-05
-5.77878e-08
1.8656e-05
-4.69672e-05
-3.59446e-07
1.73457e-05
-3.76715e-05
-8.01034e-07
1.53825e-05
-2.89873e-05
-1.25731e-06
1.35828e-05
-2.23292e-05
-1.58337e-06
1.21793e-05
-1.7516e-05
-1.75052e-06
1.11351e-05
-1.40016e-05
-1.79201e-06
1.04541e-05
-1.12982e-05
-1.7508e-06
1.02781e-05
-9.0008e-06
-1.64969e-06
1.0831e-05
-6.74196e-06
-1.48158e-06
1.22005e-05
-4.14281e-06
-1.22618e-06
1.39724e-05
-9.17715e-07
-9.03303e-07
1.56553e-05
2.80968e-06
-6.0209e-07
1.65617e-05
6.3207e-06
-4.05212e-07
1.66657e-05
8.92723e-06
-3.11604e-07
1.62783e-05
1.06191e-05
-2.7326e-07
1.56669e-05
1.17778e-05
-2.53416e-07
1.49636e-05
1.2736e-05
-2.34623e-07
1.42175e-05
1.36765e-05
-2.08137e-07
1.34407e-05
1.46878e-05
-1.68037e-07
1.26306e-05
1.58161e-05
-1.0925e-07
1.17834e-05
1.70906e-05
-2.6901e-08
1.09158e-05
1.85391e-05
8.39811e-08
1.01119e-05
2.02513e-05
2.29685e-07
9.53471e-06
2.27184e-05
4.39857e-07
8.4456e-06
2.87694e-05
7.38658e-07
7.06033e-06
3.83881e-05
1.03826e-06
5.90863e-06
5.06828e-05
1.29866e-06
3.03967e-06
5.37109e-05
1.33324e-06
4.34465e-05
8.8282e-07
2.34559e-06
-4.0001e-05
2.24953e-07
5.52104e-06
-5.90848e-05
7.04787e-07
8.5525e-06
-6.27738e-05
7.66263e-07
1.12974e-05
-6.25869e-05
6.64847e-07
1.33333e-05
-6.01221e-05
4.97153e-07
1.38289e-05
-5.45541e-05
2.57336e-07
1.24089e-05
-4.52953e-05
-1.24358e-07
9.89884e-06
-3.43146e-05
-7.77758e-07
7.45782e-06
-2.51094e-05
-1.40292e-06
5.85935e-06
-1.89046e-05
-1.80926e-06
5.21894e-06
-1.48595e-05
-2.00853e-06
5.26913e-06
-1.19719e-05
-2.07728e-06
5.71247e-06
-9.67212e-06
-2.0687e-06
6.37727e-06
-7.65593e-06
-2.00942e-06
7.24937e-06
-5.70697e-06
-1.90732e-06
8.46036e-06
-3.60376e-06
-1.75234e-06
1.01473e-05
-1.08934e-06
-1.52279e-06
1.21606e-05
2.00491e-06
-1.22358e-06
1.3983e-05
5.40482e-06
-9.27648e-07
1.52145e-05
8.38466e-06
-7.14248e-07
1.59101e-05
1.04862e-05
-5.91434e-07
1.62959e-05
1.18831e-05
-5.22879e-07
1.65309e-05
1.2944e-05
-4.77753e-07
1.66924e-05
1.39163e-05
-4.39469e-07
1.6807e-05
1.49295e-05
-3.98671e-07
1.68692e-05
1.6055e-05
-3.4866e-07
1.68436e-05
1.73465e-05
-2.8351e-07
1.66626e-05
1.8858e-05
-1.97134e-07
1.62303e-05
2.06933e-05
-7.90252e-08
1.53716e-05
2.33682e-05
9.46973e-08
1.34411e-05
2.99092e-05
3.74918e-07
8.24005e-06
4.2251e-05
5.25296e-07
4.18059e-06
5.36978e-05
8.22087e-07
1.90324e-06
5.51976e-05
9.57367e-07
4.49173e-05
6.57496e-07
3.15683e-06
-4.3315e-05
1.26191e-07
6.32991e-06
-6.25818e-05
4.62876e-07
8.79606e-06
-6.55442e-05
5.32843e-07
1.05226e-05
-6.44674e-05
4.48309e-07
1.07089e-05
-6.02426e-05
2.95095e-07
8.64056e-06
-5.22024e-05
7.76384e-08
5.27938e-06
-4.13622e-05
-3.18359e-07
2.14395e-06
-3.005e-05
-1.00009e-06
-4.47164e-08
-2.11429e-05
-1.72659e-06
-1.23568e-06
-1.55034e-05
-2.19761e-06
-1.61304e-06
-1.20825e-05
-2.40524e-06
-1.37942e-06
-9.7581e-06
-2.46125e-06
-7.23156e-07
-7.90479e-06
-2.44093e-06
2.01728e-07
-6.22223e-06
-2.37717e-06
1.30163e-06
-4.54578e-06
-2.27994e-06
2.56451e-06
-2.74029e-06
-2.14517e-06
4.05439e-06
-6.40678e-07
-1.95767e-06
5.8422e-06
1.89891e-06
-1.70219e-06
7.77979e-06
4.84502e-06
-1.40039e-06
9.49642e-06
7.76942e-06
-1.12644e-06
1.07773e-05
1.01118e-05
-9.33907e-07
1.16697e-05
1.17725e-05
-8.11626e-07
1.23026e-05
1.30059e-05
-7.27008e-07
1.27709e-05
1.40715e-05
-6.58556e-07
1.31208e-05
1.51355e-05
-5.95232e-07
1.33562e-05
1.63044e-05
-5.30421e-07
1.34306e-05
1.76756e-05
-4.58183e-07
1.32114e-05
1.93812e-05
-3.7068e-07
1.24461e-05
2.16316e-05
-2.53136e-07
1.08175e-05
2.49538e-05
-6.14792e-08
8.54877e-06
3.16869e-05
2.32222e-07
4.3306e-06
4.53331e-05
3.24657e-07
1.4009e-06
5.55581e-05
4.43728e-07
3.43961e-07
5.55113e-05
4.92991e-07
4.48717e-05
3.16148e-07
5.36795e-06
-4.87237e-05
1.76964e-07
8.4603e-06
-6.61118e-05
7.78496e-07
9.94095e-06
-6.75552e-05
9.21531e-07
9.81485e-06
-6.466e-05
7.86675e-07
6.53607e-06
-5.69163e-05
5.04443e-07
6.46806e-07
-4.59927e-05
1.53383e-07
-5.30616e-06
-3.48866e-05
-2.18007e-07
-9.31986e-06
-2.51145e-05
-7.63576e-07
-1.09725e-05
-1.80348e-05
-1.38835e-06
-1.08873e-05
-1.37028e-05
-1.86549e-06
-9.84942e-06
-1.09746e-05
-2.14831e-06
-8.35819e-06
-8.96985e-06
-2.29328e-06
-6.67096e-06
-7.26121e-06
-2.35036e-06
-4.91878e-06
-5.64822e-06
-2.34871e-06
-3.16905e-06
-4.01612e-06
-2.30337e-06
-1.44256e-06
-2.2723e-06
-2.21916e-06
3.20926e-07
-3.3745e-07
-2.09171e-06
2.12871e-06
1.97713e-06
-1.91117e-06
4.00472e-06
4.62041e-06
-1.67681e-06
5.82588e-06
7.34368e-06
-1.42148e-06
7.38238e-06
9.72695e-06
-1.19883e-06
8.58965e-06
1.15687e-05
-1.03212e-06
9.47619e-06
1.29968e-05
-9.07741e-07
1.0093e-05
1.42277e-05
-8.05402e-07
1.04757e-05
1.54296e-05
-7.11849e-07
1.06371e-05
1.67233e-05
-6.19601e-07
1.05594e-05
1.82305e-05
-5.23414e-07
1.01591e-05
2.01421e-05
-4.17534e-07
9.227e-06
2.27881e-05
-2.92008e-07
7.59364e-06
2.66662e-05
-1.19977e-07
6.13186e-06
3.30873e-05
1.67565e-07
4.94739e-06
4.62589e-05
3.71955e-07
2.90306e-06
5.70975e-05
3.86711e-07
1.20716e-06
5.674e-05
3.61673e-07
4.5784e-05
2.108e-07
7.25099e-06
-5.58891e-05
4.69773e-07
8.2297e-06
-6.81104e-05
1.56383e-06
6.50601e-06
-6.70773e-05
1.80263e-06
1.85369e-06
-6.08645e-05
1.51327e-06
-6.39462e-06
-4.88798e-05
8.86287e-07
-1.48737e-05
-3.72177e-05
1.5098e-07
-2.07952e-05
-2.82098e-05
-4.92769e-07
-2.34328e-05
-2.12617e-05
-1.0671e-06
-2.34246e-05
-1.6409e-05
-1.56818e-06
-2.19062e-05
-1.33023e-05
-1.90057e-06
-1.96804e-05
-1.11065e-05
-2.09752e-06
-1.71474e-05
-9.30086e-06
-2.21638e-06
-1.44941e-05
-7.65223e-06
-2.28301e-06
-1.18185e-05
-6.04169e-06
-2.30733e-06
-9.18085e-06
-4.38839e-06
-2.29379e-06
-6.62198e-06
-2.61851e-06
-2.24341e-06
-4.18362e-06
-6.54534e-07
-2.15342e-06
-1.79103e-06
1.57094e-06
-2.01863e-06
5.82631e-07
4.05532e-06
-1.83929e-06
2.90247e-06
6.62942e-06
-1.63403e-06
5.05611e-06
8.98383e-06
-1.43759e-06
6.94579e-06
1.09244e-05
-1.27274e-06
8.54307e-06
1.25086e-05
-1.13778e-06
9.85594e-06
1.39049e-05
-1.02087e-06
1.08943e-05
1.52691e-05
-9.11672e-07
1.16563e-05
1.67259e-05
-8.0323e-07
1.21216e-05
1.8408e-05
-6.90072e-07
1.22283e-05
2.05368e-05
-5.66271e-07
1.17854e-05
2.35557e-05
-4.25324e-07
1.04504e-05
2.81296e-05
-2.62905e-07
8.72665e-06
3.48371e-05
-4.08812e-08
7.62979e-06
4.73133e-05
2.85833e-07
5.11263e-06
5.92683e-05
3.73936e-07
2.35218e-06
5.90363e-05
3.87279e-07
4.78027e-05
2.45988e-07
2.01364e-06
-5.8811e-05
1.74063e-06
-2.85541e-06
-6.61407e-05
3.38905e-06
-1.00989e-05
-6.29803e-05
3.65319e-06
-1.98495e-05
-5.37055e-05
3.1926e-06
-2.96038e-05
-4.10208e-05
2.24767e-06
-3.56295e-05
-3.22813e-05
1.20505e-06
-3.75058e-05
-2.66089e-05
3.7201e-07
-3.61901e-05
-2.22216e-05
-2.64107e-07
-3.30254e-05
-1.87611e-05
-7.52728e-07
-2.9178e-05
-1.59978e-05
-1.11889e-06
-2.52145e-05
-1.36663e-05
-1.3884e-06
-2.13423e-05
-1.15833e-05
-1.58652e-06
-1.76393e-05
-9.63247e-06
-1.72831e-06
-1.41364e-05
-7.73435e-06
-1.8225e-06
-1.08418e-05
-5.82621e-06
-1.87452e-06
-7.7464e-06
-3.84884e-06
-1.88701e-06
-4.82869e-06
-1.73781e-06
-1.85955e-06
-2.05647e-06
5.61361e-07
-1.78948e-06
6.50776e-07
2.99815e-06
-1.67686e-06
3.25511e-06
5.53421e-06
-1.53451e-06
5.68511e-06
7.91901e-06
-1.38958e-06
7.88473e-06
9.96318e-06
-1.26354e-06
9.85258e-06
1.16716e-05
-1.1582e-06
1.16149e-05
1.3178e-05
-1.06575e-06
1.31942e-05
1.4634e-05
-9.7899e-07
1.45947e-05
1.61767e-05
-8.93011e-07
1.5789e-05
1.79625e-05
-8.03484e-07
1.66784e-05
2.02682e-05
-7.04328e-07
1.69445e-05
2.37211e-05
-5.8681e-07
1.57459e-05
2.94724e-05
-4.54427e-07
1.23855e-05
3.80108e-05
-3.00489e-07
8.35083e-06
5.08018e-05
-3.07232e-08
4.93109e-06
6.20424e-05
1.47859e-07
1.97179e-06
6.13364e-05
2.281e-07
4.93117e-05
1.45672e-07
-8.20567e-06
-5.34115e-05
3.09544e-06
-1.82552e-05
-6.08383e-05
4.80737e-06
-2.76181e-05
-5.87229e-05
4.98802e-06
-3.37312e-05
-5.24098e-05
4.55396e-06
-3.44225e-05
-4.44696e-05
3.76467e-06
-3.16395e-05
-3.81222e-05
2.85939e-06
-2.79231e-05
-3.239e-05
2.03522e-06
-2.42578e-05
-2.71384e-05
1.28566e-06
-2.08736e-05
-2.27292e-05
6.32681e-07
-1.77181e-05
-1.91739e-05
6.40685e-08
-1.47919e-05
-1.62811e-05
-2.78735e-07
-1.19498e-05
-1.38139e-05
-5.9045e-07
-9.1486e-06
-1.15738e-05
-8.49507e-07
-6.40527e-06
-9.42026e-06
-1.05641e-06
-3.76472e-06
-7.25934e-06
-1.21434e-06
-1.26727e-06
-5.03441e-06
-1.32525e-06
1.08165e-06
-2.71553e-06
-1.38926e-06
3.29699e-06
-2.69386e-07
-1.40529e-06
5.46219e-06
2.18507e-06
-1.37325e-06
7.57453e-06
4.70218e-06
-1.30023e-06
9.56239e-06
7.11644e-06
-1.2038e-06
1.13446e-05
9.26735e-06
-1.10479e-06
1.29008e-05
1.11088e-05
-1.01343e-06
1.42595e-05
1.27256e-05
-9.29004e-07
1.54559e-05
1.42585e-05
-8.47815e-07
1.65057e-05
1.58594e-05
-7.67264e-07