/*--------------------------------*- C++ -*----------------------------------*\
| =========                 |                                                 |
| \\      /  F ield         | OpenFOAM: The Open Source CFD Toolbox           |
|  \\    /   O peration     | Version:  v2006                                 |
|   \\  /    A nd           | Website:  www.openfoam.com                      |
|    \\/     M anipulation  |                                                 |
\*---------------------------------------------------------------------------*/
FoamFile
{
    version     2.0;
    format      ascii;
    class       volScalarField;
    location    "45";
    object      nut;
}
// * * * * * * * * * * * * * * * * * * * * * * * * * * * * * * * * * * * * * //

dimensions      [0 2 -1 0 0 0 0];


internalField   nonuniform List<scalar> 
78750
(
0.000539826
0.00111963
0.000721074
9.48568e-05
4.54767e-05
4.66131e-05
1.80055e-05
3.89088e-05
2.57851e-05
3.81889e-05
3.5086e-05
3.9267e-05
4.13582e-05
4.3434e-05
4.54167e-05
4.70309e-05
4.82416e-05
4.90393e-05
4.93545e-05
4.89695e-05
4.77738e-05
4.56296e-05
4.25197e-05
3.91105e-05
3.65751e-05
3.56484e-05
3.61527e-05
3.73911e-05
3.8659e-05
3.94356e-05
3.92933e-05
3.75582e-05
3.23762e-05
1.73465e-05
1.19377e-06
5.55138e-05
3.30357e-06
3.92768e-05
2.17859e-06
4.82378e-05
4.5931e-05
6.4127e-05
7.62163e-05
9.29227e-05
0.000103288
0.000117075
0.000128655
0.000138271
0.000145772
0.000150674
0.00015294
0.000152686
0.000150239
0.000146069
0.000140724
0.000134689
0.00012834
0.000122172
0.000116807
0.000112762
0.000110407
0.000109914
0.000111053
0.000112935
0.0001134
0.000107407
8.55629e-05
4.51256e-05
1.75663e-05
1.71675e-06
2.61935e-06
8.39219e-05
7.20793e-05
7.09308e-05
8.02156e-05
0.00011585
0.000155122
0.000169
0.000165927
0.000162376
0.000159551
0.000156984
0.000154612
0.0001524
0.000150148
0.00014759
0.000144521
0.000140931
0.000136949
0.000132674
0.000128354
0.000124372
0.000121009
0.000118369
0.000116486
0.000115261
0.000114246
0.000112455
0.00010822
9.92347e-05
8.31588e-05
5.96018e-05
3.50279e-05
2.07733e-05
2.5239e-06
1.86667e-06
5.31972e-05
3.82194e-05
5.44758e-05
0.000115491
0.00020319
0.000213433
0.000214665
0.000214698
0.000214244
0.000216551
0.000218565
0.000219368
0.000216335
0.00021017
0.000203683
0.000197684
0.00019199
0.000186518
0.000181578
0.000177317
0.000173555
0.000170024
0.000166343
0.000162061
0.000156657
0.000149483
0.000139606
0.000125596
0.000105768
7.97681e-05
5.19666e-05
3.20753e-05
2.57582e-05
3.39575e-06
2.02058e-06
9.34873e-05
0.000146925
0.000211443
0.000214611
0.000216619
0.000217807
0.000218377
0.000218527
0.000218467
0.000218377
0.000218376
0.000218517
0.000218802
0.000219201
0.000219672
0.000220178
0.000220686
0.000221178
0.0002215
0.000209577
0.000198047
0.000187671
0.0001777
0.000167779
0.000157838
0.000147554
0.000135929
0.000121353
0.000102304
7.83514e-05
5.20301e-05
3.26969e-05
3.01861e-05
4.0993e-06
1.8582e-06
0.000128463
0.000185722
0.000196985
0.000211328
0.000215246
0.00021769
0.000219159
0.000219965
0.000220374
0.000220607
0.000220804
0.000221034
0.000221304
0.000221593
0.000221876
0.000222131
0.000222348
0.000222527
0.000222683
0.000222842
0.000212971
0.000198954
0.000185457
0.000172265
0.000158957
0.000145004
0.000129161
0.00010963
8.54413e-05
5.90571e-05
3.77807e-05
2.85012e-05
3.90272e-05
5.31299e-06
1.08416e-06
6.57629e-05
0.000122341
0.000157123
0.000163833
0.000158913
0.000167594
0.000192905
0.000217278
0.000219986
0.000221623
0.000222366
0.00022274
0.000223175
0.000223835
0.000217712
0.000211955
0.000207932
0.000204532
0.000201206
0.000197766
0.000194073
0.000189874
0.000184648
0.00017768
0.000168113
0.000154851
0.000136483
0.000111691
8.09183e-05
4.962e-05
2.88356e-05
2.49605e-05
5.32148e-05
6.078e-06
2.3415e-06
5.02713e-05
4.60905e-05
4.46424e-05
4.97063e-05
6.59136e-05
9.53401e-05
0.000108239
9.32006e-05
9.24259e-05
0.000112164
0.000147031
0.000191486
0.000215128
0.000216104
0.000216277
0.000202073
0.000182674
0.000171147
0.000166163
0.000163979
0.000162314
0.000160168
0.000157085
0.000152731
0.000146577
0.000137715
0.000124698
0.000105869
8.06344e-05
5.18506e-05
2.96238e-05
2.50765e-05
5.78135e-05
6.54484e-06
6.79994e-06
6.3371e-05
9.41881e-05
6.68588e-05
4.75124e-05
3.96611e-05
3.84638e-05
4.24722e-05
5.46617e-05
8.18086e-05
0.000129947
0.000181144
0.000171949
0.000124933
0.000110404
0.000130081
0.000177667
0.000215805
0.000215495
0.000178672
0.000158777
0.000149032
0.000144623
0.000143209
0.000140887
0.000135025
0.000124541
0.000108934
8.78429e-05
6.3031e-05
4.01356e-05
2.61679e-05
2.76194e-05
7.67724e-05
6.70303e-06
4.44003e-06
2.91524e-05
5.39758e-05
6.37036e-05
6.45895e-05
5.4335e-05
4.26615e-05
3.52586e-05
3.11227e-05
2.92389e-05
2.92359e-05
3.15575e-05
3.78041e-05
5.11978e-05
7.56048e-05
0.000106883
0.00011214
6.26309e-05
4.15315e-05
4.79495e-05
7.10775e-05
9.53177e-05
0.000106477
0.000112106
0.000118462
0.000118358
0.000107248
8.96955e-05
7.18243e-05
5.5088e-05
3.97185e-05
2.97989e-05
3.52324e-05
8.92682e-05
6.56939e-06
1.31929e-06
2.43605e-05
4.1389e-05
6.5449e-05
8.8546e-05
9.85761e-05
9.4601e-05
8.19503e-05
6.68257e-05
5.34445e-05
4.29898e-05
3.51915e-05
2.94296e-05
2.48967e-05
2.07493e-05
1.71345e-05
1.62977e-05
2.18289e-05
3.92682e-05
6.77961e-05
8.54682e-05
8.53881e-05
6.90352e-05
6.92205e-05
8.91678e-05
8.61407e-05
7.97404e-05
8.13835e-05
7.40508e-05
5.20601e-05
3.29601e-05
2.36758e-05
2.80428e-05
7.6008e-05
6.5033e-06
1.75855e-06
1.46652e-05
3.18774e-05
6.24261e-05
8.95355e-05
9.50498e-05
9.14715e-05
9.13175e-05
9.78879e-05
0.000108633
0.000116309
0.000112786
9.61606e-05
7.32917e-05
5.22475e-05
3.51508e-05
2.33916e-05
1.73925e-05
1.32241e-05
8.53466e-06
1.06445e-05
2.32649e-05
4.4306e-05
6.44482e-05
5.8853e-05
5.71044e-05
6.63532e-05
7.08045e-05
7.30193e-05
6.94915e-05
4.81377e-05
3.00358e-05
3.087e-05
7.05117e-05
6.98423e-06
1.98494e-06
1.30627e-05
3.52389e-05
6.54576e-05
8.59079e-05
9.46573e-05
9.62234e-05
9.23218e-05
8.42946e-05
7.41482e-05
6.35974e-05
5.40534e-05
4.7698e-05
4.71059e-05
5.42203e-05
6.82727e-05
7.73494e-05
7.10449e-05
5.37759e-05
3.46185e-05
2.24702e-05
1.78001e-05
2.47499e-05
4.76377e-05
6.11692e-05
6.89506e-05
8.58321e-05
9.55285e-05
7.67866e-05
5.38639e-05
3.66828e-05
2.54939e-05
2.75523e-05
6.38271e-05
7.75295e-06
5.31982e-06
2.32794e-05
6.28326e-05
0.000109513
0.000121397
0.000112008
9.76677e-05
8.54311e-05
7.825e-05
7.65181e-05
7.98347e-05
8.71553e-05
9.49978e-05
9.77635e-05
9.31239e-05
8.44502e-05
7.57807e-05
6.89626e-05
6.23672e-05
5.04566e-05
3.89964e-05
2.64031e-05
1.5149e-05
1.41901e-05
2.71741e-05
5.14522e-05
6.69081e-05
7.37354e-05
7.56888e-05
6.41256e-05
4.27322e-05
2.96613e-05
3.43189e-05
6.96074e-05
8.10367e-06
6.84068e-06
3.18509e-05
9.08319e-05
0.000116233
0.000108872
8.94251e-05
6.93055e-05
5.60694e-05
4.97942e-05
4.82486e-05
4.91888e-05
5.1549e-05
5.55917e-05
6.05799e-05
6.3108e-05
6.00644e-05
5.40025e-05
4.81917e-05
4.0875e-05
2.80214e-05
1.65978e-05
1.59182e-05
3.50716e-05
5.21211e-05
6.43175e-05
8.3464e-05
9.78606e-05
0.00010374
9.67995e-05
7.15489e-05
4.27628e-05
2.91838e-05
3.55057e-05
6.52898e-05
8.30182e-06
7.01832e-06
4.06694e-05
0.000129427
0.000131213
9.56578e-05
6.17708e-05
4.36216e-05
3.73604e-05
4.01265e-05
5.2654e-05
7.18863e-05
8.44392e-05
8.55537e-05
8.12396e-05
7.25612e-05
5.86477e-05
4.57982e-05
3.96934e-05
4.13135e-05
4.85573e-05
3.80824e-05
1.52394e-05
7.49853e-06
1.55543e-05
4.78235e-05
7.90357e-05
9.57683e-05
0.000104295
0.000101649
7.95496e-05
4.43678e-05
2.68162e-05
3.32617e-05
6.78962e-05
8.81188e-06
5.92443e-06
2.90455e-05
9.35781e-05
0.000118055
9.63434e-05
6.38592e-05
4.56162e-05
3.95295e-05
3.93521e-05
4.06414e-05
3.94947e-05
3.56465e-05
3.48235e-05
4.05424e-05
5.05965e-05
5.48122e-05
4.6285e-05
3.70049e-05
2.56546e-05
1.37611e-05
9.44871e-06
9.69408e-06
1.64657e-05
4.62744e-05
7.98567e-05
9.48893e-05
0.000102523
0.000103518
9.60244e-05
7.53182e-05
4.69294e-05
3.39092e-05
4.72188e-05
6.53697e-05
9.26497e-06
5.96874e-06
3.09127e-05
0.000107603
0.000134364
9.94882e-05
6.06307e-05
4.3627e-05
4.01281e-05
4.24132e-05
4.41478e-05
3.63953e-05
2.38232e-05
2.06711e-05
2.82821e-05
4.49111e-05
3.72432e-05
1.56566e-05
7.10668e-06
1.18099e-05
2.83527e-05
5.02814e-05
7.54202e-05
0.000106204
0.000117439
0.000118149
0.000116764
0.000110324
9.74062e-05
7.95946e-05
6.05739e-05
4.57038e-05
4.27953e-05
6.32922e-05
5.65241e-05
9.23218e-06
6.12557e-06
2.96361e-05
9.90838e-05
0.000112454
6.9047e-05
3.80102e-05
2.71495e-05
2.66498e-05
3.15627e-05
4.06018e-05
4.39781e-05
3.08459e-05
2.24429e-05
2.61023e-05
4.21642e-05
5.57308e-05
4.09918e-05
2.84573e-05
2.9375e-05
4.48024e-05
6.28636e-05
7.22425e-05
7.86318e-05
8.5512e-05
9.25361e-05
9.73692e-05
9.67312e-05
8.77582e-05
7.10145e-05
5.36485e-05
4.40866e-05
4.81241e-05
7.31748e-05
5.62546e-05
9.28072e-06
6.73093e-06
3.83624e-05
0.000121012
0.000101323
5.48602e-05
3.31359e-05
2.76845e-05
2.90555e-05
2.64507e-05
2.00318e-05
1.74807e-05
2.2554e-05
3.16839e-05
3.18043e-05
3.21158e-05
3.85097e-05
4.70248e-05
5.60548e-05
7.1808e-05
9.97083e-05
0.000126704
0.000133644
0.000124027
0.000107482
9.16171e-05
8.04442e-05
7.36421e-05
6.85189e-05
6.30528e-05
5.74939e-05
5.53252e-05
6.306e-05
8.23638e-05
4.66523e-05
8.92339e-06
6.76345e-06
3.89957e-05
9.9436e-05
7.13942e-05
3.59517e-05
1.9735e-05
1.46716e-05
1.75681e-05
3.43895e-05
5.93009e-05
5.37389e-05
4.64891e-05
4.75762e-05
4.74538e-05
4.14903e-05
3.72464e-05
3.72543e-05
4.08985e-05
4.82409e-05
5.9555e-05
7.33029e-05
8.61262e-05
9.40208e-05
9.42291e-05
8.83768e-05
8.07554e-05
7.44743e-05
7.07737e-05
6.99662e-05
7.17451e-05
7.49495e-05
7.94436e-05
7.92245e-05
3.72246e-05
8.0446e-06
6.65104e-06
3.69953e-05
0.000105265
0.000110959
7.87325e-05
4.24117e-05
2.38114e-05
1.7123e-05
1.60396e-05
1.79722e-05
2.39082e-05
3.48158e-05
4.65117e-05
5.30648e-05
5.35632e-05
5.04695e-05
4.63361e-05
4.28699e-05
4.08e-05
4.00139e-05
4.01078e-05
4.14455e-05
4.52961e-05
5.25004e-05
6.10682e-05
6.63694e-05
6.70015e-05
6.38394e-05
5.92228e-05
5.78264e-05
6.39048e-05
7.78096e-05
8.68888e-05
4.09241e-05
6.85136e-06
6.90063e-06
3.55435e-05
0.000107754
0.000111444
7.90975e-05
4.63045e-05
2.59328e-05
1.66649e-05
1.4901e-05
1.96685e-05
3.12938e-05
4.78365e-05
6.19107e-05
6.74614e-05
6.60617e-05
6.19194e-05
5.71219e-05
5.22411e-05
4.76915e-05
4.43006e-05
4.26755e-05
4.25411e-05
4.29739e-05
4.29987e-05
4.30042e-05
4.56587e-05
5.20431e-05
5.65796e-05
4.92396e-05
3.74309e-05
3.52918e-05
4.37604e-05
5.50103e-05
4.29665e-05
6.78715e-06
6.70097e-06
3.35262e-05
0.000103772
0.000120243
0.000102289
7.28987e-05
4.34829e-05
2.42612e-05
1.53216e-05
1.30048e-05
1.68947e-05
3.10708e-05
5.72714e-05
7.66291e-05
7.87405e-05
7.43418e-05
6.94329e-05
6.60463e-05
6.52524e-05
6.52796e-05
6.2e-05
5.6484e-05
5.36005e-05
5.4305e-05
5.64218e-05
5.61246e-05
4.93479e-05
3.78947e-05
2.78964e-05
2.31448e-05
2.38004e-05
2.67401e-05
3.19173e-05
4.73328e-05
8.95864e-06
6.66454e-06
3.30807e-05
0.000101268
0.00012056
0.000100417
6.86823e-05
4.32783e-05
2.72619e-05
1.82905e-05
1.52266e-05
1.97657e-05
4.19707e-05
9.40142e-05
0.000120965
0.000122211
0.000121606
0.000117625
9.25288e-05
6.29664e-05
5.29567e-05
5.69695e-05
6.79818e-05
7.49301e-05
6.61471e-05
4.77579e-05
3.40843e-05
2.88677e-05
2.94547e-05
3.22399e-05
3.47615e-05
3.7025e-05
4.23936e-05
5.98105e-05
6.11767e-05
1.0607e-05
6.75933e-06
3.58067e-05
0.000109281
0.000123468
0.000103161
7.151e-05
4.52264e-05
2.78817e-05
1.74915e-05
1.27986e-05
1.47492e-05
3.23675e-05
9.35631e-05
0.000165544
0.00017327
0.000181752
9.37158e-05
5.75361e-05
4.94568e-05
5.50296e-05
7.09568e-05
8.63466e-05
7.64521e-05
5.07606e-05
3.2472e-05
2.5714e-05
2.75811e-05
3.35073e-05
4.16821e-05
5.03994e-05
5.91751e-05
7.13297e-05
8.04507e-05
3.76919e-05
9.5961e-06
6.53038e-06
3.511e-05
0.000107852
0.000120756
9.55832e-05
6.26099e-05
4.10817e-05
2.88201e-05
2.02981e-05
1.47123e-05
1.41215e-05
2.58148e-05
6.63239e-05
9.74463e-05
0.00010589
0.000103363
8.04036e-05
5.77237e-05
4.81341e-05
4.87724e-05
5.60966e-05
6.51331e-05
6.69877e-05
5.74551e-05
4.51686e-05
3.94669e-05
4.21431e-05
4.76501e-05
5.1786e-05
5.66321e-05
6.37836e-05
7.1919e-05
6.41799e-05
2.72243e-05
7.60525e-06
6.70505e-06
3.66918e-05
0.000110283
0.000120342
9.50051e-05
6.26465e-05
4.05681e-05
2.82832e-05
2.12881e-05
1.66652e-05
1.39495e-05
1.52634e-05
2.56152e-05
4.81338e-05
6.63284e-05
7.3369e-05
7.45627e-05
6.83994e-05
5.75324e-05
5.0033e-05
4.7853e-05
4.88328e-05
5.04302e-05
5.11813e-05
5.13166e-05
5.30502e-05
5.93634e-05
7.04515e-05
8.07401e-05
8.41372e-05
8.27943e-05
8.07317e-05
6.62047e-05
2.66705e-05
6.82559e-06
6.44814e-06
3.52319e-05
0.000111411
0.000120743
9.0844e-05
5.92681e-05
4.06412e-05
2.99172e-05
2.26506e-05
1.81589e-05
1.63556e-05
1.71254e-05
2.23687e-05
3.61767e-05
5.62927e-05
6.94074e-05
7.38518e-05
7.40218e-05
7.06878e-05
6.39555e-05
5.62983e-05
5.02496e-05
4.63105e-05
4.4085e-05
4.34195e-05
4.47984e-05
4.94886e-05
5.94532e-05
7.63341e-05
9.59366e-05
0.000105273
0.00010068
8.18321e-05
3.28983e-05
7.1871e-06
6.5432e-06
3.31957e-05
0.000104957
0.000122815
9.62138e-05
6.25026e-05
4.27571e-05
3.3017e-05
2.64406e-05
2.0867e-05
1.73282e-05
1.65646e-05
1.88254e-05
2.54655e-05
3.84722e-05
5.55163e-05
6.85631e-05
7.46975e-05
7.61825e-05
7.47149e-05
7.06986e-05
6.45069e-05
5.72983e-05
5.05659e-05
4.53325e-05
4.20517e-05
4.09575e-05
4.2443e-05
4.76109e-05
5.92035e-05
7.98607e-05
9.85286e-05
9.51135e-05
4.31441e-05
7.81469e-06
6.48204e-06
3.22676e-05
0.000105444
0.000121963
8.92193e-05
5.54121e-05
3.88097e-05
3.24459e-05
2.91358e-05
2.56054e-05
2.24328e-05
2.11391e-05
2.22988e-05
2.6516e-05
3.53144e-05
4.96571e-05
6.588e-05
7.73032e-05
8.21581e-05
8.28864e-05
8.14739e-05
7.84261e-05
7.35926e-05
6.70937e-05
5.97351e-05
5.26849e-05
4.68257e-05
4.24348e-05
3.95187e-05
3.90059e-05
4.47894e-05
6.31059e-05
8.83166e-05
5.60158e-05
8.27035e-06
6.6326e-06
3.06425e-05
9.90116e-05
0.000121892
9.21796e-05
5.64637e-05
3.87877e-05
3.29142e-05
3.06778e-05
2.74151e-05
2.36102e-05
2.18101e-05
2.32646e-05
2.83104e-05
3.74065e-05
5.13324e-05
6.83597e-05
8.23932e-05
8.89157e-05
8.9462e-05
8.7409e-05
8.46036e-05
8.13166e-05
7.7105e-05
7.16215e-05
6.51034e-05
5.83061e-05
5.18165e-05
4.51792e-05
3.76578e-05
3.2812e-05
3.9948e-05
6.64852e-05
6.76245e-05
8.46575e-06
6.87191e-06
3.27313e-05
0.00010606
0.000118089
7.83467e-05
4.4978e-05
3.16955e-05
2.93966e-05
3.1853e-05
3.37512e-05
3.18891e-05
2.88162e-05
2.82257e-05
3.18163e-05
4.02794e-05
5.42612e-05
7.24927e-05
8.87945e-05
9.68062e-05
9.69891e-05
9.34691e-05
8.92371e-05
8.53065e-05
8.13859e-05
7.66566e-05
7.05101e-05
6.31739e-05
5.55351e-05
4.77722e-05
3.85773e-05
3.03468e-05
3.33845e-05
5.75888e-05
7.11675e-05
8.4188e-06
7.1738e-06
3.47811e-05
0.000110299
0.000114952
7.40337e-05
4.28163e-05
3.06916e-05
2.85803e-05
3.01379e-05
3.11221e-05
3.07295e-05
3.0651e-05
3.25954e-05
3.77645e-05
4.6804e-05
6.01618e-05
7.67678e-05
9.18449e-05
9.9688e-05
9.95081e-05
9.46541e-05
8.85289e-05
8.30192e-05
7.85753e-05
7.43976e-05
6.91142e-05
6.18846e-05
5.31683e-05
4.41855e-05
3.58413e-05
3.03727e-05
3.49848e-05
6.05817e-05
6.5073e-05
8.24316e-06
7.34647e-06
3.8749e-05
0.000115712
0.000108211
6.55515e-05
3.75047e-05
2.72749e-05
2.73118e-05
3.31135e-05
3.80953e-05
3.78216e-05
3.57231e-05
3.58803e-05
3.97583e-05
4.73858e-05
5.84059e-05
7.19019e-05
8.50291e-05
9.34244e-05
9.47979e-05
9.06169e-05
8.39891e-05
7.74106e-05
7.22303e-05
6.84623e-05
6.4779e-05
5.93464e-05
5.14017e-05
4.20541e-05
3.37863e-05
3.00531e-05
3.64623e-05
6.2408e-05
5.70601e-05
8.07443e-06
7.43943e-06
4.01292e-05
0.000115909
0.000109575
7.21269e-05
4.18002e-05
2.77185e-05
2.42434e-05
2.72154e-05
3.29592e-05
3.78807e-05
4.08257e-05
4.29958e-05
4.60672e-05
5.09769e-05
5.79891e-05
6.69382e-05
7.63846e-05
8.34074e-05
8.55047e-05
8.2486e-05
7.62919e-05
6.93638e-05
6.36554e-05
6.0247e-05
5.87855e-05
5.70731e-05
5.23123e-05
4.38525e-05
3.44128e-05
2.88872e-05
3.28391e-05
5.39315e-05
5.21833e-05
8.04871e-06
7.31001e-06
4.00973e-05
0.000115093
0.000117191
8.59755e-05
5.16198e-05
3.18055e-05
2.49194e-05
2.639e-05
3.22219e-05
3.74966e-05
4.08037e-05
4.39885e-05
4.81021e-05
5.28434e-05
5.7941e-05
6.38011e-05
7.03344e-05
7.59201e-05
7.81953e-05
7.59676e-05
7.01205e-05
6.27213e-05
5.59074e-05
5.14076e-05
4.99809e-05
5.04973e-05
4.97026e-05
4.44543e-05
3.52232e-05
2.74967e-05
2.82889e-05
4.51993e-05
4.97911e-05
8.26602e-06
7.34018e-06
3.99406e-05
0.00011666
0.000121916
9.68832e-05
6.29139e-05
3.6959e-05
2.45232e-05
2.21237e-05
2.7189e-05
3.69269e-05
4.62213e-05
5.2023e-05
5.55555e-05
5.83637e-05
6.10844e-05
6.44657e-05
6.90997e-05
7.40092e-05
7.64182e-05
7.39072e-05
6.65988e-05
5.67078e-05
4.70434e-05
4.01456e-05
3.75673e-05
3.92556e-05
4.25323e-05
4.17154e-05
3.43832e-05
2.72252e-05
2.89327e-05
4.86806e-05
4.91405e-05
8.6363e-06
7.20299e-06
3.96208e-05
0.000115725
0.000125307
0.000106261
7.81502e-05
5.00735e-05
3.10238e-05
2.31353e-05
2.37792e-05
3.0784e-05
4.15885e-05
5.28526e-05
6.1664e-05
6.64918e-05
6.77751e-05
6.79856e-05
6.99421e-05
7.42548e-05
7.78405e-05
7.55962e-05
6.544e-05
5.06016e-05
3.65862e-05
2.7476e-05
2.4671e-05
2.79773e-05
3.58541e-05
4.12265e-05
3.70056e-05
3.22281e-05
3.82217e-05
6.58026e-05
4.42653e-05
8.70867e-06
7.23226e-06
4.01501e-05
0.000117905
0.000125668
0.000105228
7.82618e-05
5.39549e-05
3.54992e-05
2.51715e-05
2.32186e-05
2.89685e-05
4.06517e-05
5.42869e-05
6.57979e-05
7.2688e-05
7.40781e-05
7.19751e-05
7.06196e-05
7.29687e-05
7.72959e-05
7.61758e-05
6.34623e-05
4.41715e-05
2.7902e-05
1.86701e-05
1.64962e-05
2.06788e-05
2.92081e-05
3.9458e-05
4.26816e-05
4.21088e-05
5.11843e-05
7.45413e-05
3.39131e-05
8.17362e-06
7.11524e-06
3.99755e-05
0.000116225
0.000125119
0.000107482
8.36547e-05
6.13667e-05
4.22713e-05
2.86061e-05
2.27971e-05
2.5107e-05
3.55786e-05
5.22095e-05
6.85772e-05
7.79934e-05
7.84081e-05
7.27458e-05
6.66084e-05
6.45315e-05
6.72815e-05
6.96887e-05
6.18977e-05
4.37792e-05
2.67504e-05
1.66205e-05
1.33929e-05
1.69854e-05
2.4446e-05
3.25079e-05
3.99343e-05
4.55795e-05
5.38301e-05
5.93626e-05
2.57617e-05
7.43453e-06
7.0424e-06
3.93258e-05
0.000116848
0.000125838
0.000105502
8.06209e-05
6.17122e-05
4.74991e-05
3.49741e-05
2.64059e-05
2.4748e-05
3.09314e-05
4.42947e-05
6.07636e-05
7.34449e-05
7.72577e-05
7.23658e-05
6.36948e-05
5.70067e-05
5.52521e-05
5.75917e-05
5.82832e-05
4.94604e-05
3.40616e-05
2.16067e-05
1.53903e-05
1.56539e-05
2.22216e-05
3.00906e-05
3.62853e-05
4.26972e-05
5.03231e-05
5.1568e-05
2.33306e-05
6.93996e-06
6.96504e-06
3.85921e-05
0.000116426
0.000124824
0.000103271
7.84069e-05
6.11664e-05
4.93445e-05
3.86199e-05
2.94198e-05
2.52868e-05
2.85572e-05
4.02952e-05
5.78573e-05
7.30659e-05
7.88579e-05
7.47044e-05
6.48858e-05
5.49726e-05
4.88409e-05
4.76255e-05
4.99468e-05
5.12196e-05
4.52942e-05
3.36269e-05
2.38096e-05
1.93013e-05
2.06194e-05
2.73792e-05
3.64583e-05
4.48816e-05
5.30423e-05
5.47402e-05
2.33627e-05
6.63902e-06
6.89029e-06
3.68826e-05
0.000114376
0.000125159
0.000100814
7.42972e-05
5.93501e-05
5.2337e-05
4.55683e-05
3.60511e-05
2.84604e-05
2.71199e-05
3.37167e-05
4.81499e-05
6.5737e-05
7.76924e-05
7.88657e-05
7.09292e-05
5.92585e-05
4.90709e-05
4.31486e-05
4.18725e-05
4.39537e-05
4.63113e-05
4.43301e-05
3.70393e-05
2.94396e-05
2.54822e-05
2.63237e-05
3.26672e-05
4.49651e-05
5.98409e-05
6.44563e-05
2.42017e-05
6.57475e-06
6.9489e-06
3.66142e-05
0.000114568
0.00012238
9.37519e-05
6.57919e-05
5.18964e-05
4.76081e-05
4.58625e-05
4.10684e-05
3.39639e-05
3.02042e-05
3.36099e-05
4.57367e-05
6.43965e-05
8.09029e-05
8.66566e-05
8.09771e-05
6.86904e-05
5.5386e-05
4.49744e-05
3.906e-05
3.75144e-05
3.92058e-05
4.20116e-05
4.28119e-05
3.97149e-05
3.4982e-05
3.21579e-05
3.38293e-05
4.29747e-05
6.178e-05
7.50468e-05
2.66355e-05
6.74546e-06
6.95581e-06
3.56164e-05
0.000112585
0.000121106
9.09259e-05
6.25217e-05
4.95287e-05
4.68997e-05
4.75451e-05
4.5078e-05
3.85065e-05
3.30675e-05
3.34541e-05
4.21595e-05
5.9718e-05
8.06764e-05
9.36956e-05
9.2826e-05
8.15985e-05
6.64473e-05
5.22601e-05
4.17124e-05
3.56466e-05
3.37577e-05
3.50101e-05
3.77139e-05
3.96269e-05
3.92261e-05
3.76301e-05
3.78642e-05
4.38234e-05
5.95253e-05
7.70303e-05
2.90754e-05
6.9539e-06
7.10767e-06
3.6851e-05
0.000114551
0.000116541
8.23828e-05
5.44805e-05
4.28501e-05
4.16024e-05
4.50543e-05
4.7261e-05
4.43704e-05
3.94145e-05
3.83227e-05
4.49917e-05
6.12505e-05
8.3889e-05
0.000101656
0.000104909
9.5228e-05
7.94937e-05
6.30338e-05
4.88713e-05
3.8553e-05
3.25547e-05
3.05204e-05
3.14839e-05
3.39438e-05
3.61545e-05
3.7215e-05
3.85285e-05
4.37075e-05
5.7305e-05
7.49077e-05
3.02814e-05
7.09959e-06
7.1175e-06
3.71013e-05
0.000114002
0.000114083
8.09247e-05
5.37612e-05
4.21375e-05
4.07373e-05
4.42511e-05
4.72784e-05
4.6224e-05
4.2802e-05
4.18179e-05
4.73151e-05
6.19035e-05
8.43828e-05
0.000105426
0.000113439
0.000106811
9.19613e-05
7.48157e-05
5.85979e-05
4.50545e-05
3.52293e-05
2.94667e-05
2.74035e-05
2.81494e-05
3.04281e-05
3.30595e-05
3.61125e-05
4.2221e-05
5.61628e-05
7.47022e-05
3.05652e-05
7.13869e-06
7.17943e-06
3.83044e-05
0.000114104
0.000113266
8.10499e-05
5.29767e-05
3.97364e-05
3.70912e-05
4.07459e-05
4.61913e-05
4.87276e-05
4.78914e-05
4.78285e-05
5.30162e-05
6.64226e-05
8.76586e-05
0.000109244
0.000120012
0.00011622
0.000102886
8.60578e-05
6.91754e-05
5.3888e-05
4.12664e-05
3.21274e-05
2.6727e-05
2.46955e-05
2.52726e-05
2.76411e-05
3.16611e-05
3.92058e-05
5.46779e-05
7.49401e-05
3.01713e-05
7.08857e-06
7.09218e-06
3.80279e-05
0.000113827
0.00011662
8.86489e-05
5.93806e-05
4.23702e-05
3.61971e-05
3.7259e-05
4.2248e-05
4.71158e-05
4.95148e-05
5.14722e-05
5.70791e-05
6.96099e-05
8.94694e-05
0.000111055
0.000124241
0.000123548
0.000112137
9.59377e-05
7.89101e-05
6.28981e-05
4.88237e-05
3.74219e-05
2.92463e-05
2.44064e-05
2.25605e-05
2.32598e-05
2.65895e-05
3.43324e-05
5.08851e-05
7.36339e-05
2.96122e-05
7.02553e-06
7.06045e-06
3.76783e-05
0.000114821
0.000123433
9.84686e-05
6.80896e-05
4.72788e-05
3.70345e-05
3.46003e-05
3.77085e-05
4.37228e-05
4.95578e-05
5.45016e-05
6.12613e-05
7.34243e-05
9.25296e-05
0.000114855
0.000131099
0.00013385
0.000124152
0.000107828
8.97021e-05
7.22848e-05
5.67357e-05
4.3706e-05
3.3626e-05
2.66387e-05
2.25796e-05
2.11977e-05
2.27079e-05
2.88982e-05
4.4742e-05
7.10675e-05
2.95587e-05
7.02639e-06
7.00441e-06
3.69955e-05
0.00011694
0.000127812
0.000101661
7.33216e-05
5.41178e-05
4.21053e-05
3.59254e-05
3.53755e-05
3.95298e-05
4.6426e-05
5.42996e-05
6.3707e-05
7.7392e-05
9.75614e-05
0.000121996
0.000142028
0.000148395
0.000139997
0.000122615
0.000102166
8.20769e-05
6.40234e-05
4.89199e-05
3.7266e-05
2.90501e-05
2.38053e-05
2.1034e-05
2.09113e-05
2.52843e-05
3.97108e-05
6.94664e-05
3.00818e-05
7.09422e-06
7.0867e-06
3.6853e-05
0.000119475
0.000129713
9.70842e-05
6.98881e-05
5.64107e-05
4.82389e-05
4.10809e-05
3.70249e-05
3.79509e-05
4.3516e-05
5.23279e-05
6.37743e-05
7.94932e-05
0.000102045
0.000130588
0.000156629
0.000168058
0.000161029
0.00014168
0.000117615
9.34616e-05
7.15306e-05
5.31634e-05
3.91996e-05
2.97613e-05
2.4136e-05
2.11998e-05
2.05704e-05
2.41342e-05
3.81898e-05
7.09441e-05
3.06964e-05
7.16362e-06
7.26565e-06
3.7698e-05
0.000122866
0.00012275
8.11119e-05
5.80313e-05
5.2138e-05
5.19527e-05
4.88886e-05
4.32084e-05
4.04923e-05
4.32322e-05
5.12742e-05
6.41078e-05
8.26282e-05
0.000109019
0.000142593
0.000174103
0.000188963
0.000181874
0.000159959
0.000132242
0.00010411
7.82703e-05
5.64564e-05
3.99061e-05
2.89921e-05
2.30396e-05
2.06785e-05
2.08625e-05
2.51205e-05
4.04725e-05
7.52323e-05
3.07091e-05
7.16439e-06
7.59673e-06
4.02733e-05
0.000127625
0.000106648
6.28916e-05
4.72809e-05
4.76328e-05
5.3347e-05
5.55978e-05
5.14375e-05
4.66247e-05
4.65074e-05
5.25604e-05
6.48786e-05
8.43775e-05
0.000112949
0.000149452
0.000183734
0.0002002
0.000193354
0.000170726
0.000141642
0.000111604
8.3466e-05
5.92656e-05
4.06361e-05
2.82431e-05
2.15677e-05
1.94388e-05
2.0833e-05
2.68866e-05
4.45586e-05
7.8523e-05
2.97198e-05
7.06611e-06
7.90128e-06
4.4565e-05
0.000126908
8.0563e-05
4.59822e-05
3.93569e-05
4.65273e-05
5.80044e-05
6.34631e-05
6.00368e-05
5.41495e-05
5.2199e-05
5.67012e-05
6.8251e-05
8.76245e-05
0.000115844
0.000150574
0.000181802
0.000196372
0.000190218
0.000169681
0.000142625
0.000113917
8.62319e-05
6.16486e-05
4.20535e-05
2.8506e-05
2.08309e-05
1.81895e-05
2.00328e-05
2.76805e-05
4.73191e-05
7.74894e-05
2.78454e-05
6.88906e-06
8.01578e-06
4.75801e-05
0.00011543
6.3114e-05
3.76928e-05
3.58774e-05
4.69806e-05
6.19313e-05
6.90659e-05
6.63755e-05
6.05156e-05
5.77045e-05
6.08938e-05
7.11092e-05
8.89116e-05
0.000114287
0.000144096
0.000169888
0.000181988
0.000177439
0.000160642
0.000137544
0.000112228
8.71001e-05
6.39541e-05
4.4542e-05
3.02317e-05
2.14048e-05
1.76582e-05
1.88236e-05
2.65848e-05
4.66127e-05
7.31201e-05
2.58136e-05
6.68971e-06
7.87038e-06
4.64327e-05
0.000107463
6.33562e-05
3.76693e-05
3.33306e-05
4.15719e-05
5.65025e-05
6.76228e-05
6.91578e-05
6.55013e-05
6.30002e-05
6.53159e-05
7.39996e-05
8.96868e-05
0.000111943
0.00013751
0.000159237
0.000169517
0.000165977
0.000151868
0.000131915
0.000109643
8.72418e-05
6.61956e-05
4.78076e-05
3.32753e-05
2.33897e-05
1.83031e-05
1.81401e-05
2.46898e-05
4.36335e-05
6.90221e-05
2.44303e-05
6.5265e-06
7.57353e-06
4.10684e-05
0.000107222
8.56398e-05
4.80019e-05
3.12726e-05
3.00397e-05
3.93715e-05
5.45699e-05
6.60516e-05
6.90602e-05
6.84539e-05
7.02797e-05
7.76636e-05
9.17614e-05
0.000112186
0.000135755
0.000155783
0.000165336
0.00016214
0.000148955
0.000130059
0.000108898
8.77961e-05
6.82485e-05
5.11331e-05
3.69986e-05
2.64565e-05
2.01021e-05
1.84719e-05
2.33554e-05
4.05099e-05
6.68663e-05
2.39713e-05
6.39086e-06
7.39012e-06
3.74187e-05
0.000103685
0.000108029
7.29563e-05
3.8179e-05
2.5264e-05
2.59672e-05
3.66656e-05
5.3499e-05
6.72662e-05
7.33498e-05
7.66806e-05
8.33211e-05
9.64688e-05
0.000116608
0.000140646
0.000161436
0.000171363
0.000167939
0.000154061
0.000134141
0.000111822
8.98137e-05
7.00843e-05
5.36192e-05
4.03239e-05
2.99e-05
2.27411e-05
1.9821e-05
2.31347e-05
3.8388e-05
6.60145e-05
2.41933e-05
6.24344e-06
7.35776e-06
3.70245e-05
0.000107986
0.00011952
9.60931e-05
5.61214e-05
2.99016e-05
2.1774e-05
2.54146e-05
3.8846e-05
5.78662e-05
7.3459e-05
8.25408e-05
9.05749e-05
0.000103472
0.000123683
0.000148812
0.0001712
0.000181972
0.000178092
0.000162911
0.00014131
0.000117046
9.29804e-05
7.16402e-05
5.47003e-05
4.21207e-05
3.26541e-05
2.56381e-05
2.19885e-05
2.4115e-05
3.77357e-05
6.56921e-05
2.47671e-05
6.11678e-06
7.54947e-06
3.98193e-05
0.000117088
0.000123693
9.89749e-05
6.85337e-05
4.05209e-05
2.48269e-05
2.19939e-05
2.99078e-05
4.68297e-05
6.6615e-05
8.21305e-05
9.40189e-05
0.000108053
0.000128332
0.000153709
0.000176797
0.000188259
0.000184651
0.00016935
0.000147352
0.000122267
9.67272e-05
7.346e-05
5.50071e-05
4.2244e-05
3.38723e-05
2.80151e-05
2.45933e-05
2.61814e-05
3.87051e-05
6.62089e-05
2.56823e-05
6.01504e-06
7.71098e-06
4.26325e-05
0.000120511
0.000121258
9.21247e-05
6.47443e-05
4.58641e-05
3.08589e-05
2.3398e-05
2.63135e-05
3.95496e-05
5.95359e-05
7.89293e-05
9.46379e-05
0.00011025
0.000130009
0.000153757
0.000175403
0.000186663
0.000184113
0.000170414
0.000149924
0.000125835
0.000100356
7.59732e-05
5.57036e-05
4.1628e-05
3.34243e-05
2.89891e-05
2.68682e-05
2.88688e-05
4.10324e-05
6.77883e-05
2.69172e-05
5.95444e-06
7.82486e-06
4.53593e-05
0.000122918
0.000122433
9.30365e-05
6.42368e-05
4.70335e-05
3.56521e-05
2.70064e-05
2.55558e-05
3.41716e-05
5.17622e-05
7.25992e-05
9.15626e-05
0.000109344
0.000129123
0.000151198
0.000171004
0.0001819
0.000180754
0.000169349
0.00015116
0.000128897
0.000104398
7.97086e-05
5.78004e-05
4.16333e-05
3.21889e-05
2.81586e-05
2.76215e-05
3.09895e-05
4.35759e-05
6.93928e-05
2.79606e-05
5.92251e-06
7.83121e-06
4.81793e-05
0.00012836
0.000126198
9.73311e-05
6.8208e-05
5.02382e-05
3.9969e-05
3.17356e-05
2.71254e-05
3.09246e-05
4.47308e-05
6.53294e-05
8.68928e-05
0.000107186
0.000127628
0.000148625
0.000166947
0.000177516
0.000177629
0.00016839
0.000152493
0.000132175
0.000108979
8.45229e-05
6.14303e-05
4.30355e-05
3.14224e-05
2.63229e-05
2.63092e-05
3.11191e-05
4.46309e-05
6.9324e-05
2.79543e-05
5.87552e-06
7.82135e-06
5.004e-05
0.000132785
0.000130437
0.000102492
7.33056e-05
5.43877e-05
4.41403e-05
3.68998e-05
3.05777e-05
2.96616e-05
3.81092e-05
5.59122e-05
7.87084e-05
0.00010186
0.000124094
0.000145169
0.000162897
0.000173574
0.000174982
0.000167778
0.000154054
0.000135668
0.000113916
9.00821e-05
6.63458e-05
4.60233e-05
3.19732e-05
2.48546e-05
2.38624e-05
2.89186e-05
4.31116e-05
6.68591e-05
2.66226e-05
5.76888e-06
7.72687e-06
4.9639e-05
0.000132432
0.000131255
0.000105359
7.72697e-05
5.80266e-05
4.78201e-05
4.20779e-05
3.61531e-05
3.16381e-05
3.41869e-05
4.68275e-05
6.84221e-05
9.41185e-05
0.000119383
0.000141972
0.000159942
0.000170809
0.000173136
0.000167507
0.000155611
0.000139021
0.000118833
9.60399e-05
7.23215e-05
5.06535e-05
3.43219e-05
2.48452e-05
2.19489e-05
2.58061e-05
3.95569e-05
6.28496e-05
2.46976e-05
5.59998e-06
7.63076e-06
4.79674e-05
0.000131767
0.000132375
0.00010808
8.06827e-05
6.06421e-05
4.96315e-05
4.49237e-05
4.16026e-05
3.65393e-05
3.41828e-05
4.03212e-05
5.73291e-05
8.33321e-05
0.000112342
0.000138431
0.000158083
0.000169489
0.00017229
0.000167539
0.000156899
0.000141791
0.000123192
0.000101853
7.89348e-05
5.67798e-05
3.86519e-05
2.68435e-05
2.1733e-05
2.36441e-05
3.58768e-05
5.91514e-05
2.32398e-05
5.40947e-06
7.57822e-06
4.73617e-05
0.000133629
0.000132986
0.000107365
8.11973e-05
6.24596e-05
5.12378e-05
4.63504e-05
4.50614e-05
4.25284e-05
3.83352e-05
3.89271e-05
4.97189e-05
7.26976e-05
0.000104185
0.000135208
0.000158055
0.000170207
0.000172782
0.000167998
0.000157849
0.000143732
0.000126529
0.000106819
8.53385e-05
6.36832e-05
4.46102e-05
3.08445e-05
2.35888e-05
2.34835e-05
3.38455e-05
5.72914e-05
2.28876e-05
5.24258e-06
7.59066e-06
4.76508e-05
0.000135171
0.000130131
0.000101109
7.60339e-05
6.06912e-05
5.17742e-05
4.73988e-05
4.68132e-05
4.68534e-05
4.40303e-05
4.18162e-05
4.70905e-05
6.45744e-05
9.45396e-05
0.000129098
0.000156185
0.000170004
0.000172446
0.000167362
0.00015743
0.000144128
0.000128237
0.00011021
9.05165e-05
7.01597e-05
5.11756e-05
3.62167e-05
2.72056e-05
2.53767e-05
3.41131e-05
5.76118e-05
2.3751e-05
5.11762e-06