/*--------------------------------*- C++ -*----------------------------------*\
| =========                 |                                                 |
| \\      /  F ield         | OpenFOAM: The Open Source CFD Toolbox           |
|  \\    /   O peration     | Version:  v2006                                 |
|   \\  /    A nd           | Website:  www.openfoam.com                      |
|    \\/     M anipulation  |                                                 |
\*---------------------------------------------------------------------------*/
FoamFile
{
    version     2.0;
    format      ascii;
    class       surfaceScalarField;
    location    "45";
    object      phi;
}
// * * * * * * * * * * * * * * * * * * * * * * * * * * * * * * * * * * * * * //

dimensions      [1 0 -1 0 0 0 0];
oriented        oriented;


internalField   nonuniform List<scalar> 
228225
(
-0.000282781
-2.70155e-05
-5.54154e-06
-0.000253031
-2.4314e-05
-5.43109e-06
-0.000223531
-2.38882e-05
-5.60638e-06
-0.000194519
-2.32746e-05
-5.72996e-06
-0.00016882
-2.0181e-05
-5.53295e-06
-0.000146037
-1.75911e-05
-5.1966e-06
-0.000126196
-1.51248e-05
-4.71859e-06
-0.000108379
-1.35013e-05
-4.31592e-06
-9.25151e-05
-1.19579e-05
-3.90346e-06
-7.81996e-05
-1.07384e-05
-3.56758e-06
-6.53313e-05
-9.58438e-06
-3.26915e-06
-5.36856e-05
-8.59994e-06
-3.02214e-06
-4.31277e-05
-7.68924e-06
-2.83464e-06
-3.35178e-05
-6.85362e-06
-2.71083e-06
-2.47325e-05
-6.07607e-06
-2.65117e-06
-1.66645e-05
-5.34762e-06
-2.6494e-06
-9.22682e-06
-4.66072e-06
-2.69382e-06
-2.35859e-06
-4.00713e-06
-2.76756e-06
3.96493e-06
-3.37619e-06
-2.84724e-06
9.72009e-06
-2.74967e-06
-2.90609e-06
1.48404e-05
-2.10491e-06
-2.92907e-06
1.92334e-05
-1.41398e-06
-2.92512e-06
2.27993e-05
-6.5207e-07
-2.91771e-06
2.54821e-05
1.62414e-07
-2.92759e-06
2.73039e-05
9.81091e-07
-2.96398e-06
2.83648e-05
1.74057e-06
-3.01759e-06
2.88102e-05
2.38053e-06
-3.0652e-06
2.87546e-05
2.89896e-06
-3.08109e-06
2.82393e-05
3.3364e-06
-3.04419e-06
2.72187e-05
3.75487e-06
-2.93937e-06
2.55582e-05
4.22909e-06
-2.75767e-06
2.30118e-05
4.86697e-06
-2.50094e-06
1.90149e-05
5.94608e-06
-2.14185e-06
1.1862e-05
8.46979e-06
-1.56098e-06
1.22615e-05
-3.88993e-07
-1.09314e-05
-1.74379e-05
1.27706e-06
-2.07708e-05
-1.39915e-05
-3.63486e-07
-2.87769e-05
-1.33584e-05
-2.3535e-06
-3.59787e-05
-1.23142e-05
-3.5663e-06
-4.11248e-05
-1.08338e-05
-4.06881e-06
-4.44787e-05
-9.79409e-06
-4.3275e-06
-4.6201e-05
-8.83426e-06
-4.46638e-06
-4.70565e-05
-8.04761e-06
-4.50961e-06
-4.71748e-05
-7.2776e-06
-4.48845e-06
-4.69015e-05
-6.53289e-06
-4.42099e-06
-4.62401e-05
-5.87093e-06
-4.3323e-06
-4.5285e-05
-5.28461e-06
-4.24257e-06
-4.40411e-05
-4.74865e-06
-4.17034e-06
-4.25213e-05
-4.2419e-06
-4.13029e-06
-4.07317e-05
-3.7459e-06
-4.13036e-06
-3.86819e-05
-3.24695e-06
-4.17205e-06
-3.63856e-05
-2.73666e-06
-4.25212e-06
-3.38586e-05
-2.21087e-06
-4.36429e-06
-3.11196e-05
-1.66473e-06
-4.50033e-06
-2.81839e-05
-1.09314e-06
-4.65078e-06
-2.506e-05
-4.91467e-07
-4.80483e-06
-2.17337e-05
1.33144e-07
-4.95107e-06
-1.81589e-05
7.62425e-07
-5.07862e-06
-1.43466e-05
1.42615e-06
-5.17898e-06
-1.03514e-05
2.11448e-06
-5.24571e-06
-6.29102e-06
2.82394e-06
-5.27353e-06
-2.34794e-06
3.556e-06
-5.2573e-06
1.27903e-06
4.32074e-06
-5.19195e-06
4.40503e-06
5.13941e-06
-5.0725e-06
6.86201e-06
6.05e-06
-4.89313e-06
8.4712e-06
7.12504e-06
-4.64349e-06
8.96865e-06
8.52794e-06
-4.29702e-06
7.85667e-06
1.06898e-05
-3.77145e-06
4.46552e-06
1.4514e-05
-2.73893e-06
1.75464e-05
-6.72087e-07
-1.34493e-05
-4.23318e-06
1.55744e-07
-2.22899e-05
-6.01296e-06
8.21727e-07
-3.14474e-05
-4.82309e-06
5.88572e-07
-4.0125e-05
-3.48719e-06
-1.82173e-07
-4.60654e-05
-3.99467e-06
-9.24403e-07
-4.96428e-05
-4.59335e-06
-1.64434e-06
-5.13901e-05
-4.78792e-06
-2.31566e-06
-5.19263e-05
-4.59821e-06
-2.92592e-06
-5.15795e-05
-4.16953e-06
-3.46417e-06
-5.05581e-05
-3.63562e-06
-3.9256e-06
-4.90414e-05
-3.08523e-06
-4.30805e-06
-4.71633e-05
-2.55998e-06
-4.60825e-06
-4.50132e-05
-2.07373e-06
-4.83145e-06
-4.26504e-05
-1.62313e-06
-4.99007e-06
-4.01132e-05
-1.19499e-06
-5.10001e-06
-3.74166e-05
-7.8329e-07
-5.17649e-06
-3.45546e-05
-3.88778e-07
-5.23158e-06
-3.1502e-05
-1.85416e-08
-5.27292e-06
-2.82888e-05
3.90405e-07
-5.30333e-06
-2.48955e-05
7.91626e-07
-5.321e-06
-2.13266e-05
1.20878e-06
-5.32066e-06
-1.76103e-05
1.65109e-06
-5.295e-06
-1.38102e-05
2.12788e-06
-5.23603e-06
-9.97836e-06
2.65042e-06
-5.13679e-06
-6.19488e-06
3.23233e-06
-4.99246e-06
-2.56236e-06
3.89085e-06
-4.80097e-06
7.96643e-07
4.6488e-06
-4.56333e-06
3.74561e-06
5.53485e-06
-4.28357e-06
6.1375e-06
6.58813e-06
-3.96816e-06
7.80945e-06
7.87073e-06
-3.62402e-06
8.55813e-06
9.50019e-06
-3.25362e-06
8.08169e-06
1.17306e-05
-2.84414e-06
5.96901e-06
1.50613e-05
-2.33288e-06
2.535e-06
1.95397e-05
-1.51397e-06
2.06995e-05
-3.2398e-07
-2.92231e-06
-4.84511e-06
3.5258e-06
-8.35676e-06
-5.17243e-06
4.67676e-06
-1.31147e-05
-4.36369e-06
4.39327e-06
-1.65681e-05
-3.39013e-06
3.38512e-06
-1.97187e-05
-3.45956e-06
2.61452e-06
-2.2778e-05
-3.58922e-06
2.05259e-06
-2.56241e-05
-3.48389e-06
1.54195e-06
-2.80836e-05
-3.15866e-06
1.02183e-06
-3.00136e-05
-2.69906e-06
4.61898e-07
-3.13557e-05
-2.16687e-06
-1.25017e-07
-3.21927e-05
-1.60913e-06
-6.39562e-07
-3.25091e-05
-1.05649e-06
-1.19054e-06
-3.23204e-05
-5.30359e-07
-1.73925e-06
-3.1636e-05
-5.2293e-08
-2.26633e-06
-3.05372e-05
4.48111e-07
-2.75693e-06
-2.90339e-05
8.95238e-07
-3.20082e-06
-2.71661e-05
1.3117e-06
-3.59108e-06
-2.49903e-05
1.7028e-06
-3.92376e-06
-2.2511e-05
2.07915e-06
-4.19834e-06
-1.97916e-05
2.45598e-06
-4.41778e-06
-1.68876e-05
2.85422e-06
-4.58737e-06
-1.38552e-05
3.28993e-06
-4.7133e-06
-1.07448e-05
3.77271e-06
-4.80168e-06
-7.60452e-06
4.3158e-06
-4.85714e-06
-4.48604e-06
4.93774e-06
-4.88107e-06
-1.45158e-06
5.66209e-06
-4.86944e-06
1.41911e-06
6.51843e-06
-4.81175e-06
4.02053e-06
7.54586e-06
-4.6928e-06
6.21372e-06
8.80113e-06
-4.49678e-06
7.8166e-06
1.03766e-05
-4.21027e-06
8.5888e-06
1.24401e-05
-3.82305e-06
8.2137e-06
1.53192e-05
-3.32429e-06
6.33084e-06
1.95313e-05
-2.66126e-06
3.06264e-06
2.4489e-05
-1.60964e-06
2.42953e-05
-2.57445e-07
-6.31168e-06
-1.05367e-06
2.44796e-06
-1.25808e-05
-1.61353e-06
2.63006e-06
-1.70096e-05
-2.05506e-06
2.05633e-06
-1.98675e-05
-2.22829e-06
1.65265e-06
-2.24625e-05
-2.19136e-06
1.29896e-06
-2.49867e-05
-2.02421e-06
9.42212e-07
-2.72841e-05
-1.77482e-06
5.78015e-07
-2.9186e-05
-1.4732e-06
2.09406e-07
-3.06331e-05
-1.14007e-06
-1.17497e-07
-3.16343e-05
-7.91712e-07
-3.79641e-07
-3.21657e-05
-4.38438e-07
-6.45598e-07
-3.2243e-05
-7.68916e-08
-9.09755e-07
-3.18338e-05
2.23687e-07
-1.1718e-06
-3.09981e-05
5.33123e-07
-1.43055e-06
-2.97092e-05
8.33161e-07
-1.6838e-06
-2.80206e-05
1.12564e-06
-1.92882e-06
-2.59714e-05
1.41722e-06
-2.16406e-06
-2.36049e-05
1.71715e-06
-2.38922e-06
-2.09648e-05
2.03676e-06
-2.60519e-06
-1.80926e-05
2.39022e-06
-2.81297e-06
-1.50289e-05
2.79837e-06
-3.01399e-06
-1.18191e-05
3.28348e-06
-3.20954e-06
-8.5172e-06
3.86055e-06
-3.397e-06
-5.18469e-06
4.54003e-06
-3.56678e-06
-1.89702e-06
5.33523e-06
-3.70018e-06
1.24571e-06
6.26627e-06
-3.76969e-06
4.11588e-06
7.36097e-06
-3.74631e-06
6.56604e-06
8.66146e-06
-3.61298e-06
8.4385e-06
1.02398e-05
-3.37365e-06
9.55961e-06
1.22299e-05
-3.05166e-06
9.70141e-06
1.48937e-05
-2.68038e-06
8.52184e-06
1.87203e-05
-2.28977e-06
5.78673e-06
2.41333e-05
-1.86534e-06
2.46838e-06
2.91587e-05
-1.21196e-06
2.72766e-05
-2.27265e-07
-2.26944e-06
-1.29594e-06
2.40942e-06
-5.97726e-06
-1.16062e-06
3.17003e-06
-9.80196e-06
-1.12529e-06
2.82589e-06
-1.35634e-05
-9.67472e-07
2.44651e-06
-1.70992e-05
-7.2951e-07
2.03395e-06
-2.02187e-05
-4.62101e-07
1.52888e-06
-2.27368e-05
-2.0517e-07
9.28795e-07
-2.45804e-05
5.67878e-08
2.99574e-07
-2.58293e-05
3.26872e-07
-2.28953e-07
-2.65846e-05
5.9814e-07
-6.44292e-07
-2.68832e-05
8.7026e-07
-1.01943e-06
-2.67378e-05
1.12621e-06
-1.35788e-06
-2.62175e-05
1.3579e-06
-1.66357e-06
-2.53158e-05
1.566e-06
-1.94304e-06
-2.40482e-05
1.75931e-06
-2.20126e-06
-2.24385e-05
1.95191e-06
-2.44228e-06
-2.0514e-05
2.15532e-06
-2.66762e-06
-1.83058e-05
2.3824e-06
-2.87724e-06
-1.58503e-05
2.64832e-06
-3.07016e-06
-1.31851e-05
2.9667e-06
-3.24455e-06
-1.03446e-05
3.3509e-06
-3.39664e-06
-7.36164e-06
3.81744e-06
-3.52233e-06
-4.27763e-06
4.38319e-06
-3.61532e-06
-1.14725e-06
5.06119e-06
-3.66523e-06
1.95897e-06
5.86502e-06
-3.65703e-06
4.95254e-06
6.81383e-06
-3.57241e-06
7.72483e-06
7.93666e-06
-3.39353e-06
1.01461e-05
9.28345e-06
-3.10907e-06
1.20594e-05
1.09511e-05
-2.72072e-06
1.32463e-05
1.31448e-05
-2.24835e-06
1.33074e-05
1.63275e-05
-1.73462e-06
1.14242e-05
2.14382e-05
-1.25126e-06
7.01243e-06
2.8758e-05
-8.47212e-07
2.55462e-06
3.3469e-05
-3.65528e-07
2.97562e-05
8.96158e-08
1.37267e-06
-5.98807e-06
3.22101e-06
1.0633e-06
-5.72021e-06
4.78575e-06
-1.65792e-07
-4.62768e-06
4.67216e-06
-2.43997e-06
-3.01021e-06
4.26996e-06
-5.80775e-06
-1.26725e-06
3.8616e-06
-9.90255e-06
1.53326e-07
3.44022e-06
-1.40224e-05
9.57964e-07
2.92666e-06
-1.77742e-05
1.53607e-06
2.25e-06
-2.09381e-05
2.07808e-06
1.39378e-06
-2.33955e-05
2.65747e-06
3.81389e-07
-2.51089e-05
3.16102e-06
-5.91984e-07
-2.6106e-05
3.51594e-06
-1.40522e-06
-2.64808e-05
3.74175e-06
-2.01929e-06
-2.63371e-05
3.89954e-06
-2.48467e-06
-2.57395e-05
4.03998e-06
-2.88232e-06
-2.47198e-05
4.17799e-06
-3.24604e-06
-2.33011e-05
4.31604e-06
-3.57582e-06
-2.15058e-05
4.46064e-06
-3.86618e-06
-1.93494e-05
4.61602e-06
-4.11374e-06
-1.68505e-05
4.79665e-06
-4.31637e-06
-1.40451e-05
5.02985e-06
-4.47072e-06
-1.09914e-05
5.34784e-06
-4.57084e-06
-7.76753e-06
5.77822e-06
-4.6075e-06
-4.47236e-06
6.34312e-06
-4.56903e-06
-1.22352e-06
7.06165e-06
-4.44216e-06
1.84742e-06
7.95347e-06
-4.2132e-06
4.60024e-06
9.04414e-06
-3.86994e-06
6.89268e-06
1.03771e-05
-3.40423e-06
8.5873e-06
1.20419e-05
-2.81536e-06
9.55325e-06
1.42429e-05
-2.11542e-06
9.63447e-06
1.74876e-05
-1.34273e-06
8.47188e-06
2.29785e-05
-6.07638e-07
5.50455e-06
3.13403e-05
-8.26293e-08
2.15288e-06
3.58174e-05
5.35248e-07
3.11471e-05
6.63006e-07
2.81002e-06
-1.40952e-05
5.38499e-06
6.55556e-06
-1.69741e-05
7.62611e-06
1.04608e-05
-1.60631e-05
7.67252e-06
1.40672e-05
-1.34737e-05
7.02024e-06
1.64134e-05
-9.64612e-06
6.18614e-06
1.66893e-05
-5.44554e-06
5.4338e-06
1.44887e-05
-1.63523e-06
4.85431e-06
1.00616e-05
1.5818e-06
4.39928e-06
4.15064e-06
3.94931e-06
4.02413e-06
-2.2172e-06
5.35786e-06
3.64019e-06
-8.12783e-06
5.92298e-06
3.12617e-06
-1.30747e-05
5.99949e-06
2.44703e-06
-1.68483e-05
5.88355e-06
1.61957e-06
-1.94312e-05
5.81321e-06
6.60307e-07
-2.09847e-05
5.93886e-06
-3.51286e-07
-2.16701e-05
6.1413e-06
-1.28097e-06
-2.15166e-05
6.27777e-06
-2.11488e-06
-2.05899e-05
6.35646e-06
-2.81794e-06
-1.90071e-05
6.44373e-06
-3.40122e-06
-1.6906e-05
6.5853e-06
-3.87609e-06
-1.4383e-05
6.79972e-06
-4.27544e-06
-1.15012e-05
7.09852e-06
-4.6128e-06
-8.32924e-06
7.5052e-06
-4.87886e-06
-4.94552e-06
8.03951e-06
-5.06169e-06
-1.44708e-06
8.72147e-06
-5.14396e-06
2.02986e-06
9.58403e-06
-5.09985e-06
5.29826e-06
1.06723e-05
-4.89788e-06
8.11881e-06
1.20499e-05
-4.50523e-06
1.01996e-05
1.38263e-05
-3.88845e-06
1.11889e-05
1.6229e-05
-3.00992e-06
1.07156e-05
1.9783e-05
-1.86836e-06
8.64716e-06
2.55955e-05
-6.03181e-07
5.53761e-06
3.38528e-05
5.62944e-07
2.39078e-06
3.75937e-05
1.39886e-06
3.25005e-05
1.2243e-06
-4.18399e-06
-1.82765e-05
8.38688e-06
-6.13459e-06
-2.5597e-05
1.06554e-05
-5.87227e-06
-2.69406e-05
1.06788e-05
-3.14967e-06
-2.64309e-05
1.02928e-05
1.77331e-06
-2.41282e-05
9.65018e-06
7.98115e-06
-2.03054e-05
8.78987e-06
1.43135e-05
-1.55561e-05
7.77113e-06
1.99498e-05
-1.05592e-05
6.71318e-06
2.4174e-05
-5.88143e-06
5.80005e-06
2.63489e-05
-1.80522e-06
5.12613e-06
2.62956e-05
1.39699e-06
4.65636e-06
2.39783e-05
4.05788e-06
4.29392e-06
1.9706e-05
6.1771e-06
3.98066e-06
1.42141e-05
7.55055e-06
3.72387e-06
8.48508e-06
8.16504e-06
3.46615e-06
3.43558e-06
8.1262e-06
3.04205e-06
-3.01137e-07
7.6377e-06
2.36508e-06
-2.58055e-06
7.18483e-06
1.44483e-06
-4.21697e-06
7.79304e-06
2.83607e-07
-5.77922e-06
9.06738e-06
-9.23341e-07
-6.9059e-06
1.00162e-05
-2.09183e-06
-7.2848e-06
1.05077e-05
-3.02696e-06
-6.89559e-06
1.07526e-05
-3.62687e-06
-5.82559e-06
1.09478e-05
-3.9653e-06
-4.18429e-06
1.12651e-05
-4.17479e-06
-2.11262e-06
1.18221e-05
-4.31024e-06
1.95571e-07
1.27025e-05
-4.35884e-06
2.4669e-06
1.39957e-05
-4.26983e-06
4.34427e-06
1.58262e-05
-3.97976e-06
5.39741e-06
1.84144e-05
-3.41663e-06
5.18119e-06
2.2204e-05
-2.49179e-06
3.58674e-06
2.79675e-05
-1.17151e-06
1.79675e-06
3.50144e-05
3.05392e-07
4.0125e-07
3.71852e-05
1.68442e-06
3.14822e-05
1.53864e-06
-1.3021e-05
-1.11016e-05
5.68933e-06
-2.44497e-05
-2.01349e-05
5.75905e-06
-3.14419e-05
-2.50981e-05
4.93677e-06
-3.47065e-05
-2.81641e-05
4.79583e-06
-3.44599e-05
-2.97638e-05
5.1985e-06
-3.06399e-05
-3.00778e-05
5.78344e-06
-2.34859e-05
-2.91466e-05
6.31117e-06
-1.37066e-05
-2.70862e-05
6.67997e-06
-2.44483e-06
-2.40132e-05
6.86596e-06
9.00683e-06
-2.00628e-05
6.86922e-06
1.93015e-05
-1.54446e-05
6.68162e-06
2.77255e-05
-1.04532e-05
6.28616e-06
3.3936e-05
-5.52443e-06
5.72218e-06
3.77571e-05
-1.14898e-06
5.08333e-06
3.88657e-05
2.69326e-06
4.48803e-06
3.69541e-05
6.07325e-06
3.99877e-06
3.1467e-05
9.44226e-06
3.62476e-06
2.24887e-05
1.25017e-05
3.48654e-06
1.171e-05
1.48928e-05
3.53479e-06
1.89109e-06
1.57886e-05
3.07547e-06
-5.04774e-06
1.49822e-05
1.9934e-06
-8.73016e-06
1.36567e-05
5.5082e-07
-1.01497e-05
1.30766e-05
-8.94977e-07
-1.04479e-05
1.3486e-05
-2.23344e-06
-9.85272e-06
1.40372e-05
-3.35272e-06
-8.31086e-06
1.44324e-05
-4.11853e-06
-5.90165e-06
1.48902e-05
-4.53665e-06
-2.90399e-06
1.57292e-05
-4.63977e-06
2.1779e-07
1.72289e-05
-4.40048e-06
2.87666e-06
1.968e-05
-3.76831e-06
4.42703e-06
2.35683e-05
-2.72272e-06
4.56314e-06
2.94443e-05
-1.36845e-06
3.8018e-06
3.60837e-05
-8.86217e-09
1.92756e-06
3.7852e-05
1.50593e-06
3.21034e-05
1.5624e-06
-7.09992e-06
-5.45918e-06
1.41663e-06
-1.02254e-05
-1.70128e-05
-1.11103e-07
-9.80393e-06
-2.47343e-05
-9.18896e-07
-7.89996e-06
-2.89792e-05
-1.22384e-06
-5.48773e-06
-3.11995e-05
-1.11906e-06
-2.7201e-06
-3.22792e-05
-7.25276e-07
6.07702e-07
-3.25081e-05
-1.44482e-07
4.49351e-06
-3.20066e-05
8.47971e-07
9.26306e-06
-3.08667e-05
1.90926e-06
1.51938e-05
-2.91557e-05
3.02141e-06
2.24404e-05
-2.68939e-05
4.11109e-06
3.09181e-05
-2.4074e-05
5.10801e-06
4.01174e-05
-2.06762e-05
5.97799e-06
4.90253e-05
-1.66686e-05
6.70744e-06
5.65656e-05
-1.19299e-05
7.2727e-06
6.16914e-05
-6.24529e-06
7.54912e-06
6.38527e-05
5.96018e-07
7.23186e-06
6.28988e-05
7.77013e-06
6.22551e-06
6.00708e-05
1.30981e-05
4.9284e-06
5.54747e-05
1.66856e-05
3.73184e-06
4.81265e-05
1.93127e-05
2.86135e-06
3.94245e-05
1.97803e-05
2.37272e-06
3.14753e-05
1.87659e-05
2.11326e-06
2.49435e-05
1.83258e-05
1.65701e-06
1.95995e-05
1.87062e-05
6.9903e-07
1.49151e-05
1.96618e-05
-5.12496e-07
1.09375e-05
2.05996e-05
-1.70521e-06
8.07892e-06
2.13879e-05
-2.76273e-06
6.51976e-06
2.23495e-05
-3.48809e-06
6.15435e-06
2.39405e-05
-3.75306e-06
6.50003e-06
2.68264e-05
-3.33201e-06
6.64516e-06
3.18279e-05
-2.02748e-06
5.65348e-06
3.81104e-05
-2.93824e-07
2.84742e-06
3.99109e-05
1.38634e-06
3.36625e-05
1.60775e-06
1.73564e-06
-9.81498e-06
2.49476e-06
9.36251e-06
-2.65175e-05
1.7188e-06
1.80221e-05
-3.44152e-05
9.17172e-07
2.60223e-05
-3.75822e-05
5.52558e-07
3.30067e-05
-3.85371e-05
3.43742e-07
3.89141e-05
-3.83071e-05
1.43103e-07
4.37533e-05
-3.72341e-05
-6.33496e-08
4.75529e-05
-3.55439e-05
-1.93907e-07
5.05128e-05
-3.34628e-05
-2.93009e-07
5.28634e-05
-3.11458e-05
-3.0565e-07
5.48118e-05
-2.86208e-05
-1.9801e-07
5.64393e-05
-2.58059e-05
8.2743e-08
5.76016e-05
-2.25805e-05
6.62854e-07
5.82488e-05
-1.89391e-05
1.48971e-06
5.86212e-05
-1.50766e-05
2.62654e-06
5.9377e-05
-1.11122e-05
4.0266e-06
6.12015e-05
-6.62425e-06
5.4822e-06
6.40095e-05
-1.36108e-06
6.54106e-06
6.6702e-05
3.52594e-06
7.09695e-06
6.71398e-05
9.31897e-06
7.38235e-06
6.39229e-05
1.65005e-05
6.76171e-06
5.65467e-05
2.24796e-05
5.1408e-06
4.57841e-05
2.58896e-05
3.66554e-06
3.44024e-05
2.67959e-05
2.75935e-06
2.45227e-05
2.63947e-05
2.05351e-06
1.70688e-05
2.59854e-05
1.10812e-06
1.20195e-05
2.59517e-05
-2.48846e-07
8.7259e-06
2.62811e-05
-1.52856e-06
6.77551e-06
2.7008e-05
-2.63834e-06
5.82924e-06
2.83673e-05
-3.39742e-06
5.67656e-06
3.07792e-05
-3.64139e-06
5.78514e-06
3.50771e-05
-2.97068e-06
4.99243e-06
4.08941e-05
-1.26301e-06
2.45239e-06
4.25767e-05
5.66234e-07
3.52869e-05
1.17952e-06
8.85298e-06
-1.79273e-05
-7.5738e-07
2.04783e-05
-3.51117e-05
-2.96046e-06
3.13035e-05
-4.14171e-05
-3.71495e-06
4.09828e-05
-4.34081e-05
-3.74499e-06
4.96361e-05
-4.35903e-05
-3.50208e-06
5.72893e-05
-4.27224e-05
-3.15214e-06
6.3919e-05
-4.10372e-05
-2.75319e-06
6.94271e-05
-3.86567e-05
-2.33296e-06
7.36467e-05
-3.57183e-05
-1.91055e-06
7.64307e-05
-3.23822e-05
-1.49914e-06
7.7746e-05
-2.87864e-05
-1.09997e-06
7.77281e-05
-2.50092e-05
-7.11246e-07
7.66843e-05
-2.10705e-05
-3.55993e-07
7.50278e-05
-1.70554e-05
-7.40223e-08
7.30262e-05
-1.32127e-05
2.9909e-07
7.10533e-05
-9.75323e-06
7.45716e-07
6.97515e-05
-6.59961e-06
1.3669e-06
6.97699e-05
-3.50652e-06
2.1846e-06
7.07312e-05
-5.08562e-07
3.08919e-06
7.20408e-05
3.95932e-06
4.08142e-06
7.40938e-05
9.58789e-06
5.03778e-06
7.53238e-05
1.60615e-05
5.59186e-06
7.29448e-05
2.34124e-05
5.32278e-06
6.57682e-05
2.98369e-05
4.42271e-06
5.57233e-05
3.30884e-05
3.41086e-06
4.57597e-05
3.34105e-05
2.40592e-06
3.74169e-05
3.27539e-05
1.28906e-06
3.10363e-05
3.23746e-05
-4.63368e-08
2.60623e-05
3.27457e-05
-1.17255e-06
2.20761e-05
3.40944e-05
-2.21867e-06
1.85318e-05
3.67282e-05
-2.95822e-06
1.47486e-05
4.12817e-05
-3.01536e-06
1.0392e-05
4.67703e-05
-1.8854e-06
5.07599e-06
4.79977e-05
-2.29695e-07
3.97665e-05
6.37136e-07
1.35357e-05
-2.95471e-05
-1.81711e-06
2.54463e-05
-4.44969e-05
-2.36043e-06
3.47695e-05
-4.81353e-05
-2.47086e-06
4.25569e-05
-4.8472e-05
-2.6271e-06
4.92994e-05
-4.74629e-05
-2.79847e-06
5.50611e-05
-4.54588e-05
-2.96637e-06
5.96972e-05
-4.24901e-05
-3.12811e-06
6.31224e-05
-3.87444e-05
-3.2821e-06
6.55159e-05
-3.46393e-05
-3.42022e-06
6.72654e-05
-3.05688e-05
-3.52016e-06
6.87651e-05
-2.67087e-05
-3.55005e-06
7.03243e-05
-2.30883e-05
-3.47233e-06
7.22015e-05
-1.97092e-05
-3.25086e-06
7.4519e-05
-1.65249e-05
-2.87591e-06
7.70234e-05
-1.33857e-05
-2.36646e-06
7.90444e-05
-1.00582e-05
-1.74984e-06
7.98034e-05
-6.33069e-06
-1.05355e-06
7.87645e-05
-2.17265e-06
-3.05528e-07
7.57017e-05
2.06034e-06
4.98993e-07
7.18596e-05
6.51443e-06
1.28645e-06
6.70134e-05
1.23267e-05
2.11657e-06
6.10109e-05
1.91591e-05
2.97254e-06
5.57406e-05
2.5164e-05
3.81944e-06
5.06556e-05
3.12997e-05
4.11071e-06
4.43146e-05
3.61227e-05
3.60937e-06
3.66075e-05
3.83603e-05
2.73273e-06
2.85487e-05
3.88952e-05
1.62864e-06
2.1409e-05
3.88432e-05
2.10165e-07
1.58127e-05
3.8983e-05
-1.19887e-06
1.18663e-05
3.98173e-05
-2.41695e-06
9.14064e-06
4.19164e-05
-3.23837e-06
6.90492e-06
4.59834e-05
-3.41687e-06
4.68913e-06
5.06201e-05
-2.5242e-06
1.98191e-06
5.09449e-05
-9.20947e-07
4.13956e-05
-1.62787e-08
8.94032e-06
-3.65054e-05
-1.79309e-06
1.56948e-05
-4.88874e-05
-2.1952e-06
2.07894e-05
-5.05289e-05
-2.62571e-06
2.5261e-05
-4.99722e-05
-2.94817e-06
2.92494e-05
-4.82542e-05
-3.19682e-06
3.24026e-05
-4.52099e-05
-3.4073e-06
3.41846e-05
-4.06684e-05
-3.60368e-06
3.44961e-05
-3.52533e-05
-3.80132e-06
3.39104e-05
-3.00719e-05
-3.99211e-06
3.32685e-05
-2.58266e-05
-4.13171e-06
3.31289e-05
-2.24392e-05
-4.18164e-06
3.35817e-05
-1.9477e-05
-4.12761e-06
3.43998e-05
-1.66368e-05
-3.95449e-06
3.52758e-05
-1.37991e-05
-3.65948e-06
3.59605e-05
-1.08642e-05
-3.25691e-06
3.61974e-05
-7.58096e-06
-2.76182e-06
3.55557e-05
-3.55298e-06
-2.1854e-06
3.37476e-05
1.12333e-06
-1.54167e-06
3.11845e-05
5.41671e-06
-8.5331e-07
2.78413e-05
9.88643e-06
-9.06158e-08
2.4131e-05
1.51128e-05
9.1927e-07
1.909e-05
2.21181e-05
2.22358e-06
1.20111e-05
2.96468e-05
2.79901e-06
5.11043e-06
3.57932e-05
2.66973e-06
8.63455e-08
3.93044e-05
2.14332e-06
-3.49308e-06
4.08525e-05
1.39687e-06
-5.994e-06
4.13052e-05
4.1941e-07
-7.28493e-06
4.13279e-05
-8.31373e-07
-7.24563e-06
4.14379e-05
-2.08536e-06
-5.9816e-06
4.20728e-05
-3.05364e-06
-3.8085e-06
4.3882e-05
-3.62522e-06
-1.58451e-06
4.7853e-05
-3.6334e-06
-3.51227e-07
5.25254e-05
-2.90151e-06
-8.63792e-08
5.23743e-05
-1.57308e-06
4.18694e-05
-4.32043e-07
1.09375e-06
-3.6637e-05
-1.05997e-06
2.15121e-06
-4.93673e-05
-7.5775e-07
3.61368e-06
-5.1135e-05
-1.04245e-06
5.58176e-06
-5.07037e-05
-1.42254e-06
7.88169e-06
-4.89248e-05
-1.81565e-06
1.01182e-05
-4.53825e-05
-2.23952e-06
1.18112e-05
-3.97891e-05
-2.72497e-06
1.30218e-05
-3.33106e-05
-3.28087e-06
1.42659e-05
-2.75766e-05
-3.84478e-06
1.59088e-05
-2.32861e-05
-4.27059e-06
1.79814e-05
-2.01079e-05
-4.48121e-06
2.02667e-05
-1.73272e-05
-4.51097e-06
2.23962e-05
-1.44591e-05
-4.38574e-06
2.42483e-05
-1.16258e-05
-4.10765e-06
2.60318e-05
-9.04246e-06
-3.69178e-06
2.7912e-05
-6.38521e-06
-3.16865e-06
2.9885e-05
-3.05837e-06
-2.56314e-06
3.14594e-05
1.35378e-06
-1.89034e-06
3.13164e-05
6.68979e-06
-1.22064e-06
2.98787e-05
1.18975e-05
-7.11623e-07
2.72444e-05
1.78492e-05
-3.39529e-07
2.3857e-05
2.48422e-05
3.5425e-07
1.84791e-05
3.35204e-05
1.48321e-06
1.23572e-05
4.0205e-05
1.88072e-06
7.17058e-06
4.32035e-05
1.40876e-06
3.14739e-06
4.43956e-05
5.74595e-07
2.63911e-07
4.48548e-05
-5.60918e-07
-1.3563e-06
4.50322e-05
-1.94862e-06
-1.77361e-06
4.52875e-05
-3.2561e-06
-1.25616e-06
4.60366e-05
-4.25872e-06
-2.24452e-07
4.79259e-05
-4.80224e-06
6.41009e-07
5.1807e-05
-4.50712e-06
8.75003e-07
5.58384e-05
-3.23755e-06
5.31185e-07
5.48792e-05
-1.87742e-06
4.34389e-05
-7.74346e-07
3.33152e-07
-3.68698e-05
-3.94591e-07
2.08735e-06
-5.14893e-05
8.20069e-08
4.34834e-06
-5.37371e-05
1.27756e-07
6.99188e-06
-5.35552e-05
2.27393e-08
1.00974e-05
-5.19963e-05
-2.20058e-07
1.35502e-05
-4.85104e-05
-5.22171e-07
1.71523e-05
-4.27004e-05
-8.78687e-07
2.08559e-05
-3.59068e-05
-1.25247e-06
2.4691e-05
-2.98674e-05
-1.63389e-06
2.86201e-05
-2.52191e-05
-2.04222e-06
3.24047e-05
-2.1435e-05
-2.48598e-06
3.53584e-05
-1.7337e-05
-2.97886e-06
3.62962e-05
-1.19193e-05
-3.53692e-06
3.4854e-05
-6.20309e-06
-4.07107e-06
3.23255e-05
-2.22302e-06
-4.41187e-06
2.95444e-05
7.54534e-07
-4.52257e-06
2.62278e-05
4.4912e-06
-4.46106e-06
2.11891e-05
1.03628e-05
-4.22702e-06
1.42504e-05
1.70847e-05
-3.63173e-06
5.58313e-06
2.31448e-05
-2.58521e-06
-4.11819e-06
2.91266e-05
-1.44758e-06
-1.3558e-05
3.46481e-05
-2.12634e-07
-1.9725e-05
3.91178e-05
6.09357e-07
-2.23144e-05
4.18712e-05
7.5075e-07
-2.31286e-05
4.32351e-05
4.72429e-07
-2.31194e-05
4.40173e-05
-3.56143e-08
-2.23999e-05
4.46032e-05
-9.63412e-07
-2.10685e-05
4.52099e-05
-2.09516e-06
-1.91318e-05
4.60425e-05
-3.36426e-06
-1.66936e-05
4.73929e-05
-4.53479e-06
-1.38469e-05
4.97029e-05
-5.36586e-06
-1.04497e-05
5.32133e-05
-5.39042e-06
-6.62907e-06
5.58956e-05
-4.17042e-06
-3.37987e-06
5.40558e-05
-2.55662e-06
4.14538e-05
-1.41563e-06
1.82157e-06
-3.85449e-05
-2.36111e-07
3.92854e-06
-5.36157e-05
-1.8405e-08
5.86426e-06
-5.58086e-05
1.51125e-07
7.46687e-06
-5.5371e-05
2.58363e-07
8.55704e-06
-5.32887e-05
2.78834e-07
8.65545e-06
-4.86841e-05
1.96301e-07
7.42771e-06
-4.13543e-05
3.13961e-08
5.00983e-06
-3.31368e-05
-2.13204e-07
1.45862e-06
-2.58379e-05
-3.75068e-07
-2.7796e-06
-2.03996e-05
-5.18282e-07
-6.72602e-06
-1.66968e-05
-7.65855e-07
-9.76767e-06
-1.30447e-05
-1.26236e-06
-1.26514e-05
-6.9473e-06
-2.15121e-06
-1.71089e-05
1.34997e-06
-3.20817e-06
-2.24722e-05
6.82909e-06
-3.75713e-06
-2.83207e-05
1.03399e-05
-3.70596e-06
-3.45579e-05
1.42113e-05
-3.31418e-06
-4.09166e-05
1.99236e-05
-2.89239e-06
-4.72866e-05
2.6559e-05
-2.78327e-06
-5.28553e-05
3.1687e-05
-2.70763e-06
-5.62133e-05
3.51363e-05
-2.34896e-06
-5.70652e-05
3.77099e-05
-1.88328e-06
-5.56882e-05
3.9621e-05
-1.55953e-06
-5.295e-05
4.08956e-05
-1.43971e-06
-4.96455e-05
4.17292e-05
-1.46714e-06
-4.60173e-05
4.23723e-05
-1.65148e-06
-4.20733e-05
4.30149e-05
-2.04416e-06
-3.77588e-05
4.38362e-05
-2.67767e-06
-3.30789e-05
4.50566e-05
-3.51833e-06
-2.81361e-05
4.69519e-05
-4.45559e-06
-2.29109e-05
4.96939e-05
-5.29196e-06
-1.69127e-05
5.27981e-05
-5.66211e-06
-1.02551e-05
5.4373e-05
-5.09035e-06
-4.59571e-06
5.21348e-05
-3.59583e-06
3.91389e-05
-2.07297e-06
2.37456e-06
-4.08717e-05
3.27387e-08
3.64841e-06
-5.50094e-05
2.31792e-07
4.13397e-06
-5.65933e-05
3.93138e-07
3.82088e-06
-5.54841e-05
5.33812e-07
2.18572e-06
-5.21107e-05
6.20605e-07
-1.46046e-06
-4.53984e-05
5.92989e-07
-6.42169e-06
-3.65631e-05
3.91951e-07
-1.11174e-05
-2.84523e-05
1.4131e-07
-1.55824e-05
-2.13723e-05
2.27497e-08
-2.15621e-05
-1.44623e-05
-8.99844e-09
-3.00366e-05
-8.21202e-06
-7.69987e-08
-3.88234e-05
-3.98065e-06
-3.00071e-07
-4.43843e-05
-5.89422e-07
-8.01885e-07
-4.64381e-05
4.89404e-06
-1.61387e-06
-4.83389e-05
1.07004e-05
-2.17976e-06
-5.13232e-05
1.53314e-05
-2.14846e-06
-5.48903e-05
1.95415e-05
-1.80491e-06
-5.75154e-05
2.39662e-05
-1.37205e-06
-5.81411e-05
2.83089e-05
-1.07165e-06
-5.70388e-05
3.15148e-05
-9.71156e-07
-5.46082e-05
3.35333e-05
-9.46271e-07
-5.11436e-05
3.50704e-05
-9.91047e-07
-4.70847e-05
3.64969e-05
-1.12259e-06
-4.29694e-05
3.79378e-05
-1.32519e-06
-3.92209e-05
3.9463e-05
-1.59068e-06
-3.6014e-05
4.10759e-05
-1.93223e-06
-3.3267e-05
4.27334e-05
-2.3827e-06
-3.07095e-05
4.44469e-05
-2.97373e-06
-2.79821e-05
4.63337e-05
-3.70886e-06
-2.47093e-05
4.85634e-05
-4.5228e-06
-2.0516e-05
5.11327e-05
-5.25824e-06
-1.50764e-05
5.34004e-05
-5.67241e-06
-8.95093e-06
5.40391e-05
-5.41865e-06
-3.74268e-06
5.14354e-05
-4.19768e-06
3.78776e-05
-2.31514e-06
2.02765e-06
-4.31547e-05
4.45365e-07
1.59732e-06
-5.52291e-05
8.23783e-07
1.20068e-07
-5.57382e-05
7.51372e-07
-1.90905e-06
-5.39842e-05
6.75592e-07
-4.94059e-06
-4.94706e-05
6.15644e-07
-9.77038e-06
-4.07836e-05
5.01006e-07
-1.66843e-05
-2.9692e-05
2.84152e-07
-2.47253e-05
-2.04086e-05
1.23268e-07
-3.21088e-05
-1.42385e-05
2.38758e-07
-3.84716e-05
-8.91333e-06
6.01096e-07
-4.49381e-05
-3.03595e-06
8.65258e-07
-5.15769e-05
1.56425e-06
7.12806e-07
-5.64876e-05
3.85076e-06
3.39435e-07
-5.78205e-05
6.26457e-06
-7.04273e-08
-5.65482e-05
9.87601e-06
-5.36559e-07
-5.45681e-05
1.40962e-05
-8.85849e-07
-5.24831e-05
1.83591e-05
-1.02522e-06
-5.00524e-05
2.24803e-05
-1.00568e-06
-4.70808e-05
2.62102e-05
-8.7904e-07
-4.40656e-05
2.91764e-05
-6.81744e-07
-4.14935e-05
3.13552e-05
-4.62903e-07
-3.93681e-05
3.306e-05
-3.07546e-07
-3.75396e-05
3.4589e-05
-2.84794e-07
-3.5968e-05
3.61908e-05
-3.95581e-07
-3.47589e-05
3.80618e-05
-6.09163e-07
-3.40396e-05
4.02481e-05
-9.2706e-07
-3.37909e-05
4.26179e-05
-1.37271e-06
-3.37173e-05
4.49951e-05
-1.98433e-06
-3.31849e-05
4.72647e-05
-2.81172e-06
-3.1305e-05
4.93446e-05
-3.8253e-06
-2.7305e-05
5.1094e-05
-4.81322e-06
-2.10583e-05
5.21294e-05
-5.51489e-06
-1.35329e-05
5.17193e-05
-5.57329e-06
-6.24579e-06
4.8229e-05
-4.39345e-06
3.36691e-05
-2.19894e-06
-6.21419e-06
-3.86796e-05
1.75897e-06
-1.27107e-05
-5.11017e-05
2.34924e-06
-1.84261e-05
-5.23171e-05
2.27892e-06
-2.33523e-05
-5.119e-05
2.14892e-06
-2.70376e-05
-4.77702e-05
2.0446e-06
-2.88476e-05
-4.07834e-05
1.86959e-06
-2.98855e-05
-3.00966e-05
1.4412e-06
-3.23713e-05
-1.88188e-05
7.88714e-07
-3.65091e-05
-1.05797e-05
3.06412e-07
-4.0847e-05
-4.99872e-06
2.40112e-07
-4.42656e-05
-2.74585e-07
4.30906e-07
-4.68583e-05
3.21089e-06
6.65614e-07
-5.00995e-05
6.01624e-06
7.90285e-07
-5.32102e-05
8.26864e-06
8.21633e-07
-5.50195e-05
1.05773e-05
7.91836e-07
-5.52778e-05
1.32816e-05
7.07318e-07
-5.42943e-05
1.63768e-05
5.95272e-07
-5.24057e-05
1.97059e-05
4.81004e-07
-5.00266e-05
2.30839e-05
3.92106e-07
-4.78041e-05
2.63244e-05
3.76073e-07
-4.63779e-05
2.93506e-05
4.68321e-07
-4.61024e-05
3.21887e-05
6.4806e-07
-4.69572e-05
3.47937e-05
8.5069e-07
-4.84638e-05
3.70168e-05
9.89791e-07
-4.9794e-05
3.87742e-05
9.88458e-07
-5.0194e-05
4.01877e-05
8.39068e-07
-4.92962e-05
4.1477e-05
5.57471e-07
-4.70941e-05
4.28312e-05
1.19295e-07
-4.37587e-05
4.43466e-05
-5.04112e-07
-3.93279e-05
4.59475e-05
-1.38177e-06
-3.34016e-05
4.7272e-05
-2.59748e-06
-2.55502e-05
4.77454e-05
-3.90503e-06
-1.61097e-05
4.68016e-05
-4.77218e-06
-6.77555e-06
4.30684e-05
-4.1808e-06
2.89317e-05
-1.82446e-06
-5.01079e-06
-3.4947e-05
1.23953e-06
-9.17524e-06
-4.83545e-05
1.38843e-06
-1.26315e-05
-5.03886e-05
1.4824e-06
-1.55065e-05
-4.99656e-05
1.56728e-06
-1.72249e-05
-4.79093e-05
1.70996e-06
-1.66885e-05
-4.34664e-05
1.94652e-06
-1.37639e-05
-3.53623e-05
2.17249e-06
-1.07733e-05
-2.40131e-05
2.12803e-06
-1.02722e-05
-1.29034e-05
1.79317e-06
-1.21337e-05
-4.54515e-06
1.36947e-06
-1.45547e-05
1.07161e-06
1.01902e-06
-1.72957e-05
5.0527e-06
8.25226e-07
-1.98192e-05
7.6922e-06
7.51434e-07
-2.21741e-05
9.76847e-06
7.34881e-07
-2.42029e-05
1.1703e-05
7.50793e-07
-2.56167e-05
1.37074e-05
7.90626e-07
-2.62284e-05
1.58833e-05
8.50475e-07
-2.6046e-05
1.82768e-05
9.28181e-07
-2.52654e-05
2.09015e-05
1.025e-06
-2.42504e-05
2.37442e-05
1.15239e-06
-2.33932e-05
2.67512e-05
1.33259e-06
-2.29474e-05
2.9809e-05
1.58609e-06
-2.29801e-05
3.27012e-05
1.91697e-06
-2.33787e-05
3.51267e-05
2.30383e-06
-2.38869e-05
3.6901e-05
2.68173e-06
-2.41267e-05
3.80975e-05
2.93998e-06
-2.36344e-05
3.89116e-05
2.99686e-06
-2.20025e-05
3.95929e-05
2.85388e-06
-1.91111e-05
4.05275e-05
2.49063e-06
-1.54213e-05
4.21723e-05
1.84515e-06
-1.14783e-05
4.43093e-05
7.13716e-07
-7.1386e-06
4.57916e-05
-9.40027e-07
-2.44314e-06
4.59139e-05
-2.52134e-06
8.52979e-07
4.39131e-05
-2.91829e-06
3.15245e-05
-9.44715e-07
-7.13132e-07
-3.55221e-05
1.23015e-06
-1.29727e-06
-4.93817e-05
1.56478e-06
-1.7721e-06
-5.15e-05
1.55319e-06
-2.13812e-06
-5.11483e-05
1.52078e-06
-2.26274e-06
-4.93512e-05
1.53112e-06
-1.64652e-06
-4.57756e-05
1.61734e-06
5.05094e-07
-3.94787e-05
1.81075e-06
3.83532e-06
-2.94919e-05
1.97007e-06
6.41279e-06
-1.73815e-05
1.80274e-06
7.55998e-06
-7.08523e-06
1.37216e-06
8.09482e-06
-3.89963e-07
9.3475e-07
8.70415e-06
3.846e-06
6.09581e-07
9.81477e-06
6.20898e-06
3.81392e-07
1.1541e-05
7.83491e-06
2.09549e-07
1.38569e-05
9.30431e-06
7.63886e-08
1.67145e-05
1.08315e-05
6.81625e-10
2.01039e-05
1.25002e-05
-3.88552e-08
2.40102e-05
1.4367e-05
-4.9361e-08
2.84179e-05
1.64506e-05
-3.5993e-08