/*--------------------------------*- C++ -*----------------------------------*\
| =========                 |                                                 |
| \\      /  F ield         | OpenFOAM: The Open Source CFD Toolbox           |
|  \\    /   O peration     | Version:  v2012                                 |
|   \\  /    A nd           | Website:  www.openfoam.com                      |
|    \\/     M anipulation  |                                                 |
\*---------------------------------------------------------------------------*/
FoamFile
{
    version     2.0;
    format      ascii;
    class       volVectorField;
    location    "36";
    object      U;
}
// * * * * * * * * * * * * * * * * * * * * * * * * * * * * * * * * * * * * * //

dimensions      [0 1 -1 0 0 0 0];


internalField   nonuniform List<vector> 
78750
(
(-4.44858e-06 -9.66584e-05 6.61748e-05)
(-1.79689e-05 -0.000109457 0.000114075)
(-4.79998e-05 -9.02689e-05 0.000143372)
(-8.92688e-05 -5.76934e-05 0.000169958)
(-0.000139001 -1.9951e-05 0.00019545)
(-0.000195168 1.89091e-05 0.000220433)
(-0.000255777 5.59669e-05 0.000244309)
(-0.000318686 8.94336e-05 0.00026626)
(-0.0003819 0.00011783 0.000284915)
(-0.000443666 0.000140779 0.000298826)
(-0.000502419 0.000157901 0.000306475)
(-0.000556894 0.000169471 0.000306685)
(-0.000605988 0.000175549 0.000298588)
(-0.000648804 0.000176662 0.00028187)
(-0.000684568 0.000173165 0.000256639)
(-0.000712862 0.000165712 0.000223499)
(-0.000732832 0.000154979 0.00018418)
(-0.000744872 0.000141164 0.000138307)
(-0.000748465 0.000124982 8.81047e-05)
(-0.000743731 0.000106972 3.51237e-05)
(-0.000730803 8.75463e-05 -1.90347e-05)
(-0.000709934 6.71602e-05 -7.27288e-05)
(-0.00068146 4.61813e-05 -0.000124353)
(-0.000645811 2.50068e-05 -0.000172332)
(-0.000603484 3.99947e-06 -0.000215161)
(-0.000555064 -1.64346e-05 -0.000251406)
(-0.000501199 -3.58547e-05 -0.000279692)
(-0.000442636 -5.3733e-05 -0.000298722)
(-0.000380225 -6.94106e-05 -0.000307284)
(-0.000314919 -8.20555e-05 -0.000304327)
(-0.000247542 -9.05784e-05 -0.000288928)
(-0.000178745 -9.35411e-05 -0.000260524)
(-0.000110732 -8.89489e-05 -0.000218886)
(-5.62191e-05 -7.43966e-05 -0.00016483)
(-1.76809e-05 -3.99379e-05 -7.58583e-05)
(-1.74214e-05 0.000327155 -0.000384809)
(-6.262e-05 0.000648505 -0.000508701)
(-0.000117917 0.000804604 -0.000541764)
(-0.000194459 0.000917614 -0.000574737)
(-0.00027326 0.000993251 -0.00060323)
(-0.000349368 0.00103514 -0.000623641)
(-0.000420887 0.00104975 -0.000637078)
(-0.000485967 0.00104023 -0.000645874)
(-0.000542867 0.00101253 -0.000650935)
(-0.000590996 0.000969022 -0.000653496)
(-0.000629886 0.000915068 -0.000653854)
(-0.000659563 0.000852955 -0.000652795)
(-0.000680368 0.000786326 -0.000650412)
(-0.000693021 0.000715883 -0.000647803)
(-0.000697926 0.00064417 -0.000645003)
(-0.00069574 0.000572174 -0.000642238)
(-0.000687037 0.000501529 -0.000639435)
(-0.000672386 0.000432645 -0.000636884)
(-0.000652404 0.000366524 -0.000634434)
(-0.00062767 0.000303305 -0.000632247)
(-0.00059876 0.00024357 -0.000630085)
(-0.000566197 0.000187336 -0.000627878)
(-0.000530502 0.000134899 -0.00062536)
(-0.000492143 8.62261e-05 -0.000622332)
(-0.000451579 4.14491e-05 -0.000618429)
(-0.000409225 5.52199e-07 -0.000613224)
(-0.000365485 -3.6394e-05 -0.000606107)
(-0.000320733 -6.93217e-05 -0.000596191)
(-0.000275358 -9.81146e-05 -0.000582195)
(-0.000229737 -0.000122523 -0.000562235)
(-0.000184016 -0.000142163 -0.000533784)
(-0.000137754 -0.000156073 -0.000491861)
(-9.13339e-05 -0.000162147 -0.000424235)
(-5.48793e-05 -0.000154715 -0.000315136)
(-2.78088e-05 -9.46418e-05 -9.72966e-05)
(-1.82595e-05 0.000650359 -0.000112696)
(-5.00443e-05 0.00113165 -0.000167527)
(-8.17646e-05 0.0013332 -0.000189211)
(-0.000124994 0.0014634 -0.000206683)
(-0.000167537 0.00153489 -0.000224057)
(-0.000207199 0.00156102 -0.000242282)
(-0.000243278 0.00154913 -0.00026373)
(-0.000275317 0.00150824 -0.000289054)
(-0.000302194 0.00144348 -0.000319072)
(-0.000323143 0.0013639 -0.000351754)
(-0.000338711 0.00127562 -0.000384751)
(-0.000348668 0.00118377 -0.000413708)
(-0.000353981 0.00109062 -0.000436973)
(-0.000355176 0.000999086 -0.000454329)
(-0.000352631 0.000909101 -0.000466875)
(-0.000347 0.000822013 -0.000475267)
(-0.000338636 0.000737714 -0.000480753)
(-0.000327989 0.000657085 -0.000483668)
(-0.000315331 0.00058061 -0.000484295)
(-0.000300975 0.000508806 -0.000482858)
(-0.00028521 0.000441502 -0.000479937)
(-0.000268248 0.000378947 -0.000475619)
(-0.000250306 0.00032096 -0.000470222)
(-0.000231556 0.000267616 -0.000463738)
(-0.000212192 0.000218756 -0.000456276)
(-0.000192357 0.000174357 -0.000447681)
(-0.0001722 0.000134308 -0.000437782)
(-0.000151826 9.85793e-05 -0.00042609)
(-0.000131362 6.71888e-05 -0.000411885)
(-0.000110901 4.02443e-05 -0.000393921)
(-9.04574e-05 1.8021e-05 -0.000370204)
(-6.97123e-05 9.48679e-07 -0.000336966)
(-4.84599e-05 -1.03444e-05 -0.000287417)
(-3.03315e-05 -1.46578e-05 -0.000214126)
(-1.75775e-05 -6.08143e-06 -5.60715e-05)
(-1.89638e-05 0.00077032 0.000245361)
(-3.78447e-05 0.00126932 0.000283177)
(-4.88323e-05 0.00148142 0.000269018)
(-6.32242e-05 0.00161891 0.000252668)
(-7.53423e-05 0.00169725 0.000239534)
(-8.6866e-05 0.00172681 0.000224428)
(-9.84744e-05 0.00171745 0.000207226)
(-0.000109052 0.00167676 0.000184935)
(-0.000119316 0.00161528 0.00015326)
(-0.000128886 0.00153917 0.000108352)
(-0.00013644 0.00145419 5.26424e-05)
(-0.000141764 0.00136322 -9.24539e-06)
(-0.00014464 0.00127014 -6.97982e-05)
(-0.000144851 0.00117716 -0.000122612)
(-0.000142841 0.00108669 -0.000164835)
(-0.000139651 0.000999073 -0.000199078)
(-0.000135037 0.000915413 -0.000226633)
(-0.000129431 0.000835693 -0.000249209)
(-0.00012325 0.000760292 -0.00026796)
(-0.000116667 0.000689119 -0.00028362)
(-0.000109783 0.000622645 -0.000296223)
(-0.000102781 0.000560405 -0.00030637)
(-9.57354e-05 0.000502551 -0.000314125)
(-8.88383e-05 0.000449082 -0.00031965)
(-8.21146e-05 0.0004 -0.000322956)
(-7.56364e-05 0.000355001 -0.000324239)
(-6.93936e-05 0.000313896 -0.000323464)
(-6.33738e-05 0.000276354 -0.000320686)
(-5.74951e-05 0.000242109 -0.000315659)
(-5.16484e-05 0.000210818 -0.000308072)
(-4.55782e-05 0.000182126 -0.000297352)
(-3.86964e-05 0.00015566 -0.000283634)
(-3.00213e-05 0.000130868 -0.000267512)
(-2.07931e-05 0.000107547 -0.000242432)
(-1.36722e-05 7.1124e-05 -0.000138869)
(-1.60476e-05 0.00069005 0.000368512)
(-2.45239e-05 0.00108007 0.000438546)
(-2.24788e-05 0.00125275 0.000426555)
(-1.76385e-05 0.00137417 0.000418991)
(-9.96418e-06 0.00145355 0.000418373)
(-1.39142e-06 0.00149913 0.000416255)
(6.87985e-06 0.00151608 0.000407393)
(1.40536e-05 0.00150994 0.000390912)
(1.9995e-05 0.00148427 0.000365695)
(2.47596e-05 0.00144342 0.000332406)
(2.85932e-05 0.00138992 0.000291533)
(3.17075e-05 0.00132723 0.000244973)
(3.43051e-05 0.00125765 0.000194736)
(3.66866e-05 0.00118487 0.000144174)
(3.86443e-05 0.00111187 9.59345e-05)
(4.05321e-05 0.00104174 5.3203e-05)
(4.20348e-05 0.000975155 1.64625e-05)
(4.29175e-05 0.000912556 -1.5287e-05)
(4.33806e-05 0.000853847 -4.2526e-05)
(4.32218e-05 0.000799281 -6.57262e-05)
(4.23221e-05 0.000748515 -8.54763e-05)
(4.06869e-05 0.000701644 -0.000102008)
(3.82174e-05 0.00065828 -0.00011572)
(3.49385e-05 0.000618387 -0.000126762)
(3.0831e-05 0.000581497 -0.000135447)
(2.59947e-05 0.000547231 -0.000142027)
(2.05046e-05 0.000514992 -0.000146822)
(1.44914e-05 0.000484343 -0.000150057)
(8.17867e-06 0.000454445 -0.000152092)
(1.79291e-06 0.00042449 -0.000153159)
(-4.25843e-06 0.000393151 -0.000153972)
(-9.38911e-06 0.000358994 -0.000157171)
(-1.21311e-05 0.000319788 -0.000168235)
(-1.11637e-05 0.000272955 -0.000181727)
(-9.30598e-06 0.00017758 -0.0001332)
(-9.1899e-06 0.00057579 0.000359485)
(-1.04806e-05 0.000863343 0.000416401)
(-5.31647e-06 0.0010011 0.00040454)
(4.78876e-06 0.00110436 0.000397271)
(1.80862e-05 0.00117767 0.000393897)
(3.315e-05 0.00122562 0.000387527)
(4.88607e-05 0.00125368 0.000376962)
(6.45296e-05 0.00126455 0.000362624)
(7.94679e-05 0.00126183 0.000344885)
(9.31751e-05 0.0012475 0.000323786)
(0.000105215 0.00122436 0.000299723)
(0.000115266 0.00119391 0.000272991)
(0.000123121 0.00115841 0.000244115)
(0.000128635 0.00111899 0.000213595)
(0.000131971 0.00107743 0.000182408)
(0.000133274 0.00103489 0.000151575)
(0.000132791 0.000993367 0.00012238)
(0.000130782 0.000953649 9.58155e-05)
(0.000127279 0.000916336 7.19911e-05)
(0.000122391 0.000881225 5.06992e-05)
(0.000116343 0.000848589 3.19879e-05)
(0.000109157 0.000818104 1.56852e-05)
(0.000100961 0.000789769 1.72059e-06)
(9.18276e-05 0.000763104 -1.01507e-05)
(8.18919e-05 0.000737895 -2.00476e-05)
(7.12544e-05 0.000713466 -2.8318e-05)
(6.00823e-05 0.000689326 -3.51681e-05)
(4.85431e-05 0.000664493 -4.11263e-05)
(3.6906e-05 0.000638028 -4.6535e-05)
(2.54522e-05 0.000608379 -5.20774e-05)
(1.45726e-05 0.000573809 -5.85212e-05)
(4.79067e-06 0.000531744 -6.92778e-05)
(-2.44051e-06 0.000478828 -9.12955e-05)
(-5.1656e-06 0.000410705 -0.000119922)
(-5.76041e-06 0.000263437 -0.000102266)
(-5.26737e-06 0.000466969 0.000292875)
(-4.37808e-06 0.000697459 0.000309612)
(-8.21375e-07 0.000804537 0.000279268)
(6.77662e-06 0.000886098 0.000255447)
(1.70094e-05 0.000947393 0.000241954)
(2.85001e-05 0.000992872 0.000232253)
(4.06072e-05 0.00102528 0.000222687)
(5.28259e-05 0.00104738 0.000212687)
(6.47247e-05 0.00106071 0.000201883)
(7.5875e-05 0.00106706 0.000190112)
(8.59655e-05 0.00106738 0.000177218)
(9.47548e-05 0.00106306 0.000163319)
(0.000102036 0.00105477 0.000148507)
(0.000107692 0.00104369 0.000133087)
(0.000111616 0.0010303 0.000117225)
(0.00011382 0.00101559 0.000101261)
(0.000114263 0.000999853 8.53247e-05)
(0.000113174 0.000983873 7.00534e-05)
(0.000110598 0.000967811 5.56839e-05)
(0.000106715 0.000952165 4.25413e-05)
(0.000101614 0.000936801 3.06776e-05)
(9.54189e-05 0.00092194 2.02369e-05)
(8.82265e-05 0.000907223 1.11238e-05)
(8.01598e-05 0.000892614 3.35737e-06)
(7.1336e-05 0.000877498 -3.27265e-06)
(6.1888e-05 0.000861526 -8.85097e-06)
(5.19808e-05 0.000843737 -1.37106e-05)
(4.17916e-05 0.000823325 -1.80719e-05)
(3.1575e-05 0.000798735 -2.24101e-05)
(2.15908e-05 0.000768371 -2.7056e-05)
(1.21856e-05 0.000729608 -3.29299e-05)
(3.84485e-06 0.000679428 -4.25653e-05)
(-2.32365e-06 0.000613231 -6.11577e-05)
(-4.7071e-06 0.000525372 -8.51347e-05)
(-4.87733e-06 0.000331316 -7.40044e-05)
(-1.66877e-06 0.000400717 0.000192872)
(3.04448e-07 0.000622864 0.000195025)
(1.82794e-06 0.000726571 0.000171789)
(5.02772e-06 0.000805923 0.00015256)
(9.07035e-06 0.000866832 0.000140093)
(1.35739e-05 0.00091315 0.000130066)
(1.8386e-05 0.000948344 0.00012052)
(2.34096e-05 0.000974525 0.000110878)
(2.85059e-05 0.000993812 0.000101129)
(3.35304e-05 0.00100737 9.11483e-05)
(3.83495e-05 0.00101662 8.10702e-05)
(4.28222e-05 0.00102221 7.08905e-05)
(4.68376e-05 0.00102516 6.0845e-05)
(5.027e-05 0.00102582 5.0977e-05)
(5.30359e-05 0.00102499 4.15606e-05)
(5.50281e-05 0.00102281 3.26206e-05)
(5.63034e-05 0.00101987 2.4411e-05)
(5.66605e-05 0.00101622 1.67745e-05)
(5.62168e-05 0.00101223 1.00245e-05)
(5.49348e-05 0.0010077 4.07865e-06)
(5.28441e-05 0.00100289 -9.40697e-07)
(4.99734e-05 0.000997425 -5.18383e-06)
(4.638e-05 0.000991349 -8.58407e-06)
(4.21202e-05 0.000984068 -1.13591e-05)
(3.72789e-05 0.000975375 -1.34969e-05)
(3.19529e-05 0.000964357 -1.52817e-05)
(2.62564e-05 0.000950396 -1.67662e-05)
(2.03438e-05 0.000932061 -1.83177e-05)
(1.43877e-05 0.000908031 -2.00542e-05)
(8.61365e-06 0.000875966 -2.2382e-05)
(3.26253e-06 0.000833276 -2.56639e-05)
(-1.26718e-06 0.000775997 -3.16676e-05)
(-4.27123e-06 0.000699212 -4.34261e-05)
(-4.97114e-06 0.000595981 -5.83594e-05)
(-4.12313e-06 0.00036746 -4.8282e-05)
(-1.7975e-06 0.000352652 0.000120804)
(-1.39953e-06 0.000575078 0.000124242)
(-1.6353e-06 0.000678794 0.000112937)
(-1.28799e-06 0.000758673 0.000102779)
(-5.18314e-07 0.000820264 9.53213e-05)
(5.52667e-07 0.000868147 8.87931e-05)
(1.86761e-06 0.00090533 8.22236e-05)
(3.42045e-06 0.00093451 7.55836e-05)
(5.16192e-06 0.000957281 6.87876e-05)
(7.04634e-06 0.000975311 6.20107e-05)
(9.00401e-06 0.00098942 5.52149e-05)
(1.09862e-05 0.00100071 4.86308e-05)
(1.29185e-05 0.00100957 4.22509e-05)
(1.47474e-05 0.00101676 3.63135e-05)
(1.63954e-05 0.00102241 3.08074e-05)
(1.78196e-05 0.00102709 2.59699e-05)
(1.89319e-05 0.00103076 2.1704e-05)
(1.97383e-05 0.00103382 1.82093e-05)
(2.01842e-05 0.00103604 1.53796e-05)
(2.02436e-05 0.0010377 1.33438e-05)
(1.99024e-05 0.00103841 1.19194e-05)
(1.91641e-05 0.00103828 1.11794e-05)
(1.80125e-05 0.00103674 1.09331e-05)
(1.64711e-05 0.00103369 1.12117e-05)
(1.4578e-05 0.00102828 1.17197e-05)
(1.2373e-05 0.00102009 1.24448e-05)
(9.92831e-06 0.00100783 1.30525e-05)
(7.32679e-06 0.000990533 1.3476e-05)
(4.67897e-06 0.000966172 1.33393e-05)
(2.10777e-06 0.000932793 1.25471e-05)
(-2.29042e-07 0.000887049 1.05755e-05)
(-2.1313e-06 0.000825226 6.4965e-06)
(-3.2141e-06 0.000741568 -1.79825e-06)
(-3.17567e-06 0.000629149 -1.27386e-05)
(-2.31337e-06 0.000380412 -1.21018e-05)
(-2.57656e-06 0.00033153 8.23341e-05)
(-3.81073e-06 0.000555767 9.63847e-05)
(-5.79002e-06 0.000660056 9.72318e-05)
(-7.98759e-06 0.000739963 9.59393e-05)
(-9.81842e-06 0.000801617 9.38998e-05)
(-1.12892e-05 0.000849324 9.09022e-05)
(-1.24244e-05 0.000886645 8.711e-05)
(-1.32112e-05 0.000915865 8.2623e-05)
(-1.36425e-05 0.000939119 7.77698e-05)
(-1.37176e-05 0.000957594 7.26249e-05)
(-1.34611e-05 0.000972638 6.74827e-05)
(-1.28964e-05 0.000984823 6.23915e-05)
(-1.20639e-05 0.000995056 5.76265e-05)
(-1.1006e-05 0.00100355 5.3206e-05)
(-9.77983e-06 0.00101094 4.93675e-05)
(-8.41945e-06 0.00101721 4.60797e-05)
(-7.01076e-06 0.0010228 4.35681e-05)
(-5.59504e-06 0.00102751 4.17468e-05)
(-4.22781e-06 0.00103164 4.07524e-05)
(-2.9569e-06 0.00103485 4.04421e-05)
(-1.83467e-06 0.00103731 4.08992e-05)
(-8.97543e-07 0.00103852 4.1895e-05)
(-1.54789e-07 0.00103849 4.34021e-05)
(3.75743e-07 0.00103645 4.51545e-05)
(6.87274e-07 0.00103214 4.71388e-05)
(7.97477e-07 0.00102446 4.90386e-05)
(7.22721e-07 0.00101273 5.07834e-05)
(5.07016e-07 0.000995312 5.20137e-05)
(1.87107e-07 0.000970779 5.2603e-05)
(-1.7938e-07 0.000936542 5.2149e-05)
(-5.40207e-07 0.000889859 5.03761e-05)
(-8.31289e-07 0.000826429 4.63512e-05)
(-9.61039e-07 0.000741108 3.87137e-05)
(-8.04274e-07 0.000626494 2.76647e-05)
(-3.85865e-07 0.000374163 1.58888e-05)
(-3.49876e-06 0.000316002 6.16209e-05)
(-5.85331e-06 0.000536069 8.66828e-05)
(-8.82048e-06 0.00063797 9.64394e-05)
(-1.22984e-05 0.000715917 0.00010169)
(-1.53176e-05 0.000775643 0.000103653)
(-1.7881e-05 0.000821819 0.000103422)
(-2.00119e-05 0.000857547 0.000101559)
(-2.17122e-05 0.000885562 9.86161e-05)
(-2.29386e-05 0.000907515 9.48629e-05)
(-2.36973e-05 0.000925079 9.06943e-05)
(-2.39745e-05 0.0009391 8.62786e-05)
(-2.38008e-05 0.000950662 8.19381e-05)
(-2.31917e-05 0.000960149 7.77802e-05)
(-2.2197e-05 0.000968298 7.40733e-05)
(-2.0853e-05 0.00097521 7.08671e-05)
(-1.92269e-05 0.000981403 6.8371e-05)
(-1.73707e-05 0.000986774 6.65692e-05)
(-1.53634e-05 0.000991677 6.56024e-05)
(-1.3258e-05 0.000995848 6.53782e-05)
(-1.11348e-05 0.000999497 6.59613e-05)
(-9.04345e-06 0.00100218 6.71924e-05)
(-7.05082e-06 0.00100392 6.90916e-05)
(-5.19512e-06 0.00100408 7.14346e-05)
(-3.51498e-06 0.00100251 7.4158e-05)
(-2.03326e-06 0.000998328 7.69723e-05)
(-7.69721e-07 0.000991057 7.97656e-05)
(2.75064e-07 0.000979416 8.2197e-05)
(1.0988e-06 0.000962409 8.40973e-05)
(1.70848e-06 0.000938064 8.50585e-05)
(2.12122e-06 0.000904468 8.48272e-05)
(2.33081e-06 0.000858436 8.28235e-05)
(2.30289e-06 0.00079641 7.8313e-05)
(1.98662e-06 0.000713008 6.97972e-05)
(1.59175e-06 0.000601665 5.67773e-05)
(1.26256e-06 0.000357258 3.34095e-05)
(-3.63012e-06 0.000305124 4.50468e-05)
(-6.337e-06 0.000516971 7.51608e-05)
(-9.70974e-06 0.000614863 8.92756e-05)
(-1.36915e-05 0.000689287 9.76273e-05)
(-1.7208e-05 0.000746159 0.000101496)
(-2.02064e-05 0.0007896 0.000102377)
(-2.27424e-05 0.000823029 0.000101265)
(-2.47657e-05 0.000848692 9.8691e-05)
(-2.62622e-05 0.00086864 9.51594e-05)
(-2.71849e-05 0.000884086 9.09796e-05)
(-2.75451e-05 0.000896323 8.6537e-05)
(-2.73372e-05 0.000905977 8.20452e-05)
(-2.6605e-05 0.00091391 7.78135e-05)
(-2.53703e-05 0.000920397 7.39858e-05)
(-2.37046e-05 0.000926028 7.0803e-05)
(-2.1656e-05 0.000930844 6.83374e-05)
(-1.93152e-05 0.000935242 6.67535e-05)
(-1.67498e-05 0.000939079 6.60425e-05)
(-1.40529e-05 0.000942593 6.6285e-05)
(-1.12975e-05 0.000945475 6.73869e-05)
(-8.57529e-06 0.000947802 6.93437e-05)
(-5.94663e-06 0.000949091 7.198e-05)
(-3.49242e-06 0.000949236 7.52124e-05)
(-1.26202e-06 0.000947543 7.87934e-05)
(6.9247e-07 0.00094366 8.25728e-05)
(2.34605e-06 0.000936594 8.62407e-05)
(3.67137e-06 0.00092562 8.95844e-05)
(4.65686e-06 0.000909262 9.22288e-05)
(5.30378e-06 0.000886162 9.38792e-05)
(5.60863e-06 0.000854012 9.40614e-05)
(5.5667e-06 0.000810327 9.22819e-05)
(5.10384e-06 0.000751305 8.76019e-05)
(4.15254e-06 0.000672422 7.86011e-05)
(3.06599e-06 0.000567146 6.42625e-05)
(2.12315e-06 0.000336798 3.53661e-05)
(-3.04721e-06 0.000297252 2.50368e-05)
(-5.61552e-06 0.000500895 5.21085e-05)
(-8.92008e-06 0.000594629 6.5914e-05)
(-1.29092e-05 0.000665664 7.41516e-05)
(-1.65104e-05 0.000719431 7.76839e-05)
(-1.96522e-05 0.000760191 7.81676e-05)
(-2.23056e-05 0.000790932 7.65233e-05)
(-2.44369e-05 0.000814192 7.33906e-05)
(-2.59698e-05 0.00083163 6.91777e-05)
(-2.68761e-05 0.000844823 6.43263e-05)
(-2.71251e-05 0.000854695 5.91475e-05)
(-2.67397e-05 0.00086228 5.40003e-05)
(-2.57269e-05 0.000868071 4.91238e-05)
(-2.41519e-05 0.000872771 4.48019e-05)
(-2.20663e-05 0.000876595 4.11995e-05)
(-1.95604e-05 0.000880016 3.85193e-05)
(-1.67173e-05 0.000883042 3.68389e-05)
(-1.36511e-05 0.00088596 3.62679e-05)
(-1.04557e-05 0.000888597 3.67871e-05)
(-7.24878e-06 0.000891066 3.84064e-05)
(-4.12385e-06 0.000893018 4.10089e-05)
(-1.18652e-06 0.000894384 4.45075e-05)
(1.48375e-06 0.000894623 4.86951e-05)
(3.80982e-06 0.000893454 5.33982e-05)
(5.74133e-06 0.000890093 5.83336e-05)
(7.23406e-06 0.000883972 6.32572e-05)
(8.2652e-06 0.000873955 6.78215e-05)
(8.82983e-06 0.000859022 7.17194e-05)
(8.93795e-06 0.000837458 7.45348e-05)
(8.61176e-06 0.000807467 7.58791e-05)
(7.86383e-06 0.000766313 7.51682e-05)
(6.6705e-06 0.000710792 7.15869e-05)
(5.0066e-06 0.00063634 6.36951e-05)
(3.38856e-06 0.000537161 5.06602e-05)
(2.11632e-06 0.000320016 2.41766e-05)
(-1.96725e-06 0.000296326 1.54723e-06)
(-4.13415e-06 0.000496291 1.89488e-05)
(-7.14564e-06 0.000588074 2.9035e-05)
(-1.09238e-05 0.000657086 3.46903e-05)
(-1.45174e-05 0.000708919 3.62697e-05)
(-1.77357e-05 0.000747513 3.51061e-05)
(-2.05189e-05 0.000776119 3.20332e-05)
(-2.27583e-05 0.000796988 2.75319e-05)
(-2.43803e-05 0.000812105 2.20325e-05)
(-2.53081e-05 0.000822782 1.59048e-05)
(-2.55256e-05 0.0008303 9.54244e-06)
(-2.502e-05 0.000835434 3.28825e-06)
(-2.38346e-05 0.000839053 -2.51199e-06)
(-2.20071e-05 0.000841588 -7.66935e-06)
(-1.96235e-05 0.000843627 -1.1924e-05)
(-1.67698e-05 0.000845359 -1.50873e-05)
(-1.35689e-05 0.000847153 -1.70052e-05)
(-1.01334e-05 0.000848992 -1.76071e-05)
(-6.60031e-06 0.000851044 -1.6848e-05)
(-3.09896e-06 0.000853094 -1.47774e-05)
(2.44431e-07 0.000855113 -1.14636e-05)
(3.31407e-06 0.000856687 -7.06797e-06)
(6.00567e-06 0.000857575 -1.76538e-06)
(8.23307e-06 0.000857141 4.18597e-06)
(9.93575e-06 0.000854894 1.05217e-05)
(1.10684e-05 0.000849912 1.69089e-05)
(1.16175e-05 0.000841358 2.30166e-05)
(1.15909e-05 0.000827879 2.84689e-05)
(1.10325e-05 0.000808083 3.29123e-05)
(9.9895e-06 0.000779888 3.59299e-05)
(8.53385e-06 0.000740927 3.70902e-05)
(6.69668e-06 0.000687798 3.57172e-05)
(4.57255e-06 0.000616381 3.06873e-05)
(2.73102e-06 0.000520845 2.15808e-05)
(1.4461e-06 0.000311533 4.33264e-06)
(-8.22751e-07 0.000304131 -2.1217e-05)
(-2.59958e-06 0.000507251 -1.61427e-05)
(-5.2176e-06 0.000600051 -1.12823e-05)
(-8.73384e-06 0.000669393 -9.2089e-06)
(-1.22617e-05 0.000720792 -1.02528e-05)
(-1.55523e-05 0.000758504 -1.34741e-05)
(-1.84524e-05 0.000785665 -1.83167e-05)
(-2.08357e-05 0.000804847 -2.4406e-05)
(-2.25721e-05 0.000817898 -3.14245e-05)
(-2.359e-05 0.00082646 -3.90167e-05)
(-2.38311e-05 0.000831668 -4.68318e-05)
(-2.32922e-05 0.00083462 -5.45179e-05)
(-2.19954e-05 0.000836007 -6.17146e-05)
(-2.00048e-05 0.000836577 -6.80145e-05)
(-1.74039e-05 0.000836747 -7.31676e-05)
(-1.43105e-05 0.000837016 -7.69753e-05)
(-1.08469e-05 0.000837553 -7.92826e-05)
(-7.16318e-06 0.00083862 -7.99962e-05)
(-3.40521e-06 0.000840155 -7.90888e-05)
(2.76442e-07 0.000842188 -7.6593e-05)
(3.73521e-06 0.000844429 -7.2614e-05)
(6.83724e-06 0.000846677 -6.73106e-05)
(9.4678e-06 0.000848406 -6.09067e-05)
(1.15355e-05 0.000849165 -5.36701e-05)
(1.29662e-05 0.000848165 -4.5919e-05)
(1.3728e-05 0.000844654 -3.79952e-05)
(1.38061e-05 0.000837492 -3.02644e-05)
(1.32343e-05 0.000825492 -2.30858e-05)
(1.20697e-05 0.000806969 -1.68167e-05)
(1.04119e-05 0.000780008 -1.17514e-05)
(8.36023e-06 0.00074197 -8.24411e-06)
(6.04356e-06 0.000689632 -6.80086e-06)
(3.64032e-06 0.000618646 -8.17238e-06)
(1.78494e-06 0.000523358 -1.2107e-05)
(5.65921e-07 0.000313958 -1.72242e-05)
(8.76792e-08 0.000321276 -3.8648e-05)
(-1.42252e-06 0.000533983 -4.471e-05)
(-3.67245e-06 0.000630849 -4.48532e-05)
(-6.90204e-06 0.000702654 -4.62836e-05)
(-1.03096e-05 0.000755337 -4.9861e-05)
(-1.35697e-05 0.000793272 -5.50727e-05)
(-1.65002e-05 0.00081995 -6.15875e-05)
(-1.89227e-05 0.000837963 -6.91655e-05)
(-2.07065e-05 0.000849477 -7.7543e-05)
(-2.17497e-05 0.000856099 -8.63882e-05)
(-2.19999e-05 0.000859255 -9.53316e-05)
(-2.14365e-05 0.000859993 -0.000103989)
(-2.00949e-05 0.000859313 -0.000112022)
(-1.80306e-05 0.000857905 -0.000119106)
(-1.53398e-05 0.000856425 -0.000124935)
(-1.21391e-05 0.00085526 -0.000129256)
(-8.57208e-06 0.000854796 -0.000131889)
(-4.78983e-06 0.000855151 -0.000132717)
(-9.5745e-07 0.000856448 -0.000131704)
(2.76132e-06 0.00085854 -0.000128883)
(6.21496e-06 0.000861286 -0.000124368)
(9.25463e-06 0.000864273 -0.000118338)
(1.17613e-05 0.000867091 -0.000111043)
(1.36321e-05 0.000869054 -0.00010278)
(1.48035e-05 0.000869458 -9.38972e-05)
(1.52356e-05 0.0008673 -8.47627e-05)
(1.49337e-05 0.000861503 -7.57577e-05)
(1.39333e-05 0.000850617 -6.72413e-05)
(1.23306e-05 0.000832996 -5.9537e-05)
(1.0236e-05 0.000806447 -5.28961e-05)
(7.80239e-06 0.000768331 -4.75412e-05)
(5.19502e-06 0.000715108 -4.37208e-05)
(2.69152e-06 0.000642333 -4.17973e-05)
(9.32484e-07 0.000543989 -4.09813e-05)
(-2.20333e-07 0.00032725 -3.50449e-05)
(5.55688e-07 0.000345356 -4.79602e-05)
(-8.75407e-07 0.00057164 -6.10447e-05)
(-2.82458e-06 0.000674377 -6.45171e-05)
(-5.82054e-06 0.000750134 -6.82965e-05)
(-9.05916e-06 0.000805164 -7.35482e-05)
(-1.22132e-05 0.000844279 -8.00624e-05)
(-1.50574e-05 0.000871133 -8.76721e-05)
(-1.74248e-05 0.00088865 -9.62335e-05)
(-1.91601e-05 0.000899073 -0.00010553)
(-2.01669e-05 0.000904288 -0.000115265)
(-2.03745e-05 0.000905759 -0.000125074)
(-1.97764e-05 0.000904775 -0.000134579)
(-1.8394e-05 0.000902323 -0.000143387)
(-1.62931e-05 0.000899296 -0.000151141)
(-1.35634e-05 0.000896335 -0.000157513)
(-1.03289e-05 0.000894011 -0.000162247)
(-6.7326e-06 0.000892656 -0.000165141)
(-2.93485e-06 0.000892534 -0.000166082)
(8.95578e-07 0.000893673 -0.000165022)
(4.59272e-06 0.000896031 -0.000162005)
(7.99085e-06 0.00089933 -0.000157141)
(1.09475e-05 0.000903223 -0.000150632)
(1.33323e-05 0.000907127 -0.000142733)
(1.50508e-05 0.000910385 -0.000133777)
(1.60302e-05 0.000912091 -0.000124123)
(1.62398e-05 0.00091124 -0.000114173)
(1.56876e-05 0.000906531 -0.000104303)
(1.44329e-05 0.000896481 -9.48782e-05)
(1.25602e-05 0.000879192 -8.61908e-05)
(1.02199e-05 0.000852394 -7.84519e-05)
(7.56536e-06 0.000813148 -7.17898e-05)
(4.80804e-06 0.000757769 -6.63231e-05)
(2.24912e-06 0.000681417 -6.21635e-05)
(5.9035e-07 0.000577797 -5.82092e-05)
(-6.26165e-07 0.000348848 -4.52104e-05)
(6.19597e-07 0.000373327 -4.94149e-05)
(-8.82867e-07 0.000614456 -6.46361e-05)
(-2.69982e-06 0.000723739 -6.93029e-05)
(-5.57513e-06 0.000803955 -7.39538e-05)
(-8.70571e-06 0.000861839 -7.98238e-05)
(-1.1748e-05 0.000902506 -8.68144e-05)
(-1.44927e-05 0.000929948 -9.48405e-05)
(-1.67665e-05 0.00094726 -0.000103785)
(-1.84223e-05 0.000956942 -0.000113468)
(-1.93509e-05 0.000960986 -0.000123593)
(-1.94943e-05 0.000961063 -0.000133809)
(-1.883e-05 0.00095853 -0.000143713)
(-1.73875e-05 0.000954555 -0.000152903)
(-1.52316e-05 0.000950069 -0.000160984)
(-1.24591e-05 0.000945864 -0.000167625)
(-9.19075e-06 0.000942516 -0.000172552)
(-5.57462e-06 0.000940473 -0.000175579)
(-1.76956e-06 0.000939965 -0.000176583)
(2.05505e-06 0.000941098 -0.00017553)
(5.73223e-06 0.000943758 -0.00017245)
(9.10329e-06 0.000947706 -0.00016746)
(1.20179e-05 0.000952485 -0.000160743)
(1.43513e-05 0.00095751 -0.000152575)
(1.60001e-05 0.00096198 -0.000143287)
(1.68995e-05 0.000964955 -0.000133281)
(1.70167e-05 0.000965257 -0.000122964)
(1.63686e-05 0.00096152 -0.000112742)
(1.50069e-05 0.000952064 -0.000102966)
(1.30363e-05 0.000934888 -9.39296e-05)
(1.05949e-05 0.000907483 -8.58071e-05)
(7.8504e-06 0.000866737 -7.87059e-05)
(5.0039e-06 0.00080865 -7.26797e-05)
(2.38306e-06 0.000728086 -6.77644e-05)
(7.33675e-07 0.000618293 -6.27694e-05)
(-6.50211e-07 0.000375292 -4.75666e-05)
(3.9208e-07 0.000401823 -4.48168e-05)
(-1.27715e-06 0.000656969 -5.79393e-05)
(-3.10217e-06 0.00077244 -6.18718e-05)
(-5.97817e-06 0.000856927 -6.60654e-05)
(-9.05573e-06 0.00091754 -7.1597e-05)
(-1.20191e-05 0.000959753 -7.83399e-05)
(-1.46631e-05 0.000987786 -8.6172e-05)
(-1.68332e-05 0.00100498 -9.49859e-05)
(-1.83824e-05 0.00101399 -0.000104593)
(-1.92131e-05 0.00101699 -0.00011471)
(-1.92583e-05 0.00101577 -0.000124978)
(-1.85026e-05 0.00101184 -0.00013498)
(-1.69724e-05 0.00100644 -0.00014426)
(-1.47379e-05 0.00100064 -0.000152403)
(-1.18992e-05 0.000995287 -0.000159059)
(-8.57792e-06 0.000991052 -0.000163983)
(-4.92158e-06 0.000988398 -0.000167)
(-1.08853e-06 0.00098762 -0.000168019)
(2.75859e-06 0.000988798 -0.000166999)
(6.45532e-06 0.000991847 -0.000163978)
(9.83994e-06 0.000996466 -0.00015904)
(1.27677e-05 0.00100219 -0.000152357)
(1.51127e-05 0.00100833 -0.000144172)
(1.67742e-05 0.00101405 -0.000134835)
(1.76778e-05 0.00101827 -0.000124767)
(1.77924e-05 0.00101974 -0.000114434)
(1.71345e-05 0.00101694 -0.000104257)
(1.57661e-05 0.00100808 -9.45934e-05)
(1.37805e-05 0.00099098 -8.57228e-05)
(1.13206e-05 0.000962977 -7.78278e-05)
(8.53943e-06 0.000920727 -7.1008e-05)
(5.63458e-06 0.000859998 -6.53637e-05)
(2.9104e-06 0.000775309 -6.09803e-05)
(1.18787e-06 0.000659539 -5.68074e-05)
(-4.12791e-07 0.000402944 -4.36333e-05)
(-3.07878e-08 0.000428157 -3.64911e-05)
(-1.90045e-06 0.000695067 -4.45954e-05)
(-3.84362e-06 0.000815725 -4.64438e-05)
(-6.80781e-06 0.000903747 -4.92257e-05)
(-9.89393e-06 0.000966574 -5.37527e-05)
(-1.28099e-05 0.00100995 -5.97277e-05)
(-1.53769e-05 0.00103831 -6.69465e-05)
(-1.74487e-05 0.00105519 -7.52593e-05)
(-1.88941e-05 0.00106341 -8.447e-05)
(-1.96145e-05 0.00106528 -9.43036e-05)
(-1.95479e-05 0.00106273 -0.000104415)
(-1.86758e-05 0.00105736 -0.000114321)
(-1.70331e-05 0.00105055 -0.000123487)
(-1.46939e-05 0.00104344 -0.000131459)
(-1.17612e-05 0.00103698 -0.00013793)
(-8.36075e-06 0.00103188 -0.000142689)
(-4.63424e-06 0.00102867 -0.000145602)
(-7.38637e-07 0.00102765 -0.000146591)
(3.16768e-06 0.00102893 -0.000145629)
(6.9209e-06 0.00103241 -0.000142739)
(1.03667e-05 0.00103776 -0.000137998)
(1.3359e-05 0.00104447 -0.000131537)
(1.57723e-05 0.00105181 -0.000123559)
(1.75022e-05 0.00105883 -0.000114369)
(1.84726e-05 0.00106439 -0.000104427)
(1.86501e-05 0.00106712 -9.42777e-05)
(1.8045e-05 0.00106539 -8.44126e-05)
(1.67212e-05 0.00105727 -7.51734e-05)
(1.47749e-05 0.00104046 -6.68292e-05)
(1.23329e-05 0.00101213 -5.95717e-05)
(9.54024e-06 0.00096874 -5.35431e-05)
(6.56791e-06 0.000905852 -4.89308e-05)
(3.70783e-06 0.000817716 -4.60006e-05)
(1.83781e-06 0.000696885 -4.39567e-05)
(1.36405e-08 0.000428766 -3.57497e-05)
(-5.10999e-07 0.000450643 -2.68509e-05)
(-2.57829e-06 0.000726343 -2.86253e-05)
(-4.69482e-06 0.000850829 -2.77424e-05)
(-7.79371e-06 0.000941374 -2.8654e-05)
(-1.09222e-05 0.00100565 -3.18427e-05)
(-1.3816e-05 0.00104961 -3.67923e-05)
(-1.63212e-05 0.00107787 -4.31763e-05)
(-1.83087e-05 0.0010941 -5.07936e-05)
(-1.96576e-05 0.00110127 -5.94285e-05)
(-2.02693e-05 0.00110181 -6.88301e-05)
(-2.00827e-05 0.00109776 -7.86214e-05)
(-1.90897e-05 0.00109084 -8.82447e-05)
(-1.73308e-05 0.00108252 -9.70953e-05)
(-1.48773e-05 0.00107405 -0.00010473)
(-1.18406e-05 0.00106643 -0.000110883)
(-8.3436e-06 0.00106046 -0.000115391)
(-4.5268e-06 0.00105668 -0.000118144)
(-5.47132e-07 0.00105545 -0.000119082)
(3.43905e-06 0.00105686 -0.000118181)
(7.27275e-06 0.00106081 -0.000115463)
(1.08007e-05 0.00106696 -0.000110985)
(1.3883e-05 0.00107475 -0.000104857)
(1.63899e-05 0.00108338 -9.72368e-05)
(1.82131e-05 0.00109185 -8.83872e-05)
(1.9277e-05 0.0010989 -7.87535e-05)
(1.95432e-05 0.00110307 -6.89465e-05)
(1.90178e-05 0.00110263 -5.95312e-05)
(1.77585e-05 0.00109554 -5.08845e-05)
(1.5863e-05 0.00107936 -4.32516e-05)
(1.34496e-05 0.00105114 -3.68431e-05)
(1.06479e-05 0.00100718 -3.18548e-05)
(7.60675e-06 0.000942875 -2.85983e-05)
(4.58685e-06 0.000852272 -2.75653e-05)
(2.52653e-06 0.000727694 -2.82809e-05)
(4.93337e-07 0.000450935 -2.63858e-05)
(-9.43448e-07 0.000468699 -1.80792e-05)
(-3.16149e-06 0.000750219 -1.37429e-05)
(-5.45442e-06 0.000877165 -1.01697e-05)
(-8.69013e-06 0.000969189 -9.21582e-06)
(-1.18752e-05 0.00103412 -1.10568e-05)
(-1.47663e-05 0.00107804 -1.49575e-05)
(-1.72335e-05 0.0011057 -2.04762e-05)
(-1.91608e-05 0.00112089 -2.7351e-05)
(-2.04304e-05 0.00112668 -3.53512e-05)
(-2.095e-05 0.00112562 -4.42305e-05)
(-2.06626e-05 0.00111985 -5.35734e-05)
(-1.95636e-05 0.00111119 -6.27697e-05)
(-1.76968e-05 0.00110121 -7.11864e-05)
(-1.51398e-05 0.00109125 -7.8399e-05)
(-1.20021e-05 0.00108239 -8.41762e-05)
(-8.40689e-06 0.00107547 -8.83938e-05)
(-4.498e-06 0.00107111 -9.09605e-05)
(-4.30191e-07 0.00106965 -9.1835e-05)
(3.64359e-06 0.00107123 -9.09981e-05)
(7.56566e-06 0.00107572 -8.84679e-05)