/*--------------------------------*- C++ -*----------------------------------*\
| =========                 |                                                 |
| \\      /  F ield         | OpenFOAM: The Open Source CFD Toolbox           |
|  \\    /   O peration     | Version:  v2012                                 |
|   \\  /    A nd           | Website:  www.openfoam.com                      |
|    \\/     M anipulation  |                                                 |
\*---------------------------------------------------------------------------*/
FoamFile
{
    version     2.0;
    format      ascii;
    class       volVectorField;
    location    "73";
    object      U;
}
// * * * * * * * * * * * * * * * * * * * * * * * * * * * * * * * * * * * * * //

dimensions      [0 1 -1 0 0 0 0];


internalField   nonuniform List<vector> 
78750
(
(-1.45002e-06 -6.84663e-05 0.000126291)
(-3.70084e-06 -9.62168e-05 0.000220807)
(-1.10009e-05 -9.91542e-05 0.0002693)
(-2.2219e-05 -9.23239e-05 0.000302831)
(-3.74205e-05 -7.99969e-05 0.000324694)
(-5.59985e-05 -6.47308e-05 0.000337542)
(-7.71868e-05 -4.84051e-05 0.000343301)
(-0.000100138 -3.22193e-05 0.000343509)
(-0.000124104 -1.70911e-05 0.000339274)
(-0.000148368 -3.48188e-06 0.00033154)
(-0.000172277 8.22128e-06 0.000320978)
(-0.00019529 1.79349e-05 0.000308175)
(-0.000216884 2.5528e-05 0.0002936)
(-0.000236537 3.10774e-05 0.000277726)
(-0.00025398 3.46358e-05 0.000260748)
(-0.000268834 3.63519e-05 0.000243039)
(-0.0002808 3.62655e-05 0.000224935)
(-0.000289713 3.45654e-05 0.000206732)
(-0.00029538 3.13223e-05 0.000188726)
(-0.000297705 2.67195e-05 0.000171253)
(-0.000296617 2.08557e-05 0.000154599)
(-0.000292088 1.39165e-05 0.0001391)
(-0.000284143 6.01081e-06 0.000125029)
(-0.000272849 -2.66687e-06 0.000112682)
(-0.000258317 -1.19704e-05 0.000102272)
(-0.000240694 -2.16521e-05 9.39869e-05)
(-0.000220176 -3.14693e-05 8.78969e-05)
(-0.000196985 -4.10424e-05 8.39744e-05)
(-0.000171394 -4.99475e-05 8.20372e-05)
(-0.000143742 -5.7562e-05 8.16832e-05)
(-0.000114302 -6.31087e-05 8.2184e-05)
(-8.32704e-05 -6.54822e-05 8.23525e-05)
(-5.16693e-05 -6.31911e-05 8.0402e-05)
(-2.57443e-05 -5.42667e-05 7.35153e-05)
(-7.08752e-06 -3.10212e-05 5.00496e-05)
(-3.46247e-06 0.000113065 -0.000202162)
(-2.05176e-05 0.00023351 -0.000300722)
(-3.99191e-05 0.000297764 -0.000336418)
(-6.82074e-05 0.000349067 -0.000366774)
(-9.82471e-05 0.000388147 -0.000391516)
(-0.000128109 0.000416076 -0.000410714)
(-0.000156938 0.000434689 -0.000425554)
(-0.000184137 0.000444897 -0.000437535)
(-0.00020913 0.000448248 -0.000447082)
(-0.000231563 0.000445307 -0.000454912)
(-0.000251162 0.000437336 -0.000461068)
(-0.000267732 0.000424721 -0.000466008)
(-0.000281242 0.000408432 -0.000469683)
(-0.000291623 0.000388751 -0.000472437)
(-0.000298881 0.000366586 -0.000474145)
(-0.000303076 0.000342101 -0.000475093)
(-0.000304277 0.000316065 -0.000475144)
(-0.000302594 0.000288619 -0.000474527)
(-0.000298116 0.000260427 -0.000473102)
(-0.000291053 0.000231466 -0.000471101)
(-0.000281538 0.000202334 -0.000468367)
(-0.000269759 0.000173132 -0.000465011)
(-0.000255908 0.000144358 -0.000460861)
(-0.000240204 0.00011608 -0.000455982)
(-0.000222846 8.87231e-05 -0.000450188)
(-0.000204066 6.23421e-05 -0.000443369)
(-0.000184064 3.73092e-05 -0.000435095)
(-0.000163087 1.36896e-05 -0.000424951)
(-0.000141367 -8.16616e-06 -0.000412091)
(-0.000119144 -2.81415e-05 -0.000395433)
(-9.65064e-05 -4.57968e-05 -0.000373215)
(-7.32134e-05 -6.06562e-05 -0.000342276)
(-4.93147e-05 -7.12924e-05 -0.000295086)
(-2.99317e-05 -7.42827e-05 -0.000222552)
(-1.61471e-05 -5.03965e-05 -7.65135e-05)
(-1.16164e-06 0.000287207 -0.000149336)
(-1.07978e-05 0.000492457 -0.000241789)
(-1.9224e-05 0.000582075 -0.000279317)
(-3.21595e-05 0.000645089 -0.000304423)
(-4.56771e-05 0.000687151 -0.000322118)
(-5.88135e-05 0.000713371 -0.00033495)
(-7.1297e-05 0.000726622 -0.000344849)
(-8.28641e-05 0.000729964 -0.000352562)
(-9.33585e-05 0.000724889 -0.000359008)
(-0.00010259 0.000713387 -0.000364299)
(-0.000110504 0.00069622 -0.000368918)
(-0.000117019 0.00067481 -0.000372743)
(-0.000122155 0.000649562 -0.000376082)
(-0.000125893 0.000621574 -0.000378738)
(-0.000128291 0.000591082 -0.000380941)
(-0.000129369 0.000558986 -0.00038248)
(-0.000129195 0.000525416 -0.000383567)
(-0.000127793 0.000491151 -0.000383988)
(-0.000125319 0.000456214 -0.000383973)
(-0.000121784 0.000421374 -0.000383279)
(-0.000117332 0.000386667 -0.000382065)
(-0.000112054 0.00035264 -0.000380147)
(-0.000106067 0.000319326 -0.000377632)
(-9.94547e-05 0.000287162 -0.000374345)
(-9.23377e-05 0.000256154 -0.000370322)
(-8.47794e-05 0.00022665 -0.000365314)
(-7.68834e-05 0.000198626 -0.000359192)
(-6.86963e-05 0.000172343 -0.000351485)
(-6.03088e-05 0.000147741 -0.000341683)
(-5.17546e-05 0.000125 -0.000328778)
(-4.30582e-05 0.000104003 -0.000311338)
(-3.40016e-05 8.48387e-05 -0.000286589)
(-2.43359e-05 6.72406e-05 -0.000249746)
(-1.54429e-05 5.12494e-05 -0.000195191)
(-1.00252e-05 2.79049e-05 -7.49037e-05)
(-1.46945e-06 0.000375502 -1.08706e-06)
(-6.05501e-06 0.000618924 -5.80596e-05)
(-7.60565e-06 0.000726619 -9.28686e-05)
(-1.08755e-05 0.000802546 -0.000117719)
(-1.42804e-05 0.000854159 -0.000134318)
(-1.77014e-05 0.000886556 -0.000146975)
(-2.10387e-05 0.000904186 -0.000157602)
(-2.42662e-05 0.000909777 -0.00016735)
(-2.72627e-05 0.000906142 -0.000176477)
(-2.99927e-05 0.000894741 -0.000185496)
(-3.23709e-05 0.000877461 -0.000194326)
(-3.43933e-05 0.00085509 -0.00020324)
(-3.6013e-05 0.000828994 -0.000212005)
(-3.72494e-05 0.000799601 -0.000220782)
(-3.80814e-05 0.000767966 -0.000229297)
(-3.85538e-05 0.000734326 -0.000237669)
(-3.86574e-05 0.000699534 -0.000245626)
(-3.84708e-05 0.000663699 -0.000253286)
(-3.79659e-05 0.00062767 -0.000260295)
(-3.72337e-05 0.000591615 -0.000266688)
(-3.62921e-05 0.000556113 -0.000272241)
(-3.5214e-05 0.000521165 -0.000277036)
(-3.40056e-05 0.000487194 -0.000280874)
(-3.27371e-05 0.000454194 -0.000283777)
(-3.14136e-05 0.000422442 -0.000285547)
(-3.00709e-05 0.000391757 -0.000286209)
(-2.86835e-05 0.000362292 -0.000285494)
(-2.72647e-05 0.00033383 -0.000283244)
(-2.57375e-05 0.000306317 -0.000278989)
(-2.40568e-05 0.000279288 -0.000272247)
(-2.20527e-05 0.000252338 -0.000262107)
(-1.94035e-05 0.000224618 -0.0002477)
(-1.54775e-05 0.000195095 -0.000227556)
(-1.06375e-05 0.000162293 -0.000196783)
(-7.82583e-06 9.9826e-05 -0.000105855)
(-3.23375e-06 0.000398361 8.4087e-05)
(-6.28703e-06 0.000638857 5.70797e-05)
(-5.22242e-06 0.000746801 2.89807e-05)
(-3.93962e-06 0.000824771 7.75424e-06)
(-1.94597e-06 0.000879225 -6.41357e-06)
(3.937e-07 0.000915686 -1.73641e-05)
(2.87009e-06 0.000937688 -2.73306e-05)
(5.34809e-06 0.000948613 -3.68422e-05)
(7.75066e-06 0.000950392 -4.64181e-05)
(1.00212e-05 0.000945204 -5.60781e-05)
(1.21111e-05 0.000934093 -6.61142e-05)
(1.40073e-05 0.000918569 -7.62596e-05)
(1.56653e-05 0.000899212 -8.66523e-05)
(1.70758e-05 0.00087713 -9.70616e-05)
(1.82066e-05 0.00085264 -0.000107553)
(1.90513e-05 0.000826602 -0.000117862)
(1.95692e-05 0.000799181 -0.000128033)
(1.97667e-05 0.000771065 -0.000137805)
(1.96033e-05 0.000742359 -0.000147203)
(1.90888e-05 0.000713658 -0.000155974)
(1.8206e-05 0.000684963 -0.000164147)
(1.69814e-05 0.0006567 -0.000171513)
(1.53969e-05 0.00062879 -0.000178101)
(1.34839e-05 0.000601511 -0.000183723)
(1.12408e-05 0.000574675 -0.0001884)
(8.72319e-06 0.000548374 -0.000191953)
(5.95768e-06 0.000522242 -0.000194379)
(3.04052e-06 0.000496096 -0.000195477)
(6.32879e-08 0.000469258 -0.000195143)
(-2.81512e-06 0.000441096 -0.000193011)
(-5.41455e-06 0.000410366 -0.000188818)
(-7.35975e-06 0.000375668 -0.000182648)
(-7.92232e-06 0.00033461 -0.00017525)
(-6.43118e-06 0.000284455 -0.000162278)
(-5.70056e-06 0.000180421 -9.93106e-05)
(-3.18657e-06 0.000397565 0.000116446)
(-4.94193e-06 0.000622175 0.000104942)
(-3.28831e-06 0.000724607 8.28138e-05)
(-7.89787e-07 0.000799951 6.51547e-05)
(2.63921e-06 0.000854653 5.3384e-05)
(6.53047e-06 0.000892994 4.38976e-05)
(1.06116e-05 0.00091881 3.50976e-05)
(1.46895e-05 0.000934456 2.63249e-05)
(1.86376e-05 0.00094232 1.75035e-05)
(2.23437e-05 0.000943691 8.41279e-06)
(2.57421e-05 0.000940149 -8.53444e-07)
(2.87561e-05 0.000932414 -1.0535e-05)
(3.1359e-05 0.000921583 -2.04486e-05)
(3.35069e-05 0.000908005 -3.06174e-05)
(3.51821e-05 0.000892514 -4.07913e-05)
(3.63506e-05 0.000875294 -5.09812e-05)
(3.70132e-05 0.000856993 -6.09714e-05)
(3.71417e-05 0.000837681 -7.07676e-05)
(3.67474e-05 0.000817873 -8.01604e-05)
(3.58154e-05 0.00079755 -8.91581e-05)
(3.43729e-05 0.000777106 -9.75693e-05)
(3.24135e-05 0.000756451 -0.000105405)
(2.99798e-05 0.000735852 -0.000112493)
(2.70821e-05 0.000715097 -0.000118855)
(2.3782e-05 0.000694252 -0.000124343)
(2.01152e-05 0.00067291 -0.000128991)
(1.61765e-05 0.000650863 -0.000132667)
(1.20458e-05 0.000627392 -0.000135403)
(7.87132e-06 0.000601833 -0.000137042)
(3.7981e-06 0.00057291 -0.000137519)
(4.16013e-08 0.000539167 -0.000136669)
(-3.07776e-06 0.000498335 -0.000135146)
(-4.85867e-06 0.000447536 -0.000134245)
(-4.55233e-06 0.000382723 -0.000130425)
(-4.36184e-06 0.000244311 -8.60669e-05)
(-2.22868e-06 0.000379958 0.000111016)
(-2.82726e-06 0.00058917 0.000104452)
(-1.17021e-06 0.000685534 8.67991e-05)
(1.40317e-06 0.000757969 7.25733e-05)
(4.72178e-06 0.000811905 6.3019e-05)
(8.40238e-06 0.000851709 5.53869e-05)
(1.22333e-05 0.000880331 4.81971e-05)
(1.60584e-05 0.000900409 4.11281e-05)
(1.97631e-05 0.000913528 3.3931e-05)
(2.32497e-05 0.000921354 2.65911e-05)
(2.64375e-05 0.000924724 1.89681e-05)
(2.927e-05 0.00092472 1.11971e-05)
(3.16956e-05 0.000921781 3.22555e-06)
(3.36894e-05 0.000916711 -4.79272e-06)
(3.52098e-05 0.000909709 -1.29117e-05)
(3.62444e-05 0.000901366 -2.0961e-05)
(3.67709e-05 0.000891742 -2.89448e-05)
(3.67937e-05 0.000881291 -3.66978e-05)
(3.62941e-05 0.000869979 -4.42266e-05)
(3.52928e-05 0.000858147 -5.13771e-05)
(3.37858e-05 0.000845673 -5.81632e-05)
(3.1803e-05 0.000832777 -6.44456e-05)
(2.93585e-05 0.000819227 -7.02474e-05)
(2.65022e-05 0.00080508 -7.54466e-05)
(2.32676e-05 0.000789931 -8.00775e-05)
(1.97269e-05 0.000773596 -8.40361e-05)
(1.59459e-05 0.000755377 -8.73699e-05)
(1.20312e-05 0.000734688 -8.99931e-05)
(8.09409e-06 0.000710322 -9.19397e-05)
(4.28781e-06 0.000680995 -9.30726e-05)
(7.84997e-07 0.000644586 -9.34535e-05)
(-2.1266e-06 0.000598589 -9.36447e-05)
(-3.88202e-06 0.00053923 -9.50772e-05)
(-3.82792e-06 0.000461811 -9.48667e-05)
(-3.56147e-06 0.000293887 -6.36663e-05)
(-1.28289e-06 0.00036071 8.98455e-05)
(-1.28511e-06 0.000562011 8.48395e-05)
(-1.8168e-07 0.000655495 7.17822e-05)
(1.53953e-06 0.000726485 6.11431e-05)
(3.69281e-06 0.000780541 5.39799e-05)
(6.07105e-06 0.000821434 4.81843e-05)
(8.53814e-06 0.000852387 4.28228e-05)
(1.10171e-05 0.000875441 3.75333e-05)
(1.34289e-05 0.000892521 3.22753e-05)
(1.57098e-05 0.000904705 2.69027e-05)
(1.78043e-05 0.000913199 2.14505e-05)
(1.96656e-05 0.00091855 1.58529e-05)
(2.12584e-05 0.000921559 1.02092e-05)
(2.25519e-05 0.000922476 4.48546e-06)
(2.35241e-05 0.000921863 -1.1995e-06)
(2.41513e-05 0.000919796 -6.87224e-06)
(2.44296e-05 0.000916688 -1.24073e-05)
(2.43439e-05 0.000912505 -1.78267e-05)
(2.38976e-05 0.000907547 -2.30107e-05)
(2.30888e-05 0.000901687 -2.79862e-05)
(2.19343e-05 0.000895119 -3.26419e-05)
(2.04408e-05 0.000887611 -3.70129e-05)
(1.86411e-05 0.000879223 -4.09979e-05)
(1.65542e-05 0.000869575 -4.4642e-05)
(1.42295e-05 0.000858522 -4.78543e-05)
(1.1705e-05 0.000845441 -5.06899e-05)
(9.0508e-06 0.000829848 -5.30703e-05)
(6.3382e-06 0.000810697 -5.50612e-05)
(3.66257e-06 0.000786921 -5.65783e-05)
(1.12899e-06 0.000756722 -5.76473e-05)
(-1.12219e-06 0.000717998 -5.82117e-05)
(-2.88755e-06 0.000667616 -5.88062e-05)
(-3.75893e-06 0.000601609 -6.03861e-05)
(-3.40503e-06 0.000514448 -6.09512e-05)
(-2.81472e-06 0.000324499 -3.95047e-05)
(-9.47735e-07 0.000343721 6.92203e-05)
(-9.78712e-07 0.00054293 6.77468e-05)
(-5.9732e-07 0.000635611 6.01022e-05)
(4.01944e-08 0.000706567 5.36715e-05)
(9.18603e-07 0.000760969 4.91706e-05)
(1.93464e-06 0.000802941 4.54601e-05)
(3.02787e-06 0.000835284 4.19184e-05)
(4.15567e-06 0.000860393 3.84503e-05)
(5.27979e-06 0.000879753 3.4952e-05)
(6.36483e-06 0.000894795 3.14548e-05)
(7.38246e-06 0.000906279 2.78835e-05)
(8.30076e-06 0.000915098 2.4309e-05)
(9.09524e-06 0.000921606 2.0681e-05)
(9.7447e-06 0.0009264 1.70807e-05)
(1.02355e-05 0.000929604 1.34554e-05)
(1.05547e-05 0.000931627 9.90773e-06)
(1.06889e-05 0.00093245 6.4253e-06)
(1.06323e-05 0.00093236 3.10592e-06)
(1.03792e-05 0.000931239 -1.01129e-07)
(9.93263e-06 0.000929272 -3.10202e-06)
(9.2951e-06 0.000926241 -5.94816e-06)
(8.47995e-06 0.000922218 -8.55475e-06)
(7.49693e-06 0.000916857 -1.09788e-05)
(6.37049e-06 0.000910065 -1.31438e-05)
(5.12402e-06 0.000901299 -1.51142e-05)
(3.7919e-06 0.000890201 -1.6822e-05)
(2.41125e-06 0.000875885 -1.83402e-05)
(1.03385e-06 0.000857536 -1.96112e-05)
(-2.86412e-07 0.000833669 -2.07072e-05)
(-1.47856e-06 0.000802661 -2.15539e-05)
(-2.46563e-06 0.000761951 -2.22487e-05)
(-3.1207e-06 0.000708485 -2.3066e-05)
(-3.20754e-06 0.000637758 -2.47689e-05)
(-2.60486e-06 0.000544143 -2.60681e-05)
(-1.91392e-06 0.000339744 -1.45661e-05)
(-1.14902e-06 0.000330218 5.50721e-05)
(-1.56401e-06 0.000528771 5.96007e-05)
(-1.90509e-06 0.000621258 5.77158e-05)
(-2.24664e-06 0.000692088 5.55305e-05)
(-2.41509e-06 0.000746706 5.38055e-05)
(-2.44169e-06 0.00078897 5.20949e-05)
(-2.37566e-06 0.000821991 5.02911e-05)
(-2.23009e-06 0.000847836 4.83427e-05)
(-2.02829e-06 0.000868312 4.6336e-05)
(-1.78131e-06 0.000884498 4.42345e-05)
(-1.51116e-06 0.000897475 4.21154e-05)
(-1.22848e-06 0.000907775 3.9935e-05)
(-9.52869e-07 0.000916069 3.77784e-05)
(-6.91545e-07 0.000922571 3.56194e-05)
(-4.67064e-07 0.000927716 3.35643e-05)
(-2.90228e-07 0.000931545 3.15731e-05)
(-1.60595e-07 0.000934379 2.9671e-05)
(-8.59787e-08 0.00093613 2.78133e-05)
(-7.34298e-08 0.000936987 2.60878e-05)
(-1.22205e-07 0.000936763 2.44387e-05)
(-2.30972e-07 0.000935546 2.29397e-05)
(-3.93425e-07 0.000933042 2.15273e-05)
(-6.0529e-07 0.000929207 2.02634e-05)
(-8.60402e-07 0.000923587 1.90792e-05)
(-1.1446e-06 0.000915935 1.80302e-05)
(-1.44212e-06 0.000905534 1.70382e-05)
(-1.73352e-06 0.00089179 1.6146e-05)
(-2.00121e-06 0.000873534 1.52626e-05)
(-2.21758e-06 0.000849554 1.44165e-05)
(-2.35934e-06 0.000817881 1.35053e-05)
(-2.39673e-06 0.000776204 1.25051e-05)
(-2.28685e-06 0.00072112 1.10626e-05)
(-1.93856e-06 0.000648332 8.66992e-06)
(-1.33493e-06 0.000551871 5.72811e-06)
(-8.26413e-07 0.000341692 7.04179e-06)
(-1.50589e-06 0.000318731 4.64653e-05)
(-2.32889e-06 0.000515115 5.73505e-05)
(-3.17428e-06 0.000606473 6.03009e-05)
(-4.17015e-06 0.000676546 6.16791e-05)
(-4.96415e-06 0.000730501 6.2234e-05)
(-5.59102e-06 0.000772431 6.22206e-05)
(-6.08047e-06 0.000805148 6.17528e-05)
(-6.46001e-06 0.000830986 6.10115e-05)
(-6.73213e-06 0.000851443 6.00497e-05)
(-6.91126e-06 0.000867883 5.89846e-05)
(-6.99971e-06 0.000881071 5.78155e-05)
(-7.01454e-06 0.000891829 5.66304e-05)
(-6.95716e-06 0.000900514 5.54065e-05)
(-6.84517e-06 0.000907639 5.42194e-05)
(-6.6797e-06 0.000913325 5.30318e-05)
(-6.47324e-06 0.000917907 5.19078e-05)
(-6.23326e-06 0.00092133 5.08347e-05)
(-5.9688e-06 0.000923813 4.98709e-05)
(-5.68142e-06 0.000925224 4.8963e-05)
(-5.3779e-06 0.000925678 4.81661e-05)
(-5.05935e-06 0.000924942 4.74216e-05)
(-4.72757e-06 0.00092302 4.67785e-05)
(-4.3865e-06 0.000919548 4.6171e-05)
(-4.03432e-06 0.000914371 4.564e-05)
(-3.66951e-06 0.000906928 4.51106e-05)
(-3.29099e-06 0.000896808 4.46117e-05)
(-2.89819e-06 0.000883109 4.40525e-05)
(-2.48695e-06 0.000864973 4.34381e-05)
(-2.06156e-06 0.000840907 4.2648e-05)
(-1.62465e-06 0.000809257 4.16439e-05)
(-1.18902e-06 0.000767471 4.02238e-05)
(-7.70468e-07 0.000712474 3.81176e-05)
(-3.85327e-07 0.000639804 3.4705e-05)
(-4.83913e-09 0.000543836 2.98492e-05)
(1.49188e-07 0.000335044 2.23513e-05)
(-1.68194e-06 0.000308345 3.90944e-05)
(-2.71794e-06 0.000500215 5.37216e-05)
(-3.8014e-06 0.000589481 5.95293e-05)
(-5.07403e-06 0.000657835 6.29825e-05)
(-6.13269e-06 0.000710545 6.49314e-05)
(-6.98771e-06 0.000751379 6.5902e-05)
(-7.69707e-06 0.000783328 6.62677e-05)
(-8.26865e-06 0.00080843 6.62023e-05)
(-8.71591e-06 0.000828403 6.58854e-05)
(-9.03502e-06 0.000844326 6.53751e-05)
(-9.24376e-06 0.000857208 6.47807e-05)
(-9.33672e-06 0.000867589 6.41112e-05)
(-9.3312e-06 0.000876083 6.3445e-05)
(-9.22422e-06 0.000882923 6.27689e-05)
(-9.02907e-06 0.000888493 6.21465e-05)
(-8.74729e-06 0.000892844 6.15516e-05)
(-8.392e-06 0.000896216 6.10386e-05)
(-7.96817e-06 0.000898538 6.05713e-05)
(-7.4868e-06 0.000899949 6.01956e-05)
(-6.95055e-06 0.000900279 5.98663e-05)
(-6.37401e-06 0.000899566 5.96205e-05)
(-5.75898e-06 0.000897533 5.94046e-05)
(-5.11429e-06 0.000894096 5.92467e-05)
(-4.4463e-06 0.000888824 5.90836e-05)
(-3.7601e-06 0.000881442 5.89314e-05)
(-3.06264e-06 0.000871273 5.87131e-05)
(-2.36247e-06 0.000857717 5.84243e-05)
(-1.67388e-06 0.000839674 5.79594e-05)
(-1.00683e-06 0.000815972 5.72714e-05)
(-3.83672e-07 0.000784759 5.6195e-05)
(1.67309e-07 0.000743842 5.45756e-05)
(5.86672e-07 0.000690022 5.20282e-05)
(8.20823e-07 0.000619266 4.7989e-05)
(9.32282e-07 0.000525961 4.1874e-05)
(7.81642e-07 0.000323554 2.91126e-05)
(-1.48173e-06 0.000299438 2.99161e-05)
(-2.4743e-06 0.000486008 4.41136e-05)
(-3.50806e-06 0.00057272 5.03095e-05)
(-4.74297e-06 0.000639156 5.41613e-05)
(-5.78178e-06 0.000690267 5.63607e-05)
(-6.64403e-06 0.000729892 5.75672e-05)
(-7.35591e-06 0.00076074 5.81257e-05)
(-7.94445e-06 0.000785 5.82809e-05)
(-8.39932e-06 0.000804137 5.81478e-05)
(-8.73296e-06 0.000819416 5.7855e-05)
(-8.93788e-06 0.000831608 5.74459e-05)
(-9.02714e-06 0.000841464 5.70019e-05)
(-9.00011e-06 0.000849361 5.6533e-05)
(-8.868e-06 0.000855758 5.60987e-05)
(-8.62992e-06 0.000860802 5.56918e-05)
(-8.30304e-06 0.000864776 5.53591e-05)
(-7.88897e-06 0.000867685 5.50819e-05)
(-7.4049e-06 0.000869695 5.48966e-05)
(-6.85113e-06 0.000870707 5.47751e-05)
(-6.24661e-06 0.000870789 5.47439e-05)
(-5.5976e-06 0.000869745 5.47655e-05)
(-4.91307e-06 0.000867538 5.48568e-05)
(-4.20632e-06 0.00086385 5.49708e-05)
(-3.48485e-06 0.000858499 5.51141e-05)
(-2.76235e-06 0.000850983 5.52279e-05)
(-2.04324e-06 0.000840885 5.53043e-05)
(-1.34411e-06 0.000827394 5.5265e-05)
(-6.79273e-07 0.000809685 5.50742e-05)
(-6.34389e-08 0.000786412 5.46129e-05)
(4.84609e-07 0.000756028 5.3783e-05)
(9.24752e-07 0.000716225 5.23661e-05)
(1.20961e-06 0.00066416 5.00684e-05)
(1.26906e-06 0.000595808 4.63196e-05)
(1.2042e-06 0.000505994 4.05148e-05)
(9.14378e-07 0.000311402 2.72778e-05)
(-9.68827e-07 0.000293217 1.80083e-05)
(-1.71334e-06 0.000475673 2.77119e-05)
(-2.51258e-06 0.000560481 3.21882e-05)
(-3.50245e-06 0.000625347 3.49475e-05)
(-4.38914e-06 0.000675256 3.64554e-05)
(-5.14717e-06 0.000713795 3.71913e-05)
(-5.80291e-06 0.000743783 3.74559e-05)
(-6.34614e-06 0.000767191 3.73967e-05)
(-6.78319e-06 0.000785633 3.71392e-05)
(-7.09928e-06 0.000800175 3.67458e-05)
(-7.30496e-06 0.000811761 3.62943e-05)
(-7.39176e-06 0.000820949 3.58126e-05)
(-7.37071e-06 0.000828301 3.53548e-05)
(-7.24074e-06 0.000834088 3.49312e-05)
(-7.01324e-06 0.000838648 3.45826e-05)
(-6.69551e-06 0.000842076 3.43075e-05)
(-6.30057e-06 0.000844571 3.41361e-05)
(-5.83437e-06 0.00084611 3.40563e-05)
(-5.31682e-06 0.000846788 3.40884e-05)
(-4.75569e-06 0.000846484 3.42104e-05)
(-4.16332e-06 0.000845199 3.44322e-05)
(-3.55528e-06 0.000842704 3.47218e-05)
(-2.94108e-06 0.000838883 3.50799e-05)
(-2.33295e-06 0.000833363 3.54646e-05)
(-1.74024e-06 0.000825848 3.58659e-05)
(-1.17582e-06 0.000815742 3.6231e-05)
(-6.48234e-07 0.000802447 3.65348e-05)
(-1.69397e-07 0.000784978 3.6706e-05)
(2.55739e-07 0.000762222 3.669e-05)
(6.05763e-07 0.000732501 3.63756e-05)
(8.66584e-07 0.000693775 3.56382e-05)
(1.00005e-06 0.000643134 3.42411e-05)
(9.79162e-07 0.000576879 3.18225e-05)
(8.81389e-07 0.000489878 2.79178e-05)
(6.3491e-07 0.000301707 1.86445e-05)
(-2.99043e-07 0.000291154 4.94641e-06)
(-7.35011e-07 0.000472479 7.78148e-06)
(-1.20547e-06 0.000556686 9.29777e-06)
(-1.8859e-06 0.000621069 1.01239e-05)
(-2.56271e-06 0.000670462 1.03529e-05)
(-3.20084e-06 0.000708559 1.02278e-05)
(-3.77288e-06 0.000738032 9.87316e-06)
(-4.27754e-06 0.000760984 9.37429e-06)
(-4.69185e-06 0.000778887 8.77523e-06)
(-5.0127e-06 0.000792953 8.1313e-06)
(-5.22868e-06 0.000803985 7.47149e-06)
(-5.34364e-06 0.000812694 6.83945e-06)
(-5.35126e-06 0.000819503 6.25423e-06)
(-5.26482e-06 0.000824836 5.75091e-06)
(-5.08613e-06 0.00082889 5.34038e-06)
(-4.82957e-06 0.000831915 5.04906e-06)
(-4.50029e-06 0.000833968 4.87888e-06)
(-4.11806e-06 0.000835178 4.84621e-06)
(-3.69539e-06 0.000835495 4.94342e-06)
(-3.24387e-06 0.000834952 5.17635e-06)
(-2.78148e-06 0.000833398 5.52719e-06)
(-2.31935e-06 0.00083076 5.99199e-06)
(-1.87242e-06 0.000826768 6.54367e-06)
(-1.44916e-06 0.000821205 7.16989e-06)
(-1.06294e-06 0.000813624 7.83621e-06)
(-7.19303e-07 0.000803582 8.5235e-06)
(-4.24489e-07 0.00079034 9.19132e-06)
(-1.77964e-07 0.000773071 9.81369e-06)
(1.17782e-08 0.00075053 1.03428e-05)
(1.49853e-07 0.000721206 1.07423e-05)
(2.3092e-07 0.000682955 1.09464e-05)
(2.61314e-07 0.000633046 1.08834e-05)
(2.39868e-07 0.00056772 1.04166e-05)
(2.32398e-07 0.000482055 9.41851e-06)
(1.22792e-07 0.000296798 6.72109e-06)
(3.12875e-07 0.000293808 -6.90116e-06)
(1.52915e-07 0.000477353 -1.1019e-05)
(-9.49807e-09 0.000562552 -1.25486e-05)
(-3.96385e-07 0.000627555 -1.37335e-05)
(-8.89958e-07 0.000677346 -1.48183e-05)
(-1.40936e-06 0.000715587 -1.58474e-05)
(-1.92311e-06 0.000745092 -1.68423e-05)
(-2.39342e-06 0.0007679 -1.78205e-05)
(-2.80693e-06 0.000785616 -1.87807e-05)
(-3.13713e-06 0.000799373 -1.97154e-05)
(-3.38057e-06 0.000810101 -2.06037e-05)
(-3.53135e-06 0.000818424 -2.1428e-05)
(-3.58922e-06 0.000824887 -2.21623e-05)
(-3.55549e-06 0.000829819 -2.2789e-05)
(-3.44356e-06 0.000833541 -2.32853e-05)
(-3.2583e-06 0.000836199 -2.36387e-05)
(-3.01377e-06 0.000837971 -2.3834e-05)
(-2.72554e-06 0.000838877 -2.38679e-05)
(-2.41038e-06 0.000838987 -2.37346e-05)
(-2.08193e-06 0.000838218 -2.34414e-05)
(-1.75448e-06 0.000836536 -2.29928e-05)
(-1.44635e-06 0.000833752 -2.24055e-05)
(-1.16681e-06 0.000829704 -2.16926e-05)
(-9.27927e-07 0.000824058 -2.08779e-05)
(-7.35575e-07 0.000816473 -1.99794e-05)
(-5.99068e-07 0.000806385 -1.90225e-05)
(-5.1326e-07 0.000793157 -1.80236e-05)
(-4.77625e-07 0.00077584 -1.70006e-05)
(-4.84536e-07 0.000753283 -1.59574e-05)
(-5.23387e-07 0.000723858 -1.48888e-05)
(-5.70866e-07 0.000685499 -1.37661e-05)
(-6.03679e-07 0.000635361 -1.25258e-05)
(-5.66575e-07 0.000569743 -1.10457e-05)
(-4.41635e-07 0.000483612 -9.12018e-06)
(-3.99826e-07 0.000297382 -5.00456e-06)
(7.32486e-07 0.000300793 -1.54734e-05)
(7.29337e-07 0.000489402 -2.48667e-05)
(7.9587e-07 0.000576867 -2.87591e-05)
(6.16626e-07 0.000643517 -3.15231e-05)
(2.65428e-07 0.000694415 -3.36566e-05)
(-1.68336e-07 0.000733414 -3.5412e-05)
(-6.22587e-07 0.000763344 -3.69352e-05)
(-1.06482e-06 0.000786391 -3.83091e-05)
(-1.46025e-06 0.00080414 -3.95783e-05)
(-1.79501e-06 0.000817844 -4.07589e-05)
(-2.0513e-06 0.000828393 -4.18502e-05)
(-2.22446e-06 0.000836516 -4.28408e-05)
(-2.31181e-06 0.000842708 -4.37145e-05)
(-2.31759e-06 0.000847393 -4.44527e-05)
(-2.24787e-06 0.000850829 -4.50378e-05)
(-2.11556e-06 0.000853255 -4.54542e-05)
(-1.93394e-06 0.000854777 -4.56905e-05)
(-1.71613e-06 0.000855504 -4.57391e-05)
(-1.47879e-06 0.000855426 -4.55982e-05)
(-1.23957e-06 0.000854545 -4.52707e-05)
(-1.01384e-06 0.000852741 -4.47647e-05)
(-8.16611e-07 0.000849901 -4.40927e-05)
(-6.60766e-07 0.000845778 -4.32708e-05)
(-5.52578e-07 0.000840104 -4.23176e-05)
(-5.04037e-07 0.000832445 -4.12512e-05)
(-5.11326e-07 0.000822298 -4.00884e-05)
(-5.7553e-07 0.000808924 -3.88393e-05)
(-6.8781e-07 0.000791422 -3.75031e-05)
(-8.3348e-07 0.000768529 -3.60609e-05)
(-9.87968e-07 0.000738644 -3.44656e-05)
(-1.12713e-06 0.000699571 -3.26257e-05)
(-1.19291e-06 0.000648458 -3.03681e-05)
(-1.11608e-06 0.000581432 -2.73844e-05)
(-8.80308e-07 0.000493403 -2.3213e-05)
(-7.66332e-07 0.000302946 -1.38646e-05)
(8.85544e-07 0.000310724 -1.97936e-05)
(9.16138e-07 0.000505838 -3.16684e-05)
(1.08451e-06 0.000596274 -3.67004e-05)
(1.01098e-06 0.000665065 -4.02332e-05)
(7.38081e-07 0.000717503 -4.288e-05)
(3.69124e-07 0.000757548 -4.49947e-05)
(-3.3041e-08 0.000788189 -4.67842e-05)
(-4.27513e-07 0.000811651 -4.8362e-05)
(-7.9123e-07 0.000829636 -4.9794e-05)
(-1.09757e-06 0.000843402 -5.11072e-05)
(-1.33231e-06 0.000853932 -5.23102e-05)
(-1.49101e-06 0.000861939 -5.33951e-05)
(-1.5702e-06 0.000867994 -5.43492e-05)
(-1.57389e-06 0.000872494 -5.51541e-05)
(-1.51129e-06 0.000875766 -5.5794e-05)
(-1.38792e-06 0.00087801 -5.62521e-05)
(-1.22332e-06 0.000879392 -5.65183e-05)
(-1.03145e-06 0.000879976 -5.65834e-05)
(-8.26536e-07 0.000879808 -5.64469e-05)
(-6.26324e-07 0.000878836 -5.61099e-05)
(-4.48063e-07 0.000876991 -5.55822e-05)
(-3.03728e-07 0.000874101 -5.48741e-05)
(-2.05569e-07 0.000869959 -5.40036e-05)
(-1.67894e-07 0.000864233 -5.2986e-05)
(-1.87996e-07 0.000856521 -5.18404e-05)
(-2.70107e-07 0.000846245 -5.05789e-05)
(-4.11428e-07 0.000832687 -4.92096e-05)
(-5.99878e-07 0.000814858 -4.7722e-05)
(-8.16805e-07 0.000791493 -4.60883e-05)
(-1.03973e-06 0.000760883 -4.42401e-05)
(-1.22951e-06 0.000720794 -4.20595e-05)
(-1.33385e-06 0.00066823 -3.93206e-05)
(-1.26055e-06 0.000599215 -3.56328e-05)
(-9.94433e-07 0.000508448 -3.04101e-05)
(-8.94326e-07 0.000311992 -1.85755e-05)
(8.05512e-07 0.000321839 -1.99845e-05)
(7.72338e-07 0.000523503 -3.14594e-05)
(9.33671e-07 0.000616918 -3.63605e-05)
(8.58429e-07 0.000687901 -3.98199e-05)
(6.12921e-07 0.000741898 -4.24202e-05)
(2.80436e-07 0.000783053 -4.45102e-05)
(-7.30521e-08 0.000814431 -4.62865e-05)
(-4.18847e-07 0.000838377 -4.7862e-05)
(-7.27956e-07 0.000856629 -4.92957e-05)
(-9.82786e-07 0.000870529 -5.06167e-05)
(-1.16863e-06 0.000881072 -5.18283e-05)
(-1.2801e-06 0.000889036 -5.29253e-05)
(-1.31486e-06 0.000894987 -5.38909e-05)
(-1.27969e-06 0.000899375 -5.47098e-05)
(-1.17985e-06 0.000902512 -5.53621e-05)
(-1.02839e-06 0.000904642 -5.58345e-05)
(-8.38839e-07 0.000905909 -5.61124e-05)
(-6.23296e-07 0.000906415 -5.61907e-05)
(-4.01789e-07 0.000906176 -5.60646e-05)
(-1.89492e-07 0.000905171 -5.57393e-05)
(-1.93302e-09 0.000903297 -5.52202e-05)
(1.47883e-07 0.000900405 -5.45218e-05)
(2.45749e-07 0.000896246 -5.36579e-05)
(2.86022e-07 0.000890506 -5.26483e-05)
(2.58747e-07 0.000882732 -5.15084e-05)
(1.67498e-07 0.000872352 -5.0255e-05)
(1.56175e-08 0.000858586 -4.8893e-05)
(-1.87055e-07 0.000840436 -4.74181e-05)
(-4.23373e-07 0.000816555 -4.58003e-05)
(-6.67632e-07 0.000785201 -4.39795e-05)
(-8.93461e-07 0.000744027 -4.18398e-05)
(-1.03996e-06 0.000689959 -3.91721e-05)
(-1.02532e-06 0.000618851 -3.56028e-05)
(-8.09937e-07 0.000525249 -3.05696e-05)
(-8.08824e-07 0.000322548 -1.91141e-05)
(5.60068e-07 0.000332329 -1.71346e-05)
(4.06485e-07 0.000539364 -2.59494e-05)
(4.70701e-07 0.000635239 -2.97222e-05)
(3.27807e-07 0.00070802 -3.24401e-05)
(6.67565e-08 0.000763317 -3.45517e-05)
(-2.42464e-07 0.000805375 -3.63057e-05)
(-5.56558e-07 0.000837371 -3.7846e-05)
(-8.45239e-07 0.000861701 -3.92485e-05)
(-1.08902e-06 0.000880178 -4.05548e-05)
(-1.27337e-06 0.000894172 -4.17767e-05)
(-1.38562e-06 0.00090473 -4.29132e-05)
(-1.42369e-06 0.000912641 -4.395e-05)
(-1.38963e-06 0.000918513 -4.48709e-05)
(-1.28662e-06 0.000922795 -4.5655e-05)
(-1.12232e-06 0.000925833 -4.62849e-05)
(-9.08907e-07 0.000927863 -4.67428e-05)
(-6.6056e-07 0.000929056 -4.70179e-05)
(-3.9029e-07 0.0009295 -4.71008e-05)
(-1.16664e-07 0.000929232 -4.69904e-05)
(1.47497e-07 0.000928211 -4.66879e-05)
(3.84683e-07 0.000926349 -4.62028e-05)
(5.79236e-07 0.000923472 -4.55457e-05)
(7.22275e-07 0.000919341 -4.47349e-05)
(8.05228e-07 0.000913608 -4.37873e-05)
(8.21184e-07 0.000905823 -4.27242e-05)
(7.67281e-07 0.000895373 -4.15611e-05)
(6.49769e-07 0.00088147 -4.03123e-05)
(4.72025e-07 0.000863062 -3.89783e-05)
(2.51243e-07 0.00083878 -3.75463e-05)
(6.33335e-09 0.000806807 -3.5974e-05)
(-2.37255e-07 0.000764744 -3.41831e-05)
(-4.36866e-07 0.000709415 -3.20212e-05)
(-5.2451e-07 0.000636569 -2.92222e-05)
(-4.26328e-07 0.000540594 -2.53512e-05)
(-5.61791e-07 0.000332702 -1.65344e-05)
(2.44994e-07 0.000340856 -1.26387e-05)
(-4.04963e-08 0.000551388 -1.75037e-05)
(-1.17469e-07 0.000648863 -1.95723e-05)
(-3.65423e-07 0.000722815 -2.11617e-05)
(-6.63069e-07 0.00077894 -2.25213e-05)
(-9.65676e-07 0.00082157 -2.37552e-05)
(-1.24166e-06 0.000853929 -2.49205e-05)
(-1.47551e-06 0.000878474 -2.60457e-05)
(-1.65028e-06 0.000897044 -2.7139e-05)
(-1.75856e-06 0.000911053 -2.8195e-05)
(-1.79276e-06 0.000921561 -2.91977e-05)
(-1.75134e-06 0.00092939 -3.01276e-05)
(-1.63617e-06 0.000935155 -3.09619e-05)
(-1.45228e-06 0.000939331 -3.16792e-05)
(-1.21171e-06 0.000942262 -3.22584e-05)
(-9.24889e-07 0.000944207 -3.26836e-05)
(-6.04597e-07 0.00094533 -3.29411e-05)
(-2.63801e-07 0.000945734 -3.30236e-05)
(7.76203e-08 0.000945447 -3.29281e-05)
(4.08238e-07 0.00094444 -3.26575e-05)
(7.12617e-07 0.000942608 -3.22192e-05)
(9.73929e-07 0.000939785 -3.16266e-05)
(1.18292e-06 0.000935711 -3.08959e-05)
(1.33086e-06 0.00093004 -3.00477e-05)
(1.40878e-06 0.000922296 -2.91033e-05)
(1.41525e-06 0.000911862 -2.80855e-05)
(1.35209e-06 0.000897917 -2.70134e-05)
(1.22116e-06 0.000879397 -2.59024e-05)
(1.03448e-06 0.000854889 -2.47573e-05)
(8.05516e-07 0.000822552 -2.35692e-05)
(5.48502e-07 0.000779928 -2.23077e-05)
(2.92079e-07 0.000723794 -2.09092e-05)
(8.0637e-08 0.000649815 -1.92564e-05)
(2.80119e-08 0.000552295 -1.71096e-05)
(-2.4494e-07 0.000341016 -1.22287e-05)
(-6.97747e-08 0.00034668 -7.84571e-06)
(-4.70067e-07 0.000558627 -8.46206e-06)
(-6.95633e-07 0.000656755 -8.68636e-06)
(-1.04705e-06 0.000731166 -9.04638e-06)
(-1.38753e-06 0.000787597 -9.58192e-06)
(-1.68795e-06 0.000830404 -1.02395e-05)
(-1.93279e-06 0.000862844 -1.09853e-05)
(-2.11857e-06 0.000887388 -1.17948e-05)
(-2.23241e-06 0.000905903 -1.26432e-05)
(-2.26911e-06 0.000919809 -1.3504e-05)
(-2.2299e-06 0.000930195 -1.43482e-05)