/*--------------------------------*- C++ -*----------------------------------*\
| =========                 |                                                 |
| \\      /  F ield         | OpenFOAM: The Open Source CFD Toolbox           |
|  \\    /   O peration     | Version:  v2006                                 |
|   \\  /    A nd           | Website:  www.openfoam.com                      |
|    \\/     M anipulation  |                                                 |
\*---------------------------------------------------------------------------*/
FoamFile
{
    version     2.0;
    format      ascii;
    class       volVectorField;
    location    "4";
    object      U;
}
// * * * * * * * * * * * * * * * * * * * * * * * * * * * * * * * * * * * * * //

dimensions      [0 1 -1 0 0 0 0];


internalField   nonuniform List<vector> 
78750
(
(-0.0652573 -0.0290291 -0.0322949)
(-0.0430809 -0.0322499 -0.0403916)
(-0.0378406 -0.0318552 -0.039252)
(-0.0332966 -0.0294922 -0.0390208)
(-0.0260269 -0.0263018 -0.0377551)
(-0.0209156 -0.023947 -0.0371311)
(-0.0155638 -0.0217656 -0.0365687)
(-0.0105983 -0.0197571 -0.0360721)
(-0.00605164 -0.0178888 -0.0356408)
(-0.00182775 -0.016109 -0.035241)
(0.00207187 -0.0143776 -0.0348251)
(0.00572005 -0.0126584 -0.0343478)
(0.00912167 -0.0109788 -0.0338291)
(0.0122396 -0.00937253 -0.0332981)
(0.0151111 -0.00785 -0.0327595)
(0.0177617 -0.0064085 -0.0322108)
(0.0202058 -0.0050358 -0.0316451)
(0.0224495 -0.00371735 -0.031052)
(0.0244934 -0.00243555 -0.0304198)
(0.0263326 -0.00116951 -0.0297368)
(0.0279566 0.000104229 -0.0289924)
(0.0293457 0.00141048 -0.0281721)
(0.0304689 0.00277735 -0.0272522)
(0.0312785 0.00423581 -0.0262137)
(0.0317288 0.00581802 -0.0250317)
(0.031767 0.00755381 -0.0236756)
(0.0313291 0.00946637 -0.0221083)
(0.0303407 0.0115662 -0.0202862)
(0.02871 0.0138471 -0.0181589)
(0.0263543 0.0162604 -0.0156848)
(0.0232074 0.018733 -0.0128105)
(0.019144 0.0212527 -0.00936955)
(0.0139061 0.0238994 -0.00491527)
(0.00757893 0.0247058 2.25513e-05)
(0.00176685 0.0158054 0.00234737)
(-0.00363886 0.0162048 -0.0209778)
(-0.00906121 -0.0294298 -0.0581872)
(-0.0154049 -0.045987 -0.070561)
(-0.01949 -0.0461756 -0.0728612)
(-0.0224348 -0.039566 -0.0714985)
(-0.0243596 -0.0330744 -0.0691668)
(-0.0253761 -0.0287351 -0.0669278)
(-0.0254873 -0.0254136 -0.0648367)
(-0.0248622 -0.0226065 -0.0629202)
(-0.0237252 -0.0201984 -0.061228)
(-0.0222304 -0.0180287 -0.0597517)
(-0.0204783 -0.0160004 -0.0584765)
(-0.0185522 -0.0141003 -0.0573704)
(-0.0165121 -0.0123344 -0.0563827)
(-0.014381 -0.0107041 -0.0554762)
(-0.0121876 -0.00919963 -0.0546268)
(-0.00998011 -0.00778929 -0.0538066)
(-0.00778927 -0.00641528 -0.0529704)
(-0.00562284 -0.00502228 -0.0520845)
(-0.00349548 -0.00356147 -0.0511246)
(-0.00143214 -0.00198025 -0.0500659)
(0.000546366 -0.000221773 -0.0488782)
(0.00242144 0.00177234 -0.0475297)
(0.00415989 0.00406573 -0.0459874)
(0.00572276 0.00672861 -0.0442091)
(0.00706946 0.00983423 -0.0421379)
(0.00815637 0.0134591 -0.0396871)
(0.00893359 0.01769 -0.0367212)
(0.00933961 0.0226328 -0.033039)
(0.00929649 0.0284074 -0.0283693)
(0.00870734 0.0350839 -0.0224116)
(0.00743423 0.0423648 -0.0150647)
(0.00547946 0.0486885 -0.00710626)
(0.00308656 0.0499447 -0.000224092)
(0.000469251 0.0332525 0.00288612)
(-7.38895e-05 0.0599948 -0.0113619)
(-0.00437055 0.077913 -0.0305104)
(-0.0107262 0.0750559 -0.0355044)
(-0.0166278 0.0664025 -0.0337905)
(-0.0208167 0.0559867 -0.0311013)
(-0.0232219 0.0457472 -0.029453)
(-0.0243597 0.0364667 -0.0286106)
(-0.0245754 0.0282923 -0.0282771)
(-0.0241314 0.0213273 -0.0282744)
(-0.0232188 0.0156612 -0.0284727)
(-0.0219297 0.011533 -0.0286502)
(-0.020404 0.00911097 -0.028683)
(-0.0187078 0.00808672 -0.0285915)
(-0.016994 0.00785629 -0.0284918)
(-0.0153674 0.0080158 -0.028439)
(-0.0138108 0.0084393 -0.0284451)
(-0.0122962 0.00907192 -0.0285087)
(-0.0107826 0.0099004 -0.0286062)
(-0.00927366 0.0109411 -0.0287363)
(-0.00779196 0.0122141 -0.0288945)
(-0.00635748 0.0137546 -0.029068)
(-0.00498179 0.0156302 -0.0292292)
(-0.00365582 0.0179277 -0.0293448)
(-0.00239746 0.0206691 -0.0293911)
(-0.00124889 0.0238488 -0.0293284)
(-0.000224975 0.0274963 -0.0290826)
(0.000651928 0.0316633 -0.0285492)
(0.00135354 0.0363879 -0.0275866)
(0.00184391 0.0416664 -0.0260041)
(0.00207789 0.0474095 -0.0235603)
(0.00202097 0.0533322 -0.0200186)
(0.00168395 0.0587107 -0.0153801)
(0.00120697 0.0620997 -0.0101265)
(0.000634542 0.0597643 -0.00451411)
(-2.30819e-05 0.0362662 0.000262589)
(-0.000632853 0.0597607 -0.00737843)
(-0.00256087 0.0734605 -0.0197225)
(-0.00417139 0.0653558 -0.0237693)
(-0.00536141 0.0513332 -0.0237611)
(-0.00618064 0.035564 -0.0226258)
(-0.00683136 0.02079 -0.0220881)
(-0.00742632 0.00810686 -0.0222975)
(-0.00803243 -0.00214987 -0.0228333)
(-0.008694 -0.00967143 -0.0232432)
(-0.00928399 -0.0140829 -0.0231827)
(-0.0096942 -0.0157898 -0.0225934)
(-0.00991521 -0.0155521 -0.0216328)
(-0.00979442 -0.0142909 -0.0205058)
(-0.00922054 -0.0126422 -0.0193784)
(-0.00818752 -0.0109408 -0.0183629)
(-0.00679318 -0.00930576 -0.0175245)
(-0.00519007 -0.00768877 -0.0168618)
(-0.00353122 -0.00604574 -0.01637)
(-0.00194689 -0.0043413 -0.0160661)
(-0.000516568 -0.00252903 -0.0159385)
(0.000725993 -0.000559349 -0.0159578)
(0.00177042 0.00162976 -0.0160863)
(0.00261804 0.00414175 -0.0162763)
(0.00328128 0.00715005 -0.0164608)
(0.00379053 0.0108671 -0.0165769)
(0.00412036 0.0153637 -0.0165855)
(0.00425398 0.0206193 -0.0164216)
(0.00421866 0.026773 -0.0159702)
(0.00403107 0.0339758 -0.0150796)
(0.00370382 0.0421595 -0.0135737)
(0.00324292 0.0506429 -0.0113284)
(0.00263561 0.0578168 -0.00846535)
(0.00200477 0.0619 -0.00539557)
(0.00127622 0.0603752 -0.00187497)
(0.000271757 0.036946 0.00129149)
(0.000680305 0.0633346 -0.00551339)
(0.00102136 0.089139 -0.0157982)
(0.000802311 0.0871281 -0.020335)
(0.000350824 0.0793195 -0.0219524)
(-0.000456336 0.0698456 -0.0219393)
(-0.00157803 0.0610727 -0.0209383)
(-0.00297551 0.0541089 -0.0191429)
(-0.00461376 0.048842 -0.0165939)
(-0.00644538 0.0444363 -0.0134452)
(-0.00833664 0.0398725 -0.0101226)
(-0.0100571 0.0346 -0.00719735)
(-0.0113616 0.0285661 -0.00504257)
(-0.0121463 0.022161 -0.0036997)
(-0.0124273 0.0159653 -0.00300667)
(-0.0122746 0.0107467 -0.00271991)
(-0.011675 0.00729652 -0.00255682)
(-0.0106468 0.00575185 -0.00239455)
(-0.00932496 0.00574591 -0.00226533)
(-0.0078943 0.00699666 -0.00220892)
(-0.00644573 0.00937703 -0.0022438)
(-0.00509627 0.0126468 -0.0024247)
(-0.0039027 0.0164399 -0.00278751)
(-0.0028648 0.0206174 -0.00335462)
(-0.00200855 0.0251952 -0.00413994)
(-0.00134396 0.0301446 -0.0051357)
(-0.000871729 0.035389 -0.0062826)
(-0.000575476 0.0408531 -0.0074444)
(-0.000429022 0.0464492 -0.00841199)
(-0.000394123 0.0520503 -0.00893943)
(-0.000422576 0.0574382 -0.0088185)
(-0.000466327 0.0622228 -0.0079702)
(-0.000491642 0.0658 -0.00649918)
(-0.000481242 0.0673434 -0.00454958)
(-0.000390221 0.0632442 -0.00192474)
(-0.000207117 0.0365003 0.000704932)
(-0.000114716 0.0598817 -0.00436842)
(-0.000920789 0.089678 -0.0129874)
(-0.00188242 0.0886816 -0.016506)
(-0.00288308 0.0806357 -0.0173031)
(-0.00402313 0.0690909 -0.0161402)
(-0.00511274 0.0573219 -0.013686)
(-0.00607906 0.0470751 -0.0106234)
(-0.00687843 0.0384644 -0.00740016)
(-0.00748329 0.0309296 -0.0042983)
(-0.00788384 0.0238258 -0.00154535)
(-0.00808146 0.0167253 0.000661731)
(-0.00808346 0.00954936 0.00221792)
(-0.00789798 0.00254337 0.00316607)
(-0.00751022 -0.00391778 0.00366143)
(-0.00690857 -0.00951772 0.00386691)
(-0.00618143 -0.0138767 0.00395192)
(-0.00537757 -0.0165756 0.00404961)
(-0.00439416 -0.0175416 0.00425296)
(-0.00322428 -0.0168429 0.00458612)
(-0.00189244 -0.0146183 0.00502612)
(-0.000441178 -0.0110996 0.00551817)
(0.00098279 -0.00668391 0.00597173)
(0.00229085 -0.00156152 0.00630879)
(0.00341378 0.00421093 0.00645952)
(0.00427008 0.0106057 0.00634909)
(0.00486291 0.0175767 0.00589884)
(0.00517812 0.0250492 0.00505538)
(0.00519738 0.0329248 0.003844)
(0.00491311 0.0410719 0.00242566)
(0.00434274 0.04921 0.00110561)
(0.0035406 0.0565714 0.000237996)
(0.00262304 0.0617769 3.66163e-05)
(0.00181075 0.0638884 0.000485588)
(0.000993442 0.0603245 0.00153329)
(0.000189956 0.0345963 0.00206205)
(0.000283592 0.0600225 -0.00319062)
(0.000123732 0.0954353 -0.0103354)
(-0.00035106 0.0976836 -0.0132826)
(-0.00102583 0.0925424 -0.0138901)
(-0.00193281 0.0837705 -0.0126304)
(-0.00292023 0.0739282 -0.00983808)
(-0.00391103 0.064753 -0.00616161)
(-0.00483673 0.0565575 -0.00223493)
(-0.0056273 0.0489123 0.00141251)
(-0.00621868 0.0412622 0.00436069)
(-0.00657392 0.0333362 0.00635961)
(-0.00671282 0.0252508 0.0074048)
(-0.00670262 0.0173533 0.00770381)
(-0.00661256 0.00997766 0.00753757)
(-0.0064303 0.00333302 0.00713997)
(-0.00610137 -0.00233585 0.00666782)
(-0.005634 -0.0066977 0.00624362)
(-0.00505815 -0.00941785 0.00596361)
(-0.00434137 -0.0104714 0.0058617)
(-0.00349239 -0.00988542 0.00595091)
(-0.00252496 -0.0076301 0.00624459)
(-0.0014557 -0.00377358 0.00671902)
(-0.000423047 0.00134759 0.00730648)
(0.000546983 0.00749873 0.00793389)
(0.00147426 0.0145888 0.00852312)
(0.00231248 0.0225494 0.00896841)
(0.00300058 0.0313019 0.00912306)
(0.00347039 0.0406406 0.00881978)
(0.00364833 0.0500858 0.00794909)
(0.00345442 0.0586967 0.00661645)
(0.0028624 0.0651963 0.00524238)
(0.00204976 0.0688445 0.00430626)
(0.00121688 0.0695013 0.00390613)
(0.000405506 0.0633863 0.00378511)
(-7.32234e-05 0.0348989 0.00258899)
(-1.13619e-05 0.0598208 -0.00227045)
(-0.000799104 0.0990019 -0.00798193)
(-0.00174614 0.102751 -0.0100673)
(-0.00279588 0.0981298 -0.00990153)
(-0.00409993 0.0888334 -0.00767553)
(-0.00539626 0.0774001 -0.00376379)
(-0.00655875 0.0658926 0.000836584)
(-0.00747355 0.0547632 0.00510228)
(-0.00803211 0.0437368 0.0082946)
(-0.00818256 0.0326932 0.0101122)
(-0.00795353 0.0219048 0.0107035)
(-0.00741742 0.0117948 0.0104657)
(-0.00664831 0.00268886 0.00979747)
(-0.00573698 -0.00524555 0.00898494)
(-0.00478809 -0.0119598 0.00819924)
(-0.00387359 -0.0173745 0.00752424)
(-0.00299423 -0.0214237 0.00700954)
(-0.00213949 -0.0240596 0.00667591)
(-0.00129995 -0.0252721 0.00652541)
(-0.000460106 -0.0250628 0.00656468)
(0.000397042 -0.0234405 0.00678676)
(0.00126782 -0.020414 0.00719386)
(0.0021498 -0.0160472 0.00776529)
(0.00304529 -0.010395 0.008474)
(0.00392708 -0.00349486 0.00928876)
(0.00473181 0.00466581 0.010164)
(0.00539773 0.0141642 0.0110137)
(0.00587159 0.0250332 0.0116754)
(0.00608919 0.0370947 0.0118975)
(0.00593408 0.0496082 0.0114246)
(0.00522445 0.0608113 0.0102593)
(0.0039963 0.0681879 0.00887841)
(0.00269731 0.0704161 0.00776872)
(0.00133403 0.0645174 0.00655946)
(0.000193689 0.0350649 0.00358712)
(8.05517e-05 0.0606446 -0.00109181)
(-0.00063266 0.103958 -0.00513568)
(-0.00161831 0.110103 -0.00646164)
(-0.00272146 0.106557 -0.0056799)
(-0.00403081 0.0978416 -0.00281832)
(-0.00524444 0.0859823 0.00168248)
(-0.00617058 0.0729058 0.00646915)
(-0.006694 0.0593707 0.0101794)
(-0.00676652 0.0457759 0.0121245)
(-0.0064462 0.0327182 0.0124577)
(-0.00585644 0.0207738 0.0117797)
(-0.00511894 0.0102468 0.0106572)
(-0.00431217 0.00120132 0.00944761)
(-0.00346991 -0.00638526 0.00833548)
(-0.00261284 -0.0125958 0.00739381)
(-0.00177797 -0.0175136 0.00663687)
(-0.000986576 -0.0211594 0.0060651)
(-0.000245676 -0.0235122 0.00567364)
(0.000449795 -0.0245575 0.00545023)
(0.00111974 -0.0242977 0.00538279)
(0.00178442 -0.0227327 0.00547347)
(0.00244607 -0.0198776 0.00573399)
(0.00309557 -0.015783 0.00616845)
(0.00371914 -0.0104796 0.00677764)
(0.00429183 -0.00393435 0.00756742)
(0.00478463 0.00394816 0.00854568)
(0.005193 0.0132857 0.00970208)
(0.0055032 0.0242208 0.0109695)
(0.0056621 0.0368185 0.0121601)
(0.00557183 0.0506454 0.0128972)
(0.00500894 0.0638585 0.0127453)
(0.00385404 0.0728708 0.0117237)
(0.00255966 0.0754329 0.010365)
(0.00118167 0.0683857 0.00838064)
(9.947e-05 0.0365955 0.00410293)
(1.86797e-06 0.06156 -8.30048e-05)
(-0.000852445 0.10849 -0.00246995)
(-0.00201768 0.116331 -0.00297803)
(-0.00328098 0.11282 -0.00158734)
(-0.00472877 0.102729 0.00183437)
(-0.00595153 0.0879581 0.00652678)
(-0.0066894 0.0709385 0.0106628)
(-0.00688014 0.0533491 0.0128948)
(-0.00659075 0.0365665 0.0131482)
(-0.00595878 0.0215696 0.0121872)
(-0.00510794 0.00871865 0.0107773)
(-0.00413196 -0.00205231 0.00935618)
(-0.00310292 -0.0109755 0.00809956)
(-0.00207014 -0.0182459 0.00706105)
(-0.00105429 -0.0240241 0.00624152)
(-6.87217e-05 -0.0284421 0.00561751)
(0.000876441 -0.0315861 0.005165)
(0.00177435 -0.0335191 0.00486235)
(0.00262435 -0.0342899 0.0046904)
(0.00343128 -0.0339224 0.0046384)
(0.00419995 -0.0324075 0.00471014)
(0.00492666 -0.0297086 0.00491793)
(0.00560168 -0.0257957 0.0052667)
(0.00621149 -0.0206271 0.00576072)
(0.00674193 -0.014129 0.00641115)
(0.00718173 -0.00618675 0.00723677)
(0.00749805 0.00335943 0.00826052)
(0.00763447 0.0147474 0.00950217)
(0.00755166 0.0282523 0.0109261)
(0.00720648 0.0439054 0.0123181)
(0.00645061 0.0604628 0.0131599)
(0.00501282 0.0738211 0.012906)
(0.00340741 0.078973 0.0117042)
(0.00168842 0.072476 0.00936921)
(0.000226197 0.0386992 0.00432783)
(5.43662e-05 0.0620546 0.000879018)
(-0.000591829 0.112305 0.000114796)
(-0.0016461 0.122204 0.000342331)
(-0.00281552 0.118944 0.00212103)
(-0.0041057 0.107618 0.00565335)
(-0.0050543 0.0899431 0.00989232)
(-0.00538103 0.0692489 0.0127768)
(-0.00514766 0.0485729 0.0133999)
(-0.00453169 0.0300314 0.0123756)
(-0.00369618 0.0144364 0.0107122)
(-0.00274734 0.00168284 0.00903981)
(-0.0017449 -0.00863995 0.0076009)
(-0.000721956 -0.0169576 0.0064363)
(0.000294029 -0.0235939 0.00552141)
(0.00128345 -0.0287682 0.00481935)
(0.00223425 -0.0326336 0.00429218)
(0.00314125 -0.0352902 0.00390947)
(0.0040022 -0.0368043 0.00364876)
(0.00481711 -0.0372167 0.00349545)
(0.00558628 -0.0365414 0.00344403)
(0.00630816 -0.0347642 0.00349834)
(0.00697629 -0.0318462 0.00366863)
(0.00757905 -0.0277421 0.00396359)
(0.00810046 -0.0223882 0.00439312)
(0.00851842 -0.0156834 0.00497382)
(0.00880183 -0.00747865 0.00573131)
(0.00890907 0.00242667 0.00670151)
(0.00880205 0.0142834 0.0079264)
(0.00844349 0.0283893 0.00942751)
(0.00778762 0.044926 0.011107)
(0.00674669 0.0630083 0.0125295)
(0.00508336 0.0785778 0.0129154)
(0.00332488 0.0850985 0.0119584)
(0.00156229 0.0781798 0.00946676)
(0.000159557 0.0415382 0.00414634)
(3.78133e-05 0.0617809 0.00164077)
(-0.000460918 0.114478 0.00229843)
(-0.00138177 0.125992 0.00316553)
(-0.00240846 0.122512 0.00515423)
(-0.00348474 0.108931 0.00847916)
(-0.0041032 0.087303 0.0117573)
(-0.00407201 0.0626546 0.0130762)
(-0.00359049 0.039377 0.0123027)
(-0.00285893 0.0197001 0.0105222)
(-0.00199083 0.00388776 0.0086512)
(-0.00105081 -0.0086506 0.00706547)
(-7.71635e-05 -0.0186027 0.0058218)
(0.000909434 -0.0265073 0.00486942)
(0.00189407 -0.0327248 0.00414756)
(0.0028662 -0.0374866 0.00360858)
(0.0038161 -0.0409575 0.00321312)
(0.00473576 -0.0432509 0.00293243)
(0.00561839 -0.0444446 0.00274719)
(0.00646119 -0.0445804 0.0026468)
(0.0072609 -0.0436671 0.00262837)
(0.0080123 -0.0416796 0.00269635)
(0.00870364 -0.0385551 0.00286053)
(0.00931723 -0.0342111 0.00312916)
(0.00983167 -0.0285357 0.00351196)
(0.0102183 -0.0213737 0.00402543)
(0.0104405 -0.0125185 0.00469517)
(0.0104567 -0.00171087 0.00555617)
(0.0102007 0.0113644 0.00665339)
(0.00959549 0.0270551 0.00803198)
(0.00859737 0.045546 0.00966564)
(0.0071757 0.0659471 0.0112293)
(0.00519152 0.0839821 0.0119101)
(0.00323755 0.0918082 0.011106)
(0.00144508 0.0841847 0.00860117)
(0.000135864 0.044275 0.00352894)
(2.60035e-05 0.0608727 0.00239698)
(-0.000313948 0.114975 0.0043905)
(-0.00102339 0.12778 0.00583156)
(-0.00179091 0.123965 0.00788452)
(-0.00249548 0.108016 0.010697)
(-0.00265507 0.0829309 0.0126586)
(-0.0022701 0.0556848 0.0124504)
(-0.00162053 0.0313829 0.010701)
(-0.000863702 0.0117443 0.00859331)
(-4.88902e-05 -0.00359991 0.00676875)
(0.000803199 -0.0155719 0.00536712)
(0.00167432 -0.0249843 0.00432692)
(0.00255341 -0.0324008 0.00355592)
(0.00343055 -0.0381773 0.00298411)
(0.00429628 -0.0425401 0.00256513)
(0.00514009 -0.0456523 0.00226409)
(0.005956 -0.0476236 0.00205745)
(0.00674104 -0.0485206 0.00193107)
(0.00749108 -0.0483746 0.00187817)
(0.00820039 -0.0471829 0.00189828)
(0.00886105 -0.0449065 0.00199662)
(0.009461 -0.0414656 0.00218329)
(0.00998147 -0.0367472 0.00246892)
(0.0103966 -0.0305997 0.00286679)
(0.0106725 -0.022818 0.00339716)
(0.0107622 -0.0131296 0.00408856)
(0.0106004 -0.0011875 0.00497565)
(0.010123 0.0133767 0.00608874)
(0.00927172 0.0308716 0.00743179)
(0.0080009 0.05127 0.00893195)
(0.00632563 0.0732017 0.0102767)
(0.00427412 0.0918022 0.0107501)
(0.00242796 0.0990502 0.00981576)
(0.000935567 0.0893719 0.00732184)
(3.75894e-05 0.0461201 0.00280315)
(-3.32609e-05 0.0598101 0.00306258)
(-0.000368257 0.114161 0.00628847)
(-0.000952029 0.127199 0.00821004)
(-0.00150315 0.122309 0.010131)
(-0.00187663 0.103259 0.0120528)
(-0.00169508 0.0751637 0.0124222)
(-0.00116225 0.0466137 0.0108952)
(-0.000530165 0.0224162 0.0086086)
(0.000130175 0.00339528 0.00652591)
(0.00081473 -0.0113273 0.00494693)
(0.00152422 -0.0228096 0.0038215)
(0.00225669 -0.0318429 0.00302306)
(0.00300607 -0.0389425 0.00244909)
(0.0037621 -0.0444345 0.00203522)
(0.00451365 -0.0485358 0.00174305)
(0.00525115 -0.0514041 0.00154531)
(0.00596988 -0.0531447 0.001424)
(0.00666476 -0.0538197 0.00136885)
(0.00732963 -0.0534527 0.00137568)
(0.00795691 -0.0520293 0.00144555)
(0.00853669 -0.0494922 0.00158466)
(0.00905413 -0.0457338 0.00180426)
(0.00948794 -0.0406009 0.00211717)
(0.0098102 -0.0338886 0.00253996)
(0.00998385 -0.0253252 0.00309767)
(0.00996107 -0.0145617 0.00382431)
(0.00968449 -0.00118012 0.00475568)
(0.00908686 0.0152361 0.00590741)
(0.00810874 0.0349103 0.00723576)
(0.00673348 0.0574113 0.00858114)
(0.0050268 0.0805683 0.00958404)
(0.00316624 0.0987471 0.00966233)
(0.0016233 0.104523 0.00850696)
(0.000514977 0.0922885 0.00608417)
(9.77071e-07 0.0466128 0.00220588)
(-6.98139e-05 0.0589492 0.0035453)
(-0.000433567 0.112713 0.0077682)
(-0.00094186 0.125105 0.00999907)
(-0.00133805 0.118719 0.0115639)
(-0.0014996 0.0968356 0.0123124)
(-0.00119861 0.0671921 0.0112235)
(-0.000724636 0.0388872 0.00889562)
(-0.000231187 0.015678 0.00653027)
(0.000277797 -0.00242338 0.00470064)
(0.000818176 -0.0164993 0.00342773)
(0.00139389 -0.0275457 0.00256203)
(0.00200084 -0.0362565 0.00196561)
(0.00262699 -0.0430848 0.00154865)
(0.00325863 -0.0483345 0.00125917)
(0.00388587 -0.0522118 0.00106846)
(0.00450132 -0.0548696 0.000955839)
(0.0050997 -0.0564091 0.000907947)
(0.00567559 -0.0568853 0.000917775)
(0.00622265 -0.0563119 0.000983319)
(0.00673311 -0.0546605 0.00110702)
(0.00719695 -0.0518555 0.00129615)
(0.00759935 -0.0477639 0.00156341)
(0.0079191 -0.0421981 0.00192455)
(0.00812943 -0.0349126 0.00240087)
(0.0081963 -0.0255877 0.00302398)
(0.0080765 -0.0138232 0.00383474)
(0.00771857 0.000837582 0.00486991)
(0.00707662 0.0187822 0.00612536)
(0.00612288 0.0400478 0.00749758)
(0.00487012 0.0637263 0.00873148)
(0.00341196 0.08688 0.00942071)
(0.00198933 0.103424 0.00914396)
(0.000903487 0.107207 0.00782768)
(0.000206658 0.0926869 0.00549627)
(-1.28098e-05 0.0460178 0.00200934)
(-8.8925e-05 0.0583993 0.00366665)
(-0.00050402 0.111188 0.0084103)
(-0.00101119 0.122381 0.0106902)
(-0.00138267 0.114332 0.0117291)
(-0.00155532 0.0902518 0.0113181)
(-0.00139467 0.0601463 0.00926015)
(-0.00114387 0.0326157 0.00669873)
(-0.000859643 0.0103061 0.00457567)
(-0.000521983 -0.00720203 0.00310261)
(-0.000120554 -0.0209516 0.00214084)
(0.000338203 -0.0318056 0.00151412)
(0.000837306 -0.0403669 0.00109925)
(0.00135888 -0.0470523 0.000823394)
(0.00189022 -0.0521531 0.000647051)
(0.00242171 -0.0558782 0.00054906)
(0.00294489 -0.0583841 0.000513882)
(0.00345381 -0.0597715 0.000531728)
(0.00394279 -0.0600903 0.000597923)
(0.00440539 -0.0593459 0.000711814)
(0.00483395 -0.057498 0.00087651)
(0.00521889 -0.0544533 0.0010997)
(0.00554646 -0.0500554 0.00139452)
(0.00579794 -0.0440881 0.00177788)
(0.0059503 -0.036273 0.00227429)
(0.00597557 -0.0262611 0.00292151)
(0.00584151 -0.0136356 0.00376977)
(0.00551608 0.00204188 0.00486504)
(0.00497133 0.0210733 0.00620221)
(0.0041997 0.0432838 0.00765013)
(0.00323775 0.0673616 0.00889198)
(0.00217846 0.0898518 0.00947758)
(0.00122789 0.104616 0.00907897)
(0.000543877 0.106859 0.00775466)
(0.000120936 0.0912014 0.00550346)
(1.04361e-05 0.0448829 0.00209963)
(-8.00973e-05 0.0581169 0.00345292)
(-0.000519388 0.110071 0.00819407)
(-0.00105257 0.120211 0.0103047)
(-0.00149121 0.110959 0.0108308)
(-0.00182845 0.0858184 0.00962768)
(-0.00192976 0.0559777 0.00720319)
(-0.00194087 0.0291824 0.0048002)
(-0.00186481 0.0073835 0.00302743)
(-0.00168526 -0.00991395 0.00187575)
(-0.00140866 -0.0236075 0.00115419)
(-0.00105756 -0.0344423 0.000700435)
(-0.000656474 -0.0429694 0.000413366)
(-0.000225291 -0.0495898 0.000236258)
(0.0002209 -0.0546018 0.000138628)
(0.000670768 -0.0582261 0.000104656)
(0.00111576 -0.0606256 0.000122794)
(0.00154998 -0.0619019 0.000185955)
(0.00196805 -0.0621023 0.000291148)
(0.00236406 -0.0612263 0.00043859)
(0.00273129 -0.0592247 0.000631625)
(0.00306175 -0.0559921 0.000877689)
(0.00334427 -0.051357 0.00118926)
(0.00356462 -0.0450886 0.00158236)
(0.00370485 -0.0368949 0.00208156)
(0.00374424 -0.0264242 0.00272584)
(0.00366166 -0.0132778 0.00356888)
(0.00343863 0.00292561 0.00466402)
(0.00306583 0.0223682 0.00601695)
(0.00255256 0.0446889 0.00750487)
(0.00194043 0.0683426 0.0088052)
(0.0012998 0.0897004 0.0094502)
(0.000753876 0.102926 0.00912748)
(0.000367534 0.104316 0.00792002)
(0.000111317 0.0886579 0.00574802)
(3.09204e-05 0.0436137 0.00228425)
(-6.49402e-05 0.0580648 0.00300138)
(-0.000525086 0.109632 0.00733784)
(-0.00110477 0.119153 0.00915833)
(-0.00166259 0.109306 0.00930677)
(-0.00222684 0.083886 0.00774667)
(-0.0026038 0.054358 0.00536427)
(-0.00285771 0.0278198 0.003272)
(-0.00297156 0.00598301 0.00183241)
(-0.00294012 -0.01153 0.000939455)
(-0.00278473 -0.0254645 0.000402262)
(-0.00253668 -0.0364871 8.0568e-05)
(-0.00222481 -0.0451255 -0.000108529)
(-0.00187199 -0.0517911 -0.000210826)
(-0.00149578 -0.0568026 -0.000250468)
(-0.00110883 -0.0603991 -0.000239596)
(-0.000720001 -0.0627547 -0.000186925)
(-0.000335552 -0.0639764 -9.77624e-05)
(3.93086e-05 -0.0641125 2.59465e-05)
(0.000399216 -0.0631603 0.00018481)
(0.000738567 -0.0610657 0.00038197)
(0.00105155 -0.0577156 0.00062404)
(0.0013298 -0.0529296 0.00092198)
(0.00156272 -0.0464687 0.00128985)
(0.00173778 -0.0380377 0.0017503)
(0.00184146 -0.0272934 0.00234057)
(0.00185962 -0.0138752 0.00311347)
(0.00178314 0.00252075 0.00412653)
(0.00161118 0.0219562 0.00540131)
(0.0013559 0.0439284 0.00684696)
(0.00105352 0.0668035 0.00817884)
(0.000746767 0.0870437 0.00894446)
(0.00048134 0.0992856 0.00880214)
(0.000279391 0.100483 0.0077939)
(0.000114817 0.0856257 0.0057686)
(4.26032e-05 0.042359 0.00234828)
(-4.39814e-05 0.0582264 0.00245303)
(-0.000511957 0.109999 0.0061764)
(-0.00113118 0.119465 0.0076855)
(-0.00180153 0.109677 0.00763161)
(-0.00256758 0.0845653 0.00605185)
(-0.00317268 0.0552811 0.00391586)
(-0.00362819 0.0286198 0.00215135)
(-0.00390924 0.00636457 0.000981128)
(-0.00401667 -0.0116587 0.000275033)
(-0.00397828 -0.0260513 -0.000137021)
(-0.00382917 -0.0374219 -0.000372991)
(-0.00360128 -0.0462976 -0.000501378)
(-0.00332063 -0.0531107 -0.000559512)
(-0.00300689 -0.0582059 -0.000566816)
(-0.00267412 -0.0618456 -0.00053286)
(-0.0023319 -0.0642198 -0.00046451)
(-0.00198678 -0.0654452 -0.000365939)
(-0.00164393 -0.0655748 -0.000238543)
(-0.00130787 -0.0646071 -8.17029e-05)
(-0.000982844 -0.0624875 0.000107121)
(-0.000673136 -0.0591007 0.000333242)
(-0.000384464 -0.0542634 0.000605527)
(-0.000122552 -0.047734 0.000935155)
(0.000106571 -0.0392207 0.00134074)
(0.000292625 -0.028395 0.00185405)
(0.000421579 -0.0149354 0.0025216)
(0.000490054 0.00139122 0.00339798)
(0.000501651 0.0205424 0.00451511)
(0.000462861 0.0419143 0.00581825)
(0.000398808 0.0638748 0.00708519)
(0.00033152 0.0831224 0.00791684)
(0.000254467 0.0948041 0.00795316)
(0.000174102 0.0961723 0.00717381)
(8.17438e-05 0.0824489 0.00539161)
(3.91159e-05 0.0411379 0.00223016)
(-2.50829e-05 0.0585769 0.00189811)
(-0.000491929 0.111113 0.00494726)
(-0.00113904 0.121008 0.00617409)
(-0.00189344 0.111714 0.00605075)
(-0.00280651 0.0871992 0.00463334)
(-0.00358395 0.0580074 0.00280716)
(-0.00420114 0.0309047 0.00133647)
(-0.00462564 0.0079272 0.000378093)
(-0.00485842 -0.0108542 -0.000188899)
(-0.00492778 -0.0259027 -0.000509696)
(-0.00486975 -0.0377814 -0.000684213)
(-0.00471872 -0.0470238 -0.000770516)
(-0.00450292 -0.0540887 -0.000800025)
(-0.00424387 -0.0593519 -0.000788851)
(-0.00395707 -0.0631047 -0.00074474)
(-0.00365294 -0.0655581 -0.000673215)
(-0.00333842 -0.0668428 -0.000577713)
(-0.00301856 -0.0670198 -0.000459363)
(-0.00269733 -0.0660925 -0.00031769)
(-0.00237798 -0.0640089 -0.000150791)
(-0.00206331 -0.060655 4.53899e-05)
(-0.00175682 -0.0558478 0.00027761)
(-0.00146178 -0.049345 0.000554169)
(-0.0011821 -0.0408562 0.000889976)
(-0.000922987 -0.0300682 0.00131084)
(-0.000691483 -0.0166884 0.0018555)
(-0.000492734 -0.000539672 0.00257092)
(-0.000328537 0.0182601 0.00349177)
(-0.000196219 0.0390392 0.00459082)
(-8.66896e-05 0.0601995 0.00570852)
(4.38582e-06 0.0787038 0.00652158)
(5.11549e-05 0.09015 0.00668638)
(5.89222e-05 0.0918643 0.00612919)
(3.12537e-05 0.0793242 0.00466367)
(2.93516e-05 0.0399486 0.00195316)
(-7.55571e-06 0.0590533 0.00139597)
(-0.000452062 0.112797 0.00380136)
(-0.00110398 0.12354 0.00479353)
(-0.00190124 0.115039 0.00468218)
(-0.00289675 0.0913729 0.00350689)
(-0.00379399 0.0622552 0.00199463)
(-0.00453618 0.03457 0.000775794)
(-0.00508116 0.0107059 -1.87442e-05)
(-0.0054245 -0.00899227 -0.000486337)
(-0.0055915 -0.0248431 -0.000746787)
(-0.00561761 -0.0373593 -0.000884229)
(-0.00553797 -0.047079 -0.000948171)
(-0.00538234 -0.0544873 -0.000965247)
(-0.00517394 -0.0599934 -0.000948874)
(-0.00492973 -0.0639209 -0.000905364)
(-0.00466112 -0.0665061 -0.000839274)
(-0.00437554 -0.0678976 -0.000753624)
(-0.00407807 -0.0681679 -0.000649481)
(-0.00377232 -0.0673281 -0.000526617)
(-0.00346083 -0.0653315 -0.000383786)
(-0.00314528 -0.0620689 -0.0002183)
(-0.00282749 -0.0573604 -2.55652e-05)
(-0.00250865 -0.0509654 0.000199971)
(-0.00219043 -0.042594 0.000469192)
(-0.00187456 -0.0319392 0.000801802)
(-0.001565 -0.0187319 0.0012278)
(-0.00126766 -0.00282983 0.00178548)
(-0.000987962 0.015604 0.00250688)
(-0.000729162 0.0358592 0.00338212)
(-0.000492737 0.0563785 0.00430362)
(-0.00028759 0.0743556 0.00502742)
(-0.000146931 0.0857479 0.00525682)
(-6.48421e-05 0.0878486 0.00488851)
(-2.45353e-05 0.0763878 0.00376092)
(2.05486e-05 0.0388107 0.00159492)
(4.9216e-06 0.05958 0.000974246)
(-0.000399594 0.114806 0.00281368)
(-0.00103507 0.126706 0.0036164)
(-0.00183749 0.119149 0.00355269)
(-0.00285933 0.0964988 0.00263135)
(-0.0038306 0.0674761 0.00140604)
(-0.00466264 0.0391422 0.00039789)
(-0.00530219 0.0142904 -0.000268377)
(-0.00573751 -0.00643842 -0.000662034)
(-0.0059892 -0.023208 -0.000879505)
(-0.00609009 -0.0364704 -0.000991989)
(-0.0060747 -0.0467618 -0.00104253)
(-0.00597354 -0.0545918 -0.00105427)
(-0.00581119 -0.0604037 -0.00103857)
(-0.00560596 -0.0645562 -0.00100066)
(-0.00537033 -0.0673147 -0.000944311)
(-0.00511232 -0.0688493 -0.000872279)
(-0.00483713 -0.0692471 -0.000785643)
(-0.00454816 -0.068529 -0.000684329)
(-0.00424749 -0.0666559 -0.000567513)
(-0.00393607 -0.0635248 -0.000433453)
(-0.00361453 -0.0589613 -0.000279188)
(-0.00328251 -0.0527272 -0.000101443)
(-0.00293998 -0.0445324 0.000107178)
(-0.00258728 -0.0340707 0.000361038)
(-0.00222519 -0.0210812 0.000682659)
(-0.00185852 -0.0054425 0.0011014)
(-0.00149652 0.0126626 0.00164451)
(-0.00114771 0.0325103 0.00231142)
(-0.000821524 0.0525821 0.00303287)
(-0.000532604 0.0702477 0.00363434)
(-0.00031543 0.0817245 0.00387924)
(-0.000169726 0.0842216 0.0036592)
(-6.88736e-05 0.0737157 0.00284572)
(1.42742e-05 0.0377539 0.00122347)
(1.40649e-05 0.0600826 0.000644863)
(-0.0003342 0.116903 0.002018)
(-0.000931831 0.130184 0.00266974)
(-0.00170598 0.12367 0.00266234)
(-0.00270743 0.102198 0.00197392)
(-0.00371079 0.0733819 0.000999641)
(-0.00459722 0.0444446 0.000167207)
(-0.00530406 0.0185977 -0.000398457)
(-0.00581199 -0.00320729 -0.000738922)
(-0.00613468 -0.0209649 -0.000929087)
(-0.00630075 -0.0350508 -0.00102858)
(-0.00634287 -0.0459871 -0.00107484)
(-0.00629151 -0.0543024 -0.00108811)
(-0.00617205 -0.0604723 -0.00107814)
(-0.00600388 -0.0648909 -0.00104929)
(-0.00580047 -0.0678554 -0.00100476)
(-0.00557049 -0.0695606 -0.000947156)
(-0.00531938 -0.0701109 -0.000877642)
(-0.0050505 -0.0695386 -0.0007963)
(-0.00476565 -0.067814 -0.000702616)
(-0.00446535 -0.0648423 -0.000595565)
(-0.00414938 -0.0604561 -0.000473424)
(-0.00381634 -0.054421 -0.000334655)
(-0.00346483 -0.046447 -0.000174754)
(-0.00309398 -0.0362256 1.60136e-05)
(-0.00270406 -0.0234941 0.000253711)
(-0.00229685 -0.00813493 0.000559998)
(-0.00188174 0.00966595 0.000956287)
(-0.00147279 0.0291899 0.00144678)
(-0.00108431 0.0489579 0.00198903)
(-0.000733891 0.0664681 0.00246361)
(-0.000454466 0.0781155 0.00269309)
(-0.000255155 0.081001 0.00258)
(-0.000107451 0.0713324 0.00202982)
(5.54444e-06 0.0367979 0.000886513)
(1.90853e-05 0.0605128 0.000406125)
(-0.000267389 0.118904 0.00141884)
(-0.000812818 0.133685 0.00195197)
(-0.00153487 0.128261 0.00199438)
(-0.00248262 0.108062 0.001499)
(-0.0034813 0.0795701 0.000732186)
(-0.00438776 0.0501148 4.14736e-05)
(-0.00513333 0.0233128 -0.000446635)
(-0.00569162 0.000428342 -0.000748561)
(-0.00606843 -0.0183511 -0.00092034)
(-0.00628728 -0.0333095 -0.00101206)
(-0.00637797 -0.0449415 -0.001057)
(-0.00637004 -0.053788 -0.00107349)
(-0.00628899 -0.0603539 -0.0010702)
(-0.00615484 -0.0650682 -0.00105086)
(-0.00598181 -0.0682612 -0.00101816)
(-0.00577913 -0.0701548 -0.000974583)
(-0.00555254 -0.0708726 -0.000921359)
(-0.00530541 -0.0704603 -0.000858647)
(-0.00503947 -0.0688981 -0.000786097)
(-0.00475496 -0.0661006 -0.000703092)
(-0.00445119 -0.0619087 -0.00060868)
(-0.00412615 -0.0560925 -0.000502369)
(-0.00377753 -0.0483624 -0.000381656)