/*--------------------------------*- C++ -*----------------------------------*\
| =========                 |                                                 |
| \\      /  F ield         | OpenFOAM: The Open Source CFD Toolbox           |
|  \\    /   O peration     | Version:  v2006                                 |
|   \\  /    A nd           | Website:  www.openfoam.com                      |
|    \\/     M anipulation  |                                                 |
\*---------------------------------------------------------------------------*/
FoamFile
{
    version     2.0;
    format      ascii;
    class       volScalarField;
    location    "48";
    object      nut;
}
// * * * * * * * * * * * * * * * * * * * * * * * * * * * * * * * * * * * * * //

dimensions      [0 2 -1 0 0 0 0];


internalField   nonuniform List<scalar> 
78750
(
3.59483e-09
1.83317e-07
2.11117e-07
2.15889e-07
2.11456e-07
2.01021e-07
1.86673e-07
1.70793e-07
1.5561e-07
1.42625e-07
1.32425e-07
1.24999e-07
1.20115e-07
1.17511e-07
1.16933e-07
1.1804e-07
1.2074e-07
1.24903e-07
1.30422e-07
1.37212e-07
1.45199e-07
1.54307e-07
1.64436e-07
1.75439e-07
1.87075e-07
1.98952e-07
2.10434e-07
2.2053e-07
2.27716e-07
2.29755e-07
2.23641e-07
2.05978e-07
1.74122e-07
1.32293e-07
4.14728e-09
7.68877e-10
4.85059e-07
1.19471e-06
1.68471e-06
2.08219e-06
2.36287e-06
2.5261e-06
2.58701e-06
2.56722e-06
2.48895e-06
2.37234e-06
2.23497e-06
2.09183e-06
1.95505e-06
1.83294e-06
1.73097e-06
1.65403e-06
1.60545e-06
1.58558e-06
1.59263e-06
1.62244e-06
1.66897e-06
1.72519e-06
1.78394e-06
1.83844e-06
1.88201e-06
1.90708e-06
1.90389e-06
1.86018e-06
1.58847e-06
9.3723e-07
6.11046e-07
5.87191e-07
8.93352e-07
1.71197e-08
1.28159e-09
1.09264e-06
2.44109e-06
3.58899e-06
4.66208e-06
5.59926e-06
6.36674e-06
6.95136e-06
7.35301e-06
7.57892e-06
7.64024e-06
7.55033e-06
7.32425e-06
6.9784e-06
6.53298e-06
6.00998e-06
5.43271e-06
4.82602e-06
4.21566e-06
3.62921e-06
3.09654e-06
2.64383e-06
2.29235e-06
2.05655e-06
1.94032e-06
1.93629e-06
2.02186e-06
2.08329e-06
1.77231e-06
1.37826e-06
1.04302e-06
8.90647e-07
1.17943e-06
1.13863e-06
2.81533e-08
2.20296e-09
1.58771e-06
3.54523e-06
5.81883e-06
8.30679e-06
9.94412e-06
1.13399e-05
1.25138e-05
1.34627e-05
1.41888e-05
1.46977e-05
1.49972e-05
1.50977e-05
1.44158e-05
1.34898e-05
1.26134e-05
1.1785e-05
1.10153e-05
1.03241e-05
9.7189e-06
9.19884e-06
8.71903e-06
7.87673e-06
6.76995e-06
5.68969e-06
4.67549e-06
3.7848e-06
2.51772e-06
1.56825e-06
1.07623e-06
8.77269e-07
9.16067e-07
1.63129e-06
1.16484e-06
3.81738e-08
2.94532e-09
1.82484e-06
3.90269e-06
6.25269e-06
9.00033e-06
1.22678e-05
1.39879e-05
1.53112e-05
1.63934e-05
1.72477e-05
1.78863e-05
1.83216e-05
1.85651e-05
1.86282e-05
1.85218e-05
1.82563e-05
1.7842e-05
1.62516e-05
1.47733e-05
1.35109e-05
1.24234e-05
1.14669e-05
1.05904e-05
9.72116e-06
8.7499e-06
7.54026e-06
5.98947e-06
4.18747e-06
2.5632e-06
1.5338e-06
1.08355e-06
1.10482e-06
2.22757e-06
1.15619e-06
4.90033e-08
4.43459e-09
1.67815e-06
3.65992e-06
6.07963e-06
9.03735e-06
1.26886e-05
1.66288e-05
1.79753e-05
1.90546e-05
1.98848e-05
2.04828e-05
2.08652e-05
2.10476e-05
2.10457e-05
2.08751e-05
2.05518e-05
1.92027e-05
1.73001e-05
1.55637e-05
1.4045e-05
1.27225e-05
1.15676e-05
1.05508e-05
9.62505e-06
8.69664e-06
7.62342e-06
6.27362e-06
4.67075e-06
3.10886e-06
1.96957e-06
1.38917e-06
1.39447e-06
2.88178e-06
1.19254e-06
5.90082e-08
5.89645e-09
1.70498e-06
3.76933e-06
6.44499e-06
9.91756e-06
1.43526e-05
1.91546e-05
2.05251e-05
2.15998e-05
2.24043e-05
2.29609e-05
2.329e-05
2.341e-05
2.33378e-05
2.30895e-05
2.26278e-05
2.03013e-05
1.8056e-05
1.60926e-05
1.43888e-05
1.29003e-05
1.15869e-05
1.04176e-05
9.35813e-06
8.34187e-06
7.258e-06
6.00113e-06
4.58503e-06
3.22156e-06
2.19346e-06
1.65001e-06
1.74053e-06
3.61619e-06
1.23779e-06
6.83859e-08
7.93305e-09
1.70057e-06
3.81603e-06
6.7107e-06
1.06357e-05
1.56712e-05
2.1105e-05
2.27694e-05
2.37793e-05
2.4512e-05
2.49947e-05
2.52509e-05
2.53012e-05
2.51639e-05
2.46941e-05
2.22583e-05
1.98539e-05
1.77144e-05
1.58409e-05
1.41984e-05
1.27425e-05
1.14328e-05
1.02388e-05
9.13339e-06
8.06762e-06
6.95602e-06
5.72757e-06
4.41726e-06
3.20359e-06
2.30048e-06
1.84125e-06
2.06071e-06
4.24832e-06
1.2928e-06
7.68528e-08
9.93339e-09
1.72537e-06
3.91894e-06
7.04832e-06
1.14405e-05
1.70764e-05
2.28955e-05
2.46245e-05
2.55892e-05
2.62693e-05
2.66941e-05
2.68887e-05
2.68745e-05
2.66707e-05
2.4208e-05
2.16552e-05
1.93424e-05
1.73012e-05
1.55073e-05
1.39156e-05
1.24804e-05
1.11656e-05
9.9473e-06
8.80941e-06
7.71715e-06
6.60093e-06
5.4133e-06
4.20516e-06
3.13207e-06
2.35913e-06
2.00801e-06
2.39402e-06
4.76186e-06
1.34294e-06
8.45038e-08
1.20925e-08
1.73009e-06
3.96394e-06
7.26299e-06
1.20321e-05
1.81461e-05
2.42148e-05
2.63507e-05
2.72817e-05
2.79232e-05
2.8306e-05
2.84563e-05
2.83962e-05
2.60734e-05
2.34724e-05
2.10399e-05
1.88617e-05
1.69401e-05
1.52377e-05
1.37051e-05
1.22984e-05
1.09846e-05
9.74326e-06
8.56666e-06
7.43572e-06
6.29967e-06
5.13427e-06
4.00289e-06
3.04232e-06
2.3823e-06
2.13772e-06
2.69443e-06
5.12254e-06
1.39084e-06
9.14016e-08
1.43212e-08
1.74657e-06
4.03977e-06
7.53771e-06
1.27189e-05
1.92982e-05
2.55111e-05
2.78688e-05
2.87626e-05
2.93633e-05
2.9703e-05
2.98085e-05
2.79213e-05
2.53387e-05
2.28029e-05
2.04832e-05
1.84206e-05
1.65954e-05
1.49618e-05
1.34711e-05
1.20831e-05
1.07677e-05
9.50947e-06
8.30925e-06
7.16006e-06
6.02273e-06
4.88922e-06
3.83026e-06
2.96726e-06
2.40641e-06
2.26474e-06
2.99963e-06
5.35236e-06
1.43232e-06
9.77047e-08
1.66213e-08
1.76422e-06
4.10947e-06
7.77713e-06
1.33013e-05
2.02266e-05
2.64827e-05
2.93082e-05
3.01774e-05
3.07512e-05
3.10621e-05
2.97838e-05
2.73444e-05
2.47671e-05
2.23193e-05
2.01049e-05
1.81369e-05
1.63832e-05
1.47957e-05
1.33272e-05
1.19399e-05
1.0607e-05
9.3175e-06
8.08157e-06
6.90664e-06
5.76635e-06
4.66471e-06
3.67302e-06
2.89624e-06
2.42303e-06
2.37726e-06
3.28374e-06
5.48993e-06
1.46954e-06
1.03473e-07
1.88857e-08
1.78246e-06
4.17533e-06
7.9962e-06
1.38288e-05
2.10396e-05
2.72803e-05
3.06369e-05
3.14855e-05
3.20361e-05
3.14109e-05
2.92999e-05
2.68039e-05
2.42802e-05
2.19223e-05
1.98027e-05
1.79171e-05
1.62258e-05
1.46786e-05
1.32288e-05
1.18399e-05
1.04875e-05
9.16577e-06
7.89502e-06
6.69649e-06
5.55424e-06
4.48153e-06
3.54813e-06
2.8446e-06
2.44734e-06
2.49075e-06
3.56527e-06
5.55756e-06
1.50197e-06
1.08891e-07
2.12498e-08
1.8043e-06
4.24499e-06
8.20943e-06
1.43149e-05
2.17349e-05
2.78879e-05
3.14987e-05
3.27549e-05
3.2567e-05
3.10706e-05
2.88678e-05
2.63809e-05
2.39147e-05
2.1636e-05
1.95955e-05
1.7777e-05
1.61353e-05
1.46181e-05
1.31786e-05
1.17809e-05
1.04031e-05
9.04483e-06
7.73647e-06
6.51356e-06
5.36982e-06
4.32454e-06
3.44327e-06
2.80349e-06
2.47302e-06
2.59889e-06
3.8332e-06
5.58641e-06
1.53092e-06
1.14e-07
2.35419e-08
1.82392e-06
4.30343e-06
8.38521e-06
1.47143e-05
2.22949e-05
2.83551e-05
3.17397e-05
3.28852e-05
3.23798e-05
3.07541e-05
2.84964e-05
2.6019e-05
2.36069e-05
2.14012e-05
1.94336e-05
1.7677e-05
1.60809e-05
1.45905e-05
1.31585e-05
1.17494e-05
1.03438e-05
8.94743e-06
7.60194e-06
6.35671e-06
5.21323e-06
4.19429e-06
3.35986e-06
2.77595e-06
2.50483e-06
2.70796e-06
4.09622e-06
5.58649e-06
1.55649e-06
1.18878e-07
2.59346e-08
1.84437e-06
4.36159e-06
8.55627e-06
1.50936e-05
2.27961e-05
2.87346e-05
3.18971e-05
3.28283e-05
3.21569e-05
3.04319e-05
2.81464e-05
2.57003e-05
2.33539e-05
2.12241e-05
1.93274e-05
1.76287e-05
1.6074e-05
1.46065e-05
1.31781e-05
1.17538e-05
1.03167e-05
8.87869e-06
7.4929e-06
6.22331e-06
5.07875e-06
4.08356e-06
3.29092e-06
2.75639e-06
2.53853e-06
2.81398e-06
4.34856e-06
5.57398e-06
1.57964e-06
1.2354e-07
2.82933e-08
1.86266e-06
4.41176e-06
8.70299e-06
1.54179e-05
2.32172e-05
2.90465e-05
3.20196e-05
3.27677e-05
3.1954e-05
3.01476e-05
2.78454e-05
2.54336e-05
2.31495e-05
2.10891e-05
1.92563e-05
1.76097e-05
1.60919e-05
1.46441e-05
1.32171e-05
1.17761e-05
1.03064e-05
8.82648e-06
7.40094e-06
6.10794e-06
4.96259e-06
3.98957e-06
3.23497e-06
2.74503e-06
2.57607e-06
2.92064e-06
4.59645e-06
5.55095e-06
1.60047e-06
1.28017e-07
3.07457e-08
1.88052e-06
4.46e-06
8.84508e-06
1.57302e-05
2.36068e-05
2.93121e-05
3.20977e-05
3.26762e-05
3.17407e-05
2.98748e-05
2.75737e-05
2.52075e-05
2.29905e-05
2.10001e-05
1.92299e-05
1.76333e-05
1.615e-05
1.47193e-05
1.32911e-05
1.18305e-05
1.03252e-05
8.8003e-06
7.33202e-06
6.01297e-06
4.86425e-06
3.90985e-06
3.18867e-06
2.73848e-06
2.6143e-06
3.02456e-06
4.83509e-06
5.5265e-06
1.61977e-06
1.32317e-07
3.32029e-08
1.89686e-06
4.50403e-06
8.97587e-06
1.60165e-05
2.39562e-05
2.95443e-05
3.21609e-05
3.25887e-05
3.15475e-05
2.96338e-05
2.73401e-05
2.50203e-05
2.28678e-05
2.09434e-05
1.92314e-05
1.76811e-05
1.62295e-05
1.48138e-05
1.33829e-05
1.19016e-05
1.03599e-05
8.78973e-06
7.27875e-06
5.93362e-06
4.78067e-06
3.84261e-06
3.15138e-06
2.73736e-06
2.65505e-06
3.1291e-06
5.07049e-06
5.49963e-06
1.63756e-06
1.36451e-07
3.57523e-08
1.91289e-06
4.54726e-06
9.1054e-06
1.62981e-05
2.4288e-05
2.97507e-05
3.22023e-05
3.24913e-05
3.13603e-05
2.94143e-05
2.71396e-05
2.48727e-05
2.27865e-05
2.09274e-05
1.92721e-05
1.7766e-05
1.63439e-05
1.49415e-05
1.35057e-05
1.20012e-05
1.04205e-05
8.80245e-06
7.24611e-06
5.87223e-06
4.71214e-06
3.78674e-06
3.12126e-06
2.73945e-06
2.69589e-06
3.23125e-06
5.29825e-06
5.47552e-06
1.65434e-06
1.40423e-07
3.83248e-08
1.92798e-06
4.58855e-06
9.23043e-06
1.65679e-05
2.4598e-05
2.99381e-05
3.22362e-05
3.23992e-05
3.11899e-05
2.92202e-05
2.69688e-05
2.4755e-05
2.27333e-05
2.09369e-05
1.93359e-05
1.78723e-05
1.64785e-05
1.50887e-05
1.36481e-05
1.212e-05
1.04996e-05
8.83281e-06
7.23024e-06
5.82652e-06
4.65741e-06
3.7418e-06
3.09864e-06
2.74592e-06
2.73884e-06
3.33427e-06
5.52387e-06
5.45258e-06
1.67021e-06
1.4424e-07
4.09855e-08
1.94307e-06
4.6302e-06
9.35709e-06
1.68381e-05
2.48977e-05
3.01096e-05
3.22591e-05
3.23066e-05
3.10319e-05
2.90499e-05
2.68294e-05
2.46723e-05
2.27154e-05
2.09804e-05
1.94319e-05
1.80087e-05
1.66419e-05
1.52635e-05
1.38169e-05
1.22641e-05
1.06026e-05
8.88547e-06
7.23473e-06
5.79866e-06
4.61745e-06
3.70773e-06
3.08272e-06
2.75545e-06
2.78215e-06
3.43577e-06
5.74388e-06
5.4342e-06
1.68553e-06
1.47908e-07
4.36729e-08
1.95761e-06
4.67116e-06
9.48269e-06
1.71034e-05
2.51846e-05
3.02703e-05
3.22797e-05
3.22216e-05
3.089e-05
2.89017e-05
2.67149e-05
2.46141e-05
2.27202e-05
2.10449e-05
1.95475e-05
1.81644e-05
1.68247e-05
1.54579e-05
1.40052e-05
1.24277e-05
1.07246e-05
8.95634e-06
7.25663e-06
5.787e-06
4.5916e-06
3.68471e-06
3.0744e-06
2.76947e-06
2.82774e-06
3.5384e-06
5.96222e-06
5.4181e-06
1.70022e-06
1.5143e-07
4.64409e-08
1.97237e-06
4.7132e-06
9.61175e-06
1.73724e-05
2.54663e-05
3.0422e-05
3.22963e-05
3.21414e-05
3.07629e-05
2.87763e-05
2.66278e-05
2.45847e-05
2.27532e-05
2.1136e-05
1.96881e-05
1.8344e-05
1.70307e-05
1.5675e-05
1.42157e-05
1.26129e-05
1.08679e-05
9.0481e-06
7.29832e-06
5.79316e-06
4.58076e-06
3.67304e-06
3.07348e-06
2.78747e-06
2.87485e-06
3.64103e-06
6.17736e-06
5.4076e-06
1.71478e-06
1.54819e-07
4.92335e-08
1.98683e-06
4.75531e-06
9.74191e-06
1.76409e-05
2.57412e-05
3.05687e-05
3.23147e-05
3.20706e-05
3.06513e-05
2.86701e-05
2.65607e-05
2.45745e-05
2.2804e-05
2.12439e-05
1.98453e-05
1.85405e-05
1.72541e-05
1.591e-05
1.44442e-05
1.28158e-05
1.10285e-05
9.15674e-06
7.3567e-06
5.81535e-06
4.58428e-06
3.67298e-06
3.08088e-06
2.81069e-06
2.92488e-06
3.74553e-06
6.39217e-06
5.40041e-06
1.72902e-06
1.58079e-07
5.20969e-08
2.00166e-06
4.79898e-06
9.87685e-06
1.79157e-05
2.60152e-05
3.07124e-05
3.23346e-05
3.20081e-05
3.05547e-05
2.85834e-05
2.65152e-05
2.45857e-05
2.28749e-05
2.13707e-05
2.00208e-05
1.87551e-05
1.74959e-05
1.61639e-05
1.4692e-05
1.30379e-05
1.1208e-05
9.28419e-06
7.43338e-06
5.85452e-06
4.60261e-06
3.68469e-06
3.09664e-06
2.83918e-06
2.97778e-06
3.85103e-06
6.60388e-06
5.39743e-06
1.74309e-06
1.61225e-07
5.49814e-08
2.01634e-06
4.84314e-06
1.00143e-05
1.8193e-05
2.62865e-05
3.08552e-05
3.23593e-05
3.19555e-05
3.04715e-05
2.85113e-05
2.64835e-05
2.46092e-05
2.29572e-05
2.15086e-05
2.02077e-05
1.8982e-05
1.77511e-05
1.64321e-05
1.49547e-05
1.3275e-05
1.14024e-05
9.42671e-06
7.52544e-06
5.90891e-06
4.635e-06
3.70826e-06
3.12141e-06
2.87389e-06
3.03487e-06
3.9607e-06
6.82235e-06
5.40243e-06
1.75746e-06
1.64269e-07
5.79251e-08
2.03133e-06
4.88881e-06
1.01569e-05
1.84783e-05
2.65609e-05
3.10007e-05
3.23906e-05
3.1914e-05
3.04021e-05
2.84538e-05
2.64657e-05
2.46453e-05
2.30507e-05
2.16572e-05
2.04055e-05
1.92207e-05
1.80192e-05
1.67144e-05
1.52324e-05
1.35278e-05
1.16125e-05
9.5847e-06
7.63313e-06
5.97842e-06
4.68118e-06
3.74344e-06
3.15517e-06
2.91501e-06
3.09646e-06
4.07456e-06
7.04525e-06
5.41517e-06
1.77241e-06
1.67232e-07
6.08835e-08
2.04607e-06
4.93465e-06
1.03021e-05
1.87679e-05
2.68372e-05
3.11512e-05
3.24308e-05
3.1883e-05
3.03426e-05
2.84042e-05
2.64538e-05
2.46857e-05
2.3148e-05
2.18098e-05
2.06083e-05
1.94656e-05
1.8295e-05
1.70056e-05
1.55201e-05
1.37913e-05
1.1834e-05
9.75476e-06
7.7538e-06
6.06133e-06
4.74018e-06
3.78992e-06
3.19815e-06
2.96328e-06
3.16382e-06
4.19448e-06
7.27406e-06
5.43337e-06
1.78782e-06
1.7012e-07
6.3886e-08
2.0608e-06
4.98111e-06
1.04509e-05
1.90656e-05
2.71227e-05
3.13147e-05
3.24856e-05
3.18639e-05
3.0292e-05
2.83613e-05
2.64469e-05
2.47301e-05
2.32487e-05
2.19659e-05
2.08152e-05
1.97156e-05
1.8577e-05
1.73045e-05
1.58166e-05
1.40646e-05
1.20661e-05
9.93641e-06
7.88694e-06
6.15715e-06
4.81152e-06
3.84735e-06
3.2502e-06
3.01873e-06
3.23701e-06
4.32029e-06
7.50814e-06
5.45741e-06
1.80383e-06
1.7295e-07
6.68943e-08
2.07506e-06
5.0269e-06
1.05996e-05
1.93614e-05
2.7401e-05
3.14685e-05
3.25365e-05
3.18456e-05
3.02415e-05
2.83171e-05
2.6438e-05
2.47722e-05
2.33472e-05
2.21204e-05
2.10215e-05
1.99664e-05
1.88613e-05
1.76067e-05
1.61174e-05
1.4343e-05
1.23043e-05
1.01254e-05
8.02897e-06
6.26344e-06
4.89375e-06
3.91505e-06
3.31134e-06
3.08206e-06
3.31756e-06
4.45452e-06
7.75039e-06
5.48641e-06
1.82039e-06
1.75727e-07
6.99323e-08
2.08914e-06
5.07264e-06
1.07497e-05
1.96573e-05
2.76631e-05
3.16058e-05
3.2574e-05
3.18227e-05
3.01896e-05
2.82721e-05
2.64279e-05
2.48122e-05
2.34431e-05
2.22724e-05
2.12262e-05
2.02167e-05
1.91462e-05
1.79107e-05
1.64209e-05
1.46249e-05
1.2547e-05
1.03204e-05
8.17897e-06
6.37927e-06
4.98602e-06
3.99235e-06
3.38107e-06
3.15284e-06
3.40485e-06
4.59657e-06
7.99941e-06
5.51993e-06
1.8375e-06
1.78463e-07
7.29713e-08
2.10276e-06
5.11744e-06
1.08978e-05
1.99458e-05
2.791e-05
3.1729e-05
3.26001e-05
3.17903e-05
3.01342e-05
2.82235e-05
2.64121e-05
2.48452e-05
2.35316e-05
2.24177e-05
2.14252e-05
2.04628e-05
1.94285e-05
1.82134e-05
1.6724e-05
1.4907e-05
1.27908e-05
1.0518e-05
8.33383e-06
6.50233e-06
5.0868e-06
4.07846e-06
3.45925e-06
3.23159e-06
3.50061e-06
4.75036e-06
8.25756e-06
5.55705e-06
1.855e-06
1.8116e-07
7.60344e-08
2.11621e-06
5.162e-06
1.10448e-05
2.02256e-05
2.81399e-05
3.18353e-05
3.26114e-05
3.17463e-05
3.00731e-05
2.81695e-05
2.63898e-05
2.48708e-05
2.36121e-05
2.25547e-05
2.16165e-05
2.07023e-05
1.97056e-05
1.85121e-05
1.70243e-05
1.51873e-05
1.3034e-05
1.07168e-05
8.49223e-06
6.63115e-06
5.19475e-06
4.17233e-06
3.54529e-06
3.3183e-06
3.60526e-06
4.91602e-06
8.52631e-06
5.59853e-06
1.87305e-06
1.83827e-07
7.91022e-08
2.12953e-06
5.20702e-06
1.11932e-05
2.0499e-05
2.83554e-05
3.19273e-05
3.26098e-05
3.169e-05
2.99997e-05
2.81045e-05
2.63576e-05
2.48863e-05
2.3682e-05
2.26809e-05
2.17975e-05
2.09324e-05
1.99745e-05
1.88041e-05
1.73188e-05
1.54628e-05
1.32737e-05
1.09142e-05
8.65191e-06
6.76398e-06
5.30855e-06
4.27303e-06
3.63864e-06
3.41276e-06
3.7189e-06
5.09382e-06
8.80568e-06
5.64319e-06
1.89153e-06
1.86463e-07
8.21816e-08
2.14245e-06
5.2519e-06
1.13438e-05
2.07626e-05
2.85535e-05
3.20021e-05
3.25925e-05
3.16204e-05
2.99164e-05
2.80329e-05
2.63192e-05
2.4894e-05
2.3742e-05
2.27959e-05
2.19667e-05
2.11513e-05
2.0233e-05
1.90867e-05
1.76051e-05
1.57313e-05
1.3508e-05
1.11086e-05
8.81175e-06
6.89989e-06
5.4273e-06
4.37979e-06
3.73879e-06
3.51483e-06
3.84175e-06
5.28439e-06
9.0961e-06
5.69127e-06
1.9105e-06
1.89072e-07
8.52432e-08
2.15462e-06
5.29464e-06
1.14891e-05
2.10155e-05
2.87346e-05
3.20608e-05
3.2562e-05
3.1539e-05
2.98216e-05
2.79539e-05
2.62703e-05
2.48878e-05
2.37868e-05
2.28968e-05
2.21233e-05
2.13581e-05
2.04802e-05
1.93586e-05
1.78813e-05
1.59905e-05
1.37345e-05
1.12978e-05
8.96983e-06
7.03741e-06
5.54992e-06
4.49181e-06
3.84517e-06
3.62418e-06
3.97383e-06
5.48823e-06
9.39718e-06
5.74173e-06
1.92982e-06
1.91645e-07
8.83038e-08
2.16642e-06
5.33669e-06
1.16328e-05
2.12602e-05
2.89029e-05
3.21064e-05
3.25185e-05
3.14466e-05
2.97178e-05
2.78669e-05
2.62137e-05
2.48732e-05
2.38219e-05
2.29841e-05
2.22632e-05
2.15486e-05
2.07125e-05
1.96169e-05
1.8145e-05
1.62386e-05
1.3952e-05
1.14808e-05
9.12534e-06
7.17565e-06
5.67555e-06
4.60837e-06
3.95723e-06
3.74045e-06
4.11502e-06
5.70549e-06
9.70835e-06
5.79448e-06
1.9495e-06
1.94185e-07
9.13527e-08
2.17789e-06
5.378e-06
1.17751e-05
2.14994e-05
2.90591e-05
3.21397e-05
3.24643e-05
3.13443e-05
2.96038e-05
2.77691e-05
2.6146e-05
2.48469e-05
2.38442e-05
2.30589e-05
2.23909e-05
2.17245e-05
2.09281e-05
1.98593e-05
1.83942e-05
1.64735e-05
1.41584e-05
1.16561e-05
9.27739e-06
7.3139e-06
5.80355e-06
4.72894e-06
4.07459e-06
3.86347e-06
4.26543e-06
5.93652e-06
1.00282e-05
5.84874e-06
1.96942e-06
1.96683e-07
9.43955e-08
2.18896e-06
5.41874e-06
1.19164e-05
2.17319e-05
2.92023e-05
3.21604e-05
3.2399e-05
3.12326e-05
2.94818e-05
2.76634e-05
2.60698e-05
2.48107e-05
2.38549e-05
2.31204e-05
2.25039e-05
2.18857e-05
2.11289e-05
2.00843e-05
1.86263e-05
1.66938e-05
1.43532e-05
1.18235e-05
9.42574e-06
7.45168e-06
5.93337e-06
4.85298e-06
4.19679e-06
3.99281e-06
4.42474e-06
6.1813e-06
1.0356e-05
5.9045e-06
1.98959e-06
1.99142e-07
9.74229e-08
2.19994e-06
5.45972e-06
1.20583e-05
2.19589e-05
2.93335e-05
3.2169e-05
3.23231e-05
3.11114e-05
2.93511e-05
2.75493e-05
2.59847e-05
2.47648e-05
2.38549e-05
2.31696e-05
2.26028e-05
2.20313e-05
2.13133e-05
2.02936e-05
1.88415e-05
1.68977e-05
1.45349e-05
1.19824e-05
9.5704e-06
7.58886e-06
6.06463e-06
4.98008e-06
4.32353e-06
4.12855e-06
4.59348e-06
6.44017e-06
1.06898e-05
5.961e-06
2.00986e-06
2.01545e-07
1.0044e-07
2.21081e-06
5.5008e-06
1.22001e-05
2.21799e-05
2.94526e-05
3.21653e-05
3.22359e-05
3.09805e-05
2.92118e-05
2.7427e-05
2.58913e-05
2.47095e-05
2.38441e-05
2.32064e-05
2.26875e-05
2.2161e-05
2.14803e-05
2.04848e-05
1.90394e-05
1.70852e-05
1.47027e-05
1.21321e-05
9.71127e-06
7.72537e-06
6.19727e-06
5.11012e-06
4.4546e-06
4.2701e-06
4.77061e-06
6.71302e-06
1.10286e-05
6.01834e-06
2.03027e-06
2.03885e-07
1.03431e-07
2.22178e-06
5.54245e-06
1.2342e-05
2.23943e-05
2.95597e-05
3.215e-05
3.21381e-05
3.08402e-05
2.90639e-05
2.72966e-05
2.57899e-05
2.46456e-05
2.38234e-05
2.32316e-05
2.27587e-05
2.2275e-05
2.16298e-05
2.06573e-05
1.92188e-05
1.7256e-05
1.48568e-05
1.22727e-05
9.84841e-06
7.86105e-06
6.33091e-06
5.24259e-06
4.5896e-06
4.41786e-06
4.95841e-06
6.99966e-06
1.137e-05
6.07564e-06
2.05063e-06
2.06149e-07
1.06401e-07
2.23288e-06
5.58488e-06
1.24837e-05
2.26016e-05
2.96543e-05
3.21221e-05
3.20289e-05
3.06898e-05
2.89075e-05
2.71585e-05
2.56815e-05
2.45742e-05
2.37937e-05
2.3246e-05
2.28169e-05
2.23739e-05
2.17619e-05
2.08109e-05
1.9379e-05
1.74095e-05
1.49975e-05
1.24046e-05
9.98252e-06
7.99645e-06
6.46577e-06
5.37757e-06
4.72877e-06
4.57244e-06
5.15739e-06
7.30123e-06
1.17136e-05
6.13325e-06
2.07094e-06
2.0833e-07
1.09341e-07
2.24437e-06
5.62921e-06
1.26249e-05
2.28011e-05
2.97366e-05
3.20825e-05
3.1909e-05
3.05301e-05
2.87426e-05
2.70128e-05
2.55673e-05
2.44961e-05
2.37556e-05
2.32498e-05
2.28623e-05
2.24575e-05
2.18768e-05
2.09456e-05
1.952e-05
1.75454e-05
1.51244e-05
1.25281e-05
1.01128e-05
8.1314e-06
6.60207e-06
5.51515e-06
4.8719e-06
4.73319e-06
5.36637e-06
7.61701e-06
1.20569e-05
6.19069e-06
2.09116e-06
2.10416e-07
1.1223e-07
2.25545e-06
5.67287e-06
1.27631e-05
2.29914e-05
2.9806e-05
3.20305e-05
3.17778e-05
3.03601e-05
2.85683e-05
2.68584e-05
2.54451e-05
2.44101e-05
2.37086e-05
2.3243e-05
2.28948e-05
2.25258e-05
2.19739e-05
2.1061e-05
1.96414e-05
1.76635e-05
1.52377e-05
1.26434e-05
1.02406e-05
8.26659e-06
6.74024e-06
5.65576e-06
5.01931e-06
4.90032e-06
5.58549e-06
7.94729e-06
1.23991e-05
6.24828e-06
2.11122e-06
2.12407e-07
1.15044e-07
2.26586e-06
5.71497e-06
1.28984e-05
2.31725e-05
2.98632e-05
3.19673e-05
3.16362e-05
3.01803e-05
2.8385e-05
2.66953e-05
2.5314e-05
2.43152e-05
2.36522e-05
2.32254e-05
2.29144e-05
2.25787e-05
2.20531e-05
2.11567e-05
1.97431e-05
1.77641e-05
1.53377e-05
1.27513e-05
1.03665e-05
8.40303e-06
6.88101e-06
5.79961e-06
5.17074e-06
5.07311e-06
5.81368e-06
8.29024e-06
1.27373e-05
6.30571e-06
2.13119e-06
2.14308e-07
1.17781e-07
2.27597e-06
5.75621e-06
1.30305e-05
2.33437e-05
2.99079e-05
3.18921e-05
3.14829e-05
2.99894e-05
2.81911e-05
2.65223e-05
2.51735e-05
2.42112e-05
2.35862e-05
2.31969e-05
2.29209e-05
2.26158e-05
2.21141e-05
2.12326e-05
1.98247e-05
1.78468e-05
1.54246e-05
1.28521e-05
1.04913e-05
8.54184e-06
7.02583e-06
5.94812e-06
5.3273e-06
5.25228e-06
6.05119e-06
8.64544e-06
1.30713e-05
6.36411e-06
2.15158e-06
2.16145e-07
1.20423e-07
2.28539e-06
5.79547e-06
1.31575e-05
2.35035e-05
2.99397e-05
3.1805e-05
3.13183e-05
2.97878e-05
2.79872e-05
2.63398e-05
2.5024e-05
2.40987e-05
2.35114e-05
2.31583e-05
2.29152e-05
2.26381e-05
2.21576e-05
2.12889e-05
1.98867e-05
1.7912e-05
1.54984e-05
1.29458e-05
1.06149e-05
8.68327e-06
7.17502e-06
6.10134e-06
5.48891e-06
5.43741e-06
6.29695e-06
9.01044e-06
1.33987e-05
6.42337e-06
2.17208e-06
2.17932e-07
1.22971e-07
2.29428e-06
5.83324e-06
1.32802e-05
2.36525e-05
2.99591e-05
3.17062e-05
3.11421e-05
2.95747e-05
2.77723e-05
2.6147e-05
2.48648e-05
2.39773e-05
2.34279e-05
2.311e-05
2.28979e-05
2.26462e-05
2.21841e-05
2.13264e-05
1.99291e-05
1.79592e-05
1.5558e-05
1.30309e-05
1.07357e-05
8.82642e-06
7.32898e-06
6.26106e-06
5.65728e-06
5.62991e-06
6.55198e-06
9.38551e-06
1.372e-05
6.48388e-06
2.1927e-06
2.19686e-07
1.25416e-07
2.30258e-06
5.86913e-06
1.33976e-05
2.37897e-05
2.99658e-05
3.15956e-05
3.09543e-05
2.93502e-05
2.75465e-05
2.59441e-05
2.46964e-05
2.38476e-05
2.33362e-05
2.30527e-05
2.28698e-05
2.2641e-05
2.21948e-05
2.1346e-05
1.99532e-05
1.79895e-05
1.5604e-05
1.31071e-05
1.08524e-05
8.96969e-06
7.4863e-06
6.42603e-06
5.83191e-06
5.82983e-06
6.81637e-06
9.76997e-06
1.40345e-05
6.5452e-06
2.21331e-06
2.21403e-07
1.27761e-07
2.31024e-06
5.90316e-06
1.35097e-05
2.39157e-05
2.99605e-05
3.14736e-05
3.0755e-05
2.91142e-05
2.73097e-05
2.57308e-05
2.45187e-05
2.37096e-05
2.32367e-05
2.29872e-05
2.2832e-05
2.26238e-05
2.21908e-05
2.13488e-05
1.996e-05
1.80035e-05
1.56364e-05
1.31736e-05
1.09629e-05
9.11052e-06
7.64511e-06
6.59582e-06
6.01379e-06
6.03845e-06
7.09178e-06
1.01657e-05
1.43434e-05
6.60711e-06
2.2339e-06
2.23083e-07
1.30003e-07
2.31741e-06
5.93562e-06
1.36169e-05
2.40307e-05
2.99437e-05
3.13409e-05
3.05452e-05
2.88677e-05
2.70626e-05
2.55081e-05
2.43324e-05
2.35642e-05
2.31304e-05
2.29145e-05
2.27857e-05
2.2596e-05
2.21739e-05
2.13372e-05
1.99521e-05
1.80047e-05
1.5659e-05
1.32335e-05
1.10676e-05
9.24723e-06
7.80289e-06
6.76815e-06
6.20139e-06
6.25569e-06
7.37906e-06
1.05733e-05
1.46461e-05
6.66903e-06
2.25434e-06
2.24703e-07
1.32143e-07
2.32403e-06
5.9664e-06
1.37193e-05
2.41353e-05
2.9916e-05
3.11978e-05
3.03246e-05
2.86105e-05
2.68053e-05
2.52759e-05
2.41376e-05
2.34116e-05
2.30177e-05
2.28353e-05
2.27317e-05
2.25585e-05
2.21451e-05
2.13121e-05
1.99313e-05
1.79956e-05
1.56756e-05
1.32916e-05
1.11686e-05
9.37969e-06
7.95811e-06
6.94128e-06
6.39372e-06
6.48168e-06
7.67888e-06
1.09943e-05
1.4943e-05
6.73089e-06
2.27468e-06
2.26261e-07
1.34176e-07
2.33019e-06
5.99573e-06
1.38173e-05
2.42303e-05
2.98784e-05
3.10454e-05
3.00946e-05
2.83438e-05
2.65389e-05
2.50351e-05
2.39354e-05
2.3253e-05
2.28998e-05
2.27508e-05
2.26716e-05
2.25132e-05
2.21065e-05
2.12762e-05
1.99006e-05
1.79802e-05
1.56909e-05
1.33526e-05
1.12696e-05
9.5092e-06
8.10989e-06
7.11305e-06
6.58837e-06
6.71453e-06
7.99113e-06
1.14274e-05
1.52325e-05
6.79214e-06
2.29481e-06
2.27744e-07
1.36102e-07
2.33593e-06
6.0238e-06
1.39114e-05
2.43168e-05
2.98314e-05
3.08834e-05
2.98548e-05
2.80677e-05
2.6264e-05
2.47864e-05
2.37265e-05
2.30893e-05
2.27776e-05
2.26622e-05
2.26066e-05
2.24613e-05
2.20595e-05
2.12308e-05
1.98616e-05
1.79603e-05
1.57072e-05
1.34192e-05
1.13739e-05
9.6388e-06
8.25966e-06
7.28315e-06
6.78435e-06
6.9541e-06
8.31447e-06
1.18717e-05
1.55144e-05
6.85367e-06
2.31499e-06
2.29178e-07
1.3792e-07
2.34129e-06
6.05078e-06
1.40024e-05
2.43956e-05
2.97756e-05
3.07124e-05
2.96061e-05
2.77832e-05
2.59814e-05
2.45311e-05
2.35135e-05
2.29222e-05
2.26525e-05
2.2571e-05
2.25384e-05
2.2405e-05
2.20063e-05
2.11782e-05
1.98164e-05
1.7938e-05
1.57267e-05
1.34933e-05
1.1485e-05
9.77208e-06
8.4098e-06
7.45225e-06
6.98101e-06
7.19873e-06
8.64587e-06
1.23224e-05
1.57873e-05
6.91567e-06
2.33519e-06
2.30591e-07
1.39639e-07
2.34642e-06
6.07718e-06
1.40917e-05
2.44683e-05
2.97116e-05
3.05327e-05
2.93487e-05
2.74913e-05
2.56929e-05
2.42711e-05
2.32969e-05
2.27522e-05
2.25252e-05
2.24777e-05
2.24678e-05
2.23452e-05
2.1948e-05
2.11194e-05
1.97659e-05
1.7914e-05
1.575e-05
1.35763e-05
1.16062e-05
9.91336e-06
8.56424e-06
7.62274e-06
7.17864e-06
7.4465e-06
8.98287e-06
1.27757e-05
1.60523e-05
6.97929e-06
2.35571e-06
2.32026e-07
1.41266e-07
2.35137e-06
6.10332e-06
1.41802e-05
2.45361e-05
2.96402e-05
3.03449e-05
2.90839e-05
2.71935e-05
2.54003e-05
2.40084e-05
2.30787e-05
2.25813e-05
2.2397e-05
2.23835e-05
2.2396e-05
2.22832e-05
2.18861e-05
2.10559e-05
1.97109e-05
1.78885e-05
1.57771e-05
1.36687e-05
1.17396e-05
1.00662e-05
8.72687e-06
7.79744e-06
7.37798e-06
7.69578e-06
9.32186e-06
1.32261e-05
1.63089e-05
7.04403e-06
2.37638e-06
2.3349e-07
1.42813e-07
2.35625e-06
6.12964e-06
1.42693e-05
2.46002e-05
2.95615e-05
3.01486e-05
2.88113e-05
2.68902e-05
2.51045e-05
2.37441e-05
2.286e-05
2.24102e-05
2.22686e-05
2.22886e-05
2.23228e-05
2.22187e-05
2.18203e-05
2.09872e-05
1.96506e-05
1.78598e-05
1.58061e-05
1.37685e-05
1.18851e-05
1.02328e-05
8.90143e-06
7.98013e-06
7.58164e-06
7.94737e-06
9.66201e-06
1.3672e-05
1.65594e-05
7.11055e-06
2.39736e-06
2.34998e-07
1.44283e-07
2.36103e-06
6.15602e-06
1.43588e-05
2.466e-05
2.94749e-05
2.99433e-05
2.85308e-05
2.65817e-05
2.48064e-05
2.34796e-05
2.26423e-05
2.22404e-05
2.21412e-05
2.21942e-05
2.22491e-05
2.21525e-05
2.17512e-05
2.09134e-05
1.95844e-05
1.78263e-05
1.58341e-05
1.38718e-05
1.20396e-05
1.04126e-05
9.08983e-06
8.17397e-06
7.79237e-06
8.20255e-06
1.00027e-05
1.41116e-05
1.68033e-05
7.17734e-06
2.41829e-06
2.36533e-07
1.45689e-07
2.36578e-06
6.18281e-06
1.44495e-05
2.47161e-05
2.93795e-05
2.97276e-05
2.82413e-05
2.62675e-05
2.4506e-05
2.32153e-05
2.24264e-05
2.20728e-05
2.20155e-05
2.21006e-05
2.2175e-05
2.20844e-05
2.16783e-05
2.0834e-05
1.95111e-05
1.77862e-05
1.58584e-05
1.39732e-05
1.21972e-05
1.06018e-05
9.2916e-06
8.38143e-06
8.01436e-06
8.46595e-06
1.03484e-05
1.45495e-05
1.70446e-05
7.24494e-06
2.43933e-06
2.38093e-07
1.47035e-07
2.37042e-06
6.20977e-06
1.45408e-05
2.47669e-05
2.92738e-05
2.94999e-05
2.79414e-05
2.59468e-05
2.4203e-05
2.29513e-05
2.22125e-05
2.19077e-05
2.1892e-05
2.20083e-05
2.2101e-05
2.20149e-05
2.16024e-05
2.07498e-05
1.94314e-05
1.77393e-05
1.58778e-05
1.40675e-05
1.23511e-05
1.07943e-05
9.50349e-06
8.60255e-06
8.25002e-06
8.74114e-06
1.07032e-05
1.49891e-05
1.7283e-05
7.312e-06
2.46012e-06
2.39648e-07
1.48325e-07
2.37499e-06
6.23688e-06
1.46324e-05
2.48118e-05
2.9157e-05
2.92595e-05
2.76305e-05
2.5619e-05
2.38971e-05
2.26875e-05
2.20007e-05
2.17453e-05
2.17709e-05
2.19175e-05
2.20274e-05
2.19446e-05
2.15244e-05
2.06618e-05
1.93461e-05
1.7685e-05
1.58884e-05
1.41483e-05
1.24925e-05
1.09813e-05
9.71869e-06
8.83432e-06
8.50054e-06
9.03312e-06
1.10748e-05
1.54393e-05
1.75207e-05
7.37896e-06
2.48086e-06
2.41183e-07
1.49559e-07
2.37939e-06
6.26385e-06
1.47237e-05
2.48497e-05
2.90278e-05
2.90052e-05
2.73078e-05
2.52837e-05
2.35879e-05
2.24237e-05
2.17909e-05
2.15856e-05
2.16521e-05
2.18284e-05
2.19548e-05
2.18747e-05
2.14465e-05
2.05735e-05
1.92591e-05
1.76259e-05
1.589e-05
1.42133e-05
1.26163e-05
1.1155e-05
9.92946e-06
9.07099e-06
8.76335e-06
9.34266e-06
1.14668e-05
1.59029e-05
1.77544e-05
7.44408e-06
2.50122e-06
2.42661e-07
1.50725e-07
2.38346e-06
6.28998e-06
1.48126e-05
2.48786e-05
2.88854e-05
2.87363e-05
2.69726e-05
2.49401e-05
2.32747e-05
2.2159e-05
2.1582e-05
2.14274e-05
2.15346e-05
2.17397e-05
2.18819e-05
2.18045e-05
2.13687e-05
2.04864e-05
1.91734e-05
1.7566e-05
1.5885e-05
1.42634e-05
1.27202e-05
1.13101e-05
1.01289e-05
9.30663e-06
9.0356e-06
9.67096e-06
1.1884e-05
1.63859e-05
1.79845e-05
7.50819e-06
2.52149e-06
2.44078e-07
1.51819e-07
2.38713e-06
6.31502e-06
1.48988e-05
2.48984e-05
2.87294e-05
2.84524e-05
2.66246e-05
2.45883e-05
2.29575e-05
2.18933e-05
2.13738e-05
2.127e-05
2.14173e-05
2.16506e-05
2.18081e-05
2.17337e-05
2.12923e-05
2.04034e-05
1.90944e-05
1.75125e-05
1.58813e-05
1.4306e-05
1.28086e-05
1.14466e-05
1.03128e-05
9.53483e-06
9.31077e-06
1.00129e-05
1.23226e-05
1.68834e-05
1.8207e-05
7.5707e-06
2.54156e-06
2.4544e-07
1.52831e-07
2.39017e-06
6.33806e-06
1.49799e-05
2.49074e-05
2.85598e-05
2.8154e-05
2.62645e-05
2.42287e-05
2.26366e-05
2.16266e-05
2.11655e-05
2.11123e-05
2.12986e-05
2.15588e-05
2.17309e-05
2.166e-05
2.12154e-05
2.03246e-05
1.90246e-05
1.74711e-05
1.58864e-05
1.43494e-05
1.28886e-05
1.15683e-05
1.04814e-05
9.7535e-06
9.58619e-06
1.03661e-05
1.27807e-05
1.73928e-05
1.84229e-05
7.63335e-06
2.56191e-06
2.46797e-07
1.53767e-07
2.39258e-06
6.35911e-06
1.50564e-05
2.49062e-05
2.83767e-05
2.78411e-05
2.58926e-05
2.38619e-05
2.23128e-05
2.136e-05
2.09583e-05
2.09549e-05
2.11786e-05
2.14641e-05
2.16498e-05
2.1583e-05
2.11381e-05
2.02508e-05
1.89674e-05
1.74483e-05
1.5909e-05
1.4404e-05
1.29704e-05
1.16823e-05
1.06367e-05
9.95862e-06
9.85342e-06
1.07204e-05
1.32466e-05
1.79016e-05
1.86293e-05
7.69606e-06
2.58248e-06
2.48188e-07
1.54629e-07
2.39418e-06
6.37744e-06
1.51266e-05
2.48947e-05
2.81814e-05
2.75152e-05
2.55098e-05
2.34882e-05
2.19862e-05
2.10947e-05
2.07526e-05
2.07974e-05
2.10566e-05
2.13654e-05
2.15634e-05
2.15007e-05
2.10579e-05
2.01803e-05
1.89226e-05
1.74471e-05
1.5954e-05
1.44773e-05
1.30633e-05
1.17982e-05
1.07863e-05
1.0156e-05
1.01166e-05
1.1073e-05
1.37135e-05
1.8403e-05
1.88291e-05
7.76039e-06
2.60362e-06
2.49671e-07
1.55421e-07
2.39487e-06