/*--------------------------------*- C++ -*----------------------------------*\
| =========                 |                                                 |
| \\      /  F ield         | OpenFOAM: The Open Source CFD Toolbox           |
|  \\    /   O peration     | Version:  v2006                                 |
|   \\  /    A nd           | Website:  www.openfoam.com                      |
|    \\/     M anipulation  |                                                 |
\*---------------------------------------------------------------------------*/
FoamFile
{
    version     2.0;
    format      ascii;
    class       volScalarField;
    location    "48";
    object      omega;
}
// * * * * * * * * * * * * * * * * * * * * * * * * * * * * * * * * * * * * * //

dimensions      [0 0 -1 0 0 0 0];


internalField   nonuniform List<scalar> 
78750
(
353.398
13.5832
13.5881
13.5896
13.5897
13.5888
13.5873
13.5855
13.5837
13.582
13.5806
13.5795
13.5787
13.578
13.5776
13.5774
13.5774
13.5775
13.5778
13.5783
13.5789
13.5797
13.5805
13.5815
13.5827
13.5839
13.5852
13.5866
13.5883
13.5905
13.5944
13.6022
13.6177
13.645
356.964
518.553
4.07595
4.09463
4.11156
4.12532
4.13507
4.14077
4.14295
4.14235
4.13973
4.13579
4.13114
4.12628
4.12163
4.11746
4.11396
4.11129
4.10956
4.10878
4.1089
4.10978
4.11123
4.11302
4.11491
4.1167
4.11816
4.11908
4.11919
4.11819
4.11594
4.11284
4.11085
4.11457
4.13031
524.348
518.556
4.09729
4.13678
4.17631
4.21351
4.2462
4.27312
4.29374
4.30797
4.31603
4.31829
4.31521
4.30735
4.29528
4.27977
4.2616
4.24162
4.2207
4.19973
4.17967
4.16151
4.14612
4.13419
4.12617
4.12222
4.12209
4.12508
4.13008
4.1357
4.14045
4.14343
4.14624
4.15441
4.17522
525.011
518.56
4.13641
4.20835
4.27773
4.34192
4.39961
4.45027
4.4933
4.52838
4.55542
4.57451
4.58586
4.5898
4.58674
4.57694
4.56079
4.53882
4.51161
4.47993
4.44468
4.40699
4.36804
4.32873
4.28972
4.25196
4.21682
4.18631
4.1626
4.14799
4.14367
4.1482
4.15948
4.17833
4.20945
525.517
518.564
4.1629
4.25475
4.34146
4.42062
4.48944
4.54798
4.59749
4.63837
4.67091
4.69543
4.71229
4.72186
4.72455
4.72075
4.71088
4.69534
4.6743
4.64769
4.61589
4.57953
4.53943
4.49645
4.45141
4.40495
4.35768
4.31045
4.2649
4.22449
4.19491
4.18136
4.18562
4.20693
4.24589
525.97
518.572
4.19313
4.30623
4.41071
4.50368
4.58248
4.64605
4.69735
4.73888
4.7711
4.79453
4.80968
4.8171
4.81738
4.8111
4.79892
4.78127
4.75824
4.72999
4.697
4.65991
4.61959
4.57704
4.53321
4.48856
4.44299
4.39612
4.34799
4.30038
4.2586
4.23092
4.22479
4.24271
4.28388
526.336
518.579
4.22398
4.35894
4.48148
4.58762
4.67453
4.74218
4.79537
4.83751
4.86934
4.89158
4.90492
4.91003
4.90755
4.89813
4.88241
4.86066
4.83271
4.79894
4.76003
4.71695
4.67094
4.62355
4.57646
4.53069
4.4861
4.44179
4.39683
4.35158
4.3096
4.27859
4.26798
4.28303
4.3234
526.671
518.588
4.25939
4.41646
4.55516
4.671
4.76222
4.83082
4.8831
4.92333
4.95279
4.97242
4.98306
4.98548
4.98041
4.96851
4.95004
4.92479
4.89296
4.85501
4.8117
4.76404
4.71338
4.66151
4.61063
4.56249
4.51733
4.47427
4.43213
4.39053
4.35171
4.32201
4.31071
4.324
4.36204
526.957
518.597
4.2918
4.46759
4.61914
4.7421
4.83605
4.90502
4.95661
4.99551
5.02321
5.04074
5.04902
5.04888
5.0411
5.02607
5.00363
4.9739
4.93726
4.89438
4.84614
4.79367
4.73845
4.68251
4.62853
4.57882
4.53384
4.49281
4.45453
4.41831
4.38539
4.36051
4.35162
4.36443
4.39939
527.222
518.607
4.32221
4.5148
4.67807
4.8077
4.90451
4.97438
5.02572
5.06371
5.09017
5.1062
5.11278
5.1108
5.10084
5.08287
5.0569
5.0232
4.98227
4.93487
4.88197
4.82478
4.76487
4.70444
4.64655
4.59414
4.54801
4.50761
4.47198
4.44046
4.41363
4.39467
4.3896
4.40267
4.43437
527.458
518.618
4.35172
4.55982
4.73333
4.86809
4.96652
5.03647
5.08715
5.124
5.14904
5.16346
5.16828
5.16434
5.15184
5.13074
5.1012
5.06358
5.01852
4.96687
4.90967
4.8482
4.78415
4.71989
4.65891
4.60463
4.55796
4.51851
4.48562
4.45878
4.43818
4.42566
4.42506
4.4388
4.46722
527.679
518.628
4.38026
4.60258
4.78529
4.9247
5.02485
5.09536
5.14585
5.18202
5.20618
5.21954
5.22319
5.21766
5.20297
5.17917
5.14649
5.10539
5.05658
5.00096
4.93963
4.87393
4.80561
4.73721
4.67258
4.61574
4.56781
4.52859
4.49775
4.47497
4.46017
4.45392
4.45785
4.47242
4.49766
527.883
518.638
4.40702
4.6424
4.83355
4.97719
5.07895
5.15008
5.20048
5.23611
5.25951
5.27204
5.27461
5.26749
5.25069
5.22433
5.18873
5.14444
5.09223
5.03303
4.96798
4.89846
4.82625
4.75406
4.68608
4.62687
4.57767
4.53851
4.50936
4.49019
4.48067
4.48028
4.48848
4.50386
4.5261
528.074
518.649
4.43418
4.68222
4.88122
5.02855
5.13164
5.20327
5.25376
5.28898
5.31181
5.32367
5.32517
5.31648
5.29768
5.26893
5.23063
5.18339
5.12803
5.06553
4.99704
4.92392
4.84803
4.77213
4.70078
4.63907
4.58839
4.54896
4.52109
4.50496
4.50012
4.505
4.51707
4.53318
4.55267
528.253
518.66
4.45947
4.71904
4.92526
5.07616
5.18068
5.25295
5.3038
5.3391
5.36173
5.37303
5.37355
5.36345
5.34283
5.3119
5.27113
5.22119
5.16294
5.09736
5.02563
4.94914
4.86975
4.79033
4.71576
4.65169
4.59958
4.55986
4.53309
4.51968
4.51901
4.52859
4.54404
4.56076
4.5777
528.423
518.67
4.48517
4.75608
4.96921
5.12337
5.22916
5.30199
5.35311
5.38846
5.41085
5.42159
5.42116
5.40974
5.38743
5.35449
5.31145
5.25902
5.19811
5.12969
5.05494
4.97525
4.89247
4.80959
4.73174
4.66518
4.61151
4.57133
4.54544
4.53441
4.53744
4.55116
4.56956
4.58675
4.60133
528.583
518.681
4.50949
4.79079
5.01028
5.16753
5.27467
5.34822
5.39979
5.43535
5.45768
5.46802
5.46684
5.45428
5.43048
5.39576
5.35067
5.29599
5.23265
5.16161
5.08404
5.00132
4.91533
4.82909
4.74805
4.67904
4.62381
4.58315
4.55805
4.54922
4.5556
4.57301
4.59393
4.61145
4.62381
528.737
518.692
4.53398
4.82545
5.05106
5.21122
5.31962
5.39385
5.44588
5.48168
5.50399
5.514
5.51214
5.49854
5.47338
5.43701
5.39005
5.33331
5.26773
5.19424
5.11401
5.0284
4.93928
4.84971
4.76539
4.69377
4.63682
4.59549
4.571
4.5641
4.5735
4.59418
4.61726
4.635
4.64527
528.884
518.703
4.5575
4.85841
5.08966
5.25255
5.36221
5.4372
5.48979
5.52595
5.54836
5.55817
5.55578
5.54133
5.51499
5.47718
5.42855
5.36997
5.30235
5.22662
5.14392
5.05559
4.96347
4.87068
4.78313
4.70893
4.65023
4.60819
4.58421
4.57909
4.59126
4.61488
4.6398
4.65764
4.66585
529.025
518.715
4.58111
4.89119
5.12787
5.29333
5.40419
5.47996
5.53315
5.56972
5.59231
5.602
5.59918
5.58397
5.55659
5.51749
5.46737
5.40711
5.33763
5.25984
5.17483
5.08389
4.98885
4.89285
4.80197
4.72502
4.66439
4.62144
4.59777
4.59421
4.60887
4.6351
4.66161
4.67943
4.68563
529.161
518.726
4.60398
4.92262
5.16433
5.3322
5.44425
5.52085
5.57473
5.61181
5.63468
5.64437
5.64125
5.62545
5.59719
5.55698
5.50556
5.44382
5.37267
5.29301
5.2059
5.11255
5.01474
4.91563
4.82149
4.74177
4.67914
4.63517
4.61168
4.60953
4.62645
4.65503
4.68288
4.70056
4.70474
529.293
518.738
4.6269
4.95383
5.20037
5.3705
5.4837
5.56117
5.61577
5.65342
5.67664
5.68642
5.68309
5.6668
5.6378
5.59663
5.54407
5.48101
5.40837
5.32702
5.23797
5.14237
5.04191
4.93974
4.84228
4.75966
4.69485
4.64966
4.6261
4.62508
4.64401
4.67467
4.70365
4.72109
4.72322
529.42
518.75
4.6492
4.98391
5.23493
5.4072
5.52156
5.59993
5.65535
5.69365
5.71731
5.72728
5.72386
5.70722
5.67762
5.63567
5.58215
5.51797
5.44404
5.3612
5.27042
5.17277
5.06984
4.96475
4.86405
4.77853
4.71147
4.66491
4.64111
4.641
4.66167
4.69413
4.72401
4.7411
4.74113
529.544
518.762
4.67152
5.01376
5.26908
5.44339
5.55887
5.63819
5.69445
5.73346
5.75761
5.76782
5.76439
5.74749
5.71742
5.67481
5.62048
5.55535
5.48033
5.39618
5.30383
5.20429
5.09906
4.99117
4.88727
4.79879
4.72934
4.68121
4.65689
4.65739
4.67951
4.71352
4.7441
4.76071
4.75858
529.664
518.775
4.69329
5.04262
5.30199
5.47823
5.59487
5.67518
5.73236
5.77212
5.79683
5.80736
5.804
5.78695
5.75654
5.71343
5.65847
5.59259
5.51667
5.43142
5.33771
5.23648
5.12915
5.01864
4.91168
4.82029
4.74844
4.69862
4.67356
4.67437
4.69761
4.73286
4.76394
4.77995
4.77557
529.781
518.787
4.71506
5.07128
5.33455
5.51267
5.63047
5.7118
5.7699
5.81044
5.83571
5.84657
5.84332
5.82618
5.79553
5.75205
5.69661
5.63015
5.55351
5.46736
5.37249
5.26975
5.16048
5.04752
4.93761
4.84335
4.76903
4.71736
4.69131
4.69213
4.71614
4.75226
4.7835
4.79879
4.79213
529.895
518.8
4.73634
5.09907
5.36607
5.54604
5.66504
5.74744
5.80651
5.84783
5.87366
5.88487
5.88177
5.86461
5.83382
5.7901
5.73436
5.66751
5.59036
5.50351
5.40769
5.30367
5.19267
5.07748
4.96481
4.86781
4.79108
4.73749
4.71025
4.71075
4.73516
4.77189
4.80345
4.81783
4.80845
530.007
518.813
4.75758
5.12665
5.39729
5.57913
5.69939
5.7829
5.84291
5.88495
5.91127
5.92276
5.91979
5.90265
5.87179
5.82796
5.77206
5.70499
5.62751
5.54016
5.4436
5.33849
5.22596
5.1087
4.99348
4.89385
4.81474
4.75915
4.73053
4.73041
4.75487
4.79193
4.82373
4.83703
4.82464
530.117
518.826
4.77831
5.15338
5.42755
5.61135
5.73304
5.81778
5.87869
5.92131
5.94799
5.9597
5.95685
5.93978
5.90895
5.86513
5.80923
5.7421
5.66449
5.57685
5.47976
5.37379
5.25996
5.14089
5.02335
4.92131
4.83992
4.78235
4.7522
4.75118
4.77536
4.81247
4.84431
4.85635
4.84073
530.225
518.839
4.79886
5.17972
5.45739
5.64328
5.76676
5.85294
5.91458
5.95742
5.98423
5.99603
5.99328
5.9763
5.94558
5.90189
5.84611
5.77909
5.70151
5.61375
5.51633
5.40971
5.2948
5.17413
5.05451
4.95026
4.86674
4.80718
4.77538
4.77321
4.79675
4.83358
4.86524
4.87584
4.85679
530.331
518.853
4.81884
5.20513
5.48615
5.67419
5.7996
5.88704
5.94951
5.9926
6.01939
6.03126
6.02861
6.01179
5.98127
5.93782
5.8823
5.81554
5.73815
5.65045
5.55288
5.44581
5.33005
5.20804
5.08661
4.98045
4.895
4.83356
4.80006
4.79655
4.8192
4.85544
4.88665
4.89557
4.87285
530.437
518.866
4.83853
5.23002
5.5143
5.70463
5.83146
5.92003
5.98339
6.02702
6.05376
6.06566
6.06314
6.04651
6.01625
5.97314
5.918
5.85162
5.77456
5.68706
5.5895
5.48216
5.36574
5.24262
5.11965
5.01188
4.92472
4.8615
4.82627
4.82123
4.84265
4.878
4.90847
4.91553
4.88895
530.542
518.879
4.85768
5.254
5.54134
5.73392
5.86209
5.95176
6.016
6.06021
6.08709
6.09894
6.09652
6.08011
6.05019
6.0075
5.95285
5.88698
5.81039
5.72325
5.62586
5.51842
5.40153
5.27753
5.15332
5.04427
4.95568
4.89087
4.85396
4.84728
4.86728
4.90168
4.93084
4.93573
4.90507
530.646
518.892
4.87652
5.27741
5.5676
5.7622
5.89161
5.98233
6.04747
6.09233
6.11954
6.13125
6.12891
6.11275
6.08321
6.04102
5.98696
5.92169
5.84569
5.75904
5.66196
5.55457
5.4374
5.31273
5.18754
5.07753
4.9878
4.9216
4.8831
4.87475
4.8932
4.92644
4.95391
4.95631
4.92129
530.75
518.906
4.89493
5.30018
5.59316
5.78952
5.91999
6.01167
6.07763
6.12309
6.15061
6.16225
6.16006
6.14419
6.11509
6.07346
6.02005
5.95549
5.88019
5.79414
5.6975
5.59032
5.47305
5.34793
5.22204
5.11141
5.02085
4.9535
4.91354
4.90352
4.9203
4.95217
4.97761
4.97722
4.93758
530.854
518.919
4.91293
5.32236
5.61831
5.81587
5.94724
6.03983
6.10663
6.15274
6.18065
6.1923
6.19023
6.17462
6.14594
6.1049
6.0522
5.98841
5.91388
5.82853
5.73246
5.62562
5.5084
5.38304
5.25675
5.14584
5.05473
4.98649
4.94522
4.93357
4.94859
4.97888
5.002
4.99854
4.954
530.958
518.932
4.93027
5.34348
5.64213
5.84092
5.9732
6.06669
6.13429
6.18104
6.20939
6.22124
6.21913
6.20372
6.1755
6.13512
6.08318
6.02024
5.94657
5.86201
5.7666
5.66023
5.54322
5.41783
5.29143
5.18059
5.08927
5.02037
4.97798
4.96477
4.97796
5.00647
5.02702
5.02022
4.97051
531.062
518.946
4.94718
5.36393
5.66511
5.86501
5.99813
6.09246
6.16083
6.2082
6.23696
6.24902
6.24688
6.23171
6.20393
6.16416
6.11303
6.05101
5.97826
5.89458
5.79992
5.69412
5.57746
5.45223
5.32601
5.21558
5.12435
5.05505
5.01171
4.99701
5.00834
5.0349
5.05264
5.04226
4.98712
531.166
518.959
4.96359
5.38356
5.68708
5.88796
6.02184
6.11696
6.18606
6.23402
6.26317
6.27544
6.2733
6.25838
6.23109
6.19201
6.14169
6.08056
6.00879
5.92608
5.83225
5.72712
5.61095
5.48608
5.36034
5.25065
5.1598
5.09036
5.04626
5.03017
5.0396
5.06408
5.0788
5.06462
5.00379
531.271
518.972
4.97951
5.40242
5.70808
5.90983
6.04442
6.1403
6.2101
6.25862
6.28815
6.30061
6.29848
6.28383
6.25704
6.21865
6.16918
6.10899
6.03819
5.95642
5.86353
5.75919
5.64366
5.51935
5.3944
5.28575
5.19555
5.12621
5.08151
5.06411
5.07161
5.09388
5.10544
5.08726
5.02051
531.375
518.985
4.99495
5.42056
5.72811
5.93059
6.06581
6.16239
6.23285
6.28188
6.31177
6.32442
6.32231
6.30793
6.28165
6.24397
6.19536
6.13614
6.06635
5.98559
5.89363
5.79017
5.67543
5.55191
5.42809
5.32076
5.23145
5.16242
5.11732
5.09873
5.10434
5.12427
5.13247
5.11011
5.03722
531.479
518.998
5.00998
5.43798
5.74719
5.95025
6.08603
6.18326
6.25433
6.30386
6.33409
6.34691
6.34484
6.33076
6.305
6.26802
6.22027
6.16203
6.09327
6.01354
5.92258
5.82005
5.70622
5.58373
5.46142
5.35566
5.26747
5.19894
5.15358
5.13384
5.13746
5.15505
5.15984
5.13315
5.0539
531.583
519.011
5.02456
5.45469
5.7653
5.9688
6.10503
6.20285
6.27448
6.32446
6.35501
6.36802
6.366
6.35223
6.32699
6.29073
6.24384
6.18657
6.11886
6.04019
5.95028
5.84876
5.73595
5.61471
5.49427
5.39033
5.30346
5.23561
5.19013
5.16938
5.17128
5.18617
5.18739
5.15625
5.07046
531.687
519.024
5.03874
5.47078
5.78248
5.98623
6.12282
6.22116
6.29332
6.34373
6.37459
6.38779
6.38587
6.37241
6.3477
6.31214
6.2661
6.2098
6.14313
6.06554
5.97671
5.87628
5.76464
5.64485
5.52669
5.42479
5.33941
5.27239
5.22694
5.20538
5.20576
5.21771
5.21516
5.1794
5.08689
531.79
519.037
5.05255
5.48643
5.7987
6.00248
6.13934
6.23814
6.31079
6.36161
6.39277
6.4062
6.40446
6.39128
6.36706
6.33219
6.28701
6.23166
6.16603
6.08952
6.0018
5.90253
5.79219
5.67408
5.55848
5.45892
5.37524
5.30917
5.26388
5.24161
5.24055
5.24944
5.243
5.20251
5.10314
531.892
519.049
5.06573
5.50123
5.81378
6.01749
6.15455
6.25379
6.32689
6.3781
6.40956
6.42322
6.4217
6.4088
6.38509
6.35091
6.30656
6.25217
6.18758
6.11216
6.02559
5.92754
5.81862
5.70242
5.58976
5.49276
5.41096
5.34599
5.30095
5.27803
5.27556
5.28134
5.27093
5.22557
5.11915
531.993
519.061
5.07811
5.51493
5.82765
6.03125
6.16848
6.2681
6.34161
6.39317
6.42489
6.43876
6.43745
6.42488
6.40171
6.36824
6.32474
6.2713
6.20775
6.13343
6.04803
5.95128
5.84392
5.72985
5.62047
5.52627
5.44651
5.38273
5.33797
5.31443
5.31054
5.31316
5.29873
5.24844
5.13493
532.094
519.073
5.08988
5.52778
5.84048
6.04383
6.18115
6.28109
6.35497
6.40685
6.43881
6.45289
6.45181
6.4396
6.41698
6.38423
6.34156
6.28907
6.22655
6.15334
6.06915
5.97378
5.86811
5.75642
5.65068
5.55954
5.48202
5.41953
5.37506
5.35086
5.3455
5.34491
5.32645
5.27123
5.15066
532.192
519.085
5.10088
5.53958
5.85212
6.05517
6.19254
6.29277
6.36697
6.41913
6.45132
6.46561
6.46477
6.45295
6.4309
6.39885
6.35702
6.30546
6.24396
6.17186
6.0889
5.99496
5.89113
5.78206
5.68029
5.59249
5.51739
5.45624
5.41209
5.38718
5.38027
5.37643
5.35395
5.29381
5.16621
532.289
519.096
5.11119
5.55049
5.86272
6.06539
6.20274
6.30319
6.37768
6.43008
6.46247
6.47695
6.47636
6.46495
6.44349
6.41216
6.37115
6.3205
6.25999
6.18899
6.10726
6.0148
5.91292
5.80669
5.70923
5.62507
5.55267
5.49309
5.44926
5.42354
5.41497
5.40778
5.38129
5.31624
5.18162
532.385
519.106
5.12079
5.56045
5.87226
6.07448
6.21176
6.31238
6.3871
6.43972
6.47228
6.48693
6.48659
6.47564
6.45477
6.42415
6.38395
6.3342
6.27466
6.20472
6.12421
6.03325
5.93341
5.83022
5.73732
5.65707
5.58763
5.5298
5.48635
5.45984
5.44951
5.43891
5.40838
5.33843
5.19683
532.478
519.117
5.1297
5.56954
5.88082
6.08253
6.21969
6.32044
6.39534
6.44812
6.48082
6.49564
6.49555
6.48507
6.46481
6.43491
6.3955
6.34662
6.28803
6.21913
6.13982
6.05036
5.95262
5.85266
5.76448
5.68833
5.62211
5.56632
5.5235
5.49616
5.48398
5.4699
5.43532
5.36046
5.21187
532.57
519.126
5.13796
5.5778
5.88846
6.08961
6.22659
6.32741
6.40244
6.45534
6.48815
6.50312
6.50328
6.4933
6.47365
6.44446
6.40585
6.35783
6.30017
6.2323
6.15419
6.06626
5.9707
5.87414
5.79066
5.71866
5.65582
5.60233
5.56037
5.53235
5.51834
5.50071
5.46204
5.38225
5.22667
532.66
519.136
5.14558
5.58527
5.89523
6.09578
6.23255
6.33338
6.4085
6.46148
6.49437
6.50946
6.50989
6.50042
6.4814
6.45292
6.4151
6.36794
6.31121
6.24438
6.16749
6.08117
5.98795
5.89508
5.81611
5.74812
5.68865
5.63762
5.5968
5.56835
5.5525
5.53137
5.48862
5.40387
5.24126
532.748
519.145
5.15259
5.592
5.90119
6.10111
6.23763
6.33844
6.41358
6.4666
6.49954
6.51475
6.51544
6.50652
6.48813
6.46037
6.42335
6.37705
6.32126
6.2555
6.17991
6.0953
6.00461
5.91578
5.84104
5.77676
5.7205
5.67194
5.63246
5.60379
5.58636
5.56175
5.51495
5.42521
5.25558
532.835
519.153
5.15902
5.59804
5.90641
6.10566
6.2419
6.34264
6.41778
6.47078
6.50374
6.51905
6.52006
6.51171
6.49396
6.46692
6.43069
6.38526
6.33045
6.2658
6.19158
6.10881
6.02086
5.93635
5.86565
5.80481
5.75148
5.70527
5.6672
5.63873
5.61978
5.59185
5.54107
5.44639
5.26974
532.92
519.161
5.16491
5.60344
5.91094
6.1095
6.24542
6.34606
6.42114
6.47409
6.50703
6.52246
6.52387
6.51605
6.49893
6.47262
6.43721
6.39268
6.33887
6.27539
6.20262
6.12184
6.03681
5.95686
5.89011
5.83246
5.78175
5.73765
5.70102
5.67307
5.65259
5.62149
5.56687
5.4673
5.2837
533.002
519.169
5.17033
5.60828
5.91485
6.11268
6.24826
6.34876
6.42375
6.47662
6.50951
6.52502
6.52684
6.51956
6.50311
6.47755
6.44297
6.39937
6.3466
6.28435
6.21315
6.13452
6.05265
5.97748
5.91467
5.86007
5.81168
5.76938
5.73403
5.70667
5.68475
5.65067
5.59238
5.48807
5.29763
533.083
519.176
5.17532
5.61259
5.91816
6.11522
6.25043
6.35076
6.42563
6.47838
6.5112
6.52679
6.52903
6.52231
6.50651
6.48171
6.44798
6.40533
6.35365
6.29271
6.22319
6.14688
6.06843
5.9983
5.93954
5.88792
5.84161
5.80074
5.76636
5.73945
5.71611
5.67923
5.61748
5.5086
5.31152
533.161
519.183
5.17995
5.61642
5.92088
6.11712
6.25192
6.35206
6.42679
6.4794
6.51211
6.52777
6.53046
6.52428
6.50915
6.48511
6.45224
6.41055
6.35999
6.30041
6.23268
6.15889
6.08415
6.01933
5.96481
5.91625
5.8719
5.83216
5.79836
5.77165
5.74685
5.70731
5.64231
5.52905
5.32549
533.236
519.19
5.18419
5.61973
5.92299
6.11833
6.25269
6.35262
6.42719
6.47964
6.51225
6.52798
6.53114
6.52552
6.51104
6.48776
6.45574
6.41501
6.36558
6.30741
6.24157
6.17049
6.09978
6.04047
5.99041
5.94511
5.90278
5.86397
5.83036
5.80345
5.77698
5.73482
5.66673
5.54929
5.33943
533.309
519.197
5.1881
5.62256
5.92447
6.11885
6.25272
6.35241
6.4268
6.47907
6.51158
6.52741
6.53105
6.526
6.51218
6.48965
6.45846
6.41867
6.37036
6.3136
6.24973
6.18154
6.11524
6.06151
6.01612
5.97435
5.93427
5.89643
5.8628
5.83532
5.80693
5.76209
5.69097
5.56946
5.35341
533.38
519.203
5.19167
5.62487
5.92529
6.11861
6.25195
6.35136
6.42555
6.47766
6.51008
6.52602
6.53021
6.52575
6.5126
6.49081
6.46044
6.42158
6.37435
6.31901
6.25714
6.19203
6.13052
6.08225
6.04157
6.00362
5.96614
5.92951
5.89582
5.86749
5.83686
5.78917
5.71498
5.58944
5.3673
533.448
519.209
5.1949
5.62668
5.92545
6.11762
6.25036
6.34946
6.42344
6.47536
6.5077
6.5238
6.52858
6.52475
6.51229
6.49126
6.46171
6.42374
6.37757
6.32359
6.2637
6.20173
6.14526
6.1022
6.06622
6.03231
5.99788
5.96291
5.92943
5.90023
5.86718
5.81648
5.73911
5.60946
5.38118
533.515
519.214
5.19777
5.62795
5.92492
6.11583
6.24792
6.34669
6.42043
6.47218
6.50446
6.52076
6.5262
6.52305
6.51133
6.49108
6.46238
6.42534
6.3802
6.32754
6.26957
6.21065
6.15921
6.12103
6.0896
6.05981
6.02876
5.99597
5.96314
5.93329
5.89779
5.84393
5.76325
5.62936
5.39487
533.581
519.22
5.20023
5.62863
5.92366
6.11323
6.24461
6.343
6.4165
6.46808
6.50032
6.51686
6.52301
6.52059
6.50965
6.49026
6.46248
6.42641
6.38236
6.33103
6.27494
6.21901
6.17241
6.13875
6.11154
6.08578
6.05832
6.02818
5.9966
5.96654
5.92876
5.87176
5.78765
5.64936
5.40848
533.646
519.225
5.20227
5.62872
5.92168
6.10983
6.24045
6.33844
6.41168
6.46309
6.49532
6.51215
6.51906
6.51742
6.50731
6.48884
6.46206
6.42708
6.38422
6.3343
6.28012
6.22712
6.18515
6.15556
6.13212
6.11005
6.08611
6.05887
6.02901
5.99928
5.95957
5.89959
5.81206
5.66927
5.42192
533.711
519.23
5.20383
5.62816
5.91893
6.10559
6.23542
6.33299
6.40597
6.45724
6.48949
6.50664
6.51435
6.5135
6.50427
6.48679
6.46113
6.42739
6.38591
6.33759
6.28548
6.23549
6.19795
6.17199
6.1518
6.13293
6.11225
6.08802
6.06032
6.03142
5.99021
5.9275
5.83664
5.68932
5.43542
533.774
519.235
5.20492
5.62696
5.91544
6.10056
6.22956
6.3267
6.39943
6.45058
6.4829
6.50043
6.50894
6.50888
6.50052
6.48408
6.45964
6.4273
6.38742
6.34098
6.29125
6.24454
6.21126
6.18857
6.17105
6.15475
6.13677
6.11521
6.08971
6.06215
6.02
5.95501
5.86108
5.70933
5.44897
533.837
519.239
5.20554
5.62513
5.91123
6.09475
6.22289
6.31959
6.3921
6.44317
6.47566
6.49369
6.50294
6.5036
6.49609
6.4807
6.45756
6.42679
6.38877
6.34457
6.29765
6.25471
6.22562
6.20592
6.19063
6.17631
6.16044
6.14125
6.11822
6.09181
6.04903
5.98216
5.88547
5.72951
5.46281
533.898
519.243
5.20568
5.62264
5.90627
6.08816
6.21541
6.31166
6.38394
6.43499
6.46774
6.48649
6.49634
6.49764
6.49093
6.47659
6.45479
6.4257
6.38977
6.34817
6.30458
6.26606
6.24112
6.22428
6.21091
6.19805
6.18368
6.16637
6.14558
6.12022
6.07703
6.00867
5.90957
5.7497
5.4769
533.959
519.247
5.20536
5.61953
5.90062
6.08082
6.20715
6.30293
6.37499
6.42602
6.45904
6.47852
6.48903
6.491
6.48509
6.47177
6.45131
6.42396
6.39028
6.35157
6.31179
6.27834
6.2577
6.24383
6.23233
6.22065
6.20729
6.19127
6.17228
6.14776
6.10425
6.03468
5.9335
5.77004
5.49134
534.017
519.25
5.20456
5.61579
5.89425
6.07272
6.19808
6.29337
6.36523
6.4163
6.44968
6.46999
6.48118
6.48381
6.47864
6.46626
6.44706
6.42142
6.39002
6.35437
6.31873
6.29086
6.2748
6.26419
6.25477
6.24424
6.23159
6.21636
6.19864
6.17459
6.13071
6.06009
5.95709
5.79032
5.50597
534.074
519.254
5.20337
5.6115
5.88727
6.06392
6.18824
6.28298
6.35463
6.40577
6.43959
6.46081
6.47279
6.47611
6.47167
6.46017
6.44215
6.41813
6.38898
6.35646
6.32516
6.30317
6.29198
6.28503
6.27806
6.26891
6.25692
6.24216
6.22524
6.20128
6.15685
6.08522
5.98054
5.81067
5.52079
534.129
519.257
5.20184
5.60675
5.87974
6.05447
6.17765
6.27177
6.34316
6.39439
6.42872
6.45098
6.46383
6.46791
6.4642
6.45354
6.4366
6.4141
6.38711
6.35769
6.33082
6.31486
6.30878
6.30585
6.30175
6.29436
6.28319
6.26877
6.25229
6.228
6.18277
6.11005
6.00374
5.83088
5.5356
534.184
519.26
5.20012
5.6017
5.87182
6.04453
6.16643
6.25981
6.33086
6.38218
6.4171
6.44054
6.45441
6.45936
6.45643
6.44657
6.43063
6.4095
6.38453
6.3581
6.33567
6.32572
6.32484
6.32623
6.32547
6.32031
6.31033
6.29638
6.28018
6.25526
6.20895
6.13497
6.02695
5.8511
5.5504
534.237
519.264
5.1983
5.59649
5.86366
6.0342
6.15465
6.24711
6.31771
6.36906
6.40462
6.42936
6.44443
6.45041
6.44837
6.43937
6.4244
6.40457
6.3815
6.35796
6.33992
6.33571
6.33992
6.34574
6.34863
6.34618
6.33786
6.32467
6.30878
6.28303
6.23537
6.15993
6.05008
5.87115
5.56501
534.291
519.267
5.19659
5.59141
5.85553
6.02373
6.14252
6.23385
6.3038
6.35508
6.3913
6.41746
6.4339
6.4411
6.44012
6.43207
6.41809
6.39952
6.37828
6.35758
6.34394
6.34503
6.35405
6.36424
6.37097
6.37161
6.36545
6.35347
6.33814
6.31155
6.26237
6.18529
6.07343
5.89125
5.57957
534.344
519.271
5.19513
5.58662
5.84764
6.01332
6.1302
6.22012
6.28916
6.34022
6.37706
6.40474
6.42272
6.43136
6.43165
6.42474
6.41187
6.3946
6.37517
6.35728
6.34805
6.35389
6.36728
6.38158
6.39212
6.39608
6.39247
6.38215
6.36772
6.3404
6.28967
6.21082
6.09678
5.91121
5.5939
534.4
519.275
5.19414
5.58242
5.84027
6.00325
6.11795
6.20612
6.27393
6.32452
6.36192
6.39109
6.41074
6.42107
6.42291
6.41738
6.40581
6.38995
6.3724
6.35732
6.35248
6.36257
6.37986
6.39794
6.41215
6.41953
6.41882
6.4106
6.39752
6.36971
6.31748
6.2368
6.12047
5.93132
5.60826
534.454
519.28
5.1938
5.57905
5.83368
5.99378
6.10603
6.19207
6.25821
6.30803
6.34598
6.37638
6.39774
6.40997
6.41368
6.40986
6.39988
6.38566
6.3701
6.35788
6.35736
6.37127
6.39199
6.41338
6.43094
6.44159
6.44384
6.43807
6.42672
6.3988
6.34528
6.26284
6.14417
5.95137
5.62253
534.511
519.285
5.19425
5.57664
5.82804
5.98513
6.09467
6.17818
6.24214
6.29066
6.32879
6.3603
6.38347
6.39785
6.40375
6.402
6.39396
6.38168
6.36837
6.35916
6.36295
6.38039
6.40415
6.42845
6.44899
6.46272
6.46806
6.4653
6.45563
6.42778
6.37322
6.28916
6.1682
5.97172
5.63706
534.568
519.29
5.19555
5.57527
5.82343
5.97741
6.08403
6.16465
6.22592
6.27261
6.31048
6.34284
6.36777
6.38445
6.39284
6.39354
6.38785
6.37789
6.36714
6.3612
6.36931
6.39008
6.41655
6.44336
6.46648
6.48301
6.49135
6.49171
6.48379
6.45621
6.40082
6.31533
6.19217
5.99207
5.65165
534.626
519.296
5.19768
5.57487
5.8198
5.97064
6.07421
6.15162
6.20972
6.25399
6.29107
6.32392
6.35046
6.36951
6.38062
6.38413
6.3812
6.37403
6.36631
6.36405
6.37659
6.40062
6.42962
6.45864
6.48398
6.50298
6.51411
6.51754
6.51143
6.48429
6.42832
6.3416
6.21641
6.01279
5.66665
534.684
519.302
5.20046
5.57521
5.81696
5.96468
6.06514
6.13914
6.19365
6.23496
6.27065
6.30351
6.33141
6.35279
6.36678
6.37341
6.37366
6.36977
6.36561
6.36758
6.38464
6.41193
6.44336
6.47439
6.50167
6.5228
6.5364
6.54269
6.53831
6.51168
6.45528
6.36751
6.24044
6.03346
5.6817
534.744
519.309
5.20365
5.576
5.81462
5.95932
6.05672
6.1272
6.17786
6.21572
6.24946
6.28177
6.31063
6.33416
6.35107
6.36103
6.36485
6.36473
6.36476
6.37167
6.39335
6.42398
6.45787
6.49084
6.51988
6.54287
6.55867
6.5676
6.56484
6.53876
6.4821
6.39345
6.26466
6.05443
5.69707
534.804
519.316
5.20695
5.57686
5.81243
5.95425
6.04871
6.1157
6.16235
6.19642
6.22765
6.25885
6.2882
6.31359
6.33334
6.34674
6.3544
6.3585
6.36328
6.37581
6.40225
6.43637
6.47284
6.50781
6.53855
6.56323
6.58096
6.59224
6.59086
6.56524
6.50833
6.4189
6.28849
6.07514
5.7123
534.866
519.322
5.21008
5.57749
5.81011
5.94921
6.04089
6.10454
6.1472
6.1773
6.20559
6.23509
6.26438
6.29122
6.31357
6.33037
6.34202
6.35065
6.36066
6.37939
6.41085
6.44873
6.48802
6.52515
6.55767
6.58401
6.60355
6.617
6.61687
6.59165
6.53452
6.44436
6.3124
6.09598
5.72763
534.926
519.328
5.21281
5.57764
5.80739
5.94393
6.03302
6.0935
6.13234
6.15845
6.18354
6.21092
6.2396
6.26741
6.29201
6.31204
6.32767
6.34099
6.35653
6.38184
6.41858
6.4605
6.5029
6.54246
6.57693
6.60498
6.62625
6.64168
6.64256
6.61757
6.56016
6.46927
6.3358
6.11634
5.74256
534.99
519.335
5.2151
5.57726
5.80418
5.93826
6.0249
6.08243
6.11766
6.13994
6.16177
6.18672
6.21435
6.24261
6.26904
6.292
6.31147
6.3295
6.35077
6.38289
6.42512
6.47137
6.51719
6.55949
6.5962
6.62616
6.64924
6.66666
6.66846
6.6436
6.58583
6.49417
6.35916
6.13665
5.7574
535.053
519.341
5.21702
5.57641
5.80048
5.93211
6.01638
6.07109
6.10298
6.12175
6.14052
6.16299
6.18925
6.21752
6.2453
6.27079
6.29383
6.31646
6.3435
6.38243
6.43019
6.48091
6.53039
6.57567
6.61483
6.64688
6.67188
6.69125
6.69393
6.66912
6.61092
6.51846
6.38187
6.15629
5.77163
535.118
519.347
5.21873
5.57523
5.79632
5.9254
6.00722
6.05917
6.08791
6.10352
6.11963
6.13984
6.16467
6.19267
6.22143
6.24909
6.27541
6.30247
6.33528
6.3808
6.43401
6.48926
6.54256
6.5911
6.63306
6.66761
6.69511
6.71615
6.71954
6.69468
6.636
6.54267
6.40445
6.17574
5.78565
535.183
519.353
5.22049
5.57395
5.79183
5.91813
5.99732
6.04639
6.07207
6.08489
6.09884
6.11723
6.14085
6.16852
6.19801
6.22751
6.25684
6.28817
6.32674
6.37832
6.43665
6.4963
6.55344
6.60537
6.65036
6.68768
6.71792
6.7406
6.7446
6.71961
6.66039
6.56616
6.42629
6.19443
5.799
535.249
519.359
5.22249
5.57272
5.78705
5.91023
5.98648
6.03239
6.05495
6.06526
6.07762
6.09481
6.11771
6.14528
6.17549
6.20669
6.23883
6.27429
6.31859
6.37565
6.43867
6.50247
6.56338
6.61878
6.667
6.70736
6.74058
6.76498
6.7696
6.74444
6.68464
6.58948
6.44791
6.21286
5.81207
535.314
519.367
5.22491
5.57169
5.78208
5.90173
5.9746
6.01693
6.03615
6.04414
6.05534
6.07201
6.09485
6.12278
6.1539
6.18679
6.22161
6.26104
6.31092
6.37289
6.44014
6.50775
6.57221
6.631
6.68247
6.72597
6.76229
6.7885
6.79375
6.76844
6.70807
6.61198
6.46872
6.2305
5.82447
535.38
519.374
5.22781
5.57086
5.7769
5.8926
5.96161
5.99982
6.01532
6.02115
6.03137
6.04818
6.07178
6.10078
6.13326
6.16799
6.20548
6.24875
6.30397
6.37041
6.44149
6.51259
6.58039
6.64247
6.69719
6.74392
6.78347
6.81157
6.81752
6.79209
6.73119
6.63418
6.48923
6.24786
5.83659
535.444
519.383
5.23101
5.57008
5.77145
5.88285
5.9475
5.98095
5.99209
5.99541
6.00482
6.02236
6.04759
6.07852
6.11302
6.15003
6.19036
6.23746
6.29774
6.36822
6.4427
6.5169
6.58775
6.65291
6.71077
6.76069
6.80346
6.83349
6.84018
6.8147
6.75333
6.65547
6.50889
6.26443
5.84805
535.508
519.391
5.2344
5.56929
5.76576
5.87259
5.9325
5.9606
5.96677
5.96709
5.97557
5.99417
6.02168
6.05534
6.09263
6.1325
6.17605
6.22716
6.29233
6.36653
6.44406
6.52106
6.59468
6.66272
6.7236
6.77669
6.82272
6.85473
6.86224
6.83677
6.77499
6.67634
6.52818
6.28067
5.85921
535.57
519.4
5.23769
5.56824
5.7597
5.86182
5.91665
5.93888
5.9394
5.93609
5.94337
5.96315
5.99343
6.03055
6.07145
6.11492
6.16228
6.21778
6.28761
6.36523
6.44547
6.52492
6.60099
6.67164
6.73537
6.79148
6.84066
6.87461
6.88298
6.85763
6.79557
6.69623
6.54659
6.29615
5.86973
535.631
519.408
5.24082
5.56695
5.75337
5.85069
5.90024
5.91618
5.91052
5.90294
5.90848
5.92919
5.9624
6.00351
6.04875
6.09664
6.14857
6.20914
6.28347
6.3643
6.44706
6.52873
6.60703
6.68009
6.74647
6.80548
6.8578
6.89371
6.90298
6.8778
6.81554
6.71559
6.56454
6.31124
5.8799
535.69
519.417
5.24374
5.56535
5.7467
5.83917
5.88323
5.89255
5.88023
5.86785
5.8711
5.89239
5.9285
5.97394
6.02414
6.0772
6.13448
6.20079
6.27954
6.36345
6.44851
6.53215
6.61241
6.68762
6.75646
6.81832
6.87349
6.91131
6.92154
6.89668
6.83435
6.73392
6.5816
6.32556
5.88944
535.748
519.425
5.24659
5.56356
5.73979
5.82733
5.8657
5.86805
5.84864
5.83091
5.83133
5.85277
5.89159
5.94146
5.997
6.05581
6.11912
6.19184
6.27525
6.36242
6.44988
6.53549
6.61764
6.69492
6.76618
6.83096
6.88859
6.92811
6.93925
6.91473
6.8524
6.75156
6.59805
6.33935
5.89851
535.804
519.434
5.24942
5.56159
5.73265
5.81525
5.84781
5.84288
5.81595
5.79235
5.78942
5.81059
5.85191
5.90623
5.96735
6.03232
6.10214
6.18167
6.27001
6.36062
6.45056
6.53815
6.62212
6.70135
6.77492
6.84247
6.90238
6.94349
6.95556
6.93147
6.86926
6.76815
6.61357
6.35236
5.9069
535.858
519.442
5.2521
5.55938
5.72527
5.80289
5.82955
5.81717
5.78226
5.75216
5.74518
5.76552
5.80904
5.86779
5.93471
6.00621
6.08302
6.16984
6.2635
6.35794
6.45068
6.54044
6.62632
6.7075
6.78328
6.85347
6.91545
6.958
6.97091
6.94725
6.88521
6.78388
6.6283
6.36464
5.91465
535.911
519.451
5.25446
5.55683
5.71773
5.79056
5.81137
5.79146
5.74824
5.71095
5.69889
5.71756
5.76282
5.82593
5.89883
5.97722
6.06142
6.1558
6.25511
6.35369
6.4495
6.54162
6.62949
6.71262
6.79055
6.86324
6.9272
6.97114
6.98491
6.96175
6.89997
6.79854
6.64208
6.37609
5.92169
535.961
519.459
5.25629
5.55388
5.7101
5.77842
5.79366
5.76637
5.7146
5.66918
5.65076
5.66639
5.71256
5.77979
5.85889
5.94462
6.03678
6.13919
6.24463
6.34785