/*--------------------------------*- C++ -*----------------------------------*\
| =========                 |                                                 |
| \\      /  F ield         | OpenFOAM: The Open Source CFD Toolbox           |
|  \\    /   O peration     | Version:  v2006                                 |
|   \\  /    A nd           | Website:  www.openfoam.com                      |
|    \\/     M anipulation  |                                                 |
\*---------------------------------------------------------------------------*/
FoamFile
{
    version     2.0;
    format      ascii;
    class       volScalarField;
    location    "48";
    object      T;
}
// * * * * * * * * * * * * * * * * * * * * * * * * * * * * * * * * * * * * * //

dimensions      [0 0 0 1 0 0 0];


internalField   nonuniform List<scalar> 
78750
(
300.049
300.125
300.168
300.191
300.204
300.211
300.213
300.212
300.209
300.204
300.198
300.191
300.184
300.177
300.169
300.162
300.154
300.147
300.14
300.134
300.128
300.122
300.117
300.112
300.108
300.106
300.107
300.114
300.133
300.178
300.279
300.495
300.917
301.622
302.558
300.034
300.097
300.154
300.204
300.244
300.275
300.297
300.31
300.316
300.317
300.312
300.304
300.294
300.281
300.268
300.253
300.238
300.224
300.21
300.197
300.186
300.176
300.169
300.163
300.16
300.161
300.168
300.185
300.221
300.294
300.439
300.716
301.197
301.917
302.834
300.047
300.137
300.22
300.295
300.359
300.413
300.456
300.49
300.516
300.535
300.548
300.555
300.557
300.554
300.545
300.533
300.516
300.495
300.472
300.446
300.419
300.393
300.368
300.346
300.33
300.323
300.328
300.352
300.406
300.513
300.706
301.036
301.553
302.278
303.19
300.052
300.15
300.24
300.321
300.392
300.454
300.51
300.559
300.603
300.641
300.674
300.702
300.725
300.743
300.756
300.763
300.764
300.759
300.748
300.731
300.708
300.68
300.648
300.612
300.576
300.542
300.518
300.516
300.554
300.662
300.875
301.239
301.788
302.533
303.458
300.057
300.165
300.263
300.351
300.428
300.496
300.554
300.607
300.653
300.695
300.733
300.766
300.795
300.82
300.842
300.859
300.872
300.881
300.884
300.882
300.874
300.859
300.837
300.809
300.775
300.738
300.706
300.691
300.715
300.816
301.037
301.425
301.996
302.758
303.694
300.061
300.176
300.28
300.374
300.457
300.529
300.59
300.643
300.691
300.734
300.772
300.806
300.836
300.863
300.885
300.904
300.919
300.931
300.94
300.945
300.945
300.94
300.929
300.913
300.89
300.864
300.84
300.829
300.854
300.954
301.18
301.581
302.165
302.936
303.881
300.066
300.191
300.305
300.409
300.5
300.578
300.643
300.7
300.75
300.796
300.836
300.871
300.902
300.929
300.952
300.97
300.985
300.996
301.004
301.007
301.007
301.002
300.993
300.979
300.962
300.944
300.929
300.928
300.965
301.078
301.319
301.736
302.328
303.102
304.052
300.072
300.208
300.332
300.444
300.541
300.622
300.689
300.746
300.797
300.842
300.883
300.919
300.951
300.978
301.001
301.021
301.038
301.051
301.06
301.065
301.066
301.062
301.054
301.042
301.027
301.012
301.002
301.01
301.058
301.185
301.441
301.872
302.47
303.243
304.197
300.077
300.223
300.356
300.474
300.576
300.66
300.729
300.787
300.839
300.885
300.927
300.963
300.995
301.023
301.047
301.067
301.085
301.098
301.107
301.113
301.114
301.11
301.103
301.092
301.08
301.069
301.065
301.082
301.143
301.286
301.56
302.005
302.605
303.377
304.332
300.081
300.236
300.377
300.502
300.608
300.695
300.766
300.826
300.88
300.927
300.969
301.007
301.039
301.068
301.094
301.115
301.133
301.147
301.157
301.162
301.162
301.158
301.151
301.141
301.13
301.121
301.122
301.147
301.22
301.377
301.666
302.123
302.726
303.497
304.452
300.086
300.249
300.397
300.528
300.639
300.729
300.801
300.863
300.917
300.965
301.008
301.046
301.08
301.11
301.137
301.159
301.178
301.192
301.202
301.207
301.207
301.203
301.196
301.186
301.176
301.171
301.177
301.209
301.293
301.465
301.769
302.235
302.841
303.61
304.564
300.09
300.261
300.416
300.553
300.668
300.76
300.834
300.897
300.952
301.001
301.045
301.084
301.119
301.151
301.178
301.202
301.221
301.235
301.245
301.25
301.25
301.247
301.24
301.23
301.222
301.218
301.228
301.268
301.362
301.547
301.864
302.339
302.946
303.715
304.668
300.094
300.272
300.434
300.576
300.694
300.789
300.865
300.929
300.985
301.035
301.08
301.12
301.157
301.19
301.219
301.243
301.262
301.277
301.287
301.292
301.292
301.288
301.281
301.273
301.265
301.264
301.278
301.325
301.428
301.625
301.954
302.436
303.045
303.814
304.766
300.098
300.283
300.452
300.599
300.72
300.817
300.894
300.96
301.017
301.068
301.114
301.156
301.194
301.228
301.258
301.282
301.302
301.317
301.327
301.332
301.333
301.329
301.322
301.314
301.308
301.309
301.327
301.38
301.492
301.699
302.039
302.526
303.136
303.906
304.857
300.101
300.294
300.468
300.619
300.744
300.842
300.921
300.988
301.047
301.099
301.147
301.19
301.23
301.265
301.295
301.32
301.341
301.356
301.366
301.371
301.372
301.369
301.362
301.355
301.35
301.353
301.375
301.433
301.553
301.771
302.119
302.611
303.223
303.994
304.943
300.105
300.304
300.484
300.64
300.767
300.867
300.948
301.016
301.076
301.13
301.179
301.224
301.264
301.3
301.331
301.358
301.378
301.394
301.404
301.41
301.411
301.407
301.401
301.395
301.391
301.396
301.421
301.485
301.613
301.839
302.196
302.691
303.304
304.076
305.025
300.108
300.314
300.499
300.659
300.789
300.891
300.973
301.043
301.104
301.16
301.21
301.256
301.298
301.335
301.367
301.393
301.415
301.431
301.441
301.447
301.448
301.445
301.44
301.434
301.431
301.438
301.467
301.536
301.67
301.904
302.269
302.767
303.382
304.155
305.103
300.111
300.323
300.514
300.678
300.811
300.914
300.998
301.069
301.132
301.189
301.241
301.288
301.331
301.369
301.401
301.429
301.45
301.467
301.478
301.484
301.485
301.483
301.478
301.473
301.471
301.48
301.512
301.585
301.726
301.968
302.338
302.84
303.455
304.23
305.177
300.114
300.332
300.528
300.696
300.831
300.937
301.022
301.095
301.159
301.217
301.271
301.319
301.363
301.402
301.435
301.463
301.485
301.502
301.513
301.52
301.521
301.519
301.515
301.511
301.51
301.522
301.557
301.634
301.781
302.029
302.406
302.909
303.526
304.302
305.249
300.118
300.341
300.542
300.714
300.851
300.959
301.046
301.12
301.186
301.245
301.3
301.35
301.395
301.434
301.468
301.497
301.52
301.537
301.548
301.555
301.557
301.556
301.552
301.548
301.549
301.562
301.6
301.682
301.835
302.089
302.471
302.976
303.593
304.372
305.318
300.121
300.35
300.555
300.731
300.871
300.98
301.069
301.144
301.211
301.273
301.329
301.379
301.425
301.466
301.501
301.53
301.553
301.571
301.583
301.59
301.593
301.592
301.588
301.586
301.588
301.603
301.644
301.73
301.887
302.147
302.534
303.041
303.659
304.439
305.385
300.124
300.358
300.568
300.748
300.89
301.001
301.091
301.168
301.237
301.3
301.357
301.409
301.456
301.497
301.533
301.563
301.586
301.604
301.617
301.624
301.627
301.627
301.624
301.623
301.626
301.643
301.686
301.776
301.939
302.204
302.596
303.104
303.722
304.503
305.45
300.126
300.366
300.581
300.764
300.909
301.022
301.113
301.192
301.262
301.326
301.384
301.438
301.486
301.528
301.564
301.595
301.619
301.637
301.65
301.658
301.662
301.662
301.66
301.659
301.664
301.683
301.729
301.822
301.99
302.26
302.656
303.165
303.784
304.567
305.513
300.129
300.375
300.594
300.781
300.928
301.042
301.135
301.215
301.287
301.352
301.412
301.466
301.515
301.558
301.595
301.626
301.651
301.67
301.684
301.692
301.696
301.697
301.696
301.696
301.702
301.722
301.771
301.868
302.04
302.315
302.715
303.225
303.844
304.628
305.574
300.132
300.383
300.607
300.797
300.946
301.062
301.156
301.238
301.311
301.378
301.439
301.494
301.544
301.588
301.626
301.658
301.683
301.702
301.716
301.725
301.73
301.731
301.731
301.732
301.739
301.762
301.813
301.913
302.089
302.369
302.772
303.284
303.902
304.688
305.634
300.135
300.391
300.619
300.813
300.964
301.082
301.177
301.26
301.335
301.403
301.465
301.522
301.573
301.618
301.656
301.689
301.714
301.734
301.749
301.758
301.763
301.765
301.766
301.768
301.776
301.801
301.854
301.958
302.138
302.422
302.829
303.341
303.96
304.746
305.692
300.138
300.399
300.632
300.828
300.982
301.101
301.198
301.282
301.358
301.428
301.492
301.549
301.601
301.647
301.686
301.719
301.745
301.766
301.781
301.791
301.796
301.799
301.8
301.803
301.813
301.839
301.896
302.003
302.187
302.475
302.885
303.397
304.016
304.803
305.749
300.14
300.407
300.644
300.844
301
301.12
301.219
301.304
301.382
301.453
301.518
301.577
301.629
301.676
301.716
301.749
301.776
301.797
301.813
301.823
301.829
301.833
301.835
301.839
301.85
301.878
301.937
302.047
302.235
302.527
302.939
303.452
304.07
304.859
305.805
300.143
300.415
300.657
300.859
301.017
301.139
301.239
301.326
301.405
301.477
301.543
301.603
301.657
301.705
301.745
301.779
301.807
301.828
301.844
301.855
301.862
301.866
301.869
301.874
301.887
301.917
301.978
302.091
302.282
302.578
302.993
303.506
304.124
304.914
305.861
300.146
300.422
300.669
300.875
301.035
301.158
301.259
301.348
301.428
301.501
301.569
301.63
301.685
301.733
301.774
301.809
301.837
301.859
301.875
301.887
301.895
301.9
301.904
301.91
301.924
301.956
302.019
302.135
302.33
302.629
303.047
303.56
304.178
304.968
305.915
300.149
300.43
300.681
300.89
301.052
301.176
301.279
301.369
301.45
301.525
301.594
301.656
301.712
301.761
301.803
301.838
301.867
301.89
301.907
301.919
301.927
301.933
301.938
301.945
301.961
301.995
302.06
302.179
302.377
302.68
303.1
303.613
304.23
305.022
305.97
300.151
300.438
300.693
300.905
301.069
301.195
301.299
301.39
301.473
301.549
301.619
301.682
301.739
301.789
301.832
301.868
301.897
301.92
301.938
301.95
301.959
301.966
301.972
301.981
301.998
302.033
302.102
302.224
302.425
302.731
303.153
303.665
304.282
305.075
306.023
300.154
300.445
300.704
300.92
301.085
301.213
301.318
301.411
301.495
301.572
301.644
301.708
301.766
301.817
301.86
301.897
301.926
301.95
301.968
301.982
301.992
301.999
302.006
302.016
302.035
302.072
302.143
302.268
302.472
302.782
303.206
303.718
304.334
305.128
306.077
300.157
300.453
300.716
300.934
301.102
301.23
301.337
301.431
301.517
301.596
301.668
301.734
301.793
301.844
301.888
301.925
301.956
301.98
301.999
302.013
302.024
302.032
302.04
302.051
302.072
302.111
302.185
302.313
302.52
302.833
303.259
303.77
304.386
305.181
306.131
300.159
300.461
300.728
300.949
301.118
301.248
301.356
301.452
301.539
301.619
301.692
301.759
301.819
301.871
301.916
301.954
301.985
302.01
302.029
302.044
302.055
302.065
302.074
302.087
302.109
302.151
302.227
302.358
302.569
302.884
303.312
303.823
304.438
305.234
306.184
300.162
300.468
300.739
300.963
301.134
301.266
301.375
301.472
301.561
301.642
301.717
301.785
301.845
301.898
301.944
301.983
302.014
302.04
302.06
302.075
302.087
302.097
302.108
302.122
302.146
302.19
302.269
302.403
302.617
302.936
303.366
303.876
304.489
305.287
306.238
300.164
300.475
300.751
300.977
301.15
301.283
301.394
301.492
301.582
301.665
301.741
301.81
301.871
301.925
301.972
302.011
302.043
302.069
302.09
302.106
302.119
302.13
302.142
302.158
302.184
302.23
302.312
302.449
302.667
302.988
303.42
303.929
304.541
305.34
306.292
300.167
300.483
300.762
300.991
301.166
301.3
301.413
301.512
301.604
301.688
301.765
301.835
301.898
301.952
301.999
302.039
302.072
302.098
302.12
302.137
302.15
302.163
302.176
302.193
302.221
302.27
302.355
302.495
302.717
303.041
303.474
303.982
304.594
305.393
306.346
300.17
300.49
300.773
301.005
301.182
301.318
301.431
301.533
301.625
301.711
301.789
301.86
301.924
301.979
302.027
302.067
302.1
302.128
302.149
302.167
302.182
302.195
302.209
302.229
302.259
302.31
302.398
302.542
302.767
303.095
303.529
304.036
304.646
305.446
306.4
300.172
300.497
300.784
301.019
301.197
301.335
301.45
301.553
301.647
301.733
301.813
301.885
301.949
302.006
302.054
302.095
302.129
302.157
302.179
302.198
302.213
302.228
302.243
302.264
302.297
302.351
302.442
302.589
302.818
303.149
303.585
304.09
304.699
305.5
306.455
300.175
300.504
300.796
301.034
301.213
301.352
301.469
301.573
301.668
301.756
301.837
301.91
301.975
302.032
302.081
302.123
302.157
302.186
302.209
302.228
302.244
302.26
302.277
302.3
302.335
302.392
302.486
302.637
302.87
303.204
303.641
304.144
304.752
305.554
306.509
300.177
300.512
300.807
301.048
301.229
301.369
301.487
301.593
301.69
301.779
301.861
301.935
302.001
302.059
302.109
302.151
302.186
302.214
302.238
302.258
302.276
302.292
302.311
302.335
302.373
302.433
302.53
302.686
302.922
303.259
303.697
304.199
304.805
305.608
306.563
300.18
300.519
300.818
301.062
301.245
301.386
301.506
301.613
301.711
301.802
301.885
301.96
302.027
302.085
302.136
302.178
302.214
302.243
302.268
302.288
302.307
302.325
302.345
302.371
302.411
302.474
302.575
302.734
302.975
303.315
303.754
304.254
304.859
305.662
306.618
300.182
300.526
300.83
301.076
301.261
301.404
301.525
301.633
301.733
301.825
301.909
301.985
302.053
302.112
302.163
302.206
302.242
302.272
302.297
302.318
302.338
302.357
302.378
302.407
302.449
302.515
302.62
302.784
303.028
303.371
303.811
304.309
304.912
305.715
306.672
300.185
300.534
300.841
301.09
301.276
301.421
301.543
301.653
301.754
301.848
301.933
302.01
302.078
302.138
302.19
302.233
302.27
302.3
302.326
302.348
302.368
302.389
302.412
302.443
302.487
302.557
302.666
302.833
303.082
303.428
303.868
304.364
304.965
305.769
306.726
300.187
300.541
300.852
301.104
301.292
301.438
301.562
301.674
301.776
301.87
301.957
302.035
302.104
302.165
302.217
302.261
302.298
302.329
302.355
302.378
302.399
302.421
302.446
302.478
302.526
302.599
302.712
302.883
303.136
303.485
303.925
304.419
305.019
305.823
306.779
300.19
300.549
300.864
301.118
301.308
301.455
301.581
301.694
301.798
301.893
301.981
302.06
302.13
302.191
302.243
302.288
302.325
302.357
302.384
302.408
302.43
302.453
302.479
302.514
302.564
302.641
302.757
302.934
303.19
303.542
303.982
304.474
305.072
305.876
306.833
300.193
300.556
300.875
301.132
301.324
301.473
301.6
301.714
301.819
301.916
302.005
302.085
302.155
302.217
302.27
302.315
302.353
302.385
302.413
302.437
302.46
302.484
302.513
302.55
302.603
302.683
302.803
302.984
303.245
303.599
304.039
304.529
305.125
305.929
306.885
300.195
300.563
300.887
301.146
301.339
301.49
301.618
301.734
301.841
301.939
302.029
302.11
302.181
302.243
302.297
302.342
302.38
302.413
302.441
302.466
302.491
302.516
302.546
302.585
302.641
302.724
302.849
303.034
303.299
303.656
304.096
304.583
305.177
305.981
306.937
300.198
300.571
300.898
301.16
301.355
301.507
301.637
301.754
301.862
301.962
302.053
302.134
302.207
302.269
302.323
302.369
302.408
302.441
302.47
302.496
302.521
302.547
302.579
302.621
302.68
302.766
302.895
303.084
303.353
303.712
304.152
304.637
305.229
306.032
306.987
300.2
300.578
300.909
301.174
301.371
301.524
301.656
301.774
301.884
301.985
302.077
302.159
302.232
302.295
302.35
302.396
302.435
302.469
302.498
302.525
302.551
302.579
302.612
302.656
302.718
302.808
302.941
303.134
303.406
303.768
304.207
304.69
305.28
306.082
307.037
300.203
300.586
300.921
301.188
301.387
301.541
301.674
301.795
301.906
302.008
302.101
302.184
302.258
302.321
302.376
302.423
302.462
302.496
302.526
302.554
302.581
302.61
302.645
302.691
302.756
302.849
302.986
303.183
303.459
303.823
304.262
304.742
305.33
306.132
307.086
300.206
300.593
300.932
301.202
301.402
301.559
301.693
301.815
301.927
302.031
302.125
302.209
302.283
302.347
302.402
302.449
302.489
302.524
302.554
302.582
302.611
302.641
302.678
302.727
302.794
302.891
303.031
303.233
303.512
303.878
304.315
304.793
305.379
306.18
307.134
300.208
300.6
300.943
301.216
301.418
301.576
301.712
301.836
301.949
302.054
302.149
302.234
302.309
302.373
302.429
302.476
302.516
302.551
302.582
302.611
302.64
302.672
302.711
302.762
302.832
302.932
303.077
303.282
303.565
303.932
304.368
304.843
305.428
306.228
307.181
300.211
300.608
300.955
301.23
301.434
301.594
301.731
301.856
301.971
302.077
302.173
302.259
302.334
302.399
302.455
302.503
302.543
302.578
302.61
302.64
302.67
302.703
302.744
302.797
302.87
302.974
303.122
303.331
303.617
303.986
304.421
304.893
305.475
306.275
307.227
300.213
300.615
300.966
301.244
301.45
301.611
301.751
301.877
301.994
302.101
302.198
302.284
302.36
302.425
302.481
302.529
302.57
302.605
302.637
302.668
302.699
302.734
302.776
302.831
302.907
303.015
303.167
303.38
303.669
304.039
304.472
304.942
305.522
306.321
307.273
300.216
300.623
300.978
301.259
301.467
301.629
301.77
301.898
302.016
302.125
302.223
302.31
302.386
302.452
302.508
302.556
302.597
302.632
302.665
302.696
302.728
302.764
302.808
302.866
302.945
303.055
303.212
303.429
303.721
304.092
304.523
304.989
305.568
306.366
307.317
300.219
300.63
300.99
301.274
301.483
301.648
301.79
301.92
302.039
302.149
302.248
302.336
302.412
302.478
302.534
302.582
302.623
302.659
302.692
302.724
302.757
302.794
302.84
302.9
302.981
303.096
303.256
303.476
303.771
304.144
304.572
305.036
305.613
306.41
307.36
300.221
300.638
301.002
301.289
301.5
301.667
301.811
301.942
302.063
302.174
302.273
302.362
302.439
302.505
302.561
302.609
302.65
302.686
302.72
302.752
302.786
302.824
302.871
302.933
303.018
303.135
303.299
303.523
303.821
304.194
304.621
305.082
305.657
306.452
307.401
300.224
300.646
301.014
301.304
301.518
301.686
301.832
301.965
302.087
302.199
302.299
302.388
302.465
302.531
302.588
302.636
302.677
302.713
302.747
302.78
302.814
302.854
302.903
302.966
303.053
303.174
303.341
303.568
303.869
304.243
304.668
305.126
305.699
306.493
307.441
300.227
300.654
301.027
301.32
301.536
301.705
301.853
301.988
302.111
302.224
302.326
302.415
302.492
302.558
302.615
302.662
302.704
302.74
302.774
302.808
302.843
302.884
302.934
302.999
303.088
303.211
303.382
303.613
303.915
304.29
304.713
305.169
305.74
306.533
307.479
300.23
300.663
301.04
301.336
301.554
301.725
301.875
302.011
302.136
302.251
302.353
302.442
302.52
302.586
302.642
302.689
302.731
302.767
302.802
302.836
302.872
302.913
302.965
303.032
303.123
303.249
303.422
303.656
303.961
304.335
304.756
305.21
305.779
306.571
307.516
300.233
300.671
301.053
301.352
301.572
301.746
301.897
302.035
302.162
302.277
302.38
302.47
302.547
302.613
302.669
302.717
302.758
302.795
302.829
302.863
302.9
302.943
302.996
303.065
303.158
303.286
303.461
303.698
304.005
304.379
304.798
305.249
305.817
306.607
307.551
300.236
300.68
301.067
301.369
301.591
301.767
301.92
302.06
302.188
302.304
302.408
302.498
302.576
302.641
302.697
302.744
302.785
302.822
302.857
302.891
302.929
302.973
303.027
303.097
303.193
303.323
303.501
303.739
304.048
304.422
304.839
305.288
305.854
306.643
307.586
300.239
300.689
301.081
301.386
301.61
301.788
301.943
302.084
302.214
302.332
302.436
302.527
302.604
302.669
302.724
302.771
302.812
302.849
302.884
302.919
302.958
303.003
303.058
303.131
303.228
303.36
303.54
303.781
304.09
304.464
304.879
305.325
305.89
306.678
307.62
300.242
300.699
301.095
301.403
301.63
301.809
301.966
302.109
302.241
302.359
302.464
302.555
302.632
302.698
302.752
302.799
302.84
302.876
302.912
302.947
302.986
303.032
303.09
303.164
303.263
303.398
303.58
303.822
304.133
304.506
304.918
305.362
305.925
306.712
307.654
300.246
300.708
301.109
301.421
301.649
301.831
301.99
302.135
302.268
302.387
302.493
302.584
302.661
302.726
302.78
302.827
302.867
302.904
302.939
302.975
303.015
303.062
303.121
303.197
303.299
303.436
303.62
303.864
304.176
304.548
304.957
305.398
305.96
306.746
307.688
300.249
300.717
301.123
301.438
301.669
301.852
302.013
302.16
302.295
302.416
302.522
302.613
302.69
302.755
302.809
302.855
302.895
302.931
302.967
303.003
303.044
303.092
303.152
303.23
303.334
303.474
303.661
303.907
304.218
304.589
304.995
305.434
305.994
306.78
307.722
300.252
300.727
301.138
301.456
301.689
301.874
302.037
302.186
302.322
302.444
302.551
302.642
302.719
302.783
302.837
302.882
302.922
302.959
302.994
303.031
303.072
303.121
303.183
303.263
303.369
303.511
303.701
303.949
304.261
304.631
305.033
305.469
306.029
306.813
307.754
300.256
300.736
301.152
301.474
301.709
301.896
302.061
302.212
302.35
302.473
302.58
302.672
302.748
302.812
302.865
302.91
302.95
302.986
303.022
303.059
303.1
303.15
303.213
303.295
303.403
303.548
303.74
303.99
304.303
304.671
305.07
305.504
306.062
306.846
307.786
300.259
300.746
301.167
301.491
301.729
301.918
302.085
302.238
302.378
302.502
302.61
302.701
302.778
302.841
302.894
302.939
302.978
303.014
303.049
303.086
303.128
303.179
303.243
303.326
303.437
303.584
303.778
304.03
304.344
304.71
305.107
305.538
306.094
306.877
307.817
300.262
300.756
301.181
301.509
301.749
301.94
302.11
302.265
302.406
302.531
302.639
302.731
302.807
302.87
302.922
302.967
303.006
303.041
303.077
303.114
303.156
303.208
303.273
303.357
303.469
303.619
303.815
304.069
304.383
304.748
305.142
305.57
306.125
306.907
307.846
300.266
300.765
301.196
301.527
301.769
301.963
302.134
302.291
302.434
302.56
302.669
302.761
302.837
302.899
302.951
302.995
303.034
303.069
303.104
303.142
303.185
303.236
303.302
303.388
303.501
303.653
303.851
304.106
304.421
304.784
305.175
305.602
306.156
306.937
307.875
300.269
300.774
301.21
301.544
301.789
301.985
302.159
302.318
302.462
302.59
302.699
302.791
302.867
302.929
302.98
303.023
303.062
303.097
303.132
303.17
303.213
303.265
303.332
303.418
303.533
303.686
303.886
304.142
304.457
304.819
305.208
305.632
306.184
306.964
307.902
300.272
300.784
301.224
301.562
301.809
302.007
302.184
302.345
302.491
302.62
302.73
302.822
302.897
302.958
303.009
303.052
303.09
303.125
303.16
303.198
303.242
303.294
303.361
303.449
303.565
303.718
303.92
304.177
304.492
304.853
305.239
305.661
306.213
306.992
307.929
300.276
300.793
301.239
301.58
301.829
302.03
302.209
302.373
302.521
302.651
302.761
302.853
302.927
302.988
303.038
303.081
303.118
303.153
303.189
303.227
303.27
303.324
303.391
303.479
303.596
303.751
303.953
304.211
304.526
304.885
305.269
305.69
306.24
307.018
307.955
300.279
300.802
301.253
301.597
301.849
302.053
302.234
302.401
302.551
302.682
302.793
302.884
302.958
303.018
303.068
303.11
303.147
303.182
303.217
303.255
303.3
303.353
303.422
303.511
303.628
303.784
303.987
304.246
304.56
304.918
305.299
305.718
306.267
307.045
307.982
300.282
300.812
301.267
301.616
301.87
302.076
302.26
302.429
302.581
302.714
302.825
302.916
302.989
303.049
303.098
303.139
303.176
303.21
303.246
303.284
303.329
303.383
303.453
303.542
303.661
303.817
304.021
304.28
304.593
304.949
305.328
305.745
306.294
307.071
308.008
300.285
300.821
301.282
301.634
301.891
302.1
302.287
302.459
302.613
302.746
302.858
302.948
303.021
303.08
303.128
303.169
303.205
303.239
303.274
303.313
303.358
303.414
303.484
303.575
303.695
303.852
304.056
304.315
304.628
304.982
305.358
305.773
306.321
307.099
308.036
300.289
300.831
301.297
301.653
301.913
302.124
302.314
302.489
302.645
302.78
302.891
302.981
303.054
303.111
303.158
303.198
303.234
303.268
303.303
303.342
303.388
303.444
303.515
303.608
303.728
303.887
304.092
304.351
304.662
305.014
305.387
305.801
306.348
307.126
308.063
300.292
300.841
301.313
301.672
301.935
302.149
302.343
302.52
302.678
302.814
302.926
303.015
303.086
303.143
303.189
303.228
303.263
303.297
303.332
303.372
303.418
303.475
303.547
303.641
303.763
303.923
304.129
304.387
304.698
305.047
305.418
305.83
306.376
307.154
308.092
300.296
300.851
301.329
301.693
301.959
302.176
302.372
302.552
302.713
302.849
302.961
303.05
303.12
303.175
303.221
303.259
303.293
303.326
303.362
303.401
303.448
303.506
303.579
303.674
303.798
303.959
304.165
304.424
304.733
305.079
305.448
305.858
306.404
307.181
308.12
300.3
300.863
301.346
301.714
301.984
302.204
302.403
302.586
302.748
302.885
302.997
303.085
303.154
303.208
303.252
303.289
303.323
303.356
303.391
303.43
303.478
303.536
303.611
303.707
303.833
303.995
304.203
304.461
304.769
305.113
305.478
305.887
306.433
307.211
308.15
300.304
300.874
301.365
301.737
302.01
302.233
302.435
302.62
302.784
302.922
303.033
303.12
303.188
303.241
303.284
303.32
303.353
303.386
303.42
303.46
303.508
303.567
303.643
303.741
303.867
304.031
304.24
304.498
304.804
305.146
305.509
305.915
306.461
307.239
308.179
300.308
300.887
301.384
301.761
302.037
302.263
302.468
302.656
302.821
302.96
303.07
303.156
303.223
303.275
303.316
303.352
303.384
303.416
303.45
303.49
303.538
303.598
303.675
303.774
303.902
304.068
304.277
304.536
304.841
305.18
305.54
305.945
306.491
307.269
308.209
300.312
300.9
301.404
301.786
302.065
302.294
302.503
302.693
302.859
302.998
303.108
303.193
303.258
303.309
303.349
303.383
303.415
303.446
303.48
303.52
303.568
303.629
303.707
303.807
303.937
304.103
304.314
304.572
304.876
305.213
305.57
305.974
306.519
307.298
308.238
300.317
300.914
301.425
301.812
302.095
302.327
302.538
302.73
302.898
303.036
303.146
303.23
303.293
303.343
303.382
303.415
303.446
303.477
303.511
303.55
303.599
303.661
303.739
303.841
303.972
304.14
304.351
304.61
304.912
305.246
305.602
306.005
306.549
307.328
308.27
300.322
300.928
301.447
301.839
302.125
302.36
302.574
302.769
302.937
303.076
303.184
303.267
303.329
303.377
303.415
303.447
303.477
303.507
303.541
303.581
303.63
303.692
303.772
303.874
304.006
304.176
304.388
304.646
304.947
305.279
305.633
306.034
306.579
307.358
308.3
300.327
300.943
301.47
301.866
302.156
302.395
302.612
302.808
302.978
303.116
303.223
303.304
303.365
303.411
303.448
303.479
303.508
303.538
303.572
303.612
303.661
303.724
303.805
303.908
304.042
304.212
304.425
304.684
304.984
305.314
305.665
306.065
306.61
307.39
308.332
300.333
300.958
301.493
301.895
302.188
302.43
302.65
302.849
303.019
303.157
303.263
303.342
303.401
303.446
303.481
303.511
303.54
303.569
303.603
303.643
303.693
303.756
303.838
303.943
304.078
304.249
304.463
304.721
305.02
305.348
305.697
306.096
306.641
307.421
308.364
300.338
300.973
301.516
301.923
302.221
302.467
302.69
302.891
303.062
303.199
303.304
303.381
303.438
303.481
303.515
303.544
303.571
303.601
303.634
303.674
303.725
303.789
303.872
303.978
304.114
304.287
304.501
304.759
305.057
305.383
305.73
306.129
306.674
307.454
308.398
300.343
300.988
301.54
301.953
302.255
302.505
302.732
302.935
303.107
303.243
303.346
303.421
303.476
303.517
303.549
303.577
303.603
303.632
303.665
303.706
303.757
303.822
303.906
304.014
304.151
304.325
304.54
304.798
305.094
305.418
305.763
306.161
306.706
307.487
308.431
300.349
301.004
301.565
301.984
302.29
302.545
302.776
302.982
303.154
303.289
303.39
303.463
303.515
303.554
303.584
303.61
303.636
303.664
303.697
303.738
303.789
303.856
303.941
304.05
304.189
304.364
304.58
304.838
305.132
305.454
305.797
306.195
306.74
307.521
308.466
300.354
301.021
301.59
302.016
302.327
302.586
302.821
303.03
303.203
303.338
303.436
303.506
303.555
303.591
303.619
303.644
303.668
303.695
303.728
303.769
303.822
303.889
303.975
304.086
304.227
304.403
304.62
304.877
305.171
305.49
305.832
306.228
306.774
307.555
308.5
300.36
301.038
301.617
302.049
302.365
302.629
302.869
303.081
303.255
303.388
303.484
303.551
303.597
303.63
303.655
303.678
303.701
303.728
303.76
303.801
303.854
303.923
304.011
304.123
304.265
304.443
304.66
304.918
305.21
305.527
305.867
306.263
306.808
307.589
308.534
300.367
301.056
301.645
302.083
302.405
302.674
302.919
303.134
303.308
303.44
303.533
303.596
303.639
303.669
303.692
303.713
303.734
303.76
303.792
303.833
303.887
303.957
304.046
304.16
304.304
304.483
304.701
304.958
305.249
305.565
305.903
306.297
306.843
307.624
308.568
300.373
301.075
301.674
302.119
302.446
302.72
302.97
303.188
303.363
303.493
303.584
303.644
303.683
303.709
303.73
303.748
303.768
303.793
303.824
303.866
303.92
303.99
304.081
304.197
304.343
304.523
304.742
304.999
305.289
305.602
305.938
306.332
306.878
307.659
308.603
300.38
301.094
301.703
302.155
302.487
302.768
303.022
303.243
303.419
303.548
303.635
303.692
303.727
303.751
303.768
303.784
303.803
303.826
303.857
303.898
303.953
304.024
304.116
304.234
304.381
304.563
304.783
305.04
305.328
305.639
305.974
306.367
306.912
307.693
308.636
300.387
301.114
301.733
302.192
302.53
302.816
303.076
303.3
303.476
303.603
303.687
303.74
303.772
303.792
303.807
303.821
303.837
303.86
303.89
303.931
303.986
304.058
304.152
304.271
304.42
304.603
304.824
305.08
305.367
305.676
306.009
306.402
306.947
307.727
308.669
300.394
301.134
301.764
302.23
302.574
302.866
303.131
303.358
303.534
303.659
303.74
303.79
303.818
303.835
303.846
303.858
303.873
303.894
303.923
303.964
304.019
304.092
304.187
304.307
304.458
304.643
304.864
305.12
305.405
305.713
306.044
306.436
306.981
307.76
308.702
300.401
301.155
301.795
302.268
302.618
302.916
303.187
303.417
303.593
303.716
303.794
303.84
303.864
303.877
303.886
303.895
303.909
303.928
303.957
303.997
304.053
304.126
304.222
304.344
304.496
304.682
304.904
305.159
305.443
305.749
306.079
306.47
307.014
307.792
308.733
300.408
301.175
301.827
302.307
302.664
302.968
303.244
303.477
303.654
303.774
303.849
303.89
303.911
303.921
303.927
303.933
303.945
303.963
303.991
304.031
304.086
304.16
304.257
304.38
304.534
304.721
304.943
305.198
305.481
305.785
306.113
306.503
307.047
307.824
308.764
300.416
301.197
301.86
302.347
302.71
303.022
303.303
303.538
303.715
303.834
303.905
303.942
303.959
303.965
303.968
303.972
303.981
303.998
304.025
304.064
304.12
304.194
304.292
304.416
304.571
304.759
304.981
305.236
305.518
305.82
306.147
306.536
307.08
307.856
308.795
300.424
301.219
301.893
302.388
302.758
303.076
303.363
303.601
303.777
303.894
303.961
303.995
304.007
304.009
304.009
304.011
304.018
304.033
304.059
304.098
304.154
304.228
304.327
304.452
304.608
304.797
305.019
305.273
305.554
305.854
306.18
306.568
307.111
307.887
308.825
300.432
301.242
301.927
302.43
302.806
303.131
303.422
303.663
303.84
303.954
304.019
304.048
304.056
304.055
304.051
304.05
304.056
304.07
304.094
304.133
304.188
304.263
304.361
304.488
304.644
304.834
305.057
305.31
305.589
305.888
306.212
306.6
307.143
307.917
308.854
300.44
301.265
301.962
302.472
302.855
303.186
303.483
303.726
303.903
304.015
304.077
304.102
304.106
304.101
304.094
304.09
304.094
304.106
304.129
304.167