/*--------------------------------*- C++ -*----------------------------------*\
| =========                 |                                                 |
| \\      /  F ield         | OpenFOAM: The Open Source CFD Toolbox           |
|  \\    /   O peration     | Version:  v2012                                 |
|   \\  /    A nd           | Website:  www.openfoam.com                      |
|    \\/     M anipulation  |                                                 |
\*---------------------------------------------------------------------------*/
FoamFile
{
    version     2.0;
    format      ascii;
    class       volVectorField;
    location    "4";
    object      U;
}
// * * * * * * * * * * * * * * * * * * * * * * * * * * * * * * * * * * * * * //

dimensions      [0 1 -1 0 0 0 0];


internalField   nonuniform List<vector> 
78750
(
(1.47389e-05 -9.40097e-05 0.000441132)
(5.10601e-05 -8.30696e-05 0.000985118)
(7.24575e-05 -2.93815e-05 0.00135419)
(8.73464e-05 4.51606e-05 0.00167522)
(8.83997e-05 0.000126918 0.00193084)
(7.50079e-05 0.000207806 0.00211267)
(4.76492e-05 0.000281842 0.00221631)
(8.40797e-06 0.000345352 0.0022443)
(-4.05613e-05 0.000396609 0.00220405)
(-9.66928e-05 0.000435501 0.00210713)
(-0.00015707 0.000462715 0.00196706)
(-0.00021886 0.000479329 0.00179766)
(-0.000279675 0.000486411 0.00161145)
(-0.000337769 0.000484956 0.00141861)
(-0.000391474 0.000475898 0.00122649)
(-0.000441063 0.000461165 0.00103731)
(-0.000485296 0.000441646 0.000853831)
(-0.000523491 0.00041817 0.00067741)
(-0.000554843 0.000391535 0.000508744)
(-0.000578401 0.000362586 0.000348332)
(-0.000593158 0.000332304 0.000196639)
(-0.00059817 0.00030195 5.4679e-05)
(-0.000592807 0.000273039 -7.58422e-05)
(-0.000577116 0.00024698 -0.000193157)
(-0.000551081 0.000224123 -0.000298488)
(-0.000515638 0.000205299 -0.000387955)
(-0.000471844 0.000190164 -0.000459888)
(-0.000421684 0.000177751 -0.0005124)
(-0.000365661 0.000166307 -0.000545415)
(-0.000305464 0.000154358 -0.000556979)
(-0.000241809 0.00014034 -0.0005455)
(-0.000175057 0.000123235 -0.000509111)
(-0.000107495 0.000102809 -0.000445801)
(-5.26471e-05 7.97867e-05 -0.000353717)
(-1.39904e-05 4.07289e-05 -0.000183052)
(-5.05763e-05 -0.000159246 0.000691243)
(-0.000121973 -0.000105853 0.00127387)
(-0.000232479 -4.71051e-05 0.00161412)
(-0.000385118 2.78273e-05 0.00186193)
(-0.000542301 0.000116215 0.00200264)
(-0.000690224 0.00021043 0.00204268)
(-0.000824483 0.000309015 0.00198951)
(-0.000938671 0.000408989 0.00185447)
(-0.00102985 0.000508998 0.00165172)
(-0.0010964 0.000604739 0.00139999)
(-0.00113849 0.000690768 0.00112424)
(-0.00115736 0.000761267 0.000856589)
(-0.001156 0.000813216 0.000629103)
(-0.0011389 0.000847711 0.00045905)
(-0.00111124 0.000868484 0.000343394)
(-0.00107724 0.000878189 0.000266636)
(-0.00104017 0.000877814 0.000208299)
(-0.00100157 0.000866789 0.000151286)
(-0.000962178 0.000843973 8.47955e-05)
(-0.000921682 0.000808452 4.51723e-06)
(-0.000879242 0.000760099 -8.84236e-05)
(-0.000833615 0.000700029 -0.000189049)
(-0.000783789 0.000631007 -0.00029013)
(-0.000729372 0.000557296 -0.00038414)
(-0.000670656 0.000483902 -0.000464788)
(-0.000608287 0.000415425 -0.000527206)
(-0.000543 0.000355091 -0.000569094)
(-0.000475361 0.00030262 -0.000593883)
(-0.000406313 0.000256496 -0.000604393)
(-0.00033653 0.000215168 -0.000600327)
(-0.000266625 0.00017709 -0.000579469)
(-0.00019633 0.000141151 -0.000535233)
(-0.000126853 0.000108761 -0.000448357)
(-7.36598e-05 8.74158e-05 -0.000297165)
(-3.52182e-05 8.43046e-05 -4.06304e-05)
(-0.000153997 0.000846549 0.00125105)
(-0.000339872 0.001457 0.00205503)
(-0.000595625 0.00174833 0.00244907)
(-0.000938546 0.00193028 0.00268804)
(-0.00127228 0.00201152 0.00276402)
(-0.00156374 0.00200589 0.00269229)
(-0.00180962 0.00193357 0.00249236)
(-0.00199764 0.00181475 0.00219733)
(-0.00212478 0.00166752 0.00184168)
(-0.00219289 0.00150863 0.00146299)
(-0.00220588 0.00135235 0.00109533)
(-0.00217182 0.00120896 0.000767168)
(-0.00209916 0.00108337 0.000495562)
(-0.00199737 0.000978223 0.000285112)
(-0.00187602 0.000893592 0.000129371)
(-0.0017434 0.000827046 1.65868e-05)
(-0.00160591 0.000774309 -6.51918e-05)
(-0.00146845 0.000730213 -0.000126987)
(-0.00133414 0.000689486 -0.00017937)
(-0.00120484 0.000647101 -0.000231642)
(-0.00108152 0.000599227 -0.000289108)
(-0.000964039 0.000544367 -0.000350197)
(-0.000852655 0.000486197 -0.000404862)
(-0.000748743 0.000432335 -0.000440235)
(-0.000651983 0.000386524 -0.000454555)
(-0.000561967 0.000347121 -0.00045544)
(-0.000479405 0.000313941 -0.000447296)
(-0.000403644 0.000285731 -0.000433243)
(-0.000334283 0.0002617 -0.000414831)
(-0.000270857 0.000240582 -0.000392069)
(-0.000212648 0.000221619 -0.000364027)
(-0.000158456 0.000203732 -0.000327841)
(-0.000107074 0.000186726 -0.000278142)
(-6.6628e-05 0.000170663 -0.000206148)
(-3.53023e-05 0.000153238 -3.63098e-05)
(-0.000246119 0.0016178 0.00155405)
(-0.000506897 0.00256866 0.0024351)
(-0.000833359 0.00298696 0.00281817)
(-0.00125915 0.00313227 0.00301138)
(-0.00165253 0.00301479 0.00302545)
(-0.00199912 0.00272075 0.00289203)
(-0.00227921 0.00233699 0.00264726)
(-0.00247766 0.00191633 0.00232241)
(-0.00258563 0.00149324 0.00194687)
(-0.00260847 0.00109342 0.00154708)
(-0.0025598 0.000737768 0.00114919)
(-0.00245825 0.000437042 0.000779083)
(-0.00231798 0.000192834 0.000476094)
(-0.00215357 1.38854e-05 0.000297368)
(-0.0019829 -9.07193e-05 0.000225636)
(-0.00180949 -0.000135839 0.000191446)
(-0.00163674 -0.000141273 0.000157858)
(-0.00146866 -0.000121029 0.000118516)
(-0.0013078 -8.58599e-05 7.62885e-05)
(-0.00115603 -4.3455e-05 3.49411e-05)
(-0.00101426 -3.01787e-07 -3.73586e-06)
(-0.000883231 3.94201e-05 -3.82396e-05)
(-0.000763439 7.45147e-05 -6.54195e-05)
(-0.00065527 0.000106571 -8.13083e-05)
(-0.000558427 0.000138014 -8.43934e-05)
(-0.000471998 0.000170035 -7.72185e-05)
(-0.000395076 0.000202128 -6.40427e-05)
(-0.000327016 0.000233181 -4.85999e-05)
(-0.000267063 0.0002617 -3.35944e-05)
(-0.000214387 0.000286223 -2.08001e-05)
(-0.000167996 0.000304642 -1.15696e-05)
(-0.000126223 0.000313658 -1.12952e-05)
(-8.63857e-05 0.000308396 -3.39575e-05)
(-5.45487e-05 0.00028912 -7.29457e-05)
(-2.94737e-05 0.00023886 -4.73103e-05)
(-0.000151802 0.00192817 0.001303)
(-0.000294657 0.00285551 0.00197366)
(-0.000471003 0.00316618 0.00222073)
(-0.000693458 0.00320902 0.00230465)
(-0.000905412 0.00301026 0.00225234)
(-0.00110239 0.00262251 0.00208918)
(-0.00127757 0.00210736 0.00184238)
(-0.00141928 0.00153073 0.00154412)
(-0.00151486 0.000949561 0.00122402)
(-0.00155764 0.000406737 0.000908265)
(-0.00155157 -6.02052e-05 0.000624119)
(-0.00150775 -0.000435312 0.000386785)
(-0.00143921 -0.000717977 0.000200201)
(-0.00135911 -0.000904637 6.66598e-05)
(-0.00127253 -0.0010102 -2.76543e-05)
(-0.00118363 -0.0010469 -9.22866e-05)
(-0.00109301 -0.00103006 -0.000132474)
(-0.00100251 -0.000973972 -0.000148417)
(-0.000914302 -0.000891188 -0.000140596)
(-0.000829506 -0.000792635 -0.000112233)
(-0.000749229 -0.000686304 -6.83085e-05)
(-0.000674102 -0.000577966 -1.44872e-05)
(-0.000604422 -0.00047157 4.38111e-05)
(-0.000540003 -0.000369562 0.000102062)
(-0.000480358 -0.0002733 0.000156771)
(-0.000424849 -0.00018348 0.000205587)
(-0.000372833 -0.000100396 0.000246928)
(-0.000323786 -2.43378e-05 0.000279689)
(-0.000277312 4.42205e-05 0.000302644)
(-0.000233086 0.000104265 0.000314603)
(-0.000190549 0.000154226 0.000314095)
(-0.000148836 0.000191456 0.000296193)
(-0.000106646 0.000212589 0.000248577)
(-7.17497e-05 0.000212882 0.00017309)
(-3.68862e-05 0.000167713 9.81392e-05)
(1.74414e-05 0.00107943 0.000804729)
(7.5145e-05 0.00151781 0.00118591)
(0.000141227 0.00162548 0.00130072)
(0.000233392 0.00158077 0.00131932)
(0.000321581 0.00139956 0.00125193)
(0.000398529 0.00111174 0.00110873)
(0.000459762 0.000757375 0.000910658)
(0.000505613 0.000376844 0.000681653)
(0.000535252 9.45436e-06 0.000446633)
(0.000548558 -0.000312425 0.000227206)
(0.000546444 -0.000574342 3.44293e-05)
(0.000529839 -0.000767258 -0.000122412)
(0.000500062 -0.000891848 -0.000239373)
(0.000459618 -0.000954299 -0.000315874)
(0.000411546 -0.000962884 -0.00035295)
(0.000358282 -0.000928905 -0.00035519)
(0.000302673 -0.000864587 -0.000328481)
(0.000246841 -0.000781541 -0.000279651)
(0.000192516 -0.000689023 -0.000215478)
(0.000141129 -0.000594295 -0.000142375)
(9.37592e-05 -0.000502457 -6.60023e-05)
(5.1282e-05 -0.000416575 9.10878e-06)
(1.43393e-05 -0.000337962 7.96835e-05)
(-1.66289e-05 -0.000266684 0.000143513)
(-4.13599e-05 -0.000201965 0.00019932)
(-5.98676e-05 -0.000142737 0.000246337)
(-7.24812e-05 -8.78409e-05 0.000284227)
(-7.96207e-05 -3.66049e-05 0.00031252)
(-8.16579e-05 1.10823e-05 0.000330598)
(-7.90859e-05 5.44214e-05 0.000337584)
(-7.23957e-05 9.19697e-05 0.000332481)
(-6.17377e-05 0.000121289 0.0003109)
(-4.69169e-05 0.000139594 0.000261667)
(-3.29992e-05 0.000139926 0.00018516)
(-1.6125e-05 9.20523e-05 0.000101708)
(5.27e-05 9.40489e-05 0.000386177)
(0.000129382 0.00010594 0.00047944)
(0.000214492 9.96006e-05 0.00046955)
(0.000327711 7.29614e-05 0.000439434)
(0.000434992 2.78665e-05 0.00039629)
(0.000528713 -2.814e-05 0.000340373)
(0.000604679 -8.46429e-05 0.000276703)
(0.000660122 -0.000132661 0.000211266)
(0.000693071 -0.000166181 0.0001488)
(0.000703641 -0.000182589 9.22937e-05)
(0.000693182 -0.000180415 4.48038e-05)
(0.000664057 -0.00015906 7.80829e-06)
(0.000619427 -0.000120367 -1.63148e-05)
(0.000562588 -6.87203e-05 -2.68732e-05)
(0.000497118 -1.0423e-05 -2.52778e-05)
(0.000427004 4.82841e-05 -1.45502e-05)
(0.000355821 0.000102768 2.09205e-06)
(0.00028628 0.000149984 2.24565e-05)
(0.00022008 0.000187359 4.49418e-05)
(0.00015832 0.000213567 6.85157e-05)
(0.000101652 0.000228423 9.23827e-05)
(5.0469e-05 0.000232844 0.000115962)
(5.05307e-06 0.000228537 0.000138628)
(-3.4337e-05 0.00021787 0.000159932)
(-6.73209e-05 0.000203501 0.000179229)
(-9.32662e-05 0.000188302 0.000195987)
(-0.00011154 0.000174779 0.000209438)
(-0.000121958 0.000164696 0.000218862)
(-0.000124825 0.000158612 0.000223246)
(-0.000120763 0.000155844 0.000221733)
(-0.000110378 0.000154572 0.000212947)
(-9.418e-05 0.000152445 0.000192861)
(-7.24907e-05 0.00014649 0.000151158)
(-5.24755e-05 0.000126905 8.90315e-05)
(-2.69783e-05 4.57937e-05 3.28241e-05)
(9.75822e-06 -0.000157273 0.000353181)
(2.79644e-05 -0.000114544 0.000350496)
(3.73364e-05 -0.000109285 0.000301525)
(5.08776e-05 -0.000124684 0.000263759)
(6.13598e-05 -0.000156548 0.000243344)
(6.7261e-05 -0.000196463 0.000229701)
(6.84419e-05 -0.000232129 0.000213233)
(6.56134e-05 -0.000251782 0.000188851)
(5.98011e-05 -0.000245902 0.000155529)
(5.22662e-05 -0.000210278 0.000114955)
(4.42556e-05 -0.000145846 7.03147e-05)
(3.6732e-05 -5.82619e-05 2.43937e-05)
(3.07958e-05 4.35795e-05 -2.02616e-05)
(2.73657e-05 0.000148442 -6.1199e-05)
(2.66873e-05 0.000243912 -9.49405e-05)
(2.78215e-05 0.00031959 -0.00011874)
(3.10341e-05 0.000377875 -0.000134387)
(3.57538e-05 0.000421327 -0.000143454)
(4.11747e-05 0.000451423 -0.000146287)
(4.65549e-05 0.000469228 -0.000143448)
(5.11055e-05 0.000475455 -0.000135008)
(5.41413e-05 0.000470244 -0.000121506)
(5.50889e-05 0.0004536 -0.00010331)
(5.36734e-05 0.00042514 -8.16875e-05)
(4.99916e-05 0.000384375 -5.78687e-05)
(4.35194e-05 0.000330105 -3.31406e-05)
(3.53298e-05 0.000269282 -9.6886e-06)
(2.59996e-05 0.000208498 1.0769e-05)
(1.61615e-05 0.000152691 2.71604e-05)
(6.59553e-06 0.00010416 3.80559e-05)
(-1.99439e-06 6.41278e-05 4.22074e-05)
(-8.77861e-06 3.25805e-05 3.54841e-05)
(-1.21543e-05 9.68727e-06 8.65887e-06)
(-1.2475e-05 -1.6462e-05 -3.79764e-05)
(-8.03178e-06 -9.55851e-05 -7.21681e-05)
(-1.0234e-05 -0.000236112 0.000259945)
(-1.68243e-05 -0.000159358 0.000303292)
(-2.79572e-05 -0.000128674 0.000297118)
(-4.2467e-05 -0.000106407 0.000280079)
(-5.89926e-05 -8.91708e-05 0.000256331)
(-7.79966e-05 -7.31819e-05 0.000224344)
(-9.95296e-05 -5.60036e-05 0.000184166)
(-0.000122411 -3.53934e-05 0.000138813)
(-0.000144983 -1.06787e-05 9.27214e-05)
(-0.000165109 1.8494e-05 4.99227e-05)
(-0.000180921 5.13425e-05 1.1615e-05)
(-0.000190582 8.70933e-05 -2.23244e-05)
(-0.000192969 0.000124423 -5.32096e-05)
(-0.00018762 0.000162571 -8.15278e-05)
(-0.000175038 0.000200147 -0.000107357)
(-0.000156526 0.000236294 -0.000129666)
(-0.000133708 0.00026977 -0.000147922)
(-0.000108001 0.000300127 -0.000161346)
(-8.0648e-05 0.000326488 -0.000169984)
(-5.26984e-05 0.000348786 -0.00017337)
(-2.52179e-05 0.000366319 -0.000171644)
(8.86275e-07 0.000379229 -0.000164335)
(2.46677e-05 0.000386932 -0.000151684)
(4.52303e-05 0.00038979 -0.000133513)
(6.16602e-05 0.000387398 -0.000110614)
(7.29861e-05 0.000380384 -8.35916e-05)
(7.85082e-05 0.00036859 -5.43728e-05)
(7.81211e-05 0.000353018 -2.4959e-05)
(7.23813e-05 0.000333604 1.57001e-06)
(6.21253e-05 0.000310688 2.2697e-05)
(4.8612e-05 0.000282957 3.51253e-05)
(3.30464e-05 0.000248627 3.41904e-05)
(1.78051e-05 0.000203484 1.14592e-05)
(7.34789e-06 0.000141271 -3.17596e-05)
(1.15822e-06 -1.1129e-05 -7.52578e-05)
(-1.76263e-05 -0.000203312 0.000189543)
(-3.37161e-05 -0.000128664 0.000262744)
(-5.19159e-05 -9.96986e-05 0.000283539)
(-7.48652e-05 -7.8405e-05 0.000286097)
(-9.66635e-05 -6.10263e-05 0.000274098)
(-0.000116893 -4.58319e-05 0.000248694)
(-0.000135321 -3.08548e-05 0.000211094)
(-0.000151383 -1.55845e-05 0.000163991)
(-0.000164418 1.00126e-06 0.000112548)
(-0.000173927 1.87189e-05 6.2033e-05)
(-0.000179666 3.80318e-05 1.66199e-05)
(-0.000181633 5.84087e-05 -2.23147e-05)
(-0.000179917 7.98948e-05 -5.44725e-05)
(-0.000174699 0.000101616 -8.07054e-05)
(-0.000166261 0.000123528 -0.00010167)
(-0.000154975 0.000144694 -0.000118152)
(-0.000141273 0.000165186 -0.000130334)
(-0.000125656 0.0001842 -0.00013857)
(-0.000108636 0.000201929 -0.000142646)
(-9.07713e-05 0.000217573 -0.000142605)
(-7.26283e-05 0.000231435 -0.00013793)
(-5.47688e-05 0.000242726 -0.000128454)
(-3.7767e-05 0.000251846 -0.000113577)
(-2.21766e-05 0.000258021 -9.338e-05)
(-8.50108e-06 0.000261834 -6.78865e-05)
(2.78732e-06 0.000262473 -3.8394e-05)
(1.13665e-05 0.000260634 -6.65639e-06)
(1.70901e-05 0.000255487 2.40947e-05)
(2.00209e-05 0.000247489 5.07996e-05)
(2.04428e-05 0.000235161 7.01353e-05)
(1.87187e-05 0.00021796 7.99955e-05)
(1.52985e-05 0.000192793 7.74452e-05)
(1.0738e-05 0.000156895 5.87312e-05)
(6.85447e-06 0.000103709 2.44717e-05)
(3.20599e-06 -3.17284e-05 -2.61523e-05)
(-1.31103e-05 -0.000163349 0.000134582)
(-2.55999e-05 -9.16949e-05 0.000221226)
(-4.11159e-05 -6.43337e-05 0.000256299)
(-6.07742e-05 -4.44783e-05 0.000270568)
(-7.92796e-05 -2.89962e-05 0.000267035)
(-9.60777e-05 -1.60335e-05 0.00024879)
(-0.000110903 -4.54851e-06 0.000217867)
(-0.000123375 6.25453e-06 0.000177136)
(-0.000132998 1.65831e-05 0.000131143)
(-0.000139541 2.68195e-05 8.48766e-05)
(-0.000142887 3.69169e-05 4.23007e-05)
(-0.000143141 4.71743e-05 5.48773e-06)
(-0.000140451 5.75136e-05 -2.51794e-05)
(-0.000135098 6.81666e-05 -5.00618e-05)
(-0.00012734 7.89556e-05 -6.97445e-05)
(-0.000117535 9.01211e-05 -8.48182e-05)
(-0.000105978 0.000101398 -9.56387e-05)
(-9.31033e-05 0.000112953 -0.000102406)
(-7.92758e-05 0.000124413 -0.000105096)
(-6.49523e-05 0.000135913 -0.000103564)
(-5.05292e-05 0.000146939 -9.74676e-05)
(-3.64925e-05 0.000157579 -8.63992e-05)
(-2.32435e-05 0.000167252 -6.98742e-05)
(-1.12569e-05 0.000176041 -4.75914e-05)
(-9.04111e-07 0.000183286 -1.96576e-05)
(7.4385e-06 0.000189049 1.29267e-05)
(1.35463e-05 0.000192559 4.7968e-05)
(1.73143e-05 0.00019373 8.20847e-05)
(1.88416e-05 0.000191492 0.000111385)
(1.83932e-05 0.000185251 0.00013244)
(1.62847e-05 0.000173161 0.000142693)
(1.28208e-05 0.00015334 0.00013972)
(8.38743e-06 0.000122242 0.00011983)
(4.59766e-06 7.51291e-05 8.27179e-05)
(2.47634e-06 -4.59455e-05 1.51455e-05)
(-1.11041e-05 -0.000162492 6.66054e-05)
(-2.22104e-05 -0.000103899 0.000151418)
(-3.69064e-05 -8.28804e-05 0.000193169)
(-5.53595e-05 -6.90167e-05 0.000213479)
(-7.28209e-05 -5.94841e-05 0.000214063)
(-8.84658e-05 -5.29425e-05 0.000199206)
(-0.000101904 -4.82327e-05 0.000171633)
(-0.000112634 -4.48392e-05 0.000134171)
(-0.000120203 -4.2192e-05 9.08462e-05)
(-0.000124342 -4.00674e-05 4.61774e-05)
(-0.000125032 -3.80223e-05 4.11404e-06)
(-0.000122409 -3.58964e-05 -3.31741e-05)
(-0.000116762 -3.33069e-05 -6.4638e-05)
(-0.000108403 -3.01534e-05 -9.0271e-05)
(-9.77423e-05 -2.60753e-05 -0.000110338)
(-8.51725e-05 -2.106e-05 -0.000125201)
(-7.11601e-05 -1.48349e-05 -0.00013512)
(-5.61325e-05 -7.5545e-06 -0.000140232)
(-4.05975e-05 9.09554e-07 -0.000140511)
(-2.49714e-05 1.02783e-05 -0.000135853)
(-9.79887e-06 2.05405e-05 -0.000126033)
(4.49733e-06 3.12745e-05 -0.00011075)
(1.73799e-05 4.23374e-05 -8.97046e-05)
(2.84538e-05 5.31889e-05 -6.27194e-05)
(3.72499e-05 6.35702e-05 -3.01124e-05)
(4.34801e-05 7.28421e-05 6.97431e-06)
(4.68768e-05 8.06371e-05 4.60723e-05)
(4.74483e-05 8.61955e-05 8.36971e-05)
(4.53212e-05 8.89161e-05 0.000115732)
(4.08643e-05 8.7687e-05 0.000138709)
(3.4483e-05 8.13818e-05 0.000149867)
(2.65561e-05 6.79686e-05 0.000146296)
(1.76794e-05 4.50903e-05 0.000123203)
(1.02672e-05 8.65581e-06 8.01815e-05)
(5.21024e-06 -8.74898e-05 4.29089e-06)
(-8.93364e-06 -0.000134262 5.27736e-07)
(-2.08327e-05 -6.82215e-05 7.94416e-05)
(-3.79583e-05 -4.5271e-05 0.000127039)
(-6.02596e-05 -3.25816e-05 0.000151231)
(-8.18776e-05 -2.74154e-05 0.000152254)
(-0.000101357 -2.78238e-05 0.000136137)
(-0.000117977 -3.248e-05 0.000106336)
(-0.000130912 -4.00485e-05 6.59854e-05)
(-0.000139597 -4.97297e-05 1.86076e-05)
(-0.000143613 -6.04393e-05 -3.11682e-05)
(-0.000142895 -7.15187e-05 -7.94294e-05)
(-0.000137603 -8.19283e-05 -0.00012322)
(-0.00012811 -9.11753e-05 -0.000161091)
(-0.000114916 -9.84536e-05 -0.000192268)
(-9.86e-05 -0.000103532 -0.000216711)
(-7.97825e-05 -0.000105798 -0.000234357)
(-5.91296e-05 -0.000105204 -0.000245415)
(-3.72977e-05 -0.000101344 -0.000249886)
(-1.49962e-05 -9.44198e-05 -0.000247862)
(7.04413e-06 -8.42955e-05 -0.000239161)
(2.81162e-05 -7.13978e-05 -0.000223702)
(4.74681e-05 -5.58611e-05 -0.000201231)
(6.44018e-05 -3.83239e-05 -0.000171756)
(7.81966e-05 -1.91874e-05 -0.000135424)
(8.82563e-05 6.74491e-07 -9.30848e-05)
(9.40862e-05 2.05003e-05 -4.6387e-05)
(9.54623e-05 3.90806e-05 1.6808e-06)
(9.23716e-05 5.53424e-05 4.71792e-05)
(8.51493e-05 6.79619e-05 8.58797e-05)
(7.4325e-05 7.55638e-05 0.000114131)
(6.0637e-05 7.6435e-05 0.000128947)
(4.47765e-05 6.85179e-05 0.000126711)
(2.80189e-05 4.91667e-05 0.000101364)
(1.50253e-05 1.46127e-05 5.30638e-05)
(6.18681e-06 -8.00217e-05 -2.36194e-05)
(-1.03589e-05 -7.63999e-05 -5.66549e-05)
(-2.66384e-05 1.78172e-05 1.19614e-05)
(-4.86774e-05 4.98478e-05 6.09917e-05)
(-7.77684e-05 6.36088e-05 8.43682e-05)
(-0.000105895 6.3171e-05 8.11233e-05)
(-0.000130903 5.13321e-05 5.81965e-05)
(-0.000151613 3.10029e-05 1.97105e-05)
(-0.000166938 4.36339e-06 -3.1385e-05)
(-0.000176024 -2.61056e-05 -9.12077e-05)
(-0.000178429 -5.86419e-05 -0.000155134)
(-0.000174146 -9.13108e-05 -0.000218593)
(-0.000163835 -0.000122648 -0.00027773)
(-0.000148636 -0.000150905 -0.000329577)
(-0.000129821 -0.000175115 -0.000372332)
(-0.000108332 -0.000194277 -0.000405398)
(-8.48558e-05 -0.000208027 -0.000428967)
(-5.99193e-05 -0.000215681 -0.000443431)
(-3.40708e-05 -0.000217074 -0.000449069)
(-7.76111e-06 -0.000211784 -0.000445939)
(1.84908e-05 -0.000199981 -0.000433824)
(4.42197e-05 -0.000181598 -0.000412232)
(6.89086e-05 -0.000157129 -0.00038052)
(9.18616e-05 -0.000126874 -0.000338281)
(0.000111982 -9.18763e-05 -0.000286052)
(0.00012782 -5.33132e-05 -0.000225826)
(0.000137869 -1.32455e-05 -0.000161084)
(0.000141118 2.63371e-05 -9.61813e-05)
(0.000137365 6.30628e-05 -3.58619e-05)
(0.000127136 9.47939e-05 1.53814e-05)
(0.000111327 0.00011871 5.37997e-05)
(9.09882e-05 0.000132201 7.6635e-05)
(6.73461e-05 0.000131931 7.9969e-05)
(4.23733e-05 0.000114486 5.72736e-05)
(2.32708e-05 7.52176e-05 9.6822e-06)
(9.02464e-06 -3.79971e-05 -5.80625e-05)
(-1.16278e-05 3.95578e-05 -6.17496e-05)
(-3.06329e-05 0.000185261 -5.3434e-06)
(-5.46386e-05 0.00023324 3.61759e-05)
(-8.60718e-05 0.00024962 5.12989e-05)
(-0.00011552 0.000240598 3.81289e-05)
(-0.000140186 0.000211456 2.37561e-06)
(-0.000158226 0.000167021 -5.2918e-05)
(-0.000168176 0.000111519 -0.00012538)
(-0.000169987 4.99274e-05 -0.000209709)
(-0.000164725 -1.38641e-05 -0.000298499)
(-0.000153466 -7.55049e-05 -0.000384091)
(-0.000138594 -0.000126079 -0.000459651)
(-0.000121672 -0.000161719 -0.000521721)
(-0.00010342 -0.000185299 -0.000570183)
(-8.41851e-05 -0.000202053 -0.000606501)
(-6.4346e-05 -0.000213833 -0.000631878)
(-4.41108e-05 -0.000220742 -0.000647203)
(-2.35067e-05 -0.000223119 -0.000653389)
(-2.73671e-06 -0.000221317 -0.000650655)
(1.80916e-05 -0.000215222 -0.000638503)
(3.89661e-05 -0.000205121 -0.000615896)
(5.95922e-05 -0.000191094 -0.000582018)
(7.98433e-05 -0.000169295 -0.000535112)
(9.93728e-05 -0.000133884 -0.000473852)
(0.000117286 -8.13048e-05 -0.000398352)
(0.000132058 -1.30279e-05 -0.000311409)
(0.000141527 6.21923e-05 -0.000219828)
(0.000143544 0.000133304 -0.000132942)
(0.000137641 0.000196103 -5.84258e-05)
(0.000123585 0.000246379 -1.42512e-06)
(0.000102679 0.000279187 3.54922e-05)
(7.69429e-05 0.000289688 4.97255e-05)
(4.89647e-05 0.000272401 3.62351e-05)
(2.74424e-05 0.000220796 -3.00703e-06)
(1.03524e-05 6.39355e-05 -5.82492e-05)
(-9.89677e-06 0.000153272 -3.61629e-05)
(-2.62601e-05 0.000343692 4.66701e-06)
(-4.61465e-05 0.000402655 3.08962e-05)
(-7.1956e-05 0.000415172 3.24117e-05)
(-9.53383e-05 0.000389503 6.21834e-06)
(-0.00011389 0.000331993 -4.54273e-05)
(-0.000124988 0.000248034 -0.000121155)
(-0.000128083 0.000153835 -0.000215109)
(-0.000124267 6.77999e-05 -0.000316317)
(-0.000115575 8.54435e-07 -0.000413491)
(-0.000104176 -4.35467e-05 -0.00049859)
(-9.1866e-05 -6.76396e-05 -0.000567272)
(-7.9315e-05 -7.85684e-05 -0.000619287)
(-6.61993e-05 -8.54016e-05 -0.000657505)
(-5.25785e-05 -9.17476e-05 -0.000684748)
(-3.85638e-05 -9.663e-05 -0.000702643)
(-2.41232e-05 -9.96653e-05 -0.000713017)
(-9.47516e-06 -0.0001005 -0.000716842)
(5.18474e-06 -9.90681e-05 -0.000714533)
(1.96362e-05 -9.56131e-05 -0.000705731)
(3.36338e-05 -9.06533e-05 -0.000689514)
(4.71807e-05 -8.48252e-05 -0.000664158)
(6.0091e-05 -7.93018e-05 -0.00062822)
(7.24886e-05 -6.94873e-05 -0.000578506)
(8.47685e-05 -4.58728e-05 -0.000511895)
(9.64876e-05 -8.78342e-07 -0.000428163)
(0.000106146 6.81781e-05 -0.00033122)
(0.000111583 0.000157766 -0.000229005)
(0.000110574 0.000256743 -0.000133098)
(0.000101871 0.000345705 -5.51982e-05)
(8.57466e-05 0.000406433 -1.87096e-06)
(6.49265e-05 0.000433573 2.57324e-05)
(4.16744e-05 0.000421065 2.5889e-05)
(2.3663e-05 0.000360561 1.71329e-06)
(8.81148e-06 0.000164555 -3.72564e-05)
(-7.04442e-06 0.000241921 -2.22403e-05)
(-1.95199e-05 0.00046803 4.53851e-06)
(-3.48853e-05 0.000537917 1.84791e-05)
(-5.50423e-05 0.000551408 1.03968e-05)
(-7.40858e-05 0.000517831 -2.33346e-05)
(-8.92125e-05 0.000442291 -8.26707e-05)
(-9.85553e-05 0.000341478 -0.000163955)
(-0.000103029 0.000242027 -0.000257115)
(-0.000103264 0.000161879 -0.000350565)
(-9.98749e-05 0.000107383 -0.000435432)
(-9.36924e-05 7.76183e-05 -0.000506512)
(-8.52485e-05 6.54666e-05 -0.000562081)
(-7.49812e-05 6.07333e-05 -0.000603424)
(-6.27173e-05 5.43371e-05 -0.000634121)
(-4.93753e-05 4.78536e-05 -0.000655355)
(-3.49716e-05 4.2385e-05 -0.000669126)
(-1.98544e-05 3.88206e-05 -0.000676908)
(-4.38508e-06 3.76581e-05 -0.000679507)
(1.1108e-05 3.90672e-05 -0.000677171)
(2.62888e-05 4.28251e-05 -0.000669697)
(4.07797e-05 4.83782e-05 -0.000656337)
(5.42032e-05 5.48003e-05 -0.000635702)
(6.65137e-05 6.0893e-05 -0.000605925)
(7.67663e-05 6.50579e-05 -0.000565936)
(8.51953e-05 7.67782e-05 -0.000512005)
(9.14252e-05 0.000106573 -0.000442609)
(9.49933e-05 0.000161681 -0.000359173)
(9.51461e-05 0.00024303 -0.000266609)
(9.13405e-05 0.000344198 -0.000173588)
(8.29668e-05 0.000447047 -9.17909e-05)
(6.90502e-05 0.000524454 -3.16577e-05)
(5.13051e-05 0.000558994 2.93147e-06)
(3.24806e-05 0.000545634 1.21265e-05)
(1.8123e-05 0.000475111 -3.84293e-07)
(6.43977e-06 0.000246091 -2.53468e-05)
(-6.3402e-06 0.000316484 -1.4119e-05)
(-1.74634e-05 0.000575685 6.24319e-06)
(-3.1243e-05 0.000658109 1.49509e-05)
(-4.96906e-05 0.000677521 3.52661e-06)
(-6.79372e-05 0.000643308 -3.1697e-05)
(-8.31316e-05 0.000561227 -9.06156e-05)
(-9.45093e-05 0.000457432 -0.000167628)
(-0.000102083 0.000358973 -0.000252497)
(-0.000105617 0.000281098 -0.000335735)
(-0.000104896 0.000228471 -0.000410815)
(-0.0001002 0.000198768 -0.00047419)
(-9.19227e-05 0.000184597 -0.000524643)
(-8.07675e-05 0.000176881 -0.000562859)
(-6.71583e-05 0.000168091 -0.00059134)
(-5.22007e-05 0.00015971 -0.000610964)
(-3.61145e-05 0.000152878 -0.000623579)
(-1.92904e-05 0.000148489 -0.000630669)
(-2.10844e-06 0.000147009 -0.000632995)
(1.5084e-05 0.000148663 -0.000630799)
(3.19337e-05 0.000153208 -0.000623867)
(4.80577e-05 0.000160163 -0.000611474)
(6.30603e-05 0.000168612 -0.000592178)
(7.67167e-05 0.000177396 -0.000564197)
(8.79021e-05 0.000184971 -0.000526759)
(9.62036e-05 0.000198964 -0.000477352)
(0.000100944 0.000228594 -0.00041519)
(0.000101765 0.000281357 -0.000341312)
(9.84189e-05 0.000359631 -0.000259065)
(9.11438e-05 0.000458753 -0.000174786)
(8.01908e-05 0.000563474 -9.78941e-05)
(6.55473e-05 0.000646576 -3.87316e-05)
(4.79076e-05 0.00068134 -3.09129e-06)
(3.00971e-05 0.000662025 9.05069e-06)
(1.68052e-05 0.000579287 1.39766e-06)
(6.0348e-06 0.000318118 -1.73221e-05)
(-6.09772e-06 0.000387823 -3.01742e-06)
(-1.65581e-05 0.000680055 1.74338e-05)
(-2.96658e-05 0.000776373 2.53924e-05)
(-4.74561e-05 0.000804601 1.44457e-05)
(-6.55567e-05 0.000774502 -1.86334e-05)
(-8.1271e-05 0.000692754 -7.33406e-05)
(-9.41437e-05 0.000589643 -0.000143693)
(-0.000103559 0.000491203 -0.000220529)
(-0.00010878 0.000411261 -0.000295819)
(-0.000109337 0.000353734 -0.000364704)
(-0.000105293 0.000316742 -0.000424098)
(-9.70413e-05 0.000294509 -0.000472452)
(-8.53725e-05 0.000279581 -0.000509682)
(-7.09838e-05 0.000266149 -0.000537261)
(-5.49344e-05 0.000254353 -0.000556237)
(-3.76818e-05 0.000245169 -0.000568341)
(-1.96317e-05 0.000239395 -0.000575074)
(-1.19566e-06 0.00023744 -0.000577257)
(1.72461e-05 0.000239508 -0.000575115)
(3.53097e-05 0.00024539 -0.000568441)
(5.25868e-05 0.000254672 -0.000556433)
(6.86695e-05 0.000266548 -0.000537614)
(8.30975e-05 0.000280035 -0.00051029)
(9.48077e-05 0.000294956 -0.000473473)
(0.000103103 0.000317153 -0.000425705)
(0.000107201 0.000354137 -0.00036704)
(0.000106727 0.000411739 -0.000298948)
(0.000101626 0.000491877 -0.0002244)
(9.23753e-05 0.000590645 -0.000148138)
(7.97245e-05 0.000694266 -7.80845e-05)
(6.43013e-05 0.000776636 -2.34001e-05)
(4.65243e-05 0.000807087 9.83662e-06)
(2.907e-05 0.000778929 2.12125e-05)
(1.62274e-05 0.000682437 1.3982e-05)
(5.93687e-06 0.000388582 -5.25821e-06)
(-6.44272e-06 0.000451476 1.29604e-05)
(-1.66427e-05 0.000773684 3.87142e-05)
(-2.94439e-05 0.000883312 4.88491e-05)
(-4.68867e-05 0.000920769 4.05628e-05)
(-6.48365e-05 0.000896314 1.12215e-05)
(-8.08834e-05 0.000817269 -3.82846e-05)
(-9.46196e-05 0.000715081 -0.000102215)
(-0.000105112 0.000614743 -0.000172434)
(-0.000111368 0.000529093 -0.000242195)
(-0.000112775 0.000462669 -0.000307017)
(-0.000109285 0.000414488 -0.000364202)
(-0.000101226 0.000380658 -0.00041184)
(-8.93563e-05 0.000355959 -0.000448992)
(-7.4508e-05 0.000335993 -0.000476305)
(-5.76161e-05 0.000319489 -0.000495133)
(-3.94153e-05 0.000307181 -0.00050699)
(-2.03352e-05 0.000299591 -0.000513511)
(-8.25778e-07 0.000297037 -0.000515613)
(1.86888e-05 0.000299672 -0.000513544)
(3.77798e-05 0.00030734 -0.000507065)
(5.59982e-05 0.000319724 -0.000495268)
(7.29162e-05 0.000336297 -0.000476531)
(8.77943e-05 0.000356323 -0.000449361)
(9.96994e-05 0.000381062 -0.000412433)
(0.000107801 0.000414921 -0.000365121)
(0.000111344 0.000463145 -0.000308358)
(0.000110005 0.00052965 -0.000244018)
(0.000103835 0.00061543 -0.000174759)
(9.34589e-05 0.00071597 -0.000104977)
(7.98718e-05 0.000818475 -4.13347e-05)
(6.40136e-05 0.00089792 8.07063e-06)
(4.6275e-05 0.000922609 3.74694e-05)
(2.90538e-05 0.00088521 4.60401e-05)
(1.6431e-05 0.00077549 3.6432e-05)
(6.33849e-06 0.000451856 1.15222e-05)
(-6.77715e-06 0.0005083 2.98729e-05)
(-1.66902e-05 0.00085624 6.32193e-05)
(-2.91421e-05 0.00097789 7.6678e-05)
(-4.61009e-05 0.0010242 7.16034e-05)
(-6.3604e-05 0.00100599 4.59969e-05)
(-7.95578e-05 0.000930914 1.06479e-06)
(-9.35378e-05 0.000829726 -5.77623e-05)
(-0.000104524 0.000726367 -0.000122952)
(-0.000111426 0.00063338 -0.000188374)
(-0.000113533 0.000555718 -0.000250025)
(-0.000110695 0.000493951 -0.00030518)
(-0.000103145 0.00044618 -0.000351809)
(-9.15087e-05 0.000409281 -0.000388686)
(-7.666e-05 0.000380338 -0.000415825)
(-5.93492e-05 0.0003574 -0.000434788)
(-4.05727e-05 0.000340762 -0.000446671)
(-2.0827e-05 0.00033069 -0.000453102)
(-6.09567e-07 0.000327321 -0.00045515)
(1.96086e-05 0.000330736 -0.000453123)
(3.93629e-05 0.000340852 -0.000446717)
(5.81554e-05 0.000357534 -0.000434866)
(7.54832e-05 0.000380516 -0.000415951)
(9.03568e-05 0.000409502 -0.000388887)
(0.000102024 0.000446444 -0.000352125)
(0.000109608 0.000494263 -0.000305668)
(0.00011249 0.000556087 -0.000250749)
(0.00011044 0.000633823 -0.000189389)
(0.00010361 0.000726916 -0.000124288)
(9.27132e-05 0.000830423 -5.94046e-05)
(7.88448e-05 0.000931829 -8.06956e-07)
(6.3026e-05 0.00100717 4.40163e-05)
(4.56753e-05 0.00102555 6.96358e-05)
(2.88742e-05 0.000979309 7.48998e-05)
(1.6552e-05 0.000857635 6.18124e-05)
(6.71149e-06 0.000508413 2.90017e-05)
(-6.94472e-06 0.000555109 4.29977e-05)
(-1.6464e-05 0.00092313 8.29836e-05)
(-2.85165e-05 0.00105456 9.93798e-05)
(-4.48657e-05 0.00110847 9.68981e-05)
(-6.17129e-05 0.00109613 7.40129e-05)
(-7.72002e-05 0.00102539 3.21802e-05)
(-9.09104e-05 0.000925559 -2.32353e-05)
(-0.000101857 0.000819376 -8.49379e-05)
(-0.00010895 0.000719119 -0.00014709)
(-0.00011146 0.000630239 -0.000205943)
(-0.000109187 0.00055457 -0.000258946)
(-0.000102271 0.000491969 -0.000304179)
(-9.11913e-05 0.000441263 -0.000340416)
(-7.67201e-05 0.000401115 -0.000367457)
(-5.95879e-05 0.000370402 -0.000386354)