/*--------------------------------*- C++ -*----------------------------------*\
| =========                 |                                                 |
| \\      /  F ield         | OpenFOAM: The Open Source CFD Toolbox           |
|  \\    /   O peration     | Version:  v2006                                 |
|   \\  /    A nd           | Website:  www.openfoam.com                      |
|    \\/     M anipulation  |                                                 |
\*---------------------------------------------------------------------------*/
FoamFile
{
    version     2.0;
    format      ascii;
    class       volScalarField;
    location    "55";
    object      alphat;
}
// * * * * * * * * * * * * * * * * * * * * * * * * * * * * * * * * * * * * * //

dimensions      [1 -1 -1 0 0 0 0];


internalField   nonuniform List<scalar> 
78750
(
0.000821327
0.00162757
0.000996198
5.58339e-05
9.72823e-05
0.000103131
0.000106711
0.000109302
0.000121642
0.000129461
0.000137339
0.000146345
0.000154353
0.000162298
0.000169956
0.000177316
0.000184402
0.000191252
0.000197903
0.000204396
0.000210824
0.000217302
0.000223929
0.000230828
0.000238173
0.00024608
0.000254584
0.00026339
0.000271474
0.000276598
0.00027524
0.000265271
0.000239922
0.000120036
3.85946e-06
2.22531e-05
0.000115264
6.61778e-05
0.000142081
0.000137356
0.00012964
0.000155291
0.000180816
0.000199694
0.000215641
0.000232725
0.000247732
0.00026069
0.000271554
0.000280516
0.0002879
0.000293971
0.000298862
0.000302843
0.000306227
0.000309231
0.000312077
0.000315023
0.000318419
0.000322855
0.000329321
0.000339397
0.000354773
0.000374166
0.000387275
0.000375647
0.0003267
0.000215867
7.10498e-05
3.26801e-06
5.17786e-06
9.12506e-05
0.000200955
0.000277741
0.000334029
0.000406542
0.00040839
0.000411445
0.000381932
0.000362186
0.000357277
0.000359188
0.00036336
0.000368168
0.000373022
0.000377608
0.000381432
0.000383915
0.000384676
0.00038349
0.000380262
0.000374928
0.000367203
0.000356612
0.000342409
0.000323534
0.000299621
0.000273297
0.000249873
0.000232853
0.000218752
0.000192813
0.000133338
5.35256e-05
3.05404e-06
2.86013e-06
2.89787e-05
8.55263e-05
0.000187204
0.000274474
0.000305255
0.000313287
0.000321501
0.000333804
0.000348661
0.000364944
0.000382553
0.000401674
0.000422166
0.000443249
0.000448248
0.000450777
0.000452859
0.000454412
0.000455369
0.000455659
0.000455262
0.000454169
0.000452403
0.000450036
0.000447199
0.00043297
0.000341523
0.000245573
0.000173093
0.000128732
0.00010057
7.33321e-05
4.3864e-05
3.74583e-06
5.74186e-06
7.23163e-05
0.000192764
0.000278214
0.000323759
0.00035184
0.000371839
0.000386821
0.000398078
0.000406556
0.00041319
0.000418865
0.000424422
0.000430581
0.000436131
0.000437851
0.000439539
0.000441117
0.000442479
0.000443501
0.000444045
0.00044397
0.000443147
0.000441475
0.00043891
0.000435495
0.000431358
0.000386356
0.000249369
0.00013926
8.18827e-05
5.84666e-05
4.90606e-05
3.89977e-05
4.22737e-06
6.1164e-06
6.27245e-05
0.000168529
0.000237664
0.000273266
0.000296737
0.000315955
0.000333527
0.000350114
0.000365588
0.000379607
0.00039191
0.000402436
0.000411348
0.000418998
0.000425881
0.000432476
0.000439249
0.000440549
0.000441042
0.000441256
0.000441086
0.000440402
0.000439058
0.000436925
0.000433924
0.000429838
0.000367558
0.000270944
0.000163722
8.3688e-05
4.55636e-05
3.41537e-05
3.40322e-05
4.14155e-06
5.77717e-06
6.92739e-05
0.000174997
0.000235154
0.00026667
0.000289031
0.000307875
0.00032481
0.000340247
0.000354213
0.000366681
0.000377681
0.0003873
0.00039566
0.000402879
0.000409038
0.000414176
0.000418305
0.000421442
0.000423633
0.000424874
0.000425031
0.000423811
0.000420541
0.000413634
0.000399221
0.000369543
0.000314953
0.000234503
0.000146868
7.76348e-05
3.89391e-05
2.57488e-05
3.03911e-05
4.45546e-06
6.07754e-06
6.86961e-05
0.00018376
0.000243258
0.000272973
0.000294701
0.00031391
0.000332149
0.000349601
0.000365861
0.000380425
0.000392972
0.000403428
0.000411908
0.000418609
0.000422624
0.000424662
0.000426476
0.000428003
0.000429174
0.0004266
0.000421112
0.000412733
0.000400934
0.000384678
0.000362027
0.00032934
0.000281006
0.000214362
0.000140503
7.93141e-05
4.10913e-05
2.45642e-05
2.59113e-05
4.37086e-06
5.4107e-06
6.50214e-05
0.000169421
0.000225148
0.000255873
0.000278562
0.000297354
0.000313918
0.000329023
0.00034299
0.000355961
0.000368026
0.00037926
0.000389712
0.000399373
0.000408141
0.000415785
0.000421897
0.00042583
0.000426687
0.000423368
0.000414938
0.000401166
0.000382591
0.000359974
0.000333595
0.000302731
0.000264126
0.000210849
0.000141271
7.66835e-05
3.88214e-05
2.3557e-05
2.49772e-05
4.27082e-06
5.38666e-06
6.72566e-05
0.000180699
0.00023894
0.000270502
0.000292737
0.000308747
0.000320373
0.000329358
0.000337185
0.000344945
0.000353295
0.000362506
0.000372573
0.000383325
0.000394455
0.000405559
0.000416162
0.000425686
0.000433416
0.000438527
0.000440177
0.000437264
0.000427746
0.000408153
0.000373972
0.000322131
0.000256907
0.000192353
0.000139081
9.43461e-05
5.35237e-05
2.80564e-05
2.16973e-05
3.84109e-06
3.96604e-06
6.2757e-05
0.000161552
0.00021663
0.00024675
0.000270001
0.000289153
0.000304521
0.000316797
0.000326741
0.000335012
0.000342172
0.000348682
0.000354876
0.000360936
0.000366886
0.000372603
0.000377834
0.000382234
0.000385393
0.000386822
0.000385893
0.000381729
0.000373221
0.000359243
0.000338874
0.000311201
0.000273904
0.000222951
0.000160811
0.000103208
6.20794e-05
3.7088e-05
2.62895e-05
3.66243e-06
3.9266e-06
7.52031e-05
0.000178317
0.000225841
0.000251507
0.000273996
0.000295504
0.000315961
0.000335493
0.000353987
0.000371123
0.000386537
0.000399915
0.000411054
0.000419878
0.000426431
0.000430829
0.000433195
0.000433593
0.000431975
0.000428148
0.000421776
0.000412386
0.000399374
0.000381984
0.000359136
0.000329343
0.00029092
0.000242329
0.000184373
0.000124352
7.53716e-05
4.56016e-05
3.2641e-05
3.49401e-06
2.88982e-06
5.74857e-05
0.000120726
0.000154792
0.00017753
0.000197446
0.00021607
0.000233954
0.000251531
0.000269104
0.000286852
0.000304824
0.000322911
0.000340823
0.000358082
0.000374059
0.000388057
0.000399422
0.000407643
0.000412366
0.000413403
0.000410658
0.000404035
0.000393116
0.000377216
0.000355558
0.0003268
0.00028907
0.000240893
0.000184269
0.000127507
8.1524e-05
5.2727e-05
4.09832e-05
3.5494e-06
2.8695e-06
5.06333e-05
0.000126794
0.000166791
0.000191686
0.00021213
0.000229217
0.000243983
0.000257346
0.000269985
0.000282472
0.00029532
0.000308911
0.000323486
0.000339086
0.000355472
0.000372008
0.000387669
0.00040114
0.000411007
0.000416033
0.000415478
0.00040937
0.000398378
0.000382773
0.00036162
0.000333621
0.000297662
0.000252409
0.000197974
0.000140189
9.13462e-05
6.09006e-05
4.85995e-05
3.5539e-06
2.96572e-06
9.26318e-05
0.000198717
0.000254049
0.000287161
0.00031249
0.000334272
0.000354677
0.000374245
0.000392783
0.000406703
0.000413418
0.000419642
0.000425467
0.000430977
0.000436223
0.000441211
0.000445896
0.000450198
0.000454018
0.000457252
0.000459807
0.00046161
0.000462606
0.000443376
0.000404888
0.00035815
0.000304861
0.000247249
0.000189169
0.000135949
9.4344e-05
6.98868e-05
6.37279e-05
3.88883e-06
2.90951e-06
6.85778e-05
0.000147988
0.000181146
0.000204576
0.000226306
0.000247237
0.000267768
0.000288297
0.000309238
0.000330902
0.000353448
0.000376853
0.000400834
0.000423861
0.000432707
0.000436819
0.000440632
0.000444129
0.000447276
0.000450012
0.000452262
0.000453945
0.000454991
0.000455058
0.000413147
0.000357524
0.000296916
0.00023587
0.00017777
0.000127254
9.09627e-05
7.43886e-05
8.08787e-05
4.32807e-06
3.44466e-06
9.79119e-05
0.00016661
0.000193744
0.000216128
0.000238112
0.000260571
0.000283255
0.000305334
0.000326198
0.00034589
0.000364639
0.000382556
0.000399797
0.000416361
0.000431233
0.000443051
0.000446355
0.000448863
0.00045101
0.000452774
0.000454116
0.000454972
0.000443796
0.000414332
0.000367423
0.000310271
0.000251852
0.00019762
0.000149661
0.000110465
8.45144e-05
7.9377e-05
0.000113212
4.70805e-06
4.18197e-06
8.46244e-05
0.000148006
0.000174906
0.00019543
0.000213684
0.000231861
0.000250981
0.000270399
0.000289003
0.000306228
0.000321887
0.000335983
0.000348676
0.00035994
0.000369497
0.000376899
0.000381811
0.000384103
0.000383605
0.000380233
0.000373812
0.000363679
0.000348223
0.000325207
0.000293562
0.000254775
0.0002122
0.000169077
0.000128418
9.52383e-05
7.65289e-05
8.25156e-05
0.000151979
5.30542e-06
4.81664e-06
8.02768e-05
0.000143052
0.000171841
0.000190003
0.000202763
0.000213545
0.000225404
0.000239409
0.000254956
0.000270481
0.0002849
0.000297971
0.00030962
0.000319644
0.000327861
0.00033407
0.000338035
0.000339516
0.000338254
0.000333958
0.000326298
0.000314799
0.000298758
0.000277625
0.000251839
0.000223288
0.000193909
0.000163258
0.000128606
9.27113e-05
6.96776e-05
7.70859e-05
0.000185496
5.67249e-06
7.3277e-06
7.83984e-05
0.000156041
0.00018926
0.000206636
0.000217208
0.000224965
0.000232854
0.00024206
0.000252462
0.000263397
0.000274117
0.000284022
0.000292665
0.000299791
0.000305276
0.000309041
0.00031103
0.000311206
0.000309577
0.000306095
0.000300505
0.000292201
0.000279981
0.000261985
0.000236282
0.00020259
0.000164443
0.000128588
0.000100913
8.26513e-05
7.5195e-05
9.42629e-05
0.000199484
6.19193e-06
1.10972e-05
9.53018e-05
0.000200765
0.000249162
0.000266993
0.000269146
0.000265195
0.00026371
0.000269485
0.00028209
0.000297657
0.00031201
0.000322818
0.000329473
0.000332219
0.000331605
0.000328158
0.000322319
0.000314461
0.000304965
0.000294345
0.000283185
0.000271741
0.000259547
0.0002453
0.000227167
0.000202925
0.000170849
0.000131935
9.34549e-05
6.71696e-05
5.96718e-05
8.3739e-05
0.000208435
7.39233e-06
1.29408e-05
0.000114355
0.000256018
0.000304708
0.00031445
0.000305408
0.000288383
0.000275354
0.000273809
0.000283641
0.000300231
0.000318524
0.00033513
0.000348391
0.000357564
0.00036221
0.000361966
0.000356549
0.000345866
0.000330226
0.000310768
0.000289756
0.000270038
0.000253436
0.000238813
0.000221556
0.000196947
0.000165867
0.000133171
9.90479e-05
6.73919e-05
5.38825e-05
7.52076e-05
0.000244806
7.59652e-06
1.26573e-05
0.000100472
0.000212386
0.00025188
0.000266886
0.000271995
0.000269329
0.000262687
0.000256945
0.000255278
0.000257954
0.000263595
0.000270644
0.000277964
0.000284878
0.000290991
0.000295986
0.000299397
0.000300305
0.000297094
0.000287647
0.000270596
0.000247282
0.000221999
0.000198612
0.000176543
0.000150783
0.000117958
8.44077e-05
6.22299e-05
5.66129e-05
7.37768e-05
0.000149025
0.000195364
8.19963e-06
9.39297e-06
4.90025e-05
0.000115793
0.000144894
0.000161209
0.000173996
0.000183203
0.000188583
0.000191355
0.000194201
0.000199448
0.000207598
0.000217495
0.00022719
0.000234774
0.000239032
0.000239712
0.000237354
0.000232891
0.000227155
0.000220413
0.000212159
0.000201766
0.000190239
0.000180653
0.000174599
0.000167267
0.000147534
0.000110678
7.22471e-05
5.04546e-05
5.0015e-05
9.12666e-05
0.000198186
7.405e-06
6.40778e-06
2.05871e-05
5.54621e-05
7.82612e-05
9.08325e-05
9.95705e-05
0.00010585
0.000110668
0.000115033
0.000119995
0.000126841
0.000136979
0.000151373
0.000169685
0.00018966
0.000207397
0.000218542
0.000220085
0.000212084
0.000197737
0.000181564
0.000167043
0.000154558
0.000142046
0.000128907
0.0001179
0.000111855
0.000110809
0.000110234
0.000101035
8.19816e-05
7.26062e-05
0.000101513
0.000220618
8.67519e-06
6.93684e-06
2.2886e-05
6.28441e-05
9.42382e-05
0.000109473
0.000117586
0.000120505
0.000119212
0.000115091
0.000109569
0.000104204
0.000100965
0.000102357
0.00011103
0.000128317
0.000151995
0.000176822
0.000198471
0.000211411
0.000205744
0.000181578
0.000158032
0.000147877
0.000148159
0.000150311
0.000146654
0.000133258
0.000111006
8.3873e-05
6.02515e-05
4.90211e-05
5.78918e-05
0.000123628
0.00020696
9.65904e-06
6.89555e-06
3.20547e-05
0.000100573
0.000160083
0.000182276
0.000192748
0.000198712
0.000200172
0.000196635
0.000187674
0.000173163
0.000154222
0.000134606
0.000120336
0.000116564
0.000124559
0.0001386
0.000148643
0.000155282
0.000159665
0.000143217
0.00011384
0.00010353
0.000109684
0.000120587
0.000127715
0.00012319
0.000105839
8.52928e-05
7.2311e-05
7.63595e-05
0.000118542
0.000228269
0.00016325
9.60269e-06
8.66152e-06
4.23107e-05
0.00012833
0.000186467
0.000191699
0.00018818
0.000185248
0.000184512
0.000185748
0.000187955
0.000189334
0.000186786
0.000176506
0.000158305
0.000139935
0.000130864
0.000133658
0.000141649
0.000141021
0.000126285
0.000109332
9.1535e-05
6.48848e-05
7.36275e-05
8.53898e-05
8.80589e-05
9.13688e-05
9.1659e-05
9.18446e-05
9.97987e-05
0.000126403
0.00017829
0.000199148
8.07508e-05
5.8537e-06
1.00664e-05
5.67234e-05
0.000130437
0.000133046
0.000133251
0.000135644
0.000138562
0.000141279
0.0001446
0.000150134
0.000159068
0.00017104
0.000183606
0.00019361
0.000199657
0.000201697
0.00019827
0.000185454
0.000155248
9.32845e-05
2.96397e-05
5.37488e-06
1.33837e-05
3.11142e-05
0.000117704
0.000196647
0.000141585
9.80048e-05
8.18383e-05
7.79888e-05
8.04058e-05
8.86657e-05
9.88014e-05
6.2698e-05
3.03754e-06
9.30955e-06
5.81095e-05
0.000151117
0.000179813
0.000182706
0.000171882
0.000154742
0.000136882
0.000121111
0.000107851
9.64928e-05
8.64912e-05
7.7806e-05
7.09227e-05
6.67235e-05
6.61675e-05
6.94504e-05
7.46528e-05
7.69717e-05
7.25078e-05
7.08528e-05
0.000112831
0.000259982
0.000118859
0.000110431
0.000179741
0.000287224
0.000269976
0.000191177
0.000136266
0.000105639
8.79433e-05
7.91021e-05
7.90388e-05
1.68108e-06
7.51711e-06
3.73111e-05
0.000116874
0.00017812
0.000189987
0.000183141
0.000171891
0.00016391
0.000162831
0.000168832
0.000178814
0.000186373
0.000183448
0.000163908
0.00012884
8.98405e-05
5.91253e-05
3.92406e-05
2.81246e-05
2.54662e-05
2.91529e-05
3.56621e-05
4.67768e-05
7.64749e-05
0.000137019
0.000190036
0.000215389
0.000241206
0.00028309
0.000311669
0.000286438
0.000222272
0.000158126
0.000100634
1.55764e-06
9.6912e-06
5.10549e-05
0.000149276
0.00015319
0.000136719
0.000120216
0.000106934
9.74866e-05
9.2157e-05
9.10518e-05
9.40287e-05
0.000100596
0.000109832
0.000120489
0.000130878
0.000138241
0.000139382
0.000134066
0.000126446
0.000120423
0.000113152
9.36018e-05
7.00025e-05
8.77036e-05
0.000224518
0.000309435
0.000214368
0.000156981
0.000162148
0.000244425
0.000342587
0.000326435
0.000293238
0.000141187
1.69649e-06
9.05155e-06
5.00307e-05
0.000141992
0.000192573
0.000203268
0.000194333
0.000175526
0.000158046
0.000148084
0.000145762
0.000148676
0.000153274
0.000154767
0.000148821
0.000134759
0.000115961
9.67574e-05
8.01463e-05
6.77131e-05
5.99191e-05
5.62991e-05
5.56268e-05
5.53368e-05
4.87359e-05
3.51169e-05
4.46931e-05
9.68851e-05
0.000141051
0.000134158
0.000138816
0.000178572
0.000265595
0.000326858
0.000227405
2.16612e-06
9.48944e-06
4.57984e-05
0.000149308
0.000181028
0.000161043
0.000131523
0.000107085
9.34365e-05
8.9542e-05
9.26204e-05
0.000100907
0.000114486
0.000134748
0.000162324
0.000193718
0.000219116
0.000225485
0.000204961
0.000165727
0.000128134
0.000103142
8.95238e-05
8.1963e-05
7.19069e-05
4.75355e-05
2.53456e-05
4.68152e-05
0.000181762
0.000167371
0.000145901
0.000157947
0.000187351
0.000197135
0.000148564
2.693e-06
1.00052e-05
5.74066e-05
0.000158725
0.000172849
0.000152163
0.000122379
0.000100702
9.39812e-05
0.0001012
0.000118156
0.000136708
0.000149001
0.000154162
0.000155822
0.00015666
0.000156416
0.000152501
0.000142011
0.000124872
0.000105387
8.90033e-05
7.83263e-05
7.2807e-05
6.90826e-05
6.07116e-05
4.03153e-05
1.73811e-05
7.65235e-06
1.19198e-05
4.46473e-05
8.78636e-05
0.000144983
0.000133239
6.60422e-05
2.9907e-06
9.73394e-06
5.01423e-05
0.000163643
0.000190819
0.000163195
0.000121885
9.29644e-05
8.15115e-05
8.29955e-05
9.38758e-05
0.000112386
0.000136866
0.000164245
0.000190053
0.000210211
0.000222485
0.000225914
0.000219359
0.000201483
0.000173676
0.000142866
0.000117333
0.000100224
8.93484e-05
7.95541e-05
6.3397e-05
3.32375e-05
4.19274e-06
4.03935e-06
6.55628e-07
1.38853e-06
6.72839e-06
1.52625e-05
1.47193e-05
1.28167e-06
9.94463e-06
5.24376e-05
0.000150879
0.000157319
0.000125802
9.15043e-05
7.21561e-05
6.83879e-05
7.70026e-05
9.50161e-05
0.000117913
0.000140257
0.000158291
0.000170617
0.000177238
0.000178809
0.000176447
0.000171611
0.000165632
0.000159051
0.000151316
0.000141682
0.000130537
0.000119186
0.000107828
9.38696e-05
7.38701e-05
4.63159e-05
1.57314e-05
8.7706e-06
3.62506e-06
6.56937e-07
2.54274e-06
2.74531e-06
2.62379e-07
9.81609e-06
5.15556e-05
0.000162243
0.000179716
0.000145933
0.000103088
7.62685e-05
6.72786e-05
7.16811e-05
8.6803e-05
0.000110005
0.000136315
0.000159601
0.000176112
0.000185624
0.000189904
0.000191127
0.000191085
0.000190676
0.000189676
0.00018703
0.000181604
0.000172976
0.000161676
0.000148613
0.000134311
0.00011819
9.88881e-05
7.9239e-05
6.58007e-05
5.16086e-05
2.19928e-05
3.56478e-06
3.88389e-08
8.36164e-08
9.95039e-06
4.99715e-05
0.000146826
0.000157054
0.000127271
9.09632e-05
6.6998e-05
5.78406e-05
6.05562e-05
7.33699e-05
9.4547e-05
0.00012
0.000143706
0.000161188
0.000171783
0.000177804
0.000182396
0.000187731
0.000194032
0.000199803
0.000203185
0.00020325
0.000199842
0.000192804
0.000182566
0.000170054
0.000156367
0.000144639
0.000141187
0.00015077
0.000158675
0.000101142
4.19982e-05
1.8873e-05
1.94452e-06
9.80861e-06
5.09385e-05
0.000153262
0.000168305
0.000137911
9.89512e-05
7.21933e-05
6.0582e-05
6.13012e-05
7.29704e-05
9.483e-05
0.000123635
0.000152805
0.000176435
0.000193218
0.000206096
0.000219524
0.000236336
0.00025501
0.000269288
0.000273167
0.000268477
0.000264131
0.000257866
0.000247328
0.000232338
0.000207606
0.000169464
0.00012802
9.37662e-05
6.50617e-05
4.5392e-05
3.9576e-05
5.16172e-05
4.74915e-06
9.87641e-06
4.95203e-05
0.000149564
0.000162269
0.000131319
9.34937e-05
6.76233e-05
5.52936e-05
5.38972e-05
6.26299e-05
8.1883e-05
0.000110369
0.000142579
0.00017131
0.00019362
0.000213342
0.000238619
0.00027209
0.000276765
0.000271385
0.000266215
0.000261362
0.000256963
0.000253246
0.000250578
0.000249476
0.000152944
9.28021e-05
7.20005e-05
6.42166e-05
5.79228e-05
5.63549e-05
7.22636e-05
0.000141825
5.39915e-06
9.84739e-06
5.05882e-05
0.000152114
0.000163395
0.000128276
9.22939e-05
7.05327e-05
5.97472e-05
5.71946e-05
6.33813e-05
7.97277e-05
0.000106255
0.000138966
0.000170571
0.000195993
0.000216038
0.000236345
0.00026204
0.000274088
0.000268391
0.000263057
0.000258155
0.000253716
0.0002498
0.000246596
0.000191605
0.000117388
7.35055e-05
5.70958e-05
5.58235e-05
6.02076e-05
6.97854e-05
9.61129e-05
0.000122475
4.57659e-06
9.99536e-06
5.04852e-05
0.000154989
0.000157883
0.000114157
7.9235e-05
6.25346e-05
5.60419e-05
5.55856e-05
6.18634e-05
7.70613e-05
0.000101934
0.000133309
0.000164452
0.000189794
0.000208639
0.000224271
0.000240652
0.000259038
0.000266862
0.000261598
0.000256911
0.000252809
0.000249221
0.000216011
0.000171897
0.000123879
8.13685e-05
5.5289e-05
4.61691e-05
4.95839e-05
6.49879e-05
9.83414e-05
0.000108817
4.05926e-06
1.00552e-05
5.13382e-05
0.000154964
0.000147323
9.86715e-05
7.00747e-05
6.03673e-05
5.85305e-05
5.98511e-05
6.58627e-05
8.00929e-05
0.000104398
0.000136371
0.000169187
0.000195971
0.000214288
0.000226193
0.000235334
0.000243918
0.000251161
0.00025412
0.000250034
0.0002381
0.000219416
0.000195406
0.000166394
0.000132248
9.571e-05
6.44155e-05
4.55475e-05
3.99766e-05
4.73974e-05
7.51793e-05
0.000102399
3.99967e-06
1.02235e-05
5.15007e-05
0.000155248
0.000130869
7.94416e-05
5.76629e-05
5.40373e-05
5.7228e-05
6.2162e-05
6.97924e-05
8.41239e-05
0.000108052
0.000140412
0.000175216
0.000205145
0.000226144
0.000238448
0.000244523
0.000246482
0.000244615
0.000237931
0.00022612
0.000210706
0.000193707
0.000175591
0.000154875
0.00012972
0.000100336
7.0838e-05
4.80293e-05
3.63627e-05
3.69078e-05
5.58094e-05
9.25951e-05
4.22085e-06
1.04001e-05
5.35745e-05
0.000152986
0.000108868
6.30283e-05
4.97902e-05
5.26107e-05
6.10511e-05
6.95896e-05
7.91266e-05
9.4236e-05
0.000118298
0.000150586
0.000185724
0.000216763
0.000239126
0.000251853
0.000256295
0.000254076
0.000245715
0.000230959
0.000210618
0.000187867
0.000166865
0.000149553
0.000133894
0.000115675
9.27198e-05
6.77466e-05
4.67285e-05
3.43013e-05
3.26589e-05
4.82188e-05
8.17897e-05
4.56198e-06
1.05493e-05
5.5321e-05
0.000147326
8.84752e-05
5.06604e-05
4.34584e-05
5.07646e-05
6.3367e-05
7.52358e-05
8.71179e-05
0.000103867
0.000129142
0.00016253
0.000199035
0.000231816
0.000255818
0.000269222
0.000272651
0.000267317
0.000253641
0.00023158
0.000202434
0.000170177
0.000140766
0.000119136
0.000105383
9.39216e-05
7.85069e-05
5.94076e-05
4.25874e-05
3.25839e-05
3.19605e-05
4.81076e-05
6.98867e-05
4.89139e-06
1.06626e-05
5.83265e-05
0.000139641
7.60155e-05
4.44853e-05
4.10227e-05
5.2047e-05
6.84596e-05
8.23695e-05
9.45202e-05
0.000110708
0.000135241
0.000168404
0.000206037
0.000241375
0.000268032
0.00028252
0.000285635
0.000280589
0.000267714
0.000243736
0.000208328
0.000166864
0.000127279
9.69411e-05
7.93594e-05
7.11017e-05
6.33159e-05
5.08689e-05
3.82304e-05
3.09938e-05
3.25713e-05
5.12571e-05
5.80008e-05
5.11769e-06
1.0644e-05
5.98437e-05
0.000133381
7.17401e-05
4.14305e-05
3.7622e-05
4.88074e-05
6.77467e-05
8.53703e-05
9.99104e-05
0.000116693
0.000140963
0.000174242
0.000213258
0.000250933
0.000279373
0.000293331
0.000291828
0.000285295
0.000277956
0.000259969
0.000222681
0.000173908
0.000125095
8.56778e-05
6.11889e-05
5.11161e-05
4.84283e-05
4.35709e-05
3.54141e-05
3.0431e-05
3.42085e-05
5.62136e-05
4.81365e-05
5.19702e-06
1.04919e-05
5.9043e-05
0.000134241
8.20328e-05
4.55011e-05
3.61714e-05
4.29114e-05
6.02011e-05
7.99233e-05
9.67885e-05
0.000113636
0.000136108
0.000167416
0.000206242
0.000246658
0.000280156
0.000298685
0.000294944
0.000288956
0.000282025
0.000274308
0.000241271
0.000191132
0.000136302
8.84123e-05
5.53561e-05
3.89017e-05
3.49869e-05
3.55984e-05
3.33829e-05
3.0981e-05
3.65335e-05
6.09838e-05
4.1636e-05
5.15687e-06
1.0291e-05
5.62872e-05
0.000136702
0.000104125
5.73833e-05
3.6707e-05
3.48725e-05
4.59352e-05
6.57172e-05
8.73744e-05
0.000107528
0.000129581
0.000158283
0.000194902
0.00023578
0.000273286
0.000297694
0.000297734
0.000292666
0.000286583
0.000279585
0.000256737
0.000211563
0.000156936
0.000103742
6.1827e-05
3.66126e-05
2.65567e-05
2.63808e-05
2.93712e-05
3.16521e-05
3.94765e-05
6.47047e-05
3.7712e-05
5.06379e-06
1.00961e-05
5.3843e-05
0.00013839
0.000130517
8.5962e-05
4.79574e-05
3.33376e-05
3.41869e-05
4.64224e-05
6.70188e-05
9.05597e-05
0.000114514
0.000141793
0.000175724
0.00021553
0.000255307
0.000286334
0.000299473
0.000295658
0.000290797
0.000284925
0.000266163
0.000228833
0.000181335
0.000129351
8.08506e-05
4.52705e-05
2.61181e-05
1.99738e-05
2.20733e-05
2.84558e-05
4.01564e-05
6.56934e-05
3.49953e-05
4.99429e-06
9.92802e-06
5.16975e-05
0.000140293
0.000147087
0.000118831
7.38642e-05
4.23213e-05
3.09584e-05
3.30413e-05
4.60849e-05
6.82382e-05
9.47373e-05
0.000122847
0.000154634
0.000192127
0.000232683
0.000268943
0.000292701
0.000297306
0.000293786
0.000289227
0.000271926
0.000241688
0.000202959
0.000157628
0.000108937
6.49562e-05
3.48259e-05
2.01068e-05
1.6701e-05
2.12782e-05
3.43591e-05
6.12226e-05
3.28848e-05
5.00683e-06
9.84437e-06
4.9927e-05
0.000141648
0.000155039
0.000135927
0.000104306
6.5497e-05
3.91892e-05
2.97194e-05
3.24914e-05
4.62174e-05
6.98929e-05
9.94017e-05
0.000131692
0.000167722
0.000207952
0.00024799
0.000279797
0.000296607
0.000295126
0.000291886
0.000277596
0.000252804
0.000220519
0.000181942
0.000137861
9.16525e-05
5.20438e-05
2.70913e-05
1.63731e-05
1.591e-05
2.53039e-05
5.16615e-05
3.15781e-05
5.09843e-06
9.7762e-06
4.7328e-05
0.000137537
0.000154007
0.000134065
0.000108815
8.48935e-05
5.78992e-05
3.73525e-05
2.97561e-05
3.36994e-05
4.90168e-05
7.50884e-05
0.000107942
0.00014441
0.000184537
0.000226969
0.000265223
0.000290119
0.000294934
0.000292886
0.000283807
0.00026258
0.000233889
0.000199662
0.000160372
0.000116643
7.3008e-05
3.90521e-05
2.0392e-05
1.44685e-05
1.91375e-05
4.16746e-05
3.12673e-05
5.20319e-06
9.78946e-06
4.50407e-05
0.000130699
0.000151041
0.000130593
0.000101803
8.15581e-05
6.81197e-05
5.12173e-05
3.59301e-05
3.07768e-05
3.69753e-05
5.53855e-05
8.53267e-05
0.000122616
0.000163937
0.000208033
0.000250803
0.000283073
0.000293622
0.000292614
0.000289633
0.000270468
0.000243426
0.000211525
0.000175469
0.000135103
9.18762e-05
5.28319e-05
2.71402e-05
1.60608e-05
1.67603e-05
3.47743e-05
3.23483e-05
5.27662e-06
9.8336e-06
4.39041e-05
0.000126882
0.00015169
0.000133718
0.000101529
7.65054e-05
6.49895e-05
5.85402e-05
4.66458e-05
3.53622e-05
3.35767e-05
4.37208e-05
6.71687e-05
0.000102516
0.000145114
0.000191228
0.000237419
0.00027577
0.000291653
0.00029148
0.000290255
0.00027544
0.000248882
0.000217769
0.000183424
0.000145539
0.000104335
6.42017e-05
3.4273e-05
1.91781e-05
1.70251e-05
3.20309e-05
3.44778e-05
5.30984e-06
9.98923e-06
4.46366e-05
0.0001297
0.000155815
0.000138466
0.000104481
7.52843e-05
6.09838e-05
5.70347e-05
5.31378e-05
4.3233e-05
3.62183e-05
3.9578e-05
5.61609e-05
8.69942e-05
0.000129101
0.000176925
0.000225125
0.000266568
0.000289432
0.000289881
0.000289287
0.000274497
0.000248639
0.00021852
0.000185484
0.000149346
0.000110173
7.10691e-05
3.99071e-05
2.26055e-05
1.87599e-05
3.24044e-05
3.66868e-05
5.29538e-06
1.01883e-05
4.68354e-05
0.000137219
0.000162282
0.000142614
0.000106637
7.60319e-05
6.03426e-05
5.59453e-05
5.52784e-05
4.99037e-05
4.1742e-05
4.036e-05
5.11336e-05
7.64404e-05
0.000115266
0.000162129
0.000209914
0.00025116
0.000278553
0.00028819
0.000283259
0.000266816
0.000243287
0.000215266
0.000183876
0.000149322
0.000111894
7.43638e-05
4.36545e-05
2.56961e-05
2.11701e-05
3.46454e-05
3.84372e-05
5.25949e-06
1.0435e-05
5.01664e-05
0.000148205
0.000168811
0.00014287
0.000103281
7.35913e-05
5.93569e-05
5.59135e-05
5.69052e-05
5.48178e-05
4.78256e-05
4.39185e-05
5.04221e-05
7.09958e-05
0.000105982
0.000150484
0.000196244
0.000235302
0.000261529
0.000272254
0.000268889
0.000255033
0.000234085
0.000208298
0.000178807
0.000146017
0.000110463
7.49039e-05
4.56315e-05
2.81513e-05
2.37981e-05
3.8015e-05
3.90198e-05
5.21778e-06
1.06213e-05
5.34206e-05
0.000157985
0.000172668
0.000139072
9.6957e-05
6.99128e-05
5.82995e-05
5.65157e-05
5.90487e-05
5.91553e-05
5.37226e-05
4.87508e-05
5.21512e-05
6.85342e-05
9.91466e-05
0.000139983
0.000182643
0.000218935
0.000243546
0.00025456
0.000253062
0.000241751
0.000223338
0.000199754
0.00017213
0.000141042
0.000107314
7.38395e-05
4.64265e-05
3.00172e-05
2.63813e-05
4.18373e-05
3.84776e-05
5.16979e-06
1.06906e-05
5.45277e-05
0.000161284
0.000169367
0.000128214
8.62899e-05
6.38258e-05
5.5915e-05
5.64987e-05
6.10019e-05
6.33497e-05
5.96687e-05
5.44377e-05
5.56726e-05
6.86842e-05
9.54084e-05
0.000132552
0.000171872
0.000205193
0.000227865
0.000238628
0.000238401
0.000229162
0.000212978
0.00019146
0.000165659
0.000136231
0.000104219
7.2641e-05
4.69442e-05
3.16483e-05
2.8896e-05
4.56527e-05
3.74389e-05
5.12236e-06
1.06634e-05
5.35354e-05
0.000157865
0.000160993
0.000115349
7.61873e-05
5.82331e-05
5.34949e-05
5.60779e-05
6.23617e-05
6.7091e-05
6.56413e-05
6.07734e-05
6.03325e-05
7.03192e-05
9.34196e-05
0.000127266
0.000163968
0.000195051
0.000215978
0.000225998
0.000226173
0.000218145
0.000203547
0.000183744
0.000159663
0.000131956
0.000101733
7.19637e-05
4.77507e-05
3.3408e-05
3.15239e-05
4.95274e-05
3.6601e-05
5.09246e-06
1.06601e-05
5.2542e-05
0.000154858
0.000151811
0.000101951
6.68245e-05
5.31924e-05
5.12246e-05
5.55592e-05
6.34732e-05
7.06261e-05
7.19138e-05
6.82473e-05
6.68265e-05
7.42837e-05
9.40497e-05
0.00012474
0.000159183
0.000188678
0.00020834
0.000217522
0.000217442
0.000209676
0.000195726
0.000176839
0.000153897
0.000127592
9.91061e-05
7.12822e-05
4.87303e-05
3.54911e-05
3.46392e-05
5.39375e-05
3.60809e-05
5.07767e-06
1.08306e-05
5.43319e-05
0.000158986
0.000142846
8.79413e-05
5.86162e-05
4.98711e-05
5.08751e-05
5.69017e-05
6.597e-05
7.46809e-05
7.81035e-05
7.59007e-05
7.42208e-05
7.98976e-05
9.68346e-05
0.0001243
0.000155924
0.0001833
0.000201467
0.00020978
0.000209444
0.000201898
0.000188516
0.000170425
0.000148462
0.000123366
9.64298e-05
7.04446e-05
4.96085e-05
3.7663e-05
3.8052e-05
5.85051e-05
3.56408e-05
5.0694e-06
1.11208e-05
5.95547e-05
0.000167801
0.000126266
7.11371e-05
5.04027e-05
4.77474e-05
5.28788e-05
6.13815e-05
7.15153e-05
8.07711e-05
8.51922e-05
8.41418e-05
8.25574e-05
8.6807e-05
0.000100813
0.000124189
0.000151604
0.000175755
0.000192055
0.000199624
0.000199318
0.000192341
0.000179888
0.000162975
0.000142393
0.000118895
9.37886e-05
6.97252e-05
5.05683e-05
3.99254e-05
4.16107e-05
6.29634e-05
3.52639e-05
5.06953e-06
1.1365e-05
6.72992e-05
0.000169683
0.000101701
5.59102e-05
4.43088e-05
4.82198e-05
5.85453e-05
6.98527e-05
8.00563e-05
8.78427e-05
9.12787e-05
9.05923e-05
8.95458e-05
9.30456e-05
0.000104213
0.000122706
0.000144549
0.000164418
0.000178636
0.000185895
0.00018625
0.000180384
0.000169246
0.000153783
0.00013483
0.000113258
9.04255e-05
6.87533e-05
5.16304e-05
4.25154e-05
4.56402e-05
6.77013e-05
3.51522e-05
5.0784e-06
1.13646e-05
7.30852e-05
0.000158514
8.15353e-05
4.60806e-05
4.07051e-05
5.0143e-05
6.58263e-05
7.99002e-05
8.97642e-05
9.56089e-05
9.74608e-05
9.63676e-05
9.52989e-05
9.78152e-05
0.000106089
0.000119731
0.000136038
0.000151609
0.000163807
0.00017101
0.000172383
0.000167913
0.000158215
0.000144155
0.000126656
0.000106785
8.6095e-05
6.69261e-05
5.22028e-05
4.50619e-05
4.99218e-05
7.22834e-05
3.4874e-05
5.08048e-06
1.11808e-05
7.35717e-05
0.000149874
7.557e-05
4.28436e-05
3.86375e-05
5.00923e-05
6.93344e-05
8.61471e-05
9.65379e-05
0.000101632
0.000102905
0.000101834
0.000100716
0.000102109
0.000107548
0.000116751
0.000128066
0.000139597
0.000149725
0.000156842
0.000159391
0.000156555
0.000148459
0.000135831
0.000119664
0.000101195
8.21613e-05
6.49338e-05
5.22281e-05
4.69586e-05
5.34469e-05
7.54546e-05
3.417e-05
5.07058e-06
1.09522e-05
6.99403e-05
0.000151653
8.29852e-05
4.40112e-05
3.58079e-05
4.46434e-05
6.49958e-05
8.67243e-05
0.000101527
0.000108667
0.000110521
0.000109521
0.00010803
0.000108128
0.000110914
0.000116136
0.000122823
0.000130184
0.000137601
0.000143911
0.000147281
0.00014616
0.000139986
0.000129128
0.000114515
9.74777e-05
7.98495e-05
6.40033e-05
5.26012e-05
4.85708e-05
5.61634e-05
7.76029e-05
3.36937e-05
5.08893e-06
1.08022e-05