/*--------------------------------*- C++ -*----------------------------------*\
| =========                 |                                                 |
| \\      /  F ield         | OpenFOAM: The Open Source CFD Toolbox           |
|  \\    /   O peration     | Version:  v2006                                 |
|   \\  /    A nd           | Website:  www.openfoam.com                      |
|    \\/     M anipulation  |                                                 |
\*---------------------------------------------------------------------------*/
FoamFile
{
    version     2.0;
    format      ascii;
    class       volScalarField;
    location    "55";
    object      nut;
}
// * * * * * * * * * * * * * * * * * * * * * * * * * * * * * * * * * * * * * //

dimensions      [0 2 -1 0 0 0 0];


internalField   nonuniform List<scalar> 
78750
(
0.000524033
0.00103638
0.000632927
3.52772e-05
6.10013e-05
6.44729e-05
6.63495e-05
6.76651e-05
7.49458e-05
7.93898e-05
8.38157e-05
8.88754e-05
9.32709e-05
9.7568e-05
0.000101631
0.00010545
0.000109037
0.000112407
0.000115577
0.00011856
0.000121397
0.000124136
0.000126813
0.000129468
0.000132164
0.000134924
0.000137718
0.000140344
0.000142232
0.000142265
0.000138863
0.000131522
0.000117904
6.01855e-05
2.46786e-06
1.51757e-05
7.93518e-05
4.62657e-05
0.00010014
9.7011e-05
9.15124e-05
0.000109474
0.000127244
0.000140254
0.000151107
0.000162651
0.000172634
0.000181083
0.000187977
0.000193459
0.000197763
0.000201076
0.000203493
0.000205197
0.000206394
0.000207217
0.000207797
0.000208278
0.00020885
0.000209846
0.000211833
0.000215729
0.000222489
0.000231225
0.000235662
0.000225058
0.000192869
0.000126
4.18706e-05
2.36973e-06
3.35442e-06
5.94375e-05
0.000131542
0.000182836
0.000221227
0.000270771
0.000273332
0.000276549
0.000257627
0.000245029
0.000242263
0.000243957
0.000247047
0.000250442
0.00025375
0.000256767
0.000259164
0.000260559
0.000260701
0.000259447
0.000256739
0.000252543
0.000246667
0.000238796
0.000228429
0.000214859
0.000197845
0.00017913
0.000162212
0.000149361
0.000138379
0.000120221
8.2204e-05
3.34803e-05
2.3585e-06
1.93896e-06
2.00522e-05
5.96648e-05
0.000131038
0.000192466
0.000214329
0.000220222
0.000226223
0.000235072
0.000245684
0.000257257
0.000269716
0.000283187
0.000297564
0.00031229
0.000315615
0.000317132
0.000318262
0.000318952
0.000319156
0.000318829
0.000317964
0.00031656
0.000314638
0.00031225
0.000309485
0.000298777
0.000234816
0.000167935
0.000117368
8.61732e-05
6.61974e-05
4.75692e-05
2.90659e-05
3.04063e-06
3.81824e-06
4.82593e-05
0.000129228
0.000187347
0.000218946
0.000238888
0.00025339
0.000264464
0.000272954
0.000279483
0.000284683
0.00028916
0.000293497
0.000298195
0.000302422
0.000303944
0.000305398
0.000306734
0.000307881
0.000308756
0.000309266
0.000309316
0.000308818
0.000307703
0.000305942
0.000303564
0.000300652
0.00026922
0.000173658
9.68177e-05
5.66994e-05
4.02494e-05
3.3868e-05
2.81161e-05
3.65967e-06
4.16824e-06
4.37466e-05
0.000118567
0.000167931
0.000193603
0.000210588
0.000224446
0.000237031
0.000248825
0.000259755
0.000269594
0.00027817
0.000285457
0.000291581
0.000296803
0.000301479
0.000305954
0.000310563
0.000311316
0.00031152
0.000311553
0.000311349
0.000310821
0.000309876
0.000308428
0.00030642
0.000303699
0.000259886
0.000191768
0.000116039
5.94201e-05
3.24262e-05
2.45791e-05
2.57734e-05
3.7182e-06
3.89739e-06
4.72601e-05
0.000120062
0.000161981
0.000184325
0.000200403
0.000214062
0.000226388
0.000237645
0.000247837
0.000256935
0.000264955
0.000271958
0.000278031
0.00028326
0.00028771
0.000291417
0.000294399
0.000296679
0.000298302
0.00029928
0.000299533
0.000298872
0.000296834
0.000292308
0.000282556
0.000262065
0.000223924
0.00016732
0.00010536
5.61943e-05
2.86227e-05
1.94706e-05
2.4414e-05
4.16499e-06
4.11999e-06
4.7349e-05
0.000127516
0.00016948
0.000190762
0.000206455
0.000220359
0.000233552
0.000246159
0.00025789
0.000268391
0.000277432
0.000284961
0.00029106
0.000295872
0.000298758
0.000300225
0.000301516
0.000302596
0.000303425
0.000301619
0.000297781
0.000291944
0.000283752
0.00027249
0.000256797
0.000234082
0.000200314
0.000153475
0.000101294
5.78684e-05
3.06395e-05
1.90494e-05
2.15298e-05
4.19535e-06
3.66397e-06
4.48471e-05
0.000117765
0.000157184
0.000179165
0.000195461
0.00020895
0.000220805
0.000231574
0.000241495
0.000250679
0.0002592
0.000267119
0.00027448
0.000281287
0.000287473
0.000292885
0.000297244
0.0003001
0.000300827
0.000298653
0.000292921
0.000283466
0.000270669
0.000255066
0.000236855
0.000215519
0.000188723
0.000151444
0.00010231
5.63673e-05
2.93684e-05
1.87595e-05
2.14826e-05
4.19118e-06
3.67136e-06
4.68192e-05
0.000126774
0.00016833
0.000191088
0.000207177
0.00021876
0.000227134
0.000233542
0.000239045
0.000244432
0.000250181
0.000256498
0.000263392
0.000270756
0.000278387
0.000286018
0.00029333
0.000299937
0.000305357
0.000309028
0.000310372
0.000308619
0.00030232
0.000289002
0.000265426
0.000229335
0.000183658
0.000138317
0.000100885
6.93814e-05
4.03271e-05
2.21657e-05
1.86311e-05
3.7912e-06
2.68713e-06
4.3192e-05
0.000111939
0.000150725
0.000172221
0.000188919
0.000202715
0.000213804
0.000222659
0.000229807
0.00023571
0.000240769
0.000245313
0.000249587
0.00025373
0.00025777
0.000261637
0.000265171
0.000268147
0.000270299
0.000271306
0.000270749
0.000268031
0.000262386
0.000253027
0.000239292
0.000220508
0.00019497
0.000159695
0.000116245
7.57136e-05
4.67298e-05
2.92579e-05
2.25053e-05
3.61369e-06
2.66361e-06
5.17212e-05
0.000123309
0.000156687
0.000174923
0.000190925
0.000206206
0.000220712
0.000234529
0.000247577
0.000259634
0.000270446
0.000279799
0.000287554
0.000293665
0.000298173
0.000301171
0.000302758
0.000302996
0.000301871
0.000299268
0.000294971
0.000288668
0.00027995
0.000268291
0.000252924
0.000232771
0.000206581
0.000173155
0.000132896
9.08238e-05
5.62943e-05
3.54958e-05
2.73879e-05
3.38998e-06
1.94525e-06
3.91465e-05
8.2674e-05
0.000106375
0.000122313
0.000136297
0.000149375
0.000161927
0.000174249
0.000186553
0.000198959
0.0002115
0.000224099
0.000236554
0.000248534
0.000259607
0.000269296
0.000277159
0.000282857
0.000286165
0.000286975
0.000285244
0.000280931
0.000273768
0.000263292
0.000248962
0.000229817
0.000204479
0.000171776
0.00013291
9.35668e-05
6.14912e-05
4.16093e-05
3.47504e-05
3.4401e-06
1.93931e-06
3.46918e-05
8.73061e-05
0.000115149
0.000132582
0.000146934
0.000158956
0.000169357
0.000178772
0.000187667
0.000196436
0.00020543
0.000214912
0.000225044
0.000235855
0.000247176
0.000258569
0.00026933
0.000278557
0.000285287
0.000288686
0.000288268
0.000284082
0.00027662
0.000266094
0.000251872
0.00023305
0.000208826
0.000178189
0.000141072
0.000101381
6.77373e-05
4.71848e-05
4.04418e-05
3.39374e-06
1.9948e-06
6.26894e-05
0.000134829
0.000172682
0.000195502
0.000213068
0.000228252
0.000242526
0.000256252
0.000269291
0.000279172
0.000284101
0.000288671
0.000292941
0.000296961
0.000300762
0.00030435
0.000307699
0.000310764
0.000313494
0.000315841
0.000317769
0.000319259
0.000320306
0.000307482
0.000281433
0.00024977
0.000213628
0.000174487
0.000134942
9.86471e-05
7.04098e-05
5.46025e-05
5.32675e-05
3.68802e-06
1.95532e-06
4.6392e-05
0.000100383
0.000123101
0.000139243
0.000154254
0.000168746
0.000182988
0.000197247
0.000211805
0.000226869
0.000242545
0.000258815
0.000275479
0.000291482
0.00029772
0.000300682
0.000303418
0.000305923
0.000308181
0.000310166
0.000311847
0.000313195
0.000314193
0.000314631
0.000286162
0.000248283
0.000207002
0.000165426
0.000125852
9.14949e-05
6.71781e-05
5.7469e-05
6.65982e-05
4.02392e-06
2.30504e-06
6.57365e-05
0.000112053
0.000130464
0.000145695
0.000160689
0.000176048
0.000191611
0.000206816
0.000221245
0.000234919
0.000247982
0.0002605
0.000272569
0.00028418
0.000294632
0.000302989
0.000305509
0.000307468
0.000309172
0.000310617
0.000311794
0.000312683
0.000305369
0.000285551
0.000253796
0.000215044
0.000175467
0.000138814
0.000106498
8.02489e-05
6.34414e-05
6.25444e-05
9.4446e-05
4.35156e-06
2.79014e-06
5.65888e-05
9.90702e-05
0.000117125
0.000130908
0.000143196
0.00015548
0.000168455
0.000181696
0.000194456
0.000206345
0.000217226
0.000227086
0.000236021
0.000243999
0.000250822
0.000256175
0.00025982
0.000261662
0.000261581
0.000259519
0.000255359
0.00024866
0.000238333
0.000222864
0.000201538
0.000175392
0.000146746
0.000117837
9.07353e-05
6.8945e-05
5.76889e-05
6.57899e-05
0.000127892
4.88192e-06
3.19395e-06
5.313e-05
9.45585e-05
0.000113452
0.000125315
0.000133646
0.000140735
0.000148617
0.000158012
0.000168529
0.000179132
0.000189093
0.000198232
0.000206485
0.000213698
0.000219732
0.000224436
0.000227633
0.000229144
0.00022878
0.000226329
0.000221558
0.000214136
0.000203581
0.000189523
0.000172263
0.000153109
0.000133407
0.000112888
8.96994e-05
6.57897e-05
5.12941e-05
6.03681e-05
0.000153333
5.10234e-06
4.81774e-06
5.11707e-05
0.000101449
0.000122695
0.000133662
0.000140274
0.000145148
0.000150214
0.000156253
0.000163192
0.000170595
0.000177962
0.00018489
0.000191073
0.00019633
0.000200565
0.000203713
0.000205722
0.000206553
0.000206192
0.000204588
0.000201551
0.000196653
0.000189064
0.000177513
0.000160673
0.00013834
0.000112915
8.90332e-05
7.08152e-05
5.92683e-05
5.5821e-05
7.36272e-05
0.000163535
5.51337e-06
7.31724e-06
6.2542e-05
0.000131267
0.000162345
0.000173339
0.000174107
0.000170982
0.000169573
0.00017299
0.000180952
0.000190968
0.000200339
0.000207549
0.000212186
0.000214384
0.000214481
0.000212802
0.000209624
0.000205177
0.000199699
0.000193509
0.000186973
0.000180238
0.000172963
0.000164245
0.000152816
0.000137144
0.000116043
9.02062e-05
6.46663e-05
4.76977e-05
4.44882e-05
6.65291e-05
0.000174077
6.67984e-06
8.67819e-06
7.69999e-05
0.000172036
0.000203935
0.000209301
0.00020196
0.000189375
0.000179612
0.000177593
0.000183183
0.000193328
0.000204733
0.000215196
0.000223638
0.000229569
0.000232694
0.000232765
0.000229591
0.000223101
0.000213484
0.000201466
0.000188504
0.000176446
0.000166483
0.000157868
0.00014752
0.000132189
0.000112279
9.08705e-05
6.80188e-05
4.67579e-05
3.88258e-05
5.81618e-05
0.000198947
6.63906e-06
8.74662e-06
7.05213e-05
0.000148996
0.000175918
0.000185117
0.000187035
0.00018339
0.000177021
0.000171396
0.000168703
0.000169103
0.000171655
0.000175316
0.000179334
0.00018326
0.000186831
0.000189833
0.000191955
0.000192593
0.000190699
0.000184895
0.00017428
0.000159694
0.000143894
0.000129397
0.000115861
0.000100016
7.95127e-05
5.83365e-05
4.46139e-05
4.24066e-05
5.76669e-05
0.000120889
0.000164317
7.43266e-06
6.67103e-06
3.60121e-05
8.5544e-05
0.000107068
0.000118866
0.000127738
0.000133618
0.000136327
0.000136811
0.000137086
0.000138877
0.000142577
0.000147427
0.000152163
0.000155591
0.000156996
0.000156283
0.000153848
0.000150308
0.00014619
0.000141645
0.000136321
0.000129779
0.000122607
0.000116719
0.000113089
0.000108611
9.61636e-05
7.27939e-05
4.8609e-05
3.55884e-05
3.77526e-05
7.329e-05
0.000166153
6.6766e-06
4.53449e-06
1.51971e-05
4.15532e-05
5.92082e-05
6.9282e-05
7.6464e-05
8.16942e-05
8.56415e-05
8.89911e-05
9.24666e-05
9.69775e-05
0.000103519
0.000112729
0.000124279
0.000136508
0.000146722
0.000152093
0.000150856
0.000143373
0.000132031
0.000119946
0.000109417
0.000100675
9.23502e-05
8.40005e-05
7.73087e-05
7.40062e-05
7.40519e-05
7.4403e-05
6.89574e-05
5.70288e-05
5.26363e-05
7.83782e-05
0.000179585
7.67711e-06
4.82125e-06
1.6446e-05
4.60201e-05
6.98947e-05
8.2041e-05
8.89686e-05
9.20435e-05
9.19407e-05
8.96463e-05
8.6182e-05
8.2677e-05
8.06037e-05
8.18756e-05
8.84996e-05
0.000101338
0.000118379
0.000135399
0.000149189
0.000155904
0.000148773
0.000128613
0.000109511
0.000100254
9.85129e-05
9.84767e-05
9.52398e-05
8.63847e-05
7.23921e-05
5.55095e-05
4.09427e-05
3.48233e-05
4.38415e-05
9.92672e-05
0.000173869
8.75339e-06
4.74395e-06
2.27996e-05
7.29557e-05
0.000117486
0.000134869
0.000143528
0.000148747
0.000150545
0.000148595
0.000142629
0.000132568
0.000119201
0.00010526
9.52669e-05
9.32196e-05
0.000100115
0.000111253
0.000118477
0.000122403
0.000124187
0.000109691
8.55212e-05
7.58916e-05
7.83531e-05
8.4131e-05
8.7197e-05
8.27104e-05
7.05101e-05
5.72436e-05
4.99046e-05
5.51833e-05
9.00833e-05
0.000180448
0.000134423
8.60785e-06
5.97279e-06
3.06083e-05
9.51532e-05
0.000140145
0.00014542
0.000143743
0.000142193
0.000142041
0.000143153
0.000144812
0.000145718
0.000143636
0.000135816
0.000122215
0.000108726
0.000102512
0.0001055
0.00011243
0.000112311
0.00010075
8.72517e-05
7.26622e-05
5.03302e-05
5.55783e-05
6.40287e-05
6.59914e-05
6.84234e-05
6.86819e-05
6.91783e-05
7.61611e-05
9.8518e-05
0.000142402
0.000163295
6.89927e-05
5.55281e-06
7.11922e-06
4.21447e-05
9.86893e-05
0.00010174
0.000102785
0.000105399
0.000108341
0.000111045
0.000114112
0.000118761
0.000125866
0.00013507
0.000144406
0.00015145
0.000155305
0.000156217
0.000153338
0.000143832
0.000121485
7.43752e-05
2.45272e-05
4.66596e-06
1.10401e-05
2.2187e-05
8.41145e-05
0.00014409
0.000105224
7.42053e-05
6.33325e-05
6.17749e-05
6.52958e-05
7.39899e-05
8.50361e-05
5.6346e-05
2.99266e-06
6.57991e-06
4.23846e-05
0.000111527
0.000133757
0.000136879
0.000129674
0.000117587
0.000104805
9.34709e-05
8.39247e-05
7.57007e-05
6.83669e-05
6.1878e-05
5.66142e-05
5.32827e-05
5.26452e-05
5.48278e-05
5.82911e-05
5.93548e-05
5.51992e-05
5.32234e-05
8.3476e-05
0.00018928
8.4596e-05
7.7059e-05
0.000125227
0.000201406
0.000190948
0.000136827
9.91917e-05
7.86649e-05
6.74336e-05
6.30064e-05
6.62561e-05
1.56577e-06
5.15472e-06
2.67367e-05
8.56395e-05
0.000132149
0.000142188
0.000137997
0.000130192
0.000124601
0.000124061
0.000128805
0.000136588
0.000142671
0.00014102
0.00012692
0.000100911
7.14893e-05
4.78996e-05
3.22505e-05
2.3244e-05
2.097e-05
2.37827e-05
2.87582e-05
3.71796e-05
5.93739e-05
0.000103657
0.000140895
0.000157256
0.000174124
0.000203031
0.000223231
0.000205978
0.000161539
0.000117356
7.77789e-05
1.34873e-06
6.82517e-06
3.78689e-05
0.000112882
0.000117151
0.000105557
9.36187e-05
8.39153e-05
7.69909e-05
7.31172e-05
7.24037e-05
7.47402e-05
7.97212e-05
8.66029e-05
9.44137e-05
0.000101901
0.000107061
0.000107611
0.000103494
9.78745e-05
9.36244e-05
8.83934e-05
7.34169e-05
5.49574e-05
6.81262e-05
0.000171269
0.000232672
0.000158905
0.000114295
0.000116128
0.00017409
0.000245104
0.00023629
0.00021661
0.000108108
1.44098e-06
6.30642e-06
3.61781e-05
0.000104431
0.000143086
0.000152277
0.000146709
0.000133554
0.00012125
0.000114591
0.00011379
0.00011708
0.000121707
0.000123828
0.000119854
0.000109096
9.42168e-05
7.87574e-05
6.52437e-05
5.50467e-05
4.85819e-05
4.54783e-05
4.47414e-05
4.43152e-05
3.886e-05
2.78311e-05
3.48112e-05
7.36109e-05
0.000104677
9.73758e-05
9.90455e-05
0.000127112
0.000191675
0.000241511
0.000174194
1.82285e-06
6.6232e-06
3.35894e-05
0.000111753
0.000137037
0.000123011
0.00010129
8.30877e-05
7.2938e-05
7.01598e-05
7.26555e-05
7.90848e-05
8.95512e-05
0.00010519
0.000126549
0.00015098
0.000170904
0.000176176
0.000160569
0.000130307
0.000101187
8.1796e-05
7.12168e-05
6.5297e-05
5.72795e-05
3.78029e-05
2.0022e-05
3.58653e-05
0.000135147
0.000121746
0.00010424
0.000111539
0.000132275
0.000141169
0.000110168
2.2334e-06
7.05249e-06
4.23319e-05
0.000119149
0.000131209
0.000116694
9.48631e-05
7.897e-05
7.4567e-05
8.11349e-05
9.55016e-05
0.000111118
0.000121515
0.0001259
0.000127232
0.000127743
0.000127276
0.000123777
0.000114951
0.000100806
8.48732e-05
7.15489e-05
6.28912e-05
5.84071e-05
5.5363e-05
4.85844e-05
3.21867e-05
1.37797e-05
5.96061e-06
8.92306e-06
3.17224e-05
6.06056e-05
9.95314e-05
9.2834e-05
4.82201e-05
2.57437e-06
6.81613e-06
3.66883e-05
0.00012176
0.000143343
0.000123583
9.30405e-05
7.15374e-05
6.31753e-05
6.46832e-05
7.34675e-05
8.82526e-05
0.000107807
0.000129749
0.000150546
0.000166926
0.000177059
0.000180123
0.000175169
0.000161103
0.000139017
0.000114458
9.40727e-05
8.04035e-05
7.17051e-05
6.38488e-05
5.08621e-05
2.66297e-05
3.34332e-06
3.1709e-06
4.9435e-07
9.89282e-07
4.70918e-06
1.14218e-05
1.23155e-05
1.24729e-06
7.01233e-06
3.88009e-05
0.000113806
0.000120113
9.71641e-05
7.1564e-05
5.71877e-05
5.48583e-05
6.2308e-05
7.72588e-05
9.60607e-05
0.000114278
0.000128863
0.000138713
0.000143874
0.000144914
0.000142767
0.000138635
0.000133607
0.000128129
0.000121763
0.000113913
0.000104894
9.57484e-05
8.6627e-05
7.54336e-05
5.93831e-05
3.72328e-05
1.26234e-05
6.97455e-06
2.83048e-06
5.03218e-07
1.98463e-06
2.29443e-06
2.59636e-07
6.88317e-06
3.77432e-05
0.000120748
0.000135047
0.000110593
7.88204e-05
5.88886e-05
5.24678e-05
5.64018e-05
6.87934e-05
8.76587e-05
0.000109064
0.000128072
0.000141621
0.000149489
0.000153076
0.000154131
0.000154104
0.000153732
0.000152847
0.000150614
0.000146133
0.000139082
0.000129902
0.000119335
0.000107809
9.48579e-05
7.93813e-05
6.36304e-05
5.28291e-05
4.13741e-05
1.75787e-05
2.87034e-06
3.08641e-08
7.82621e-08
7.00725e-06
3.69309e-05
0.000110622
0.000119741
9.80914e-05
7.09066e-05
5.28473e-05
4.61249e-05
4.8692e-05
5.92967e-05
7.66098e-05
9.73364e-05
0.000116593
0.000130748
0.000139273
0.000144055
0.000147651
0.000151826
0.000156763
0.000161258
0.000163814
0.000163691
0.00016077
0.000154935
0.000146541
0.000136338
0.000125215
0.000115682
0.000112784
0.000120297
0.000126447
8.04143e-05
3.30302e-05
1.45673e-05
1.76829e-06
6.88528e-06
3.74024e-05
0.000114556
0.000127143
0.000105163
7.61924e-05
5.6184e-05
4.76744e-05
4.87356e-05
5.84766e-05
7.64022e-05
9.99324e-05
0.000123732
0.000142987
0.000156616
0.000167001
0.00017776
0.000191195
0.000206084
0.00021738
0.000220257
0.000216215
0.000212449
0.000207144
0.00019842
0.000186146
0.000166089
0.000135324
0.000101949
7.43395e-05
5.12236e-05
3.54532e-05
3.0983e-05
4.17158e-05
4.36777e-06
6.95178e-06
3.66005e-05
0.000112693
0.000123694
0.000101141
7.2764e-05
5.3186e-05
4.39187e-05
4.31729e-05
5.04923e-05
6.62942e-05
8.95721e-05
0.000115847
0.000139237
0.000157328
0.000173226
0.000193538
0.000220404
0.000223887
0.000219225
0.000214738
0.000210523
0.000206704
0.000203471
0.000201128
0.000200098
0.000122613
7.43917e-05
5.77399e-05
5.15093e-05
4.65117e-05
4.56233e-05
5.99621e-05
0.000122314
5.06408e-06
6.92089e-06
3.72948e-05
0.000114328
0.000124255
9.85863e-05
7.1703e-05
5.53841e-05
4.73764e-05
4.57429e-05
5.10453e-05
6.4531e-05
8.62695e-05
0.00011302
0.000138824
0.000159518
0.000175738
0.000192064
0.000212659
0.000222098
0.000217128
0.000212453
0.000208148
0.000204255
0.000200841
0.000198077
0.000153829
9.42767e-05
5.91705e-05
4.62283e-05
4.56298e-05
4.98378e-05
5.88092e-05
8.31759e-05
0.000109833
4.42021e-06
7.04406e-06
3.74024e-05
0.0001171
0.000120739
8.83029e-05
6.20212e-05
4.94882e-05
4.47455e-05
4.46907e-05
5.0008e-05
6.25381e-05
8.29327e-05
0.000108614
0.000134076
0.000154749
0.000170045
0.000182632
0.000195734
0.000210372
0.000216365
0.000211723
0.000207554
0.000203885
0.000200676
0.000173707
0.000138109
9.95213e-05
6.54748e-05
4.47218e-05
3.77754e-05
4.13462e-05
5.55644e-05
8.6511e-05
9.9056e-05
3.96608e-06
7.08819e-06
3.80317e-05
0.000117105
0.000112757
7.64813e-05
5.50362e-05
4.79548e-05
4.68952e-05
4.82604e-05
5.33685e-05
6.51315e-05
8.50941e-05
0.000111304
0.000138176
0.000160074
0.000174992
0.000184601
0.000191877
0.000198625
0.000204214
0.000206269
0.000202586
0.000192559
0.000177128
0.000157488
0.000133931
0.000106372
7.70162e-05
5.19806e-05
3.70479e-05
3.30737e-05
4.03189e-05
6.61688e-05
9.35516e-05
3.92398e-06
7.21849e-06
3.82543e-05
0.000117674
0.000100544
6.19127e-05
4.56021e-05
4.32228e-05
4.61195e-05
5.0347e-05
5.6734e-05
6.85705e-05
8.82391e-05
0.000114794
0.000143331
0.000167844
0.000185
0.000194984
0.000199816
0.000201225
0.00019946
0.000193729
0.000183806
0.000170963
0.000156872
0.000141945
0.000125008
0.0001046
8.08994e-05
5.72138e-05
3.90115e-05
2.9948e-05
3.12311e-05
4.90732e-05
8.48515e-05
4.16336e-06
7.3556e-06
3.987e-05
0.000116235
8.39443e-05
4.94128e-05
3.9659e-05
4.2362e-05
4.94732e-05
5.6613e-05
6.45424e-05
7.70136e-05
9.68054e-05
0.000123327
0.000152171
0.000177629
0.000195941
0.000206314
0.000209856
0.000207901
0.000200883
0.00018861
0.000171765
0.000152963
0.000135616
0.000121321
0.000108441
9.35826e-05
7.50007e-05
5.48884e-05
3.80606e-05
2.83062e-05
2.76776e-05
4.25296e-05
7.53679e-05
4.53331e-06
7.47748e-06
4.12805e-05
0.000112297
6.85296e-05
3.99866e-05
3.48702e-05
4.11331e-05
5.16082e-05
6.14524e-05
7.12911e-05
8.51077e-05
0.000105909
0.00013336
0.000163357
0.000190277
0.000209965
0.000220923
0.000223664
0.000219188
0.000207847
0.000189618
0.000165586
0.000139022
0.000114816
9.70056e-05
8.56724e-05
7.62826e-05
6.37753e-05
4.83684e-05
3.48929e-05
2.70796e-05
2.72932e-05
4.27265e-05
6.49034e-05
4.90479e-06
7.57368e-06
4.36193e-05
0.000106739
5.91134e-05
3.53079e-05
3.31053e-05
4.23772e-05
5.59707e-05
6.74856e-05
7.75415e-05
9.09022e-05
0.000111113
0.000138408
0.000169369
0.000198428
0.000220331
0.000232208
0.000234716
0.000230496
0.000219828
0.000200034
0.000170858
0.000136732
0.000104177
7.92397e-05
6.47868e-05
5.80119e-05
5.17005e-05
4.16695e-05
3.1559e-05
2.59967e-05
2.80943e-05
4.58965e-05
5.42964e-05
5.17784e-06
7.58004e-06
4.48703e-05
0.000102204
5.59301e-05
3.29741e-05
3.04667e-05
3.98942e-05
5.55953e-05
7.0177e-05
8.21962e-05
9.6046e-05
0.000116052
0.000143467
0.0001756
0.000206617
0.000230017
0.000241479
0.000240199
0.000234766
0.00022866
0.000213788
0.000183046
0.000142879
0.000102707
7.02906e-05
5.01695e-05
4.19201e-05
3.97909e-05
3.59625e-05
2.95014e-05
2.57967e-05
2.98301e-05
5.07629e-05
4.53933e-05
5.29838e-06
7.47893e-06
4.43009e-05
0.000102845
6.38549e-05
3.60921e-05
2.92213e-05
3.50719e-05
4.94713e-05
6.5828e-05
7.9793e-05
9.37164e-05
0.000112262
0.000138085
0.0001701
0.000203417
0.000231017
0.000246265
0.000243143
0.000238163
0.0002324
0.000225988
0.00019872
0.000157379
0.000112199
7.27601e-05
4.55605e-05
3.20551e-05
2.8924e-05
2.9614e-05
2.80698e-05
2.65289e-05
3.21626e-05
5.54632e-05
3.94791e-05
5.2849e-06
7.33452e-06
4.22184e-05
0.000104586
8.07685e-05
4.52102e-05
2.94459e-05
2.84012e-05
3.77385e-05
5.42034e-05
7.21769e-05
8.88676e-05
0.000107098
0.000130802
0.000161034
0.000194772
0.000225715
0.000245833
0.000245824
0.000241596
0.000236531
0.000230713
0.000211823
0.000174526
0.00012945
8.55786e-05
5.10284e-05
3.02702e-05
2.20509e-05
2.20827e-05
2.48967e-05
2.73373e-05
3.50088e-05
5.91437e-05
3.5881e-05
5.20548e-06
7.18698e-06
4.03303e-05
0.000105684
0.000100893
6.72589e-05
3.80779e-05
2.69101e-05
2.79589e-05
3.82492e-05
5.54066e-05
7.49639e-05
9.48214e-05
0.000117397
0.000145454
0.000178355
0.000211218
0.000236833
0.000247648
0.000244444
0.000240379
0.000235484
0.000219945
0.000189079
0.000149829
0.000106893
6.68513e-05
3.74934e-05
2.17212e-05
1.67566e-05
1.87868e-05
2.47118e-05
3.57836e-05
6.02301e-05
3.33536e-05
5.14214e-06
7.05689e-06
3.86655e-05
0.00010699
0.000113496
9.26498e-05
5.82338e-05
3.38277e-05
2.51167e-05
2.71177e-05
3.80721e-05
5.65399e-05
7.85769e-05
0.000101906
0.000128246
0.000159286
0.000192843
0.000222827
0.000242445
0.000246199
0.000243231
0.000239409
0.000225054
0.000200006
0.000167952
0.000130456
9.01982e-05
5.38483e-05
2.89608e-05
1.68439e-05
1.41917e-05
1.84782e-05
3.0653e-05
5.61866e-05
3.13595e-05
5.15756e-06
6.98452e-06
3.72501e-05
0.000107776
0.000119382
0.000105756
8.19709e-05
5.20253e-05
3.15268e-05
2.42257e-05
2.67524e-05
3.82711e-05
5.80221e-05
8.25871e-05
0.000109419
0.000139315
0.000172666
0.000205833
0.000232154
0.00024603
0.000244738
0.000241998
0.000230108
0.000209532
0.000182764
0.000150805
0.000114305
7.60565e-05
4.32795e-05
2.26475e-05
1.38498e-05
1.37475e-05
2.25067e-05
4.73584e-05
3.01134e-05
5.2513e-06
6.92025e-06
3.51809e-05
0.000104245
0.000118145
0.000103972
8.5309e-05
6.72701e-05
4.63729e-05
3.0265e-05
2.43838e-05
2.78457e-05
4.06886e-05
6.24522e-05
8.98272e-05
0.000120165
0.000153503
0.000188724
0.000220448
0.000241059
0.000244987
0.000243224
0.000235637
0.000217982
0.000194152
0.00016575
0.000133168
9.69215e-05
6.07583e-05
3.26219e-05
1.71892e-05
1.24298e-05
1.69406e-05
3.81303e-05
2.98206e-05
5.35748e-06
6.909e-06
3.3329e-05
9.8607e-05
0.000115327
0.000100804
7.94869e-05
6.44498e-05
5.44496e-05
4.1372e-05
2.93259e-05
2.53569e-05
3.06628e-05
4.6086e-05
7.10941e-05
0.000102192
0.000136603
0.000173284
0.000208827
0.00023561
0.00024431
0.000243402
0.000240869
0.000224895
0.000202394
0.00017588
0.000145935
0.000112428
7.65543e-05
4.41507e-05
2.28421e-05
1.37389e-05
1.47646e-05
3.17488e-05
3.08462e-05
5.42847e-06
6.92029e-06
3.2393e-05
9.5516e-05
0.000115591
0.000102986
7.9072e-05
6.03245e-05
5.18898e-05
4.72584e-05
3.80165e-05
2.90755e-05
2.78104e-05
3.63808e-05
5.6015e-05
8.55553e-05
0.000121108
0.000159549
0.000198015
0.000229916
0.000243076
0.000242861
0.000241784
0.000229406
0.000207272
0.000181373
0.000152807
0.000121317
8.70776e-05
5.37229e-05
2.88544e-05
1.6378e-05
1.49522e-05
2.92014e-05
3.28683e-05
5.45719e-06
7.021e-06
3.29455e-05
9.7778e-05
0.000118961
0.000106853
8.15036e-05
5.94282e-05
4.87426e-05
4.61042e-05
4.33544e-05
3.55516e-05
2.99897e-05
3.29396e-05
4.68735e-05
7.26905e-05
0.000107899
0.000147843
0.00018806
0.000222601
0.000241613
0.000241917
0.000241365
0.000228989
0.000207406
0.000182299
0.000154787
0.000124713
9.21214e-05
5.95835e-05
3.36546e-05
1.93204e-05
1.64691e-05
2.95385e-05
3.49783e-05
5.43903e-06
7.16477e-06
3.46694e-05
0.000103844
0.000124431
0.000110563
8.35788e-05
6.02835e-05
4.84104e-05
4.53661e-05
4.52202e-05
4.11133e-05
3.45972e-05
3.36147e-05
4.27183e-05
6.39499e-05
9.64692e-05
0.000135679
0.000175619
0.000210057
0.000232891
0.000240878
0.000236702
0.000222927
0.000203259
0.00017987
0.000153696
0.000124907
9.37331e-05
6.24705e-05
3.68928e-05
2.20038e-05
1.86065e-05
3.16013e-05
3.66578e-05
5.40097e-06
7.35657e-06
3.73064e-05
0.000112689
0.000130063
0.000111332
8.14052e-05
5.86972e-05
4.78885e-05
4.55577e-05
4.67314e-05
4.52963e-05
3.97208e-05
3.66296e-05
4.21761e-05
5.94722e-05
8.88214e-05
0.000126115
0.000164425
0.000197087
0.000218986
0.000227901
0.000225034
0.000213408
0.000195875
0.000174326
0.00014971
0.000122362
9.27179e-05
6.30663e-05
3.86646e-05
2.41748e-05
2.09674e-05
3.47245e-05
3.72434e-05
5.36115e-06
7.51535e-06
3.9904e-05
0.00012059
0.00013352
0.000108797
7.67749e-05
5.60622e-05
4.72936e-05
4.6277e-05
4.86932e-05
4.90421e-05
4.47291e-05
4.07326e-05
4.36853e-05
5.74886e-05
8.32077e-05
0.000117478
0.000153245
0.000183641
0.000204221
0.000213397
0.000212095
0.00020259
0.000187163
0.000167435
0.000144357
0.000118404
9.02567e-05
6.232e-05
3.94548e-05
2.58672e-05
2.33212e-05
3.82957e-05
3.67719e-05
5.31777e-06
7.58793e-06
4.08276e-05
0.000123287
0.000131122
0.000100458
6.85028e-05
5.13689e-05
4.55522e-05
4.64593e-05
5.04967e-05
5.26899e-05
4.98085e-05
4.55742e-05
4.67085e-05
5.76964e-05
8.01817e-05
0.000111396
0.000144409
0.000172354
0.000191338
0.00020032
0.000200087
0.000192311
0.000178736
0.00016072
0.000139144
0.000114558
8.78216e-05
6.14489e-05
4.00091e-05
2.73676e-05
2.56319e-05
4.18792e-05
3.5824e-05
5.27492e-06
7.57413e-06
4.00658e-05
0.000120585
0.000124564
9.03779e-05
6.05457e-05
4.69584e-05
4.36869e-05
4.62378e-05
5.17649e-05
5.59474e-05
5.49199e-05
5.09751e-05
5.06981e-05
5.91539e-05
7.86184e-05
0.0001071
0.000137957
0.00016406
0.000181606
0.000189978
0.000190085
0.000183318
0.000171061
0.000154464
0.000134309
0.000111141
8.58795e-05
6.10024e-05
4.07988e-05
2.89745e-05
2.80418e-05
4.55083e-05
3.50474e-05
5.24772e-06
7.56159e-06
3.92738e-05
0.000118234
0.000117496
7.99894e-05
5.32345e-05
4.30085e-05
4.19323e-05
4.5909e-05
5.27988e-05
5.90177e-05
6.02857e-05
5.73444e-05
5.62418e-05
6.25773e-05
7.92568e-05
0.000105117
0.000134111
0.000158913
0.000175418
0.000183099
0.000182995
0.000176444
0.000164719
0.000148876
0.000129659
0.000107644
8.38181e-05
6.0556e-05
4.17431e-05
3.08705e-05
3.08933e-05
4.96284e-05
3.45632e-05
5.2348e-06
7.67869e-06
4.06681e-05
0.000121708
0.000110983
6.93773e-05
4.70055e-05
4.05631e-05
4.18286e-05
4.7163e-05
5.50045e-05
6.25308e-05
6.55922e-05
6.38791e-05
6.25576e-05
6.74001e-05
8.17136e-05
0.000104885
0.000131539
0.000154586
0.000169855
0.000176815
0.000176497
0.000170126
0.000158868
0.00014368
0.000125267
0.000104249
8.17053e-05
5.9974e-05
4.26044e-05
3.28522e-05
3.40186e-05
5.38925e-05
3.41475e-05
5.22787e-06
7.90742e-06
4.4808e-05
0.000129214
9.88062e-05
5.6661e-05
4.0859e-05
3.92048e-05
4.37822e-05
5.11232e-05
5.98303e-05
6.78017e-05
7.16918e-05
7.09378e-05
6.96903e-05
7.33311e-05
8.51847e-05
0.00010493
0.000128063
0.000148418
0.000162132
0.000168475
0.000168184
0.000162287
0.000151801
0.00013759
0.000120322
0.000100631
7.96096e-05
5.9485e-05
4.3534e-05
3.49157e-05
3.72761e-05
5.80459e-05
3.37818e-05
5.22845e-06
8.1317e-06
5.09769e-05
0.000131542
8.02262e-05
4.50233e-05
3.63441e-05
3.99897e-05
4.88398e-05
5.84926e-05
6.72318e-05
7.39449e-05
7.69821e-05
7.65139e-05
7.57073e-05
7.87124e-05
8.81769e-05
0.000103814
0.000122264
0.000139025
0.000151
0.000157094
0.000157365
0.000152403
0.000143017
0.000130014
0.000114103
9.6016e-05
7.68947e-05
5.87792e-05
4.45555e-05
3.72732e-05
4.09617e-05
6.24544e-05
3.36664e-05
5.23776e-06
8.18214e-06
5.56378e-05
0.000123479
6.47065e-05
3.74176e-05
3.36797e-05
4.18962e-05
5.52447e-05
6.72219e-05
7.56581e-05
8.07075e-05
8.23778e-05
8.15399e-05
8.06979e-05
8.28656e-05
8.98871e-05
0.000101434
0.000115219
0.000128365
0.000138648
0.000144705
0.000145842
0.000142059
0.000133882
0.000122053
0.000107354
9.06852e-05
7.33569e-05
5.73489e-05
4.51684e-05
3.96122e-05
4.48952e-05
6.67416e-05
3.34039e-05
5.24211e-06
8.07309e-06
5.61132e-05
0.000116925
6.00706e-05
3.48633e-05
3.20651e-05
4.20005e-05
5.83929e-05
7.27113e-05
8.15961e-05
8.59971e-05
8.71548e-05
8.63153e-05
8.54164e-05
8.66277e-05
9.12506e-05
9.90474e-05
0.000108617
0.000118357
0.0001269
0.000132893
0.000135028
0.000132625
0.000125797
0.000115169
0.000101582
8.60852e-05
7.01439e-05
5.57717e-05
4.53117e-05
4.13922e-05
4.81653e-05
6.97443e-05
3.27416e-05
5.23485e-06
7.90444e-06
5.33166e-05
0.000118161
6.57931e-05
3.56719e-05
2.96497e-05
3.74419e-05
5.48282e-05
7.33518e-05
8.59968e-05
9.21345e-05
9.37761e-05
9.29829e-05
9.17583e-05
9.18657e-05
9.424e-05
9.86662e-05
0.000104321
0.000110535
0.000116789
0.000122105
0.000124937
0.00012398
0.000118769
0.000109625
9.73378e-05
8.30375e-05
6.82753e-05
5.50704e-05
4.57274e-05
4.28993e-05
5.06865e-05
7.17743e-05
3.22839e-05
5.25426e-06
7.78448e-06