/*--------------------------------*- C++ -*----------------------------------*\
| =========                 |                                                 |
| \\      /  F ield         | OpenFOAM: The Open Source CFD Toolbox           |
|  \\    /   O peration     | Version:  v2006                                 |
|   \\  /    A nd           | Website:  www.openfoam.com                      |
|    \\/     M anipulation  |                                                 |
\*---------------------------------------------------------------------------*/
FoamFile
{
    version     2.0;
    format      ascii;
    class       volScalarField;
    location    "55";
    object      T;
}
// * * * * * * * * * * * * * * * * * * * * * * * * * * * * * * * * * * * * * //

dimensions      [0 0 0 1 0 0 0];


internalField   nonuniform List<scalar> 
78750
(
287.859
287.288
286.645
285.058
282.906
282.048
280.522
279.302
277.971
276.67
275.339
273.994
272.626
271.226
269.791
268.31
266.774
265.171
263.485
261.699
259.79
257.734
255.499
253.052
250.356
247.371
244.06
240.397
236.378
232.052
227.62
223.689
221.714
226.213
288.49
307.676
310.599
315.416
317.986
318.646
318.477
318.054
317.496
316.874
316.147
315.319
314.398
313.392
312.308
311.148
309.912
308.597
307.196
305.696
304.081
302.328
300.41
298.288
295.918
293.244
290.209
286.772
282.94
278.809
274.539
270.303
266.347
263.341
265.878
327.153
292.282
293.873
295.325
297.001
298.806
300.491
301.961
303.245
304.327
305.225
305.926
306.427
306.745
306.899
306.907
306.783
306.544
306.201
305.762
305.232
304.611
303.893
303.068
302.111
300.983
299.619
297.912
295.712
292.885
289.395
285.4
281.306
278.148
282.204
348.414
305.856
312.19
314.741
315.804
316.364
316.776
317.142
317.459
317.719
317.913
318.036
318.09
318.078
318.003
317.866
317.669
317.403
317.071
316.672
316.209
315.683
315.101
314.465
313.776
313.032
312.228
311.332
310.2
308.528
305.917
302.009
296.967
292.662
298.958
366.227
300.015
301.078
302.458
303.808
305.104
306.325
307.445
308.454
309.353
310.148
310.846
311.457
311.989
312.449
312.846
313.185
313.475
313.719
313.923
314.09
314.224
314.328
314.405
314.456
314.483
314.485
314.456
314.378
314.186
313.663
312.406
310.588
311.451
325.274
390.575
307.461
314.659
317.412
318.786
319.638
320.18
320.493
320.632
320.641
320.557
320.411
320.226
320.02
319.803
319.587
319.375
319.174
318.986
318.816
318.668
318.547
318.461
318.416
318.42
318.478
318.594
318.765
318.999
319.323
319.765
320.334
321.079
324.684
341.676
405.045
304.362
307.792
309.533
310.773
311.847
312.818
313.688
314.453
315.113
315.67
316.131
316.504
316.801
317.031
317.207
317.339
317.44
317.523
317.6
317.686
317.796
317.948
318.16
318.447
318.828
319.318
319.945
320.766
321.908
323.653
326.564
331.632
341.158
362.43
421.749
305.844
310.964
313.073
314.327
315.285
316.065
316.707
317.236
317.668
318.018
318.296
318.513
318.677
318.797
318.88
318.932
318.959
318.968
318.968
318.969
318.984
319.029
319.125
319.299
319.584
320.022
320.667
321.608
323.014
325.261
329.172
336.406
349.872
374.871
433.045
305.513
311.178
313.603
314.97
315.907
316.569
317.029
317.338
317.537
317.656
317.721
317.75
317.759
317.759
317.761
317.773
317.804
317.861
317.951
318.081
318.258
318.491
318.792
319.179
319.677
320.326
321.187
322.362
324.051
326.736
331.632
341.303
359.279
388.038
442.747
307.494
314.064
316.522
317.835
318.708
319.296
319.664
319.858
319.909
319.846
319.696
319.482
319.226
318.949
318.67
318.406
318.177
317.998
317.886
317.858
317.93
318.116
318.426
318.868
319.454
320.21
321.194
322.525
324.42
327.256
331.779
339.923
356.434
387.404
445.3
305.676
310.506
312.608
313.903
314.89
315.675
316.291
316.758
317.094
317.313
317.43
317.457
317.41
317.303
317.154
316.979
316.798
316.631
316.499
316.425
316.43
316.541
316.781
317.179
317.766
318.581
319.677
321.143
323.156
326.127
330.97
339.606
355.909
386.218
445.154
306.042
310.286
311.982
313.011
313.78
314.374
314.823
315.153
315.386
315.538
315.626
315.66
315.651
315.609
315.543
315.463
315.382
315.312
315.271
315.276
315.351
315.519
315.808
316.249
316.876
317.731
318.867
320.365
322.373
325.193
329.515
336.966
351.177
378.551
437.725
303.691
307.228
308.955
310.043
310.834
311.435
311.899
312.26
312.542
312.759
312.92
313.033
313.102
313.133
313.135
313.115
313.085
313.058
313.051
313.084
313.182
313.375
313.696
314.188
314.902
315.901
317.27
319.134
321.711
325.413
331.068
340.295
356.029
382.545
437.265
304.908
309.113
310.651
311.469
312.047
312.498
312.864
313.164
313.408
313.6
313.742
313.833
313.873
313.863
313.807
313.71
313.583
313.437
313.289
313.155
313.058
313.023
313.08
313.267
313.632
314.234
315.155
316.511
318.496
321.484
326.267
334.553
349.549
375.427
430.825
303.456
305.324
306.107
306.66
307.151
307.616
308.064
308.497
308.914
309.312
309.686
310.034
310.35
310.628
310.865
311.058
311.21
311.329
311.426
311.518
311.63
311.79
312.029
312.378
312.877
313.594
314.631
316.143
318.387
321.829
327.368
336.702
352.488
377.103
427.86
303.196
305.201
306.028
306.591
307.075
307.515
307.926
308.311
308.672
309.007
309.315
309.595
309.844
310.063
310.252
310.413
310.55
310.665
310.762
310.854
310.954
311.084
311.271
311.544
311.933
312.488
313.306
314.534
316.415
319.393
324.377
333.189
348.541
371.496
419.451
301.896
302.898
303.424
303.8
304.129
304.459
304.811
305.188
305.586
305.998
306.412
306.819
307.212
307.583
307.927
308.243
308.531
308.794
309.038
309.271
309.506
309.761
310.06
310.432
310.929
311.633
312.688
314.322
316.905
321.04
327.749
338.663
355.483
376.373
416.993
301.002
301.689
301.986
302.113
302.203
302.332
302.531
302.807
303.155
303.559
304
304.462
304.929
305.389
305.832
306.253
306.645
307.008
307.34
307.643
307.924
308.194
308.47
308.781
309.174
309.728
310.583
311.994
314.429
318.768
326.6
340.088
359.706
379.652
415.14
299.164
298.589
298.216
297.858
297.555
297.366
297.329
297.462
297.765
298.218
298.787
299.438
300.14
300.873
301.618
302.362
303.095
303.806
304.49
305.14
305.755
306.335
306.888
307.428
307.982
308.599
309.356
310.389
311.958
314.667
320.147
332.122
353.31
372.929
405.807
296.619
294.468
293.314
292.478
291.827
291.357
291.085
291.038
291.226
291.626
292.198
292.897
293.687
294.545
295.454
296.405
297.39
298.403
299.438
300.488
301.542
302.591
303.627
304.652
305.686
306.787
308.073
309.785
312.373
316.593
323.516
334.913
352.388
369.851
401.711
297.48
296.069
294.979
293.956
292.9
291.844
290.876
290.103
289.606
289.4
289.445
289.681
290.059
290.549
291.132
291.803
292.561
293.412
294.364
295.425
296.597
297.874
299.235
300.649
302.077
303.491
304.904
306.429
308.461
312.175
320.367
336.355
358.432
376.784
407.669
302.545
303.779
303.16
301.946
300.291
298.337
296.261
294.284
292.617
291.366
290.51
289.979
289.696
289.602
289.656
289.832
290.117
290.508
291.016
291.66
292.474
293.501
294.787
296.362
298.235
300.392
302.809
305.395
307.847
309.817
313.018
325.083
348.897
366.638
394.288
311.761
316.661
316.496
315.092
312.925
310.229
307.195
304.024
300.941
298.146
295.754
293.792
292.244
291.068
290.222
289.662
289.349
289.249
289.335
289.585
289.992
290.567
291.351
292.425
293.927
296.079
299.252
304.109
311.802
323.439
337.94
352.637
365.972
379.453
408.951
320.413
331.551
333.293
333.373
332.65
331.209
329.041
326.138
322.554
318.466
314.138
309.847
305.808
302.164
298.99
296.314
294.132
292.426
291.171
290.345
289.924
289.884
290.186
290.762
291.485
292.212
292.943
294.063
296.725
303.541
318.22
340.539
362.288
378.23
406.772
319.258
333.032
338.009
341.315
344.111
346.454
348.194
349.125
349.014
347.649
344.931
340.947
335.977
330.427
324.714
319.163
313.973
309.237
304.986
301.238
298.039
295.514
293.866
293.312
293.984
295.825
298.492
301.495
304.504
307.913
313.833
327.063
348.332
367.239
399.244
313.558
324.197
330.371
334.608
338.098
341.35
344.592
347.941
351.406
354.852
357.949
360.165
360.875
359.601
356.292
351.37
345.463
339.125
332.696
326.224
319.551
312.631
305.859
299.975
295.571
292.983
292.458
294.214
298.582
306.569
320.484
341.655
362.25
379.014
408.847
310.377
320.888
327.264
331.101
333.812
335.944
337.711
339.298
340.928
342.864
345.385
348.701
352.79
357.161
360.796
362.613
362.134
359.591
355.621
350.902
345.538
338.921
330.71
322.28
314.756
308.019
302.904
300.555
302.784
311.354
326.034
342.839
356.634
371.482
404.409
311.101
326.368
334.513
339.073
342.235
344.613
346.292
347.301
347.693
347.59
347.219
346.926
347.144
348.296
350.529
353.404
356.102
358.086
359.302
359.926
360.033
358.129
349.948
340.552
338.288
338.09
337.851
338.053
339.809
344.291
351.623
360.334
369.927
385.455
427.957
319.062
335.196
341.339
344.991
347.996
350.553
352.749
354.6
356.026
356.872
356.978
356.269
354.826
352.904
350.927
349.42
348.906
349.896
353.034
359.697
373.328
391.642
372.147
321.704
322.401
330.571
335.286
341.59
349.13
357.353
366.366
376.473
388.291
405.44
444.481
318.866
329.062
332.952
335.593
337.988
340.361
342.821
345.426
348.186
351.059
353.934
356.608
358.79
360.128
360.267
358.948
356.158
352.268
347.89
343.451
338.893
333.771
328.456
321.095
314.81
314.318
316.35
319.085
322.888
328.401
335.949
345.932
359.347
378.184
420.201
309.365
323.285
330.578
334.708
337.641
339.938
341.703
342.951
343.727
344.186
344.609
345.356
346.804
349.339
353.35
358.992
365.49
370.78
372.856
371.494
368.04
363.807
358.584
350.262
341.298
334.485
329.382
325.677
323.559
323.13
324.419
327.874
334.826
348.686
390.637
317.725
334.627
341.154
345.01
348.319
351.332
354.03
356.295
357.937
358.747
358.599
357.528
355.73
353.513
351.259
349.39
348.31
348.268
349.204
350.747
352.431
353.857
354.183
350.439
344.147
339.227
334.42
328.47
323.105
321.325
322.772
326.561
333.254
345.445
383.198
314.322
326.23
331.803
335.21
337.972
340.586
343.268
346.111
349.106
352.189
355.269
358.232
360.958
363.33
365.231
366.548
367.216
367.257
366.753
365.784
364.433
362.861
361.288
359.723
357.545
351.393
342.768
334.802
327.453
321.892
321.138
325.583
333.343
345.58
379.65
314.877
330.877
337.667
341.511
344.601
347.44
350.046
352.17
353.489
353.897
353.579
352.886
352.179
351.716
351.613
351.879
352.488
353.433
354.722
356.267
357.776
358.888
359.41
359.371
358.775
356.385
345.623
335.443
328.163
322.324
318.589
318.521
323.066
334.546
374.15
318.004
332.675
338.655
342.461
345.981
349.707
353.784
357.948
361.693
364.643
366.695
367.921
368.434
368.367
367.869
367.094
366.168
365.177
364.196
363.325
362.669
362.24
361.915
361.547
361.026
360.181
357.664
351.406
337.721
320.543
311.184
309.71
314.332
329.398
388.341
315.91
330.093
335.676
338.897
341.637
344.379
347.16
349.657
351.601
353.065
354.266
355.357
356.39
357.36
358.246
359.029
359.699
360.26
360.725
361.111
361.434
361.705
361.923
362.057
362.079
361.942
361.453
359.744
354.147
340.165
321.424
315.753
337.615
377.468
439.04
318.117
333.82
340.291
344.446
348.441
352.83
357.555
361.889
365.049
366.829
367.534
367.579
367.269
366.783
366.217
365.622
365.027
364.451
363.913
363.432
363.029
362.719
362.516
362.425
362.439
362.537
362.666
362.667
362.01
358.756
352.255
345.577
352.12
377.048
446.425
316.346
330.274
335.757
339.008
341.889
344.94
348.336
351.826
354.977
357.539
359.497
360.951
362.017
362.786
363.318
363.651
363.814
363.832
363.733
363.545
363.299
363.023
362.742
362.48
362.263
362.122
362.08
362.148
362.275
362.206
361.675
360.594
363.256
358.509
422.252
317.701
333.411
339.9
343.958
347.706
351.668
355.855
359.761
362.752
364.606
365.551
365.938
366.023
365.942
365.761
365.508
365.201
364.856
364.488
364.109
363.724
363.333
362.936
362.531
362.118
361.695
361.262
360.822
360.383
359.957
359.508
358.687
354.807
348.216
410.254
316.683
331.256
337.204
340.806
344.015
347.378
351.096
355.02
358.664
361.532
363.472
364.65
365.305
365.613
365.679
365.563
365.311
364.97
364.584
364.178
363.758
363.32
362.865
362.4
361.93
361.448
360.919
360.254
359.265
357.671
355.185
352.361
353.184
364.6
414.91
317.546
333.437
339.924
343.892
347.463
351.111
354.823
358.332
361.373
363.709
365.251
366.132
366.555
366.676
366.578
366.307
365.906
365.44
364.946
364.43
363.903
363.387
362.901
362.468
362.11
361.847
361.67
361.64
361.785
361.867
362.262
365.23
374.341
389.075
423.142
317.066
332.589
339.071
343.073
346.723
350.488
354.246
357.729
360.809
363.332
365.148
366.285
366.906
367.171
367.179
366.982
366.613
366.121
365.565
364.97
364.354
363.749
363.191
362.718
362.375
362.194
362.317
363.157
365.27
368.758
373.437
380.181
390.414
404.574
435.723
317.931
334.229
340.853
345.003
348.966
353.128
357.018
360.201
362.714
364.682
366.115
367.041
367.568
367.808
367.836
367.687
367.378
366.931
366.382
365.772
365.126
364.466
363.832
363.261
362.786
362.463
362.433
363.017
364.913
369.119
376.187
385.721
396.866
410.668
440.782
318.02
334.205
340.921
345.289
349.681
354.32
358.376
361.455
363.77
365.556
366.864
367.719
368.211
368.447
368.501
368.408
368.182
367.83
367.366
366.81
366.189
365.526
364.848
364.19
363.594
363.122
362.867
363.022
364.048
366.95
373.237
383.762
397.067
412.16
442.599
318.533
335.101
341.95
346.599
351.593
356.776
360.851
363.566
365.39
366.727
367.727
368.413
368.828
369.041
369.107
369.057
368.905
368.653
368.303
367.858
367.326
366.715
366.043
365.349
364.69
364.136
363.774
363.744
364.37
366.432
371.552
381.748
396.684
413.409
444.991
319.072
335.734
342.762
347.854
353.68
359.339
363.253
365.581
367.011
367.985
368.687
369.171
369.472
369.633
369.689
369.663
369.564
369.393
369.147
368.824
368.415
367.914
367.319
366.651
365.97
365.375
364.976
364.922
365.511
367.452
372.287
382.326
397.907
415.714
448.3
319.77
336.637
343.87
349.432
356.084
361.982
365.542
367.42
368.486
369.177
369.655
369.974
370.168
370.267
370.297
370.273
370.2
370.081
369.91
369.683
369.39
369.016
368.544
367.969
367.333
366.757
366.409
366.481
367.304
369.626
374.926
385.255
400.673
418.967
452.371
320.441
337.379
344.839
350.824
358.064
364.065
367.318
368.835
369.616
370.097
370.426
370.646
370.779
370.846
370.865
370.846
370.795
370.712
370.594
370.44
370.244
369.993
369.668
369.252
368.758
368.294
368.081
368.373
369.549
372.408
378.398
389.125
403.954
422.321
456.437
321.271
338.256
345.686
351.714
359.053
365.333
368.748
370.216
370.846
371.148
371.312
371.407
371.456
371.471
371.462
371.434
371.387
371.321
371.233
371.124
370.995
370.838
370.642
370.396
370.113
369.89
369.973
370.673
372.357
375.813
382.432
393.392
407.39
425.424
459.933
321.583
338.493
345.626
351.165
357.846
364.45
368.715
370.727
371.571
371.917
372.052
372.095
372.096
372.076
372.045
372.006
371.959
371.901
371.832
371.752
371.665
371.57
371.467
371.356
371.267
371.303
371.735
372.956
375.294
379.333
386.304
397.16
410.294
427.763
462.333
321.527
338.373
345.146
349.938
355.431
361.894
367.416
370.633
372.093
372.665
372.844
372.857
372.807
372.739
372.67
372.605
372.542
372.478
372.41
372.341
372.274
372.211
372.156
372.122
372.146
372.339
372.983
374.589
377.633
382.406
389.634
400.076
412.36
429.229
463.756
321.141
337.914
344.516
348.736
352.978
358.196
364.153
368.946
371.706
372.966
373.44
373.554
373.514
373.422
373.32
373.226
373.14
373.062
372.987
372.915
372.85
372.796
372.758
372.75
372.806
373.018
373.631
375.185
378.466
383.964
391.774
402.007
413.614
429.969
464.487
320.667
337.41
344.041
348.105
351.738
355.668
360.592
366.006
370.254
372.693
373.793
374.177
374.23
374.145
374.018
373.89
373.775
373.673
373.582
373.499
373.427
373.369
373.329
373.319
373.365
373.531
373.985
375.156
377.922
383.352
391.768
402.47
414.023
430.207
464.712
320.075
336.585
343.251
347.377
350.998
354.531
358.341
362.924
367.738
371.447
373.567
374.51
374.818
374.832
374.724
374.58
374.44
374.315
374.205
374.108
374.024
373.957
373.911
373.893
373.924
374.046
374.364
375.159
377.132
381.605
389.812
401.26
413.555
430.205
464.658
319.341
335.344
341.93
346.079
349.866
353.679
357.478
361.321
365.53
369.681
372.768
374.481
375.212
375.421
375.39
375.263
375.113
374.97
374.843
374.732
374.637
374.561
374.507
374.484
374.507
374.606
374.855
375.438
376.849
380.275
387.561
399.341
412.763
430.257
464.508
318.389
333.824
340.358
344.46
348.225
352.238
356.497
360.598
364.411
368.21
371.684
374.112
375.382
375.881
375.984
375.912
375.774
375.626
375.488
375.365
375.259
375.175
375.116
375.089
375.107
375.197
375.415
375.896
377.001
379.686
385.909
397.414
411.88
430.181
464.112
317.477
332.849
339.606
343.769
347.447
351.344
355.715
360.196
364.188
367.672
370.927
373.655
375.391
376.217
376.491
376.499
376.395
376.256
376.117
375.991
375.881
375.793
375.732
375.707
375.73
375.827
376.049
376.509
377.497
379.805
385.261
396.2
411.279
430.069
463.648
317.079
332.971
340.097
344.426
348.132
351.916
356.113
360.574
364.672
368.07
370.975
373.546
375.461
376.525
376.954
377.041
376.976
376.854
376.72
376.595
376.484
376.396
376.337
376.316
376.351
376.468
376.719
377.213
378.221
380.447
385.569
396.042
411.23
430.12
463.367
317.249
333.942
341.401
345.907
349.74
353.579
357.686
361.922
365.82
369.043
371.663
373.911
375.732
376.884
377.413
377.562
377.53
377.425
377.299
377.176
377.066
376.978
376.92
376.905
376.949
377.085
377.366
377.908
378.977
381.252
386.304
396.498
411.489
430.244
463.264
318.041
335.483
343.02
347.578
351.542
355.575
359.824
363.965
367.573
370.473
372.77
374.676
376.257
377.35
377.903
378.082
378.071
377.979
377.861
377.741
377.634
377.549
377.496
377.49
377.552
377.716
378.043
378.655
379.832
382.25
387.404
397.468
412.078
430.59
463.523
319.206
336.982
344.345
348.846
352.92
357.222
361.752
365.962
369.398
372.011
374.002
375.606
376.929
377.893
378.419
378.603
378.601
378.516
378.401
378.284
378.179
378.096
378.05
378.055
378.138
378.336
378.719
379.423
380.748
383.383
388.757
398.797
412.937
431.129
464.04
320.199
337.78
344.846
349.256
353.465
358.135
363.079
367.519
370.964
373.437
375.215
376.578
377.674
378.489
378.957
379.129
379.126
379.042
378.929
378.811
378.705
378.624
378.581
378.595
378.694
378.922
379.355
380.147
381.619
384.481
390.108
400.167
413.838
431.667
464.561
320.432
337.622
344.59
349.046
353.465
358.507
363.781
368.414
371.966
374.468
376.195
377.442
378.392
379.085
379.495
379.65
379.644
379.561
379.448
379.33
379.224
379.144
379.104
379.126
379.239
379.49
379.964
380.825
382.412
385.447
391.258
401.295
414.517
431.977
464.88
320
337.204
344.434
349.155
353.948
359.38
364.756
369.29
372.768
375.258
376.976
378.181
379.055
379.671
380.032
380.168
380.157
380.071
379.957
379.839
379.735
379.658
379.625
379.658
379.79
380.073
380.596
381.535
383.242
386.44
392.392
402.34
415.084
432.149
465.085
319.84
337.672
345.347
350.495
355.894
361.766
366.926
370.906
373.914
376.139
377.729
378.86
379.673
380.234
380.559
380.68
380.662
380.574
380.458
380.339
380.234
380.159
380.132
380.177
380.328
380.643
381.218
382.239
384.071
387.431
393.501
403.306
415.557
432.223
465.226
320.771
339.418
347.384
353.017
359.322
365.704
370.412
373.518
375.73
377.414
378.687
379.634
380.331
380.813
381.091
381.19
381.165
381.073
380.956
380.836
380.731
380.658
380.635
380.689
380.857
381.201
381.825
382.923
384.87
388.37
394.518
404.13
415.891
432.164
465.266
322.779
341.71
349.722
355.867
363.28
370.032
374.125
376.337
377.758
378.856
379.75
380.465
381.017
381.406
381.63
381.703
381.669
381.573
381.453
381.333
381.229
381.16
381.145
381.211
381.398
381.772
382.444
383.619
385.679
389.306
395.499
404.879
416.161
432.055
465.28
324.793
343.428
351.414
358.011
366.313
373.262
376.928
378.604
379.54
380.23
380.811
381.307
381.71
382.005
382.175
382.226
382.183
382.083
381.958
381.834
381.73
381.665
381.66
381.743
381.957
382.373
383.108
384.377
386.566
390.333
396.565
405.7
416.536
432.106
465.474
325.733
344.071
351.944
358.597
367.094
374.384
378.249
379.932
380.763
381.299
381.72
382.077
382.373
382.594
382.724
382.76
382.714
382.613
382.482
382.35
382.238
382.168
382.165
382.259
382.498
382.957
383.763
385.138
387.469
391.381
397.647
406.542
416.981
432.263
465.736
325.585
343.897
351.493
357.662
365.642
373.539
378.35
380.55
381.561
382.114
382.486
382.773
383.001
383.172
383.275
383.303
383.262
383.165
383.033
382.892
382.766
382.681
382.663
382.748
382.985
383.454
384.293
385.732
388.159
392.17
398.444
407.129
417.238
432.246
465.778
325.094
343.53
350.94
356.532
363.565
371.623
377.555
380.591
381.986
382.687
383.1
383.38
383.586
383.733
383.822
383.849
383.816
383.73
383.604
383.461
383.326
383.228
383.195
383.262
383.48
383.93
384.753
386.187
388.63
392.664
398.91
407.421
417.284
432.098
465.759
324.824
343.516
351.016
356.379
362.711
370.266
376.719
380.479
382.276
383.144
383.618
383.914
384.117
384.258
384.346
384.38
384.361
384.291
384.179
384.04
383.901
383.796
383.76
383.828
384.053
384.513
385.347
386.791
389.243
393.275
399.464
407.801
417.46
432.161
465.973
324.998
343.996
351.709
357.167
363.363
370.389
376.606
380.605
382.638
383.617
384.131
384.436
384.634
384.768
384.852
384.892
384.887
384.838
384.746
384.619
384.478
384.36
384.309
384.371
384.605
385.096
385.983
387.498
390.017
394.078
400.201
408.338
417.779
432.337
466.182
325.616
344.812
352.747
358.506
365.039
371.982
377.671
381.325
383.244
384.185
384.679
384.968
385.152
385.275
385.353
385.394
385.399
385.37
385.306
385.207
385.082
384.96
384.886
384.919
385.124
385.597
386.491
388.048
390.637
394.747
400.819
408.765
417.996
432.397
466.255
326.617
345.775
353.812
359.854
366.762
373.882
379.335
382.531
384.123
384.894
385.298
385.535
385.686
385.786
385.849
385.883
385.891
385.877
385.838
385.777
385.696
385.613
385.564
385.604
385.804
386.256
387.12
388.654
391.248
395.378
401.412
409.205
418.28
432.635
466.648
327.297
346.218
354.123
360.076
366.746
373.821
379.697
383.232
384.888
385.617
385.964
386.152
386.262
386.328
386.365
386.38
386.379
386.363
386.337
386.302
386.264
386.24
386.264
386.393
386.697
387.26
388.217
389.809
392.425
396.548
402.511
410.14
419.095
433.486
467.578
327.058
345.722
353.26
358.608
364.222
370.486
376.83
381.797
384.64
385.945
386.497
386.735
386.843
386.89
386.903
386.896
386.875
386.845
386.811
386.778
386.753
386.757
386.826
387.03
387.464
388.233
389.454
391.303
394.094
398.253
404.095
411.486
420.264
434.57
468.377
325.977
344.573
351.91
356.764
361.393
366.277
371.715
377.36
382.032
384.982
386.46
387.096
387.351
387.443
387.46
387.44
387.4
387.348
387.293
387.24
387.196
387.18
387.225
387.4
387.818
388.634
390.016
392.13
395.184
399.466
405.209
412.34
420.849
434.853
468.29
325.092
343.95
351.534
356.517
361.15
365.504
369.495
373.535
377.933
382.062
385.065
386.748
387.523
387.842
387.955
387.971
387.938
387.878
387.805
387.729
387.658
387.604
387.592
387.675
387.951
388.586
389.807
391.857
394.958
399.31
405.048
412.089
420.455
434.255
467.673
325.212
344.368
352.231
357.572
362.892
368.062
372.149
374.983
377.342
380.064
383.101
385.636
387.186
387.944
388.273
388.398
388.421
388.387
388.322
388.24
388.155
388.076
388.024
388.035
388.183
388.607
389.535
391.272
394.141
398.399
404.165
411.307
419.76
433.668
467.376
325.937
344.986
352.835
358.337
364.175
370.339
375.486
378.759
380.564
381.76
383.177
385.072
386.81
387.908
388.46
388.711
388.811
388.828
388.795
388.732
388.654
388.576
388.518
388.509
388.608
388.924
389.656
391.115
393.698
397.786
403.576
410.894
419.552
433.754
467.726
326.144
344.791
352.52
358.164
364.472
371.328
377.244
381.231
383.471
384.627
385.289
386.047
387.132
388.11
388.71
389.016
389.161
389.217
389.218
389.184
389.129
389.074
389.042
389.066
389.205
389.554
390.289
391.695
394.182
398.192
403.976
411.326
420.055
434.432
468.406
325.478
343.745
351.316
357.007
363.669
371.06
377.485
381.983
384.735
386.302
387.144
387.607
388.088
388.667
389.121
389.388
389.529
389.596
389.615
389.602
389.572
389.545
389.55
389.63
389.85
390.309
391.163
392.674
395.222
399.24
404.974
412.2
420.818
435.132
468.909
324.344
342.392
349.804
355.313
361.844
369.426
376.381
381.494
384.804
386.848
388.067
388.727
389.084
389.386
389.651
389.83
389.935
389.99
390.011
390.008
389.994
389.989
390.026
390.16
390.467
391.057
392.081
393.768
396.446
400.499
406.134
413.145
421.559
435.682
469.193
323.349
341.341
348.736
354.046
360.148
367.406
374.574
380.291
384.215
386.75
388.36
389.317
389.805
390.049
390.203
390.306
390.368
390.401
390.414
390.41
390.401
390.403
390.452
390.603
390.943
391.599
392.733
394.556
397.348
401.427
406.966
413.795
422.012
435.876
469.142
322.772
341.066
348.771
354.238
360.287
367.071
373.718
379.385
383.585
386.448
388.354
389.578
390.266
390.585
390.722
390.785
390.816
390.828
390.827
390.816
390.802
390.8
390.84
390.976
391.294
391.925
393.044
394.863
397.642
401.667
407.107
413.836
421.97
435.719
468.898
323.038
341.989
350.283
356.354
363.051
369.674
375.29
379.977
383.696
386.425
388.358
389.697
390.54
390.981
391.169
391.242
391.267
391.272
391.266
391.252
391.236
391.229
391.257
391.367
391.639
392.206
393.251
395.007
397.733
401.693
407.045
413.694
421.751
435.365
468.496
324.608
344.221
353.178
360.202
368.116
374.854
379.368
382.573
385.132
387.172
388.753
389.951
390.793
391.293
391.532
391.629
391.664
391.671
391.665
391.65
391.631
391.618
391.628
391.699
391.896
392.332
393.186
394.703
397.184
400.941
406.175
412.808
420.877
434.502
467.92
327.416
347.306
356.892
365.065
374.158
380.75
384.207
386.093
387.459
388.62
389.628
390.489
391.181
391.661
391.931
392.058
392.112
392.135
392.144
392.145
392.145
392.153
392.185
392.275
392.484
392.916
393.736
395.182
397.563
401.219
406.377
412.966
421.038
434.728
468.189
330.606
350.489
360.509
369.585
379.133
385.286
387.976
389.084
389.711
390.224
390.712
391.178
391.597
391.935
392.167
392.307
392.385
392.431
392.46
392.481
392.502
392.53
392.581
392.682
392.887
393.293
394.059
395.424
397.704
401.248
406.296
412.783
420.735
434.265
467.873
333.023
352.939
362.747
371.691
381.083
387.419
390.21
391.217
391.607
391.821
392.006
392.204
392.408
392.59
392.72
392.797
392.841
392.872
392.9
392.931
392.973
393.034
393.131
393.29
393.561
394.031
394.849
396.24
398.513
402.015
406.989
413.402
421.388
435.11
468.723
334.001
353.991
363.063
370.801
379.507
386.698
390.577
392.101
392.628
392.803
392.866
392.907
392.956
393.017
393.085
393.148
393.202
393.249
393.296
393.35
393.421
393.523
393.677
393.918
394.3
394.915
395.901
397.459
399.859
403.409
408.331
414.623
422.508
436.135
469.392
335.6
355.673
364.529
371.679
379.359
386.283
390.805
392.8
393.476
393.657
393.67
393.632
393.588
393.556
393.541
393.544
393.56
393.586
393.622
393.672
393.743
393.848
394.009
394.262
394.669
395.328
396.384
398.032
400.513
404.086
408.936
415.091
422.849
436.342
469.423
338.35
358.42
367.332
374.447
381.191
386.805
390.947
393.024
393.694
393.844
393.854
393.835
393.82
393.817
393.827
393.851
393.886
393.933
393.993
394.072
394.176
394.32
394.525
394.828
395.288
396.004
397.119
398.826
401.354
404.938
409.752
415.865
423.696
437.408
470.293
341.134
361.033
370.335
377.732
383.342
387.083
390.273
392.733
393.918
394.259
394.287
394.241
394.198
394.178
394.183
394.21
394.254
394.317
394.399
394.508
394.654
394.853
395.131
395.528
396.106
396.961
398.228
400.083
402.731
406.38
411.187
417.24
425.033
438.697
471.019
344.221
363.941
374.769
384.555
390.014
391.814
392.643
393.609
394.452
394.827
394.851
394.763
394.68
394.632
394.619
394.638
394.684
394.756
394.854
394.981
395.149
395.373
395.68
396.112
396.733
397.638
398.959
400.866
403.548
407.191
411.929
417.857
425.506
438.964
471.06
342.88
363.348
375.801
387.988
393.952
395.683
396.04
396.077
396.047
395.919
395.686
395.443
395.266
395.162
395.117
395.122
395.171
395.262
395.394
395.571
395.801
396.097
396.485
397.001
397.705
398.682
400.054
401.98
404.641
408.216
412.845
418.646
426.201
439.583
471.517
334.509
354.288
366.798
380.011
389.415
394.291
396.53
397.388
397.564
397.393
397.015
396.545
396.133
395.864
395.72
395.662
395.671
395.74
395.87
396.065
396.336
396.701
397.185
397.826
398.677
399.815
401.343
403.395
406.129
409.703
414.25
419.904
427.25
440.266
471.661
323.291
340.261
349.64
359.307
371.434
382.264
390.211
395.137
397.61
398.508
398.553
398.147
397.523
396.918
396.51
396.305
396.234
396.255
396.35
396.517
396.761
397.095
397.547
398.158
398.985
400.107
401.621
403.653
406.347
409.851
414.301
419.84
426.997
439.646
470.962
318.557
335.89
343.447
348.547
354.992
363.97
374.034
383.658
391.381
396.269
398.623
399.399
399.306
398.707
397.897
397.207
396.82
396.683
396.705
396.847
397.098
397.459
397.938
398.558
399.363
400.419
401.825
403.71
406.234
409.572
413.894
419.377
426.523
439.19
470.789
324.738
347.358
356.589
361.32
364.071
366.153
369.349
374.637
381.776
389.251
394.991
398.238
399.655
400.026
399.749
399.041
398.195
397.562
397.266
397.224
397.361
397.656
398.119
398.772
399.648
400.8
402.3
404.26
406.826
410.177
414.499
419.98
427.107
439.688
470.973
335.478
359.447
369.218
375.373
379.791
382.057
382.434
381.984
382.734
386.181
391.342
395.891
398.677
400.011
400.486
400.41
399.899
399.116
398.383
397.966
397.868
398.001
398.323
398.843
399.598
400.649
402.08
404.001
406.547
409.881
414.176
419.621
426.671
439.039
470.133
337.79
359.23
368.649
375.99
383.104
388.303
390.914
391.545
390.844
390.051
391.372
394.604
397.714
399.671
400.653
401.031
400.985
400.561
399.833
399.063
398.573
398.453
398.62
399.011
399.623
400.488
401.685
403.332
405.594
408.67
412.783
418.164
425.25
437.749
469.362
332.694
353.813
364.169
372.897
382.007
389.044
393.144
395.018
395.586
395.276
394.522
395.027
397.097
399.224
400.599
401.309
401.582
401.511
401.097
400.368
399.55
398.995
398.872
399.126
399.691
400.553
401.744
403.352
405.534
408.518
412.579
417.99
425.185
437.923
469.8
329.478
350.946
362.9
373.602
383.856
390.853
394.84
396.821
397.674
397.92
397.735
397.212
397.385
398.747
400.274
401.307
401.862
402.076
402
401.612
400.92
400.11
399.527
399.397
399.73
400.496
401.71
403.432
405.777
408.932
413.138
418.637
425.849
438.517
470.034
328.665
349.539
363.048
376.679
388.436
394.863
397.887
399.253
399.82
399.983
399.909
399.625
399.158
399.147
400.032
401.122
401.902
402.343
402.523
402.465
402.144