/*--------------------------------*- C++ -*----------------------------------*\
| =========                 |                                                 |
| \\      /  F ield         | OpenFOAM: The Open Source CFD Toolbox           |
|  \\    /   O peration     | Version:  v2006                                 |
|   \\  /    A nd           | Website:  www.openfoam.com                      |
|    \\/     M anipulation  |                                                 |
\*---------------------------------------------------------------------------*/
FoamFile
{
    version     2.0;
    format      ascii;
    class       volScalarField;
    location    "26";
    object      T;
}
// * * * * * * * * * * * * * * * * * * * * * * * * * * * * * * * * * * * * * //

dimensions      [0 0 0 1 0 0 0];


internalField   nonuniform List<scalar> 
78750
(
299.142
298.44
298.46
298.442
298.429
298.419
298.411
298.404
298.398
298.392
298.386
298.38
298.374
298.368
298.362
298.356
298.35
298.344
298.338
298.332
298.325
298.319
298.312
298.305
298.298
298.29
298.282
298.273
298.264
298.255
298.256
298.314
298.558
299.177
300.221
299.646
299.098
298.778
298.627
298.558
298.525
298.508
298.496
298.488
298.479
298.471
298.463
298.454
298.446
298.437
298.428
298.419
298.409
298.399
298.389
298.378
298.367
298.355
298.343
298.33
298.317
298.304
298.291
298.282
298.283
298.316
298.435
298.737
299.323
300.29
299.715
299.225
298.882
298.675
298.573
298.535
298.524
298.522
298.52
298.518
298.514
298.51
298.505
298.5
298.494
298.487
298.48
298.473
298.465
298.457
298.448
298.44
298.431
298.423
298.416
298.412
298.411
298.419
298.441
298.493
298.602
298.814
299.173
299.766
300.735
299.748
299.319
299.032
298.839
298.713
298.642
298.607
298.59
298.582
298.576
298.57
298.565
298.56
298.554
298.548
298.542
298.535
298.528
298.52
298.512
298.503
298.495
298.487
298.48
298.474
298.471
298.473
298.483
298.512
298.578
298.711
298.953
299.33
299.925
300.9
299.814
299.468
299.226
299.054
298.918
298.814
298.738
298.682
298.641
298.611
298.589
298.571
298.558
298.548
298.54
298.533
298.528
298.523
298.519
298.515
298.511
298.509
298.509
298.512
298.52
298.536
298.562
298.605
298.677
298.794
298.981
299.264
299.654
300.251
301.239
299.837
299.531
299.307
299.142
299.002
298.884
298.789
298.716
298.662
298.625
298.602
298.588
298.582
298.58
298.582
298.586
298.59
298.593
298.595
298.594
298.591
298.585
298.578
298.57
298.567
298.571
298.591
298.636
298.721
298.861
299.078
299.394
299.809
300.422
301.414
299.853
299.572
299.356
299.191
299.048
298.923
298.819
298.739
298.684
298.653
298.641
298.644
298.657
298.676
298.697
298.717
298.735
298.749
298.759
298.765
298.765
298.759
298.749
298.733
298.715
298.699
298.695
298.718
298.79
298.933
299.167
299.508
299.955
300.601
301.608
299.856
299.58
299.364
299.196
299.048
298.92
298.817
298.745
298.705
298.691
298.699
298.721
298.75
298.782
298.812
298.839
298.863
298.882
298.897
298.908
298.913
298.914
298.909
298.899
298.882
298.862
298.844
298.84
298.876
298.982
299.195
299.539
300.013
300.694
301.717
299.862
299.593
299.376
299.205
299.059
298.933
298.835
298.772
298.742
298.741
298.76
298.791
298.828
298.864
298.897
298.926
298.95
298.97
298.986
298.999
299.007
299.011
299.012
299.009
299.002
298.992
298.981
298.978
299.005
299.095
299.292
299.635
300.127
300.836
301.876
299.865
299.6
299.382
299.211
299.067
298.945
298.855
298.803
298.785
298.795
298.823
298.86
298.899
298.935
298.967
298.994
299.017
299.036
299.051
299.064
299.073
299.079
299.083
299.084
299.084
299.083
299.083
299.094
299.13
299.224
299.42
299.765
300.269
300.995
302.045
299.872
299.617
299.403
299.235
299.096
298.981
298.897
298.849
298.836
298.85
298.879
298.917
298.955
298.99
299.021
299.046
299.068
299.086
299.101
299.113
299.123
299.131
299.137
299.142
299.146
299.152
299.163
299.189
299.246
299.362
299.578
299.94
300.456
301.186
302.233
299.879
299.639
299.433
299.271
299.139
299.03
298.951
298.907
298.896
298.909
298.938
298.973
299.009
299.041
299.068
299.091
299.11
299.127
299.141
299.153
299.164
299.172
299.179
299.186
299.193
299.203
299.22
299.254
299.322
299.453
299.686
300.063
300.588
301.318
302.355
299.889
299.665
299.471
299.317
299.194
299.093
299.018
298.975
298.962
298.973
298.997
299.027
299.057
299.085
299.109
299.128
299.145
299.16
299.173
299.185
299.195
299.205
299.214
299.222
299.231
299.244
299.265
299.303
299.375
299.512
299.753
300.138
300.667
301.396
302.428
299.896
299.686
299.503
299.358
299.242
299.148
299.079
299.04
299.029
299.038
299.058
299.082
299.107
299.128
299.147
299.163
299.177
299.189
299.201
299.212
299.222
299.233
299.243
299.253
299.265
299.281
299.304
299.342
299.414
299.548
299.785
300.169
300.702
301.436
302.474
299.901
299.701
299.527
299.389
299.279
299.19
299.128
299.095
299.086
299.093
299.109
299.127
299.145
299.161
299.176
299.189
299.201
299.212
299.223
299.233
299.244
299.256
299.268
299.282
299.298
299.318
299.346
299.39
299.464
299.598
299.835
300.221
300.758
301.502
302.557
299.904
299.709
299.541
299.409
299.303
299.22
299.165
299.137
299.13
299.135
299.147
299.161
299.176
299.189
299.201
299.213
299.223
299.234
299.244
299.255
299.267
299.28
299.294
299.312
299.334
299.361
299.398
299.451
299.535
299.678
299.921
300.315
300.859
301.613
302.685
299.911
299.73
299.571
299.445
299.344
299.265
299.212
299.183
299.172
299.174
299.182
299.192
299.204
299.215
299.227
299.238
299.249
299.26
299.271
299.282
299.293
299.307
299.323
299.343
299.371
299.408
299.458
299.529
299.634
299.8
300.066
300.478
301.027
301.784
302.869
299.922
299.761
299.617
299.5
299.407
299.333
299.278
299.245
299.228
299.222
299.224
299.23
299.238
299.249
299.26
299.272
299.284
299.296
299.307
299.318
299.329
299.341
299.357
299.378
299.408
299.451
299.514
299.604
299.736
299.932
300.229
300.661
301.216
301.97
303.053
299.932
299.791
299.663
299.557
299.472
299.402
299.348
299.309
299.286
299.273
299.268
299.269
299.275
299.285
299.297
299.31
299.323
299.336
299.348
299.359
299.371
299.383
299.397
299.417
299.446
299.492
299.562
299.668
299.823
300.05
300.375
300.826
301.385
302.134
303.205
299.939
299.812
299.696
299.599
299.518
299.451
299.396
299.355
299.327
299.31
299.303
299.304
299.311
299.321
299.334
299.348
299.361
299.374
299.387
299.399
299.411
299.424
299.438
299.457
299.485
299.529
299.6
299.712
299.881
300.127
300.474
300.938
301.498
302.241
303.299
299.944
299.826
299.719
299.627
299.549
299.483
299.427
299.386
299.357
299.341
299.335
299.336
299.344
299.354
299.367
299.38
299.392
299.405
299.418
299.431
299.444
299.459
299.475
299.496
299.524
299.567
299.636
299.746
299.918
300.172
300.531
301.002
301.564
302.304
303.353
299.947
299.836
299.734
299.646
299.57
299.505
299.451
299.41
299.384
299.369
299.364
299.366
299.373
299.382
299.393
299.405
299.417
299.43
299.443
299.457
299.472
299.488
299.507
299.531
299.562
299.604
299.67
299.774
299.941
300.193
300.554
301.028
301.591
302.331
303.38
299.951
299.846
299.749
299.664
299.592
299.529
299.477
299.439
299.414
299.4
299.394
299.395
299.4
299.407
299.417
299.427
299.439
299.452
299.465
299.48
299.497
299.516
299.539
299.567
299.602
299.648
299.713
299.813
299.973
300.218
300.575
301.048
301.613
302.358
303.411
299.954
299.857
299.766
299.687
299.618
299.559
299.51
299.474
299.449
299.433
299.426
299.424
299.426
299.432
299.439
299.449
299.461
299.473
299.487
299.503
299.521
299.542
299.569
299.603
299.644
299.696
299.764
299.863
300.017
300.254
300.603
301.073
301.639
302.389
303.451
299.959
299.87
299.787
299.713
299.649
299.595
299.549
299.513
299.487
299.47
299.459
299.454
299.453
299.456
299.462
299.47
299.48
299.493
299.506
299.523
299.542
299.566
299.598
299.639
299.69
299.753
299.832
299.938
300.093
300.327
300.671
301.133
301.699
302.458
303.53
299.964
299.883
299.807
299.74
299.68
299.629
299.586
299.55
299.523
299.503
299.49
299.481
299.478
299.478
299.482
299.489
299.498
299.51
299.524
299.541
299.561
299.587
299.623
299.671
299.733
299.809
299.904
300.025
300.191
300.43
300.772
301.227
301.79
302.559
303.64
299.968
299.896
299.826
299.763
299.707
299.659
299.617
299.582
299.553
299.532
299.516
299.506
299.501
299.499
299.502
299.507
299.515
299.526
299.539
299.556
299.578
299.607
299.648
299.705
299.779
299.87
299.982
300.122
300.304
300.554
300.9
301.349
301.912
302.691
303.777
299.972
299.907
299.844
299.786
299.733
299.687
299.647
299.612
299.583
299.561
299.544
299.533
299.527
299.523
299.523
299.525
299.53
299.538
299.549
299.565
299.586
299.616
299.66
299.724
299.812
299.924
300.06
300.224
300.428
300.694
301.049
301.495
302.058
302.843
303.928
299.977
299.921
299.865
299.812
299.763
299.72
299.683
299.65
299.622
299.6
299.582
299.569
299.559
299.551
299.547
299.545
299.546
299.55
299.558
299.57
299.588
299.613
299.652
299.713
299.804
299.932
300.095
300.294
300.53
300.818
301.183
301.63
302.192
302.976
304.055
299.981
299.934
299.885
299.838
299.794
299.755
299.72
299.689
299.662
299.639
299.619
299.602
299.587
299.575
299.567
299.562
299.562
299.565
299.571
299.581
299.595
299.614
299.643
299.689
299.763
299.879
300.048
300.274
300.553
300.884
301.277
301.736
302.301
303.081
304.151
299.984
299.944
299.9
299.858
299.818
299.781
299.747
299.717
299.688
299.662
299.638
299.616
299.598
299.585
299.577
299.575
299.576
299.582
299.59
299.601
299.615
299.632
299.655
299.688
299.739
299.823
299.959
300.165
300.453
300.817
301.253
301.75
302.331
303.106
304.165
299.986
299.948
299.908
299.867
299.827
299.79
299.754
299.719
299.686
299.655
299.628
299.607
299.593
299.586
299.585
299.589
299.596
299.606
299.618
299.631
299.646
299.664
299.686
299.715
299.756
299.821
299.926
300.095
300.355
300.718
301.18
301.715
302.318
303.093
304.146
299.985
299.946
299.904
299.86
299.817
299.773
299.73
299.69
299.654
299.626
299.606
299.596
299.593
299.597
299.605
299.615
299.627
299.641
299.656
299.671
299.687
299.705
299.727
299.753
299.788
299.839
299.921
300.056
300.277
300.612
301.07
301.628
302.248
303.026
304.08
299.982
299.936
299.887
299.837
299.786
299.736
299.691
299.654
299.628
299.613
299.608
299.61
299.617
299.627
299.638
299.651
299.664
299.679
299.694
299.711
299.729
299.751
299.777
299.807
299.845
299.895
299.966
300.08
300.269
300.569
301.004
301.557
302.18
302.961
304.025
299.977
299.924
299.868
299.814
299.762
299.715
299.677
299.651
299.637
299.632
299.633
299.638
299.646
299.654
299.665
299.676
299.69
299.705
299.722
299.74
299.762
299.789
299.821
299.86
299.905
299.961
300.036
300.145
300.319
300.594
301.003
301.535
302.15
302.938
304.017
299.975
299.919
299.863
299.81
299.761
299.72
299.689
299.669
299.658
299.654
299.654
299.658
299.665
299.673
299.684
299.696
299.711
299.728
299.748
299.771
299.799
299.833
299.874
299.923
299.979
300.045
300.127
300.242
300.416
300.683
301.072
301.576
302.178
302.976
304.071
299.977
299.923
299.87
299.82
299.777
299.74
299.713
299.695
299.684
299.678
299.677
299.68
299.684
299.691
299.701
299.713
299.728
299.747
299.769
299.796
299.831
299.876
299.931
299.995
300.066
300.146
300.242
300.369
300.551
300.819
301.197
301.675
302.264
303.076
304.184
299.981
299.935
299.888
299.844
299.806
299.773
299.746
299.727
299.713
299.705
299.7
299.699
299.7
299.705
299.713
299.724
299.738
299.757
299.78
299.811
299.853
299.907
299.976
300.058
300.15
300.252
300.368
300.512
300.708
300.982
301.352
301.807
302.385
303.211
304.327
299.985
299.947
299.906
299.868
299.833
299.802
299.777
299.757
299.743
299.732
299.725
299.721
299.72
299.721
299.725
299.732
299.744
299.762
299.786
299.82
299.866
299.927
300.006
300.103
300.216
300.341
300.481
300.647
300.858
301.14
301.506
301.948
302.521
303.356
304.475
299.988
299.956
299.921
299.887
299.855
299.827
299.804
299.784
299.769
299.757
299.747
299.738
299.731
299.724
299.72
299.719
299.725
299.739
299.764
299.802
299.854
299.924
300.012
300.122
300.253
300.404
300.572
300.763
300.994
301.284
301.647
302.08
302.65
303.488
304.605
299.992
299.967
299.938
299.909
299.882
299.857
299.835
299.815
299.798
299.78
299.762
299.742
299.721
299.698
299.676
299.66
299.652
299.657
299.678
299.719
299.782
299.867
299.971
300.096
300.244
300.416
300.61
300.828
301.081
301.386
301.754
302.188
302.759
303.598
304.712
299.996
299.978
299.955
299.93
299.906
299.881
299.857
299.832
299.804
299.773
299.739
299.701
299.661
299.621
299.584
299.553
299.529
299.516
299.522
299.551
299.613
299.709
299.839
299.997
300.175
300.373
300.595
300.845
301.128
301.454
301.834
302.271
302.842
303.678
304.79
299.999
299.986
299.966
299.941
299.911
299.877
299.837
299.793
299.746
299.699
299.653
299.612
299.575
299.544
299.516
299.491
299.468
299.445
299.426
299.416
299.43
299.487
299.601
299.775
299.993
300.238
300.497
300.779
301.093
301.45
301.856
302.311
302.889
303.725
304.837
299.999
299.984
299.956
299.914
299.859
299.795
299.73
299.672
299.624
299.59
299.568
299.556
299.551
299.55
299.551
299.55
299.545
299.534
299.516
299.488
299.454
299.427
299.44
299.533
299.73
300.008
300.328
300.664
301.02
301.412
301.851
302.329
302.919
303.758
304.872
299.992
299.961
299.908
299.837
299.756
299.682
299.629
299.6
299.593
299.6
299.616
299.633
299.65
299.664
299.675
299.682
299.686
299.684
299.677
299.66
299.631
299.588
299.536
299.506
299.565
299.765
300.092
300.48
300.89
301.327
301.807
302.322
302.933
303.776
304.889
299.981
299.928
299.86
299.785
299.72
299.681
299.671
299.682
299.701
299.72
299.733
299.74
299.742
299.741
299.739
299.738
299.738
299.738
299.739
299.738
299.732
299.716
299.686
299.644
299.622
299.694
299.932
300.32
300.781
301.267
301.786
302.332
302.96
303.804
304.908
299.974
299.913
299.852
299.798
299.764
299.753
299.755
299.758
299.755
299.745
299.731
299.716
299.702
299.691
299.684
299.681
299.681
299.684
299.691
299.701
299.713
299.724
299.729
299.721
299.704
299.716
299.843
300.155
300.624
301.167
301.74
302.323
302.97
303.81
304.903
299.973
299.914
299.862
299.823
299.797
299.78
299.764
299.746
299.728
299.712
299.7
299.693
299.689
299.688
299.689
299.691
299.694
299.697
299.702
299.708
299.716
299.728
299.741
299.754
299.763
299.779
299.854
300.074
300.486
301.041
301.66
302.287
302.956
303.795
304.878
299.976
299.923
299.877
299.842
299.815
299.795
299.78
299.771
299.765
299.764
299.764
299.765
299.766
299.767
299.768
299.769
299.772
299.775
299.779
299.784
299.79
299.797
299.807
299.819
299.834
299.858
299.922
300.094
300.441
300.966
301.598
302.252
302.937
303.776
304.852
299.982
299.941
299.906
299.879
299.859
299.846
299.836
299.826
299.816
299.803
299.789
299.775
299.764
299.755
299.75
299.749
299.752
299.759
299.769
299.783
299.801
299.823
299.85
299.883
299.92
299.965
300.039
300.193
300.496
300.977
301.594
302.25
302.942
303.784
304.858
299.99
299.963
299.938
299.916
299.895
299.873
299.849
299.823
299.795
299.769
299.747
299.731
299.72
299.715
299.715
299.718
299.724
299.734
299.746
299.761
299.781
299.808
299.844
299.893
299.957
300.038
300.144
300.31
300.597
301.045
301.633
302.271
302.955
303.801
304.878
299.994
299.974
299.95
299.922
299.892
299.861
299.83
299.801
299.778
299.762
299.753
299.749
299.749
299.752
299.758
299.766
299.775
299.785
299.796
299.809
299.825
299.846
299.876
299.924
299.996
300.101
300.241
300.436
300.727
301.155
301.712
302.319
302.99
303.838
304.917
299.995
299.973
299.946
299.914
299.881
299.85
299.822
299.801
299.784
299.772
299.764
299.76
299.758
299.76
299.765
299.774
299.785
299.8
299.816
299.834
299.855
299.879
299.91
299.957
300.031
300.147
300.314
300.539
300.847
301.267
301.799
302.377
303.031
303.877
304.955
299.993
299.97
299.939
299.905
299.872
299.84
299.814
299.791
299.773
299.76
299.75
299.744
299.742
299.744
299.75
299.76
299.773
299.791
299.813
299.837
299.865
299.895
299.931
299.98
300.054
300.173
300.352
300.602
300.93
301.352
301.868
302.425
303.067
303.91
304.988
299.992
299.966
299.934
299.9
299.868
299.841
299.82
299.804
299.793
299.786
299.782
299.781
299.781
299.783
299.788
299.795
299.806
299.821
299.84
299.865
299.894
299.927
299.966
300.017
300.089
300.202
300.379
300.635
300.977
301.408
301.918
302.464
303.097
303.935
305.007
299.992
299.966
299.937
299.91
299.886
299.865
299.849
299.836
299.825
299.817
299.81
299.806
299.803
299.802
299.804
299.809
299.817
299.83
299.849
299.875
299.907
299.945
299.99
300.046
300.122
300.235
300.408
300.662
301.008
301.444
301.954
302.496
303.123
303.953
305.019
299.994
299.972
299.947
299.922
299.898
299.876
299.856
299.841
299.828
299.82
299.814
299.812
299.811
299.813
299.816
299.822
299.829
299.841
299.857
299.881
299.912
299.951
299.998
300.057
300.135
300.247
300.415
300.664
301.009
301.449
301.965
302.509
303.134
303.959
305.018
299.994
299.973
299.948
299.923
299.899
299.88
299.867
299.858
299.855
299.854
299.856
299.859
299.862
299.865
299.87
299.875
299.881
299.889
299.902
299.92
299.945
299.98
300.026
300.085
300.163
300.273
300.437
300.677
301.014
301.451
301.967
302.512
303.134
303.952
305.005
299.995
299.976
299.954
299.933
299.916
299.905
299.897
299.892
299.89
299.888
299.887
299.887
299.888
299.891
299.895
299.9
299.908
299.918
299.932
299.95
299.975
300.009
300.053
300.11
300.187
300.296
300.455
300.689
301.018
301.449
301.963
302.508
303.127
303.941
304.992
299.997
299.981
299.963
299.947
299.932
299.921
299.913
299.906
299.903
299.901
299.902
299.905
299.909
299.914
299.919
299.925
299.932
299.941
299.953
299.97
299.994
300.028
300.073
300.131
300.208
300.314
300.467
300.69
301.007
301.428
301.937
302.481
303.1
303.913
304.966
299.999
299.988
299.974
299.96
299.947
299.938
299.933
299.932
299.935
299.94
299.947
299.955
299.963
299.97
299.977
299.984
299.99
299.996
300.003
300.013
300.029
300.053
300.092
300.147
300.222
300.326
300.475
300.69
300.996
301.406
301.908
302.45
303.068
303.881
304.942
300.001
299.992
299.98
299.968
299.959
299.954
299.953
299.955
299.961
299.967
299.974
299.982
299.989
299.997
300.005
300.014
300.024
300.034
300.044
300.056
300.07
300.09
300.121
300.168
300.235
300.332
300.471
300.674
300.966
301.365
301.861
302.405
303.026
303.843
304.913
300.001
299.995
299.985
299.976
299.971
299.969
299.972
299.978
299.985
299.993
300.002
300.011
300.02
300.029
300.039
300.05
300.061
300.073
300.084
300.095
300.108
300.125
300.152
300.193
300.254
300.344
300.474
300.665
300.943
301.328
301.817
302.36
302.981
303.802
304.882
300.003
299.999
299.992
299.987
299.985
299.986
299.99
299.997
300.004
300.012
300.021
300.03
300.04
300.052
300.066
300.083
300.102
300.12
300.138
300.152
300.165
300.177
300.196
300.226
300.277
300.356
300.475
300.652
300.914
301.285
301.766
302.31
302.934
303.762
304.854
300.004
300.002
299.998
299.995
299.994
299.995
299.999
300.004
300.009
300.015
300.021
300.028
300.037
300.049
300.066
300.088
300.114
300.144
300.173
300.199
300.218
300.234
300.249
300.273
300.315
300.383
300.491
300.654
300.9
301.254
301.723
302.263
302.888
303.723
304.829
300.006
300.008
300.007
300.007
300.008
300.01
300.014
300.019
300.024
300.028
300.034
300.04
300.048
300.06
300.077
300.102
300.136
300.176
300.218
300.256
300.285
300.305
300.32
300.339
300.372
300.429
300.524
300.675
300.907
301.248
301.705
302.238
302.862
303.705
304.823
300.008
300.014
300.017
300.02
300.023
300.027
300.031
300.036
300.042
300.047
300.051
300.056
300.062
300.071
300.087
300.112
300.149
300.199
300.255
300.31
300.354
300.384
300.404
300.426
300.458
300.512
300.601
300.744
300.965
301.292
301.733
302.249
302.866
303.717
304.848
300.01
300.02
300.026
300.031
300.037
300.044
300.052
300.059
300.067
300.075
300.082
300.088
300.094
300.103
300.119
300.144
300.184
300.238
300.304
300.37
300.426
300.464
300.49
300.513
300.545
300.599
300.687
300.828
301.045
301.365
301.79
302.285
302.891
303.752
304.902
300.01
300.022
300.031
300.04
300.051
300.062
300.073
300.084
300.094
300.104
300.112
300.12
300.131
300.146
300.168
300.2
300.244
300.303
300.371
300.443
300.505
300.553
300.589
300.62
300.659
300.715
300.804
300.945
301.162
301.477
301.889
302.367
302.972
303.862
305.047
300.012
300.027
300.041
300.057
300.072
300.085
300.097
300.108
300.118
300.126
300.135
300.146
300.163
300.188
300.223
300.27
300.329
300.397
300.47
300.538
300.596
300.642
300.681
300.72
300.77
300.84
300.943
301.097
301.321
301.633
302.029
302.49
303.102
304.031
305.257
300.015
300.036
300.054
300.07
300.084
300.097
300.108
300.119
300.129
300.139
300.149
300.162
300.18
300.209
300.252
300.313
300.391
300.482
300.574
300.656
300.72
300.768
300.808
300.853
300.911
300.994
301.115
301.289
301.53
301.846
302.23
302.685
303.316
304.284
305.535
300.015
300.036
300.052
300.066
300.08
300.095
300.111
300.127
300.144
300.16
300.173
300.183
300.195
300.216
300.254
300.314
300.398
300.505
300.623
300.734
300.823
300.89
300.945
301.003
301.077
301.178
301.319
301.513
301.768
302.085
302.462
302.921
303.575
304.561
305.802
300.015
300.036
300.053
300.07
300.088
300.106
300.126
300.148
300.171
300.193
300.211
300.223
300.231
300.243
300.269
300.317
300.393
300.501
300.635
300.777
300.904
301.004
301.084
301.159
301.248
301.365
301.524
301.734
301.998
302.316
302.688
303.149
303.812
304.786
305.992
300.017
300.041
300.062
300.083
300.104
300.124
300.145
300.169
300.196
300.222
300.244
300.259
300.268
300.276
300.293
300.328
300.388
300.48
300.607
300.762
300.923
301.068
301.19
301.298
301.41
301.545
301.716
301.934
302.2
302.511
302.873
303.327
303.984
304.936
306.103
300.019
300.047
300.072
300.096
300.119
300.141
300.165
300.193
300.225
300.257
300.283
300.3
300.31
300.318
300.332
300.36
300.409
300.484
300.593
300.737
300.906
301.079
301.238
301.382
301.521
301.673
301.855
302.077
302.341
302.647
302.999
303.44
304.078
304.999
306.126
300.02
300.05
300.078
300.106
300.132
300.156
300.182
300.21
300.243
300.276
300.306
300.329
300.343
300.352
300.365
300.388
300.428
300.492
300.585
300.716
300.88
301.067
301.256
301.436
301.607
301.781
301.973
302.196
302.454
302.75
303.09
303.514
304.126
305.014
306.114
300.023
300.062
300.097
300.129
300.157
300.182
300.209
300.239
300.272
300.306
300.337
300.362
300.379
300.389
300.399
300.418
300.45
300.503
300.583
300.697
300.848
301.031
301.233
301.437
301.637
301.837
302.046
302.275
302.532
302.82
303.147
303.551
304.135
305
306.092
300.025
300.066
300.102
300.135
300.164
300.191
300.219
300.251
300.286
300.322
300.358
300.39
300.414
300.43
300.444
300.461
300.489
300.536
300.607
300.712
300.854
301.033
301.237
301.453
301.668
301.883
302.102
302.336
302.593
302.876
303.195
303.587
304.156
305.01
306.099
300.026
300.068
300.108
300.146
300.18
300.21
300.241
300.272
300.302
300.33
300.359
300.39
300.42
300.445
300.465
300.485
300.511
300.55
300.61
300.702
300.833
301.009
301.221
301.454
301.69
301.923
302.154
302.393
302.649
302.931
303.246
303.634
304.196
305.035
306.098
300.029
300.078
300.124
300.167
300.205
300.241
300.281
300.326
300.367
300.399
300.422
300.441
300.46
300.479
300.498
300.518
300.542
300.575
300.624
300.699
300.81
300.967
301.172
301.416
301.678
301.94
302.195
302.448
302.708
302.986
303.294
303.669
304.21
305.011
306.04
300.032
300.088
300.14
300.188
300.227
300.266
300.309
300.357
300.404
300.446
300.477
300.5
300.517
300.53
300.544
300.56
300.581
300.609
300.65
300.71
300.799
300.927
301.104
301.332
301.598
301.883
302.168
302.445
302.719
302.999
303.3
303.662
304.182
304.962
305.992
300.035
300.098
300.157
300.208
300.25
300.291
300.336
300.386
300.434
300.477
300.513
300.54
300.561
300.577
300.593
300.609
300.63
300.659
300.698
300.753
300.829
300.937
301.085
301.28
301.523
301.805
302.105
302.405
302.698
302.989
303.294
303.658
304.181
304.969
306.013
300.039
300.108
300.17
300.222
300.265
300.308
300.359
300.418
300.476
300.527
300.564
300.59
300.608
300.622
300.635
300.651
300.673
300.704
300.749
300.81
300.893
301.003
301.144
301.321
301.538
301.795
302.083
302.385
302.688
302.989
303.302
303.678
304.221
305.014
306.035
300.043
300.117
300.182
300.234
300.275
300.313
300.358
300.414
300.48
300.545
300.599
300.637
300.66
300.674
300.685
300.696
300.712
300.739
300.78
300.844
300.936
301.061
301.221
301.414
301.637
301.887
302.159
302.448
302.742
303.038
303.348
303.723
304.259
305.01
305.963
300.044
300.121
300.186
300.238
300.277
300.31
300.347
300.396
300.459
300.531
300.602
300.657
300.694
300.716
300.729
300.739
300.75
300.765
300.792
300.838
300.911
301.023
301.179
301.381
301.621
301.889
302.172
302.46
302.747
303.032
303.327
303.678
304.171
304.867
305.793
300.045
300.123
300.191
300.245
300.283
300.311
300.337
300.37
300.418
300.487
300.57
300.652
300.716
300.757
300.779
300.793
300.802
300.813
300.829
300.855
300.9
300.975
301.093
301.262
301.485
301.755
302.052
302.357
302.655
302.942
303.231
303.568
304.04
304.741
305.722
300.046
300.128
300.202
300.261
300.302
300.328
300.343
300.354
300.37
300.405
300.469
300.559
300.658
300.743
300.8
300.833
300.852
300.867
300.884
300.907
300.941
300.994
301.077
301.201
301.379
301.613
301.897
302.208
302.521
302.822
303.122
303.468
303.962
304.717
305.757
300.049
300.139
300.218
300.282
300.328
300.36
300.382
300.394
300.399
300.404
300.424
300.473
300.557
300.662
300.762
300.835
300.88
300.908
300.932
300.962
301.004
301.067
301.155
301.274
301.432
301.635
301.884
302.17
302.474
302.78
303.095
303.468
304.005
304.793
305.816
300.053
300.146
300.226
300.29
300.337
300.372
300.397
300.416
300.429
300.436
300.444
300.463
300.505
300.582
300.684
300.788
300.868
300.92
300.954
300.986
301.028
301.093
301.191
301.328
301.505
301.717
301.961
302.228
302.512
302.805
303.115
303.49
304.015
304.749
305.686
300.053
300.146
300.225
300.29
300.341
300.38
300.41
300.433
300.449
300.459
300.467
300.48
300.504
300.551
300.63
300.734
300.839
300.92
300.97
301.004
301.036
301.082
301.158
301.278
301.449
301.671
301.929
302.207
302.491
302.777
303.074
303.422
303.897
304.568
305.481
300.051
300.14
300.217
300.284
300.339
300.383
300.418
300.446
300.465
300.476
300.48
300.484
300.495
300.523
300.578
300.667
300.783
300.899
300.985
301.036
301.065
301.091
301.131
301.202
301.323
301.504
301.742
302.02
302.317
302.615
302.915
303.251
303.706
304.395
305.4
300.052
300.144
300.226
300.298
300.357
300.404
300.442
300.473
300.497
300.512
300.518
300.518
300.518
300.526
300.554
300.614
300.714
300.845
300.977
301.074
301.128
301.156
301.177
301.213
301.286
301.415
301.612
301.87
302.167
302.477
302.793
303.147
303.639
304.42
305.545
300.052
300.144
300.227
300.298
300.356
300.403
300.442
300.476
300.504
300.526
300.54
300.545
300.545
300.546
300.556
300.586
300.65
300.761
300.91
301.065
301.183
301.25
301.283
301.309
301.354
301.446
301.606
301.838
302.123
302.436
302.768
303.156
303.713
304.584
305.763
300.055
300.152
300.236
300.307
300.366
300.414
300.455
300.49
300.52
300.544
300.562
300.572
300.574
300.572
300.572
300.582
300.612
300.679
300.796
300.963
301.147
301.302
301.403
301.463
301.513
301.59
301.723
301.928
302.192
302.491
302.82
303.226
303.828
304.739
305.908
300.053
300.147
300.228
300.301
300.364
300.417
300.462
300.5
300.534
300.562
300.584
300.598
300.605
300.605
300.602
300.601
300.609
300.636
300.698
300.812
300.985
301.196
301.399
301.558
301.673
301.775
301.903
302.086
302.327
302.606
302.915
303.302
303.892
304.79
305.931
300.052
300.145
300.231
300.308
300.376
300.433
300.48
300.52
300.554
300.583
300.607
300.625
300.636
300.64
300.638
300.634
300.633
300.64
300.662
300.715
300.816
300.98
301.201
301.444
301.666
301.852
302.022
302.21
302.437
302.7
302.994
303.357
303.907
304.779
305.911
300.056
300.157
300.251
300.335
300.406
300.465
300.514
300.555
300.59
300.619
300.642
300.66
300.671
300.676
300.676
300.673
300.669
300.67
300.678
300.699
300.747
300.838
300.993
301.216
301.485
301.759
302.012
302.249
302.492
302.756
303.047
303.399
303.924
304.772
305.895
300.059
300.166
300.263
300.349
300.422
300.482
300.531
300.572
300.607
300.638
300.664
300.685
300.701
300.71
300.713
300.712
300.71
300.71
300.713
300.725
300.748
300.796
300.884
301.036
301.264
301.554
301.87
302.179
302.474
302.765
303.069
303.423
303.933
304.756
305.867
300.061
300.17
300.271
300.361
300.438
300.501
300.551
300.593
300.628
300.658
300.684
300.707
300.726
300.74
300.749
300.752
300.753
300.755
300.759
300.769
300.787
300.818
300.873
300.97
301.13
301.369
301.677
302.02
302.367
302.705
303.043
303.412
303.923
304.746
305.876
300.064
300.183
300.293
300.391
300.473
300.538
300.589
300.63
300.661
300.687
300.708
300.726
300.744
300.761
300.776
300.786
300.794
300.8
300.808
300.82
300.839
300.87
300.92
301
301.127
301.321
301.591
301.925
302.293
302.669
303.039
303.431
303.964
304.818
305.969
300.069
300.196
300.313
300.417
300.503
300.571
300.624
300.665
300.696
300.72
300.738
300.753
300.767
300.782
300.798
300.814
300.828
300.84
300.852
300.868
300.891
300.925
300.978
301.062
301.19
301.378
301.634
301.956
302.326
302.714
303.097
303.502
304.053
304.92
306.05
300.073
300.207
300.332
300.444
300.538
300.61
300.666
300.708
300.74
300.763
300.778
300.789
300.798
300.809
300.823
300.84
300.859
300.877
300.895
300.914
300.938
300.972
301.025
301.108
301.238
301.429
301.69
302.017
302.391
302.782
303.164
303.566
304.111
304.955
306.051
300.077
300.221
300.356
300.479
300.58
300.656
300.713
300.756
300.786
300.806
300.818
300.825
300.83
300.836
300.846
300.861
300.883
300.908
300.935
300.962
300.991
301.026
301.076
301.152
301.271
301.453
301.71
302.04
302.421
302.818
303.199
303.595
304.13
304.965
306.072
300.082
300.239
300.389
300.525
300.633
300.712
300.77
300.812
300.84
300.857
300.865
300.868
300.87
300.873
300.879
300.889
300.907
300.934
300.968
301.005
301.046
301.09
301.145
301.22
301.332
301.502
301.747
302.071
302.452
302.85
303.23
303.626
304.172
305.03
306.165
300.095
300.277
300.45
300.598
300.707
300.783
300.836
300.872
300.893
300.904
300.909
300.911
300.912
300.914
300.918
300.927
300.942
300.968
301.005
301.052
301.106
301.166
301.237
301.326
301.447
301.618
301.857
302.172
302.542
302.928
303.3
303.703
304.272
305.147
306.273
300.109
300.316
300.502
300.65
300.755
300.825
300.874
300.905
300.923
300.932
300.937
300.941
300.944
300.948
300.953
300.961
300.974
300.996
301.032
301.083
301.147
301.224