/*--------------------------------*- C++ -*----------------------------------*\
| =========                 |                                                 |
| \\      /  F ield         | OpenFOAM: The Open Source CFD Toolbox           |
|  \\    /   O peration     | Version:  v2006                                 |
|   \\  /    A nd           | Website:  www.openfoam.com                      |
|    \\/     M anipulation  |                                                 |
\*---------------------------------------------------------------------------*/
FoamFile
{
    version     2.0;
    format      ascii;
    class       volScalarField;
    location    "20";
    object      nut;
}
// * * * * * * * * * * * * * * * * * * * * * * * * * * * * * * * * * * * * * //

dimensions      [0 2 -1 0 0 0 0];


internalField   nonuniform List<scalar> 
78750
(
0.00053385
0.00110113
0.000701122
6.20601e-05
2.67479e-05
5.83013e-05
2.20168e-05
4.78889e-05
3.55571e-05
4.4529e-05
4.33895e-05
4.58283e-05
4.70048e-05
4.80962e-05
4.89425e-05
4.95761e-05
5.00254e-05
5.03574e-05
5.06282e-05
5.08727e-05
5.11128e-05
5.13648e-05
5.16401e-05
5.19273e-05
5.22002e-05
5.24285e-05
5.25681e-05
5.25518e-05
5.22726e-05
5.15415e-05
4.99965e-05
4.67769e-05
3.96855e-05
2.14472e-05
1.32372e-06
5.19094e-05
6.52349e-05
2.73741e-05
4.73068e-05
6.41657e-05
6.10302e-05
8.82718e-05
0.000115882
0.000148534
0.000172627
0.000195152
0.000210719
0.000219362
0.000221047
0.000216987
0.000209168
0.000199146
0.000188018
0.000176531
0.000165494
0.000155373
0.000146357
0.000138623
0.000132375
0.000127826
0.000125068
0.000123932
0.000124095
0.000124834
0.000123912
0.000116946
9.71988e-05
6.19502e-05
2.8497e-05
2.18783e-06
1.88583e-06
3.89224e-05
6.88411e-05
7.66415e-05
9.07109e-05
0.000119688
0.000158569
0.000199676
0.00024195
0.000277734
0.000283453
0.000284446
0.000280244
0.000262443
0.000245367
0.000230697
0.000217416
0.000205187
0.000193615
0.000182514
0.000171946
0.000162176
0.000153433
0.000145867
0.000139665
0.000134998
0.000131921
0.000130228
0.000129097
0.00012632
0.000117054
9.43722e-05
6.1364e-05
3.65457e-05
3.66528e-06
3.51527e-07
2.63444e-05
2.79605e-05
3.19449e-05
4.12646e-05
5.96219e-05
7.98927e-05
8.91569e-05
9.38433e-05
0.000105235
0.000126952
0.000154359
0.000180299
0.00020023
0.000211698
0.00021438
0.000211731
0.000207405
0.000202482
0.000196934
0.000190842
0.000183992
0.000176272
0.000167856
0.000159122
0.000150587
0.000142656
0.000135267
0.000127681
0.000118117
0.000102926
7.89521e-05
5.41093e-05
4.15589e-05
4.6693e-06
1.22799e-06
1.43275e-05
2.30652e-05
2.14728e-05
1.78827e-05
1.35061e-05
8.73885e-06
4.89613e-06
3.30771e-06
1.21623e-05
4.56488e-05
7.36154e-05
8.80394e-05
0.000107006
0.000136805
0.000179503
0.00022929
0.000268474
0.000272655
0.000272844
0.000264124
0.000245666
0.000227636
0.000210905
0.000194825
0.000178865
0.000162679
0.000145929
0.000128073
0.000108238
8.59446e-05
6.39744e-05
5.04159e-05
5.40587e-05
5.6557e-06
4.88428e-06
6.15728e-05
2.24572e-05
1.56813e-05
1.25619e-05
8.94065e-06
5.44685e-06
7.47617e-06
5.2197e-05
0.000138828
0.000161819
0.000175933
0.000162757
0.000153588
0.000159651
0.000182124
0.000216675
0.000251825
0.000266518
0.000268236
0.00026924
0.000267815
0.000253904
0.00023796
0.000220722
0.000201689
0.000180613
0.000157429
0.0001321
0.000104837
7.76222e-05
5.63354e-05
4.95019e-05
6.91875e-05
6.19415e-06
3.08864e-06
1.01951e-05
9.99942e-06
3.29486e-05
7.07516e-05
6.62221e-05
5.0726e-05
5.47402e-05
7.49962e-05
0.000101685
0.000125625
0.000146839
0.000165691
0.000184317
0.00020472
0.000226165
0.00024418
0.000254136
0.000256161
0.000252809
0.000246418
0.000238252
0.000228953
0.000218755
0.000207294
0.000193752
0.00017712
0.000156478
0.00013121
0.000101741
7.1908e-05
5.07236e-05
4.82688e-05
8.13561e-05
6.57011e-06
4.01202e-06
2.89309e-05
2.65276e-05
1.10963e-05
1.18481e-05
2.05693e-05
3.31249e-05
4.06147e-05
4.15295e-05
4.50609e-05
5.63436e-05
7.5813e-05
0.000101004
0.000128136
0.000153304
0.00017324
0.000187294
0.000196594
0.00020262
0.000205862
0.000205838
0.000203471
0.000199752
0.000194877
0.000188443
0.000179638
0.000167204
0.000149401
0.000124915
9.52514e-05
6.70779e-05
5.03786e-05
5.5001e-05
0.000101907
7.00379e-06
3.763e-06
3.72402e-05
6.56615e-05
4.69366e-05
2.53671e-05
2.31468e-05
2.32087e-05
2.38108e-05
2.56527e-05
2.92976e-05
3.69045e-05
5.33497e-05
7.98549e-05
9.69118e-05
9.52259e-05
9.51955e-05
0.000106868
0.000129812
0.000155944
0.000172841
0.000175946
0.000171141
0.000164463
0.000157539
0.0001499
0.000140692
0.000129021
0.000114151
9.6164e-05
7.71121e-05
6.16067e-05
5.64474e-05
7.24244e-05
0.000109054
7.23601e-06
3.77195e-06
3.18488e-05
5.91135e-05
7.64268e-05
7.74594e-05
6.58657e-05
5.21613e-05
4.22009e-05
3.47616e-05
2.7343e-05
1.73735e-05
9.71015e-06
1.07713e-05
2.03425e-05
3.8845e-05
6.93331e-05
0.000106714
0.000125143
0.00012125
0.000115149
0.000118497
0.000133835
0.000152737
0.000160234
0.000153041
0.000138015
0.000120484
0.000102256
8.41358e-05
6.7596e-05
5.54856e-05
5.24552e-05
6.61081e-05
8.03813e-05
6.62746e-06
3.55431e-06
1.83741e-05
4.79924e-05
7.19666e-05
7.77087e-05
7.68874e-05
7.31754e-05
6.83812e-05
6.52284e-05
5.98672e-05
4.15539e-05
1.71647e-05
3.82657e-06
7.15126e-06
1.70397e-05
2.87023e-05
4.39656e-05
6.66113e-05
0.000101092
0.000142007
0.000164645
0.000164366
0.000157872
0.000156682
0.000162671
0.000167576
0.000158918
0.000134707
0.00010348
7.44043e-05
5.42117e-05
4.7322e-05
5.96979e-05
8.63873e-05
7.20809e-06
4.97953e-06
2.86441e-05
9.20154e-05
0.000114343
9.06671e-05
5.5269e-05
3.09563e-05
2.01946e-05
2.14048e-05
3.40092e-05
4.28044e-05
2.04877e-05
1.63733e-06
8.48931e-07
5.07904e-07
1.13918e-05
2.96948e-05
4.94474e-05
7.01654e-05
9.04085e-05
0.000106028
0.000115467
0.000121169
0.000127059
0.000136239
0.000147303
0.000150879
0.000136662
0.000106865
7.61618e-05
5.67907e-05
5.34918e-05
7.46373e-05
0.000123594
7.82233e-06
6.11198e-06
4.87466e-05
0.000106245
0.000100738
7.88235e-05
5.61068e-05
3.73037e-05
2.20722e-05
1.44334e-05
1.63363e-05
1.10482e-05
2.12938e-06
2.11638e-06
3.95504e-06
3.49714e-06
1.14616e-05
2.6765e-05
3.96948e-05
5.16037e-05
6.74772e-05
7.941e-05
8.24791e-05
7.92657e-05
7.22698e-05
6.47722e-05
5.95328e-05
5.75519e-05
5.85455e-05
6.08877e-05
6.11923e-05
5.87105e-05
6.07561e-05
7.45928e-05
5.60454e-05
6.5785e-06
5.36788e-06
3.36408e-05
7.97945e-05
8.47635e-05
7.25679e-05
6.12526e-05
5.32802e-05
4.54726e-05
3.67549e-05
2.91429e-05
2.5834e-05
2.69757e-05
2.29867e-05
4.9966e-06
2.20981e-06
3.30713e-06
7.28085e-06
1.38842e-06
3.5099e-06
5.24042e-06
2.29319e-05
3.09787e-05
3.4553e-05
4.12991e-05
4.99074e-05
5.69001e-05
5.80428e-05
5.44202e-05
4.99076e-05
4.67826e-05
4.64035e-05
5.0494e-05
5.78291e-05
4.0413e-05
5.08675e-06
4.40074e-06
2.54986e-05
7.68222e-05
0.000106869
0.000109106
9.97101e-05
8.38219e-05
6.95856e-05
6.13703e-05
5.64594e-05
5.13199e-05
4.54875e-05
3.98433e-05
3.53431e-05
3.26993e-05
3.09015e-05
2.40981e-05
8.82794e-06
1.79402e-06
1.14043e-06
2.66373e-06
5.85239e-06
2.75515e-06
1.9004e-06
1.3113e-05
1.81554e-05
2.36143e-05
3.14965e-05
3.98913e-05
4.43057e-05
4.41138e-05
4.40859e-05
5.04854e-05
5.84628e-05
5.12658e-06
4.81154e-06
2.46377e-05
7.68316e-05
0.000119428
0.000118549
9.96569e-05
7.99767e-05
6.92106e-05
6.97619e-05
8.05383e-05
9.3412e-05
9.31366e-05
7.75064e-05
5.91582e-05
4.65422e-05
4.09559e-05
4.17386e-05
4.78555e-05
5.22608e-05
3.87777e-05
1.60625e-05
5.82469e-06
5.5049e-07
1.52939e-06
2.04253e-07
4.55741e-06
5.57592e-06
1.21407e-05
1.69853e-05
2.26444e-05
2.71734e-05
2.70466e-05
2.51708e-05
3.06484e-05
4.41858e-06
5.95393e-06
3.32901e-05
9.83209e-05
0.000115845
0.000105563
8.5048e-05
6.53257e-05
5.37909e-05
5.13151e-05
5.73804e-05
7.12977e-05
8.70058e-05
8.97438e-05
7.3906e-05
5.70424e-05
5.06848e-05
5.46931e-05
6.55329e-05
7.39667e-05
7.19976e-05
6.12532e-05
4.35441e-05
1.52254e-05
2.65333e-06
1.18856e-06
2.21638e-06
9.38864e-07
1.20985e-06
9.43883e-06
1.59468e-05
2.09289e-05
2.03748e-05
1.57793e-05
1.60544e-05
3.90202e-06
6.23086e-06
3.60459e-05
0.000101776
0.00012092
0.000112749
9.36647e-05
7.57762e-05
6.46e-05
5.95878e-05
5.93566e-05
6.29098e-05
6.83675e-05
7.2291e-05
7.14208e-05
6.60492e-05
6.08137e-05
6.02526e-05
6.5559e-05
7.4422e-05
8.16625e-05
8.23286e-05
7.56675e-05
6.28683e-05
4.23409e-05
1.40134e-05
6.30545e-06
2.13264e-06
3.20133e-07
1.71608e-06
8.83247e-06
1.67309e-05
1.64003e-05
1.14564e-05
1.16352e-05
3.63786e-06
6.09635e-06
3.43164e-05
9.86899e-05
0.000121805
0.000115179
9.70733e-05
7.73829e-05
6.30297e-05
5.55071e-05
5.3869e-05
5.71324e-05
6.43469e-05
7.37657e-05
8.25147e-05
8.76206e-05
8.83758e-05
8.79532e-05
9.13662e-05
0.000102199
0.000120858
0.000142024
0.000155963
0.000149675
0.000135815
0.00010311
6.05696e-05
2.44762e-05
7.94484e-06
3.19421e-06
4.32395e-06
9.21744e-06
1.39305e-05
1.18375e-05
1.21934e-05
3.63645e-06
5.96137e-06
2.91877e-05
8.2406e-05
0.00010813
0.0001082
9.9582e-05
8.67576e-05
7.2316e-05
5.98369e-05
5.2218e-05
5.0446e-05
5.46748e-05
6.48268e-05
7.97914e-05
9.63777e-05
0.000110258
0.000119135
0.000125137
0.000134086
0.000152209
0.000180497
0.000188617
0.000180888
0.000171749
0.000160863
0.000148842
0.000111465
5.99801e-05
2.29966e-05
9.11172e-06
7.02268e-06
8.25138e-06
8.73149e-06
1.13542e-05
3.61464e-06
5.90286e-06
2.84326e-05
8.63129e-05
0.000121846
0.000120264
0.000106543
9.06199e-05
7.64883e-05
6.43557e-05
5.445e-05
4.87413e-05
4.9113e-05
5.70167e-05
7.42189e-05
0.000101515
0.000135005
0.000165763
0.000187106
0.000200256
0.000211329
0.000207822
0.000203282
0.000198016
0.000191789
0.000184322
0.000175353
0.000165083
0.000139217
6.1651e-05
1.96363e-05
9.74208e-06
8.26251e-06
9.46898e-06
1.45454e-05
3.89053e-06
6.00691e-06
2.69223e-05
8.19368e-05
0.000117328
0.000116266
0.000102662
8.59542e-05
7.22483e-05
6.28688e-05
5.59045e-05
5.08484e-05
4.99365e-05
5.57645e-05
7.04927e-05
9.50909e-05
0.000126444
0.000157542
0.000183617
0.000204544
0.000215046
0.00021235
0.000209275
0.000205751
0.00020165
0.000196817
0.000191113
0.000184504
0.00017633
9.1848e-05
4.09003e-05
1.8686e-05
9.10294e-06
7.12383e-06
1.34097e-05
4.18803e-06
6.49971e-06
3.02869e-05
9.60483e-05
0.000124711
0.000113028
9.02799e-05
6.87598e-05
5.49456e-05
4.8761e-05
4.76063e-05
4.96646e-05
5.59676e-05
6.96629e-05
9.21114e-05
0.000117893
0.00013885
0.000153227
0.000163352
0.000171234
0.000178128
0.000184889
0.000192099
0.000199265
0.000202415
0.00019865
0.000194408
0.000189812
0.000129165
5.41153e-05
2.75165e-05
2.13784e-05
1.70367e-05
9.64095e-06
1.25862e-05
4.80629e-06
6.99603e-06
3.59875e-05
0.000108272
0.000123969
0.000109811
8.62507e-05
6.41286e-05
4.99986e-05
4.43765e-05
4.59745e-05
5.39935e-05
6.81814e-05
8.71136e-05
0.000106486
0.000122285
0.000133831
0.000142034
0.000147674
0.000151338
0.000153648
0.000155284
0.000156793
0.000158319
0.000158719
0.000156966
0.000157623
0.000156533
0.000116602
4.80063e-05
2.3902e-05
1.75889e-05
1.30288e-05
8.68746e-06
1.55027e-05
6.44763e-06
7.0456e-06
3.83953e-05
0.000105995
0.000116065
0.000103851
8.407e-05
6.46632e-05
5.07328e-05
4.36813e-05
4.37137e-05
5.15951e-05
6.8299e-05
9.25483e-05
0.000119332
0.000143288
0.000162068
0.000175569
0.000184431
0.00018956
0.000192059
0.000192907
0.000192388
0.000189993
0.000185675
0.000178455
0.000153386
7.87725e-05
2.77844e-05
1.80572e-05
1.99347e-05
2.06582e-05
1.65691e-05
1.75041e-05
4.77479e-05
8.15955e-06
6.62419e-06
3.44407e-05
0.000101707
0.000123169
0.000119263
0.000106225
8.85042e-05
7.00345e-05
5.51586e-05
4.61398e-05
4.32957e-05
4.71565e-05
5.97965e-05
8.41376e-05
0.000119408
0.000157358
0.0001895
0.000213108
0.0002139
0.000212406
0.000210464
0.000207981
0.000204855
0.00020098
0.000196327
0.000177369
4.86399e-05
1.58663e-05
1.20925e-05
1.9016e-05
2.48469e-05
2.34442e-05
3.34797e-05
7.62016e-05
8.16558e-06
6.29852e-06
3.14713e-05
9.7595e-05
0.000127975
0.000126605
0.000115971
0.000102715
8.86769e-05
7.36083e-05
5.90502e-05
4.80569e-05
4.25567e-05
4.40943e-05
5.60179e-05
8.37869e-05
0.000125766
0.000163016
0.000184444
0.000194984
0.000199751
0.000201089
0.000199654
0.000193657
0.000174468
0.000128956
7.28896e-05
3.54279e-05
1.64796e-05
1.0791e-05
1.58313e-05
3.14893e-05
4.40576e-05
5.98472e-05
5.33758e-05
6.94963e-06
6.28164e-06
2.94995e-05
9.13534e-05
0.000124317
0.000123249
0.000111945
9.89878e-05
8.92916e-05
8.31185e-05
7.59527e-05
6.3707e-05
5.0135e-05
4.16335e-05
4.15484e-05
5.35583e-05
8.37567e-05
0.000128224
0.000163442
0.00018113
0.000188214
0.000189282
0.00018611
0.00017898
0.000166121
0.000141686
0.000100079
5.43616e-05
2.49192e-05
1.22903e-05
1.00317e-05
1.67155e-05
3.69099e-05
6.44896e-05
4.04994e-05
6.21352e-06
6.57758e-06
3.22136e-05
0.000101678
0.000132049
0.00012626
0.000109241
9.0494e-05
7.66732e-05
7.04114e-05
7.05264e-05
7.1232e-05
6.38535e-05
5.03632e-05
4.18835e-05
4.41933e-05
6.21521e-05
0.000101285
0.000149627
0.000183145
0.00019836
0.000200668
0.000193356
0.000177472
0.000152095
0.000118014
8.31841e-05
5.65082e-05
3.7909e-05
2.30641e-05
1.34001e-05
1.14573e-05
1.95955e-05
4.61401e-05
3.82679e-05
6.46538e-06
6.86575e-06
3.53567e-05
0.000110096
0.000136872
0.000129157
0.000110898
9.15777e-05
7.65348e-05
6.72302e-05
6.35186e-05
6.38315e-05
6.33385e-05
5.63353e-05
4.67251e-05
4.43339e-05
5.56519e-05
8.66062e-05
0.000132093
0.00016952
0.000188719
0.000194334
0.000191475
0.000181013
0.000160289
0.000127682
8.96727e-05
5.9337e-05
4.19763e-05
3.18608e-05
2.19605e-05
1.37168e-05
1.27178e-05
2.425e-05
4.9799e-05
7.26523e-06
6.98581e-06
3.68561e-05
0.000113803
0.00013407
0.000120784
9.87872e-05
8.03079e-05
6.96801e-05
6.52285e-05
6.41328e-05
6.44081e-05
6.37586e-05
5.89333e-05
5.07141e-05
4.69477e-05
5.58516e-05
8.5019e-05
0.000131547
0.000170999
0.000190178
0.000194945
0.000192067
0.000181436
0.000158004
0.000118928
7.51546e-05
4.56051e-05
3.35276e-05
3.06245e-05
2.67774e-05
1.80292e-05
1.30521e-05
2.11774e-05
6.22932e-05
7.92192e-06
6.98317e-06
3.73184e-05
0.000116752
0.000134512
0.000118088
9.31096e-05
7.38338e-05
6.44404e-05
6.25878e-05
6.45128e-05
6.66781e-05
6.63549e-05
6.16751e-05
5.38064e-05
4.92481e-05
5.6683e-05
8.63695e-05
0.000141643
0.000193221
0.00019802
0.000197823
0.000197331
0.000196489
0.00017888
0.000114857
5.86139e-05
3.24732e-05
2.52223e-05
2.61605e-05
2.47959e-05
1.88145e-05
1.63788e-05
2.982e-05
5.52614e-05
8.26011e-06
7.00726e-06
3.87231e-05
0.000119534
0.000133767
0.000114044
8.68266e-05
6.73456e-05
5.87871e-05
5.86201e-05
6.33558e-05
6.854e-05
6.9881e-05
6.55667e-05
5.74973e-05
5.16393e-05
5.63693e-05
8.28836e-05
0.000141683
0.000194313
0.000194582
0.00019465
0.000194352
0.000193595
0.000178336
8.81404e-05
4.02467e-05
2.28223e-05
1.93211e-05
2.38138e-05
2.60443e-05
2.19699e-05
2.4142e-05
5.03701e-05
4.3419e-05
8.0765e-06
6.98566e-06
3.85721e-05
0.000117964
0.000131548
0.000112059
8.48964e-05
6.52837e-05
5.63076e-05
5.56594e-05
6.06542e-05
6.74737e-05
7.08613e-05
6.76507e-05
5.97112e-05
5.26964e-05
5.34707e-05
7.03206e-05
0.000113576
0.000173319
0.000191256
0.00019174
0.000191875
0.000191532
0.000154443
7.9996e-05
3.81424e-05
2.07474e-05
1.55487e-05
1.86764e-05
2.73283e-05
3.02212e-05
3.71324e-05
7.06978e-05
4.00636e-05
7.66442e-06
6.89228e-06
3.76698e-05
0.000116851
0.000132204
0.000112052
8.3379e-05
6.28792e-05
5.33505e-05
5.20076e-05
5.66016e-05
6.48667e-05
7.23375e-05
7.35036e-05
6.7034e-05
5.78692e-05
5.31657e-05
5.89414e-05
8.05292e-05
0.000117754
0.000154428
0.000175442
0.000179657
0.000166302
0.000132803
8.65068e-05
4.7259e-05
2.49768e-05
1.54226e-05
1.38273e-05
1.96952e-05
3.40197e-05
5.46661e-05
8.771e-05
3.82444e-05
7.25483e-06
6.80163e-06
3.58803e-05
0.000112273
0.000131192
0.000112923
8.38806e-05
6.22057e-05
5.18723e-05
4.98114e-05
5.34008e-05
6.09365e-05
6.97897e-05
7.52913e-05
7.3365e-05
6.51022e-05
5.68082e-05
5.50128e-05
6.38578e-05
8.49301e-05
0.000113224
0.000136304
0.000146164
0.000143253
0.000128855
0.000102317
6.78218e-05
3.82689e-05
2.108e-05
1.37939e-05
1.33988e-05
2.13993e-05
4.69526e-05
8.64144e-05
3.55664e-05
7.05832e-06
6.82776e-06
3.51679e-05
0.000108953
0.00012821
0.000109505
8.03072e-05
5.90888e-05
4.91454e-05
4.72855e-05
5.12267e-05
5.98877e-05
7.16421e-05
8.2511e-05
8.68188e-05
8.14494e-05
6.98389e-05
5.98779e-05
5.73584e-05
6.39796e-05
7.83215e-05
9.63083e-05
0.000112199
0.00012083
0.000119619
0.000107808
8.55723e-05
5.74006e-05
3.31709e-05
1.87366e-05
1.27631e-05
1.37546e-05
2.59282e-05
6.45918e-05
3.52377e-05
7.11474e-06
6.83567e-06
3.46432e-05
0.000108971
0.000128653
0.000107879
7.73929e-05
5.70437e-05
4.82658e-05
4.68318e-05
5.02709e-05
5.79424e-05
6.93485e-05
8.225e-05
9.2064e-05
9.40654e-05
8.71107e-05
7.5581e-05
6.63357e-05
6.33277e-05
6.61314e-05
7.23559e-05
8.11457e-05
9.22189e-05
0.000101809
0.000103017
9.19417e-05
7.06505e-05
4.6015e-05
2.63911e-05
1.53428e-05
1.18501e-05
1.66615e-05
4.26587e-05
3.67025e-05
7.27113e-06
6.91193e-06
3.47329e-05
0.000108458
0.000125429
0.000100676
6.93939e-05
5.13971e-05
4.5347e-05
4.64541e-05
5.21038e-05
6.16833e-05
7.53059e-05
9.15898e-05
0.000106259
0.000113761
0.000110789
9.89037e-05
8.43282e-05
7.34101e-05
6.79176e-05
6.48679e-05
6.13548e-05
5.95512e-05
6.29111e-05
7.10065e-05
7.68793e-05
7.05499e-05
5.19263e-05
3.16533e-05
1.80732e-05
1.22074e-05
1.40339e-05
3.37921e-05
3.93962e-05
7.38097e-06
7.06566e-06
3.62898e-05
0.000111673
0.000121337
9.11296e-05
6.12837e-05
4.69171e-05
4.371e-05
4.71005e-05
5.46822e-05
6.55643e-05
7.98372e-05
9.69919e-05
0.00011424
0.000127052
0.000131662
0.00012701
0.00011544
0.000101919
9.0743e-05
8.18462e-05
7.11931e-05
5.77147e-05
4.70585e-05
4.36658e-05
4.71266e-05
5.1819e-05
4.69569e-05
3.21924e-05
1.93508e-05
1.32937e-05
1.48476e-05
3.50911e-05
4.16663e-05
7.41219e-06
7.21997e-06
3.88928e-05
0.00011725
0.000117004
8.07773e-05
5.37471e-05
4.34218e-05
4.35255e-05
5.01327e-05
6.12286e-05
7.56866e-05
9.28128e-05
0.000111451
0.000129199
0.000142892
0.00014992
0.0001492
0.000141571
0.000129815
0.000117345
0.000105562
9.20848e-05
7.33643e-05
5.22e-05
3.6859e-05
3.06124e-05
3.14289e-05
3.35999e-05
2.82837e-05
1.89241e-05
1.40827e-05
1.71578e-05
4.2665e-05
4.03658e-05
7.2994e-06
7.34784e-06
4.17926e-05
0.000121036
0.000109779
7.10159e-05
4.80754e-05
4.12872e-05
4.4222e-05
5.35222e-05
6.69215e-05
8.29738e-05
0.000101257
0.000121131
0.000140678
0.000157173
0.00016831
0.000172873
0.000170902
0.000163723
0.00015342
0.000141213
0.000125257
0.000101316
7.02631e-05
4.28872e-05
2.70238e-05
2.12313e-05
2.16467e-05
2.28964e-05
1.9276e-05
1.59381e-05
2.09793e-05
5.40348e-05
3.63988e-05
7.00421e-06
7.41193e-06
4.40872e-05
0.000122548
0.000103689
6.48934e-05
4.52196e-05
4.08956e-05
4.61108e-05
5.84117e-05
7.55154e-05
9.44862e-05
0.000113363
0.000131592
0.00014874
0.000163634
0.000174624
0.000180292
0.000180119
0.000174923
0.000166527
0.000156388
0.000143727
0.000124636
9.52952e-05
6.08535e-05
3.43205e-05
2.0392e-05
1.55036e-05
1.59002e-05
1.77694e-05
1.86958e-05
2.62864e-05
6.28312e-05
3.35606e-05
6.2519e-06
7.45254e-06
4.59819e-05
0.000123928
9.88733e-05
6.04068e-05
4.30458e-05
4.04183e-05
4.6973e-05
6.05065e-05
7.9299e-05
0.000101107
0.000123471
0.000144447
0.000162806
0.000177664
0.000188062
0.000192867
0.000191245
0.000183501
0.000171546
0.000158051
0.000144449
0.000129419
0.000109368
8.19712e-05
5.19566e-05
2.91773e-05
1.70649e-05
1.27674e-05
1.34516e-05
1.76591e-05
2.89071e-05
6.47176e-05
3.27754e-05
5.74293e-06
7.43925e-06
4.66305e-05
0.000124039
9.63477e-05
5.82495e-05
4.21615e-05
4.07426e-05
4.89598e-05
6.47824e-05
8.55145e-05
0.000107759
0.000129185
0.000148792
0.000166061
0.000180378
0.000190881
0.000196471
0.000196034
0.000188971
0.000176031
0.000159678
0.000142964
0.000127393
0.000111706
9.29061e-05
6.93368e-05
4.44929e-05
2.54393e-05
1.50374e-05
1.1524e-05
1.34075e-05
2.30321e-05
5.43332e-05
3.51624e-05
5.71459e-06
7.45116e-06
4.72936e-05
0.000123873
9.24262e-05
5.51208e-05
4.04651e-05
3.98054e-05
4.86061e-05
6.58667e-05
9.01338e-05
0.000117877
0.00014486
0.000168224
0.000186789
0.000200263
0.000208628
0.000211904
0.000209946
0.000202191
0.000188008
0.000168009
0.000145192
0.000123734
0.00010592
9.05402e-05
7.41536e-05
5.47043e-05
3.48901e-05
2.01692e-05
1.26047e-05
1.12712e-05
1.7185e-05
4.14908e-05
3.90182e-05
6.03273e-06
7.39708e-06
4.67364e-05
0.000124366
8.98403e-05
5.34455e-05
4.02409e-05
4.05272e-05
5.02364e-05
6.85097e-05
9.33854e-05
0.000121437
0.000149597
0.000175767
0.000198282
0.000215636
0.00022669
0.000230949
0.000228382
0.000223029
0.000216691
0.00020149
0.000175369
0.000142415
0.000111437
8.78144e-05
7.08004e-05
5.60429e-05
3.99755e-05
2.44958e-05
1.43458e-05
1.0648e-05
1.38632e-05
3.2933e-05
4.07054e-05
6.37583e-06
7.45636e-06
4.71299e-05
0.00012496
8.21562e-05
4.87261e-05
3.85817e-05
4.00438e-05
5.01521e-05
7.02276e-05
0.000100159
0.000135551
0.000170744
0.000202474
0.000229009
0.000246533
0.000242359
0.000237586
0.000232274
0.000226486
0.000220297
0.000213807
0.000207168
0.000173209
0.000124701
8.45083e-05
5.87434e-05
4.38765e-05
3.40852e-05
2.44396e-05
1.55183e-05
1.10279e-05
1.32334e-05
3.17489e-05
3.72992e-05
6.47716e-06
7.56118e-06
4.83532e-05
0.000122596
6.80791e-05
4.18088e-05
3.76672e-05
4.30238e-05
5.50295e-05
7.55794e-05
0.000105568
0.000141778
0.000179364
0.000214962
0.000244384
0.000251123
0.000247051
0.000242328
0.000236998
0.000231106
0.000224705
0.000217866
0.000210691
0.00020334
0.000166738
0.000103795
5.95905e-05
3.60528e-05
2.51696e-05
2.00626e-05
1.56052e-05
1.22043e-05
1.4485e-05
3.47926e-05
3.42008e-05
6.22962e-06
7.73146e-06
5.07628e-05
0.000112517
5.24507e-05
3.41949e-05
3.58392e-05
4.65436e-05
6.2726e-05
8.58745e-05
0.000117244
0.000153681
0.000190439
0.000224562
0.000251893
0.000255314
0.000251446
0.000246893
0.000241696
0.000235893
0.000229528
0.000222655
0.000215352
0.000207739
0.000199604
0.000127434
6.85026e-05
3.57537e-05
2.05216e-05
1.49875e-05
1.38036e-05
1.37647e-05
1.80483e-05
4.21176e-05
3.22934e-05
5.76731e-06
7.72559e-06
5.01564e-05
9.70689e-05
4.21031e-05
2.90325e-05
3.44911e-05
5.12189e-05
7.31261e-05
9.69713e-05
0.000123428
0.000152284
0.000181833
0.000210354
0.000236129
0.000255652
0.000255687
0.000251442
0.000246531
0.000241
0.000234896
0.000228276
0.000221216
0.000213832
0.000206294
0.000157431
9.38069e-05
4.84521e-05
2.42657e-05
1.3921e-05
1.11708e-05
1.26152e-05
1.94572e-05
4.5552e-05
3.12714e-05
5.3532e-06
7.52292e-06
4.43035e-05
9.49572e-05
4.37775e-05
2.72483e-05
2.93123e-05
4.42238e-05
6.91925e-05
9.77473e-05
0.00012569
0.000152565
0.00017844
0.000202894
0.00022511
0.000243981
0.000257097
0.000255876
0.000251344
0.000246174
0.000240427
0.000234172
0.000227494
0.000220518
0.000213419
0.000172183
0.000117967
6.87707e-05
3.53239e-05
1.77922e-05
1.0861e-05
1.03161e-05
1.62362e-05
3.94891e-05
3.08087e-05
5.19334e-06
7.15886e-06
3.5551e-05
9.62765e-05
6.42934e-05
3.09347e-05
2.26567e-05
2.83218e-05
4.74597e-05
7.926e-05
0.000115465
0.000149056
0.000179379
0.000207503
0.000233633
0.000255904
0.000263037
0.000259647
0.000255545
0.000250781
0.000245417
0.000239529
0.000233209
0.00022658
0.000219808
0.000193643
0.000146047
9.48926e-05
5.29751e-05
2.65334e-05
1.37136e-05
9.68772e-06
1.25046e-05
2.94252e-05
3.24096e-05
5.24621e-06
6.98141e-06
3.11419e-05
8.84627e-05
9.33278e-05
4.84021e-05
2.2329e-05
1.82453e-05
2.7017e-05
5.13708e-05
9.46738e-05
0.000147988
0.00019971
0.000246789
0.00026875
0.000267565
0.000265496
0.000262593
0.000258909
0.000254506
0.000249456
0.000243839
0.000237751
0.000231303
0.000224633
0.000217925
0.000167996
0.000111084
6.48994e-05
3.41097e-05
1.73824e-05
1.06488e-05
1.13515e-05
2.49548e-05
3.43229e-05
5.31812e-06
7.10372e-06
3.19095e-05
9.61883e-05
0.000107858
6.99085e-05
2.92413e-05
1.68794e-05
1.9497e-05
3.59799e-05
7.52069e-05
0.000144749
0.00023035
0.000267455
0.000268217
0.00026793
0.000266627
0.000264363
0.000261208
0.000257238
0.000252535
0.000247189
0.000241296
0.000234967
0.000228335
0.000221569
0.000189201
0.000124428
7.1705e-05
3.81445e-05
1.99579e-05
1.20133e-05
1.17205e-05
2.43298e-05
3.54181e-05
5.24408e-06
7.53013e-06
3.71756e-05
0.000112758
0.00010325
5.96734e-05
3.05908e-05
1.88956e-05
1.98623e-05
3.49184e-05
7.37937e-05
0.000145627
0.000229522
0.00026632
0.000267545
0.000267805
0.000267073
0.000265367
0.000262732
0.000259233
0.000254941
0.000249938
0.000244309
0.00023816
0.000231622
0.000224866
0.000194553
0.000127451
7.29612e-05
3.9255e-05
2.14195e-05
1.34582e-05
1.29723e-05
2.57645e-05
3.56041e-05
5.04494e-06
7.80091e-06
4.34815e-05
0.000114512
9.01218e-05
4.83803e-05
2.71401e-05
2.0044e-05
2.32552e-05
4.11301e-05
8.16153e-05
0.000141292
0.000200971
0.000246135
0.000266817
0.000267406
0.000267094
0.000265854
0.000263698
0.000260666
0.00025681
0.000252193
0.000246886
0.000240988
0.000234629
0.000227998
0.000190061
0.000127475
7.42523e-05
4.02333e-05
2.24501e-05
1.47514e-05
1.44404e-05
2.75868e-05
3.60357e-05
4.82024e-06
7.71922e-06
4.58618e-05
0.000111657
9.5837e-05
5.87748e-05
3.23416e-05
2.17857e-05
2.2863e-05
3.73135e-05
6.95809e-05
0.000116013
0.000163908
0.00020407
0.000234801
0.000256725
0.000266371
0.000265721
0.000264171
0.000261735
0.000258446
0.000254348
0.000249498
0.000243986
0.000237943
0.000231551
0.000185535
0.000129095
7.79873e-05
4.2616e-05
2.36344e-05
1.5724e-05
1.5625e-05
2.89971e-05
3.66792e-05
4.64745e-06
7.50868e-06
4.61374e-05
0.000117578
0.000117915
9.25809e-05
5.42589e-05
2.96309e-05
2.15316e-05
2.56509e-05
4.39575e-05
8.02349e-05
0.000128386
0.000173956
0.000210136
0.000237822
0.000257658
0.000264385
0.000263674
0.000262046
0.000259519
0.000256118
0.000251893
0.000246928
0.000241355
0.000228788
0.000187801
0.000136378
8.5991e-05
4.75829e-05
2.56743e-05
1.64781e-05
1.61184e-05
2.92045e-05
3.72938e-05
4.55001e-06
7.34269e-06
4.48413e-05
0.000124636
0.000136488
0.000126388
9.92508e-05
5.66329e-05
2.98412e-05
2.12851e-05
2.48943e-05
4.2578e-05
8.06632e-05
0.000135079
0.000188258
0.000230929
0.000260005
0.000261373
0.000261783
0.000261216
0.000259674
0.000257175
0.000253764
0.000249517
0.000244552
0.000233324
0.000195153
0.000146974
9.6893e-05
5.49424e-05
2.89313e-05
1.74212e-05
1.61514e-05
2.84254e-05
3.76256e-05
4.51906e-06
7.35453e-06
4.55438e-05
0.000130694
0.000139309
0.000126921
0.00011569
9.91727e-05
6.0784e-05
3.15787e-05
2.17429e-05
2.49388e-05
4.33385e-05
8.55328e-05
0.000150919
0.000217858
0.000254169
0.00025677
0.000258403
0.000259011
0.000258576
0.000257108
0.000254646
0.000251251
0.000247018
0.000242073
0.000204683
0.000158079
0.000108657
6.3992e-05
3.35715e-05
1.90237e-05
1.62784e-05
2.73429e-05
3.81567e-05
4.52703e-06
7.42046e-06
4.72255e-05
0.000135193
0.000141033
0.000121414
0.000105521
0.000100468
9.35513e-05
6.07641e-05
3.19098e-05
2.24533e-05
2.73246e-05
5.02103e-05
0.00010236
0.00018203
0.000248037
0.000251541
0.000254187
0.000255843
0.000256449
0.00025599
0.000254488
0.000251988
0.000248566
0.000244333
0.000210679
0.000165405
0.000117588
7.24345e-05
3.88903e-05
2.13834e-05
1.7016e-05
2.70322e-05
3.91396e-05
4.54409e-06
7.55684e-06
4.97255e-05
0.000139586
0.000142101
0.000116916
9.56569e-05
8.78683e-05
8.93071e-05
8.40391e-05
5.39002e-05
2.99202e-05
2.40861e-05
3.43309e-05
6.84418e-05
0.000139794
0.000229132
0.000246617
0.000249876
0.000252281
0.000253708
0.000254102
0.000253455
0.000251791
0.000249163
0.000245659
0.000211148
0.000167549
0.000122414
7.87715e-05
4.40666e-05
2.43289e-05
1.85084e-05
2.78701e-05
4.05592e-05
4.54483e-06
7.69229e-06
5.35586e-05
0.000144225
0.000136646
0.000107263
8.85263e-05
8.32545e-05
8.5563e-05
8.60809e-05
7.07969e-05
4.27034e-05
2.77675e-05
2.96947e-05
5.2383e-05
0.000110599
0.000202075
0.00024269
0.000246138
0.000248918
0.000250854
0.000251849
0.000251861
0.000250887
0.00024896
0.000240931
0.000204486
0.000163929
0.00012258
8.20079e-05
4.81353e-05
2.74629e-05
2.07442e-05
3.00717e-05
4.19364e-05
4.52295e-06
7.80365e-06
5.78289e-05
0.000145145
0.000121347
8.97296e-05
7.76363e-05
7.96432e-05
8.63345e-05
8.75427e-05
7.50477e-05
5.14351e-05
3.36673e-05
3.07768e-05
4.72044e-05
9.58619e-05
0.000180463
0.000239775
0.000243096
0.000245933
0.000248084
0.000249421
0.000249876
0.000249423
0.000248075
0.000224973
0.000190953
0.00015535
0.000118816
8.23064e-05
5.0749e-05
3.04392e-05
2.35581e-05
3.34901e-05
4.2647e-05
4.48343e-06
7.81419e-06
6.20378e-05
0.000140303
0.000101419
7.35292e-05
6.92948e-05
7.86951e-05
8.98954e-05
9.02105e-05
7.52892e-05
5.379e-05
3.79474e-05
3.45632e-05
4.89511e-05
9.24733e-05
0.000166668
0.000232387
0.000240663
0.000243337
0.000245482
0.000246956
0.000247672
0.000247584
0.000227818
0.000201753
0.000173532
0.000143778
0.000112291
8.02264e-05
5.19381e-05
3.31113e-05
2.68548e-05
3.79987e-05
4.24633e-05
4.43923e-06
7.6637e-06
6.17698e-05
0.000131856
8.52791e-05
6.25246e-05
6.38502e-05
7.81466e-05
9.16911e-05
9.0921e-05
7.46448e-05
5.42509e-05
4.06104e-05
3.84291e-05
5.24078e-05
9.11829e-05
0.000151776
0.000205778
0.000232516
0.000239753
0.00024003
0.000236695
0.000228764
0.000215985
0.000199106
0.000179147
0.000156724
0.000131954
0.000104948
7.7105e-05
5.23028e-05
3.55562e-05
3.05492e-05
4.32802e-05
4.16211e-05
4.39859e-06
7.47431e-06
5.75849e-05
0.000124361
7.58012e-05
5.44708e-05
5.67124e-05
7.21522e-05
8.7784e-05
8.93431e-05
7.50088e-05
5.60986e-05
4.35805e-05
4.20565e-05
5.53665e-05
8.92344e-05
0.000139562
0.000185058
0.000209438
0.000215846
0.00021375
0.000208214
0.000200242
0.00018963
0.000176323
0.000160432
0.000142027
0.00012107
9.78267e-05
7.37675e-05
5.23203e-05
3.79091e-05
3.45834e-05
4.9042e-05
4.04919e-05
4.37579e-06
7.25437e-06
4.96009e-05
0.000117773
7.32347e-05
4.85146e-05
4.70958e-05
5.98934e-05
7.83004e-05
8.78696e-05
8.00331e-05
6.2243e-05
4.79535e-05
4.41513e-05
5.41232e-05
8.18248e-05
0.000124518
0.000165216
0.000188191
0.000194113
0.000191272
0.000185244
0.000177794
0.000168915
0.000158201
0.000145274
0.000129887
0.000111942
9.18013e-05
7.09365e-05
5.24191e-05
4.02527e-05
3.87228e-05
5.45884e-05
3.93683e-05
4.38185e-06
7.1138e-06
4.31108e-05
0.000110801
7.73635e-05
4.67594e-05
3.92365e-05
4.6228e-05
6.30336e-05
8.04338e-05
8.46149e-05
7.23435e-05
5.58599e-05
4.73278e-05
5.15356e-05
7.1677e-05
0.000107302
0.000145442
0.000169118
0.000175673
0.000172689
0.000166531
0.000159647
0.000152179
0.000143478
0.000132879
0.000119926
0.000104474
8.69269e-05
6.87308e-05
5.27093e-05
4.25933e-05
4.27851e-05
5.95293e-05
3.83593e-05