/*--------------------------------*- C++ -*----------------------------------*\
| =========                 |                                                 |
| \\      /  F ield         | OpenFOAM: The Open Source CFD Toolbox           |
|  \\    /   O peration     | Version:  v2006                                 |
|   \\  /    A nd           | Website:  www.openfoam.com                      |
|    \\/     M anipulation  |                                                 |
\*---------------------------------------------------------------------------*/
FoamFile
{
    version     2.0;
    format      ascii;
    class       volScalarField;
    location    "20";
    object      omega;
}
// * * * * * * * * * * * * * * * * * * * * * * * * * * * * * * * * * * * * * //

dimensions      [0 0 -1 0 0 0 0];


internalField   nonuniform List<scalar> 
78750
(
1515.12
206.949
132.19
45.7579
27.8169
33.3292
23.4794
29.2966
26.2599
27.3937
26.7479
26.6767
26.462
26.2564
26.045
25.8313
25.6189
25.4108
25.2056
25.0063
24.8168
24.6373
24.4682
24.3077
24.1512
23.9917
23.8198
23.6252
23.3945
23.1109
22.7517
22.2871
21.6629
20.7422
474.969
480.794
8.64577
13.9397
13.2587
17.6269
18.1572
18.929
18.9809
19.0725
19.0681
19.0441
18.9949
18.9272
18.8435
18.7464
18.6389
18.5236
18.4024
18.2751
18.1429
18.0072
17.8698
17.7349
17.6075
17.4901
17.3783
17.2605
17.1238
16.9581
16.7493
16.4702
16.0622
15.3797
14.0038
702.096
421.119
13.592
15.4906
16.4991
17.2254
17.8702
18.3521
18.7373
19.0325
19.245
19.382
19.4471
19.4474
19.3961
19.3062
19.1914
19.0625
18.9254
18.7826
18.635
18.4828
18.3272
18.171
18.0202
17.8842
17.7734
17.698
17.6636
17.6649
17.6767
17.6428
17.4557
16.8922
15.6009
706.686
416.298
7.61526
8.77267
9.48252
10.2368
11.3232
12.7226
14.3946
16.2397
17.846
18.8093
19.2318
19.3493
19.3184
19.2221
19.0986
18.9624
18.818
18.6653
18.503
18.3307
18.1517
17.9711
17.7967
17.6383
17.5061
17.4102
17.358
17.3513
17.3794
17.4056
17.3398
16.9745
16.0746
709.673
419.208
8.96941
9.41808
9.23751
8.59511
7.62924
6.4693
5.49571
5.0661
7.20762
10.2408
12.651
14.6369
16.2678
17.4076
18.0798
18.4412
18.6232
18.7036
18.718
18.6823
18.6046
18.4911
18.3513
18.1966
18.0393
17.8904
17.7585
17.6482
17.5562
17.4617
17.3039
16.9622
16.4852
712.53
429.967
11.816
11.6424
11.1179
9.92839
8.31699
6.57202
6.23803
8.50892
10.2268
11.6258
13.0187
14.3598
15.6121
16.6426
17.3711
17.8359
18.1229
18.3021
18.4155
18.4829
18.5134
18.5122
18.4833
18.4298
18.3553
18.2628
18.1537
18.0265
17.8748
17.6811
17.4091
17.0351
16.8306
714.049
424.952
9.61881
10.0196
10.5153
10.6509
10.8087
11.1066
11.6892
12.5221
13.4032
14.2583
15.0756
15.8276
16.483
17.0144
17.4148
17.7061
17.9159
18.0678
18.1785
18.26
18.3208
18.3664
18.4
18.4219
18.4296
18.4182
18.3793
18.2996
18.1578
17.9169
17.5322
17.0852
17.0602
715.123
427.391
12.9738
12.261
10.9923
10.6018
10.7697
10.8701
10.9711
11.2182
11.7436
12.5362
13.4586
14.3708
15.1913
15.8897
16.4635
16.9212
17.2754
17.5387
17.7309
17.869
17.9697
18.0488
18.1188
18.1876
18.2577
18.326
18.3837
18.4146
18.3898
18.258
17.964
17.6387
17.7337
716.36
426.858
14.0801
14.0142
13.105
12.046
11.78
11.5783
11.5131
11.6108
11.8988
12.4102
13.0945
13.7135
14.1535
14.4851
14.8256
15.2466
15.7255
16.1999
16.6318
17.0059
17.3099
17.5373
17.6964
17.8066
17.8901
17.9645
18.0394
18.1134
18.1705
18.1788
18.1196
18.0888
18.2658
716.927
426.905
16.0877
17.3989
17.868
17.8182
17.3304
16.5426
15.544
14.3553
12.9024
10.8428
8.83777
9.30195
11.3633
13.2398
14.4062
14.9435
15.1306
15.1852
15.254
15.44
15.7693
16.1757
16.5778
16.9328
17.2236
17.4485
17.6102
17.7101
17.7402
17.6757
17.5016
17.3257
17.3958
715.201
426.171
13.8538
14.9541
15.4641
15.8529
16.2229
16.5514
16.8574
17.0497
16.6097
14.6714
10.3369
5.63744
6.69099
9.35893
11.8603
13.8785
15.2213
15.8308
15.9402
15.8313
15.6838
15.6096
15.6788
15.9003
16.2225
16.5822
16.9381
17.2685
17.546
17.7192
17.7295
17.6693
17.8637
716.977
432.555
15.8415
16.5396
16.5385
16.0942
15.1228
13.6597
12.473
12.6354
13.0911
11.9826
9.08221
4.41649
3.91842
3.74805
8.91687
12.8997
15.0382
16.3288
16.9362
17.0431
16.8285
16.4475
16.0512
15.7603
15.6322
15.6662
15.8487
16.165
16.6019
17.1091
17.5878
18.0203
18.5249
718.578
436.831
17.0409
17.5142
17.5818
17.2918
16.3869
14.6502
12.3407
10.3443
9.24942
7.65649
5.1214
4.55502
4.48983
4.86443
7.6775
11.1749
13.3954
14.9247
16.2682
17.1424
17.5928
17.7873
17.8142
17.7303
17.5294
17.2103
16.856
16.5914
16.499
16.5945
16.8363
17.1535
17.5406
714.949
431.962
15.2573
15.9406
16.346
16.6806
16.8995
16.8151
16.1949
14.9704
13.3947
11.8164
10.1752
8.19704
5.69049
4.90683
4.95187
3.76191
4.29275
5.13952
5.35567
9.87908
12.2133
13.7613
15.2962
16.533
17.5422
18.251
18.6226
18.7098
18.6182
18.4347
18.1991
17.9197
17.5191
710.847
428.681
15.1201
16.0961
16.5198
16.7712
16.9679
17.1828
17.4459
17.6837
17.7393
17.4952
16.9468
16.115
14.9636
13.4614
11.7014
9.64539
6.86975
4.88887
4.55347
4.99865
5.47002
4.55217
4.08965
8.34268
10.6014
12.409
14.0206
15.3406
16.3284
17.0405
17.5591
17.8295
17.5855
710.907
430.432
15.7356
16.7669
17.1454
17.2965
17.3137
17.2084
17.006
16.8019
16.7031
16.7215
16.78
16.7726
16.5787
16.0639
15.1427
13.8797
12.455
11.0475
9.54914
7.49044
3.7673
4.34348
4.71808
3.92227
4.65355
5.17585
7.73612
9.4655
10.903
12.1595
13.2921
14.3738
15.1155
708.766
436.915
16.9813
17.3368
17.3918
17.3528
17.2457
17.067
16.8123
16.4941
16.155
15.8492
15.597
15.3721
15.1117
14.7148
14.0947
13.2861
12.4178
11.5353
10.5853
9.50949
8.21072
6.35453
4.84837
4.49455
4.76373
4.12366
4.06266
6.69289
8.40555
9.65196
10.8163
12.1041
13.2943
707.289
437.796
16.6748
17.0227
17.1645
17.215
17.1782
17.0481
16.8426
16.5993
16.3397
16.0649
15.7702
15.4461
15.0764
14.6409
14.1258
13.54
12.9165
12.2772
11.6136
10.8813
10.0501
9.1018
7.94713
6.23608
5.65269
4.63503
3.97416
4.4873
6.85236
8.55655
9.71167
10.925
12.3077
706.558
437.038
17.0621
17.5688
17.7497
17.8087
17.77
17.6259
17.3772
17.0577
16.7207
16.4044
16.1161
15.8412
15.558
15.2436
14.8773
14.4475
13.9618
13.439
12.9016
12.3566
11.7854
11.14
10.424
9.63989
8.68391
7.33884
5.78861
5.05408
5.87529
7.66056
9.42068
10.9695
12.3001
706.58
437.079
16.9998
17.5331
17.7482
17.8494
17.8749
17.8302
17.707
17.4937
17.2044
16.8889
16.5982
16.35
16.1312
15.9177
15.6864
15.4178
15.0972
14.7236
14.3137
13.8982
13.4729
12.9997
12.4441
11.7894
11.0763
10.325
9.41384
8.14992
7.1184
7.08793
8.10602
9.98419
11.8784
706.544
437.161
17.2765
17.8801
18.0943
18.1697
18.1503
18.0413
17.8461
17.5731
17.2334
16.8584
16.5056
16.2192
16.002
15.8311
15.6803
15.5287
15.3604
15.1641
14.9365
14.6805
14.393
14.0629
13.6763
13.2168
12.6709
12.0557
11.3961
10.5428
9.27688
8.45651
8.6308
10.2255
12.2649
707.414
439.046
17.7182
18.2453
18.4228
18.4711
18.4262
18.2886
18.0608
17.7604
17.4046
17.0104
16.6229
16.2969
16.0516
15.8696
15.7232
15.5901
15.4555
15.3111
15.1538
14.979
14.7811
14.5561
14.297
13.9948
13.6429
13.2422
12.7901
12.2129
11.3679
10.1798
9.05367
9.49976
12.0107
708.349
442.772
18.2241
18.4621
18.4869
18.4153
18.2429
17.95
17.5513
17.1238
16.7414
16.4172
16.1441
15.9282
15.769
15.6486
15.5457
15.4446
15.3354
15.2126
15.0735
14.9176
14.7441
14.5525
14.339
14.0983
13.8308
13.5464
13.203
12.6802
12.2466
11.9761
11.3548
10.3487
11.5802
710.275
446.407
18.575
18.6393
18.6191
18.5154
18.2843
17.8791
17.3146
16.7272
16.2786
16.0092
15.8595
15.7654
15.6922
15.6234
15.5502
15.4673
15.3706
15.2569
15.1245
14.9727
14.8006
14.6079
14.3963
14.166
13.9202
13.6701
13.3699
12.8814
12.5087
12.4102
11.9798
11.0481
12.4957
715.116
446.515
18.5076
18.6452
18.6918
18.6471
18.4655
18.0941
17.5194
16.8344
16.2224
15.8134
15.5968
15.4934
15.4373
15.3924
15.3414
15.2758
15.1913
15.0852
14.9565
14.8057
14.6324
14.4372
14.2231
14
13.7605
13.4252
12.8493
12.9907
13.8172
14.0408
13.6011
13.7174
15.6722
719.801
443.558
18.0777
18.4682
18.6758
18.7936
18.8177
18.7166
18.438
17.9397
17.2659
16.5655
15.9972
15.6315
15.4373
15.3412
15.2843
15.2344
15.1762
15.1005
15.0003
14.8711
14.7073
14.5024
14.25
13.9489
13.5787
12.994
12.1325
12.6048
14.5172
15.2395
15.163
15.7234
17.2805
719.566
441.585
18.1404
18.6745
18.9227
19.0697
19.1455
19.1436
19.0373
18.7745
18.2911
17.5778
16.7423
15.9809
15.4558
15.1798
15.0587
15.0031
14.9653
14.923
14.8654
14.7876
14.6854
14.5519
14.3732
14.1128
13.707
13.1028
12.3982
12.3767
14.2486
15.996
16.3818
16.6877
17.3951
716.082
442.106
18.1612
18.6581
18.8888
19.0207
19.0862
19.0878
19.0236
18.8875
18.6486
18.2317
17.5658
16.7025
15.868
15.2978
15.0144
14.8966
14.8437
14.8081
14.7674
14.7102
14.6312
14.5245
14.3827
14.188
13.9005
13.4509
12.8119
12.2259
12.6019
14.4788
16.0033
16.5538
16.9644
714.108
444.114
18.3497
18.6965
18.8608
18.9433
18.9516
18.8713
18.6915
18.4293
18.1284
17.803
17.3895
16.7832
16.0053
15.3073
14.8952
14.7227
14.6606
14.6347
14.6158
14.5913
14.555
14.5047
14.4359
14.3412
14.2025
13.9982
13.7043
13.2749
12.7947
12.9915
14.4162
15.5329
16.2691
714.955
446
18.603
18.8468
18.9751
19.0442
19.0483
18.9619
18.7541
18.4136
17.9755
17.5066
17.0379
16.5238
15.8987
15.2561
14.8217
14.6279
14.5568
14.5262
14.5035
14.4758
14.4379
14.3886
14.3292
14.2582
14.1718
14.0765
14.0151
13.9771
13.7752
13.3152
13.3425
14.5297
15.9523
717.853
446.878
18.592
18.7511
18.8438
18.8912
18.8788
18.7783
18.5636
18.227
17.784
17.274
16.7387
16.1836
15.5832
14.979
14.5576
14.3832
14.3345
14.3217
14.3126
14.2947
14.2623
14.2136
14.1478
14.0604
13.9402
13.794
13.7972
14.1295
14.4621
14.2979
13.7442
14.6457
16.6893
721.388
447.132
18.5532
18.6904
18.7679
18.796
18.7553
18.6161
18.3635
18.011
17.5812
17.0932
16.565
16.0042
15.4059
14.8078
14.3691
14.1881
14.1465
14.1413
14.1376
14.1232
14.0898
14.0339
13.9568
13.8468
13.6696
13.4496
13.5102
14.1067
14.7547
14.9797
14.7901
15.6396
17.7015
722.957
447.183
18.6076
18.7297
18.7866
18.789
18.7103
18.5124
18.1831
17.7582
17.2841
16.782
16.2527
15.6925
15.1044
14.5287
14.0951
13.9195
13.8997
13.9159
13.9315
13.9346
13.9149
13.8667
13.7888
13.6577
13.4213
13.1709
13.348
14.2515
15.139
15.5954
15.8959
16.6753
18.1746
721.481
447.017
18.5499
18.6757
18.7391
18.7509
18.6845
18.4983
18.171
17.7314
17.235
16.7163
16.1751
15.5964
14.9792
14.3702
13.8929
13.6742
13.6548
13.6937
13.7343
13.7634
13.7717
13.7512
13.6948
13.5804
13.3686
13.1034
13.1367
14.0123
15.2699
16.0371
16.538
17.129
18.0211
718.897
446.208
18.4677
18.6364
18.7121
18.728
18.6641
18.4836
18.1648
17.7262
17.216
16.6812
16.1374
15.5688
14.9545
14.3131
13.7515
13.4278
13.3646
13.4262
13.5083
13.5775
13.6252
13.6459
13.6325
13.5707
13.4342
13.2065
13.0236
13.3798
14.5801
15.8198
16.5196
16.9939
17.5666
717.036
445.688
18.5467
18.766
18.8535
18.8703
18.8047
18.6266
18.3239
17.9174
17.4382
16.9168
16.374
15.8073
15.1934
14.5172
13.8317
13.3024
13.0735
13.0893
13.202
13.3249
13.4299
13.5089
13.5567
13.5659
13.5225
13.4014
13.1989
13.0947
13.5765
14.7884
15.8479
16.4092
16.9976
716.547
445.899
18.6401
18.859
18.9441
18.9552
18.8779
18.6787
18.351
17.9323
17.4661
16.9807
16.4898
15.9898
15.4575
14.8563
14.1642
13.4466
12.9002
12.6791
12.7248
12.8904
13.0767
13.2402
13.3657
13.4494
13.488
13.4705
13.3736
13.2003
13.1355
13.6732
14.8004
15.6398
16.5773
717.391
446.196
18.7345
18.9644
19.0547
19.0673
18.9871
18.7832
18.4591
18.0519
17.5964
17.1184
16.6356
16.1531
15.6593
15.1273
14.522
13.8273
13.1071
12.541
12.2783
12.3053
12.5122
12.7815
13.0284
13.2192
13.352
13.4298
13.4447
13.3772
13.2351
13.2583
13.992
15.0778
16.484
718.615
447.017
18.9535
19.1516
19.2166
19.1988
19.0721
18.8056
18.4336
18.0177
17.587
17.1512
16.7184
16.2917
15.8627
15.4114
14.9077
14.3177
13.6235
12.8795
12.2361
11.8357
11.7266
11.8881
12.2328
12.6162
12.9291
13.146
13.2783
13.3332
13.3127
13.3044
13.7554
14.9308
16.6049
719.257
448.336
19.118
19.2537
19.297
19.2609
19.1014
18.7897
18.3857
17.9623
17.5423
17.1251
16.7119
16.3063
15.9053
15.4969
15.0627
14.5812
14.0323
13.4123
12.7624
12.1687
11.7131
11.4557
11.4667
11.7788
12.2709
12.7318
13.052
13.2325
13.3139
13.4401
13.9499
15.1314
16.7852
719.106
449.431
19.2296
19.301
19.3151
19.2501
19.0448
18.6873
18.2679
17.8602
17.478
17.1126
16.7562
16.4049
16.0535
15.693
15.311
14.894
14.428
13.9069
13.3414
12.7641
12.2181
11.737
11.3647
11.2139
11.4402
12.012
12.634
13.057
13.2569
13.4759
14.1386
15.285
16.7675
718.138
450.203
19.3013
19.3218
19.3115
19.2214
18.9807
18.6002
18.185
17.7943
17.4309
17.0853
16.7523
16.4286
16.1095
15.7869
15.4507
15.09
14.6949
14.2606
13.7904
13.2991
12.8042
12.3156
11.8338
11.3902
11.1371
11.3366
12.0368
12.8368
13.3232
13.601
14.223
15.2016
16.4301
716.292
450.239
19.2635
19.2643
19.245
19.1472
18.9034
18.5405
18.1613
17.8152
17.4996
17.2012
16.9109
16.6237
16.3363
16.0447
15.7426
15.4214
15.0718
14.6872
14.2673
13.8214
13.3659
12.9129
12.4584
11.9865
11.5133
11.1901
11.3495
12.1445
13.0874
13.6863
14.2246
14.9366
15.8654
714.116
450.093
19.2165
19.2042
19.1767
19.0754
18.8415
18.5097
18.1643
17.8395
17.5364
17.2508
16.9781
16.7135
16.4524
16.1905
15.9223
15.6406
15.3373
15.0042
14.6353
14.2326
13.8089
13.3842
12.9708
12.5637
12.1411
11.6961
11.3469
11.458
12.265
13.2682
13.9774
14.5443
15.281
712.739
449.584
19.135
19.1316
19.106
19.0116
18.8045
18.5278
18.2517
17.9896
17.7315
17.471
17.2066
16.9389
16.6689
16.3966
16.1202
15.8357
15.5383
15.2215
14.8779
14.5031
14.1007
13.6875
13.288
12.9188
12.5724
12.2196
11.8338
11.5023
11.601
12.4103
13.3714
14.0638
14.895
712.728
449.379
19.0873
19.0731
19.0381
18.9396
18.7456
18.5025
18.2688
18.0512
17.8379
17.6217
17.3986
17.166
16.9222
16.6662
16.3961
16.1106
15.8081
15.4866
15.1418
14.7671
14.3567
13.9153
13.4685
13.057
12.7077
12.4142
12.1341
11.8227
11.5818
11.8611
12.8062
13.7473
14.8592
713.667
448.873
19.0194
19.0159
18.9816
18.8911
18.7299
18.5421
18.371
18.208
18.0353
17.847
17.6432
17.4248
17.1924
16.945
16.6795
16.393
16.0822
15.748
15.3973
15.0332
14.6463
14.2185
13.7416
13.2441
12.7956
12.4559
12.215
11.9956
11.7404
11.7083
12.4604
13.6159
15.0103
714.614
449.347
19.1098
19.0428
18.9618
18.8467
18.703
18.5474
18.4121
18.291
18.1616
18.0137
17.8457
17.6576
17.4498
17.2195
16.9574
16.6582
16.3258
15.9642
15.5783
15.1744
14.7618
14.3283
13.8316
13.2432
12.6244
12.145
11.9375
11.915
11.857
11.8002
12.3735
13.5929
15.1215
714.838
450.417
19.1783
18.9896
18.8315
18.6997
18.634
18.5712
18.5015
18.4269
18.3347
18.218
18.0771
17.9137
17.7279
17.5115
17.2554
16.9588
16.6247
16.2562
15.8566
15.4308
14.9852
14.5299
14.0483
13.4702
12.7344
11.9702
11.5269
11.6005
11.8718
12.0353
12.5187
13.6194
15.0596
714.086
452.25
19.2924
18.9111
18.6267
18.4735
18.5223
18.5722
18.5714
18.5393
18.4807
18.395
18.2829
18.1451
17.9805
17.7803
17.5366
17.2503
16.9241
16.5607
16.163
15.7348
15.2812
14.8098
14.3327
13.7864
13.0488
12.1209
11.2876
11.0748
11.5538
12.1418
12.7358
13.625
14.8096
712.761
453.061
19.1432
18.6074
18.2125
18.0621
18.2823
18.5103
18.6284
18.664
18.6453
18.5862
18.4932
18.37
18.2168
18.0319
17.808
17.5403
17.2314
16.8845
16.5026
16.0894
15.6503
15.1925
14.7268
14.2231
13.5969
12.7613
11.7597
10.9785
11.0115
11.7569
12.6007
13.4114
14.4119
711.6
452.113
18.9109
18.3993
17.9703
17.6871
17.8752
18.2388
18.5076
18.657
18.7184
18.7159
18.6637
18.57
18.4386
18.2711
18.0673
17.8235
17.5372
17.2118
16.8511
16.4597
16.043
15.6091
15.1691
14.7044
14.1588
13.461
12.552
11.5268
10.867
11.1345
12.0549
12.9688
14.0154
711.173
449.784
18.8235
18.5099
18.1274
17.5806
17.2665
17.5643
18.0447
18.3944
18.5964
18.6936
18.7146
18.6756
18.5866
18.454
18.2809
18.0649
17.8046
17.5034
17.1654
16.7956
16.3998
15.9859
15.5644
15.1322
14.6548
14.0762
13.3308
12.3837
11.4093
10.9806
11.5393
12.5542
13.7925
711.334
448.793
19.2286
19.0991
18.8059
18.2184
17.1872
16.718
17.2035
17.832
18.265
18.5152
18.6433
18.6849
18.6608
18.58
18.4448
18.2578
18.0224
17.7426
17.4229
17.0687
16.686
16.282
15.8657
15.4486
15.0027
14.4649
13.782
12.9185
11.9492
11.2339
11.4014
12.4036
13.7722
711.523
450.08
19.6111
19.5216
19.3104
18.881
17.8325
16.4788
16.4793
17.2108
17.8491
18.2478
18.4714
18.5891
18.6333
18.611
18.5247
18.3781
18.1757
17.9225
17.6239
17.2856
16.9141
16.5163
16.1012
15.6794
15.2391
14.7236
14.061
13.2283
12.3065
11.5574
11.5166
12.4126
13.7642
711.288
453.916
19.9355
19.6512
19.3788
18.9283
18.0366
16.679
16.371
17.0396
17.7061
18.1256
18.3651
18.5081
18.5869
18.6033
18.5561
18.4467
18.2785
18.0557
17.7832
17.4664
17.1111
16.7241
16.314
15.8917
15.4501
14.9332
14.2618
13.4213
12.5266
11.8216
11.7001
12.4364
13.667
710.712
456.295
19.9694
19.577
19.2455
18.6794
17.6984
16.6441
16.4601
17.0898
17.6798
18.0572
18.2934
18.4452
18.5384
18.5776
18.5586
18.4801
18.3433
18.1509
17.9065
17.6144
17.2794
16.908
16.5086
16.0932
15.6518
15.1309
14.4578
13.6089
12.7094
12.0305
11.8689
12.4386
13.5184
710.078
454.83
19.8249
19.6431
19.4368
18.9638
18.0261
16.8768
16.4187
16.8696
17.4327
17.8409
18.1186
18.3087
18.434
18.5029
18.5173
18.4757
18.3769
18.222
18.0135
17.754
17.4477
17.1004
16.7205
16.3203
15.8841
15.3621
14.6953
13.8426
12.9039
12.1894
11.9928
12.4369
13.3917
709.597
451.512
19.6489
19.7851
19.8165
19.6453
19.0711
17.8965
16.6335
16.3582
16.8022
17.3193
17.7139
17.9941
18.1905
18.3196
18.3878
18.3981
18.3509
18.2461
18.0848
17.8688
17.6013
17.2879
16.937
16.5576
16.1343
15.6261
14.9818
14.1454
13.1628
12.3441
12.0752
12.4389
13.3163
709.328
449.143
19.5635
19.899
20.1046
20.2005
20.0811
19.4732
18.055
16.5429
16.0864
16.4761
17.0226
17.4568
17.7699
17.9899
18.1349
18.2167
18.2386
18.1993
18.0991
17.9392
17.7224
17.4538
17.1409
16.7907
16.3902
15.9062
15.2943
14.4911
13.4878
12.5375
12.1432
12.4523
13.2954
709.245
448.758
19.5008
19.8394
20.0753
20.2607
20.3502
20.2423
19.646
18.1232
16.4241
15.8367
16.2118
16.7778
17.2271
17.5459
17.7719
17.9316
18.0303
18.0648
18.0341
17.9388
17.7816
17.5664
17.2994
16.9886
16.6232
16.173
15.6019
14.8495
13.8661
12.8137
12.2489
12.4915
13.3186
709.269
449.055
19.4919
19.8084
20.0337
20.2216
20.3476
20.3598
20.1826
19.5383
17.9447
16.219
15.7241
16.144
16.6852
17.0926
17.3814
17.6003
17.7643
17.8659
17.9014
17.8702
17.7737
17.615
17.3991
17.1329
16.8078
16.3967
15.869
15.1723
14.2393
13.1501
12.4264
12.5766
13.378
709.319
449.861
19.5847
19.8477
20.0429
20.2058
20.3097
20.3074
20.169
19.848
19.0585
17.3828
15.9219
15.7638
16.2376
16.701
17.0306
17.2817
17.487
17.6377
17.7264
17.75
17.7082
17.6028
17.4372
17.2169
16.9335
16.5626
16.0785
15.4355
14.5691
13.5015
12.6692
12.7017
13.4487
709.321
450.61
19.5803
19.7741
19.9478
20.1117
20.2208
20.2124
20.0591
19.7576
19.2409
18.192
16.5686
15.7651
15.9801
16.4202
16.7621
17.0234
17.2427
17.419
17.5415
17.6043
17.6051
17.5439
17.423
17.2444
16.9987
16.6657
16.2224
15.6296
14.8282
13.8185
12.9451
12.8597
13.5228
709.262
451.462
19.5227
19.6061
19.7381
19.893
20.0004
19.9823
19.8187
19.5118
19.0289
18.247
16.9822
15.951
15.9018
16.2573
16.5797
16.8298
17.0423
17.2235
17.3608
17.4464
17.4761
17.4485
17.3645
17.2216
17.0082
16.7094
16.3047
15.7594
15.0208
14.0808
13.2161
13.033
13.5924
709.155
451.543
19.3091
19.3136
19.4219
19.5858
19.6936
19.6551
19.4717
19.1534
18.6686
17.9443
16.9523
16.0647
15.9176
16.1859
16.467
16.6911
16.8834
17.0548
17.1922
17.287
17.3336
17.3295
17.2723
17.156
16.9708
16.7038
16.3359
15.8352
15.1564
14.2926
13.4701
13.2204
13.6701
709.036
450.555
18.9285
18.897
18.9978
19.1882
19.3239
19.2983
19.1234
18.8123
18.3345
17.6413
16.7771
16.0623
15.9075
16.1086
16.3487
16.5537
16.7302
16.8853
17.0151
17.1114
17.1686
17.182
17.1462
17.0544
16.897
16.6615
16.3295
15.8722
15.2514
14.4656
13.7054
13.4162
13.7571
708.926
449.306
18.5664
18.4944
18.5591
18.7473
18.9247
18.9477
18.8099
18.5254
18.0706
17.4123
16.6211
15.9993
15.8334
15.9766
16.1817
16.3691
16.5343
16.6813
16.8085
16.9101
16.9793
17.0097
16.995
16.9274
16.7972
16.5924
16.2957
15.8814
15.3188
14.612
13.9245
13.6205
13.8609
708.866
448.181
18.2757
18.1596
18.1535
18.2752
18.48
18.5962
18.5523
18.3513
17.979
17.3974
16.6401
15.9682
15.6917
15.7524
15.9244
16.1018
16.2657
16.4162
16.5517
16.6667
16.7541
16.8063
16.8163
16.7754
16.6741
16.5011
16.2405
15.8702
15.3658
14.7365
14.1227
13.8184
13.9759
708.887
447.785
18.213
18.0656
17.9845
17.9707
18.0883
18.2443
18.2943
18.193
17.9318
17.4776
16.8059
16.0627
15.588
15.4992
15.6119
15.773
15.9363
16.0935
16.242
16.3762
16.4879
16.5683
16.6082
16.5982
16.5291
16.3903
16.1679
15.8429
15.3966
14.8418
14.2988
14.0048
14.103
709.016
447.293
18.2154
18.1175
18.0217
17.897
17.818
17.8839
17.9908
18.0016
17.8708
17.5733
17.0619
16.3463
15.6672
15.3306
15.3098
15.4209
15.5687
15.7254
15.8846
16.0395
16.1798
16.294
16.3696
16.3957
16.3629
16.2614
16.0788
15.7994
15.4094
14.9236
14.4456
14.1689
14.2327
709.245
447.316
18.4854
18.4989
18.4456
18.29
18.0137
17.7896
17.761
17.8018
17.7666
17.6006
17.2658
16.7108
15.9837
15.378
15.1201
15.1127
15.2104
15.3473
15.5038
15.6712
15.8382
15.9881
16.1039
16.1712
16.1791
16.1181
15.9775
15.7443
15.4085
14.9862
14.567
14.3134
14.3662
709.563
447.191
18.7199
18.8565
18.8825
18.7992
18.5327
18.0898
17.7535
17.6593
17.6475
17.5716
17.3734
17.0052
16.4132
15.6962
15.1632
14.9422
14.9264
15.0063
15.1355
15.2979
15.4798
15.6609
15.8177
15.9295
15.9816
15.9636
15.8661
15.6787
15.3945
15.0301
14.6642
14.4375
14.4971
709.931
448.262
19.101
19.2356
19.2811
19.2586
19.112
18.7211
18.1681
17.7908
17.6537
17.5814
17.4511
17.2061
16.7855
16.155
15.4702
14.9964
14.7937
14.7647
14.8296
14.9567
15.1296
15.3273
15.5197
15.6763
15.7749
15.8021
15.7487
15.6065
15.3714
15.0604
14.7442
14.5486
14.6291
710.325
450.217
19.3952
19.3776
19.347
19.3102
19.2689
19.0988
18.6646
18.1502
17.8338
17.6834
17.5543
17.3618
17.0516
16.5652
15.911
15.2771
14.8625
14.6763
14.6378
14.6943
14.8239
15.0092
15.2209
15.417
15.5624
15.6362
15.6276
15.5297
15.3407
15.0785
14.8084
14.6459
14.7547
710.694
453.746
19.8162
19.5241
19.3241
19.1743
19.1635
19.1576
18.949
18.5442
18.1692
17.9321
17.7566
17.5587
17.2878
16.8921
16.3334
15.6755
15.1092
14.7571
14.5899
14.5488
14.603
14.74
14.9391
15.1574
15.3443
15.4647
15.5018
15.4484
15.3042
15.0881
14.8618
14.7339
14.8744
711.004
457.02
19.9701
19.4007
19.0273
18.7869
18.8729
19.0151
18.9795
18.7597
18.4741
18.2288
18.0205
17.802
17.535
17.1771
16.6862
16.0683
15.4409
14.9587
14.6648
14.5186
14.4818
14.5432
14.6948
14.9063
15.1206
15.2842
15.3673
15.3589
15.2591
15.0871
14.9027
14.8087
14.978
711.205
458.566
19.8726
19.1214
18.6148
18.3557
18.621
18.9147
19.0006
18.9166
18.7384
18.532
18.3209
18.0913
17.8206
17.4775
17.0269
16.4569
15.827
15.2653
14.8581
14.6029
14.4673
14.4361
14.5096
14.6769
14.8918
15.088
15.2162
15.2546
15.2009
15.0739
14.9311
14.8702
15.0631
711.298
456.993
19.5386
18.8208
18.2479
17.8505
18.1333
18.6018
18.8725
18.952
18.9003
18.7695
18.5923
18.3761
18.1135
17.7847
17.3638
16.8352
16.2267
15.6284
15.1358
14.7816
14.5478
14.4184
14.3959
14.4858
14.6659
14.8745
15.0425
15.129
15.1232
15.0421
14.9408
14.9116
15.1223
711.297
454.403
19.5217
19.0586
18.5208
17.7308
17.4277
17.8986
18.4258
18.7412
18.8686
18.8638
18.768
18.6046
18.381
18.0894
17.7131
17.237
16.6697
16.0681
15.5176
15.0746
14.744
14.5134
14.3821
14.3655
14.4682
14.6516
14.8423
14.9755
15.0225
14.9921
14.935
14.9379
15.1643
711.285
452.496
19.7727
19.5968
19.224
18.3472
17.0925
16.8687
17.5203
18.1454
18.5282
18.7123
18.753
18.6895
18.5428
18.3174
18.0058
17.5957
17.0874
16.5149
15.9456
15.4436
15.034
14.7143
14.4817
14.3502
14.3427
14.4563
14.6346
14.7983
14.8948
14.9169
14.9066
14.9436
15.19
711.311
451.768
19.99
20.0527
19.917
19.3752
17.9674
16.4346
16.4608
17.2492
17.9085
18.3096
18.5145
18.5811
18.5424
18.4126
18.1911
17.8698
17.4459
16.9378
16.393
15.8701
15.4063
15.0129
14.6923
14.4539
14.3241
14.3286
14.45
14.6158
14.7503
14.8232
14.8611
14.9342
15.2061
711.38
451.143
19.9455
20.1562
20.2122
20.0149
19.2177
17.3445
15.9104
16.2028
17.0398
17.6737
18.0586
18.2672
18.3495
18.3285
18.2092
17.9885
17.6647
17.2488
16.7722
16.2799
15.8074
15.3744
14.9901
14.6659
14.4259
14.3048
14.3241
14.4469
14.5927
14.7048
14.7869
14.8959
15.1978
711.441
450.706
19.9093
20.1696
20.3191
20.3295
20.0208
18.9345
16.7698
15.4885
15.9377
16.7677
17.3616
17.7302
17.943
18.0362
18.0232
17.9066
17.6888
17.3794
17.0003
16.5817
16.1503
15.7253
15.319
14.944
14.6231
14.3942
14.2958
14.3335
14.452
14.5803
14.6959
14.8373
15.1693
711.434
450.811
19.908
20.1441
20.2968
20.3622
20.2424
19.7515
18.3706
16.0672
15.0808
15.7048
16.4924
17.0386
17.3868
17.5939
17.6865
17.6739
17.5615
17.3589
17.0829
16.753
16.3882
16.0039
15.612
15.2246
14.8609
14.5557
14.3559
14.2929
14.348
14.461
14.5904
14.7535
15.1047
711.267
451.333
19.8607
20.0385
20.1589
20.183
20.0198
19.6085
18.8156
17.1517
15.1152
14.873
15.6495
16.3376
16.7987
17.0976
17.2775
17.3547
17.336
17.2299
17.0484
16.805
16.5129
16.1842
15.8291
15.4581
15.0871
14.7451
14.4769
14.3275
14.3067
14.3786
14.4983
14.6646
15.0134
710.953
450.301
19.5304
19.7443
19.8995
19.9274
19.7042
19.1992
18.4463
17.3202
15.568
14.4846
14.9815
15.7212
16.254
16.615
16.8569
17.0018
17.0578
17.031
16.9295
16.7624
16.5392
16.2692
15.9607
15.6224
15.2674
14.9191
14.6162
14.406
14.3165
14.3343
14.4234
14.5722
14.8952
710.515
447.581
19.0611
19.433
19.7046
19.8452
19.721
19.2634
18.5097
17.4838
16.0948
14.5781
14.3729
15.0445
15.6566
16.0934
16.4023
16.6129
16.7369
16.7808
16.7505
16.6524
16.494
16.2827
16.0255
15.7298
15.4061
15.073
14.7622
14.5167
14.3725
14.3341
14.3791
14.4942
14.7725
710.043
445.123
18.7105
19.2262
19.6143
19.9232
20.0348
19.8289
19.2709
18.3981
17.1974
15.6096
14.2687
14.2706
14.8836
15.4356
15.8467
16.146
16.352
16.4734
16.5161
16.4871
16.3934
16.2417
16.0387
15.791
15.5076
15.2028
14.9015
14.6395
14.4538
14.3617
14.356
14.4273
14.6513
709.609
444.503
18.4905
19.0001
19.4307
19.8653
20.1888
20.2589
20.001
19.4176
18.5383
17.3018
15.6295
14.2356
14.0926
14.6076
15.1375
15.5548
15.867
16.0851
16.2157
16.2661
16.2437
16.1564
16.0119
15.8174
15.581
15.3142
15.0358
14.7738
14.5615
14.4238
14.3678
14.3921
14.5611
709.315
444.564
18.0975
18.4874
18.9115
19.4533
19.9494
20.2184
20.2033
19.9044
19.347
18.5417
17.3977
15.8068
14.3677
14.0121
14.3847
14.8722
15.2895
15.6132
15.8431
15.9837
16.0422
16.0268
15.9457
15.8066
15.6187
15.393
15.1442
14.8936
14.6689
14.4977
14.3983
14.3798
14.5031
709.178
444.373
17.5908
17.8329
18.2208
18.8598
19.5361
19.9805
20.1348
20.0304
19.6962
19.1548
18.4037
17.3531
15.9016
14.5475
14.08
14.3078
14.7207
15.1087
15.4229
15.6514
15.7939
15.8551
15.8423
15.7637
15.6284
15.4466
15.2312
14.9995
14.7747
14.5839
14.4524
14.3999
14.49
709.182
444.273
17.2105
17.2927
17.5857
18.2257
19.0426
19.6755
20.0019
20.0594
19.8927
19.5244
18.9703
18.2206
17.1907
15.8536
14.6773
14.2324
14.3706
14.7009
15.0382
15.3216
15.5304
15.6589
15.7094
15.6882
15.6035
15.4648
15.2835
15.0743
14.857
14.6578
14.5064
14.4309
14.5014
709.251
445.512
17.3394
17.2696
17.3902
17.8288
18.6005
19.3332
19.7885
19.9688
19.9265
19.6914
19.2795
18.6988
17.9222
16.8929
15.6944
14.7609
14.4281
14.5227
14.7764
15.0522
15.2919
15.4689
15.5729
15.6038
15.5666
15.469
15.3209
15.1354
14.9303
14.731
14.5697
14.4806
14.5384
709.324
447.111
17.8521
17.7951
17.7999
17.9073
18.3654
19.0088
19.4847
19.7108
19.7232
19.5534
19.221
18.741
18.1142
17.3185
16.3618
15.4297
14.8467
14.6796
14.7617
14.9445
15.1465
15.3231
15.4491
15.5129
15.512
15.4496
15.3328
15.1721
14.9829
14.7895
14.6251
14.5273
14.5724
709.32
447.583
18.4514
18.6082
18.6331
18.4583
18.3874
18.6902
19.06
19.2675
19.2787
19.1061
18.7709
18.3021
17.7294
17.0668
16.3362
15.64
15.1504
14.9321
14.9143
15.0043
15.1389
15.276
15.3867
15.4535
15.4677
15.4267
15.333
15.1935
15.0214
14.8385
14.6772
14.5754
14.6042
709.196
446.509
18.7716
19.2099
19.3972
19.2247
18.7558
18.5055
18.5966
18.7356
18.7421
18.562
18.1992
17.7103
17.174
16.635
16.1122
15.6499
15.3149
15.1337
15.0803
15.1119
15.1894
15.2816
15.3634
15.4163
15.429
15.3957
15.3153
15.1915
15.0341
14.8622
14.7057
14.5983
14.5958
708.857
444.911
18.6182
19.2583
19.7477
19.9416
19.6088
18.9464
18.4891
18.3622
18.3463
18.2504
17.9844
17.5572
17.0545
16.5584
16.108
15.7277
15.4417
15.2616
15.1779
15.1684
15.2073
15.2685
15.3289
15.3702
15.3802
15.3513
15.2811
15.1711
15.0284
14.8684
14.7163
14.5992
14.5505
708.433
443.474
17.9786
18.6393
19.4736
20.268
20.5094
20.1155
19.3037
18.5291
18.0674
17.8458
17.6705
17.4124
17.0553
16.6503
16.252
15.8975
15.6074
15.3929
15.2553
15.1893
15.1811
15.2103
15.254
15.2908
15.3047
15.2853
15.2274
15.1306
15.0004
14.85
14.7008
14.5743
14.4834
708.085
442.921
17.1505
17.4841
18.4152
19.8911
20.9381
21.2658
20.9921
20.1991
19.1218
18.1417
17.4517
17.0424
16.7949
16.5776
16.3263
16.0466
15.7732
15.5393
15.3619
15.2465
15.1883
15.1744
15.1867
15.2059
15.2155
15.2023
15.1579
15.078
14.9643
14.8261
14.681
14.548
14.4308
707.934
443.154
16.5669
16.3983
16.8346
18.3314
20.1749
21.4843
22.1218
22.2595
21.9735
21.2067
19.9985
18.6336
17.4515
16.688
16.3111
16.1137
15.9434
15.749
15.5397
15.3495
15.2093
15.1317
15.1076
15.114
15.1254
15.1216
15.0896
15.0232
14.9223
14.7941
14.6546
14.5233
14.4053
707.995
442.679
16.6503
16.4314
16.209
16.2989
17.3652
19.1401
20.7706
21.8343
22.3747
22.5589
22.4774
22.0832
21.1836
19.7374
18.234
17.1525
16.5178
16.1397
15.8692
15.6399
15.4365
15.2676
15.1471
15.0787
15.0496
15.0364
15.0151
14.9682
14.8877
14.7759
14.647
14.5209
14.4129
708.25
442.933
17.7936
17.9289
17.6996
16.9428
15.9028
15.8321
17.1457
18.8879
20.2201
21.0099
21.395
21.4816
21.2484
20.4915
19.1799
17.9189
17.1046
16.6364
16.3288
16.0791
15.8473
15.6274
15.429
15.267
15.149
15.0687
15.0086
14.9474
14.8678
14.7632
14.6416
14.5258
14.4623
708.758
448.508
19.3399
19.5272
19.695
19.5071
18.3411
16.449
15.3782
16.2622
17.7214
18.6932
19.1415
19.2283
19.0621
18.7003
18.2143
17.7317
17.3407
17.0325
16.7674
16.5169
16.2681
16.0199
15.7798
15.5606
15.3739
15.2236
15.1033
14.9986
14.8944
14.7807
14.6632
14.5675
14.5574
708.985
456.481
19.6728
19.2073
19.8287
20.6698
20.5955
19.3404
16.9832
15.6929
16.6935
17.7123
18.2476
18.4728
18.4847
18.343
18.1119
17.8514
17.5952
17.3481
17.103
16.8532
16.5961
16.334
16.0735
15.8245
15.5976
15.3993
15.2294
15.0805
14.9421
14.8074
14.6821
14.5855
14.5567
708.512
457.23
17.8431
16.7001
17.7459
19.426
20.1148
20.0682
18.9676
16.6547
16.0482
16.9988
17.6271
17.932
18.0662
18.0893
18.0301
17.9111