/*--------------------------------*- C++ -*----------------------------------*\
| =========                 |                                                 |
| \\      /  F ield         | OpenFOAM: The Open Source CFD Toolbox           |
|  \\    /   O peration     | Version:  v2012                                 |
|   \\  /    A nd           | Website:  www.openfoam.com                      |
|    \\/     M anipulation  |                                                 |
\*---------------------------------------------------------------------------*/
FoamFile
{
    version     2.0;
    format      ascii;
    class       surfaceScalarField;
    location    "20";
    object      phi;
}
// * * * * * * * * * * * * * * * * * * * * * * * * * * * * * * * * * * * * * //

dimensions      [1 0 -1 0 0 0 0];
oriented        oriented;


internalField   nonuniform List<scalar> 
228225
(
-8.71234e-09
1.43005e-08
-5.33428e-09
-3.22518e-08
3.50468e-08
-1.15122e-08
-6.53258e-08
4.71995e-08
-1.41217e-08
-1.06213e-07
5.63986e-08
-1.55103e-08
-1.52644e-07
6.28122e-08
-1.63845e-08
-2.02067e-07
6.64879e-08
-1.70654e-08
-2.52448e-07
6.81687e-08
-1.77839e-08
-3.02404e-07
6.85494e-08
-1.85983e-08
-3.51094e-07
6.82646e-08
-1.95719e-08
-3.9793e-07
6.75826e-08
-2.07478e-08
-4.42318e-07
6.64903e-08
-2.21001e-08
-4.83446e-07
6.45974e-08
-2.34727e-08
-5.2035e-07
6.16659e-08
-2.4761e-08
-5.52219e-07
5.79602e-08
-2.6092e-08
-5.78315e-07
5.36554e-08
-2.75585e-08
-5.98105e-07
4.8897e-08
-2.91066e-08
-6.11168e-07
4.38106e-08
-3.07489e-08
-6.17274e-07
3.85349e-08
-3.24311e-08
-6.16344e-07
3.31921e-08
-3.41179e-08
-6.08455e-07
2.78928e-08
-3.57845e-08
-5.93781e-07
2.27306e-08
-3.74044e-08
-5.72621e-07
1.77862e-08
-3.89461e-08
-5.45358e-07
1.31151e-08
-4.03777e-08
-5.12467e-07
8.76454e-09
-4.16568e-08
-4.74469e-07
4.75355e-09
-4.27518e-08
-4.3195e-07
1.10895e-09
-4.36266e-08
-3.85508e-07
-2.19393e-09
-4.42494e-08
-3.35797e-07
-5.13224e-09
-4.45769e-08
-2.83532e-07
-7.69677e-09
-4.45705e-08
-2.29513e-07
-9.85537e-09
-4.41634e-08
-1.74685e-07
-1.15677e-08
-4.32627e-08
-1.20323e-07
-1.2716e-08
-4.16416e-08
-6.85059e-08
-1.30794e-08
-3.87413e-08
-2.32244e-08
-1.22967e-08
-3.29838e-08
-7.74889e-09
-1.54746e-08
-2.84837e-08
6.48092e-08
-2.20254e-08
-8.3637e-08
1.12386e-07
-2.21855e-08
-1.48444e-07
1.34453e-07
-2.24459e-08
-2.17601e-07
1.49115e-07
-2.35585e-08
-2.86778e-07
1.5697e-07
-2.49815e-08
-3.52594e-07
1.58937e-07
-2.66324e-08
-4.12438e-07
1.56663e-07
-2.86515e-08
-4.64433e-07
1.51678e-07
-3.11327e-08
-5.07394e-07
1.45185e-07
-3.39604e-08
-5.4078e-07
1.37824e-07
-3.68539e-08
-5.64587e-07
1.29788e-07
-3.94907e-08
-5.79256e-07
1.20929e-07
-4.16637e-08
-5.85645e-07
1.11273e-07
-4.3218e-08
-5.84683e-07
1.01281e-07
-4.42837e-08
-5.77234e-07
9.11751e-08
-4.49687e-08
-5.64161e-07
8.1207e-08
-4.53818e-08
-5.46322e-07
7.1544e-08
-4.55722e-08
-5.24535e-07
6.2332e-08
-4.55846e-08
-4.99587e-07
5.37036e-08
-4.546e-08
-4.72166e-07
4.57178e-08
-4.5244e-08
-4.42862e-07
3.83975e-08
-4.49722e-08
-4.12142e-07
3.17385e-08
-4.46741e-08
-3.80382e-07
2.57229e-08
-4.43662e-08
-3.47873e-07
2.03165e-08
-4.40612e-08
-3.14847e-07
1.54826e-08
-4.37549e-08
-2.81474e-07
1.11772e-08
-4.34418e-08
-2.47924e-07
7.3591e-09
-4.31023e-08
-2.14333e-07
3.99247e-09
-4.27164e-08
-1.80832e-07
1.04535e-09
-4.22437e-08
-1.47567e-07
-1.47916e-09
-4.16389e-08
-1.14731e-07
-3.56306e-09
-4.08406e-08
-8.25175e-08
-5.15029e-09
-3.9782e-08
-5.13133e-08
-6.09699e-09
-3.81856e-08
-2.24609e-08
-5.92431e-09
-3.52237e-08
-1.91776e-09
-2.82929e-08
-4.15041e-08
9.38683e-08
1.24441e-08
-1.04612e-07
1.59462e-07
1.60328e-08
-1.72913e-07
1.8552e-07
1.72341e-08
-2.40083e-07
1.99313e-07
1.69695e-08
-3.02739e-07
2.04171e-07
1.54567e-08
-3.58832e-07
2.02325e-07
1.27039e-08
-4.07176e-07
1.96174e-07
8.83185e-09
-4.4642e-07
1.87135e-07
3.78794e-09
-4.7558e-07
1.7649e-07
-2.14435e-09
-4.94006e-07
1.64861e-07
-8.61239e-09
-5.01903e-07
1.52736e-07
-1.50501e-08
-5.003e-07
1.40306e-07
-2.09796e-08
-4.90828e-07
1.27791e-07
-2.59915e-08
-4.74983e-07
1.15289e-07
-2.98513e-08
-4.54343e-07
1.0305e-07
-3.2516e-08
-4.30265e-07
9.14203e-08
-3.42921e-08
-4.03841e-07
8.06074e-08
-3.54856e-08
-3.75971e-07
7.07243e-08
-3.62643e-08
-3.47363e-07
6.1829e-08
-3.67334e-08
-3.18612e-07
5.39303e-08
-3.6963e-08
-2.90185e-07
4.69854e-08
-3.70145e-08
-2.62439e-07
4.09229e-08
-3.69305e-08
-2.35636e-07
3.56651e-08
-3.67455e-08
-2.0995e-07
3.11157e-08
-3.6485e-08
-1.85485e-07
2.71845e-08
-3.61675e-08
-1.62282e-07
2.37793e-08
-3.58031e-08
-1.40344e-07
2.08181e-08
-3.5398e-08
-1.19628e-07
1.82238e-08
-3.49472e-08
-1.00069e-07
1.59288e-08
-3.44425e-08
-8.15718e-08
1.38817e-08
-3.38585e-08
-6.40208e-08
1.20503e-08
-3.31637e-08
-4.73066e-08
1.04187e-08
-3.22835e-08
-3.13357e-08
8.99885e-09
-3.10672e-08
-1.5967e-08
7.81416e-09
-2.9106e-08
6.62105e-09
-2.45072e-08
-4.89702e-08
9.15957e-08
5.12446e-08
-9.52803e-08
1.48968e-07
5.68009e-08
-1.39729e-07
1.71744e-07
5.82268e-08
-1.8313e-07
1.83878e-07
5.88357e-08
-2.25137e-07
1.88336e-07
5.78421e-08
-2.65104e-07
1.8709e-07
5.52012e-08
-3.01323e-07
1.82237e-07
5.01577e-08
-3.32025e-07
1.74762e-07
4.3075e-08
-3.55286e-07
1.65607e-07
3.41441e-08
-3.7005e-07
1.55166e-07
2.44597e-08
-3.76055e-07
1.4391e-07
1.48311e-08
-3.7397e-07
1.32096e-07
6.12548e-09
-3.64847e-07
1.20048e-07
-1.37889e-09
-3.50115e-07
1.0803e-07
-7.47607e-09
-3.31301e-07
9.64503e-08
-1.22114e-08
-3.09829e-07
8.57056e-08
-1.57579e-08
-2.86737e-07
7.60593e-08
-1.85438e-08
-2.62859e-07
6.75915e-08
-2.07445e-08
-2.38841e-07
6.02981e-08
-2.24877e-08
-2.15213e-07
5.41538e-08
-2.38508e-08
-1.92409e-07
4.90762e-08
-2.48964e-08
-1.70761e-07
4.49528e-08
-2.56764e-08
-1.50518e-07
4.16522e-08
-2.62299e-08
-1.31851e-07
3.90429e-08
-2.65939e-08
-1.14853e-07
3.69813e-08
-2.67953e-08
-9.95496e-08
3.53371e-08
-2.6863e-08
-8.5884e-08
3.39704e-08
-2.68161e-08
-7.37434e-08
3.276e-08
-2.66774e-08
-6.2925e-08
3.15755e-08
-2.64647e-08
-5.31562e-08
3.0303e-08
-2.61898e-08
-4.40653e-08
2.88073e-08
-2.58496e-08
-3.51271e-08
2.69598e-08
-2.54776e-08
-2.54948e-08
2.45778e-08
-2.5212e-08
-1.42442e-08
2.16454e-08
-2.50818e-08
1.58646e-08
-2.3487e-08
-3.04954e-08
6.61008e-08
5.59902e-08
-4.23633e-08
1.00033e-07
6.08027e-08
-4.81377e-08
1.15602e-07
6.19166e-08
-5.30818e-08
1.26428e-07
6.23917e-08
-5.93629e-08
1.32867e-07
6.17517e-08
-6.7772e-08
1.35555e-07
5.99423e-08
-7.75792e-08
1.35223e-07
5.68228e-08
-8.76289e-08
1.32452e-07
5.23599e-08
-9.63045e-08
1.27788e-07
4.64942e-08
-1.02342e-07
1.21676e-07
3.95265e-08
-1.04954e-07
1.14524e-07
3.1999e-08
-1.04172e-07
1.06688e-07
2.46264e-08
-1.00555e-07
9.84985e-08
1.79315e-08
-9.49736e-08
9.02971e-08
1.21505e-08
-8.82253e-08
8.24093e-08
7.29562e-09
-8.09216e-08
7.51294e-08
3.2725e-09
-7.34742e-08
6.86748e-08
-6.44302e-11
-6.62075e-08
6.31359e-08
-2.80996e-09
-5.93499e-08
5.85259e-08
-5.08711e-09
-5.30414e-08
5.47997e-08
-6.95296e-09
-4.73916e-08
5.18886e-08
-8.46247e-09
-4.24627e-08
4.96842e-08
-9.65894e-09
-3.83007e-08
4.80732e-08
-1.05862e-08
-3.49e-08
4.69243e-08
-1.12801e-08
-3.22498e-08
4.6111e-08
-1.17806e-08
-3.02821e-08
4.54939e-08
-1.21228e-08
-2.89073e-08
4.49406e-08
-1.23464e-08
-2.7964e-08
4.43053e-08
-1.24897e-08
-2.72497e-08
4.34502e-08
-1.25878e-08
-2.64813e-08
4.22167e-08
-1.26817e-08
-2.53082e-08
4.04324e-08
-1.27989e-08
-2.324e-08
3.78919e-08
-1.29993e-08
-1.94544e-08
3.43477e-08
-1.35557e-08
-1.26202e-08
2.94849e-08
-1.46736e-08
1.87449e-08
-1.5501e-08
-9.69864e-09
4.07967e-08
3.5004e-08
-7.27189e-09
5.97891e-08
3.78167e-08
8.11239e-10
6.92949e-08
3.82223e-08
1.22992e-08
7.66355e-08
3.83059e-08
2.5588e-08
8.18241e-08
3.77531e-08
3.95635e-08
8.51183e-08
3.64635e-08
5.34019e-08
8.68887e-08
3.44937e-08
6.65433e-08
8.73797e-08
3.19321e-08
7.85569e-08
8.68601e-08
2.89125e-08
8.9114e-08
8.5526e-08
2.55946e-08
9.79131e-08
8.35717e-08
2.21527e-08
1.04714e-07
8.1155e-08
1.87326e-08
1.09313e-07
7.84448e-08
1.54538e-08
1.11602e-07
7.56047e-08
1.24024e-08
1.11572e-07
7.28005e-08
9.6392e-09
1.09338e-07
7.01721e-08
7.19261e-09
1.0514e-07
6.78124e-08
5.0597e-09
9.92725e-08
6.57696e-08
3.23322e-09
9.20609e-08
6.40473e-08
1.68993e-09
8.38345e-08
6.26285e-08
3.97635e-10
7.49017e-08
6.14669e-08
-6.44221e-10
6.55375e-08
6.0517e-08
-1.46929e-09
5.60075e-08
5.97137e-08
-2.1103e-09
4.65256e-08
5.89989e-08
-2.5924e-09
3.72848e-08
5.82962e-08
-2.94433e-09
2.84418e-08
5.75363e-08
-3.19873e-09
2.01431e-08
5.6627e-08
-3.38862e-09
1.25201e-08
5.54785e-08
-3.5506e-09
5.7354e-09
5.39649e-08
-3.7292e-09
-3.40926e-11
5.19528e-08
-3.96651e-09
-4.57192e-09
4.92638e-08
-4.29457e-09
-7.60528e-09
4.57046e-08
-4.77901e-09
-8.59326e-09
4.10233e-08
-5.68806e-09
-6.72723e-09
3.48454e-08
-7.22567e-09
2.10431e-08
-9.02649e-09
1.16748e-09
2.40113e-08
1.5618e-08
7.69808e-09
3.75684e-08
1.56889e-08
1.75869e-08
4.43792e-08
1.50275e-08
2.96354e-08
4.99563e-08
1.46309e-08
4.28333e-08
5.44595e-08
1.41679e-08
5.63745e-08
5.80892e-08
1.34857e-08
6.96005e-08
6.10475e-08
1.26163e-08
8.19578e-08
6.34469e-08
1.15759e-08
9.3035e-08
6.53916e-08
1.039e-08
1.02555e-07
6.69397e-08
9.06757e-09
1.10324e-07
6.81518e-08
7.6512e-09
1.16217e-07
6.90737e-08
6.18776e-09
1.20144e-07
6.97699e-08
4.74708e-09
1.2207e-07
7.02916e-08
3.38792e-09
1.22013e-07
7.07002e-08
2.15805e-09
1.2009e-07
7.1023e-08
1.07154e-09
1.16478e-07
7.12878e-08
1.36305e-10
1.11393e-07
7.14949e-08
-6.40882e-10
1.05062e-07
7.16478e-08
-1.26926e-09
9.77273e-08
7.1724e-08
-1.76089e-09
8.96059e-08
7.17119e-08
-2.12261e-09
8.09098e-08
7.15818e-08
-2.36941e-09
7.18217e-08
7.13187e-08
-2.51716e-09
6.25187e-08
7.08858e-08
-2.58335e-09
5.31404e-08
7.02605e-08
-2.5877e-09
4.38403e-08
6.93895e-08
-2.55159e-09
3.47377e-08
6.82281e-08
-2.49855e-09
2.59822e-08
6.6689e-08
-2.45474e-09
1.77181e-08
6.46792e-08
-2.45137e-09
1.01463e-08
6.20429e-08
-2.51884e-09
3.49882e-09
5.85925e-08
-2.67981e-09
-1.8674e-09
5.40614e-08
-2.99057e-09
-5.25928e-09
4.81163e-08
-3.70254e-09
-5.52816e-09
4.0142e-08
-5.02659e-09
2.20895e-08
-6.57509e-09
-9.62581e-10
1.67816e-08
8.19217e-09
-2.96726e-09
3.2493e-08
7.08062e-09
-4.32224e-09
3.97592e-08
5.97419e-09
-5.04848e-09
4.54104e-08
5.27313e-09
-5.19612e-09
4.99161e-08
4.69102e-09
-4.73505e-09
5.35678e-08
4.05913e-09
-3.58614e-09
5.65699e-08
3.33039e-09
-1.73183e-09
5.90809e-08
2.51066e-09
8.30343e-10
6.12133e-08
1.6172e-09
4.00794e-09
6.30622e-08
6.98887e-10
7.66176e-09
6.46955e-08
-1.96591e-10
1.15797e-08
6.61741e-08
-1.01876e-09
1.55909e-08
6.75334e-08
-1.77436e-09
1.95361e-08
6.88029e-08
-2.45795e-09
2.33161e-08
6.99946e-08
-3.07264e-09
2.68252e-08
7.11199e-08
-3.60575e-09
2.99838e-08
7.2177e-08
-4.04882e-09
3.2702e-08
7.31671e-08
-4.38972e-09
3.49021e-08
7.40746e-08
-4.6266e-09
3.64881e-08
7.48902e-08
-4.75477e-09
3.7394e-08
7.55883e-08
-4.78052e-09
3.7536e-08
7.61516e-08
-4.71082e-09
3.68677e-08
7.65454e-08
-4.5603e-09
3.53575e-08
7.674e-08
-4.343e-09
3.30107e-08
7.66841e-08
-4.07746e-09
2.98547e-08
7.63291e-08
-3.78298e-09
2.59696e-08
7.55964e-08
-3.48224e-09
2.14589e-08
7.43963e-08
-3.19817e-09
1.65044e-08
7.25921e-08
-2.95692e-09
1.13151e-08
7.00125e-08
-2.78106e-09
6.19981e-09
6.64038e-08
-2.69537e-09
1.58196e-09
6.14403e-08
-2.76304e-09
-1.76061e-09
5.46438e-08
-3.18317e-09
-2.87157e-09
4.53781e-08
-4.12596e-09
2.44024e-08
-5.18484e-09
-3.58308e-09
1.52778e-08
5.08834e-09
-8.13829e-09
3.22209e-08
4.82571e-09
-1.27424e-08
3.9942e-08
4.42068e-09
-1.72848e-08
4.58572e-08
4.09694e-09
-2.1542e-08
5.04341e-08
3.73636e-09
-2.5276e-08
5.40243e-08
3.28039e-09
-2.83111e-08
5.68735e-08
2.72973e-09
-3.04913e-08
5.9173e-08
2.08952e-09
-3.1722e-08
6.10626e-08
1.38061e-09
-3.19475e-08
6.2652e-08
6.35687e-10
-3.11895e-08
6.40284e-08
-9.1681e-11
-2.95179e-08
6.52586e-08
-7.5519e-10
-2.7041e-08
6.63963e-08
-1.34066e-09
-2.38762e-08
6.74808e-08
-1.84217e-09
-2.01706e-08
6.85414e-08
-2.2504e-09
-1.60793e-08
6.95918e-08
-2.56454e-09
-1.17659e-08
7.06405e-08
-2.77721e-09
-7.39064e-09
7.16823e-08
-2.89112e-09
-3.1198e-09
7.27093e-08
-2.90406e-09
8.92446e-10
7.37009e-08
-2.82467e-09
4.50186e-09
7.46354e-08
-2.65581e-09
7.58613e-09
7.54792e-08
-2.41088e-09
1.00317e-08
7.61969e-08
-2.0982e-09
1.17697e-08
7.67392e-08
-1.73714e-09
1.27436e-08
7.70515e-08
-1.34123e-09
1.29495e-08
7.70599e-08
-9.35358e-10
1.24028e-08
7.6678e-08
-5.36632e-10
1.11848e-08
7.57891e-08
-1.74469e-10
9.39292e-09
7.42457e-08
1.38662e-10
7.18234e-09
7.18482e-08
3.74915e-10
4.7405e-09
6.83309e-08
5.14771e-10
2.3343e-09
6.33353e-08
5.10026e-10
3.67247e-10
5.63701e-08
2.41721e-10
-6.3252e-10
4.67821e-08
-4.03674e-10
2.50195e-08
-1.25055e-09
-4.82723e-09
1.47915e-08
5.31354e-09
-1.02768e-08
3.17632e-08
5.90695e-09
-1.58181e-08
3.94258e-08
6.05622e-09
-2.12288e-08
4.52162e-08
6.05459e-09
-2.63143e-08
4.96248e-08
5.8928e-09
-3.08971e-08
5.30048e-08
5.60182e-09
-3.4835e-08
5.56164e-08
5.19551e-09
-3.80104e-08
5.76515e-08
4.69692e-09
-4.03241e-08
5.92597e-08
4.11625e-09
-4.17123e-08
6.05506e-08
3.49045e-09
-4.21602e-08
6.16177e-08
2.85858e-09
-4.1702e-08
6.25301e-08
2.26997e-09
-4.04037e-08
6.33513e-08
1.74685e-09
-3.83564e-08
6.41245e-08
1.30956e-09
-3.56622e-08
6.4889e-08
9.57557e-10
-3.24361e-08
6.5664e-08
7.02615e-10
-2.88068e-08
6.64674e-08
5.41643e-10
-2.49051e-08
6.72985e-08
4.83162e-10
-2.08719e-08
6.81564e-08
5.19716e-10
-1.6848e-08
6.90221e-08
6.55122e-10
-1.29665e-08
6.98776e-08
8.76204e-10
-9.35569e-09
7.06853e-08
1.18181e-09
-6.11794e-09
7.14074e-08
1.55323e-09
-3.34865e-09
7.19861e-08
1.98182e-09
-1.09575e-09
7.23627e-08
2.43783e-09
6.08042e-10
7.24537e-08
2.90164e-09
1.78023e-09
7.21699e-08
3.33678e-09
2.4519e-09
7.13881e-08
3.72768e-09
2.68736e-09
6.99651e-08
4.04481e-09
2.55879e-09
6.77013e-08
4.27715e-09
2.14578e-09
6.43472e-08
4.39564e-09
1.5474e-09
5.95573e-08
4.37598e-09
9.08608e-10
5.288e-08
4.12854e-09
4.30819e-10
4.36779e-08
3.58458e-09
2.28386e-08
2.6097e-09
-5.5479e-09
1.45406e-08
5.7987e-09
-1.13166e-08
3.05776e-08
6.95528e-09
-1.71149e-08
3.77869e-08
7.43665e-09
-2.27234e-08
4.31976e-08
7.62685e-09
-2.79481e-08
4.72541e-08
7.59577e-09
-3.26383e-08
5.02952e-08
7.4001e-09
-3.66648e-08
5.25665e-08
7.07683e-09
-3.9914e-08
5.42608e-08
6.63971e-09
-4.22834e-08
5.55179e-08
6.11108e-09
-4.3701e-08
5.64553e-08
5.51265e-09
-4.41364e-08
5.71598e-08
4.89401e-09
-4.36163e-08
5.77133e-08
4.29525e-09
-4.21979e-08
5.81762e-08
3.75832e-09
-3.99795e-08
5.86068e-08
3.29817e-09
-3.70668e-08
5.90422e-08
2.9329e-09
-3.35803e-08
5.95186e-08
2.661e-09
-2.96566e-08
6.00496e-08
2.49411e-09
-2.5436e-08
6.06496e-08
2.42739e-09
-2.10596e-08
6.13107e-08
2.46866e-09
-1.66729e-08
6.20272e-08
2.60865e-09
-1.24151e-08
6.27696e-08
2.8509e-09
-8.42201e-09
6.35112e-08
3.18132e-09
-4.81268e-09
6.41997e-08
3.59823e-09
-1.68906e-09
6.47861e-08
4.076e-09
8.83874e-10
6.51944e-08
4.59544e-09
2.87394e-09
6.53523e-08
5.1121e-09
4.29178e-09
6.51561e-08
5.59566e-09
5.17346e-09
6.44999e-08
6.00685e-09
5.56974e-09
6.32334e-08
6.33548e-09
5.52603e-09
6.11856e-08
6.55808e-09
5.09639e-09
5.81152e-08
6.66402e-09
4.31517e-09
5.37241e-08
6.61344e-09
3.25034e-09
4.75989e-08
6.34481e-09
1.96478e-09
3.92007e-08
5.76345e-09
2.02507e-08
4.55245e-09
-4.96708e-09
1.422e-08
5.28987e-09
-1.05077e-08
2.94145e-08
6.7002e-09
-1.62447e-08
3.61927e-08
7.33225e-09
-2.18576e-08
4.12003e-08
7.60989e-09
-2.71012e-08
4.48684e-08
7.62859e-09
-3.17895e-08
4.75114e-08
7.473e-09
-3.57696e-08
4.9373e-08
7.17356e-09
-3.8901e-08
5.06381e-08
6.75297e-09
-4.10573e-08
5.14546e-08
6.22244e-09
-4.21612e-08
5.19405e-08
5.61625e-09
-4.21709e-08
5.21967e-08
4.97507e-09
-4.11179e-08
5.2307e-08
4.35246e-09
-3.90722e-08
5.2347e-08
3.78238e-09
-3.6136e-08
5.23774e-08
3.29516e-09
-3.24466e-08
5.2452e-08
2.9008e-09
-2.81514e-08
5.26086e-08
2.61361e-09
-2.34124e-08
5.2877e-08
2.43343e-09
-1.83996e-08
5.32688e-08
2.36807e-09
-1.32891e-08
5.37884e-08
2.41267e-09
-8.25539e-09
5.4421e-08
2.57238e-09
-3.47063e-09
5.51455e-08
2.83848e-09
9.10545e-10
5.59204e-08
3.21076e-09
4.73881e-09
5.66995e-08
3.67228e-09
7.89743e-09
5.74162e-08
4.21128e-09
1.02975e-08
5.8001e-08
4.79317e-09
1.1902e-08
5.83625e-08
5.38508e-09
1.27164e-08
5.84055e-08
5.93542e-09
1.27992e-08
5.80076e-08
6.41086e-09
1.22189e-08
5.70342e-08
6.77912e-09
1.10636e-08
5.53073e-08
7.03262e-09
9.41696e-09
5.26155e-08
7.14792e-09
7.36892e-09
4.86717e-08
7.09963e-09
5.04657e-09
4.31168e-08
6.80426e-09
2.63225e-09
3.54487e-08
6.16506e-09
1.81076e-08
4.77691e-09
-4.2622e-09
1.49145e-08
3.57006e-09
-9.77691e-09
2.99555e-08
4.97061e-09
-1.58092e-08
3.65916e-08
5.63441e-09
-2.18886e-08
4.13788e-08
5.90112e-09
-2.76518e-08
4.47392e-08
5.89242e-09
-3.28293e-08
4.69933e-08
5.69584e-09
-3.71952e-08
4.83904e-08
5.3484e-09
-4.05491e-08
4.91292e-08
4.86192e-09
-4.27231e-08
4.93724e-08
4.25701e-09
-4.36091e-08
4.92595e-08
3.56655e-09
-4.3166e-08
4.89085e-08
2.84542e-09
-4.1429e-08
4.84262e-08
2.14328e-09
-3.84905e-08
4.79034e-08
1.5065e-09
-3.44973e-08
4.74218e-08
9.60197e-10
-2.96155e-08
4.70469e-08
5.2502e-10
-2.40477e-08
4.68335e-08
2.06358e-10
-1.80004e-08
4.68167e-08
1.29807e-11
-1.1695e-08
4.70198e-08
-5.64821e-11
-5.35596e-09
4.74461e-08
4.51253e-12
7.87104e-10
4.80858e-08
1.90232e-10
6.52262e-09
4.89087e-08
5.02105e-10
1.16382e-08
4.98728e-08
9.32134e-10
1.59487e-08
5.09158e-08
1.47402e-09
1.9292e-08
5.19656e-08
2.10532e-09
2.15622e-08
5.29312e-08
2.79951e-09
2.27038e-08
5.37135e-08
3.50883e-09
2.27298e-08
5.41932e-08
4.18534e-09
2.17198e-08
5.42409e-08
4.77591e-09
1.98051e-08
5.37011e-08
5.24933e-09
1.71324e-08
5.23952e-08
5.58439e-09
1.38765e-08
5.00998e-08
5.77062e-09
1.02364e-08
4.65403e-08
5.77327e-09
6.47579e-09
4.1362e-08
5.5132e-09
2.95295e-09
3.41025e-08
4.87102e-09
1.75546e-08
3.50458e-09
-3.48562e-09
1.71314e-08
1.26892e-09
-9.12774e-09
3.3131e-08
2.46609e-09
-1.56906e-08
4.00908e-08
3.06245e-09
-2.25103e-08
4.49513e-08
3.24755e-09
-2.90842e-08
4.81716e-08
3.14181e-09
-3.50337e-08
5.01036e-08
2.83865e-09
-4.0039e-08
5.10323e-08
2.36563e-09
-4.38403e-08
5.11878e-08
1.74036e-09
-4.62181e-08
5.0768e-08
9.83004e-10
-4.70409e-08
4.99411e-08
1.41635e-10
-4.62618e-08
4.88609e-08
-7.3039e-10
-4.39311e-08
4.76605e-08
-1.56759e-09
-4.01627e-08
4.6462e-08
-2.32561e-09
-3.51389e-08
4.53677e-08
-2.96936e-09
-2.90762e-08
4.44681e-08
-3.483e-09
-2.2222e-08
4.38312e-08
-3.85356e-09
-1.48374e-08
4.35101e-08
-4.07916e-09
-7.19389e-09
4.35322e-08
-4.15394e-09
4.23108e-10
4.39091e-08
-4.07979e-09
7.73658e-09
4.46257e-08
-3.85399e-09
1.44758e-08
4.56508e-08
-3.48144e-09
2.03859e-08
4.69271e-08
-2.96377e-09
2.52318e-08
4.83828e-08
-2.31376e-09
2.88245e-08
4.99223e-08
-1.54785e-09
3.102e-08
5.14375e-08
-7.0236e-10
3.17565e-08
5.27996e-08
1.77325e-10
3.10575e-08
5.38679e-08
1.02572e-09
2.9028e-08
5.44794e-08
1.78957e-09
2.58538e-08
5.44556e-08
2.4202e-09
2.17633e-08
5.35869e-08
2.89686e-09
1.70329e-08
5.16288e-08
3.20364e-09
1.19774e-08
4.82795e-08
3.31687e-09
7.01851e-09
4.31672e-08
3.15201e-09
2.718e-09
3.58077e-08
2.59662e-09
1.88291e-08
1.44336e-09
-2.88435e-09
2.08454e-08
-8.28164e-10
-8.51815e-09
3.87127e-08
4.88516e-11
-1.53195e-08
4.63995e-08
4.93795e-10
-2.25348e-08
5.16212e-08
5.45485e-10
-2.95689e-08
5.48945e-08
3.12234e-10
-3.59725e-08
5.66319e-08
-1.25529e-10
-4.13623e-08
5.71647e-08
-7.44428e-10
-4.54161e-08
5.67771e-08
-1.53302e-09
-4.7893e-08
5.57055e-08
-2.4614e-09
-4.86382e-08
5.41647e-08
-3.47805e-09
-4.76055e-08
5.23424e-08
-4.51251e-09
-4.48603e-08
5.04121e-08
-5.49935e-09
-4.05382e-08
4.85233e-08
-6.3829e-09
-3.48499e-08
4.68106e-08
-7.13077e-09
-2.80415e-08
4.53829e-08
-7.72175e-09
-2.03943e-08
4.43312e-08
-8.14907e-09
-1.21951e-08
4.37179e-08
-8.4061e-09
-3.75387e-09
4.35842e-08
-8.49322e-09
4.62211e-09
4.39407e-08
-8.4071e-09
1.26215e-08
4.47757e-08
-8.15018e-09
1.99471e-08
4.60471e-08
-7.72146e-09
2.63088e-08
4.76909e-08
-7.12679e-09
3.14515e-08
4.96141e-08
-6.37251e-09
3.51472e-08
5.17048e-08
-5.47965e-09
3.7243e-08
5.38245e-08
-4.48118e-09
3.76555e-08
5.58191e-08
-3.4333e-09
3.6417e-08
5.75096e-08
-2.40249e-09
3.36543e-08
5.87017e-08
-1.45946e-09
2.95927e-08
5.91735e-08
-6.56542e-10
2.45246e-08
5.86799e-08
-2.3864e-11
1.87989e-08
5.69303e-08
4.23525e-10
1.28251e-08
5.35837e-08
6.68563e-10
7.13871e-09
4.82167e-08
6.3847e-10
2.41543e-09
4.02978e-08
2.33436e-10
2.1838e-08
-5.94287e-10
-2.46995e-09
2.54993e-08
-2.18463e-09
-7.85158e-09
4.57098e-08
-1.61421e-09
-1.4477e-08
5.43572e-08
-1.33443e-09
-2.15668e-08
6.01267e-08
-1.41429e-09
-2.85221e-08
6.36141e-08
-1.76548e-09
-3.48604e-08
6.52927e-08
-2.32066e-09
-4.0187e-08
6.55543e-08
-3.06568e-09
-4.41504e-08
6.47294e-08
-3.98771e-09
-4.64968e-08
6.31074e-08
-5.05546e-09
-4.70704e-08
6.09444e-08
-6.20631e-09
-4.58348e-08
5.84732e-08
-7.36519e-09
-4.28678e-08
5.58994e-08
-8.45614e-09
-3.83275e-08
5.34082e-08
-9.42512e-09
-3.2436e-08
5.1156e-08
-1.02367e-08
-2.54538e-08
4.92768e-08
-1.08762e-08
-1.76605e-08
4.78728e-08
-1.13353e-08
-9.35201e-09
4.7022e-08
-1.16132e-08
-8.27614e-10
4.6768e-08
-1.1707e-08
7.60293e-09
4.71286e-08
-1.16179e-08
1.56352e-08
4.8087e-08
-1.1344e-08
2.29689e-08
4.96001e-08
-1.08872e-08
2.93184e-08
5.15905e-08
-1.0248e-08
3.44106e-08
5.39553e-08
-9.4338e-09
3.80143e-08
5.6559e-08
-8.45905e-09
3.99568e-08
5.92427e-08
-7.35906e-09
4.01451e-08
6.18181e-08
-6.18841e-09
3.86037e-08
6.40754e-08
-5.02386e-09
3.54706e-08
6.57769e-08
-3.9418e-09
3.09873e-08
6.66615e-08
-3.00586e-09
2.54814e-08
6.64343e-08
-2.24833e-09
1.93358e-08
6.4759e-08
-1.68199e-09
1.29998e-08
6.12382e-08
-1.31978e-09
7.04742e-09
5.53924e-08
-1.22254e-09
2.19813e-09
4.66182e-08
-1.47241e-09
2.60498e-08
-2.01315e-09
-2.36294e-09
3.0586e-08
-2.72352e-09
-7.53115e-09
5.32438e-08
-2.36557e-09
-1.38843e-08
6.29189e-08
-2.20867e-09
-2.06926e-08
6.93114e-08
-2.37665e-09
-2.73709e-08
7.30896e-08
-2.79848e-09
-3.34446e-08
7.47917e-08
-3.4235e-09
-3.85133e-08
7.48638e-08
-4.24033e-09
-4.22354e-08
7.36897e-08
-5.23905e-09
-4.4349e-08
7.16043e-08
-6.38331e-09
-4.47092e-08
6.89118e-08
-7.60683e-09
-4.32929e-08
6.58827e-08
-8.82588e-09
-4.01925e-08
6.27624e-08
-9.96361e-09
-3.55833e-08
5.97628e-08
-1.09642e-08
-2.96959e-08
5.70671e-08
-1.17977e-08
-2.27911e-08
5.4822e-08
-1.24504e-08
-1.51408e-08
5.31429e-08
-1.29189e-08
-7.02966e-09
5.21098e-08
-1.32015e-08
1.26404e-09
5.17751e-08
-1.32986e-08
9.44684e-09
5.21544e-08
-1.3209e-08
1.72319e-08
5.32334e-08
-1.29333e-08
2.43413e-08
5.49619e-08
-1.24702e-08
3.04933e-08
5.7261e-08
-1.18209e-08
3.54209e-08
6.00154e-08
-1.09884e-08
3.88869e-08
6.30781e-08
-9.98586e-09
4.07083e-08
6.62644e-08
-8.84325e-09
4.07848e-08
6.93597e-08
-7.6166e-09
3.91271e-08
7.21154e-08
-6.38359e-09
3.58762e-08
7.42569e-08
-5.22898e-09
3.12829e-08
7.54763e-08
-4.22027e-09
2.56751e-08
7.54344e-08
-3.39425e-09
1.94523e-08
7.3744e-08
-2.76107e-09
1.30661e-08
6.99547e-08
-2.33099e-09
7.08497e-09
6.3525e-08
-2.15136e-09
2.21124e-09
5.37823e-08
-2.28969e-09
3.08903e-08
-2.62988e-09
-2.48648e-09
3.5704e-08
-2.63088e-09
-7.63655e-09
6.07378e-08
-2.34479e-09
-1.38961e-08
7.14175e-08
-2.23871e-09
-2.05784e-08
7.84297e-08
-2.43777e-09
-2.71178e-08
8.25138e-08
-2.8834e-09
-3.30563e-08
8.42623e-08
-3.53157e-09
-3.79929e-08
8.41745e-08
-4.37533e-09
-4.15779e-08
8.26773e-08
-5.40408e-09
-4.35438e-08
8.01535e-08
-6.58146e-09
-4.37446e-08
7.69486e-08
-7.83563e-09
-4.21624e-08
7.33802e-08
-9.08e-09
-3.89033e-08
6.97376e-08
-1.02342e-08
-3.41682e-08
6.62713e-08
-1.1244e-08
-2.8204e-08
6.31837e-08
-1.20803e-08
-2.12822e-08
6.06321e-08
-1.2733e-08
-1.36719e-08
5.87321e-08
-1.31995e-08
-5.64507e-09
5.75645e-08
-1.3481e-08
2.53307e-09
5.71751e-08
-1.35772e-08
1.05937e-08
5.75821e-08
-1.34893e-08
1.8274e-08
5.87687e-08
-1.32156e-08
2.53005e-08
6.06906e-08
-1.27556e-08
3.14018e-08
6.32684e-08
-1.21077e-08
3.63036e-08
6.63876e-08
-1.12741e-08
3.97554e-08
6.98914e-08
-1.02647e-08
4.15504e-08
7.35768e-08
-9.10867e-09
4.15808e-08
7.71911e-08
-7.86054e-09
3.98552e-08
8.04418e-08
-6.60134e-09
3.65233e-08
8.30076e-08
-5.41851e-09
3.1844e-08
8.45398e-08
-4.38452e-09
2.61613e-08
8.46531e-08
-3.53602e-09
1.98707e-08
8.29177e-08
-2.88343e-09
1.34273e-08
7.88321e-08
-2.43287e-09
7.3755e-09
7.18016e-08
-2.22618e-09
2.39272e-09
6.10844e-08
-2.32001e-09
3.58764e-08
-2.59274e-09
-2.76435e-09
4.05109e-08
-2.04186e-09
-8.01075e-09
6.76963e-08
-1.71386e-09
-1.42828e-08
7.92872e-08
-1.59703e-09
-2.09456e-08
8.68702e-08
-1.77772e-09
-2.74698e-08
9.12411e-08
-2.20246e-09
-3.34152e-08
9.3039e-08
-2.83204e-09
-3.83746e-08
9.27977e-08
-3.66213e-09
-4.19913e-08
9.09806e-08
-4.68677e-09
-4.39704e-08
8.80025e-08
-5.87116e-09
-4.41236e-08
8.42487e-08
-7.14593e-09
-4.24162e-08
8.00942e-08
-8.42246e-09
-3.89711e-08
7.59045e-08
-9.61152e-09
-3.40328e-08
7.19751e-08
-1.06426e-08
-2.78839e-08
6.85187e-08
-1.14828e-08
-2.0816e-08
6.56912e-08
-1.21282e-08
-1.31017e-08
6.36024e-08
-1.25834e-08
-5.00716e-09
6.23247e-08
-1.28545e-08
3.21595e-09
6.1897e-08
-1.2947e-08
1.13282e-08
6.23337e-08
-1.28623e-08
1.90738e-08
6.36209e-08
-1.25986e-08
2.61947e-08
6.57207e-08
-1.21501e-08
3.24113e-08
6.85617e-08
-1.15102e-08
3.74358e-08
7.20354e-08
-1.06737e-08
4.09859e-08
7.59871e-08
-9.64338e-09
4.28064e-08
8.02052e-08
-8.45228e-09
4.27789e-08
8.43939e-08
-7.17241e-09
4.09307e-08
8.81836e-08
-5.89499e-09
3.74534e-08
9.11934e-08
-4.70912e-09
3.26419e-08
9.30366e-08
-3.68365e-09
2.68498e-08
9.3297e-08
-2.85284e-09
2.04803e-08
9.15099e-08
-2.2222e-09
1.3967e-08
8.71402e-08
-1.79525e-09
7.83134e-09
7.95479e-08
-1.60963e-09
2.69792e-09
6.79353e-08
-1.71724e-09
4.06067e-08
-2.03314e-09
-3.04648e-09
4.46785e-08
-1.12226e-09
-8.32518e-09
7.36572e-08
-6.80677e-10
-1.4536e-08
8.60121e-08
-5.13201e-10
-2.11099e-08
9.40799e-08
-6.39102e-10
-2.75599e-08
9.87028e-08
-1.0082e-09
-3.34913e-08
1.00549e-07
-1.58102e-09
-3.85108e-08
1.00178e-07
-2.35817e-09
-4.22644e-08
9.80724e-08
-3.34062e-09
-4.44125e-08
9.46581e-08
-4.5056e-09
-4.47088e-08
9.03484e-08
-5.8052e-09
-4.30451e-08
8.55884e-08
-7.15565e-09
-3.95371e-08
8.08159e-08
-8.42094e-09
-3.44521e-08
7.63748e-08
-9.48295e-09
-2.81316e-08
7.25109e-08
-1.03145e-08
-2.08915e-08
6.93827e-08
-1.09315e-08
-1.30177e-08
6.70854e-08
-1.1357e-08
-4.77168e-09
6.56856e-08
-1.16068e-08
3.60125e-09
6.52172e-08
-1.1691e-08
1.18524e-08
6.56925e-08
-1.1612e-08
1.97399e-08
6.70996e-08
-1.13674e-08
2.70052e-08
6.94048e-08
-1.09473e-08
3.33597e-08
7.2542e-08
-1.03354e-08
3.84865e-08
7.64167e-08
-9.50812e-09
4.20509e-08
8.08713e-08
-8.44861e-09
4.37776e-08
8.56608e-08
-7.18294e-09
4.35594e-08
9.04428e-08
-5.83027e-09
4.14948e-08
9.47778e-08
-4.52937e-09
3.78374e-08
9.82157e-08
-3.36524e-09
3.29188e-08
1.0034e-07
-2.38415e-09
2.70993e-08
1.00725e-07
-1.608e-09
2.07576e-08
9.88869e-08
-1.03544e-09
1.42973e-08
9.42663e-08
-6.65226e-10
8.18546e-09
8.6194e-08
-5.3567e-10
2.99132e-09
7.38271e-08
-6.95617e-10
4.47235e-08
-1.12646e-09
-3.26403e-09
4.80528e-08
-1.10142e-10
-8.49486e-09
7.84178e-08
4.69667e-10
-1.45549e-08
9.13664e-08
7.05749e-10
-2.09362e-08
9.98145e-08
6.45874e-10
-2.72115e-08
1.04637e-07
3.4259e-10
-3.30194e-08
1.06521e-07
-1.63009e-10
-3.80179e-08
1.06048e-07
-8.74035e-10
-4.18506e-08
1.03703e-07
-1.79738e-09
-4.41765e-08
9.9918e-08
-2.93466e-09
-4.47064e-08
9.51392e-08
-4.26059e-09
-4.32874e-08
8.98349e-08
-5.666e-09
-3.99533e-08
8.44499e-08
-6.9681e-09
-3.49272e-08
7.93845e-08
-8.03544e-09
-2.85461e-08
7.49758e-08
-8.8466e-09
-2.11753e-08
7.14421e-08
-9.43017e-09
-1.31291e-08
6.88648e-08
-9.82471e-09
-4.69011e-09
6.73007e-08
-1.00548e-08
3.88059e-09
6.67775e-08
-1.01312e-08
1.2325e-08
6.73056e-08
-1.00574e-08
2.03793e-08
6.88751e-08
-9.83e-09
2.77643e-08
7.14583e-08
-9.43829e-09
3.4164e-08
7.4999e-08
-8.8576e-09
3.92145e-08
7.94166e-08
-8.04953e-09
4.25782e-08
8.44923e-08
-6.98572e-09
4.40376e-08
8.98896e-08
-5.68741e-09
4.35562e-08
9.5208e-08
-4.28465e-09
4.12921e-08
1.00003e-07
-2.95962e-09
3.75259e-08
1.03803e-07
-1.82291e-09
3.26046e-08
1.06162e-07
-9.00631e-10
2.68757e-08
1.06644e-07
-1.90297e-10
2.06809e-08
1.04767e-07
3.15123e-10
1.43804e-08
9.9947e-08
6.19429e-10
8.3933e-09
9.14978e-08
6.82417e-10
3.22537e-09
7.85438e-08
4.52341e-10
4.80679e-08
-1.19268e-10
-3.40508e-09
5.07051e-08
7.53364e-10
-8.57645e-09
8.2104e-08
1.48254e-09
-1.44902e-08
9.54992e-08
1.78356e-09
-2.06944e-08
1.04236e-07
1.78195e-09
-2.68031e-08
1.09208e-07
1.5359e-09
-3.24871e-08
1.1112e-07
1.08671e-09
-3.74358e-08
1.10565e-07
4.32408e-10
-4.13223e-08
1.08031e-07
-4.42706e-10
-4.38128e-08
1.03972e-07
-1.56319e-09
-4.45819e-08
9.88006e-08
-2.89179e-09
-4.34222e-08
9.29604e-08
-4.28473e-09
-4.03097e-08
8.69008e-08
-5.56383e-09
-3.54025e-08
8.10951e-08
-6.6172e-09
-2.90092e-08
7.59925e-08
-7.41115e-09
-2.15264e-08
7.19372e-08
-7.97685e-09
-1.33143e-08
6.90052e-08
-8.3523e-09
-4.67715e-09
6.72323e-08
-8.5693e-09
4.10005e-09
6.66413e-08
-8.64067e-09
1.27415e-08
6.72357e-08
-8.57081e-09
2.0959e-08
6.90122e-08
-8.3554e-09
2.84497e-08
7.19486e-08
-7.98167e-09
3.48594e-08
7.60093e-08
-7.41784e-09
3.97813e-08
8.11187e-08
-6.62622e-09
4.29191e-08
8.69324e-08
-5.57568e-09
4.4104e-08
9.30012e-08
-4.29977e-09
4.33725e-08
9.88517e-08
-2.90969e-09
4.09236e-08
1.04034e-07
-1.58314e-09
3.70879e-08
1.08103e-07
-4.64129e-10
3.21917e-08
1.10647e-07
4.09813e-10
2.65645e-08
1.11209e-07
1.0636e-09
2.05155e-08
1.09303e-07
1.51287e-09
1.4368e-08
1.04334e-07
1.75976e-09
8.50467e-09
9.55982e-08
1.7637e-09
3.37696e-09
8.22024e-08
1.46712e-09
5.07023e-08
7.43516e-10
-3.46913e-09
5.27981e-08
1.3757e-09
-8.57896e-09
8.5004e-08
2.21026e-09
-1.4392e-08
9.87506e-08
2.56124e-09
-2.04777e-08
1.07715e-07
2.606e-09
-2.64779e-08
1.12804e-07
2.40511e-09
-3.20963e-08
1.14738e-07
2.00021e-09
-3.70285e-08
1.14112e-07
1.38684e-09
-4.09627e-08
1.11423e-07
5.40471e-10
-4.35541e-08
1.07129e-07
-5.65048e-10
-4.44513e-08
1.01575e-07
-1.87727e-09
-4.3431e-08
9.51777e-08
-3.23774e-09
-4.04579e-08
8.84067e-08
-4.48038e-09
-3.56553e-08
8.18012e-08
-5.50697e-09
-2.93014e-08
7.59189e-08
-6.28207e-09
-2.17635e-08
7.12336e-08
-6.83349e-09
-1.34387e-08
6.7877e-08
-7.19557e-09
-4.66085e-09
6.58567e-08
-7.40209e-09
4.26414e-09
6.51849e-08
-7.46977e-09
1.30423e-08
6.58593e-08
-7.403e-09
2.13708e-08
6.78824e-08
-7.19744e-09
2.89131e-08
7.12425e-08
-6.83643e-09
3.52778e-08
7.59323e-08
-6.28629e-09
4.00878e-08
8.18197e-08
-5.51288e-09
4.30792e-08
8.84315e-08
-4.48854e-09
4.41188e-08
9.52093e-08
-3.24859e-09
4.32471e-08
1.01614e-07
-1.89073e-09
4.06854e-08