/*--------------------------------*- C++ -*----------------------------------*\
| =========                 |                                                 |
| \\      /  F ield         | OpenFOAM: The Open Source CFD Toolbox           |
|  \\    /   O peration     | Version:  v2006                                 |
|   \\  /    A nd           | Website:  www.openfoam.com                      |
|    \\/     M anipulation  |                                                 |
\*---------------------------------------------------------------------------*/
FoamFile
{
    version     2.0;
    format      ascii;
    class       volVectorField;
    location    "20";
    object      U;
}
// * * * * * * * * * * * * * * * * * * * * * * * * * * * * * * * * * * * * * //

dimensions      [0 1 -1 0 0 0 0];


internalField   nonuniform List<vector> 
78750
(
(-0.421756 -0.201973 -0.261745)
(-0.362478 -0.18748 -0.260785)
(-0.354965 -0.160769 -0.249603)
(-0.284668 -0.131657 -0.233452)
(-0.211035 -0.108378 -0.22175)
(-0.231797 -0.0961726 -0.220767)
(-0.177415 -0.0818044 -0.214496)
(-0.167998 -0.0726201 -0.212712)
(-0.137859 -0.0621689 -0.208402)
(-0.121196 -0.0539318 -0.205458)
(-0.10236 -0.0458547 -0.201866)
(-0.0866365 -0.038849 -0.198346)
(-0.0723203 -0.0326123 -0.19477)
(-0.0594665 -0.0272106 -0.191127)
(-0.0478913 -0.0226258 -0.187438)
(-0.037453 -0.0188461 -0.183713)
(-0.0280029 -0.0158302 -0.179966)
(-0.0193802 -0.013517 -0.176216)
(-0.0115299 -0.0118547 -0.172462)
(-0.0044213 -0.0107389 -0.168717)
(0.00202076 -0.0100425 -0.165002)
(0.00785474 -0.00962747 -0.161325)
(0.0131399 -0.00933259 -0.157701)
(0.0179152 -0.00897337 -0.154131)
(0.0222165 -0.00835311 -0.150593)
(0.0260591 -0.00728241 -0.147052)
(0.0294172 -0.00558415 -0.143469)
(0.0322042 -0.00307976 -0.139829)
(0.0342645 0.000401114 -0.136166)
(0.035374 0.00498594 -0.132603)
(0.0352263 0.01073 -0.129419)
(0.0334447 0.0176626 -0.127095)
(0.0298116 0.0262419 -0.126018)
(0.0250486 0.0404201 -0.124471)
(0.011119 0.0716133 -0.0839312)
(0.0472532 -0.212399 -0.0939551)
(-0.0440671 -0.165813 -0.168525)
(0.00115449 -0.202789 -0.206247)
(-0.0222004 -0.231857 -0.223763)
(-0.0301228 -0.210252 -0.232479)
(-0.0336845 -0.169035 -0.23589)
(-0.0399913 -0.133982 -0.237177)
(-0.0422446 -0.109281 -0.236699)
(-0.043828 -0.0902005 -0.235242)
(-0.0439164 -0.0738153 -0.23308)
(-0.0430007 -0.0592976 -0.230602)
(-0.0411748 -0.0460997 -0.228094)
(-0.038535 -0.0339397 -0.225701)
(-0.0351965 -0.0227367 -0.223517)
(-0.0312838 -0.0124614 -0.221588)
(-0.0269789 -0.00310716 -0.219892)
(-0.0224143 0.00533224 -0.218374)
(-0.017674 0.0128562 -0.216964)
(-0.0127915 0.0194586 -0.215555)
(-0.00778988 0.0251462 -0.214028)
(-0.00275874 0.0299234 -0.212235)
(0.00222308 0.0337927 -0.209999)
(0.00706879 0.0367668 -0.207124)
(0.0116865 0.0389009 -0.203433)
(0.0159926 0.0403515 -0.198815)
(0.0199035 0.041433 -0.193248)
(0.0233228 0.0426299 -0.186798)
(0.0261006 0.044556 -0.179598)
(0.0280619 0.0479044 -0.171862)
(0.0289652 0.0534313 -0.163896)
(0.028534 0.0619175 -0.155969)
(0.0265514 0.074572 -0.148103)
(0.0226686 0.094825 -0.139544)
(0.0169015 0.133302 -0.126344)
(0.00491111 0.197822 -0.0778658)
(-0.00972577 0.00465068 -0.0822762)
(-0.0135648 -0.011749 -0.138976)
(-0.023256 -0.0143941 -0.162921)
(-0.0346666 -0.0108912 -0.181632)
(-0.0495218 -0.0168091 -0.193415)
(-0.0621837 -0.0262944 -0.197351)
(-0.072046 -0.0324201 -0.197241)
(-0.0796635 -0.0340759 -0.19586)
(-0.0851666 -0.0322733 -0.193982)
(-0.0885326 -0.0277729 -0.19186)
(-0.0900137 -0.0209708 -0.189614)
(-0.0898213 -0.0125676 -0.187393)
(-0.088226 -0.00335233 -0.18537)
(-0.0853616 0.00646736 -0.183651)
(-0.0813234 0.0165587 -0.182358)
(-0.0763852 0.0264799 -0.18151)
(-0.070778 0.0360705 -0.181047)
(-0.0647144 0.0452754 -0.180897)
(-0.0583332 0.0540623 -0.180987)
(-0.0517216 0.0623871 -0.181251)
(-0.044946 0.0701909 -0.181615)
(-0.0380707 0.0774034 -0.181995)
(-0.031165 0.0839675 -0.182283)
(-0.0243162 0.0898718 -0.182343)
(-0.0176267 0.0951657 -0.182006)
(-0.0112116 0.0999956 -0.181089)
(-0.00519904 0.104653 -0.179403)
(0.000270587 0.10961 -0.176777)
(0.0050392 0.115561 -0.173089)
(0.0089128 0.123465 -0.168266)
(0.0116164 0.134704 -0.162193)
(0.0128511 0.151773 -0.154522)
(0.0121485 0.180085 -0.144253)
(0.00925896 0.227764 -0.127402)
(0.00143314 0.278101 -0.0782845)
(0.000996873 -0.0207075 0.0285138)
(0.00496521 -0.0208211 0.0255616)
(0.00785272 -0.0121209 0.0143267)
(0.0113637 -0.0012833 0.00201049)
(0.0141412 0.00911891 -0.00915341)
(0.0148732 0.0161375 -0.0201445)
(0.0133438 0.018375 -0.0327084)
(0.00956131 0.016761 -0.0488794)
(0.00309519 0.0119541 -0.0699636)
(-0.00605469 0.00619363 -0.0934446)
(-0.0160106 0.0029702 -0.113115)
(-0.0247909 0.00279727 -0.126226)
(-0.0314986 0.00508941 -0.133969)
(-0.0361081 0.00947825 -0.138264)
(-0.0388308 0.0156209 -0.140564)
(-0.0398143 0.0232095 -0.141733)
(-0.0393092 0.0318726 -0.142245)
(-0.0376104 0.0411771 -0.142358)
(-0.0350143 0.0507797 -0.142215)
(-0.0317649 0.0605216 -0.141893)
(-0.0280656 0.0702971 -0.141466)
(-0.0240867 0.0799996 -0.141003)
(-0.019943 0.0895529 -0.140577)
(-0.0157167 0.0989215 -0.140265)
(-0.011469 0.108127 -0.140122)
(-0.00725998 0.11726 -0.140167)
(-0.00316899 0.126509 -0.140358)
(0.000702496 0.136205 -0.140593)
(0.00421307 0.146897 -0.140696)
(0.00715677 0.15949 -0.140383)
(0.00926348 0.175599 -0.139209)
(0.0102022 0.198608 -0.136368)
(0.00947958 0.235179 -0.129977)
(0.00723404 0.288722 -0.115108)
(0.00130933 0.32483 -0.0702274)
(0.00567507 -0.0742074 0.0335045)
(0.0228028 -0.133056 0.0414921)
(0.0352347 -0.141102 0.0360126)
(0.0447736 -0.128199 0.0246918)
(0.0518249 -0.103283 0.0131893)
(0.0557136 -0.0714111 0.00434301)
(0.0555979 -0.0353316 -0.00134592)
(0.0513924 0.00261637 -0.00611256)
(0.0441398 0.0461268 -0.00990789)
(0.0326508 0.0884405 -0.0102859)
(0.0223591 0.107097 -0.0136767)
(0.0138808 0.109369 -0.0218707)
(0.00571386 0.10477 -0.0346473)
(-0.00176152 0.0975335 -0.0508447)
(-0.00770974 0.0905244 -0.0670777)
(-0.011849 0.0854515 -0.0805255)
(-0.0142653 0.0828473 -0.0904278)
(-0.0152397 0.0826193 -0.097387)
(-0.0150537 0.0845404 -0.102355)
(-0.013932 0.0883711 -0.105913)
(-0.0121106 0.0938649 -0.108318)
(-0.00980311 0.10088 -0.109804)
(-0.00721906 0.109211 -0.110561)
(-0.00454938 0.11858 -0.110758)
(-0.00191983 0.128818 -0.110581)
(0.000587021 0.139909 -0.110206)
(0.00290565 0.152009 -0.109789)
(0.00496707 0.16547 -0.109458)
(0.00668191 0.18094 -0.109286)
(0.00791949 0.199574 -0.109251)
(0.0084625 0.22353 -0.10913)
(0.00793719 0.256715 -0.108166)
(0.00595014 0.303427 -0.104006)
(0.00371046 0.354337 -0.0918255)
(7.51105e-05 0.366779 -0.056133)
(0.00637261 -0.249281 0.044196)
(0.00918719 -0.280055 0.0454188)
(0.00508311 -0.252472 0.0191775)
(-0.00865894 -0.196195 -0.0205749)
(-0.0200771 -0.126853 -0.0466298)
(-0.0268581 -0.0557317 -0.0521038)
(-0.0327174 0.0113086 -0.0396402)
(-0.0374127 0.0656367 -0.015569)
(-0.040627 0.0902612 -1.95302e-05)
(-0.0410223 0.0972053 0.00103699)
(-0.0400994 0.103133 -0.000579608)
(-0.0384442 0.107629 -0.00504881)
(-0.0366836 0.110702 -0.012749)
(-0.0349793 0.111893 -0.0242622)
(-0.0333728 0.11098 -0.0382193)
(-0.0316911 0.108887 -0.0518692)
(-0.0297748 0.107045 -0.0633066)
(-0.0275684 0.106409 -0.0721707)
(-0.0250473 0.107319 -0.0789336)
(-0.0221679 0.109783 -0.084174)
(-0.018979 0.113724 -0.0881485)
(-0.0156126 0.119064 -0.0909372)
(-0.0121421 0.125795 -0.0927067)
(-0.0086678 0.13388 -0.0936271)
(-0.00533532 0.14326 -0.0938476)
(-0.00224707 0.154005 -0.0935405)
(0.000514749 0.166353 -0.0928893)
(0.00288269 0.180771 -0.0920756)
(0.0047971 0.198098 -0.0912649)
(0.00618636 0.21988 -0.0905726)
(0.00691098 0.249038 -0.0899471)
(0.00659993 0.290346 -0.0887029)
(0.00478999 0.345439 -0.0842424)
(0.00290315 0.3922 -0.0730066)
(0.000340505 0.387277 -0.0445626)
(-0.00826645 -0.18653 0.0787106)
(-0.0178172 -0.152198 0.0952494)
(-0.0215865 -0.0279612 0.040931)
(-0.0297361 0.00580304 0.00745366)
(-0.0373106 0.0040102 -0.00128305)
(-0.0441743 0.0074487 -0.0032729)
(-0.0490659 0.0221569 -0.00184249)
(-0.0504297 0.0412181 0.00124936)
(-0.0502491 0.0549116 0.00250035)
(-0.0499517 0.0640385 0.000464678)
(-0.0496509 0.0715954 -0.00400507)
(-0.049249 0.0785059 -0.0105157)
(-0.0485325 0.0848219 -0.0187193)
(-0.0473424 0.0904157 -0.0280733)
(-0.0456077 0.0951975 -0.0377546)
(-0.0434068 0.0993699 -0.0469503)
(-0.0408087 0.103244 -0.0551777)
(-0.0378033 0.10722 -0.0623681)
(-0.0343899 0.111605 -0.0685974)
(-0.0305934 0.116603 -0.0739182)
(-0.0264691 0.12236 -0.0783312)
(-0.0220961 0.128993 -0.0818076)
(-0.0175676 0.1366 -0.0843254)
(-0.0130036 0.145267 -0.0858936)
(-0.00854377 0.155101 -0.0865581)
(-0.00433707 0.166274 -0.0864169)
(-0.000530591 0.179093 -0.0856127)
(0.00273458 0.194099 -0.084324)
(0.00532818 0.212276 -0.0827566)
(0.00713802 0.235539 -0.081126)
(0.00803184 0.267764 -0.079582)
(0.00765236 0.315414 -0.0777317)
(0.00542602 0.378053 -0.0729669)
(0.00326265 0.420644 -0.0625991)
(0.000919817 0.402476 -0.0390642)
(-0.00676042 -0.200022 0.103434)
(-0.0125441 -0.288095 0.164037)
(-0.0138011 -0.278105 0.174577)
(-0.00712788 -0.191733 0.143455)
(0.000411901 -0.10251 0.0856572)
(0.00324914 -0.0581823 0.0420676)
(0.00529165 -0.0353782 0.0172915)
(0.00619681 -0.0176918 0.00477273)
(0.00588316 0.00144523 0.000725787)
(0.00398433 0.0221834 0.00249744)
(0.000530717 0.0411464 0.00581235)
(-0.00379975 0.0563038 0.00685789)
(-0.00815219 0.0677114 0.00440964)
(-0.0120797 0.0761612 -0.000985382)
(-0.0153887 0.0825991 -0.0083605)
(-0.0180722 0.0879836 -0.0168796)
(-0.0201525 0.0931284 -0.0258762)
(-0.021544 0.0985792 -0.034839)
(-0.0221366 0.10466 -0.0434358)
(-0.021824 0.111388 -0.0513974)
(-0.0205388 0.118826 -0.0585659)
(-0.0183386 0.127058 -0.064812)
(-0.0153772 0.136167 -0.070014)
(-0.0118601 0.14626 -0.0740797)
(-0.00801567 0.157498 -0.0769551)
(-0.00408909 0.170128 -0.0786189)
(-0.000346621 0.18453 -0.079074)
(0.00291071 0.201356 -0.0783324)
(0.00537488 0.221831 -0.0763902)
(0.00675809 0.248396 -0.0732054)
(0.00678721 0.285759 -0.0687364)
(0.00534922 0.340043 -0.0629983)
(0.00299953 0.403894 -0.0555754)
(0.00138603 0.438034 -0.0470062)
(0.000253479 0.414167 -0.0307604)
(-0.00555464 -0.147703 0.0983598)
(-0.0189735 -0.186651 0.152078)
(-0.0296612 -0.196034 0.169316)
(-0.0337171 -0.190029 0.176653)
(-0.0275335 -0.148514 0.166559)
(-0.014885 -0.108785 0.143423)
(-0.00179588 -0.0747183 0.120799)
(0.01097 -0.0429322 0.0976096)
(0.0221228 -0.0134986 0.0742368)
(0.0311752 0.0138201 0.0515494)
(0.0377313 0.0384539 0.030794)
(0.040862 0.0582576 0.013781)
(0.0401696 0.0715241 0.00289962)
(0.0363157 0.0809291 -0.00192365)
(0.0300584 0.0901906 -0.00236568)
(0.0223306 0.100921 -0.000781977)
(0.0144056 0.111965 -7.59756e-05)
(0.00719405 0.121247 -0.00193758)
(0.00112586 0.128077 -0.00631832)
(-0.00374797 0.133323 -0.012597)
(-0.00749047 0.138236 -0.0203487)
(-0.0101194 0.14382 -0.0292071)
(-0.0116173 0.150721 -0.0386173)
(-0.0119872 0.159328 -0.0479729)
(-0.0113069 0.169986 -0.0567798)
(-0.00974768 0.183122 -0.064666)
(-0.00756465 0.199343 -0.0713435)
(-0.00508718 0.219578 -0.0765395)
(-0.00271039 0.245323 -0.0798655)
(-0.000883259 0.278897 -0.0806127)
(-5.15956e-05 0.323094 -0.0776232)
(-0.00031508 0.377571 -0.070068)
(-0.000905296 0.428019 -0.0598906)
(-0.00131762 0.449961 -0.050359)
(-0.00128724 0.416184 -0.0342182)
(-0.00633237 -0.124317 0.0946769)
(-0.00517144 -0.225245 0.110919)
(-0.00132707 -0.276394 0.104127)
(0.00438173 -0.30652 0.101052)
(0.0117414 -0.322553 0.105953)
(0.0210258 -0.320399 0.115946)
(0.0315352 -0.299936 0.126444)
(0.0417756 -0.265816 0.134739)
(0.0508877 -0.22358 0.139682)
(0.0586227 -0.176447 0.140409)
(0.065014 -0.124391 0.136471)
(0.0701244 -0.0607161 0.123949)
(0.0725627 0.00549307 0.0969894)
(0.0715599 0.0592049 0.0622822)
(0.0680309 0.0966768 0.030485)
(0.0626387 0.11966 0.00756168)
(0.0558276 0.132002 -0.00558468)
(0.0481019 0.13882 -0.0113582)
(0.0396338 0.144228 -0.0119708)
(0.0308269 0.150709 -0.00894067)
(0.0223849 0.15887 -0.00430872)
(0.0149171 0.167611 -0.000692092)
(0.00877441 0.175746 0.000197513)
(0.00397266 0.183393 -0.00181053)
(0.000427618 0.191541 -0.00632642)
(-0.00188133 0.201389 -0.0130191)
(-0.00299113 0.214089 -0.0216249)
(-0.00297991 0.231033 -0.0319246)
(-0.00197938 0.254123 -0.043712)
(-0.000218968 0.285973 -0.0565412)
(0.00184793 0.329272 -0.0689108)
(0.00333897 0.382442 -0.0770252)
(0.0033752 0.42999 -0.0765883)
(0.00246934 0.450419 -0.0683809)
(0.000555175 0.402524 -0.0449746)
(0.00268987 -0.174281 0.0581745)
(0.0171495 -0.314622 0.0618516)
(0.0274843 -0.361501 0.0584055)
(0.035689 -0.372509 0.0552319)
(0.042001 -0.366724 0.051652)
(0.0462091 -0.351051 0.048273)
(0.0480989 -0.327663 0.0471813)
(0.047381 -0.296874 0.0508582)
(0.0434502 -0.260045 0.0601864)
(0.0366707 -0.220337 0.0722256)
(0.0286818 -0.177408 0.0843954)
(0.0225972 -0.120775 0.0973843)
(0.0223939 -0.0543339 0.100598)
(0.0277348 -0.00881396 0.0892491)
(0.0357492 0.0274098 0.075982)
(0.0433313 0.0686085 0.0591524)
(0.0471622 0.10893 0.0365986)
(0.0461372 0.141327 0.0124685)
(0.0417602 0.162911 -0.00699896)
(0.0359797 0.175741 -0.0185802)
(0.029915 0.183891 -0.0232823)
(0.023888 0.190228 -0.0228914)
(0.0181716 0.19624 -0.0186577)
(0.0131226 0.202678 -0.0119258)
(0.00899538 0.209909 -0.0044136)
(0.00589346 0.218288 0.00230657)
(0.00378678 0.228575 0.00736813)
(0.00258956 0.242183 0.0103791)
(0.00224605 0.261425 0.0108272)
(0.00272707 0.290079 0.0076771)
(0.00392009 0.333391 -0.00048107)
(0.00525028 0.392814 -0.0130574)
(0.00535431 0.449724 -0.0231277)
(0.00462957 0.473376 -0.0244462)
(0.00264754 0.426884 -0.0156108)
(0.00565462 -0.276714 0.0279187)
(0.0112755 -0.410061 0.036267)
(0.011901 -0.436672 0.0399099)
(0.0106784 -0.435883 0.042491)
(0.00840929 -0.421243 0.044457)
(0.00514856 -0.390787 0.045587)
(0.000860586 -0.340109 0.0463045)
(-0.00487915 -0.269977 0.0510335)
(-0.0132869 -0.190547 0.0619673)
(-0.0252966 -0.126652 0.0638746)
(-0.0368818 -0.0976937 0.0479485)
(-0.0438536 -0.0983748 0.0246122)
(-0.0439003 -0.118096 0.00720544)
(-0.0386297 -0.134859 0.0144607)
(-0.0313424 -0.109868 0.0450552)
(-0.0220703 -0.0411006 0.065546)
(-0.0148473 0.0237032 0.061456)
(-0.00940411 0.0745948 0.0471816)
(-0.00512496 0.113776 0.0285176)
(-0.00238698 0.142318 0.00968915)
(-0.00113159 0.162996 -0.00692035)
(-0.000980518 0.178749 -0.0205109)
(-0.00155577 0.191718 -0.0309695)
(-0.00254054 0.20331 -0.0383561)
(-0.00365411 0.214239 -0.0427581)
(-0.00470914 0.224763 -0.0441235)
(-0.00572775 0.235412 -0.0424132)
(-0.0067976 0.247636 -0.0376848)
(-0.00790726 0.264279 -0.0300658)
(-0.0090094 0.290309 -0.0198592)
(-0.00968947 0.332195 -0.00872683)
(-0.0091408 0.390245 -0.000721911)
(-0.0072469 0.44367 0.00122483)
(-0.00541233 0.466296 -0.00048832)
(-0.00347144 0.43771 -0.00295782)
(-0.00146375 -0.303936 0.0569527)
(-0.0113038 -0.390506 0.0771346)
(-0.0204258 -0.39918 0.0795881)
(-0.0295737 -0.391606 0.0783968)
(-0.0397669 -0.371054 0.074088)
(-0.0497482 -0.336296 0.0661667)
(-0.0583599 -0.288524 0.0584126)
(-0.0645015 -0.229909 0.0617667)
(-0.0685111 -0.163707 0.083105)
(-0.0720811 -0.106859 0.100779)
(-0.0755305 -0.083475 0.0824304)
(-0.0790831 -0.0956188 0.0347247)
(-0.085246 -0.130004 -0.00823993)
(-0.0946658 -0.151881 -0.00954965)
(-0.102481 -0.136171 0.0208747)
(-0.102822 -0.0944613 0.0448929)
(-0.0973748 -0.0519075 0.0555352)
(-0.090489 -0.013428 0.0655477)
(-0.083234 0.025794 0.0729363)
(-0.0763156 0.0609364 0.0767226)
(-0.0702563 0.0906967 0.0776505)
(-0.0645898 0.11789 0.0757877)
(-0.0592418 0.145292 0.0699348)
(-0.0542888 0.173738 0.0579234)
(-0.0496493 0.203248 0.0385786)
(-0.0451554 0.233033 0.0129338)
(-0.040814 0.261886 -0.0153571)
(-0.0369061 0.289345 -0.0414666)
(-0.033823 0.31658 -0.0615582)
(-0.0315029 0.346059 -0.073325)
(-0.0291936 0.380376 -0.075792)
(-0.0257492 0.418299 -0.0698125)
(-0.0212451 0.44861 -0.0589607)
(-0.0160665 0.455133 -0.044584)
(-0.00700386 0.381148 -0.0161962)
(-0.00893537 -0.2448 0.043435)
(-0.018246 -0.344215 0.0432014)
(-0.0241085 -0.364966 0.0460397)
(-0.0287135 -0.365629 0.0522625)
(-0.0328655 -0.352409 0.0618054)
(-0.0357541 -0.325743 0.0719195)
(-0.0366899 -0.2891 0.0773031)
(-0.0352969 -0.247384 0.0750165)
(-0.0313574 -0.203621 0.0690547)
(-0.0255124 -0.158836 0.0683685)
(-0.0199616 -0.117348 0.0750183)
(-0.0179392 -0.0885127 0.0798726)
(-0.0214595 -0.0754232 0.0766424)
(-0.0313879 -0.0776851 0.0569647)
(-0.0469014 -0.100637 0.0141575)
(-0.0617399 -0.12775 -0.021042)
(-0.0740283 -0.134151 -0.025947)
(-0.0842336 -0.120693 -0.0168192)
(-0.0907917 -0.0986678 -0.00369297)
(-0.0933278 -0.0723622 0.014305)
(-0.0929691 -0.0477174 0.0358209)
(-0.0916491 -0.0236751 0.0617297)
(-0.089528 0.00701006 0.0943786)
(-0.0866176 0.0443447 0.128903)
(-0.0824865 0.0856022 0.155902)
(-0.0769279 0.12885 0.169911)
(-0.0702374 0.172952 0.169843)
(-0.0625917 0.218291 0.157622)
(-0.0540096 0.265311 0.136582)
(-0.0445062 0.313388 0.110673)
(-0.0340842 0.359991 0.0839659)
(-0.023122 0.398989 0.0612248)
(-0.0133559 0.420227 0.0481061)
(-0.00558359 0.412806 0.0480131)
(0.000743574 0.314835 0.0583933)
(-0.00442336 -0.206505 0.0139132)
(-0.00185949 -0.340632 0.00785774)
(0.00157339 -0.378776 0.00452043)
(0.00596078 -0.392696 0.00121542)
(0.0109434 -0.397587 -0.00179812)
(0.016284 -0.395696 -0.00312149)
(0.0217092 -0.385388 -0.000737463)
(0.0270017 -0.364182 0.00657779)
(0.0319586 -0.332468 0.0173775)
(0.0367817 -0.293452 0.0284275)
(0.0419194 -0.249329 0.0383137)
(0.0474085 -0.200528 0.0482684)
(0.0524439 -0.147628 0.0590628)
(0.0553661 -0.0926023 0.0696423)
(0.0537161 -0.0412853 0.0775603)
(0.0459805 -0.00269775 0.0801145)
(0.0329773 0.0174469 0.0754228)
(0.0153905 0.0179238 0.0614181)
(-0.00474652 -0.000792371 0.035333)
(-0.0228429 -0.0293746 0.00142006)
(-0.0382584 -0.0522138 -0.0293511)
(-0.0514238 -0.0616241 -0.0490043)
(-0.0613029 -0.0587856 -0.0535874)
(-0.0673132 -0.0456872 -0.0408449)
(-0.0688342 -0.0241773 -0.0112219)
(-0.0669424 0.00427342 0.0292762)
(-0.062129 0.038758 0.0755433)
(-0.0554612 0.0752457 0.120053)
(-0.0475387 0.111985 0.156248)
(-0.0382354 0.15105 0.182803)
(-0.0271773 0.195462 0.20105)
(-0.0142857 0.245987 0.211849)
(-0.00155135 0.295252 0.213431)
(0.00641468 0.322304 0.202909)
(0.0076641 0.290199 0.161509)
(0.00324633 -0.232032 0.0204363)
(0.0131992 -0.378214 0.0392067)
(0.0199307 -0.41956 0.0460155)
(0.0249819 -0.427965 0.0480376)
(0.0293493 -0.4226 0.0474984)
(0.0330219 -0.406622 0.0439322)
(0.0354544 -0.380425 0.035676)
(0.0363296 -0.346365 0.0217487)
(0.0357087 -0.310618 0.00493138)
(0.0342138 -0.279267 -0.008766)
(0.03275 -0.253302 -0.0152894)
(0.0320376 -0.229264 -0.01408)
(0.0325603 -0.202246 -0.00542793)
(0.0345418 -0.167311 0.0103709)
(0.0376796 -0.121334 0.0312966)
(0.0404992 -0.0678201 0.0517675)
(0.0409506 -0.0179551 0.0652874)
(0.0386214 0.018233 0.0698278)
(0.0341403 0.0394989 0.0678274)
(0.0272149 0.0504858 0.0619613)
(0.0168102 0.0531148 0.0521002)
(0.00289923 0.0422648 0.0347062)
(-0.0113896 0.0136815 0.0080994)
(-0.0230079 -0.0201699 -0.0221198)
(-0.0316161 -0.0436816 -0.0498195)
(-0.0360618 -0.0486894 -0.0679429)
(-0.0362303 -0.0352046 -0.0701133)
(-0.032838 -0.00936644 -0.0537282)
(-0.0270538 0.0193704 -0.0243432)
(-0.0203498 0.0451325 0.0117524)
(-0.0131704 0.0681613 0.0497534)
(-0.00533822 0.0965714 0.0904451)
(0.00256682 0.145128 0.136915)
(0.00785459 0.22099 0.175831)
(0.00752389 0.280323 0.15389)
(0.00250669 -0.298691 0.0228289)
(0.00485645 -0.432584 0.0288356)
(0.00550425 -0.458086 0.0278262)
(0.00583179 -0.459438 0.0265599)
(0.00626538 -0.449485 0.0253235)
(0.00686489 -0.428549 0.0243699)
(0.00766798 -0.39465 0.0238716)
(0.00865202 -0.347917 0.0230654)
(0.00950432 -0.294893 0.0197653)
(0.00973922 -0.246118 0.0130441)
(0.00914524 -0.208177 0.00530785)
(0.00789742 -0.179923 -0.000433078)
(0.00629892 -0.156008 -0.00250092)
(0.0046842 -0.130471 0.000763919)
(0.003781 -0.0985643 0.0112017)
(0.00427196 -0.0617575 0.02622)
(0.00584291 -0.0286349 0.0388891)
(0.00789212 -0.00495336 0.0458137)
(0.00998251 0.0103695 0.0480527)
(0.0118407 0.0203109 0.0472365)
(0.0131608 0.0264814 0.0441332)
(0.0135545 0.0289157 0.0388205)
(0.0124008 0.0260736 0.0301344)
(0.00816822 0.0107901 0.0148345)
(0.00200861 -0.018573 -0.00590555)
(-0.00376204 -0.0477645 -0.0284779)
(-0.00771082 -0.063903 -0.0522985)
(-0.00830448 -0.0584639 -0.0736184)
(-0.00609614 -0.0337038 -0.0838468)
(-0.00288545 -0.00212874 -0.0785718)
(0.000575134 0.026795 -0.0610886)
(0.00396002 0.0547012 -0.0339568)
(0.00648037 0.0992677 0.00974716)
(0.00632345 0.191207 0.0712547)
(0.00438385 0.288276 0.0935505)
(-0.000951669 -0.302203 0.0254739)
(-0.00235908 -0.4204 0.0313055)
(-0.00293372 -0.443336 0.0312578)
(-0.00321531 -0.445922 0.0301539)
(-0.00323924 -0.438494 0.0282898)
(-0.00289513 -0.421598 0.0254711)
(-0.00196576 -0.394752 0.0217569)
(-0.000190794 -0.359443 0.0181329)
(0.00243468 -0.319383 0.0160207)
(0.00542617 -0.278679 0.0156103)
(0.00807855 -0.240869 0.0160128)
(0.00991885 -0.207782 0.0166676)
(0.0109022 -0.178948 0.0176895)
(0.0113765 -0.152453 0.0195919)
(0.0119227 -0.126216 0.0231281)
(0.01321 -0.0994142 0.0287222)
(0.0154908 -0.0739946 0.0351564)
(0.0183381 -0.0531973 0.0402591)
(0.0212223 -0.0383286 0.0429845)
(0.0239161 -0.0286017 0.0435111)
(0.0264408 -0.0227492 0.0423228)
(0.0287287 -0.0199848 0.0397411)
(0.0304976 -0.0201366 0.0359012)
(0.0313249 -0.0236862 0.030636)
(0.030618 -0.0329252 0.0227417)
(0.0271662 -0.052342 0.00945947)
(0.0217302 -0.0759317 -0.00958472)
(0.0165693 -0.0894857 -0.0342269)
(0.0135084 -0.0797661 -0.0622913)
(0.0125495 -0.0495208 -0.0834463)
(0.0120807 -0.0172096 -0.0893606)
(0.0114115 0.0147394 -0.0792168)
(0.00934405 0.0688578 -0.047783)
(0.00554151 0.18071 0.00658559)
(0.00219133 0.289109 0.0429859)
(-0.00216377 -0.290766 0.0238523)
(-0.00229906 -0.420221 0.031151)
(-0.00102125 -0.449175 0.0325469)
(0.000957063 -0.455072 0.0331429)
(0.00357906 -0.450373 0.0336618)
(0.00672112 -0.436125 0.0339758)
(0.010443 -0.411335 0.0334637)
(0.0148112 -0.375823 0.0311659)
(0.019643 -0.33245 0.0267701)
(0.0244552 -0.286503 0.0213206)
(0.0286272 -0.243244 0.0164419)
(0.0317393 -0.205982 0.0133049)
(0.0338045 -0.175469 0.0122951)
(0.0351518 -0.150636 0.0132499)
(0.0362042 -0.129715 0.0158703)
(0.0373433 -0.111059 0.0199227)
(0.0388221 -0.0938121 0.0250578)
(0.0406153 -0.0784241 0.0304308)
(0.0424409 -0.0661616 0.0348774)
(0.0440214 -0.0578148 0.0376146)
(0.0452499 -0.053087 0.0385734)
(0.0460807 -0.0510834 0.038103)
(0.0464894 -0.0510327 0.0364893)
(0.0463219 -0.0525979 0.0338538)
(0.0453564 -0.0555451 0.0302368)
(0.0432664 -0.0599838 0.0252737)
(0.0392706 -0.0672862 0.0174428)
(0.0329841 -0.0784514 0.00283674)
(0.0263926 -0.0820711 -0.0229782)
(0.0218675 -0.058792 -0.0557534)
(0.0187437 -0.0163042 -0.0810664)
(0.0155787 0.0267292 -0.0895275)
(0.0107889 0.0858884 -0.0734802)
(0.00495801 0.195175 -0.0298466)
(0.00087938 0.292112 0.0115803)
(-0.00171375 -0.290805 0.0189132)
(0.000504859 -0.439572 0.0146348)
(0.00389569 -0.476995 0.01223)
(0.0078803 -0.486775 0.0114753)
(0.0123952 -0.48528 0.0119387)
(0.0172239 -0.475493 0.0137426)
(0.022185 -0.457813 0.0170651)
(0.0273363 -0.431138 0.0216763)
(0.0327745 -0.393849 0.026351)
(0.0383704 -0.346697 0.0290818)
(0.0436062 -0.294808 0.0284929)
(0.0477929 -0.245635 0.0249687)
(0.0505945 -0.204518 0.0202766)
(0.0522303 -0.172547 0.0162169)
(0.0531897 -0.14796 0.0138)
(0.053918 -0.128373 0.0133516)
(0.0547018 -0.111969 0.0148615)
(0.0556445 -0.0978262 0.0180834)
(0.0566626 -0.0859166 0.0223879)
(0.0575495 -0.0767777 0.0267342)
(0.0580665 -0.0707101 0.0301014)
(0.0581225 -0.0670467 0.0322771)
(0.0576379 -0.0651224 0.0334117)
(0.0564849 -0.0647185 0.0334985)
(0.0545463 -0.0656969 0.032476)
(0.0518161 -0.0677 0.0303935)
(0.0483825 -0.0703135 0.0273188)
(0.0439573 -0.0736141 0.0226287)
(0.0375182 -0.0773861 0.0112282)
(0.0305037 -0.0680621 -0.0167905)
(0.0254603 -0.0339116 -0.0510694)
(0.0207666 0.0131334 -0.0731879)
(0.0132086 0.0859599 -0.0713652)
(0.00513057 0.204695 -0.0411994)
(-2.89602e-05 0.293203 -0.00244251)
(-0.0001713 -0.292371 0.00149933)
(0.0038316 -0.45136 -0.00113569)
(0.00823602 -0.492578 -0.00121541)
(0.0127524 -0.502778 -0.00142971)
(0.0176299 -0.500453 -0.00192317)
(0.022679 -0.488681 -0.00265624)
(0.0274647 -0.468048 -0.00338825)
(0.0317533 -0.439103 -0.00346683)
(0.0355369 -0.402376 -0.00184691)
(0.0390685 -0.35752 0.0020309)
(0.0425718 -0.305118 0.00701458)
(0.0458058 -0.250386 0.010802)
(0.0482861 -0.201525 0.0121716)
(0.0499009 -0.163793 0.0117053)
(0.0509441 -0.137233 0.0106274)
(0.0517643 -0.118922 0.00981536)
(0.0525829 -0.105741 0.00968879)
(0.0535011 -0.0955663 0.0104251)
(0.054529 -0.0872863 0.0120522)
(0.0555628 -0.0805129 0.0143561)
(0.0564258 -0.0750874 0.0169372)
(0.0569622 -0.0708292 0.0194306)
(0.0570145 -0.0675881 0.0215596)
(0.0564496 -0.0652248 0.0230839)
(0.0551337 -0.063577 0.0238071)
(0.0529047 -0.062451 0.0235722)
(0.0497301 -0.0615666 0.0222783)
(0.0460063 -0.060432 0.0198849)
(0.0412767 -0.0577445 0.015512)
(0.0340039 -0.0447734 0.00127012)
(0.0269286 -0.00471959 -0.029215)
(0.0220974 0.0538163 -0.0574055)
(0.0146175 0.133775 -0.0628746)
(0.00637502 0.240165 -0.0424978)
(0.000327686 0.302866 -0.00814923)
(0.00125224 -0.314434 0.00603249)
(0.00825929 -0.491371 0.0108848)
(0.0141225 -0.537003 0.0120295)
(0.01946 -0.547369 0.0123241)
(0.0247281 -0.54376 0.012311)
(0.029678 -0.529523 0.0119324)
(0.0337329 -0.504826 0.0108877)
(0.0364881 -0.470107 0.00885722)
(0.0377258 -0.427646 0.0061597)
(0.0377214 -0.379772 0.00412716)
(0.0372921 -0.327077 0.00391085)
(0.0372337 -0.271889 0.00496381)
(0.0378003 -0.220796 0.00586554)
(0.0389551 -0.179918 0.00607158)
(0.0406045 -0.150503 0.00592672)
(0.0425752 -0.130073 0.00585954)
(0.0446866 -0.115489 0.00608429)
(0.0468221 -0.104496 0.00668431)
(0.0488988 -0.095819 0.00765927)
(0.0508306 -0.0887401 0.0089354)
(0.0525757 -0.0827399 0.0104507)
(0.0540593 -0.0775123 0.0121015)
(0.0551632 -0.0728756 0.0136966)
(0.0557771 -0.0686305 0.0150431)
(0.0557671 -0.0646003 0.0159413)
(0.0549745 -0.0606442 0.0161896)
(0.053283 -0.0566287 0.0155951)
(0.0508817 -0.052177 0.0140019)
(0.0475874 -0.0453147 0.0109374)
(0.042349 -0.0307878 0.00351541)
(0.0341141 -0.00221424 -0.0137044)
(0.0259119 0.0476626 -0.0394303)
(0.0173996 0.13675 -0.0496731)
(0.00941449 0.256926 -0.0347914)
(0.00203782 0.315489 -0.00557605)
(0.00362629 -0.353788 -0.000221559)
(0.009665 -0.524773 -0.00137213)
(0.0131713 -0.561705 -0.00199019)
(0.0157702 -0.566077 -0.00216521)
(0.0182297 -0.556723 -0.00227154)
(0.0204146 -0.535203 -0.00242291)
(0.0219431 -0.50016 -0.00301201)
(0.0224599 -0.451732 -0.00464752)
(0.0216819 -0.395117 -0.0071229)
(0.0197792 -0.337565 -0.00884828)
(0.0176376 -0.283153 -0.00865864)
(0.0164074 -0.234276 -0.00716127)
(0.0167886 -0.194461 -0.0055343)
(0.0187544 -0.165515 -0.0042077)
(0.021818 -0.14536 -0.00307945)
(0.025521 -0.130738 -0.00197549)
(0.0295678 -0.119382 -0.00076047)
(0.0337421 -0.110067 0.000649745)
(0.0378898 -0.102128 0.00228409)
(0.0419157 -0.0951579 0.00410621)
(0.045757 -0.0888766 0.00601133)
(0.04935 -0.0830403 0.00785791)
(0.0526193 -0.0774067 0.00948083)
(0.055511 -0.0716844 0.0107685)
(0.0579644 -0.0656112 0.0116331)
(0.0598424 -0.0591521 0.0119311)
(0.0608877 -0.0526422 0.0114857)
(0.0610801 -0.0452394 0.0104035)
(0.0604533 -0.0318188 0.00776031)
(0.0582391 0.00433391 -0.00294707)
(0.0521125 0.059824 -0.020798)
(0.0432582 0.11349 -0.0423889)
(0.0303406 0.182109 -0.0514774)
(0.0164882 0.29771 -0.0334049)
(0.00358195 0.351407 -0.00201537)
(0.00290956 -0.390962 0.00740228)
(0.00401113 -0.542686 0.0106937)
(0.00428194 -0.569245 0.0114334)
(0.0040967 -0.569623 0.0122782)
(0.00386745 -0.557604 0.0135106)
(0.0036772 -0.533486 0.015016)
(0.00359965 -0.495176 0.015825)
(0.00376691 -0.442414 0.0139601)
(0.0041097 -0.381396 0.00836765)
(0.00440845 -0.322466 0.00127598)
(0.00491676 -0.272821 -0.0041193)
(0.00628383 -0.234551 -0.00690719)
(0.00883364 -0.206576 -0.0078781)
(0.0123763 -0.186183 -0.00789713)
(0.0166159 -0.170696 -0.00743115)
(0.0213283 -0.15834 -0.00666446)
(0.026339 -0.148095 -0.00564763)
(0.0315266 -0.139338 -0.00438631)
(0.0368144 -0.131642 -0.00288583)
(0.0421464 -0.124683 -0.00117543)
(0.0474695 -0.118189 0.000673719)
(0.0527244 -0.111906 0.00253575)
(0.0578395 -0.105572 0.00423414)
(0.0627492 -0.0988788 0.00557055)
(0.067445 -0.091443 0.00638872)
(0.0717878 -0.0830179 0.00650908)
(0.0750548 -0.073933 0.0057206)
(0.0770778 -0.0636719 0.00423366)
(0.077136 -0.0458897 0.00108215)
(0.0705869 -0.00198677 -0.011912)
(0.0593244 0.0675273 -0.0329015)
(0.0483952 0.150014 -0.0545376)
(0.0321226 0.261739 -0.0569068)
(0.0150697 0.388689 -0.0349578)
(0.00238806 0.415577 -0.00658108)
(-0.000802381 -0.392043 0.00840064)
(-0.00461507 -0.531565 -0.00129056)
(-0.00680774 -0.554706 -0.00445988)
(-0.00849839 -0.554706 -0.00448476)
(-0.00979118 -0.543026 -0.00219229)
(-0.0102148 -0.519995 0.00249514)
(-0.00935731 -0.484044 0.00906112)
(-0.00677188 -0.434491 0.0153265)
(-0.00244817 -0.375188 0.017927)
(0.00290563 -0.315712 0.0156025)
(0.00823265 -0.266226 0.010631)
(0.0127265 -0.230741 0.00582893)
(0.0162216 -0.206918 0.00231585)
(0.0190137 -0.190648 5.06216e-05)
(0.0215044 -0.178832 -0.0012578)
(0.0239861 -0.169664 -0.00184101)
(0.0266128 -0.162149 -0.00185925)
(0.0294439 -0.155703 -0.00143234)
(0.0324845 -0.149926 -0.000654623)
(0.0357288 -0.144495 0.000355727)
(0.0391599 -0.13911 0.00146128)
(0.0427632 -0.133453 0.00250262)
(0.0465447 -0.127184 0.00330305)
(0.0505209 -0.119947 0.00366222)
(0.0545773 -0.111423 0.00336269)
(0.0584312 -0.101104 0.00229194)
(0.0621234 -0.0867464 0.000283891)
(0.0646874 -0.0527629 -0.00634461)
(0.0636675 0.0305727 -0.0257574)
(0.0542535 0.123198 -0.0484562)
(0.0402135 0.206047 -0.0627158)
(0.0271234 0.298025 -0.0667329)
(0.0128558 0.408806 -0.0551473)
(0.00260407 0.483256 -0.03775)
(-0.00146212 0.464211 -0.0196235)
(-0.00293644 -0.364767 -0.00284397)
(-0.00601972 -0.512135 -0.0185224)
(-0.00699002 -0.541391 -0.0228313)
(-0.00707245 -0.547025 -0.0238742)
(-0.00653065 -0.542825 -0.0229136)
(-0.00511737 -0.530736 -0.0197011)
(-0.00258438 -0.510491 -0.0136336)
(0.0013495 -0.480248 -0.0043924)
(0.00706928 -0.437805 0.00675633)