/*--------------------------------*- C++ -*----------------------------------*\
| =========                 |                                                 |
| \\      /  F ield         | OpenFOAM: The Open Source CFD Toolbox           |
|  \\    /   O peration     | Version:  v2006                                 |
|   \\  /    A nd           | Website:  www.openfoam.com                      |
|    \\/     M anipulation  |                                                 |
\*---------------------------------------------------------------------------*/
FoamFile
{
    version     2.0;
    format      ascii;
    class       volScalarField;
    location    "66";
    object      alphat;
}
// * * * * * * * * * * * * * * * * * * * * * * * * * * * * * * * * * * * * * //

dimensions      [1 -1 -1 0 0 0 0];


internalField   nonuniform List<scalar> 
78750
(
0.00131954
0.00289767
0.0019941
0.000691266
4.01334e-06
2.18326e-05
4.06832e-05
2.35042e-05
4.37946e-05
3.23771e-05
4.09607e-05
3.80166e-05
4.69935e-05
4.32047e-05
4.79264e-05
4.90053e-05
5.05023e-05
5.20864e-05
5.34084e-05
5.46871e-05
5.58511e-05
5.68128e-05
5.76087e-05
5.82608e-05
5.87151e-05
5.8917e-05
5.87742e-05
5.81266e-05
5.69408e-05
5.54819e-05
5.47648e-05
5.46844e-05
5.17912e-05
1.4368e-05
2.74664e-07
0.00016663
0.000149858
6.48675e-05
8.2184e-05
5.02428e-05
5.21677e-05
6.18382e-05
8.17937e-05
9.19253e-05
0.000105424
0.000115132
0.000124077
0.000129547
0.00013417
0.000137129
0.000139068
0.000140378
0.000141007
0.000141161
0.000140981
0.000140558
0.000139926
0.000139034
0.000137754
0.000135875
0.000133149
0.000129051
0.000122741
0.00011342
0.000100287
8.39801e-05
6.69787e-05
4.50408e-05
1.70817e-05
1.9143e-06
6.95127e-06
4.56044e-05
6.0177e-05
5.68006e-05
5.65276e-05
8.47779e-05
0.000105367
0.000117957
0.00012635
0.00013177
0.000135635
0.000138594
0.00014109
0.000143272
0.000145062
0.000146358
0.00014733
0.000148307
0.000149425
0.000150626
0.00015187
0.000153112
0.000154306
0.000155302
0.000155757
0.00015518
0.000152747
0.000147273
0.00013772
0.000124325
0.000108837
8.97154e-05
5.28695e-05
1.63713e-05
2.8686e-06
2.0955e-06
6.1723e-05
0.000106486
0.000155058
0.000172301
0.000170092
0.000167215
0.000167146
0.000169298
0.000172856
0.000177185
0.000181665
0.000185841
0.000189411
0.000192249
0.000194364
0.000195901
0.000196912
0.000197395
0.000197384
0.000196906
0.000195963
0.000194491
0.000192311
0.000189087
0.000184264
0.000177001
0.000166222
0.000150993
0.000131299
0.000107711
7.65954e-05
3.46259e-05
1.48599e-05
4.54481e-06
3.81874e-06
9.40467e-05
9.22009e-05
9.99648e-05
0.000120645
0.00014611
0.000169837
0.000190169
0.000206959
0.000219863
0.000228759
0.000234117
0.00023672
0.000237458
0.00023715
0.000236408
0.000235593
0.000234887
0.000234338
0.00023388
0.000233326
0.000232334
0.000230375
0.000226693
0.000220324
0.000210196
0.000195355
0.0001754
0.000150975
0.000123632
9.43106e-05
6.22233e-05
3.30663e-05
2.17661e-05
5.54607e-06
3.83102e-06
0.000120498
0.000133353
0.00013554
0.000155427
0.000186732
0.000220469
0.00025108
0.000275667
0.000291826
0.000290155
0.00028874
0.000287681
0.000287036
0.000280218
0.000273537
0.000267434
0.000261951
0.000257207
0.000253173
0.000249586
0.000246199
0.000242765
0.000238895
0.000233945
0.000226976
0.000216817
0.000202331
0.000182732
0.00015709
0.00012133
6.74979e-05
2.13275e-05
1.4097e-05
6.66515e-06
3.04255e-06
6.06891e-05
0.000118587
0.000114797
0.000117062
0.000133314
0.000158353
0.000186626
0.000215583
0.000244206
0.000269197
0.000268031
0.000266949
0.000266259
0.000266031
0.000266298
0.000267063
0.000268307
0.000263046
0.000255532
0.000248394
0.000240813
0.000232018
0.000221732
0.00021001
0.000196923
0.000182293
0.000165607
0.000145866
0.000121114
8.8542e-05
5.03769e-05
2.41905e-05
2.34268e-05
7.40378e-06
1.54339e-06
2.56789e-05
7.60704e-05
9.97828e-05
0.00010276
0.000105211
0.000111542
0.000122457
0.000137737
0.000157368
0.000181841
0.000210779
0.000239635
0.000249159
0.000249658
0.000250126
0.000250666
0.00025136
0.000252265
0.000240484
0.000225874
0.00021395
0.000203806
0.00019393
0.000182605
0.000168625
0.000151776
0.000132421
0.000111042
8.79126e-05
6.32534e-05
4.00057e-05
2.6429e-05
3.16802e-05
7.96252e-06
9.70797e-07
1.54568e-05
2.9986e-05
5.13091e-05
7.2637e-05
7.76797e-05
7.71662e-05
8.30613e-05
9.82439e-05
0.000122077
0.000153865
0.000192326
0.000218096
0.000221994
0.000225155
0.000227791
0.000230175
0.000232549
0.000235101
0.00023798
0.00024131
0.000245157
0.000236516
0.000218015
0.000202979
0.000191974
0.000183668
0.000177254
0.000169635
0.000150045
9.81384e-05
3.18741e-05
1.13229e-05
1.90964e-05
7.98775e-06
1.24158e-06
1.71478e-05
1.17398e-05
1.23064e-05
1.84579e-05
3.37564e-05
4.93803e-05
5.73307e-05
6.74095e-05
8.25567e-05
0.000102859
0.000128847
0.000161293
0.000198693
0.000226568
0.000226711
0.000226292
0.000225444
0.000224311
0.000218469
0.000180732
0.000146981
0.00012229
0.000104381
9.04367e-05
7.87643e-05
6.84864e-05
5.91889e-05
5.0621e-05
4.36574e-05
3.97974e-05
4.02371e-05
4.08287e-05
6.52077e-05
8.88999e-06
2.42546e-06
5.05108e-05
2.21056e-05
1.11457e-05
9.71516e-06
1.19891e-05
1.92049e-05
3.18974e-05
4.30597e-05
5.04601e-05
5.62274e-05
6.16294e-05
6.75567e-05
7.46994e-05
8.32768e-05
9.30032e-05
0.000103788
0.000116345
0.000132271
0.00015432
0.000185752
0.000226107
0.000236051
0.000245503
0.000253585
0.000259597
0.000262995
0.000263308
0.000260453
0.00016114
4.82826e-05
1.08847e-05
8.67929e-06
2.77302e-05
8.3924e-06
2.36333e-06
4.41209e-05
3.77198e-05
2.64714e-05
2.80741e-05
3.56892e-05
3.96763e-05
3.95386e-05
3.87565e-05
3.88912e-05
4.02542e-05
4.28021e-05
4.64447e-05
5.10284e-05
5.61975e-05
6.12891e-05
6.51852e-05
6.64301e-05
6.40483e-05
5.8622e-05
5.21983e-05
4.69267e-05
4.44358e-05
4.56178e-05
4.97129e-05
5.41867e-05
5.67196e-05
5.57901e-05
5.08108e-05
4.3833e-05
3.72154e-05
3.53248e-05
4.69143e-05
0.000101429
8.94425e-06
1.55022e-06
3.69516e-05
9.35343e-05
0.000103339
9.74523e-05
0.000101958
0.000104593
9.90777e-05
9.26222e-05
8.77773e-05
8.39216e-05
8.02419e-05
7.65101e-05
7.29263e-05
6.97829e-05
6.72572e-05
6.54477e-05
6.44773e-05
6.4441e-05
6.53726e-05
6.7295e-05
6.997e-05
7.26074e-05
7.33785e-05
7.22193e-05
7.80878e-05
9.54131e-05
0.000105188
0.000104845
0.000100225
3.42117e-05
7.45727e-06
9.45598e-06
3.19609e-05
8.9446e-06
1.14049e-06
5.35539e-05
0.000107247
7.96477e-05
5.649e-05
4.63549e-05
5.0873e-05
6.64845e-05
8.46827e-05
0.000101076
0.000115976
0.000128092
0.000133742
0.000130275
0.000119948
0.000107608
9.62892e-05
8.72827e-05
8.10982e-05
7.71601e-05
7.36437e-05
6.85907e-05
6.26006e-05
5.98558e-05
2.1188e-05
1.90636e-06
7.58925e-06
2.08808e-05
3.42889e-05
3.73205e-05
3.34717e-05
2.41314e-05
2.35048e-05
6.83952e-05
9.45779e-06
1.26958e-06
2.9265e-05
3.64436e-05
4.26422e-05
5.03708e-05
6.01077e-05
7.23161e-05
8.55118e-05
9.67848e-05
0.000105661
0.000115776
0.00012958
0.000144824
0.000156946
0.000161605
0.000155844
0.000140002
0.000119053
0.000100409
8.80067e-05
8.02542e-05
7.19826e-05
5.70675e-05
3.42843e-05
1.02348e-05
6.23002e-06
3.34262e-06
4.19925e-05
5.88034e-05
3.42399e-05
2.00194e-05
1.83394e-05
3.57275e-05
9.2171e-05
9.10197e-06
2.81675e-06
1.85547e-05
3.68305e-05
5.76286e-05
8.04341e-05
0.000105236
0.000130569
0.000152445
0.000166904
0.000172751
0.000171455
0.000164396
0.000152144
0.000136581
0.000121507
0.000111084
0.000107375
0.000109676
0.000114392
0.000116211
0.000112848
0.000106328
0.000100264
9.65636e-05
9.04251e-05
7.76029e-05
6.84836e-05
7.76076e-05
9.51397e-05
6.15483e-05
3.42482e-05
1.32723e-05
1.87392e-05
5.80352e-05
7.98327e-06
7.28876e-06
3.31465e-05
9.53573e-05
0.00014115
0.000135292
0.000122471
0.000112487
0.000105207
0.000100823
0.00010215
0.000112705
0.000133285
0.000160168
0.000193287
0.000243358
0.000296782
0.000296931
0.000272872
0.000188035
0.000138766
0.000115825
0.000108419
0.000110718
0.000116227
0.000117727
0.000108941
8.75957e-05
5.812e-05
2.93843e-05
1.29189e-05
7.18235e-06
2.81634e-06
9.57633e-06
3.75885e-05
9.28078e-06
9.8002e-06
8.44227e-05
0.000190217
0.000196614
0.000193417
0.000188857
0.000184724
0.000179892
0.000172649
0.000163356
0.000155409
0.000152937
0.000158187
0.00017054
0.000186214
0.000199749
0.000206961
0.000203774
0.000183682
0.000145462
0.000104551
7.92288e-05
7.27656e-05
8.06349e-05
9.38536e-05
9.54589e-05
7.44456e-05
4.59079e-05
2.2172e-05
1.09087e-05
1.12779e-05
7.34848e-06
1.14085e-05
6.00915e-05
1.05952e-05
7.84436e-06
4.12857e-05
0.000108632
0.000139644
0.000140316
0.000136785
0.000137146
0.000140351
0.000142591
0.000140916
0.00013517
0.000128488
0.000125736
0.000130551
0.000143374
0.000160338
0.000173528
0.000174822
0.000161119
0.000136562
0.000109656
8.6432e-05
6.94135e-05
6.07314e-05
5.89166e-05
5.67006e-05
4.49648e-05
2.60848e-05
1.19185e-05
8.78479e-06
1.432e-05
2.69927e-05
4.91062e-05
0.000118646
1.04898e-05
9.18698e-06
7.31955e-05
0.000186038
0.000157977
0.000129011
0.000120959
0.000128671
0.00014471
0.000161925
0.000174721
0.000180578
0.000180771
0.000180245
0.000185175
0.00019885
0.000218899
0.000237845
0.000247651
0.000244181
0.000226886
0.000196533
0.000156664
0.000117041
8.80819e-05
7.157e-05
6.37805e-05
6.08233e-05
6.09422e-05
6.06834e-05
4.6107e-05
9.87341e-06
7.64349e-06
1.95979e-05
8.48836e-05
9.65608e-06
9.7672e-06
7.823e-05
0.000151273
0.000138282
0.000129282
0.00013916
0.00016034
0.000180902
0.000192978
0.000194264
0.000185718
0.000171388
0.000158298
0.000153134
0.000158832
0.000173453
0.000189756
0.000196848
0.000185778
0.000156411
0.00011869
8.41686e-05
5.83497e-05
4.00423e-05
2.63719e-05
1.75303e-05
1.4818e-05
1.46658e-05
1.357e-05
1.14558e-05
1.64002e-06
5.50763e-06
1.58398e-05
9.79753e-05
1.13001e-05
1.05492e-05
0.000103936
0.000158952
0.000137797
0.000125445
0.000129409
0.000143452
0.000164533
0.000190718
0.000216763
0.000235942
0.000244214
0.00024244
0.000239114
0.00024644
0.000270778
0.000306741
0.00033825
0.000346207
0.00031734
0.000255868
0.000185957
0.000128845
8.90297e-05
5.55971e-05
1.74987e-05
6.20563e-06
1.17573e-05
2.17009e-05
3.03826e-05
3.03592e-05
3.20074e-05
7.17306e-05
8.08285e-05
1.10389e-05
1.01035e-05
8.07661e-05
0.00015848
0.000180982
0.000165002
0.00013514
0.000113287
0.000104234
0.000105717
0.000118061
0.000143544
0.000179548
0.000219424
0.000256732
0.000285138
0.000300532
0.000302237
0.000291051
0.000267706
0.000233894
0.000193641
0.000150762
0.000106062
6.23951e-05
2.56667e-05
4.8139e-06
2.03887e-06
1.19786e-05
3.32954e-05
6.37717e-05
8.21106e-05
8.51945e-05
7.21738e-05
2.94167e-05
7.39812e-06
7.04883e-06
3.31608e-05
7.12197e-05
0.000107978
0.000120053
0.000106061
8.41452e-05
6.82734e-05
5.7798e-05
5.30544e-05
6.21329e-05
9.00788e-05
0.000127349
0.000154179
0.000169591
0.000179892
0.000185759
0.000185465
0.000179117
0.000168126
0.000153247
0.000135416
0.000116146
9.60711e-05
7.30312e-05
4.59015e-05
2.48679e-05
1.89133e-05
2.72961e-05
4.47098e-05
5.51929e-05
5.14761e-05
3.40904e-05
2.66868e-05
2.39471e-06
6.74344e-06
2.49945e-05
6.03872e-05
0.000106559
0.000125475
0.000121674
0.000109053
9.34028e-05
6.81596e-05
3.57644e-05
2.22506e-05
2.7299e-05
5.22719e-05
0.00011045
0.00020376
0.000282104
0.000304626
0.00028563
0.000251906
0.000218791
0.00019011
0.000165425
0.000144379
0.000126789
0.000107977
8.39495e-05
6.74458e-05
6.69293e-05
7.75665e-05
8.19483e-05
6.92825e-05
9.07682e-05
3.5849e-05
2.03687e-05
1.68156e-06
5.97946e-06
2.15588e-05
6.43285e-05
0.000129008
0.000155286
0.000152276
0.00014795
0.000150282
0.000137552
6.6519e-05
2.84281e-05
2.24006e-05
3.68782e-05
7.89865e-05
0.000157694
0.000237088
0.00027376
0.000277334
0.000264829
0.000243705
0.000219515
0.00019608
0.000173855
0.000150672
0.000142649
0.000189214
0.000210996
0.000138723
5.72594e-05
2.7735e-05
3.13784e-05
1.78002e-05
2.37563e-06
1.48785e-05
1.19547e-05
9.04625e-06
4.30078e-05
0.000154706
0.000173323
0.000133158
9.97313e-05
8.30117e-05
7.87549e-05
7.08053e-05
4.71201e-05
3.94392e-05
7.81811e-05
0.000215397
0.000300426
0.000291399
0.000278379
0.000270348
0.000258399
0.000242755
0.000225794
0.000208117
0.00019554
0.000201427
0.000237031
0.000134257
2.95711e-05
2.21105e-05
3.90001e-05
5.34323e-05
4.86424e-05
3.25629e-05
1.99398e-05
3.36729e-05
9.86516e-05
1.49659e-05
1.07439e-05
6.59882e-05
0.00016143
0.000115862
8.8107e-05
7.15919e-05
6.01109e-05
5.24864e-05
4.97212e-05
6.7924e-05
0.00015499
0.000328344
0.000385924
0.000392977
0.000398573
0.00040222
0.000403429
0.000401653
0.000396229
0.000386392
0.000371387
0.000343355
9.40791e-05
2.14315e-05
1.20725e-05
2.94216e-05
8.70239e-05
0.000139006
0.000128496
0.000101685
8.137e-05
8.09619e-05
0.000115505
7.96232e-05
1.14948e-05
1.1941e-05
9.18685e-05
7.59738e-05
6.23448e-05
6.69659e-05
7.06647e-05
6.80684e-05
6.599e-05
7.00261e-05
9.53517e-05
0.000184259
0.000338846
0.000394294
0.000401886
0.000407831
0.00041169
0.000412988
0.000411109
0.000405218
0.000375588
0.000255833
0.000123005
4.49666e-05
1.5703e-05
1.06469e-05
2.60898e-05
7.26326e-05
9.45344e-05
9.47367e-05
9.87225e-05
0.000103415
0.000108971
9.369e-05
3.66349e-05
7.1293e-06
1.25136e-05
5.80748e-05
3.91374e-05
5.34248e-05
8.9239e-05
0.000101656
8.94997e-05
7.67202e-05
7.94876e-05
0.000123717
0.000263041
0.000394794
0.000402366
0.000409539
0.000415761
0.000420601
0.000423664
0.00042456
0.000375962
0.000309538
0.00024133
0.000171885
0.000104735
5.42287e-05
2.85036e-05
2.19867e-05
2.69124e-05
3.22527e-05
3.73104e-05
4.62457e-05
5.58655e-05
6.50809e-05
6.9744e-05
3.59908e-05
5.68961e-06
1.12896e-05
3.39387e-05
4.96606e-05
0.000102052
0.000112069
9.88706e-05
0.000100363
0.000123056
0.000171794
0.000223603
0.000257546
0.000282529
0.000305616
0.000326859
0.000343136
0.000352033
0.000351636
0.000340989
0.000321491
0.000295629
0.000264623
0.000228703
0.000188221
0.000145219
0.000106101
7.85548e-05
6.27756e-05
5.22031e-05
4.39871e-05
4.00123e-05
3.97202e-05
4.02844e-05
4.24394e-05
5.83675e-05
5.86042e-06
6.57155e-06
7.87367e-05
0.000153464
0.000119529
6.95293e-05
6.93952e-05
8.69601e-05
0.000103322
0.000118538
0.0001363
0.00015853
0.000184019
0.000209667
0.00023258
0.000252023
0.000268134
0.00028048
0.000288177
0.000290553
0.000287445
0.000279144
0.000266062
0.000248537
0.000227154
0.000203358
0.000179642
0.000158607
0.000140866
0.000125615
0.000111808
9.64967e-05
7.25116e-05
3.29152e-05
3.66913e-05
6.78394e-06
5.78767e-06
2.89465e-05
5.0548e-05
7.12418e-05
5.52622e-05
3.31417e-05
2.3027e-05
2.15628e-05
2.70492e-05
4.16448e-05
7.36283e-05
0.000120208
0.000155499
0.000182817
0.000212368
0.000242899
0.000270639
0.000293976
0.000312053
0.000324021
0.000329226
0.00032774
0.000320413
0.000308512
0.000293439
0.000276612
0.000259072
0.000241013
0.000221532
0.000197165
0.000160635
9.41088e-05
3.39456e-05
3.24056e-05
7.90363e-06
6.61738e-06
2.46478e-05
5.35272e-05
8.90832e-05
0.00010442
8.8521e-05
5.05992e-05
2.95821e-05
1.98377e-05
1.04575e-05
5.3763e-06
1.33412e-05
4.96602e-05
0.000112518
0.000167655
0.000220579
0.000274928
0.000328183
0.000377453
0.000417039
0.000440162
0.000444595
0.000433918
0.000414114
0.000390036
0.000363887
0.000336134
0.000306349
0.000272789
0.00023257
0.000176079
8.13132e-05
3.33378e-05
4.16095e-05
8.76559e-06
8.08526e-06
2.37499e-05
5.13382e-05
9.25108e-05
9.56809e-05
6.99759e-05
4.69184e-05
4.58037e-05
6.99335e-05
7.26494e-05
2.43681e-05
5.72982e-06
5.97685e-06
3.4835e-05
0.000111494
0.000195232
0.000277789
0.000371118
0.000446042
0.000456437
0.000464545
0.000470697
0.000475032
0.000477528
0.000476507
0.000426968
0.000379497
0.00033451
0.000288963
0.000238205
0.00016857
7.20191e-05
3.57094e-05
5.84208e-05
9.24178e-06
1.17648e-05
3.25646e-05
7.06658e-05
9.93405e-05
4.58293e-05
2.13478e-05
8.44855e-06
8.42185e-06
2.23628e-05
4.00446e-05
1.95634e-05
8.52448e-06
3.90298e-05
0.000189925
0.000239176
0.000280893
0.00035349
0.000435965
0.000448912
0.000459475
0.000467983
0.000474649
0.000479551
0.000482669
0.000481395
0.00042938
0.000379115
0.000331436
0.000283429
0.00022903
0.000154411
6.97797e-05
4.226e-05
8.13296e-05
9.38342e-06
1.28071e-05
5.31998e-05
8.61615e-05
2.10931e-05
6.11077e-06
4.58952e-06
9.678e-06
1.73847e-05
1.71648e-05
2.64208e-05
0.000119981
0.000289689
0.000199204
0.000204663
0.000243188
0.000293075
0.000342015
0.000386364
0.000423233
0.000449533
0.000463868
0.000465653
0.00045502
0.00043414
0.000405958
0.000373176
0.00033785
0.000300525
0.00025956
0.000209367
0.000140633
7.15811e-05
5.18318e-05
0.000102361
9.60643e-06
1.03644e-05
5.65855e-05
3.02896e-05
6.44251e-06
2.32699e-06
1.08459e-05
3.08999e-05
4.60403e-05
9.53787e-05
0.000112798
0.000118262
0.00014584
0.000178511
0.000216274
0.000255002
0.00029192
0.000325154
0.000352929
0.000373882
0.000387354
0.000393479
0.000392762
0.000385535
0.000372004
0.000352834
0.000329242
0.000302278
0.0002721
0.000236984
0.000191882
0.000131221
7.47535e-05
6.1994e-05
0.000115014
9.87977e-06
1.0215e-05
4.5481e-05
0.000113206
6.04052e-05
1.05857e-05
8.88877e-07
2.28704e-06
1.94217e-05
5.84111e-05
8.61416e-05
0.000107699
0.000135468
0.00016819
0.000203127
0.000239541
0.000276451
0.000311756
0.000342176
0.000364691
0.000378099
0.000382896
0.000380274
0.000371343
0.00035688
0.000337706
0.000314803
0.000288862
0.000259706
0.000225423
0.000181322
0.000124588
7.66517e-05
6.99885e-05
0.000120465
1.01643e-05
1.09671e-05
4.38782e-05
0.000104154
0.000126885
8.56428e-05
1.84972e-05
3.11397e-06
1.75019e-07
3.68342e-06
3.01139e-05
9.41365e-05
0.000128022
0.000155083
0.00018557
0.000215079
0.000243309
0.00027268
0.000304047
0.000333969
0.000357557
0.000371324
0.000374529
0.000368362
0.000354554
0.000334855
0.00031084
0.000283517
0.000252806
0.000216734
0.000170966
0.000115945
7.55202e-05
7.50117e-05
0.000122034
1.03861e-05
1.04086e-05
4.1983e-05
0.000128347
0.000150495
0.000153111
0.000141581
4.10512e-05
7.23539e-06
1.69083e-06
1.15212e-06
7.62607e-06
5.64498e-05
0.000119411
0.00015247
0.000186456
0.000217682
0.000241955
0.000262219
0.000281996
0.000302805
0.000321961
0.000335199
0.000339479
0.000333984
0.00031971
0.000298543
0.000272154
0.000241016
0.000203454
0.000156189
0.000104272
7.23358e-05
7.85897e-05
0.000121094
1.0541e-05
1.0916e-05
4.12975e-05
0.000114072
0.000153823
0.000115215
8.12526e-05
8.12398e-05
5.32486e-05
1.2807e-05
2.43685e-06
1.10892e-06
1.13508e-06
2.56727e-05
0.000109894
0.000160688
0.000196889
0.0002291
0.000250058
0.000261649
0.00026944
0.000277533
0.000286343
0.000293028
0.00029409
0.000287521
0.000273129
0.00025156
0.00022297
0.000185856
0.000138869
9.22193e-05
6.88365e-05
8.18591e-05
0.000116244
1.05936e-05
1.12978e-05
4.38318e-05
0.000116927
0.000159984
0.000154084
9.89491e-05
5.32443e-05
4.78732e-05
4.73301e-05
1.3125e-05
1.04653e-06
1.07508e-07
1.93634e-06
1.4256e-05
8.30988e-05
0.000158807
0.000200902
0.000229719
0.000245171
0.00024817
0.000244655
0.000241799
0.000243582
0.00024824
0.000250315
0.000244955
0.000230004
0.00020484
0.000168532
0.0001228
8.24755e-05
6.69897e-05
8.66954e-05
0.000107435
1.05852e-05
1.18551e-05
4.87062e-05
0.000136432
0.000168874
0.000153329
0.000119305
6.73631e-05
3.89885e-05
3.77823e-05
3.50877e-05
6.62926e-06
1.6972e-06
1.43203e-07
3.53205e-06
1.05378e-05
6.71594e-05
0.000136694
0.000176307
0.000193393
0.000192911
0.000188412
0.000192751
0.000206469
0.000222523
0.000232839
0.000232248
0.000219042
0.000193119
0.000154777
0.000109733
7.56784e-05
6.75336e-05
9.41344e-05
9.56196e-05
1.0547e-05
1.20839e-05
5.20492e-05
0.000138489
0.000164146
0.000146881
0.000109402
7.23902e-05
4.59977e-05
3.47876e-05
3.60329e-05
1.94587e-05
2.78991e-06
3.46767e-07
2.98385e-06
4.87594e-06
5.39618e-06
4.07475e-05
7.93716e-05
0.000102715
0.000123536
0.000150505
0.000181014
0.000208489
0.000228213
0.000237033
0.000233213
0.000216337
0.000186574
0.000145398
0.000101631
7.28298e-05
7.06871e-05
0.000102995
8.37296e-05
1.04841e-05
1.18638e-05
5.14584e-05
0.000141234
0.000168516
0.000155373
0.000120656
7.53129e-05
4.56553e-05
3.4063e-05
3.27532e-05
2.94693e-05
6.76148e-06
1.39282e-06
2.10404e-06
2.6505e-06
3.64004e-06
1.42431e-05
4.39347e-05
8.40078e-05
0.00013113
0.000177242
0.000212276
0.000234181
0.000245375
0.000246935
0.000238203
0.000218127
0.000186154
0.000144095
0.000101627
7.53628e-05
7.63859e-05
0.000110883
7.71324e-05
1.04641e-05
1.16952e-05
4.93738e-05
0.000139737
0.000167744
0.000151375
0.000118812
7.93321e-05
4.73013e-05
3.27434e-05
3.10825e-05
3.2523e-05
1.73077e-05
3.95529e-06
3.29351e-06
1.93611e-06
1.80824e-06
1.17841e-05
4.11619e-05
9.55652e-05
0.000168301
0.000219755
0.000242911
0.000249718
0.000248698
0.000243229
0.000232751
0.000214501
0.000185739
0.00014684
0.000106581
8.1292e-05
8.33107e-05
0.000117873
7.56446e-05
1.05558e-05
1.17263e-05
5.06467e-05
0.000143034
0.000166518
0.000145055
0.000108771
7.20048e-05
4.50522e-05
3.13427e-05
2.86529e-05
3.05656e-05
2.3629e-05
5.57718e-06
3.01799e-06
5.34364e-08
4.74013e-06
6.70108e-06
3.88014e-05
9.50869e-05
0.000188756
0.000251533
0.000267183
0.000262024
0.000249485
0.00023545
0.000221616
0.000205755
0.000183192
0.000151119
0.000115435
9.18271e-05
9.46375e-05
0.00012837
7.92289e-05
1.08364e-05
1.17946e-05
5.19604e-05
0.000143114
0.000159678
0.0001349
9.86675e-05
6.61244e-05
4.25456e-05
2.96205e-05
2.71933e-05
2.96264e-05
2.34459e-05
8.65966e-06
2.42635e-06
1.01437e-06
2.75942e-07
1.44551e-06
2.69253e-05
6.65563e-05
0.000143646
0.00023567
0.000271332
0.000267766
0.000249117
0.00022602
0.000204403
0.000186042
0.000167935
0.000145431
0.000119904
0.000103
0.000108679
0.000138352
8.09068e-05
1.10938e-05
1.1712e-05
5.35472e-05
0.000144547
0.000158055
0.000132736
9.57751e-05
6.44332e-05
4.28531e-05
2.91703e-05
2.36954e-05
2.4386e-05
2.07175e-05
9.08752e-06
3.74219e-06
2.98543e-06
1.7477e-07
2.6715e-06
9.62035e-06
4.17044e-05
8.19951e-05
0.00015103
0.000230961
0.000262737
0.000253567
0.000226389
0.000194701
0.00016761
0.00014809
0.000133325
0.000120778
0.000115003
0.000125022
0.00014513
7.53342e-05
1.1024e-05
1.13687e-05
4.96056e-05
0.000139997
0.000162706
0.000140847
0.000105994
7.45411e-05
5.01845e-05
3.25252e-05
2.28269e-05
2.0613e-05
1.94942e-05
1.03298e-05
3.88927e-07
3.11706e-06
3.55601e-08
7.60723e-07
5.94121e-07
1.81068e-05
4.65044e-05
8.00951e-05
0.00013275
0.000200565
0.000236846
0.000226671
0.000193526
0.000158207
0.00013312
0.000120497
0.000117631
0.000123245
0.000137351
0.000145128
6.45806e-05
1.04939e-05
1.14122e-05
4.83205e-05
0.000138382
0.000161011
0.000132394
9.51047e-05
7.00839e-05
5.46198e-05
3.92962e-05
2.55243e-05
1.87519e-05
1.71276e-05
1.18611e-05
2.68155e-06
1.65795e-06
2.84101e-06
3.02733e-06
4.24889e-06
2.63099e-06
2.50798e-05
4.59595e-05
6.94629e-05
0.000103348
0.000150911
0.000193158
0.000199142
0.000175342
0.00014594
0.000126317
0.000120657
0.000127505
0.000140767
0.00013862
5.51853e-05
9.78943e-06
1.15904e-05
4.80292e-05
0.000136663
0.000159819
0.000130788
9.06404e-05
6.33154e-05
4.9828e-05
4.08466e-05
2.95377e-05
2.06358e-05
1.73906e-05
1.46001e-05
6.22853e-06
1.95849e-06
3.27672e-06
1.21858e-07
2.76457e-06
8.1468e-07
8.64674e-06
2.69048e-05
4.25887e-05
5.84675e-05
7.80315e-05
0.000104354
0.000136969
0.000163176
0.000166327
0.000153374
0.000141536
0.000138965
0.000143086
0.000134647
5.13418e-05
9.36209e-06
1.19536e-05
5.18213e-05
0.000144303
0.000153998
0.00011787
7.74435e-05
5.22695e-05
4.01708e-05
3.4551e-05
2.929e-05
2.30435e-05
1.97388e-05
1.83184e-05
1.1192e-05
1.41415e-06
5.97545e-06
9.72163e-07
3.03694e-06
4.71381e-06
6.26017e-06
1.81436e-05
2.99692e-05
3.99476e-05
4.9356e-05
5.97771e-05
7.30622e-05
9.18521e-05
0.000116865
0.000138669
0.000145446
0.00014349
0.000141344
0.00012937
4.97854e-05
9.24536e-06
1.19043e-05
5.3322e-05
0.00014728
0.000152169
0.000116247
7.72889e-05
5.23775e-05
3.8664e-05
3.071e-05
2.57825e-05
2.26313e-05
2.13723e-05
2.08825e-05
1.54061e-05
6.15184e-06
3.31268e-06
6.11797e-06
2.39129e-06
2.98182e-06
1.19562e-05
2.50934e-05
3.66128e-05
4.29748e-05
4.4939e-05
4.55191e-05
4.74179e-05
5.25287e-05
6.31795e-05
8.23786e-05
0.000107871
0.000127153
0.00013362
0.000122826
4.88113e-05
9.3571e-06
1.18144e-05
5.34652e-05
0.000148062
0.000152904
0.000115585
7.56673e-05
5.12486e-05
3.85968e-05
3.10737e-05
2.59052e-05
2.31851e-05
2.30911e-05
2.37184e-05
1.8887e-05
8.70797e-06
4.12428e-06
2.94172e-07
2.01435e-06
3.39989e-06
1.57402e-05
3.37423e-05
5.07489e-05
6.00045e-05
5.98595e-05
5.3941e-05
4.71634e-05
4.30968e-05
4.39413e-05
5.21018e-05
7.09934e-05
9.902e-05
0.000119558
0.00011692
4.89074e-05
9.70953e-06
1.17094e-05
5.28259e-05
0.000147707
0.000157251
0.000124218
8.44523e-05
5.74696e-05
4.30587e-05
3.46632e-05
2.84919e-05
2.476e-05
2.4324e-05
2.5965e-05
2.34329e-05
1.17824e-05
8.37349e-06
1.58797e-07
2.08127e-06
2.92597e-06
1.44618e-05
3.96091e-05
6.63809e-05
8.11052e-05
8.4227e-05
7.82466e-05
6.70553e-05
5.54819e-05
4.76023e-05
4.62459e-05
5.36866e-05
7.18422e-05
9.73888e-05
0.000112275
5.18086e-05
1.03366e-05
1.18337e-05
5.36491e-05
0.000149081
0.000160064
0.000127897
8.80472e-05
6.04465e-05
4.6268e-05
3.88361e-05
3.26659e-05
2.76286e-05
2.60849e-05
2.82841e-05
2.96008e-05
1.96687e-05
2.74491e-06
4.08813e-06
6.07851e-06
2.53974e-06
6.34546e-06
2.89941e-05
6.52091e-05
8.72919e-05
9.9055e-05
0.000104082
9.78623e-05
8.25034e-05
6.58019e-05
5.37161e-05
4.92302e-05
5.60055e-05
7.99939e-05
0.00011269
5.6455e-05
1.09074e-05
1.18592e-05
5.54198e-05
0.000152117
0.000160091
0.000127688
8.8852e-05
6.16153e-05
4.75327e-05
4.12715e-05
3.66678e-05
3.1371e-05
2.84715e-05
3.0325e-05
3.47142e-05
3.1333e-05
1.34575e-05
4.87834e-06
5.1811e-06
7.62316e-07
2.04926e-06
1.39752e-05
5.04996e-05
9.36639e-05
0.000110339
0.000120628
0.000123048
0.000109204
8.49632e-05
6.3236e-05
5.17582e-05
5.51445e-05
8.09631e-05
0.000119683
5.71024e-05
1.09762e-05
1.18264e-05
5.63974e-05
0.000153845
0.000159765
0.000127063
8.85029e-05
6.14648e-05
4.71042e-05
4.11537e-05
3.85268e-05
3.49592e-05
3.17471e-05
3.2778e-05
3.85817e-05
4.17414e-05
2.87762e-05
5.33542e-06
9.1389e-06
1.28687e-06
3.21723e-06
3.73793e-06
2.17302e-05
6.91923e-05
0.000110908
0.000120813
0.000124436
0.00011744
9.49825e-05
7.05951e-05
5.92533e-05
6.71032e-05
9.89274e-05
0.000128242
5.47551e-05
1.06244e-05
1.16217e-05
5.5734e-05
0.000153087
0.000159368
0.000126993
8.98324e-05
6.36947e-05
4.86753e-05
4.1474e-05
3.90937e-05
3.77554e-05
3.59438e-05
3.6657e-05
4.25854e-05
5.00342e-05
4.64084e-05
2.40559e-05
1.32777e-06
4.42518e-06
4.41616e-06
4.14636e-06
6.1239e-06
2.77432e-05
8.13042e-05
0.000116126
0.000115233
0.000110429
9.8561e-05
7.96186e-05
6.88944e-05
7.89085e-05
0.000112974
0.000133122
5.29893e-05
1.01526e-05
1.1509e-05
5.41784e-05
0.000152003
0.000159984
0.000126256
8.9454e-05
6.52217e-05
5.10092e-05
4.27964e-05
3.9259e-05
3.8825e-05
3.93616e-05
4.14205e-05
4.78521e-05
5.83824e-05
6.38469e-05
5.17383e-05
2.2412e-05
1.44598e-05
3.01973e-06
4.08086e-06
2.95121e-06
5.66883e-06
2.64462e-05
8.09274e-05
0.000112496
0.000105234
9.74824e-05
9.19851e-05
8.92501e-05
9.90568e-05
0.000125107
0.000135208
5.08074e-05
9.72569e-06
1.14372e-05
5.30845e-05
0.000150155
0.000157663
0.000120773
8.46597e-05
6.43222e-05
5.36891e-05
4.63002e-05
4.13579e-05
3.98895e-05
4.14559e-05
4.56539e-05
5.39442e-05
6.73684e-05
8.02413e-05
8.00216e-05
5.94968e-05
2.45047e-05
1.43443e-05
3.26891e-06
4.27367e-06
3.10582e-06
7.04735e-06
2.80871e-05
8.01999e-05
0.00010378
9.48866e-05
9.29154e-05
0.000103297
0.000122717
0.000141348
0.00013458
5.08194e-05
9.63294e-06
1.15153e-05
5.3037e-05
0.000148759
0.000153458
0.000113688
7.75698e-05
5.99331e-05
5.3549e-05
4.97116e-05
4.52685e-05
4.25029e-05
4.33878e-05
4.84741e-05
5.86845e-05
7.49629e-05
9.39471e-05
0.000104466
9.61813e-05
6.87517e-05
2.99855e-05
1.74453e-06
4.38186e-06
2.06147e-07
5.09861e-07
5.97115e-06
2.50916e-05
7.59569e-05
9.53524e-05
8.75432e-05
9.09411e-05
0.000110051
0.000131937
0.000126981
4.79249e-05
9.49631e-06
1.16022e-05
5.44817e-05
0.000147968
0.000147441
0.000107057
7.21586e-05
5.59579e-05
5.2077e-05
5.20954e-05
5.00769e-05
4.7053e-05
4.69771e-05
5.21782e-05
6.42846e-05
8.48075e-05
0.000111791
0.000134997
0.000139653
0.000120378
8.22072e-05
3.50199e-05
2.66393e-06
3.99453e-06
3.18178e-08
6.11627e-07
6.08177e-06
2.72662e-05
7.48368e-05
9.13438e-05
9.15536e-05
0.000101978
0.000120077
0.000118082
4.35564e-05
9.14658e-06
1.16981e-05
5.67708e-05
0.000148163
0.000143862
0.000105657
7.16329e-05
5.4453e-05
4.99562e-05
5.16739e-05
5.29443e-05
5.15238e-05
5.11213e-05
5.59913e-05
6.92773e-05
9.39438e-05
0.00013036
0.000169432
0.000190716
0.000179178
0.00014085
8.58901e-05
2.81511e-05
1.16635e-05
2.62799e-06
1.08287e-07
6.82796e-07
1.10274e-05
4.9543e-05
0.000116302
0.00013363
0.000133301
0.000129541
9.7631e-05
3.41286e-05
8.10017e-06
1.17011e-05
5.81179e-05
0.000147259
0.000144797
0.000112063
7.84143e-05
5.76358e-05
4.9238e-05
4.88922e-05
5.13785e-05
5.24806e-05
5.28553e-05
5.65425e-05
6.73128e-05
8.76368e-05
0.000116505
0.000145189
0.000160423
0.000155871
0.000134149
0.00010158
6.22924e-05
2.20367e-05
8.88095e-06
3.15891e-06
3.99857e-07
4.3297e-06
1.90216e-05
5.7061e-05
0.000109432
0.000126253
0.000119083
8.30106e-05
3.00534e-05
7.18548e-06
1.16417e-05
5.67821e-05
0.000147365
0.000153315
0.000127723
9.40466e-05
6.70589e-05
5.17704e-05
4.60793e-05
4.62819e-05
4.83877e-05
5.0145e-05
5.30245e-05
6.02271e-05
7.38248e-05
9.28128e-05
0.000111789
0.00012363
0.000125255
0.000118296
0.000105267
8.75408e-05
6.56336e-05
4.02713e-05
1.60016e-05
1.96529e-06
2.97688e-06
3.05382e-06
8.8028e-06
2.83905e-05
5.81038e-05
8.07775e-05
7.01256e-05
2.99243e-05
6.74698e-06
1.15881e-05
5.4068e-05
0.000147241
0.000162772
0.000142454
0.000112876
8.43414e-05
6.26384e-05
4.9734e-05
4.44298e-05
4.40908e-05
4.58618e-05
4.85598e-05
5.37877e-05
6.39339e-05
7.95134e-05
9.75792e-05
0.000112255
0.000119155
0.000118489
0.000112773
0.000104014
9.29758e-05
7.97291e-05
6.43938e-05
4.7643e-05
3.15849e-05
1.86295e-05
1.02831e-05
8.28239e-06
1.11261e-05
3.1066e-05
5.12233e-05
4.0594e-05
6.23422e-06
1.15948e-05
5.16763e-05
0.000146192
0.000166796
0.000144461
0.000117516
9.6778e-05
7.88436e-05
6.22307e-05
5.05579e-05
4.51153e-05
4.42464e-05
4.58988e-05
4.99334e-05
5.8438e-05
7.33648e-05
9.36501e-05
0.000113358
0.000125312
0.000127926
0.000124375
0.000117854
0.000109867
0.000101073
9.27299e-05
8.65507e-05
8.12179e-05
7.09138e-05
5.41014e-05
3.39507e-05
2.25201e-05
4.39581e-05
3.79094e-05
5.38523e-06
8.51168e-06
1.17297e-05
5.14962e-05