/*--------------------------------*- C++ -*----------------------------------*\
| =========                 |                                                 |
| \\      /  F ield         | OpenFOAM: The Open Source CFD Toolbox           |
|  \\    /   O peration     | Version:  v2006                                 |
|   \\  /    A nd           | Website:  www.openfoam.com                      |
|    \\/     M anipulation  |                                                 |
\*---------------------------------------------------------------------------*/
FoamFile
{
    version     2.0;
    format      ascii;
    class       volScalarField;
    location    "66";
    object      omega;
}
// * * * * * * * * * * * * * * * * * * * * * * * * * * * * * * * * * * * * * //

dimensions      [0 0 -1 0 0 0 0];


internalField   nonuniform List<scalar> 
78750
(
2309.84
343.517
236.815
134.347
36.4187
17.8736
24.6936
19.794
24.2297
21.0445
22.2171
20.9429
21.9873
20.8196
21.1051
20.7582
20.5823
20.3782
20.1723
19.962
19.7453
19.5205
19.2854
19.0375
18.7734
18.4912
18.1933
17.8734
17.5311
17.1677
16.814
16.5366
16.3537
15.9986
540.703
520.519
9.68201
21.9595
6.54088
15.9681
16.1194
15.3914
15.6687
15.3534
15.3742
15.2594
15.2417
15.1533
15.1111
15.0479
14.9876
14.9222
14.8517
14.7755
14.693
14.6038
14.507
14.4014
14.2854
14.1569
14.0129
13.85
13.6608
13.4374
13.1678
12.8289
12.3885
11.8058
10.9134
803.761
418.524
13.6565
14.4343
14.3026
13.6722
14.1917
14.3063
14.4075
14.4965
14.5519
14.5944
14.622
14.6404
14.6505
14.6535
14.6501
14.6399
14.623
14.5993
14.5688
14.5314
14.4869
14.4348
14.3742
14.3036
14.2202
14.1189
13.9916
13.8248
13.6022
13.3032
12.9037
12.3103
11.205
806.872
410.495
10.7785
12.0996
12.8103
13.2988
13.7199
14.0564
14.2995
14.4569
14.5461
14.5886
14.6029
14.602
14.5938
14.5827
14.5716
14.5615
14.5524
14.5432
14.5324
14.518
14.4978
14.4691
14.429
14.3739
14.2994
14.1994
14.0655
13.8852
13.6414
13.3157
12.8776
12.1948
11.5946
812.14
414.008
11.9223
13.0895
13.8141
14.1808
14.3362
14.3791
14.3628
14.3186
14.2663
14.2185
14.1824
14.1609
14.1544
14.1613
14.1791
14.2053
14.2373
14.2728
14.3097
14.3458
14.3785
14.4049
14.4218
14.4249
14.409
14.3673
14.2905
14.1662
13.979
13.7165
13.3787
13.0369
13.3754
815.464
414.072
11.9562
12.9007
13.4579
13.7402
13.8427
13.8521
13.8151
13.7581
13.6953
13.6353
13.5841
13.5459
13.5234
13.5174
13.5276
13.553
13.5917
13.6415
13.6993
13.762
13.8256
13.8857
13.9369
13.9725
13.9843
13.9616
13.8905
13.7518
13.5203
13.1593
12.5855
11.6208
12.082
818.687
412.546
11.4452
12.1598
12.4929
12.7611
12.9389
13.0175
13.0254
12.9926
12.9415
12.8873
12.8381
12.7994
12.7758
12.7707
12.7856
12.821
12.8762
12.9512
13.0462
13.1603
13.292
13.4403
13.604
13.7815
13.9701
14.1642
14.3541
14.5209
14.629
14.6055
14.2858
13.52
14.4031
821.598
409.455
10.2826
11.1067
11.2109
11.2334
11.3344
11.5021
11.6835
11.843
11.9684
12.0604
12.1242
12.1667
12.1953
12.2162
12.2344
12.2542
12.2789
12.311
12.3523
12.4039
12.4657
12.5346
12.6057
12.6737
12.7345
12.7863
12.8314
12.8809
12.9613
13.1274
13.5058
14.2929
15.9369
822.973
408.184
8.70602
9.83318
10.0551
9.89111
9.68183
9.59079
9.6787
9.91648
10.2251
10.5307
10.7899
10.9973
11.165
11.3027
11.4191
11.5256
11.632
11.7464
11.875
12.0228
12.1928
12.39
12.6244
12.8995
13.2057
13.5239
13.8183
14.0258
14.0462
13.7062
12.5822
11.1139
14.0668
823.638
408.756
7.19025
7.75378
8.14759
8.39487
8.63067
8.97099
9.46389
10.0415
10.5675
10.9627
11.2213
11.3713
11.4467
11.4749
11.4724
11.4456
11.4004
11.3432
11.2808
11.2157
11.1488
11.0885
11.0539
11.0707
11.1655
11.3707
11.7264
12.2854
13.1204
14.2943
15.7334
16.8946
18.3957
826.067
411.337
8.55052
8.50551
8.01004
7.548
7.2825
7.26937
7.45501
7.74499
8.07322
8.39557
8.68641
8.93892
9.15953
9.36068
9.55976
9.77808
10.0365
10.3524
10.7294
11.1474
11.5757
11.9988
12.3924
12.7155
12.9356
13.0283
12.9766
12.7811
12.3967
11.5831
10.1234
11.3755
15.818
824.888
411.354
9.94304
9.66618
8.88725
8.3353
8.11357
8.06556
8.13193
8.27077
8.44755
8.63809
8.82596
9.00123
9.1581
9.2923
9.39865
9.4691
9.49153
9.45033
9.33319
9.15311
8.97568
8.93589
9.19586
9.82511
10.7416
11.7947
12.8675
13.8909
14.8236
15.7116
16.6824
17.892
19.723
826.728
409.593
10.668
11.0366
10.9867
10.8759
10.8523
10.9797
11.2134
11.483
11.7408
11.9623
12.132
12.2392
12.278
12.2496
12.1618
12.0286
11.8694
11.7075
11.5652
11.4592
11.3919
11.363
11.3672
11.3963
11.4882
11.5845
11.5374
11.3286
10.9988
10.4036
9.7034
13.1062
17.259
826.445
408.609
9.54137
10.353
10.7406
11.0277
11.3613
11.9559
12.6783
13.3303
13.8952
14.3977
14.8463
15.2303
15.527
15.7106
15.7612
15.6645
15.4034
14.9564
14.3057
13.4348
12.294
10.8942
9.37407
7.06376
4.33212
7.06188
10.6412
13.0179
14.4339
14.8967
14.2487
14.9355
18.6267
829.627
408.918
10.3908
12.0938
13.2217
14.056
14.7197
15.2475
15.6371
15.8985
16.0531
16.1513
16.2669
16.4487
16.6941
16.9738
17.2644
17.5548
17.8168
17.9735
17.9172
17.5395
16.6627
15.046
12.2844
7.28757
5.60447
4.36866
8.78832
11.1806
13.0553
14.9679
17.1406
19.6863
21.5679
828.833
412.045
12.8609
14.7735
15.8173
16.4846
16.9424
17.2614
17.4859
17.6476
17.7658
17.8452
17.8765
17.8432
17.7318
17.5385
17.2735
16.9686
16.6756
16.4478
16.309
16.2523
16.244
16.2226
16.0865
15.7043
15.0645
14.1935
13.627
13.8368
14.1241
12.8361
11.8135
15.9515
19.0024
823.873
422.245
15.2912
16.1826
16.5437
16.7089
16.7686
16.7476
16.6548
16.4935
16.2817
16.0697
15.9157
15.8419
15.8304
15.8468
15.8612
15.8572
15.829
15.7727
15.6953
15.6288
15.6065
15.617
15.5975
15.4697
15.1671
14.5846
13.4762
11.4698
8.76907
6.59271
5.63565
11.2279
17.0663
832.595
429.073
16.463
16.7649
16.9786
17.1844
17.3683
17.5127
17.6078
17.6519
17.6458
17.5909
17.4925
17.3606
17.2051
17.0312
16.8387
16.6238
16.3778
16.0877
15.736
15.332
14.9939
14.8827
14.9327
14.9165
14.6084
13.7357
11.9657
9.50534
8.07001
9.07773
9.49222
12.7211
19.0711
838.312
423.497
15.2221
16.1259
16.6887
17.1215
17.4616
17.708
17.8638
17.9423
17.9608
17.9361
17.8823
17.8119
17.732
17.6402
17.5249
17.3692
17.151
16.8374
16.3832
15.7459
14.9466
14.1523
13.5897
13.2577
12.8755
12.0448
10.4222
8.49202
8.70288
12.177
16.5793
19.1231
22.2726
836.894
428.45
16.9905
17.5553
17.8594
18.1027
18.2888
18.3997
18.4323
18.3988
18.3142
18.1927
18.0484
17.8988
17.762
17.6486
17.5553
17.4708
17.3826
17.2791
17.1474
16.9682
16.7088
16.3218
15.8118
15.3034
14.9299
14.6072
13.9881
12.7552
10.861
8.38207
10.66
17.1181
21.0255
834.912
429.959
17.2071
17.6418
17.8889
18.1475
18.4311
18.685
18.8681
18.9683
18.9848
18.9183
18.7706
18.5511
18.2838
18.0013
17.7245
17.4516
17.1619
16.8178
16.3583
15.6836
14.6617
13.2377
11.5298
9.74396
8.34741
7.89058
7.95853
7.97767
7.9341
5.33061
3.65233
15.4591
22.2138
845.544
433.437
17.9633
18.164
18.2274
18.3588
18.5947
18.878
19.1471
19.3634
19.5109
19.586
19.5899
19.5287
19.4143
19.265
19.0977
18.9172
18.7139
18.4668
18.139
17.6638
16.9214
15.718
13.9247
11.5258
8.52454
7.48241
11.4365
15.7769
18.0482
18.1006
18.3457
21.5894
25.3762
844.632
430.05
17.4477
17.6136
17.5989
17.6256
17.7403
17.9526
18.2437
18.5636
18.8673
19.1218
19.2803
19.3367
19.3159
19.2423
19.1309
18.9878
18.8121
18.5942
18.3124
17.9232
17.342
16.3876
14.7284
11.8843
7.57669
6.11783
12.8816
19.1415
22.1508
23.4782
24.5347
25.6452
25.6916
824.34
420.945
16.1776
16.9445
17.1671
17.2037
17.1571
17.1016
17.1248
17.2752
17.5519
18.2314
19.1004
19.7438
20.0983
20.243
20.2539
20.1788
20.0436
19.8597
19.6306
19.353
19.0172
18.5938
18.0204
17.1713
15.8831
14.3125
13.8867
15.4505
16.8702
17.4545
17.8837
17.8406
17.8734
806.145
420.321
16.091
17.4018
18.0484
18.3932
18.5306
18.4553
18.1426
17.5482
16.0927
14.7726
15.6169
17.3854
18.7351
19.5289
19.9919
20.2808
20.4606
20.5508
20.5583
20.4897
20.3531
20.1555
19.9062
19.5817
19.0864
18.6466
18.6335
18.5309
17.6142
16.0245
14.679
12.4456
10.7592
803.826
420.14
15.5696
17.4008
18.4763
19.2016
19.7775
20.2575
20.5633
20.5102
19.1395
15.9178
14.6968
16.1688
17.8868
18.9791
19.6301
20.0585
20.3617
20.5704
20.6957
20.7438
20.7185
20.6213
20.4291
20.1814
20.1899
19.9372
18.2419
15.3916
13.803
14.3623
10.6498
6.466
13.8048
836.441
432.912
18.0763
18.4923
18.6239
18.6947
18.7948
19.0228
19.3401
19.3584
18.1768
16.4975
17.4956
18.7598
19.4644
19.9611
20.3547
20.6411
20.8135
20.8677
20.7938
20.5697
20.1691
19.609
18.9851
17.7752
14.6464
15.5415
17.7486
17.8866
16.7651
14.9545
13.2663
16.7953
22.767
857.975
441.049
19.276
18.9902
18.7774
18.5949
18.3784
18.1885
18.0716
17.8284
17.9259
18.9209
19.6552
20.1022
20.4553
20.7387
20.9284
21.0026
20.9381
20.7076
20.2802
19.6246
18.7117
17.175
14.2193
13.5914
18.7454
22.3665
23.0902
22.8902
22.1644
21.2868
21.15
22.7448
25.5066
842.179
446.344
19.5249
18.9288
18.8907
19.0999
19.0859
18.8295
18.5811
18.4899
18.6947
19.3925
20.06
20.5323
20.9087
21.2063
21.4066
21.4898
21.4312
21.1987
20.7371
19.922
18.5059
16.1754
13.1651
12.2153
16.1386
19.7985
21.2877
22.5074
23.5304
24.2425
24.7425
25.0707
24.879
822.799
450.864
18.7268
17.9434
18.544
19.3411
19.6753
19.6382
19.388
19.2234
19.4983
20.0986
20.5535
20.9302
21.2852
21.5956
21.8409
22.0033
22.066
22.01
21.7952
21.3519
20.5769
19.3182
17.4351
15.1803
13.7486
13.6831
13.9184
14.7751
16.2775
17.9831
19.6378
20.9618
21.4377
818.014
440.065
16.2045
17.277
18.192
18.6875
19.0619
19.3786
19.7372
20.1765
20.5917
20.9533
21.2938
21.6188
21.9197
22.1873
22.4152
22.5967
22.7228
22.7809
22.7527
22.6114
22.3188
21.8219
21.054
19.962
18.572
17.0239
15.4296
13.9995
13.0682
12.8589
13.3601
14.4621
16.3105
817.585
420.799
16.0587
16.7297
16.6502
16.9058
17.6955
18.5319
19.3446
20.1197
20.809
21.3697
21.8116
22.1743
22.4838
22.7547
22.9917
23.1941
23.3582
23.4777
23.5437
23.5442
23.4633
23.2792
22.9638
22.484
21.8084
20.9192
19.8061
18.5043
17.1176
15.8073
14.6873
13.5826
14.324
819.962
418.407
17.3414
16.8281
16.1073
15.2601
14.3715
13.6788
13.723
14.7764
16.5536
18.5637
20.2057
21.3045
22.0354
22.5563
22.9625
23.2929
23.5646
23.7846
23.9539
24.0685
24.1201
24.0962
23.9802
23.7518
23.3877
22.8647
22.1639
21.2773
20.2061
18.9821
17.5476
15.4794
15.6451
823.179
419.743
17.9439
19.3214
19.5346
19.2311
18.4415
16.9127
14.9676
13.1161
10.713
8.70794
11.6878
15.9811
18.9263
20.7548
21.9023
22.6674
23.2202
23.64
23.9644
24.2118
24.3898
24.4958
24.5193
24.4431
24.2461
23.9055
23.3993
22.7087
21.8221
20.7099
19.1707
16.9806
17.6312
825.916
425.157
18.5727
19.4282
19.252
18.7637
18.2398
17.66
17.9713
18.9883
19.2067
15.5494
8.82445
8.58869
13.8416
17.6669
20.0603
21.5989
22.588
23.2588
23.7584
24.1508
24.4507
24.6639
24.7885
24.8174
24.7357
24.5166
24.1316
23.5543
22.7619
21.7077
20.1324
18.2053
19.2179
827.547
449.759
21.8431
20.3108
18.3126
15.992
13.5678
10.4811
10.973
14.8116
17.2249
15.065
10.2352
13.5085
16.801
19.0084
20.72
21.9068
22.7407
23.384
23.9093
24.3337
24.6683
24.9171
25.0792
25.1491
25.1161
24.9548
24.6334
24.1211
23.3882
22.3713
20.8669
19.3148
20.3655
828.302
469.387
21.2301
18.0327
14.6192
10.4953
9.13062
11.2346
13.4013
13.1644
13.3267
16.142
17.3613
18.5903
20.0841
21.3084
22.2336
22.9454
23.5241
24.0148
24.4376
24.7975
25.0921
25.3189
25.4753
25.5527
25.5334
25.3915
25.0966
24.6175
23.921
22.9407
21.5458
20.3193
21.2454
828.672
454.151
17.9288
15.2254
10.4032
7.17348
10.9711
14.2343
15.0576
16.5273
17.5413
18.5078
19.6343
20.6485
21.5608
22.3406
22.9966
23.5547
24.0393
24.4666
24.8453
25.1779
25.4622
25.6931
25.8613
25.9548
25.9547
25.8353
25.567
25.1189
24.456
23.5135
22.216
21.2313
22.01
829.194
446.988
21.507
20.5616
18.2243
12.6815
5.76005
7.15508
12.487
14.7552
16.3174
17.6531
18.8848
20.0139
21.0272
21.9317
22.7228
23.4047
23.9904
24.4967
24.9382
25.3241
25.6572
25.9345
26.1477
26.2849
26.3276
26.2507
26.025
25.6194
24.9962
24.0899
22.8684
22.0846
22.7864
830.427
444.523
20.9944
21.0456
20.8406
19.6397
14.8261
8.24426
4.56137
7.80714
12.104
14.5705
16.2522
17.709
19.0111
20.2014
21.2985
22.2862
23.16
23.9126
24.5507
25.0894
25.5423
25.9169
26.2126
26.4227
26.5321
26.5178
26.3517
26.0019
25.4272
24.5593
23.4208
22.8704
23.6182
832.557
441.886
20.3452
20.4254
20.4313
20.6033
20.6023
17.6472
10.8613
6.86455
6.05369
8.63634
12.4038
14.6538
16.3448
17.8037
19.0867
20.273
21.393
22.4263
23.3577
24.1676
24.851
25.4135
25.8619
26.1987
26.4171
26.4999
26.4221
26.1524
25.6466
24.8396
23.8374
23.5678
24.4482
835.208
445.401
21.7357
21.793
21.493
20.9472
20.3499
20.3356
18.4587
12.7453
7.53637
5.99416
5.35027
10.1243
13.1045
14.9968
16.5647
17.9317
19.157
20.3107
21.4141
22.4542
23.4016
24.2293
24.9227
25.4759
25.882
26.1268
26.1889
26.0404
25.6382
24.9296
24.1131
24.1101
25.144
837.88
446.897
21.3862
21.4497
21.3754
21.1347
20.5046
19.2286
18.7337
17.2554
12.0117
5.56261
4.40459
5.89942
8.26366
11.6422
13.7404
15.3493
16.7529
18.0024
19.1729
20.3308
21.4996
22.635
23.6553
24.5006
25.1467
25.5839
25.8017
25.783
25.4961
24.922
24.3429
24.5629
25.722
840.36
451.947
21.9774
21.7688
21.5939
21.3614
20.9616
20.0665
18.2638
17.2209
15.278
9.11103
6.45898
4.33877
6.36889
6.74885
10.2226
12.4288
14.0489
15.4814
16.9384
18.4968
20.1005
21.6078
22.9034
23.945
24.7325
25.2733
25.5678
25.6071
25.3749
24.9139
24.5905
24.9956
26.2277
842.407
453.94
21.8719
21.5938
21.4148
21.1627
20.7274
19.9962
18.6827
16.956
15.7357
12.5859
6.98014
4.62336
6.50278
5.9981
5.13259
8.78929
11.5832
14.0158
16.2715
18.3672
20.2242
21.7795
23.0549
24.0721
24.8426
25.3688
25.6441
25.6553
25.3968
24.9772
24.8361
25.3601
26.6129
843.649
453.384
21.8372
21.6938
21.6053
21.4308
21.0551
20.2941
19.0313
17.304
15.6503
14.0379
8.71559
5.79659
6.16065
5.48092
5.21734
7.62289
12.1413
15.4699
17.9257
19.8422
21.3902
22.6805
23.7711
24.6682
25.3593
25.8274
26.0532
26.0144
25.7043
25.254
25.1285
25.6391
26.8402
844.076
452.987
21.7607
21.5717
21.4476
21.2663
20.9337
20.2936
19.0761
17.4612
15.9565
14.4484
11.7562
7.63073
4.05086
5.4879
4.93349
8.36768
14.0648
17.6418
19.7734
21.2558
22.438
23.4756
24.4078
25.2203
25.8738
26.3245
26.5349
26.4728
26.1221
25.5966
25.3512
25.7574
26.9121
844.453
453.674
21.7837
21.5089
21.3257
21.089
20.6896
19.9656
18.7134
17.0036
15.4892
14.1143
12.3883
8.00003
7.0419
4.19497
6.61742
7.2005
15.2384
19.1653
21.2174
22.4168
23.3234
24.1436
24.9304
25.6783
26.3413
26.8469
27.1223
27.1123
26.7887
26.2393
25.877
26.1436
27.2344
845.59
454.745
21.7887
21.4275
21.1877
20.8906
20.4155
19.6046
18.2667
16.4775
15.0126
13.786
11.9517
8.88409
6.32957
5.20169
4.38659
4.82376
13.5248
18.7561
21.5919
22.9996
23.8232
24.4772
25.1004
25.7371
26.3782
26.958
27.3672
27.501
27.3098
26.8777
26.562
26.7738
27.8094
847.076
454.206
21.6275
21.3313
21.1324
20.8588
20.388
19.5562
18.1841
16.2163
14.2171
12.8035
11.1986
8.53307
6.84723
6.58718
4.36524
5.828
8.43618
16.4447
20.3767
22.8065
24.0981
24.7968
25.2997
25.7786
26.3058
26.884
27.426
27.7761
27.8212
27.6191
27.4503
27.6287
28.4855
847.358
451.76
21.5086
21.3591
21.234
21.0508
20.7358
20.1589
19.0884
17.2535
14.8023
12.7397
10.9875
8.48926
4.35569
6.37231
4.26485
4.83126
4.41269
10.8982
17.28
21.0881
23.6254
25.0817
25.7788
26.122
26.3698
26.6693
27.0728
27.5013
27.7979
27.9051
27.9504
28.1244
28.7078
845.157
451.564
21.6289
21.3969
21.1943
20.9438
20.5874
20.075
19.3264
18.0108
15.7035
13.0001
10.8177
8.5584
5.51073
5.16134
5.99863
6.22997
6.66937
5.24503
12.1704
17.1762
21.0481
23.9664
25.9326
26.9922
27.3998
27.4645
27.4306
27.4445
27.514
27.5736
27.6151
27.7085
28.0512
841.519
452.844
21.7969
21.4886
21.2497
20.9594
20.5286
19.9051
19.1336
18.1464
16.4748
13.9101
11.4191
9.18003
6.5571
5.06769
5.83905
4.22121
6.02928
4.73942
7.32465
12.0635
16.1104
19.7342
22.8355
25.3127
27.0344
27.9453
28.1994
28.0743
27.8158
27.5404
27.2927
27.1363
27.2633
839.209
455.491
21.9473
21.4869
21.1742
20.7965
20.2081
19.3066
18.1747
16.9992
15.6676
13.795
11.7029
9.75701
7.52071
4.63392
6.45508
4.66202
6.04082
6.91993
6.96307
9.59339
12.0687
14.6919
17.4616
20.2661
22.9439
25.2761
26.9707
27.8321
27.9958
27.787
27.4403
27.1232
27.1144
839.422
455.546
21.7868
21.3976
21.1467
20.8132
20.2495
19.3284
18.0406
16.5043
14.8811
13.1966
11.4754
9.82759
8.03782
6.00034
5.30623
6.64513
5.54581
6.0125
9.248
11.1315
12.3485
13.3927
14.5407
16.0035
17.936
20.3468
22.9973
25.3884
26.951
27.5929
27.6624
27.4898
27.4724
841.551
454.552
21.759
21.4378
21.1984
20.8571
20.2787
19.3513
18.0764
16.508
14.7511
12.9947
11.3501
9.81803
8.17484
6.30561
5.43395
4.16067
5.25886
6.29931
10.7762
13.0403
14.2383
14.9627
15.4502
15.879
16.4859
17.5902
19.4605
21.9917
24.5159
26.2268
26.9989
27.2387
27.5609
844.927
453.322
21.7152
21.4625
21.2674
20.9883
20.5157
19.7441
18.6529
17.252
15.5302
13.643
11.8314
10.1783
8.48833
6.48204
6.23287
4.10268
5.25787
6.1138
10.9531
14.726
16.3875
17.3614
17.9179
18.1372
18.1827
18.293
18.8151
20.0918
22.0776
24.1209
25.5644
26.4848
27.643
849.197
453.916
21.8412
21.5505
21.3427
21.0662
20.6133
19.894
18.9353
17.7971
16.3606
14.5793
12.7076
10.9545
9.23849
7.24538
4.69323
5.34035
6.73862
5.87877
8.22851
14.2121
17.15
18.658
19.69
20.247
20.3718
20.2458
20.1006
20.2455
21.0169
22.5261
24.3542
26.0029
28.0309
852.181
454.28
21.7397
21.4266
21.2266
20.9644
20.5257
19.8138
18.8716
17.8588
16.727
15.2598
13.5256
11.8192
10.1792
8.39557
6.21509
5.26836
6.05842
4.64812
5.81051
11.544
17.143
19.533
20.8627
21.7392
22.1336
22.1079
21.8294
21.5415
21.63
22.5387
24.2265
26.0556
28.3413
851.62
454.526
21.72
21.4084
21.2124
20.9552
20.5225
19.8081
18.8321
17.8025
16.8149
15.6717
14.2251
12.6765
11.1888
9.63712
7.73564
5.14389
4.03785
4.83874
6.58438
7.1791
13.9031
18.895
20.945
22.1373
22.9099
23.2334
23.1801
23.0129
23.2059
24.1292
25.5436
27.002
28.78
848.646
453.2
21.5315
21.2838
21.1199
20.8959
20.5153
19.8745
18.9439
17.8822
16.9053
15.964
14.853
13.5614
12.2558
10.9285
9.39796
7.33005
4.4646
5.73876
4.09401
4.02852
8.9228
15.4957
20.1277
21.8295
22.7684
23.4249
23.6952
23.6638
23.8164
24.658
25.9186
27.1325
28.4764
845.037
452.498
21.5355
21.3027
21.1333
20.9147
20.5711
20.0167
19.1931
18.1618
17.146
16.2708
15.4129
14.4395
13.3829
12.2745
11.04
9.49678
7.26334
4.00986
5.43865
6.84726
6.96692
8.86615
15.4983
20.4792
22.3109
23.2734
23.9862
24.36
24.465
24.7234
25.2975
26.0366
27.1146
842.032
451.936
21.478
21.2203
21.0221
20.783
20.4463
19.9668
19.2992
18.4154
17.433
16.5589
15.8305
15.1294
14.379
13.5607
12.6145
11.459
9.92018
7.5956
4.0822
5.67894
7.21745
7.3174
10.0818
16.4702
21.284
22.9485
23.9998
25.039
25.8964
26.4286
26.778
27.1113
27.6913
841.741
452.694
21.5881
21.2492
20.9913
20.6933
20.2995
19.8115
19.2462
18.5483
17.7112
16.8822
16.2056
15.6631
15.1586
14.6199
13.9841
13.1719
12.0962
10.5998
8.31512
4.79024
6.30582
4.56938
4.76941
9.60675
16.0357
21.4221
23.0181
23.9976
25.1245
26.2476
27.0452
27.5117
27.928
841.731
453.397
21.5724
21.1648
20.8701
20.5272
20.0629
19.5093
18.9724
18.4301
17.7987
17.1129
16.5137
16.0734
15.7383
15.4151
15.0225
14.4977
13.7583
12.7087
11.1952
8.84455
5.11836
6.40438
4.51561
5.06394
9.9284
16.6378
21.1382
22.3058
22.9654
23.6758
24.4626
25.2748
26.3054
839.179
453.953
21.5592
21.1373
20.8502
20.5019
19.9885
19.3274
18.7007
18.1958
17.7268
17.2294
16.761
16.418
16.2063
16.0475
15.8513
15.5515
15.0827
14.3425
13.2035
11.4566
8.60468
4.03574
6.36706
4.76147
5.248
13.4297
21.3915
24.8795
25.4983
25.5336
25.504
25.5864
25.9199
832.549
453.049
21.3986
21.0754
20.8732
20.6
20.1333
19.4317
18.6584
18.0344
17.5851
17.223
16.911
16.689
16.5863
16.5618
16.541
16.4647
16.2797
15.9158
15.2626
14.1554
12.3468
9.38568
4.93651
4.60419
5.14721
9.36225
16.8365
23.1766
26.8217
28.3225
28.8772
28.8456
27.95
826.769
451.206
21.3072
21.1698
21.0993
20.9573
20.6318
20.018
19.1462
18.2604
17.5875
17.1516
16.8847
16.7506
16.7437
16.8317
16.9531
17.0647
17.1341
17.1253
16.994
16.6691
16.0374
14.9321
13.1347
10.4183
6.5899
7.65657
7.4849
10.5009
17.1397
21.3751
23.9526
25.5141
25.5368
822.073
449.479
21.2992
21.3246
21.3672
21.3593
21.2281
20.8616
20.1465
19.1307
18.1022
17.3157
16.833
16.61
16.5979
16.7424
16.9616
17.1981
17.4243
17.6237
17.785
17.8874
17.8966
17.7575
17.3923
16.7011
15.5836
14.0328
12.1711
10.1464
9.55128
10.4299
13.8284
16.6328
19.6262
818.535
449.168
21.3853
21.4395
21.5051
21.5503
21.5402
21.4007
21.0023
20.2204
19.1134
17.976
17.0885
16.5528
16.3512
16.4201
16.6539
16.9482
17.2494
17.5405
17.824
18.1004
18.362
18.5909
18.7597
18.8252
18.7314
18.374
17.6107
16.4155
14.9387
13.3367
14.4531
13.1955
6.54145
826.035
450.675
21.5661
21.5056
21.5006
21.5042
21.5037
21.4616
21.2826
20.8219
19.9544
18.7647
17.5814
16.6937
16.2068
16.1039
16.2724
16.5556
16.8592
17.1568
17.4563
17.768
18.0951
18.432
18.7622
19.033
19.153
19.1612
19.2788
19.5139
19.5412
19.0417
17.6431
12.4853
12.4236
848.684
453.62
21.8151
21.5371
21.407
21.3191
21.267
21.235
21.1356
20.8481
20.2345
19.2124
17.9655
16.8579
16.1281
15.8407
15.905
16.124
16.3614
16.5847
16.8034
17.0288
17.268
17.5183
17.7597
18.0832
19.1877
20.9179
22.3554
22.9821
22.6374
21.0872
18.5708
18.3668
23.5387
859.581
457.003
21.9587
21.4327
21.1765
21.0071
20.9266
20.906
20.8291
20.5932
20.1063
19.2658
18.1131
16.951
16.0821
15.6394
15.5794
15.7017
15.8347
15.9321
16.0001
16.04
16.0477
16.0482
16.3697
18.2873
21.6293
23.8829
24.6994
24.5677
23.6744
22.2521
21.4677
22.9888
26.7651
850.965
458.838
21.7458
21.0516
20.7172
20.5119
20.47
20.5112
20.4645
20.2524
19.8311
19.1391
18.1684
17.1
16.2002
15.6346
15.426
15.4268
15.4594
15.445
15.3643
15.1949
14.915
14.6697
15.3051
18.3885
22.968
25.4096
25.652
25.1454
24.3873
23.7369
23.775
24.7863
26.5198
837.065
457.598
21.2325
20.5593
20.2294
20.0106
19.9779
20.0672
20.081
19.9341
19.6002
19.053
18.2908
17.4003
16.5548
15.9121
15.5557
15.4322
15.3872
15.3078
15.1422
14.8469
14.3855
13.847
13.8901
16.1649
21.0517
25.1476
26.2534
25.8304
25.1449
24.7291
24.7441
25.0862
25.5305
829.987
453.989
20.7819
20.3174
20.056
19.7797
19.5655
19.5458
19.6096
19.5883
19.4076
19.0435
18.4986
17.8141
17.0828
16.4285
15.9645
15.7194
15.6098
15.5155
15.3586
15.0816
14.6261
13.966
13.2954
13.5982
16.5224
21.3517
24.9687
26.2035
25.9908
25.5199
25.2235
25.0543
24.8557
828.054
450.276
20.6969
20.4867
20.3172
20.0178
19.5499
19.1524
19.0651
19.1367
19.1458
19.003
18.6924
18.2315
17.6669
17.0763
16.564
16.2121
16.0285
15.9347
15.8395
15.6748
15.3822
14.8996
14.1965
13.4501
13.5505
15.9043
19.9756
23.6362
25.5675
25.9062
25.6959
25.3577
24.9322
828.842
448.198
20.8364
20.7835
20.7061
20.5072
20.0499
19.2997
18.7183
18.623
18.7396
18.7994
18.7173
18.4854
18.1226
17.6695
17.1955
16.7915
16.5299
16.4064
16.3525
16.2974
16.1884
15.9757
15.6032
15.0222
14.3122
14.0134
15.2049
18.1772
21.7304
24.2433
25.1174
25.2593
25.0918
831.514
448.165
20.9411
20.8924
20.8519
20.7526
20.4847
19.8314
18.8772
18.3321
18.3337
18.4903
18.5743
18.5334
18.367
18.0893
17.7299
17.3497
17.0381
16.8573
16.7916
16.7834
16.7854
16.7623
16.679
16.4887
16.1366
15.6101
15.1188
15.3264
17.0458
20.1347
22.714
23.9016
24.5704
835.816
449.848
21.0617
20.8582
20.7351
20.6009
20.4022
20.0029
19.1975
18.3871
18.1482
18.2708
18.4238
18.4917
18.4576
18.3237
18.0962
17.8023
17.5052
17.2814
17.1658
17.1395
17.1667
17.2206
17.2834
17.3327
17.338
17.2422
16.9579
16.4881
16.1804
17.0674
19.8251
22.1826
24.2284
841.244
452.095
21.2159
20.812
20.5495
20.2806
19.9964
19.674
19.158
18.4881
18.1597
18.2209
18.3803
18.4914
18.5231
18.4711
18.3349
18.1233
17.8711
17.6408
17.4873
17.4222
17.4277
17.4849
17.5852
17.7296
17.9276
18.1674
18.3336
18.2019
17.6354
17.0547
18.7378
21.7432
24.8225
845.142
453.815
21.2529
20.6784
20.2936
19.9005
19.539
19.2097
18.8409
18.423
18.1966
18.256
18.4128
18.5402
18.6045
18.5979
18.5173
18.3645
18.1564
17.9355
17.7555
17.6463
17.6084
17.6332
17.721
17.8884
18.1788
18.6383
19.1724
19.4428
19.1307
18.4584
19.5962
22.4617
25.5547
844.942
454.701
21.1112
20.3682
19.8452
19.3379
19.0109
18.7569
18.4935
18.2652
18.1869
18.2884
18.4528
18.5926
18.6801
18.7062
18.6671
18.5611
18.3957
18.1966
18.0063
17.8612
17.7759
17.7528
17.7981
17.9366
18.2326
18.7844
19.5735
20.2376
20.3513
20.1097
21.0967
23.2849
25.7479
841.951
455.063
20.934
20.0237
19.32
18.6395
18.379
18.2732
18.1455
18.0575
18.0928
18.2439
18.4294
18.5912
18.7073
18.769
18.7724
18.715
18.5988
18.4375
18.2602
18.1006
17.9824
17.9178
17.9166
18.0022
18.2345
18.7279
19.5674
20.5301
21.1471
21.431
22.3264
23.8244
25.616
839.444
454.886
20.7879
19.7939
18.944
18.0183
17.7035
17.7179
17.7316
17.7607
17.8747
18.0683
18.284
18.4789
18.6333
18.7392
18.7925
18.7907
18.7335
18.6265
18.4875
18.3425
18.2171
18.132
18.1013
18.1473
18.3146
18.6899
19.3959
20.4112
21.388
22.1251
23.0297
24.1232
25.5211
839.124
454.046
20.6831
19.7426
18.8636
17.6783
17.0642
17.0746
17.1927
17.3214
17.5016
17.7369
17.9887
18.2235
18.4221
18.5767
18.6833
18.7392
18.7431
18.6968
18.6105
18.5022
18.3949
18.3129
18.2783
18.321
18.4841
18.8217
19.4113
20.3159
21.3897
22.3913
23.3733
24.3352
25.648
840.763
453.038
20.6978
19.872
19.0547
17.724
16.5864
16.3955
16.5492
16.7522
16.9889
17.2655
17.5573
17.836
18.0823
18.2875
18.4472
18.558
18.6177
18.6258
18.588
18.5173
18.4334
18.3632
18.3405
18.4211
18.6757
19.1354
19.7887
20.6497
21.6832
22.7418
23.7452
24.6804
26.0554
843.062
452.965
20.8417
20.0398
19.2579
17.9386
16.3536
15.7873
15.8831
16.1242
16.4011
16.7103
17.0373
17.3572
17.6506
17.9073
18.1206
18.2849
18.396
18.4504
18.4507
18.4062
18.3343
18.2663
18.2584
18.4282
18.9117
19.6593
20.5249
21.4562
22.4446
23.431
24.3445
25.216
26.5817
844.274
454.304
20.9369
20.0032
19.1445
17.8083
16.1516
15.3263
15.3235
15.5633
15.8515
16.1697
16.5109
16.8559
17.1867
17.4904
17.7563
17.9745
18.1363
18.2341
18.2667
18.2396
18.1678
18.0878
18.0918
18.4072
19.2681
20.4158
21.4966
22.5017
23.4448
24.2992
25.0451
25.7743
26.9577
843.51
455.96
20.8291
19.7035
18.6782
17.1685
15.6596
14.8928
14.8782
15.1065
15.3848
15.6903
16.0236
16.3741
16.7289
17.0735
17.3921
17.6682
17.8864
18.0342
18.106
18.1025
18.0341
17.9371
17.9322
18.3568
19.599
21.2055
22.4413
23.4407
24.3157
25.034
25.6083
26.1588
27.0479
841.396
455.902
20.5469
19.3917
18.2926
16.6272
15.0988
14.4421
14.4453
14.6627
14.9264
15.2128
15.5286
15.8745
16.2452
16.6288
17.0051
17.3501
17.6403
17.8574
17.9916
18.0384
18.0008
17.9031
17.8541
18.2138
19.5671
21.6549
23.1887
24.1329
24.8914
25.4813
25.9167
26.3046
26.9081
839.178
453.414
20.2864
19.4112
18.5294
17.0175
15.1509
14.1005
13.9204
14.092
14.353
14.6405
14.9529
15.2977
15.6813
16.0997
16.5363
16.9633
17.3468
17.6615
17.8933
18.0327
18.0746
18.0229
17.9367
18.0667
19.0415
21.2428
23.4149
24.5524
25.2212
25.6939
26.0246
26.2957
26.7063
837.782
450.222
20.3182
19.8545
19.3715
18.4042
16.5361
14.5639
13.5569
13.4032
13.6058
13.9045
14.2317
14.5844
14.9784
15.4268
15.9242
16.4423
16.9351
17.3697
17.7299
18.0037
18.1794
18.2457
18.2107
18.1739
18.5441
20.0758
22.611
24.4662
25.3313
25.7883
26.0666
26.2772
26.6101
837.683
448.224
20.542
20.3329
20.1256
19.7168
18.6371
16.534
14.3623
13.1416
12.8874
13.086
13.4166
13.7808
14.1774
14.6319
15.1633
15.7571
16.3622
16.9288
17.4284
17.8527
18.1883
18.4194
18.5319
18.5351
18.5714
19.1559
20.993
23.4156
24.9276
25.6425
26.0101
26.2612
26.6569
839.022
448.218
20.7737
20.5755
20.4048
20.1865
19.8041
18.6874
16.5098
14.2069
12.8489
12.5208
12.7001
13.0301
13.4081
13.8394
14.36
14.9819
15.6678
16.3527
16.9884
17.5583
18.0511
18.4555
18.7532
18.925
18.987
19.1087
19.8725
21.8189
23.8844
25.103
25.745
26.1773
26.8056
841.507
450.546
21.0935
20.6987
20.3871
20.0458
19.7486
19.3841
18.1949
15.9813
13.8082
12.6357
12.3888
12.5548
12.8534
13.2198
13.6782
14.2638
14.9723
15.7359
16.49
17.188
17.8141
18.3645
18.8288
19.1842
19.4061
19.5151
19.7452
20.7636
22.7004
24.3431
25.3501
26.0613
27.0419
844.442
454.866
21.435
20.7118
20.1989
19.6672
19.2491
18.9767
18.3955
16.8958
14.7959
13.2004
12.5502
12.4819
12.6415
12.9012
13.257
13.7525
14.4184
15.214
16.0505
16.8502
17.5832
18.2482
18.8446
19.3569
19.7535
20.0059
20.168
20.6417
22.0646
23.8094
25.0951
26.0606
27.3643
846.772
458.583
21.3548
20.2873
19.5692
18.9241
18.5672
18.2793
17.7398
16.6404
14.9978
13.5768
12.8713
12.6718
12.6999
12.8419
13.0881
13.4796
14.0703
14.8527
15.7349
16.6077
17.4199
18.1678
18.8589
19.4879
20.0281
20.4398
20.718
21.0823
22.1425
23.7717
25.1431
26.2297
27.6894
847.629
457.974
20.6679
19.4692
18.6296
17.9498
17.7331
17.4889
16.9196
15.9751
14.7678
13.7538
13.2033
12.9701
12.9008
12.9333
13.0704
13.3569
13.8611
14.6072
15.5134
16.4448
17.3245
18.1422
18.9106
19.6333
20.2909
20.846
21.2829
21.75
22.7025
24.1548
25.4252
26.4728
27.8854
846.826
453.362
19.965
19.0179
18.2313
17.3732
16.9532
16.7249
16.2694
15.5418
14.6893
13.9756
13.5223
13.2573
13.1075
13.0432
13.0757
13.2579
13.6722
14.3741
15.3006
16.2928
17.2413
18.1262
18.9653
19.7722
20.5367
21.2282
21.8344
22.4689
23.4297
24.6893
25.7584
26.6652
27.8913
845.042
449.774
20.0065
19.3576
18.6931
17.5999
16.5416
16.1412
15.8522
15.3838
14.7875
14.2264
13.8004
13.4956
13.2761
13.1239
13.0521
13.1183
13.4199
14.0532
14.994
16.0645
17.1056
18.0757
18.995
19.888
20.7561
21.5779
22.3437
23.1314
24.1014
25.1638
26.018
26.7536
27.7501
843.147
450.042
20.3616
19.6349
18.992
18.0769
16.6912
15.8507
15.56
15.269
14.8648
14.4258
14.0331
13.7081
13.4394
13.2164
13.0503
12.9961
13.1596
13.6812
14.6021
15.7476
16.8945
17.9609
18.9652
19.9434
20.9106
21.8538
22.7589
23.6599
24.6101
25.496
26.1707
26.7527
27.5496
841.716
453.082
20.4051
19.2
18.2845
17.6375
16.7281
15.7779
15.4021
15.1713
14.8852
14.5571
14.2249
13.9127
13.6234
13.3535
13.1125
12.9471
12.9638
13.3355
14.1852
15.3831
16.644
17.8193
18.9118
19.967
21.015
22.0537
23.0627
24.0326
24.9425
25.6896
26.2327
26.6987
27.3568
840.833
455.839
20.1273
18.2231
16.7606
16.3944
16.1823
15.6554
15.3623
15.1639
14.9369
14.6783
14.4001
14.1142
13.8246
13.5302
13.2379
12.9857
12.873
13.0862
13.8179
15.02
16.3779
17.6625
18.844
19.9713
21.0862
22.1961
23.2744
24.277
25.1393
25.7862
26.2401
26.6286
27.2058
840.346
455.214
19.3521
16.9905
15.1816
15.3347
15.587
15.4887
15.3581
15.2094
15.025
14.8088
14.5656
14.3007
14.0152
13.7071
13.3793
13.0604
12.8385
12.8998
13.4893
14.6586
16.1012
17.5016
18.7783
19.9757
21.1445
22.3012
23.417
24.4253
25.2412
25.819
26.2153
26.556
27.0902
840.009
451.606
18.4045
16.0481
14.1383
14.5972
15.0938
15.249
15.2594
15.1874
15.0599
14.8901
14.6837
14.4446
14.1728
13.8646
13.5186
13.1533