/*--------------------------------*- C++ -*----------------------------------*\
| =========                 |                                                 |
| \\      /  F ield         | OpenFOAM: The Open Source CFD Toolbox           |
|  \\    /   O peration     | Version:  v2006                                 |
|   \\  /    A nd           | Website:  www.openfoam.com                      |
|    \\/     M anipulation  |                                                 |
\*---------------------------------------------------------------------------*/
FoamFile
{
    version     2.0;
    format      ascii;
    class       volVectorField;
    location    "66";
    object      U;
}
// * * * * * * * * * * * * * * * * * * * * * * * * * * * * * * * * * * * * * //

dimensions      [0 1 -1 0 0 0 0];


internalField   nonuniform List<vector> 
78750
(
(-0.603636 -0.289284 -0.269974)
(-0.524928 -0.262502 -0.261603)
(-0.505618 -0.223521 -0.242694)
(-0.423843 -0.189471 -0.218265)
(-0.328248 -0.155031 -0.187229)
(-0.294931 -0.135686 -0.171965)
(-0.269093 -0.120368 -0.161306)
(-0.232281 -0.108587 -0.151223)
(-0.202525 -0.0982027 -0.143069)
(-0.173509 -0.0889279 -0.134593)
(-0.148553 -0.0808624 -0.126843)
(-0.124633 -0.0737859 -0.119455)
(-0.104373 -0.067735 -0.112875)
(-0.086088 -0.0618477 -0.10605)
(-0.0684459 -0.0570142 -0.0996947)
(-0.0534732 -0.0524473 -0.0934736)
(-0.0391403 -0.0483597 -0.0873027)
(-0.0262531 -0.0446363 -0.0811939)
(-0.014414 -0.0412201 -0.0750833)
(-0.00361072 -0.0380666 -0.0689256)
(0.00615199 -0.0351296 -0.0626701)
(0.0149407 -0.0323563 -0.0562529)
(0.0228162 -0.0297109 -0.0496139)
(0.0297368 -0.0271616 -0.0426886)
(0.0356587 -0.0246813 -0.0354009)
(0.0405134 -0.0222386 -0.0277017)
(0.0442575 -0.0197884 -0.0196096)
(0.0468309 -0.0173602 -0.0110315)
(0.0481032 -0.0149655 -0.00198838)
(0.0479022 -0.0126201 0.00732802)
(0.046001 -0.0104921 0.016361)
(0.0419455 -0.00881604 0.0238053)
(0.0359089 -0.00757524 0.0279985)
(0.030524 -0.00443933 0.0303494)
(0.0138374 0.0668524 0.0261284)
(0.0860581 -0.443662 -0.136394)
(-0.0901406 -0.299471 -0.209702)
(-0.00916978 -0.309125 -0.248839)
(-0.0490093 -0.340262 -0.269153)
(-0.0519042 -0.291451 -0.276933)
(-0.0585516 -0.223756 -0.271393)
(-0.0591089 -0.174207 -0.265899)
(-0.0585442 -0.140655 -0.261203)
(-0.0560787 -0.114443 -0.256207)
(-0.0525629 -0.0933559 -0.251248)
(-0.0481397 -0.0764162 -0.246267)
(-0.0430542 -0.0623947 -0.241336)
(-0.0374203 -0.0505982 -0.236354)
(-0.0312703 -0.0406624 -0.231405)
(-0.0248238 -0.0321909 -0.226449)
(-0.0181152 -0.0249389 -0.221486)
(-0.0113889 -0.0186107 -0.216379)
(-0.00471577 -0.0129671 -0.211044)
(0.00188786 -0.0078643 -0.205443)
(0.008386 -0.00317505 -0.199531)
(0.0147325 0.00121521 -0.193243)
(0.0208592 0.00542009 -0.186499)
(0.0266918 0.00954198 -0.179198)
(0.032145 0.0136807 -0.171216)
(0.0371183 0.0179315 -0.162404)
(0.0414938 0.0223953 -0.152595)
(0.045074 0.0271954 -0.1416)
(0.0476297 0.0324134 -0.129102)
(0.0489467 0.0381358 -0.114759)
(0.0487674 0.0444821 -0.0980426)
(0.0467077 0.0516566 -0.0780536)
(0.0422564 0.0599966 -0.0539229)
(0.035298 0.0708179 -0.0254141)
(0.0254283 0.103894 0.01113)
(0.00839101 0.238235 0.0346342)
(-0.0319438 0.179131 -0.0979352)
(-0.0434749 0.111145 -0.12149)
(-0.0628046 0.0875 -0.109131)
(-0.0758392 0.0728455 -0.116388)
(-0.0895837 0.0383695 -0.131255)
(-0.095113 0.0206641 -0.142593)
(-0.097834 0.0138366 -0.149324)
(-0.0977866 0.0117193 -0.154236)
(-0.0957333 0.0119725 -0.157784)
(-0.0921781 0.01342 -0.160288)
(-0.0875128 0.0155054 -0.161946)
(-0.0820464 0.0178592 -0.162929)
(-0.075995 0.0203265 -0.16335)
(-0.0695459 0.0228225 -0.163298)
(-0.0628187 0.0253096 -0.162835)
(-0.0558363 0.0277593 -0.162019)
(-0.0486135 0.0302397 -0.160804)
(-0.0412134 0.0327747 -0.159193)
(-0.0337522 0.0353832 -0.15719)
(-0.0263181 0.0381053 -0.154777)
(-0.0189849 0.0409921 -0.151916)
(-0.0118223 0.0441064 -0.148553)
(-0.00490014 0.0475232 -0.144612)
(0.0016917 0.0513328 -0.139996)
(0.00786386 0.0556437 -0.134581)
(0.0135217 0.0605857 -0.128214)
(0.0185354 0.0663129 -0.120703)
(0.0227538 0.0730128 -0.11179)
(0.025976 0.0808955 -0.101132)
(0.0279527 0.0901421 -0.0883602)
(0.0283206 0.100797 -0.0732495)
(0.0268815 0.112825 -0.0560134)
(0.0236677 0.12815 -0.0357931)
(0.0174594 0.168643 -0.00511787)
(0.00459755 0.313128 0.0312853)
(0.00114158 0.0623319 -0.0178998)
(0.0043934 0.0379691 -0.0308903)
(0.00159868 0.0179375 -0.0362323)
(9.53641e-05 0.00397166 -0.0412883)
(-0.00235458 -0.00513716 -0.0465302)
(-0.00568133 -0.00908874 -0.0526682)
(-0.0089144 -0.0088121 -0.059336)
(-0.0115078 -0.00579161 -0.0658546)
(-0.0134578 -0.0012248 -0.0718599)
(-0.0148262 0.00404898 -0.0772842)
(-0.0156425 0.0094944 -0.0821567)
(-0.0159145 0.0148164 -0.0865029)
(-0.01565 0.0198872 -0.0903317)
(-0.014863 0.0246755 -0.0936457)
(-0.0135745 0.0291994 -0.0964478)
(-0.0118112 0.0334977 -0.0987441)
(-0.00960576 0.0376129 -0.100541)
(-0.00699357 0.0415826 -0.101846)
(-0.00401571 0.045455 -0.10266)
(-0.000719555 0.0492909 -0.102979)
(0.00284061 0.0531622 -0.102786)
(0.00660285 0.0571537 -0.102049)
(0.0104951 0.0613643 -0.100714)
(0.0144324 0.0659094 -0.0987117)
(0.0183147 0.0709266 -0.095951)
(0.0220236 0.0765773 -0.0923157)
(0.0254174 0.0830571 -0.0876563)
(0.0283261 0.0906099 -0.0817748)
(0.0305392 0.0995527 -0.0744046)
(0.031755 0.110314 -0.065218)
(0.0315841 0.123487 -0.0539706)
(0.0297019 0.140433 -0.0404634)
(0.0253147 0.168364 -0.0233912)
(0.0160814 0.248802 -0.00114486)
(0.00200836 0.387887 0.0259925)
(-0.00301819 0.126567 0.0280214)
(-0.00608744 0.140991 0.0185349)
(-0.0108445 0.134893 0.00294761)
(-0.0163104 0.122842 -0.0151352)
(-0.0211803 0.110506 -0.0291224)
(-0.0254208 0.100847 -0.038334)
(-0.0290338 0.0938928 -0.0444372)
(-0.0319636 0.0890161 -0.0487404)
(-0.0341763 0.0856743 -0.0520083)
(-0.0356888 0.0834677 -0.0546821)
(-0.0365494 0.0820968 -0.0570197)
(-0.0368139 0.0813271 -0.0591567)
(-0.0365325 0.0809771 -0.0611643)
(-0.0357481 0.0809168 -0.0630732)
(-0.0344979 0.0810659 -0.0648825)
(-0.0328141 0.0813896 -0.0665673)
(-0.0307272 0.0818923 -0.0680891)
(-0.0282695 0.0826098 -0.0693997)
(-0.0254764 0.0836017 -0.0704437)
(-0.0223871 0.0849466 -0.0711604)
(-0.0190452 0.0867403 -0.0714824)
(-0.0154988 0.0890961 -0.0713345)
(-0.0118008 0.0921468 -0.070632)
(-0.00801007 0.096048 -0.0692779)
(-0.00419283 0.100983 -0.0671591)
(-0.000424912 0.107169 -0.0641388)
(0.00320581 0.114877 -0.060044)
(0.00659972 0.124454 -0.0546461)
(0.00964316 0.136371 -0.0476413)
(0.012197 0.151312 -0.0386459)
(0.0141075 0.170399 -0.0272083)
(0.0152555 0.19636 -0.0125376)
(0.0152457 0.238806 0.00723211)
(0.0122548 0.324708 0.0290655)
(0.00281222 0.428239 0.0394704)
(-0.0032465 0.111996 0.0411111)
(-0.00773258 0.129373 0.0384718)
(-0.0128265 0.127416 0.0289369)
(-0.017726 0.119989 0.0164973)
(-0.0215886 0.110569 0.00558472)
(-0.0245081 0.101932 -0.0021278)
(-0.026656 0.0949314 -0.00741068)
(-0.0281658 0.0895794 -0.0112119)
(-0.029131 0.0856685 -0.0141314)
(-0.0296006 0.0830083 -0.0165274)
(-0.0296207 0.0813939 -0.0186602)
(-0.0292316 0.0806029 -0.0207124)
(-0.0284798 0.0804452 -0.0227392)
(-0.0273998 0.0807893 -0.0247627)
(-0.026012 0.0815292 -0.0268105)
(-0.0243372 0.0825643 -0.0288962)
(-0.0223973 0.0838269 -0.0310127)
(-0.0202101 0.0852908 -0.0331498)
(-0.0177975 0.0869573 -0.0352894)
(-0.0151813 0.0888485 -0.0373908)
(-0.0123784 0.0910106 -0.0394021)
(-0.00940301 0.093511 -0.0412593)
(-0.00627382 0.0964349 -0.0428763)
(-0.00301846 0.0998874 -0.0441385)
(0.000322399 0.103996 -0.0449)
(0.00369096 0.108916 -0.0449834)
(0.00700767 0.114825 -0.0441805)
(0.0101641 0.121936 -0.0422528)
(0.0130066 0.130499 -0.0389401)
(0.0153079 0.14086 -0.0339842)
(0.0167778 0.153757 -0.0271035)
(0.0172058 0.172065 -0.0174867)
(0.0158009 0.212324 -0.00218316)
(0.011289 0.344233 0.0236784)
(0.00249767 0.464708 0.0384891)
(0.00276298 0.102813 0.0538016)
(-0.000932433 0.148657 0.0501854)
(-0.00629304 0.15106 0.0432231)
(-0.0114271 0.143555 0.0355437)
(-0.0165559 0.130978 0.0281558)
(-0.0209417 0.11785 0.0229147)
(-0.0246326 0.106949 0.0197136)
(-0.0276829 0.0985811 0.0176641)
(-0.0300726 0.0922914 0.0161352)
(-0.0317777 0.0876613 0.0148346)
(-0.032797 0.0844529 0.0136571)
(-0.0331803 0.0824055 0.0124493)
(-0.0329592 0.0812182 0.0110646)
(-0.0321798 0.0806762 0.00948375)
(-0.0309544 0.0806589 0.00774656)
(-0.0293739 0.0810911 0.00589251)
(-0.0274837 0.0819671 0.00395157)
(-0.0253382 0.0833335 0.00194448)
(-0.0229668 0.085253 -0.000159465)
(-0.0203941 0.0877444 -0.00240924)
(-0.0176726 0.0908024 -0.00478786)
(-0.0148345 0.0944754 -0.00726612)
(-0.0118923 0.0988743 -0.00982756)
(-0.00884918 0.104155 -0.0124568)
(-0.00570578 0.110509 -0.0151224)
(-0.00247084 0.118172 -0.0177545)
(0.000826502 0.127449 -0.0202242)
(0.00412005 0.138762 -0.0223113)
(0.00727423 0.152732 -0.0236462)
(0.0100409 0.170383 -0.0235869)
(0.0120398 0.193856 -0.0208716)
(0.0126449 0.229045 -0.0124)
(0.00955622 0.294228 0.00873575)
(0.00386994 0.41306 0.0364162)
(-0.000910005 0.486251 0.0430125)
(0.00315608 0.0367697 0.0686398)
(0.00568751 0.119875 0.0747203)
(0.00369236 0.139899 0.0712935)
(0.000191727 0.141599 0.0700834)
(-0.00443118 0.136737 0.0690576)
(-0.00946372 0.128468 0.0669025)
(-0.0143414 0.118831 0.0634231)
(-0.0187669 0.1092 0.059255)
(-0.022563 0.100227 0.0550876)
(-0.0256468 0.0921975 0.0512734)
(-0.0279851 0.0853061 0.0479042)
(-0.0295864 0.0797462 0.0449752)
(-0.0305147 0.0756813 0.0424087)
(-0.0308867 0.0730898 0.0400297)
(-0.0307745 0.0717926 0.0376706)
(-0.0302304 0.0715797 0.0353125)
(-0.0293092 0.0722979 0.0330125)
(-0.0280569 0.0738732 0.0308206)
(-0.0265332 0.0763017 0.0287807)
(-0.0247694 0.0796727 0.0268477)
(-0.0228054 0.0840382 0.0249394)
(-0.0207225 0.0892725 0.0230523)
(-0.0185639 0.0952848 0.0212489)
(-0.0163542 0.102064 0.0196138)
(-0.0141004 0.109704 0.0182421)
(-0.0117945 0.118448 0.0172212)
(-0.0094065 0.128679 0.0166378)
(-0.00688494 0.140947 0.0165693)
(-0.00415108 0.156103 0.0170402)
(-0.00109051 0.175639 0.0179529)
(0.00245345 0.202671 0.0190085)
(0.0067311 0.245006 0.0196508)
(0.0109009 0.321966 0.0207655)
(0.0097444 0.441478 0.0306207)
(0.00379143 0.497377 0.0382055)
(0.00123088 -0.030473 0.0647345)
(0.00915735 0.0368226 0.087221)
(0.0158495 0.0807111 0.082842)
(0.019349 0.101391 0.0737757)
(0.0191609 0.105291 0.0658724)
(0.0163665 0.100714 0.0616868)
(0.0119863 0.0926961 0.0611585)
(0.00708032 0.083862 0.0627147)
(0.00241068 0.0755457 0.0643458)
(-0.00167616 0.0682518 0.0648646)
(-0.00501545 0.0621786 0.0641259)
(-0.00750337 0.0574866 0.0625087)
(-0.00920562 0.0541311 0.0603518)
(-0.0102263 0.0518807 0.0577415)
(-0.0105946 0.0505186 0.0547388)
(-0.0103666 0.0499333 0.0515189)
(-0.00964875 0.0500896 0.0482268)
(-0.00851332 0.0509865 0.0449505)
(-0.00701252 0.0526436 0.0417295)
(-0.00517427 0.0550992 0.038561)
(-0.00303666 0.0584177 0.0353981)
(-0.000693353 0.0626566 0.0321956)
(0.00172397 0.0679408 0.028824)
(0.00414248 0.0744052 0.0250269)
(0.0065008 0.0820022 0.0206354)
(0.0087112 0.0905062 0.0156603)
(0.0107181 0.0997459 0.010247)
(0.0124098 0.109584 0.0047552)
(0.0135444 0.119856 -6.64423e-05)
(0.0138198 0.13062 -0.00299691)
(0.01305 0.143703 -0.00212328)
(0.0103724 0.170596 0.00761511)
(0.00485937 0.2704 0.0332901)
(0.00145652 0.448976 0.055046)
(-0.000555766 0.500496 0.0502901)
(0.000544828 -0.0917073 0.0224037)
(0.00569603 -0.0955846 0.0349534)
(0.0131752 -0.0566877 0.0563949)
(0.0204704 0.0043879 0.0847753)
(0.0239008 0.0574266 0.101464)
(0.0228439 0.0863761 0.1029)
(0.0189157 0.0958478 0.0968258)
(0.0134925 0.0942702 0.0889455)
(0.00763916 0.0869516 0.0813763)
(0.00209379 0.0774921 0.0747849)
(-0.00292578 0.0680892 0.0692347)
(-0.00732746 0.0598351 0.0646115)
(-0.0110728 0.0531893 0.0607794)
(-0.0141599 0.0482896 0.0575923)
(-0.0166559 0.0450808 0.0548606)
(-0.0187239 0.0434362 0.0523796)
(-0.0203802 0.0432397 0.05016)
(-0.0215936 0.0443622 0.0483612)
(-0.0223688 0.0467464 0.0470989)
(-0.0226967 0.0504218 0.0464417)
(-0.0226055 0.0558029 0.0463237)
(-0.0220406 0.0634369 0.046695)
(-0.0209807 0.0734228 0.0475756)
(-0.0194238 0.0856529 0.0489012)
(-0.0173949 0.10016 0.0504678)
(-0.0149065 0.117261 0.0519628)
(-0.0119694 0.137648 0.0528853)
(-0.00855353 0.162539 0.0525414)
(-0.00455368 0.19396 0.0500097)
(0.000120732 0.235413 0.0440866)
(0.00592919 0.2904 0.0340149)
(0.0116242 0.359955 0.0218279)
(0.0114204 0.437364 0.0198925)
(0.00718913 0.515955 0.0309339)
(0.0029018 0.524275 0.0352885)
(0.000984101 -0.128725 -0.0366295)
(-0.000717116 -0.149731 -0.0641686)
(-0.00150039 -0.138458 -0.0521362)
(8.20814e-05 -0.0975804 -0.00189332)
(0.00373933 -0.0445255 0.0546941)
(0.00769834 0.00175447 0.0964752)
(0.0110011 0.0319183 0.12032)
(0.0134866 0.0471476 0.130541)
(0.0155253 0.0534137 0.133138)
(0.0171614 0.0547475 0.131401)
(0.0183747 0.0531884 0.126797)
(0.0192197 0.0499575 0.12021)
(0.0197826 0.0459353 0.112365)
(0.0201247 0.0418142 0.103922)
(0.0202867 0.0380825 0.0954496)
(0.0203007 0.0349694 0.0872666)
(0.0201554 0.0324691 0.0794071)
(0.0198294 0.0304316 0.0718085)
(0.0192803 0.0286737 0.0643917)
(0.0184518 0.0270783 0.0571859)
(0.0173756 0.0257159 0.050403)
(0.0161494 0.0249044 0.0442722)
(0.0148746 0.0249576 0.038742)
(0.0136511 0.0260571 0.0338828)
(0.0126496 0.0282275 0.0300306)
(0.0119531 0.0314501 0.0274562)
(0.0115542 0.0356471 0.0263415)
(0.0112723 0.0406489 0.0267332)
(0.0109259 0.046278 0.0284612)
(0.0104594 0.0531603 0.0316521)
(0.00950259 0.0671959 0.0380151)
(0.00721767 0.125877 0.0499118)
(0.00402886 0.319208 0.0552)
(0.000274937 0.500059 0.0570141)
(0.000169115 0.509073 0.0466967)
(-0.00325865 -0.104261 -0.0481671)
(-0.0155086 -0.100234 -0.0907737)
(-0.0270809 -0.0869164 -0.0798113)
(-0.0375583 -0.0731684 -0.0478387)
(-0.0429875 -0.0588032 -0.016121)
(-0.0443549 -0.046244 0.00389652)
(-0.043146 -0.0369777 0.0156661)
(-0.0399693 -0.0311896 0.0219165)
(-0.0355288 -0.0283225 0.024418)
(-0.0303238 -0.0275232 0.0243609)
(-0.0247038 -0.0277775 0.0227121)
(-0.0189784 -0.0282238 0.0201863)
(-0.0134396 -0.0281722 0.0173194)
(-0.00836382 -0.0271157 0.0145108)
(-0.00399609 -0.0247147 0.0120563)
(-0.000520833 -0.0207558 0.0101835)
(0.00188366 -0.0150926 0.00908695)
(0.00312365 -0.0075868 0.0089619)
(0.00315854 0.00191913 0.0100156)
(0.00190021 0.0135453 0.0124072)
(-0.000520855 0.0272017 0.0160617)
(-0.00373622 0.0426669 0.0207291)
(-0.00737275 0.059626 0.0258164)
(-0.0110269 0.0779787 0.0305618)
(-0.0142414 0.098143 0.0340228)
(-0.0166153 0.120986 0.0353988)
(-0.0177435 0.14754 0.0344872)
(-0.0172567 0.179182 0.0318024)
(-0.0150372 0.218611 0.0285095)
(-0.0112884 0.270634 0.0265896)
(-0.00578011 0.339234 0.0280657)
(0.000816546 0.427817 0.0356678)
(0.002652 0.517575 0.0444045)
(0.00194149 0.562018 0.0469407)
(0.00165416 0.526455 0.0412573)
(-0.00323469 -0.0568415 -0.0298047)
(-0.0159418 -0.0529235 -0.0863192)
(-0.0256678 -0.0552762 -0.0974731)
(-0.0341448 -0.0574608 -0.0947325)
(-0.0416817 -0.0588002 -0.0853621)
(-0.0464793 -0.0615847 -0.073231)
(-0.048251 -0.0674439 -0.0624242)
(-0.047591 -0.0751358 -0.0544389)
(-0.0448227 -0.0828677 -0.0490971)
(-0.0404869 -0.0894465 -0.0457141)
(-0.0350657 -0.0941273 -0.0436787)
(-0.028851 -0.0963441 -0.0426739)
(-0.0220783 -0.0956799 -0.0425503)
(-0.0150055 -0.0919712 -0.0431867)
(-0.00792299 -0.0853631 -0.0444245)
(-0.00112993 -0.0762508 -0.0460605)
(0.00509578 -0.0651876 -0.0478656)
(0.0105281 -0.052837 -0.0496001)
(0.0150423 -0.0399484 -0.0510162)
(0.0186724 -0.0272604 -0.051826)
(0.0215641 -0.0154711 -0.0517924)
(0.0237609 -0.00512586 -0.0505525)
(0.0255229 0.00331797 -0.0478565)
(0.0274497 0.0097523 -0.0435344)
(0.030149 0.0145582 -0.03729)
(0.0334682 0.0185496 -0.0292997)
(0.0357764 0.0201641 -0.0199742)
(0.0359447 0.0184556 -0.00833267)
(0.034267 0.0161675 0.00547474)
(0.0317823 0.0159523 0.0186914)
(0.028704 0.0178719 0.0319174)
(0.0256706 0.0884507 0.0464483)
(0.0239025 0.346576 0.0591888)
(0.0172105 0.538904 0.0645917)
(0.00829487 0.538191 0.0543586)
(-0.000789816 -0.0446552 -0.0259095)
(-0.00322929 -0.036609 -0.0597739)
(-0.00188515 -0.0399795 -0.0646876)
(0.00102548 -0.0481104 -0.0618686)
(0.00618785 -0.0622619 -0.05151)
(0.0132607 -0.0857049 -0.0325801)
(0.0213227 -0.116571 -0.012458)
(0.0291307 -0.14522 0.000983199)
(0.0361888 -0.168059 0.00906292)
(0.0424556 -0.186401 0.0145156)
(0.0478314 -0.201583 0.0186153)
(0.0523444 -0.213843 0.0216303)
(0.0563013 -0.222489 0.0234214)
(0.0601384 -0.226403 0.0238058)
(0.0642192 -0.224654 0.0227048)
(0.0687324 -0.216928 0.0202271)
(0.0736939 -0.203457 0.0165991)
(0.0789184 -0.184826 0.011954)
(0.0839367 -0.162258 0.00619247)
(0.0880165 -0.1377 -0.00101694)
(0.090469 -0.113109 -0.0101477)
(0.0908334 -0.0898214 -0.0215322)
(0.0888063 -0.0692395 -0.0345461)
(0.0849801 -0.0534348 -0.0476332)
(0.0785139 -0.0427938 -0.0503395)
(0.0680064 -0.0167929 -0.0285378)
(0.0573284 0.0435258 -0.013244)
(0.0486882 0.114134 -0.015099)
(0.0422501 0.177682 -0.0180329)
(0.0366969 0.241948 -0.0129013)
(0.0288886 0.318613 0.003427)
(0.0108292 0.394649 0.0257691)
(-0.00562213 0.498887 0.0437564)
(-0.0085463 0.599291 0.0497986)
(-0.00471047 0.573917 0.0393475)
(-0.00278811 -0.0548308 -0.00039568)
(0.00434689 -0.0977482 0.00331008)
(0.0193115 -0.138213 0.00650733)
(0.0382581 -0.17708 0.00861284)
(0.0585036 -0.210091 0.00905373)
(0.0784218 -0.235748 0.00722614)
(0.0968478 -0.253389 0.00319983)
(0.112795 -0.262999 -0.00180379)
(0.126044 -0.265113 -0.00672742)
(0.13689 -0.261067 -0.0107017)
(0.145336 -0.253717 -0.0128227)
(0.151024 -0.246382 -0.0126101)
(0.153722 -0.240729 -0.0104671)
(0.153476 -0.236366 -0.00739038)
(0.150452 -0.23192 -0.00424702)
(0.144778 -0.225866 -0.00126922)
(0.136469 -0.216285 0.00200824)
(0.125623 -0.200127 0.00644289)
(0.112827 -0.174424 0.0127876)
(0.0988826 -0.139358 0.0208041)
(0.0842407 -0.0985183 0.02851)
(0.0689842 -0.0554208 0.0320497)
(0.0536598 -0.0115513 0.0261432)
(0.0381859 0.0322781 0.00655831)
(0.0217344 0.0753235 -0.0261664)
(0.00466236 0.109959 -0.0530634)
(-0.01085 0.120043 -0.0550376)
(-0.0214655 0.115073 -0.0404678)
(-0.0269223 0.118337 -0.0231841)
(-0.0281953 0.146134 -0.0050645)
(-0.0228184 0.231473 0.0150691)
(-0.0117004 0.412031 0.0359273)
(-0.00587581 0.590995 0.0441742)
(-0.00405834 0.621093 0.0442701)
(-0.000258878 0.540665 0.0367782)
(0.00260744 -0.10353 0.0476326)
(0.0232628 -0.252188 0.0512139)
(0.0438091 -0.338205 0.0390586)
(0.0634752 -0.38859 0.025971)
(0.0806922 -0.417376 0.0142236)
(0.0947834 -0.431775 0.003962)
(0.105496 -0.43586 -0.00479455)
(0.112999 -0.432361 -0.012239)
(0.117621 -0.423207 -0.0187133)
(0.119735 -0.409584 -0.0246398)
(0.119816 -0.392004 -0.0305342)
(0.118422 -0.370422 -0.0369672)
(0.116052 -0.34443 -0.0443497)
(0.113076 -0.313572 -0.0526952)
(0.109818 -0.277749 -0.0615691)
(0.106578 -0.237914 -0.0701052)
(0.103552 -0.196655 -0.0770989)
(0.100752 -0.157123 -0.0815141)
(0.0982213 -0.121323 -0.0828453)
(0.0960629 -0.0890109 -0.0811463)
(0.0942875 -0.0587706 -0.0765706)
(0.0926802 -0.0291345 -0.069204)
(0.0909674 0.000831795 -0.0595387)
(0.0889628 0.0311105 -0.0485751)
(0.086906 0.0612155 -0.0393238)
(0.0843411 0.0920949 -0.0325042)
(0.080036 0.124839 -0.0263335)
(0.0724837 0.15201 -0.0223685)
(0.063334 0.163577 -0.0190409)
(0.0525547 0.159473 -0.00188285)
(0.0356017 0.168784 0.0393885)
(0.0224777 0.231188 0.0690157)
(0.0217947 0.420865 0.0749807)
(0.0213808 0.536708 0.0690256)
(0.0113302 0.51571 0.0569199)
(0.00887358 -0.245268 -0.00361955)
(0.0240993 -0.384186 -0.0344857)
(0.033089 -0.419641 -0.0543764)
(0.0368265 -0.418081 -0.06587)
(0.0379928 -0.401777 -0.0737754)
(0.0373343 -0.376789 -0.0798951)
(0.0352549 -0.346234 -0.0847251)
(0.032321 -0.31208 -0.0884291)
(0.0289519 -0.275633 -0.0907505)
(0.0253548 -0.239056 -0.0908163)
(0.02158 -0.206289 -0.0877643)
(0.0177173 -0.181073 -0.0819809)
(0.0139871 -0.164258 -0.0750758)
(0.0107652 -0.153898 -0.068754)
(0.00869516 -0.14681 -0.0641836)
(0.00818658 -0.139977 -0.0616012)
(0.00930967 -0.131482 -0.0605167)
(0.0120878 -0.120242 -0.0606184)
(0.0165307 -0.10496 -0.0618001)
(0.0227317 -0.0840836 -0.0642228)
(0.0296169 -0.0581016 -0.0679955)
(0.0362133 -0.0287108 -0.0726205)
(0.0416168 0.0015847 -0.0766387)
(0.045857 0.0308429 -0.078372)
(0.0491891 0.0586797 -0.0775008)
(0.0517892 0.0858661 -0.0738358)
(0.0536109 0.113619 -0.0655522)
(0.0544016 0.143235 -0.0492299)
(0.0539151 0.181062 -0.0253711)
(0.0505536 0.242012 0.00308849)
(0.0424268 0.311233 0.0266266)
(0.0294422 0.349752 0.0368197)
(0.0197492 0.497051 0.0593315)
(0.0142595 0.65332 0.0724656)
(0.00490066 0.635634 0.0601593)
(0.0001862 -0.299492 -0.00787728)
(-0.00287387 -0.369467 -0.0101651)
(-0.00425166 -0.372383 -0.0104364)
(-0.00496377 -0.366237 -0.0115948)
(-0.00482805 -0.356046 -0.0140484)
(-0.00376723 -0.343436 -0.0173593)
(-0.00183951 -0.329257 -0.0208229)
(0.00100523 -0.313988 -0.0239433)
(0.00491623 -0.297796 -0.0266099)
(0.00996878 -0.280611 -0.0289242)
(0.0159568 -0.262363 -0.0309065)
(0.0223171 -0.243405 -0.0323923)
(0.0282887 -0.224668 -0.0331841)
(0.0332287 -0.207226 -0.0331877)
(0.036859 -0.191615 -0.0324056)
(0.0393006 -0.177617 -0.0309129)
(0.0409066 -0.164597 -0.0288281)
(0.0419561 -0.151726 -0.0262779)
(0.0427915 -0.137746 -0.023454)
(0.0435922 -0.120372 -0.02087)
(0.0447103 -0.0961224 -0.0202208)
(0.0464472 -0.062613 -0.0250998)
(0.0486413 -0.0236548 -0.0369698)
(0.0505196 0.0134545 -0.0509649)
(0.051666 0.0456114 -0.0617833)
(0.0521025 0.0747019 -0.0671356)
(0.0516209 0.104717 -0.0656235)
(0.0495893 0.139762 -0.0557722)
(0.0456593 0.180559 -0.0400448)
(0.0403863 0.23337 -0.0187214)
(0.0348779 0.311209 -0.00135415)
(0.0200679 0.392908 0.0126437)
(0.00467248 0.571359 0.0508502)
(-0.000892382 0.704816 0.0674754)
(-0.00143322 0.670354 0.0521175)
(0.00057066 -0.254932 -0.0117216)
(0.00591727 -0.370244 -0.031602)
(0.0115509 -0.399593 -0.0458942)
(0.0173415 -0.405216 -0.0573233)
(0.023075 -0.399508 -0.0682821)
(0.0281771 -0.385954 -0.0785121)
(0.032188 -0.367765 -0.0865789)
(0.0351137 -0.347716 -0.0914139)
(0.0371747 -0.327135 -0.092814)
(0.0385986 -0.305881 -0.0911925)
(0.0395581 -0.282936 -0.0872622)
(0.0401466 -0.257332 -0.0818978)
(0.040338 -0.229328 -0.0760427)
(0.0400123 -0.200981 -0.0704348)
(0.0390806 -0.174996 -0.0652878)
(0.0375639 -0.152902 -0.0602991)
(0.0355449 -0.134482 -0.0548933)
(0.0331007 -0.118455 -0.048382)
(0.0302783 -0.103144 -0.0399919)
(0.0271445 -0.086642 -0.0290067)
(0.0238957 -0.06665 -0.015525)
(0.0209854 -0.0404873 -0.0020057)
(0.0188959 -0.00672648 0.00639563)
(0.0176856 0.0318438 0.00592224)
(0.0167181 0.0697187 -0.00172258)
(0.0152519 0.104731 -0.0112272)
(0.0129523 0.140001 -0.0185052)
(0.00972032 0.182144 -0.022505)
(0.00607631 0.238132 -0.0247833)
(0.00317314 0.315651 -0.0236362)
(0.00625317 0.42867 -0.0172803)
(0.00749938 0.559346 -0.0107306)
(0.00179855 0.656064 0.0108526)
(0.000388599 0.700404 0.0217283)
(0.000774191 0.634989 0.0170653)
(0.00327624 -0.304619 -0.00853366)
(0.00664971 -0.393408 -0.0162023)
(0.0078691 -0.400229 -0.023536)
(0.00875883 -0.389968 -0.0321385)
(0.00974554 -0.367525 -0.0439981)
(0.010645 -0.337154 -0.0570158)
(0.0116956 -0.305256 -0.0680665)
(0.0131134 -0.275817 -0.0757369)
(0.0149367 -0.249705 -0.0801466)
(0.0171177 -0.226243 -0.0818939)
(0.019608 -0.204371 -0.0815521)
(0.0223767 -0.183135 -0.0796385)
(0.0253728 -0.162014 -0.0767496)
(0.0284667 -0.141315 -0.0736029)
(0.0314651 -0.122046 -0.0708044)
(0.0342107 -0.105001 -0.0685839)
(0.03663 -0.090114 -0.0668351)
(0.0386943 -0.0767089 -0.0653102)
(0.0403739 -0.0639791 -0.0637238)
(0.0416394 -0.0511835 -0.0617365)
(0.0425101 -0.0375183 -0.0588523)
(0.0431234 -0.0217497 -0.054288)
(0.0438309 -0.00184141 -0.0471117)
(0.0444414 0.0247029 -0.0379733)
(0.0441745 0.0582141 -0.0301578)
(0.0426368 0.0956562 -0.0266295)
(0.0397323 0.133768 -0.0259812)
(0.0357264 0.169768 -0.0243514)
(0.0316916 0.198061 -0.0193848)
(0.0290727 0.217287 -0.0116861)
(0.0290442 0.23964 -0.00391674)
(0.0346309 0.376549 0.00102405)
(0.0310404 0.603858 0.00984606)
(0.0211971 0.702906 0.0201822)
(0.0116172 0.638249 0.0224873)
(0.001001 -0.31105 0.00954482)
(0.000451957 -0.388635 -0.00168222)
(-0.000545108 -0.398217 -0.0157592)
(-0.000819974 -0.390248 -0.0319755)
(-0.000452854 -0.371762 -0.050702)
(0.00081131 -0.349255 -0.0673959)
(0.0030076 -0.327817 -0.0791394)
(0.00589254 -0.308631 -0.0860152)
(0.00923737 -0.290952 -0.0889496)
(0.012894 -0.273642 -0.0885953)
(0.0167897 -0.255575 -0.0852512)
(0.0209068 -0.23574 -0.0790715)
(0.0252244 -0.213634 -0.0704532)
(0.029656 -0.189937 -0.0604589)
(0.0340582 -0.166567 -0.0506382)
(0.0383292 -0.145347 -0.0421165)
(0.0424748 -0.126773 -0.0350259)
(0.0465703 -0.110122 -0.02875)
(0.0507056 -0.0941175 -0.0223241)
(0.0549555 -0.0772755 -0.0145435)
(0.0593388 -0.0579894 -0.00395438)
(0.0637601 -0.0347262 0.0106724)
(0.0681511 -0.00650503 0.0288686)
(0.0728124 0.0267261 0.0464443)
(0.0782055 0.0645779 0.0575688)
(0.0836474 0.106188 0.0562817)
(0.0874839 0.148385 0.0404603)
(0.0882497 0.188745 0.016077)
(0.0841597 0.23189 -0.00950246)
(0.0745996 0.277454 -0.0292053)
(0.0535381 0.329322 -0.0296432)
(0.0266025 0.468531 0.000271663)
(0.0138225 0.719035 0.0266484)
(0.00455668 0.810355 0.0273719)
(-0.000418842 0.768711 0.0171324)
(0.000915095 -0.337347 0.0133773)
(-0.00157706 -0.394177 -0.000780626)
(-0.00499334 -0.395866 -0.0148462)
(-0.00713038 -0.381282 -0.0307196)
(-0.0070429 -0.355838 -0.0484997)
(-0.00449286 -0.326316 -0.0651493)
(-0.000592299 -0.29717 -0.0795308)
(0.00353916 -0.270283 -0.0915133)
(0.0070626 -0.246497 -0.100912)
(0.00956342 -0.225827 -0.10754)
(0.0110586 -0.207684 -0.111241)
(0.0119023 -0.191101 -0.111846)
(0.0125761 -0.174982 -0.109237)
(0.0134692 -0.158714 -0.103574)
(0.0147527 -0.142847 -0.0957044)
(0.016346 -0.128825 -0.0870507)
(0.0180593 -0.117562 -0.0786933)
(0.0197646 -0.10887 -0.0708309)
(0.0214348 -0.102078 -0.0630021)
(0.0231198 -0.0965469 -0.0543418)
(0.0249175 -0.0917338 -0.0435789)
(0.0269248 -0.0868661 -0.0290303)
(0.0291026 -0.0801694 -0.00917448)
(0.0311695 -0.0682184 0.0153359)
(0.0325061 -0.0462255 0.0394214)
(0.0325112 -0.00522755 0.0528788)
(0.0305683 0.0703613 0.0334244)
(0.0234861 0.182019 -0.0219265)
(0.00982447 0.315932 -0.0744331)
(-0.00819268 0.450694 -0.0945171)
(-0.0292247 0.572605 -0.0791681)
(-0.0470419 0.698041 -0.046884)
(-0.0499488 0.807402 -0.028647)
(-0.0437813 0.825811 -0.0251433)
(-0.0227957 0.693995 -0.0216448)
(-0.012505 -0.28899 0.039187)
(-0.0253568 -0.355455 0.0287205)
(-0.0329636 -0.36796 0.0187302)
(-0.0364744 -0.367168 0.0122414)
(-0.0359294 -0.358771 0.00799858)
(-0.0317095 -0.342753 0.00410174)
(-0.0247952 -0.31793 -0.00136515)
(-0.016457 -0.285717 -0.00900361)
(-0.00813539 -0.249703 -0.0181113)
(-0.00129754 -0.213519 -0.0275397)
(0.00267906 -0.181394 -0.0362882)
(0.00379698 -0.155642 -0.0431689)
(0.00324129 -0.135454 -0.0477515)
(0.00188546 -0.11923 -0.0503012)
(0.000100681 -0.105547 -0.0511702)
(-0.00207642 -0.0933358 -0.0506083)
(-0.00477339 -0.0819354 -0.0487912)
(-0.00819279 -0.070973 -0.0458234)
(-0.0125742 -0.0601882 -0.0416667)
(-0.0182062 -0.0493127 -0.0360317)
(-0.0254485 -0.0380673 -0.0282513)
(-0.0344281 -0.0260137 -0.0171163)
(-0.0450188 -0.0120311 -0.000668838)
(-0.0571838 0.00773609 0.0235685)
(-0.0706396 0.0439846 0.0559385)
(-0.0860393 0.118503 0.0858626)
(-0.103029 0.249437 0.0839445)
(-0.118777 0.412449 0.0347729)
(-0.130492 0.546871 -0.017)
(-0.137906 0.632302 -0.0348729)
(-0.136426 0.688726 -0.0354024)
(-0.122127 0.733068 -0.0291754)
(-0.0977211 0.751841 -0.0210702)
(-0.0637863 0.67797 -0.0113364)
(-0.0154645 0.407748 0.00672488)
(-0.00970932 -0.193888 0.0318587)
(-0.0162218 -0.341159 0.0261968)
(-0.0153048 -0.408253 0.0192881)
(-0.0114479 -0.441071 0.016036)
(-0.00623555 -0.454498 0.0141981)
(0.000331696 -0.452144 0.0127391)
(0.00839275 -0.433291 0.0112339)
(0.0178318 -0.398528 0.00910728)
(0.0285039 -0.350538 0.00564371)
(0.0396699 -0.28825 0.000653511)
(0.0481778 -0.219472 -0.0104672)
(0.0503541 -0.165258 -0.026486)
(0.0468945 -0.128882 -0.040077)
(0.0405158 -0.102325 -0.048677)
(0.0331689 -0.0800355 -0.0529556)
(0.0258303 -0.0601338 -0.0541363)
(0.018756 -0.0419433 -0.0532253)
(0.0116548 -0.0248387 -0.0508539)
(0.00417945 -0.00813965 -0.0473339)
(-0.00384205 0.00868483 -0.0427923)
(-0.0125462 0.0261327 -0.0371998)
(-0.0222752 0.0447573 -0.0303282)
(-0.0335897 0.0650149 -0.0216378)
(-0.0465985 0.0875742 -0.0102055)
(-0.0607179 0.114285 0.00522693)
(-0.0745248 0.151904 0.0253419)
(-0.0864524 0.21657 0.0455902)
(-0.0944476 0.318477 0.0521368)
(-0.0953808 0.420757 0.0444904)
(-0.0873456 0.477634 0.0437229)
(-0.0747488 0.500281 0.0568577)
(-0.0620282 0.49466 0.0765301)
(-0.0381543 0.427658 0.0909637)
(-0.011036 0.33292 0.094689)
(0.00824905 0.21238 0.0850998)
(-0.00509479 -0.188072 0.0379364)
(0.00237486 -0.3873 0.0248928)
(0.00946343 -0.475906 0.00198439)
(0.016875 -0.509883 -0.0142797)
(0.0231113 -0.51987 -0.0249488)
(0.0286971 -0.516082 -0.0314377)
(0.0339272 -0.501607 -0.0335811)
(0.0393409 -0.478047 -0.0307141)
(0.045622 -0.445748 -0.0222386)
(0.053609 -0.38986 0.000491969)
(0.0641961 -0.277251 0.0288545)
(0.0717817 -0.147011 0.0292385)
(0.0728634 -0.0541995 0.00850614)
(0.0702371 -0.00550866 -0.0130789)
(0.0670967 0.0176329 -0.0284629)
(0.0642948 0.0306692 -0.0389225)
(0.061788 0.0409775 -0.0464)
(0.0597137 0.0517242 -0.0517948)
(0.0581453 0.0643086 -0.0553527)
(0.0569028 0.0791715 -0.0571445)
(0.0558147 0.0963441 -0.0572919)
(0.0547543 0.115812 -0.0559589)
(0.0536113 0.137631 -0.0532843)
(0.0522589 0.161624 -0.0493645)
(0.0505597 0.187452 -0.0439032)
(0.0490634 0.217787 -0.0358931)
(0.0492789 0.260238 -0.0285738)
(0.0553315 0.30735 -0.0253112)
(0.0679284 0.339663 -0.0188749)
(0.0831549 0.34598 0.000422119)
(0.0927354 0.337152 0.0326256)
(0.0898189 0.349205 0.0626787)
(0.0872757 0.293171 0.0567034)
(0.067571 0.24639 0.0771556)
(0.0217659 0.29812 0.109489)
(0.00426061 -0.223505 -0.000427494)
(0.0262037 -0.446406 -0.0389846)
(0.0412526 -0.526838 -0.0651731)
(0.0516171 -0.550542 -0.0806572)
(0.0589859 -0.55181 -0.0920289)
(0.0641896 -0.540472 -0.102619)
(0.0667393 -0.520485 -0.112714)
(0.0663294 -0.497418 -0.119892)
(0.0635625 -0.475624 -0.120231)
(0.0573814 -0.450868 -0.0982677)
(0.0521497 -0.371818 -0.0362771)