/*--------------------------------*- C++ -*----------------------------------*\
| =========                 |                                                 |
| \\      /  F ield         | OpenFOAM: The Open Source CFD Toolbox           |
|  \\    /   O peration     | Version:  v2006                                 |
|   \\  /    A nd           | Website:  www.openfoam.com                      |
|    \\/     M anipulation  |                                                 |
\*---------------------------------------------------------------------------*/
FoamFile
{
    version     2.0;
    format      ascii;
    class       volScalarField;
    location    "71";
    object      alphat;
}
// * * * * * * * * * * * * * * * * * * * * * * * * * * * * * * * * * * * * * //

dimensions      [1 -1 -1 0 0 0 0];


internalField   nonuniform List<scalar> 
78750
(
7.28669e-09
5.15881e-07
8.02542e-07
1.07393e-06
1.33003e-06
1.56577e-06
1.77991e-06
1.97268e-06
2.14446e-06
2.2956e-06
2.42642e-06
2.53735e-06
2.62889e-06
2.70156e-06
2.75526e-06
2.79003e-06
2.80659e-06
2.8056e-06
2.7876e-06
2.75296e-06
2.70238e-06
2.63478e-06
2.54968e-06
2.44687e-06
2.3257e-06
2.18532e-06
2.02482e-06
1.84319e-06
1.63864e-06
1.41003e-06
1.15565e-06
8.76572e-07
5.90334e-07
3.40573e-07
6.74098e-09
3.18169e-09
1.81639e-06
4.50911e-06
7.96541e-06
1.15614e-05
1.40051e-05
1.52986e-05
1.61169e-05
1.68192e-05
1.75251e-05
1.82833e-05
1.91229e-05
2.00655e-05
2.10893e-05
2.17554e-05
2.16329e-05
2.14092e-05
2.1097e-05
2.0708e-05
2.02522e-05
1.97382e-05
1.9169e-05
1.8547e-05
1.78729e-05
1.71433e-05
1.63509e-05
1.5486e-05
1.45412e-05
1.23614e-05
9.81244e-06
7.13016e-06
4.77922e-06
3.54527e-06
2.39241e-06
2.75121e-08
4.67364e-09
2.26054e-06
4.81698e-06
8.00211e-06
1.18838e-05
1.62003e-05
2.02058e-05
2.31025e-05
2.44654e-05
2.52625e-05
2.57244e-05
2.57092e-05
2.55771e-05
2.53864e-05
2.51349e-05
2.47999e-05
2.43653e-05
2.38359e-05
2.32238e-05
2.25383e-05
2.17874e-05
2.09894e-05
2.01588e-05
1.9285e-05
1.83451e-05
1.7304e-05
1.60887e-05
1.45816e-05
1.26498e-05
1.02449e-05
7.70502e-06
5.9282e-06
5.91514e-06
2.55552e-06
4.55897e-08
8.8766e-09
2.13537e-06
4.76693e-06
8.38202e-06
1.30679e-05
1.82891e-05
2.29274e-05
2.61561e-05
2.79122e-05
2.85234e-05
2.83422e-05
2.76567e-05
2.66836e-05
2.55627e-05
2.43764e-05
2.31727e-05
2.19796e-05
2.0815e-05
1.96931e-05
1.86305e-05
1.76495e-05
1.67777e-05
1.604e-05
1.54403e-05
1.49451e-05
1.44695e-05
1.38603e-05
1.29053e-05
1.14203e-05
9.46011e-06
7.55905e-06
6.67527e-06
7.99681e-06
2.36451e-06
5.8448e-08
1.32645e-08
2.17516e-06
5.0503e-06
9.36518e-06
1.52976e-05
2.18758e-05
2.73366e-05
3.01645e-05
3.09974e-05
3.14995e-05
3.11793e-05
2.94933e-05
2.75286e-05
2.55507e-05
2.3671e-05
2.19383e-05
2.03598e-05
1.89216e-05
1.76042e-05
1.63954e-05
1.53009e-05
1.43462e-05
1.35622e-05
1.29641e-05
1.25364e-05
1.2208e-05
1.18231e-05
1.11549e-05
1.00353e-05
8.59149e-06
7.38385e-06
7.35429e-06
9.10147e-06
2.2204e-06
6.75335e-08
1.81624e-08
2.21777e-06
5.31542e-06
1.03049e-05
1.74845e-05
2.52329e-05
3.09771e-05
3.27103e-05
3.34739e-05
3.35307e-05
3.1481e-05
2.89411e-05
2.63624e-05
2.39598e-05
2.18287e-05
1.99826e-05
1.83919e-05
1.70107e-05
1.57932e-05
1.47056e-05
1.37376e-05
1.29006e-05
1.22062e-05
1.16517e-05
1.1218e-05
1.08489e-05
1.0425e-05
9.78481e-06
8.8488e-06
7.80002e-06
7.16261e-06
7.856e-06
9.21084e-06
2.12311e-06
7.39658e-08
2.26303e-08
2.26624e-06
5.53138e-06
1.10196e-05
1.91035e-05
2.75352e-05
3.32533e-05
3.48686e-05
3.55797e-05
3.39047e-05
3.11124e-05
2.80086e-05
2.50292e-05
2.23894e-05
2.01489e-05
1.82805e-05
1.67216e-05
1.54041e-05
1.42695e-05
1.32797e-05
1.24262e-05
1.17204e-05
1.1151e-05
1.06842e-05
1.02797e-05
9.88055e-06
9.40133e-06
8.75639e-06
7.95345e-06
7.20386e-06
6.98987e-06
8.21644e-06
8.76594e-06
2.04777e-06
7.92742e-08
2.66963e-08
2.31033e-06
5.68574e-06
1.15124e-05
2.02563e-05
2.91816e-05
3.48243e-05
3.68511e-05
3.62225e-05
3.37938e-05
3.04905e-05
2.70341e-05
2.38593e-05
2.11419e-05
1.88949e-05
1.70593e-05
1.55587e-05
1.43201e-05
1.32835e-05
1.24117e-05
1.16953e-05
1.11287e-05
1.06651e-05
1.02421e-05
9.80527e-06
9.30812e-06
8.71051e-06
8.00279e-06
7.26056e-06
6.7029e-06
6.77199e-06
8.35174e-06
8.26206e-06
1.99564e-06
8.44695e-08
3.03718e-08
2.34259e-06
5.7766e-06
1.18004e-05
2.09429e-05
3.01073e-05
3.55928e-05
3.73067e-05
3.62619e-05
3.34659e-05
2.98797e-05
2.62454e-05
2.29801e-05
2.02257e-05
1.79665e-05
1.61287e-05
1.46315e-05
1.34056e-05
1.24005e-05
1.15924e-05
1.0987e-05
1.05707e-05
1.02622e-05
9.95793e-06
9.56497e-06
9.02623e-06
8.33717e-06
7.55794e-06
6.82508e-06
6.3696e-06
6.61056e-06
8.40709e-06
7.79782e-06
1.95668e-06
9.01317e-08
3.38716e-08
2.3701e-06
5.84191e-06
1.20008e-05
2.14336e-05
3.07824e-05
3.61588e-05
3.7614e-05
3.62718e-05
3.32116e-05
2.94429e-05
2.57126e-05
2.24126e-05
1.96538e-05
1.73995e-05
1.55659e-05
1.407e-05
1.28457e-05
1.18474e-05
1.10626e-05
1.05112e-05
1.01765e-05
9.96284e-06
9.74322e-06
9.39351e-06
8.83715e-06
8.08666e-06
7.25158e-06
6.5135e-06
6.11492e-06
6.46348e-06
8.4004e-06
7.42559e-06
1.92978e-06
9.61662e-08
3.73322e-08
2.39196e-06
5.88654e-06
1.21405e-05
2.17771e-05
3.12125e-05
3.64479e-05
3.7682e-05
3.61214e-05
3.28911e-05
2.90214e-05
2.52495e-05
2.19419e-05
1.91861e-05
1.6932e-05
1.50909e-05
1.35811e-05
1.23409e-05
1.13332e-05
1.05571e-05
1.00462e-05
9.78249e-06
9.66128e-06
9.53747e-06
9.25823e-06
8.72292e-06
7.94768e-06
7.07671e-06
6.32916e-06
5.96275e-06
6.386e-06
8.42839e-06
7.11526e-06
1.91105e-06
1.02417e-07
4.08778e-08
2.4137e-06
5.93314e-06
1.22831e-05
2.21106e-05
3.1615e-05
3.67175e-05
3.77534e-05
3.60043e-05
3.26396e-05
2.87048e-05
2.49218e-05
2.16291e-05
1.88918e-05
1.66476e-05
1.48042e-05
1.32801e-05
1.20171e-05
1.09841e-05
1.01894e-05
9.67914e-06
9.43741e-06
9.3596e-06
9.29523e-06
9.07465e-06
8.57646e-06
7.81e-06
6.93524e-06
6.19466e-06
5.85983e-06
6.34873e-06
8.48754e-06
6.86638e-06
1.89992e-06
1.08645e-07
4.44958e-08
2.43364e-06
5.97665e-06
1.24173e-05
2.24113e-05
3.19414e-05
3.68889e-05
3.77312e-05
3.58157e-05
3.23465e-05
2.83744e-05
2.45996e-05
2.13324e-05
1.86182e-05
1.63858e-05
1.45411e-05
1.30046e-05
1.17217e-05
1.06662e-05
9.85443e-06
9.34296e-06
9.11654e-06
9.06986e-06
9.05141e-06
8.88334e-06
8.42979e-06
7.69196e-06
6.83523e-06
6.11557e-06
5.81731e-06
6.37369e-06
8.60669e-06
6.65784e-06
1.89449e-06
1.14738e-07
4.82773e-08
2.45571e-06
6.02928e-06
1.25749e-05
2.27439e-05
3.22839e-05
3.70658e-05
3.77182e-05
3.56515e-05
3.2101e-05
2.81157e-05
2.43683e-05
2.11393e-05
1.84552e-05
1.62374e-05
1.43908e-05
1.28384e-05
1.15292e-05
1.04418e-05
9.59884e-06
9.06542e-06
8.83029e-06
8.78914e-06
8.79121e-06
8.65717e-06
8.24589e-06
7.55048e-06
6.73302e-06
6.05247e-06
5.80198e-06
6.43344e-06
8.76303e-06
6.49112e-06
1.89446e-06
1.20628e-07
5.20893e-08
2.47663e-06
6.08057e-06
1.27283e-05
2.3057e-05
3.25844e-05
3.71955e-05
3.76653e-05
3.54614e-05
3.18456e-05
2.78603e-05
2.41483e-05
2.09614e-05
1.83094e-05
1.61078e-05
1.42615e-05
1.26957e-05
1.13633e-05
1.02468e-05
9.37447e-06
8.81884e-06
8.57187e-06
8.53007e-06
8.54458e-06
8.43661e-06
8.06295e-06
7.41373e-06
6.64614e-06
6.01613e-06
5.82253e-06
6.53747e-06
8.96063e-06
6.35223e-06
1.89829e-06
1.26307e-07
5.60656e-08
2.49993e-06
6.14015e-06
1.29024e-05
2.33983e-05
3.28985e-05
3.73302e-05
3.76244e-05
3.53015e-05
3.16431e-05
2.76767e-05
2.4012e-05
2.08728e-05
1.82546e-05
1.6068e-05
1.42186e-05
1.26347e-05
1.12725e-05
1.0119e-05
9.20669e-06
8.61416e-06
8.33991e-06
8.28157e-06
8.29333e-06
8.2006e-06
7.86187e-06
7.26353e-06
6.55478e-06
5.98516e-06
5.85721e-06
6.66347e-06
9.17811e-06
6.24532e-06
1.90609e-06
1.31804e-07
6.00145e-08
2.52196e-06
6.19765e-06
1.30703e-05
2.37201e-05
3.31822e-05
3.74412e-05
3.75724e-05
3.51438e-05
3.14529e-05
2.75109e-05
2.38954e-05
2.08046e-05
1.8221e-05
1.60513e-05
1.42011e-05
1.26007e-05
1.12096e-05
1.00197e-05
9.067e-06
8.43566e-06
8.13138e-06
8.05281e-06
8.05706e-06
7.97448e-06
7.66756e-06
7.12076e-06
6.47466e-06
5.97054e-06
5.91391e-06
6.81776e-06
9.4151e-06
6.15819e-06
1.91633e-06
1.37133e-07
6.4118e-08
2.54604e-06
6.26152e-06
1.3254e-05
2.40632e-05
3.34769e-05
3.75614e-05
3.75413e-05
3.50261e-05
3.13217e-05
2.74167e-05
2.3856e-05
2.08149e-05
1.82653e-05
1.61107e-05
1.42569e-05
1.26357e-05
1.12104e-05
9.97655e-06
8.97352e-06
8.28944e-06
7.94168e-06
7.8309e-06
7.81791e-06
7.73926e-06
7.46227e-06
6.96919e-06
6.39038e-06
5.95706e-06
5.97693e-06
6.98334e-06
9.65747e-06
6.09465e-06
1.92927e-06
1.42338e-07
6.81648e-08
2.56879e-06
6.3234e-06
1.34333e-05
2.43926e-05
3.37533e-05
3.76731e-05
3.75138e-05
3.49216e-05
3.12082e-05
2.73407e-05
2.38339e-05
2.08423e-05
1.83283e-05
1.6192e-05
1.43382e-05
1.26995e-05
1.12416e-05
9.96357e-06
8.90865e-06
8.16839e-06
7.77296e-06
7.6257e-06
7.59143e-06
7.51333e-06
7.26416e-06
6.82431e-06
6.31387e-06
5.95374e-06
6.05385e-06
7.16738e-06
9.90737e-06
6.04582e-06
1.94386e-06
1.47416e-07
7.2361e-08
2.59317e-06
6.39039e-06
1.36261e-05
2.47414e-05
3.40426e-05
3.78004e-05
3.75149e-05
3.48622e-05
3.1153e-05
2.73293e-05
2.38777e-05
2.0935e-05
1.84556e-05
1.63367e-05
1.44817e-05
1.28235e-05
1.13293e-05
1.00009e-05
8.88484e-06
8.07575e-06
7.62036e-06
7.42616e-06
7.36278e-06
7.28071e-06
7.05808e-06
6.67237e-06
6.23216e-06
5.94746e-06
6.1303e-06
7.3533e-06
1.01519e-05
6.01222e-06
1.95988e-06
1.52399e-07
7.64935e-08
2.61622e-06
6.45593e-06
1.38179e-05
2.50855e-05
3.43255e-05
3.79299e-05
3.75265e-05
3.48172e-05
3.11114e-05
2.73289e-05
2.3931e-05
2.10382e-05
1.85968e-05
1.65003e-05
1.46497e-05
1.29771e-05
1.14496e-05
1.00712e-05
8.89204e-06
8.01033e-06
7.48982e-06
7.24346e-06
7.1463e-06
7.05658e-06
6.85805e-06
6.52524e-06
6.15521e-06
5.9472e-06
6.21576e-06
7.55221e-06
1.03994e-05
5.99043e-06
1.97725e-06
1.57274e-07
8.07732e-08
2.64041e-06
6.52555e-06
1.40228e-05
2.54512e-05
3.46275e-05
3.80828e-05
3.75717e-05
3.48163e-05
3.11204e-05
2.73811e-05
2.40364e-05
2.11926e-05
1.8789e-05
1.67153e-05
1.487e-05
1.3183e-05
1.16208e-05
1.01884e-05
8.93898e-06
7.97435e-06
7.37783e-06
7.06999e-06
6.93191e-06
6.82988e-06
6.65298e-06
6.37204e-06
6.0719e-06
5.94078e-06
6.29572e-06
7.74619e-06
1.06354e-05
5.97742e-06
1.99506e-06
1.62054e-07
8.49891e-08
2.66308e-06
6.59345e-06
1.42282e-05
2.58199e-05
3.49366e-05
3.82496e-05
3.76309e-05
3.4825e-05
3.11337e-05
2.74343e-05
2.41431e-05
2.13513e-05
1.8991e-05
1.6947e-05
1.51145e-05
1.34198e-05
1.18274e-05
1.03428e-05
9.02192e-06
7.97072e-06
7.2921e-06
6.91656e-06
6.73203e-06
6.6131e-06
6.45424e-06
6.22263e-06
5.99102e-06
5.93693e-06
6.38022e-06
7.9478e-06
1.08702e-05
5.97277e-06
2.01376e-06
1.66724e-07
8.93459e-08
2.68634e-06
6.66382e-06
1.44433e-05
2.62061e-05
3.52586e-05
3.84327e-05
3.77188e-05
3.48666e-05
3.11823e-05
2.75244e-05
2.42869e-05
2.15474e-05
1.9231e-05
1.72187e-05
1.54014e-05
1.37017e-05
1.20807e-05
1.0543e-05
9.14703e-06
8.0028e-06
7.2322e-06
6.77988e-06
6.5414e-06
6.39976e-06
6.25465e-06
6.06928e-06
5.90424e-06
5.92631e-06
6.45798e-06
8.14271e-06
1.10927e-05
5.97358e-06
2.03248e-06
1.71282e-07
9.36379e-08
2.70809e-06
6.7318e-06
1.46542e-05
2.65787e-05
3.55519e-05
3.85895e-05
3.77869e-05
3.48979e-05
3.12233e-05
2.76078e-05
2.44264e-05
2.17435e-05
1.94772e-05
1.75041e-05
1.57107e-05
1.4014e-05
1.23707e-05
1.07837e-05
9.31316e-06
8.07421e-06
7.20506e-06
6.66935e-06
6.37065e-06
6.2005e-06
6.06381e-06
5.92018e-06
5.8185e-06
5.91521e-06
6.53563e-06
8.33924e-06
1.13103e-05
5.97859e-06
2.05137e-06
1.75709e-07
9.80638e-08
2.73046e-06
6.80248e-06
1.48728e-05
2.69556e-05
3.58429e-05
3.87462e-05
3.78621e-05
3.49515e-05
3.12896e-05
2.7716e-05
2.45901e-05
2.19638e-05
1.97489e-05
1.78178e-05
1.60522e-05
1.43633e-05
1.27022e-05
1.10683e-05
9.52302e-06
8.18635e-06
7.21044e-06
6.58345e-06
6.2174e-06
6.01228e-06
5.87814e-06
5.77129e-06
5.72944e-06
5.89899e-06
6.60812e-06
8.53265e-06
1.15252e-05
5.98827e-06
2.07004e-06
1.79997e-07
1.02426e-07
2.7514e-06
6.87167e-06
1.50911e-05
2.73141e-05
3.61075e-05
3.88771e-05
3.79119e-05
3.49801e-05
3.13367e-05
2.78102e-05
2.47443e-05
2.21798e-05
2.00227e-05
1.81412e-05
1.6412e-05
1.47398e-05
1.30686e-05
1.13932e-05
9.77525e-06
8.34021e-06
7.25267e-06
6.52889e-06
6.08977e-06
5.84359e-06
5.7056e-06
5.62934e-06
5.64231e-06
5.8816e-06
6.67899e-06
8.72724e-06
1.17353e-05
6.00361e-06
2.08879e-06
1.84125e-07
1.06899e-07
2.77232e-06
6.94165e-06
1.53146e-05
2.76736e-05
3.63667e-05
3.90038e-05
3.79628e-05
3.50167e-05
3.14031e-05
2.79219e-05
2.49122e-05
2.24083e-05
2.03102e-05
1.84815e-05
1.67936e-05
1.51442e-05
1.34696e-05
1.17579e-05
1.00697e-05
8.53524e-06
7.33079e-06
6.50434e-06
5.98639e-06
5.69306e-06
5.54471e-06
5.49276e-06
5.5556e-06
5.86208e-06
6.74887e-06
8.92677e-06
1.19445e-05
6.02582e-06
2.10808e-06
1.88093e-07
1.11307e-07
2.79198e-06
7.00897e-06
1.55311e-05
2.80147e-05
3.66006e-05
3.91056e-05
3.79881e-05
3.50263e-05
3.1444e-05
2.80116e-05
2.50638e-05
2.26272e-05
2.05952e-05
1.88267e-05
1.71882e-05
1.55703e-05
1.39005e-05
1.21593e-05
1.04046e-05
8.7713e-06
7.44738e-06
6.5143e-06
5.91285e-06
5.56682e-06
5.40158e-06
5.36715e-06
5.47419e-06
5.84467e-06
6.82132e-06
9.13239e-06
1.21525e-05
6.05174e-06
2.1276e-06
1.9187e-07
1.15807e-07
2.81187e-06
7.07764e-06
1.57524e-05
2.83576e-05
3.68293e-05
3.92017e-05
3.80102e-05
3.50356e-05
3.14867e-05
2.81043e-05
2.5219e-05
2.285e-05
2.0885e-05
1.91794e-05
1.75948e-05
1.60149e-05
1.43577e-05
1.25941e-05
1.0778e-05
9.04732e-06
7.60188e-06
6.5584e-06
5.86892e-06
5.46463e-06
5.27594e-06
5.25218e-06
5.39762e-06
5.82855e-06
6.89443e-06
9.34018e-06
1.23578e-05
6.08118e-06
2.14725e-06
1.95451e-07
1.20239e-07
2.83076e-06
7.14417e-06
1.59676e-05
2.86827e-05
3.70344e-05
3.92743e-05
3.80077e-05
3.50192e-05
3.15043e-05
2.81758e-05
2.53573e-05
2.30606e-05
2.1168e-05
1.95313e-05
1.80077e-05
1.64737e-05
1.48373e-05
1.30592e-05
1.11871e-05
9.36186e-06
7.79517e-06
6.63911e-06
5.85811e-06
5.39078e-06
5.17249e-06
5.15262e-06
5.33046e-06
5.81796e-06
6.97208e-06
9.55373e-06
1.25607e-05
6.11275e-06
2.16685e-06
1.98817e-07
1.24741e-07
2.85011e-06
7.21253e-06
1.61875e-05
2.90085e-05
3.7233e-05
3.93388e-05
3.79974e-05
3.49957e-05
3.1516e-05
2.8244e-05
2.54922e-05
2.32671e-05
2.14475e-05
1.98821e-05
1.84239e-05
1.6942e-05
1.53343e-05
1.35498e-05
1.16287e-05
9.71312e-06
8.0264e-06
6.75583e-06
5.87996e-06
5.34492e-06
5.09093e-06
5.06799e-06
5.27169e-06
5.81093e-06
7.05118e-06
9.76836e-06
1.27591e-05
6.14608e-06
2.18626e-06
2.01966e-07
1.29176e-07
2.86885e-06
7.27973e-06
1.64022e-05
2.93175e-05
3.74094e-05
3.93803e-05
3.79623e-05
3.49457e-05
3.15015e-05
2.82934e-05
2.561e-05
2.34586e-05
2.17159e-05
2.0227e-05
1.88399e-05
1.74168e-05
1.58452e-05
1.40622e-05
1.20993e-05
1.00985e-05
8.29502e-06
6.90933e-06
5.93616e-06
5.32945e-06
5.03423e-06
5.00171e-06
5.22522e-06
5.81263e-06
7.13937e-06
9.98815e-06
1.2954e-05
6.18038e-06
2.20532e-06
2.04894e-07
1.33658e-07
2.88825e-06
7.34968e-06
1.66204e-05
2.96244e-05
3.75771e-05
3.94112e-05
3.79158e-05
3.48838e-05
3.14741e-05
2.83279e-05
2.57139e-05
2.36382e-05
2.19748e-05
2.05649e-05
1.92525e-05
1.78934e-05
1.6365e-05
1.45915e-05
1.25946e-05
1.05153e-05
8.59954e-06
7.09853e-06
6.02594e-06
5.34382e-06
5.00208e-06
4.9537e-06
5.19097e-06
5.82215e-06
7.23324e-06
1.0211e-05
1.31455e-05
6.21611e-06
2.22407e-06
2.07611e-07
1.38056e-07
2.90708e-06
7.42e-06
1.6833e-05
2.99149e-05
3.7723e-05
3.94201e-05
3.7847e-05
3.47991e-05
3.14245e-05
2.83424e-05
2.58007e-05
2.38037e-05
2.22224e-05
2.08947e-05
1.96608e-05
1.83704e-05
1.68908e-05
1.51338e-05
1.31104e-05
1.09593e-05
8.93713e-06
7.32205e-06
6.1491e-06
5.3888e-06
4.99601e-06
4.92605e-06
5.1713e-06
5.84166e-06
7.33429e-06
1.04385e-05
1.33339e-05
6.25286e-06
2.24245e-06
2.10119e-07
1.42427e-07
2.92523e-06
7.48849e-06
1.70441e-05
3.02006e-05
3.786e-05
3.94162e-05
3.77627e-05
3.46984e-05
3.13594e-05
2.83422e-05
2.58737e-05
2.39563e-05
2.24584e-05
2.12147e-05
2.00618e-05
1.88437e-05
1.74182e-05
1.56844e-05
1.36418e-05
1.14264e-05
9.30411e-06
7.57706e-06
6.3036e-06
5.463e-06
5.01517e-06
4.91826e-06
5.16574e-06
5.8703e-06
7.44091e-06
1.06688e-05
1.35203e-05
6.29115e-06
2.26053e-06
2.12434e-07
1.467e-07
2.94253e-06
7.55553e-06
1.72531e-05
3.04762e-05
3.79802e-05
3.93948e-05
3.76607e-05
3.45791e-05
3.12729e-05
2.83187e-05
2.59264e-05
2.40933e-05
2.26822e-05
2.15247e-05
2.04551e-05
1.93121e-05
1.79448e-05
1.62393e-05
1.4184e-05
1.1911e-05
9.69519e-06
7.85993e-06
6.48741e-06
5.56571e-06
5.06e-06
4.93159e-06
5.17597e-06
5.90971e-06
7.55433e-06
1.09022e-05
1.37038e-05
6.33054e-06
2.27828e-06
2.14564e-07
1.50954e-07
2.9596e-06
7.62272e-06
1.74638e-05
3.07471e-05
3.80897e-05
3.93606e-05
3.75447e-05
3.44462e-05
3.11758e-05
2.82866e-05
2.59686e-05
2.42162e-05
2.28923e-05
2.18231e-05
2.08385e-05
1.97732e-05
1.84676e-05
1.67957e-05
1.47337e-05
1.24097e-05
1.01065e-05
8.16712e-06
6.69745e-06
5.69452e-06
5.12878e-06
4.96499e-06
5.20134e-06
5.95927e-06
7.67355e-06
1.11372e-05
1.38852e-05
6.3714e-06
2.29577e-06
2.16524e-07
1.55106e-07
2.97594e-06
7.6883e-06
1.76705e-05
3.10044e-05
3.81813e-05
3.93078e-05
3.74091e-05
3.42926e-05
3.10571e-05
2.82343e-05
2.59954e-05
2.43279e-05
2.30896e-05
2.21085e-05
2.12115e-05
2.02264e-05
1.89854e-05
1.73509e-05
1.52875e-05
1.29183e-05
1.0534e-05
8.49557e-06
6.93152e-06
5.848e-06
5.22092e-06
5.01868e-06
5.24273e-06
6.02024e-06
7.79995e-06
1.13749e-05
1.40647e-05
6.41333e-06
2.31294e-06
2.18325e-07
1.592e-07
2.99185e-06
7.75332e-06
1.78767e-05
3.12546e-05
3.8261e-05
3.92415e-05
3.72597e-05
3.41262e-05
3.09266e-05
2.81703e-05
2.60104e-05
2.44282e-05
2.32778e-05
2.23837e-05
2.1573e-05
2.06693e-05
1.94954e-05
1.7902e-05
1.58421e-05
1.34339e-05
1.09747e-05
8.84239e-06
7.18694e-06
6.0238e-06
5.33454e-06
5.09138e-06
5.29943e-06
6.09226e-06
7.93312e-06
1.16148e-05
1.42434e-05
6.45673e-06
2.32987e-06
2.1998e-07
1.63197e-07
3.00716e-06
7.81704e-06
1.80793e-05
3.14918e-05
3.83231e-05
3.91564e-05
3.70902e-05
3.39392e-05
3.07761e-05
2.80882e-05
2.601e-05
2.45156e-05
2.34548e-05
2.26499e-05
2.19254e-05
2.11027e-05
1.99972e-05
1.84475e-05
1.63952e-05
1.39534e-05
1.14256e-05
9.20538e-06
7.46201e-06
6.22062e-06
5.46881e-06
5.18285e-06
5.37183e-06
6.17623e-06
8.07426e-06
1.18578e-05
1.44215e-05
6.50126e-06
2.34654e-06
2.21499e-07
1.67102e-07
3.02186e-06
7.87937e-06
1.82791e-05
3.17192e-05
3.83721e-05
3.90568e-05
3.69058e-05
3.3738e-05
3.06125e-05
2.79937e-05
2.59981e-05
2.45918e-05
2.36205e-05
2.29048e-05
2.22668e-05
2.15243e-05
2.04876e-05
1.89841e-05
1.69435e-05
1.44739e-05
1.18841e-05
9.58229e-06
7.75477e-06
6.43668e-06
5.62222e-06
5.29199e-06
5.45931e-06
6.27196e-06
8.22335e-06
1.2104e-05
1.46003e-05
6.54736e-06
2.36302e-06
2.22896e-07
1.70883e-07
3.03582e-06
7.93989e-06
1.84744e-05
3.19336e-05
3.84041e-05
3.89384e-05
3.67013e-05
3.3517e-05
3.04306e-05
2.78828e-05
2.59723e-05
2.4656e-05
2.37756e-05
2.31495e-05
2.25984e-05
2.19363e-05
2.0967e-05
1.95106e-05
1.7485e-05
1.49926e-05
1.23475e-05
9.97108e-06
8.06371e-06
6.67091e-06
5.79402e-06
5.41842e-06
5.56194e-06
6.37997e-06
8.38129e-06
1.23541e-05
1.47798e-05
6.59488e-06
2.37934e-06
2.24184e-07
1.74555e-07
3.04918e-06
7.99895e-06
1.86664e-05
3.21371e-05
3.84217e-05
3.8804e-05
3.64804e-05
3.32806e-05
3.02348e-05
2.77595e-05
2.59353e-05
2.47096e-05
2.39198e-05
2.3383e-05
2.29181e-05
2.23359e-05
2.14341e-05
2.00238e-05
1.8016e-05
1.55066e-05
1.28134e-05
1.03697e-05
8.38705e-06
6.92175e-06
5.98292e-06
5.5612e-06
5.6792e-06
6.50017e-06
8.54826e-06
1.26084e-05
1.49611e-05
6.64423e-06
2.39562e-06
2.25378e-07
1.78092e-07
3.06176e-06
8.05596e-06
1.88532e-05
3.2327e-05
3.8422e-05
3.86503e-05
3.62394e-05
3.30254e-05
3.00222e-05
2.76215e-05
2.58861e-05
2.47526e-05
2.40543e-05
2.36067e-05
2.32272e-05
2.27239e-05
2.18888e-05
2.05252e-05
1.8536e-05
1.60141e-05
1.32799e-05
1.07764e-05
8.72358e-06
7.1883e-06
6.18822e-06
5.71981e-06
5.8108e-06
6.63257e-06
8.72461e-06
1.28673e-05
1.51446e-05
6.69545e-06
2.41187e-06
2.26492e-07
1.81513e-07
3.07374e-06
8.11145e-06
1.90364e-05
3.25053e-05
3.84065e-05
3.84788e-05
3.59803e-05
3.27536e-05
2.97952e-05
2.7471e-05
2.58259e-05
2.47854e-05
2.41786e-05
2.38195e-05
2.35244e-05
2.30985e-05
2.2329e-05
2.10119e-05
1.90433e-05
1.65132e-05
1.37451e-05
1.11898e-05
9.07196e-06
7.46944e-06
6.40902e-06
5.89358e-06
5.95641e-06
6.77716e-06
8.91049e-06
1.31311e-05
1.53316e-05
6.74893e-06
2.42823e-06
2.27542e-07
1.84793e-07
3.0849e-06
8.16465e-06
1.92137e-05
3.26691e-05
3.83729e-05
3.82873e-05
3.57013e-05
3.2464e-05
2.95531e-05
2.73078e-05
2.5755e-05
2.48088e-05
2.42937e-05
2.40226e-05
2.38106e-05
2.34603e-05
2.27543e-05
2.14825e-05
1.95355e-05
1.70015e-05
1.42073e-05
1.16085e-05
9.43151e-06
7.76484e-06
6.64511e-06
6.08234e-06
6.11581e-06
6.93384e-06
9.10594e-06
1.34001e-05
1.55229e-05
6.80487e-06
2.44475e-06
2.28543e-07
1.87951e-07
3.09542e-06
8.21613e-06
1.93868e-05
3.28202e-05
3.8322e-05
3.80762e-05
3.54029e-05
3.21574e-05
2.9297e-05
2.71328e-05
2.56742e-05
2.48232e-05
2.43999e-05
2.42161e-05
2.40857e-05
2.38088e-05
2.3164e-05
2.19361e-05
2.00116e-05
1.74773e-05
1.46632e-05
1.20298e-05
9.80023e-06
8.07322e-06
6.89581e-06
6.28587e-06
6.28939e-06
7.10385e-06
9.31162e-06
1.36747e-05
1.57193e-05
6.86349e-06
2.4615e-06
2.29515e-07
1.90972e-07
3.10514e-06
8.26527e-06
1.95539e-05
3.29565e-05
3.82523e-05
3.78445e-05
3.50844e-05
3.18338e-05
2.9027e-05
2.69466e-05
2.55842e-05
2.48294e-05
2.44979e-05
2.44006e-05
2.435e-05
2.41439e-05
2.35573e-05
2.2371e-05
2.04689e-05
1.79384e-05
1.51121e-05
1.24526e-05
1.0177e-05
8.39378e-06
7.16065e-06
6.50401e-06
6.47719e-06
7.28707e-06
9.5282e-06
1.3956e-05
1.59219e-05
6.92508e-06
2.47859e-06
2.30476e-07
1.93865e-07
3.11411e-06
8.31224e-06
1.97155e-05
3.30788e-05
3.8164e-05
3.75918e-05
3.47459e-05
3.14934e-05
2.87438e-05
2.67498e-05
2.54857e-05
2.48281e-05
2.45887e-05
2.45769e-05
2.46043e-05
2.44664e-05
2.39347e-05
2.27871e-05
2.09068e-05
1.83829e-05
1.55514e-05
1.28737e-05
1.05591e-05
8.72458e-06
7.43849e-06
6.73625e-06
6.67909e-06
7.4837e-06
9.75642e-06
1.42446e-05
1.61309e-05
6.98979e-06
2.49609e-06
2.31441e-07
1.96626e-07
3.12225e-06
8.35674e-06
1.98708e-05
3.31859e-05
3.80562e-05
3.73173e-05
3.43867e-05
3.1136e-05
2.84475e-05
2.65428e-05
2.53792e-05
2.482e-05
2.46727e-05
2.47456e-05
2.48491e-05
2.47763e-05
2.42957e-05
2.31836e-05
2.1324e-05
1.88098e-05
1.59801e-05
1.32919e-05
1.09449e-05
9.06425e-06
7.72838e-06
6.98211e-06
6.89512e-06
7.69422e-06
9.99734e-06
1.45422e-05
1.63474e-05
7.0579e-06
2.51411e-06
2.3243e-07
1.99262e-07
3.1296e-06
8.39883e-06
2.00199e-05
3.32782e-05
3.79289e-05
3.7021e-05
3.40072e-05
3.07626e-05
2.8139e-05
2.63266e-05
2.52653e-05
2.48057e-05
2.47506e-05
2.49075e-05
2.50851e-05
2.50742e-05
2.46408e-05
2.35604e-05
2.172e-05
1.92182e-05
1.63975e-05
1.37051e-05
1.13323e-05
9.41096e-06
8.02913e-06
7.24103e-06
7.1253e-06
7.91929e-06
1.02522e-05
1.48503e-05
1.65721e-05
7.12967e-06
2.53276e-06
2.33455e-07
2.01774e-07
3.13611e-06
8.43835e-06
2.01624e-05
3.33547e-05
3.77808e-05
3.67015e-05
3.36067e-05
3.03728e-05
2.78185e-05
2.61012e-05
2.51445e-05
2.47853e-05
2.48227e-05
2.50627e-05
2.53125e-05
2.53602e-05
2.49699e-05
2.39172e-05
2.20945e-05
1.96078e-05
1.68033e-05
1.41121e-05
1.17195e-05
9.7631e-06
8.33972e-06
7.51259e-06
7.36961e-06
8.15933e-06
1.05221e-05
1.517e-05
1.68049e-05
7.20517e-06
2.5521e-06
2.34531e-07
2.04178e-07
3.14182e-06
8.47544e-06
2.02987e-05
3.34156e-05
3.76116e-05
3.6359e-05
3.31859e-05
2.9968e-05
2.74873e-05
2.58679e-05
2.50175e-05
2.47599e-05
2.48897e-05
2.5212e-05
2.55319e-05
2.56349e-05
2.52832e-05
2.42542e-05
2.24471e-05
1.99777e-05
1.71955e-05
1.45104e-05
1.21037e-05
1.0118e-05
8.6578e-06
7.79507e-06
7.62702e-06
8.4139e-06
1.08074e-05
1.55021e-05
1.70451e-05
7.28427e-06
2.57218e-06
2.35664e-07
2.06481e-07
3.14674e-06
8.51014e-06
2.04287e-05
3.34602e-05
3.74201e-05
3.59926e-05
3.27449e-05
2.95484e-05
2.71459e-05
2.56273e-05
2.4885e-05
2.47298e-05
2.49522e-05
2.53559e-05
2.5744e-05
2.5899e-05
2.55814e-05
2.45716e-05
2.27776e-05
2.03264e-05
1.75714e-05
1.48972e-05
1.24822e-05
1.04733e-05
8.98178e-06
8.08766e-06
7.89757e-06
8.68396e-06
1.11099e-05
1.58483e-05
1.72926e-05
7.36681e-06
2.59302e-06
2.36856e-07
2.08697e-07
3.15091e-06
8.54256e-06
2.05529e-05
3.34887e-05
3.72065e-05
3.56027e-05
3.22843e-05
2.91155e-05
2.67957e-05
2.53806e-05
2.47481e-05
2.4696e-05
2.50112e-05
2.54956e-05
2.59499e-05
2.61536e-05
2.5866e-05
2.48709e-05
2.30869e-05
2.06541e-05
1.79297e-05
1.52705e-05
1.28526e-05
1.08263e-05
9.30873e-06
8.38759e-06
8.1794e-06
8.96893e-06
1.143e-05
1.62098e-05
1.75467e-05
7.45253e-06
2.61461e-06
2.38112e-07
2.10828e-07
3.15429e-06
8.57261e-06
2.06708e-05
3.35003e-05
3.69697e-05
3.51885e-05
3.18045e-05
2.86696e-05
2.64373e-05
2.51286e-05
2.46074e-05
2.46591e-05
2.50669e-05
2.56311e-05
2.61498e-05
2.63993e-05
2.61374e-05
2.51526e-05
2.33756e-05
2.09607e-05
1.8269e-05
1.56285e-05
1.32126e-05
1.11747e-05
9.63708e-06
8.69438e-06
8.4725e-06
9.26926e-06
1.17686e-05
1.65873e-05
1.78068e-05
7.5412e-06
2.63697e-06
2.39437e-07
2.12891e-07
3.15698e-06
8.60057e-06
2.07831e-05
3.34958e-05
3.67103e-05
3.47509e-05
3.13065e-05
2.82124e-05
2.60725e-05
2.48731e-05
2.44646e-05
2.46206e-05
2.51207e-05
2.5764e-05
2.63453e-05
2.66375e-05
2.63973e-05
2.54186e-05
2.36454e-05
2.12475e-05
1.859e-05
1.59707e-05
1.35609e-05
1.15167e-05
9.9644e-06
9.00525e-06
8.77447e-06
9.58385e-06
1.21261e-05
1.69816e-05
1.80717e-05
7.63248e-06
2.66009e-06
2.4083e-07
2.14886e-07
3.15894e-06
8.62637e-06
2.08896e-05
3.34745e-05
3.64278e-05
3.42898e-05
3.07908e-05
2.77442e-05
2.57018e-05
2.46152e-05
2.43204e-05
2.45804e-05
2.51725e-05
2.58939e-05
2.65363e-05
2.68685e-05
2.66464e-05
2.56699e-05
2.38977e-05
2.1516e-05
1.88932e-05
1.62971e-05
1.3897e-05
1.18511e-05
1.02895e-05
9.31935e-06
9.08519e-06
9.91232e-06
1.25018e-05
1.73916e-05
1.83402e-05
7.726e-06
2.68393e-06
2.42298e-07
2.16825e-07
3.16025e-06
8.65024e-06
2.09908e-05
3.3437e-05
3.61226e-05
3.38063e-05
3.02592e-05
2.72668e-05
2.53265e-05
2.43583e-05
2.41766e-05
2.45392e-05
2.52224e-05
2.60212e-05
2.67231e-05
2.70928e-05
2.68854e-05
2.59078e-05
2.41346e-05
2.17686e-05
1.91803e-05
1.66083e-05
1.42204e-05
1.21769e-05
1.06109e-05
9.63512e-06
9.40288e-06
1.02533e-05
1.28957e-05
1.78174e-05
1.8611e-05
7.82125e-06
2.70842e-06
2.4383e-07
2.1871e-07
3.1609e-06
8.67225e-06
2.10869e-05
3.33829e-05
3.57944e-05
3.33008e-05
2.97127e-05
2.6781e-05
2.4946e-05
2.40974e-05
2.40294e-05
2.44951e-05
2.52696e-05
2.61454e-05
2.69056e-05
2.73105e-05
2.71147e-05
2.61334e-05
2.4358e-05
2.20082e-05
1.94534e-05
1.69058e-05
1.4532e-05
1.24941e-05
1.0928e-05
9.95147e-06
9.72694e-06
1.06072e-05
1.33066e-05
1.82571e-05
1.88828e-05
7.91773e-06
2.73349e-06
2.45426e-07
2.20553e-07
3.161e-06
8.69268e-06
2.11785e-05
3.33132e-05
3.54442e-05
3.27752e-05
2.91541e-05
2.62896e-05
2.4563e-05
2.38348e-05
2.38806e-05
2.44492e-05
2.5315e-05
2.62671e-05
2.7084e-05
2.75216e-05
2.73347e-05
2.63479e-05
2.45704e-05
2.22385e-05
1.9715e-05
1.71908e-05
1.48322e-05
1.28027e-05
1.12404e-05
1.02678e-05
1.00563e-05
1.09725e-05
1.3734e-05
1.87101e-05
1.91545e-05
8.01496e-06
2.75905e-06
2.47081e-07
2.22352e-07
3.16053e-06
8.71149e-06
2.12653e-05
3.32268e-05
3.50716e-05
3.223e-05
2.85843e-05
2.57938e-05
2.41786e-05
2.35717e-05
2.37313e-05
2.44025e-05
2.53588e-05
2.63862e-05
2.72582e-05
2.77262e-05
2.75459e-05
2.65525e-05
2.47744e-05
2.24635e-05
1.99685e-05
1.74659e-05
1.51225e-05
1.31031e-05
1.15479e-05
1.05835e-05
1.03903e-05
1.13486e-05
1.41771e-05
1.9174e-05
1.94244e-05
8.11219e-06
2.78494e-06
2.48783e-07
2.24117e-07
3.15956e-06
8.72893e-06
2.13483e-05
3.31249e-05
3.46775e-05
3.1667e-05
2.80056e-05
2.52954e-05
2.3794e-05
2.33086e-05
2.35813e-05
2.43546e-05
2.54007e-05
2.65024e-05
2.74277e-05
2.79237e-05
2.77478e-05
2.67472e-05
2.49704e-05
2.26837e-05
2.02148e-05
1.77323e-05
1.54043e-05
1.33965e-05
1.18508e-05
1.08983e-05
1.07282e-05
1.17345e-05
1.4635e-05
1.96485e-05
1.96922e-05
8.20908e-06
2.81108e-06
2.50527e-07
2.25837e-07
3.158e-06
8.74466e-06
2.14263e-05
3.30067e-05
3.42619e-05
3.10868e-05
2.74192e-05
2.47957e-05
2.34105e-05
2.3047e-05
2.34326e-05
2.4307e-05
2.54421e-05
2.66167e-05
2.75933e-05
2.81148e-05
2.79408e-05
2.69318e-05
2.51576e-05
2.28975e-05
2.04535e-05
1.79904e-05
1.56782e-05
1.36837e-05
1.21501e-05
1.12129e-05
1.10703e-05
1.21301e-05
1.51064e-05
2.01317e-05
1.99567e-05
8.30521e-06
2.83735e-06
2.52308e-07
2.2752e-07
3.15595e-06
8.75904e-06
2.15005e-05
3.28727e-05
3.38251e-05
3.04906e-05
2.68266e-05
2.42959e-05
2.30292e-05
2.27877e-05
2.32854e-05
2.42604e-05
2.54834e-05
2.67297e-05
2.77556e-05
2.82999e-05
2.81253e-05
2.71068e-05
2.53357e-05
2.31032e-05
2.06833e-05
1.82393e-05
1.59436e-05
1.3964e-05
1.2445e-05
1.15262e-05
1.14155e-05
1.25346e-05
1.55906e-05
2.06222e-05
2.02161e-05
8.39981e-06
2.86363e-06
2.54131e-07
2.29158e-07
3.15331e-06
8.77165e-06
2.15697e-05
3.27221e-05
3.33666e-05
2.98788e-05
2.62286e-05
2.3797e-05
2.26507e-05
2.25312e-05
2.31405e-05
2.42152e-05
2.55251e-05
2.68415e-05
2.79147e-05
2.84794e-05
2.8302e-05
2.7273e-05
2.55056e-05
2.33008e-05
2.09045e-05
1.84795e-05
1.62011e-05
1.4238e-05
1.27359e-05
1.18386e-05
1.17638e-05
1.29473e-05
1.60858e-05
2.11169e-05
2.04698e-05
8.49262e-06
2.88997e-06
2.55991e-07
2.30761e-07
3.15022e-06
8.78308e-06
2.16353e-05
3.25552e-05
3.28867e-05
2.92527e-05
2.5627e-05
2.33005e-05
2.22765e-05
2.2279e-05
2.29991e-05
2.41725e-05
2.55683e-05
2.69533e-05
2.80717e-05
2.86542e-05
2.84719e-05
2.74318e-05
2.56686e-05
2.3491e-05
2.11173e-05
1.87111e-05
1.64508e-05
1.45059e-05
1.30232e-05
1.21509e-05
1.21164e-05
1.3369e-05
1.65922e-05
2.16158e-05
2.07183e-05
8.58376e-06
2.91636e-06
2.57886e-07
2.3233e-07
3.14664e-06
8.79304e-06
2.16963e-05
3.23705e-05
3.23848e-05
2.86131e-05
2.50226e-05
2.28069e-05
2.19069e-05
2.20308e-05
2.28606e-05
2.41318e-05
2.56125e-05
2.70648e-05
2.82266e-05
2.8825e-05
2.86365e-05
2.75854e-05
2.58279e-05
2.36757e-05
2.13228e-05
1.89349e-05
1.66931e-05
1.47676e-05
1.33062e-05
1.24613e-05
1.24706e-05
1.37975e-05
1.71075e-05
2.21159e-05
2.09604e-05
8.67283e-06
2.94263e-06
2.5981e-07
2.33873e-07
3.14268e-06
8.80198e-06
2.17535e-05
3.21678e-05
3.18613e-05
2.79616e-05
2.44175e-05
2.23181e-05
2.1544e-05
2.17883e-05
2.27259e-05
2.40935e-05
2.56579e-05
2.71763e-05
2.83797e-05
2.89923e-05
2.87969e-05
2.77362e-05
2.59869e-05
2.38568e-05
2.15221e-05
1.91514e-05
1.69284e-05
1.50236e-05
1.35861e-05
1.27729e-05
1.28321e-05
1.42343e-05
1.76313e-05
2.26166e-05
2.11961e-05
8.7598e-06
2.96876e-06
2.61757e-07
2.35381e-07