/*--------------------------------*- C++ -*----------------------------------*\
| =========                 |                                                 |
| \\      /  F ield         | OpenFOAM: The Open Source CFD Toolbox           |
|  \\    /   O peration     | Version:  v2006                                 |
|   \\  /    A nd           | Website:  www.openfoam.com                      |
|    \\/     M anipulation  |                                                 |
\*---------------------------------------------------------------------------*/
FoamFile
{
    version     2.0;
    format      ascii;
    class       volScalarField;
    location    "71";
    object      k;
}
// * * * * * * * * * * * * * * * * * * * * * * * * * * * * * * * * * * * * * //

dimensions      [0 2 -2 0 0 0 0];


internalField   nonuniform List<scalar> 
78750
(
2.13096e-06
5.81163e-06
9.06216e-06
1.21529e-05
1.50814e-05
1.77874e-05
2.02541e-05
2.24818e-05
2.44728e-05
2.62291e-05
2.7753e-05
2.90481e-05
3.01191e-05
3.09711e-05
3.16021e-05
3.20122e-05
3.22092e-05
3.22009e-05
3.19935e-05
3.15915e-05
3.10032e-05
3.02163e-05
2.9226e-05
2.80304e-05
2.66227e-05
2.49942e-05
2.31354e-05
2.10363e-05
1.86779e-05
1.60502e-05
1.31377e-05
9.95746e-06
6.71025e-06
3.88351e-06
2.0176e-06
1.36534e-06
1.42855e-05
2.65986e-05
3.78264e-05
4.76668e-05
5.61325e-05
6.33433e-05
6.93733e-05
7.42831e-05
7.81512e-05
8.10652e-05
8.31144e-05
8.43861e-05
8.49669e-05
8.4949e-05
8.44142e-05
8.34267e-05
8.20473e-05
8.03317e-05
7.83293e-05
7.60819e-05
7.36087e-05
7.09244e-05
6.8038e-05
6.49404e-05
6.16085e-05
5.80101e-05
5.41249e-05
4.98602e-05
4.49927e-05
3.92128e-05
3.21999e-05
2.42707e-05
1.69356e-05
1.20982e-05
2.0057e-06
2.03775e-05
3.75535e-05
5.30172e-05
6.62249e-05
7.70063e-05
8.55475e-05
9.2193e-05
9.72711e-05
0.000101009
0.000103563
0.000105066
0.000105635
0.000105379
0.000104403
0.000102813
0.000100708
9.81884e-05
9.53538e-05
9.23007e-05
8.91176e-05
8.58759e-05
8.26205e-05
7.93665e-05
7.60898e-05
7.27322e-05
6.92061e-05
6.53917e-05
6.11126e-05
5.60792e-05
4.98715e-05
4.21928e-05
3.37118e-05
2.57265e-05
2.00752e-05
3.80968e-06
2.75984e-05
4.93531e-05
6.81908e-05
8.34534e-05
9.52091e-05
0.000104025
0.000110539
0.000115222
0.000118374
0.000120194
0.000120829
0.000120403
0.000119026
0.000116812
0.00011388
0.000110359
0.000106392
0.000102132
9.77452e-05
9.34041e-05
8.92711e-05
8.5461e-05
8.20078e-05
7.88564e-05
7.58786e-05
7.28925e-05
6.96727e-05
6.59367e-05
6.13079e-05
5.53442e-05
4.78868e-05
3.98608e-05
3.20446e-05
2.57705e-05
5.69326e-06
3.42328e-05
5.98851e-05
8.13542e-05
9.78985e-05
0.000109957
0.000118563
0.000124672
0.000128874
0.000131443
0.000132561
0.000132382
0.000131002
0.000128513
0.000125023
0.000120667
0.000115612
0.000110048
0.000104197
9.83059e-05
9.26527e-05
8.75203e-05
8.31188e-05
7.95128e-05
7.66263e-05
7.42718e-05
7.21736e-05
6.99854e-05
6.72937e-05
6.36117e-05
5.84585e-05
5.1756e-05
4.44154e-05
3.67963e-05
2.98129e-05
7.79604e-06
4.05229e-05
6.95348e-05
9.31686e-05
0.000110696
0.000123002
0.000131561
0.000137549
0.000141529
0.000143738
0.000144372
0.00014353
0.000141273
0.000137681
0.000132874
0.000127024
0.000120351
0.000113114
0.000105611
9.81803e-05
9.12073e-05
8.50848e-05
8.00605e-05
7.61738e-05
7.33266e-05
7.13172e-05
6.98428e-05
6.85006e-05
6.67917e-05
6.41364e-05
5.99907e-05
5.42586e-05
4.76371e-05
4.02047e-05
3.269e-05
9.71439e-06
4.58944e-05
7.7673e-05
0.000103109
0.000121512
0.000134154
0.000142824
0.000148782
0.000152592
0.000154535
0.000154762
0.000153322
0.000150253
0.000145636
0.000139616
0.000132405
0.000124276
0.000115551
0.000106596
9.78362e-05
8.97668e-05
8.28667e-05
7.73445e-05
7.31819e-05
7.02666e-05
6.84098e-05
6.73248e-05
6.66048e-05
6.5711e-05
6.39915e-05
6.08227e-05
5.6025e-05
5.00372e-05
4.2789e-05
3.50753e-05
1.14604e-05
5.0722e-05
8.50043e-05
0.000112133
0.000131434
0.00014449
0.000153359
0.000159356
0.000163109
0.00016489
0.000164794
0.000162845
0.000159076
0.00015358
0.000146531
0.000138186
0.000128864
0.000118939
0.000108835
9.90458e-05
9.01564e-05
8.26587e-05
7.66547e-05
7.20743e-05
6.88134e-05
6.67313e-05
6.56088e-05
6.50977e-05
6.4678e-05
6.36583e-05
6.13197e-05
5.73425e-05
5.19365e-05
4.49668e-05
3.74118e-05
1.30388e-05
5.50715e-05
9.16261e-05
0.000120333
0.000140525
0.000154035
0.00016314
0.000169233
0.000172954
0.000174563
0.000174138
0.00017169
0.000167253
0.000160935
0.000152944
0.000143575
0.000133193
0.000122221
0.000111141
0.000100532
9.10801e-05
8.32387e-05
7.69716e-05
7.21382e-05
6.86114e-05
6.62725e-05
6.49651e-05
6.44251e-05
6.42023e-05
6.36199e-05
6.18965e-05
5.85773e-05
5.36905e-05
4.70871e-05
3.99571e-05
1.45419e-05
5.91979e-05
9.79062e-05
0.00012812
0.00014918
0.000163146
0.000172492
0.000178692
0.000182401
0.00018387
0.000183162
0.000180277
0.00017525
0.000168209
0.00015939
0.000149127
0.000137825
0.00012595
0.000114034
0.00010273
9.28106e-05
8.46788e-05
7.81911e-05
7.31445e-05
6.93803e-05
6.67794e-05
6.52234e-05
6.45216e-05
6.43071e-05
6.39563e-05
6.26653e-05
5.98708e-05
5.5458e-05
4.92764e-05
4.26683e-05
1.60283e-05
6.31992e-05
0.000103965
0.000135608
0.000157483
0.000171874
0.000181439
0.000187721
0.000191385
0.000192676
0.000191646
0.000188289
0.000182647
0.000174868
0.000165221
0.000154078
0.000141888
0.000129163
0.000116492
0.000104604
9.4371e-05
8.61171e-05
7.95896e-05
7.45137e-05
7.06829e-05
6.79585e-05
6.62358e-05
6.53757e-05
6.50897e-05
6.48267e-05
6.38041e-05
6.13966e-05
5.73827e-05
5.16002e-05
4.54774e-05
1.75513e-05
6.7181e-05
0.00010993
0.000142924
0.000165556
0.000180341
0.000190113
0.000196476
0.000200106
0.000201238
0.00019991
0.000196111
0.000189892
0.00018142
0.000170995
0.000159022
0.000145988
0.000132449
0.00011904
0.000106564
9.59897e-05
8.75969e-05
8.10497e-05
7.60033e-05
7.21968e-05
6.94557e-05
6.7666e-05
6.67108e-05
6.63591e-05
6.61276e-05
6.52774e-05
6.31599e-05
5.94753e-05
5.40322e-05
4.8278e-05
1.91055e-05
7.11022e-05
0.000115751
0.000150016
0.000173341
0.000188476
0.000198424
0.000204843
0.000208412
0.000209356
0.000207703
0.000203439
0.000196626
0.000187457
0.000176259
0.000163473
0.000149624
0.000135305
0.0001212
0.000108187
9.73302e-05
8.88675e-05
8.23776e-05
7.74532e-05
7.37801e-05
7.11428e-05
6.94049e-05
6.8452e-05
6.80835e-05
6.7871e-05
6.71264e-05
6.52089e-05
6.17655e-05
5.65602e-05
5.10209e-05
2.073e-05
7.50824e-05
0.000121586
0.000157058
0.000181021
0.00019648
0.000206596
0.000213073
0.000216589
0.00021736
0.000215399
0.000210694
0.000203317
0.000193484
0.000181549
0.000167984
0.000153345
0.000138259
0.000123452
0.000109864
9.86587e-05
9.00742e-05
8.36212e-05
7.88278e-05
7.53245e-05
7.28573e-05
7.12572e-05
7.03958e-05
7.00808e-05
6.99175e-05
6.92612e-05
6.74911e-05
6.42187e-05
5.91514e-05
5.36752e-05
2.23678e-05
7.89517e-05
0.000127208
0.000163809
0.000188362
0.00020412
0.00021439
0.000220917
0.000224375
0.000224966
0.000222696
0.000217554
0.000209627
0.000199153
0.000186514
0.000172208
0.000156817
0.000141002
0.000125523
0.000111382
9.98406e-05
9.1145e-05
8.47469e-05
8.01182e-05
7.6837e-05
7.46019e-05
7.32147e-05
7.25257e-05
7.2333e-05
7.22526e-05
7.16718e-05
6.99981e-05
6.68215e-05
6.17875e-05
5.62377e-05
2.40763e-05
8.29092e-05
0.000132903
0.000170596
0.000195704
0.000211743
0.000222166
0.000228746
0.000232154
0.000232578
0.000230017
0.000224461
0.000216013
0.000204934
0.000191628
0.000176614
0.000160498
0.000143964
0.000127804
0.00011307
0.000101108
9.22292e-05
8.58347e-05
8.13443e-05
7.82856e-05
7.63126e-05
7.51888e-05
7.47342e-05
7.47262e-05
7.4776e-05
7.42858e-05
7.26855e-05
6.9551e-05
6.44624e-05
5.87209e-05
2.57732e-05
8.6713e-05
0.000138333
0.000177045
0.000202676
0.000218989
0.000229566
0.000236206
0.000239572
0.000239841
0.000237002
0.000231056
0.00022212
0.000210476
0.000196547
0.000180871
0.000164071
0.00014685
0.000130035
0.000114715
0.000102323
9.32466e-05
8.68491e-05
8.25029e-05
7.96877e-05
7.80127e-05
7.72014e-05
7.70367e-05
7.72642e-05
7.74768e-05
7.70798e-05
7.55244e-05
7.23782e-05
6.71563e-05
6.11311e-05
2.75366e-05
9.06182e-05
0.000143872
0.000183591
0.000209729
0.000226309
0.000237042
0.000243747
0.000247078
0.0002472
0.000244101
0.000237786
0.000228392
0.000216217
0.000201703
0.000185401
0.00016794
0.000150044
0.000132562
0.000116611
0.000103687
9.43222e-05
8.78519e-05
8.3606e-05
8.10177e-05
7.96496e-05
7.91816e-05
7.93534e-05
7.98691e-05
8.02887e-05
8.00061e-05
7.84867e-05
7.52935e-05
6.98763e-05
6.34875e-05
2.92758e-05
9.43543e-05
0.000149134
0.000189797
0.000216423
0.000233276
0.000244175
0.000250956
0.000254264
0.000254254
0.000250913
0.000244258
0.000234442
0.000221781
0.000206732
0.000189851
0.000171776
0.00015324
0.000135109
0.000118531
0.000105051
9.53651e-05
8.87959e-05
8.46386e-05
8.22825e-05
8.12434e-05
8.1154e-05
8.17057e-05
8.25529e-05
8.32124e-05
8.3056e-05
8.15589e-05
7.82815e-05
7.26093e-05
6.57889e-05
3.10793e-05
9.81942e-05
0.00015452
0.000196134
0.000223252
0.000240382
0.000251453
0.000258313
0.000261599
0.000261462
0.000257889
0.000250912
0.000240702
0.000227591
0.000212044
0.000194621
0.000175962
0.000156802
0.000138008
0.00012075
0.000106607
9.64926e-05
8.97372e-05
8.56082e-05
8.34542e-05
8.27426e-05
8.3053e-05
8.40212e-05
8.52421e-05
8.61777e-05
8.61667e-05
8.46908e-05
8.13107e-05
7.5348e-05
6.80492e-05
3.28557e-05
0.000101864
0.000159635
0.000202154
0.000229763
0.000247188
0.000258447
0.000265394
0.000268661
0.000268402
0.000264613
0.00025734
0.000246772
0.000233255
0.000217262
0.00019935
0.000180159
0.000160416
0.000140986
0.000123049
0.000108218
9.76283e-05
9.0641e-05
8.65082e-05
8.45441e-05
8.41689e-05
8.49065e-05
8.63303e-05
8.79682e-05
8.92177e-05
8.93733e-05
8.79164e-05
8.44073e-05
7.81032e-05
7.02632e-05
3.46954e-05
0.000105627
0.000164866
0.000208314
0.000236443
0.000254193
0.000265649
0.000272671
0.000275903
0.000275511
0.000271507
0.000263954
0.000253057
0.000239173
0.000222774
0.000204416
0.000184727
0.000164421
0.00014435
0.000125692
0.000110075
9.88937e-05
9.15711e-05
8.73559e-05
8.55341e-05
8.54786e-05
8.66525e-05
8.85585e-05
9.0647e-05
9.22404e-05
9.25815e-05
9.11489e-05
8.75046e-05
8.08418e-05
7.24358e-05
3.65078e-05
0.000109214
0.00016982
0.000214168
0.000242854
0.000260997
0.000272673
0.000279733
0.000282901
0.000282367
0.000278158
0.000270353
0.000259169
0.000244968
0.000228221
0.000209476
0.000189348
0.000168532
0.000147858
0.000128495
0.000112075
0.000100243
9.25175e-05
8.81629e-05
8.64482e-05
8.67031e-05
8.83274e-05
9.07461e-05
9.3323e-05
9.5296e-05
9.58469e-05
9.44455e-05
9.06498e-05
8.35878e-05
7.45608e-05
3.8381e-05
0.000112869
0.000174846
0.00022011
0.000249407
0.000267969
0.000279873
0.000286988
0.000290039
0.000289346
0.00028494
0.000276907
0.00026547
0.000250994
0.000233944
0.000214859
0.000194335
0.00017304
0.000151779
0.000131696
0.000114416
0.000101813
9.35667e-05
8.89702e-05
8.72894e-05
8.78161e-05
8.98843e-05
9.28327e-05
9.5928e-05
9.83108e-05
9.90914e-05
9.77258e-05
9.37788e-05
8.6305e-05
7.66376e-05
4.02264e-05
0.000116345
0.000179584
0.000225703
0.000255606
0.000274516
0.000286652
0.000293883
0.000296887
0.000296055
0.00029148
0.000283255
0.00027161
0.00025691
0.000239616
0.000220255
0.0001994
0.000177692
0.000155899
0.000135138
0.000117016
0.00010358
9.4732e-05
8.98138e-05
8.8103e-05
8.88635e-05
9.13644e-05
9.48525e-05
9.84871e-05
0.000101303
0.000102333
0.000101027
9.69142e-05
8.90026e-05
7.86567e-05
4.21296e-05
0.000119881
0.000184383
0.000231354
0.000261835
0.000281094
0.000293471
0.00030084
0.000303855
0.000302859
0.000298116
0.000289718
0.000277896
0.000263013
0.000245521
0.000225931
0.000204793
0.000182716
0.000160427
0.000139004
0.000120028
0.00010566
9.60997e-05
9.07483e-05
8.89145e-05
8.98466e-05
9.27525e-05
9.6782e-05
0.000100977
0.000104255
0.000105566
0.000104374
0.000100031
9.1658e-05
8.06152e-05
4.40054e-05
0.000123241
0.000188916
0.000236731
0.000267692
0.000287265
0.00029988
0.000307402
0.000310462
0.000309364
0.0003045
0.000295973
0.00028402
0.000269005
0.000251373
0.000231618
0.000210266
0.00018789
0.000165172
0.000143148
0.000123358
0.000108026
9.76879e-05
9.182e-05
8.97809e-05
9.08198e-05
9.40911e-05
9.86458e-05
0.000103402
0.000107154
0.000108783
0.000107729
0.000103188
9.42829e-05
8.25036e-05
4.59293e-05
0.000126621
0.000193446
0.000242109
0.000273524
0.000293412
0.000306277
0.000313974
0.000317112
0.000315975
0.000310961
0.000302303
0.00029024
0.000275126
0.000257395
0.000237521
0.000216005
0.000193381
0.000170285
0.000147697
0.000127108
0.000110763
9.95661e-05
9.30845e-05
9.07422e-05
9.18076e-05
9.53926e-05
0.000100452
0.000105776
0.000110039
0.000112062
0.000111124
0.000106382
9.68901e-05
8.43214e-05
4.7825e-05
0.000129832
0.000197699
0.000247136
0.000278976
0.00029917
0.000312283
0.000320161
0.000323397
0.00032226
0.000317133
0.000308394
0.000296275
0.000281119
0.000263348
0.000243418
0.000221804
0.000199004
0.000175603
0.000152522
0.000131192
0.000113843
0.000101753
9.45886e-05
9.18579e-05
9.2869e-05
9.67071e-05
0.000102237
0.000108122
0.000112914
0.000115365
0.000114542
0.000109589
9.94667e-05
8.60551e-05
4.97607e-05
0.000133058
0.000201947
0.000252139
0.000284386
0.000304879
0.000318242
0.000326307
0.000329652
0.000328529
0.000323307
0.000314509
0.000302356
0.000287187
0.000269409
0.000249462
0.000227796
0.000204874
0.000181225
0.000157709
0.000135682
0.000117335
0.000104312
9.63923e-05
9.31789e-05
9.40428e-05
9.8061e-05
0.000104018
0.00011045
0.000115779
0.00011867
0.000117965
0.000112788
0.000102002
8.77016e-05
5.16675e-05
0.000136131
0.000205942
0.00025682
0.000289443
0.000310222
0.000323834
0.000332096
0.000335568
0.000334491
0.000329216
0.000320396
0.00030825
0.000293109
0.000275374
0.000255466
0.000233809
0.000210832
0.000187012
0.000163141
0.000140496
0.000121207
0.000107254
9.85369e-05
9.4765e-05
9.53935e-05
9.95137e-05
0.000105843
0.000112795
0.000118651
0.000121981
0.000121385
0.000115968
0.000104485
8.92523e-05
5.36044e-05
0.000139214
0.000209927
0.000261461
0.000294434
0.000315486
0.000329339
0.000337798
0.000341405
0.000340391
0.000335091
0.000326257
0.000314128
0.000299036
0.000281371
0.000261538
0.000239935
0.000216955
0.000193026
0.00016887
0.000145679
0.000125503
0.000110624
0.000101068
9.66603e-05
9.69577e-05
0.000101088
0.000107719
0.000115142
0.000121505
0.000125262
0.000124774
0.000119107
0.000106904
9.07067e-05
5.55125e-05
0.000142164
0.000213696
0.000265813
0.000299098
0.000320406
0.000334497
0.000343156
0.000346913
0.000345995
0.000340739
0.000331889
0.000319798
0.000304791
0.00028724
0.000267529
0.000246034
0.000223114
0.000199148
0.000174792
0.000151151
0.000130185
0.000114417
0.000104011
9.89111e-05
9.87906e-05
0.000102839
0.000109696
0.000117551
0.000124432
0.000128544
0.00012813
0.000122194
0.000109249
9.20623e-05
5.7441e-05
0.00014512
0.000217467
0.000270105
0.000303667
0.000325214
0.000339532
0.000348384
0.000352286
0.000351457
0.000346243
0.000337398
0.000325376
0.000310482
0.000293074
0.00027352
0.000252171
0.000229358
0.000205413
0.000180932
0.00015693
0.000135271
0.000118655
0.000107395
0.000101552
0.000100927
0.000104797
0.000111797
0.000120028
0.000127396
0.000131817
0.000131445
0.00012522
0.000111516
9.33231e-05
5.93337e-05
0.000147944
0.000221079
0.000274123
0.000307925
0.000329698
0.000344242
0.000353292
0.000357349
0.000356629
0.000351483
0.000342674
0.000330747
0.000315996
0.000298764
0.000279401
0.00025824
0.000235582
0.00021172
0.000187192
0.000162931
0.000140702
0.000123306
0.000111218
0.000104605
0.000103406
0.000107004
0.000114057
0.000122596
0.000130399
0.00013508
0.000134717
0.000128179
0.000113703
9.44906e-05
6.12149e-05
0.000150697
0.000224571
0.000278019
0.000312052
0.000334039
0.000348796
0.000358036
0.000362243
0.000361632
0.000356559
0.000347801
0.000335989
0.000321402
0.000304368
0.000285223
0.000264279
0.000241813
0.000218083
0.000193574
0.00016914
0.000146452
0.000128351
0.000115474
0.000108081
0.000106246
0.000109481
0.000116492
0.000125258
0.000133432
0.000138324
0.000137938
0.000131069
0.000115809
9.55712e-05
6.30541e-05
0.000153321
0.000227874
0.000281663
0.000315891
0.000338079
0.000353047
0.000362478
0.000366839
0.000366344
0.000361362
0.000352689
0.000341022
0.000326626
0.000309817
0.000290916
0.000270219
0.000247982
0.000224429
0.000199998
0.000175476
0.00015244
0.000133728
0.000120128
0.000111971
0.000109465
0.000112258
0.00011913
0.00012803
0.000136499
0.000141546
0.000141104
0.000133885
0.000117835
9.65685e-05
6.48851e-05
0.000155887
0.000231069
0.000285164
0.000319571
0.000341951
0.000357123
0.000366743
0.00037126
0.000370886
0.000365999
0.000357412
0.0003459
0.000331719
0.000315155
0.00029652
0.000276093
0.000254111
0.000230771
0.000206467
0.000181924
0.000158634
0.000139403
0.000125148
0.000116256
0.000113056
0.000115338
0.000121977
0.000130917
0.000139596
0.000144744
0.000144212
0.000136625
0.000119781
9.74896e-05
6.66723e-05
0.000158325
0.000234061
0.000288416
0.000322979
0.000345538
0.000360908
0.000370715
0.000375391
0.000375147
0.000370375
0.000361905
0.000350566
0.000336605
0.000320314
0.000301971
0.000281842
0.000260144
0.00023705
0.00021292
0.000188421
0.000164968
0.000145318
0.000130491
0.000120913
0.000117014
0.000118731
0.00012505
0.000133931
0.000142733
0.000147916
0.000147258
0.000139287
0.000121649
9.83386e-05
6.8435e-05
0.000160681
0.000236928
0.000291511
0.000326212
0.000348939
0.0003645
0.000374488
0.000379322
0.00037921
0.000374559
0.000366221
0.000355074
0.000341354
0.000325336
0.000307301
0.000287487
0.000266095
0.000243275
0.000219357
0.000194956
0.000171418
0.000151443
0.000136124
0.000125909
0.00012132
0.00012243
0.000128349
0.000137077
0.000145913
0.000151068
0.000150247
0.000141875
0.000123442
9.91217e-05
7.01559e-05
0.000162917
0.000239608
0.000294374
0.000329189
0.000352072
0.000367817
0.000377984
0.000382974
0.000383001
0.000378484
0.000370301
0.000359367
0.000345907
0.000330185
0.000312467
0.000292989
0.000271925
0.000249407
0.000225736
0.000201485
0.000177937
0.000157735
0.00014201
0.000131218
0.000125958
0.000126432
0.00013188
0.000140363
0.000149141
0.0001542
0.000153178
0.000144387
0.000125162
9.98431e-05
7.18374e-05
0.000165053
0.000242143
0.000297064
0.000331977
0.000355004
0.000370925
0.000381264
0.00038641
0.000386575
0.0003822
0.000374185
0.000363478
0.000350291
0.000334878
0.000317492
0.000298354
0.000277638
0.000255443
0.00023205
0.000207995
0.000184505
0.000164168
0.000148119
0.000136812
0.000130907
0.000130725
0.000135642
0.000143794
0.000152424
0.000157321
0.000156057
0.00014683
0.000126815
0.00010051
7.34655e-05
0.000167066
0.000244496
0.000299532
0.000334522
0.000357682
0.00037377
0.000384277
0.000389577
0.000389885
0.000385662
0.000377834
0.00036737
0.000354473
0.000339384
0.000322343
0.000303561
0.000283199
0.000261354
0.000238267
0.000214449
0.000191083
0.000170704
0.000154417
0.000142661
0.000136145
0.000135299
0.000139631
0.000147372
0.000155767
0.000160434
0.000158889
0.000149207
0.000128405
0.000101127
7.50472e-05
0.000168977
0.000246702
0.000301823
0.000336872
0.000360151
0.000376397
0.000387066
0.000392516
0.000392968
0.000388902
0.000381275
0.000371067
0.000358469
0.000343714
0.00032703
0.000308616
0.00028862
0.000267126
0.000244376
0.000220836
0.000197654
0.000177319
0.000160874
0.000148737
0.000141648
0.000140137
0.000143843
0.000151098
0.000159174
0.000163546
0.00016168
0.000151525
0.000129939
0.000101701
7.65708e-05
0.000170766
0.000248731
0.000303901
0.00033899
0.000362376
0.000378771
0.000389596
0.000395194
0.000395792
0.000391893
0.000384484
0.000374545
0.00036226
0.000347851
0.000331535
0.000313501
0.000293885
0.000272762
0.00025036
0.000227135
0.000204193
0.000183987
0.000167462
0.00015501
0.000147393
0.000145222
0.000148266
0.000154969
0.000162648
0.000166661
0.000164436
0.000153792
0.000131423
0.000102239
7.80443e-05
0.000172454
0.000250614
0.000305802
0.000340911
0.000364391
0.000380925
0.000391898
0.000397639
0.000398383
0.000394655
0.000387477
0.000377818
0.000365855
0.000351799
0.000335859
0.000318213
0.000298988
0.000278251
0.00025622
0.000233338
0.000210688
0.000190689
0.000174159
0.000161458
0.000153357
0.000150539
0.000152894
0.000158986
0.000166194
0.000169789
0.000167168
0.000156014
0.000132866
0.000102748
7.94574e-05
0.00017402
0.000252324
0.000307497
0.000342609
0.000366171
0.000382835
0.000393951
0.000399833
0.000400723
0.000397175
0.000390242
0.000380876
0.000369245
0.000355551
0.000339995
0.000322745
0.00030392
0.00028358
0.000261938
0.000239428
0.000217126
0.000197408
0.000180947
0.000168062
0.000159523
0.000156073
0.000157716
0.000163143
0.000169812
0.000172935
0.000169882
0.000158203
0.000134276
0.000103235
8.08179e-05
0.000175484
0.00025389
0.000309018
0.000344113
0.000367744
0.000384528
0.000395778
0.000401795
0.000402831
0.000399467
0.000392792
0.000383727
0.000372435
0.000359109
0.000343941
0.000327093
0.000308676
0.000288745
0.000267507
0.000245395
0.000223478
0.000204119
0.000187799
0.000174798
0.000165874
0.000161816
0.000162737
0.000167466
0.000173516
0.000176109
0.000172589
0.000160368
0.000135663
0.000103708
8.21198e-05
0.000176836
0.000255294
0.000310346
0.000345407
0.000369094
0.000385989
0.000397368
0.000403517
0.0004047
0.000401527
0.000395122
0.000386369
0.000375422
0.00036247
0.000347695
0.000331252
0.000313247
0.000293732
0.000272915
0.000251229
0.000229746
0.00021081
0.000194698
0.000181645
0.000172391
0.000167755
0.00016795
0.000171948
0.000177317
0.000179325
0.000175304
0.000162523
0.000137039
0.000104175
8.33666e-05
0.000178086
0.000256555
0.000311502
0.000346511
0.000370242
0.000387237
0.000398736
0.000405012
0.000406342
0.000403365
0.000397242
0.000388809
0.000378214
0.000365639
0.00035126
0.000335225
0.000317636
0.000298543
0.000278157
0.00025692
0.000235915
0.000217456
0.000201614
0.000188575
0.000179048
0.000173873
0.000173348
0.000176585
0.000181218
0.000182594
0.000178038
0.000164679
0.000138412
0.000104645
8.45564e-05
0.00017923
0.000257665
0.000312477
0.000347417
0.00037118
0.000388267
0.000399879
0.000406277
0.000407753
0.000404978
0.00039915
0.000391046
0.000380809
0.000368614
0.000354633
0.000339008
0.000321837
0.000303172
0.000283229
0.000262466
0.000241986
0.00022405
0.00020853
0.000195565
0.000185824
0.000180152
0.000178922
0.000181377
0.000185229
0.000185928
0.000180806
0.000166849
0.000139794
0.000105124
8.56927e-05
0.000180277
0.000258636
0.000313287
0.00034814
0.000371922
0.00038909
0.000400807
0.000407324
0.000408945
0.000406377
0.000400853
0.000393085
0.000383211
0.0003714
0.000357819
0.000342604
0.000325854
0.000307622
0.000288135
0.000267871
0.000247971
0.000230587
0.000215432
0.000202594
0.000192698
0.000186577
0.000184665
0.000186329
0.000189361
0.000189341
0.000183622
0.000169048
0.000141196
0.00010562
8.67759e-05
0.000181224
0.000259465
0.000313926
0.000348676
0.000372465
0.000389704
0.000401519
0.000408149
0.000409914
0.000407559
0.000402351
0.000394927
0.000385419
0.000373994
0.000360812
0.000346009
0.000329681
0.000311887
0.000292871
0.000273137
0.000253873
0.000237063
0.000222306
0.000209646
0.000199653
0.000193135
0.000190568
0.000191437
0.000193622
0.000192848
0.000186501
0.00017129
0.000142627
0.000106139
8.78123e-05
0.00018208
0.000260164
0.000314408
0.000349038
0.000372821
0.000390122
0.000402028
0.000408765
0.000410675
0.000408537
0.000403654
0.00039658
0.000387442
0.000376404
0.000363621
0.000349227
0.000333321
0.000315969
0.000297434
0.000278256
0.00025968
0.000243463
0.000229133
0.000216691
0.000206652
0.000199792
0.000196604
0.000196684
0.000198006
0.000196454
0.000189456
0.000173585
0.000144097
0.000106683
8.88053e-05
0.000182846
0.000260732
0.000314733
0.000349226
0.000372992
0.000390345
0.000402333
0.000409174
0.000411228
0.000409313
0.000404766
0.000398046
0.000389281
0.000378629
0.000366243
0.000352257
0.00033677
0.000319861
0.000301814
0.000283213
0.000265363
0.000249759
0.000235885
0.000223705
0.000213679
0.000206533
0.000202768
0.000202073
0.000202525
0.000200173
0.0001925
0.000175947
0.000145613
0.000107254
8.97606e-05
0.000183533
0.000261183
0.000314913
0.000349253
0.00037299
0.000390386
0.00040245
0.00040939
0.000411589
0.000409903
0.000405699
0.00039934
0.00039095
0.000380684
0.000368694
0.000355111
0.00034004
0.000323572
0.000306016
0.000288003
0.000270907
0.000255933
0.00024254
0.000230658
0.000220691
0.000213312
0.000209023
0.000207587
0.000207175
0.00020401
0.000195642
0.000178385
0.000147181
0.000107855
9.06798e-05
0.00018414
0.000261515
0.000314949
0.00034912
0.000372815
0.000390245
0.000402378
0.000409415
0.000411762
0.00041031
0.000406459
0.000400465
0.000392451
0.00038257
0.000370972
0.000357789
0.000343131
0.000327101
0.000310038
0.000292622
0.000276298
0.000261969
0.000249078
0.000237528
0.00022767
0.000220121
0.000215361
0.000213223
0.000211956
0.00020797
0.000198891
0.000180907
0.000148807
0.000108486
9.15695e-05
0.000184677
0.000261741
0.000314853
0.000348839
0.000372481
0.000389935
0.000402132
0.000409264
0.000411763
0.000410556
0.000407064
0.000401437
0.000393799
0.000384302
0.000373095
0.000360308
0.000346059
0.000330465
0.000313893
0.000297081
0.00028154
0.000267864
0.000255489
0.000244295
0.000234586
0.000226917
0.000221739
0.000218952
0.000216857
0.000212054
0.000202253
0.00018352
0.000150495
0.000109149
9.24304e-05
0.000185143
0.000261858
0.000314625
0.000348409
0.000371986
0.000389454
0.000401707
0.000408934
0.000411596
0.00041065
0.000407518
0.000402255
0.00039499
0.000385876
0.000375058
0.000362668
0.000348826
0.000333666
0.000317589
0.000301388
0.000286637
0.000273618
0.000261768
0.00025095
0.000241422
0.000233685
0.000228152
0.000224763
0.000221866
0.000216255
0.000205725
0.000186224
0.000152246
0.000109846
9.3267e-05
0.000185544
0.000261878
0.000314274
0.000347841
0.00037134
0.000388812
0.000401113
0.000408435
0.000411276
0.000410639
0.000407838
0.000402926
0.000396032
0.0003873
0.000376872
0.000364878
0.000351446
0.000336722
0.000321145
0.000305567
0.000291605
0.000279241
0.000267918
0.000257488
0.00024817
0.000240407
0.00023457
0.000230624
0.000226967
0.000220567
0.000209307
0.000189022
0.000154062
0.000110574
9.40801e-05
0.00018588
0.000261797
0.000313798
0.000347133
0.000370542
0.000388007
0.000400344
0.000407751
0.000410766
0.000410441
0.000407978
0.000403426
0.000396908
0.000388564
0.000378531
0.000366938
0.000353918
0.000339639
0.000324573
0.000309638
0.000296459
0.000284742
0.000273944
0.000263908
0.000254818
0.000247063
0.000240975
0.000236537
0.000232149
0.000224978
0.000212992
0.000191907
0.000155938
0.00011133
9.48753e-05
0.00018616
0.000261626
0.000313211
0.000346298
0.000369607
0.000387055
0.000399419
0.000406905
0.000410092
0.000410084
0.000407962
0.000403774
0.000397636
0.000389683
0.000380048
0.000368861
0.000356262
0.000342439
0.000327904
0.000313647
0.000301229
0.000290143
0.000279861
0.000270218
0.000261369
0.000253651
0.000247354
0.000242476
0.000237397
0.000229481
0.000216775
0.000194881
0.000157875
0.000112114
9.56518e-05
0.000186378
0.00026136
0.000312506
0.000345332
0.00036853
0.000385951
0.000398336
0.000405896
0.000409259
0.000409575
0.000407798
0.000403974
0.000398217
0.000390656
0.000381422
0.000370647
0.00035848
0.00034513
0.000331157
0.000317624
0.000305942
0.000295465
0.00028568
0.000276423
0.000267819
0.00026016
0.000253692
0.000248424
0.0002427
0.000234059
0.00022064
0.000197927
0.000159863
0.00011292
9.64135e-05
0.000186544
0.000261011
0.000311698
0.00034425
0.000367327
0.000384712
0.000397107
0.000404736
0.000408272
0.000408916
0.000407488
0.000404031
0.000398656
0.000391489
0.000382659
0.000372302
0.000360577
0.00034772
0.00033434
0.000321579
0.000310611
0.000300724
0.000291422
0.000282538
0.000274178
0.00026659
0.000259981
0.000254365
0.000248038
0.000238708
0.000224585
0.000201047
0.000161901
0.000113746
9.71559e-05
0.000186651
0.000260571
0.000310778
0.000343044
0.000365991
0.000383333
0.000395733
0.000403428
0.000407143
0.000408122
0.000407044
0.000403954
0.000398961
0.000392187
0.000383761
0.000373824
0.000362549
0.000350199
0.000337438
0.000325484
0.000315222
0.000305916
0.000297089
0.000288575
0.000280458
0.000272952
0.000266226
0.0002603
0.000253406
0.000243413
0.0002286
0.00020423
0.000163983
0.00011459
9.78825e-05
0.000186707
0.000260053
0.00030976
0.000341728
0.000364536
0.000381827
0.000394225
0.000401984
0.000405879
0.000407199
0.000406477
0.000403756
0.000399143
0.000392762
0.00038474
0.000375225
0.000364404
0.000352571
0.000340448
0.000329322
0.000319762
0.000311032
0.000302673
0.000294524
0.000286649
0.00027923
0.000272407
0.00026621
0.000258788
0.000248163
0.000232672
0.000207464
0.000166097
0.000115453
9.85899e-05
0.000186706
0.000259447
0.000308636
0.000340293
0.000362954
0.000380186
0.000392578
0.000400402
0.000404483
0.000406151
0.000405787
0.000403435
0.000399204
0.000393214
0.000385597
0.000376506
0.000366144
0.00035484
0.000343372
0.000333085
0.000324225
0.000316067
0.000308174
0.000300387
0.000292756
0.000285428
0.000278519
0.000272083
0.000264165
0.000252936
0.000236781
0.000210737
0.000168251
0.000116334
9.9282e-05
0.000186658
0.000258765
0.000307416
0.00033875
0.000361254
0.000378422
0.000390804
0.000398694
0.000402968
0.000404993
0.000404989
0.000403008
0.000399157
0.000393559
0.000386347
0.000377681
0.000367783
0.000357017
0.000346223
0.000336776
0.000328608
0.000321017
0.000313587
0.000306164
0.000298781
0.000291558
0.000284586
0.000277938
0.000269551
0.00025774
0.000240934
0.000214055
0.000170443
0.000117232
9.99596e-05
0.000186558
0.000258001
0.000306091
0.000337088
0.000359427
0.000376524
0.000388894
0.000396856
0.000401333
0.000403719
0.000404077
0.000402466
0.000398998
0.000393794
0.000386992
0.000378758
0.000369335
0.000359125
0.000349029
0.00034041
0.00033292
0.000325884
0.000318907
0.00031184
0.0003047
0.00029758
0.000290551
0.00028373
0.000274915
0.000262553
0.000245111
0.000217401
0.000172662
0.000118143
0.000100626
0.000186415
0.000257163
0.000304672
0.00033532
0.000357484
0.000374502
0.000386861
0.000394909
0.000399609
0.000402351
0.000403063
0.000401819
0.000398732
0.000393926
0.000387539
0.000379747
0.000370814
0.000361184
0.000351825
0.000344009
0.000337175
0.000330678
0.000324144
0.000317428
0.000310537
0.000303545
0.000296533
0.000289504
0.000280269
0.000267376
0.000249315
0.000220778
0.000174908