/*--------------------------------*- C++ -*----------------------------------*\
| =========                 |                                                 |
| \\      /  F ield         | OpenFOAM: The Open Source CFD Toolbox           |
|  \\    /   O peration     | Version:  v2006                                 |
|   \\  /    A nd           | Website:  www.openfoam.com                      |
|    \\/     M anipulation  |                                                 |
\*---------------------------------------------------------------------------*/
FoamFile
{
    version     2.0;
    format      ascii;
    class       volScalarField;
    location    "71";
    object      nut;
}
// * * * * * * * * * * * * * * * * * * * * * * * * * * * * * * * * * * * * * //

dimensions      [0 2 -1 0 0 0 0];


internalField   nonuniform List<scalar> 
78750
(
6.04421e-09
4.28038e-07
6.66028e-07
8.91411e-07
1.10415e-06
1.30004e-06
1.47801e-06
1.63827e-06
1.78112e-06
1.90683e-06
2.01567e-06
2.10799e-06
2.1842e-06
2.24473e-06
2.28949e-06
2.31851e-06
2.33239e-06
2.33168e-06
2.31682e-06
2.28813e-06
2.24617e-06
2.19006e-06
2.1194e-06
2.03401e-06
1.93336e-06
1.81673e-06
1.68335e-06
1.53242e-06
1.36242e-06
1.17244e-06
9.61131e-07
7.29432e-07
4.91874e-07
2.84459e-07
5.65046e-09
2.63924e-09
1.50727e-06
3.743e-06
6.61406e-06
9.60249e-06
1.16349e-05
1.27121e-05
1.33945e-05
1.39804e-05
1.45693e-05
1.52015e-05
1.59013e-05
1.66866e-05
1.75394e-05
1.80946e-05
1.79936e-05
1.78082e-05
1.75491e-05
1.72259e-05
1.68469e-05
1.64193e-05
1.59458e-05
1.54283e-05
1.48673e-05
1.42601e-05
1.36007e-05
1.28811e-05
1.20951e-05
1.02821e-05
8.16262e-06
5.93286e-06
3.9793e-06
2.95599e-06
1.99953e-06
2.30737e-08
3.87702e-09
1.87611e-06
3.9995e-06
6.64665e-06
9.87413e-06
1.34645e-05
1.67977e-05
1.92099e-05
2.03469e-05
2.10132e-05
2.14005e-05
2.13905e-05
2.12829e-05
2.11262e-05
2.09186e-05
2.06411e-05
2.02804e-05
1.98405e-05
1.93314e-05
1.8761e-05
1.81359e-05
1.74713e-05
1.67795e-05
1.60515e-05
1.52684e-05
1.44011e-05
1.33889e-05
1.21342e-05
1.05266e-05
8.52621e-06
6.41448e-06
4.93905e-06
4.93532e-06
2.13724e-06
3.82589e-08
7.36388e-09
1.77243e-06
3.95865e-06
6.96377e-06
1.08608e-05
1.52048e-05
1.90658e-05
2.17555e-05
2.32205e-05
2.3733e-05
2.35858e-05
2.30183e-05
2.2211e-05
2.12801e-05
2.02943e-05
1.92936e-05
1.83013e-05
1.73323e-05
1.63987e-05
1.55141e-05
1.46972e-05
1.39711e-05
1.33564e-05
1.28565e-05
1.24435e-05
1.20467e-05
1.15388e-05
1.07432e-05
9.50704e-06
7.87633e-06
6.29606e-06
5.56476e-06
6.67631e-06
1.97866e-06
4.90791e-08
1.10044e-08
1.80565e-06
4.19468e-06
7.78226e-06
1.27171e-05
1.81914e-05
2.27385e-05
2.50964e-05
2.57943e-05
2.62167e-05
2.59541e-05
2.4554e-05
2.29211e-05
2.12763e-05
1.97128e-05
1.82711e-05
1.69574e-05
1.57602e-05
1.46633e-05
1.36566e-05
1.27448e-05
1.19494e-05
1.12961e-05
1.07975e-05
1.04407e-05
1.01666e-05
9.84552e-06
9.28881e-06
8.35682e-06
7.15585e-06
6.15299e-06
6.13417e-06
7.60293e-06
1.85913e-06
5.67414e-08
1.50683e-08
1.84119e-06
4.4155e-06
8.56466e-06
1.45378e-05
2.09873e-05
2.57718e-05
2.722e-05
2.78611e-05
2.79133e-05
2.62112e-05
2.40998e-05
2.19552e-05
1.99564e-05
1.8183e-05
1.66464e-05
1.53221e-05
1.41719e-05
1.31577e-05
1.22517e-05
1.14451e-05
1.07475e-05
1.01686e-05
9.70623e-06
9.34438e-06
9.03644e-06
8.68302e-06
8.14972e-06
7.37074e-06
6.49883e-06
5.97115e-06
6.55585e-06
7.69832e-06
1.77863e-06
6.21802e-08
1.87755e-08
1.88156e-06
4.59539e-06
9.15988e-06
1.58864e-05
2.29059e-05
2.76702e-05
2.90212e-05
2.96192e-05
2.82299e-05
2.59093e-05
2.33281e-05
2.08493e-05
1.86524e-05
1.67874e-05
1.52317e-05
1.39335e-05
1.28359e-05
1.18906e-05
1.10657e-05
1.03542e-05
9.76571e-06
9.29089e-06
8.90148e-06
8.56401e-06
8.23105e-06
7.83164e-06
7.29458e-06
6.62657e-06
6.004e-06
5.82942e-06
6.85974e-06
7.33009e-06
1.71643e-06
6.6679e-08
2.21494e-08
1.91828e-06
4.72407e-06
9.57059e-06
1.68472e-05
2.42789e-05
2.89818e-05
3.0676e-05
3.01592e-05
2.81424e-05
2.5396e-05
2.25207e-05
1.98786e-05
1.76167e-05
1.57458e-05
1.42171e-05
1.2967e-05
1.1935e-05
1.1071e-05
1.03442e-05
9.74668e-06
9.27405e-06
8.8872e-06
8.53416e-06
8.16972e-06
7.75517e-06
7.25719e-06
6.66793e-06
6.05058e-06
5.58803e-06
5.64966e-06
6.97547e-06
6.91178e-06
1.67354e-06
7.10837e-08
2.51994e-08
1.94516e-06
4.79992e-06
9.81101e-06
1.74202e-05
2.50521e-05
2.96252e-05
3.10594e-05
3.01963e-05
2.78736e-05
2.48913e-05
2.18674e-05
1.91495e-05
1.68563e-05
1.49749e-05
1.34441e-05
1.21966e-05
1.11748e-05
1.03369e-05
9.66294e-06
9.15782e-06
8.81027e-06
8.55261e-06
8.29841e-06
7.97046e-06
7.52123e-06
6.94709e-06
6.29829e-06
5.68881e-06
5.3115e-06
5.51668e-06
7.02419e-06
6.52601e-06
1.64159e-06
7.58827e-08
2.81037e-08
1.9681e-06
4.85454e-06
9.97852e-06
1.78303e-05
2.56169e-05
3.01e-05
3.13195e-05
3.02089e-05
2.7666e-05
2.45312e-05
2.1427e-05
1.86798e-05
1.63825e-05
1.45049e-05
1.29773e-05
1.17307e-05
1.071e-05
9.87755e-06
9.2229e-06
8.76266e-06
8.48297e-06
8.30423e-06
8.12054e-06
7.82856e-06
7.3646e-06
6.73925e-06
6.04392e-06
5.43011e-06
5.10028e-06
5.39542e-06
7.02083e-06
6.21671e-06
1.61965e-06
8.09959e-08
3.09755e-08
1.98633e-06
4.89194e-06
1.00955e-05
1.81178e-05
2.59776e-05
3.03442e-05
3.138e-05
3.00875e-05
2.74028e-05
2.41836e-05
2.10443e-05
1.82904e-05
1.59954e-05
1.41175e-05
1.25834e-05
1.1325e-05
1.02909e-05
9.45047e-06
8.80288e-06
8.37636e-06
8.15579e-06
8.05402e-06
7.95013e-06
7.71682e-06
7.27035e-06
6.62432e-06
5.89906e-06
5.27735e-06
4.97442e-06
5.3321e-06
7.04628e-06
5.95887e-06
1.60452e-06
8.62926e-08
3.39178e-08
2.00446e-06
4.931e-06
1.0215e-05
1.83971e-05
2.63153e-05
3.05721e-05
3.14432e-05
2.99939e-05
2.7197e-05
2.39232e-05
2.07743e-05
1.80325e-05
1.57525e-05
1.38828e-05
1.23464e-05
1.10758e-05
1.00226e-05
9.16082e-06
8.4976e-06
8.07153e-06
7.86926e-06
7.80364e-06
7.74927e-06
7.56481e-06
7.14923e-06
6.51047e-06
5.782e-06
5.1661e-06
4.88955e-06
5.30225e-06
7.09767e-06
5.75219e-06
1.59571e-06
9.15715e-08
3.69204e-08
2.02111e-06
4.96747e-06
1.03274e-05
1.8649e-05
2.65897e-05
3.07182e-05
3.14284e-05
2.98405e-05
2.69563e-05
2.36511e-05
2.05086e-05
1.77878e-05
1.55268e-05
1.36666e-05
1.21289e-05
1.08478e-05
9.77774e-06
8.89709e-06
8.21956e-06
7.79236e-06
7.60282e-06
7.56314e-06
7.54704e-06
7.40633e-06
7.02793e-06
6.41298e-06
5.6995e-06
5.10103e-06
4.85505e-06
5.32435e-06
7.1992e-06
5.57912e-06
1.59166e-06
9.67388e-08
4.00587e-08
2.03952e-06
5.01152e-06
1.04593e-05
1.89275e-05
2.68775e-05
3.08688e-05
3.14212e-05
2.97072e-05
2.67551e-05
2.34387e-05
2.03187e-05
1.76293e-05
1.53931e-05
1.35448e-05
1.20054e-05
1.07108e-05
9.61866e-06
8.71129e-06
8.00758e-06
7.56199e-06
7.36516e-06
7.33009e-06
7.33109e-06
7.21875e-06
6.87555e-06
6.29592e-06
5.61514e-06
5.04927e-06
4.84323e-06
5.37549e-06
7.33183e-06
5.44093e-06
1.59212e-06
1.01736e-07
4.32224e-08
2.05698e-06
5.05445e-06
1.05877e-05
1.91897e-05
2.71303e-05
3.09799e-05
3.13805e-05
2.95522e-05
2.65455e-05
2.32287e-05
2.01379e-05
1.74834e-05
1.52738e-05
1.34388e-05
1.18993e-05
1.05934e-05
9.48165e-06
8.54987e-06
7.82155e-06
7.35737e-06
7.15063e-06
7.11501e-06
7.12639e-06
7.03579e-06
6.72395e-06
6.1828e-06
5.54356e-06
5.01984e-06
4.86136e-06
5.46366e-06
7.49903e-06
5.32595e-06
1.5958e-06
1.06558e-07
4.65224e-08
2.07641e-06
5.10428e-06
1.07333e-05
1.94754e-05
2.73943e-05
3.10952e-05
3.13497e-05
2.94223e-05
2.63798e-05
2.30785e-05
2.00269e-05
1.74119e-05
1.52301e-05
1.34075e-05
1.18653e-05
1.0544e-05
9.40727e-06
8.44445e-06
7.68268e-06
7.18764e-06
6.95811e-06
6.90868e-06
6.91779e-06
6.8399e-06
6.55717e-06
6.05842e-06
5.46822e-06
4.99489e-06
4.8913e-06
5.57022e-06
7.68291e-06
5.23768e-06
1.60281e-06
1.11227e-07
4.97999e-08
2.09479e-06
5.15238e-06
1.08738e-05
1.97448e-05
2.7633e-05
3.11906e-05
3.13096e-05
2.9294e-05
2.62243e-05
2.29431e-05
1.99322e-05
1.73573e-05
1.52042e-05
1.33953e-05
1.18523e-05
1.05171e-05
9.35617e-06
8.36277e-06
7.5672e-06
7.03969e-06
6.78507e-06
6.71877e-06
6.72162e-06
6.65222e-06
6.39601e-06
5.94022e-06
5.40226e-06
4.98358e-06
4.93964e-06
5.70047e-06
7.88318e-06
5.16593e-06
1.61185e-06
1.15756e-07
5.32057e-08
2.11486e-06
5.20577e-06
1.10274e-05
2.0032e-05
2.78808e-05
3.12937e-05
3.12867e-05
2.9199e-05
2.61178e-05
2.28672e-05
1.99018e-05
1.73681e-05
1.52431e-05
1.34467e-05
1.19005e-05
1.05478e-05
9.35814e-06
8.32794e-06
7.49024e-06
6.91864e-06
6.6277e-06
6.53452e-06
6.52301e-06
6.45689e-06
6.22565e-06
5.81465e-06
5.3328e-06
4.97322e-06
4.99329e-06
5.84021e-06
8.08801e-06
5.11389e-06
1.62317e-06
1.20182e-07
5.65646e-08
2.13384e-06
5.2575e-06
1.11773e-05
2.03078e-05
2.81133e-05
3.13896e-05
3.12669e-05
2.91148e-05
2.6026e-05
2.28064e-05
1.98856e-05
1.73931e-05
1.52977e-05
1.35164e-05
1.197e-05
1.06025e-05
9.3855e-06
8.31826e-06
7.43713e-06
6.81856e-06
6.48779e-06
6.36417e-06
6.33491e-06
6.26927e-06
6.06124e-06
5.69463e-06
5.26981e-06
4.97135e-06
5.05856e-06
5.99544e-06
8.29922e-06
5.07415e-06
1.63586e-06
1.24502e-07
6.00475e-08
2.15416e-06
5.31349e-06
1.13385e-05
2.05997e-05
2.83566e-05
3.14984e-05
3.12707e-05
2.90683e-05
2.59827e-05
2.27994e-05
1.99245e-05
1.74726e-05
1.54059e-05
1.36389e-05
1.20913e-05
1.07075e-05
9.46e-06
8.35056e-06
7.41827e-06
6.74216e-06
6.36131e-06
6.1985e-06
6.14496e-06
6.07602e-06
5.89013e-06
5.56868e-06
5.20247e-06
4.967e-06
5.12347e-06
6.15229e-06
8.50602e-06
5.04715e-06
1.64976e-06
1.28743e-07
6.34777e-08
2.17339e-06
5.36827e-06
1.14989e-05
2.08878e-05
2.85945e-05
3.1609e-05
3.12832e-05
2.90335e-05
2.59507e-05
2.28016e-05
1.99713e-05
1.75607e-05
1.55256e-05
1.37772e-05
1.22332e-05
1.08371e-05
9.56173e-06
8.41045e-06
7.4253e-06
6.68847e-06
6.25321e-06
6.04684e-06
5.96512e-06
5.88981e-06
5.72403e-06
5.44673e-06
5.13908e-06
4.96769e-06
5.19593e-06
6.32007e-06
8.71534e-06
5.03003e-06
1.66479e-06
1.32895e-07
6.703e-08
2.19356e-06
5.42644e-06
1.16701e-05
2.11938e-05
2.88483e-05
3.1739e-05
3.13237e-05
2.90356e-05
2.59608e-05
2.28475e-05
2.00615e-05
1.76916e-05
1.56879e-05
1.39584e-05
1.24188e-05
1.10105e-05
9.70591e-06
8.50942e-06
7.46552e-06
6.65935e-06
6.16056e-06
5.90285e-06
5.78698e-06
5.7014e-06
5.55369e-06
5.31967e-06
5.07036e-06
4.96322e-06
5.26381e-06
6.48378e-06
8.91502e-06
5.02025e-06
1.68019e-06
1.36967e-07
7.05295e-08
2.21247e-06
5.48319e-06
1.18418e-05
2.15023e-05
2.91081e-05
3.18806e-05
3.13758e-05
2.90455e-05
2.59744e-05
2.28943e-05
2.01527e-05
1.78262e-05
1.58584e-05
1.41536e-05
1.26245e-05
1.12097e-05
9.87981e-06
8.63956e-06
7.53581e-06
6.65724e-06
6.08983e-06
5.77557e-06
5.62091e-06
5.52124e-06
5.38858e-06
5.19574e-06
5.00366e-06
4.9609e-06
5.33551e-06
6.65394e-06
9.11386e-06
5.01748e-06
1.69634e-06
1.40947e-07
7.41461e-08
2.23187e-06
5.54199e-06
1.20216e-05
2.18255e-05
2.93786e-05
3.20359e-05
3.14518e-05
2.90828e-05
2.60175e-05
2.29719e-05
2.02749e-05
1.79919e-05
1.60607e-05
1.43822e-05
1.28657e-05
1.14465e-05
1.00926e-05
8.80794e-06
7.64133e-06
6.68494e-06
6.04064e-06
5.66224e-06
5.46252e-06
5.3439e-06
5.22273e-06
5.0685e-06
4.93201e-06
4.95293e-06
5.40161e-06
6.81854e-06
9.30245e-06
5.01927e-06
1.7125e-06
1.44835e-07
7.77089e-08
2.25001e-06
5.5988e-06
1.21979e-05
2.21373e-05
2.96251e-05
3.21691e-05
3.15112e-05
2.91116e-05
2.60542e-05
2.30438e-05
2.03935e-05
1.81576e-05
1.62681e-05
1.46223e-05
1.31256e-05
1.17089e-05
1.03362e-05
9.01017e-06
7.78115e-06
6.74551e-06
6.01881e-06
5.57071e-06
5.3207e-06
5.17828e-06
5.06414e-06
4.94476e-06
4.8612e-06
4.94456e-06
5.46763e-06
6.98457e-06
9.48691e-06
5.02458e-06
1.72881e-06
1.48612e-07
8.13828e-08
2.26868e-06
5.65786e-06
1.23806e-05
2.24527e-05
2.98698e-05
3.23023e-05
3.15767e-05
2.9159e-05
2.6112e-05
2.31364e-05
2.05323e-05
1.83435e-05
1.64969e-05
1.4886e-05
1.34124e-05
1.20022e-05
1.06145e-05
9.24916e-06
7.95753e-06
6.84012e-06
6.02415e-06
5.49974e-06
5.19347e-06
5.02182e-06
4.90984e-06
4.82118e-06
4.78761e-06
4.9319e-06
5.52936e-06
7.14804e-06
9.66922e-06
5.03381e-06
1.74493e-06
1.52274e-07
8.5004e-08
2.28614e-06
5.71569e-06
1.25631e-05
2.27528e-05
3.00925e-05
3.24139e-05
3.16208e-05
2.91854e-05
2.61538e-05
2.32173e-05
2.06632e-05
1.85259e-05
1.67274e-05
1.51579e-05
1.37147e-05
1.23182e-05
1.09221e-05
9.52184e-06
8.16937e-06
6.96962e-06
6.06027e-06
5.45494e-06
5.08759e-06
4.88165e-06
4.76645e-06
4.70335e-06
4.71561e-06
4.91827e-06
5.58977e-06
7.31258e-06
9.84759e-06
5.0478e-06
1.76114e-06
1.55801e-07
8.87175e-08
2.30361e-06
5.77418e-06
1.27499e-05
2.30539e-05
3.03107e-05
3.25221e-05
3.16659e-05
2.92185e-05
2.62116e-05
2.33128e-05
2.08055e-05
1.87187e-05
1.69694e-05
1.5444e-05
1.40352e-05
1.26577e-05
1.12585e-05
9.82785e-06
8.41652e-06
7.13356e-06
6.12639e-06
5.43521e-06
5.00196e-06
4.75662e-06
4.63276e-06
4.58998e-06
4.64395e-06
4.90285e-06
5.64937e-06
7.48132e-06
1.00253e-05
5.06757e-06
1.77779e-06
1.59194e-07
9.23764e-08
2.32001e-06
5.83046e-06
1.29309e-05
2.33395e-05
3.05078e-05
3.26094e-05
3.16896e-05
2.92291e-05
2.62482e-05
2.339e-05
2.09342e-05
1.89036e-05
1.72094e-05
1.57341e-05
1.43665e-05
1.30153e-05
1.16201e-05
1.01646e-05
8.69755e-06
7.33183e-06
6.22469e-06
5.4443e-06
4.94124e-06
4.65185e-06
4.51388e-06
4.48576e-06
4.5767e-06
4.8892e-06
5.71116e-06
7.65523e-06
1.0202e-05
5.09046e-06
1.79465e-06
1.62428e-07
9.61123e-08
2.33662e-06
5.88786e-06
1.31159e-05
2.36268e-05
3.07006e-05
3.26921e-05
3.17106e-05
2.92394e-05
2.62863e-05
2.34697e-05
2.10659e-05
1.90917e-05
1.74534e-05
1.60307e-05
1.47081e-05
1.33885e-05
1.20037e-05
1.05294e-05
9.01081e-06
7.56354e-06
6.35469e-06
5.48194e-06
4.90524e-06
4.56715e-06
4.40958e-06
4.3904e-06
4.51348e-06
4.87664e-06
5.77353e-06
7.83105e-06
1.03765e-05
5.11632e-06
1.81162e-06
1.65496e-07
9.97922e-08
2.35239e-06
5.9435e-06
1.32959e-05
2.38992e-05
3.08737e-05
3.27551e-05
3.17111e-05
2.92282e-05
2.63034e-05
2.35317e-05
2.11836e-05
1.92696e-05
1.76918e-05
1.63266e-05
1.50549e-05
1.37736e-05
1.24061e-05
1.09195e-05
9.35402e-06
7.82752e-06
6.51715e-06
5.55018e-06
4.89693e-06
4.50612e-06
4.32381e-06
4.3079e-06
4.45811e-06
4.86871e-06
5.83974e-06
8.01177e-06
1.05492e-05
5.14397e-06
1.82855e-06
1.68382e-07
1.0353e-07
2.36854e-06
6.00065e-06
1.34797e-05
2.41722e-05
3.10415e-05
3.28115e-05
3.17051e-05
2.92112e-05
2.63156e-05
2.35909e-05
2.12984e-05
1.94442e-05
1.79273e-05
1.66216e-05
1.54045e-05
1.41668e-05
1.28231e-05
1.13311e-05
9.72451e-06
8.12226e-06
6.71138e-06
5.64856e-06
4.91591e-06
4.46846e-06
4.25632e-06
4.23786e-06
4.40975e-06
4.86375e-06
5.90719e-06
8.19348e-06
1.07181e-05
5.17311e-06
1.84532e-06
1.71086e-07
1.07212e-07
2.3842e-06
6.05685e-06
1.36593e-05
2.44313e-05
3.11907e-05
3.28486e-05
3.16784e-05
2.9172e-05
2.63059e-05
2.36344e-05
2.1399e-05
1.96062e-05
1.81536e-05
1.69118e-05
1.57541e-05
1.45654e-05
1.3252e-05
1.17611e-05
1.01192e-05
8.4456e-06
6.93692e-06
5.77771e-06
4.96363e-06
4.45621e-06
4.20958e-06
4.18314e-06
4.37167e-06
4.86611e-06
5.98229e-06
8.37958e-06
1.08841e-05
5.20308e-06
1.86181e-06
1.73603e-07
1.10933e-07
2.40039e-06
6.11534e-06
1.38419e-05
2.46887e-05
3.13327e-05
3.28768e-05
3.16422e-05
2.91228e-05
2.62854e-05
2.36656e-05
2.14879e-05
1.97584e-05
1.83719e-05
1.71961e-05
1.61009e-05
1.49657e-05
1.36882e-05
1.22052e-05
1.05348e-05
8.7953e-06
7.19254e-06
5.93675e-06
5.03944e-06
4.46892e-06
4.18338e-06
4.14369e-06
4.3438e-06
4.87502e-06
6.06217e-06
8.5683e-06
1.10472e-05
5.23425e-06
1.87803e-06
1.75941e-07
1.14585e-07
2.41612e-06
6.17414e-06
1.40197e-05
2.49324e-05
3.14566e-05
3.28867e-05
3.15873e-05
2.90547e-05
2.62464e-05
2.36799e-05
2.15626e-05
1.98987e-05
1.85809e-05
1.74738e-05
1.64442e-05
1.53663e-05
1.41296e-05
1.26603e-05
1.09675e-05
9.16785e-06
7.47589e-06
6.12454e-06
5.14319e-06
4.50722e-06
4.17898e-06
4.12127e-06
4.32812e-06
4.89231e-06
6.14812e-06
8.76106e-06
1.12079e-05
5.26628e-06
1.89394e-06
1.78103e-07
1.18214e-07
2.43128e-06
6.23143e-06
1.41964e-05
2.51721e-05
3.1573e-05
3.28859e-05
3.15195e-05
2.89731e-05
2.61945e-05
2.3682e-05
2.16258e-05
2.00284e-05
1.87802e-05
1.77433e-05
1.67814e-05
1.5764e-05
1.45725e-05
1.31224e-05
1.14135e-05
9.5598e-06
7.78389e-06
6.33872e-06
5.27318e-06
4.56998e-06
4.19568e-06
4.11545e-06
4.32426e-06
4.91724e-06
6.23876e-06
8.95617e-06
1.13669e-05
5.2996e-06
1.9096e-06
1.80101e-07
1.21763e-07
2.44574e-06
6.28752e-06
1.43713e-05
2.54034e-05
3.16755e-05
3.28706e-05
3.1437e-05
2.8876e-05
2.61247e-05
2.36647e-05
2.16721e-05
2.0145e-05
1.89693e-05
1.80045e-05
1.71122e-05
1.61577e-05
1.50147e-05
1.35882e-05
1.18685e-05
9.96647e-06
8.11212e-06
6.57626e-06
5.42773e-06
4.65662e-06
4.23387e-06
4.12732e-06
4.33361e-06
4.95121e-06
6.33513e-06
9.15397e-06
1.15235e-05
5.33386e-06
1.92498e-06
1.81942e-07
1.25295e-07
2.46001e-06
6.34374e-06
1.45477e-05
2.56309e-05
3.17691e-05
3.28446e-05
3.13427e-05
2.87675e-05
2.60459e-05
2.36402e-05
2.17095e-05
2.02498e-05
1.9147e-05
1.82561e-05
1.74349e-05
1.65453e-05
1.54539e-05
1.40554e-05
1.233e-05
1.0385e-05
8.45738e-06
6.83421e-06
5.60427e-06
4.76511e-06
4.29211e-06
4.15598e-06
4.35564e-06
4.99369e-06
6.4364e-06
9.35318e-06
1.16784e-05
5.36934e-06
1.94013e-06
1.8364e-07
1.28742e-07
2.47367e-06
6.39862e-06
1.47206e-05
2.5847e-05
3.18477e-05
3.28029e-05
3.1232e-05
2.86418e-05
2.59491e-05
2.35987e-05
2.17341e-05
2.03453e-05
1.93141e-05
1.84968e-05
1.77489e-05
1.69264e-05
1.5889e-05
1.45217e-05
1.27949e-05
1.0812e-05
8.81628e-06
7.11002e-06
5.80096e-06
4.89428e-06
4.36993e-06
4.20164e-06
4.39109e-06
5.04574e-06
6.54371e-06
9.55476e-06
1.18317e-05
5.40573e-06
1.95502e-06
1.85203e-07
1.32143e-07
2.48697e-06
6.45304e-06
1.48933e-05
2.60573e-05
3.19164e-05
3.27502e-05
3.11099e-05
2.85053e-05
2.58425e-05
2.35475e-05
2.17488e-05
2.04314e-05
1.94735e-05
1.87291e-05
1.80533e-05
1.72989e-05
1.63176e-05
1.49846e-05
1.32607e-05
1.12449e-05
9.18626e-06
7.40128e-06
6.01558e-06
5.04217e-06
4.46574e-06
4.26322e-06
4.43938e-06
5.10707e-06
6.65674e-06
9.75818e-06
1.19844e-05
5.44335e-06
1.9697e-06
1.86641e-07
1.35462e-07
2.49978e-06
6.50639e-06
1.5063e-05
2.62567e-05
3.19705e-05
3.26816e-05
3.09709e-05
2.83516e-05
2.57192e-05
2.34812e-05
2.17507e-05
2.05065e-05
1.96237e-05
1.89538e-05
1.83502e-05
1.76635e-05
1.67395e-05
1.5443e-05
1.37253e-05
1.16812e-05
9.56488e-06
7.70614e-06
6.2467e-06
5.2077e-06
4.57887e-06
4.34055e-06
4.50084e-06
5.17844e-06
6.77649e-06
9.96431e-06
1.21365e-05
5.48192e-06
1.98415e-06
1.87963e-07
1.38705e-07
2.51208e-06
6.55858e-06
1.52303e-05
2.6448e-05
3.20136e-05
3.2601e-05
3.08195e-05
2.8186e-05
2.55849e-05
2.34045e-05
2.1743e-05
2.05724e-05
1.97644e-05
1.91691e-05
1.86379e-05
1.80184e-05
1.71519e-05
1.5894e-05
1.41859e-05
1.21183e-05
9.94995e-06
8.02273e-06
6.4927e-06
5.38939e-06
4.70806e-06
4.4327e-06
4.57495e-06
5.25968e-06
6.90295e-06
1.01731e-05
1.22893e-05
5.52182e-06
1.99846e-06
1.89183e-07
1.41845e-07
2.52377e-06
6.60928e-06
1.5394e-05
2.66285e-05
3.20425e-05
3.25046e-05
3.06512e-05
2.80039e-05
2.54352e-05
2.33141e-05
2.17236e-05
2.06283e-05
1.98962e-05
1.9376e-05
1.89175e-05
1.83653e-05
1.75552e-05
1.63367e-05
1.4641e-05
1.25541e-05
1.03393e-05
8.34934e-06
6.7523e-06
5.58633e-06
4.85269e-06
4.53936e-06
4.66178e-06
5.35125e-06
7.03687e-06
1.03853e-05
1.24427e-05
5.5629e-06
2.01262e-06
1.90309e-07
1.44895e-07
2.53495e-06
6.65876e-06
1.55548e-05
2.68e-05
3.20595e-05
3.23949e-05
3.04693e-05
2.78088e-05
2.52739e-05
2.32133e-05
2.16949e-05
2.06753e-05
2.00191e-05
1.95735e-05
1.91872e-05
1.87019e-05
1.79483e-05
1.67682e-05
1.50874e-05
1.29861e-05
1.07308e-05
8.68423e-06
7.02403e-06
5.79725e-06
5.01169e-06
4.65976e-06
4.7609e-06
5.45306e-06
7.17841e-06
1.06011e-05
1.25976e-05
5.60554e-06
2.02674e-06
1.91356e-07
1.47833e-07
2.54549e-06
6.70654e-06
1.57114e-05
2.696e-05
3.2062e-05
3.22691e-05
3.02706e-05
2.75981e-05
2.50986e-05
2.31002e-05
2.16559e-05
2.07134e-05
2.01338e-05
1.97628e-05
1.94481e-05
1.90288e-05
1.83311e-05
1.719e-05
1.55246e-05
1.34127e-05
1.11228e-05
9.02606e-06
7.30688e-06
6.02138e-06
5.18447e-06
4.79344e-06
4.87207e-06
5.56515e-06
7.32787e-06
1.08208e-05
1.27545e-05
5.64974e-06
2.04085e-06
1.92335e-07
1.50674e-07
2.55553e-06
6.75307e-06
1.5865e-05
2.71105e-05
3.20514e-05
3.21284e-05
3.00566e-05
2.73734e-05
2.49112e-05
2.29766e-05
2.16077e-05
2.0743e-05
2.024e-05
1.99432e-05
1.96991e-05
1.93446e-05
1.87018e-05
1.75996e-05
1.59513e-05
1.38324e-05
1.15139e-05
9.37349e-06
7.59972e-06
6.25779e-06
5.37029e-06
4.93988e-06
4.99501e-06
5.6875e-06
7.48536e-06
1.10446e-05
1.29143e-05
5.69586e-06
2.05503e-06
1.93259e-07
1.53399e-07
2.5649e-06
6.79769e-06
1.60137e-05
2.72489e-05
3.20256e-05
3.1971e-05
2.98261e-05
2.71338e-05
2.47112e-05
2.28424e-05
2.15506e-05
2.07648e-05
2.03385e-05
2.01154e-05
1.99409e-05
1.96497e-05
1.906e-05
1.79958e-05
1.63655e-05
1.4243e-05
1.19025e-05
9.72553e-06
7.902e-06
6.50621e-06
5.56897e-06
5.09893e-06
5.12957e-06
5.82003e-06
7.65094e-06
1.12729e-05
1.30777e-05
5.74405e-06
2.06936e-06
1.94141e-07
1.56022e-07
2.57373e-06
6.84088e-06
1.61589e-05
2.73767e-05
3.19854e-05
3.17972e-05
2.95793e-05
2.68801e-05
2.44994e-05
2.26983e-05
2.14853e-05
2.0779e-05
2.04296e-05
2.02796e-05
2.01734e-05
1.99438e-05
1.94053e-05
1.83778e-05
1.67662e-05
1.46434e-05
1.22859e-05
1.00798e-05
8.21202e-06
6.76557e-06
5.77994e-06
5.2704e-06
5.27605e-06
5.96377e-06
7.82517e-06
1.1506e-05
1.32455e-05
5.79451e-06
2.08388e-06
1.94998e-07
1.58532e-07
2.58189e-06
6.88213e-06
1.62991e-05
2.74922e-05
3.19296e-05
3.16062e-05
2.93157e-05
2.6612e-05
2.4276e-05
2.25448e-05
2.14122e-05
2.07864e-05
2.05138e-05
2.04362e-05
2.03969e-05
2.02267e-05
1.9737e-05
1.87443e-05
1.71514e-05
1.50315e-05
1.26636e-05
1.04354e-05
8.52887e-06
7.0352e-06
6.00283e-06
5.45417e-06
5.4345e-06
6.11865e-06
8.00859e-06
1.17447e-05
1.34184e-05
5.84747e-06
2.09869e-06
1.95845e-07
1.60936e-07
2.58944e-06
6.92157e-06
1.64348e-05
2.7596e-05
3.18581e-05
3.13976e-05
2.90354e-05
2.63298e-05
2.40415e-05
2.23825e-05
2.1332e-05
2.07876e-05
2.05921e-05
2.05861e-05
2.06122e-05
2.04991e-05
2.00554e-05
1.9095e-05
1.75202e-05
1.54058e-05
1.30332e-05
1.07896e-05
8.85025e-06
7.31349e-06
6.23668e-06
5.64981e-06
5.60483e-06
6.28484e-06
8.20184e-06
1.19897e-05
1.35969e-05
5.90307e-06
2.11384e-06
1.96696e-07
1.6323e-07
2.59629e-06
6.95896e-06
1.65652e-05
2.76872e-05
3.17705e-05
3.11709e-05
2.87377e-05
2.60335e-05
2.37961e-05
2.22116e-05
2.12451e-05
2.0783e-05
2.06646e-05
2.07297e-05
2.08196e-05
2.0761e-05
2.03601e-05
1.94294e-05
1.78719e-05
1.57654e-05
1.33942e-05
1.11415e-05
9.17488e-06
7.59928e-06
6.48069e-06
5.85693e-06
5.78706e-06
6.46273e-06
8.40582e-06
1.22422e-05
1.37816e-05
5.96153e-06
2.12943e-06
1.97566e-07
1.6542e-07
2.60249e-06
6.99436e-06
1.66905e-05
2.7766e-05
3.16665e-05
3.09258e-05
2.8423e-05
2.57237e-05
2.35404e-05
2.20329e-05
2.1152e-05
2.07732e-05
2.07321e-05
2.08675e-05
2.10196e-05
2.10129e-05
2.06516e-05
1.97474e-05
1.82058e-05
1.61095e-05
1.37456e-05
1.14893e-05
9.50088e-06
7.89105e-06
6.73387e-06
6.07507e-06
5.98122e-06
6.65288e-06
8.6216e-06
1.25037e-05
1.39733e-05
6.02309e-06
2.14555e-06
1.98467e-07
1.67508e-07
2.60799e-06
7.02762e-06
1.68103e-05
2.78317e-05
3.15451e-05
3.06614e-05
2.80907e-05
2.54002e-05
2.32746e-05
2.18465e-05
2.10531e-05
2.07584e-05
2.07947e-05
2.09998e-05
2.12124e-05
2.12549e-05
2.09297e-05
2.00488e-05
1.85219e-05
1.6438e-05
1.40875e-05
1.18319e-05
9.82674e-06
8.18744e-06
6.99537e-06
6.30386e-06
6.18729e-06
6.85567e-06
8.85001e-06
1.2775e-05
1.41718e-05
6.0878e-06
2.16226e-06
1.99411e-07
1.69506e-07
2.61282e-06
7.05885e-06
1.69249e-05
2.78844e-05
3.14061e-05
3.03777e-05
2.77415e-05
2.5064e-05
2.29998e-05
2.16535e-05
2.0949e-05
2.07394e-05
2.08532e-05
2.11272e-05
2.13986e-05
2.14875e-05
2.11946e-05
2.03335e-05
1.88196e-05
1.675e-05
1.44181e-05
1.21674e-05
1.01503e-05
8.48626e-06
7.26322e-06
6.54188e-06
6.40441e-06
7.07072e-06
9.09148e-06
1.30567e-05
1.43766e-05
6.15556e-06
2.17959e-06
2.00403e-07
1.7142e-07
2.617e-06
7.0881e-06
1.70344e-05
2.79235e-05
3.12486e-05
3.00741e-05
2.73752e-05
2.47155e-05
2.27164e-05
2.14544e-05
2.08403e-05
2.07164e-05
2.09078e-05
2.12502e-05
2.15787e-05
2.17112e-05
2.1447e-05
2.06019e-05
1.90988e-05
1.70444e-05
1.4735e-05
1.24933e-05
1.0469e-05
8.78546e-06
7.53609e-06
6.78845e-06
6.63262e-06
7.29884e-06
9.3474e-06
1.33504e-05
1.45876e-05
6.22623e-06
2.19757e-06
2.01446e-07
1.73261e-07
2.62055e-06
7.11544e-06
1.71389e-05
2.7949e-05
3.10724e-05
2.97507e-05
2.69927e-05
2.43557e-05
2.24257e-05
2.12502e-05
2.07279e-05
2.06904e-05
2.09595e-05
2.13695e-05
2.17536e-05
2.19271e-05
2.16879e-05
2.08551e-05
1.93603e-05
1.73212e-05
1.50372e-05
1.2808e-05
1.0781e-05
9.08278e-06
7.81153e-06
7.04125e-06
6.87038e-06
7.53955e-06
9.61825e-06
1.36571e-05
1.48042e-05
6.29959e-06
2.21618e-06
2.02543e-07
1.75033e-07
2.62345e-06
7.14083e-06
1.72383e-05
2.79606e-05
3.0877e-05
2.9407e-05
2.65939e-05
2.39851e-05
2.2128e-05
2.10414e-05
2.06123e-05
2.06617e-05
2.10085e-05
2.14855e-05
2.19236e-05
2.21355e-05
2.19179e-05
2.10937e-05
1.96047e-05
1.75803e-05
1.53237e-05
1.31098e-05
1.10844e-05
9.37635e-06
8.08822e-06
7.29988e-06
7.11768e-06
7.79325e-06
9.90477e-06
1.39773e-05
1.50259e-05
6.37546e-06
2.23545e-06
2.03699e-07
1.76748e-07
2.62577e-06
7.16447e-06
1.7333e-05
2.79587e-05
3.06627e-05
2.90437e-05
2.61799e-05
2.36049e-05
2.1825e-05
2.08297e-05
2.0495e-05
2.06317e-05
2.10559e-05
2.15992e-05
2.20899e-05
2.23376e-05
2.21383e-05
2.13191e-05
1.98332e-05
1.78229e-05
1.55948e-05
1.33985e-05
1.13781e-05
9.66459e-06
8.36412e-06
7.56201e-06
7.37249e-06
8.05901e-06
1.02073e-05
1.43117e-05
1.52517e-05
6.45355e-06
2.25537e-06
2.04913e-07
1.78407e-07
2.62749e-06
7.18632e-06
1.74229e-05
2.79429e-05
3.0429e-05
2.86608e-05
2.5751e-05
2.32156e-05
2.15169e-05
2.0616e-05
2.03764e-05
2.06003e-05
2.11016e-05
2.17105e-05
2.22525e-05
2.25338e-05
2.23496e-05
2.15323e-05
2.00471e-05
1.80503e-05
1.5851e-05
1.3674e-05
1.16616e-05
9.94654e-06
8.63822e-06
7.82693e-06
7.63474e-06
8.33653e-06
1.05252e-05
1.46594e-05
1.54806e-05
6.53356e-06
2.2759e-06
2.06191e-07
1.80019e-07
2.62867e-06
7.20657e-06
1.75083e-05
2.79135e-05
3.01764e-05
2.82591e-05
2.53088e-05
2.28184e-05
2.1205e-05
2.04031e-05
2.02582e-05
2.05681e-05
2.11458e-05
2.18197e-05
2.24116e-05
2.27244e-05
2.25525e-05
2.17342e-05
2.02481e-05
1.82643e-05
1.60938e-05
1.39369e-05
1.19345e-05
1.02214e-05
8.90935e-06
8.09333e-06
7.90293e-06
8.62469e-06
1.08585e-05
1.50206e-05
1.57115e-05
6.61506e-06
2.297e-06
2.07524e-07
1.81586e-07
2.6293e-06
7.22526e-06
1.75895e-05
2.78702e-05
2.99044e-05
2.78389e-05
2.48541e-05
2.24141e-05
2.08887e-05
2.01868e-05
2.01371e-05
2.05334e-05
2.11877e-05
2.19262e-05
2.25671e-05
2.29094e-05
2.27474e-05
2.1926e-05
2.04378e-05
1.84675e-05
1.63249e-05
1.41883e-05
1.21976e-05
1.04891e-05
9.17689e-06
8.36031e-06
8.17655e-06
8.92374e-06
1.12062e-05
1.53937e-05
1.59432e-05
6.69761e-06
2.31858e-06
2.08913e-07
1.83119e-07
2.62948e-06
7.24265e-06
1.7667e-05
2.78139e-05
2.96142e-05
2.74019e-05
2.43891e-05
2.20052e-05
2.05702e-05
1.9969e-05
2.00146e-05
2.04973e-05
2.12281e-05
2.20307e-05
2.27192e-05
2.3089e-05
2.29345e-05
2.21083e-05
2.06183e-05
1.86628e-05
1.65464e-05
1.44293e-05
1.24513e-05
1.07496e-05
9.44059e-06
8.62736e-06
8.45473e-06
9.23251e-06
1.1568e-05
1.5778e-05
1.6175e-05
6.78082e-06
2.3406e-06
2.10352e-07
1.84615e-07
2.62917e-06
7.2587e-06
1.77405e-05
2.77438e-05
2.93052e-05
2.69484e-05
2.39148e-05
2.15924e-05
2.02506e-05
1.97508e-05
1.98917e-05
2.04604e-05
2.12672e-05
2.2133e-05
2.28678e-05
2.32632e-05
2.31142e-05
2.22825e-05
2.07919e-05
1.88539e-05
1.67611e-05
1.4662e-05
1.26966e-05
1.10034e-05
9.70018e-06
8.89391e-06
8.73686e-06
9.5505e-06
1.19431e-05
1.61717e-05
1.64053e-05
6.86406e-06
2.3629e-06
2.11831e-07
1.86083e-07
2.62845e-06
7.27361e-06
1.78108e-05
2.76606e-05
2.89782e-05
2.648e-05
2.3433e-05
2.11775e-05
1.99306e-05
1.95326e-05
1.97683e-05
2.04225e-05
2.13047e-05
2.2233e-05
2.30126e-05
2.34316e-05
2.32862e-05
2.24483e-05
2.09587e-05
1.90409e-05
1.69699e-05
1.48875e-05
1.29348e-05
1.12513e-05
9.95611e-06
9.15985e-06
9.02239e-06
9.87685e-06
1.23308e-05
1.65744e-05
1.66339e-05
6.94706e-06
2.38542e-06
2.13347e-07
1.87513e-07
2.62725e-06
7.28709e-06
1.78771e-05
2.75639e-05
2.86332e-05
2.59973e-05
2.29447e-05
2.07613e-05
1.96117e-05
1.93156e-05
1.96458e-05
2.0385e-05
2.13418e-05
2.23313e-05
2.31541e-05
2.35944e-05
2.34507e-05
2.26058e-05
2.11182e-05
1.92225e-05
1.71723e-05
1.5106e-05
1.31665e-05
1.1494e-05
1.0209e-05
9.42569e-06
9.31159e-06
1.02115e-05
1.27299e-05
1.69846e-05
1.68599e-05
7.02943e-06
2.40806e-06
2.14896e-07
1.88913e-07
2.62563e-06
7.29946e-06
1.79401e-05
2.7454e-05
2.82705e-05
2.5501e-05
2.2451e-05
2.03451e-05
1.92944e-05
1.91005e-05
1.95247e-05
2.03482e-05
2.1379e-05
2.24286e-05
2.32928e-05
2.37524e-05
2.36082e-05
2.27552e-05
2.12701e-05
1.93974e-05
1.73674e-05
1.53169e-05
1.33912e-05
1.17311e-05
1.04583e-05
9.69053e-06
9.60348e-06
1.05537e-05
1.31401e-05
1.74011e-05
1.70815e-05
7.11054e-06
2.43072e-06
2.1648e-07
1.90276e-07
2.62353e-06
7.31036e-06
1.79991e-05
2.73302e-05
2.78896e-05
2.49917e-05
2.19529e-05
1.99296e-05
1.89795e-05
1.88877e-05
1.94055e-05
2.03126e-05
2.14164e-05
2.25249e-05
2.3429e-05
2.39057e-05
2.37591e-05
2.28973e-05
2.14152e-05
1.95657e-05
1.75552e-05
1.55206e-05
1.36092e-05
1.19629e-05
1.07043e-05
9.95469e-06
9.89807e-06
1.09028e-05
1.35596e-05
1.78213e-05
1.72985e-05
7.19017e-06
2.45344e-06
2.18097e-07
1.9161e-07
2.62106e-06
7.32028e-06
1.8055e-05
2.71929e-05
2.74908e-05
2.44704e-05
2.14517e-05
1.9516e-05
1.86681e-05
1.86785e-05
1.92891e-05
2.02792e-05
2.1455e-05
2.26213e-05
2.35633e-05
2.40551e-05
2.39044e-05
2.30331e-05
2.15545e-05
1.97276e-05
1.77359e-05
1.5717e-05
1.38208e-05
1.21896e-05
1.09474e-05
1.02189e-05
1.01964e-05
1.12598e-05
1.39887e-05
1.82451e-05
1.75111e-05
7.26841e-06
2.47621e-06
2.19744e-07
1.92915e-07
2.61817e-06
7.32899e-06
1.81071e-05
2.70407e-05
2.70736e-05
2.39377e-05
2.09481e-05
1.91048e-05
1.83606e-05
1.84726e-05
1.91753e-05
2.02474e-05
2.14945e-05
2.27174e-05
2.3696e-05
2.42011e-05
2.40452e-05
2.31646e-05
2.16907e-05
1.9885e-05
1.79107e-05
1.5907e-05
1.40262e-05
1.24113e-05
1.11869e-05
1.04815e-05
1.04961e-05
1.16226e-05
1.44254e-05
1.86702e-05
1.77184e-05
7.34492e-06
2.49889e-06
2.21416e-07
1.94199e-07
2.61498e-06
7.33685e-06
1.8156e-05
2.68735e-05
2.66383e-05
2.3395e-05
2.04437e-05
1.86975e-05
1.80586e-05
1.82715e-05
1.90646e-05
2.02176e-05
2.15351e-05
2.28135e-05
2.38272e-05
2.43442e-05
2.41825e-05
2.32939e-05
2.18266e-05
2.00394e-05
1.80802e-05
1.60909e-05
1.42257e-05
1.26282e-05
1.14238e-05
1.07453e-05
1.08021e-05
1.19925e-05
1.48695e-05
1.90959e-05
1.79204e-05
7.41969e-06
2.52145e-06