/*--------------------------------*- C++ -*----------------------------------*\
| =========                 |                                                 |
| \\      /  F ield         | OpenFOAM: The Open Source CFD Toolbox           |
|  \\    /   O peration     | Version:  v2006                                 |
|   \\  /    A nd           | Website:  www.openfoam.com                      |
|    \\/     M anipulation  |                                                 |
\*---------------------------------------------------------------------------*/
FoamFile
{
    version     2.0;
    format      ascii;
    class       surfaceScalarField;
    location    "71";
    object      phi;
}
// * * * * * * * * * * * * * * * * * * * * * * * * * * * * * * * * * * * * * //

dimensions      [1 0 -1 0 0 0 0];
oriented        oriented;


internalField   nonuniform List<scalar> 
228225
(
-2.92458e-06
-2.884e-08
1.18226e-07
-2.56708e-06
-4.80006e-07
1.23334e-07
-1.88001e-06
-8.14231e-07
1.27054e-07
-9.50184e-07
-1.06308e-06
1.3353e-07
1.44192e-07
-1.23549e-06
1.41347e-07
1.33797e-06
-1.3424e-06
1.48809e-07
2.58121e-06
-1.39793e-06
1.54877e-07
3.83607e-06
-1.41397e-06
1.59271e-07
5.07316e-06
-1.39899e-06
1.62004e-07
6.2688e-06
-1.35876e-06
1.63191e-07
7.40331e-06
-1.29746e-06
1.62971e-07
8.46012e-06
-1.21831e-06
1.61477e-07
9.42527e-06
-1.12403e-06
1.58828e-07
1.02869e-05
-1.01687e-06
1.55132e-07
1.10346e-05
-8.98383e-07
1.50512e-07
1.16594e-05
-7.70049e-07
1.45081e-07
1.21543e-05
-6.34092e-07
1.38932e-07
1.25148e-05
-4.92928e-07
1.32153e-07
1.27384e-05
-3.48713e-07
1.24835e-07
1.28247e-05
-2.03731e-07
1.17059e-07
1.27771e-05
-6.16607e-08
1.08909e-07
1.25921e-05
8.40379e-08
1.00447e-07
1.22724e-05
2.27512e-07
9.17383e-08
1.18255e-05
3.63547e-07
8.28492e-08
1.12592e-05
4.91955e-07
7.38167e-08
1.05825e-05
6.11474e-07
6.46497e-08
9.80581e-06
7.20724e-07
5.53466e-08
8.94082e-06
8.18492e-07
4.59119e-08
7.998e-06
9.05919e-07
3.63268e-08
6.97999e-06
9.90861e-07
2.65862e-08
5.86558e-06
1.09728e-06
1.65948e-08
4.58498e-06
1.27394e-06
6.17877e-09
3.03903e-06
1.5477e-06
-2.01548e-09
1.28595e-06
1.75613e-06
-2.75914e-09
1.28003e-06
7.02935e-09
-1.88941e-08
-1.10149e-07
1.00041e-07
1.48649e-07
-7.93007e-07
1.45438e-07
4.97331e-07
-1.33229e-06
1.69333e-07
1.00927e-06
-1.75847e-06
1.83594e-07
1.65861e-06
-2.07726e-06
1.92612e-07
2.41447e-06
-2.29671e-06
1.98655e-07
3.24369e-06
-2.42956e-06
2.02654e-07
4.11477e-06
-2.48969e-06
2.04901e-07
4.99998e-06
-2.48951e-06
2.05593e-07
5.87595e-06
-2.43939e-06
2.04922e-07
6.72324e-06
-2.34756e-06
2.03064e-07
7.52551e-06
-2.22049e-06
2.00165e-07
8.26914e-06
-2.06373e-06
1.96323e-07
8.94285e-06
-1.88201e-06
1.91646e-07
9.53721e-06
-1.67892e-06
1.86376e-07
1.00439e-05
-1.45734e-06
1.80799e-07
1.04553e-05
-1.2204e-06
1.75028e-07
1.07649e-05
-9.71543e-07
1.6909e-07
1.09673e-05
-7.14073e-07
1.63022e-07
1.10581e-05
-4.51368e-07
1.56839e-07
1.10333e-05
-1.87522e-07
1.50564e-07
1.08972e-05
7.58178e-08
1.44223e-07
1.06444e-05
3.42282e-07
1.37815e-07
1.02774e-05
5.98985e-07
1.31333e-07
9.79846e-06
8.45912e-07
1.24725e-07
9.21074e-06
1.08099e-06
1.1787e-07
8.51787e-06
1.30265e-06
1.10561e-07
7.72198e-06
1.5114e-06
1.0256e-07
6.81977e-06
1.71393e-06
9.37575e-08
5.79953e-06
1.92686e-06
8.38044e-08
4.64132e-06
2.18321e-06
7.18835e-08
3.33587e-06
2.52172e-06
5.74096e-08
1.94721e-06
2.89469e-06
4.17592e-08
6.80408e-07
2.9947e-06
2.88928e-08
1.94217e-06
1.96802e-08
1.94009e-07
-3.751e-07
7.02905e-08
5.37029e-07
-1.25245e-06
1.16856e-07
1.02023e-06
-1.95973e-06
1.44102e-07
1.60942e-06
-2.50892e-06
1.60973e-07
2.26894e-06
-2.90799e-06
1.71171e-07
2.96961e-06
-3.17451e-06
1.77187e-07
3.68962e-06
-3.33032e-06
1.80777e-07
4.41224e-06
-3.39537e-06
1.83048e-07
5.12373e-06
-3.38558e-06
1.84575e-07
5.81189e-06
-3.3131e-06
1.85569e-07
6.46559e-06
-3.18731e-06
1.86094e-07
7.07445e-06
-3.01553e-06
1.86203e-07
7.62876e-06
-2.80392e-06
1.85897e-07
8.1197e-06
-2.55807e-06
1.85139e-07
8.53997e-06
-2.28308e-06
1.83889e-07
8.88408e-06
-1.98356e-06
1.8212e-07
9.14762e-06
-1.66376e-06
1.79823e-07
9.32677e-06
-1.3277e-06
1.77001e-07
9.4183e-06
-9.79247e-07
1.73632e-07
9.41932e-06
-6.22153e-07
1.69727e-07
9.32663e-06
-2.60199e-07
1.65305e-07
9.13897e-06
1.02969e-07
1.60414e-07
8.86145e-06
4.64556e-07
1.55128e-07
8.49164e-06
8.19122e-07
1.49519e-07
8.03064e-06
1.16307e-06
1.43664e-07
7.4807e-06
1.49311e-06
1.37597e-07
6.84407e-06
1.80777e-06
1.31241e-07
6.12111e-06
2.10972e-06
1.24351e-07
5.30877e-06
2.4095e-06
1.16463e-07
4.39914e-06
2.72951e-06
1.06681e-07
3.38655e-06
3.10205e-06
9.35427e-08
2.2997e-06
3.53264e-06
7.59377e-08
1.24649e-06
3.8923e-06
5.59674e-08
3.87141e-07
3.81724e-06
3.77319e-08
2.3096e-06
2.13295e-08
1.80956e-07
-6.18873e-07
6.25659e-08
6.05634e-07
-1.78787e-06
1.10668e-07
1.19422e-06
-2.68478e-06
1.36245e-07
1.86738e-06
-3.33276e-06
1.5045e-07
2.56455e-06
-3.76372e-06
1.58407e-07
3.24957e-06
-4.02253e-06
1.62898e-07
3.90582e-06
-4.15202e-06
1.65345e-07
4.5274e-06
-4.1835e-06
1.66434e-07
5.11235e-06
-4.13715e-06
1.66519e-07
5.65938e-06
-4.02615e-06
1.65911e-07
6.16642e-06
-3.85944e-06
1.65001e-07
6.62939e-06
-3.64274e-06
1.64147e-07
7.04265e-06
-3.38086e-06
1.6359e-07
7.40013e-06
-3.07914e-06
1.63484e-07
7.69597e-06
-2.74292e-06
1.63904e-07
7.92511e-06
-2.37765e-06
1.64856e-07
8.08373e-06
-1.98877e-06
1.6628e-07
8.16941e-06
-1.58154e-06
1.68062e-07
8.18086e-06
-1.16082e-06
1.70024e-07
8.11759e-06
-7.30962e-07
1.71957e-07
7.97959e-06
-2.95925e-07
1.736e-07
7.76687e-06
1.40901e-07
1.74655e-07
7.47945e-06
5.77004e-07
1.74818e-07
7.11763e-06
1.00697e-06
1.73811e-07
6.68221e-06
1.42689e-06
1.71423e-07
6.17475e-06
1.83283e-06
1.67535e-07
5.597e-06
2.2232e-06
1.62106e-07
4.94925e-06
2.60214e-06
1.55094e-07
4.22888e-06
2.98339e-06
1.46248e-07
3.43201e-06
3.3915e-06
1.34683e-07
2.56636e-06
3.84893e-06
1.18672e-07
1.67999e-06
4.32197e-06
9.71694e-08
8.70497e-07
4.62911e-06
7.31882e-08
2.48734e-07
4.38968e-06
5.03626e-08
2.53386e-06
2.61833e-08
1.8074e-07
-8.45974e-07
4.61905e-08
5.82685e-07
-2.27227e-06
8.20102e-08
1.10923e-06
-3.31181e-06
1.00543e-07
1.68468e-06
-4.01904e-06
1.10792e-07
2.26003e-06
-4.45543e-06
1.16164e-07
2.81397e-06
-4.69459e-06
1.17942e-07
3.34208e-06
-4.79689e-06
1.16658e-07
3.84566e-06
-4.80006e-06
1.12934e-07
4.32527e-06
-4.72436e-06
1.07548e-07
4.77967e-06
-4.582e-06
1.01376e-07
5.20519e-06
-4.38031e-06
9.52489e-08
5.59557e-06
-4.12303e-06
8.98163e-08
5.94342e-06
-3.81433e-06
8.55233e-08
6.24111e-06
-3.45958e-06
8.2676e-08
6.48175e-06
-3.06515e-06
8.15258e-08
6.66004e-06
-2.63827e-06
8.2259e-08
6.77277e-06
-2.18657e-06
8.49921e-08
6.8189e-06
-1.71753e-06
8.97585e-08
6.79934e-06
-1.23786e-06
9.65076e-08
6.71628e-06
-7.53081e-07
1.05067e-07
6.57246e-06
-2.67332e-07
1.15122e-07
6.37074e-06
2.1633e-07
1.26182e-07
6.11439e-06
6.95671e-07
1.3756e-07
5.8041e-06
1.16873e-06
1.48392e-07
5.43971e-06
1.63341e-06
1.57715e-07
5.01985e-06
2.08794e-06
1.64591e-07
4.54187e-06
2.53274e-06
1.68258e-07
4.00164e-06
2.97403e-06
1.68174e-07
3.39414e-06
3.42693e-06
1.63801e-07
2.71867e-06
3.91274e-06
1.54128e-07
1.99328e-06
4.43662e-06
1.37714e-07
1.27418e-06
4.92687e-06
1.14457e-07
6.38639e-07
5.17729e-06
8.79687e-08
1.71658e-07
4.79693e-06
6.08219e-08
2.67843e-06
2.88375e-08
1.4749e-07
-1.02756e-06
3.38888e-08
4.8204e-07
-2.66998e-06
6.29547e-08
9.16532e-07
-3.82692e-06
8.0501e-08
1.38688e-06
-4.58129e-06
9.17523e-08
1.85553e-06
-5.02219e-06
9.79444e-08
2.30933e-06
-5.24797e-06
9.9442e-08
2.74773e-06
-5.33217e-06
9.67711e-08
3.17239e-06
-5.31568e-06
9.0869e-08
3.58297e-06
-5.21772e-06
8.26795e-08
3.97677e-06
-5.04904e-06
7.3125e-08
4.34778e-06
-4.81437e-06
6.29282e-08
4.68843e-06
-4.51645e-06
5.26458e-08
4.99067e-06
-4.1595e-06
4.28053e-08
5.24645e-06
-3.74942e-06
3.39504e-08
5.44884e-06
-3.29424e-06
2.65825e-08
5.59293e-06
-2.80363e-06
2.11613e-08
5.67622e-06
-2.28809e-06
1.8111e-08
5.69864e-06
-1.75789e-06
1.78008e-08
5.66229e-06
-1.22215e-06
2.04973e-08
5.57085e-06
-6.88146e-07
2.63693e-08
5.42885e-06
-1.60948e-07
3.54851e-08
5.24129e-06
3.5603e-07
4.77172e-08
5.01251e-06
8.61699e-07
6.26187e-08
4.74544e-06
1.35627e-06
7.9397e-08
4.4407e-06
1.84111e-06
9.68982e-08
4.09596e-06
2.31884e-06
1.13693e-07
3.70568e-06
2.79463e-06
1.28236e-07
3.26198e-06
3.27862e-06
1.38966e-07
2.75755e-06
3.787e-06
1.44242e-07
2.19307e-06
4.33494e-06
1.42226e-07
1.59089e-06
4.90769e-06
1.31183e-07
1.00514e-06
5.40179e-06
1.11156e-07
4.94365e-07
5.60307e-06
8.56709e-08
1.30055e-07
5.10495e-06
5.73955e-08
2.78595e-06
2.42982e-08
1.24036e-07
-1.17724e-06
2.56748e-08
3.98348e-07
-2.99564e-06
5.10512e-08
7.52012e-07
-4.24937e-06
6.84423e-08
1.13603e-06
-5.04602e-06
8.05661e-08
1.52176e-06
-5.49576e-06
8.78137e-08
1.89947e-06
-5.71616e-06
9.04314e-08
2.26866e-06
-5.79041e-06
8.89538e-08
2.62973e-06
-5.7611e-06
8.42158e-08
2.98157e-06
-5.64682e-06
7.71418e-08
3.32026e-06
-5.45625e-06
6.84205e-08
3.63972e-06
-5.19245e-06
5.85399e-08
3.93314e-06
-4.8578e-06
4.7857e-08
4.19303e-06
-4.45617e-06
3.67016e-08
4.41221e-06
-3.99429e-06
2.56011e-08
4.58458e-06
-3.48194e-06
1.52293e-08
4.70586e-06
-2.93121e-06
6.18873e-09
4.77415e-06
-2.35529e-06
-1.19229e-09
4.78931e-06
-1.76723e-06
-5.92296e-09
4.7539e-06
-1.17864e-06
-8.20768e-09
4.67187e-06
-5.98822e-07
-7.40405e-09
4.54724e-06
-3.33471e-08
-3.08335e-09
4.38747e-06
5.10967e-07
4.70908e-09
4.19625e-06
1.03655e-06
1.62489e-08
3.97639e-06
1.54476e-06
3.12312e-08
3.72791e-06
2.04055e-06
4.8913e-08
3.44728e-06
2.53129e-06
6.80663e-08
3.12739e-06
3.0274e-06
8.70112e-08
2.75891e-06
3.54333e-06
1.03676e-07
2.3342e-06
4.09604e-06
1.15608e-07
1.85531e-06
4.69374e-06
1.20111e-07
1.34509e-06
5.30324e-06
1.14814e-07
8.50977e-07
5.7971e-06
9.92093e-08
4.19168e-07
5.95926e-06
7.63439e-08
1.12743e-07
5.36314e-06
4.93627e-08
2.88148e-06
1.89914e-08
9.77116e-08
-1.2951e-06
2.002e-08
3.21841e-07
-3.26339e-06
4.33974e-08
6.17712e-07
-4.60678e-06
6.13304e-08
9.45479e-07
-5.44848e-06
7.45634e-08
1.28051e-06
-5.91373e-06
8.28378e-08
1.61325e-06
-6.13532e-06
8.63155e-08
1.94163e-06
-6.20456e-06
8.56539e-08
2.26457e-06
-6.16595e-06
8.17893e-08
2.57997e-06
-6.03799e-06
7.56467e-08
2.88362e-06
-5.82779e-06
6.7785e-08
3.17022e-06
-5.53768e-06
5.85274e-08
3.43361e-06
-5.16934e-06
4.80464e-08
3.66739e-06
-4.72664e-06
3.65883e-08
3.86555e-06
-4.21716e-06
2.46074e-08
4.02297e-06
-3.65212e-06
1.26477e-08
4.13567e-06
-3.04539e-06
1.3637e-09
4.20125e-06
-2.41225e-06
-8.74329e-09
4.21917e-06
-1.76805e-06
-1.7211e-08
4.19079e-06
-1.12686e-06
-2.35253e-08
4.11937e-06
-5.00368e-07
-2.71649e-08
4.01079e-06
1.02704e-07
-2.75966e-08
3.86896e-06
6.77e-07
-2.43458e-08
3.70049e-06
1.2219e-06
-1.70142e-08
3.50896e-06
1.74142e-06
-5.26543e-09
3.29542e-06
2.24406e-06
9.89249e-09
3.05617e-06
2.74211e-06
2.83003e-08
2.78339e-06
3.2515e-06
4.85757e-08
2.46688e-06
3.79125e-06
6.85018e-08
2.09839e-06
4.37929e-06
8.51861e-08
1.67927e-06
5.01769e-06
9.52123e-08
1.22953e-06
5.65775e-06
9.54268e-08
7.88994e-07
6.15353e-06
8.45627e-08
3.97352e-07
6.28658e-06
6.50837e-08
1.12609e-07
5.60844e-06
4.06172e-08
2.98161e-06
1.42723e-08
8.43282e-08
-1.39777e-06
1.80493e-08
2.81151e-07
-3.50229e-06
4.21028e-08
5.44533e-07
-4.93137e-06
6.11078e-08
8.39787e-07
-5.81922e-06
7.52734e-08
1.14432e-06
-6.30298e-06
8.4524e-08
1.44854e-06
-6.52887e-06
8.92205e-08
1.74947e-06
-6.59562e-06
9.00585e-08
2.04525e-06
-6.5497e-06
8.79115e-08
2.3333e-06
-6.40967e-06
8.35561e-08
2.60985e-06
-6.18196e-06
7.75296e-08
2.87026e-06
-5.86825e-06
7.0052e-08
3.10944e-06
-5.46979e-06
6.11753e-08
3.3223e-06
-4.99066e-06
5.10545e-08
3.5042e-06
-4.43914e-06
3.99872e-08
3.6511e-06
-3.82746e-06
2.83434e-08
3.75975e-06
-3.17071e-06
1.65856e-08
3.82763e-06
-2.48555e-06
5.31389e-09
3.85347e-06
-1.78886e-06
-5.15042e-09
3.83783e-06
-1.0965e-06
-1.48299e-08
3.78223e-06
-4.22234e-07
-2.26624e-08
3.69005e-06
2.229e-07
-2.81481e-08
3.566e-06
8.31554e-07
-3.0624e-08
3.4154e-06
1.40181e-06
-2.9439e-08
3.24248e-06
1.93823e-06
-2.40037e-08
3.04863e-06
2.45168e-06
-1.38883e-08
2.83088e-06
2.95858e-06
1.17972e-09
2.58392e-06
3.4799e-06
1.84708e-08
2.29769e-06
4.03918e-06
3.82415e-08
1.96384e-06
4.65606e-06
5.70808e-08
1.58242e-06
5.3282e-06
7.10054e-08
1.16981e-06
5.99459e-06
7.60144e-08
7.59678e-07
6.49428e-06
6.98843e-08
3.88693e-07
6.60404e-06
5.43367e-08
1.13175e-07
5.85192e-06
3.32388e-08
3.08561e-06
1.10027e-08
7.55621e-08
-1.49014e-06
1.66215e-08
2.56685e-07
-3.72387e-06
4.03343e-08
5.02537e-07
-5.23669e-06
5.93095e-08
7.80345e-07
-6.17078e-06
7.35936e-08
1.06809e-06
-6.67402e-06
8.31523e-08
1.35598e-06
-6.90524e-06
8.83728e-08
1.64048e-06
-6.97021e-06
9.00001e-08
1.91927e-06
-6.91751e-06
8.89323e-08
2.18946e-06
-6.76587e-06
8.59128e-08
2.44734e-06
-6.52137e-06
8.14225e-08
2.68863e-06
-6.18528e-06
7.56302e-08
2.90892e-06
-5.75874e-06
6.85431e-08
3.10411e-06
-5.24618e-06
6.02322e-08
3.2706e-06
-4.65659e-06
5.08584e-08
3.40548e-06
-4.00308e-06
4.06493e-08
3.50639e-06
-3.30164e-06
2.99138e-08
3.5715e-06
-2.56982e-06
1.90425e-08
3.59954e-06
-1.82552e-06
8.50907e-09
3.58957e-06
-1.08585e-06
-8.12581e-10
3.54398e-06
-3.6604e-07
-1.07387e-08
3.4645e-06
3.20896e-07
-1.86617e-08
3.35476e-06
9.65636e-07
-2.44753e-08
3.21904e-06
1.5649e-06
-2.75145e-08
3.06108e-06
2.12314e-06
-2.70787e-08
2.8825e-06
2.65262e-06
-2.24778e-08
2.68144e-06
3.17267e-06
-1.31575e-08
2.4517e-06
3.7083e-06
1.23947e-09
2.18613e-06
4.28703e-06
1.7649e-08
1.87605e-06
4.93032e-06
3.58204e-08
1.52024e-06
5.63275e-06
5.13622e-08
1.13204e-06
6.32337e-06
5.96951e-08
7.41015e-07
6.82818e-06
5.76385e-08
3.82533e-07
6.91741e-06
4.5941e-08
1.1251e-07
6.09492e-06
2.82392e-08
3.19074e-06
9.22345e-09
7.24055e-08
-1.57924e-06
1.64859e-08
2.4674e-07
-3.93951e-06
4.10731e-08
4.83605e-07
-5.53428e-06
6.06337e-08
7.50666e-07
-6.51314e-06
7.52444e-08
1.02645e-06
-7.03495e-06
8.50631e-08
1.30159e-06
-7.27111e-06
9.06184e-08
1.57267e-06
-7.33414e-06
9.2732e-08
1.83729e-06
-7.27458e-06
9.23297e-08
2.09256e-06
-7.11139e-06
9.01525e-08
2.33487e-06
-6.85044e-06
8.66725e-08
2.56024e-06
-6.49279e-06
8.20675e-08
2.7648e-06
-6.03971e-06
7.63394e-08
2.94515e-06
-5.49613e-06
6.95163e-08
3.09857e-06
-4.87178e-06
6.16664e-08
3.22301e-06
-4.18052e-06
5.28975e-08
3.31689e-06
-3.439e-06
4.33748e-08
3.37894e-06
-2.66532e-06
3.33366e-08
3.40813e-06
-1.87791e-06
2.3092e-08
3.40378e-06
-1.09457e-06
1.2954e-08
3.36586e-06
-3.31639e-07
3.39901e-09
3.296e-06
3.9636e-07
-5.72563e-09
3.19698e-06
1.07829e-06
-1.37607e-08
3.07198e-06
1.70943e-06
-1.96594e-08
2.92414e-06
2.29368e-06
-2.28343e-08
2.75513e-06
2.84407e-06
-2.25689e-08
2.56383e-06
3.38197e-06
-1.81216e-08
2.34546e-06
3.93547e-06
-8.88043e-09
2.09248e-06
4.53531e-06
4.65202e-09
1.79809e-06
5.20454e-06
2.01818e-08
1.46028e-06
5.93525e-06
3.54345e-08
1.09039e-06
6.64794e-06
4.56133e-08
7.15379e-07
7.15693e-06
4.68104e-08
3.69488e-07
7.22546e-06
3.86735e-08
1.08259e-07
6.33319e-06
2.42034e-08
3.29292e-06
7.92089e-09
7.08423e-08
-1.66667e-06
1.64003e-08
2.41513e-07
-4.15134e-06
4.09908e-08
4.72233e-07
-5.82538e-06
6.02662e-08
7.30755e-07
-6.84637e-06
7.45991e-08
9.96263e-07
-7.38488e-06
8.4322e-08
1.25999e-06
-7.62495e-06
9.00048e-08
1.51872e-06
-7.68544e-06
9.24647e-08
1.77005e-06
-7.61863e-06
9.26031e-08
2.01111e-06
-7.44367e-06
9.1127e-08
2.23839e-06
-7.1663e-06
8.84853e-08
2.44818e-06
-6.78754e-06
8.48645e-08
2.63704e-06
-6.30895e-06
8.02844e-08
2.8022e-06
-5.73614e-06
7.47676e-08
2.94166e-06
-5.07968e-06
6.83523e-08
3.05412e-06
-4.35418e-06
6.109e-08
3.13877e-06
-3.57681e-06
5.30601e-08
3.19497e-06
-2.76602e-06
4.43899e-08
3.22217e-06
-1.9405e-06
3.52608e-08
3.21993e-06
-1.11831e-06
2.58622e-08
3.18809e-06
-3.16369e-07
1.64409e-08
3.12718e-06
4.49746e-07
7.39657e-09
3.03816e-06
1.16754e-06
-3.75807e-10
2.92457e-06
1.83116e-06
-8.29424e-09
2.78802e-06
2.44388e-06
-1.37899e-08
2.62959e-06
3.01898e-06
-1.66123e-08
2.44825e-06
3.57919e-06
-1.60006e-08
2.24e-06
4.15479e-06
-1.11665e-08
1.99765e-06
4.77885e-06
-1.23932e-09
1.71611e-06
5.4754e-06
1.06994e-08
1.39347e-06
6.23386e-06
2.41538e-08
1.04024e-06
6.96682e-06
3.46493e-08
6.81711e-07
7.47805e-06
3.79426e-08
3.50789e-07
7.52454e-06
3.26795e-08
1.01811e-07
6.56242e-06
2.09767e-08
3.38965e-06
6.92646e-09
7.00813e-08
-1.75341e-06
1.65638e-08
2.37929e-07
-4.36088e-06
4.15281e-08
4.63162e-07
-6.1117e-06
6.0877e-08
7.13597e-07
-7.17209e-06
7.5128e-08
9.69229e-07
-7.72535e-06
8.47333e-08
1.22208e-06
-7.96824e-06
9.03633e-08
1.46921e-06
-8.02556e-06
9.29074e-08
1.70831e-06
-7.95109e-06
9.32896e-08
1.93649e-06
-7.76415e-06
9.22046e-08
2.15037e-06
-7.47037e-06
9.00859e-08
2.3465e-06
-7.07089e-06
8.71221e-08
2.52185e-06
-6.56775e-06
8.33447e-08
2.67421e-06
-5.96736e-06
7.87691e-08
2.80215e-06
-5.28113e-06
7.34088e-08
2.90495e-06
-4.52435e-06
6.72723e-08
2.98224e-06
-3.71458e-06
6.03793e-08
3.03378e-06
-2.87045e-06
5.27854e-08
3.05923e-06
-2.01066e-06
4.45983e-08
3.05822e-06
-1.15337e-06
3.59506e-08
3.03048e-06
-3.15786e-07
2.70318e-08
2.97614e-06
4.85816e-07
1.81338e-08
2.896e-06
1.2379e-06
9.64068e-09
2.79122e-06
1.93367e-06
2.1442e-09
2.66352e-06
2.57593e-06
-4.4776e-09
2.51351e-06
3.17814e-06
-9.29111e-09
2.33994e-06
3.76397e-06
-1.13232e-08
2.13923e-06
4.36522e-06
-9.81885e-09
1.90552e-06
5.01649e-06
-3.98903e-09
1.63375e-06
5.74196e-06
5.22154e-09
1.32366e-06
6.5279e-06
1.61854e-08
9.85759e-07
7.27906e-06
2.59567e-08
6.44083e-07
7.78992e-06
3.03457e-08
3.29659e-07
7.81253e-06
2.72681e-08
9.47267e-08
6.78065e-06
1.79346e-08
3.48027e-06
5.93721e-09
6.92152e-08
-1.8396e-06
1.68275e-08
2.3367e-07
-4.5674e-06
4.1906e-08
4.52452e-07
-6.39161e-06
6.0976e-08
6.93641e-07
-7.48829e-06
7.48762e-08
9.38168e-07
-8.05422e-06
8.42374e-08
1.17889e-06
-8.29884e-06
8.97886e-08
1.41325e-06
-8.35244e-06
9.24195e-08
1.63905e-06
-8.27001e-06
9.3032e-08
1.85351e-06
-8.071e-06
9.22954e-08
2.0534e-06
-7.76099e-06
9.06303e-08
2.23557e-06
-7.34139e-06
8.82351e-08
2.3974e-06
-6.81485e-06
8.51624e-08
2.53719e-06
-6.18868e-06
8.14347e-08
2.65405e-06
-5.47514e-06
7.70584e-08
2.74774e-06
-4.69015e-06
7.20164e-08
2.81832e-06
-3.85155e-06
6.62815e-08
2.86587e-06
-2.97795e-06
5.98406e-08
2.89026e-06
-2.08789e-06
5.27191e-08
2.89115e-06
-1.19937e-06
4.49762e-08
2.86811e-06
-3.29612e-07
3.67365e-08
2.82089e-06
5.04671e-07
2.82259e-08
2.74971e-06
1.2892e-06
1.97543e-08
2.65511e-06
2.01641e-06
1.1716e-08
2.53754e-06
2.68872e-06
4.63253e-09
2.39654e-06
3.31974e-06
-7.30052e-10
2.23151e-06
3.93387e-06
-4.98829e-09
2.0387e-06
4.56396e-06
-6.03594e-09
1.81307e-06
5.24537e-06
-3.32307e-09
1.55055e-06
6.0016e-06
2.89347e-09
1.25231e-06
6.81505e-06
1.11995e-08
9.29485e-07
7.5826e-06
1.95683e-08
6.05075e-07
8.09067e-06
2.41841e-08
3.07975e-07
8.08788e-06
2.25708e-08
8.76935e-08
6.98699e-06
1.51551e-08
3.56477e-06
5.00783e-09
6.76862e-08
-1.92456e-06
1.705e-08
2.28107e-07
-4.77013e-06
4.22031e-08
4.40248e-07
-6.6649e-06
6.10419e-08
6.72513e-07
-7.79529e-06
7.46243e-08
9.06722e-07
-8.37227e-06
8.37101e-08
1.13645e-06
-8.6178e-06
8.9114e-08
1.3594e-06
-8.66726e-06
9.17634e-08
1.57343e-06
-8.57669e-06
9.25479e-08
1.77582e-06
-8.3656e-06
9.21057e-08
1.96353e-06
-8.03963e-06
9.08351e-08
2.13369e-06
-7.60056e-06
8.8931e-08
2.28409e-06
-7.0518e-06
8.64545e-08
2.41348e-06
-6.40159e-06
8.34288e-08
2.52142e-06
-5.66304e-06
7.98525e-08
2.60806e-06
-4.85259e-06
7.56931e-08
2.67375e-06
-3.98824e-06
7.08976e-08
2.71871e-06
-3.08844e-06
6.54146e-08
2.74289e-06
-2.1714e-06
5.92185e-08
2.74587e-06
-1.25478e-06
5.23156e-08
2.72701e-06
-3.55655e-07
4.47743e-08
2.68573e-06
5.09062e-07
3.67583e-08
2.62175e-06
1.32452e-06
2.85197e-08
2.53508e-06
2.08255e-06
2.03918e-08
2.42564e-06
2.78523e-06
1.27891e-08
2.29273e-06
3.44627e-06
6.23519e-09
2.13437e-06
4.09065e-06
1.4477e-09
1.94751e-06
4.75198e-06
-1.24769e-09
1.72804e-06
5.4658e-06
-1.00979e-09
1.47321e-06
6.25414e-06
2.28617e-09
1.18532e-06
7.0949e-06
8.15252e-09
8.76389e-07
7.87699e-06
1.48321e-08
5.68409e-07
8.38006e-06
1.90931e-08
2.87955e-07
8.35076e-06
1.83792e-08
8.14776e-08
7.18214e-06
1.2534e-08
3.64392e-06
4.12161e-09
6.63001e-08
-2.00847e-06
1.74169e-08
2.22154e-07
-4.96881e-06
4.26934e-08
4.26773e-07
-6.93088e-06
6.12385e-08
6.49246e-07
-8.09231e-06
7.4421e-08
8.72379e-07
-8.6787e-06
8.31798e-08
1.09045e-06
-8.92439e-06
8.84032e-08
1.30144e-06
-8.96939e-06
9.10319e-08
1.5033e-06
-8.87059e-06
9.19376e-08
1.69344e-06
-8.64756e-06
9.17345e-08
1.86899e-06
-8.30609e-06
9.0808e-08
2.0274e-06
-7.84842e-06
8.93574e-08
2.16686e-06
-7.27881e-06
8.74518e-08
2.28653e-06
-6.60648e-06
8.51175e-08
2.38639e-06
-5.84535e-06
8.23461e-08
2.46692e-06
-5.01231e-06
7.90871e-08
2.52873e-06
-4.12542e-06
7.52567e-08
2.57223e-06
-3.2028e-06
7.07581e-08
2.59736e-06
-2.26216e-06
6.55083e-08
2.60361e-06
-1.3206e-06
5.94547e-08
2.59005e-06
-3.94836e-07
5.26079e-08
2.55566e-06
4.98238e-07
4.50778e-08
2.4996e-06
1.34335e-06
3.7077e-08
2.42131e-06
2.13178e-06
2.89115e-08
2.32015e-06
2.86527e-06
2.09633e-08
2.195e-06
3.55759e-06
1.36904e-08
2.0438e-06
4.23407e-06
7.65298e-09
1.86337e-06
4.92876e-06
3.52593e-09
1.65022e-06
5.67696e-06
1.91823e-09
1.40268e-06
6.49863e-06
3.05696e-09
1.12438e-06
7.36653e-06
6.76597e-09
8.28332e-07
8.16163e-06
1.16681e-08
5.35571e-07
8.65814e-06
1.51765e-08
2.70425e-07
8.6018e-06
1.48875e-08
7.62501e-08
7.36723e-06
1.02627e-08
3.71857e-06
3.37037e-09
6.4334e-08
-2.09062e-06
1.76578e-08
2.15253e-07
-5.16273e-06
4.28176e-08
4.12688e-07
-7.18937e-06
6.09163e-08
6.26357e-07
-8.37969e-06
7.36105e-08
8.39853e-07
-8.97428e-06
8.19971e-08
1.04793e-06
-9.2196e-06
8.7035e-08
1.2487e-06
-9.25992e-06
8.96657e-08
1.44017e-06
-9.15288e-06
9.07236e-08
1.61985e-06
-8.91813e-06
9.07852e-08
1.78509e-06
-8.56164e-06
9.02144e-08
1.93362e-06
-8.08626e-06
8.92096e-08
2.064e-06
-7.49713e-06
8.78454e-08
2.17572e-06
-6.80444e-06
8.61466e-08
2.2691e-06
-6.02292e-06
8.41025e-08
2.34489e-06
-5.16985e-06
8.16567e-08
2.40391e-06
-4.26326e-06
7.87116e-08
2.44668e-06
-3.32083e-06
7.51448e-08
2.47316e-06
-2.35959e-06
7.08318e-08
2.48269e-06
-1.39592e-06
6.56659e-08
2.47406e-06
-4.45933e-07
5.95944e-08
2.4458e-06
4.73706e-07
5.26594e-08
2.39653e-06
1.34746e-06
4.50184e-08
2.32517e-06
2.16606e-06
3.69435e-08
2.23062e-06
2.93088e-06
2.87975e-08
2.11146e-06
3.6556e-06
2.10146e-08
1.96551e-06
4.36579e-06
1.41067e-08
1.78985e-06
5.09563e-06
8.68443e-09
1.5816e-06
5.87975e-06
5.40317e-09
1.34001e-06
6.73551e-06
4.70202e-09
1.07001e-06
7.63017e-06
6.45529e-09
7.85429e-07
8.43685e-06
9.62169e-09
5.06337e-07
8.92555e-06
1.21651e-08
2.54962e-07
8.84197e-06
1.19741e-08
7.1733e-08
7.54332e-06
8.30474e-09
3.78931e-06
2.74712e-09
6.26993e-08
-2.17149e-06
1.79946e-08
2.09079e-07
-5.35242e-06
4.31415e-08
3.99521e-07
-7.44078e-06
6.08333e-08
6.04436e-07
-8.65776e-06
7.30359e-08
8.08293e-07
-9.25927e-06
8.10218e-08
1.00641e-06
-9.50364e-06
8.58205e-08
1.19708e-06
-9.53909e-06
8.83822e-08
1.3784e-06
-9.42384e-06
8.95182e-08
1.548e-06
-9.17762e-06
8.97786e-08
1.70341e-06
-8.80668e-06
8.95126e-08
1.84265e-06
-8.31452e-06
8.89194e-08
1.96456e-06
-7.70722e-06
8.80772e-08
2.06896e-06
-6.99595e-06
8.70083e-08
2.15643e-06
-6.1962e-06
8.5694e-08
2.22801e-06
-5.32561e-06
8.40658e-08
2.28475e-06
-4.40212e-06
8.20089e-08
2.32734e-06
-3.4429e-06
7.93742e-08
2.35577e-06
-2.46415e-06
7.59989e-08
2.36928e-06
-1.48128e-06
7.17276e-08
2.36636e-06
-5.09598e-07
6.64492e-08
2.34502e-06
4.34773e-07
6.01418e-08
2.30323e-06
1.3362e-06
5.29065e-08
2.23928e-06
2.18488e-06
4.49785e-08
2.1516e-06
2.9817e-06
3.67042e-08
2.03842e-06
3.74012e-06
2.85084e-08
1.89749e-06
4.4857e-06
2.08824e-08
1.72615e-06
5.25245e-06
1.43964e-08
1.52217e-06
6.07396e-06
9.68141e-09
1.28583e-06
6.96457e-06
7.26123e-09
1.0232e-06
7.88569e-06
7.18659e-09
7.48771e-07
8.70284e-06
8.67877e-09
4.81678e-07
9.18296e-06
1.01309e-08
2.42247e-07
9.07237e-06
9.77614e-09
6.81799e-08
7.71174e-06
6.79126e-09
3.85691e-06
2.30099e-09
6.07983e-08
-2.25062e-06
1.81705e-08
2.02734e-07
-5.53748e-06
4.29877e-08
3.86819e-07
-7.68504e-06
6.00375e-08
5.8407e-07
-8.92676e-06
7.1608e-08
7.79665e-07
-9.53412e-06
7.91431e-08
9.69312e-07
-9.77711e-06
8.37184e-08
1.15142e-06
-9.80755e-06
8.62547e-08
1.32412e-06
-9.68415e-06
8.75117e-08
1.48516e-06
-9.42676e-06
8.80011e-08
1.63228e-06
-9.04195e-06
8.80528e-08
1.76369e-06
-8.53391e-06
8.78658e-08
1.87852e-06
-7.90967e-06
8.75231e-08
1.97681e-06
-7.18138e-06
8.70472e-08
2.05937e-06
-6.36527e-06
8.64184e-08
2.12744e-06
-5.47935e-06
8.55661e-08
2.18228e-06
-4.54143e-06
8.43689e-08
2.22472e-06
-3.56811e-06
8.26626e-08
2.25485e-06
-2.57464e-06
8.02557e-08
2.27182e-06
-1.57532e-06
7.69486e-08
2.27388e-06
-5.84349e-07
7.25692e-08
2.25856e-06
3.82941e-07
6.70218e-08
2.22324e-06
1.31104e-06
6.03356e-08
2.16562e-06
2.18966e-06
5.26948e-08
2.08366e-06
3.01911e-06
4.44209e-08
1.9753e-06
3.81241e-06
3.59334e-08
1.83828e-06
4.59486e-06
2.77211e-08
1.67023e-06
5.40005e-06
2.0338e-08
1.46956e-06
6.26016e-06
1.43914e-08
1.23757e-06
7.18611e-06
1.04311e-08
9.81371e-07
8.13331e-06
8.65737e-09
7.15932e-07
8.95995e-06
8.55045e-09
4.59478e-07
9.431e-06
8.86149e-09
2.30699e-07
9.29371e-06
8.16922e-09
6.48915e-08
7.87301e-06
5.65738e-09
3.92151e-06
2.00402e-09
5.93819e-08
-2.32854e-06
1.83754e-08
1.9752e-07
-5.7187e-06
4.29271e-08
3.75912e-07
-7.92297e-06
5.93818e-08
5.66102e-07
-9.18742e-06
7.03377e-08
7.53942e-07
-9.7995e-06
7.74068e-08
9.35583e-07
-1.00406e-05
8.17142e-08
1.10958e-06
-1.00658e-05
8.41665e-08
1.27416e-06
-9.93433e-06
8.54864e-08
1.42718e-06
-9.66605e-06
8.61549e-08
1.56655e-06
-9.26791e-06
8.64853e-08
1.69069e-06
-8.74484e-06
8.66747e-08
1.79891e-06
-8.10482e-06
8.68074e-08
1.89148e-06
-7.36097e-06
8.69025e-08
1.96943e-06
-6.53027e-06
8.69356e-08
2.03421e-06
-5.63107e-06
8.68305e-08
2.08728e-06
-4.68108e-06
8.64591e-08
2.12969e-06
-3.69628e-06
8.56459e-08
2.16164e-06
-2.69089e-06
8.41791e-08
2.18228e-06
-1.67791e-06
8.18258e-08
2.18962e-06
-6.70187e-07
7.8363e-08
2.18073e-06
3.18068e-07
7.36262e-08
2.15231e-06
1.27173e-06
6.75696e-08
2.1014e-06
2.18011e-06
6.03144e-08
2.02537e-06
3.04283e-06
5.21454e-08
1.92188e-06
3.87227e-06
4.34708e-08
1.78862e-06
4.6932e-06
3.47811e-08
1.62351e-06
5.53841e-06
2.66288e-08
1.42563e-06
6.43833e-06
1.9609e-08
1.19725e-06
7.40018e-06
1.42801e-08
9.46471e-07
8.3732e-06
1.09409e-08
6.88698e-07
9.20863e-06
9.30318e-09
4.413e-07
9.67038e-06
8.43968e-09
2.21504e-07
9.50694e-06
7.25792e-09
6.24067e-08
8.02819e-06
4.99528e-09
3.98369e-06
1.89405e-09
5.79281e-08
-2.40505e-06
1.83999e-08
1.92651e-07
-5.89591e-06
4.23506e-08
3.66114e-07
-8.15451e-06
5.79574e-08
5.50264e-07
-9.43983e-06
6.81502e-08
7.31497e-07
-1.00555e-05
7.47058e-08
9.06287e-07
-1.02942e-05
7.87625e-08
1.07332e-06
-1.03141e-05
8.11684e-08
1.23092e-06
-1.01746e-05
8.25855e-08
1.37706e-06
-9.89576e-06
8.34556e-08
1.50979e-06
-9.48482e-06
8.40735e-08
1.6277e-06
-8.94748e-06
8.46352e-08
1.73024e-06
-8.29269e-06
8.52289e-08
1.81783e-06
-7.53453e-06
8.58737e-08
1.89164e-06
-6.69073e-06
8.65447e-08
1.95331e-06
-5.78001e-06
8.71659e-08
2.0045e-06
-4.81998e-06
8.76074e-08
2.04643e-06
-3.82601e-06
8.76881e-08
2.07948e-06
-2.81125e-06
8.71817e-08
2.10287e-06
-1.78725e-06
8.58272e-08
2.1145e-06
-7.65287e-07
8.33542e-08
2.11105e-06
2.41857e-07
7.95305e-08
2.08867e-06
1.21975e-06
7.42294e-08
2.0437e-06
2.15744e-06
6.74981e-08
1.97298e-06
3.05383e-06
5.95717e-08
1.87381e-06
3.92046e-06
5.08382e-08
1.74383e-06
4.78124e-06
4.17901e-08
1.58126e-06
5.66786e-06
3.29914e-08
1.38581e-06
6.60864e-06
2.50504e-08
1.16059e-06
7.60682e-06
1.85387e-08
9.14627e-07
8.60541e-06
1.3808e-08
6.63689e-07
9.44902e-06
1.07474e-08
4.24378e-07
9.90138e-06
8.72028e-09
2.12723e-07
9.71233e-06
6.94825e-09
5.99158e-08
8.17732e-06
4.7539e-09
4.0433e-06
1.958e-09
5.69088e-08
-2.48054e-06
1.8399e-08
1.88846e-07
-6.06976e-06
4.17551e-08
3.58074e-07
-8.38042e-06
5.65389e-08
5.3688e-07
-9.68476e-06
6.59863e-08
7.12162e-07
-1.0303e-05
7.20222e-08
8.80711e-07
-1.05387e-05
7.57975e-08
1.04138e-06
-1.0553e-05
7.81158e-08
1.19264e-06
-1.04056e-05
7.95891e-08
1.33254e-06
-1.01164e-05
8.06246e-08
1.45923e-06
-9.69313e-06
8.14992e-08
1.57141e-06
-9.14218e-06
8.24054e-08
1.66867e-06
-8.47349e-06
8.34328e-08
1.75157e-06
-7.70213e-06
8.45976e-08
1.82144e-06
-6.84659e-06
8.5872e-08
1.88011e-06
-5.92597e-06
8.71782e-08
1.92941e-06
-4.95779e-06
8.83854e-08
1.97082e-06
-3.95685e-06
8.93106e-08
2.00489e-06
-2.93516e-06
8.97202e-08
2.03093e-06
-1.90275e-06
8.93356e-08
2.0468e-06
-8.69128e-07
8.78508e-08
2.04884e-06
1.54699e-07
8.49747e-08
2.03263e-06
1.15533e-06
8.05014e-08
1.99378e-06
2.12174e-06
7.43959e-08
1.92852e-06
3.05211e-06
6.68295e-08
1.83374e-06
3.95694e-06
5.81558e-08
1.70699e-06
4.85897e-06
4.88605e-08
1.54678e-06
5.78842e-06
3.95184e-08
1.35341e-06
6.77114e-06
3.0758e-08
1.13083e-06
7.80614e-06
2.31886e-08
8.88857e-07
8.83017e-06
1.72425e-08
6.43565e-07
9.68157e-06
1.29187e-08
4.10937e-07
1.01246e-05
9.77405e-09
2.05965e-07
9.91061e-06
7.34326e-09
5.81211e-08
8.32114e-06
5.06331e-09
4.10076e-06
2.28329e-09
5.60563e-08
-2.55497e-06
1.82039e-08
1.85706e-07
-6.2402e-06
4.06302e-08
3.51408e-07
-8.60061e-06
5.43509e-08
5.25755e-07
-9.92214e-06
6.29196e-08
6.96048e-07
-1.05418e-05
6.83966e-08
8.59352e-07
-1.0774e-05
7.1902e-08
1.01464e-06
-1.07826e-05
7.41553e-08
1.16045e-06
-1.06272e-05
7.5701e-08
1.29499e-06
-1.0328e-05
7.69083e-08
1.41643e-06
-9.89272e-06
7.80356e-08
1.52357e-06
-9.3287e-06
7.9274e-08
1.61609e-06
-8.64684e-06
8.07173e-08
1.69466e-06
-7.8632e-06
8.23825e-08
1.76074e-06
-6.99701e-06
8.42417e-08
1.81627e-06
-6.06783e-06
8.62179e-08
1.86329e-06
-5.0931e-06
8.81821e-08
1.90345e-06
-4.08707e-06
8.99517e-08
1.93756e-06
-3.06067e-06
9.12895e-08
1.96511e-06
-2.02233e-06
9.19035e-08
1.98402e-06
-9.79612e-07
9.14579e-08
1.99048e-06
5.84979e-08
8.96078e-08
1.97957e-06
1.08002e-06
8.60689e-08
1.94626e-06
2.07419e-06
8.07183e-08
1.88609e-06
3.03848e-06
7.3653e-08
1.79548e-06
3.98221e-06
6.5181e-08
1.67185e-06
4.92667e-06
5.57732e-08
1.51392e-06
5.9002e-06
4.60139e-08
1.32255e-06
6.92584e-06
3.65567e-08
1.10249e-06
7.99809e-06
2.80533e-08
8.64254e-07
9.04742e-06
2.10141e-08
6.24198e-07
9.90622e-06
1.55586e-08
3.97723e-07
1.03401e-05
1.1396e-08
1.99038e-07
1.01017e-05
8.25167e-09
5.61308e-08
8.45938e-06
5.68019e-09
4.15579e-06
2.69217e-09
5.53694e-08
-2.62847e-06
1.79534e-08
1.83045e-07
-6.40745e-06
3.94181e-08
3.45652e-07
-8.81545e-06
5.20855e-08
5.16087e-07