/*--------------------------------*- C++ -*----------------------------------*\
| =========                 |                                                 |
| \\      /  F ield         | OpenFOAM: The Open Source CFD Toolbox           |
|  \\    /   O peration     | Version:  v2006                                 |
|   \\  /    A nd           | Website:  www.openfoam.com                      |
|    \\/     M anipulation  |                                                 |
\*---------------------------------------------------------------------------*/
FoamFile
{
    version     2.0;
    format      ascii;
    class       volVectorField;
    location    "71";
    object      U;
}
// * * * * * * * * * * * * * * * * * * * * * * * * * * * * * * * * * * * * * //

dimensions      [0 1 -1 0 0 0 0];


internalField   nonuniform List<vector> 
78750
(
(-0.00505316 -0.00110275 0.00202238)
(-0.00517184 -0.00492742 0.00274117)
(-0.00426706 -0.00665393 0.00317493)
(-0.00231951 -0.0076362 0.0034996)
(-0.000652718 -0.00821347 0.0037517)
(0.00122257 -0.00848845 0.00395309)
(0.00323722 -0.00853993 0.00410865)
(0.00530039 -0.00841858 0.00422468)
(0.00735795 -0.00815928 0.00430656)
(0.00936712 -0.00778628 0.00435838)
(0.0112923 -0.00731723 0.00438324)
(0.0131036 -0.00676582 0.00438342)
(0.0147757 -0.00614336 0.00436065)
(0.0162872 -0.00545928 0.00431632)
(0.0176194 -0.00471869 0.00425282)
(0.0187565 -0.00392915 0.00417238)
(0.0196853 -0.00310362 0.00407622)
(0.0203958 -0.00225529 0.00396542)
(0.0208821 -0.0013964 0.00384105)
(0.0211414 -0.000538413 0.00370424)
(0.0211755 0.000307221 0.00355621)
(0.0209862 0.0011294 0.00339791)
(0.020573 0.00191736 0.00323046)
(0.0199415 0.00266061 0.00305536)
(0.0191043 0.00334847 0.00287416)
(0.0180763 0.00396998 0.00268844)
(0.0168736 0.00451408 0.00250019)
(0.015515 0.00496799 0.0023124)
(0.0140193 0.00531404 0.00212793)
(0.0124049 0.00556991 0.00195271)
(0.0106663 0.0058719 0.00178763)
(0.00872287 0.00658456 0.00160805)
(0.00638431 0.00811283 0.00135192)
(0.00361412 0.00968943 0.000966342)
(0.000898151 0.00732244 0.000485497)
(-0.00020791 -0.000298907 0.00198074)
(0.000105135 -0.00798835 0.00318569)
(0.000480303 -0.0136706 0.00375859)
(0.00119023 -0.017873 0.00399449)
(0.00214074 -0.0207605 0.00407686)
(0.00330017 -0.022561 0.00411015)
(0.00462292 -0.0235129 0.00413341)
(0.00604449 -0.0238131 0.00415195)
(0.00750781 -0.0236 0.00416427)
(0.00897133 -0.0229699 0.00416866)
(0.0104019 -0.0219935 0.0041638)
(0.0117709 -0.0207259 0.00414813)
(0.013053 -0.0192136 0.00411914)
(0.0142246 -0.0174953 0.00407482)
(0.015273 -0.0155968 0.00401929)
(0.0161897 -0.0135362 0.00396079)
(0.016956 -0.0113429 0.00390099)
(0.0175561 -0.00905306 0.00383703)
(0.0179824 -0.00669883 0.00376747)
(0.0182275 -0.00431029 0.00369087)
(0.0182848 -0.00191611 0.00360633)
(0.0181535 0.000456176 0.00351319)
(0.0178337 0.00277913 0.00341065)
(0.0173232 0.00502751 0.00329795)
(0.0166249 0.0071766 0.00317396)
(0.015743 0.00920243 0.00303716)
(0.0146789 0.0110833 0.002886)
(0.0134508 0.0128077 0.00272091)
(0.0120607 0.0144237 0.00255565)
(0.0104847 0.0160814 0.00240518)
(0.00870371 0.0181302 0.00226602)
(0.00666245 0.0211588 0.00210389)
(0.00438395 0.0251642 0.00183605)
(0.00212916 0.0272624 0.00137126)
(0.000262354 0.0186602 0.000667184)
(3.67935e-05 -0.00208761 0.00146258)
(0.000564365 -0.00974285 0.00269619)
(0.0012476 -0.0163614 0.00338006)
(0.00214867 -0.021827 0.00372343)
(0.0031914 -0.0260788 0.00385335)
(0.00431803 -0.0291385 0.00386472)
(0.00548926 -0.0311015 0.00382666)
(0.00667887 -0.0321033 0.00378184)
(0.00786708 -0.0322871 0.00375017)
(0.00903049 -0.0317828 0.00373512)
(0.0101444 -0.0306986 0.00373258)
(0.0111922 -0.0291215 0.00373823)
(0.0121583 -0.0271264 0.00374708)
(0.013026 -0.0247801 0.00375383)
(0.0137826 -0.0221403 0.00375451)
(0.0144176 -0.019256 0.00374694)
(0.0149228 -0.0161686 0.00373075)
(0.0152915 -0.0129175 0.00370623)
(0.0155179 -0.00954174 0.00367353)
(0.0155967 -0.00608033 0.00363266)
(0.015523 -0.00257189 0.00358338)
(0.015293 0.000944766 0.00352527)
(0.0149093 0.00442901 0.00345766)
(0.0143745 0.00784155 0.00337959)
(0.0136883 0.0111465 0.00329036)
(0.0128526 0.0143142 0.00318937)
(0.0118712 0.0173287 0.00307624)
(0.0107481 0.0202079 0.00295169)
(0.0094859 0.0230432 0.00281914)
(0.00807678 0.0260523 0.00267933)
(0.00649356 0.0296232 0.00251945)
(0.00470756 0.0340425 0.00229629)
(0.00290401 0.0382874 0.00195282)
(0.00128114 0.0384772 0.00141614)
(0.000112038 0.0240615 0.00064696)
(2.51267e-05 -0.00558289 0.00134133)
(0.000596699 -0.0170229 0.0025897)
(0.00144932 -0.0260769 0.00321272)
(0.00251669 -0.0328629 0.0034786)
(0.00366534 -0.0375749 0.00355194)
(0.0048105 -0.040548 0.00353668)
(0.00591472 -0.0421496 0.00349342)
(0.00696774 -0.0426807 0.00345178)
(0.0079653 -0.0423548 0.00341975)
(0.00890336 -0.041318 0.0033962)
(0.00977752 -0.0396727 0.00338034)
(0.0105822 -0.0374947 0.00337109)
(0.0113098 -0.0348478 0.00336571)
(0.0119504 -0.0317903 0.00336222)
(0.0124938 -0.0283775 0.00336003)
(0.0129308 -0.0246624 0.00335991)
(0.013254 -0.0206969 0.00336356)
(0.0134582 -0.0165305 0.00337305)
(0.0135402 -0.0122103 0.00339002)
(0.0134988 -0.00778082 0.00341507)
(0.0133338 -0.00328497 0.00344652)
(0.013045 0.00123413 0.00347975)
(0.0126324 0.00573015 0.0035072)
(0.0120962 0.0101519 0.00351914)
(0.0114369 0.0144469 0.00350584)
(0.0106564 0.0185702 0.00346012)
(0.00975828 0.0225043 0.00337961)
(0.00874629 0.0262905 0.00326719)
(0.00762173 0.0300725 0.00312838)
(0.00637748 0.0341301 0.00296364)
(0.00499598 0.0387984 0.00275588)
(0.00347969 0.0439376 0.00246482)
(0.00206753 0.0477488 0.00206763)
(0.000865525 0.0460563 0.00149915)
(5.15537e-05 0.0272209 0.000677133)
(5.05652e-05 -0.00808825 0.00102303)
(0.000587528 -0.0224572 0.00196172)
(0.00137201 -0.033227 0.00238589)
(0.00230444 -0.0407801 0.00254047)
(0.00326741 -0.0456158 0.00256126)
(0.00420055 -0.0483862 0.00252598)
(0.00508733 -0.0496689 0.00247647)
(0.00593496 -0.0498559 0.00243156)
(0.00675176 -0.0491787 0.00239013)
(0.00752942 -0.0477796 0.00234683)
(0.00825659 -0.0457553 0.00229959)
(0.00893283 -0.043158 0.00224893)
(0.00954838 -0.0400296 0.00219584)
(0.0100868 -0.0364283 0.00214062)
(0.0105356 -0.0324167 0.00208631)
(0.010885 -0.0280619 0.00203842)
(0.0111278 -0.0234328 0.00200469)
(0.0112605 -0.0185965 0.00199444)
(0.0112831 -0.0136135 0.00201783)
(0.0111984 -0.00853523 0.0020841)
(0.0110106 -0.00340287 0.00219955)
(0.0107246 0.00174931 0.00236477)
(0.0103457 0.00688861 0.00257182)
(0.00987719 0.0119782 0.00280259)
(0.00931953 0.0169748 0.00303015)
(0.00867121 0.021835 0.00322374)
(0.00792943 0.0265407 0.00335666)
(0.00709027 0.0311421 0.00341297)
(0.00614751 0.035802 0.0033874)
(0.00509206 0.0407891 0.00327635)
(0.00391746 0.0462795 0.00306567)
(0.0026605 0.0516941 0.00273369)
(0.00154215 0.0548418 0.00228798)
(0.000618915 0.0514489 0.0016654)
(2.5773e-05 0.0292314 0.000726832)
(4.07525e-05 -0.0104041 0.000740088)
(0.000484258 -0.0274686 0.00144929)
(0.00113342 -0.0396951 0.00180236)
(0.00190044 -0.0478193 0.00196152)
(0.00268726 -0.0526799 0.00201004)
(0.00344808 -0.0552407 0.00200201)
(0.00417545 -0.0562548 0.00196995)
(0.0048869 -0.0561654 0.00192809)
(0.00558528 -0.0551906 0.00187507)
(0.00625091 -0.0534605 0.00181113)
(0.00688293 -0.0510404 0.0017353)
(0.00747639 -0.0479598 0.00164571)
(0.00801294 -0.0442692 0.00154064)
(0.00847857 -0.0400305 0.00142036)
(0.00886101 -0.0353226 0.0012872)
(0.00915034 -0.0302387 0.00114617)
(0.00934023 -0.024879 0.0010056)
(0.00942851 -0.0193424 0.000877386)
(0.00941696 -0.013717 0.000776771)
(0.00931054 -0.00807401 0.000721935)
(0.00911628 -0.00246457 0.000732395)
(0.00884234 0.00307911 0.000825596)
(0.00849676 0.00853981 0.00101196)
(0.0080859 0.0139103 0.00128921)
(0.00761293 0.0191885 0.00163802)
(0.00707662 0.0243788 0.00202201)
(0.0064709 0.0295102 0.0023944)
(0.00578545 0.0346713 0.00270878)
(0.0050074 0.0400382 0.00292622)
(0.00412526 0.0458212 0.00301292)
(0.00313898 0.0519745 0.00293535)
(0.00210834 0.0575175 0.00267336)
(0.00120839 0.060099 0.00224672)
(0.000472187 0.0553085 0.00161314)
(1.912e-05 0.0305859 0.000654149)
(3.89305e-05 -0.0122039 0.000556319)
(0.000400916 -0.0313757 0.0011463)
(0.000929812 -0.0447364 0.00148148)
(0.00155686 -0.0533272 0.00165992)
(0.00220273 -0.0582572 0.00173554)
(0.00283129 -0.0607271 0.00175273)
(0.0034411 -0.0616068 0.00174078)
(0.00404566 -0.0613586 0.00171225)
(0.00463884 -0.0601904 0.00167353)
(0.00520956 -0.0582099 0.00162403)
(0.00575696 -0.0554546 0.00156104)
(0.0062679 -0.0519559 0.00148335)
(0.00672953 -0.0477568 0.00138961)
(0.00712942 -0.0429263 0.00127887)
(0.00745639 -0.0375629 0.00115131)
(0.00770171 -0.0317885 0.00100882)
(0.00786006 -0.0257355 0.000855542)
(0.00792969 -0.0195333 0.000698734)
(0.00791267 -0.0132966 0.000549577)
(0.00781438 -0.0071162 0.000423501)
(0.00764192 -0.00105577 0.000339945)
(0.00740473 0.00484765 0.000320728)
(0.00711259 0.0105811 0.000386582)
(0.0067717 0.0161567 0.000551644)
(0.0063845 0.0216075 0.000817046)
(0.0059483 0.026988 0.00116596)
(0.00545462 0.0323849 0.00156327)
(0.00489005 0.0379362 0.00196044)
(0.00423939 0.0438302 0.00230131)
(0.00349124 0.0502021 0.00252446)
(0.00264917 0.0567905 0.00256835)
(0.00178405 0.0623131 0.00239727)
(0.00102769 0.0643924 0.00202563)
(0.000402369 0.0583992 0.00142901)
(2.15316e-05 0.0316944 0.000542911)
(2.84038e-05 -0.01366 0.000415036)
(0.000316933 -0.034598 0.000913174)
(0.000754525 -0.0489711 0.00123778)
(0.00128721 -0.0580427 0.00143396)
(0.00184496 -0.0631124 0.00153216)
(0.00239438 -0.0655644 0.00156907)
(0.00293622 -0.0663655 0.00157183)
(0.00347435 -0.065997 0.00155211)
(0.00400375 -0.0646641 0.00151735)
(0.00451797 -0.0624502 0.00146637)
(0.00500911 -0.0593858 0.0013995)
(0.00546746 -0.0554923 0.00131644)
(0.00588218 -0.050812 0.00121626)
(0.00624266 -0.0454253 0.00109812)
(0.00653953 -0.0394503 0.000961767)
(0.00676516 -0.0330332 0.000807983)
(0.00691415 -0.0263349 0.000639445)
(0.00698395 -0.0195154 0.000461944)
(0.00697506 -0.0127185 0.000285495)
(0.00689144 -0.00606067 0.000124855)
(0.00674058 0.000375652 -9.29297e-07)
(0.00653111 0.00654602 -7.01045e-05)
(0.00627233 0.0124477 -6.09383e-05)
(0.00597307 0.0181205 4.39928e-05)
(0.00563787 0.0236414 0.000252777)
(0.00526497 0.0291202 0.000559399)
(0.004845 0.0347026 0.000940796)
(0.00436275 0.0405734 0.00135643)
(0.0038014 0.0469266 0.00174897)
(0.00314832 0.0538211 0.00204589)
(0.0024055 0.0608051 0.00216946)
(0.00164376 0.0663636 0.00207085)
(0.000966766 0.0680969 0.00175852)
(0.000391001 0.0611412 0.00121984)
(2.88145e-05 0.0327734 0.00043897)
(2.374e-05 -0.0148589 0.000363104)
(0.000272179 -0.0373573 0.000858676)
(0.000660084 -0.0526982 0.00120566)
(0.00113955 -0.0622845 0.0014241)
(0.00164541 -0.0675562 0.00153887)
(0.00214599 -0.0700522 0.00158751)
(0.00264182 -0.070823 0.00159903)
(0.00313495 -0.0703718 0.00158715)
(0.00361954 -0.0689033 0.00155775)
(0.00408876 -0.0664916 0.0015139)
(0.00453565 -0.0631577 0.00145719)
(0.00495197 -0.0589166 0.00138791)
(0.00532886 -0.0538112 0.00130514)
(0.00565805 -0.047929 0.00120711)
(0.00593226 -0.0414 0.00109149)
(0.0061455 -0.0343856 0.000955846)
(0.00629295 -0.0270643 0.000798639)
(0.0063714 -0.019617 0.000620627)
(0.00638007 -0.0122123 0.000426768)
(0.00632047 -0.00499451 0.000227963)
(0.00619671 0.00192432 4.20759e-05)
(0.00601563 0.00847286 -0.000106902)
(0.00578612 0.0146362 -0.000191961)
(0.0055168 0.0204645 -0.000188025)
(0.00521295 0.0260693 -7.75151e-05)
(0.00487386 0.0316143 0.000144568)
(0.00449271 0.0373085 0.000466411)
(0.00405665 0.0433915 0.000855641)
(0.0035489 0.0500747 0.00125648)
(0.00295561 0.0573599 0.00159011)
(0.0022754 0.0646441 0.00176749)
(0.00157576 0.0702319 0.00172876)
(0.000941642 0.0716829 0.00147739)
(0.000388315 0.0638707 0.0010107)
(3.11492e-05 0.0339259 0.000348346)
(1.9566e-05 -0.0159227 0.000324418)
(0.000244334 -0.0398708 0.000795489)
(0.000605045 -0.0561411 0.00113483)
(0.00105617 -0.0662392 0.00135338)
(0.00153392 -0.0717247 0.00147187)
(0.00200701 -0.0742773 0.00152482)
(0.00247581 -0.0750272 0.00153964)
(0.00294151 -0.0745007 0.00152991)
(0.00339745 -0.072904 0.00150191)
(0.00383657 -0.0703057 0.00145927)
(0.00425222 -0.0667213 0.00140425)
(0.00463694 -0.062163 0.00133802)
(0.00498327 -0.0566774 0.0012607)
(0.00528463 -0.0503602 0.00117155)
(0.00553568 -0.0433522 0.00106913)
(0.00573215 -0.0358268 0.000951606)
(0.00587064 -0.0279752 0.000817172)
(0.00594843 -0.0199917 0.000664856)
(0.00596378 -0.0120606 0.000495784)
(0.00591743 -0.00434304 0.000314978)
(0.00581273 0.00302722 0.000133273)
(0.00565432 0.00995821 -3.15274e-05)
(0.00544916 0.0164219 -0.000155746)
(0.00520462 0.0224694 -0.000213357)
(0.00492578 0.0282308 -0.000181098)
(0.00461288 0.0339064 -4.3831e-05)
(0.00425956 0.0397542 0.00019979)
(0.00385457 0.0460609 0.000530553)
(0.00338342 0.053059 0.000901346)
(0.00283128 0.0607118 0.0012348)
(0.00219336 0.0682958 0.00143687)
(0.00153366 0.0739596 0.00143937)
(0.00092523 0.0751924 0.00124037)
(0.000384329 0.0666001 0.000842945)
(3.13004e-05 0.0351115 0.000283586)
(1.82265e-05 -0.0169181 0.000320486)
(0.000233701 -0.0422774 0.000808205)
(0.000581957 -0.0594716 0.00116313)
(0.00101705 -0.0700841 0.00139165)
(0.00147578 -0.0757895 0.00151548)
(0.00192814 -0.0784058 0.00157135)
(0.00237533 -0.07914 0.00158795)
(0.00281839 -0.0785414 0.0015797)
(0.00325038 -0.0768187 0.0015536)
(0.00366434 -0.0740378 0.00151388)
(0.00405391 -0.0702107 0.00146327)
(0.00441229 -0.0653495 0.0014032)
(0.00473306 -0.0595049 0.00133363)
(0.005011 -0.05278 0.00125324)
(0.00524224 -0.0453238 0.00115971)
(0.00542395 -0.0373178 0.00105021)
(0.00555387 -0.0289608 0.000922122)
(0.00563006 -0.0204565 0.000773871)
(0.00565109 -0.0120006 0.000605952)
(0.00561605 -0.0037715 0.000422205)
(0.0055261 0.00407566 0.000231435)
(0.00538479 0.0114256 4.85708e-05)
(0.00519753 0.0182333 -0.00010568)
(0.0049703 0.0245462 -0.000207242)
(0.00470768 0.0305071 -0.000232379)
(0.00441062 0.0363452 -0.000161866)
(0.00407441 0.042359 1.36979e-05)
(0.00368891 0.0488767 0.000285837)
(0.00324102 0.0561519 0.00061769)
(0.00271686 0.0641196 0.000937762)
(0.00210972 0.0719573 0.00115183)
(0.00148147 0.0776772 0.0011862)
(0.000895584 0.0786895 0.00103358)
(0.000369999 0.0693219 0.000700632)
(2.89417e-05 0.0362917 0.000231187)
(1.77206e-05 -0.017892 0.000316123)
(0.000228806 -0.0446382 0.000798941)
(0.00056937 -0.0627241 0.0011457)
(0.000992327 -0.0738179 0.00136675)
(0.0014351 -0.0797195 0.00148586)
(0.00186926 -0.0823858 0.00153931)
(0.00229687 -0.0830966 0.00155463)
(0.00271889 -0.0824215 0.00154584)
(0.00312825 -0.0805719 0.00152003)
(0.00351808 -0.0776115 0.00148178)
(0.00388229 -0.0735512 0.00143437)
(0.00421466 -0.0684058 0.00137983)
(0.00450963 -0.0622329 0.00131873)
(0.00476316 -0.0551445 0.00125014)
(0.00497265 -0.0472987 0.00117185)
(0.00513652 -0.0388835 0.00108068)
(0.00525369 -0.030102 0.000973125)
(0.00532321 -0.021161 0.000846195)
(0.00534427 -0.0122601 0.000698385)
(0.00531616 -0.00358471 0.000530958)
(0.00523891 0.00469711 0.000349448)
(0.00511378 0.0124532 0.000165263)
(0.00494464 0.0196241 -3.85121e-06)
(0.00473635 0.0262491 -0.000135606)
(0.00449193 0.0324745 -0.00020604)
(0.00421182 0.0385467 -0.00019308)
(0.00389198 0.0447923 -8.13427e-05)
(0.00352332 0.0515706 0.000129734)
(0.00309447 0.0591502 0.000413707)
(0.0025933 0.0674404 0.000707561)
(0.00201301 0.075529 0.000920512)
(0.0014145 0.0813024 0.000975865)
(0.000853375 0.0820928 0.000861009)
(0.000348663 0.0719586 0.000583847)
(2.58027e-05 0.0374209 0.000189611)
(1.75466e-05 -0.0188485 0.000322494)
(0.000226203 -0.0469578 0.000818876)
(0.000560212 -0.0659102 0.00117329)
(0.000971742 -0.0774612 0.00139695)
(0.00139915 -0.0835423 0.00151591)
(0.00181587 -0.0862497 0.00156863)
(0.00222498 -0.0869312 0.00158342)
(0.00262744 -0.0861751 0.00157456)
(0.0030161 -0.0841946 0.00154945)
(0.00338423 -0.0810521 0.00151299)
(0.00372601 -0.0767587 0.00146867)
(0.00403575 -0.0713332 0.00141862)
(0.00430876 -0.0648411 0.00136321)
(0.00454196 -0.0574036 0.00130108)
(0.00473373 -0.0491866 0.00122941)
(0.00488337 -0.0403835 0.00114442)
(0.00499047 -0.0312012 0.00104223)
(0.0050546 -0.0218487 0.00091974)
(0.00507519 -0.0125287 0.000775604)
(0.00505152 -0.00343224 0.000611134)
(0.00498332 0.00526219 0.000431213)
(0.00487124 0.0134091 0.000245304)
(0.00471706 0.0209376 6.8032e-05)
(0.00452365 0.027882 -8.13974e-05)
(0.00429356 0.0343914 -0.000181051)
(0.00402677 0.040725 -0.000208837)
(0.00371946 0.0472307 -0.000146463)
(0.0033638 0.0542889 1.28488e-05)
(0.00294972 0.0621759 0.000251609)
(0.00246664 0.0707694 0.000516162)
(0.00190965 0.0790713 0.00072178)
(0.00133987 0.0848578 0.000791382)
(0.00080522 0.0853973 0.000708093)
(0.000324798 0.0744866 0.000480208)
(2.28252e-05 0.0384848 0.000152576)
(1.75848e-05 -0.0198087 0.000328703)
(0.000223281 -0.0492708 0.000828345)
(0.000549277 -0.0690591 0.00117671)
(0.000947424 -0.081031 0.00139138)
(0.00135737 -0.0872645 0.00150291)
(0.00175468 -0.0899977 0.00155091)
(0.00214337 -0.090642 0.00156303)
(0.00252442 -0.0898005 0.00155322)
(0.00289077 -0.087688 0.00152896)
(0.00323597 -0.0843661 0.0014955)
(0.00355453 -0.0798483 0.00145679)
(0.00384135 -0.0741596 0.00141542)
(0.00409256 -0.0673751 0.001372)
(0.00430597 -0.0596261 0.00132508)
(0.00448086 -0.0510853 0.00127115)
(0.00461727 -0.0419498 0.00120525)
(0.00471543 -0.0324267 0.00112176)
(0.00477533 -0.0227235 0.00101568)
(0.0047966 -0.0130419 0.000883909)
(0.00477846 -0.00357378 0.000726544)
(0.00472019 0.00549684 0.000547872)
(0.00462168 0.0140148 0.000357053)
(0.00448369 0.0218999 0.000168166)
(0.00430736 0.0291809 -5.90938e-07)
(0.0040933 0.0360084 -0.000128237)
(0.00384101 0.0426499 -0.000192823)
(0.00354709 0.0494666 -0.000174723)
(0.00320434 0.0568519 -6.32778e-05)
(0.00280408 0.0650796 0.000130896)
(0.00233784 0.0739898 0.000362818)
(0.00180327 0.0824972 0.000554919)
(0.00126207 0.088279 0.000631773)
(0.000755191 0.0885555 0.00057353)
(0.000300867 0.0768792 0.000388421)
(2.01837e-05 0.0394775 0.000119898)
(1.69785e-05 -0.0207456 0.000337919)
(0.000218582 -0.0515139 0.000847357)
(0.000535821 -0.0720962 0.00119718)
(0.000920689 -0.0844579 0.0014089)
(0.00131416 -0.0908263 0.00151653)
(0.00169369 -0.0935772 0.0015616)
(0.00206402 -0.0941802 0.00157198)
(0.00242604 -0.0932512 0.00156161)
(0.00277273 -0.091006 0.00153814)
(0.00309785 -0.087506 0.00150705)
(0.00339629 -0.082768 0.00147259)
(0.00366355 -0.0768242 0.0014375)
(0.0038965 -0.0697601 0.00140245)
(0.00409377 -0.0617161 0.00136581)
(0.00425532 -0.0528717 0.0013238)
(0.00438175 -0.0434267 0.00127091)
(0.00447366 -0.033588 0.00120076)
(0.00453124 -0.0235611 0.00110726)
(0.00455409 -0.0135455 0.000986022)
(0.00454123 -0.00373304 0.000835783)
(0.00449146 0.00568831 0.000659625)
(0.004404 0.0145561 0.000465804)
(0.00427874 0.022783 0.0002677)
(0.00411596 0.0303946 8.28182e-05)
(0.00391546 0.0375434 -6.85429e-05)
(0.00367543 0.0445054 -0.000164732)
(0.00339185 0.0516523 -0.000185211)
(0.0030587 0.0593825 -0.000116567)
(0.00266924 0.0679577 3.58962e-05)
(0.00221721 0.0771716 0.000234784)
(0.00170289 0.0858511 0.000409994)
(0.0011885 0.091591 0.000489335)
(0.000708397 0.0915815 0.000451427)
(0.000279307 0.0791437 0.000304627)
(1.81709e-05 0.0404054 9.04929e-05)
(1.67223e-05 -0.0216856 0.000348459)
(0.000213798 -0.0537528 0.000864062)
(0.000521067 -0.075107 0.00120794)
(0.000891101 -0.0878318 0.00140939)
(0.00126666 -0.0943153 0.0015082)
(0.00162726 -0.0970732 0.00154756)
(0.00197829 -0.0976296 0.00155483)
(0.00232049 -0.0966109 0.00154359)
(0.00264699 -0.0942335 0.00152158)
(0.00295187 -0.0905602 0.00149462)
(0.00323041 -0.0856126 0.00146735)
(0.00347872 -0.0794322 0.00144286)
(0.00369439 -0.072115 0.00142193)
(0.00387676 -0.0638107 0.00140275)
(0.00402643 -0.0547041 0.00138091)
(0.00414451 -0.0449956 0.00134982)
(0.00423195 -0.034889 0.00130155)
(0.00428911 -0.0245848 0.00122811)
(0.00431553 -0.0142772 0.00112304)
(0.00430988 -0.00415491 0.00098322)
(0.00427038 0.00559332 0.000810396)
(0.00419541 0.0147996 0.000612274)
(0.00408387 0.0233701 0.000402356)
(0.00393505 0.0313262 0.000198539)
(0.00374796 0.0388211 2.14424e-05)
(0.00352031 0.0461354 -0.000107024)
(0.00324784 0.0536473 -0.000165684)
(0.0029249 0.0617556 -0.000139191)
(0.00254611 0.0707029 -2.86486e-05)
(0.00210731 0.0802297 0.000135219)
(0.00161173 0.0890742 0.000289668)
(0.0011221 0.0947608 0.000366701)
(0.000666897 0.0944628 0.000344413)
(0.000260917 0.0812868 0.000231254)
(1.66957e-05 0.041278 6.56975e-05)
(1.58814e-05 -0.0225922 0.0003583)
(0.000207464 -0.0558973 0.000878868)
(0.00050473 -0.0779751 0.00121757)
(0.000861134 -0.0910317 0.00141047)
(0.00122092 -0.0976154 0.00150189)
(0.00156519 -0.100375 0.00153634)
(0.00189971 -0.100883 0.00154077)
(0.00222498 -0.0997748 0.00152849)
(0.00253425 -0.0972677 0.00150732)
(0.00282191 -0.093426 0.00148332)
(0.00308364 -0.0882769 0.00146142)
(0.00331611 -0.0818714 0.00144496)
(0.00351752 -0.0743163 0.00143492)
(0.00368783 -0.0657702 0.00142959)
(0.00382811 -0.0564231 0.00142456)
(0.00393987 -0.0464759 0.00141299)
(0.00402436 -0.0361284 0.00138623)
(0.00408203 -0.0255751 0.0013349)
(0.00411235 -0.0150035 0.00125053)
(0.00411364 -0.00459746 0.00112745)
(0.00408347 0.00545513 0.000964924)
(0.00401941 0.0149825 0.000768818)
(0.00391943 0.023885 0.000551911)
(0.00378198 0.0321809 0.000332337)
(0.00360538 0.040024 0.000131464)
(0.003387 0.0476992 -2.79081e-05)
(0.00312268 0.055588 -0.00012352)
(0.00280742 0.0640844 -0.000138149)
(0.00243703 0.0734051 -6.92323e-05)
(0.00200929 0.0832315 5.85283e-05)
(0.00153026 0.0922137 0.000189573)
(0.00106284 0.0978219 0.000260793)
(0.000630091 0.0972245 0.000250481)
(0.000244922 0.0833244 0.00016721)
(1.54795e-05 0.042103 4.51476e-05)
(1.53372e-05 -0.0235004 0.000369186)
(0.000202022 -0.0580404 0.000893527)
(0.000489798 -0.0808288 0.00122334)
(0.000832732 -0.0942 0.00140364)
(0.00117673 -0.100871 0.0014848)
(0.00150471 -0.103625 0.00151272)
(0.00182285 -0.104081 0.00151358)
(0.0021315 -0.102883 0.00150024)
(0.00242404 -0.100249 0.00148057)
(0.00269517 -0.0962449 0.00146091)
(0.00294097 -0.0909063 0.00144646)
(0.00315858 -0.0842939 0.0014408)
(0.00334678 -0.0765256 0.00144501)
(0.003506 -0.0677684 0.00145728)
(0.00363781 -0.0582162 0.00147292)
(0.00374412 -0.0480687 0.00148456)
(0.00382651 -0.0375203 0.0014827)
(0.00388565 -0.0267565 0.00145666)
(0.00392094 -0.0159553 0.00139608)
(0.0039304 -0.00529273 0.00129296)
(0.00391091 0.00504779 0.00114397)
(0.00385903 0.0148922 0.000952825)
(0.00377163 0.0241344 0.000731159)
(0.00364618 0.0327874 0.000497102)
(0.0034803 0.0410031 0.000272822)
(0.00327098 0.0490672 8.22844e-05)
(0.00301421 0.0573617 -5.08748e-05)
(0.00270571 0.0662716 -0.00010744)
(0.00234264 0.0759829 -8.1371e-05)
(0.00192465 0.0861146 8.28064e-06)
(0.00146036 0.0952303 0.00011298)
(0.00101253 0.100758 0.00017486)
(0.000599436 0.0998669 0.000172673)
(0.000232083 0.0852698 0.000114797)
(1.47329e-05 0.0428898 2.96421e-05)
(1.44646e-05 -0.024373 0.000377077)
(0.000195997 -0.0600843 0.00089951)
(0.000474883 -0.0835344 0.00121718)
(0.000805869 -0.0971889 0.00138377)
(0.00113623 -0.103932 0.00145455)
(0.00145031 -0.106675 0.00147589)
(0.00175456 -0.107079 0.00147293)
(0.0020491 -0.105792 0.00145803)
(0.00232744 -0.103034 0.00143904)
(0.00258457 -0.0988736 0.00142247)
(0.00281693 -0.0933536 0.00141379)
(0.00302209 -0.0865456 0.00141683)
(0.00319925 -0.078578 0.00143291)
(0.00334926 -0.0696265 0.00146046)
(0.00347401 -0.0598892 0.00149497)
(0.00357577 -0.0495651 0.00152912)
(0.00365641 -0.0388428 0.00155303)
(0.0037168 -0.0278982 0.00155509)
(0.0037564 -0.0168981 0.00152315)
(0.00377298 -0.00600786 0.00144659)
(0.0037628 0.00459589 0.00131886)
(0.00372152 0.0147392 0.00114057)
(0.00364497 0.0243108 0.000921233)
(0.00352966 0.0333181 0.000678293)
(0.00337257 0.04191 0.000434502)
(0.00317042 0.0503715 0.000215157)
(0.0029194 0.0590816 4.56294e-05)
(0.00261602 0.0684117 -5.25498e-05)
(0.00225874 0.0785124 -6.97441e-05)
(0.00184903 0.0889365 -1.94429e-05)
(0.0013978 0.0981645 5.68148e-05)
(0.000967377 0.103595 0.000106673)
(0.000571749 0.102408 0.000109398)
(0.000220378 0.0871317 7.28592e-05)
(1.39214e-05 0.0436411 1.8516e-05)
(1.39122e-05 -0.0252482 0.000384988)
(0.00019128 -0.062132 0.000904779)
(0.000462414 -0.0862364 0.00120868)
(0.000782501 -0.100162 0.00135983)
(0.00110011 -0.106968 0.00141897)
(0.00140109 -0.109696 0.00143305)
(0.00169221 -0.110045 0.00142603)
(0.00197343 -0.108669 0.00140969)
(0.00223841 -0.10579 0.00139182)
(0.00248244 -0.101481 0.00137912)
(0.00270227 -0.0957914 0.00137723)
(0.00289583 -0.0888043 0.00139015)
(0.00306269 -0.0806586 0.00141929)
(0.00320405 -0.0715379 0.00146313)
(0.00332216 -0.0616441 0.0015172)
(0.00341963 -0.0511745 0.00157413)
(0.00349871 -0.0403108 0.00162387)
(0.00356056 -0.0292177 0.0016542)
(0.00360473 -0.0180484 0.00165177)
(0.00362885 -0.00695471 0.00160379)
(0.00362859 0.00389748 0.00150074)
(0.00359865 0.0143367 0.00133981)
(0.00353364 0.0242458 0.0011277)
(0.00342901 0.033625 0.000880379)
(0.00328095 0.0426168 0.000620588)
(0.00308587 0.0515016 0.0003747)
(0.0028402 0.0606524 0.000169872)
(0.0025412 0.0704235 3.01426e-05)
(0.00218869 0.080927 -3.10749e-05)
(0.00178583 0.0916487 -2.16214e-05)
(0.00134575 0.100989 2.40244e-05)
(0.000930188 0.106327 5.91259e-05)
(0.000549368 0.104854 6.32506e-05)
(0.000211272 0.0889226 4.32068e-05)
(1.3545e-05 0.0443638 1.23478e-05)
(1.32624e-05 -0.0260903 0.000388587)
(0.000186675 -0.0640866 0.000898114)
(0.000451013 -0.0887979 0.00118336)
(0.000761751 -0.102963 0.00131673)
(0.00106847 -0.109817 0.00136334)
(0.00135825 -0.112523 0.00136966)
(0.00163813 -0.112815 0.00135807)
(0.0019079 -0.111352 0.00133962)
(0.00216141 -0.108354 0.00132201)
(0.00239422 -0.103901 0.00131202)
(0.00260334 -0.0980485 0.0013155)
(0.00278695 -0.0908909 0.00133666)
(0.00294491 -0.082578 0.00137717)
(0.00307864 -0.0733018 0.00143583)
(0.00319067 -0.0632685 0.00150844)
(0.00328393 -0.0526747 0.00158787)
(0.00336097 -0.0416954 0.00166411)
(0.00342328 -0.0304838 0.0017246)
(0.00347063 -0.0191778 0.00175491)
(0.00350066 -0.00791318 0.00174025)
(0.00350864 0.00315848 0.00166799)
(0.00348847 0.0138716 0.00153155)
(0.00343367 0.0241056 0.00133411)
(0.00333858 0.033853 0.00108937)
(0.00319859 0.0432487 0.000819419)
(0.00300977 0.0525657 0.000551401)
(0.00276872 0.0621666 0.000314244)
(0.00247349 0.0723848 0.000134663)
(0.00212508 0.0832895 3.00468e-05)
(0.00172824 0.0942978 -1.66192e-06)
(0.00129812 0.103734 1.21991e-05)
(0.000895843 0.10897 3.05664e-05)
(0.000528303 0.107211 3.30368e-05)
(0.000202398 0.0906436 2.48412e-05)
(1.29984e-05 0.0450572 1.05109e-05)
(1.28676e-05 -0.0269372 0.000391354)
(0.000183252 -0.0660497 0.000889897)
(0.000441927 -0.0913628 0.0011561)
(0.000744501 -0.105758 0.00127145)
(0.00104144 -0.11265 0.00130538)
(0.00132106 -0.115329 0.00130385)
(0.0015907 -0.115563 0.00128768)
(0.00185004 -0.114013 0.00126723)
(0.00209313 -0.110901 0.00125002)
(0.00231575 -0.10631 0.00124288)
(0.00251506 -0.100305 0.00125179)
(0.00268949 -0.0929912 0.0012811)
(0.00283912 -0.0845279 0.00133262)
(0.00296563 -0.0751157 0.00140534)
(0.00307184 -0.0649649 0.00149529)
(0.00316098 -0.0542706 0.00159564)
(0.00323594 -0.0432011 0.00169664)
(0.00329858 -0.0318972 0.00178574)
(0.00334895 -0.0204803 0.001848)
(0.00338474 -0.00906745 0.00186718)
(0.00340097 0.0022072 0.00182799)
(0.00339074 0.0131873 0.00172006)
(0.00334643 0.0237498 0.00154257)
(0.00326118 0.0338788 0.00130617)
(0.00312946 0.0436982 0.00103147)
(0.0029469 0.0534702 0.000745774)
(0.0027103 0.0635434 0.000479483)
(0.00241842 0.0742267 0.000261963)
(0.00207345 0.0855444 0.000114694)
(0.00168153 0.0968449 4.15614e-05)
(0.00125969 0.10638 2.25152e-05)
(0.000868437 0.111521 2.21748e-05)
(0.000511813 0.109487 1.98084e-05)
(0.000195728 0.0923049 1.8472e-05)
(1.2903e-05 0.0457259 1.32719e-05)
(1.25902e-05 -0.0277552 0.000389381)
(0.000180458 -0.0679283 0.000869)
(0.000434431 -0.0937981 0.0011111)
(0.000730192 -0.108392 0.00120601)
(0.00101892 -0.115307 0.00122632)
(0.00129002 -0.117951 0.00121645)
(0.00155105 -0.118124 0.00119519)
(0.00180155 -0.116487 0.00117202)
(0.00203569 -0.113264 0.00115429)
(0.00224949 -0.108538 0.00114888)
(0.00244023 -0.102386 0.00116191)
(0.00260651 -0.0949203 0.00119796)
(0.00274857 -0.0863143 0.00125914)
(0.00286831 -0.0767767 0.00134472)
(0.00296872 -0.0665224 0.00145112)
(0.00305329 -0.055746 0.00157189)
(0.00312524 -0.0446097 0.00169765)
(0.00318679 -0.0332421 0.00181603)
(0.00323838 -0.021747 0.00191177)
(0.00327794 -0.0102206 0.00196744)
(0.00330047 0.00122427 0.00196533)
(0.00329852 0.0124448 0.00189128)
(0.0032635 0.0233189 0.00174016)
(0.00318733 0.0338228 0.00151896)
(0.00306344 0.0440685 0.00124614)
(0.00288691 0.0543035 0.000948626)
(0.0026546 0.0648583 0.000657988)
(0.00236596 0.0760127 0.00040612)
(0.00202428 0.0877427 0.000218582)
(0.00163701 0.0993269 0.000105225)
(0.00122292 0.108948 5.33021e-05)
(0.000841825 0.113989 3.3037e-05)
(0.00049531 0.111684 2.30489e-05)
(0.000188662 0.0939033 2.36804e-05)
(1.25551e-05 0.0463678 2.03259e-05)
(1.23857e-05 -0.0285793 0.00038616)
(0.000178129 -0.0698165 0.00084603)
(0.000428011 -0.0962377 0.00106428)
(0.00071779 -0.111021 0.00113938)
(0.000999356 -0.11795 0.00114665)
(0.00126325 -0.120556 0.00112881)
(0.00151718 -0.120665 0.00110261)
(0.00176025 -0.118942 0.00107667)
(0.00198666 -0.11561 0.0010582)
(0.00219264 -0.110756 0.00105413)
(0.00237569 -0.104462 0.00107067)
(0.00253456 -0.0968561 0.00111253)
(0.0026697 -0.0881198 0.001182)
(0.00278315 -0.0784708 0.0012786)
(0.00287811 -0.0681283 0.00139913)
(0.00295827 -0.0572866 0.00153763)
(0.00302717 -0.0461019 0.00168532)
(0.00308738 -0.0346908 0.00183033)
(0.00313971 -0.0231393 0.00195759)
(0.00318242 -0.0115215 0.00204902)
(0.00321062 7.35721e-05 0.00208496)
(0.00321645 0.0115208 0.00204774)
(0.0031904 0.0227025 0.0019276)
(0.00312317 0.0335872 0.00172726)
(0.00300705 0.044273 0.00146227)
(0.00283646 0.0549896 0.00115852)
(0.00260824 0.0660451 0.000848317)
(0.00232246 0.0776866 0.000565867)
(0.00198345 0.0898395 0.000340702)
(0.00159992 0.101713 0.000188581)
(0.00119226 0.111424 0.000104032)
(0.000819657 0.116371 6.27891e-05)