/*--------------------------------*- C++ -*----------------------------------*\
| =========                 |                                                 |
| \\      /  F ield         | OpenFOAM: The Open Source CFD Toolbox           |
|  \\    /   O peration     | Version:  v2012                                 |
|   \\  /    A nd           | Website:  www.openfoam.com                      |
|    \\/     M anipulation  |                                                 |
\*---------------------------------------------------------------------------*/
FoamFile
{
    version     2.0;
    format      ascii;
    class       volVectorField;
    location    "70";
    object      U;
}
// * * * * * * * * * * * * * * * * * * * * * * * * * * * * * * * * * * * * * //

dimensions      [0 1 -1 0 0 0 0];


internalField   nonuniform List<vector> 
78750
(
(-1.60667e-06 -7.04685e-05 0.000125855)
(-4.33958e-06 -9.81713e-05 0.000219873)
(-1.25908e-05 -0.000100433 0.000268139)
(-2.50755e-05 -9.26455e-05 0.000301539)
(-4.17592e-05 -7.92635e-05 0.000323354)
(-6.19745e-05 -6.29308e-05 0.000336219)
(-8.49051e-05 -4.56027e-05 0.000342035)
(-0.000109655 -2.85121e-05 0.000342306)
(-0.000135423 -1.26122e-05 0.00033811)
(-0.00016144 1.63138e-06 0.000330357)
(-0.00018704 1.38205e-05 0.000319679)
(-0.000211586 2.38767e-05 0.000306657)
(-0.000234582 3.16809e-05 0.000291664)
(-0.000255513 3.73381e-05 0.000275184)
(-0.00027394 4.08491e-05 0.000257542)
(-0.000289586 4.24215e-05 0.000239004)
(-0.000302173 4.21129e-05 0.000219794)
(-0.000311405 4.01044e-05 0.000200386)
(-0.000317184 3.6491e-05 0.00018101)
(-0.000319354 3.14794e-05 0.000162064)
(-0.000317862 2.51755e-05 0.000143873)
(-0.000312695 1.77793e-05 0.000126808)
(-0.000303882 9.40515e-06 0.000111199)
(-0.000291512 2.59732e-07 9.73897e-05)
(-0.000275702 -9.50337e-06 8.56565e-05)
(-0.000256628 -1.96282e-05 7.62465e-05)
(-0.000234505 -2.9863e-05 6.92976e-05)
(-0.000209574 -3.98215e-05 6.485e-05)
(-0.000182144 -4.90713e-05 6.27965e-05)
(-0.000152584 -5.69812e-05 6.28088e-05)
(-0.000121205 -6.27631e-05 6.42366e-05)
(-8.82164e-05 -6.5297e-05 6.59684e-05)
(-5.47064e-05 -6.3076e-05 6.62948e-05)
(-2.72738e-05 -5.41182e-05 6.24581e-05)
(-7.57246e-06 -3.08017e-05 4.4378e-05)
(-4.04088e-06 0.000122487 -0.000211038)
(-2.2333e-05 0.000251679 -0.000311378)
(-4.32656e-05 0.000320086 -0.000347282)
(-7.36483e-05 0.000374391 -0.000378063)
(-0.000105838 0.00041549 -0.000403255)
(-0.000137796 0.000444584 -0.000422784)
(-0.000168618 0.000463665 -0.00043782)
(-0.000197678 0.000473721 -0.000449915)
(-0.000224354 0.000476442 -0.000459489)
(-0.000248283 0.000472435 -0.000467295)
(-0.000269158 0.000463087 -0.000473371)
(-0.000286786 0.000448818 -0.000478209)
(-0.000301125 0.000430685 -0.000481754)
(-0.000312116 0.000408997 -0.000484383)
(-0.000319746 0.000384758 -0.000485956)
(-0.000324117 0.000358146 -0.000486788)
(-0.000325275 0.000330025 -0.000486722)
(-0.000323325 0.000300531 -0.000486005)
(-0.000318454 0.000270233 -0.000484562)
(-0.000310801 0.000239249 -0.000482569)
(-0.000300527 0.000208231 -0.000479853)
(-0.000287857 0.000177261 -0.000476535)
(-0.00027298 0.000146865 -0.000472433)
(-0.000256136 0.000117105 -0.000467621)
(-0.000237538 8.84157e-05 -0.000461895)
(-0.00021743 6.08538e-05 -0.000455115)
(-0.000196027 3.47951e-05 -0.000446839)
(-0.000173592 1.03081e-05 -0.00043663)
(-0.000150376 -1.2255e-05 -0.000423613)
(-0.000126633 -3.27681e-05 -0.000406656)
(-0.00010246 -5.07848e-05 -0.000383944)
(-7.76191e-05 -6.5799e-05 -0.000352195)
(-5.21927e-05 -7.63337e-05 -0.000303566)
(-3.16447e-05 -7.88237e-05 -0.00022853)
(-1.69436e-05 -5.28459e-05 -7.76473e-05)
(-1.67995e-06 0.000303174 -0.000151099)
(-1.20828e-05 0.000520117 -0.000243707)
(-2.12737e-05 0.000614667 -0.000281333)
(-3.52306e-05 0.000680933 -0.000306549)
(-4.97395e-05 0.000724879 -0.000324389)
(-6.38052e-05 0.00075195 -0.000337381)
(-7.71541e-05 0.000765184 -0.000347472)
(-8.95085e-05 0.000767858 -0.000355387)
(-0.00010071 0.000761555 -0.000362061)
(-0.000110556 0.000748421 -0.000367582)
(-0.000118992 0.000729275 -0.000372445)
(-0.000125932 0.000705656 -0.000376507)
(-0.000131398 0.000678006 -0.000380089)
(-0.000135369 0.000647511 -0.000382974)
(-0.000137907 0.00061443 -0.000385401)
(-0.000139026 0.000579729 -0.000387154)
(-0.000138807 0.000543582 -0.000388424)
(-0.000137301 0.000506791 -0.000389016)
(-0.000134582 0.000469428 -0.000389183)
(-0.000130767 0.000432269 -0.000388649)
(-0.000125976 0.000395381 -0.000387553)
(-0.000120293 0.000359319 -0.000385728)
(-0.000113854 0.00032412 -0.000383281)
(-0.000106741 0.000290237 -0.000380034)
(-9.90826e-05 0.000257676 -0.000376021)
(-9.09419e-05 0.000226792 -0.00037099)
(-8.24315e-05 0.000197563 -0.000364806)
(-7.36019e-05 0.000170253 -0.000356992)
(-6.45491e-05 0.000144812 -0.000347023)
(-5.53182e-05 0.000121429 -0.000333871)
(-4.59383e-05 0.000100011 -0.000316066)
(-3.61845e-05 8.06736e-05 -0.000290771)
(-2.58125e-05 6.31979e-05 -0.000253072)
(-1.63508e-05 4.76945e-05 -0.000197229)
(-1.04884e-05 2.59765e-05 -7.42249e-05)
(-2.08689e-06 0.00039337 7.24701e-06)
(-7.20057e-06 0.000648315 -4.75535e-05)
(-9.13405e-06 0.000760942 -8.2389e-05)
(-1.2853e-05 0.000840106 -0.000107457)
(-1.66222e-05 0.000893634 -0.000124257)
(-2.03428e-05 0.000926872 -0.000137214)
(-2.39383e-05 0.000944511 -0.000148257)
(-2.73903e-05 0.000949416 -0.000158544)
(-3.05784e-05 0.00094457 -0.000168296)
(-3.34678e-05 0.000931514 -0.000178028)
(-3.59744e-05 0.000912262 -0.000187625)
(-3.80933e-05 0.000887654 -0.000197361)
(-3.9776e-05 0.000859151 -0.000206972)
(-4.1046e-05 0.000827224 -0.000216616)
(-4.1886e-05 0.000792993 -0.000225995)
(-4.23281e-05 0.000756734 -0.000235218)
(-4.23796e-05 0.000719326 -0.000244015)
(-4.2116e-05 0.000680921 -0.000252484)
(-4.15048e-05 0.000642489 -0.000260205)
(-4.06492e-05 0.000604157 -0.00026725)
(-3.95696e-05 0.000566492 -0.000273407)
(-3.83309e-05 0.000529518 -0.000278746)
(-3.69521e-05 0.000493701 -0.000283049)
(-3.55105e-05 0.000459019 -0.000286345)
(-3.39913e-05 0.000425678 -0.000288488)
(-3.24476e-05 0.000393575 -0.000289456)
(-3.08603e-05 0.000362886 -0.00028897)
(-2.92348e-05 0.000333373 -0.000286891)
(-2.75009e-05 0.000304986 -0.000282753)
(-2.56087e-05 0.000277273 -0.000276077)
(-2.33884e-05 0.000249839 -0.000265959)
(-2.05057e-05 0.000221866 -0.000251574)
(-1.63089e-05 0.000192343 -0.000231547)
(-1.12121e-05 0.000159856 -0.00020087)
(-8.16236e-06 9.85598e-05 -0.000108607)
(-3.89057e-06 0.000413912 9.68521e-05)
(-7.31053e-06 0.000662986 7.30124e-05)
(-6.38313e-06 0.00077465 4.48645e-05)
(-5.16136e-06 0.000855127 2.33482e-05)
(-3.09262e-06 0.000911098 8.93709e-06)
(-6.0237e-07 0.000948301 -2.33914e-06)
(2.06529e-06 0.000970392 -1.27791e-05)
(4.75239e-06 0.000980905 -2.28804e-05)
(7.37099e-06 0.000981847 -3.31585e-05)
(9.85497e-06 0.000975509 -4.35815e-05)
(1.21542e-05 0.000962984 -5.44488e-05)
(1.42349e-05 0.000945854 -6.55646e-05)
(1.60685e-05 0.000924732 -7.69605e-05)
(1.76381e-05 0.000900798 -8.83647e-05)
(1.89009e-05 0.000874392 -9.98597e-05)
(1.98575e-05 0.000846427 -0.00011115)
(2.04666e-05 0.000817084 -0.00012228)
(2.07233e-05 0.0007871 -0.000132967)
(2.05952e-05 0.000756598 -0.000143228)
(2.00971e-05 0.00072619 -0.000152801)
(1.92092e-05 0.000695881 -0.000161716)
(1.79563e-05 0.000666115 -0.000169754)
(1.63238e-05 0.000636813 -0.000176944)
(1.43428e-05 0.000608266 -0.000183097)
(1.20139e-05 0.000580284 -0.000188237)
(9.38605e-06 0.000552964 -0.000192189)
(6.49016e-06 0.000525937 -0.000194955)
(3.43056e-06 0.000499025 -0.000196343)
(2.96603e-07 0.000471546 -0.000196263)
(-2.73836e-06 0.000442854 -0.000194377)
(-5.49359e-06 0.000411718 -0.000190444)
(-7.57715e-06 0.000376701 -0.000184682)
(-8.21846e-06 0.000335441 -0.000178032)
(-6.72013e-06 0.00028519 -0.000166053)
(-5.9233e-06 0.000181206 -0.000102854)
(-3.64123e-06 0.000409716 0.000128993)
(-5.53899e-06 0.000639796 0.000120128)
(-3.88489e-06 0.000744679 9.77083e-05)
(-1.26113e-06 0.000821723 7.9605e-05)
(2.41077e-06 0.000877542 6.75191e-05)
(6.60407e-06 0.000916494 5.76801e-05)
(1.10127e-05 0.000942526 4.8429e-05)
(1.54288e-05 0.000958042 3.91033e-05)
(1.97159e-05 0.000965511 2.96516e-05)
(2.37461e-05 0.000966254 1.98235e-05)
(2.74447e-05 0.000961911 9.74379e-06)
(3.07394e-05 0.000953209 -6.82714e-07)
(3.35801e-05 0.000941329 -1.13794e-05)
(3.59236e-05 0.000926641 -2.23727e-05)
(3.77601e-05 0.000910005 -3.3372e-05)
(3.90478e-05 0.000891621 -4.43877e-05)
(3.97895e-05 0.000872166 -5.51793e-05)
(3.99532e-05 0.000851722 -6.57476e-05)
(3.9554e-05 0.000830823 -7.58711e-05)
(3.85782e-05 0.000809458 -8.55535e-05)
(3.70561e-05 0.000788038 -9.45957e-05)
(3.49804e-05 0.000766479 -0.000103006)
(3.23942e-05 0.000745057 -0.000110609)
(2.93118e-05 0.000723548 -0.000117432)
(2.57967e-05 0.000702022 -0.000123328)
(2.18891e-05 0.000680066 -0.000128336)
(1.76867e-05 0.000657472 -0.000132333)
(1.32773e-05 0.000633511 -0.000135362)
(8.81448e-06 0.000607509 -0.000137283)
(4.44997e-06 0.000578179 -0.000138051)
(4.12738e-07 0.000544045 -0.000137543)
(-2.95876e-06 0.000502818 -0.000136531)
(-4.934e-06 0.000451586 -0.000136538)
(-4.71521e-06 0.000386268 -0.000133924)
(-4.52127e-06 0.000246813 -8.97273e-05)
(-2.44293e-06 0.000388379 0.000120408)
(-3.01543e-06 0.000600976 0.000115301)
(-1.28852e-06 0.000698914 9.71446e-05)
(1.47202e-06 0.00077252 8.23993e-05)
(5.04955e-06 0.000827295 7.25018e-05)
(9.0237e-06 0.000867668 6.45533e-05)
(1.31583e-05 0.000896623 5.70058e-05)
(1.72901e-05 0.000916846 4.95353e-05)
(2.12938e-05 0.000929944 4.18993e-05)
(2.5063e-05 0.000937616 3.40977e-05)
(2.85105e-05 0.000940721 2.59873e-05)
(3.15735e-05 0.000940398 1.7679e-05)
(3.4196e-05 0.000937062 9.15293e-06)
(3.63491e-05 0.000931545 5.80006e-07)
(3.79907e-05 0.000924063 -8.08767e-06)
(3.91122e-05 0.00091523 -1.6671e-05)
(3.9686e-05 0.000905111 -2.51697e-05)
(3.97137e-05 0.000894177 -3.34118e-05)
(3.91856e-05 0.000882398 -4.14e-05)
(3.81155e-05 0.000870126 -4.89765e-05)
(3.65038e-05 0.00085724 -5.61529e-05)
(3.43835e-05 0.000843965 -6.27888e-05)
(3.17685e-05 0.000830066 -6.89079e-05)
(2.87138e-05 0.000815602 -7.43895e-05)
(2.52539e-05 0.00080016 -7.92717e-05)
(2.14678e-05 0.000783552 -8.34549e-05)
(1.74226e-05 0.00076507 -8.69946e-05)
(1.323e-05 0.000744115 -8.98147e-05)
(9.01043e-06 0.000719459 -9.19635e-05)
(4.92552e-06 0.000689798 -9.33193e-05)
(1.15488e-06 0.000652977 -9.3977e-05)
(-1.99933e-06 0.000606449 -9.45912e-05)
(-3.93823e-06 0.000546378 -9.67759e-05)
(-3.96925e-06 0.000467996 -9.75593e-05)
(-3.69675e-06 0.000297895 -6.65384e-05)
(-1.35549e-06 0.000366335 9.57267e-05)
(-1.27658e-06 0.000570236 9.12895e-05)
(-1.19236e-07 0.000664972 7.77508e-05)
(1.72506e-06 0.00073694 6.66721e-05)
(4.03457e-06 0.000791763 5.92207e-05)
(6.58271e-06 0.000833241 5.31794e-05)
(9.22345e-06 0.00086464 4.75669e-05)
(1.1877e-05 0.000888014 4.20116e-05)
(1.44575e-05 0.000905319 3.64771e-05)
(1.68995e-05 0.000917644 3.08198e-05)
(1.91434e-05 0.000926215 2.50743e-05)
(2.11374e-05 0.000931587 1.91733e-05)
(2.28462e-05 0.000934579 1.32241e-05)
(2.42349e-05 0.000935445 7.19789e-06)
(2.52783e-05 0.000934766 1.21978e-06)
(2.5955e-05 0.000932616 -4.73441e-06)
(2.62574e-05 0.000929423 -1.05349e-05)
(2.61682e-05 0.00092515 -1.62016e-05)
(2.56998e-05 0.00092011 -2.16112e-05)
(2.48421e-05 0.000914169 -2.67914e-05)
(2.36121e-05 0.000907532 -3.16282e-05)
(2.20241e-05 0.000899958 -3.61599e-05)
(2.01068e-05 0.000891512 -4.02843e-05)
(1.78855e-05 0.000881802 -4.4051e-05)
(1.5407e-05 0.000870683 -4.73702e-05)
(1.2718e-05 0.000857515 -5.03037e-05)
(9.88972e-06 0.000841808 -5.27768e-05)
(6.99484e-06 0.000822491 -5.48651e-05)
(4.13911e-06 0.000798481 -5.64915e-05)
(1.43037e-06 0.000767942 -5.76948e-05)
(-9.84867e-07 0.000728735 -5.84362e-05)
(-2.89271e-06 0.000677668 -5.93124e-05)
(-3.86081e-06 0.000610703 -6.13901e-05)
(-3.54241e-06 0.000522209 -6.26089e-05)
(-2.92499e-06 0.000329236 -4.12687e-05)
(-9.85338e-07 0.000347634 7.26208e-05)
(-9.72248e-07 0.00054935 7.14286e-05)
(-5.88242e-07 0.000643237 6.35267e-05)
(8.10037e-08 0.000715155 5.68545e-05)
(1.00439e-06 0.000770322 5.21847e-05)
(2.07142e-06 0.000812914 4.8327e-05)
(3.21972e-06 0.000845756 4.4635e-05)
(4.40536e-06 0.000871274 4.10119e-05)
(5.59141e-06 0.000890966 3.73539e-05)
(6.73834e-06 0.000906284 3.3695e-05)
(7.81225e-06 0.000917995 2.99618e-05)
(8.78999e-06 0.000927008 2.62253e-05)
(9.63869e-06 0.00093368 2.24392e-05)
(1.03302e-05 0.000938615 1.87036e-05)
(1.08576e-05 0.000941943 1.49557e-05)
(1.12024e-05 0.000944084 1.12983e-05)
(1.13568e-05 0.000945014 7.68861e-06)
(1.13073e-05 0.000945032 4.26274e-06)
(1.10506e-05 0.000944013 9.71852e-07)
(1.05905e-05 0.000942147 -2.09551e-06)
(9.92727e-06 0.00093921 -4.99294e-06)
(9.07585e-06 0.000935277 -7.63617e-06)
(8.04532e-06 0.00092999 -1.00874e-05)
(6.86248e-06 0.000923259 -1.22701e-05)
(5.54924e-06 0.000914522 -1.42555e-05)
(4.14399e-06 0.000903418 -1.59759e-05)
(2.68637e-06 0.000889037 -1.75132e-05)
(1.23125e-06 0.000870554 -1.8812e-05)
(-1.65238e-07 0.000846447 -1.99555e-05)
(-1.43077e-06 0.000815068 -2.0873e-05)
(-2.48249e-06 0.000773801 -2.16792e-05)
(-3.18784e-06 0.00071954 -2.26793e-05)
(-3.30179e-06 0.000647691 -2.47057e-05)
(-2.70279e-06 0.000552524 -2.64339e-05)
(-1.97778e-06 0.000344624 -1.51479e-05)
(-1.20832e-06 0.000333267 5.70986e-05)
(-1.635e-06 0.000534368 6.20281e-05)
(-2.0228e-06 0.000628068 6.01714e-05)
(-2.40897e-06 0.000699852 5.79635e-05)
(-2.61307e-06 0.000755231 5.6206e-05)
(-2.66701e-06 0.000798105 5.44456e-05)
(-2.62155e-06 0.000831626 5.25768e-05)
(-2.48845e-06 0.000857881 5.05499e-05)
(-2.29094e-06 0.000878704 4.84585e-05)
(-2.04085e-06 0.000895182 4.62676e-05)
(-1.76272e-06 0.000908416 4.40597e-05)
(-1.46717e-06 0.000918939 4.1796e-05)
(-1.17288e-06 0.000927437 3.95625e-05)
(-8.86492e-07 0.00093413 3.73174e-05)
(-6.36217e-07 0.000939457 3.51834e-05)
(-4.29281e-07 0.000943453 3.31225e-05)
(-2.77629e-07 0.000946445 3.12021e-05)
(-1.77464e-07 0.000948349 2.93312e-05)
(-1.41571e-07 0.000949359 2.75995e-05)
(-1.70406e-07 0.00094928 2.59534e-05)
(-2.63173e-07 0.000948205 2.44678e-05)
(-4.14202e-07 0.000945827 2.30776e-05)
(-6.18561e-07 0.000942105 2.18453e-05)
(-8.69549e-07 0.000936569 2.06948e-05)
(-1.15179e-06 0.00092897 1.96811e-05)
(-1.45114e-06 0.000918573 1.8719e-05)
(-1.74641e-06 0.000904772 1.78499e-05)
(-2.01723e-06 0.000886374 1.69721e-05)
(-2.24114e-06 0.000862147 1.61104e-05)
(-2.38681e-06 0.00083008 1.51523e-05)
(-2.42697e-06 0.000787823 1.40668e-05)
(-2.31733e-06 0.000731912 1.24741e-05)
(-1.96483e-06 0.000657974 9.82764e-06)
(-1.35797e-06 0.000559932 6.52655e-06)
(-8.34321e-07 0.000346229 7.37873e-06)
(-1.59123e-06 0.000321359 4.77789e-05)
(-2.46808e-06 0.000520213 5.92752e-05)
(-3.38819e-06 0.00061273 6.24695e-05)
(-4.47053e-06 0.000683707 6.39875e-05)
(-5.33972e-06 0.000738368 6.46089e-05)
(-6.03012e-06 0.00078086 6.46154e-05)
(-6.57387e-06 0.000814024 6.41344e-05)
(-6.99702e-06 0.000840229 6.3359e-05)
(-7.30111e-06 0.000860986 6.23478e-05)
(-7.5033e-06 0.00087768 6.12262e-05)
(-7.59998e-06 0.000891085 5.99962e-05)
(-7.6135e-06 0.000902036 5.87523e-05)
(-7.54796e-06 0.000910893 5.74732e-05)
(-7.41627e-06 0.000918181 5.62397e-05)
(-7.22392e-06 0.000924021 5.50142e-05)
(-6.98338e-06 0.000928755 5.38665e-05)
(-6.7041e-06 0.000932331 5.27745e-05)
(-6.3975e-06 0.000934965 5.18087e-05)
(-6.06468e-06 0.000936521 5.09111e-05)
(-5.7133e-06 0.000937118 5.01391e-05)
(-5.348e-06 0.000936514 4.94294e-05)
(-4.97296e-06 0.000934715 4.88317e-05)
(-4.5878e-06 0.000931346 4.82747e-05)
(-4.19409e-06 0.000926251 4.77987e-05)
(-3.79212e-06 0.000918852 4.73219e-05)
(-3.37738e-06 0.000908733 4.68718e-05)
(-2.95143e-06 0.000894971 4.63494e-05)
(-2.511e-06 0.000876695 4.57572e-05)
(-2.06024e-06 0.000852381 4.49645e-05)
(-1.60341e-06 0.000820354 4.39279e-05)
(-1.15133e-06 0.000778011 4.2431e-05)
(-7.21965e-07 0.000722237 4.01855e-05)
(-3.35288e-07 0.00064849 3.65341e-05)
(4.20391e-08 0.000551063 3.13215e-05)
(1.89206e-07 0.000339036 2.31467e-05)
(-1.77208e-06 0.000310759 3.98651e-05)
(-2.87757e-06 0.000504892 5.51602e-05)
(-4.04475e-06 0.000595213 6.1293e-05)
(-5.41457e-06 0.000664377 6.49467e-05)
(-6.55931e-06 0.000717712 6.69995e-05)
(-7.48929e-06 0.000759029 6.80122e-05)
(-8.26192e-06 0.000791356 6.83812e-05)
(-8.88416e-06 0.000816752 6.82907e-05)
(-9.37003e-06 0.00083696 6.79312e-05)
(-9.71501e-06 0.00085307 6.73661e-05)
(-9.93614e-06 0.000866109 6.67121e-05)
(-1.003e-05 0.000876621 6.59818e-05)
(-1.00125e-05 0.000885235 6.52598e-05)
(-9.8822e-06 0.000892182 6.45342e-05)
(-9.65309e-06 0.000897859 6.38737e-05)
(-9.32856e-06 0.000902313 6.32523e-05)
(-8.9254e-06 0.000905794 6.2728e-05)
(-8.44379e-06 0.000908225 6.22639e-05)
(-7.90202e-06 0.000909749 6.1907e-05)
(-7.30551e-06 0.00091019 6.16103e-05)
(-6.66611e-06 0.000909588 6.14109e-05)
(-5.9886e-06 0.000907658 6.12513e-05)
(-5.2842e-06 0.000904313 6.11583e-05)
(-4.56038e-06 0.000899111 6.10634e-05)
(-3.82188e-06 0.000891771 6.09807e-05)
(-3.07966e-06 0.000881602 6.0826e-05)
(-2.33998e-06 0.000867994 6.0592e-05)
(-1.61608e-06 0.000849825 6.01652e-05)
(-9.20271e-07 0.000825907 5.94929e-05)
(-2.77294e-07 0.000794357 5.83993e-05)
(2.83225e-07 0.000752952 5.67201e-05)
(7.03967e-07 0.000698445 5.40495e-05)
(9.26563e-07 0.000626751 4.97932e-05)
(1.0152e-06 0.000532176 4.33393e-05)
(8.38196e-07 0.000326974 2.98629e-05)
(-1.55367e-06 0.000301795 3.00714e-05)
(-2.60829e-06 0.000490435 4.4764e-05)
(-3.71623e-06 0.000578102 5.12293e-05)
(-5.04394e-06 0.000645262 5.52477e-05)
(-6.16527e-06 0.000696919 5.75241e-05)
(-7.10141e-06 0.000736955 5.87521e-05)
(-7.87779e-06 0.000768108 5.92945e-05)
(-8.5159e-06 0.000792595 5.94079e-05)
(-9.00651e-06 0.000811895 5.9214e-05)
(-9.36325e-06 0.000827296 5.88498e-05)
(-9.57893e-06 0.000839576 5.83635e-05)
(-9.6671e-06 0.000849502 5.78432e-05)
(-9.62105e-06 0.000857454 5.73024e-05)
(-9.45759e-06 0.000863903 5.68056e-05)
(-9.18058e-06 0.000868999 5.63483e-05)
(-8.80509e-06 0.000873031 5.59809e-05)
(-8.3324e-06 0.000876004 5.56858e-05)
(-7.78413e-06 0.000878089 5.55016e-05)
(-7.16481e-06 0.000879181 5.5399e-05)
(-6.49149e-06 0.000879354 5.54052e-05)
(-5.7732e-06 0.000878401 5.54799e-05)
(-5.02426e-06 0.000876288 5.5639e-05)
(-4.25602e-06 0.000872685 5.5831e-05)
(-3.48025e-06 0.000867409 5.60598e-05)
(-2.70947e-06 0.000859941 5.62615e-05)
(-1.95054e-06 0.000849858 5.64238e-05)
(-1.22225e-06 0.000836334 5.64624e-05)
(-5.33533e-07 0.000818531 5.63361e-05)
(9.4966e-08 0.000795079 5.59183e-05)
(6.44262e-07 0.000764411 5.51047e-05)
(1.07941e-06 0.000724186 5.36654e-05)
(1.34899e-06 0.000671529 5.12928e-05)
(1.37839e-06 0.000602362 4.739e-05)
(1.28334e-06 0.000511447 4.13351e-05)
(9.65045e-07 0.000314434 2.75711e-05)
(-1.0042e-06 0.000295712 1.74588e-05)
(-1.79684e-06 0.000480184 2.73104e-05)
(-2.65637e-06 0.000565915 3.19105e-05)
(-3.72625e-06 0.000631465 3.47382e-05)
(-4.68896e-06 0.000681878 3.6255e-05)
(-5.51639e-06 0.00072078 3.69605e-05)
(-6.23327e-06 0.000751023 3.71678e-05)
(-6.82598e-06 0.0007746 3.70308e-05)
(-7.30058e-06 0.000793148 3.66813e-05)
(-7.64146e-06 0.00080775 3.6187e-05)
(-7.85469e-06 0.000819363 3.5632e-05)
(-7.9367e-06 0.000828559 3.50488e-05)
(-7.89603e-06 0.00083591 3.44973e-05)
(-7.73185e-06 0.000841693 3.39915e-05)
(-7.46125e-06 0.000846256 3.35768e-05)
(-7.08982e-06 0.000849696 3.32541e-05)
(-6.63314e-06 0.00085222 3.30567e-05)
(-6.09988e-06 0.000853801 3.29733e-05)
(-5.51188e-06 0.00085454 3.30248e-05)
(-4.88139e-06 0.00085431 3.31884e-05)
(-4.22308e-06 0.000853111 3.34726e-05)
(-3.54967e-06 0.000850709 3.38427e-05)
(-2.87911e-06 0.000846981 3.42959e-05)
(-2.22474e-06 0.000841546 3.47864e-05)
(-1.59444e-06 0.0008341 3.52995e-05)
(-1.00416e-06 0.000824031 3.57775e-05)
(-4.59873e-07 0.000810733 3.61897e-05)
(2.45363e-08 0.0007932 3.64593e-05)
(4.4176e-07 0.000770302 3.65265e-05)
(7.76567e-07 0.000740337 3.6274e-05)
(1.01639e-06 0.000701239 3.55719e-05)
(1.11955e-06 0.00065006 3.41742e-05)
(1.06113e-06 0.000583058 3.17052e-05)
(9.29306e-07 0.00049504 2.77008e-05)
(6.5636e-07 0.000304628 1.82573e-05)
(-2.96846e-07 0.000294048 3.74173e-06)
(-7.68494e-07 0.000477545 6.33079e-06)
(-1.28561e-06 0.000562737 7.79819e-06)
(-2.03378e-06 0.00062784 8.57555e-06)
(-2.77893e-06 0.000677748 8.73108e-06)
(-3.48148e-06 0.0007162 8.51425e-06)
(-4.11518e-06 0.000745903 8.05284e-06)
(-4.67314e-06 0.000768991 7.43511e-06)
(-5.12501e-06 0.000786956 6.70785e-06)
(-5.46979e-06 0.000801034 5.93079e-06)
(-5.69426e-06 0.00081204 5.13795e-06)
(-5.80399e-06 0.000820705 4.37821e-06)
(-5.79246e-06 0.000827459 3.67595e-06)
(-5.67119e-06 0.000832741 3.0707e-06)
(-5.4468e-06 0.000836753 2.57722e-06)
(-5.13193e-06 0.000839755 2.22558e-06)
(-4.74023e-06 0.000841803 2.02044e-06)
(-4.2912e-06 0.000843035 1.98019e-06)
(-3.79633e-06 0.000843397 2.09742e-06)
(-3.27748e-06 0.000842922 2.3771e-06)
(-2.75117e-06 0.000841456 2.79951e-06)
(-2.23102e-06 0.000838921 3.35781e-06)
(-1.73415e-06 0.000835037 4.02179e-06)
(-1.27309e-06 0.000829581 4.77456e-06)
(-8.59404e-07 0.000822092 5.57733e-06)
(-5.00157e-07 0.000812117 6.40517e-06)
(-2.04511e-07 0.000798899 7.21288e-06)
(3.13037e-08 0.000781593 7.96949e-06)
(1.9822e-07 0.000758932 8.62295e-06)
(3.08484e-07 0.000729384 9.13423e-06)
(3.53856e-07 0.000690769 9.43569e-06)
(3.42665e-07 0.000640324 9.45453e-06)
(2.82823e-07 0.000574237 9.05288e-06)
(2.46735e-07 0.000487526 8.12419e-06)
(1.16526e-07 0.000299953 5.65794e-06)
(3.40393e-07 0.00029735 -8.57549e-06)
(1.54751e-07 0.000483401 -1.32552e-05)
(-4.33464e-08 0.000569727 -1.49738e-05)
(-4.86004e-07 0.000635545 -1.63033e-05)
(-1.04394e-06 0.000685906 -1.75288e-05)
(-1.63025e-06 0.000724526 -1.87002e-05)
(-2.20183e-06 0.000754263 -1.98426e-05)
(-2.72256e-06 0.000777189 -2.09744e-05)
(-3.17556e-06 0.000794939 -2.20935e-05)
(-3.5309e-06 0.000808669 -2.31891e-05)
(-3.78625e-06 0.000819331 -2.42358e-05)
(-3.93184e-06 0.000827563 -2.52108e-05)
(-3.96969e-06 0.000833928 -2.6083e-05)
(-3.90008e-06 0.000838767 -2.68297e-05)
(-3.7404e-06 0.00084241 -2.74236e-05)
(-3.50065e-06 0.000845013 -2.78486e-05)
(-3.19292e-06 0.000846757 -2.80864e-05)
(-2.83657e-06 0.000847668 -2.81321e-05)
(-2.45282e-06 0.000847814 -2.79796e-05)
(-2.05556e-06 0.000847113 -2.7636e-05)
(-1.66671e-06 0.000845527 -2.71085e-05)
(-1.30302e-06 0.000842858 -2.64159e-05)
(-9.77332e-07 0.00083894 -2.5576e-05)
(-7.06674e-07 0.000833424 -2.46163e-05)
(-4.95805e-07 0.000825958 -2.35606e-05)
(-3.51185e-07 0.000815962 -2.24388e-05)
(-2.73225e-07 0.000802782 -2.12734e-05)
(-2.61111e-07 0.000785446 -2.00859e-05)
(-2.98924e-07 0.00076278 -1.88839e-05)
(-3.78578e-07 0.000733125 -1.76627e-05)
(-4.72049e-07 0.000694381 -1.63922e-05)
(-5.51327e-07 0.000643659 -1.5004e-05)
(-5.55197e-07 0.000577202 -1.33663e-05)
(-4.5434e-07 0.000489905 -1.12361e-05)
(-4.30739e-07 0.000301078 -6.56849e-06)
(7.71504e-07 0.000305172 -1.73578e-05)
(7.41628e-07 0.000496732 -2.74873e-05)
(7.81083e-07 0.000585522 -3.16504e-05)
(5.51283e-07 0.000653122 -3.46169e-05)
(1.38351e-07 0.000704677 -3.69332e-05)
(-3.60011e-07 0.000744106 -3.88638e-05)
(-8.70633e-07 0.000774289 -4.05619e-05)
(-1.36207e-06 0.000797454 -4.21137e-05)
(-1.79752e-06 0.00081522 -4.35636e-05)
(-2.15633e-06 0.00082887 -4.4925e-05)
(-2.42075e-06 0.000839317 -4.61929e-05)
(-2.58979e-06 0.000847313 -4.7351e-05)
(-2.65662e-06 0.000853368 -4.83773e-05)
(-2.62607e-06 0.000857923 -4.92483e-05)
(-2.50879e-06 0.000861249 -4.99416e-05)
(-2.3185e-06 0.000863593 -5.04378e-05)
(-2.0719e-06 0.000865068 -5.07218e-05)
(-1.78656e-06 0.000865787 -5.07849e-05)
(-1.48012e-06 0.000865742 -5.06243e-05)
(-1.17329e-06 0.000864932 -5.02438e-05)
(-8.88084e-07 0.000863235 -4.96532e-05)
(-6.36583e-07 0.000860529 -4.88684e-05)
(-4.37816e-07 0.000856556 -4.79094e-05)
(-3.01518e-07 0.000851038 -4.67992e-05)
(-2.38252e-07 0.000843525 -4.55617e-05)
(-2.45601e-07 0.000833494 -4.42186e-05)
(-3.24877e-07 0.000820186 -4.27853e-05)
(-4.62321e-07 0.000802676 -4.12653e-05)
(-6.43529e-07 0.000779669 -3.96422e-05)
(-8.46299e-07 0.000749532 -3.78688e-05)
(-1.03652e-06 0.000710025 -3.58498e-05)
(-1.15099e-06 0.000658246 -3.34043e-05)
(-1.11547e-06 0.000590256 -3.02085e-05)
(-9.00324e-07 0.000500881 -2.57548e-05)
(-8.06529e-07 0.000307417 -1.56733e-05)
(9.20396e-07 0.000316027 -2.16483e-05)
(9.21563e-07 0.000514556 -3.42827e-05)
(1.06674e-06 0.000606521 -3.96011e-05)
(9.42894e-07 0.000676407 -4.33496e-05)
(6.11374e-07 0.000729595 -4.619e-05)
(1.83218e-07 0.000770128 -4.849e-05)
(-2.76275e-07 0.000801051 -5.0464e-05)
(-7.19363e-07 0.000824637 -5.22288e-05)
(-1.11808e-06 0.00084263 -5.38504e-05)
(-1.44308e-06 0.000856321 -5.53529e-05)
(-1.6863e-06 0.000866721 -5.6741e-05)
(-1.83668e-06 0.000874568 -5.80008e-05)
(-1.89414e-06 0.000880455 -5.91149e-05)
(-1.8591e-06 0.000884795 -6.00586e-05)
(-1.74523e-06 0.000887929 -6.08121e-05)
(-1.56616e-06 0.000890068 -6.13539e-05)
(-1.33619e-06 0.000891387 -6.16711e-05)
(-1.07412e-06 0.000891955 -6.17525e-05)
(-7.99118e-07 0.000891819 -6.15973e-05)
(-5.32085e-07 0.000890925 -6.12067e-05)
(-2.91202e-07 0.000889199 -6.05929e-05)
(-9.54609e-08 0.000886462 -5.97692e-05)
(4.25474e-08 0.000882493 -5.87572e-05)
(1.11256e-07 0.000876949 -5.75774e-05)
(1.05107e-07 0.000869407 -5.62547e-05)
(2.18393e-08 0.000859271 -5.4806e-05)
(-1.33827e-07 0.000845796 -5.32451e-05)
(-3.5185e-07 0.000827964 -5.15658e-05)
(-6.08688e-07 0.000804478 -4.97429e-05)
(-8.79822e-07 0.000773586 -4.77078e-05)
(-1.12401e-06 0.000733008 -4.53394e-05)
(-1.28111e-06 0.000679687 -4.24029e-05)
(-1.24885e-06 0.000609569 -3.84928e-05)
(-1.00601e-06 0.000517259 -3.29758e-05)
(-9.34999e-07 0.00031735 -2.03812e-05)
(8.32838e-07 0.000328068 -2.16384e-05)
(7.62845e-07 0.000533569 -3.37815e-05)
(8.97836e-07 0.000628702 -3.89336e-05)
(7.72623e-07 0.00070091 -4.25878e-05)
(4.67922e-07 0.000755747 -4.53686e-05)
(7.8139e-08 0.000797442 -4.76361e-05)
(-3.2925e-07 0.000829129 -4.95925e-05)
(-7.21332e-07 0.000853206 -5.13529e-05)
(-1.06236e-06 0.000871457 -5.29752e-05)
(-1.33569e-06 0.000885264 -5.44855e-05)
(-1.52422e-06 0.000895651 -5.58821e-05)
(-1.62212e-06 0.000903426 -5.71551e-05)
(-1.63233e-06 0.000909179 -5.82812e-05)
(-1.55877e-06 0.000913379 -5.92401e-05)
(-1.40741e-06 0.000916353 -6.00066e-05)
(-1.1948e-06 0.000918359 -6.05638e-05)
(-9.367e-07 0.000919551 -6.08937e-05)
(-6.50894e-07 0.000920034 -6.09896e-05)
(-3.58545e-07 0.000919827 -6.08456e-05)
(-7.77241e-08 0.000918909 -6.04677e-05)
(1.72826e-07 0.000917168 -5.98632e-05)
(3.76951e-07 0.000914447 -5.905e-05)
(5.16132e-07 0.000910485 -5.80455e-05)
(5.84349e-07 0.000904952 -5.68747e-05)
(5.73544e-07 0.000897373 -5.55584e-05)
(4.83389e-07 0.000887154 -5.4119e-05)
(3.16389e-07 0.000873487 -5.25667e-05)
(8.77563e-08 0.00085534 -5.09022e-05)
(-1.89379e-07 0.000831331 -4.90984e-05)
(-4.83971e-07 0.000799669 -4.7096e-05)
(-7.62086e-07 0.000757953 -4.47768e-05)
(-9.62256e-07 0.000703043 -4.19256e-05)
(-9.96616e-07 0.000630704 -3.81565e-05)
(-8.05111e-07 0.000535375 -3.28658e-05)
(-8.35371e-07 0.000328809 -2.07392e-05)
(5.77426e-07 0.000339405 -1.85053e-05)
(3.80663e-07 0.000550622 -2.78341e-05)
(4.13457e-07 0.00064837 -3.17949e-05)
(2.17396e-07 0.000722484 -3.46665e-05)
(-1.02856e-07 0.000778691 -3.69318e-05)
(-4.70262e-07 0.000821332 -3.88448e-05)
(-8.34288e-07 0.000853655 -4.05517e-05)
(-1.16381e-06 0.000878118 -4.21288e-05)
(-1.43729e-06 0.000896584 -4.36156e-05)
(-1.63579e-06 0.000910464 -4.50201e-05)
(-1.74998e-06 0.000920842 -4.63362e-05)
(-1.77375e-06 0.000928536 -4.75437e-05)
(-1.70949e-06 0.000934181 -4.86211e-05)
(-1.5639e-06 0.000938249 -4.95416e-05)
(-1.34554e-06 0.000941101 -5.02834e-05)
(-1.06969e-06 0.00094299 -5.08244e-05)
(-7.52228e-07 0.000944096 -5.11507e-05)
(-4.10082e-07 0.000944513 -5.12511e-05)
(-6.24449e-08 0.000944278 -5.11238e-05)
(2.69946e-07 0.000943352 -5.07707e-05)
(5.70555e-07 0.000941638 -5.02029e-05)
(8.22141e-07 0.000938952 -4.94347e-05)
(1.0096e-06 0.000935041 -4.84877e-05)
(1.12269e-06 0.000929541 -4.73841e-05)
(1.15579e-06 0.000921976 -4.61502e-05)
(1.10411e-06 0.000911712 -4.48078e-05)
(9.7271e-07 0.000897926 -4.33762e-05)
(7.70776e-07 0.000879532 -4.18612e-05)
(5.13227e-07 0.000855118 -4.0254e-05)
(2.21369e-07 0.000822818 -3.85141e-05)
(-7.624e-08 0.000780172 -3.65629e-05)
(-3.31848e-07 0.00072393 -3.4245e-05)
(-4.71824e-07 0.000649748 -3.12882e-05)
(-4.02886e-07 0.000551895 -2.72239e-05)
(-5.77116e-07 0.000339795 -1.78884e-05)
(2.47416e-07 0.000348666 -1.37158e-05)
(-8.45382e-08 0.000563645 -1.89268e-05)
(-1.95009e-07 0.000663111 -2.11128e-05)
(-4.99541e-07 0.000738477 -2.28095e-05)
(-8.5805e-07 0.000795563 -2.42911e-05)
(-1.21472e-06 0.000838803 -2.56612e-05)
(-1.53792e-06 0.000871499 -2.69759e-05)
(-1.81113e-06 0.000896172 -2.82618e-05)
(-2.01299e-06 0.000914716 -2.95239e-05)
(-2.13253e-06 0.000928588 -3.07521e-05)
(-2.16637e-06 0.000938889 -3.19251e-05)
(-2.10706e-06 0.000946472 -3.30176e-05)
(-1.96032e-06 0.000951982 -3.40013e-05)
(-1.73452e-06 0.000955917 -3.48491e-05)
(-1.43702e-06 0.000958641 -3.55357e-05)
(-1.0855e-06 0.000960426 -3.60406e-05)
(-6.94038e-07 0.000961451 -3.63476e-05)
(-2.80183e-07 0.000961823 -3.64472e-05)
(1.36769e-07 0.000961573 -3.63357e-05)
(5.37733e-07 0.000960669 -3.60168e-05)
(9.06206e-07 0.000959 -3.54998e-05)
(1.22611e-06 0.000956389 -3.48009e-05)
(1.48063e-06 0.00095256 -3.39404e-05)
(1.66067e-06 0.000947148 -3.29435e-05)
(1.75923e-06 0.000939653 -3.18372e-05)
(1.77108e-06 0.000929429 -3.06495e-05)
(1.69476e-06 0.000915623 -2.94056e-05)
(1.54278e-06 0.000897131 -2.81257e-05)
(1.32003e-06 0.000872496 -2.68199e-05)
(1.04302e-06 0.000839823 -2.54817e-05)
(7.33402e-07 0.000796589 -2.40829e-05)
(4.19622e-07 0.000739492 -2.25604e-05)
(1.53579e-07 0.000664097 -2.07969e-05)
(6.84964e-08 0.000564583 -1.85278e-05)
(-2.47602e-07 0.000348835 -1.32955e-05)
(-7.46189e-08 0.000355101 -8.67113e-06)
(-5.23514e-07 0.000571687 -9.48918e-06)
(-7.86805e-07 0.000671891 -9.76956e-06)
(-1.19844e-06 0.000747771 -1.01959e-05)
(-1.59825e-06 0.000805198 -1.08245e-05)
(-1.95055e-06 0.000848629 -1.15967e-05)
(-2.24449e-06 0.000881407 -1.24744e-05)
(-2.4668e-06 0.000906066 -1.34297e-05)
(-2.60303e-06 0.000924535 -1.44334e-05)
(-2.65296e-06 0.000938279 -1.54542e-05)
(-2.61005e-06 0.000948428 -1.64571e-05)
(-2.47344e-06 0.00095584 -1.74096e-05)