/*--------------------------------*- C++ -*----------------------------------*\
| =========                 |                                                 |
| \\      /  F ield         | OpenFOAM: The Open Source CFD Toolbox           |
|  \\    /   O peration     | Version:  v2006                                 |
|   \\  /    A nd           | Website:  www.openfoam.com                      |
|    \\/     M anipulation  |                                                 |
\*---------------------------------------------------------------------------*/
FoamFile
{
    version     2.0;
    format      ascii;
    class       volScalarField;
    location    "28";
    object      omega;
}
// * * * * * * * * * * * * * * * * * * * * * * * * * * * * * * * * * * * * * //

dimensions      [0 0 -1 0 0 0 0];


internalField   nonuniform List<scalar> 
78750
(
300.667
23.5932
18.6788
18.9405
14.9004
14.1604
12.6279
12.6167
16.4384
19.7337
22.5774
24.9559
27.0285
28.9024
30.6383
32.2368
33.7084
35.0639
36.2899
37.4161
38.4719
39.4285
40.2698
40.9622
41.5146
41.8901
42.1348
42.1748
42.1463
41.8008
41.6505
40.5278
40.5428
38.7996
426.005
788.319
72.3048
52.5541
36.2509
22.9115
14.4729
9.35856
6.62135
4.82077
4.11027
4.40766
4.83394
3.53381
4.08278
5.93626
6.98436
7.66214
8.24334
8.92306
9.83383
10.7634
11.677
12.5468
13.3591
14.1221
14.8111
15.4533
16.014
16.5569
16.9801
17.5218
17.6434
18.5635
17.8119
622.195
409.568
4.74075
8.26768
10.1422
14.4076
15.969
16.2202
15.8849
14.5601
13.3266
11.5592
9.49872
7.3427
5.37833
3.8534
3.90734
3.95962
3.72684
5.07474
6.86896
7.4655
8.13765
8.70931
9.28766
9.82609
10.3244
10.7947
11.2212
11.6259
11.9838
12.3749
12.5612
12.5995
11.8379
613.483
426.121
15.9573
13.673
10.1879
8.23582
7.36089
7.50106
7.78218
8.41479
8.93981
9.53435
10.0095
10.1723
10.0277
9.5847
8.74846
7.71607
6.97329
6.43479
6.05151
6.10525
6.29437
6.59273
6.97186
7.4073
7.87132
8.33948
8.75431
9.07039
9.18826
9.08575
8.75605
8.37647
9.42398
609.208
416.623
13.1804
14.9005
14.6911
13.942
12.9941
11.8464
10.5845
9.14363
7.52284
6.01833
5.58498
6.13308
6.96354
7.54612
7.70018
7.53733
7.13103
6.44199
5.65824
5.2979
5.38933
5.47657
5.50155
5.57786
5.78744
6.15706
6.65443
7.25224
7.84389
8.21363
8.21761
8.49189
10.1725
608.177
425.973
16.0765
15.616
15.1839
14.7701
14.2978
13.7637
13.2676
12.9278
12.4374
11.3861
10.019
8.68817
7.72504
7.79189
8.2392
8.42453
8.348
7.98749
7.41731
6.92942
6.65702
6.5249
6.45606
6.42557
6.43129
6.49511
6.68804
7.11093
7.83433
8.82576
9.79168
10.664
11.8637
608.175
424.244
15.3388
15.6854
15.5866
15.0502
14.0687
12.762
11.308
9.83795
8.54478
7.50974
6.66069
6.29898
6.62404
7.05052
7.40698
7.68368
7.86764
7.96423
8.00125
7.97627
7.81628
7.58177
7.38363
7.25759
7.19807
7.1846
7.19121
7.22885
7.46898
8.29148
9.87225
11.493
12.5096
607.966
422.437
17.3415
18.2524
18.6648
18.8496
18.8314
18.5564
17.9527
16.9377
15.5265
13.9793
12.5224
11.1414
9.79366
8.60012
7.6279
6.93128
6.54221
6.32059
6.09094
5.75592
5.40794
5.3046
5.41566
5.63764
5.94001
6.28883
6.66411
6.98959
7.33377
7.95545
9.44693
11.7541
12.8201
608.292
426.529
15.9173
16.2828
16.5928
16.8784
17.0979
17.2162
17.1924
16.9644
16.4373
15.5386
14.3615
13.1202
11.9762
10.984
10.1196
9.3004
8.48479
7.62967
6.57826
5.22264
4.09473
3.82026
3.86986
4.01615
3.74843
3.48967
4.52392
5.40779
6.19155
7.02389
8.3723
10.8072
12.4601
608.797
423.597
16.6989
17.4924
17.9541
18.2676
18.4714
18.5966
18.6628
18.664
18.5604
18.2672
17.6531
16.605
15.1751
13.5697
11.9774
10.5524
9.4078
8.59086
8.10213
7.86002
7.16209
4.9838
4.0463
3.55042
3.68231
3.85617
3.58755
3.66887
4.87161
6.14381
7.8154
10.2868
12.3335
609.783
427.289
16.9299
17.4795
17.8053
18.0241
18.1706
18.2712
18.3521
18.4383
18.5459
18.6635
18.7359
18.668
18.3326
17.5682
16.263
14.4857
12.368
9.98811
7.32539
5.19217
3.86659
3.61106
3.82294
3.58573
3.90134
3.66308
3.93857
3.77638
4.08204
5.42249
7.11826
9.73504
12.2883
610.432
429.767
18.0452
18.5693
18.865
19.0418
19.1068
19.0647
18.9302
18.7272
18.4866
18.2507
18.0687
17.9689
17.9282
17.88
17.7351
17.3505
16.4687
14.9643
12.9858
10.6484
8.14068
5.73466
4.04835
3.70324
3.81957
3.59092
3.95239
3.89949
4.07028
4.94627
7.08439
9.56396
12.1398
610.779
432.389
18.4598
18.9221
19.2235
19.4451
19.5902
19.6548
19.6322
19.516
19.2989
18.9747
18.5484
18.0494
17.5273
17.0277
16.5756
16.1675
15.7272
15.018
13.6648
11.8454
10.0815
8.67666
7.63985
6.09242
3.80435
3.73605
3.57245
3.9979
3.80881
4.35022
6.82076
9.8507
12.5608
611.142
433.563
18.5966
18.9813
19.2585
19.4785
19.6359
19.7251
19.7442
19.6942
19.5784
19.3994
19.155
18.8333
18.4229
17.9304
17.3769
16.7904
16.2051
15.5827
14.6377
12.6999
10.0124
7.66043
6.17641
5.298
4.22044
3.83294
4.10835
3.90155
3.79493
4.44436
7.04122
9.74857
12.4278
610.935
435.947
19.0913
19.4194
19.6697
19.8613
19.974
19.9972
19.9274
19.7646
19.5117
19.1768
18.775
18.3228
17.8326
17.3083
16.7565
16.1891
15.6194
15.0446
14.3372
13.116
10.8534
8.38091
6.77375
6.09769
5.54827
3.79145
3.98291
3.96079
4.28947
4.36316
7.14355
10.545
13.0183
611.282
434.55
18.9731
19.5163
19.9176
20.2418
20.4766
20.6124
20.6441
20.5696
20.3874
20.095
19.6903
19.1761
18.5605
17.8543
17.071
16.2361
15.3834
14.5185
13.5393
12.2032
10.1252
7.3433
4.84544
3.70131
3.781
4.35777
4.07298
3.96744
3.9759
4.18171
7.11302
10.6574
13.0891
611.009
435.357
19.2363
19.7034
20.0521
20.3434
20.5655
20.7079
20.7623
20.7229
20.5863
20.3511
20.0179
19.5888
19.0679
18.4592
17.7601
16.9674
16.0866
15.1315
14.0719
12.7748
11.0113
8.70593
6.41503
4.78079
4.11679
3.67663
4.37475
3.81344
4.12403
5.14554
7.70192
11.3937
13.5745
611.323
435.559
19.3868
19.92
20.3144
20.6502
20.921
21.1191
21.2363
21.2633
21.19
21.0073
20.7072
20.2837
19.7357
19.0709
18.3029
17.4442
16.4976
15.4498
14.2572
12.8743
11.2345
9.24325
7.06696
5.1456
4.19783
4.23738
3.83258
3.66902
3.69078
4.37998
7.47958
11.5368
13.661
611.294
434.958
19.382
19.9526
20.3568
20.6972
20.9828
21.2158
21.3952
21.5157
21.5683
21.5431
21.4305
21.2207
20.9017
20.4591
19.882
19.1705
18.3389
17.4108
16.409
15.3263
14.0872
12.5697
10.6034
8.17651
6.15513
4.4575
4.04837
3.95631
3.88981
4.82628
7.58884
11.6983
13.969
612.26
437.512
19.9825
20.4608
20.8116
21.1074
21.3455
21.5238
21.6423
21.7003
21.6959
21.6265
21.4903
21.286
21.0108
20.658
20.2143
19.6617
18.9825
18.1657
17.2116
16.1336
14.9521
13.6672
12.2997
10.8619
9.36439
7.63789
5.91919
4.41137
4.33039
5.73849
9.12511
12.4959
14.2865
612.638
437.085
19.9103
20.4865
20.9174
21.2868
21.5962
21.8449
22.0332
22.1603
22.2234
22.2191
22.1452
22.0019
21.7903
21.5106
21.1593
20.7277
20.2027
19.5698
18.8178
17.941
16.9391
15.8185
14.6266
13.3983
12.1524
10.7024
8.45416
5.78492
5.22807
6.24257
9.48502
13.163
14.9906
613.909
439.56
20.4789
20.9269
21.2763
21.5833
21.8375
22.0324
22.166
22.2395
22.2551
22.2155
22.1221
21.9762
21.7787
21.5303
21.2296
20.8716
20.4457
19.9359
19.3227
18.5901
17.7348
16.7715
15.7354
14.6583
13.4844
12.1043
10.3633
8.08539
6.71464
9.30829
13.4508
15.4954
16.1024
612.717
439.938
20.5406
21.0489
21.4675
21.8488
22.1755
22.4346
22.6191
22.7283
22.7668
22.742
22.6611
22.5297
22.3515
22.1287
21.8625
21.5527
21.1967
20.7883
20.3191
19.7797
19.1643
18.474
17.7155
16.8946
16.0079
15.0126
13.8252
12.4101
11.2193
9.7611
6.8156
12.2437
14.1462
608.259
440.376
20.6947
21.1647
21.5522
21.9175
22.2444
22.5135
22.7096
22.8274
22.8727
22.8566
22.79
22.6803
22.5312
22.345
22.1233
21.8663
21.5714
21.2347
20.8523
20.4207
19.9383
19.4073
18.8303
18.1967
17.4682
16.5415
15.7897
15.2949
14.3383
11.3778
5.71712
8.15908
14.1139
622.149
441.169
20.9028
21.3217
21.6829
22.0536
22.416
22.7368
22.9811
23.1326
23.1946
23.1817
23.11
22.9918
22.8338
22.6404
22.4201
22.173
21.8798
21.5221
21.0899
20.5697
19.9438
19.19
18.2867
17.0683
15.3965
13.0491
11.8035
15.9236
17.38
15.8346
14.1976
15.0068
17.4103
621.405
440.572
20.7766
21.1283
21.4341
21.7854
22.1809
22.5757
22.9087
23.1456
23.2841
23.3373
23.3228
23.2569
23.152
23.0144
22.8456
22.6437
22.4037
22.115
21.7577
21.2959
20.6665
19.7703
18.4842
16.7394
14.7295
13.3921
14.1524
16.5282
17.5642
17.4153
17.4426
17.7085
17.3538
601.957
443.109
21.096
21.2428
21.427
21.7135
22.1088
22.5479
22.9358
23.2219
23.4033
23.4962
23.5199
23.4918
23.4265
23.3344
23.2207
23.0859
22.9289
22.7485
22.5443
22.3161
22.0646
21.7876
21.471
21.0745
20.532
19.7313
18.5709
17.2954
16.2078
15.549
15.5355
15.4487
13.1123
594.75
443.716
20.8613
20.882
21.0133
21.3036
21.7653
22.3039
22.7856
23.1438
23.3765
23.504
23.5481
23.5275
23.4582
23.3533
23.221
23.0577
22.8539
22.6054
22.3151
21.988
21.6256
21.2529
20.9208
20.5812
20.174
20.5278
20.9614
20.704
19.8741
18.595
16.7502
14.9896
14.915
616.218
444.939
20.8689
20.7771
20.8421
21.0784
21.4976
22.0235
22.5328
22.9464
23.2421
23.4264
23.515
23.5234
23.4651
23.352
23.1941
22.9968
22.7473
22.4293
22.0407
21.5755
20.9651
20.1205
19.3686
19.6841
21.0722
22.2867
22.7402
22.532
21.7754
20.3789
18.2173
16.5021
16.5292
615.541
442.985
20.4898
20.5447
20.6615
20.8374
21.0879
21.4369
21.8689
22.3229
22.7341
23.0592
23.2845
23.4166
23.4705
23.4629
23.4103
23.3251
23.2156
23.0837
22.9234
22.7179
22.4372
22.0391
21.487
20.7991
20.0806
19.4948
19.2417
19.4875
19.9336
19.8046
18.9128
17.9002
17.096
610.548
440.575
20.609
20.9855
21.2043
21.3167
21.3417
21.3472
21.4288
21.6446
21.974
22.3378
22.6515
22.8686
22.9807
23.0035
22.9604
22.8732
22.7596
22.6337
22.5132
22.4059
22.3312
22.3674
22.4938
22.307
21.6463
20.5907
19.2277
17.9872
17.7253
18.0979
18.0889
17.6841
16.8504
609.382
438.437
20.908
21.6535
22.0916
22.3472
22.4103
22.2838
22.0224
21.7595
21.6545
21.7865
22.0978
22.4466
22.7119
22.8451
22.8519
22.7593
22.5992
22.3988
22.1777
21.9499
21.7578
21.7428
22.024
22.2694
22.0949
21.5103
20.5218
19.137
17.7957
17.1426
16.976
16.7974
16.2615
608.446
438.396
21.213
22.162
22.8164
23.3429
23.7079
23.8509
23.7185
23.2986
22.6791
22.0872
21.7798
21.8516
22.1646
22.5076
22.7555
22.8749
22.8716
22.7595
22.5523
22.2658
21.9225
21.5566
21.2425
21.1051
21.1682
21.2212
20.996
20.3856
19.4267
18.3254
17.3907
16.7781
16.163
608.793
440.302
21.4373
22.2688
22.9161
23.5423
24.1343
24.6255
24.9256
24.9548
24.6534
24.0016
23.14
22.4239
22.15
22.2646
22.5222
22.7478
22.8765
22.9
22.8258
22.6625
22.4186
22.1013
21.7179
21.2792
20.8284
20.4714
20.2976
20.2097
19.9365
19.3408
18.5391
17.7595
16.9536
610.607
442.804
21.6613
22.257
22.7752
23.3398
23.9531
24.5661
25.0908
25.4404
25.5595
25.4076
24.9183
24.0883
23.229
22.7549
22.6987
22.8395
22.9979
23.0997
23.1287
23.0863
22.975
22.7951
22.5439
22.2142
21.7938
21.2765
20.7011
20.2034
19.91
19.6322
19.1371
18.5104
17.8046
613.526
444.994
21.935
22.3914
22.8588
23.4319
24.075
24.6977
25.2257
25.6132
25.8333
25.874
25.7203
25.3202
24.6436
23.9161
23.4681
23.3261
23.332
23.3639
23.3701
23.3348
23.2524
23.1203
22.9348
22.687
22.355
21.9039
21.3031
20.5861
19.9619
19.6212
19.3001
18.8794
18.4043
616.434
446.318
21.8934
22.2368
22.7366
23.5035
24.4001
25.1708
25.7166
26.0585
26.2343
26.2675
26.1667
25.9243
25.5159
24.9644
24.4441
24.1149
23.9534
23.8664
23.7908
23.6964
23.5675
23.3964
23.18
22.9072
22.545
22.0408
21.3676
20.583
19.8397
19.4228
19.2133
18.9698
18.6719
617.659
447.591
21.6256
21.7049
22.1384
23.1215
24.3839
25.4147
26.0877
26.4839
26.6853
26.7387
26.6666
26.4769
26.1717
25.7662
25.3273
24.9579
24.6987
24.5163
24.3649
24.2114
24.0323
23.8123
23.5447
23.2095
22.7549
22.1146
21.2811
20.3846
19.577
19.0862
18.9158
18.7823
18.5783
616.956
447.84
21.1276
20.8989
21.1439
22.1797
23.7149
25.018
25.9003
26.4627
26.8059
26.9851
27.0275
26.9465
26.7517
26.461
26.1133
25.7674
25.4663
25.2147
24.9933
24.7775
24.5456
24.2788
23.9568
23.5498
23.0076
22.2658
21.3071
20.2662
19.3404
18.7171
18.4752
18.3728
18.2096
615.356
447.246
20.7898
20.3933
20.3763
21.0396
22.4421
23.9298
25.0948
25.9194
26.4888
26.8693
27.0981
27.1945
27.1703
27.0392
26.8259
26.5652
26.2893
26.0178
25.7539
25.4882
25.2059
24.8905
24.5228
24.0764
23.5112
22.7676
21.7937
20.6458
19.5285
18.674
18.2433
18.0785
17.9076
614.302
446.049
20.8742
20.5432
20.2923
20.2308
20.8499
22.1765
23.6223
24.8112
25.693
26.3304
26.7831
27.0878
27.2649
27.3284
27.295
27.1843
27.0171
26.8109
26.5761
26.3145
26.0219
25.69
25.3066
24.8543
24.3062
23.6192
22.7339
21.6251
20.4014
19.3039
18.603
18.2809
18.0249
614.536
445.346
21.4724
21.424
21.1853
20.7179
20.2775
20.5935
21.803
23.2705
24.5229
25.472
26.1716
26.6844
27.0508
27.2953
27.4344
27.4826
27.4548
27.3643
27.2199
27.0259
26.7826
26.4874
26.1341
25.7119
25.2053
24.5869
23.8087
22.8178
21.632
20.4311
19.5157
19.0197
18.6432
616.046
445.122
22.1782
22.5066
22.5277
22.2243
21.5092
20.6581
20.6002
21.635
23.0841
24.3691
25.355
26.0896
26.6373
27.0414
27.3267
27.5104
27.6069
27.6279
27.582
27.474
27.3059
27.077
26.7826
26.415
25.9645
25.4117
24.717
23.8205
22.7003
21.4948
20.5024
19.9084
19.4392
617.941
445.027
22.6204
23.2285
23.5293
23.5598
23.2153
22.3432
21.1579
20.7179
21.5545
22.9848
24.296
25.3067
26.0648
26.6353
27.0613
27.3696
27.578
27.6988
27.7412
27.7118
27.6143
27.4496
27.2134
26.9009
26.5047
26.0089
25.3782
24.55
23.4828
22.3037
21.3138
20.6912
20.1795
619.807
445.124
22.754
23.4513
23.9097
24.2002
24.2477
23.9369
23.0434
21.5966
20.742
21.4305
22.9148
24.2679
25.299
26.0698
26.6522
27.0919
27.4155
27.6381
27.77
27.8188
27.7894
27.6831
27.4993
27.2357
26.8863
26.4382
25.8601
25.0903
24.0717
22.9119
21.926
21.3015
20.7962
621.746
445.484
22.775
23.4634
23.9682
24.3761
24.6382
24.6884
24.4247
23.5655
21.8509
20.606
21.3872
22.9679
24.3154
25.319
26.0707
26.6455
27.0848
27.41
27.6335
27.7628
27.8031
27.7581
27.629
27.4149
27.1117
26.7084
26.1765
25.4574
24.4886
23.3603
22.3906
21.7819
21.303
623.483
446.057
22.8691
23.5501
24.0533
24.462
24.7471
24.8761
24.8143
24.4838
23.5475
21.5356
20.6284
21.8689
23.3997
24.5847
25.4648
26.1376
26.6608
27.0636
27.3592
27.5541
27.6534
27.6602
27.5757
27.3993
27.1274
26.7486
26.2341
25.5295
24.5944
23.5427
22.663
22.0975
21.6083
623.928
445.9
22.9072
23.653
24.1963
24.6099
24.8565
24.911
24.7596
24.3827
23.6902
22.3762
20.9385
21.5893
23.0128
24.1825
25.0608
25.7404
26.2817
26.713
27.0436
27.2765
27.4112
27.4473
27.384
27.2188
26.9452
26.5485
25.9994
25.261
24.3491
23.4205
22.6866
22.1619
21.5902
622.535
444.871
22.7536
23.5753
24.198
24.6898
24.9855
25.0313
24.7871
24.2032
23.2352
22.0466
21.2646
21.8885
23.0712
24.0541
24.8232
25.4472
25.9675
26.3998
26.7452
26.9986
27.1529
27.2033
27.1451
26.9718
26.6718
26.2262
25.6093
24.8117
23.9054
23.0728
22.4456
21.937
21.2629
620.344
443.127
22.3395
23.1804
23.873
24.4968
24.9583
25.1594
25.0241
24.4765
23.4452
22.1564
21.488
21.9637
22.8945
23.7344
24.4408
25.0473
25.5756
26.0311
26.41
26.7019
26.8948
26.9792
26.9472
26.7884
26.4869
26.0206
25.3674
24.5346
23.619
22.8099
22.2071
21.6928
20.9678
618.964
441.393
21.7926
22.5831
23.2977
24.0525
24.7514
25.2529
25.4481
25.2787
24.6715
23.536
22.1633
21.5694
22.0319
22.825
23.5879
24.268
24.8733
25.4102
25.8755
26.2589
26.5435
26.7156
26.7648
26.68
26.4452
26.0377
25.4345
24.6405
23.7434
22.9221
22.2867
21.7446
21.0015
618.925
439.994
21.1709
21.8674
22.5408
23.3423
24.2227
25.036
25.6244
25.9049
25.8506
25.3903
24.3178
22.6557
21.4799
21.503
22.1842
22.9761
23.7153
24.3877
24.9938
25.5245
25.9634
26.2895
26.485
26.5374
26.4338
26.1557
25.6812
25.0072
24.1975
23.4036
22.7457
22.1765
21.4213
620.049
439.244
20.7072
21.333
21.9341
22.6547
23.5015
24.4081
25.2351
25.8503
26.1881
26.2426
25.993
25.264
23.7225
21.9158
21.1818
21.5519
22.2966
23.0647
23.7905
24.467
25.0804
25.5997
25.9949
26.2382
26.3107
26.1973
25.8815
25.3587
24.6761
23.9573
23.3162
22.7376
21.9695
621.556
439.153
20.7364
21.4406
22.038
22.6557
23.3166
24.0398
24.7956
25.4895
26.0149
26.3123
26.3748
26.2077
25.7208
24.5764
22.6795
21.3585
21.3165
21.8951
22.6052
23.3189
24.0175
24.68
25.2675
25.7286
26.015
26.0946
25.9508
25.5834
25.0357
24.4129
23.8158
23.2443
22.4631
622.896
439.697
21.4213
22.3551
23.021
23.5603
23.9963
24.3881
24.8117
25.2954
25.7765
26.1526
26.3554
26.3662
26.1808
25.7294
24.7568
23.059
21.6786
21.4277
21.8315
22.43
23.087
23.7715
24.4553
25.0856
25.5838
25.8712
25.9046
25.6852
25.2615
24.7304
24.1809
23.6178
22.8128
623.755
441.171
22.4991
23.6669
24.4524
25.0164
25.3541
25.4917
25.5136
25.5592
25.7266
25.9746
26.1874
26.2807
26.2215
25.977
25.4503
24.4343
22.968
21.9342
21.7448
22.0344
22.5083
23.08
23.7243
24.4084
25.0574
25.5512
25.7813
25.7195
25.4189
24.9747
24.4688
23.9086
23.0674
624.281
443.258
23.2445
24.4635
25.3688
26.1055
26.6114
26.8374
26.7768
26.5039
26.2133
26.076
26.0727
26.0867
26.0345
25.862
25.4977
24.819
23.7636
22.7091
22.1814
22.1564
22.3908
22.7655
23.2532
23.8454
24.5048
25.1222
25.5351
25.6449
25.4792
25.1303
24.6775
24.1312
23.2695
624.749
445.472
23.2977
24.327
25.2762
26.2329
27.0385
27.558
27.7398
27.5803
27.1583
26.6912
26.3507
26.1245
25.9286
25.686
25.3225
24.7573
23.9798
23.1923
22.7006
22.5549
22.622
22.8157
23.1194
23.5419
24.0859
24.6938
25.2091
25.4644
25.4275
25.1745
24.7832
24.2656
23.4041
625.056
445.783
22.5125
23.2882
24.2676
25.4806
26.6171
27.4374
27.8922
28.0062
27.8163
27.4187
26.9746
26.5815
26.231
25.8712
25.4409
24.8913
24.2425
23.6263
23.2092
23.0208
22.9857
23.0464
23.1928
23.4384
23.8066
24.2942
24.8044
25.1523
25.2289
25.0702
24.7489
24.2785
23.4449
625.091
443.029
21.1112
21.7699
22.8161
24.224
25.5774
26.6149
27.3034
27.6829
27.7953
27.6863
27.4277
27.0944
26.7238
26.3116
25.8293
25.2597
24.6447
24.0916
23.7044
23.4915
23.3946
23.3672
23.3997
23.4997
23.6919
24.0004
24.3975
24.7472
24.8955
24.8179
24.5694
24.1627
23.3873
624.906
438.16
19.8803
20.6212
21.5652
22.7363
23.9413
25.0437
25.9719
26.6829
27.1595
27.4052
27.4492
27.3337
27.0955
26.7534
26.3057
25.7536
25.1439
24.5794
24.1616
23.9085
23.7677
23.6888
23.6535
23.6591
23.717
23.8515
24.0771
24.3335
24.4866
24.4625
24.2834
23.954
23.2681
624.643
433.552
19.6259
20.5678
21.2057
21.7594
22.3459
23.0422
23.8612
24.7568
25.626
26.34
26.8185
27.0605
27.0986
26.9654
26.6771
26.2406
25.6876
25.1033
24.6096
24.2744
24.0723
23.9501
23.88
23.8472
23.8429
23.867
23.933
24.0397
24.1207
24.1004
23.9671
23.7066
23.1092
624.248
432.213
20.6477
22.1566
23.0067
23.4807
23.6423
23.5674
23.3817
23.3016
23.6106
24.3975
25.3265
26.0678
26.5358
26.7527
26.7544
26.5634
26.1929
25.6782
25.1239
24.6657
24.3538
24.156
24.0376
23.9775
23.9605
23.9627
23.9608
23.9523
23.9312
23.8672
23.7396
23.5133
22.9683
623.879
435.941
22.4992
24.4992
25.8109
26.7298
27.2463
27.3298
26.9348
25.9872
24.6423
23.8027
24.1033
24.9546
25.7326
26.2582
26.5424
26.6184
26.5014
26.1933
25.7243
25.2012
24.7537
24.4323
24.2229
24.1
24.0491
24.0501
24.0571
24.0229
23.9413
23.8236
23.668
23.4342
22.8987
623.834
442.995
23.8943
25.5899
26.8883
27.9853
28.8289
29.3584
29.5092
29.1452
27.9549
26.1266
25.0813
25.2134
25.7608
26.2454
26.5656
26.7285
26.7441
26.6045
26.2971
25.845
25.3385
24.8881
24.5485
24.3186
24.1851
24.1379
24.1453
24.1378
24.0645
23.9323
23.7569
23.5102
22.9863
624.502
445.979
23.8077
25.0766
26.1772
27.1867
28.0464
28.7035
29.0976
29.1301
28.6505
27.6744
26.8584
26.6686
26.8174
27.0161
27.1629
27.2353
27.224
27.1126
26.8788
26.5098
26.0346
25.5305
25.081
24.729
24.4793
24.3292
24.2691
24.2507
24.1973
24.0781
23.9044
23.6619
23.1788
625.721
442.008
23.0015
24.4237
25.5988
26.6056
27.4006
27.9659
28.2877
28.3654
28.2632
28.0986
27.9634
27.9067
27.9149
27.9446
27.9604
27.9407
27.8698
27.7312
27.5064
27.1788
26.7496
26.2535
25.7551
25.3149
24.9602
24.6976
24.5294
24.4396
24.3685
24.2579
24.0979
23.8808
23.4742
627.384
438.428
22.9002
24.6691
26.0401
27.1431
27.942
28.4343
28.6515
28.6721
28.6062
28.536
28.5021
28.5016
28.517
28.5293
28.5222
28.4823
28.3985
28.2596
28.0535
27.7666
27.3921
26.9403
26.4505
25.9766
25.5572
25.2089
24.9388
24.7487
24.6126
24.4793
24.3223
24.1301
23.798
629.005
438.419
23.1832
25.0233
26.5009
27.7401
28.6782
29.2884
29.5768
29.5708
29.3554
29.0874
28.9027
28.8201
28.7985
28.7963
28.7857
28.7495
28.6763
28.5566
28.3817
28.1415
27.8283
27.4424
27.0056
26.556
26.1299
25.7493
25.4248
25.1648
24.9646
24.7933
24.6238
24.4374
24.1368
630.243
438.897
22.9359
24.6571
26.1934
27.6078
28.7761
29.6292
30.1565
30.362
30.2617
29.9517
29.6122
29.3625
29.2099
29.1133
29.0346
28.9496
28.8436
28.7068
28.5312
28.3089
28.0331
27.7013
27.3268
26.9351
26.552
26.1943
25.8706
25.5886
25.351
25.1435
24.9469
24.7359
24.3966
630.648
438.241
22.2665
23.8458
25.4403
27.0254
28.383
29.4098
30.1075
30.5032
30.6234
30.5141
30.2755
30.0182
29.7983
29.6146
29.4465
29.2752
29.0884
28.8796
28.6452
28.3831
28.0915
27.7704
27.4331
27.1029
26.7982
26.5205
26.2583
26.0023
25.7528
25.5113
25.2719
25.0021
24.5474
630.135
436.505
21.4178
22.8761
24.4972
26.1722
27.6098
28.7142
29.5133
30.0521
30.3649
30.4877
30.4694
30.3649
30.216
30.0414
29.844
29.6201
29.3656
29.0803
28.7676
28.4341
28.087
27.7347
27.3995
27.118
26.9122
26.757
26.5952
26.3874
26.1332
25.8533
25.5548
25.1946
24.5596
628.864
432.813
19.9978
21.2534
22.7425
24.4199
25.981
27.2868
28.3231
29.1045
29.6607
30.0241
30.228
30.3059
30.287
30.1919
30.0324
29.8135
29.5384
29.2122
28.8443
28.4485
28.0408
27.6407
27.2855
27.0419
26.9523
26.9545
26.9184
26.7702
26.5183
26.2018
25.8377
25.3716
24.5266
627.383
427.119
17.8393
18.5932
19.4111
20.6504
22.2463
23.9846
25.6699
27.0957
28.1729
28.941
29.4614
29.7897
29.9652
30.0159
29.9605
29.8102
29.5729
29.2568
28.8741
28.4428
27.9843
27.5259
27.1184
26.8646
26.8579
27.0256
27.1441
27.0848
26.8619
26.5279
26.1082
25.5398
24.486
626.011
423.403
16.9062
17.408
17.4722
17.4431
17.5982
18.1554
19.719
22.3669
24.8579
26.6494
27.8643
28.6787
29.2043
29.5141
29.654
29.6517
29.5237
29.2803
28.9349
28.5073
28.0214
27.5056
27.0106
26.6545
26.5964
26.8416
27.1186
27.1934
27.0495
26.7426
26.305
25.672
24.467
625.156
429.558
19.6647
20.7931
21.4371
21.6859
21.3376
19.7948
16.6106
16.1066
19.4897
22.9803
25.4327
27.0311
28.0705
28.7426
29.1551
29.368
29.4128
29.3053
29.0573
28.6854
28.2129
27.6668
27.0899
26.5803
26.316
26.4263
26.7382
26.9342
26.903
26.6724
26.2711
25.6356
24.3764
624.758
449.436
22.7589
23.3171
24.3438
25.4277
25.8839
25.1002
21.762
18.1187
19.7792
23.3473
25.494
26.7545
27.6708
28.3779
28.88
29.1943
29.3411
29.341
29.2024
28.919
28.5027
27.9769
27.3742
26.7599
26.2718
26.087
26.2055
26.3765
26.4045
26.253
25.9265
25.3586
24.175
624.727
458.009
22.0985
21.8584
23.1264
24.2649
24.1233
23.0406
23.618
25.532
26.2716
26.9048
27.5369
28.1168
28.6169
29.0224
29.3202
29.5075
29.587
29.563
29.4305
29.1763
28.7983
28.3076
27.723
27.0809
26.4638
26.0128
25.8222
25.7948
25.755
25.6151
25.3442
24.8657
23.8319
624.508
436.197
18.1179
20.4486
22.5342
24.1227
25.4561
26.1602
26.6167
27.1137
27.6751
28.1696
28.5975
28.9654
29.2724
29.5153
29.6913
29.7976
29.8307
29.7846
29.6498
29.416
29.0778
28.6363
28.0971
27.477
26.8184
26.2106
25.7589
25.4814
25.2887
25.0891
24.826
24.4113
23.5204
624.047
426.385
20.2672
21.5348
22.0631
22.3286
22.6716
23.4316
24.5192
25.6015
26.5237
27.293
27.9342
28.4636
28.8908
29.2293
29.4867
29.6661
29.7681
29.7901
29.726
29.5683
29.3109
28.9514
28.4896
27.931
27.2957
26.6333
26.026
25.5405
25.1714
24.8629
24.5537
24.1457
23.3237
623.526
430.343
20.1052
21.1794
21.7041
21.7856
21.3488
20.8035
21.0809
22.2807
23.727
25.0395
26.1387
27.0358
27.7579
28.3319
28.7807
29.1192
29.3623
29.5151
29.5767
29.5424
29.4071
29.167
28.8203
28.3676
27.8181
27.1971
26.5574
25.9658
25.4613
25.0329
24.636
24.1715
23.3208
623.403
428.738
19.6723
21.9061
23.5352
24.5262
24.7403
23.8818
22.395
21.862
22.6709
23.8742
25.0008
25.9753
26.802
27.4918
28.0578
28.5128
28.8683
29.1303
29.3001
29.3752
29.3516
29.2249
28.992
28.6522
28.2088
27.6747
27.0813
26.4791
25.9146
25.4028
24.9211
24.3813
23.4676
623.902
429.396
20.1226
22.1186
23.819
25.2293
26.2105
26.6078
25.8294
24.0139
23.1854
23.7099
24.6236
25.4928
26.2678
26.9551
27.5535
28.0611
28.4785
28.8073
29.0473
29.1966
29.2522
29.2105
29.0695
28.8279
28.4848
28.0445
27.5239
26.9565
26.3813
25.821
25.2691
24.6493
23.649
624.514
432.732
20.6059
22.2229
23.7365
25.2607
26.5805
27.5076
27.8875
27.1095
25.3879
24.583
24.8948
25.5574
26.2028
26.7806
27.3065
27.7853
28.2086
28.5644
28.8423
29.0348
29.1372
29.1477
29.0668
28.8955
28.6334
28.2803
27.8423
27.337
26.7897
26.2201
25.6295
24.9536
23.8861
625.301
434.848
20.8514
22.3737
23.9095
25.4114
26.7013
27.6446
28.1315
27.9306
26.924
26.2016
26.3148
26.6558
26.9974
27.3508
27.7192
28.0749
28.3947
28.6663
28.8883
29.0534
29.1472
29.1606
29.0902
28.9378
28.7053
28.393
28.0026
27.5415
27.0233
26.4601
25.8534
25.1415
24.022
625.767
435.962
21.2948
22.7556
24.2255
25.5563
26.6199
27.3183
27.5566
27.4614
27.4162
27.5354
27.7218
27.9179
28.1243
28.3441
28.564
28.7711
28.9532
29.1027
29.2188
29.2973
29.326
29.2936
29.1936
29.0252
28.7903
28.4896
28.1218
27.6877
27.1916
26.638
26.0243
25.2837
24.1062
625.796
431.849
21.942
23.5591
24.7304
25.6337
26.3987
27.0179
27.4746
27.8193
28.1166
28.393
28.6438
28.8668
29.0632
29.2333
29.3764
29.4919
29.5785
29.635
29.6594
29.6471
29.5906
29.4823
29.3172
29.0943
28.817
28.4885
28.1084
27.6746
27.1855
26.6397
26.0296
25.2788
24.0621
625.234
422.908
21.9486
23.4291
24.3574
25.1525
25.9034
26.5939
27.1911
27.7017
28.1486
28.5443
28.892
29.1924
29.4461
29.6534
29.8149
29.9314
30.0045
30.0346
30.0215
29.9632
29.8559
29.6957
29.4797
29.2088
28.8881
28.5228
28.1149
27.6634
27.1651
26.6152
25.9992
25.2231
23.9228
623.972
416.899
18.3655
20.3862
21.9112
23.2842
24.4838
25.4662
26.2722
26.9546
27.5509
28.0771
28.541
28.9464
29.2944
29.585
29.8175
29.9919
30.1081
30.166
30.1652
30.1044
29.9819
29.7956
29.5462
29.239
28.8824
28.4853
28.0537
27.5883
27.0857
26.5389
25.9288
25.151
23.813
623.07
409.457
13.8587
16.278
18.5608
20.7946
22.6267
24.0013
25.0706
25.9513
26.7013
27.3547
27.9286
28.4324
28.8717
29.2487
29.5636
29.8153
30.0021
30.1221
30.1734
30.1539
30.0605
29.8905
29.6456
29.3303
28.9536
28.5275
28.0635
27.569
27.0453
26.4865
25.8703
25.0832
23.7066
622.284
411.195
11.4058
12.2228
13.9134
17.0107
19.927
22.1234
23.7287
24.9223
25.8642
26.642
27.3082
27.89
28.4011
28.8477
29.231
29.5491
29.7987
29.9761
30.0785
30.1026
30.0457
29.9054
29.6844
29.388
29.0251
28.6076
28.1476
27.6539
27.1285
26.5646
25.9374
25.1266
23.6918
622.008
419.938
14.6102
14.5735
13.0265
12.4064
15.7095
19.0439
21.464
23.2517
24.5981
25.6551
26.5167
27.2401
27.8577
28.3884
28.8431
29.2277
29.5423
29.7839
29.948
30.0299
30.0248
29.9286
29.7404
29.4651
29.1118
28.6934
28.2246
27.7181
27.1803
26.6087
25.9842
25.2017
23.8505
622.806
426.242
17.2693
17.9207
17.3572
14.937
15.5536
18.9999
21.5485
23.1132
24.263
25.257
26.1278
26.8801
27.5267
28.0924
28.5901
29.0146
29.3657
29.6439
29.8476
29.9731
30.0159
29.9712
29.8353
29.6076
29.2936
28.904
28.4519
27.9501
27.4069
26.8211
26.1718
25.342
23.8867
622.43
425.656
17.1557
17.6904
17.8576
18.5711
20.1752
21.6517
22.8002
23.7584
24.6387
25.4634
26.2097
26.8741
27.4766
28.0323
28.5299
28.9596
29.3185
29.6058
29.8202
29.959
30.0189
29.996
29.8874
29.6914
29.4094
29.0492
28.6206
28.1331
27.593
27.0011
26.3438
25.525
24.1422
623.69
423.509
18.3291
19.0467
19.9823
20.8866
21.7274
22.566
23.3929
24.2
24.9819
25.7281
26.4246
27.0627
27.6414
28.162
28.6236
29.0251
29.366
29.645
29.8594
30.0051
30.077
30.0701
29.9799
29.8032
29.5389
29.1922
28.7725
28.2905
27.7556
27.1723
26.5297
25.7282
24.346
623.632
416.644
19.3559
20.2359
20.7202
21.2452
21.8132
22.4308
23.0921
23.7778
24.4695
25.1567
25.8333
26.4921
27.1212
27.7079
28.2408
28.7132
29.1202
29.4586
29.7258
29.9191
30.0352
30.0707
30.0221
29.8861
29.6601
29.3459
28.9492
28.4771
27.9362
27.3282
26.6379
25.7522
24.2131
622.795
412.658
17.669
19.6273
20.5844
21.2278
21.7734
22.3106
22.8971
23.5698
24.3252
25.1173
25.8895
26.6042
27.2475
27.813
28.2996
28.7168
29.0748
29.3799
29.6323
29.8276
29.9591
30.02
30.0039
29.9051
29.7204
29.4497
29.096
28.665
28.1646
27.6023
26.9767
26.2108
24.9077
625.08
409.209
15.5141
18.066
19.3759
20.2155
20.884
21.5034
22.1428
22.8389
23.565
24.2477
24.903
25.5561
26.175
26.787
27.4213
28.0326
28.5754
29.0271
29.381
29.6415
29.8127
29.8966
29.8926
29.7986
29.6135
29.3383
28.9769
28.536
28.0226
27.4393
26.767
25.8691
24.2111
621.438
412.038
14.7521
17.0789
18.8192
20.09
20.8768
21.4105
21.7221
21.8447
21.9026
22.1366
22.6857
23.4391
24.2877
25.1698
26.0317
26.8143
27.495
28.0813
28.5859
29.0105
29.3471
29.588
29.7285
29.7661
29.6994
29.5284
29.2558
28.8869
28.4291
27.8898
27.2692
26.4988
25.1848
625.969
414.824
16.1759
16.9654
16.7854
16.4134
16.3211
17.2569
19.9879
22.8578
24.7251
25.8131
26.4986
27.0489
27.5458
27.958
28.2762
28.5364
28.7669
28.9707
29.1533
29.3159
29.4511
29.5447
29.5816
29.5493
29.4394
29.2467
28.9699
28.6108
28.1734
27.6603
27.0569
26.2396
24.6966
623.138
427.381
19.3537
20.0954
20.2036
20.1865
20.109
19.9095
19.8645
20.435
21.5025
22.6474
23.5001
24.0382
24.4233
24.8135
25.3563
26.0574
26.8214
27.5437
28.1552
28.633
28.9843
29.2227
29.358
29.394
29.3311
29.1699
28.9123
28.5623
28.1248
27.6023
26.9833
26.167
24.6983
624.124
426.71
18.9311
19.1975
18.349
17.8573
18.5311
19.0542
19.4334
19.8597
20.395
20.9734
21.5345
22.1074
22.7663
23.5569
24.4444
25.3505
26.2171
27.007
27.6948
28.2669
28.7209
29.0598
29.2875
29.4073
29.4218
29.3338
29.1471
28.8671
28.5018
28.0593
27.5421
26.8912
25.7383
628.547
414.542
17.6322
19.7268
20.7148
20.9099
21.072
21.3416
21.6482
22.0438
22.5762
23.2113
23.8972
24.6053
25.3143
25.9957
26.623
27.1836
27.6769
28.1066
28.4747
28.7787
29.014
29.1755
29.2589
29.2615
29.1814
29.0179
28.7707
28.4401
28.0261
27.5251
26.9152
26.066
24.516
624.648
432.721
16.9152
16.4572
17.1376
18.2721
19.2533
20.1642
21.0395
21.8422
22.5719
23.2716
23.967
24.6571
25.3297
25.9842
26.6273
27.2559
27.848
28.3747
28.8131
29.1568
29.4085
29.5724
29.6508
29.6437
29.5511
29.3736
29.1128
28.7716
28.3535
27.8619
27.2956
26.5917
25.4337
628.621
444.006
19.5159
18.5352
18.7192
20.5725
21.7891
22.5499
23.1485
23.6393
24.0491
24.4276
24.8229
25.2653
25.7566
26.2705
26.7704
27.2338
27.6579
28.0445
28.3863
28.6707
28.8855
29.0246
29.0886
29.081
29.0041
28.8583
28.6436
28.3603
28.0087
27.5871
27.0772
26.3548
24.9244
624.416
441.769
18.6632
19.6296
21.4077
22.3247
22.8621
23.363
23.9082
24.5119
25.1451
25.7648
26.3322
26.8244
27.2448
27.6129
27.9506
28.2742