/*--------------------------------*- C++ -*----------------------------------*\
| =========                 |                                                 |
| \\      /  F ield         | OpenFOAM: The Open Source CFD Toolbox           |
|  \\    /   O peration     | Version:  v2006                                 |
|   \\  /    A nd           | Website:  www.openfoam.com                      |
|    \\/     M anipulation  |                                                 |
\*---------------------------------------------------------------------------*/
FoamFile
{
    version     2.0;
    format      ascii;
    class       surfaceScalarField;
    location    "28";
    object      phi;
}
// * * * * * * * * * * * * * * * * * * * * * * * * * * * * * * * * * * * * * //

dimensions      [1 0 -1 0 0 0 0];
oriented        oriented;


internalField   nonuniform List<scalar> 
228225
(
0.000199693
-3.55159e-05
0.00113471
0.000118869
-5.87077e-05
0.000186359
0.000103642
-3.53972e-05
7.55835e-05
0.000115194
-3.98988e-05
4.04049e-05
0.000124543
-3.28252e-05
3.04064e-05
0.0001395
-3.35575e-05
2.26751e-05
0.000154802
-3.05285e-05
1.76161e-05
0.000173932
-3.18261e-05
1.41052e-05
0.000189569
-2.62649e-05
1.14336e-05
0.000207687
-2.72462e-05
9.54067e-06
0.000222207
-2.23916e-05
7.99171e-06
0.000233889
-1.85435e-05
6.74771e-06
0.000242339
-1.44909e-05
5.73136e-06
0.000248019
-1.10557e-05
4.89949e-06
0.000251771
-8.58199e-06
4.20947e-06
0.000254257
-6.8386e-06
3.60857e-06
0.000255638
-5.2658e-06
3.04092e-06
0.000255758
-3.49169e-06
2.45817e-06
0.000254466
-1.52166e-06
1.86344e-06
0.000251726
5.06973e-07
1.26036e-06
0.000246809
3.49138e-06
4.53844e-07
0.00024003
5.97452e-06
-1.35426e-07
0.000231678
8.18432e-06
-7.1539e-07
0.000221939
1.01914e-05
-1.25675e-06
0.000210892
1.2032e-05
-1.70111e-06
0.000198565
1.37157e-05
-2.00271e-06
0.000184857
1.53077e-05
-2.12112e-06
0.000169669
1.68243e-05
-2.05194e-06
0.000152696
1.83906e-05
-1.75568e-06
0.00013392
1.98585e-05
-1.30475e-06
0.000112763
2.16618e-05
-7.40836e-07
8.90094e-05
2.30931e-05
8.69004e-07
6.36707e-05
2.45189e-05
-8.88145e-08
3.59189e-05
2.5795e-05
3.26007e-06
2.43788e-05
1.28631e-05
3.2615e-05
-1.27195e-05
-4.96852e-05
4.20841e-05
-2.07913e-05
-4.90655e-05
7.38247e-05
-2.75224e-05
-3.54834e-05
8.7349e-05
-2.07562e-05
-2.4392e-05
8.97273e-05
-1.84025e-05
-8.39651e-06
7.74977e-05
-1.74079e-05
3.19025e-07
5.89742e-05
-1.63566e-05
6.34714e-06
3.98053e-05
-1.83715e-05
6.43626e-06
2.53284e-05
-1.75355e-05
6.37375e-06
1.31287e-05
-2.11653e-05
6.58668e-06
5.69191e-06
-2.06032e-05
5.94076e-06
1.25484e-06
-1.95812e-05
5.63295e-06
-5.60603e-07
-1.78602e-05
5.23217e-06
5.5119e-07
-1.70543e-05
4.8325e-06
5.03081e-06
-1.76989e-05
4.45576e-06
1.23216e-05
-1.85518e-05
4.09369e-06
2.08747e-05
-1.79666e-05
3.72082e-06
2.89832e-05
-1.5308e-05
3.28788e-06
3.55954e-05
-1.12209e-05
2.75102e-06
4.05412e-05
-6.78742e-06
2.11503e-06
4.50337e-05
-2.56481e-06
1.43195e-06
4.8984e-05
1.24028e-06
7.39008e-07
5.29899e-05
4.17125e-06
2.53015e-08
5.65033e-05
7.30639e-06
-5.58313e-07
5.93658e-05
1.03827e-05
-1.10612e-06
6.14399e-05
1.3363e-05
-1.58195e-06
6.26067e-05
1.62444e-05
-1.94909e-06
6.27738e-05
1.90068e-05
-2.17499e-06
6.1838e-05
2.17148e-05
-2.22115e-06
5.94473e-05
2.44612e-05
-1.99917e-06
5.51798e-05
2.75628e-05
-1.4222e-06
4.81315e-05
3.0941e-05
-2.95553e-07
3.6766e-05
3.5318e-05
1.32947e-06
1.73186e-05
3.85961e-05
8.65174e-06
3.21194e-05
1.03004e-05
-3.77569e-06
-2.54944e-05
1.18357e-05
-3.23122e-05
-4.23434e-05
4.60244e-05
-3.2583e-05
-4.19627e-05
1.08304e-05
-2.23156e-05
-3.33738e-05
4.3059e-07
-1.22741e-05
-2.65685e-05
-2.94919e-06
-3.73971e-06
-2.35553e-05
-2.88466e-06
1.52203e-06
-2.00858e-05
-1.93191e-06
1.61432e-06
-1.81162e-05
-5.84187e-07
4.83956e-08
-1.71554e-05
1.10383e-06
-7.22719e-06
-1.60953e-05
2.17875e-06
-1.57679e-05
-1.53948e-05
3.32169e-06
-2.55365e-05
-1.41217e-05
4.24189e-06
-3.55882e-05
-1.29065e-05
4.90484e-06
-4.55202e-05
-1.27924e-05
5.2342e-06
-5.53398e-05
-1.4077e-05
5.35761e-06
-6.44569e-05
-1.604e-05
5.38372e-06
-7.12382e-05
-1.7624e-05
5.2074e-06
-7.4204e-05
-1.78228e-05
4.65221e-06
-7.31515e-05
-1.64626e-05
3.85011e-06
-6.87937e-05
-1.42904e-05
3.09512e-06
-6.17435e-05
-1.19893e-05
2.46048e-06
-5.27998e-05
-9.39918e-06
1.90933e-06
-4.35e-05
-6.17922e-06
1.40961e-06
-3.43216e-05
-2.31376e-06
9.3813e-07
-2.55032e-05
1.67872e-06
5.1125e-07
-1.71035e-05
5.56067e-06
1.59976e-07
-9.68893e-06
9.71325e-06
9.79788e-09
-3.51737e-06
1.38692e-05
4.16974e-10
1.25382e-06
1.78768e-05
2.33433e-07
4.72656e-06
2.14946e-05
8.07601e-07
7.24667e-06
2.48283e-05
1.68648e-06
8.75233e-06
2.81676e-05
3.0336e-06
8.37186e-06
3.2528e-05
5.45562e-06
4.99414e-06
3.5537e-05
9.27125e-06
3.05416e-05
6.82038e-06
4.87123e-06
-3.18084e-05
2.48347e-06
1.35951e-05
-4.41383e-05
-4.88303e-06
8.23191e-06
-3.84706e-05
4.36499e-06
2.70395e-06
-3.37133e-05
6.67496e-06
1.46352e-06
-3.06688e-05
5.47937e-06
2.74879e-06
-2.86899e-05
3.80831e-06
6.07478e-06
-2.62893e-05
2.83923e-06
8.93522e-06
-2.32919e-05
2.28971e-06
9.78633e-06
-1.99762e-05
1.94653e-06
9.26437e-06
-1.74504e-05
1.86281e-06
7.10433e-06
-1.50364e-05
1.80046e-06
3.79754e-06
-1.26069e-05
1.80671e-06
-6.7031e-07
-1.0321e-05
1.90427e-06
-7.23086e-06
-8.26839e-06
2.0501e-06
-1.68209e-05
-6.74503e-06
2.21966e-06
-2.91492e-05
-6.35845e-06
2.48646e-06
-4.22768e-05
-7.62033e-06
2.88365e-06
-5.36067e-05
-9.83471e-06
3.18345e-06
-6.14951e-05
-1.18799e-05
3.25123e-06
-6.59688e-05
-1.29914e-05
3.15264e-06
-6.78882e-05
-1.29965e-05
2.90971e-06
-6.77068e-05
-1.21391e-05
2.57075e-06
-6.54169e-05
-1.06205e-05
2.21549e-06
-6.08406e-05
-8.64798e-06
1.86852e-06
-5.42502e-05
-6.26403e-06
1.51446e-06
-4.634e-05
-3.27437e-06
1.15873e-06
-3.77178e-05
6.19312e-07
8.14236e-07
-2.87641e-05
4.90171e-06
5.12571e-07
-2.04347e-05
9.97687e-06
2.90733e-07
-1.33649e-05
1.51794e-05
2.50076e-07
-7.36695e-06
1.9603e-05
5.14866e-07
-2.12699e-06
2.32488e-05
1.18982e-06
9.42387e-07
2.82775e-05
2.85232e-06
9.7068e-07
3.20231e-05
4.86944e-06
2.78786e-05
3.35258e-06
-4.86743e-06
-3.14187e-05
4.03536e-06
-1.46966e-05
-4.19509e-05
6.11824e-06
-1.21216e-05
-4.29786e-05
1.15086e-06
-7.07898e-06
-4.12126e-05
2.25453e-06
-1.51411e-06
-3.95575e-05
3.27563e-06
3.46508e-06
-3.75594e-05
3.94617e-06
8.0856e-06
-3.49692e-05
4.19157e-06
1.16576e-05
-3.09544e-05
4.32504e-06
1.35341e-05
-2.5987e-05
4.46706e-06
1.31999e-05
-2.12946e-05
4.55783e-06
1.17823e-05
-1.77549e-05
4.49753e-06
1.06838e-05
-1.54418e-05
4.23643e-06
1.06896e-05
-1.39604e-05
3.88094e-06
1.18005e-05
-1.27183e-05
3.53639e-06
1.28515e-05
-1.09518e-05
3.30847e-06
1.22619e-05
-8.85138e-06
3.22349e-06
9.15061e-06
-7.54807e-06
3.2166e-06
3.70793e-06
-7.39424e-06
3.2481e-06
-2.99463e-06
-8.23016e-06
3.35918e-06
-9.83921e-06
-9.3911e-06
3.559e-06
-1.62045e-05
-1.00553e-05
3.70106e-06
-2.16193e-05
-1.01931e-05
3.69075e-06
-2.55821e-05
-1.00738e-05
3.58934e-06
-2.7672e-05
-9.86816e-06
3.44537e-06
-2.75439e-05
-9.55357e-06
3.2565e-06
-2.48683e-05
-8.91198e-06
3.00466e-06
-1.94222e-05
-7.52832e-06
2.67968e-06
-1.2144e-05
-4.75467e-06
2.28266e-06
-4.07288e-06
-6.37744e-08
1.80199e-06
1.81939e-06
7.8378e-06
1.24712e-06
4.47404e-06
1.61602e-05
6.80105e-07
4.46295e-06
2.3078e-05
2.08753e-07
2.91051e-06
2.93371e-05
4.05488e-07
1.08309e-06
3.24708e-05
1.26508e-06
2.80047e-05
9.85096e-07
6.73577e-06
-3.61321e-05
-1.7457e-06
1.28021e-05
-4.56861e-05
-1.82109e-06
1.60802e-05
-4.54846e-05
-4.45486e-07
1.88895e-05
-4.43355e-05
4.18344e-07
2.09338e-05
-4.27217e-05
1.09273e-06
2.26225e-05
-4.07616e-05
1.38501e-06
2.41021e-05
-3.81472e-05
1.46448e-06
2.56046e-05
-3.41827e-05
1.44186e-06
2.66366e-05
-2.87087e-05
1.47986e-06
2.6353e-05
-2.28238e-05
1.74268e-06
2.45484e-05
-1.81114e-05
2.2269e-06
2.19245e-05
-1.53576e-05
2.68579e-06
1.90924e-05
-1.38722e-05
2.94489e-06
1.63024e-05
-1.25976e-05
2.92725e-06
1.36813e-05
-1.07806e-05
2.68009e-06
1.09675e-05
-8.48162e-06
2.48867e-06
7.61179e-06
-6.53835e-06
2.43298e-06
3.08509e-06
-5.25673e-06
2.44828e-06
-2.71862e-06
-4.9371e-06
2.55545e-06
-9.08258e-06
-5.75984e-06
2.77087e-06
-1.47818e-05
-7.28885e-06
2.9922e-06
-1.89029e-05
-9.11949e-06
3.145e-06
-2.16519e-05
-1.04193e-05
3.22813e-06
-2.34529e-05
-1.11557e-05
3.25323e-06
-2.44964e-05
-1.15406e-05
3.22126e-06
-2.46471e-05
-1.16803e-05
3.12554e-06
-2.34225e-05
-1.15019e-05
2.94881e-06
-2.01357e-05
-1.05613e-05
2.66135e-06
-1.46626e-05
-7.79584e-06
2.24682e-06
-7.53193e-06
-1.25905e-06
1.68059e-06
-2.31806e-06
9.37631e-06
9.5813e-07
-1.57182e-06
2.1444e-05
1.29413e-07
-2.262e-06
2.96441e-05
-2.86815e-07
-1.58525e-06
3.16256e-05
-3.17899e-07
2.63614e-05
-1.56748e-07
-6.87137e-06
-3.31128e-05
3.56905e-06
-1.38985e-05
-4.54803e-05
6.50165e-06
-1.87073e-05
-4.68736e-05
6.05059e-06
-2.20243e-05
-4.66157e-05
5.57355e-06
-2.39899e-05
-4.58682e-05
5.1397e-06
-2.47764e-05
-4.47377e-05
4.78572e-06
-2.42417e-05
-4.31672e-05
4.46806e-06
-2.1657e-05
-4.10111e-05
4.17936e-06
-1.64618e-05
-3.78884e-05
3.91484e-06
-9.56541e-06
-3.34066e-05
3.67341e-06
-3.02333e-06
-2.8059e-05
3.47904e-06
1.25586e-06
-2.28195e-05
3.33394e-06
2.71512e-06
-1.83241e-05
3.18297e-06
2.01333e-06
-1.4746e-05
3.02537e-06
7.31446e-07
-1.22484e-05
2.89935e-06
1.84838e-07
-1.05985e-05
2.78999e-06
3.91023e-07
-9.35394e-06
2.71164e-06
7.49333e-07
-8.21231e-06
2.68215e-06
6.67351e-07
-7.45679e-06
2.68182e-06
-7.3996e-08
-7.60307e-06
2.66833e-06
-1.20367e-06
-8.71787e-06
2.65062e-06
-2.38082e-06
-1.05234e-05
2.68467e-06
-3.44299e-06
-1.20233e-05
2.77887e-06
-4.49478e-06
-1.28715e-05
2.88694e-06
-5.748e-06
-1.31419e-05
2.97953e-06
-7.38572e-06
-1.29493e-05
3.03874e-06
-9.36109e-06
-1.24221e-05
3.03835e-06
-1.09412e-05
-1.17789e-05
2.95404e-06
-1.0515e-05
-1.08171e-05
2.7623e-06
-6.48881e-06
-7.56044e-06
2.38673e-06
-5.67923e-07
1.51789e-06
1.76471e-06
1.83615e-06
1.7459e-05
9.04515e-07
4.7865e-07
3.01337e-05
-8.56886e-09
-6.28776e-08
3.18762e-05
-4.27582e-07
2.61686e-05
-3.15256e-07
1.71113e-06
-3.53668e-05
6.3787e-07
2.75241e-06
-4.485e-05
-1.64872e-06
3.28118e-06
-4.58322e-05
-1.59457e-06
3.23173e-06
-4.57281e-05
-8.79413e-07
2.87363e-06
-4.53248e-05
-2.21431e-07
2.37316e-06
-4.47008e-05
4.4632e-07
2.0665e-06
-4.38934e-05
1.03551e-06
2.35721e-06
-4.28443e-05
1.54333e-06
3.68309e-06
-4.12356e-05
1.99818e-06
6.32745e-06
-3.8462e-05
2.39465e-06
9.85246e-06
-3.42323e-05
2.69363e-06
1.31508e-05
-2.88803e-05
2.90596e-06
1.52582e-05
-2.3265e-05
3.08773e-06
1.58344e-05
-1.8234e-05
3.24554e-06
1.47002e-05
-1.41024e-05
3.34551e-06
1.19805e-05
-1.09102e-05
3.37786e-06
8.23115e-06
-8.65308e-06
3.35296e-06
4.33646e-06
-7.38039e-06
3.30195e-06
9.27274e-07
-7.11508e-06
3.25953e-06
-1.89275e-06
-7.8586e-06
3.24019e-06
-4.1755e-06
-9.538e-06
3.25246e-06
-5.92914e-06
-1.19146e-05
3.28639e-06
-6.70083e-06
-1.44276e-05
3.30637e-06
-6.57526e-06
-1.61699e-05
3.28403e-06
-6.0463e-06
-1.68019e-05
3.22341e-06
-5.62059e-06
-1.6437e-05
3.1406e-06
-5.71845e-06
-1.52979e-05
3.04573e-06
-6.6302e-06
-1.37224e-05
2.93245e-06
-8.04577e-06
-1.20769e-05
2.77831e-06
-8.14465e-06
-9.84357e-06
2.54994e-06
-4.62724e-06
-3.94554e-06
2.15943e-06
6.3716e-07
1.06811e-05
1.48982e-06
1.21797e-06
2.84731e-05
6.3142e-07
5.92571e-07
3.20373e-05
-6.62473e-08
2.63941e-05
-1.07995e-07
1.06151e-06
-3.57037e-05
-7.67023e-07
4.05475e-06
-4.76474e-05
-1.88152e-07
5.77825e-06
-4.88205e-05
1.28233e-06
6.2685e-06
-4.83117e-05
2.11514e-06
5.73455e-06
-4.72402e-05
2.48264e-06
4.35873e-06
-4.58438e-05
2.56556e-06
2.3324e-06
-4.43122e-05
2.5023e-06
-3.30304e-08
-4.28217e-05
2.40025e-06
-2.0881e-06
-4.14839e-05
2.34039e-06
-2.70785e-06
-4.02278e-05
2.37617e-06
-8.21896e-07
-3.8697e-05
2.52054e-06
3.93248e-06
-3.64279e-05
2.72258e-06
1.08563e-05
-3.31462e-05
2.91266e-06
1.84005e-05
-2.8834e-05
3.06354e-06
2.5015e-05
-2.38125e-05
3.17392e-06
2.96149e-05
-1.86027e-05
3.25139e-06
3.16539e-05
-1.37638e-05
3.30481e-06
3.10255e-05
-9.80898e-06
3.32901e-06
2.78967e-05
-7.00298e-06
3.32804e-06
2.27794e-05
-5.70202e-06
3.32006e-06
1.63239e-05
-6.05142e-06
3.3109e-06
9.34016e-06
-7.93485e-06
3.32075e-06
3.50831e-06
-1.16494e-05
3.36098e-06
-3.09349e-07
-1.54507e-05
3.36183e-06
-2.39162e-06
-1.78055e-05
3.29388e-06
-3.28287e-06
-1.85666e-05
3.18153e-06
-3.46209e-06
-1.80504e-05
3.05e-06
-3.41453e-06
-1.65927e-05
2.90845e-06
-3.58315e-06
-1.45862e-05
2.74807e-06
-3.87183e-06
-1.20041e-05
2.54497e-06
-2.81822e-06
-7.06304e-06
2.26607e-06
9.984e-07
5.34683e-06
1.81444e-06
2.76441e-06
2.56971e-05
1.11119e-06
1.49494e-06
3.25646e-05
5.0055e-07
2.7194e-05
1.95602e-07
9.55202e-07
-3.67912e-05
1.7702e-07
2.89936e-06
-4.86472e-05
-8.98821e-07
5.38539e-06
-4.99782e-05
-1.28197e-06
7.69824e-06
-4.96612e-05
-9.21916e-07
9.68795e-06
-4.88154e-05
-3.85129e-07
1.1298e-05
-4.76071e-05
1.70605e-07
1.24358e-05
-4.61093e-05
6.74994e-07
1.29928e-05
-4.43575e-05
1.00958e-06
1.27558e-05
-4.24026e-05
1.21248e-06
1.16313e-05
-4.0359e-05
1.33408e-06
9.98083e-06
-3.84029e-05
1.43839e-06
8.67619e-06
-3.66506e-05
1.59208e-06
8.69723e-06
-3.49669e-05
1.83825e-06
1.07129e-05
-3.29837e-05
2.1555e-06
1.48267e-05
-3.03807e-05
2.47322e-06
2.04825e-05
-2.69649e-05
2.73653e-06
2.65899e-05
-2.27386e-05
2.92073e-06
3.17957e-05
-1.7953e-05
3.02243e-06
3.49628e-05
-1.3117e-05
3.0534e-06
3.54506e-05
-9.10472e-06
3.02433e-06
3.32375e-05
-6.67509e-06
2.95382e-06
2.87067e-05
-6.07925e-06
2.88291e-06
2.2304e-05
-7.80444e-06
2.91852e-06
1.49637e-05
-1.07153e-05
2.98679e-06
8.09215e-06
-1.35898e-05
2.97351e-06
2.80617e-06
-1.59093e-05
2.89115e-06
-4.65643e-07
-1.73269e-05
2.77365e-06
-1.94633e-06
-1.75617e-05
2.63538e-06
-2.32905e-06
-1.65365e-05
2.47909e-06
-2.32689e-06
-1.41694e-05
2.29923e-06
-2.02915e-06
-9.25343e-06
2.0935e-06
-6.24018e-07
2.46853e-06
1.81219e-06
1.45049e-06
2.26859e-05
1.25813e-06
8.19598e-07
3.24551e-05
6.89514e-07
2.73609e-05
2.96729e-07
3.43792e-06
-3.8864e-05
-1.25524e-06
8.13482e-06
-5.14678e-05
-1.79258e-06
1.23741e-05
-5.31908e-05
-9.65e-07
1.60132e-05
-5.3007e-05
-2.44855e-07
1.90589e-05
-5.21902e-05
3.69415e-07
2.15869e-05
-5.09539e-05
8.53722e-07
2.36929e-05
-4.93744e-05
1.18865e-06
2.54256e-05
-4.74566e-05
1.39362e-06
2.67474e-05
-4.51712e-05
1.48341e-06
2.74972e-05
-4.25222e-05
1.47934e-06
2.74173e-05
-3.96248e-05
1.41331e-06
2.63256e-05
-3.67312e-05
1.32815e-06
2.44145e-05
-3.4146e-05
1.27111e-06
2.23776e-05
-3.20496e-05
1.28729e-06
2.11082e-05
-3.03505e-05
1.42034e-06
2.13181e-05
-2.86804e-05
1.69185e-06
2.33335e-05
-2.66122e-05
2.05817e-06
2.69527e-05
-2.37866e-05
2.43606e-06
3.12988e-05
-1.99634e-05
2.75283e-06
3.49261e-05
-1.54088e-05
2.96251e-06
3.65749e-05
-1.1073e-05
3.06229e-06
3.57555e-05
-8.02822e-06
3.08193e-06
3.19091e-05
-6.70314e-06
3.00131e-06
2.56665e-05
-7.11585e-06
2.83421e-06
1.86974e-05
-9.11088e-06
2.67841e-06
1.24093e-05
-1.19732e-05
2.57285e-06
7.60492e-06
-1.47616e-05
2.46956e-06
4.55254e-06
-1.6621e-05
2.32492e-06
2.99896e-06
-1.6931e-05
2.13081e-06
2.21821e-06
-1.51413e-05
1.90197e-06
1.59218e-06
-1.01539e-05
1.68341e-06
1.63683e-06
1.13403e-06
1.52874e-06
2.12725e-06
2.12352e-05
1.24429e-06
1.08484e-06
3.27373e-05
7.63882e-07
2.78665e-05
3.23405e-07
3.99824e-06
-4.1946e-05
-7.72837e-07
7.57509e-06
-5.37664e-05
-1.16915e-06
1.078e-05
-5.50634e-05
-1.24597e-06
1.36036e-05
-5.4724e-05
-1.03132e-06
1.59936e-05
-5.3812e-05
-7.02004e-07
1.79263e-05
-5.25088e-05
-3.23905e-07
1.94546e-05
-5.09205e-05
5.55812e-08
2.06846e-05
-4.91057e-05
4.35673e-07
2.18505e-05
-4.70684e-05
7.22767e-07
2.3128e-05
-4.47518e-05
9.2157e-07
2.44863e-05
-4.20473e-05
1.02921e-06
2.55901e-05
-3.8898e-05
1.05153e-06
2.59241e-05
-3.54578e-05
1.01074e-06
2.51244e-05
-3.21167e-05
9.43309e-07
2.32975e-05
-2.93066e-05
8.86328e-07
2.11248e-05
-2.72643e-05
8.68288e-07
1.96119e-05
-2.5911e-05
9.2232e-07
1.95894e-05
-2.47585e-05
1.11276e-06
2.12944e-05
-2.29955e-05
1.47102e-06
2.3923e-05
-1.97596e-05
1.89784e-06
2.56776e-05
-1.48755e-05
2.25927e-06
2.52053e-05
-9.78909e-06
2.47787e-06
2.24723e-05
-6.2659e-06
2.56928e-06
1.82258e-05
-5.17225e-06
2.58265e-06
1.29535e-05
-6.11873e-06
2.53567e-06
8.01477e-06
-9.25186e-06
2.44983e-06
4.14404e-06
-1.30273e-05
2.3402e-06
1.75318e-06
-1.62486e-05
2.19079e-06
8.81268e-07
-1.7888e-05
1.97903e-06
1.08254e-06
-1.69033e-05
1.69986e-06
1.19378e-06
-1.15004e-05
1.39626e-06
6.54169e-07
7.48157e-07
1.16818e-06
5.50676e-07
2.06541e-05
9.71584e-07
2.60763e-07
3.25184e-05
6.00358e-07
2.7752e-05
2.10096e-07
2.23877e-06
-4.29852e-05
-1.1174e-06
5.09938e-06
-5.49246e-05
-1.62445e-06
7.78513e-06
-5.62885e-05
-1.38111e-06
1.0123e-05
-5.5899e-05
-1.07592e-06
1.20723e-05
-5.48914e-05
-7.71599e-07
1.36298e-05
-5.34836e-05
-4.72068e-07
1.48072e-05
-5.1785e-05
-1.9122e-07
1.56143e-05
-4.98628e-05
7.82124e-08
1.61032e-05
-4.77596e-05
3.28517e-07
1.64336e-05
-4.5496e-05
5.25822e-07
1.68453e-05
-4.30466e-05
6.73341e-07
1.75547e-05
-4.03189e-05
7.69336e-07
1.85389e-05
-3.72119e-05
8.14218e-07
1.94123e-05
-3.37564e-05
8.17059e-07
1.96182e-05
-3.0243e-05
7.97949e-07
1.88069e-05
-2.71517e-05
7.78515e-07
1.70664e-05
-2.48612e-05
7.71732e-07
1.50109e-05
-2.34175e-05
7.88911e-07
1.37061e-05
-2.24959e-05
8.716e-07
1.40679e-05
-2.11826e-05
1.12787e-06
1.58813e-05
-1.81354e-05
1.51502e-06
1.73863e-05
-1.30509e-05
1.82083e-06
1.73305e-05
-8.09794e-06
1.94719e-06
1.55282e-05
-5.24148e-06
1.93684e-06
1.22397e-05
-4.5885e-06
1.88309e-06
7.93287e-06
-6.62176e-06
1.87681e-06
3.8875e-06
-1.06652e-05
1.8805e-06
1.1517e-06
-1.51679e-05
1.83564e-06
6.5671e-08
-1.83447e-05
1.70487e-06
3.60618e-07
-1.8514e-05
1.46962e-06
7.5227e-07
-1.28577e-05
1.14889e-06
-7.47766e-08
9.4684e-07
8.92119e-07
-4.90035e-07
2.06343e-05
7.36973e-07
-3.12394e-07
3.20368e-05
4.24829e-07
2.72143e-05
8.29779e-08
3.79405e-06
-4.55093e-05
-1.13709e-06
6.92447e-06
-5.63585e-05
-1.61517e-06
9.4989e-06
-5.71715e-05
-1.64659e-06
1.16705e-05
-5.65265e-05
-1.51589e-06
1.3439e-05
-5.53164e-05
-1.32318e-06
1.47679e-05
-5.37056e-05
-1.09041e-06
1.56332e-05
-5.17968e-05
-8.36592e-07
1.60245e-05
-4.96506e-05
-5.79572e-07
1.59496e-05
-4.73106e-05
-3.35738e-07
1.5455e-05
-4.48228e-05
-1.20389e-07
1.4661e-05
-4.22455e-05
6.97583e-08
1.38261e-05
-3.96227e-05
2.25791e-07
1.32963e-05
-3.69318e-05
3.37416e-07
1.32864e-05
-3.40682e-05
4.08408e-07
1.36704e-05
-3.0981e-05
4.47622e-07
1.3996e-05
-2.78452e-05
4.73399e-07
1.37891e-05
-2.5045e-05
5.03162e-07
1.28925e-05
-2.2951e-05
5.41225e-07
1.15485e-05
-2.16296e-05
5.89722e-07
1.05539e-05
-2.0746e-05
6.8677e-07
1.09379e-05
-1.93368e-05
9.76085e-07
1.23855e-05
-1.57835e-05
1.42624e-06
1.36712e-05
-1.10092e-05
1.73898e-06
1.3973e-05
-7.30733e-06
1.85298e-06
1.34598e-05
-5.83479e-06
1.83874e-06
1.12878e-05
-6.11924e-06
1.76099e-06
8.34446e-06
-9.28197e-06
1.68498e-06
5.81154e-06
-1.41083e-05
1.62874e-06
4.06792e-06
-1.79672e-05
1.52576e-06
3.30249e-06
-1.89267e-05
1.32817e-06
3.06255e-06
-1.34749e-05
1.00504e-06
2.09761e-06
1.43493e-06
6.33808e-07
5.76575e-07
2.18873e-05
4.26797e-07
1.67806e-07
3.23172e-05
1.83802e-07
2.72918e-05
-4.82656e-08
6.70289e-07
-4.53051e-05
-8.29154e-07
1.61452e-06
-5.60148e-05
-1.24905e-06
2.68959e-06
-5.69033e-05
-1.30134e-06
3.79632e-06
-5.63283e-05
-1.26012e-06
4.88883e-06
-5.51945e-05
-1.17181e-06
5.95016e-06
-5.36915e-05
-1.04323e-06
6.96524e-06
-5.19164e-05
-8.81556e-07
7.91316e-06
-4.99119e-05
-6.96915e-07
8.75513e-06
-4.76867e-05
-5.01713e-07
9.4216e-06
-4.52352e-05
-3.09814e-07
9.8155e-06
-4.25674e-05
-1.35703e-07
9.86442e-06
-3.97359e-05
5.88201e-09
9.57787e-06
-3.68286e-05
1.3828e-07
9.16172e-06
-3.39109e-05
2.29252e-07
8.86802e-06
-3.09912e-05
2.90896e-07
8.77441e-06
-2.80781e-05
3.33187e-07
8.68222e-06
-2.52969e-05
3.70803e-07
8.26094e-06
-2.29047e-05
4.15386e-07
7.30553e-06
-2.10973e-05
4.68726e-07
5.81535e-06
-1.97449e-05
5.40147e-07
4.23202e-06
-1.83648e-05
6.85656e-07
3.30207e-06
-1.57814e-05
1.02794e-06
2.92601e-06
-1.19263e-05
1.37694e-06
2.82021e-06
-8.67925e-06
1.53694e-06
2.87855e-06
-7.39442e-06
1.54281e-06
3.26663e-06
-7.97131e-06
1.48837e-06
3.66726e-06
-1.10627e-05
1.41379e-06
3.68351e-06
-1.53954e-05
1.33998e-06
3.27856e-06
-1.86733e-05
1.22298e-06
2.8364e-06
-1.93902e-05
1.06226e-06
2.26309e-06
-1.35559e-05
8.4383e-07
8.97582e-07
2.46946e-06
5.31634e-07
-5.01694e-07
2.31921e-05
2.28696e-07
-3.40048e-07
3.22231e-05
-4.22019e-08
2.69709e-05
-1.56383e-07
1.02795e-06
-4.51653e-05
-1.09626e-06
2.3178e-06
-5.5514e-05
-1.68852e-06
3.48491e-06
-5.62515e-05
-1.70623e-06
4.51018e-06
-5.56088e-05
-1.624e-06
5.38092e-06
-5.44281e-05
-1.5088e-06
6.07487e-06
-5.28855e-05
-1.36616e-06
6.58306e-06
-5.10908e-05
-1.19873e-06
6.92073e-06
-4.91101e-05
-1.0096e-06
7.13241e-06
-4.69781e-05
-8.03852e-07
7.28091e-06
-4.47005e-05
-5.88917e-07
7.41382e-06
-4.22586e-05
-3.74849e-07
7.5262e-06
-3.96333e-05
-1.74662e-07
7.56912e-06
-3.68438e-05
-6.52598e-09
7.48058e-06
-3.39655e-05
1.55365e-07
7.32558e-06
-3.10976e-05
2.72859e-07
7.22959e-06
-2.83249e-05
3.60108e-07
7.25554e-06
-2.57215e-05
4.26658e-07
7.3048e-06
-2.33978e-05
4.83708e-07
7.18014e-06
-2.1464e-05
5.40601e-07
6.74867e-06
-1.98633e-05
6.07266e-07
5.97926e-06
-1.82356e-05
7.12447e-07
5.31371e-06
-1.59397e-05
9.19531e-07
5.1214e-06
-1.28298e-05
1.19504e-06
5.26189e-06
-1.01057e-05
1.37006e-06
5.38162e-06
-8.85116e-06
1.40577e-06
5.44954e-06
-9.33402e-06
1.36577e-06
5.24502e-06
-1.20356e-05
1.27396e-06
4.73934e-06
-1.58886e-05
1.1304e-06
4.24795e-06
-1.89859e-05
9.64327e-07
3.87181e-06
-1.96215e-05
7.88541e-07
3.1657e-06
-1.32533e-05
5.93452e-07
1.59953e-06
3.86075e-06
3.51233e-07
-9.32241e-08
2.49185e-05
5.81432e-08
-9.70225e-08
3.24017e-05
-1.83555e-07
2.69682e-05
-2.34475e-07
1.49548e-06
-4.55005e-05
-1.0253e-06
2.91778e-06
-5.52842e-05
-1.55332e-06
4.27823e-06
-5.5899e-05
-1.64473e-06
5.58527e-06
-5.52339e-05
-1.63021e-06
6.81251e-06
-5.40325e-05
-1.58095e-06
7.9225e-06
-5.24538e-05
-1.50602e-06
8.87195e-06
-5.06015e-05
-1.40694e-06
9.62192e-06
-4.85476e-05
-1.28345e-06
1.01533e-05
-4.63482e-05
-1.13575e-06
1.04813e-05
-4.40432e-05
-9.65747e-07
1.06572e-05
-4.16469e-05
-7.77801e-07
1.07436e-05
-3.91427e-05
-5.79266e-07
1.07678e-05
-3.65006e-05
-3.80766e-07
1.06947e-05
-3.37159e-05
-1.95091e-07
1.04625e-05
-3.08448e-05
-3.6487e-08
1.0019e-05
-2.79992e-05
1.11247e-07
9.37576e-06
-2.53033e-05
2.3202e-07
8.53961e-06
-2.28738e-05
3.34118e-07
7.48492e-06
-2.07989e-05
4.25253e-07
6.23467e-06
-1.90786e-05
5.13431e-07
5.00558e-06
-1.75565e-05
6.14118e-07
4.29473e-06
-1.58958e-05
7.57126e-07
4.42544e-06
-1.38045e-05
9.50709e-07
5.03472e-06
-1.17227e-05
1.10967e-06
5.60205e-06
-1.04959e-05
1.16743e-06
5.62299e-06
-1.04127e-05
1.14495e-06
4.8791e-06
-1.2248e-05
1.06757e-06
3.74139e-06
-1.55763e-05
9.74814e-07
2.63453e-06
-1.85708e-05
8.70244e-07
1.92394e-06
-1.94416e-05
7.3193e-07
1.46376e-06
-1.31089e-05
5.49635e-07
6.79914e-07
4.56637e-06
3.21497e-07
-3.15037e-07
2.60688e-05
-5.90855e-09
-9.3197e-08
3.24516e-05
-2.52575e-07
2.70118e-05
-2.67344e-07
1.86856e-07
-4.46199e-05
-1.02352e-06
1.46602e-06
-5.50145e-05
-1.51236e-06
2.98999e-06
-5.58801e-05
-1.50204e-06
4.55038e-06
-5.53034e-05
-1.44515e-06
6.09181e-06
-5.41348e-05
-1.38792e-06
7.56852e-06
-5.25433e-05
-1.32941e-06
8.92454e-06
-5.06276e-05
-1.26509e-06
1.00987e-05
-4.84614e-05
-1.18913e-06
1.10423e-05
-4.61212e-05
-1.09579e-06
1.17429e-05
-4.36906e-05
-9.80563e-07
1.22421e-05
-4.12419e-05
-8.41297e-07
1.26311e-05
-3.88081e-05
-6.78897e-07
1.30175e-05
-3.63685e-05
-4.98076e-07
1.34713e-05
-3.38657e-05
-3.08417e-07
1.39792e-05
-3.12501e-05
-1.24909e-07
1.44322e-05
-2.85253e-05
4.50429e-08
1.46758e-05
-2.57655e-05
1.97344e-07
1.45792e-05
-2.31038e-05
3.20992e-07
1.40572e-05
-2.06878e-05
4.24937e-07
1.31153e-05
-1.86201e-05
5.18512e-07
1.19154e-05
-1.69097e-05
6.118e-07
1.08543e-05
-1.54605e-05
7.13826e-07
1.04499e-05
-1.41089e-05
8.2578e-07
1.07054e-05
-1.27768e-05
9.25019e-07
1.10384e-05
-1.16869e-05
9.75071e-07
1.1102e-05
-1.13344e-05
9.67804e-07
1.02148e-05
-1.2156e-05
9.16789e-07
8.41327e-06
-1.447e-05
8.4284e-07
6.26776e-06
-1.7003e-05
7.48583e-07
4.53851e-06
-1.81414e-05
6.15756e-07
3.28574e-06
-1.20856e-05
4.22494e-07
2.55468e-06
5.26377e-06
2.35562e-07
1.4103e-06
2.74005e-05
-3.16494e-08
7.91487e-07
3.33629e-05
-2.72196e-07
2.79253e-05
-2.56928e-07
2.54996e-06
-4.58132e-05
-1.25497e-06
5.39444e-06
-5.59541e-05
-1.84472e-06
8.09266e-06
-5.67175e-05
-1.81405e-06
1.06187e-05
-5.60801e-05
-1.70694e-06
1.29595e-05
-5.4825e-05
-1.60907e-06
1.50897e-05
-5.31027e-05
-1.52779e-06
1.69732e-05
-5.10011e-05
-1.46222e-06
1.85575e-05
-4.85819e-05
-1.40649e-06
1.97765e-05
-4.59171e-05
-1.35183e-06
2.05718e-05
-4.31104e-05
-1.2882e-06
2.09261e-05
-4.02891e-05
-1.20632e-06
2.08921e-05
-3.75671e-05
-1.09967e-06
2.05981e-05
-3.50055e-05
-9.65227e-07
2.02205e-05
-3.25956e-05
-8.03393e-07
1.99247e-05
-3.02704e-05
-6.18465e-07
1.97988e-05
-2.79406e-05
-4.2015e-07
1.98183e-05
-2.55444e-05
-2.23678e-07
1.98606e-05
-2.30919e-05
-4.73893e-08
1.97495e-05
-2.06781e-05
1.10725e-07
1.93664e-05
-1.84526e-05
2.35497e-07
1.87096e-05
-1.65545e-05
3.35559e-07
1.79154e-05
-1.50384e-05
4.23741e-07
1.72152e-05
-1.38459e-05
5.1732e-07
1.67831e-05
-1.28559e-05
6.29028e-07
1.6534e-05
-1.20369e-05
7.41048e-07
1.62061e-05
-1.16568e-05
7.98205e-07
1.53098e-05
-1.19095e-05
8.03651e-07
1.37545e-05
-1.35257e-05
7.80595e-07
1.19848e-05
-1.57771e-05
7.27815e-07
1.00716e-05
-1.66571e-05
6.17684e-07
7.42733e-06
-9.66647e-06
3.82501e-07
4.04135e-06
8.55935e-06
1.56157e-07
1.82562e-06
2.96494e-05
-4.34138e-08
8.56247e-07
3.45505e-05
-2.6466e-07
2.89381e-05
-2.67343e-07
1.42065e-06
-4.61269e-05
-1.07042e-06
3.65899e-06
-5.65399e-05
-1.62714e-06
6.02825e-06
-5.74048e-05
-1.64733e-06
8.32848e-06
-5.67558e-05
-1.58168e-06
1.05096e-05
-5.54503e-05
-1.50817e-06
1.25554e-05
-5.36622e-05
-1.43781e-06
1.44565e-05
-5.14805e-05
-1.37525e-06
1.61969e-05
-4.89576e-05
-1.32152e-06
1.77465e-05
-4.61499e-05
-1.27483e-06
1.90612e-05
-4.31496e-05
-1.23077e-06
2.00961e-05
-4.00893e-05
-1.18292e-06
2.08237e-05
-3.71098e-05
-1.12432e-06
2.12502e-05
-3.43147e-05
-1.04919e-06
2.14245e-05
-3.17446e-05
-9.53708e-07
2.14386e-05
-2.93792e-05
-8.35852e-07
2.14097e-05
-2.71554e-05
-6.95301e-07
2.14379e-05
-2.49904e-05
-5.34501e-07
2.15514e-05
-2.2812e-05
-3.60425e-07
2.16735e-05
-2.0593e-05
-1.84776e-07
2.16422e-05
-1.83797e-05
-2.19428e-08
2.12794e-05
-1.62919e-05
1.2437e-07
2.05033e-05
-1.44737e-05
2.44044e-07
1.93868e-05
-1.30288e-05
3.42029e-07
1.81864e-05
-1.20194e-05
4.2285e-07
1.71786e-05
-1.14336e-05
4.8852e-07
1.63622e-05
-1.1263e-05
5.33467e-07
1.55927e-05
-1.15651e-05
5.6417e-07
1.43479e-05
-1.27053e-05
5.86268e-07
1.2749e-05
-1.45792e-05
5.63713e-07
1.04985e-05
-1.47069e-05
4.57867e-07
7.28238e-06
-6.52339e-06
1.89918e-07
3.39539e-06
1.25551e-05
-1.15852e-07
1.28983e-06
3.19918e-05
-2.96697e-07
7.61733e-07
3.54747e-05
-4.78101e-07
2.99839e-05
-4.07497e-07
2.80179e-06
-4.73119e-05
-1.4834e-06
5.75735e-06
-5.71485e-05
-2.20752e-06
8.48053e-06
-5.77749e-05
-2.21476e-06
1.0966e-05
-5.69907e-05
-2.11129e-06
1.32062e-05
-5.55507e-05
-2.00007e-06
1.5184e-05
-5.36075e-05
-1.89452e-06
1.68848e-05
-5.12477e-05
-1.79982e-06
1.82964e-05
-4.85247e-05
-1.71661e-06
1.94085e-05
-4.54981e-05
-1.64235e-06
2.02175e-05
-4.22692e-05
-1.57232e-06
2.0733e-05
-3.89891e-05
-1.5008e-06
2.09819e-05
-3.58221e-05
-1.42264e-06
2.10066e-05
-3.28923e-05
-1.3344e-06
2.08611e-05
-3.02548e-05
-1.23441e-06
2.0609e-05
-2.7901e-05
-1.12192e-06
2.03257e-05
-2.578e-05
-9.9624e-07
2.00952e-05
-2.38191e-05
-8.56649e-07
1.99961e-05
-2.194e-05
-7.0331e-07
2.00712e-05
-2.0075e-05
-5.39084e-07
2.02914e-05
-1.8189e-05
-3.70718e-07
2.05408e-05
-1.6302e-05
-2.07625e-07
2.06485e-05
-1.44946e-05
-5.76054e-08
2.04742e-05
-1.28935e-05
7.09304e-08
1.99804e-05
-1.16591e-05
1.7288e-07
1.92374e-05
-1.08857e-05
2.47087e-07
1.83463e-05
-1.06013e-05
2.9732e-07
1.73918e-05
-1.08544e-05
3.36465e-07
1.61704e-05
-1.17389e-05
3.93931e-07
1.42418e-05
-1.29112e-05
4.445e-07
1.03744e-05
-1.10203e-05
3.82398e-07
3.2308e-06
5.97788e-07
1.26424e-07
-3.68027e-06
1.94656e-05
-2.52917e-07
-5.21742e-06
3.37156e-05
-4.73533e-07
-3.58783e-06
3.42588e-05
-6.35975e-07
2.67349e-05
-5.46918e-07
2.03764e-06
-4.79435e-05
-1.26079e-06
4.24676e-06
-5.73877e-05
-1.8489e-06
6.47379e-06
-5.79181e-05
-1.97397e-06
8.59562e-06
-5.70299e-05
-1.97562e-06
1.05428e-05
-5.54498e-05
-1.94293e-06
1.22728e-05
-5.33427e-05
-1.89413e-06
1.37603e-05
-5.08039e-05
-1.83922e-06
1.49987e-05
-4.78982e-05
-1.78464e-06
1.59952e-05
-4.46937e-05
-1.73325e-06
1.67611e-05
-4.12928e-05
-1.68422e-06
1.73019e-05
-3.78424e-05
-1.6334e-06
1.76157e-05
-3.4505e-05
-1.57508e-06
1.76975e-05
-3.14085e-05
-1.50463e-06
1.75472e-05
-2.86173e-05
-1.41993e-06
1.71758e-05
-2.6136e-05
-1.32097e-06
1.66107e-05
-2.39304e-05
-1.20856e-06
1.58972e-05
-2.19453e-05
-1.08324e-06
1.50938e-05
-2.01166e-05
-9.44813e-07
1.42597e-05
-1.83779e-05
-7.92788e-07
1.34291e-05
-1.66683e-05
-6.27589e-07
1.25796e-05
-1.49471e-05
-4.52411e-07
1.16189e-05
-1.32144e-05
-2.75164e-07
1.03979e-05
-1.15257e-05
-1.08274e-07
8.71604e-06
-9.9783e-06
3.77204e-08
6.37231e-06
-8.66134e-06
1.58491e-07
3.15743e-06
-7.59982e-06
2.58756e-07
-1.23763e-06
-6.75962e-06
3.54308e-07
-7.28456e-06
-6.06993e-06
4.53273e-07
-1.51552e-05
-5.40277e-06
5.41355e-07
-2.26683e-05
-3.45623e-06
5.28607e-07
-2.40677e-05
2.88435e-06
2.73073e-07
-1.66029e-05
1.31681e-05
-1.73463e-07
-9.33335e-06
2.72492e-05
-4.85637e-07
-4.40785e-06
3.00773e-05
-6.37837e-07
2.27531e-05
-4.47294e-07
1.75986e-06
-4.81781e-05
-1.38804e-06
3.68528e-06
-5.71495e-05
-2.01346e-06
5.61997e-06
-5.75391e-05
-2.16394e-06
7.49325e-06
-5.65525e-05
-2.19982e-06
9.24384e-06
-5.48488e-05
-2.19957e-06
1.0812e-05
-5.2585e-05
-2.17559e-06
1.21548e-05
-4.98703e-05
-2.13305e-06
1.3267e-05
-4.6804e-05
-2.07627e-06
1.41812e-05
-4.34864e-05
-2.0095e-06
1.49485e-05
-4.00304e-05
-1.93675e-06
1.56151e-05
-3.65723e-05
-1.86068e-06
1.62106e-05
-3.32546e-05
-1.78174e-06
1.67451e-05
-3.01871e-05
-1.69875e-06
1.72135e-05
-2.74214e-05
-1.61014e-06
1.7603e-05
-2.49573e-05
-1.51488e-06
1.79029e-05
-2.27638e-05
-1.41257e-06
1.81074e-05
-2.07916e-05
-1.30303e-06
1.82157e-05
-1.8983e-05
-1.18585e-06
1.82366e-05
-1.72823e-05
-1.05992e-06
1.81869e-05
-1.56391e-05
-9.23354e-07
1.80789e-05
-1.40098e-05
-7.74608e-07
1.78976e-05
-1.23668e-05
-6.14112e-07
1.75727e-05
-1.07065e-05
-4.45039e-07