/*--------------------------------*- C++ -*----------------------------------*\
| =========                 |                                                 |
| \\      /  F ield         | OpenFOAM: The Open Source CFD Toolbox           |
|  \\    /   O peration     | Version:  v2006                                 |
|   \\  /    A nd           | Website:  www.openfoam.com                      |
|    \\/     M anipulation  |                                                 |
\*---------------------------------------------------------------------------*/
FoamFile
{
    version     2.0;
    format      ascii;
    class       volScalarField;
    location    "28";
    object      T;
}
// * * * * * * * * * * * * * * * * * * * * * * * * * * * * * * * * * * * * * //

dimensions      [0 0 0 1 0 0 0];


internalField   nonuniform List<scalar> 
78750
(
46.9283
211.616
321.577
357.185
343.422
336.242
330.595
329.36
328.573
328.572
328.794
329.218
329.825
330.61
331.555
332.634
333.824
335.099
336.433
337.802
339.215
340.63
342.019
343.319
344.538
345.592
346.58
347.307
348.155
348.317
349.735
347.488
353.998
343.492
354.733
512.942
591.693
511.731
439.205
380.629
354.763
341.136
339.77
336.562
335.024
333.615
332.619
332.2
332.081
331.851
331.295
330.531
330.017
330.077
330.738
331.828
333.195
334.693
336.341
338.117
339.932
341.793
343.56
345.381
346.82
348.944
348.775
353.963
344.726
366.57
273.877
233.91
291.628
318.314
330.432
335.673
339.289
340.536
340.686
339.783
337.556
334.718
331.966
329.175
325.368
320.143
314.941
311.723
310.891
311.446
312.411
313.491
314.849
316.717
318.825
321.163
323.776
326.591
329.583
332.355
334.596
334.22
331.558
325.657
368.253
324.629
364.928
350.476
339.149
335.269
334.9
334.6
334.795
335.04
335.229
335.349
335.171
334.469
333.108
330.706
326.46
320.705
315.926
312.989
310.858
309.022
307.573
306.689
306.248
306.021
305.931
305.996
306.244
306.689
307.474
308.622
309.458
311.332
322.889
376.465
301.746
301.36
320.027
327.4
331.478
334.132
336.352
337.843
338.315
337.837
336.675
335.359
334.196
333.219
332.546
332.268
332.347
332.472
331.976
330.13
327.362
324.641
322.273
320.293
318.641
317.105
315.466
313.543
310.9
307.188
303.107
301.126
307.111
327.331
380.087
317.397
329.166
330.743
332.09
333.705
335.682
338.181
341.304
344.174
345.866
345.889
344.546
342.453
339.652
336.625
334.346
332.861
331.596
330.037
328.261
326.834
325.901
325.253
324.768
324.445
324.303
324.325
324.373
323.924
321.995
318.276
316.103
324.894
344.187
383.825
310.827
320.912
326.052
329.258
331.999
334.339
336.235
337.651
338.699
339.26
339.064
337.988
336.382
335.134
334.34
333.651
332.987
332.405
332.003
331.765
331.521
331.027
330.28
329.452
328.684
328.09
327.815
327.98
328.8
330.684
332.88
334.643
343.605
360.431
392.918
311.276
321.158
325.919
329.111
331.7
333.944
336.02
338.12
340.426
342.866
344.93
346.108
346.022
344.637
342.513
340.147
337.821
335.885
334.525
333.543
332.714
331.909
331.068
330.262
329.605
329.133
328.884
328.971
329.632
331.623
336.805
346.033
360.031
375.445
402.802
311.371
321.761
326.278
329.231
331.863
334.25
336.324
338.027
339.424
340.725
342.159
343.735
345.251
346.473
347.184
347.234
346.564
345.343
343.808
341.888
339.771
337.81
335.612
333.292
331.43
330.144
329.301
328.86
328.933
329.977
333.717
344.172
363.525
382.627
411.71
310.797
321.727
326.854
330.148
332.875
335.246
337.349
339.209
340.809
342.133
343.211
344.126
344.962
345.742
346.435
346.979
347.293
347.297
347.012
346.641
346.318
345.73
343.242
339.41
336.197
334.032
332.461
331.231
330.448
330.581
333.155
342.604
363.444
386.055
417.165
310.906
322.273
327.515
330.731
333.314
335.566
337.612
339.533
341.347
343.003
344.407
345.495
346.281
346.846
347.252
347.488
347.497
347.229
346.612
345.568
344.063
342.106
340.131
338.925
338.375
337.672
336.498
335.096
333.782
333.012
334.105
341.339
362.041
388.001
420.389
312.481
324.024
329.177
332.411
335.093
337.462
339.603
341.566
343.397
345.132
346.769
348.228
349.391
350.205
350.727
351.07
351.335
351.539
351.579
351.3
350.583
349.369
347.704
345.737
343.722
341.685
339.599
337.675
336.093
335.142
336.011
342.257
360.914
387.641
421.073
313.437
325.087
330.093
333.188
335.706
337.87
339.773
341.482
343.051
344.528
345.956
347.344
348.625
349.664
350.363
350.737
350.898
350.966
351.002
350.989
350.852
350.622
350.33
349.933
349.007
346.165
343.028
340.312
338.1
336.748
337.579
344.302
363.191
389.575
421.962
313.77
325.784
331.11
334.489
337.33
339.859
342.145
344.215
346.066
347.684
349.064
350.235
351.243
352.096
352.73
353.067
353.117
352.98
352.745
352.349
351.514
350.274
349.055
348.079
347.417
346.784
345.563
343.287
340.619
338.787
339.605
346.367
363.988
389.57
421.766
315.595
327.205
331.894
334.846
337.326
339.508
341.483
343.329
345.1
346.821
348.468
349.982
351.305
352.408
353.278
353.882
354.199
354.267
354.176
353.972
353.531
352.55
351.36
350.395
349.799
349.157
347.314
344.248
341.413
339.579
340.44
348.726
368.222
392.218
422.071
314.573
326.836
332.128
335.477
338.246
340.613
342.652
344.42
345.979
347.393
348.719
349.985
351.173
352.235
353.118
353.775
354.172
354.302
354.203
353.902
353.32
352.275
350.895
349.604
348.472
347.061
345.32
343.733
342.467
341.651
342.846
351.067
371.101
393.885
421.824
316.025
328.522
333.641
336.854
339.531
341.849
343.879
345.667
347.246
348.65
349.916
351.078
352.153
353.133
353.983
354.665
355.146
355.409
355.457
355.31
354.942
354.223
353.131
352.013
351.203
350.572
349.504
347.724
345.655
344.023
344.782
353.825
375.563
396.582
421.721
316.214
328.711
333.774
336.953
339.606
341.9
343.896
345.629
347.128
348.424
349.559
350.587
351.558
352.498
353.398
354.208
354.861
355.304
355.51
355.472
355.188
354.639
353.823
352.852
351.915
350.999
349.857
348.533
347.313
346.346
346.991
354.873
376.832
397.022
420.952
316.105
329.11
334.559
337.964
340.791
343.26
345.44
347.355
349
350.361
351.444
352.284
352.946
353.51
354.045
354.595
355.157
355.681
356.096
356.347
356.419
356.311
355.985
355.367
354.485
353.657
352.894
351.802
350.407
348.938
349.226
356.523
378.269
397.856
420.721
317.539
330.314
335.508
338.785
341.536
343.953
346.112
348.052
349.782
351.285
352.535
353.525
354.275
354.83
355.249
355.59
355.898
356.195
356.471
356.686
356.791
356.758
356.581
356.273
355.848
355.324
354.607
353.397
351.956
350.927
352.798
361.813
382.384
399.397
419.829
316.857
330.214
335.916
339.5
342.46
345.022
347.275
349.263
351.001
352.48
353.686
354.62
355.312
355.811
356.173
356.449
356.678
356.891
357.1
357.3
357.461
357.543
357.515
357.373
357.14
356.823
356.361
355.49
353.964
352.946
355.727
365.682
386.137
401.759
419.973
319.313
332.861
338.341
341.798
344.69
347.214
349.453
351.448
353.214
354.733
355.973
356.917
357.575
357.991
358.224
358.33
358.357
358.342
358.312
358.283
358.258
358.227
358.161
358.037
357.846
357.571
357.15
356.52
355.969
357.806
367.525
386.324
401.761
411.18
425.803
319.272
332.908
338.575
342.182
345.185
347.769
350.005
351.938
353.598
355.004
356.168
357.098
357.814
358.343
358.716
358.967
359.123
359.207
359.24
359.236
359.207
359.164
359.111
359.051
358.978
358.89
358.77
358.529
357.946
357.138
355.988
354.899
381.688
403.534
426.283
321.22
335.487
341.195
344.806
347.83
350.447
352.701
354.609
356.194
357.479
358.486
359.235
359.759
360.1
360.305
360.413
360.456
360.454
360.423
360.37
360.302
360.225
360.147
360.08
360.045
360.088
360.341
360.641
359.735
358.271
352.871
336.505
356.032
386.518
415.947
322.168
336.37
341.9
345.438
348.476
351.141
353.406
355.254
356.731
357.919
358.885
359.662
360.267
360.714
361.023
361.219
361.335
361.399
361.422
361.412
361.382
361.352
361.361
361.482
361.881
362.98
365.957
376.554
385.637
382.08
374.039
371.315
382.499
401.298
425.762
322.929
337.695
343.414
347.1
350.364
353.28
355.687
357.492
358.781
359.712
360.417
360.973
361.418
361.769
362.037
362.236
362.382
362.485
362.552
362.588
362.596
362.594
362.679
363.23
365.377
371.581
384.529
401.608
413.65
416.042
417.118
421.365
430.133
441.819
447.175
323.661
338.219
343.986
347.832
351.399
354.672
357.31
359.153
360.351
361.14
361.7
362.137
362.499
362.808
363.074
363.306
363.517
363.72
363.926
364.144
364.378
364.62
364.846
364.997
364.951
364.567
363.995
364.842
368.891
375.987
384.758
391.389
395.314
392.853
409.77
323.489
338.052
344.029
348.235
352.358
356.229
359.251
361.198
362.318
362.954
363.347
363.633
363.88
364.116
364.351
364.594
364.863
365.187
365.593
366.103
366.744
367.557
368.533
369.522
370.547
372.597
373.962
371.525
367.646
364.281
361.358
357.832
355.883
362.593
396.281
323.151
337.121
343.031
347.435
351.939
356.28
359.776
362.126
363.529
364.323
364.779
365.071
365.3
365.518
365.754
366.022
366.334
366.736
367.294
368.084
369.229
371.145
374.979
382.002
390.103
393.475
390.579
384.945
378.978
373.22
367.501
363.11
366.298
379.449
408.844
321.087
334.578
340.456
344.764
349.02
353.236
357.113
360.282
362.59
364.129
365.103
365.722
366.148
366.49
366.808
367.131
367.467
367.809
368.142
368.451
368.727
368.99
369.335
370.015
371.436
373.867
377.109
380.425
382.523
381.988
379.818
379.423
384.25
396.459
423.689
319.699
333.47
339.219
343.136
346.735
350.28
353.876
357.372
360.455
362.898
364.663
365.869
366.703
367.338
367.899
368.463
369.073
369.754
370.529
371.395
372.414
373.78
375.551
376.913
377.324
377.78
379.275
382.745
388.863
395.865
400.652
404.381
409.659
419.14
436.668
318.334
332.872
338.984
342.795
345.914
348.68
351.366
354.185
357.141
360.008
362.492
364.398
365.707
366.565
367.166
367.673
368.195
368.797
369.523
370.427
371.637
373.398
375.823
378.1
379.106
379.399
380.071
382.031
386.565
394.348
403.187
410.23
415.851
422.837
434.777
319.623
335.665
342.322
346.4
349.608
352.143
354.101
355.677
357.182
358.908
360.934
363.065
364.97
366.412
367.377
367.999
368.432
368.795
369.174
369.643
370.275
371.161
372.441
374.267
376.449
378.25
379.248
379.978
381.462
384.721
390.193
396.765
402.76
409.798
424.656
321.59
338.015
344.822
349.137
352.738
355.766
358.129
359.764
360.773
361.414
362.027
362.94
364.242
365.684
366.937
367.859
368.497
368.954
369.321
369.667
370.046
370.508
371.113
371.945
373.129
374.767
376.722
378.521
379.794
380.98
383.059
386.557
391.259
398.506
417.061
324.403
340.387
346.859
351.074
354.782
358.128
360.97
363.114
364.505
365.259
365.582
365.694
365.877
366.409
367.245
368.104
368.807
369.335
369.737
370.068
370.37
370.68
371.03
371.461
372.028
372.823
373.977
375.592
377.491
379.148
380.612
382.989
387.16
394.721
414.754
325.878
341.571
347.945
352.22
356.098
359.573
362.451
364.655
366.215
367.221
367.804
368.097
368.213
368.293
368.541
369
369.523
369.993
370.385
370.72
371.026
371.329
371.654
372.025
372.478
373.085
373.974
375.337
377.326
379.753
382.149
385.252
390.151
398.625
419.261
327.168
343.142
349.753
354.484
359.047
362.869
365.493
367.139
368.178
368.85
369.286
369.562
369.734
369.845
369.962
370.17
370.477
370.818
371.146
371.453
371.751
372.064
372.412
372.815
373.314
374.01
375.114
376.948
379.75
383.532
387.87
392.683
398.362
407.219
427.227
327.763
343.546
350.275
355.635
361.393
365.922
368.475
369.713
370.314
370.629
370.814
370.935
371.023
371.098
371.184
371.309
371.494
371.727
371.981
372.241
372.51
372.805
373.149
373.565
374.108
374.925
376.322
378.766
382.643
388.113
394.806
401.556
407.727
416.188
433.472
326.661
341.886
348.742
354.734
361.745
367.198
370.071
371.339
371.874
372.094
372.175
372.197
372.2
372.209
372.24
372.308
372.425
372.588
372.785
373.007
373.252
373.529
373.857
374.272
374.846
375.729
377.24
379.922
384.362
390.892
399.127
407.161
413.597
421.416
435.61
323.931
338.722
345.612
351.727
359.186
365.753
369.75
371.74
372.666
373.088
373.268
373.328
373.329
373.309
373.293
373.301
373.347
373.437
373.568
373.735
373.935
374.174
374.466
374.841
375.354
376.121
377.392
379.656
383.631
389.898
398.183
406.428
412.847
420.203
433.564
321.371
335.918
342.516
347.887
354.388
361.551
367.272
370.738
372.546
373.445
373.893
374.115
374.218
374.261
374.276
374.288
374.313
374.363
374.443
374.554
374.7
374.883
375.114
375.412
375.812
376.385
377.281
378.831
381.653
386.527
393.623
401.259
407.41
414.552
429.239
320.527
335.325
341.66
346.114
350.891
356.927
363.48
368.636
371.781
373.443
374.283
374.713
374.94
375.063
375.136
375.188
375.238
375.3
375.379
375.48
375.608
375.766
375.962
376.209
376.528
376.959
377.584
378.592
380.394
383.712
389.165
395.876
401.798
408.999
425.175
321.31
336.773
343.225
347.353
350.997
354.973
360.112
365.72
370.183
372.946
374.419
375.171
375.565
375.783
375.915
376.008
376.088
376.172
376.27
376.388
376.532
376.705
376.915
377.173
377.492
377.9
378.449
379.258
380.603
383.043
387.31
393.162
398.875
406.221
423.264
323.556
339.684
346.275
350.38
353.627
356.4
359.344
363.304
367.884
371.701
374.111
375.398
376.06
376.416
376.626
376.767
376.878
376.984
377.099
377.233
377.394
377.591
377.83
378.124
378.49
378.952
379.559
380.415
381.753
384.037
387.885
393.23
398.716
406.077
423.467
326.161
342.173
348.648
352.765
356.041
358.637
360.75
362.883
365.88
369.715
373.125
375.281
376.412
376.996
377.323
377.529
377.68
377.811
377.942
378.087
378.258
378.465
378.72
379.037
379.436
379.949
380.626
381.578
383.049
385.501
389.482
394.852
400.337
407.753
425.174
328.217
343.87
350.217
354.38
357.824
360.643
362.836
364.52
366.076
368.331
371.617
374.623
376.455
377.409
377.925
378.238
378.46
378.641
378.811
378.987
379.186
379.418
379.7
380.05
380.49
381.058
381.816
382.89
384.557
387.341
391.805
397.624
403.321
410.911
428.305
329.544
345.089
351.436
355.665
359.246
362.316
364.863
366.864
368.399
369.738
371.581
374.264
376.488
377.767
378.464
378.887
379.186
379.431
379.659
379.892
380.147
380.441
380.79
381.217
381.752
382.442
383.373
384.718
386.841
390.355
395.684
402.006
407.784
415.452
432.534
330.847
346.669
353.056
357.281
360.816
363.855
366.492
368.78
370.757
372.48
373.974
375.598
377.32
378.48
379.158
379.594
379.922
380.209
380.489
380.788
381.122
381.512
381.981
382.561
383.297
384.264
385.595
387.552
390.604
395.302
401.543
407.896
413.467
420.962
436.546
332.322
348.163
354.521
358.775
362.333
365.345
367.922
370.215
372.409
374.596
376.563
377.917
378.902
379.599
380.065
380.411
380.708
380.996
381.3
381.642
382.043
382.526
383.124
383.886
384.885
386.237
388.141
390.934
395.085
400.863
407.544
413.516
418.718
425.707
438.716
333.061
348.487
354.718
359.054
362.827
366.076
368.797
371.106
373.24
375.441
377.655
379.334
380.221
380.692
381.009
381.272
381.523
381.788
382.084
382.432
382.852
383.374
384.039
384.91
386.081
387.705
390.016
393.365
398.129
404.3
410.847
416.351
421.131
427.407
438.469
332.124
347.151
353.286
357.722
361.82
365.502
368.558
370.945
372.85
374.595
376.512
378.617
380.314
381.269
381.757
382.062
382.312
382.562
382.837
383.159
383.548
384.037
384.668
385.508
386.656
388.267
390.572
393.885
398.504
404.316
410.33
415.392
419.808
425.574
436.476
329.587
344.495
350.683
355.221
359.627
363.843
367.496
370.299
372.287
373.723
374.958
376.401
378.329
380.285
381.653
382.431
382.894
383.239
383.556
383.887
384.258
384.696
385.24
385.953
386.933
388.323
390.333
393.238
397.279
402.354
407.668
412.317
416.489
422.087
434.011
326.364
341.315
347.676
352.292
356.826
361.398
365.733
369.392
372.115
373.957
375.16
376.024
376.882
378.164
379.97
381.654
382.792
383.507
384.029
384.493
384.961
385.46
386.014
386.665
387.495
388.641
390.302
392.733
396.159
400.513
405.191
409.501
413.561
419.236
432.278
323.772
339.003
345.641
350.309
354.72
359.144
363.571
367.712
371.185
373.785
375.562
376.719
377.494
378.124
378.911
380.227
381.84
383.15
384.064
384.768
385.415
386.082
386.796
387.568
388.431
389.488
390.93
393.01
395.959
399.752
403.929
407.971
411.988
417.835
431.685
323.666
339.776
346.68
351.23
355.159
358.855
362.57
366.343
369.925
372.958
375.261
376.882
377.99
378.773
379.409
380.101
381.14
382.515
383.779
384.777
385.634
386.491
387.428
388.469
389.596
390.821
392.264
394.17
396.782
400.13
403.891
407.695
411.683
417.72
432.108
327.12
344.219
351.169
355.44
358.718
361.408
363.89
366.519
369.424
372.346
374.87
376.798
378.182
379.18
379.95
380.636
381.386
382.377
383.571
384.706
385.717
386.713
387.821
389.131
390.653
392.327
394.112
396.128
398.589
401.581
404.944
408.486
412.408
418.582
433.194
333.525
350.597
357.297
361.412
364.424
366.565
368.1
369.414
370.949
372.937
375.122
377.064
378.572
379.699
380.578
381.334
382.067
382.874
383.828
384.857
385.868
386.899
388.071
389.52
391.338
393.5
395.855
398.297
400.898
403.762
406.874
410.208
414.052
420.279
434.716
339.739
355.732
362.136
366.469
369.872
372.214
373.567
374.267
374.741
375.445
376.618
378.034
379.356
380.466
381.401
382.24
383.037
383.821
384.627
385.474
386.356
387.313
388.455
389.933
391.908
394.45
397.42
400.513
403.543
406.543
409.606
412.849
416.65
422.87
436.632
341.281
356.567
363.185
368.338
372.846
376.012
377.759
378.53
378.793
378.93
379.255
379.877
380.666
381.477
382.271
383.065
383.873
384.668
385.426
386.167
386.934
387.796
388.862
390.289
392.28
395.013
398.48
402.332
406.091
409.557
412.829
416.128
419.922
426.014
438.557
336.405
352.02
359.43
365.784
371.74
376.144
378.841
380.326
381.087
381.469
381.716
381.995
382.369
382.833
383.374
383.998
384.704
385.455
386.183
386.869
387.556
388.324
389.286
390.6
392.485
395.197
398.894
403.373
408.007
412.235
415.972
419.47
423.278
429.088
439.988
328.543
343.981
351.596
358.193
364.765
370.514
375.033
378.324
380.558
381.973
382.831
383.368
383.76
384.116
384.5
384.954
385.507
386.154
386.84
387.509
388.164
388.868
389.724
390.881
392.557
395.043
398.634
403.368
408.717
413.803
418.155
421.93
425.737
431.149
440.513
321.762
335.69
342.09
347.09
352.327
358.049
364.032
369.8
374.853
378.787
381.482
383.16
384.18
384.837
385.323
385.757
386.22
386.763
387.388
388.054
388.727
389.427
390.233
391.272
392.736
394.901
398.112
402.614
408.149
413.782
418.635
422.645
426.444
431.559
440.185
318.15
332.167
338.292
342.116
345.31
348.516
352.301
357.092
362.99
369.523
375.495
379.86
382.607
384.269
385.315
386.037
386.612
387.156
387.743
388.398
389.103
389.848
390.677
391.694
393.064
395.024
397.876
401.9
407.058
412.623
417.587
421.67
425.459
430.507
439.371
321.635
338.868
346.451
350.861
353.805
355.657
356.768
357.655
359.157
362.518
368.245
374.549
379.396
382.492
384.408
385.658
386.552
387.269
387.925
388.597
389.319
390.1
390.962
391.988
393.329
395.213
397.907
401.616
406.289
411.377
416.049
420.002
423.742
428.853
438.429
332.005
349.786
357.427
362.395
366.142
368.793
370.394
371.029
370.837
370.252
371.076
374.573
378.769
381.962
384.053
385.445
386.456
387.276
388.014
388.736
389.485
390.283
391.154
392.165
393.45
395.231
397.795
401.349
405.767
410.479
414.807
418.558
422.196
427.312
437.493
339.003
353.864
360.408
365.278
369.492
373.117
376.117
378.396
379.798
380.217
380.155
380.902
382.502
384.078
385.305
386.24
387.004
387.687
388.351
389.033
389.756
390.529
391.37
392.325
393.502
395.098
397.404
400.701
404.943
409.532
413.756
417.435
421.014
426.097
436.661
336.586
351.672
358.367
363.396
367.873
371.994
375.855
379.375
382.213
384.04
384.974
385.502
386.004
386.551
387.1
387.624
388.127
388.627
389.147
389.706
390.321
391.002
391.76
392.621
393.658
395.022
396.972
399.831
403.736
408.252
412.586
416.39
420.025
425.134
436.006
335.016
351.313
358.445
363.532
367.81
371.611
375.185
378.618
381.724
384.181
385.86
386.923
387.621
388.139
388.573
388.97
389.356
389.75
390.168
390.626
391.14
391.721
392.38
393.136
394.036
395.186
396.793
399.176
402.624
406.978
411.481
415.529
419.323
424.559
435.758
339.78
355.689
362.396
366.965
370.465
373.203
375.511
377.732
380.107
382.605
384.89
386.663
387.906
388.767
389.396
389.897
390.333
390.747
391.166
391.611
392.099
392.643
393.255
393.949
394.761
395.774
397.158
399.214
402.302
406.469
411.05
415.266
419.2
424.606
436.095
345.718
361.017
367.451
371.907
375.183
377.455
379.026
380.257
381.48
382.941
384.661
386.379
387.819
388.917
389.745
390.402
390.965
391.486
391.998
392.523
393.079
393.679
394.334
395.057
395.876
396.863
398.182
400.132
403.091
407.146
411.652
415.829
419.802
425.368
437.026
348.862
364.329
371.154
376.229
379.972
382.369
383.78
384.643
385.295
385.97
386.804
387.784
388.769
389.644
390.385
391.027
391.618
392.196
392.789
393.415
394.084
394.807
395.593
396.453
397.406
398.511
399.928
401.96
404.946
408.876
413.108
417.05
420.977
426.693
438.338
349.098
365.015
372.432
378.368
382.756
385.417
386.883
387.719
388.28
388.762
389.26
389.803
390.371
390.933
391.475
392.005
392.543
393.113
393.735
394.426
395.197
396.061
397.032
398.124
399.34
400.7
402.329
404.498
407.462
411.109
414.911
418.538
422.394
428.267
439.775
346.299
362.307
369.971
376.624
382.066
385.706
387.906
389.204
389.992
390.527
390.96
391.367
391.775
392.196
392.631
393.091
393.591
394.152
394.793
395.537
396.403
397.417
398.614
400.022
401.629
403.371
405.263
407.507
410.292
413.512
416.848
420.177
423.969
429.994
441.243
337.109
352.236
358.985
365.084
371.68
377.877
383.048
386.963
389.49
390.931
391.767
392.325
392.773
393.187
393.604
394.048
394.539
395.103
395.766
396.556
397.507
398.668
400.106
401.893
404.029
406.344
408.626
410.936
413.475
416.262
419.195
422.284
426.023
432.135
442.758
322.156
334.958
341.116
345.848
350.755
356.408
363.133
371.858
380.922
387.06
390.345
392.065
393.052
393.711
394.238
394.728
395.238
395.808
396.476
397.283
398.274
399.518
401.118
403.21
405.886
408.981
412.023
414.726
417.24
419.773
422.431
425.332
428.97
434.913
444.179
315.289
331.101
340.716
346.67
349.726
350.236
348.794
349.292
359.567
373.73
383.602
388.909
391.699
393.29
394.308
395.054
395.689
396.312
396.991
397.787
398.761
399.993
401.606
403.783
406.729
410.455
414.478
418.087
421.086
423.742
426.348
429.135
432.589
437.995
445.243
328.273
351.737
365.263
374.175
377.711
375.874
369.546
359.766
359.381
371.941
383.21
388.269
390.873
392.671
394.053
395.13
396.007
396.773
397.492
398.271
399.23
400.43
401.977
404.062
406.949
410.826
415.455
420.04
423.916
427.096
429.917
432.695
435.897
440.474
445.631
345.849
370.535
384.954
394.268
393.279
387.439
382.228
383.877
387.618
389.071
390.55
391.995
393.274
394.386
395.361
396.215
396.97
397.656
398.334
399.091
400.004
401.142
402.595
404.523
407.173
410.8
415.394
420.382
424.917
428.643
431.751
434.554
437.5
441.303
445.205
340.164
374.281
387.647
389.378
389.844
391.687
392.434
392.586
392.902
393.602
394.362
395.09
395.779
396.429
397.044
397.633
398.212
398.803
399.439
400.161
401.018
402.067
403.387
405.108
407.431
410.59
414.687
419.405
424.016
427.958
431.202
433.991
436.771
440.238
444.222
332.475
353.616
364.085
372.58
379.848
385.913
390.377
393.021
394.405
395.232
395.883
396.479
397.051
397.605
398.145
398.68
399.22
399.783
400.394
401.082
401.882
402.838
404.014
405.512
407.483
410.117
413.546
417.643
421.903
425.754
428.995
431.766
434.517
438.104
443.141
324.41
338.458
344.978
350.274
357.206
366.444
376.593
385.296
390.89
393.904
395.556
396.606
397.397
398.07
398.688
399.282
399.874
400.484
401.134
401.847
402.65
403.573
404.661
405.985
407.653
409.809
412.58
415.944
419.611
423.136
426.258
429.023
431.857
435.809
442.254
328.981
348.875
357.645
362.351
365.099
367.699
372.175
379.066
386.328
391.457
394.367
396.076
397.232
398.124
398.884
399.58
400.255
400.941
401.663
402.445
403.31
404.28
405.384
406.665
408.195
410.073
412.393
415.175
418.264
421.376
424.299
427.032
429.946
434.221
441.802
335.646
355.851
365.058
370.917
374.544
376.447
377.468
379.173
383.579
389.186
393.277
395.648
397.108
398.168
399.048
399.842
400.601
401.361
402.154
403.006
403.943
404.986
406.157
407.48
408.999
410.775
412.873
415.314
418.014
420.808
423.554
426.249
429.224
433.707
441.839
339.612
359.995
368.733
374.276
377.999
380.189
381.29
381.832
382.867
386.27
390.822
394.303
396.477
397.884
398.939
399.851
400.716
401.581
402.479
403.433
404.47
405.618
406.898
408.328
409.922
411.704
413.706
415.943
418.378
420.929
423.525
426.174
429.178
433.784
442.174
347.983
369.154
378.176
383.528
386.293
387.362
387.593
387.548
387.757
389.333
392.543
395.344
397.021
398.171
399.173
400.135
401.065
401.973
402.891
403.878
404.986
406.238
407.654
409.252
411.036
412.998
415.124
417.397
419.784
422.249
424.771
427.383
430.384
434.974
442.961
354.317
376.557
384.972
389.062
390.464
390.754
390.855
391.435
392.886
394.742
396.306
397.473
398.416
399.305
400.201
401.092
401.976
402.851
403.743
404.711
405.816
407.088
408.55
410.218
412.096
414.167
416.39
418.722
421.12
423.563
426.052
428.637
431.628
436.175
443.662
359.874
386.836
393.03
393.91
394.086
394.75
395.526
396.232
396.979
397.802
398.621
399.392
400.131
400.864
401.607
402.369
403.161
403.998
404.903
405.912
407.066
408.401
409.95
411.731
413.746
415.96
418.311
420.729
423.166
425.605
428.06
430.591
433.518
437.9
444.531
364.618
392.564
396.501
397.196
397.417
397.667
398.085
398.617
399.198
399.803
400.419
401.042
401.674
402.321
402.992
403.693
404.438
405.242
406.13
407.13
408.277
409.612
411.171
412.985
415.06
417.361
419.81
422.317
424.813
427.268
429.696
432.162
435.001
439.171
444.987
359.438
381.489
389.913
394.932
397.547
398.729
399.376
399.912
400.449
401.007
401.584
402.182
402.805
403.456
404.143
404.874
405.661
406.519
407.469
408.536
409.75
411.144
412.751
414.597
416.686
418.981
421.41
423.882
426.326
428.71
431.043
433.392
436.086
440.005
445.239
335.864
363.194
378.049
388.548
394.865
397.989
399.483
400.355
401.029
401.652
402.268
402.89
403.525
404.179
404.863
405.586
406.363
407.212
408.155
409.216
410.428
411.825
413.443
415.308
417.425
419.758
422.229
424.737
427.196
429.561
431.838
434.095
436.654
440.34
445.214
318
338.718
354.252
370.923
385.684
394.368
398.455
400.38
401.425
402.154
402.798
403.442
404.118
404.836
405.598
406.409
407.272
408.198
409.199
410.297
411.515
412.885
414.44
416.205
418.189
420.367
422.679
425.039
427.37
429.63
431.821
434.009
436.513
440.159
445.07
324.681
340.262
346.944
352.052
363.446
379.396
390.226
395.994
399.181
401.122
402.433
403.426
404.27
405.058
405.844
406.664
407.541
408.493
409.536
410.683
411.955
413.374
414.965
416.746
418.721
420.866
423.127
425.429
427.703
429.905
432.035
434.141
436.502
439.908
444.782
342.088
365.423
374.261
374.144
370.807
378.76
389.548
395.352
398.287
400.232
401.794
403.1
404.216
405.204
406.135
407.061
407.996
408.96
409.976
411.066
412.256
413.571
415.035
416.671
418.486
420.468
422.574
424.746
426.92
429.057
431.153
433.264
435.69
439.304
444.67
345.767
376.068
389.015
392.494
391.22
393.365
396.13
398.13
399.675
401.034
402.288
403.431
404.484
405.504
406.536
407.585
408.651
409.743
410.878
412.072
413.344
414.713
416.197
417.81
419.558
421.435
423.414
425.459
427.532
429.606
431.677
433.781
436.167
439.637
444.731
352.738
385.847
393.801
396.394
397.422
398.472
399.566
400.619
401.632
402.617
403.578
404.513
405.423
406.324
407.228
408.148
409.093
410.076
411.111
412.212
413.394
414.674
416.068
417.59
419.248
421.037
422.938
424.916
426.935
428.961
430.983
433.032
435.373
438.878
444.462
360.124
394.413
398.984
399.682
400.184
400.792
401.479
402.214
402.984
403.782
404.611
405.475
406.376
407.313
408.282
409.281
410.31
411.376
412.487
413.65
414.877
416.175
417.556
419.03
420.602
422.276
424.046
425.897
427.812
429.776
431.79
433.899
436.386
440.116
445.388
352.378
383.282
394.07
398.828
400.871
401.806
402.358
402.816
403.307
403.9
404.618
405.437
406.335
407.291
408.279
409.291
410.327
411.388
412.486
413.632
414.841
416.126
417.499
418.97
420.547
422.23
424.014
425.885
427.822
429.803
431.812
433.858
436.153
439.505
444.794
336.184
370.964
386.873
394.981
399.188
401.62
403.334
404.834
406.325
407.75
408.938
409.924
410.743
411.397
411.989
412.606
413.287
414.063
414.952
415.952
417.051
418.239
419.513
420.873
422.322
423.864
425.497
427.216
429.008
430.859
432.77
434.789
437.238
441.016
446.173
329.114
357.896
376.264
389.535
396.693
399.52
400.412
400.014
398.748
396.921
395.976
396.835
398.789
401.165
403.618
405.982
408.152
410.119
411.918
413.612
415.254
416.88
418.517
420.186
421.905
423.684
425.528
427.434
429.395
431.403
433.45
435.548
437.876
441.174
445.803
330.804
350.661
358.958
364.955
370.758
378.598
390.813
406.408
416.744
420.615
421.128
420.649
420.118
419.631
419.154
418.655
418.136
417.707
417.651
418.063
418.828
419.829
420.997
422.292
423.695
425.198
426.798
428.486
430.251
432.077
433.953
435.909
438.229
441.739
446.497
351.629
380.32
390.016
391.235
388.193
384.876
383.077
384.519
389.081
394.597
399.095
401.741
403.1
404.022
405.19
407.172
409.747
412.345
414.682
416.733
418.574
420.295
421.97
423.645
425.344
427.081
428.862
430.686
432.55
434.448
436.383
438.385
440.677
443.917
447.357
358.705
390.705
400.436
397.243
386.752
381.454
380.379
381.02
382.937
385.613
388.352
390.896
393.433
396.235
399.393
402.7
405.856
408.717
411.284
413.609
415.758
417.797
419.779
421.741
423.704
425.678
427.661
429.646
431.624
433.583
435.513
437.414
439.434
442.231
446.238
341.671
366.291
379.549
389.136
392.629
392.525
391.798
391.648
392.485
394.285
396.686
399.351
402.106
404.83
407.396
409.712
411.771
413.627
415.351
417.007
418.644
420.299
421.992
423.73
425.512
427.331
429.183
431.063
432.965
434.889
436.839
438.861
441.239
444.625
448
327.924
352.528
363.911
374.299
385.984
393.8
396.98
397.959
398.708
399.928
401.58
403.46
405.4
407.312
409.197
411.102
413.057
415.045
417.015
418.922
420.759
422.546
424.32
426.11
427.932
429.785
431.658
433.538
435.409
437.256
439.061
440.821
442.656
444.931
447.072
353.487
393.912
401.072
397.384
400.471
402.705
403.664
404.231
404.763
405.397
406.189
407.174
408.358
409.686
411.048
412.36
413.617
414.89
416.266
417.802
419.499
421.308
423.163
425.015
426.84
428.634
430.4
432.139
433.848
435.525
437.169
438.824
440.757
443.682
447.429
357.869
406.265
414.655
407.074
407.501
408.007
408.574
409.275
410.139
411.124
412.159
413.183
414.174
415.169
416.237
417.455
418.846
420.33
421.774
423.097
424.314
425.503
426.745