/*--------------------------------*- C++ -*----------------------------------*\
| =========                 |                                                 |
| \\      /  F ield         | OpenFOAM: The Open Source CFD Toolbox           |
|  \\    /   O peration     | Version:  v2006                                 |
|   \\  /    A nd           | Website:  www.openfoam.com                      |
|    \\/     M anipulation  |                                                 |
\*---------------------------------------------------------------------------*/
FoamFile
{
    version     2.0;
    format      ascii;
    class       volVectorField;
    location    "28";
    object      U;
}
// * * * * * * * * * * * * * * * * * * * * * * * * * * * * * * * * * * * * * //

dimensions      [0 1 -1 0 0 0 0];


internalField   nonuniform List<vector> 
78750
(
(-0.196184 -0.0155226 3.41382)
(0.777339 -0.338531 1.25672)
(-0.307007 -0.354622 -0.0670148)
(0.337594 -0.454632 -0.351609)
(0.144306 -0.392204 -0.12666)
(0.144638 -0.38011 -0.0249416)
(0.223464 -0.342632 0.0284347)
(0.22728 -0.33151 0.0411743)
(0.264512 -0.301068 0.0313894)
(0.277905 -0.281191 0.0237879)
(0.299564 -0.257444 0.0112648)
(0.318494 -0.233842 -0.00257942)
(0.335707 -0.210361 -0.017821)
(0.348403 -0.187519 -0.0344709)
(0.356163 -0.165249 -0.0523899)
(0.360545 -0.143421 -0.0714513)
(0.363313 -0.12185 -0.0915062)
(0.365191 -0.100536 -0.112309)
(0.365532 -0.0793994 -0.133305)
(0.36439 -0.0591192 -0.154351)
(0.361047 -0.0405289 -0.175829)
(0.35432 -0.02386 -0.197481)
(0.34458 -0.00912407 -0.218643)
(0.332494 0.00345952 -0.238563)
(0.31835 0.0140847 -0.256858)
(0.302131 0.0225748 -0.27257)
(0.283819 0.0294 -0.286264)
(0.263219 0.0343172 -0.296521)
(0.240214 0.038409 -0.304162)
(0.214236 0.0381557 -0.309381)
(0.185544 0.0390795 -0.320691)
(0.153055 0.0292859 -0.286154)
(0.117811 0.0077989 -0.411359)
(0.0843167 -0.0137265 -0.285535)
(0.0323998 0.0263904 0.235224)
(0.40796 -0.600691 -2.69367)
(-0.252113 -0.663635 -3.49027)
(0.329026 -0.398926 -2.33008)
(0.049697 -0.297734 -1.25891)
(0.201814 -0.195372 -0.377216)
(0.10573 -0.197568 -0.0251073)
(0.128536 -0.169601 0.156984)
(0.0413578 -0.206916 0.125506)
(0.0672 -0.144005 0.0996885)
(0.00905693 -0.18891 0.0953805)
(0.0232508 -0.135271 0.0615792)
(-0.000498445 -0.0967781 0.0456221)
(0.000966315 -0.0554706 0.0289169)
(0.000391491 -0.0257271 0.0145155)
(0.00390125 -0.0097941 0.0034695)
(0.0115997 -0.00345329 -0.00460473)
(0.0225979 0.00205898 -0.010414)
(0.0339098 0.0141937 -0.0161105)
(0.0441943 0.0336785 -0.0231923)
(0.0533335 0.0573547 -0.0316906)
(0.0610158 0.0825388 -0.0407348)
(0.0678564 0.10782 -0.0505533)
(0.0737322 0.131999 -0.0610334)
(0.0792708 0.155664 -0.0724078)
(0.0842631 0.178832 -0.0840731)
(0.088167 0.201538 -0.0953677)
(0.0910816 0.224265 -0.105436)
(0.0923906 0.247332 -0.113277)
(0.0925541 0.271917 -0.118202)
(0.090305 0.298207 -0.117959)
(0.0867089 0.329448 -0.112099)
(0.0791661 0.361614 -0.0871675)
(0.0680192 0.408629 -0.0782216)
(0.044676 0.437681 0.167552)
(0.0133891 0.394118 0.314965)
(-0.10179 0.0294834 0.381168)
(0.0748314 -0.116968 1.11159)
(-0.145453 -0.325187 0.301339)
(0.0322736 -0.269682 0.00031215)
(-0.0631301 -0.260299 -0.122421)
(0.00822447 -0.224939 -0.141037)
(-0.00904346 -0.216457 -0.140228)
(0.00994585 -0.216349 -0.114847)
(-0.00226974 -0.250439 -0.0763878)
(0.000387419 -0.267112 -0.059369)
(-0.0184071 -0.289103 -0.0334566)
(-0.0293943 -0.287361 -0.0113864)
(-0.0439273 -0.278364 0.00583393)
(-0.0560197 -0.282125 0.0161915)
(-0.0691342 -0.300626 0.0232519)
(-0.0824194 -0.312624 0.0308503)
(-0.0931078 -0.298279 0.0344045)
(-0.0996385 -0.257578 0.0272694)
(-0.10062 -0.204009 0.0127836)
(-0.0955857 -0.152186 0.000758544)
(-0.0865122 -0.108577 -0.00697538)
(-0.0757932 -0.0698397 -0.012536)
(-0.0646113 -0.0316233 -0.0171928)
(-0.0521329 0.00786917 -0.021256)
(-0.0402239 0.0456731 -0.0238751)
(-0.0287262 0.0819772 -0.0248565)
(-0.0178982 0.116876 -0.0235049)
(-0.00860671 0.150017 -0.0188732)
(-0.000904866 0.182049 -0.00948115)
(0.00467666 0.214334 0.00597276)
(0.00941836 0.250762 0.0299923)
(0.0117847 0.289228 0.0666359)
(0.0138999 0.337467 0.13441)
(0.0115215 0.361009 0.245421)
(0.0041811 0.339374 0.218475)
(0.0413757 -0.393695 -0.046731)
(-0.02814 -0.536286 -0.346273)
(0.0568988 -0.323761 0.0734455)
(-0.0210652 -0.247264 0.184704)
(0.0212124 -0.171955 0.168222)
(-0.00993564 -0.158831 0.122966)
(0.0129025 -0.119684 0.0919853)
(0.00815525 -0.0886553 0.0639615)
(0.015046 -0.0468505 0.0366621)
(0.0133502 -0.0173425 0.0163688)
(0.0123121 0.00927068 -0.00335867)
(0.00805599 0.0274835 -0.018543)
(0.00289876 0.0392798 -0.0270782)
(-0.0045119 0.045494 -0.0299589)
(-0.0152321 0.043277 -0.0276519)
(-0.0307897 0.0256272 -0.0173551)
(-0.04983 -0.0101348 0.00135143)
(-0.066995 -0.049132 0.0178371)
(-0.0783264 -0.0762951 0.0262373)
(-0.0843334 -0.0891439 0.0289699)
(-0.0881356 -0.0920005 0.0266335)
(-0.0897706 -0.0851929 0.0212476)
(-0.0879545 -0.067439 0.0159982)
(-0.0829013 -0.0412271 0.0116344)
(-0.075219 -0.00892641 0.00743257)
(-0.0656173 0.0286933 0.00360611)
(-0.0546469 0.0706127 0.000746151)
(-0.0429588 0.113762 0.000202178)
(-0.031576 0.155361 0.00335541)
(-0.0217089 0.189733 0.0122313)
(-0.0134212 0.215086 0.0283873)
(-0.00620851 0.236395 0.0536177)
(0.000154429 0.269488 0.101048)
(0.00237505 0.303671 0.141244)
(0.00055161 0.306141 0.108088)
(-0.0150214 -0.231364 0.131159)
(-0.0015866 -0.382022 0.228132)
(-0.0319666 -0.448673 0.0287618)
(-0.00571623 -0.437343 0.0281399)
(-0.0100692 -0.431576 0.0421502)
(0.00414162 -0.413055 0.0620877)
(0.00721769 -0.394331 0.0726709)
(0.0150518 -0.364786 0.0796341)
(0.0186346 -0.336707 0.0854601)
(0.0198891 -0.313829 0.0875043)
(0.0177664 -0.290963 0.0820187)
(0.015521 -0.261636 0.0675825)
(0.0147488 -0.229982 0.0494168)
(0.0157723 -0.198052 0.0326376)
(0.017582 -0.168438 0.0223385)
(0.0180982 -0.14526 0.0197867)
(0.0156475 -0.133833 0.0217737)
(0.00984667 -0.134927 0.0258264)
(0.00118974 -0.143721 0.033385)
(-0.00891126 -0.149138 0.0448195)
(-0.018524 -0.143669 0.0538138)
(-0.0266385 -0.132236 0.0566002)
(-0.0329409 -0.120857 0.0561141)
(-0.0368827 -0.110984 0.0545978)
(-0.038019 -0.10073 0.0521517)
(-0.0359086 -0.0857757 0.0482108)
(-0.030199 -0.0611937 0.0425402)
(-0.0214033 -0.0242345 0.035584)
(-0.0108508 0.0264793 0.0275492)
(-0.000840212 0.0853416 0.0198825)
(0.00508381 0.138213 0.0161349)
(0.00648981 0.181345 0.0201899)
(0.00505252 0.241749 0.0399105)
(0.00273644 0.296786 0.0566153)
(0.000787705 0.300385 0.04258)
(0.00946693 -0.31152 -0.0368717)
(0.0116514 -0.34735 -0.0546578)
(0.0225487 -0.336229 -0.00668779)
(0.0241955 -0.328942 0.0126563)
(0.0287643 -0.318584 0.0183718)
(0.0305535 -0.307899 0.0162288)
(0.0332451 -0.289659 0.0102862)
(0.0357933 -0.250841 0.00197138)
(0.0387402 -0.187338 -0.00380336)
(0.0399625 -0.119227 -0.000191032)
(0.0381577 -0.0709479 0.0136797)
(0.0346109 -0.0527068 0.027798)
(0.0304889 -0.0539892 0.0345082)
(0.0255679 -0.0605381 0.0301171)
(0.0210519 -0.054069 0.0170532)
(0.0172552 -0.0347886 0.00833985)
(0.0133961 -0.0202172 0.00697854)
(0.00848461 -0.0165911 0.00935582)
(0.00091526 -0.024832 0.0161039)
(-0.00869491 -0.0417351 0.0279615)
(-0.0175475 -0.0588438 0.040387)
(-0.0241404 -0.0715386 0.0501456)
(-0.0284469 -0.0792818 0.0572498)
(-0.0313242 -0.0840239 0.0622726)
(-0.0331535 -0.0874268 0.0653792)
(-0.033995 -0.0898998 0.0664304)
(-0.0337164 -0.088514 0.0649938)
(-0.0311347 -0.0729934 0.0604265)
(-0.024928 -0.029963 0.0526893)
(-0.0152018 0.0447815 0.0416085)
(-0.00525016 0.138127 0.0290164)
(-0.00176386 0.217306 0.0205332)
(-0.00269336 0.280478 0.0228178)
(-0.00311123 0.316831 0.0259277)
(-0.00173872 0.30081 0.0193607)
(-0.00695546 -0.327446 0.0887936)
(-0.0143311 -0.497235 0.122598)
(-0.0235404 -0.512638 0.0991836)
(-0.028509 -0.50469 0.0841273)
(-0.0332037 -0.488849 0.0746353)
(-0.0356228 -0.465832 0.0705362)
(-0.0363222 -0.435735 0.0687795)
(-0.0337215 -0.399307 0.0677394)
(-0.0276014 -0.357207 0.0656392)
(-0.0183772 -0.310697 0.0615339)
(-0.00831082 -0.266925 0.0565753)
(-0.00027308 -0.231245 0.0515432)
(0.00359481 -0.20045 0.0448256)
(0.00352231 -0.168881 0.0372802)
(0.00170917 -0.140808 0.0312926)
(0.000364586 -0.117212 0.0264535)
(0.000236134 -0.0958359 0.0235252)
(0.000905499 -0.0756676 0.0233707)
(0.00116295 -0.0613646 0.0251135)
(0.000608562 -0.0592267 0.0265213)
(-0.000718575 -0.069481 0.0277506)
(-0.00260446 -0.0899337 0.0317703)
(-0.00410623 -0.106161 0.0392561)
(-0.00545112 -0.115208 0.0479099)
(-0.00698188 -0.119068 0.0562793)
(-0.00909948 -0.119203 0.0637253)
(-0.0117766 -0.117219 0.0694199)
(-0.0142074 -0.115265 0.0724887)
(-0.0156645 -0.10772 0.0723797)
(-0.0134324 -0.0659688 0.0670354)
(-0.00516179 0.0409797 0.0552919)
(0.00319912 0.188376 0.0395053)
(0.00173729 0.291722 0.0299907)
(-0.000168119 0.325476 0.0268611)
(8.82419e-05 0.294347 0.020059)
(0.00129919 -0.275046 -0.0119221)
(0.003263 -0.345972 -0.0598799)
(0.00445454 -0.364896 -0.0647015)
(0.00469389 -0.37454 -0.0605612)
(0.00444835 -0.382269 -0.0523402)
(0.00377095 -0.388565 -0.04158)
(0.00317068 -0.392224 -0.0288325)
(0.00297718 -0.390104 -0.0148339)
(0.00384629 -0.375236 7.67586e-05)
(0.00664413 -0.338331 0.0146085)
(0.0115625 -0.280044 0.026047)
(0.0172362 -0.212912 0.03415)
(0.0216863 -0.153595 0.0413216)
(0.0235891 -0.113406 0.0479025)
(0.0228773 -0.0918051 0.0522692)
(0.0197811 -0.0828401 0.0540075)
(0.014608 -0.0799638 0.0536806)
(0.00861783 -0.078443 0.0527659)
(0.00338157 -0.0788508 0.0527201)
(-0.00074419 -0.0842442 0.0539155)
(-0.00444869 -0.0954544 0.0566596)
(-0.00739003 -0.109198 0.0606792)
(-0.00907149 -0.121028 0.0645766)
(-0.00942066 -0.127488 0.0671858)
(-0.00885371 -0.128159 0.0687261)
(-0.00804462 -0.123854 0.0699906)
(-0.00775536 -0.115653 0.0715864)
(-0.00857507 -0.105812 0.073385)
(-0.0102205 -0.0962492 0.0746439)
(-0.0119127 -0.0784986 0.0746311)
(-0.0106766 -0.0140371 0.0708378)
(-0.00144449 0.145007 0.0593638)
(0.00290542 0.309704 0.0448324)
(0.00140864 0.34288 0.0379474)
(0.00091424 0.301885 0.0283596)
(-0.000284769 -0.339694 0.00905136)
(0.00388162 -0.466706 0.025548)
(0.00711969 -0.481969 0.0271255)
(0.00866932 -0.48025 0.0239154)
(0.00884758 -0.472913 0.0179235)
(0.00749064 -0.461961 0.0108865)
(0.00491579 -0.449459 0.00465889)
(0.0015635 -0.437505 0.00103631)
(-0.0018189 -0.426993 0.00123003)
(-0.00411351 -0.415381 0.0059578)
(-0.00361959 -0.395595 0.0150199)
(0.00139702 -0.360902 0.0259294)
(0.0104937 -0.311361 0.0355764)
(0.0216241 -0.252539 0.042958)
(0.0325697 -0.191777 0.048341)
(0.0412454 -0.136263 0.0522938)
(0.0461229 -0.0927715 0.0553937)
(0.0467734 -0.0673898 0.0576031)
(0.0440541 -0.0600306 0.0588751)
(0.0378043 -0.067182 0.0598349)
(0.0282457 -0.0866218 0.0609932)
(0.0179001 -0.117569 0.0635217)
(0.00868058 -0.153341 0.0679282)
(0.00177965 -0.179183 0.0711799)
(-0.00234985 -0.189283 0.0720328)
(-0.00427039 -0.185659 0.0716593)
(-0.0048912 -0.171618 0.0713121)
(-0.00480673 -0.151352 0.071583)
(-0.00484143 -0.129996 0.072275)
(-0.00518823 -0.106485 0.0728943)
(-0.00532907 -0.0609276 0.0730401)
(-0.00195714 0.0635732 0.069801)
(0.00435051 0.275434 0.0587282)
(0.00392664 0.34857 0.0496439)
(0.0018774 0.311264 0.0346267)
(-3.81482e-05 -0.303827 -0.00410327)
(0.00275 -0.41527 -0.0285532)
(0.00580084 -0.432008 -0.0353228)
(0.00911498 -0.431665 -0.0375155)
(0.012413 -0.425429 -0.0378811)
(0.0151967 -0.415471 -0.037166)
(0.0173252 -0.403247 -0.0360033)
(0.0186539 -0.390157 -0.0348892)
(0.018931 -0.377854 -0.0338772)
(0.0179772 -0.367915 -0.0323267)
(0.0159653 -0.360761 -0.0289226)
(0.0135485 -0.35411 -0.0219279)
(0.0121245 -0.342163 -0.010172)
(0.0134377 -0.318472 0.00504089)
(0.0181921 -0.281553 0.020409)
(0.0257921 -0.234553 0.0334385)
(0.0349 -0.182167 0.0429306)
(0.0436712 -0.128932 0.048784)
(0.0500333 -0.0805597 0.0517547)
(0.0523392 -0.0477685 0.0524675)
(0.0514333 -0.0354519 0.0513814)
(0.0469967 -0.0417233 0.0499536)
(0.0378911 -0.0775292 0.0532908)
(0.0272865 -0.122562 0.0585168)
(0.0162495 -0.154912 0.0609486)
(0.00707268 -0.171122 0.0613229)
(0.000963184 -0.174067 0.0611021)
(-0.00220813 -0.165781 0.0609284)
(-0.003212 -0.148737 0.0611821)
(-0.00329889 -0.123877 0.062191)
(-0.00301965 -0.0771518 0.0646796)
(-0.0027832 0.0377862 0.0679245)
(0.00122409 0.250279 0.0626402)
(0.00251762 0.358016 0.052735)
(0.000915353 0.323714 0.0343309)
(0.00157055 -0.341382 -0.00682452)
(0.00876786 -0.472912 0.00372155)
(0.0147301 -0.497373 0.0105557)
(0.0199672 -0.501669 0.0136653)
(0.0249691 -0.499562 0.0140706)
(0.0292099 -0.493001 0.0119529)
(0.0327216 -0.482202 0.00762339)
(0.0356918 -0.466523 0.00150499)
(0.0381685 -0.445198 -0.00590483)
(0.0399517 -0.418791 -0.013949)
(0.0406095 -0.390376 -0.0216873)
(0.0397815 -0.364592 -0.0278762)
(0.0376001 -0.344542 -0.0312019)
(0.0346522 -0.329382 -0.0303878)
(0.0318574 -0.314609 -0.0238766)
(0.030661 -0.293829 -0.0107241)
(0.0322619 -0.262573 0.00713011)
(0.0366047 -0.221101 0.0257846)
(0.0427223 -0.173753 0.0417757)
(0.0490242 -0.127084 0.0530136)
(0.0532085 -0.0909579 0.059534)
(0.0537062 -0.0718189 0.0626479)
(0.0503311 -0.0678868 0.0615094)
(0.0425967 -0.0772567 0.0569424)
(0.0321181 -0.0986465 0.0535149)
(0.0218233 -0.125967 0.053034)
(0.0136249 -0.149443 0.053446)
(0.00809278 -0.161634 0.0528885)
(0.0050097 -0.158882 0.0512408)
(0.00363519 -0.139151 0.0496514)
(0.00283824 -0.094295 0.0506216)
(0.00224721 0.0130871 0.0575473)
(0.00273566 0.222864 0.0621464)
(0.00307999 0.36009 0.0541307)
(0.00129241 0.330732 0.0333357)
(0.00295319 -0.358058 -0.00182574)
(0.00862601 -0.482138 -0.00649401)
(0.0131321 -0.503417 -0.00881036)
(0.017186 -0.505022 -0.00972012)
(0.0211542 -0.499583 -0.00988853)
(0.024501 -0.489463 -0.00954161)
(0.027163 -0.476075 -0.00905806)
(0.0292924 -0.460268 -0.00888613)
(0.0311625 -0.442197 -0.00945822)
(0.0331075 -0.42117 -0.0111875)
(0.0352864 -0.396079 -0.0144041)
(0.0374081 -0.36719 -0.0191031)
(0.0386659 -0.337782 -0.0246188)
(0.0382647 -0.312824 -0.0297248)
(0.0362235 -0.295314 -0.0332516)
(0.0333407 -0.284443 -0.0344209)
(0.0303936 -0.276355 -0.0320114)
(0.0285728 -0.263397 -0.0229454)
(0.0297475 -0.23535 -0.00551247)
(0.033646 -0.190438 0.0155664)
(0.0377939 -0.138323 0.0339013)
(0.039204 -0.0948008 0.0458832)
(0.0368486 -0.0708515 0.0522224)
(0.0308368 -0.0687131 0.0553294)
(0.0227601 -0.0860023 0.0562657)
(0.0147617 -0.113875 0.056134)
(0.00807888 -0.143104 0.0557041)
(0.00355225 -0.165007 0.054421)
(0.00139253 -0.172031 0.0514781)
(0.00122006 -0.15636 0.0470009)
(0.00181665 -0.105748 0.0434816)
(0.00147531 0.00654235 0.0462655)
(0.000756966 0.210686 0.0533174)
(0.000775268 0.359667 0.0490056)
(0.000459068 0.333444 0.0292359)
(0.00120557 -0.383412 -0.00697851)
(0.0055522 -0.508945 -0.00969441)
(0.00927798 -0.529422 -0.0093004)
(0.0126489 -0.531607 -0.00874819)
(0.0159148 -0.527575 -0.00838168)
(0.0186173 -0.519333 -0.00827)
(0.0207116 -0.507767 -0.00842507)
(0.0222436 -0.493311 -0.008854)
(0.0232603 -0.476001 -0.00958347)
(0.0239069 -0.455486 -0.010659)
(0.0244905 -0.430772 -0.0121594)
(0.0254067 -0.400398 -0.0142094)
(0.026873 -0.363953 -0.0168902)
(0.0285386 -0.32414 -0.0199649)
(0.0294743 -0.286785 -0.0227462)
(0.0288243 -0.257779 -0.0245138)
(0.0267885 -0.239414 -0.0250189)
(0.0241876 -0.229173 -0.0241114)
(0.0212464 -0.22111 -0.0199789)
(0.019764 -0.200839 -0.00729223)
(0.0221407 -0.155716 0.0120603)
(0.0255506 -0.098587 0.0280479)
(0.0264 -0.0534032 0.0361686)
(0.0253002 -0.0345081 0.0383536)
(0.0219038 -0.0360365 0.0388213)
(0.0144292 -0.0690687 0.0419087)
(0.00807463 -0.112152 0.0461811)
(0.0030901 -0.151009 0.0490058)
(0.000371435 -0.173803 0.0488892)
(5.09101e-05 -0.169136 0.0453495)
(0.00117119 -0.115895 0.0398292)
(0.000707755 0.00906664 0.0397747)
(-0.000963578 0.215312 0.0467106)
(-0.000771985 0.359504 0.0435229)
(-0.000108768 0.331466 0.0251508)
(0.003137 -0.393864 -0.00896007)
(0.00806249 -0.515966 -0.014652)
(0.0118282 -0.535266 -0.0169686)
(0.0150283 -0.535564 -0.0182842)
(0.0180848 -0.528794 -0.0192402)
(0.0205534 -0.517241 -0.0198632)
(0.0223229 -0.50223 -0.0202112)
(0.0233815 -0.484729 -0.0203954)
(0.0237224 -0.46562 -0.0205615)
(0.0233701 -0.44576 -0.0208631)
(0.0224533 -0.425746 -0.0214232)
(0.0212546 -0.405242 -0.022311)
(0.0202117 -0.382517 -0.0235703)
(0.0198246 -0.355163 -0.025179)
(0.0202702 -0.322895 -0.0268309)
(0.0209869 -0.289617 -0.0278343)
(0.0210158 -0.261334 -0.0275931)
(0.0200206 -0.24215 -0.0261843)
(0.0185475 -0.23145 -0.0238318)
(0.0166355 -0.224748 -0.0189242)
(0.0151224 -0.207959 -0.00451675)
(0.0171092 -0.16277 0.0179337)
(0.0198997 -0.108485 0.0342519)
(0.0211253 -0.0698479 0.0417386)
(0.0210961 -0.0543937 0.0438287)
(0.0191013 -0.0595454 0.0435957)
(0.0142709 -0.0935707 0.0441554)
(0.00984143 -0.140426 0.0464075)
(0.00681088 -0.176969 0.0474199)
(0.00503758 -0.183518 0.0453887)
(0.00452519 -0.129157 0.0395953)
(0.00434653 0.0112003 0.0341679)
(0.00159125 0.217609 0.0376995)
(0.000353442 0.356789 0.0363793)
(0.000312181 0.32721 0.0207187)
(0.000513751 -0.415078 -0.0063357)
(0.00163001 -0.528429 -0.0134239)
(0.00305727 -0.542821 -0.0156803)
(0.00452104 -0.541179 -0.0165204)
(0.00618603 -0.533366 -0.0166922)
(0.00782229 -0.521187 -0.016322)
(0.00939718 -0.505544 -0.0155725)
(0.0109019 -0.48678 -0.0146447)
(0.0123039 -0.46493 -0.0137622)
(0.0135195 -0.440059 -0.0131611)
(0.0144008 -0.412723 -0.0130689)
(0.0147907 -0.384167 -0.0136406)
(0.0146404 -0.355748 -0.0148781)
(0.0141152 -0.327814 -0.0166183)
(0.0135803 -0.299621 -0.0185877)
(0.0133446 -0.270778 -0.0203333)
(0.0132681 -0.243101 -0.021218)
(0.0128075 -0.220162 -0.0208148)
(0.0117697 -0.204202 -0.0192413)
(0.0101954 -0.193238 -0.0162705)
(0.00766003 -0.181841 -0.0092995)
(0.0051515 -0.154997 0.00760608)
(0.00463993 -0.112597 0.0252913)
(0.00430986 -0.0765256 0.0345081)
(0.00437598 -0.0627041 0.0370682)
(0.00481953 -0.0643089 0.0374352)
(0.00498298 -0.0940691 0.0375379)
(0.00525741 -0.140957 0.0385025)
(0.00504344 -0.176764 0.0385237)
(0.00448361 -0.186349 0.0378529)
(0.00375776 -0.135629 0.0364103)
(0.0025721 0.0152639 0.0333483)
(-0.000217813 0.236491 0.032382)
(-0.00110208 0.361607 0.0294142)
(-0.00019517 0.32736 0.0161854)
(0.000694039 -0.403173 -0.0173944)
(0.00249145 -0.51996 -0.0310127)
(0.00417906 -0.537172 -0.0349208)
(0.00569675 -0.537557 -0.0363328)
(0.00715802 -0.531708 -0.0364933)
(0.00836891 -0.521675 -0.0355349)
(0.009296 -0.508622 -0.0335593)
(0.00995303 -0.493222 -0.0307176)
(0.0103884 -0.475765 -0.0272251)
(0.010686 -0.456164 -0.0233589)
(0.0109341 -0.434055 -0.01946)
(0.0111672 -0.409177 -0.0159316)
(0.011336 -0.381879 -0.0131692)
(0.0113421 -0.353149 -0.0114043)
(0.011173 -0.323965 -0.0105863)
(0.0109806 -0.294966 -0.0104223)
(0.0109388 -0.266959 -0.0104475)
(0.0110108 -0.241648 -0.010142)
(0.0109493 -0.220742 -0.00912489)
(0.0105904 -0.203425 -0.00701397)
(0.00973139 -0.184978 -0.0024809)
(0.00839696 -0.157457 0.00750544)
(0.00771563 -0.12139 0.0212796)
(0.00778849 -0.0926974 0.0308465)
(0.0080329 -0.081102 0.0344895)
(0.00812449 -0.0902566 0.0352837)
(0.0078216 -0.11992 0.0344558)
(0.00723378 -0.156314 0.032178)
(0.0064333 -0.182899 0.029957)
(0.00593032 -0.186164 0.0285585)
(0.00552341 -0.124562 0.0280054)
(0.00395138 0.0365092 0.0277455)
(0.000446561 0.255355 0.0272292)
(-0.000637895 0.363106 0.0239037)
(0.000190166 0.323905 0.0130366)
(0.00135032 -0.408347 -0.0184299)
(0.00324854 -0.515986 -0.0297293)
(0.0051727 -0.529802 -0.0336722)
(0.00701143 -0.527969 -0.03587)
(0.00896849 -0.519847 -0.0374137)
(0.010777 -0.507317 -0.0383053)
(0.0123687 -0.491538 -0.0384471)
(0.0136933 -0.473289 -0.0377272)
(0.0147043 -0.453138 -0.0360694)
(0.0153939 -0.431458 -0.0334743)
(0.0158129 -0.408394 -0.0300483)
(0.016053 -0.383902 -0.026027)
(0.0161876 -0.358002 -0.0217878)
(0.0162131 -0.331159 -0.0177881)
(0.0160459 -0.304362 -0.0143884)
(0.0155838 -0.278703 -0.0116898)
(0.0147713 -0.254902 -0.00951835)
(0.0136066 -0.23358 -0.00755977)
(0.0121217 -0.215448 -0.00549562)
(0.0104132 -0.200428 -0.00298396)
(0.00855063 -0.186175 0.000700149)
(0.00682636 -0.167345 0.00701504)
(0.00629166 -0.139967 0.0163343)
(0.00706964 -0.112745 0.0245822)
(0.00803535 -0.0980791 0.0286741)
(0.00858391 -0.0971465 0.0297036)
(0.00791805 -0.119389 0.028927)
(0.00637395 -0.157544 0.0283016)
(0.00465849 -0.189965 0.0281499)
(0.00335761 -0.197421 0.0276798)
(0.00261509 -0.135256 0.0269422)
(0.00200532 0.0412247 0.0266626)
(-0.000255794 0.275555 0.024632)
(-0.00063074 0.367679 0.020471)
(0.000219793 0.325635 0.0112685)
(-0.000399161 -0.408319 -0.0216992)
(0.00111712 -0.519406 -0.0325535)
(0.00320285 -0.534193 -0.035674)
(0.00534002 -0.533465 -0.0373866)
(0.00770075 -0.526562 -0.0386899)
(0.00999755 -0.51522 -0.0396416)
(0.0121505 -0.500488 -0.0401646)
(0.0140868 -0.483121 -0.0401025)
(0.0157196 -0.463776 -0.0392588)
(0.0169926 -0.442994 -0.0374535)
(0.0179221 -0.421049 -0.0345793)
(0.0186101 -0.397799 -0.0306419)
(0.0192165 -0.372727 -0.0257946)
(0.0198938 -0.34533 -0.0203859)
(0.0206951 -0.315736 -0.0149507)
(0.0215166 -0.285082 -0.0100376)
(0.0221244 -0.255164 -0.00595512)
(0.0222695 -0.227754 -0.00265816)
(0.0217908 -0.203935 0.000172954)
(0.0206646 -0.183733 0.00299173)
(0.0190243 -0.166217 0.00629945)
(0.0171917 -0.150004 0.0105374)
(0.0158419 -0.133752 0.0157623)
(0.0156711 -0.118278 0.0209349)
(0.016178 -0.108102 0.024383)
(0.0164705 -0.107451 0.0257744)
(0.0160275 -0.121698 0.0258102)
(0.0141002 -0.148552 0.0255428)
(0.0110592 -0.173399 0.025224)
(0.00828725 -0.181051 0.0242003)
(0.00611703 -0.118129 0.0219628)
(0.00429685 0.0553369 0.0224026)
(0.00265438 0.287782 0.0219802)
(0.0016852 0.370356 0.018377)
(0.00111491 0.327495 0.0107286)
(0.00188646 -0.401549 -0.0220068)
(0.00601194 -0.51511 -0.0302455)
(0.00978554 -0.53221 -0.0331333)
(0.0133798 -0.532148 -0.0352462)
(0.0171323 -0.525061 -0.0374897)
(0.0206024 -0.512742 -0.039947)
(0.0237139 -0.496159 -0.042538)
(0.0264307 -0.476063 -0.0450593)
(0.028659 -0.453362 -0.0471886)
(0.0302805 -0.429269 -0.0485252)
(0.0312188 -0.405112 -0.0486845)
(0.0314996 -0.381891 -0.0473979)
(0.0312708 -0.359897 -0.0445537)
(0.0307721 -0.338614 -0.0401864)
(0.0302708 -0.316963 -0.0344902)
(0.0299799 -0.293853 -0.0278878)
(0.029967 -0.268932 -0.0210417)
(0.0301034 -0.243084 -0.0146617)
(0.0301151 -0.218251 -0.00921173)
(0.0297512 -0.196583 -0.00476232)
(0.0289603 -0.179304 -0.00102745)
(0.0278699 -0.165919 0.0025779)
(0.0266491 -0.154438 0.00689121)
(0.0255932 -0.142399 0.0125851)
(0.0250363 -0.129714 0.0188597)
(0.0246129 -0.122215 0.0231237)
(0.0239341 -0.123222 0.0255977)
(0.0220232 -0.141639 0.0274498)
(0.01943 -0.166681 0.0287103)
(0.0165512 -0.181085 0.0282177)
(0.0134613 -0.124679 0.0231456)
(0.00864811 0.0503676 0.0202863)
(0.00372642 0.300656 0.020576)
(0.00199118 0.38401 0.0172681)
(0.00119193 0.340096 0.00991825)
(0.000686024 -0.421799 -0.017288)
(0.0038375 -0.535707 -0.025751)
(0.0070475 -0.55138 -0.0287989)
(0.0102438 -0.550191 -0.0307827)
(0.0136894 -0.541813 -0.0326735)
(0.0169509 -0.528013 -0.0346237)
(0.0199838 -0.509705 -0.0366928)
(0.0228031 -0.487408 -0.0388829)
(0.0253829 -0.461646 -0.0411122)
(0.0276545 -0.433277 -0.0431856)
(0.0295309 -0.403597 -0.0448056)
(0.0309407 -0.374065 -0.0456447)
(0.0318607 -0.34586 -0.0454312)
(0.0323374 -0.319561 -0.0439879)
(0.0324885 -0.295084 -0.0412213)
(0.0324826 -0.271816 -0.0371115)
(0.0324952 -0.248891 -0.0317573)
(0.0326396 -0.225614 -0.0254595)
(0.0328853 -0.201927 -0.0187306)
(0.0330244 -0.178706 -0.012149)
(0.0327497 -0.157603 -0.00615226)
(0.0318496 -0.140302 -0.000900674)
(0.0303526 -0.12762 0.0037481)
(0.028553 -0.119447 0.00804509)
(0.0267909 -0.115209 0.0121506)
(0.0253881 -0.114908 0.0159062)
(0.0242 -0.119535 0.0197482)
(0.0226828 -0.133954 0.0240058)
(0.0205967 -0.153398 0.0270044)
(0.0172107 -0.155352 0.0271253)
(0.0130616 -0.0720643 0.020724)
(0.0079805 0.121987 0.0136815)
(0.00338118 0.339519 0.0140323)
(0.00155057 0.39968 0.0123087)
(0.00120687 0.351247 0.00690993)
(0.00218799 -0.417834 -0.0239059)
(0.00648857 -0.532304 -0.0345365)
(0.0103785 -0.549601 -0.0381022)
(0.0139816 -0.549177 -0.0403861)
(0.0176567 -0.541268 -0.0425271)
(0.0209638 -0.527789 -0.0446904)
(0.0238395 -0.509709 -0.0469016)
(0.0262938 -0.487624 -0.0491155)
(0.0283151 -0.462151 -0.0512142)
(0.0298788 -0.434263 -0.053004)
(0.0309733 -0.405355 -0.0542472)
(0.0316177 -0.376918 -0.0547325)
(0.031865 -0.350065 -0.0543332)
(0.0317937 -0.325277 -0.0530057)
(0.0315 -0.302448 -0.0507438)
(0.0310948 -0.281084 -0.0475339)
(0.0307029 -0.260484 -0.0433452)
(0.0304545 -0.239925 -0.0381729)
(0.0304552 -0.2189 -0.0321271)
(0.0307281 -0.197423 -0.0255015)
(0.0311575 -0.176225 -0.0187253)
(0.0314962 -0.156561 -0.0121865)
(0.0314467 -0.139796 -0.00612823)
(0.0308761 -0.127438 -0.000849835)
(0.0298842 -0.119956 0.00369711)
(0.0287356 -0.11738 0.00780071)
(0.0275305 -0.120176 0.0122286)
(0.0258584 -0.130486 0.0185397)
(0.0233327 -0.150388 0.0255501)
(0.0173388 -0.152919 0.0282695)
(0.0105308 -0.0723775 0.0222832)
(-0.000535579 0.122878 0.0114561)
(-0.00857967 0.346251 0.00833581)
(-0.00855258 0.397839 0.00591807)
(-0.00421685 0.352637 0.00214434)
(0.0016625 -0.43707 -0.0178349)
(0.00478349 -0.546169 -0.0259978)
(0.00785083 -0.560198 -0.0296523)
(0.0108516 -0.557309 -0.0323415)
(0.0140417 -0.546589 -0.0350518)
(0.0169412 -0.529788 -0.0378859)
(0.0194659 -0.507837 -0.040866)
(0.0216208 -0.481297 -0.0439795)
(0.0234154 -0.450779 -0.0471556)
(0.0248545 -0.417369 -0.0502215)
(0.0259377 -0.382776 -0.0528926)
(0.0266573 -0.34898 -0.0548473)
(0.027003 -0.317607 -0.0558464)
(0.0269713 -0.289536 -0.0557965)
(0.0265751 -0.264894 -0.0547208)
(0.0258515 -0.243283 -0.0526843)
(0.0248635 -0.224008 -0.0497303)
(0.0236948 -0.206245 -0.045854)
(0.022437 -0.189151 -0.04102)
(0.0211672 -0.172017 -0.0352336)
(0.0199095 -0.15455 -0.0286457)
(0.0185812 -0.137164 -0.0216064)
(0.0169472 -0.121113 -0.0146103)
(0.0146837 -0.108125 -0.00814274)
(0.0116666 -0.0994677 -0.00240229)
(0.00771508 -0.0952721 0.00308002)
(0.00213525 -0.0953393 0.0091919)
(-0.00548205 -0.098889 0.0165577)
(-0.0162792 -0.0980066 0.0248323)
(-0.0328753 -0.0556328 0.0302115)
(-0.0398769 0.0887266 0.0262237)
(-0.0302768 0.316037 0.0137794)
(-0.0228649 0.431725 0.00530513)
(-0.0128376 0.413399 0.0027714)
(-0.00448016 0.310736 0.00111599)
(0.00153465 -0.439196 -0.0229394)
(0.00412492 -0.545478 -0.0340083)
(0.00680341 -0.559118 -0.0383555)
(0.00945579 -0.556032 -0.0413586)
(0.0122952 -0.545018 -0.0441411)
(0.0149112 -0.52788 -0.0467605)
(0.0171963 -0.505713 -0.0491623)
(0.0191308 -0.479348 -0.0512816)
(0.0207409 -0.44962 -0.053096)
(0.022087 -0.417577 -0.0546242)
(0.0232391 -0.384592 -0.0558691)
(0.0242533 -0.352141 -0.0567716)
(0.0251592 -0.321411 -0.0572284)
(0.0259598 -0.293044 -0.0571477)
(0.0266414 -0.267185 -0.0564817)
(0.0271872 -0.24365 -0.0552211)
(0.027584 -0.222076 -0.0533701)
(0.0278279 -0.201996 -0.0509279)
(0.0279274 -0.182891 -0.0478759)
(0.0279039 -0.164208 -0.0441772)
(0.0277837 -0.145418 -0.0398092)
(0.0275712 -0.126167 -0.0348273)
(0.0272056 -0.106417 -0.0294042)
(0.0265219 -0.0864387 -0.0237914)
(0.025274 -0.0666049 -0.0182239)
(0.0231921 -0.0470149 -0.0128043)
(0.0198223 -0.027216 -0.00739304)
(0.0140597 -0.00722343 -0.00169207)
(0.00512624 0.00644549 0.00425004)
(-0.0012891 0.00197912 0.00853936)
(-0.000457339 -0.0118429 0.013103)
(0.0168114 0.00775152 0.0313308)
(0.0324722 0.221897 0.0255625)
(0.0308922 0.327186 0.0161604)
(0.0148244 0.285392 0.0157538)
(0.00204854 -0.444327 -0.0196887)
(0.00488051 -0.546096 -0.0268638)
(0.00763374 -0.558041 -0.0308757)
(0.01042 -0.553656 -0.0345038)
(0.013508 -0.540954 -0.0385788)
(0.016492 -0.521452 -0.0429874)
(0.0192215 -0.496302 -0.0473917)
(0.0216493 -0.466724 -0.0513794)
(0.0238191 -0.434004 -0.0546775)
(0.0258241 -0.399486 -0.0572328)
(0.0277472 -0.364691 -0.0591223)
(0.0296358 -0.331225 -0.0604247)
(0.0315157 -0.300379 -0.0611684)
(0.033418 -0.272807 -0.0613599)
(0.0354057 -0.248569 -0.0610251)
(0.0375843 -0.227365 -0.0602146)
(0.0400407 -0.208683 -0.0589645)
(0.042872 -0.191911 -0.0573241)
(0.0461642 -0.176517 -0.0553576)
(0.0499876 -0.162083 -0.0531066)
(0.0544608 -0.148283 -0.0506035)
(0.0597365 -0.134895 -0.0478954)
(0.0659614 -0.121859 -0.0450697)
(0.0732129 -0.109268 -0.0422403)
(0.0814797 -0.0972276 -0.0394549)
(0.0907788 -0.0851669 -0.0365232)
(0.101763 -0.0691478 -0.0330959)
(0.108845 -0.0452438 -0.0323456)
(0.110421 -0.0302632 -0.0331522)
(0.104235 -0.0385327 -0.027472)
(0.086792 -0.083098 -0.0272967)
(0.0479056 -0.0418325 -0.0113239)
(0.0311978 0.276518 0.04234)
(0.0178191 0.486282 0.0478653)
(0.00360583 0.47674 0.0290352)
(0.000215876 -0.450488 -0.0131353)
(0.00164268 -0.551159 -0.0159417)
(0.00354068 -0.562186 -0.0189729)
(0.00564677 -0.55739 -0.0227254)
(0.00808229 -0.543849 -0.0277628)
(0.0104599 -0.522674 -0.033843)
(0.0125519 -0.495422 -0.0401702)
(0.0142876 -0.464384 -0.0456981)
(0.0157728 -0.431632 -0.04978)
(0.0171809 -0.398476 -0.0523767)
(0.0186404 -0.365808 -0.0538214)
(0.0201917 -0.334526 -0.0545138)
(0.0218078 -0.305544 -0.0547277)
(0.0234496 -0.279524 -0.0545697)
(0.0250997 -0.256915 -0.0540675)
(0.0267255 -0.238238 -0.053301)
(0.0283599 -0.223137 -0.0522931)
(0.0301178 -0.2105 -0.0508818)
(0.0320642 -0.199648 -0.0489045)
(0.0342215 -0.190423 -0.0463124)
(0.0366063 -0.182712 -0.043068)
(0.0391474 -0.176395 -0.0391385)
(0.041639 -0.171335 -0.034509)
(0.0437692 -0.167497 -0.0292658)
(0.0451232 -0.165396 -0.0227028)
(0.044822 -0.163652 -0.0141343)
(0.0406759 -0.156805 -0.00421477)
(0.0312291 -0.0704985 -0.0176201)
(0.0200026 0.110694 -0.0861336)
(-0.00103205 0.224161 -0.127335)
(-0.0279249 0.295482 -0.116342)
(-0.0539172 0.379288 -0.0723157)
(-0.055879 0.482343 -0.0334173)
(-0.0476308 0.516226 -0.0254342)
(-0.0212627 0.413078 -0.0244361)
(0.000136577 -0.443091 -0.000588943)
(0.00181504 -0.547452 0.00372723)
(0.00378702 -0.559527 0.00200162)
(0.00597547 -0.554381 -0.00213647)
(0.00836656 -0.538569 -0.0090436)
(0.010312 -0.512514 -0.0185476)
(0.0114657 -0.478683 -0.0292005)
(0.011816 -0.441434 -0.0388414)
(0.0115828 -0.404125 -0.0460855)
(0.0109897 -0.368146 -0.0506745)
(0.0101687 -0.333875 -0.0530005)
(0.00916304 -0.301655 -0.0536785)
(0.00795695 -0.272083 -0.0533062)