/*--------------------------------*- C++ -*----------------------------------*\
| =========                 |                                                 |
| \\      /  F ield         | OpenFOAM: The Open Source CFD Toolbox           |
|  \\    /   O peration     | Version:  v2006                                 |
|   \\  /    A nd           | Website:  www.openfoam.com                      |
|    \\/     M anipulation  |                                                 |
\*---------------------------------------------------------------------------*/
FoamFile
{
    version     2.0;
    format      ascii;
    class       volScalarField;
    location    "75";
    object      nut;
}
// * * * * * * * * * * * * * * * * * * * * * * * * * * * * * * * * * * * * * //

dimensions      [0 2 -1 0 0 0 0];


internalField   nonuniform List<scalar> 
78750
(
1.182e-09
2.23626e-07
4.27147e-07
6.36189e-07
8.45171e-07
1.04989e-06
1.24705e-06
1.43399e-06
1.60866e-06
1.76955e-06
1.91561e-06
2.04622e-06
2.16108e-06
2.25984e-06
2.34179e-06
2.40699e-06
2.4555e-06
2.48731e-06
2.50233e-06
2.50037e-06
2.48127e-06
2.44385e-06
2.38737e-06
2.3109e-06
2.21329e-06
2.0934e-06
1.95022e-06
1.78272e-06
1.59147e-06
1.37748e-06
1.14123e-06
8.83956e-07
6.1521e-07
3.57445e-07
5.02158e-09
3.25802e-09
2.05184e-06
4.41915e-06
6.55906e-06
8.21304e-06
9.5299e-06
1.06683e-05
1.17172e-05
1.27288e-05
1.37387e-05
1.47719e-05
1.58579e-05
1.70416e-05
1.80177e-05
1.81817e-05
1.82535e-05
1.82422e-05
1.8156e-05
1.80017e-05
1.77852e-05
1.75105e-05
1.71783e-05
1.67877e-05
1.6335e-05
1.58127e-05
1.52115e-05
1.43902e-05
1.25456e-05
1.0695e-05
8.78006e-06
6.72167e-06
4.80441e-06
3.62712e-06
2.11473e-06
1.87671e-08
5.77249e-09
1.9804e-06
4.4052e-06
7.35626e-06
1.04591e-05
1.32531e-05
1.55242e-05
1.73034e-05
1.86966e-05
1.97948e-05
2.06626e-05
2.13571e-05
2.19187e-05
2.21208e-05
2.20057e-05
2.17864e-05
2.14786e-05
2.10976e-05
2.06588e-05
2.01774e-05
1.96678e-05
1.91436e-05
1.81486e-05
1.70562e-05
1.59696e-05
1.49002e-05
1.38114e-05
1.26217e-05
1.12012e-05
9.43535e-06
7.47571e-06
6.00824e-06
5.7097e-06
2.08506e-06
3.2499e-08
9.17759e-09
1.91354e-06
4.43775e-06
8.04881e-06
1.24729e-05
1.66303e-05
1.97425e-05
2.1841e-05
2.31808e-05
2.39464e-05
2.42446e-05
2.41574e-05
2.37646e-05
2.3138e-05
2.23352e-05
2.14069e-05
2.03995e-05
1.93506e-05
1.82885e-05
1.72368e-05
1.62185e-05
1.52607e-05
1.43901e-05
1.36277e-05
1.29818e-05
1.2429e-05
1.18885e-05
1.12053e-05
1.01887e-05
8.78789e-06
7.3684e-06
6.76063e-06
7.24453e-06
1.88076e-06
4.24436e-08
1.31023e-08
1.89346e-06
4.55838e-06
8.78476e-06
1.43903e-05
1.96434e-05
2.32937e-05
2.54332e-05
2.61196e-05
2.65321e-05
2.61341e-05
2.50889e-05
2.37213e-05
2.22027e-05
2.06598e-05
1.91761e-05
1.7793e-05
1.65203e-05
1.53497e-05
1.42701e-05
1.32798e-05
1.23924e-05
1.16306e-05
1.1015e-05
1.05543e-05
1.02244e-05
9.93685e-06
9.52515e-06
8.81932e-06
7.85339e-06
7.07132e-06
7.30361e-06
7.54637e-06
1.74174e-06
4.90544e-08
1.6928e-08
1.9228e-06
4.74475e-06
9.51858e-06
1.62026e-05
2.24256e-05
2.6398e-05
2.75756e-05
2.82144e-05
2.81725e-05
2.67443e-05
2.48257e-05
2.27324e-05
2.06848e-05
1.88171e-05
1.71834e-05
1.57819e-05
1.45804e-05
1.35364e-05
1.26113e-05
1.17841e-05
1.10526e-05
1.04178e-05
9.88022e-06
9.44245e-06
9.08801e-06
8.75033e-06
8.31185e-06
7.68872e-06
6.99825e-06
6.69284e-06
7.58304e-06
7.22421e-06
1.65849e-06
5.38339e-08
2.06006e-08
1.94738e-06
4.86295e-06
9.9747e-06
1.73286e-05
2.40568e-05
2.80728e-05
2.93596e-05
2.971e-05
2.83981e-05
2.62615e-05
2.37546e-05
2.12386e-05
1.89478e-05
1.69821e-05
1.53466e-05
1.39988e-05
1.28817e-05
1.19428e-05
1.11451e-05
1.04744e-05
9.92511e-06
9.47089e-06
9.07714e-06
8.71608e-06
8.35877e-06
7.95865e-06
7.46151e-06
6.87415e-06
6.36959e-06
6.38391e-06
7.69782e-06
6.71571e-06
1.60229e-06
5.81207e-08
2.37614e-08
1.97458e-06
4.94463e-06
1.02547e-05
1.80828e-05
2.52507e-05
2.93236e-05
3.07528e-05
3.02496e-05
2.83944e-05
2.57676e-05
2.29011e-05
2.01864e-05
1.78265e-05
1.58696e-05
1.42809e-05
1.29982e-05
1.19569e-05
1.11024e-05
1.04005e-05
9.84178e-06
9.41218e-06
9.06165e-06
8.73146e-06
8.37308e-06
7.95159e-06
7.4444e-06
6.85615e-06
6.26129e-06
5.85919e-06
6.06208e-06
7.62716e-06
6.34156e-06
1.5721e-06
6.27441e-08
2.67714e-08
1.99131e-06
4.98007e-06
1.03874e-05
1.84716e-05
2.58347e-05
2.9845e-05
3.10379e-05
3.0208e-05
2.80111e-05
2.51028e-05
2.20599e-05
1.92678e-05
1.68927e-05
1.49483e-05
1.33803e-05
1.21205e-05
1.11081e-05
1.02972e-05
9.66728e-06
9.22238e-06
8.93825e-06
8.73913e-06
8.53237e-06
8.23227e-06
7.785e-06
7.18979e-06
6.51102e-06
5.88462e-06
5.53082e-06
5.84473e-06
7.55784e-06
6.02469e-06
1.55213e-06
6.79017e-08
2.96924e-08
2.00872e-06
5.00854e-06
1.04765e-05
1.87476e-05
2.62899e-05
3.02851e-05
3.13082e-05
3.02319e-05
2.77911e-05
2.47043e-05
2.15698e-05
1.87529e-05
1.6386e-05
1.44573e-05
1.29007e-05
1.16449e-05
1.06314e-05
9.82107e-06
9.20359e-06
8.79643e-06
8.57619e-06
8.45935e-06
8.33543e-06
8.08932e-06
7.64194e-06
6.99715e-06
6.25921e-06
5.60863e-06
5.28188e-06
5.66614e-06
7.48189e-06
5.79223e-06
1.54199e-06
7.34008e-08
3.25904e-08
2.0204e-06
5.02298e-06
1.05318e-05
1.89263e-05
2.65449e-05
3.04624e-05
3.13162e-05
3.00407e-05
2.74269e-05
2.42323e-05
2.10585e-05
1.82462e-05
1.58994e-05
1.39894e-05
1.24435e-05
1.11906e-05
1.01761e-05
9.36763e-06
8.76538e-06
8.39756e-06
8.2385e-06
8.19967e-06
8.15708e-06
7.97195e-06
7.54345e-06
6.87614e-06
6.10317e-06
5.43897e-06
5.13441e-06
5.57773e-06
7.48052e-06
5.58931e-06
1.53626e-06
7.90224e-08
3.57028e-08
2.03609e-06
5.05127e-06
1.06186e-05
1.91425e-05
2.68204e-05
3.06575e-05
3.13598e-05
2.99199e-05
2.7179e-05
2.39205e-05
2.07378e-05
1.79442e-05
1.56198e-05
1.3723e-05
1.21777e-05
1.09139e-05
9.88073e-06
9.05092e-06
8.43307e-06
8.0653e-06
7.92317e-06
7.91926e-06
7.92533e-06
7.78886e-06
7.39229e-06
6.73454e-06
5.96112e-06
5.30581e-06
5.03094e-06
5.53271e-06
7.52046e-06
5.42752e-06
1.53545e-06
8.45993e-08
3.87703e-08
2.04853e-06
5.0746e-06
1.06958e-05
1.93259e-05
2.70218e-05
3.07529e-05
3.12993e-05
2.97064e-05
2.68596e-05
2.35606e-05
2.03882e-05
1.76266e-05
1.53334e-05
1.34567e-05
1.19188e-05
1.06515e-05
9.60742e-06
8.76394e-06
8.13677e-06
7.77281e-06
7.6463e-06
7.668e-06
7.70817e-06
7.60792e-06
7.24103e-06
6.60404e-06
5.84904e-06
5.21874e-06
4.9831e-06
5.55104e-06
7.62232e-06
5.28451e-06
1.53748e-06
9.00213e-08
4.21232e-08
2.06549e-06
5.11343e-06
1.08135e-05
1.95703e-05
2.72635e-05
3.08682e-05
3.12612e-05
2.95385e-05
2.66193e-05
2.33096e-05
2.01648e-05
1.744e-05
1.51746e-05
1.33104e-05
1.17697e-05
1.04878e-05
9.42119e-06
8.55148e-06
7.89941e-06
7.51911e-06
7.3868e-06
7.41275e-06
7.46708e-06
7.39085e-06
7.05466e-06
6.45212e-06
5.73461e-06
5.14518e-06
4.95831e-06
5.59857e-06
7.75208e-06
5.17032e-06
1.54283e-06
9.52807e-08
4.53783e-08
2.08011e-06
5.14864e-06
1.09218e-05
1.97869e-05
2.7459e-05
3.09342e-05
3.11784e-05
2.93346e-05
2.63543e-05
2.30451e-05
1.99367e-05
1.72557e-05
1.5024e-05
1.31776e-05
1.16392e-05
1.03473e-05
9.26211e-06
8.36946e-06
7.6952e-06
7.29982e-06
7.16026e-06
7.186e-06
7.24696e-06
7.18511e-06
6.87391e-06
6.30784e-06
5.6357e-06
5.09627e-06
4.96633e-06
5.68733e-06
7.91657e-06
5.07239e-06
1.55029e-06
1.0035e-07
4.8894e-08
2.0983e-06
5.19516e-06
1.10602e-05
2.00496e-05
2.76841e-05
3.10156e-05
3.11177e-05
2.91758e-05
2.6162e-05
2.28734e-05
1.98101e-05
1.71726e-05
1.49696e-05
1.31337e-05
1.15896e-05
1.02791e-05
9.16632e-06
8.24118e-06
7.53295e-06
7.10758e-06
6.9464e-06
6.9589e-06
7.0163e-06
6.96334e-06
6.67701e-06
6.1531e-06
5.53479e-06
5.05312e-06
4.98579e-06
5.79182e-06
8.09051e-06
4.99668e-06
1.56e-06
1.05273e-07
5.2292e-08
2.11471e-06
5.23901e-06
1.1191e-05
2.02894e-05
2.78771e-05
3.10707e-05
3.10394e-05
2.9008e-05
2.59677e-05
2.27046e-05
1.96902e-05
1.71002e-05
1.49306e-05
1.31104e-05
1.15651e-05
1.02391e-05
9.10054e-06
8.14379e-06
7.40151e-06
6.94467e-06
6.75922e-06
6.75451e-06
6.80324e-06
6.7543e-06
6.48989e-06
6.00768e-06
5.44557e-06
5.02567e-06
5.0258e-06
5.92247e-06
8.2793e-06
4.93443e-06
1.57119e-06
1.10034e-07
5.59106e-08
2.13371e-06
5.29062e-06
1.13425e-05
2.0561e-05
2.80918e-05
3.11433e-05
3.09899e-05
2.88895e-05
2.58422e-05
2.26155e-05
1.96521e-05
1.71067e-05
1.49659e-05
1.31563e-05
1.16045e-05
1.02571e-05
9.08619e-06
8.09002e-06
7.30409e-06
6.80297e-06
6.58151e-06
6.54995e-06
6.58344e-06
6.53599e-06
6.29508e-06
5.85827e-06
5.35558e-06
4.99999e-06
5.07045e-06
6.06054e-06
8.46729e-06
4.88849e-06
1.58381e-06
1.14668e-07
5.94187e-08
2.15139e-06
5.34067e-06
1.14901e-05
2.0818e-05
2.82871e-05
3.12038e-05
3.09366e-05
2.87729e-05
2.5721e-05
2.25317e-05
1.9621e-05
1.71238e-05
1.50169e-05
1.3224e-05
1.1671e-05
1.03063e-05
9.10501e-06
8.0691e-06
7.23779e-06
6.68878e-06
6.42686e-06
6.36371e-06
6.37739e-06
6.32782e-06
6.10845e-06
5.71681e-06
5.27448e-06
4.98457e-06
5.12732e-06
6.21366e-06
8.65752e-06
4.85198e-06
1.59723e-06
1.19154e-07
6.31134e-08
2.17092e-06
5.39636e-06
1.16534e-05
2.10999e-05
2.85025e-05
3.12859e-05
3.09164e-05
2.87047e-05
2.56594e-05
2.2511e-05
1.96513e-05
1.71988e-05
1.51228e-05
1.33441e-05
1.17877e-05
1.04033e-05
9.16792e-06
8.08679e-06
7.20228e-06
6.59482e-06
6.2827e-06
6.1801e-06
6.16879e-06
6.11503e-06
5.91769e-06
5.5728e-06
5.19231e-06
4.96955e-06
5.18662e-06
6.37127e-06
8.84432e-06
4.82762e-06
1.61161e-06
1.23511e-07
6.67127e-08
2.18935e-06
5.45109e-06
1.18158e-05
2.13756e-05
2.87099e-05
3.13668e-05
3.09007e-05
2.86426e-05
2.56026e-05
2.24938e-05
1.96859e-05
1.72818e-05
1.52426e-05
1.3485e-05
1.19322e-05
1.05331e-05
9.2661e-06
8.13939e-06
7.19892e-06
6.52852e-06
6.16093e-06
6.0138e-06
5.97314e-06
5.912e-06
5.73466e-06
5.43514e-06
5.11544e-06
4.95935e-06
5.25141e-06
6.53563e-06
9.02535e-06
4.80827e-06
1.62604e-06
1.2771e-07
7.04686e-08
2.20892e-06
5.50982e-06
1.19913e-05
2.16745e-05
2.89404e-05
3.14745e-05
3.09196e-05
2.86227e-05
2.55914e-05
2.25215e-05
1.97625e-05
1.74042e-05
1.54003e-05
1.36638e-05
1.21152e-05
1.07021e-05
9.403e-06
8.22798e-06
7.22618e-06
6.48464e-06
6.0535e-06
5.85527e-06
5.78074e-06
5.70989e-06
5.55175e-06
5.29735e-06
5.03824e-06
4.94907e-06
5.31747e-06
6.70329e-06
9.20302e-06
4.79807e-06
1.64115e-06
1.3176e-07
7.41442e-08
2.22734e-06
5.56722e-06
1.21666e-05
2.19738e-05
2.91772e-05
3.15948e-05
3.09492e-05
2.86087e-05
2.55819e-05
2.25493e-05
1.98409e-05
1.75326e-05
1.55703e-05
1.38619e-05
1.23247e-05
1.09035e-05
9.57564e-06
8.35264e-06
7.287e-06
6.46976e-06
5.9694e-06
5.71474e-06
5.60199e-06
5.51814e-06
5.37673e-06
5.16533e-06
4.965e-06
4.94162e-06
5.38634e-06
6.874e-06
9.3719e-06
4.79018e-06
1.65586e-06
1.3563e-07
7.79451e-08
2.24633e-06
5.62678e-06
1.23498e-05
2.22863e-05
2.94163e-05
3.17207e-05
3.10004e-05
2.86217e-05
2.5601e-05
2.26051e-05
1.99455e-05
1.76857e-05
1.57647e-05
1.40863e-05
1.25636e-05
1.11377e-05
9.78353e-06
8.51277e-06
7.38067e-06
6.48245e-06
5.90566e-06
5.58819e-06
5.4323e-06
5.33206e-06
5.20503e-06
5.03475e-06
4.89171e-06
4.9334e-06
5.45488e-06
7.04527e-06
9.53427e-06
4.78725e-06
1.67067e-06
1.39322e-07
8.16744e-08
2.26436e-06
5.68473e-06
1.25282e-05
2.25822e-05
2.96351e-05
3.18304e-05
3.10385e-05
2.86314e-05
2.56188e-05
2.26597e-05
2.00508e-05
1.78433e-05
1.59692e-05
1.43273e-05
1.28262e-05
1.14022e-05
1.00266e-05
8.7102e-06
7.51095e-06
6.52904e-06
5.86967e-06
5.48363e-06
5.2796e-06
5.15879e-06
5.04254e-06
4.91029e-06
4.82213e-06
4.9276e-06
5.52624e-06
7.22187e-06
9.69741e-06
4.78789e-06
1.68515e-06
1.42816e-07
8.54979e-08
2.28283e-06
5.74509e-06
1.27149e-05
2.2883e-05
2.98544e-05
3.19423e-05
3.10835e-05
2.86562e-05
2.56528e-05
2.27295e-05
2.01699e-05
1.8014e-05
1.61876e-05
1.45851e-05
1.31102e-05
1.16937e-05
1.03019e-05
8.94326e-06
7.67749e-06
6.61001e-06
5.86153e-06
5.40055e-06
5.14282e-06
4.99671e-06
4.8871e-06
4.78919e-06
4.75298e-06
4.92049e-06
5.59636e-06
7.39929e-06
9.85573e-06
4.79298e-06
1.69958e-06
1.46115e-07
8.92502e-08
2.30013e-06
5.8035e-06
1.28989e-05
2.31668e-05
3.00546e-05
3.20382e-05
3.11148e-05
2.86694e-05
2.56802e-05
2.2796e-05
2.02881e-05
1.81869e-05
1.64127e-05
1.48553e-05
1.34134e-05
1.20113e-05
1.06096e-05
9.2129e-06
7.88219e-06
6.72852e-06
5.88592e-06
5.34463e-06
5.02792e-06
4.85136e-06
4.7434e-06
4.67536e-06
4.6878e-06
4.91604e-06
5.67122e-06
7.58755e-06
1.00154e-05
4.80528e-06
1.71463e-06
1.49224e-07
9.30569e-08
2.31733e-06
5.86172e-06
1.30836e-05
2.34509e-05
3.02522e-05
3.21326e-05
3.11473e-05
2.8687e-05
2.57192e-05
2.28713e-05
2.04115e-05
1.83641e-05
1.66435e-05
1.51347e-05
1.3731e-05
1.23503e-05
1.09457e-05
9.51656e-06
8.12375e-06
6.8837e-06
5.94239e-06
5.31557e-06
4.93479e-06
4.72252e-06
4.61083e-06
4.56764e-06
4.62488e-06
4.91197e-06
5.74729e-06
7.78007e-06
1.01746e-05
4.82309e-06
1.7302e-06
1.52146e-07
9.67991e-08
2.33379e-06
5.91838e-06
1.32636e-05
2.37217e-05
3.04339e-05
3.2213e-05
3.11664e-05
2.86909e-05
2.57458e-05
2.29367e-05
2.05288e-05
1.85395e-05
1.68769e-05
1.54216e-05
1.40622e-05
1.27098e-05
1.13094e-05
9.8537e-06
8.40214e-06
7.0761e-06
6.03309e-06
5.31665e-06
4.86719e-06
4.61402e-06
4.49289e-06
4.46905e-06
4.56682e-06
4.91056e-06
5.82627e-06
7.977e-06
1.03327e-05
4.84497e-06
1.7461e-06
1.54884e-07
1.00568e-07
2.35017e-06
5.97516e-06
1.3445e-05
2.39915e-05
3.06113e-05
3.22891e-05
3.11822e-05
2.86925e-05
2.57705e-05
2.30006e-05
2.06447e-05
1.87139e-05
1.71106e-05
1.57119e-05
1.44016e-05
1.30842e-05
1.16958e-05
1.02209e-05
8.71543e-06
7.30477e-06
6.15789e-06
5.34816e-06
4.8256e-06
4.52626e-06
4.38978e-06
4.37941e-06
4.51291e-06
4.91025e-06
5.90542e-06
8.17473e-06
1.04887e-05
4.87042e-06
1.76223e-06
1.57448e-07
1.04277e-07
2.36611e-06
6.03093e-06
1.36225e-05
2.42496e-05
3.07743e-05
3.23515e-05
3.11844e-05
2.86804e-05
2.57825e-05
2.30544e-05
2.07534e-05
1.88837e-05
1.73427e-05
1.60042e-05
1.4748e-05
1.34718e-05
1.21029e-05
1.06159e-05
9.06187e-06
7.569e-06
6.31768e-06
5.412e-06
4.81247e-06
4.46193e-06
4.30405e-06
4.30085e-06
4.46464e-06
4.91191e-06
5.98509e-06
8.37217e-06
1.06413e-05
4.89836e-06
1.77841e-06
1.59846e-07
1.07993e-07
2.38214e-06
6.08721e-06
1.38009e-05
2.45046e-05
3.09305e-05
3.24062e-05
3.11784e-05
2.866e-05
2.57867e-05
2.31021e-05
2.08564e-05
1.9048e-05
1.75705e-05
1.62947e-05
1.50967e-05
1.38678e-05
1.25258e-05
1.10349e-05
9.43878e-06
7.8673e-06
6.51199e-06
5.5082e-06
4.82804e-06
4.42145e-06
4.23617e-06
4.23381e-06
4.42247e-06
4.91652e-06
6.06752e-06
8.56852e-06
1.07913e-05
4.92868e-06
1.79457e-06
1.62086e-07
1.11658e-07
2.39806e-06
6.14356e-06
1.39762e-05
2.47488e-05
3.10727e-05
3.24465e-05
3.11572e-05
2.86239e-05
2.57761e-05
2.31406e-05
2.09511e-05
1.92048e-05
1.77926e-05
1.65824e-05
1.54464e-05
1.427e-05
1.29616e-05
1.14741e-05
9.84295e-06
8.19762e-06
6.74043e-06
5.63744e-06
4.87372e-06
4.40657e-06
4.1881e-06
4.18024e-06
4.38815e-06
4.92505e-06
6.15172e-06
8.76417e-06
1.09391e-05
4.9609e-06
1.81064e-06
1.64178e-07
1.15314e-07
2.41415e-06
6.202e-06
1.41505e-05
2.4987e-05
3.12052e-05
3.24755e-05
3.11237e-05
2.85748e-05
2.5752e-05
2.3166e-05
2.10338e-05
1.93513e-05
1.80067e-05
1.68648e-05
1.57943e-05
1.46751e-05
1.34066e-05
1.19301e-05
1.02712e-05
8.55771e-06
7.00186e-06
5.79917e-06
4.94936e-06
4.41752e-06
4.16033e-06
4.14078e-06
4.36214e-06
4.93736e-06
6.23657e-06
8.95798e-06
1.10854e-05
4.99497e-06
1.8266e-06
1.66131e-07
1.18905e-07
2.4292e-06
6.25781e-06
1.43206e-05
2.52147e-05
3.13235e-05
3.24899e-05
3.10751e-05
2.85103e-05
2.57128e-05
2.31771e-05
2.11043e-05
1.94877e-05
1.82128e-05
1.71414e-05
1.61391e-05
1.50808e-05
1.38575e-05
1.23987e-05
1.07194e-05
8.94435e-06
7.29463e-06
5.99284e-06
5.0552e-06
4.45509e-06
4.1541e-06
4.11691e-06
4.34587e-06
4.95454e-06
6.32264e-06
9.15024e-06
1.12299e-05
5.03038e-06
1.84238e-06
1.67951e-07
1.2245e-07
2.44405e-06
6.31311e-06
1.44888e-05
2.54355e-05
3.14316e-05
3.2491e-05
3.10108e-05
2.84296e-05
2.56587e-05
2.31747e-05
2.11624e-05
1.96133e-05
1.84097e-05
1.74106e-05
1.64791e-05
1.54852e-05
1.43117e-05
1.28766e-05
1.1184e-05
9.35428e-06
7.61627e-06
6.21671e-06
5.1902e-06
4.51886e-06
4.16951e-06
4.10911e-06
4.34003e-06
4.97714e-06
6.40996e-06
9.34039e-06
1.13733e-05
5.06718e-06
1.85799e-06
1.69645e-07
1.25922e-07
2.458e-06
6.36623e-06
1.46536e-05
2.56486e-05
3.15272e-05
3.24783e-05
3.09324e-05
2.83337e-05
2.55861e-05
2.31529e-05
2.1205e-05
1.97266e-05
1.85962e-05
1.76712e-05
1.68123e-05
1.58854e-05
1.47656e-05
1.33597e-05
1.16605e-05
9.78317e-06
7.96324e-06
6.46845e-06
5.3531e-06
4.60846e-06
4.20692e-06
4.11828e-06
4.34571e-06
5.00623e-06
6.49952e-06
9.52922e-06
1.15155e-05
5.10495e-06
1.87338e-06
1.71219e-07
1.29355e-07
2.47168e-06
6.4192e-06
1.48186e-05
2.58556e-05
3.16124e-05
3.24532e-05
3.084e-05
2.82244e-05
2.55033e-05
2.31223e-05
2.12357e-05
1.98264e-05
1.87712e-05
1.79225e-05
1.7138e-05
1.62803e-05
1.52174e-05
1.38455e-05
1.21456e-05
1.02274e-05
8.33181e-06
6.74507e-06
5.54174e-06
4.72255e-06
4.26584e-06
4.14456e-06
4.36348e-06
5.04249e-06
6.59184e-06
9.71702e-06
1.16573e-05
5.14382e-06
1.88859e-06
1.72682e-07
1.32722e-07
2.48485e-06
6.4709e-06
1.49805e-05
2.60527e-05
3.16839e-05
3.2413e-05
3.07312e-05
2.80975e-05
2.54021e-05
2.30746e-05
2.12536e-05
1.99158e-05
1.89343e-05
1.81629e-05
1.7455e-05
1.66683e-05
1.5665e-05
1.43309e-05
1.26359e-05
1.06831e-05
8.7182e-06
7.04372e-06
5.75412e-06
4.85996e-06
4.34578e-06
4.18818e-06
4.39407e-06
5.08695e-06
6.68805e-06
9.90475e-06
1.1799e-05
5.18365e-06
1.9036e-06
1.74045e-07
1.36023e-07
2.49751e-06
6.52152e-06
1.51401e-05
2.62419e-05
3.17438e-05
3.23592e-05
3.0608e-05
2.79567e-05
2.52882e-05
2.30147e-05
2.126e-05
1.99947e-05
1.90885e-05
1.8392e-05
1.77609e-05
1.70477e-05
1.61066e-05
1.48139e-05
1.31285e-05
1.11471e-05
9.11916e-06
7.36166e-06
5.98808e-06
5.01907e-06
4.44579e-06
4.24879e-06
4.43767e-06
5.14011e-06
6.78867e-06
1.00928e-05
1.19415e-05
5.22467e-06
1.91848e-06
1.7532e-07
1.39254e-07
2.50969e-06
6.57094e-06
1.52966e-05
2.64211e-05
3.17901e-05
3.22903e-05
3.04686e-05
2.77995e-05
2.51583e-05
2.294e-05
2.1253e-05
2.00618e-05
1.92322e-05
1.86128e-05
1.80568e-05
1.74172e-05
1.65402e-05
1.52916e-05
1.36201e-05
1.1616e-05
9.53149e-06
7.69649e-06
6.24184e-06
5.19864e-06
4.56511e-06
4.32618e-06
4.49459e-06
5.2027e-06
6.89469e-06
1.0282e-05
1.20855e-05
5.26698e-06
1.93327e-06
1.7652e-07
1.42413e-07
2.5214e-06
6.61921e-06
1.54503e-05
2.65915e-05
3.18243e-05
3.22072e-05
3.03139e-05
2.76275e-05
2.50147e-05
2.28526e-05
2.12347e-05
2.01181e-05
1.93654e-05
1.88234e-05
1.83437e-05
1.77759e-05
1.69639e-05
1.57622e-05
1.41085e-05
1.20871e-05
9.95248e-06
8.04597e-06
6.51369e-06
5.39739e-06
4.70288e-06
4.41993e-06
4.56477e-06
5.27491e-06
7.00635e-06
1.04726e-05
1.22316e-05
5.31076e-06
1.94803e-06
1.77661e-07
1.45484e-07
2.53252e-06
6.66586e-06
1.56e-05
2.67518e-05
3.1845e-05
3.21088e-05
3.01431e-05
2.74398e-05
2.48566e-05
2.2752e-05
2.12043e-05
2.01631e-05
1.94876e-05
1.90232e-05
1.86199e-05
1.81242e-05
1.73746e-05
1.62207e-05
1.45891e-05
1.25564e-05
1.03788e-05
8.4077e-06
6.80199e-06
5.61425e-06
4.85851e-06
4.52988e-06
4.64856e-06
5.35754e-06
7.12479e-06
1.06659e-05
1.23811e-05
5.3563e-06
1.96283e-06
1.78759e-07
1.4847e-07
2.54309e-06
6.71112e-06
1.57466e-05
2.69031e-05
3.18531e-05
3.19956e-05
2.99565e-05
2.72373e-05
2.46852e-05
2.26395e-05
2.11633e-05
2.01983e-05
1.96001e-05
1.92129e-05
1.88855e-05
1.84618e-05
1.77753e-05
1.66679e-05
1.50598e-05
1.30206e-05
1.08072e-05
8.77893e-06
7.10472e-06
5.84785e-06
5.0311e-06
4.65553e-06
4.74574e-06
5.4506e-06
7.25018e-06
1.0862e-05
1.25346e-05
5.40376e-06
1.97775e-06
1.7983e-07
1.51366e-07
2.55311e-06
6.75491e-06
1.58896e-05
2.70444e-05
3.18475e-05
3.18665e-05
2.97536e-05
2.70197e-05
2.45005e-05
2.25151e-05
2.11116e-05
2.02232e-05
1.97022e-05
1.93916e-05
1.91392e-05
1.87864e-05
1.81621e-05
1.71018e-05
1.55181e-05
1.34766e-05
1.12342e-05
9.15673e-06
7.41969e-06
6.09678e-06
5.21994e-06
4.79677e-06
4.85679e-06
5.55514e-06
7.38403e-06
1.10626e-05
1.26932e-05
5.45339e-06
1.99286e-06
1.80887e-07
1.54177e-07
2.5626e-06
6.79733e-06
1.60296e-05
2.71763e-05
3.18285e-05
3.17216e-05
2.95347e-05
2.67878e-05
2.43038e-05
2.23804e-05
2.10508e-05
2.02395e-05
1.97956e-05
1.95609e-05
1.93822e-05
1.90986e-05
1.85348e-05
1.75203e-05
1.59618e-05
1.39216e-05
1.16569e-05
9.5381e-06
7.74438e-06
6.3592e-06
5.42381e-06
4.95285e-06
4.98136e-06
5.67116e-06
7.52675e-06
1.12684e-05
1.28572e-05
5.50532e-06
2.00821e-06
1.81946e-07
1.56902e-07
2.57156e-06
6.83842e-06
1.61663e-05
2.72982e-05
3.1795e-05
3.156e-05
2.92992e-05
2.65415e-05
2.4095e-05
2.22354e-05
2.0981e-05
2.02472e-05
1.98799e-05
1.97202e-05
1.96138e-05
1.93974e-05
1.88919e-05
1.79214e-05
1.63881e-05
1.43518e-05
1.20717e-05
9.92004e-06
8.07635e-06
6.63336e-06
5.64172e-06
5.12355e-06
5.11988e-06
5.79971e-06
7.67998e-06
1.14812e-05
1.30272e-05
5.55961e-06
2.02386e-06
1.83015e-07
1.59547e-07
2.58002e-06
6.87831e-06
1.63003e-05
2.74104e-05
3.1747e-05
3.13818e-05
2.90478e-05
2.62821e-05
2.38759e-05
2.2082e-05
2.0904e-05
2.0248e-05
1.99569e-05
1.98711e-05
1.98351e-05
1.96836e-05
1.92335e-05
1.83046e-05
1.67954e-05
1.4765e-05
1.24744e-05
1.0298e-05
8.4119e-06
6.91665e-06
5.87202e-06
5.30796e-06
5.27208e-06
5.94123e-06
7.84469e-06
1.17024e-05
1.32033e-05
5.61632e-06
2.03987e-06
1.84102e-07
1.62111e-07
2.58795e-06
6.91695e-06
1.64314e-05
2.75121e-05
3.16836e-05
3.11861e-05
2.878e-05
2.60095e-05
2.36468e-05
2.19205e-05
2.082e-05
2.0242e-05
2.00265e-05
2.00133e-05
2.00459e-05
1.99566e-05
1.95587e-05
1.86683e-05
1.71819e-05
1.51592e-05
1.28639e-05
1.06699e-05
8.74827e-06
7.20649e-06
6.11286e-06
5.50519e-06
5.43818e-06
6.09722e-06
8.02283e-06
1.19341e-05
1.33857e-05
5.67545e-06
2.05627e-06
1.85213e-07
1.64603e-07
2.59541e-06
6.95456e-06
1.656e-05
2.76034e-05
3.16049e-05
3.09733e-05
2.84968e-05
2.57253e-05
2.34094e-05
2.1753e-05
2.07311e-05
2.02313e-05
2.00907e-05
2.01486e-05
2.02474e-05
2.02171e-05
1.98677e-05
1.90123e-05
1.75467e-05
1.5533e-05
1.32383e-05
1.10328e-05
9.08248e-06
7.50025e-06
6.36225e-06
5.71403e-06
5.61774e-06
6.2678e-06
8.21572e-06
1.21781e-05
1.35742e-05
5.7369e-06
2.07309e-06
1.86351e-07
1.67019e-07
2.60234e-06
6.99094e-06
1.66856e-05
2.76836e-05
3.15098e-05
3.07425e-05
2.81978e-05
2.54294e-05
2.3164e-05
2.15796e-05
2.06377e-05
2.02162e-05
2.01498e-05
2.02772e-05
2.044e-05
2.04655e-05
2.01606e-05
1.93362e-05
1.78891e-05
1.58858e-05
1.35967e-05
1.13851e-05
9.41208e-06
7.79536e-06
6.61804e-06
5.93305e-06
5.81017e-06
6.45327e-06
8.425e-06
1.24364e-05
1.37688e-05
5.80067e-06
2.09037e-06
1.87516e-07
1.69368e-07
2.6088e-06
7.02629e-06
1.68086e-05
2.77528e-05
3.13985e-05
3.04942e-05
2.7884e-05
2.51234e-05
2.29123e-05
2.14024e-05
2.05416e-05
2.01986e-05
2.02056e-05
2.0401e-05
2.0625e-05
2.07028e-05
2.04381e-05
1.96406e-05
1.82094e-05
1.62171e-05
1.39385e-05
1.17253e-05
9.73506e-06
8.0897e-06
6.87842e-06
6.1609e-06
6.01458e-06
6.6533e-06
8.65117e-06
1.27098e-05
1.39688e-05
5.86668e-06
2.10814e-06
1.8871e-07
1.71641e-07
2.6147e-06
7.0603e-06
1.69282e-05
2.78099e-05
3.127e-05
3.02274e-05
2.75547e-05
2.48067e-05
2.26541e-05
2.12212e-05
2.04432e-05
2.01791e-05
2.02589e-05
2.05206e-05
2.08033e-05
2.09296e-05
2.07008e-05
1.99256e-05
1.85075e-05
1.65268e-05
1.42627e-05
1.20519e-05
1.00498e-05
8.38157e-06
7.14162e-06
6.39605e-06
6.22999e-06
6.86785e-06
8.89522e-06
1.29996e-05
1.41737e-05
5.93483e-06
2.12643e-06
1.89934e-07
1.73847e-07
2.6201e-06
7.0932e-06
1.70449e-05
2.78554e-05
3.11245e-05
2.99425e-05
2.72108e-05
2.44807e-05
2.23909e-05
2.10377e-05
2.0344e-05
2.01593e-05
2.03114e-05
2.06379e-05
2.09767e-05
2.11478e-05
2.09501e-05
2.01926e-05
1.87844e-05
1.68149e-05
1.45683e-05
1.23638e-05
1.03547e-05
8.66898e-06
7.40557e-06
6.63693e-06
6.45542e-06
7.09656e-06
9.15726e-06
1.3306e-05
1.43826e-05
6.00495e-06
2.14523e-06
1.9119e-07
1.7598e-07
2.62491e-06
7.12468e-06
1.7158e-05
2.78882e-05
3.09608e-05
2.96383e-05
2.68513e-05
2.41447e-05
2.21221e-05
2.08517e-05
2.02441e-05
2.01396e-05
2.03638e-05
2.07539e-05
2.11462e-05
2.13586e-05
2.11874e-05
2.04431e-05
1.90413e-05
1.70824e-05
1.48556e-05
1.26605e-05
1.06488e-05
8.95095e-06
7.66965e-06
6.88246e-06
6.6899e-06
7.33891e-06
9.43738e-06
1.36293e-05
1.45952e-05
6.07698e-06
2.16459e-06
1.92479e-07
1.78048e-07
2.62922e-06
7.155e-06
1.72681e-05
2.79089e-05
3.07793e-05
2.93152e-05
2.6477e-05
2.37998e-05
2.1849e-05
2.06643e-05
2.01449e-05
2.01216e-05
2.04176e-05
2.087e-05
2.13135e-05
2.15633e-05
2.14142e-05
2.06783e-05
1.92797e-05
1.73304e-05
1.5125e-05
1.29419e-05
1.09313e-05
9.22604e-06
7.93175e-06
7.13096e-06
6.93236e-06
7.59442e-06
9.73546e-06
1.3969e-05
1.48105e-05
6.15058e-06
2.18443e-06
1.938e-07
1.80045e-07
2.63296e-06
7.18391e-06
1.73745e-05
2.79164e-05
3.05785e-05
2.89718e-05
2.60869e-05
2.3445e-05
2.15708e-05
2.04752e-05
2.00461e-05
2.01051e-05
2.04733e-05
2.0987e-05
2.14796e-05
2.17636e-05
2.16322e-05
2.09004e-05
1.95019e-05
1.75613e-05
1.53783e-05
1.32091e-05
1.1203e-05
9.49424e-06
8.19158e-06
7.38205e-06
7.1818e-06
7.86207e-06
1.00507e-05
1.43243e-05
1.50282e-05
6.22572e-06
2.20479e-06
1.95158e-07
1.8198e-07
2.63621e-06
7.21171e-06
1.7478e-05
2.79113e-05
3.0359e-05
2.86088e-05
2.56821e-05
2.30817e-05
2.12889e-05
2.02857e-05
1.99489e-05
2.00913e-05
2.05317e-05
2.1106e-05
2.16455e-05
2.19603e-05
2.18424e-05
2.11105e-05
1.97091e-05
1.77765e-05
1.56165e-05
1.34629e-05
1.14636e-05
9.7551e-06
8.44828e-06
7.63448e-06
7.43747e-06
8.14138e-06
1.03825e-05
1.46939e-05
1.52475e-05
6.30212e-06
2.22561e-06
1.96554e-07
1.83849e-07
2.63891e-06
7.23815e-06
1.75778e-05
2.78924e-05
3.01191e-05
2.82249e-05
2.52615e-05
2.27089e-05
2.10026e-05
2.00955e-05
1.98532e-05
2.00797e-05
2.05927e-05
2.12271e-05
2.1812e-05
2.21548e-05
2.20466e-05
2.13108e-05
1.99041e-05
1.79786e-05
1.58418e-05
1.37046e-05
1.17143e-05
1.00089e-05
8.70155e-06
7.88771e-06
7.69864e-06
8.43125e-06
1.07301e-05
1.5077e-05
1.54674e-05
6.37934e-06
2.2468e-06
1.97985e-07
1.8566e-07
2.64118e-06
7.26355e-06
1.76747e-05
2.78603e-05
2.98597e-05
2.78214e-05
2.4827e-05
2.23281e-05
2.07128e-05
1.99074e-05
1.976e-05
2.00706e-05
2.06562e-05
2.13502e-05
2.19792e-05
2.23472e-05
2.2245e-05
2.15021e-05
2.00882e-05
1.81701e-05
1.6056e-05
1.39357e-05
1.19558e-05
1.0256e-05
8.95136e-06
8.14121e-06
7.9645e-06
8.73101e-06
1.10916e-05
1.5471e-05
1.56873e-05
6.45725e-06
2.26835e-06
1.99457e-07
1.87407e-07
2.64291e-06
7.28762e-06
1.77679e-05
2.78139e-05
2.95795e-05
2.73977e-05
2.43784e-05
2.19392e-05
2.04182e-05
1.97167e-05
1.96658e-05
2.00619e-05
2.07213e-05
2.14755e-05
2.21475e-05
2.25384e-05
2.24391e-05
2.16862e-05
2.02641e-05
1.83539e-05
1.62611e-05
1.41571e-05
1.21887e-05
1.04965e-05
9.19762e-06
8.39492e-06
8.23509e-06
9.0408e-06
1.14673e-05
1.58754e-05
1.59063e-05
6.53547e-06
2.29018e-06
2.00963e-07
1.89097e-07
2.64418e-06
7.3105e-06
1.78576e-05
2.77534e-05
2.92795e-05
2.69556e-05
2.39183e-05
2.15446e-05
2.01211e-05
1.9525e-05
1.95717e-05
2.00541e-05
2.07879e-05
2.16021e-05
2.23161e-05
2.27278e-05
2.26287e-05
2.1864e-05
2.04339e-05
1.85336e-05
1.64597e-05
1.43709e-05
1.2414e-05
1.07309e-05
9.44004e-06
8.64793e-06
8.50903e-06
9.35909e-06
1.18556e-05
1.62875e-05
1.61228e-05
6.61315e-06
2.31209e-06
2.02492e-07
1.90721e-07
2.64489e-06
7.33182e-06
1.79428e-05
2.76779e-05
2.89589e-05
2.64949e-05
2.34469e-05
2.11444e-05
1.98214e-05
1.93321e-05
1.94773e-05
2.00469e-05
2.08557e-05
2.173e-05
2.24852e-05
2.29156e-05
2.28143e-05
2.2036e-05
2.05985e-05
1.87101e-05
1.66527e-05
1.45775e-05
1.26322e-05
1.09597e-05
9.67927e-06
8.90081e-06
8.7867e-06
9.68589e-06
1.22563e-05
1.67071e-05
1.63367e-05
6.69022e-06
2.33407e-06
2.04049e-07
1.92285e-07
2.6451e-06
7.35171e-06
1.80237e-05
2.75877e-05
2.86188e-05
2.6018e-05
2.29668e-05
2.0741e-05
1.95206e-05
1.91388e-05
1.93826e-05
2.00397e-05
2.09237e-05
2.18582e-05
2.26537e-05
2.31012e-05
2.29954e-05
2.22024e-05
2.07578e-05
1.88826e-05
1.68398e-05
1.47768e-05
1.28431e-05
1.11822e-05
9.91433e-06
9.15259e-06
9.06733e-06
1.00206e-05
1.26683e-05
1.71328e-05
1.6546e-05
6.76616e-06
2.35601e-06
2.05634e-07
1.9378e-07
2.64468e-06
7.3697e-06
1.80992e-05
2.74818e-05
2.82585e-05
2.5525e-05
2.24787e-05
2.03349e-05
1.92194e-05
1.89455e-05
1.92882e-05
2.00328e-05
2.09922e-05
2.19865e-05
2.28215e-05
2.32845e-05
2.31723e-05
2.23632e-05
2.09117e-05
1.90504e-05
1.70209e-05
1.49692e-05
1.30471e-05
1.13988e-05
1.01453e-05
9.4029e-06
9.3501e-06
1.03621e-05
1.30901e-05
1.75619e-05
1.67501e-05
6.84054e-06
2.37779e-06
2.07241e-07
1.95214e-07
2.64372e-06
7.38602e-06
1.81697e-05
2.73609e-05
2.78793e-05
2.50178e-05
2.19848e-05
1.9928e-05
1.89188e-05
1.87531e-05
1.91942e-05
2.00261e-05
2.10607e-05
2.21145e-05
2.29882e-05
2.34652e-05
2.33452e-05
2.25192e-05
2.1061e-05
1.92136e-05
1.71964e-05
1.51552e-05
1.32448e-05
1.16099e-05
1.03727e-05
9.65257e-06
9.63593e-06
1.07108e-05
1.35208e-05
1.79929e-05
1.69488e-05
6.91327e-06
2.39935e-06
2.08865e-07
1.9658e-07
2.64211e-06
7.40022e-06
1.82343e-05
2.72238e-05
2.74803e-05
2.44967e-05
2.14858e-05
1.95209e-05
1.86196e-05
1.85621e-05
1.91013e-05
2.00201e-05
2.11295e-05
2.22424e-05
2.31539e-05
2.36437e-05
2.35148e-05
2.26716e-05
2.12072e-05
1.93734e-05
1.73673e-05
1.5336e-05
1.34369e-05
1.18161e-05
1.05962e-05
9.89988e-06
9.92219e-06
1.10645e-05
1.39586e-05
1.84236e-05
1.71412e-05
6.98406e-06
2.42063e-06
2.10506e-07
1.97891e-07
2.63995e-06
7.41262e-06
1.82937e-05
2.70714e-05
2.70626e-05
2.39634e-05
2.09833e-05
1.9115e-05
1.8323e-05
1.83734e-05
1.90101e-05
2.00151e-05
2.11987e-05
2.237e-05
2.33185e-05
2.38202e-05
2.36817e-05
2.28217e-05
2.13524e-05
1.95308e-05
1.75341e-05
1.55116e-05
1.36238e-05
1.20175e-05
1.08164e-05
1.01466e-05
1.02117e-05
1.14236e-05
1.44023e-05
1.88526e-05
1.73274e-05
7.05313e-06
2.44185e-06
2.12167e-07
1.99143e-07
2.63715e-06
7.42295e-06
1.83471e-05
2.69024e-05
2.66251e-05
2.34176e-05
2.04775e-05
1.87107e-05
1.80299e-05
1.8188e-05
1.89213e-05
2.00118e-05
2.12691e-05
2.24981e-05
2.34826e-05
2.39954e-05
2.38475e-05
2.29722e-05
2.14999e-05
1.96885e-05
1.7699e-05
1.56839e-05
1.38068e-05
1.22154e-05
1.10343e-05
1.03937e-05
1.05056e-05
1.1788e-05
1.48506e-05
1.92782e-05
1.75069e-05
7.12023e-06
2.46303e-06
2.1384e-07
2.00352e-07
2.63386e-06
7.43169e-06
1.83957e-05
2.67175e-05
2.61686e-05
2.2861e-05
1.99697e-05
1.8309e-05
1.7742e-05
1.80069e-05
1.88354e-05
2.00105e-05
2.13409e-05
2.26269e-05
2.36465e-05
2.41697e-05
2.40127e-05
2.31246e-05
2.16524e-05
1.98481e-05
1.78627e-05
1.58533e-05
1.39863e-05
1.24101e-05
1.12503e-05
1.06412e-05
1.08027e-05
1.21578e-05
1.53033e-05
1.96999e-05
1.76801e-05
7.18534e-06
2.48396e-06
2.15518e-07
2.01519e-07
2.63007e-06
7.43879e-06
1.84392e-05