/*--------------------------------*- C++ -*----------------------------------*\
| =========                 |                                                 |
| \\      /  F ield         | OpenFOAM: The Open Source CFD Toolbox           |
|  \\    /   O peration     | Version:  v2006                                 |
|   \\  /    A nd           | Website:  www.openfoam.com                      |
|    \\/     M anipulation  |                                                 |
\*---------------------------------------------------------------------------*/
FoamFile
{
    version     2.0;
    format      ascii;
    class       volScalarField;
    location    "75";
    object      T;
}
// * * * * * * * * * * * * * * * * * * * * * * * * * * * * * * * * * * * * * //

dimensions      [0 0 0 1 0 0 0];


internalField   nonuniform List<scalar> 
78750
(
300.03
300.09
300.148
300.202
300.253
300.302
300.347
300.389
300.429
300.466
300.5
300.532
300.561
300.589
300.614
300.638
300.66
300.68
300.699
300.716
300.732
300.747
300.761
300.773
300.784
300.793
300.8
300.805
300.81
300.822
300.868
301.003
301.325
301.929
302.824
300.054
300.158
300.251
300.335
300.409
300.477
300.538
300.592
300.642
300.686
300.726
300.761
300.793
300.82
300.845
300.866
300.884
300.9
300.914
300.925
300.934
300.941
300.946
300.949
300.951
300.951
300.949
300.947
300.947
300.961
301.015
301.167
301.5
302.089
302.964
300.072
300.21
300.336
300.448
300.546
300.631
300.705
300.77
300.827
300.877
300.922
300.961
300.995
301.024
301.049
301.07
301.087
301.1
301.11
301.115
301.118
301.117
301.113
301.107
301.097
301.086
301.073
301.061
301.057
301.074
301.144
301.322
301.671
302.258
303.138
300.086
300.251
300.401
300.533
300.644
300.736
300.814
300.881
300.94
300.992
301.038
301.078
301.114
301.144
301.171
301.193
301.211
301.225
301.235
301.241
301.244
301.242
301.236
301.226
301.211
301.194
301.175
301.159
301.155
301.181
301.273
301.479
301.841
302.429
303.318
300.097
300.283
300.451
300.597
300.716
300.812
300.891
300.96
301.02
301.073
301.119
301.161
301.197
301.228
301.254
301.276
301.293
301.305
301.313
301.317
301.317
301.314
301.306
301.295
301.281
301.263
301.246
301.234
301.239
301.282
301.4
301.631
302.009
302.607
303.505
300.106
300.309
300.493
300.649
300.775
300.874
300.956
301.026
301.088
301.143
301.192
301.236
301.274
301.307
301.334
301.355
301.37
301.38
301.384
301.383
301.378
301.37
301.358
301.344
301.327
301.31
301.296
301.291
301.31
301.373
301.516
301.77
302.164
302.776
303.681
300.113
300.33
300.525
300.689
300.819
300.921
301.005
301.077
301.141
301.198
301.249
301.295
301.335
301.369
301.397
301.417
301.431
301.438
301.439
301.435
301.426
301.413
301.398
301.382
301.364
301.349
301.339
301.344
301.377
301.461
301.627
301.902
302.313
302.942
303.852
300.119
300.347
300.551
300.723
300.858
300.964
301.05
301.124
301.191
301.25
301.304
301.353
301.395
301.431
301.459
301.479
301.492
301.496
301.494
301.485
301.472
301.455
301.436
301.416
301.398
301.384
301.379
301.391
301.437
301.538
301.724
302.017
302.444
303.088
304.003
300.124
300.361
300.573
300.752
300.891
301
301.089
301.166
301.234
301.296
301.353
301.404
301.448
301.486
301.515
301.536
301.548
301.552
301.547
301.536
301.519
301.498
301.476
301.453
301.433
301.42
301.418
301.438
301.494
301.611
301.815
302.125
302.567
303.224
304.144
300.129
300.374
300.594
300.779
300.923
301.035
301.127
301.206
301.277
301.342
301.401
301.454
301.5
301.539
301.569
301.591
301.602
301.605
301.599
301.586
301.566
301.543
301.517
301.492
301.47
301.457
301.457
301.482
301.548
301.678
301.897
302.221
302.677
303.346
304.271
300.133
300.387
300.614
300.804
300.953
301.067
301.162
301.243
301.317
301.384
301.445
301.5
301.549
301.589
301.621
301.643
301.654
301.657
301.65
301.635
301.613
301.587
301.559
301.532
301.509
301.495
301.498
301.528
301.602
301.743
301.976
302.313
302.782
303.462
304.391
300.137
300.399
300.633
300.829
300.982
301.1
301.196
301.28
301.356
301.425
301.489
301.546
301.596
301.638
301.67
301.693
301.704
301.706
301.699
301.682
301.659
301.632
301.602
301.573
301.549
301.535
301.54
301.574
301.655
301.806
302.052
302.4
302.88
303.57
304.502
300.141
300.411
300.652
300.853
301.009
301.13
301.229
301.315
301.393
301.465
301.531
301.59
301.641
301.685
301.718
301.741
301.753
301.754
301.746
301.729
301.704
301.675
301.643
301.613
301.589
301.576
301.583
301.621
301.709
301.87
302.127
302.485
302.974
303.673
304.609
300.145
300.423
300.67
300.877
301.037
301.16
301.261
301.35
301.43
301.504
301.571
301.632
301.686
301.73
301.764
301.787
301.799
301.8
301.791
301.773
301.748
301.717
301.685
301.654
301.63
301.618
301.626
301.669
301.763
301.933
302.2
302.568
303.065
303.772
304.71
300.149
300.434
300.688
300.899
301.062
301.188
301.291
301.382
301.465
301.54
301.61
301.673
301.728
301.773
301.808
301.832
301.844
301.845
301.836
301.817
301.791
301.759
301.726
301.695
301.67
301.659
301.671
301.718
301.819
301.998
302.274
302.649
303.153
303.867
304.809
300.153
300.445
300.706
300.922
301.088
301.216
301.321
301.414
301.499
301.577
301.648
301.713
301.769
301.815
301.851
301.875
301.888
301.889
301.88
301.86
301.833
301.801
301.767
301.735
301.711
301.702
301.716
301.767
301.875
302.062
302.346
302.728
303.239
303.959
304.903
300.157
300.456
300.723
300.943
301.112
301.242
301.35
301.445
301.531
301.611
301.685
301.751
301.809
301.856
301.893
301.918
301.931
301.932
301.922
301.902
301.875
301.842
301.808
301.776
301.753
301.744
301.761
301.817
301.932
302.127
302.419
302.806
303.323
304.049
304.994
300.161
300.467
300.74
300.964
301.136
301.268
301.378
301.475
301.563
301.645
301.721
301.788
301.847
301.896
301.933
301.959
301.973
301.974
301.964
301.944
301.916
301.883
301.848
301.817
301.794
301.788
301.807
301.868
301.989
302.191
302.49
302.883
303.404
304.135
305.083
300.165
300.478
300.756
300.985
301.159
301.293
301.405
301.504
301.594
301.678
301.755
301.824
301.884
301.934
301.973
301.999
302.013
302.015
302.006
301.986
301.958
301.924
301.889
301.858
301.836
301.831
301.854
301.919
302.046
302.256
302.562
302.959
303.484
304.22
305.17
300.168
300.488
300.772
301.005
301.182
301.318
301.431
301.532
301.624
301.71
301.789
301.859
301.921
301.972
302.011
302.038
302.053
302.056
302.047
302.027
301.999
301.966
301.931
301.9
301.878
301.875
301.901
301.971
302.104
302.32
302.632
303.033
303.563
304.303
305.254
300.172
300.499
300.788
301.024
301.204
301.342
301.457
301.559
301.654
301.741
301.821
301.893
301.956
302.008
302.049
302.077
302.093
302.096
302.087
302.068
302.04
302.007
301.972
301.941
301.921
301.92
301.949
302.023
302.162
302.384
302.702
303.107
303.64
304.384
305.336
300.176
300.509
300.803
301.044
301.225
301.365
301.482
301.586
301.682
301.771
301.853
301.927
301.991
302.044
302.085
302.114
302.131
302.135
302.128
302.109
302.082
302.049
302.014
301.984
301.965
301.965
301.997
302.076
302.22
302.449
302.772
303.18
303.716
304.463
305.417
300.179
300.519
300.818
301.062
301.246
301.388
301.506
301.613
301.71
301.801
301.884
301.959
302.025
302.079
302.121
302.151
302.169
302.174
302.167
302.15
302.123
302.09
302.056
302.027
302.008
302.011
302.046
302.129
302.279
302.513
302.841
303.252
303.791
304.541
305.496
300.182
300.529
300.834
301.081
301.267
301.41
301.531
301.639
301.738
301.83
301.915
301.992
302.058
302.113
302.157
302.188
302.206
302.212
302.207
302.19
302.164
302.132
302.099
302.07
302.053
302.057
302.095
302.182
302.337
302.578
302.909
303.323
303.864
304.617
305.573
300.186
300.538
300.848
301.099
301.287
301.432
301.554
301.664
301.765
301.859
301.945
302.023
302.091
302.147
302.192
302.223
302.243
302.25
302.245
302.23
302.205
302.174
302.141
302.113
302.097
302.104
302.145
302.236
302.396
302.642
302.978
303.394
303.937
304.692
305.648
300.189
300.548
300.863
301.117
301.307
301.454
301.578
301.689
301.792
301.888
301.975
302.054
302.123
302.18
302.226
302.259
302.279
302.287
302.284
302.269
302.246
302.216
302.184
302.157
302.142
302.151
302.195
302.29
302.456
302.706
303.046
303.463
304.008
304.765
305.722
300.192
300.557
300.877
301.135
301.327
301.475
301.601
301.714
301.819
301.916
302.005
302.085
302.155
302.213
302.26
302.293
302.315
302.324
302.322
302.309
302.286
302.257
302.227
302.201
302.187
302.198
302.245
302.345
302.515
302.77
303.113
303.532
304.078
304.837
305.793
300.196
300.566
300.891
301.153
301.347
301.497
301.624
301.739
301.845
301.943
302.034
302.116
302.187
302.246
302.293
302.328
302.35
302.361
302.359
302.348
302.327
302.299
302.27
302.245
302.233
302.246
302.296
302.399
302.574
302.834
303.18
303.6
304.147
304.907
305.863
300.199
300.576
300.905
301.17
301.366
301.518
301.647
301.763
301.871
301.971
302.063
302.146
302.218
302.278
302.326
302.362
302.385
302.397
302.397
302.386
302.367
302.341
302.313
302.289
302.279
302.293
302.346
302.454
302.633
302.897
303.245
303.667
304.215
304.975
305.931
300.202
300.585
300.92
301.187
301.385
301.539
301.669
301.788
301.897
301.999
302.092
302.176
302.249
302.31
302.359
302.395
302.42
302.432
302.434
302.425
302.407
302.382
302.355
302.333
302.325
302.341
302.397
302.508
302.692
302.96
303.31
303.732
304.28
305.041
305.996
300.205
300.594
300.933
301.204
301.404
301.56
301.692
301.812
301.923
302.026
302.121
302.206
302.28
302.342
302.391
302.429
302.454
302.467
302.47
302.462
302.446
302.423
302.398
302.378
302.371
302.39
302.448
302.563
302.75
303.022
303.374
303.796
304.345
305.105
306.06
300.209
300.603
300.947
301.221
301.423
301.58
301.714
301.836
301.949
302.053
302.15
302.236
302.311
302.373
302.424
302.462
302.488
302.502
302.506
302.5
302.485
302.464
302.441
302.422
302.417
302.438
302.499
302.617
302.808
303.083
303.437
303.859
304.407
305.168
306.122
300.212
300.612
300.961
301.238
301.442
301.601
301.737
301.86
301.974
302.081
302.178
302.266
302.341
302.405
302.456
302.495
302.522
302.537
302.542
302.537
302.524
302.505
302.484
302.467
302.463
302.486
302.55
302.671
302.865
303.143
303.498
303.92
304.468
305.229
306.182
300.215
300.621
300.975
301.255
301.461
301.622
301.759
301.884
302
302.108
302.207
302.295
302.372
302.437
302.488
302.528
302.555
302.572
302.578
302.575
302.563
302.546
302.526
302.511
302.509
302.534
302.6
302.724
302.922
303.202
303.559
303.98
304.528
305.288
306.241
300.218
300.63
300.989
301.272
301.48
301.642
301.781
301.908
302.026
302.135
302.236
302.325
302.403
302.468
302.52
302.56
302.589
302.606
302.613
302.611
302.601
302.586
302.568
302.555
302.555
302.582
302.651
302.777
302.978
303.261
303.618
304.039
304.586
305.346
306.298
300.221
300.639
301.002
301.289
301.499
301.663
301.804
301.932
302.052
302.163
302.264
302.355
302.434
302.499
302.552
302.593
302.622
302.64
302.648
302.648
302.64
302.626
302.61
302.599
302.601
302.63
302.701
302.83
303.033
303.318
303.676
304.097
304.643
305.402
306.354
300.225
300.648
301.016
301.305
301.518
301.683
301.826
301.956
302.078
302.19
302.293
302.385
302.464
302.531
302.585
302.626
302.655
302.674
302.683
302.684
302.677
302.665
302.652
302.642
302.647
302.678
302.751
302.883
303.088
303.375
303.734
304.154
304.699
305.458
306.408
300.228
300.657
301.03
301.322
301.536
301.704
301.848
301.98
302.103
302.218
302.322
302.415
302.495
302.562
302.617
302.658
302.688
302.708
302.718
302.72
302.715
302.705
302.693
302.686
302.693
302.726
302.801
302.935
303.143
303.432
303.79
304.209
304.754
305.512
306.462
300.231
300.666
301.044
301.339
301.555
301.724
301.871
302.005
302.129
302.245
302.351
302.445
302.526
302.594
302.649
302.691
302.722
302.742
302.753
302.756
302.752
302.744
302.734
302.729
302.738
302.773
302.851
302.987
303.197
303.488
303.846
304.264
304.808
305.565
306.515
300.234
300.675
301.057
301.356
301.574
301.745
301.893
302.029
302.155
302.273
302.38
302.475
302.557
302.626
302.681
302.723
302.755
302.776
302.787
302.792
302.789
302.783
302.775
302.772
302.783
302.821
302.9
303.039
303.251
303.543
303.902
304.319
304.861
305.618
306.567
300.237
300.684
301.071
301.373
301.593
301.765
301.915
302.053
302.182
302.301
302.409
302.505
302.588
302.657
302.713
302.756
302.788
302.809
302.822
302.827
302.826
302.821
302.815
302.815
302.828
302.868
302.95
303.091
303.305
303.598
303.956
304.372
304.914
305.67
306.618
300.241
300.693
301.085
301.389
301.612
301.786
301.938
302.078
302.208
302.329
302.438
302.536
302.619
302.689
302.745
302.788
302.821
302.843
302.856
302.862
302.863
302.859
302.856
302.857
302.873
302.915
302.999
303.142
303.358
303.652
304.01
304.425
304.966
305.721
306.669
300.244
300.702
301.099
301.406
301.63
301.806
301.96
302.102
302.234
302.357
302.468
302.566
302.65
302.72
302.777
302.821
302.853
302.876
302.89
302.898
302.899
302.898
302.896
302.899
302.917
302.962
303.048
303.193
303.411
303.706
304.064
304.477
305.017
305.771
306.718
300.247
300.711
301.112
301.423
301.649
301.827
301.983
302.127
302.261
302.385
302.497
302.596
302.682
302.752
302.809
302.853
302.886
302.91
302.925
302.933
302.936
302.935
302.935
302.941
302.961
303.008
303.096
303.243
303.463
303.759
304.116
304.529
305.067
305.82
306.767
300.25
300.72
301.126
301.44
301.668
301.848
302.006
302.151
302.287
302.413
302.527
302.627
302.713
302.784
302.841
302.886
302.919
302.943
302.959
302.968
302.972
302.973
302.975
302.983
303.005
303.054
303.144
303.293
303.514
303.811
304.168
304.579
305.116
305.869
306.815
300.253
300.729
301.14
301.457
301.687
301.869
302.029
302.176
302.314
302.442
302.557
302.658
302.744
302.816
302.874
302.918
302.952
302.976
302.993
303.003
303.008
303.011
303.014
303.024
303.048
303.099
303.192
303.343
303.566
303.863
304.22
304.63
305.165
305.917
306.863
300.257
300.739
301.154
301.474
301.706
301.89
302.052
302.202
302.341
302.471
302.587
302.689
302.776
302.848
302.906
302.951
302.985
303.01
303.027
303.038
303.044
303.048
303.053
303.065
303.091
303.145
303.239
303.392
303.616
303.914
304.27
304.679
305.213
305.964
306.91
300.26
300.748
301.168
301.491
301.725
301.911
302.075
302.227
302.369
302.5
302.617
302.721
302.808
302.88
302.938
302.984
303.018
303.043
303.061
303.072
303.08
303.085
303.092
303.106
303.134
303.19
303.287
303.441
303.666
303.965
304.321
304.728
305.261
306.011
306.957
300.263
300.757
301.182
301.508
301.745
301.932
302.099
302.253
302.396
302.529
302.648
302.752
302.84
302.913
302.971
303.016
303.051
303.077
303.095
303.107
303.116
303.122
303.131
303.146
303.177
303.234
303.333
303.489
303.716
304.015
304.37
304.776
305.308
306.057
307.003
300.266
300.766
301.196
301.525
301.764
301.954
302.122
302.278
302.424
302.559
302.679
302.784
302.872
302.945
303.004
303.049
303.084
303.11
303.129
303.142
303.151
303.159
303.17
303.187
303.22
303.279
303.38
303.538
303.765
304.065
304.419
304.824
305.354
306.104
307.049
300.27
300.776
301.211
301.543
301.784
301.976
302.146
302.305
302.453
302.589
302.71
302.816
302.905
302.978
303.036
303.082
303.117
303.143
303.163
303.176
303.187
303.196
303.208
303.227
303.262
303.324
303.427
303.586
303.815
304.115
304.468
304.871
305.401
306.15
307.095
300.273
300.785
301.225
301.56
301.803
301.998
302.17
302.331
302.481
302.619
302.742
302.848
302.937
303.011
303.069
303.115
303.15
303.177
303.196
303.211
303.223
303.233
303.247
303.268
303.305
303.369
303.473
303.634
303.864
304.164
304.517
304.919
305.447
306.196
307.141
300.276
300.795
301.239
301.578
301.823
302.02
302.195
302.358
302.51
302.65
302.774
302.88
302.97
303.043
303.102
303.148
303.183
303.21
303.23
303.246
303.258
303.27
303.285
303.308
303.347
303.413
303.52
303.683
303.914
304.214
304.565
304.966
305.493
306.242
307.188
300.28
300.804
301.254
301.596
301.843
302.042
302.22
302.385
302.54
302.681
302.806
302.913
303.003
303.076
303.135
303.181
303.216
303.243
303.264
303.28
303.294
303.307
303.324
303.349
303.39
303.458
303.567
303.731
303.963
304.264
304.614
305.013
305.54
306.288
307.235
300.283
300.814
301.269
301.614
301.864
302.064
302.245
302.413
302.569
302.712
302.838
302.946
303.036
303.109
303.168
303.214
303.249
303.277
303.298
303.315
303.329
303.344
303.362
303.389
303.433
303.503
303.614
303.78
304.013
304.314
304.663
305.061
305.586
306.335
307.282
300.286
300.824
301.284
301.632
301.884
302.087
302.27
302.44
302.599
302.743
302.871
302.979
303.069
303.143
303.201
303.247
303.283
303.31
303.332
303.349
303.365
303.381
303.401
303.43
303.475
303.548
303.661
303.829
304.064
304.364
304.712
305.109
305.633
306.382
307.33
300.29
300.834
301.299
301.65
301.905
302.11
302.295
302.469
302.63
302.776
302.904
303.013
303.103
303.176
303.234
303.28
303.316
303.344
303.366
303.384
303.4
303.418
303.439
303.47
303.518
303.593
303.709
303.879
304.114
304.415
304.762
305.157
305.681
306.43
307.378
300.293
300.844
301.314
301.669
301.926
302.134
302.321
302.497
302.66
302.808
302.937
303.046
303.137
303.209
303.267
303.313
303.349
303.377
303.399
303.418
303.436
303.454
303.478
303.511
303.561
303.639
303.757
303.929
304.166
304.466
304.812
305.205
305.729
306.478
307.427
300.297
300.854
301.329
301.687
301.947
302.157
302.348
302.526
302.692
302.841
302.971
303.08
303.17
303.243
303.301
303.346
303.382
303.41
303.433
303.453
303.471
303.491
303.516
303.551
303.604
303.684
303.805
303.979
304.217
304.517
304.862
305.254
305.777
306.526
307.475
300.301
300.864
301.345
301.706
301.968
302.181
302.374
302.556
302.723
302.874
303.005
303.115
303.205
303.277
303.334
303.38
303.415
303.444
303.467
303.487
303.507
303.528
303.555
303.592
303.647
303.73
303.853
304.03
304.269
304.569
304.912
305.303
305.825
306.575
307.525
300.304
300.874
301.36
301.725
301.989
302.205
302.401
302.585
302.755
302.908
303.039
303.149
303.239
303.311
303.368
303.413
303.448
303.477
303.501
303.522
303.542
303.565
303.593
303.632
303.69
303.776
303.901
304.08
304.321
304.621
304.963
305.353
305.874
306.623
307.574
300.308
300.885
301.376
301.744
302.011
302.229
302.429
302.616
302.788
302.942
303.074
303.184
303.273
303.345
303.401
303.446
303.482
303.51
303.534
303.556
303.577
303.601
303.631
303.673
303.733
303.821
303.95
304.131
304.373
304.673
305.014
305.402
305.923
306.672
307.623
300.311
300.895
301.392
301.763
302.033
302.254
302.456
302.646
302.821
302.976
303.109
303.219
303.308
303.379
303.435
303.48
303.515
303.544
303.568
303.59
303.613
303.638
303.67
303.713
303.776
303.867
303.998
304.182
304.425
304.725
305.065
305.452
305.972
306.721
307.673
300.315
300.906
301.408
301.783
302.055
302.279
302.484
302.677
302.854
303.011
303.144
303.254
303.343
303.413
303.469
303.513
303.548
303.577
303.602
303.625
303.648
303.674
303.708
303.754
303.819
303.913
304.047
304.233
304.478
304.778
305.116
305.502
306.021
306.771
307.722
300.319
300.916
301.424
301.802
302.077
302.304
302.513
302.709
302.888
303.046
303.18
303.289
303.378
303.448
303.503
303.546
303.581
303.61
303.635
303.659
303.683
303.711
303.746
303.794
303.862
303.959
304.096
304.284
304.53
304.83
305.167
305.552
306.071
306.82
307.772
300.323
300.927
301.44
301.822
302.1
302.33
302.542
302.741
302.922
303.081
303.215
303.325
303.413
303.482
303.537
303.58
303.615
303.644
303.669
303.693
303.718
303.748
303.784
303.835
303.905
304.004
304.144
304.335
304.583
304.883
305.218
305.602
306.12
306.869
307.821
300.326
300.938
301.457
301.842
302.122
302.355
302.571
302.773
302.957
303.117
303.251
303.361
303.448
303.517
303.571
303.613
303.648
303.677
303.703
303.727
303.754
303.784
303.823
303.875
303.948
304.05
304.193
304.386
304.635
304.935
305.269
305.652
306.169
306.918
307.87
300.33
300.949
301.473
301.862
302.145
302.382
302.601
302.806
302.992
303.153
303.288
303.397
303.483
303.551
303.605
303.647
303.681
303.71
303.736
303.762
303.789
303.82
303.861
303.915
303.99
304.096
304.241
304.437
304.688
304.987
305.32
305.701
306.218
306.967
307.919
300.334
300.96
301.49
301.882
302.168
302.408
302.631
302.839
303.028
303.19
303.325
303.433
303.519
303.586
303.639
303.681
303.715
303.744
303.77
303.796
303.824
303.857
303.899
303.955
304.033
304.141
304.29
304.488
304.74
305.039
305.37
305.75
306.267
307.016
307.967
300.338
300.971
301.507
301.903
302.192
302.435
302.662
302.873
303.064
303.227
303.362
303.47
303.554
303.621
303.673
303.714
303.748
303.777
303.804
303.83
303.859
303.893
303.937
303.995
304.076
304.187
304.338
304.538
304.792
305.091
305.421
305.799
306.316
307.064
308.016
300.342
300.982
301.524
301.923
302.216
302.463
302.693
302.908
303.101
303.265
303.399
303.506
303.59
303.656
303.707
303.748
303.781
303.81
303.837
303.864
303.894
303.929
303.975
304.035
304.118
304.232
304.386
304.588
304.843
305.141
305.47
305.848
306.364
307.112
308.063
300.346
300.993
301.541
301.945
302.24
302.491
302.725
302.944
303.138
303.303
303.437
303.544
303.627
303.691
303.741
303.782
303.815
303.844
303.871
303.898
303.929
303.966
304.013
304.075
304.161
304.277
304.434
304.638
304.894
305.192
305.52
305.896
306.412
307.159
308.11
300.35
301.005
301.559
301.966
302.265
302.52
302.758
302.98
303.176
303.342
303.476
303.581
303.663
303.726
303.776
303.816
303.848
303.877
303.904
303.932
303.964
304.002
304.05
304.115
304.203
304.322
304.481
304.688
304.945
305.242
305.568
305.944
306.459
307.206
308.156
300.354
301.017
301.577
301.988
302.291
302.549
302.792
303.017
303.215
303.381
303.514
303.619
303.7
303.762
303.811
303.85
303.882
303.911
303.938
303.967
303.999
304.038
304.088
304.155
304.245
304.367
304.528
304.737
304.995
305.292
305.617
305.991
306.506
307.252
308.203
300.358
301.029
301.595
302.011
302.317
302.579
302.826
303.054
303.254
303.421
303.553
303.657
303.737
303.798
303.845
303.884
303.916
303.944
303.972
304.001
304.034
304.074
304.126
304.194
304.287
304.411
304.575
304.786
305.044
305.341
305.664
306.038
306.552
307.298
308.248
300.362
301.041
301.614
302.033
302.343
302.61
302.861
303.093
303.294
303.461
303.593
303.695
303.774
303.834
303.88
303.918
303.95
303.978
304.005
304.035
304.069
304.11
304.163
304.234
304.329
304.455
304.622
304.835
305.094
305.39
305.711
306.084
306.598
307.343
308.292
300.367
301.053
301.633
302.056
302.37
302.642
302.897
303.132
303.335
303.501
303.633
303.734
303.811
303.87
303.916
303.952
303.983
304.012
304.039
304.069
304.103
304.146
304.201
304.273
304.37
304.499
304.668
304.883
305.142
305.437
305.758
306.129
306.643
307.387
308.336
300.371
301.066
301.652
302.08
302.398
302.674
302.934
303.172
303.376
303.542
303.673
303.773
303.848
303.906
303.951
303.987
304.017
304.045
304.073
304.103
304.138
304.182
304.238
304.312
304.411
304.543
304.714
304.93
305.19
305.485
305.804
306.175
306.687
307.431
308.379
300.376
301.079
301.672
302.104
302.426
302.707
302.972
303.213
303.418
303.584
303.713
303.812
303.886
303.942
303.986
304.021
304.052
304.079
304.107
304.137
304.173
304.217
304.275
304.351
304.452
304.586
304.759
304.977
305.237
305.531
305.849
306.218
306.73
307.473
308.42
300.38
301.092
301.692
302.13
302.456
302.742
303.011
303.255
303.461
303.627
303.755
303.851
303.924
303.979
304.022
304.056
304.086
304.113
304.141
304.172
304.208
304.253
304.312
304.39
304.493
304.629
304.804
305.023
305.284
305.577
305.893
306.262
306.773
307.515
308.461
300.385
301.105
301.713
302.155
302.486
302.777
303.052
303.298
303.506
303.67
303.797
303.892
303.963
304.016
304.058
304.091
304.12
304.147
304.175
304.206
304.243
304.289
304.349
304.428
304.533
304.671
304.848
305.069
305.33
305.621
305.936
306.304
306.814
307.556
308.501
300.39
301.119
301.734
302.182
302.518
302.815
303.094
303.344
303.551
303.715
303.84
303.932
304.002
304.054
304.094
304.127
304.155
304.182
304.21
304.241
304.278
304.325
304.386
304.467
304.574
304.713
304.892
305.114
305.375
305.665
305.979
306.346
306.856
307.596
308.541
300.395
301.134
301.757
302.21
302.551
302.853
303.138
303.39
303.598
303.761
303.883
303.974
304.041
304.092
304.13
304.162
304.19
304.216
304.244
304.275
304.313
304.361
304.423
304.505
304.613
304.755
304.935
305.158
305.419
305.708
306.02
306.386
306.895
307.635
308.578
300.4
301.149
301.78
302.239
302.585
302.893
303.183
303.438
303.647
303.808
303.928
304.016
304.081
304.13
304.167
304.198
304.225
304.251
304.279
304.31
304.348
304.396
304.46
304.543
304.653
304.796
304.978
305.202
305.462
305.751
306.061
306.426
306.935
307.674
308.616
300.405
301.164
301.804
302.268
302.62
302.935
303.23
303.488
303.696
303.856
303.973
304.059
304.122
304.169
304.205
304.235
304.261
304.286
304.314
304.345
304.383
304.432
304.496
304.581
304.693
304.837
305.02
305.244
305.504
305.792
306.101
306.465
306.973
307.711
308.652
300.411
301.18
301.828
302.299
302.657
302.979
303.279
303.539
303.747
303.904
304.02
304.103
304.163
304.208
304.243
304.271
304.297
304.322
304.349
304.38
304.419
304.469
304.534
304.619
304.732
304.878
305.062
305.287
305.547
305.833
306.141
306.503
307.011
307.748
308.689
300.416
301.197
301.854
302.331
302.695
303.024
303.329
303.592
303.799
303.954
304.067
304.147
304.205
304.248
304.281
304.308
304.333
304.358
304.384
304.416
304.455
304.505
304.571
304.657
304.771
304.918
305.103
305.328
305.587
305.872
306.178
306.54
307.047
307.783
308.724
300.422
301.214
301.88
302.364
302.734
303.07
303.381
303.645
303.852
304.005
304.115
304.192
304.248
304.288
304.32
304.346
304.37
304.394
304.42
304.452
304.491
304.541
304.608
304.696
304.811
304.959
305.145
305.37
305.629
305.912
306.217
306.578
307.084
307.82
308.759
300.428
301.232
301.908
302.398
302.775
303.118
303.435
303.7
303.906
304.057
304.163
304.238
304.291
304.329
304.359
304.384
304.407
304.43
304.456
304.488
304.527
304.578
304.645
304.734
304.85
304.999
305.186
305.41
305.668
305.95
306.254
306.614
307.119
307.854
308.793
300.435
301.25
301.936
302.433
302.817
303.168
303.489
303.757
303.961
304.109
304.212
304.284
304.334
304.371
304.399
304.423
304.445
304.467
304.493
304.524
304.564
304.615
304.683
304.773
304.89
305.04
305.227
305.452
305.709
305.989
306.291
306.65
307.155
307.889
308.828
300.441
301.269
301.965
302.469
302.86
303.219
303.545
303.814
304.017
304.162
304.262
304.331
304.378
304.413
304.439
304.461
304.483
304.505
304.53
304.561
304.601
304.653
304.721
304.811
304.929
305.08
305.267
305.492
305.747
306.026
306.327
306.685
307.189
307.923
308.861
300.448
301.288
301.994
302.506
302.905
303.271
303.603
303.872
304.074
304.216
304.313
304.378
304.423
304.455
304.48
304.501
304.521
304.543
304.568
304.599
304.639
304.691
304.76
304.851
304.969
305.121
305.309
305.533
305.788
306.065
306.364
306.721
307.225
307.958
308.896
300.455
301.308
302.025
302.545
302.951
303.325
303.661
303.932
304.132
304.27
304.364
304.426
304.468
304.498
304.521
304.541
304.56
304.581
304.605
304.636
304.676
304.729
304.798
304.89
305.009
305.161
305.349
305.572
305.826
306.101
306.399
306.755
307.259
307.991
308.929
300.462
301.329
302.057
302.585
302.999
303.381
303.722
303.993
304.19
304.326
304.415
304.474
304.513
304.541
304.562
304.581
304.599
304.62
304.644
304.675
304.715
304.768
304.838
304.93
305.05
305.202
305.39
305.613
305.866
306.139
306.436
306.792
307.295
308.027
308.964
300.47
301.351
302.09
302.626
303.049
303.438
303.784
304.055
304.25
304.382
304.468
304.523
304.559
304.585
304.604
304.622
304.639
304.659
304.683
304.713
304.753
304.807
304.877
304.97
305.09
305.243
305.431
305.653
305.904
306.175
306.471
306.825
307.328
308.059
308.997
300.478
301.373
302.125
302.669
303.101
303.499
303.848
304.12
304.312
304.439
304.521
304.573
304.606
304.629
304.647
304.663
304.679
304.698
304.722
304.753
304.793
304.847
304.918
305.011
305.132
305.285
305.473
305.694
305.944
306.214
306.508
306.862
307.364
308.095
309.033
300.486
301.397
302.161
302.714
303.154
303.561
303.915
304.186
304.375
304.498
304.575
304.623
304.653
304.674
304.69
304.705
304.72
304.738
304.762
304.792
304.832
304.886
304.958
305.052
305.173
305.326
305.513
305.734
305.982
306.25
306.542
306.896
307.398
308.129
309.066
300.495
301.422
302.198
302.761
303.21
303.624
303.983
304.254
304.439
304.558
304.631
304.674
304.701
304.719
304.734
304.747
304.761
304.779
304.802
304.832
304.873
304.927
304.999
305.094
305.216
305.369
305.556
305.776
306.022
306.289
306.58
306.933
307.435
308.165
309.103
300.504
301.447
302.237
302.809
303.266
303.689
304.051
304.322
304.505
304.619
304.687
304.726
304.75
304.766
304.778
304.79
304.803
304.82
304.843
304.873
304.913
304.968
305.04
305.135
305.257
305.411
305.598
305.816
306.061
306.326
306.615
306.967
307.468
308.199
309.137
300.513
301.473
302.276
302.857
303.324
303.755
304.121
304.391
304.57
304.68
304.743
304.779
304.799
304.812
304.823
304.833
304.846
304.862
304.884
304.914
304.955
305.01
305.083
305.179
305.301
305.455
305.642
305.859
306.102
306.366
306.654
307.005
307.506
308.237
309.175
300.522
301.5
302.316
302.907
303.382
303.821
304.19
304.46
304.636
304.742
304.8
304.832
304.849
304.86
304.868
304.877
304.889
304.904
304.926
304.956
304.997
305.052
305.125
305.221
305.344
305.498
305.683
305.9
306.141
306.403
306.689
307.04
307.541
308.271
309.209
300.532
301.527
302.356
302.958
303.442
303.888
304.261
304.53
304.703
304.804
304.858
304.886
304.9
304.908
304.914
304.922
304.932
304.947
304.969
304.998
305.039
305.095
305.169
305.266
305.389
305.543
305.728
305.944
306.183
306.443
306.729
307.079
307.58
308.31
309.248
300.542
301.555
302.398
303.01
303.503
303.957
304.334
304.602
304.772
304.868
304.917
304.94
304.951
304.956
304.961
304.967
304.976
304.99
305.011
305.041
305.082
305.137
305.212
305.309
305.432
305.586
305.771
305.985
306.223
306.481
306.765
307.115
307.615
308.345
309.284
300.552
301.584
302.442
303.064
303.568
304.03
304.409
304.676
304.842
304.933
304.977
304.996
305.003
305.005
305.008
305.013
305.021
305.034
305.055
305.084
305.126
305.182
305.257
305.354
305.479
305.632
305.817
306.03
306.266
306.523
306.806
307.155
307.656
308.386
309.324
300.562
301.614
302.487
303.121
303.635
304.105
304.488
304.754
304.915
305
305.038
305.052
305.055
305.055
305.056
305.059
305.066
305.078
305.098
305.127
305.169
305.225
305.3
305.398
305.523
305.676
305.86
306.071
306.306
306.561
306.843
307.191
307.692
308.422
309.36
300.574
301.646
302.535
303.181
303.705
304.184
304.57
304.834
304.99
305.069
305.101
305.11
305.109
305.106
305.104
305.106
305.112