/*--------------------------------*- C++ -*----------------------------------*\
| =========                 |                                                 |
| \\      /  F ield         | OpenFOAM: The Open Source CFD Toolbox           |
|  \\    /   O peration     | Version:  v2006                                 |
|   \\  /    A nd           | Website:  www.openfoam.com                      |
|    \\/     M anipulation  |                                                 |
\*---------------------------------------------------------------------------*/
FoamFile
{
    version     2.0;
    format      ascii;
    class       volScalarField;
    location    "71";
    object      k;
}
// * * * * * * * * * * * * * * * * * * * * * * * * * * * * * * * * * * * * * //

dimensions      [0 2 -2 0 0 0 0];


internalField   nonuniform List<scalar> 
78750
(
2.08797
0.696275
0.338084
0.117322
0.0248396
0.00280607
0.00192551
0.00111286
0.00183927
0.00127859
0.00165556
0.00139634
0.00150688
0.00144618
0.00145231
0.00143368
0.00142552
0.00141381
0.00140345
0.00139317
0.00138312
0.0013731
0.00136292
0.00135237
0.00134121
0.00132912
0.00131563
0.00130001
0.00128113
0.00125707
0.00122436
0.00117743
0.00110344
0.000930488
0.000442723
0.0136751
0.00983177
0.00448959
0.00169086
0.00187274
0.00333721
0.00225232
0.00254306
0.00228487
0.0023065
0.00224185
0.00223467
0.00222128
0.00221971
0.00221985
0.0022209
0.00222012
0.0022167
0.00221032
0.00220127
0.00218993
0.00217676
0.00216209
0.00214598
0.00212834
0.00210926
0.00208868
0.00206657
0.00204304
0.00201851
0.00199269
0.00196081
0.00189913
0.00162851
0.00107113
0.00361869
0.00274566
0.00372653
0.00337703
0.0028043
0.00252279
0.00260898
0.00240726
0.00230291
0.00219678
0.00212737
0.00207933
0.0020449
0.00201755
0.00199423
0.00197334
0.00195394
0.00193532
0.0019169
0.0018982
0.00187886
0.00185851
0.00183659
0.00181286
0.00178738
0.00176024
0.00173141
0.00170075
0.00166814
0.00163241
0.0015871
0.00151581
0.00140277
0.00150394
0.00244126
0.00121309
0.00180862
0.00196262
0.00227728
0.0026967
0.00305786
0.00317309
0.00317151
0.00304811
0.00287423
0.00270669
0.00257653
0.00248517
0.00242123
0.00237425
0.0023371
0.00230531
0.00227621
0.00224824
0.00222024
0.00219151
0.00216192
0.00213159
0.00210068
0.00206946
0.00203823
0.00200732
0.00197732
0.0019472
0.00191417
0.00187583
0.00182352
0.00171245
0.00154304
0.00273908
0.00105021
0.00263046
0.00300305
0.00302974
0.00296319
0.00289359
0.00285123
0.00283706
0.00282832
0.00277885
0.00267512
0.00253835
0.00240771
0.00231585
0.00225718
0.00221828
0.00219294
0.00217638
0.00216395
0.00215242
0.00213967
0.00212424
0.00210525
0.00208218
0.00205483
0.00202332
0.00198649
0.00194105
0.00188352
0.00181124
0.00171851
0.00158891
0.00148083
0.00189355
0.00391585
0.0012291
0.00201318
0.00242503
0.00265883
0.00281918
0.00294864
0.0030498
0.00311433
0.0031437
0.00314416
0.00311038
0.00302951
0.00289646
0.00273311
0.00258373
0.00248077
0.00241926
0.00237928
0.00235017
0.00232844
0.00231164
0.00229758
0.00228441
0.00227055
0.00225459
0.00223518
0.00221051
0.00217639
0.00212677
0.00205733
0.00196172
0.00181374
0.00154676
0.00174843
0.00435578
0.00161954
0.00269789
0.00293389
0.00300199
0.00301025
0.00296782
0.00288652
0.00279515
0.00271952
0.00267118
0.00264545
0.00262532
0.00258657
0.00250826
0.00241421
0.00235158
0.00231618
0.0022936
0.00227901
0.00227081
0.00226713
0.00226611
0.00226605
0.00226543
0.00226286
0.00225695
0.00224544
0.00222375
0.00218591
0.00212541
0.00203198
0.0018814
0.00173579
0.00228794
0.00527613
0.001924
0.0026699
0.00295529
0.00307601
0.00314243
0.00318124
0.00319016
0.00316207
0.00309962
0.00302002
0.00294385
0.00287682
0.00280702
0.00271251
0.00257769
0.00243301
0.00233737
0.00229205
0.00226821
0.00225545
0.0022513
0.00225323
0.00225879
0.00226572
0.00227187
0.00227505
0.00227294
0.00226239
0.00223824
0.00219173
0.00210853
0.00194905
0.00169931
0.0022902
0.00577615
0.00223064
0.00292281
0.00305767
0.00309299
0.003082
0.00301588
0.00289665
0.0027553
0.00262581
0.00252465
0.00245603
0.00241236
0.0023785
0.00234034
0.00229613
0.00225866
0.00223453
0.00222005
0.00221334
0.00221397
0.00222081
0.00223232
0.00224685
0.00226269
0.00227814
0.00229134
0.00230079
0.0023042
0.00229691
0.0022706
0.00220977
0.00208339
0.00197522
0.00279318
0.00649845
0.0021413
0.00297092
0.00322962
0.00332379
0.00336043
0.0033486
0.00327423
0.0031484
0.00299876
0.00284152
0.00269137
0.00256444
0.00246454
0.00237761
0.00229632
0.00223173
0.0021929
0.0021733
0.00216425
0.00216318
0.00216923
0.00218123
0.00219771
0.00221693
0.00223686
0.00225552
0.00227131
0.00228164
0.00228185
0.00226386
0.00221168
0.00209585
0.00206553
0.00308713
0.00697405
0.0021939
0.0031495
0.00338319
0.00345011
0.00344731
0.00336378
0.00318651
0.00296436
0.00276119
0.00259844
0.00247033
0.00236894
0.00229476
0.00224621
0.00221454
0.00219284
0.00217773
0.00216712
0.0021607
0.0021589
0.00216193
0.00216971
0.00218185
0.00219781
0.00221739
0.00224028
0.00226473
0.00228795
0.00230551
0.00230895
0.00228169
0.00220212
0.00229078
0.00350684
0.007382
0.00228082
0.00336392
0.0036764
0.00377075
0.00378551
0.00373065
0.00358471
0.00336863
0.00313458
0.00290692
0.00269141
0.00249503
0.00233062
0.00221715
0.00215784
0.00213338
0.00212485
0.00212236
0.00212305
0.00212598
0.00213074
0.00213716
0.00214529
0.00215547
0.002168
0.00218299
0.00219999
0.00221863
0.00223737
0.00225185
0.0022528
0.00223676
0.00245825
0.00380059
0.00762823
0.00235894
0.00351042
0.0038119
0.00388123
0.00385521
0.00373097
0.00350389
0.00325572
0.00306007
0.00290705
0.0027628
0.00260654
0.00243636
0.00227898
0.0021719
0.00211997
0.00209706
0.0020877
0.00208677
0.00209149
0.00209982
0.00211035
0.0021223
0.0021359
0.00215143
0.00216788
0.00218382
0.00219826
0.00220973
0.00221578
0.00221358
0.00222208
0.00254468
0.0039824
0.00786955
0.0030392
0.00401806
0.00419441
0.00418058
0.00407159
0.00385378
0.00355448
0.00326439
0.0030579
0.00292713
0.00282439
0.00271452
0.00257584
0.00240731
0.00224456
0.00213546
0.0020819
0.00205225
0.00203518
0.00202812
0.00202848
0.00203411
0.00204332
0.00205561
0.00207235
0.00209422
0.0021209
0.00215098
0.00218072
0.00220377
0.00221252
0.0022336
0.00266479
0.00422382
0.00827717
0.00341465
0.00414086
0.00418391
0.00407871
0.00385211
0.00353023
0.00322848
0.003013
0.00288475
0.00281463
0.00276572
0.00271194
0.00263538
0.00252048
0.00237008
0.0022248
0.00212853
0.00207179
0.00203272
0.00200385
0.00198362
0.00197023
0.00196204
0.00195766
0.00195653
0.00196003
0.0019717
0.00199641
0.00203806
0.00209764
0.00217518
0.00231555
0.00298314
0.00468327
0.00868445
0.00407191
0.00446051
0.00433576
0.00408131
0.00368103
0.00330991
0.00307478
0.00295157
0.00288995
0.00284857
0.00281076
0.00276679
0.0027075
0.00262176
0.00250177
0.00235856
0.00222923
0.00214067
0.00208096
0.00203395
0.00199419
0.0019607
0.00193219
0.00190729
0.00188342
0.00185896
0.00183599
0.00182069
0.00182541
0.00187452
0.00202369
0.00242081
0.00353417
0.00530533
0.00893359
0.00479818
0.00461244
0.00425473
0.00378062
0.00323018
0.00293753
0.00282386
0.00278149
0.00278248
0.00279025
0.00278704
0.00277094
0.00273843
0.00268287
0.00259755
0.00248381
0.00236033
0.00225497
0.00217736
0.00211821
0.00206716
0.00202053
0.00197774
0.00193735
0.00189627
0.00185227
0.00180452
0.0017545
0.00170967
0.00169901
0.00182925
0.00240059
0.00392144
0.00571369
0.00900265
0.00527472
0.00462042
0.00406551
0.00339878
0.00287497
0.0027305
0.00272296
0.00273648
0.00275695
0.0027754
0.00278465
0.002782
0.00276517
0.00273025
0.00267252
0.00259018
0.00249042
0.00239008
0.00230395
0.00223406
0.00217465
0.00212038
0.00206837
0.00201692
0.00196461
0.00190971
0.00184988
0.0017831
0.00170914
0.00164202
0.00168738
0.00227892
0.00405178
0.00589297
0.00908045
0.00433329
0.00425647
0.00400787
0.00363311
0.0032824
0.00300452
0.00279646
0.00267889
0.00263459
0.00263586
0.00265893
0.00268523
0.00270269
0.00270425
0.00268525
0.00264347
0.00258169
0.0025077
0.00243269
0.00236394
0.00230205
0.00224423
0.00218792
0.0021315
0.00207365
0.00201296
0.00194734
0.00187409
0.00178968
0.0016938
0.00165157
0.00212909
0.00401777
0.00595339
0.00922803
0.00326854
0.0045047
0.00480344
0.00486551
0.00473914
0.004413
0.00395895
0.00348529
0.00306974
0.00275594
0.00256238
0.00248037
0.00247712
0.00251025
0.00254629
0.00256602
0.00256189
0.00253459
0.0024909
0.00243953
0.00238612
0.00233262
0.00227863
0.00222298
0.00216439
0.00210171
0.00203326
0.00195684
0.00186873
0.00176453
0.00169252
0.00211687
0.00403838
0.00605411
0.00949162
0.00252951
0.00442742
0.00502664
0.00527292
0.00540392
0.00544353
0.00533957
0.00504402
0.0045761
0.00400186
0.00340731
0.00288305
0.00250265
0.00229949
0.0022504
0.00228958
0.00235312
0.00240314
0.00242687
0.00242588
0.00240689
0.00237608
0.0023371
0.00229159
0.00223984
0.0021814
0.00211528
0.00203993
0.00195197
0.0018447
0.00176217
0.00221018
0.00414894
0.00621723
0.00979782
0.00248577
0.00397371
0.00459672
0.00489659
0.00509408
0.00525867
0.00540147
0.00549907
0.00548727
0.00528606
0.00486858
0.00427645
0.00359462
0.00293346
0.00240873
0.00210526
0.00202231
0.00206918
0.00214995
0.00221765
0.00226061
0.00228069
0.00228241
0.00226907
0.00224222
0.00220212
0.00214824
0.00207976
0.00199528
0.00189351
0.00184627
0.00244874
0.00447207
0.00652642
0.010108
0.00262843
0.00402035
0.00470125
0.00501288
0.00516094
0.00522445
0.00523683
0.0052272
0.00522981
0.00525789
0.00526445
0.00515002
0.0048266
0.0042761
0.00356061
0.00280883
0.00220527
0.00189386
0.00184058
0.00190048
0.00197748
0.00204109
0.00208715
0.00211785
0.00213509
0.00213879
0.00212689
0.0020959
0.00204164
0.00196135
0.00191819
0.00253452
0.00483629
0.0068329
0.0102213
0.00343858
0.00484787
0.00544819
0.00571893
0.00584753
0.0058883
0.00584727
0.00571131
0.00547076
0.0051775
0.00497168
0.00492102
0.00492046
0.00484103
0.00457594
0.00401705
0.00320247
0.00240424
0.00190797
0.00174645
0.00175823
0.00181512
0.00187076
0.00191556
0.00194988
0.00197569
0.00199345
0.00200116
0.00199498
0.00197211
0.00196374
0.00241665
0.00491484
0.00694423
0.010218
0.00427009
0.00508991
0.00540441
0.0055624
0.00565775
0.00571483
0.00573501
0.00571325
0.00563104
0.0054239
0.00509874
0.00481568
0.00466842
0.00460028
0.00453275
0.0043798
0.00393662
0.00311846
0.00231661
0.00185131
0.00170314
0.00170515
0.0017469
0.00179141
0.00183122
0.00186625
0.00189788
0.00192609
0.0019476
0.00195668
0.00195863
0.00215589
0.00438809
0.00666647
0.0103492
0.00512432
0.00539167
0.00549751
0.00554439
0.00555018
0.00550878
0.00540809
0.00526999
0.00519175
0.00516943
0.00508875
0.00492345
0.00473208
0.00456087
0.00440691
0.00423294
0.00394639
0.00334321
0.00255307
0.00197394
0.00171503
0.00165654
0.0016713
0.00170325
0.0017371
0.00177037
0.00180428
0.00184085
0.00187956
0.00191325
0.00194102
0.00192992
0.00358065
0.00611727
0.0109063
0.00535269
0.00553188
0.005659
0.00572644
0.00574378
0.00569636
0.0055542
0.00531065
0.00507836
0.00497229
0.00493119
0.00487303
0.00477105
0.00462224
0.00442668
0.00416733
0.00378469
0.00318362
0.00246737
0.00194413
0.00171107
0.00165309
0.00165649
0.00167527
0.00169635
0.00171897
0.00174441
0.00177523
0.00180845
0.00182369
0.00184568
0.00188689
0.00367329
0.00654098
0.0123372
0.00523819
0.00548018
0.00557504
0.00560897
0.00560805
0.00557882
0.00551626
0.00539459
0.00521466
0.00505742
0.00496017
0.0048843
0.00479474
0.00467098
0.00449012
0.00421046
0.00376022
0.00309827
0.00238885
0.00190885
0.00170791
0.00165641
0.00165181
0.00165727
0.00166337
0.00166963
0.00168035
0.00170159
0.00173428
0.00181493
0.00203932
0.00273229
0.00530414
0.00847231
0.014429
0.00530862
0.00554165
0.00550889
0.00542107
0.0052991
0.0051892
0.00513043
0.00510522
0.00506681
0.00499947
0.00492639
0.00485125
0.00476139
0.00464168
0.00446869
0.00419478
0.0037384
0.00306959
0.00238366
0.0019495
0.00177604
0.00172405
0.00170374
0.00168549
0.00166101
0.00163035
0.00160083
0.00159357
0.00171532
0.00224024
0.00316898
0.00458725
0.00709205
0.00999112
0.015362
0.0057938
0.00586337
0.0056553
0.00540931
0.00514879
0.00500123
0.00494864
0.00493717
0.00494592
0.00494285
0.0049103
0.00484961
0.00476143
0.00463856
0.0044612
0.0041861
0.00374099
0.00309478
0.00242849
0.00201481
0.00185354
0.00180212
0.00177438
0.00174237
0.00169679
0.00163754
0.00158035
0.00160778
0.00201073
0.0032634
0.00510469
0.00657899
0.00823545
0.0101909
0.0135569
0.00670121
0.00602699
0.00547037
0.00494703
0.00457673
0.00460101
0.00471561
0.00478742
0.00483595
0.00486599
0.00486392
0.00482688
0.00475507
0.0046426
0.00447246
0.00420972
0.00380298
0.00323137
0.00261853
0.00219269
0.00199909
0.00192391
0.00188144
0.00183782
0.00177604
0.00169051
0.00159866
0.00159843
0.00201606
0.003454
0.00604256
0.00799496
0.0089154
0.00991581
0.0111767
0.00737566
0.00594142
0.00500604
0.00414481
0.0038694
0.00419835
0.00447956
0.00463842
0.00472535
0.00476522
0.00476801
0.00473704
0.00467107
0.00456333
0.00439871
0.0041512
0.00379009
0.00331423
0.00281086
0.00242686
0.00221527
0.00211549
0.00206325
0.00202483
0.00197847
0.00190929
0.00181062
0.00171089
0.0017682
0.00243852
0.0043509
0.00700071
0.00834742
0.00920714
0.0100962
0.00695165
0.00547413
0.00451213
0.00357342
0.00342701
0.00378508
0.00406216
0.00426408
0.00440456
0.00448813
0.00452201
0.00451172
0.00445863
0.00435895
0.00420296
0.0039762
0.00366714
0.00329246
0.00291531
0.00261407
0.0024175
0.00230192
0.00223387
0.00219142
0.00216007
0.00212636
0.0020737
0.00199252
0.00191084
0.0019649
0.00252452
0.00416667
0.00635416
0.00782424
0.00989307
0.00599393
0.00513199
0.00455228
0.00385263
0.00330327
0.00319418
0.00332816
0.00354442
0.00375137
0.00390909
0.00400911
0.00405059
0.00403471
0.00396088
0.00382703
0.003632
0.0033866
0.00311994
0.00287007
0.00266437
0.0025097
0.00239866
0.00232138
0.00226965
0.00223776
0.00221801
0.00219514
0.00218328
0.00223689
0.00233857
0.00245199
0.00285158
0.0047163
0.00674876
0.0102255
0.00540763
0.00537822
0.00518949
0.00478694
0.0039775
0.0031115
0.00267304
0.00264917
0.0028377
0.00306997
0.00326346
0.00339133
0.00344784
0.00343382
0.00335542
0.00322245
0.00305401
0.00287519
0.002707
0.00255848
0.00243078
0.00232162
0.00222944
0.00215586
0.00210622
0.00208804
0.00214199
0.00235607
0.00274357
0.00314791
0.00334289
0.00334087
0.00466049
0.00689659
0.0112149
0.00515733
0.00560547
0.00564204
0.00548623
0.00507242
0.00418784
0.0031389
0.00241627
0.00215031
0.00221355
0.002415
0.00262185
0.0027754
0.00285945
0.00287446
0.00282984
0.00274121
0.00262677
0.00250262
0.0023779
0.00225447
0.00213108
0.0020096
0.00189533
0.00180418
0.0018171
0.00222497
0.00298871
0.00373849
0.00432046
0.00458615
0.00468706
0.00583127
0.00794069
0.0122081
0.00475488
0.00533494
0.0055682
0.00565657
0.00563672
0.00539237
0.00467999
0.00363063
0.00266157
0.00203481
0.00180517
0.00186073
0.00203783
0.00221622
0.00234067
0.00239778
0.00239443
0.00234448
0.00226139
0.00215525
0.00203077
0.00188871
0.00172952
0.00156272
0.00143357
0.0015812
0.00257815
0.00410952
0.00502275
0.00551113
0.00581751
0.00618393
0.00717087
0.00883685
0.0123217
0.00432754
0.00507055
0.00541382
0.00560272
0.00574718
0.00585821
0.00585595
0.00549805
0.00465767
0.00357633
0.00256201
0.00184716
0.00152591
0.00152659
0.0016829
0.00185222
0.00196777
0.00201679
0.00200656
0.00194759
0.00184696
0.00170632
0.00152828
0.00132427
0.0011466
0.00126738
0.00239456
0.00469008
0.00625606
0.00663192
0.00685915
0.00727644
0.00800611
0.00914055
0.0116264
0.00408981
0.00506381
0.00543135
0.00556044
0.00561778
0.00567215
0.00577925
0.00594782
0.00601886
0.00571196
0.00491078
0.00379442
0.00264561
0.00174517
0.00127296
0.00120773
0.00135533
0.00152728
0.00164108
0.00168386
0.00166241
0.00158236
0.00144626
0.00126032
0.00104944
0.00095332
0.00149591
0.00350129
0.0062652
0.00753205
0.00781344
0.00806776
0.00849023
0.00918392
0.0109444
0.00430986
0.00545456
0.00581901
0.00589252
0.00584733
0.00572564
0.00556368
0.00546444
0.00556335
0.00582956
0.00601944
0.00585077
0.00514623
0.00400282
0.00271099
0.00161893
0.00102665
0.000945544
0.00110286
0.00127228
0.00137816
0.00141002
0.0013725
0.00127122
0.00111317
0.000930141
0.000900469
0.00163302
0.00393344
0.00681063
0.00810952
0.0085555
0.0088605
0.00933468
0.0109307
0.00508029
0.00595121
0.00610259
0.00608019
0.00599995
0.00588191
0.00574409
0.00558126
0.00538735
0.00529796
0.00544901
0.00572937
0.00590543
0.00577731
0.00512194
0.00391559
0.00247294
0.00131706
0.000822752
0.000824521
0.000977605
0.00111412
0.00119236
0.00120616
0.00115724
0.00105057
0.000911223
0.000885311
0.00157087
0.00400283
0.00670446
0.00811835
0.00876943
0.00940201
0.0116761
0.00657835
0.00648167
0.00617992
0.00593591
0.00571
0.00549354
0.00539714
0.00549682
0.00561605
0.00558919
0.00548538
0.00547561
0.00557527
0.00567778
0.00568678
0.00542803
0.00454025
0.00305164
0.00165963
0.000944955
0.000802621
0.000884374
0.00099657
0.00107991
0.0011181
0.00110579
0.00104374
0.000933335
0.000863248
0.00165565
0.00426482
0.00665178
0.00808984
0.00937944
0.0131583
0.00796393
0.00660414
0.0060328
0.00569442
0.00537483
0.00504657
0.00487128
0.0050053
0.00530739
0.00555585
0.00566894
0.00566781
0.00562401
0.00558057
0.00552689
0.00542125
0.00512147
0.00421681
0.00277209
0.00156714
0.00101564
0.000906445
0.000955057
0.0010313
0.00109404
0.00112655
0.0011208
0.00105455
0.000879975
0.00109694
0.00293501
0.00563386
0.00773561
0.00978868
0.0151431
0.00788944
0.00621011
0.00583899
0.00564135
0.00540038
0.00508788
0.00480293
0.00468849
0.00478373
0.00499294
0.0052036
0.00535122
0.00541145
0.00538728
0.00529025
0.00511252
0.00478883
0.00412415
0.00300267
0.00189283
0.00128424
0.00109953
0.00108485
0.00111558
0.00115094
0.00117156
0.00116309
0.00109034
0.0010058
0.00149776
0.00318222
0.00585046
0.00816597
0.0106939
0.0168821
0.00670435
0.0060074
0.00602654
0.00599724
0.00585135
0.00554187
0.00505647
0.00451668
0.00416458
0.00410736
0.0042516
0.00445174
0.00460842
0.00467103
0.00461073
0.0043953
0.00396557
0.00327791
0.00245155
0.0018012
0.0014903
0.0013794
0.00133869
0.00131854
0.00129965
0.00126788
0.00120861
0.00114184
0.00147806
0.00281929
0.00461788
0.00704643
0.00918025
0.0117065
0.0173841
0.00594837
0.00620669
0.00641142
0.00646334
0.00640152
0.00617915
0.00570293
0.00493628
0.00409226
0.00349443
0.00326904
0.00331181
0.00344452
0.0035263
0.00347172
0.00324296
0.00288298
0.00251384
0.00222135
0.00201372
0.00187477
0.00177727
0.00169963
0.00162741
0.00155027
0.00145749
0.00133915
0.00126929
0.0018826
0.00431551
0.00645166
0.00847188
0.0101957
0.0122741
0.0164748
0.00553441
0.00609658
0.00639022
0.0065439
0.00663253
0.00663552
0.00647539
0.0060212
0.00520498
0.00420569
0.00333222
0.0027793
0.00254506
0.00250686
0.00254178
0.00258491
0.00259878
0.00256297
0.00248814
0.00239969
0.00231129
0.00222308
0.00213212
0.00203562
0.00193005
0.00181084
0.00166949
0.00151419
0.00167223
0.00381556
0.00701568
0.00908
0.0105209
0.0121622
0.0156033
0.00530644
0.00593995
0.00625032
0.00641784
0.00654102
0.00665176
0.00675215
0.0068021
0.00667095
0.00618264
0.00532258
0.00428521
0.00332294
0.00262986
0.00227635
0.00219816
0.00226344
0.00235655
0.00242237
0.00245261
0.0024555
0.0024377
0.00240126
0.0023448
0.00226538
0.00216078
0.00203438
0.00189609
0.00179425
0.00250426
0.005918
0.00859933
0.0102443
0.0119373
0.0161907
0.00560088
0.00622728
0.0064609
0.00654978
0.00657172
0.00655023
0.00650616
0.00648378
0.00654134
0.00666471
0.0066995
0.00643343
0.00575565
0.00473626
0.00357851
0.00257786
0.00200586
0.00186587
0.00194504
0.00207464
0.00218754
0.00227055
0.00232675
0.00235958
0.00236608
0.00233409
0.00224599
0.00209205
0.00201602
0.00236136
0.00504383
0.00817978
0.0102279
0.0123389
0.0179742
0.00669373
0.0067659
0.00677442
0.00678036
0.00676825
0.00671543
0.00658868
0.0063526
0.00601982
0.00572928
0.00565641
0.00576354
0.00583592
0.00563671
0.00492516
0.00375432
0.00260541
0.00190289
0.0016861
0.0017348
0.00185588
0.00197518
0.00207904
0.00217126
0.00225915
0.00233651
0.00235504
0.00223798
0.00217982
0.00307211
0.00516447
0.00831619
0.0105521
0.0130199
0.0193007
0.00764174
0.00689525
0.00667849
0.00660798
0.00657582
0.00654612
0.00649698
0.00640045
0.00619005
0.00580738
0.00535483
0.00503591
0.00488309
0.00476426
0.00446119
0.00372055
0.00275564
0.00204494
0.00175336
0.00173812
0.00181404
0.00190029
0.00198266
0.00206733
0.00217198
0.00231342
0.00243124
0.00239225
0.00246512
0.0041833
0.00648706
0.00910474
0.0111598
0.0135773
0.018874
0.00779566
0.0067512
0.00650903
0.00641182
0.00632375
0.00620054
0.00604157
0.00590232
0.00581294
0.00570014
0.00546749
0.0051192
0.00474322
0.00436746
0.00391866
0.0032905
0.00258433
0.00207932
0.00187389
0.0018543
0.00190136
0.00196614
0.00203572
0.00211339
0.00222187
0.00240456
0.00262592
0.00269267
0.00276689
0.00461541
0.0085179
0.010726
0.01225
0.014038
0.0172427
0.00768341
0.00672203
0.00651551
0.00642344
0.00631962
0.00614919
0.00589282
0.00560232
0.00537148
0.00522613
0.00509865
0.00490363
0.00459907
0.00418758
0.00367357
0.00307968
0.00253073
0.00218046
0.00203438
0.00200395
0.00202425
0.00207013
0.0021335
0.00221536
0.00233556
0.00255916
0.00292263
0.00320341
0.00323999
0.00390261
0.00775123
0.0106521
0.0120747
0.0133032
0.0166912
0.00764327
0.00668344
0.00645318
0.00633268
0.00620168
0.00601632
0.00576971
0.00548055
0.00518513
0.00492877
0.00471311
0.00449299
0.00421401
0.00384402
0.0033907
0.00291338
0.00252197
0.00228571
0.00217124
0.00212343
0.0021122
0.00212812
0.00217376
0.00226276
0.00244026
0.00282063
0.00341959
0.00400735
0.00429539
0.00411649
0.00548624
0.00840417
0.0105308
0.0126164
0.0195674
0.00747252
0.00659591
0.00638152
0.00624308
0.00607108
0.00582951
0.00554639
0.00526837
0.00499528
0.00472682
0.00447248
0.00422034
0.00393952
0.00360737
0.00323354
0.0028661
0.00256965
0.00237143
0.00224722
0.00216489
0.00210653
0.00207082
0.00207731
0.00219151
0.00258635
0.00343567
0.00443766
0.00514427
0.00537764
0.00506331
0.00561181
0.00852713
0.0111595
0.0143512
0.0226075
0.00733637
0.00664899
0.00647242
0.00633344
0.00613941
0.00584691
0.0054871
0.00514552
0.00484688
0.00456791
0.00429849
0.00403807
0.0037746
0.00349182
0.00319094
0.00289801
0.00264666
0.0024507
0.00229945
0.00217285
0.00205545
0.00195144
0.00191895
0.00213948
0.00295159
0.00449057
0.00596018
0.00643589
0.00619163
0.00634936
0.00792963
0.0106146
0.0128099
0.015467
0.0196472
0.00723569
0.00666396
0.0065002
0.00636086
0.00616613
0.00587672
0.00551116
0.00513905
0.00480844
0.00451332
0.00423443
0.00396901
0.0037203
0.00348255
0.00324803
0.00301901
0.00280499
0.00261135
0.00243411
0.00226077
0.00208266
0.00191151
0.00181232
0.00198773
0.00284401
0.00470833
0.00693569
0.00804681
0.00782433
0.00794173
0.00968511
0.011656
0.0130796
0.0143812
0.0141533
0.00715816
0.006707
0.00653949
0.00638201
0.00616861
0.0058788
0.00554251
0.00519645
0.00486751
0.00456426
0.00427808
0.00400459
0.00375305
0.00353306
0.00334233
0.00317133
0.00301102
0.00285526
0.00269712
0.00252844
0.00234185
0.00213705
0.00193931
0.00184833
0.00213905
0.00326826
0.00542395
0.00782175
0.00931359
0.0099723
0.0109816
0.0120578
0.0128293
0.0132142
0.0114742
0.0072411
0.00684896
0.0066371
0.00643532
0.00618127
0.00587921
0.00556653
0.00525202
0.00494457
0.00465209
0.0043721
0.00410087
0.00384634
0.00362599
0.00345
0.00331042
0.00319296
0.00308511
0.00297711
0.00286017
0.00272591
0.00256759
0.00238382
0.00219116
0.00205977
0.00218984
0.00294989
0.00461237
0.00695322
0.00924428
0.0108948
0.0117821
0.0122594
0.0123503
0.0116763
0.00755619
0.00699067
0.00665257
0.00636246
0.00604268
0.00575983
0.00553561
0.00529927
0.00503433
0.00476081
0.00449118
0.00422655
0.00397178
0.003744
0.00356239
0.00342786
0.00332909
0.00325141
0.00318236
0.00311123
0.00303039
0.00293391
0.00281719
0.0026782
0.00252352
0.00238393
0.00236195
0.00268433
0.00370536
0.00577571
0.00813452
0.00977345
0.010663
0.0112291
0.0137148
0.00810871
0.00710125
0.00657266
0.00614928
0.00571895
0.00545453
0.00534675
0.00522992
0.00504766
0.00481822
0.00457012
0.00431916
0.00407433
0.00385005
0.00366572
0.00352861
0.00343241
0.003363
0.00330662
0.00325334
0.0031957
0.00312827
0.00304671
0.00294733
0.00282826
0.00269461
0.00259145
0.00264754
0.00291127
0.00399209
0.00609619
0.00818164
0.00960327
0.0111158
0.0164366
0.00855336
0.00705702
0.0063858
0.00586086
0.0053479
0.00511212
0.00510052
0.00508655
0.00499328
0.00482599
0.00461224
0.0043781
0.00414243
0.00392341
0.00374056
0.00360295
0.00350621
0.00343699
0.00338101
0.00332799
0.00327071
0.00320331
0.00312073
0.00301744
0.00288827
0.00275
0.00275059
0.00317053
0.00364926
0.00446445
0.00640535
0.00844936
0.00998484
0.0119445
0.017295
0.00849916
0.0068218
0.00617371
0.0056587
0.00512583
0.00483014
0.00480358
0.00484468
0.00483636
0.0047495
0.00459564
0.00440011
0.00418831
0.00398332
0.0038062
0.0036683
0.00356818
0.00349481
0.0034346
0.00337691
0.0033144
0.0032413
0.00315071
0.00303414
0.0028803
0.00272979
0.00288463
0.00389021
0.00504924
0.00575506
0.00739807
0.00914569
0.0104834
0.0121879
0.0156645
0.00787911
0.00661479
0.00621043
0.00585259
0.00536285
0.00483584
0.00453874
0.00450042
0.00455521
0.00456992
0.00450726
0.0043776
0.00420818
0.00402885
0.00386534
0.0037319
0.00363067
0.00355434
0.00349195
0.00343453
0.00337518
0.00330957
0.0032336
0.00313531
0.00298954
0.00280624
0.00286748
0.00399011
0.00611389
0.00726641
0.00817831
0.00933909
0.0103375
0.0115484
0.0134516
0.00720305
0.00666991
0.00655345
0.00639707
0.00606795
0.00544206
0.00468032
0.00420742
0.00413847
0.00423105
0.00429232
0.00427101
0.0041785
0.00404624
0.00390778
0.00378462
0.00368595
0.00360965
0.00354803
0.00349492
0.00344632
0.00340158
0.0033632
0.00332753
0.00326374
0.00311472
0.00296126
0.0034346
0.00549749
0.00797553
0.00909136
0.0097418
0.0103434
0.0110866
0.012084
0.00683198
0.00672857
0.00676783
0.00676191
0.00665447
0.00630904
0.00550668
0.00446112
0.00386223
0.00381377
0.00394443
0.00403791
0.0040492
0.00399366
0.00390246
0.00380383
0.003716
0.00364435
0.00358645
0.00353864
0.00349863
0.00347022
0.00346578
0.00350343
0.00357771
0.00360448
0.00348635
0.0034003
0.00417987
0.00649129
0.00881257
0.00988639
0.0104575
0.0109455
0.0118909
0.00683518
0.00665462
0.00667933
0.00671508
0.0067229
0.00663543
0.00625843
0.0052615
0.00408162
0.00357965
0.0036089
0.0037528
0.0038468
0.00386907
0.00383671
0.00377568
0.0037089
0.00364855
0.00359671
0.00355154
0.00351274
0.00348668
0.00349358
0.00357786
0.00378618
0.00405758
0.00421457
0.00415452
0.00411532
0.00485841
0.00677253
0.00860406
0.00956676
0.0102714
0.0128715
0.0070148
0.00661557
0.0065641
0.00655815
0.00655225
0.00651708
0.00637792
0.00587471
0.00471399
0.00370303
0.00343297
0.00352098
0.00364516
0.0037169
0.00373158
0.00370596
0.00366262
0.00361526
0.0035686
0.00352286
0.0034787
0.00344346
0.00344363
0.003555
0.00390124
0.00443901
0.00491799
0.00514782
0.0051057
0.00501
0.00544618
0.00683515
0.00827348
0.00990286
0.0150149
0.00714774
0.00671533
0.00664514
0.00660735
0.00655752
0.00648317
0.00636147
0.0060966
0.00536641
0.00417763
0.00348323
0.00339524
0.00349841
0.00359333
0.00363797
0.00363808
0.00361082
0.00357016
0.00352278
0.0034704
0.00341398
0.00336231
0.00335377
0.00351569
0.00406607
0.00492199
0.00566273
0.00608951
0.00618392
0.00595177
0.00565485
0.00646186
0.00826702
0.0107634
0.0168984
0.0071694
0.0067944
0.00672021
0.00667037
0.00660767
0.00652744
0.00641918
0.00622842
0.00580195
0.00483617
0.00379054
0.0033851
0.00339252
0.00348695
0.00355535
0.00358068
0.0035711
0.00353818
0.00348938
0.00342735
0.00335291
0.00327702
0.00325533
0.00347327
0.00423669
0.0054482
0.00642956
0.00688415
0.00695449
0.0067436
0.00658179
0.00750179
0.00928958
0.0117084
0.0165282
0.0073088
0.00684616
0.00666961
0.0065513
0.00644886
0.00638957
0.00636047
0.00626694
0.00600568
0.00538086
0.00432847
0.0035954
0.00341852
0.00346563
0.00353521
0.00357506
0.00358105
0.00355913
0.00351421
0.00344766
0.00336001
0.0032609
0.00320229
0.00336544
0.00410768
0.00553696
0.00695743
0.00761346
0.00763586
0.0074353
0.00756821
0.00858354
0.00996639
0.011692
0.0143256
0.00780974
0.00696669
0.00656928
0.00629971
0.00607651
0.00600649
0.00607592
0.00610005
0.00595397
0.00554017
0.00473213
0.00390297
0.00355929
0.00353568
0.00359008
0.0036379
0.0036614
0.00365874
0.00362986
0.00357503
0.00349396
0.00339029
0.00329117
0.00329884
0.00368881
0.00481434
0.00650624
0.00788953
0.008406
0.00836822
0.00849666
0.00920548
0.0100785
0.0111129
0.0123552
0.00859606
0.00706774
0.00641343
0.00597457
0.00561721
0.00554956
0.00568892
0.00578392
0.00570933
0.00540526
0.00482881
0.00415645
0.00378614
0.00370611
0.00372832
0.00376657
0.00379547
0.00380714
0.00379886
0.00376957
0.0037179
0.00364327
0.00355141
0.00347237
0.00351269
0.00393709
0.00504666
0.00668125
0.00812249
0.00888127
0.00924548
0.00967884
0.0101593
0.0107442
0.0116821
0.00904142
0.00683708
0.00601532
0.00547035
0.00507706
0.005087
0.0052558
0.00533659
0.00526433
0.00502002
0.0046307
0.00423801
0.00401726
0.00395108
0.00394731
0.0039604
0.00397396
0.00398132
0.00397915
0.00396614
0.00394131
0.00390385
0.00385428
0.00379542
0.00374647
0.00378178
0.0040924
0.00495992
0.00638008
0.0078304
0.00886867
0.00953379
0.00998803
0.0104903
0.0123092
0.0085283
0.00632959
0.00559419
0.00506638
0.00465588
0.00460512
0.00472247
0.0047975
0.00476061
0.00460556
0.00439612
0.00423619
0.00416211
0.00413652
0.00412866
0.00412512
0.00412078
0.00411373
0.00410268
0.00408752
0.00406869
0.00404699
0.00402412
0.0040027
0.00399272
0.00403009
0.00414736
0.0044403
0.00517273
0.00642214
0.00777466
0.00881415
0.00951913
0.0104105
0.0141762
0.00747122
0.00609391
0.00569548
0.0052972
0.00474119
0.00425852
0.00408428
0.00412186
0.00419479
0.00422066
0.00420964
0.00419654
0.00419288
0.00419357
0.00419175
0.00418388
0.00416863
0.00414605
0.0041168
0.00408244
0.00404489
0.00400804
0.0039826
0.00400584
0.00414675
0.00441217
0.00473244
0.00507976
0.00557689
0.00644986
0.00762209
0.00870957
0.00964217
0.0111199
0.0162534
0.00665641
0.00632507
0.0062304
0.00602042
0.00555736
0.00475634
0.00399168
0.00363389
0.00363786
0.00377923
0.00391209
0.00400387
0.0040633
0.00410044
0.00411882
0.00411992
0.00410473
0.00407405
0.004028
0.00396665
0.00389205
0.00381916
0.00381588
0.00407098
0.00469457
0.00530553
0.00568148