/*--------------------------------*- C++ -*----------------------------------*\
| =========                 |                                                 |
| \\      /  F ield         | OpenFOAM: The Open Source CFD Toolbox           |
|  \\    /   O peration     | Version:  v2006                                 |
|   \\  /    A nd           | Website:  www.openfoam.com                      |
|    \\/     M anipulation  |                                                 |
\*---------------------------------------------------------------------------*/
FoamFile
{
    version     2.0;
    format      ascii;
    class       volScalarField;
    location    "71";
    object      omega;
}
// * * * * * * * * * * * * * * * * * * * * * * * * * * * * * * * * * * * * * //

dimensions      [0 0 -1 0 0 0 0];


internalField   nonuniform List<scalar> 
78750
(
2410.66
362.819
253.076
149.963
33.2866
24.7431
23.3663
18.6797
22.1048
19.5503
21.2831
20.0925
20.5766
20.2869
20.2975
20.1938
20.1395
20.0683
20.0035
19.939
19.8756
19.8122
19.7479
19.6815
19.6118
19.537
19.4547
19.3609
19.2502
19.1126
18.931
18.6793
18.3031
17.5322
541.905
691.206
37.8445
26.6022
16.883
11.3354
15.3469
12.737
13.4597
12.8142
12.8627
12.6937
12.6703
12.6324
12.6247
12.6218
12.6213
12.6162
12.6043
12.5848
12.5585
12.5263
12.4893
12.4484
12.4036
12.3548
12.3022
12.2454
12.1845
12.1198
12.0525
11.9821
11.8963
11.733
11.0053
801.395
432.279
14.1701
16.1857
15.3732
14.0389
13.3634
13.5787
13.0871
12.8257
12.5548
12.3744
12.2478
12.1558
12.0817
12.0178
11.96
11.9058
11.8534
11.8012
11.7477
11.692
11.633
11.5689
11.4991
11.4235
11.3425
11.2557
11.1628
11.0632
10.9536
10.814
10.5934
10.2502
10.6879
806.979
414.89
11.4458
11.9095
12.7634
13.8103
14.6506
14.9086
14.9037
14.6279
14.2324
13.8422
13.5318
13.3093
13.1509
13.0327
12.938
12.8562
12.7808
12.7078
12.6344
12.5587
12.4803
12.3994
12.3164
12.2319
12.1468
12.062
11.9792
11.8956
11.8037
11.6969
11.5513
11.2435
10.8374
808.118
413.759
13.6282
14.5055
14.5691
14.4207
14.2633
14.1685
14.1394
14.1206
14.0038
13.7561
13.4242
13.101
12.8694
12.7191
12.6186
12.553
12.5098
12.477
12.4462
12.4118
12.37
12.3184
12.2555
12.1806
12.0938
11.9917
11.8648
11.7026
11.4961
11.2268
10.8439
10.5448
11.9094
812.46
414.944
12.0043
13.1107
13.6992
14.0891
14.3975
14.6362
14.7891
14.8605
14.8646
14.7895
14.6061
14.3006
13.9188
13.5621
13.3106
13.1573
13.0562
12.9817
12.9252
12.8809
12.8432
12.8076
12.7701
12.727
12.6748
12.6087
12.5173
12.3841
12.1961
11.9339
11.5191
10.7464
11.4829
814.024
417.569
13.7745
14.3412
14.5035
14.5277
14.4369
14.2562
14.0495
13.8767
13.7659
13.7066
13.6582
13.5622
13.3671
13.1311
12.9728
12.8829
12.8254
12.7882
12.7673
12.7577
12.7547
12.754
12.7517
12.7441
12.7278
12.6968
12.6392
12.5389
12.3781
12.1273
11.7175
11.341
12.9875
817.255
419.572
13.7034
14.3926
14.6768
14.8328
14.9263
14.9538
14.8992
14.7671
14.5939
14.4247
14.2722
14.1089
13.8822
13.552
13.1899
12.9456
12.8284
12.7663
12.7328
12.7217
12.7261
12.7399
12.7571
12.772
12.7792
12.7727
12.7443
12.6805
12.5579
12.3372
11.9066
11.2244
12.9834
818.974
421.584
14.3123
14.6272
14.7115
14.6927
14.5513
14.2876
13.9653
13.6609
13.417
13.2486
13.1403
13.055
12.9569
12.8411
12.7419
12.6779
12.6395
12.6215
12.6229
12.6405
12.6702
12.7077
12.7483
12.7877
12.8211
12.8448
12.8529
12.8336
12.7658
12.6095
12.2843
12.0409
14.2429
821.431
421.008
14.412
15.0021
15.2143
15.3
15.2824
15.1316
14.8664
14.54
14.1845
13.8333
13.5275
13.2805
13.0602
12.8493
12.6785
12.5742
12.521
12.496
12.4923
12.5075
12.5384
12.5811
12.6309
12.6823
12.7302
12.7705
12.7967
12.7969
12.7505
12.6165
12.3201
12.2933
14.9209
823.016
421.344
14.8129
15.3309
15.4788
15.4776
15.3051
14.9271
14.4385
13.9767
13.5948
13.285
13.0331
12.8443
12.7182
12.6343
12.5761
12.5352
12.5062
12.4882
12.4825
12.4896
12.5093
12.5405
12.5816
12.6322
12.6913
12.7542
12.814
12.8595
12.8698
12.8041
12.6131
12.9034
15.8384
824.359
421.881
15.2851
15.9551
16.1555
16.1916
16.0862
15.7919
15.3418
14.8369
14.3273
13.8262
13.3518
12.94
12.6466
12.4893
12.4228
12.3988
12.3909
12.3916
12.3983
12.4099
12.4258
12.4464
12.4723
12.5044
12.5429
12.5866
12.6347
12.6834
12.7221
12.7291
12.7041
13.3262
16.4369
825.169
422.338
15.5866
16.2265
16.3758
16.3315
16.0884
15.6267
15.1031
14.6757
14.3307
13.9961
13.6236
13.2054
12.8058
12.5258
12.387
12.3251
12.2992
12.2959
12.3076
12.3289
12.3561
12.387
12.4223
12.4626
12.5053
12.5467
12.5842
12.6142
12.631
12.6291
12.6664
13.5385
16.7966
825.984
426.546
16.6361
17.0025
16.9878
16.7866
16.3649
15.7576
15.1419
14.6876
14.3919
14.1542
13.8947
13.5598
13.1408
12.7221
12.4324
12.2873
12.206
12.1584
12.1379
12.1376
12.1515
12.1753
12.2073
12.2511
12.3088
12.3793
12.4591
12.5385
12.6014
12.6301
12.7047
13.8482
17.2831
827.343
428.831
16.8843
16.9903
16.8003
16.3675
15.7184
15.0728
14.5894
14.2934
14.1296
14.0151
13.8883
13.7055
13.4256
13.0486
12.6722
12.4155
12.2617
12.1546
12.0745
12.0175
11.979
11.9548
11.941
11.9361
11.9436
11.9737
12.0401
12.1536
12.3177
12.5352
12.9363
14.6334
18.174
828.664
432.71
17.4994
17.2915
16.8223
16.043
15.267
14.7433
14.4581
14.3131
14.2155
14.1264
14.0227
13.8821
13.6762
13.3823
13.0216
12.6858
12.4502
12.2891
12.1607
12.0509
11.9573
11.8768
11.8058
11.7372
11.6662
11.5986
11.5522
11.5635
11.704
12.1306
13.2163
15.8613
19.2894
829.447
436.99
17.7976
17.1542
16.2477
15.1077
14.4455
14.169
14.0606
14.0598
14.0779
14.0705
14.0329
13.9564
13.8243
13.6186
13.3385
13.0266
12.754
12.5496
12.3917
12.2537
12.1262
12.008
11.8955
11.7801
11.655
11.5176
11.3716
11.2388
11.2063
11.5905
13.1591
16.6446
19.9721
829.655
439.977
17.8445
16.8014
15.451
14.286
13.9459
13.93
13.9618
14.0088
14.0509
14.0715
14.0643
14.0238
13.9404
13.8019
13.602
13.3554
13.1027
12.882
12.7003
12.5441
12.3997
12.2597
12.1198
11.976
11.8233
11.6548
11.4639
11.2488
11.0503
11.188
12.8434
16.887
20.2585
829.911
434.706
17.143
16.6286
15.8382
15.0869
14.4933
14.0455
13.7961
13.7101
13.724
13.7832
13.8454
13.8846
13.8853
13.837
13.7341
13.582
13.3987
13.2109
13.0369
12.8784
12.7287
12.5813
12.4321
12.2773
12.1129
11.9328
11.7288
11.4898
11.2134
11.0946
12.4614
16.8189
20.3561
830.397
428.235
17.5644
18.0957
18.1974
17.9563
17.34
16.4606
15.5051
14.6296
13.9453
13.5175
13.3426
13.3474
13.4311
13.5158
13.5584
13.5429
13.4717
13.3609
13.2312
13.0959
12.9595
12.8206
12.676
12.5222
12.3557
12.1715
11.963
11.7187
11.4253
11.2285
12.455
16.8745
20.5245
831.242
423.546
17.4554
18.5551
18.9866
19.206
19.2594
19.0581
18.517
17.6518
16.5479
15.3393
14.2064
13.3421
12.8735
12.7733
12.8819
13.0408
13.1602
13.2132
13.2058
13.1548
13.0749
12.9746
12.8572
12.723
12.57
12.3951
12.193
11.9537
11.6578
11.4408
12.7302
17.1157
20.7965
832.205
423.201
16.5831
17.7921
18.3456
18.7032
18.9965
19.2439
19.4031
19.3634
18.9897
18.2248
17.1057
15.7403
14.3141
13.0951
12.3576
12.167
12.3028
12.5144
12.6853
12.7907
12.838
12.8395
12.8033
12.7328
12.628
12.4864
12.3046
12.0774
11.8011
11.689
13.3487
17.759
21.2969
833.161
424.002
16.607
17.9176
18.4892
18.7592
18.881
18.9175
18.9207
18.9467
19.0084
19.0148
18.7925
18.1846
17.1309
15.6842
14.0328
12.5815
11.7882
11.6641
11.8359
12.0441
12.2115
12.3308
12.4097
12.4538
12.4631
12.4321
12.3511
12.2078
11.9938
11.8852
13.5234
18.423
21.7672
833.492
428.929
18.1811
19.2612
19.7292
19.9469
20.0148
19.9461
19.7195
19.3185
18.8307
18.4962
18.4252
18.4251
18.2678
17.7527
16.648
14.9356
13.0815
11.8119
11.3837
11.4265
11.5879
11.741
11.8621
11.9541
12.0235
12.0721
12.0947
12.0813
12.0241
12.0043
13.1779
18.4904
21.8994
833.503
433.887
18.6437
19.2248
19.5105
19.6814
19.7842
19.823
19.7879
19.6435
19.2792
18.7088
18.2125
17.9572
17.8395
17.7147
17.416
16.5205
14.7753
12.8788
11.66
11.254
11.2653
11.3857
11.511
11.6215
11.7181
11.8057
11.8848
11.9469
11.9765
11.9852
12.481
17.4194
21.413
834.025
438.943
19.1713
19.3687
19.4568
19.4738
19.4122
19.2524
19.031
18.9094
18.8716
18.7198
18.4151
18.0651
17.7519
17.467
17.1368
16.5667
15.291
13.4717
11.9902
11.277
11.114
11.1588
11.2508
11.3467
11.4399
11.5348
11.6377
11.7475
11.8435
11.9263
11.8863
15.8514
20.5745
835.982
440.387
19.4291
19.6532
19.7709
19.8025
19.7245
19.485
19.0701
18.6757
18.5022
18.4354
18.3302
18.1414
17.8641
17.4959
16.9968
16.2301
14.9426
13.2607
11.9037
11.2593
11.0973
11.1089
11.1628
11.2217
11.2837
11.3538
11.4397
11.5325
11.5761
11.6563
11.8658
16.2636
21.4181
840.668
439.74
19.3499
19.5298
19.5997
19.608
19.564
19.4552
19.2375
18.9186
18.645
18.4785
18.3465
18.1854
17.9576
17.6177
17.0781
16.1725
14.7468
13.0624
11.8047
11.2472
11.1033
11.0908
11.1049
11.1189
11.1323
11.1587
11.2172
11.3167
11.5919
12.3128
14.2164
19.4113
24.27
847.061
440.046
19.4353
19.4039
19.2721
19.0791
18.8993
18.7993
18.7513
18.6761
18.5516
18.4208
18.2873
18.1255
17.9059
17.5818
17.0536
16.1343
14.6902
13.0587
11.925
11.448
11.303
11.2444
11.1888
11.1126
11.0162
10.9233
10.9079
11.3211
12.8811
15.2134
18.0971
22.1943
26.1506
849.386
442.681
19.972
19.6593
19.2672
18.8336
18.5726
18.4724
18.4474
18.4605
18.4537
18.3952
18.2866
18.1276
17.9029
17.5726
17.0458
16.1554
14.768
13.1921
12.1184
11.6768
11.534
11.4561
11.3642
11.2307
11.0539
10.8833
10.9813
12.1758
15.283
18.995
21.4589
23.8278
26.3657
843.518
447.754
20.2635
19.3833
18.5094
17.8445
17.8646
18.0565
18.1772
18.2615
18.3162
18.314
18.2486
18.1197
17.9152
17.6006
17.1025
16.2993
15.0951
13.6845
12.6114
12.0923
11.8864
11.7711
11.6524
11.4808
11.2368
10.9659
10.9546
12.1046
15.485
20.3212
23.4564
24.7406
26.0492
836.352
451.721
20.1583
18.6042
17.0467
16.4784
17.0963
17.6239
17.9145
18.0707
18.1421
18.147
18.0909
17.971
17.7734
17.4669
16.9949
16.2801
15.2839
14.1508
13.2192
12.6759
12.4123
12.2744
12.1756
12.0578
11.8786
11.6136
11.3279
11.4446
13.0962
17.1024
21.6875
23.8183
25.0771
833.18
449.66
19.4022
17.6901
15.8461
15.5383
16.2959
16.8523
17.2389
17.4995
17.6506
17.7093
17.6867
17.5851
17.3955
17.0959
16.6511
16.0246
15.2295
14.3844
13.6724
13.1875
12.8944
12.7195
12.6108
12.5323
12.4507
12.3232
12.1194
11.9068
12.0257
13.3417
16.7788
20.7555
23.1123
832.577
444.287
18.7616
17.6867
16.3158
15.229
15.0655
15.3841
15.8411
16.2561
16.5617
16.7494
16.8219
16.7831
16.6306
16.3564
15.9514
15.4284
14.8405
14.2693
13.7828
13.4062
13.129
12.9324
12.7989
12.7165
12.6672
12.6121
12.5959
12.7718
13.0769
13.3685
14.2386
18.0499
21.5572
833.709
440.797
19.1393
18.7963
18.0627
16.5209
14.7693
13.854
13.8539
14.3093
14.8269
15.2369
15.4964
15.6022
15.5601
15.3819
15.0836
14.7014
14.2869
13.8873
13.5257
13.207
12.9279
12.6865
12.4894
12.3538
12.3049
12.4678
13.0696
14.067
15.0276
15.474
15.4882
18.1106
21.8761
836.897
439.307
19.5519
19.6083
19.3321
18.5833
16.9142
14.7731
13.1592
12.5638
12.7732
13.2906
13.7843
14.1318
14.3109
14.331
14.2151
13.997
13.7157
13.4062
13.0892
12.7678
12.4384
12.1048
11.7813
11.5175
11.5693
12.7428
14.6616
16.2905
17.4415
17.9598
18.2058
20.2156
23.4366
839.921
436.983
19.1159
19.5154
19.6573
19.6082
19.1551
17.8363
15.7771
13.6661
12.1625
11.614
11.8177
12.3109
12.77
13.0722
13.2006
13.1794
13.0432
12.8226
12.5389
12.1996
11.8012
11.3382
10.832
10.4261
10.8999
13.6335
17.0229
18.7405
19.5773
20.1102
20.7592
22.2994
24.6496
840.123
434.456
18.6373
19.245
19.5742
19.8209
20.0008
19.9703
19.3114
17.7723
15.6423
13.3973
11.6143
10.7728
10.8374
11.3177
11.7916
12.0958
12.2154
12.1772
12.0083
11.7221
11.3135
10.7752
10.1235
9.51554
9.89512
13.0794
17.9986
20.7885
21.4101
21.7733
22.4242
23.4883
25.0414
837.907
432.972
18.5895
19.2423
19.4768
19.5917
19.7048
19.9031
20.1822
20.2634
19.6906
18.243
16.0879
13.579
11.2937
9.95044
9.81371
10.3169
10.8437
11.171
11.2861
11.2163
10.9747
10.5561
9.95693
9.22629
8.83485
10.5445
15.4842
20.6206
22.7157
23.1813
23.5654
24.1647
25.1147
835.853
434.166
19.2489
19.881
20.0144
19.9503
19.7613
19.5109
19.3768
19.5765
20.0235
20.3012
19.9624
18.6961
16.5283
13.7419
10.9187
9.10179
8.889
9.46922
10.0329
10.3648
10.4594
10.3389
10.013
9.48242
8.8172
8.63096
10.8819
16.2811
21.4299
23.5003
24.1964
24.6484
25.3166
835.957
438.513
20.0806
20.3658
20.3503
20.2332
20.0489
19.8229
19.5458
19.2228
19.0965
19.3823
19.8585
20.1308
19.8745
18.6898
16.3869
13.1953
10.0166
8.36563
8.42532
9.00791
9.48798
9.75106
9.7964
9.63348
9.2674
8.7545
8.57948
10.6774
16.4174
21.2616
23.4835
24.4639
25.3798
838.447
446.924
20.9468
20.5075
20.1333
19.7791
19.4364
19.2888
19.4556
19.6377
19.5743
19.3976
19.396
19.5791
19.7566
19.7641
19.2905
17.6431
14.5779
11.0641
8.79563
8.30806
8.64088
9.05801
9.35336
9.4852
9.44315
9.22786
8.82221
8.49337
10.9814
17.0661
21.2796
23.5077
25.3582
843.194
454.793
21.1806
20.2813
19.7265
19.1925
18.6353
18.347
18.6094
19.145
19.5612
19.7366
19.7232
19.6479
19.5789
19.4925
19.3128
18.773
17.0493
13.9565
10.8049
9.05179
8.68889
8.88334
9.16233
9.38224
9.49153
9.46749
9.227
8.58539
9.42531
14.4905
19.7497
23.0681
25.9313
849.314
454.789
20.5726
19.9458
19.6053
19.192
18.6549
18.1746
18.0146
18.2271
18.6166
18.9836
19.2276
19.3177
19.2656
19.0921
18.7776
18.1899
16.9092
14.5219
11.7528
9.95817
9.36583
9.32808
9.43868
9.55891
9.62386
9.58569
9.32283
9.07916
10.8941
15.2376
20.2356
23.7429
27.0835
854.394
448.289
20.1996
20.2137
20.1601
19.9164
19.398
18.5732
17.6397
17.0362
16.9743
17.271
17.647
17.9263
18.027
17.9018
17.4859
16.639
15.1944
13.2635
11.5402
10.6352
10.2991
10.174
10.1104
10.0474
9.93858
9.73418
9.51482
10.6989
14.4389
18.1652
22.1518
25.1358
28.2773
855.631
443.853
20.5194
20.8463
20.9259
20.8213
20.4542
19.6578
18.331
16.7911
15.6489
15.2308
15.3549
15.6426
15.8051
15.6755
15.168
14.3442
13.4523
12.7073
12.1576
11.7796
11.5083
11.2876
11.0778
10.8484
10.5652
10.1913
9.95931
11.7959
17.3992
21.1972
24.1621
26.4136
28.9021
852.843
441.435
20.3715
20.8508
21.0944
21.2295
21.2237
20.9509
20.1878
18.7804
16.9501
15.2178
14.0486
13.5489
13.4816
13.5645
13.6555
13.6761
13.5813
13.3942
13.1744
12.9533
12.7299
12.4957
12.2427
11.9601
11.6336
11.2351
10.7733
11.1786
16.2077
21.894
24.8885
26.7622
28.7469
850.413
440.082
20.0991
20.6182
20.8964
21.1008
21.2814
21.4372
21.4986
21.2555
20.4266
18.9483
17.0522
15.1315
13.6286
12.8358
12.689
12.8736
13.1049
13.2595
13.3263
13.3283
13.2818
13.1905
13.0497
12.8501
12.583
12.2545
11.888
11.6067
13.3722
20.1154
24.2049
26.4131
28.5167
852.454
441.625
20.5321
20.9256
21.0786
21.1247
21.1053
21.0561
21.0465
21.1578
21.3468
21.3625
20.8829
19.7202
17.9045
15.6537
13.4729
12.1092
11.7934
12.0323
12.3788
12.6669
12.8727
13.0095
13.0882
13.1019
13.0194
12.7933
12.3939
12.2228
13.2025
18.7282
23.6806
26.4349
29.0223
857.814
447.7
21.3909
21.4334
21.456
21.4442
21.3658
21.17
20.8019
20.2835
19.8416
19.7568
19.9447
20.0414
19.6537
18.3487
16.0786
13.5614
11.8128
11.2517
11.4142
11.7605
12.0871
12.3627
12.6023
12.828
13.0251
13.0699
12.7694
12.6631
14.9709
19.0523
23.9132
26.8509
29.7749
861.387
453.072
21.6248
21.3144
21.2182
21.1793
21.1429
21.0723
20.9179
20.5693
19.9315
19.1736
18.6425
18.3942
18.1879
17.6063
16.1129
13.9846
12.2181
11.4321
11.401
11.6216
11.8643
12.0908
12.319
12.5972
12.9683
13.2718
13.1821
13.3912
17.2296
21.3612
25.0614
27.6292
30.3825
859.765
454.072
21.4092
21.0425
20.8977
20.7686
20.5865
20.3482
20.137
19.9947
19.7977
19.3877
18.775
18.1065
17.419
16.5516
15.236
13.6082
12.325
11.7705
11.7201
11.8536
12.0335
12.2237
12.4327
12.7195
13.1938
13.7588
13.9429
14.1079
17.8425
24.1841
27.0994
28.8894
30.8415
854.986
453.461
21.3556
21.0462
20.9106
20.7552
20.4922
20.0858
19.6157
19.2376
18.996
18.7732
18.4195
17.8569
17.0752
16.0477
14.7682
13.4775
12.5896
12.2037
12.1233
12.179
12.3024
12.4711
12.6866
12.9983
13.5656
14.4542
15.1291
15.2378
16.4686
22.7839
26.7532
28.5178
29.9544
853.923
453.228
21.3009
20.9561
20.777
20.5797
20.2922
19.8954
19.4133
18.9082
18.4616
18.0773
17.6715
17.1378
16.4015
15.4522
14.3854
13.4501
12.8568
12.5616
12.4361
12.4052
12.4449
12.5624
12.7935
13.2537
14.204
15.5802
16.8185
17.4019
17.0243
19.3268
23.8444
26.7342
29.3437
862.986
452.282
21.1584
20.8332
20.6228
20.3581
19.9787
19.5215
19.0555
18.5797
18.0978
17.6294
17.1511
16.5985
15.917
15.1123
14.2781
13.5702
13.0783
12.7613
12.5459
12.3888
12.2891
12.3033
12.6146
13.6477
15.6346
17.6736
18.9401
19.3074
18.8063
19.865
24.3041
27.6826
31.3051
870.937
451.498
21.2354
20.9713
20.7607
20.4603
19.9964
19.4099
18.8352
18.3137
17.8077
17.3028
16.7991
16.2717
15.6835
15.0312
14.368
13.7747
13.2949
12.9127
12.5833
12.2688
11.9824
11.8908
12.4932
14.5012
17.7117
20.3377
21.1146
20.6982
20.9891
23.4634
26.9852
29.5254
32.3126
861.264
450.931
21.2622
21.0207
20.8112
20.5109
20.0514
19.4515
18.8207
18.2415
17.7061
17.182
16.6666
16.1677
15.6747
15.1716
14.6636
14.1728
13.7146
13.2825
12.8452
12.38
11.9143
11.624
12.0681
14.1424
17.923
21.709
23.4991
23.2909
23.445
25.7531
28.1475
29.7542
31.1344
845.105
450.484
21.3232
21.0786
20.8432
20.5159
20.0576
19.5069
18.9211
18.3465
17.7996
17.2659
16.7386
16.2378
15.7862
15.3835
15.0133
14.6582
14.306
13.941
13.5425
13.0885
12.5704
12.0405
11.754
12.4285
14.9505
19.004
22.8495
25.107
26.1056
27.364
28.6112
29.4801
29.9205
837.498
450.898
21.5388
21.2339
20.9342
20.5458
20.067
19.5525
19.0193
18.484
17.9603
17.4434
16.9263
16.4255
15.9789
15.613
15.3165
15.0636
14.8283
14.5903
14.3295
14.0254
13.6594
13.2217
12.7408
12.3762
12.6183
14.2736
17.5182
21.4334
24.8101
27.0338
28.1612
28.7493
28.9064
838.53
452.572
21.7586
21.2695
20.8361
20.3443
19.8913
19.5154
19.109
18.6459
18.1582
17.665
17.1666
16.6719
16.2165
15.8442
15.5629
15.3535
15.1871
15.0385
14.8849
14.7088
14.4966
14.2363
13.9205
13.5591
13.2157
13.124
13.8039
15.8996
19.6431
23.303
25.6077
26.8048
27.6015
845.072
455.571
21.9356
21.157
20.51
19.8305
19.3973
19.2107
19.0024
18.678
18.266
17.8125
17.3425
16.8711
16.427
16.053
15.7694
15.5678
15.4211
15.301
15.1867
15.0618
14.9144
14.734
14.5111
14.2401
13.9312
13.6964
13.8594
14.4707
16.7107
20.455
23.626
25.5889
27.5689
853.136
458.079
21.8892
20.8748
20.0459
19.2053
18.812
18.7943
18.7648
18.5932
18.2883
17.8954
17.4569
17.0049
16.5738
16.2053
15.9227
15.7215
15.5762
15.4578
15.3445
15.2209
15.0736
14.8908
14.6585
14.3627
14.0432
14.071
15.1035
16.2009
17.8005
21.1212
24.1203
26.154
28.5513
855.158
457.977
21.5434
20.5274
19.6855
18.7876
18.2962
18.2721
18.3498
18.3284
18.1631
17.8748
17.5058
17.0993
16.6975
16.3428
16.0616
15.8548
15.702
15.5756
15.4537
15.3206
15.1637
14.9669
14.7101
14.3625
14.0136
14.377
16.574
18.8751
20.1048
22.6073
25.0224
26.7314
28.7587
849.999
454.718
21.2042
20.5491
19.9563
19.1326
18.2449
17.763
17.7271
17.8327
17.8511
17.7249
17.474
17.1459
16.7943
16.4685
16.1983
15.9908
15.8331
15.7034
15.5839
15.4602
15.323
15.1639
14.9568
14.6428
14.229
14.3381
16.6594
20.525
22.4602
23.7409
25.2684
26.5324
28.0002
843.362
450.951
21.2686
21.0763
20.8199
20.2778
19.2315
17.9339
17.13
17.0456
17.23
17.3375
17.2856
17.0989
16.8362
16.5597
16.311
16.1097
15.953
15.8263
15.7169
15.6171
15.5259
15.4501
15.3846
15.2661
14.9637
14.6158
15.5432
19.3271
23.3031
24.9675
25.8278
26.5885
27.5079
839.367
448.776
21.3693
21.4361
21.4248
21.2471
20.6768
19.3331
17.5153
16.4491
16.4017
16.6691
16.8457
16.8584
16.7414
16.5552
16.3542
16.1745
16.0273
15.9079
15.8093
15.7271
15.6697
15.6639
15.7506
15.9232
16.0116
15.8019
15.6001
17.0136
20.9077
24.4035
25.9261
26.6885
27.3196
839.003
448.702
21.2631
21.3221
21.3873
21.4022
21.258
20.629
18.9298
16.807
15.8795
15.9765
16.2755
16.46
16.4978
16.4267
16.2989
16.1603
16.0349
15.927
15.8327
15.7514
15.6967
15.7117
15.8906
16.3301
16.8999
17.2495
17.1759
17.0753
18.3031
21.3673
24.0917
25.4522
26.4418
842.308
449.675
21.1897
21.1295
21.1345
21.1384
21.093
20.8712
20.0196
17.972
16.0777
15.5793
15.7867
16.0462
16.1893
16.2138
16.1571
16.0649
15.9648
15.8661
15.769
15.6746
15.5985
15.5978
15.8347
16.5566
17.6263
18.5373
18.9798
18.9338
18.7385
19.3701
21.5636
23.7515
26.061
849.003
450.44
21.3373
21.2419
21.1933
21.1267
21.023
20.8414
20.4134
19.1538
16.9826
15.6469
15.5043
15.7346
15.9327
16.0216
16.0179
15.958
15.8707
15.7693
15.6567
15.5344
15.421
15.401
15.7503
16.8879
18.521
19.8231
20.5369
20.7018
20.3358
19.8397
21.1589
23.8782
27.192
854.362
450.563
21.4659
21.3691
21.3031
21.2148
21.0969
20.9323
20.6316
19.9228
18.2176
16.2459
15.4577
15.4995
15.7061
15.849
15.8996
15.8772
15.8063
15.7017
15.5683
15.4067
15.2398
15.1897
15.6562
17.2028
19.4232
21.0604
21.7705
21.8765
21.5712
21.3758
22.8072
25.279
28.2647
852.769
451.262
21.5468
21.304
21.1394
20.9951
20.9103
20.8633
20.7108
20.2839
19.2158
17.3005
15.8789
15.5394
15.6522
15.8023
15.8864
15.8989
15.8531
15.7589
15.6182
15.4311
15.216
15.083
15.4191
16.9075
19.5027
21.8291
22.8539
22.9095
22.6361
22.8621
24.3021
26.1049
28.1884
845.992
453.915
21.727
21.1512
20.7524
20.4197
20.3204
20.4331
20.4668
20.2238
19.526
18.0858
16.5065
15.825
15.7888
15.9087
16.0113
16.0622
16.0588
16.0013
15.8901
15.7235
15.5069
15.2929
15.2922
16.0618
18.1678
21.0176
23.167
23.9828
23.9893
24.1891
25.1316
26.2426
27.5117
840.155
458.197
21.8975
20.9224
20.244
19.6774
19.5734
19.8089
19.9665
19.8405
19.3218
18.2943
17.0221
16.2892
16.1329
16.1843
16.2667
16.3288
16.3554
16.3417
16.286
16.1852
16.0376
15.8525
15.6865
15.7491
16.5495
18.5517
21.2466
23.4496
24.5948
25.1465
25.7317
26.3488
27.091
838.337
460.815
21.5824
20.3087
19.4233
18.7618
18.7862
19.0841
19.2244
19.097
18.6616
17.9438
17.1879
16.7521
16.6234
16.6199
16.6493
16.6789
16.6957
16.6934
16.6698
16.6232
16.5521
16.4576
16.3447
16.2489
16.3103
16.8826
18.4357
20.7977
23.0257
24.5409
25.4762
26.0949
26.7727
840.534
458.311
20.7954
19.5892
18.6881
17.9781
17.9229
18.1551
18.2891
18.2113
17.9119
17.5034
17.1864
17.04
16.9911
16.9774
16.9718
16.9641
16.9508
16.9292
16.8993
16.8619
16.819
16.774
16.7335
16.721
16.8108
17.0549
17.609
18.9115
20.9753
23.0348
24.5223
25.5
26.71
846.447
452.563
20.3684
19.6938
19.011
18.0466
17.2134
16.9387
17.0322
17.1647
17.1964
17.1595
17.1252
17.1141
17.1134
17.1084
17.0919
17.061
17.0155
16.9566
16.887
16.8103
16.7342
16.6816
16.7344
17.0369
17.5775
18.1935
18.8412
19.73
21.1647
22.9353
24.4713
25.7332
27.6263
852.53
447.898
20.7107
20.5511
20.2011
19.4143
18.0187
16.6435
16.0086
16.0589
16.3489
16.6042
16.7751
16.8839
16.9509
16.9825
16.9812
16.9485
16.8856
16.7921
16.6673
16.5146
16.3651
16.3635
16.8953
18.1215
19.2431
19.8793
20.6452
21.8924
23.254
24.5662
25.7558
26.9318
28.8112
852.341
445.637
20.962
21.0565
21.0019
20.7527
19.9775
18.3551
16.496
15.3843
15.295
15.6767
16.0725
16.3673
16.5662
16.6882
16.7476
16.7514
16.7025
16.6007
16.4442
16.2365
16.0371
16.1376
17.2071
19.4476
21.4382
22.044
22.2762
23.3107
24.7738
25.9414
26.8397
27.7047
28.9403
845.481
445.683
20.8785
20.9277
20.9311
20.9182
20.8399
20.3171
18.7692
16.5347
14.918
14.6559
15.1006
15.6067
16.0001
16.2802
16.4673
16.5765
16.6153
16.5833
16.4771
16.2973
16.0826
16.0463
16.8153
19.0685
22.0832
24.0314
24.5173
24.7189
25.399
26.2191
26.8879
27.4534
28.0459
838.314
448.932
21.223
20.9313
20.672
20.3881
20.1575
20.178
19.977
18.612
16.2434
14.5998
14.4036
14.8681
15.3804
15.7971
16.1178
16.3543
16.5153
16.6056
16.627
16.5792
16.4697
16.3559
16.4964
17.533
19.9442
22.9293
25.1994
26.2758
26.6225
26.8641
27.1176
27.3469
27.5128
835.338
454.567
21.7952
21.1519
20.6951
20.174
19.5072
19.041
18.9925
18.6539
17.1878
15.3313
14.5601
14.7276
15.1598
15.5641
15.8966
16.1694
16.3928
16.5701
16.7032
16.795
16.8469
16.8633
16.8798
17.0677
17.8683
19.7075
22.3204
24.9137
26.6175
27.3404
27.6095
27.7195
27.7228
836.866
458.211
21.6057
20.6885
20.1117
19.5073
18.8968
18.3288
17.886
17.4015
16.5153
15.4273
14.9733
15.0979
15.3861
15.6716
15.928
16.1582
16.3665
16.5546
16.7249
16.8795
17.0203
17.1506
17.2725
17.396
17.6019
18.1323
19.3192
21.3472
23.7916
25.6441
26.646
27.1229
27.4113
841.916
457.284
20.9277
19.9346
19.2121
18.3529
17.7157
17.3414
16.9153
16.3501
15.7319
15.3428
15.3374
15.4877
15.6663
15.8466
16.0226
16.191
16.351
16.5028
16.6494
16.7956
16.943
17.0861
17.2519
17.5743
18.0794
18.6142
19.1275
19.8154
21.1653
23.0699
24.751
25.901
27.23
851.504
454.245
20.6433
19.801
19.0573
17.9876
17.0222
16.5096
16.1341
15.7408
15.421
15.3361
15.4459
15.5955
15.7378
15.8667
15.983
16.0886
16.1854
16.2757
16.3653
16.4635
16.5856
16.7921
17.3205
18.2786
19.3293
20.0968
20.4697
20.5852
21.124
22.6819
24.578
26.2761
28.7885
861.357
453.1
20.7226
19.9397
19.2372
18.1679
16.9232
16.1344
15.7041
15.3876
15.1804
15.153
15.2632
15.4062
15.5364
15.6428
15.7237
15.7801
15.8146
15.8322
15.8485
15.9187
16.2524
17.2578
18.8044
20.2352
21.3073
22.0169
22.324
22.4523
23.0942
24.5528
26.2147
27.8741
30.4246
860.96
453.363
20.5658
19.6969
18.9666
17.9363
16.7317
15.8635
15.4022
15.1056
14.9259
14.9035
14.9997
15.1283
15.2444
15.3328
15.3887
15.4093
15.392
15.3419
15.3096
15.523
16.5862
18.8384
21.1249
22.3232
22.9577
23.6525
24.3326
24.8241
25.5475
26.6262
27.7262
28.8767
30.5
850.698
452.995
20.2993
19.3875
18.5747
17.4224
16.2598
15.5052
15.1178
14.8906
14.7605
14.7471
14.8239
14.9303
15.03
15.1071
15.1528
15.1584
15.1147
15.0244
14.9621
15.2537
16.6562
19.6029
22.7737
24.264
24.4782
24.7563
25.5863
26.4943
27.2396
27.9204
28.5004
29.0154
29.481
840.467
451.24
20.153
19.3846
18.6274
17.4126
15.9869
15.129
14.8024
14.6724
14.6196
14.6415
14.7217
14.8246
14.9244
15.0085
15.068
15.0923
15.0673
14.9826
14.8704
14.9327
15.7778
18.2095
21.8788
24.9026
26.0877
26.182
26.3399
26.9548
27.6427
28.157
28.4699
28.5808
28.339
835.187
449.042
20.1634
19.6005
19.0357
18.0629
16.4866
15.081
14.5083
14.4115
14.4472
14.5292
14.6389
14.7603
14.8779
14.9833
15.0719
15.1382
15.1722
15.1589
15.0897
15.0082
15.1472
16.1389
18.644
22.1594
25.2535
27.0186
27.5182
27.5787
27.7495
27.9588
28.0708
27.9991
27.5742
834.003
448.627
20.3344
19.7799
19.2792
18.5554
17.3402
15.6472
14.4615
14.1334
14.2026
14.3645
14.5347
14.6993
14.8527
14.9913
15.1147
15.2236
15.3173
15.3898
15.4299
15.425
15.3929
15.5005
16.2276
18.153
21.1525
24.3669
26.8573
27.9853
28.179
28.1614
28.0774
27.8978
27.5244
835.615
450.725
20.5522
19.7927
19.1427
18.3239
17.4302
16.1797
14.7728
14.0643
14.0151
14.203
14.4261
14.6371
14.8271
14.9949
15.1444
15.2822
15.4148
15.5466
15.6795
15.805
15.9029
15.9644
16.0604
16.466
17.663
19.9518
23.0219
25.9706
27.6661
28.2002
28.3001
28.2177
28.0261
839.087
453.407
20.6006
19.6224
18.7833
17.6529
16.653
15.868
14.8938
14.171
14.0226
14.1781
14.4078
14.6352
14.8399
15.0192
15.1797
15.33
15.4793
15.6367
15.812
16.0104
16.2256
16.4377
16.6187
16.7666
16.9928
17.6292
19.1721
21.852
24.9716
26.9484
27.7879
28.131
28.3768
844.098
453.645
20.3721
19.4044
18.5326
17.2112
15.8866
15.1226
14.5581
14.1352
14.0489
14.1909
14.4014
14.6148
14.8125
14.9899
15.1514
15.3052
15.4608
15.6288
15.8229
16.0577
16.3404
16.6686
17.0222
17.3574
17.6208
17.8166
18.1311
19.0823
21.4106
24.3533
26.281
27.3754
28.4527
850.31
450.962
20.1387
19.4691
18.8058
17.6194
15.9769
14.7687
14.1672
13.8932
13.8849
14.0504
14.267
14.48
14.6764
14.8555
15.0196
15.1756
15.3332
15.5037
15.7027
15.9508
16.2667
16.6633
17.1396
17.6664
18.1741
18.5666
18.7864
18.9247
19.6393
22.0464
24.7771
26.7572
28.8564
856.359
448.222
20.2222
19.8853
19.5337
18.7906
17.2374
15.3496
14.086
13.535
13.4525
13.6288
13.8855
14.1358
14.3586
14.5558
14.733
14.8986
15.0633
15.2408
15.45
15.7167
16.0725
16.5438
17.1442
17.8546
18.5993
19.2504
19.6771
19.7881
19.8784
21.5736
24.5785
26.98
29.6012
859.099
447.69
20.4374
20.1918
20.0007
19.6617
18.7501
16.883
14.8651
13.5682
13.0773
13.1145
13.3721
13.6668
13.9329
14.1608
14.3567
14.532
14.6999
14.8768
15.0862
15.363
15.7576
16.3183
17.0751
18.0048
18.9973
19.8853
20.518
20.8085
21.0809
22.7223
25.4821
27.6684
30.098
856.864
449.286
20.5294
20.0916
19.821
19.579
19.16
17.9846
15.9819
14.1226
13.0512
12.7514
12.8952
13.187
13.4805
13.7354
13.9506
14.1382
14.3134
14.4938
14.7065
14.9967
15.4359
16.0992
17.0357
18.2101
19.4582
20.5635
21.39
21.9537
22.6735
24.3846
26.5082
28.1867
30.0673
851.724
452.328
20.6246
19.8158
19.3017
18.9672
18.6757
17.9923
16.5133
14.691
13.3396
12.7321
12.6869
12.9023
13.1734
13.4211
13.6307
13.8117
13.9781
14.1471
14.348
14.6366
15.107
15.8635
16.9733
18.3878
19.892
21.2213
22.2636
23.1233
24.1661
25.7029
27.1681
28.3407
29.6293
846.864
454.796
20.4469
19.2338
18.4629
18.1006
17.8704
17.3272
16.2567
14.8023
13.5624
12.8683
12.6759
12.7854
13.0001
13.2176
13.4095
13.5787
13.7356
13.8939
14.0809
14.3552
14.8239
15.6185
16.8336
18.4271
20.163
21.7281
22.9953
24.0848
25.2336
26.464
27.4509
28.2373
29.0672
843.682
454.612
19.8156
18.3432
17.417
17.1531
17.0203
16.5561
15.7366
14.6872
13.7364
13.1131
12.8379
12.8283
12.9511
13.1092
13.2635
13.4063
13.5419
13.68
13.8451
14.0929
14.5315
15.3082
16.5467
18.2316
20.1459
21.9478
23.4406
24.6898
25.8205
26.784
27.4763
28.0108
28.57
842.092
451.217
19.062
17.7502
16.7823
16.312
16.1543
15.8413
15.2803
14.5549
13.8384
13.2843
12.9598
12.8608
12.9124
13.0275
13.1575
13.2845
13.4065
13.5295
13.6719
13.8812
14.2587
14.961
16.145
17.8333
19.8443
21.8419
23.5442
24.9186
26.0162
26.8181
27.354
27.7556
28.2126
841.588
447.449
19.0549
18.2467
17.3709
16.2433
15.6128
15.3703
15.0655
14.5949
14.0332
13.4979
13.0873
12.8588
12.8055
12.8623
12.9676
13.0874
13.2093
13.3331
13.4711
13.6604
13.9894
14.6108
15.7091
17.3528
19.3915
21.5206
23.3995
24.8823
25.971
26.6979
27.1655
27.518
27.9783
841.601
446.091
19.6809
19.1933
18.5664
17.2697
15.7392
15.0686
14.8367
14.5646
14.1639
13.6911
13.2378
12.8968
12.7261
12.7075
12.779
12.8875
13.008
13.133
13.2682
13.4409
13.7274
14.2757
15.2989
16.9061
18.9508
21.1468
23.1455
24.7098
25.8069
26.5102
26.9601
27.3127
27.8232
841.667
447.998
20.111
19.5228
19.0197
18.1806
16.4728
15.203
14.7981
14.5983
14.3206
13.9406
13.495
13.0607
12.7376
12.586
12.5829
12.6634
12.7815
12.9161
13.0628
13.2371
13.4999
13.9903
14.9507
16.5554
18.6426
20.8841
22.9471
24.5518
25.6455
26.3355
26.7819
27.1458
27.6932
841.383
451.797
20.0496
18.9107
18.1582
17.6017
16.5403
15.3416
14.8699
14.6761
14.4565
14.1616
13.7916
13.3737
12.9777
12.6929
12.563
12.5596
12.6338
12.752
12.8988
13.0763
13.3255
13.7655
14.6531
16.2504
18.4294
20.7443
22.8327
24.439
25.5128
26.1854
26.625
26.9895
27.5323
840.587
453.774
19.5486
17.7065
16.5271
16.3115
15.9844
15.4177
15.1197
14.9245
14.6992
14.4208
14.0812
13.6891
13.2771
12.9126
12.6673
12.5626
12.57
12.653