/*--------------------------------*- C++ -*----------------------------------*\
| =========                 |                                                 |
| \\      /  F ield         | OpenFOAM: The Open Source CFD Toolbox           |
|  \\    /   O peration     | Version:  v2012                                 |
|   \\  /    A nd           | Website:  www.openfoam.com                      |
|    \\/     M anipulation  |                                                 |
\*---------------------------------------------------------------------------*/
FoamFile
{
    version     2.0;
    format      ascii;
    class       surfaceScalarField;
    location    "950";
    object      phi;
}
// * * * * * * * * * * * * * * * * * * * * * * * * * * * * * * * * * * * * * //

dimensions      [1 0 -1 0 0 0 0];
oriented        oriented;


internalField   nonuniform List<scalar> 
228225
(
-3.67487e-06
1.91964e-06
1.72297e-06
-7.88655e-06
1.26127e-06
2.95014e-06
-9.73866e-06
-1.29718e-06
3.14902e-06
-9.19292e-06
-3.65969e-06
3.11362e-06
-6.34221e-06
-5.84247e-06
2.99138e-06
-1.84417e-06
-7.40685e-06
2.90842e-06
3.80955e-06
-8.49999e-06
2.84584e-06
1.01099e-05
-9.14619e-06
2.84533e-06
1.67812e-05
-9.50648e-06
2.83476e-06
2.40057e-05
-9.96312e-06
2.73836e-06
3.09591e-05
-9.66859e-06
2.71489e-06
3.75342e-05
-9.26183e-06
2.6864e-06
4.36414e-05
-8.76081e-06
2.65339e-06
4.91764e-05
-8.15036e-06
2.61517e-06
5.40869e-05
-7.48287e-06
2.57211e-06
5.83811e-05
-6.83353e-06
2.53913e-06
6.20718e-05
-6.17913e-06
2.48825e-06
6.51653e-05
-5.53878e-06
2.44508e-06
6.76341e-05
-4.88824e-06
2.41921e-06
6.94677e-05
-4.22755e-06
2.39379e-06
7.05782e-05
-3.49315e-06
2.38249e-06
7.11413e-05
-2.94502e-06
2.38176e-06
7.10407e-05
-2.28382e-06
2.38418e-06
7.02706e-05
-1.63445e-06
2.40443e-06
6.87573e-05
-9.29656e-07
2.44273e-06
6.61877e-05
6.97792e-08
2.49965e-06
6.29183e-05
7.02732e-07
2.56658e-06
5.87236e-05
1.56101e-06
2.63347e-06
5.35413e-05
2.43444e-06
2.74776e-06
4.73513e-05
3.32366e-06
2.86616e-06
3.99563e-05
4.44291e-06
2.95186e-06
3.09971e-05
5.72562e-06
3.2334e-06
2.05725e-05
6.83224e-06
3.59217e-06
9.24262e-06
7.62194e-06
3.7075e-06
6.67119e-06
2.57141e-06
2.55775e-06
-1.42106e-06
7.82578e-07
7.1345e-06
-4.77508e-06
1.45914e-06
1.22135e-05
-8.0323e-06
1.6557e-06
1.75282e-05
-1.0653e-05
1.67837e-06
2.24377e-05
-1.24183e-05
1.66609e-06
2.69115e-05
-1.35076e-05
1.62671e-06
3.10169e-05
-1.41701e-05
1.56442e-06
3.47881e-05
-1.43903e-05
1.47275e-06
3.81831e-05
-1.4274e-05
1.37231e-06
4.06699e-05
-1.37209e-05
1.27079e-06
4.27153e-05
-1.29088e-05
1.19458e-06
4.42726e-05
-1.1925e-05
1.10572e-06
4.53023e-05
-1.07927e-05
1.00188e-06
4.57921e-05
-9.53216e-06
8.91728e-07
4.5757e-05
-8.22181e-06
7.73795e-07
4.53438e-05
-7.04449e-06
6.23956e-07
4.46896e-05
-6.00573e-06
4.80478e-07
4.39562e-05
-5.14699e-06
3.41351e-07
4.32877e-05
-4.43392e-06
2.13921e-07
4.27086e-05
-3.75231e-06
1.03546e-07
4.22588e-05
-3.05661e-06
1.29425e-08
4.17149e-05
-2.34526e-06
-5.61434e-08
4.11228e-05
-1.59216e-06
-9.99313e-08
4.03744e-05
-7.72691e-07
-1.13739e-07
3.94489e-05
9.48179e-08
-9.93434e-08
3.82003e-05
1.19582e-06
1.22234e-07
3.65696e-05
2.06571e-06
2.67396e-07
3.43791e-05
3.24415e-06
5.06898e-07
3.14391e-05
4.54127e-06
8.3266e-07
2.76339e-05
5.92442e-06
1.204e-06
2.30939e-05
7.38409e-06
1.59824e-06
1.744e-05
9.33844e-06
2.04049e-06
1.05795e-05
1.11323e-05
2.55985e-06
3.68695e-06
1.17254e-05
2.78828e-06
8.71911e-06
1.63901e-06
1.14325e-06
-3.28288e-06
7.1747e-07
4.03494e-06
-8.88357e-06
1.21587e-06
7.24661e-06
-1.26317e-05
1.38704e-06
9.95564e-06
-1.48228e-05
1.46014e-06
1.1953e-05
-1.58381e-05
1.42196e-06
1.30821e-05
-1.60034e-05
1.36641e-06
1.34253e-05
-1.57749e-05
1.26132e-06
1.31633e-05
-1.52476e-05
1.11904e-06
1.23672e-05
-1.4456e-05
9.77827e-07
1.13203e-05
-1.35059e-05
8.31674e-07
1.01254e-05
-1.23855e-05
6.71302e-07
8.81968e-06
-1.11146e-05
4.94989e-07
7.46233e-06
-9.71282e-06
2.77148e-07
6.18765e-06
-8.23849e-06
-1.93721e-08
5.07133e-06
-6.78041e-06
-3.25503e-07
4.12534e-06
-5.47193e-06
-6.26999e-07
3.44688e-06
-4.40473e-06
-9.22969e-07
3.06713e-06
-3.61083e-06
-1.15683e-06
2.9588e-06
-3.00718e-06
-1.3188e-06
3.11152e-06
-2.48832e-06
-1.41709e-06
3.51085e-06
-1.9924e-06
-1.4639e-06
4.16394e-06
-1.53315e-06
-1.4656e-06
5.05909e-06
-1.06195e-06
-1.42583e-06
6.10782e-06
-4.80584e-07
-1.34131e-06
7.11283e-06
2.8001e-07
-1.19063e-06
8.42685e-06
9.39699e-07
-1.05839e-06
9.48476e-06
1.85606e-06
-8.48835e-07
1.02312e-05
3.06243e-06
-5.65328e-07
1.0458e-05
4.50627e-06
-1.92435e-07
9.83348e-06
6.18173e-06
3.66675e-07
8.08281e-06
8.08699e-06
1.04731e-06
5.32232e-06
1.04592e-05
1.63929e-06
2.35668e-06
1.20696e-05
2.02765e-06
1.60647e-08
1.20293e-05
2.036e-06
7.56366e-06
1.17149e-06
-1.77887e-08
-3.84914e-06
5.83252e-07
-4.79607e-07
-9.43761e-06
1.01528e-06
-1.16342e-06
-1.31056e-05
1.15724e-06
-1.89002e-06
-1.52006e-05
1.10409e-06
-2.60013e-06
-1.61802e-05
1.05196e-06
-3.20865e-06
-1.63981e-05
1.00297e-06
-3.76743e-06
-1.61691e-05
9.52769e-07
-4.2668e-06
-1.56331e-05
8.84679e-07
-4.67314e-06
-1.48497e-05
7.99766e-07
-4.99145e-06
-1.38813e-05
6.93426e-07
-5.12789e-06
-1.27905e-05
5.41182e-07
-4.9864e-06
-1.1609e-05
3.52612e-07
-4.52998e-06
-1.03454e-05
1.75816e-07
-3.73469e-06
-9.01361e-06
-2.05348e-08
-2.63186e-06
-7.64799e-06
-2.35638e-07
-1.33524e-06
-6.30777e-06
-4.61169e-07
-1.23096e-08
-5.04515e-06
-6.82908e-07
1.15612e-06
-3.89685e-06
-8.82801e-07
2.0514e-06
-2.85402e-06
-1.04884e-06
2.69951e-06
-1.96784e-06
-1.16897e-06
3.23568e-06
-1.29059e-06
-1.23835e-06
3.76457e-06
-7.8804e-07
-1.27438e-06
4.31955e-06
-3.53424e-07
-1.26397e-06
4.91414e-06
1.48177e-07
-1.22384e-06
5.68097e-06
6.71108e-07
-1.15843e-06
6.37432e-06
1.32586e-06
-1.08011e-06
6.89941e-06
2.23274e-06
-9.02456e-07
7.28055e-06
3.3036e-06
-6.23061e-07
7.37179e-06
4.64885e-06
-2.34599e-07
6.95838e-06
6.3415e-06
2.52926e-07
5.74847e-06
8.47802e-06
8.18296e-07
3.92303e-06
1.08992e-05
1.38502e-06
1.88152e-06
1.23164e-05
1.79427e-06
1.44666e-07
1.19775e-05
1.78786e-06
6.81857e-06
8.8973e-07
-5.46886e-07
-3.83859e-06
5.35398e-07
-1.39361e-06
-9.47234e-06
8.80677e-07
-2.34484e-06
-1.30888e-05
9.3393e-07
-3.39065e-06
-1.51504e-05
9.95258e-07
-4.40603e-06
-1.62066e-05
1.04143e-06
-5.17573e-06
-1.66713e-05
1.04272e-06
-5.60838e-06
-1.67464e-05
1.00972e-06
-5.65413e-06
-1.65546e-05
9.6693e-07
-5.26174e-06
-1.61644e-05
9.22112e-07
-4.40728e-06
-1.56118e-05
8.7579e-07
-3.12681e-06
-1.49111e-05
8.39896e-07
-1.48541e-06
-1.40647e-05
8.14022e-07
4.54364e-07
-1.30688e-05
7.83303e-07
2.61322e-06
-1.19221e-05
7.49349e-07
4.86231e-06
-1.06205e-05
7.23106e-07
7.09332e-06
-9.21199e-06
6.72885e-07
9.17108e-06
-7.70979e-06
5.86537e-07
1.09474e-05
-6.13194e-06
4.58456e-07
1.23371e-05
-4.5284e-06
2.84246e-07
1.32925e-05
-2.99184e-06
6.82507e-08
1.37415e-05
-1.58919e-06
-1.50791e-07
1.36494e-05
-3.67967e-07
-3.28253e-07
1.30786e-05
6.73402e-07
-4.56458e-07
1.22416e-05
1.53171e-06
-5.46843e-07
1.1489e-05
1.99502e-06
-5.71686e-07
1.07209e-05
2.64513e-06
-5.51666e-07
1.00273e-05
3.41689e-06
-4.91092e-07
9.38184e-06
4.32285e-06
-3.74415e-07
8.68318e-06
5.49203e-06
-1.45138e-07
7.73633e-06
7.05525e-06
2.32464e-07
6.3119e-06
9.14816e-06
7.53696e-07
4.50167e-06
1.1424e-05
1.28495e-06
2.5549e-06
1.2601e-05
1.66159e-06
8.00718e-07
1.20864e-05
1.64454e-06
6.80208e-06
8.17194e-07
-4.283e-07
-3.78146e-06
3.70399e-07
-9.52774e-07
-9.46303e-06
5.14524e-07
-1.39777e-06
-1.32465e-05
6.02108e-07
-1.64395e-06
-1.5583e-05
6.78291e-07
-1.67735e-06
-1.689e-05
7.16552e-07
-1.51162e-06
-1.75924e-05
7.5509e-07
-1.10423e-06
-1.79015e-05
7.47478e-07
-4.07276e-07
-1.79531e-05
7.01372e-07
5.8238e-07
-1.77977e-05
6.43432e-07
1.82866e-06
-1.74328e-05
5.74541e-07
3.29836e-06
-1.68823e-05
5.01315e-07
4.95283e-06
-1.61508e-05
4.31429e-07
6.74829e-06
-1.52358e-05
3.71426e-07
8.66679e-06
-1.4168e-05
3.2714e-07
1.06283e-05
-1.28955e-05
3.13337e-07
1.25456e-05
-1.14307e-05
3.01169e-07
1.43301e-05
-9.79523e-06
3.00753e-07
1.59124e-05
-8.03964e-06
3.25238e-07
1.72261e-05
-6.22225e-06
3.79898e-07
1.81963e-05
-4.407e-06
4.44831e-07
1.86774e-05
-2.57002e-06
4.99456e-07
1.82416e-05
-4.32317e-07
4.99915e-07
1.75548e-05
9.82087e-07
3.77841e-07
1.65703e-05
2.42207e-06
9.39546e-08
1.51972e-05
3.43131e-06
-6.33073e-08
1.37274e-05
4.28875e-06
-1.74076e-07
1.23452e-05
5.03066e-06
-2.31851e-07
1.10625e-05
5.79676e-06
-1.91478e-07
9.83073e-06
6.71458e-06
8.85792e-09
8.52395e-06
8.00127e-06
3.60404e-07
6.99359e-06
9.87456e-06
8.03647e-07
5.15593e-06
1.19994e-05
1.26205e-06
3.09942e-06
1.3074e-05
1.58327e-06
1.13272e-06
1.25053e-05
1.54738e-06
7.15902e-06
7.75761e-07
9.46545e-08
-4.06468e-06
1.87755e-07
7.5268e-07
-1.02483e-05
1.26598e-07
1.85239e-06
-1.44073e-05
6.06533e-08
3.157e-06
-1.69763e-05
8.83881e-08
4.44785e-06
-1.84087e-05
2.27561e-07
5.70764e-06
-1.91448e-05
2.9238e-07
6.92061e-06
-1.94724e-05
3.57751e-07
8.09647e-06
-1.95218e-05
3.92706e-07
9.28089e-06
-1.93722e-05
3.89945e-07
1.0475e-05
-1.89843e-05
3.57314e-07
1.17013e-05
-1.84145e-05
3.057e-07
1.29687e-05
-1.76568e-05
2.38561e-07
1.42236e-05
-1.66526e-05
1.61726e-07
1.53803e-05
-1.54061e-05
8.1391e-08
1.64069e-05
-1.39376e-05
1.53575e-08
1.72696e-05
-1.22711e-05
-2.2411e-08
1.79582e-05
-1.04604e-05
-2.35638e-08
1.84981e-05
-8.58099e-06
1.36061e-09
1.89296e-05
-6.70326e-06
4.93495e-08
1.93116e-05
-4.89704e-06
1.07777e-07
1.96681e-05
-3.10352e-06
1.7684e-07
1.95298e-05
-6.77091e-07
3.82875e-07
1.94141e-05
6.10134e-07
4.87501e-07
1.90606e-05
2.21369e-06
5.61668e-07
1.80401e-05
3.8889e-06
5.62709e-07
1.65335e-05
5.29511e-06
4.99954e-07
1.48192e-05
6.31898e-06
4.25748e-07
1.30547e-05
7.13617e-06
4.2477e-07
1.12682e-05
7.95436e-06
5.46339e-07
9.46688e-06
9.02906e-06
7.73198e-07
7.59275e-06
1.06833e-05
1.06507e-06
5.52892e-06
1.26691e-05
1.39382e-06
3.30865e-06
1.3687e-05
1.60698e-06
1.19759e-06
1.31402e-05
1.47565e-06
7.60435e-06
7.52254e-07
8.7438e-07
-4.92362e-06
-1.59547e-08
2.91806e-06
-1.20778e-05
-2.14549e-07
5.30282e-06
-1.64852e-05
-3.07077e-07
7.48888e-06
-1.88988e-05
-2.63725e-07
9.32941e-06
-2.01301e-05
-1.19287e-07
1.08754e-05
-2.07226e-05
3.17404e-08
1.22184e-05
-2.09433e-05
1.27812e-07
1.34077e-05
-2.08954e-05
1.843e-07
1.44485e-05
-2.06234e-05
2.10249e-07
1.53694e-05
-2.01192e-05
2.13977e-07
1.61437e-05
-1.93862e-05
1.97348e-07
1.67172e-05
-1.83954e-05
1.6498e-07
1.71167e-05
-1.71705e-05
1.18406e-07
1.73565e-05
-1.57101e-05
6.40989e-08
1.75022e-05
-1.40978e-05
1.45249e-08
1.76077e-05
-1.23396e-05
-3.70239e-08
1.76947e-05
-1.04636e-05
-8.38407e-08
1.77717e-05
-8.53117e-06
-1.26837e-07
1.78766e-05
-6.63124e-06
-1.76906e-07
1.79754e-05
-4.78853e-06
-2.07273e-07
1.79331e-05
-2.86375e-06
-1.9756e-07
1.78014e-05
-4.97515e-07
-4.78812e-08
1.74724e-05
8.57822e-07
8.13539e-08
1.70723e-05
2.36141e-06
2.52283e-07
1.63859e-05
4.13974e-06
4.35523e-07
1.53367e-05
5.79424e-06
5.49974e-07
1.38771e-05
7.13281e-06
6.45733e-07
1.20927e-05
8.19975e-06
7.20718e-07
1.0103e-05
9.13739e-06
8.06558e-07
8.02482e-06
1.01769e-05
9.3023e-07
5.98226e-06
1.16107e-05
1.11504e-06
4.0402e-06
1.32524e-05
1.35858e-06
2.15937e-06
1.40609e-05
1.50666e-06
5.97267e-07
1.33461e-05
1.35594e-06
7.57019e-06
6.31424e-07
1.00151e-06
-5.85483e-06
-7.06001e-08
2.82975e-06
-1.37131e-05
-1.93045e-07
4.71463e-06
-1.81299e-05
-2.40332e-07
6.37804e-06
-2.0321e-05
-2.41326e-07
7.79371e-06
-2.13425e-05
-2.03324e-07
9.00284e-06
-2.17933e-05
-1.384e-07
1.00388e-05
-2.19105e-05
-6.88901e-08
1.09317e-05
-2.17787e-05
-9.65309e-09
1.16571e-05
-2.13778e-05
2.90101e-08
1.22393e-05
-2.0749e-05
4.75648e-08
1.26389e-05
-1.98307e-05
4.4899e-08
1.28671e-05
-1.86468e-05
2.33001e-08
1.29973e-05
-1.72952e-05
-5.52081e-09
1.30884e-05
-1.57579e-05
-4.3245e-08
1.31248e-05
-1.40437e-05
-9.0567e-08
1.31011e-05
-1.21652e-05
-1.5065e-07
1.30075e-05
-1.01561e-05
-2.13982e-07
1.28733e-05
-8.1222e-06
-2.74777e-07
1.27587e-05
-6.19092e-06
-3.25739e-07
1.25998e-05
-4.26688e-06
-3.62742e-07
1.2312e-05
-2.21066e-06
-3.65368e-07
1.2141e-05
-4.60412e-08
-2.80478e-07
1.19185e-05
1.27725e-06
-1.96935e-07
1.15684e-05
2.7871e-06
-7.56618e-08
1.11634e-05
4.43523e-06
1.09459e-07
1.0551e-05
6.06724e-06
3.39305e-07
9.61901e-06
7.54102e-06
5.23765e-07
8.41018e-06
8.75059e-06
6.5791e-07
6.99042e-06
9.79006e-06
7.67007e-07
5.45543e-06
1.08501e-05
8.61725e-07
3.91138e-06
1.21264e-05
1.02822e-06
2.45818e-06
1.3435e-05
1.27057e-06
1.12552e-06
1.40042e-05
1.38934e-06
1.51635e-07
1.30969e-05
1.22293e-06
7.20626e-06
5.15549e-07
8.40189e-07
-6.56873e-06
-1.26347e-07
2.22154e-06
-1.48174e-05
-2.7714e-07
3.57028e-06
-1.91425e-05
-3.36173e-07
4.71824e-06
-2.11339e-05
-3.35046e-07
5.6822e-06
-2.2005e-05
-3.01444e-07
6.48894e-06
-2.23438e-05
-2.56319e-07
7.14978e-06
-2.23617e-05
-2.09639e-07
7.68704e-06
-2.21463e-05
-1.69619e-07
8.09623e-06
-2.16434e-05
-1.43606e-07
8.3654e-06
-2.08876e-05
-1.30482e-07
8.53675e-06
-1.98772e-05
-1.24848e-07
8.67892e-06
-1.86581e-05
-1.30891e-07
8.78306e-06
-1.72434e-05
-1.56019e-07
8.83898e-06
-1.5617e-05
-1.96848e-07
8.81283e-06
-1.37721e-05
-2.45413e-07
8.69085e-06
-1.17402e-05
-3.03009e-07
8.49244e-06
-9.59204e-06
-3.65625e-07
8.24908e-06
-7.45168e-06
-4.27178e-07
7.98405e-06
-5.44236e-06
-4.83552e-07
7.64581e-06
-3.40374e-06
-5.24938e-07
7.35688e-06
-1.38738e-06
-5.34401e-07
7.3335e-06
4.71783e-07
-4.945e-07
7.32831e-06
1.72021e-06
-4.37837e-07
7.24008e-06
3.19553e-06
-3.20278e-07
7.09691e-06
4.72787e-06
-1.49562e-07
6.8491e-06
6.27566e-06
3.92905e-08
6.4322e-06
7.72643e-06
2.31379e-07
5.78866e-06
8.97406e-06
4.19953e-07
4.90518e-06
1.00922e-05
5.81255e-07
3.78202e-06
1.12027e-05
7.70466e-07
2.56198e-06
1.23987e-05
9.4761e-07
1.40485e-06
1.34572e-05
1.13486e-06
3.81729e-07
1.38118e-05
1.21529e-06
-1.88033e-07
1.26674e-05
9.98972e-07
6.66011e-06
3.58119e-07
6.42046e-07
-7.07747e-06
-1.33327e-07
1.80298e-06
-1.57239e-05
-2.54382e-07
2.99884e-06
-2.00216e-05
-3.16765e-07
4.04327e-06
-2.1835e-05
-3.43344e-07
4.93175e-06
-2.25553e-05
-3.3815e-07
5.68257e-06
-2.27787e-05
-3.15845e-07
6.30933e-06
-2.27013e-05
-2.87148e-07
6.78462e-06
-2.2363e-05
-2.58555e-07
7.13885e-06
-2.17611e-05
-2.36593e-07
7.3815e-06
-2.09099e-05
-2.20353e-07
7.57544e-06
-1.98573e-05
-2.13912e-07
7.70813e-06
-1.85765e-05
-2.1428e-07
7.72619e-06
-1.70396e-05
-2.21784e-07
7.60017e-06
-1.52545e-05
-2.36463e-07
7.34282e-06
-1.32535e-05
-2.61333e-07
6.98526e-06
-1.10836e-05
-2.99014e-07
6.56191e-06
-8.82053e-06
-3.4821e-07
6.10007e-06
-6.58351e-06
-4.06396e-07
5.61717e-06
-4.49243e-06
-4.67116e-07
5.14042e-06
-2.41204e-06
-5.15032e-07
4.83982e-06
-5.43247e-07
-5.43629e-07
4.84233e-06
1.00901e-06
-5.39827e-07
4.78026e-06
2.29698e-06
-5.1479e-07
4.75125e-06
3.66755e-06
-4.43114e-07
4.72359e-06
5.07409e-06
-3.18663e-07
4.64614e-06
6.50701e-06
-1.53995e-07
4.45334e-06
7.90603e-06
1.31156e-08
4.04267e-06
9.19548e-06
1.89181e-07
3.39845e-06
1.03816e-05
3.54749e-07
2.57231e-06
1.15265e-05
5.02294e-07
1.64098e-06
1.26385e-05
6.91458e-07
7.73752e-07
1.34609e-05
8.63443e-07
3.90877e-08
1.35977e-05
9.48661e-07
-2.46005e-07
1.22003e-05
7.52093e-07
6.19279e-06
2.213e-07
6.52723e-07
-7.62965e-06
-1.00625e-07
1.56003e-06
-1.64867e-05
-1.44639e-07
2.40049e-06
-2.06755e-05
-1.8662e-07
3.13871e-06
-2.2339e-05
-2.3427e-07
3.78492e-06
-2.29391e-05
-2.62448e-07
4.34686e-06
-2.3068e-05
-2.72686e-07
4.81515e-06
-2.28996e-05
-2.70012e-07
5.18208e-06
-2.24664e-05
-2.63636e-07
5.47968e-06
-2.1803e-05
-2.55691e-07
5.72336e-06
-2.0904e-05
-2.49659e-07
5.84942e-06
-1.97438e-05
-2.39563e-07
5.80998e-06
-1.83036e-05
-2.3357e-07
5.58787e-06
-1.65837e-05
-2.33882e-07
5.21031e-06
-1.46343e-05
-2.42845e-07
4.7154e-06
-1.2495e-05
-2.63763e-07
4.13497e-06
-1.02037e-05
-2.99632e-07
3.50903e-06
-7.84412e-06
-3.50672e-07
2.89186e-06
-5.55618e-06
-4.10381e-07
2.34361e-06
-3.4758e-06
-4.68644e-07
1.98834e-06
-1.544e-06
-5.13071e-07
1.88508e-06
9.83363e-08
-5.38603e-07
1.95836e-06
1.47856e-06
-5.43115e-07
1.99324e-06
2.78522e-06
-5.23413e-07
2.06174e-06
4.06932e-06
-4.70574e-07
2.12986e-06
5.38368e-06
-3.78021e-07
2.15493e-06
6.73127e-06
-2.49622e-07
2.09147e-06
8.07469e-06
-1.05496e-07
1.89029e-06
9.35943e-06
3.69525e-08
1.52051e-06
1.05565e-05
1.94564e-07
1.01106e-06
1.1685e-05
3.50622e-07
4.71888e-07
1.26848e-05
4.92615e-07
-4.01933e-08
1.33156e-05
6.57182e-07
-4.17626e-07
1.32642e-05
7.10661e-07
-3.6936e-07
1.16225e-05
5.28994e-07
5.7075e-06
1.15916e-07
4.21687e-07
-7.98692e-06
-6.45598e-08
8.59326e-07
-1.68395e-05
-8.49225e-08
1.20107e-06
-2.08959e-05
-1.21464e-07
1.50598e-06
-2.2475e-05
-1.68944e-07
1.79763e-06
-2.30285e-05
-2.02332e-07
2.07206e-06
-2.31224e-05
-2.20093e-07
2.30701e-06
-2.29068e-05
-2.27794e-07
2.47748e-06
-2.24125e-05
-2.24448e-07
2.53832e-06
-2.16501e-05
-2.13823e-07
2.44016e-06
-2.0609e-05
-1.96991e-07
2.1704e-06
-1.92894e-05
-1.84764e-07
1.76252e-06
-1.77184e-05
-1.77419e-07
1.2839e-06
-1.59311e-05
-1.74116e-07
8.0551e-07
-1.39769e-05
-1.7915e-07
3.45213e-07
-1.18354e-05
-1.9942e-07
-9.1257e-08
-9.5298e-06
-2.37687e-07
-4.96764e-07
-7.1431e-06
-2.95777e-07
-8.27214e-07
-4.8554e-06
-3.70647e-07
-1.06696e-06
-2.8027e-06
-4.33687e-07
-1.1088e-06
-1.02532e-06
-4.77176e-07
-9.38308e-07
4.26807e-07
-4.99306e-07
-7.36411e-07
1.77678e-06
-5.00448e-07
-5.0614e-07
3.03937e-06
-4.84735e-07
-2.6818e-07
4.27519e-06
-4.44126e-07
-4.83482e-08
5.54009e-06
-3.7653e-07
1.30926e-07
6.83786e-06
-2.86159e-07
2.58025e-07
8.13368e-06
-1.86385e-07
3.02682e-07
9.38918e-06
-7.47037e-08
2.30419e-07
1.05805e-05
4.79604e-08
4.34907e-08
1.16898e-05
1.81926e-07
-2.08184e-07
1.26028e-05
3.33459e-07
-4.32707e-07
1.30782e-05
4.61759e-07
-5.52219e-07
1.28772e-05
5.06237e-07
-3.3671e-07
1.10536e-05
3.52885e-07
5.31679e-06
5.39731e-08
1.54104e-08
-8.00027e-06
-2.34079e-09
5.69702e-10
-1.68376e-05
1.27343e-08
-7.32107e-09
-2.08725e-05
-1.56113e-08
1.28596e-08
-2.24283e-05
-6.69953e-08
4.74807e-08
-2.29561e-05
-1.07163e-07
6.02471e-08
-2.30064e-05
-1.28941e-07
1.83196e-08
-2.27308e-05
-1.34188e-07
-1.11013e-07
-2.21516e-05
-1.31608e-07
-3.48372e-07
-2.12885e-05
-1.24419e-07
-6.64232e-07
-2.01772e-05
-1.16032e-07
-9.9498e-07
-1.88513e-05
-1.07442e-07
-1.2915e-06
-1.73226e-05
-9.93963e-08
-1.50287e-06
-1.5621e-05
-9.90504e-08
-1.63706e-06
-1.37371e-05
-1.05872e-07
-1.72444e-06
-1.16306e-05
-1.17797e-07
-1.76612e-06
-9.34528e-06
-1.43224e-07
-1.76062e-06
-6.95837e-06
-1.90614e-07
-1.73407e-06
-4.64635e-06
-2.35996e-07
-1.65747e-06
-2.57531e-06
-3.04446e-07
-1.47883e-06
-8.42251e-07
-3.62161e-07
-1.24781e-06
5.9003e-07
-3.94688e-07
-9.82885e-07
1.91822e-06
-4.06802e-07
-7.17547e-07
3.16566e-06
-3.92052e-07
-4.6095e-07
4.38287e-06
-3.64703e-07
-2.12602e-07
5.60773e-06
-3.16451e-07
9.69698e-09
6.86016e-06
-2.4503e-07
1.72384e-07
8.12768e-06
-1.57064e-07
2.45895e-07
9.37842e-06
-6.31378e-08
2.13717e-07
1.05806e-05
3.16903e-08
9.1706e-08
1.16743e-05
1.37155e-07
-6.09084e-08
1.25124e-05
2.42745e-07
-2.06132e-07
1.28875e-05
3.35583e-07
-2.74795e-07
1.25833e-05
3.62121e-07
-1.33955e-07
1.0671e-05
2.41096e-07
5.14497e-06
3.78451e-08
-1.3384e-07
-7.9104e-06
4.35806e-08
-3.37167e-07
-1.67091e-05
7.45561e-08
-5.60504e-07
-2.07091e-05
5.96886e-08
-7.67599e-07
-2.2243e-05
2.15773e-08
-9.54333e-07
-2.27544e-05
-1.50281e-08
-1.13719e-06
-2.27815e-05
-4.21406e-08
-1.33187e-06
-2.24761e-05
-6.0116e-08
-1.52607e-06
-2.1887e-05
-7.05744e-08
-1.6935e-06
-2.10461e-05
-7.50681e-08
-1.79522e-06
-2.00009e-05
-7.47132e-08
-1.84117e-06
-1.87368e-05
-6.87366e-08
-1.84501e-06
-1.72622e-05
-5.67806e-08
-1.84316e-06
-1.55838e-05
-3.9218e-08
-1.88357e-06
-1.36756e-05
-2.12603e-08
-1.9287e-06
-1.15777e-05
-7.94473e-09
-1.91812e-06
-9.34693e-06
-9.2505e-09
-1.78225e-06
-7.06269e-06
-3.1967e-08
-1.53271e-06
-4.80372e-06
-9.26528e-08
-1.23538e-06
-2.7192e-06
-1.53912e-07
-9.50974e-07
-9.20859e-07
-2.06281e-07
-7.14903e-07
6.07564e-07
-2.54078e-07
-4.72201e-07
1.96064e-06
-2.8555e-07
-2.18569e-07
3.20738e-06
-2.9578e-07
1.26592e-08
4.42512e-06
-2.73922e-07
2.18446e-07
5.63716e-06
-2.3562e-07
3.99469e-07
6.86499e-06
-1.86267e-07
5.29728e-07
8.11897e-06
-1.21992e-07
5.80125e-07
9.37661e-06
-4.89742e-08
5.34604e-07
1.0593e-05
3.27366e-08
4.16758e-07
1.16763e-05
1.155e-07
2.67332e-07
1.24628e-05
1.98767e-07
1.15723e-07
1.27744e-05
2.64425e-07
8.02325e-09
1.24147e-05
2.7577e-07
1.67596e-08
1.04787e-05
1.8292e-07
5.11744e-06
4.42721e-08
-1.81305e-07
-7.78605e-06
5.66153e-08
-4.62212e-07
-1.65033e-05
7.49318e-08
-7.26812e-07
-2.05014e-05
5.68114e-08
-9.63096e-07
-2.20363e-05
2.94844e-08
-1.1641e-06
-2.25564e-05
2.88999e-09
-1.32483e-06
-2.26009e-05
-1.98762e-08
-1.43288e-06
-2.23312e-05
-3.69396e-08
-1.48992e-06
-2.17832e-05
-4.67753e-08
-1.49848e-06
-2.09887e-05
-4.8987e-08
-1.48547e-06
-1.99682e-05
-4.58898e-08
-1.47319e-06
-1.87121e-05
-3.7109e-08
-1.4718e-06
-1.72397e-05
-2.40061e-08
-1.49193e-06
-1.55573e-05
-6.57345e-09
-1.51844e-06
-1.36643e-05
1.49822e-08
-1.47357e-06
-1.16591e-05
3.62114e-08
-1.31109e-06
-9.56193e-06
5.22264e-08
-1.01462e-06
-7.41884e-06
5.93662e-08
-6.13741e-07
-5.25085e-06
4.58841e-08
-2.05129e-07
-3.13327e-06
5.03259e-09
1.0407e-07
-1.17699e-06
-5.35077e-08
2.78566e-07
5.39859e-07
-1.07209e-07
4.31063e-07
1.95681e-06
-1.49056e-07
5.52569e-07
3.25747e-06
-1.71957e-07
6.82808e-07
4.468e-06
-1.73466e-07
8.07961e-07
5.66933e-06
-1.57672e-07
9.01038e-07
6.8964e-06
-1.24819e-07
9.43135e-07
8.15361e-06
-7.70485e-08
9.14883e-07
9.42142e-06
-1.6872e-08
8.10938e-07
1.06454e-05
5.13104e-08
6.59399e-07
1.17061e-05
1.2151e-07
5.01821e-07
1.24337e-05
1.86362e-07
3.46862e-07
1.26949e-05
2.34211e-07
2.07588e-07
1.23161e-05
2.37446e-07
1.03457e-07
1.04173e-05
1.64963e-07
5.16125e-06
5.9634e-08
-1.03129e-07
-7.73331e-06
5.01508e-08
-2.56603e-07
-1.64095e-05
5.95587e-08
-3.86789e-07
-2.04168e-05
4.54829e-08
-4.74448e-07
-2.19775e-05
2.878e-08
-5.37442e-07
-2.25047e-05
1.119e-08
-5.73846e-07
-2.25606e-05
-3.9998e-09
-5.87835e-07
-2.23003e-05
-1.70027e-08
-5.8656e-07
-2.17595e-05
-2.51448e-08
-5.7709e-07
-2.09693e-05
-2.88898e-08
-5.89154e-07
-1.99276e-05
-2.85785e-08
-6.24505e-07
-1.86535e-05
-2.33808e-08
-6.70246e-07
-1.71825e-05
-1.1651e-08
-6.96837e-07
-1.55385e-05
7.61944e-09
-6.19124e-07
-1.37809e-05
3.86948e-08
-4.26367e-07
-1.19261e-05
7.40104e-08
-1.33838e-07
-9.96664e-06
1.1196e-07
2.18842e-07
-7.91694e-06
1.45162e-07
6.06584e-07
-5.80221e-06
1.6332e-07
9.82915e-07
-3.66607e-06
1.56118e-07
1.2768e-06
-1.58973e-06
1.18464e-07
1.421e-06
3.37566e-07
5.77205e-08
1.52493e-06
1.85418e-06
-1.65654e-09
1.54159e-06
3.28934e-06
-4.88702e-08
1.52476e-06
4.5653e-06
-8.07703e-08
1.50294e-06
5.7733e-06
-8.24408e-08
1.46686e-06
6.99341e-06
-6.12526e-08
1.39335e-06
8.25096e-06
-2.41703e-08
1.27035e-06
9.52075e-06
2.33486e-08
1.10553e-06
1.07321e-05
7.7784e-08
9.25686e-07
1.17522e-05
1.33426e-07
7.48258e-07
1.24274e-05
1.83471e-07
5.64093e-07
1.26592e-05
2.19466e-07
3.75003e-07
1.22848e-05
2.1984e-07
1.83198e-07
1.04441e-05
1.64323e-07
5.2728e-06
7.16346e-08
1.5467e-08
-7.78881e-06
3.98844e-08
6.71248e-08
-1.65034e-05
4.20675e-08
8.68222e-08
-2.04596e-05
2.29541e-08
8.28876e-08
-2.19797e-05
6.10651e-09
7.97538e-08
-2.24964e-05
-5.15969e-09
8.56119e-08
-2.2552e-05
-1.45173e-08
1.00603e-07
-2.22939e-05
-2.13634e-08
1.23242e-07
-2.17558e-05
-2.62851e-08
1.38292e-07
-2.09555e-05
-2.88687e-08
1.39188e-07
-1.99035e-05
-2.50355e-08
1.42332e-07
-1.8641e-05
-1.56925e-08
1.55192e-07
-1.71914e-05
-3.96448e-09
2.01524e-07
-1.55951e-05
1.02812e-08
3.05448e-07
-1.39055e-05
2.06027e-08
4.76696e-07
-1.21345e-05
3.70903e-08
7.21667e-07
-1.02729e-05
6.12268e-08
1.02226e-06
-8.31175e-06
9.41061e-08
1.35216e-06
-6.26426e-06
1.32008e-07
1.67275e-06
-4.15183e-06
1.6501e-07
1.94039e-06
-2.03626e-06
1.78701e-07
2.11271e-06
3.14645e-09
1.61925e-07
2.21586e-06
1.6245e-06
1.26365e-07
2.22092e-06
3.20722e-06
7.68809e-08
2.13654e-06
4.60801e-06
4.15159e-08
2.00546e-06
5.89062e-06
1.36101e-08
1.85191e-06
7.13505e-06
1.17588e-08
1.68638e-06
8.38311e-06
3.3222e-08
1.50363e-06
9.63415e-06
6.91942e-08
1.30791e-06
1.08164e-05
1.1124e-07
1.10801e-06
1.17993e-05
1.52601e-07
9.06351e-07
1.24404e-05
1.88459e-07
6.89102e-07
1.26622e-05
2.14192e-07
4.48744e-07
1.23106e-05
2.14349e-07
1.98559e-07
1.05253e-05
1.68603e-07
5.38938e-06
8.19682e-08
2.01439e-08
-7.84536e-06
3.63474e-08
1.25948e-07
-1.66405e-05
3.12568e-08
2.5034e-07
-2.05925e-05
8.5041e-09
3.37225e-07
-2.20579e-05
-8.68454e-09
4.07242e-07
-2.25466e-05
-1.9904e-08
4.63742e-07
-2.25813e-05
-2.7178e-08
5.0438e-07
-2.23024e-05
-3.22058e-08
5.31379e-07
-2.17486e-05
-3.4219e-08
5.5084e-07
-2.09422e-05
-3.27575e-08
5.80979e-07
-1.99053e-05
-2.83214e-08
6.19631e-07
-1.8657e-05
-2.26821e-08
6.69463e-07
-1.72278e-05
-1.34851e-08
7.34035e-07
-1.56578e-05
-1.94436e-09
7.8498e-07
-1.397e-05
1.35659e-08
8.3393e-07
-1.22119e-05
2.84374e-08
9.25125e-07
-1.04091e-05
4.49568e-08
1.055e-06
-8.50704e-06
6.53771e-08
1.21277e-06
-6.51305e-06
9.09693e-08
1.39388e-06
-4.45443e-06
1.21414e-07
1.58154e-06
-2.37424e-06
1.50225e-07
1.74939e-06
-3.30921e-07
1.66094e-07
1.83692e-06
1.37562e-06
1.61233e-07
1.86662e-06
3.04189e-06
1.355e-07
1.84337e-06
4.53045e-06
1.00673e-07
1.75857e-06
5.89092e-06
8.43405e-08
1.63646e-06
7.1822e-06
7.47915e-08
1.49649e-06
8.449e-06
7.39042e-08
1.34598e-06
9.69187e-06
9.2621e-08
1.1884e-06
1.08492e-05
1.24665e-07
1.02498e-06
1.18016e-05
1.60951e-07
8.42618e-07
1.24319e-05
1.90753e-07
6.32901e-07
1.26606e-05
2.11116e-07
3.93043e-07
1.23408e-05
2.09441e-07
1.36341e-07
1.06131e-05
1.68541e-07
5.44579e-06
7.99203e-08
3.29303e-08
-7.90454e-06
2.63199e-08
1.07461e-07
-1.67296e-05
1.46638e-08
2.2134e-07
-2.06947e-05
-1.16364e-08
3.48623e-07
-2.21547e-05
-3.04466e-08
4.6302e-07
-2.26198e-05
-4.11352e-08
5.60553e-07
-2.26318e-05
-4.70597e-08
6.3078e-07
-2.23233e-05
-4.92215e-08
6.73642e-07
-2.17423e-05
-4.91873e-08
7.05268e-07
-2.09268e-05
-4.70742e-08
7.25503e-07
-1.98824e-05
-4.30779e-08
7.26861e-07
-1.86228e-05
-3.54588e-08
7.19878e-07
-1.71949e-05
-2.58104e-08
7.05123e-07
-1.56295e-05
-1.34153e-08
6.95738e-07
-1.39617e-05
1.15138e-09
6.75253e-07
-1.22101e-05
1.87413e-08
6.49741e-07
-1.04197e-05
3.61019e-08
6.67388e-07
-8.58167e-06
5.70268e-08
7.38244e-07
-6.66483e-06
8.09711e-08
8.65349e-07
-4.68815e-06
1.06672e-07
1.03665e-06
-2.67773e-06
1.32239e-07
1.22998e-06
-6.77286e-07
1.53075e-07
1.32745e-06
1.11639e-06
1.61801e-07
1.42573e-06
2.78781e-06
1.55837e-07
1.47202e-06
4.34711e-06
1.37058e-07
1.46801e-06
5.78084e-06
1.14081e-07
1.4201e-06
7.1279e-06
1.02208e-07
1.33115e-06
8.42894e-06
1.09e-07
1.21929e-06
9.68181e-06
1.21888e-07
1.09282e-06
1.08337e-05
1.41923e-07
9.48999e-07
1.17809e-05
1.64456e-07
7.72232e-07
1.24194e-05
1.89217e-07
5.57654e-07
1.26685e-05
2.06594e-07
3.24332e-07
1.23702e-05
2.03854e-07
1.05132e-07
1.06677e-05
1.6449e-07
5.47443e-06
7.64867e-08
6.53061e-08
-7.98804e-06
1.83531e-08
1.78485e-07
-1.6845e-05
2.26341e-09
2.82865e-07
-2.07718e-05
-2.71681e-08
3.75948e-07
-2.21994e-05
-4.82995e-08
4.60801e-07
-2.26445e-05
-6.01554e-08
5.35264e-07
-2.26394e-05
-6.67957e-08
6.05463e-07
-2.23234e-05
-7.01089e-08
6.59404e-07
-2.17251e-05
-7.10392e-08
6.8369e-07
-2.08808e-05
-7.01605e-08
6.75415e-07
-1.98079e-05
-6.61778e-08
6.47293e-07
-1.85353e-05
-5.93671e-08
6.00849e-07
-1.70988e-05
-4.96073e-08
5.46724e-07
-1.55387e-05
-3.65998e-08
4.96771e-07
-1.38918e-05
-1.98696e-08
4.67272e-07
-1.21814e-05
9.09607e-10
4.4058e-07
-1.04172e-05
2.42986e-08
4.47181e-07
-8.63684e-06
4.86396e-08
5.25319e-07
-6.81979e-06
7.68879e-08
6.47955e-07
-4.91621e-06
1.05492e-07
8.057e-07
-2.96773e-06
1.3232e-07
9.9181e-07
-1.01755e-06
1.54211e-07
1.0962e-06
8.45002e-07
1.67043e-07
1.22037e-06
2.49488e-06
1.68779e-07
1.29552e-06
4.11293e-06
1.59038e-07
1.31399e-06
5.61938e-06
1.42987e-07
1.28554e-06
7.02787e-06
1.28448e-07
1.22779e-06
8.36582e-06
1.20829e-07
1.1473e-06
9.63598e-06
1.26282e-07
1.04293e-06
1.07965e-05
1.41502e-07
9.05015e-07
1.17563e-05
1.62482e-07
7.29423e-07
1.24115e-05
1.83429e-07
5.16937e-07
1.26807e-05
2.00205e-07
2.89101e-07
1.23999e-05
1.98054e-07
8.91077e-08
1.07082e-05
1.5941e-07
5.49133e-06
7.22081e-08
5.82186e-08
-8.06366e-06
1.7588e-08
1.92891e-07
-1.69823e-05
2.79884e-09
3.45305e-07
-2.08948e-05
-2.93599e-08
4.81628e-07
-2.22802e-05
-5.54758e-08
5.97686e-07
-2.26892e-05
-7.12897e-08
6.93528e-07
-2.26546e-05
-8.05926e-08
7.65718e-07
-2.23095e-05
-8.60697e-08
8.21084e-07
-2.1691e-05
-8.93838e-08
8.5282e-07
-2.08236e-05
-8.89385e-08
8.59219e-07
-1.97291e-05
-8.51966e-08
8.4161e-07
-1.84394e-05
-7.82087e-08
8.02678e-07
-1.69917e-05
-6.80836e-08
7.45977e-07
-1.5427e-05
-5.49594e-08
6.79991e-07
-1.37868e-05
-3.89307e-08
6.21851e-07
-1.21035e-05
-1.97266e-08
5.85333e-07
-1.03846e-05
4.00622e-09
5.58842e-07
-8.63924e-06
2.89778e-08
5.64455e-07
-6.87902e-06
5.37091e-08
6.31638e-07
-5.06771e-06
8.44038e-08
7.43511e-07
-3.19519e-06
1.15689e-07
8.821e-07
-1.30001e-06
1.43966e-07
9.95567e-07
5.66942e-07
1.64678e-07
1.09878e-06
2.21797e-06
1.73768e-07
1.1667e-06
3.87385e-06
1.71199e-07
1.19249e-06
5.43392e-06
1.59706e-07
1.17946e-06
6.89554e-06
1.454e-07
1.13655e-06
8.27387e-06
1.3488e-07
1.06901e-06
9.57038e-06
1.33142e-07
9.75918e-07
1.07488e-05
1.40834e-07
8.49928e-07
1.17265e-05
1.55833e-07
6.83635e-07
1.24032e-05
1.74581e-07
4.81424e-07
1.26912e-05
1.91746e-07
2.6499e-07
1.24254e-05
1.9089e-07
7.97429e-08
1.07402e-05
1.53183e-07
5.50321e-06
6.78614e-08
5.63785e-08
-8.13328e-06
1.33792e-08
1.90683e-07
-1.71152e-05
-1.34539e-09
3.65961e-07
-2.10363e-05
-3.37492e-08
5.40903e-07
-2.23942e-05
-6.09094e-08
6.98844e-07
-2.27689e-05
-7.81515e-08
8.34421e-07
-2.27013e-05
-8.88281e-08
9.33071e-07
-2.23125e-05
-9.5604e-08
1.01047e-06
-2.1669e-05
-9.94062e-08
1.06679e-06
-2.07795e-05
-1.0028e-07
1.10011e-06
-1.96641e-05
-9.82476e-08
1.1093e-06
-1.8355e-05
-9.34944e-08
1.09274e-06
-1.68892e-05
-8.59236e-08
1.0489e-06
-1.53079e-05
-7.51989e-08
9.78044e-07
-1.3655e-05
-6.09591e-08
8.88744e-07
-1.1971e-05
-4.30598e-08
8.08428e-07
-1.02828e-05
-2.13962e-08
7.52081e-07
-8.58739e-06
4.55141e-09
7.1339e-07
-6.87358e-06
3.33032e-08
7.24158e-07
-5.1406e-06
6.21788e-08
7.80888e-07
-3.34666e-06
9.47901e-08
8.675e-07
-1.51373e-06
1.27151e-07
9.6509e-07
3.14573e-07
1.54808e-07
1.05467e-06
1.95627e-06
1.72135e-07
1.123e-06
3.62721e-06
1.78323e-07
1.1586e-06
5.22505e-06
1.73255e-07
1.15951e-06
6.73315e-06
1.61468e-07
1.12958e-06