/*--------------------------------*- C++ -*----------------------------------*\
| =========                 |                                                 |
| \\      /  F ield         | OpenFOAM: The Open Source CFD Toolbox           |
|  \\    /   O peration     | Version:  v2012                                 |
|   \\  /    A nd           | Website:  www.openfoam.com                      |
|    \\/     M anipulation  |                                                 |
\*---------------------------------------------------------------------------*/
FoamFile
{
    version     2.0;
    format      ascii;
    class       volVectorField;
    location    "950";
    object      U;
}
// * * * * * * * * * * * * * * * * * * * * * * * * * * * * * * * * * * * * * //

dimensions      [0 1 -1 0 0 0 0];


internalField   nonuniform List<vector> 
78750
(
(-0.00362662 0.0206975 0.0473024)
(-0.00947247 0.0176281 0.0738322)
(-0.0156706 -0.00389739 0.0744208)
(-0.0163591 -0.0183423 0.0697988)
(-0.0132276 -0.038262 0.0629493)
(-0.00704338 -0.0506517 0.0593145)
(0.00133223 -0.0593098 0.0567643)
(0.011268 -0.0650208 0.0545971)
(0.0207784 -0.0688122 0.0525917)
(0.0340316 -0.0815228 0.0481286)
(0.0448084 -0.0836309 0.0463789)
(0.0558815 -0.0826605 0.0453469)
(0.0664103 -0.0803092 0.0442697)
(0.0760175 -0.0767317 0.0430441)
(0.0844416 -0.0723719 0.0418176)
(0.0921741 -0.0669422 0.0413242)
(0.0986828 -0.0619413 0.0403233)
(0.104236 -0.0571863 0.039978)
(0.108724 -0.0519805 0.0400411)
(0.112354 -0.0466618 0.0397163)
(0.114805 -0.0402719 0.0397999)
(0.116085 -0.0368279 0.0402625)
(0.116478 -0.0325878 0.0409601)
(0.115767 -0.0283018 0.0418522)
(0.113991 -0.0225835 0.0430841)
(0.110755 -0.0163229 0.0452101)
(0.105858 -0.00981443 0.0476083)
(0.0997357 -0.00360197 0.0502841)
(0.0922642 0.00313267 0.0530918)
(0.0826094 0.0100231 0.0564465)
(0.072934 0.0190212 0.0567214)
(0.0571653 0.0285744 0.0663019)
(0.0433723 0.0338468 0.0737989)
(0.0253139 0.0389533 0.0788101)
(0.00776386 0.0370147 0.057768)
(0.00116447 0.012357 0.022248)
(0.00740986 7.25109e-05 0.0392017)
(0.014982 -0.0318749 0.0412886)
(0.0241833 -0.0672748 0.0387628)
(0.0326134 -0.0955775 0.0365086)
(0.0403484 -0.117628 0.0344057)
(0.0474249 -0.133484 0.0323362)
(0.0532174 -0.142828 0.0305597)
(0.0604251 -0.147403 0.0284703)
(0.06436 -0.143033 0.0286085)
(0.068527 -0.134927 0.0282832)
(0.0714175 -0.126601 0.0273493)
(0.0735499 -0.117588 0.0259472)
(0.07483 -0.107453 0.0240865)
(0.0753401 -0.096762 0.021627)
(0.0747695 -0.0875241 0.017263)
(0.0738648 -0.0778334 0.0129692)
(0.0726457 -0.0682772 0.0085117)
(0.0714362 -0.0589878 0.00421573)
(0.0704023 -0.0496529 0.000575113)
(0.0695578 -0.0402569 -0.00217779)
(0.0687797 -0.0307663 -0.00415209)
(0.0679029 -0.0210266 -0.00559323)
(0.0667107 -0.0110515 -0.00658222)
(0.0656142 -0.00142305 -0.00689341)
(0.0633467 0.0144519 -0.00357547)
(0.0618966 0.0220341 -0.00126963)
(0.0581829 0.0340143 0.00279729)
(0.0540651 0.0462223 0.00869368)
(0.0492232 0.058655 0.0173047)
(0.0414036 0.0734688 0.0240742)
(0.0339596 0.0914426 0.0321313)
(0.0234417 0.111279 0.0456305)
(0.0110244 0.122293 0.0568944)
(0.0021786 0.0985588 0.0389653)
(0.000131203 -0.0356822 0.0156357)
(0.00405845 -0.0953875 0.0265479)
(0.00923263 -0.135944 0.0294415)
(0.0142658 -0.160159 0.0300572)
(0.0178967 -0.171777 0.0301233)
(0.0213298 -0.174466 0.0301242)
(0.0216217 -0.173748 0.0298671)
(0.0219795 -0.169571 0.0299649)
(0.0215773 -0.163041 0.0300064)
(0.0191007 -0.155427 0.0297331)
(0.0176041 -0.145128 0.0287508)
(0.0156541 -0.13212 0.0266056)
(0.0133369 -0.116573 0.0225833)
(0.0111111 -0.0993301 0.0159431)
(0.00917353 -0.0816148 0.00648637)
(0.00747825 -0.065492 -0.00458488)
(0.00612334 -0.0525567 -0.0153624)
(0.0052995 -0.0433119 -0.0239265)
(0.00482127 -0.0369799 -0.0297662)
(0.00484178 -0.0313769 -0.0334872)
(0.00537725 -0.0255359 -0.0354895)
(0.00617099 -0.0194527 -0.0356907)
(0.00738827 -0.012802 -0.0345562)
(0.00906802 -0.00502703 -0.0322696)
(0.0108231 0.00446101 -0.0291567)
(0.0126265 0.01237 -0.0263297)
(0.0146879 0.023109 -0.0224393)
(0.0162369 0.0371771 -0.0171241)
(0.0173595 0.0533347 -0.0102886)
(0.0163117 0.0711002 -0.00129811)
(0.016283 0.0889069 0.0117907)
(0.0107311 0.113912 0.0236211)
(0.00625352 0.132821 0.035844)
(0.00130552 0.134794 0.0410858)
(-0.00047238 0.0937555 0.0286695)
(0.00016706 -0.03812 0.0135538)
(-0.000171709 -0.0994942 0.0230012)
(-0.00133332 -0.14084 0.0241754)
(-0.00254443 -0.164897 0.0238049)
(-0.00366872 -0.175795 0.024264)
(-0.00528693 -0.177051 0.0256301)
(-0.00521236 -0.172982 0.027373)
(-0.00666557 -0.165693 0.0288135)
(-0.00736818 -0.155028 0.0300603)
(-0.0079753 -0.141818 0.0308211)
(-0.00838992 -0.127314 0.0306607)
(-0.0084221 -0.112115 0.0291542)
(-0.00796428 -0.0964639 0.025927)
(-0.00695331 -0.0807913 0.0206899)
(-0.00536557 -0.0658897 0.0135637)
(-0.00332839 -0.0527476 0.00525081)
(-0.00105598 -0.0419052 -0.00332332)
(0.0010338 -0.0335729 -0.0110091)
(0.00275034 -0.0266466 -0.0177543)
(0.00394147 -0.020923 -0.0229326)
(0.00491457 -0.0160263 -0.0261156)
(0.00570832 -0.0120794 -0.0283767)
(0.00656636 -0.00819294 -0.0290231)
(0.00750373 -0.00290486 -0.0284314)
(0.00871323 0.00407557 -0.0269966)
(0.00982013 0.0105297 -0.0255333)
(0.0109675 0.0203924 -0.022365)
(0.0116801 0.0330617 -0.0176358)
(0.0120972 0.0485945 -0.0118539)
(0.0118854 0.0675814 -0.00456327)
(0.0108751 0.0908075 0.00553348)
(0.00786755 0.117498 0.0190414)
(0.00486201 0.134101 0.0311798)
(0.00120601 0.131731 0.0364255)
(-0.00027851 0.0760592 0.0210451)
(-0.000418389 -0.0428305 0.012335)
(-0.00152186 -0.1034 0.0196234)
(-0.0029816 -0.143163 0.0191548)
(-0.00468227 -0.16583 0.019474)
(-0.00632157 -0.177041 0.0206082)
(-0.00800957 -0.180842 0.0223642)
(-0.00898503 -0.180167 0.0238345)
(-0.00936812 -0.176138 0.0253591)
(-0.00912989 -0.169908 0.0271706)
(-0.00810233 -0.162131 0.0294367)
(-0.00633993 -0.153005 0.032211)
(-0.0039228 -0.142543 0.0354111)
(-0.000954851 -0.130688 0.0388181)
(0.00245945 -0.117332 0.0420632)
(0.00613639 -0.102424 0.04462)
(0.00983932 -0.0862642 0.0457888)
(0.0133626 -0.069451 0.0448326)
(0.0165191 -0.0525951 0.041293)
(0.0191921 -0.0365764 0.0347981)
(0.0212465 -0.0227867 0.0255607)
(0.0224002 -0.0127348 0.0156864)
(0.0226731 -0.00565707 0.00750346)
(0.0221443 -0.000220075 0.00133349)
(0.0206813 0.00513796 -0.00339168)
(0.0194839 0.00969752 -0.00547741)
(0.0182292 0.0177652 -0.00641737)
(0.0170098 0.0276318 -0.00697533)
(0.0158473 0.0384062 -0.00712831)
(0.0148637 0.0524084 -0.00545366)
(0.0135276 0.0706361 -0.00119684)
(0.0117733 0.0946967 0.00727785)
(0.00886832 0.12138 0.0192411)
(0.00558924 0.136036 0.0289651)
(0.00274068 0.131552 0.0309271)
(0.000247202 0.0742627 0.0178038)
(-0.000346714 -0.0403771 0.00777902)
(-0.00110653 -0.10205 0.00957869)
(-0.00202639 -0.141699 0.0107137)
(-0.0025788 -0.164846 0.0116974)
(-0.00285533 -0.177377 0.0121577)
(-0.00265174 -0.184255 0.0113017)
(-0.00226514 -0.186945 0.0108125)
(-0.00135563 -0.187043 0.0102084)
(2.11805e-05 -0.184953 0.00963813)
(0.00187962 -0.180801 0.00912878)
(0.00412631 -0.174708 0.00881954)
(0.00671874 -0.166706 0.00888416)
(0.00956016 -0.15678 0.00952766)
(0.0126336 -0.145022 0.0109779)
(0.0158053 -0.131404 0.0134127)
(0.0191097 -0.116674 0.0160829)
(0.0221894 -0.100458 0.0191774)
(0.0249449 -0.0825526 0.0232287)
(0.0273234 -0.0632044 0.0284067)
(0.0292674 -0.043075 0.0336514)
(0.0304387 -0.0220694 0.037829)
(0.030494 -0.00221018 0.0388478)
(0.0296781 0.0153022 0.0332818)
(0.0279256 0.0286164 0.0192135)
(0.0262302 0.0340311 0.0110351)
(0.0237873 0.0400682 0.00454795)
(0.021343 0.0470674 0.000251413)
(0.0192648 0.0562138 -0.00128082)
(0.0171951 0.0679241 -0.00075951)
(0.0151108 0.0840617 0.00214717)
(0.012852 0.105937 0.00898536)
(0.00994472 0.1293 0.0199646)
(0.0067009 0.140752 0.0286032)
(0.00349805 0.134263 0.0308157)
(0.000506441 0.0761141 0.0176641)
(-0.000193669 -0.0406451 0.00582775)
(0.000460442 -0.102337 0.00625133)
(0.00201727 -0.145731 0.00327022)
(0.00409921 -0.174411 0.000172028)
(0.00620521 -0.191138 -0.00127575)
(0.0082902 -0.200187 -0.00172216)
(0.0103183 -0.204727 -0.00193797)
(0.0123106 -0.20616 -0.00219878)
(0.0141367 -0.205205 -0.00274062)
(0.0162173 -0.201679 -0.00372759)
(0.0181567 -0.19598 -0.00481819)
(0.02023 -0.188169 -0.00595644)
(0.0222961 -0.178215 -0.00706573)
(0.0243846 -0.166695 -0.00796963)
(0.0261968 -0.15247 -0.00854115)
(0.0277082 -0.135086 -0.00766843)
(0.0289826 -0.11546 -0.00512394)
(0.030011 -0.094877 -0.00148625)
(0.0308795 -0.074315 0.00304617)
(0.0314662 -0.0545393 0.00786039)
(0.0322192 -0.0351583 0.0127074)
(0.0323205 -0.00799372 0.0243647)
(0.0320673 0.00563655 0.0298204)
(0.0317445 0.0243431 0.0327178)
(0.030676 0.0411922 0.0314814)
(0.0286048 0.053828 0.0261156)
(0.0258196 0.0630234 0.0187022)
(0.0229471 0.0705856 0.0125072)
(0.020035 0.0789662 0.00891741)
(0.0170892 0.0911094 0.00842885)
(0.0141402 0.110484 0.0124307)
(0.0107739 0.134 0.0213434)
(0.0071103 0.146481 0.0289368)
(0.00384633 0.141136 0.030897)
(0.000497212 0.0824416 0.0176998)
(0.000177187 -0.0471515 0.00047972)
(0.00278721 -0.119415 -0.0032186)
(0.0066812 -0.167285 -0.00574773)
(0.010554 -0.195604 -0.00652404)
(0.0138714 -0.210978 -0.00659992)
(0.016595 -0.218638 -0.00650713)
(0.0189199 -0.221753 -0.0063908)
(0.0210973 -0.221786 -0.00626806)
(0.0227917 -0.219806 -0.00622241)
(0.0245466 -0.215149 -0.00624345)
(0.0259861 -0.208616 -0.00638375)
(0.0269345 -0.200065 -0.00675755)
(0.0279333 -0.188235 -0.00720111)
(0.0282366 -0.172646 -0.00758491)
(0.0287784 -0.154895 -0.0077323)
(0.0289594 -0.135753 -0.00772548)
(0.0290674 -0.115562 -0.00757913)
(0.0292204 -0.0947554 -0.00740062)
(0.0293502 -0.0739479 -0.00782036)
(0.0295326 -0.0540013 -0.00758734)
(0.0296159 -0.0339859 -0.0060394)
(0.0295015 -0.00751926 0.00218627)
(0.0291024 0.0072457 0.00840005)
(0.0284531 0.0237009 0.01569)
(0.0278007 0.0437392 0.0223219)
(0.0260268 0.0619863 0.0237612)
(0.0242482 0.0752142 0.0225201)
(0.0214931 0.0855074 0.0185746)
(0.0183282 0.0949819 0.014007)
(0.0149622 0.106344 0.0114912)
(0.011579 0.123304 0.0138453)
(0.00813807 0.14364 0.0214781)
(0.00503319 0.153963 0.0276664)
(0.002133 0.147795 0.02743)
(2.40447e-06 0.0849184 0.0144958)
(0.000389862 -0.0587391 -0.000574302)
(0.00299782 -0.141937 -0.00231809)
(0.00618484 -0.191139 -0.0030664)
(0.00915834 -0.216627 -0.00350228)
(0.0116814 -0.229052 -0.00399049)
(0.0137805 -0.235027 -0.00452493)
(0.0157216 -0.237257 -0.00507841)
(0.0172024 -0.236631 -0.00550253)
(0.0186221 -0.233059 -0.00595686)
(0.019714 -0.227004 -0.0064345)
(0.0204122 -0.217779 -0.00712732)
(0.0209726 -0.204938 -0.00794454)
(0.0214155 -0.190139 -0.00865988)
(0.0216219 -0.173644 -0.00943964)
(0.0215677 -0.155787 -0.0104537)
(0.0215835 -0.136299 -0.0116865)
(0.0215703 -0.115257 -0.0129513)
(0.0213488 -0.0935315 -0.0141212)
(0.0211313 -0.0725242 -0.0149796)
(0.0209645 -0.051844 -0.0152735)
(0.0204907 -0.0294002 -0.0140913)
(0.0201792 -0.00365659 -0.00896491)
(0.0198927 0.0115039 -0.00469522)
(0.0193665 0.0281103 0.000603928)
(0.0185589 0.0471172 0.00791527)
(0.0181218 0.0653779 0.0155687)
(0.0166462 0.0815568 0.0184752)
(0.0149636 0.0946373 0.0170234)
(0.0127608 0.105678 0.0136758)
(0.0102779 0.117087 0.0111495)
(0.00772624 0.131617 0.0124277)
(0.00524683 0.147522 0.0182962)
(0.002682 0.155275 0.0229459)
(0.00108369 0.14665 0.0250958)
(-0.000307505 0.0828649 0.0125278)
(0.000426155 -0.067263 -0.00210597)
(0.00246046 -0.155173 -0.00501208)
(0.00477671 -0.203537 -0.00642176)
(0.00684435 -0.227121 -0.00677917)
(0.00856085 -0.237926 -0.00666013)
(0.00999981 -0.242472 -0.0065425)
(0.0112407 -0.243336 -0.0066118)
(0.0121853 -0.2415 -0.00695366)
(0.0130343 -0.236631 -0.00765583)
(0.0134893 -0.229208 -0.00854105)
(0.0140057 -0.218548 -0.00928228)
(0.0143478 -0.205422 -0.0100319)
(0.0143169 -0.1905 -0.0111897)
(0.0144577 -0.173363 -0.012688)
(0.0145957 -0.153704 -0.014289)
(0.0144699 -0.131829 -0.0160105)
(0.0141959 -0.108557 -0.0178327)
(0.0138182 -0.0853974 -0.0196295)
(0.0134097 -0.0637715 -0.0212513)
(0.0129063 -0.0419685 -0.0220793)
(0.0122729 -0.0189978 -0.0212858)
(0.0120411 0.00290162 -0.0183158)
(0.0120786 0.0168478 -0.0149794)
(0.0119581 0.0336198 -0.00919658)
(0.0118585 0.0510293 -0.00180836)
(0.0116105 0.0685825 0.00491375)
(0.010969 0.0846653 0.00958659)
(0.0101441 0.0980343 0.0118633)
(0.00889993 0.109688 0.0117147)
(0.00723062 0.12145 0.0109969)
(0.00523011 0.134934 0.0122462)
(0.00314384 0.147921 0.0163787)
(0.00144905 0.153241 0.0201674)
(-0.000114833 0.142472 0.0200504)
(-0.000430773 0.0770121 0.00866031)
(0.000285168 -0.0739056 -0.00262152)
(0.0019165 -0.165964 -0.00529868)
(0.00397262 -0.213349 -0.00686165)
(0.00585703 -0.234524 -0.00793334)
(0.0074157 -0.243663 -0.00845927)
(0.00874266 -0.247187 -0.00862583)
(0.00992615 -0.247233 -0.00863375)
(0.0107623 -0.244781 -0.00859819)
(0.0114509 -0.238994 -0.00871329)
(0.0119346 -0.230149 -0.00891342)
(0.0123662 -0.218858 -0.00935872)
(0.0125686 -0.205476 -0.00988605)
(0.012752 -0.189518 -0.0104765)
(0.0126999 -0.170922 -0.0111518)
(0.0123685 -0.149938 -0.0120749)
(0.0118693 -0.127 -0.013383)
(0.0112246 -0.102853 -0.0151272)
(0.0104877 -0.0787333 -0.0171993)
(0.00971593 -0.0559576 -0.0193579)
(0.00886874 -0.0327003 -0.0208499)
(0.00814444 -0.0111209 -0.0213903)
(0.00795951 0.00794719 -0.0204234)
(0.00793686 0.0214986 -0.0185517)
(0.00783819 0.037283 -0.0146696)
(0.00775716 0.0535542 -0.00885169)
(0.00777865 0.069965 -0.00213007)
(0.00745406 0.0857162 0.00303937)
(0.00711844 0.0996694 0.00666243)
(0.00621812 0.112502 0.0081602)
(0.00497434 0.125088 0.00880662)
(0.0035714 0.137929 0.0102051)
(0.00181461 0.148372 0.0124873)
(0.00066571 0.151232 0.0152014)
(-0.000445328 0.137647 0.0147481)
(-0.000341583 0.0713907 0.00537567)
(0.000352524 -0.0790623 -0.00174251)
(0.00177926 -0.175521 -0.00251725)
(0.00324531 -0.223374 -0.00320934)
(0.00457482 -0.243062 -0.00427106)
(0.0056623 -0.250539 -0.00527956)
(0.00672882 -0.252553 -0.00612592)
(0.00751494 -0.251352 -0.00669578)
(0.00823268 -0.246882 -0.00718688)
(0.00874494 -0.239864 -0.00759455)
(0.00934252 -0.230397 -0.00799863)
(0.00953539 -0.218817 -0.00810677)
(0.00967565 -0.20429 -0.0082083)
(0.00948344 -0.186609 -0.00844807)
(0.0089731 -0.166035 -0.00895571)
(0.00826628 -0.143013 -0.00992156)
(0.00737799 -0.118148 -0.0114977)
(0.0063681 -0.0923795 -0.0137058)
(0.00533196 -0.0671305 -0.0163016)
(0.00431951 -0.0437518 -0.0188174)
(0.00351699 -0.0210754 -0.0205336)
(0.00313629 -0.00137201 -0.0213368)
(0.00316471 0.0138591 -0.0210885)
(0.00326642 0.0287414 -0.0196542)
(0.00334259 0.0432113 -0.0167308)
(0.0034309 0.0579704 -0.0121783)
(0.00349947 0.0731348 -0.00652564)
(0.00357068 0.0882116 -0.00129983)
(0.00330232 0.102592 0.00214418)
(0.00287119 0.115797 0.004355)
(0.0021906 0.12837 0.00595311)
(0.00109381 0.139989 0.00759309)
(0.000458389 0.147988 0.0103861)
(-0.000511795 0.14858 0.0115402)
(-0.000889849 0.132136 0.0103394)
(-0.00033079 0.0662591 0.00301417)
(0.000319233 -0.0855218 -0.00153837)
(0.00108023 -0.182651 -0.00265486)
(0.00169368 -0.227873 -0.00344779)
(0.00221257 -0.245858 -0.00407918)
(0.00270869 -0.252383 -0.0046083)
(0.00313396 -0.253803 -0.00507244)
(0.00365383 -0.2518 -0.00549962)
(0.00398372 -0.247104 -0.00564241)
(0.00424233 -0.239874 -0.0055139)
(0.00409773 -0.229849 -0.00508271)
(0.00387659 -0.216226 -0.0048187)
(0.00331961 -0.199231 -0.00472471)
(0.00251302 -0.179158 -0.00474872)
(0.00169528 -0.156849 -0.0050852)
(0.00098781 -0.132716 -0.00609614)
(0.000251885 -0.106995 -0.00793404)
(-0.000478291 -0.0806163 -0.0107284)
(-0.00106189 -0.0553091 -0.0143303)
(-0.00161419 -0.0326853 -0.017348)
(-0.00186076 -0.0126692 -0.0193512)
(-0.00173871 0.00386501 -0.0202757)
(-0.00140422 0.0190394 -0.0201775)
(-0.00102805 0.0329738 -0.0191712)
(-0.000647633 0.0467913 -0.0169825)
(-0.00026716 0.0609713 -0.013632)
(7.939e-05 0.0754582 -0.00954859)
(0.000312732 0.0898442 -0.00568712)
(0.000482684 0.10366 -0.00228265)
(0.000475963 0.116716 0.000518118)
(0.0002153 0.12893 0.00296694)
(-7.04873e-05 0.139496 0.00568422)
(-0.000587681 0.145533 0.00748575)
(-0.000908307 0.144285 0.00831031)
(-0.000950781 0.125318 0.00688458)
(-0.000225399 0.0610417 0.00150631)
(1.59802e-05 -0.0865643 -0.000827418)
(7.53556e-07 -0.183138 -0.00169827)
(-8.49499e-07 -0.228155 -0.00254389)
(7.44694e-06 -0.245987 -0.00315906)
(8.14348e-05 -0.252438 -0.00348773)
(0.000157679 -0.253722 -0.00352287)
(4.9512e-05 -0.251536 -0.00321933)
(-3.39655e-05 -0.245894 -0.00285873)
(-0.000322343 -0.236813 -0.00248904)
(-0.000842865 -0.224302 -0.00218999)
(-0.00137186 -0.209156 -0.00192659)
(-0.00192025 -0.191758 -0.00168882)
(-0.00228992 -0.172539 -0.00181267)
(-0.00252494 -0.151715 -0.00227696)
(-0.00278033 -0.128497 -0.00295078)
(-0.00288425 -0.1032 -0.00426083)
(-0.00284964 -0.0767544 -0.00665758)
(-0.00292006 -0.0514637 -0.00892418)
(-0.0028031 -0.0287242 -0.0123605)
(-0.00260807 -0.00950721 -0.0152165)
(-0.00228453 0.00597626 -0.0167886)
(-0.00185216 0.0205449 -0.0173627)
(-0.00139656 0.0344187 -0.0167449)
(-0.000981426 0.0478065 -0.0155137)
(-0.000570631 0.0614616 -0.0132424)
(-0.000147534 0.0755279 -0.0100771)
(0.000155739 0.0896338 -0.00656206)
(0.000354264 0.103396 -0.00332975)
(0.000427826 0.116524 -0.000666449)
(0.00024757 0.128724 0.00192602)
(2.93257e-05 0.138314 0.00398754)
(-0.000249456 0.143023 0.00541814)
(-0.000468471 0.14035 0.00592682)
(-0.000476892 0.119905 0.00464687)
(-3.34161e-05 0.057873 0.00096595)
(-4.95284e-05 -0.086224 0.000161324)
(-0.000416284 -0.182997 -0.000368749)
(-0.000785023 -0.227788 -0.00115874)
(-0.00110457 -0.245267 -0.00172683)
(-0.00141729 -0.251226 -0.00200858)
(-0.00171289 -0.251686 -0.00212518)
(-0.00202347 -0.248329 -0.0021713)
(-0.00235111 -0.24168 -0.00217946)
(-0.00269491 -0.232159 -0.0021423)
(-0.00285346 -0.220518 -0.00204896)
(-0.0030063 -0.206695 -0.00178919)
(-0.0030598 -0.19058 -0.00127764)
(-0.00304746 -0.172433 -0.000482611)
(-0.00303856 -0.151832 0.000347449)
(-0.00315194 -0.12863 0.000965812)
(-0.00316934 -0.103473 0.000854077)
(-0.00309252 -0.0771759 -0.000345039)
(-0.00270586 -0.0513068 -0.00350867)
(-0.00226601 -0.028271 -0.0066707)
(-0.00176555 -0.00921266 -0.00934319)
(-0.00136344 0.00693135 -0.011781)
(-0.000968843 0.0216787 -0.0133756)
(-0.000601658 0.0353065 -0.0138821)
(-0.000146045 0.0487602 -0.012923)
(0.000208204 0.0621036 -0.0114551)
(0.000486153 0.0756081 -0.00948596)
(0.000794729 0.0894321 -0.00694828)
(0.000964004 0.103214 -0.00430374)
(0.000897732 0.11654 -0.00168792)
(0.000846844 0.128508 0.000493808)
(0.000547075 0.137539 0.00242293)
(0.00030576 0.141409 0.00364111)
(6.32553e-05 0.137889 0.00406945)
(-4.15405e-05 0.116914 0.00318196)
(6.63253e-05 0.0570383 0.000828388)
(-8.8737e-05 -0.084692 0.000461532)
(-0.000513508 -0.180387 -0.000261029)
(-0.00099923 -0.22461 -0.00143236)
(-0.00139467 -0.241945 -0.00225529)
(-0.00176223 -0.248013 -0.00271184)
(-0.00206217 -0.248753 -0.00298995)
(-0.00228275 -0.24591 -0.00314204)
(-0.00239956 -0.240047 -0.00313281)
(-0.00250068 -0.231441 -0.00292323)
(-0.0024597 -0.220417 -0.00258987)
(-0.00243798 -0.206691 -0.00208547)
(-0.00242809 -0.190525 -0.00144041)
(-0.00243805 -0.171783 -0.000625249)
(-0.00250704 -0.15034 0.000390887)
(-0.00250043 -0.127242 0.00140142)
(-0.00235842 -0.103103 0.00215848)
(-0.00195367 -0.0789101 0.00248442)
(-0.00136424 -0.0548122 0.00172225)
(-0.000628598 -0.0317394 -0.000466325)
(-8.37369e-06 -0.0110394 -0.00357878)
(0.000383095 0.00655714 -0.00643282)
(0.000606249 0.0216526 -0.00868049)
(0.000811554 0.0355134 -0.00997458)
(0.00102313 0.0488911 -0.0101949)
(0.00124072 0.0622429 -0.00954284)
(0.00142172 0.075772 -0.00822829)
(0.00152994 0.0895289 -0.0063844)
(0.00156345 0.103413 -0.00419321)
(0.00147426 0.116913 -0.00191511)
(0.00121204 0.128869 0.000151763)
(0.000972413 0.137376 0.00174453)
(0.000694567 0.140704 0.00270976)
(0.000446544 0.13681 0.00306073)
(0.000240363 0.115797 0.00246369)
(9.6414e-05 0.0573008 0.000884931)
(-7.03558e-05 -0.0836611 0.000176212)
(-0.000303718 -0.178611 -0.000876572)
(-0.000520385 -0.223328 -0.00190367)
(-0.000722924 -0.240798 -0.00256159)
(-0.000832173 -0.246965 -0.00301343)
(-0.000944079 -0.247833 -0.00329558)
(-0.000954756 -0.245291 -0.00349987)
(-0.000985353 -0.239573 -0.00356842)
(-0.000951214 -0.231104 -0.00353054)
(-0.000952943 -0.21999 -0.00338332)
(-0.000983513 -0.206302 -0.00308468)
(-0.001075 -0.190201 -0.00251722)
(-0.0011185 -0.17197 -0.00160119)
(-0.00115741 -0.1517 -9.9995e-05)
(-0.000898567 -0.130556 0.00163801)
(-0.000496807 -0.108359 0.00352449)
(4.48498e-05 -0.0851457 0.00517652)
(0.000671106 -0.0612906 0.00605323)
(0.00133295 -0.0375165 0.00560814)
(0.00193894 -0.0149438 0.00356057)
(0.00229905 0.00539619 0.000294176)
(0.00246918 0.0215759 -0.00293765)
(0.00260962 0.0364059 -0.00559273)
(0.00252299 0.0496802 -0.00748528)
(0.0024989 0.0627761 -0.00788455)
(0.00246459 0.0762728 -0.00719348)
(0.00240074 0.0902204 -0.00579139)
(0.00223247 0.104284 -0.0039789)
(0.00199876 0.117791 -0.00197209)
(0.0016794 0.129334 -0.000106516)
(0.00141452 0.137105 0.00127806)
(0.00108446 0.139892 0.00210081)
(0.000809837 0.135986 0.00242596)
(0.000480488 0.115855 0.00215897)
(0.000123933 0.0582364 0.00103735)
(-7.26137e-06 -0.0836349 0.000152884)
(5.96392e-05 -0.178467 -0.000796129)
(0.000100554 -0.222899 -0.00193152)
(0.000133036 -0.240808 -0.00279458)
(0.000117352 -0.247013 -0.00331504)
(0.000149622 -0.247983 -0.0036832)
(0.000133702 -0.245316 -0.00392032)
(0.00015998 -0.239595 -0.00408519)
(0.000245254 -0.23107 -0.00418293)
(0.000227815 -0.219585 -0.00401393)
(0.000213271 -0.205497 -0.00360519)
(0.000258423 -0.189404 -0.00309931)
(0.000241319 -0.171555 -0.00249466)
(0.000453238 -0.153152 -0.00208537)
(0.000619764 -0.133387 -0.00139493)
(0.00096968 -0.112312 -0.000280168)
(0.00143564 -0.0902143 0.00130993)
(0.00197027 -0.0672963 0.00318196)
(0.00252246 -0.0438212 0.00481241)
(0.00303287 -0.0204829 0.00543482)
(0.00339443 0.00180115 0.00445164)
(0.00362016 0.0191533 0.00244113)
(0.00371604 0.036006 -0.000356725)
(0.00363627 0.0509096 -0.00249996)
(0.00345189 0.0644657 -0.00431655)
(0.00320456 0.0778712 -0.00486236)
(0.00294352 0.0916435 -0.0042659)
(0.00266285 0.105591 -0.00298173)
(0.00235024 0.118858 -0.00145084)
(0.0020162 0.129959 -3.25769e-05)
(0.00165598 0.13731 0.00100272)
(0.00133086 0.140005 0.00165806)
(0.000959388 0.136182 0.00205214)
(0.000556795 0.116367 0.00196834)
(0.000126246 0.0596755 0.00111503)
(-2.79582e-05 -0.0846465 2.17801e-05)
(9.82339e-05 -0.180538 -0.00109745)
(0.000340104 -0.224186 -0.00220075)
(0.000485519 -0.24082 -0.00292815)
(0.000607783 -0.246798 -0.00343249)
(0.000711361 -0.247698 -0.00379992)
(0.000793398 -0.245229 -0.00408698)
(0.000854922 -0.239574 -0.00425606)
(0.000883399 -0.230893 -0.00428165)
(0.000921699 -0.219558 -0.00419196)
(0.000993203 -0.206082 -0.00405018)
(0.00105659 -0.19041 -0.00375333)
(0.00116802 -0.17317 -0.00334194)
(0.00125291 -0.154402 -0.0027402)
(0.00133715 -0.135097 -0.00213753)
(0.00144768 -0.115057 -0.001456)
(0.00163757 -0.0938049 -0.000564287)
(0.0018868 -0.0714266 0.000622691)
(0.00217399 -0.0481575 0.00207975)
(0.00248015 -0.0246932 0.00346121)
(0.00278734 -0.00187479 0.00415822)
(0.00299214 0.0166101 0.00374075)
(0.00308654 0.0347077 0.00216471)
(0.00311514 0.0507241 4.96626e-05)
(0.00299275 0.0654219 -0.00119755)
(0.002824 0.0794311 -0.002173)
(0.00261409 0.0931805 -0.00277709)
(0.0023654 0.106842 -0.00242312)
(0.00211649 0.119724 -0.0013867)
(0.00184242 0.130461 -0.000174929)
(0.00155155 0.137539 0.000673779)
(0.00123796 0.140141 0.00128468)
(0.000872236 0.13677 0.00167452)
(0.000440311 0.117875 0.0017377)
(4.31251e-05 0.0608639 0.00100739)
(5.04554e-06 -0.0851203 -0.000159073)
(7.63207e-05 -0.181685 -0.00138548)
(0.000258887 -0.226034 -0.0026055)
(0.000480008 -0.242715 -0.00340188)
(0.000673518 -0.248275 -0.00388783)
(0.000851837 -0.24876 -0.00421607)
(0.000985063 -0.245626 -0.00441882)
(0.00107084 -0.239557 -0.00455688)
(0.00113404 -0.230877 -0.00463318)
(0.00118526 -0.219688 -0.00464267)
(0.0011937 -0.205931 -0.00449628)
(0.001196 -0.190288 -0.00425024)
(0.00118294 -0.17303 -0.00386264)
(0.00116405 -0.154589 -0.00334883)
(0.00115423 -0.135109 -0.00267592)
(0.00109686 -0.115302 -0.00198369)
(0.00108589 -0.0944597 -0.00109345)
(0.00115969 -0.0726876 -2.49837e-05)
(0.00132708 -0.0503609 0.00115319)
(0.00158191 -0.0277562 0.00233842)
(0.00190864 -0.00535773 0.00327864)
(0.0021415 0.0138803 0.00357733)
(0.00229797 0.032581 0.00306277)
(0.00241187 0.0493836 0.0018122)
(0.00245821 0.0646973 0.000271549)
(0.00242097 0.0791534 -0.00078479)
(0.00228812 0.0933128 -0.000968813)
(0.00213129 0.107079 -0.000893309)
(0.00192473 0.119804 -0.000521836)
(0.00171187 0.130272 -4.72617e-05)
(0.0014346 0.137389 0.000533124)
(0.00111114 0.140239 0.000942869)
(0.000748043 0.137139 0.0012746)
(0.000340586 0.11862 0.00140607)
(2.8548e-05 0.0612536 0.000838904)
(1.6048e-05 -0.0858554 -0.000235048)
(0.000189401 -0.182509 -0.00142308)
(0.000376557 -0.226481 -0.00263863)
(0.000537513 -0.243019 -0.00351414)
(0.000684613 -0.248497 -0.00408888)
(0.000814447 -0.248912 -0.00449981)
(0.000944323 -0.245793 -0.00480733)
(0.00104341 -0.239535 -0.00505064)
(0.00111353 -0.230656 -0.00524514)
(0.00112843 -0.219176 -0.00531969)
(0.00110048 -0.205427 -0.0052772)
(0.00103937 -0.189773 -0.00509705)
(0.000955215 -0.172622 -0.00475151)
(0.000865828 -0.154327 -0.00420543)
(0.000793968 -0.135141 -0.00343341)
(0.000776986 -0.115376 -0.00250411)
(0.000731838 -0.0955361 -0.00149906)
(0.000799135 -0.0748602 -0.000270283)
(0.000981408 -0.0534032 0.00100867)
(0.0012196 -0.0314785 0.00221819)
(0.00151986 -0.00959247 0.00318881)
(0.00175151 0.0108397 0.00370033)
(0.00192513 0.0290664 0.0036157)
(0.00210076 0.0466787 0.00289416)
(0.00218008 0.0629778 0.00177866)
(0.00216476 0.0782153 0.000671287)
(0.00209752 0.092765 -0.000157244)
(0.00197726 0.106676 -0.000387797)
(0.00182921 0.119469 -0.000222449)
(0.00162783 0.130096 0.000160283)
(0.00136294 0.137382 0.00052081)
(0.00104009 0.140464 0.000807268)
(0.000675081 0.13758 0.00106275)
(0.000287647 0.119227 0.00118536)
(2.21711e-05 0.0615439 0.00070948)
(5.31582e-06 -0.0869357 -0.000241563)
(0.000176479 -0.184279 -0.00136914)
(0.000446165 -0.227828 -0.00254079)
(0.000685675 -0.243804 -0.00343447)
(0.000890835 -0.248924 -0.00406782)
(0.00105974 -0.249035 -0.00454923)
(0.00119977 -0.245748 -0.00494941)
(0.00131009 -0.239301 -0.00531841)
(0.00138401 -0.229985 -0.00555637)
(0.00141918 -0.218153 -0.00567346)
(0.0014125 -0.204104 -0.00566008)
(0.00136785 -0.188262 -0.00550727)
(0.00128933 -0.171109 -0.00520923)
(0.00118509 -0.153107 -0.00475998)
(0.00108031 -0.13453 -0.00413612)
(0.0010023 -0.115295 -0.00326299)
(0.000954532 -0.0957459 -0.00229527)
(0.000938158 -0.0761771 -0.00130417)
(0.000993305 -0.0554576 1.61805e-05)
(0.00116134 -0.0342116 0.00140271)
(0.00137401 -0.0129076 0.00266093)
(0.00157953 0.00787765 0.00355301)
(0.00174754 0.0261197 0.00384954)
(0.00188965 0.0442409 0.00352632)
(0.00196632 0.0611847 0.00270355)
(0.00197623 0.0770185 0.00169123)
(0.00192886 0.0919898 0.000819718)
(0.00183834 0.106144 0.000298808)
(0.00170848 0.119075 0.000150067)
(0.00152604 0.12985 0.000267713)
(0.00128494 0.13736 0.000494399)
(0.000968958 0.140675 0.000687503)
(0.000620823 0.137972 0.000901019)
(0.000254177 0.119681 0.0010163)
(1.86673e-05 0.0617149 0.000603452)
(1.14257e-06 -0.0875765 -0.00030971)
(0.000169381 -0.185612 -0.00139435)
(0.000454048 -0.229291 -0.00250205)
(0.000752264 -0.244909 -0.00335274)
(0.0010218 -0.2496 -0.00397209)
(0.00127018 -0.249369 -0.00445245)
(0.0014567 -0.245606 -0.00486747)
(0.00160327 -0.238906 -0.00522972)
(0.00171769 -0.229513 -0.00551693)
(0.00179336 -0.217551 -0.00572053)
(0.00183184 -0.203417 -0.00583321)
(0.0018303 -0.187506 -0.00583374)
(0.00178494 -0.170243 -0.00569026)
(0.00169286 -0.152089 -0.00537161)
(0.00155709 -0.133495 -0.00485981)
(0.00141245 -0.11472 -0.00414156)
(0.00129934 -0.0956315 -0.0031787)
(0.00121559 -0.076212 -0.00204281)
(0.00120285 -0.0567954 -0.000868868)
(0.00126358 -0.0365419 0.00052964)
(0.00139088 -0.0158563 0.00194913)
(0.00154146 0.00469431 0.00315832)
(0.0016868 0.0229712 0.00385365)
(0.00181582 0.0414395 0.00397867)
(0.00189897 0.0589379 0.00351106)
(0.00192768 0.07536 0.00266436)
(0.00190171 0.0908185 0.00175752)
(0.00183136 0.105329 0.00103674)
(0.00171206 0.118533 0.000630339)
(0.0015338 0.129572 0.000508574)
(0.00128617 0.137351 0.000555631)
(0.000980644 0.140864 0.000642613)
(0.000630858 0.138327 0.000761246)
(0.000264344 0.120113 0.000864594)
(2.34773e-05 0.0619263 0.000524768)
(4.8481e-05 -0.0885757 -0.000299616)
(0.000378506 -0.187311 -0.00119029)
(0.000710648 -0.23107 -0.00221467)
(0.000975298 -0.246451 -0.00307639)
(0.00124376 -0.250821 -0.00374864)
(0.00144522 -0.250211 -0.00426426)
(0.00166302 -0.245977 -0.00473066)
(0.00186183 -0.238975 -0.00513242)
(0.00199494 -0.229173 -0.00546338)
(0.00208147 -0.216879 -0.00573988)
(0.00209856 -0.2024 -0.00596181)
(0.00204788 -0.186152 -0.00611264)
(0.00193817 -0.168627 -0.00615972)
(0.00178213 -0.150333 -0.0060577)
(0.00159585 -0.131735 -0.00576428)
(0.00139482 -0.113173 -0.00524637)
(0.0012196 -0.0947246 -0.00447866)
(0.00112305 -0.0761681 -0.00345331)
(0.00109438 -0.0571737 -0.00221715)
(0.00112032 -0.0376676 -0.000791005)
(0.00120088 -0.01774 0.00074958)
(0.00133673 0.00219968 0.00222149)
(0.00147598 0.0202578 0.00329914)
(0.00160402 0.0387377 0.00391368)
(0.00171869 0.056543 0.00391852)
(0.00179255 0.0734269 0.00340311)
(0.00180952 0.089372 0.00261476)
(0.00177093 0.104335 0.00181268)
(0.00167128 0.117965 0.00120556)
(0.00149758 0.129381 0.000852018)
(0.00125342 0.137446 0.000686586)
(0.000934053 0.141229 0.000685245)
(0.000579018 0.138851 0.000722729)
(0.000214796 0.120655 0.000759367)
(-5.61711e-07 0.0621795 0.000441941)
(9.01061e-05 -0.0908756 -0.000111858)
(0.000334489 -0.190257 -0.000813656)
(0.000485652 -0.232574 -0.00183382)
(0.000659535 -0.247009 -0.00270691)
(0.000759287 -0.251179 -0.00332854)
(0.000950939 -0.250226 -0.00386974)
(0.00108451 -0.246044 -0.00426871)
(0.0011839 -0.238838 -0.0045957)
(0.00120271 -0.228672 -0.00488678)
(0.00112344 -0.215855 -0.0051545)
(0.000962134 -0.200837 -0.00540374)