/*--------------------------------*- C++ -*----------------------------------*\
| =========                 |                                                 |
| \\      /  F ield         | OpenFOAM: The Open Source CFD Toolbox           |
|  \\    /   O peration     | Version:  v2012                                 |
|   \\  /    A nd           | Website:  www.openfoam.com                      |
|    \\/     M anipulation  |                                                 |
\*---------------------------------------------------------------------------*/
FoamFile
{
    version     2.0;
    format      ascii;
    class       surfaceScalarField;
    location    "59";
    object      phi;
}
// * * * * * * * * * * * * * * * * * * * * * * * * * * * * * * * * * * * * * //

dimensions      [1 0 -1 0 0 0 0];
oriented        oriented;


internalField   nonuniform List<scalar> 
228225
(
-2.50286e-09
2.09914e-09
1.43009e-10
-8.10925e-09
8.90597e-09
-3.30244e-09
-1.71522e-08
1.32295e-08
-4.18665e-09
-2.95546e-08
1.69263e-08
-4.52357e-09
-4.48279e-08
2.00666e-08
-4.79268e-09
-6.2318e-08
2.26121e-08
-5.12187e-09
-8.13805e-08
2.45863e-08
-5.52642e-09
-1.01347e-07
2.59875e-08
-6.01583e-09
-1.21653e-07
2.68712e-08
-6.56954e-09
-1.4172e-07
2.7256e-08
-7.18698e-09
-1.6108e-07
2.72113e-08
-7.84936e-09
-1.79279e-07
2.67555e-08
-8.55797e-09
-1.95946e-07
2.59613e-08
-9.29695e-09
-2.10732e-07
2.48563e-08
-1.00678e-08
-2.23378e-07
2.35033e-08
-1.08555e-08
-2.33648e-07
2.19291e-08
-1.16613e-08
-2.41364e-07
2.01767e-08
-1.2461e-08
-2.46368e-07
1.82714e-08
-1.32643e-08
-2.48595e-07
1.62655e-08
-1.4042e-08
-2.47976e-07
1.41797e-08
-1.47959e-08
-2.44519e-07
1.20539e-08
-1.55094e-08
-2.38255e-07
9.9051e-09
-1.61723e-08
-2.29253e-07
7.76586e-09
-1.67679e-08
-2.17614e-07
5.65067e-09
-1.72874e-08
-2.03487e-07
3.58782e-09
-1.77158e-08
-1.87037e-07
1.59333e-09
-1.80449e-08
-1.6847e-07
-2.99986e-10
-1.82623e-08
-1.48028e-07
-2.08656e-09
-1.8362e-08
-1.25977e-07
-3.71398e-09
-1.83328e-08
-1.02662e-07
-5.15083e-09
-1.81643e-08
-7.84977e-08
-6.34135e-09
-1.78246e-08
-5.40617e-08
-7.20743e-09
-1.7226e-08
-3.0383e-08
-7.5954e-09
-1.6085e-08
-9.6256e-09
-7.25176e-09
-1.35033e-08
-4.68871e-09
-4.93811e-09
-7.09167e-09
2.41758e-08
-1.49866e-08
-2.53042e-08
4.36618e-08
-1.65423e-08
-4.7422e-08
5.2692e-08
-1.7343e-08
-7.15028e-08
5.92655e-08
-1.82603e-08
-9.61248e-08
6.37797e-08
-1.90896e-08
-1.2032e-07
6.66167e-08
-1.98099e-08
-1.43334e-07
6.80692e-08
-2.04699e-08
-1.64652e-07
6.83901e-08
-2.10841e-08
-1.83887e-07
6.77734e-08
-2.16679e-08
-2.00799e-07
6.63873e-08
-2.22183e-08
-2.15215e-07
6.43702e-08
-2.27438e-08
-2.27053e-07
6.18346e-08
-2.32395e-08
-2.36266e-07
5.88848e-08
-2.37107e-08
-2.42873e-07
5.56121e-08
-2.41505e-08
-2.46902e-07
5.20957e-08
-2.4563e-08
-2.4844e-07
4.84091e-08
-2.4941e-08
-2.47576e-07
4.46011e-08
-2.529e-08
-2.44428e-07
4.07282e-08
-2.56034e-08
-2.39118e-07
3.68381e-08
-2.58833e-08
-2.318e-07
3.29825e-08
-2.61226e-08
-2.22619e-07
2.91981e-08
-2.63227e-08
-2.11754e-07
2.55173e-08
-2.6478e-08
-1.99364e-07
2.19671e-08
-2.65912e-08
-1.8563e-07
1.85712e-08
-2.66548e-08
-1.70724e-07
1.53488e-08
-2.66669e-08
-1.54828e-07
1.23173e-08
-2.66199e-08
-1.38112e-07
9.49157e-09
-2.65085e-08
-1.20764e-07
6.8858e-09
-2.63195e-08
-1.02953e-07
4.51376e-09
-2.60373e-08
-8.48643e-08
2.3917e-09
-2.56344e-08
-6.66632e-08
5.39562e-10
-2.50807e-08
-4.85447e-08
-9.99589e-10
-2.43262e-08
-3.07676e-08
-2.16293e-09
-2.32105e-08
-1.40028e-08
-2.74284e-09
-2.12749e-08
-1.79521e-09
-1.68949e-08
-4.80609e-09
3.80457e-08
-9.0623e-09
-1.39958e-08
6.37067e-08
-1.08561e-08
-2.45513e-08
7.49084e-08
-1.16612e-08
-3.5639e-08
8.26839e-08
-1.23317e-08
-4.66989e-08
8.77591e-08
-1.29192e-08
-5.73376e-08
9.07346e-08
-1.34786e-08
-6.72837e-08
9.20389e-08
-1.40221e-08
-7.63458e-08
9.20217e-08
-1.45728e-08
-8.43884e-08
9.09423e-08
-1.51255e-08
-9.13267e-08
8.90167e-08
-1.56903e-08
-9.71144e-08
8.64129e-08
-1.62545e-08
-1.01734e-07
8.32746e-08
-1.68228e-08
-1.05184e-07
7.9717e-08
-1.73807e-08
-1.07485e-07
7.58424e-08
-1.79304e-08
-1.08664e-07
7.17352e-08
-1.84581e-08
-1.08762e-07
6.74704e-08
-1.89652e-08
-1.07844e-07
6.31245e-08
-1.94415e-08
-1.05982e-07
5.87553e-08
-1.98884e-08
-1.03259e-07
5.44098e-08
-2.02958e-08
-9.97498e-08
5.01368e-08
-2.06633e-08
-9.55401e-08
4.5971e-08
-2.0983e-08
-9.07055e-08
4.1941e-08
-2.12569e-08
-8.53339e-08
3.80728e-08
-2.14788e-08
-7.94968e-08
3.43846e-08
-2.16499e-08
-7.3269e-08
3.08857e-08
-2.17647e-08
-6.67141e-08
2.75845e-08
-2.18229e-08
-5.9893e-08
2.44882e-08
-2.18173e-08
-5.28602e-08
2.15963e-08
-2.17429e-08
-4.56663e-08
1.89051e-08
-2.15863e-08
-3.83505e-08
1.64078e-08
-2.13314e-08
-3.09503e-08
1.40893e-08
-2.09501e-08
-2.34825e-08
1.1927e-08
-2.03935e-08
-1.59789e-08
9.88209e-09
-1.95501e-08
-8.45196e-09
7.89582e-09
-1.81652e-08
4.66844e-09
-1.49155e-08
-4.64057e-09
4.24918e-08
1.93743e-10
-8.6433e-09
6.89894e-08
-1.27906e-09
-1.2199e-08
8.07007e-08
-2.23654e-09
-1.55307e-08
8.89215e-08
-2.90525e-09
-1.87345e-08
9.44335e-08
-3.47276e-09
-2.17826e-08
9.78234e-08
-4.04086e-09
-2.46285e-08
9.95386e-08
-4.65376e-09
-2.7226e-08
9.99244e-08
-5.30428e-09
-2.95347e-08
9.92541e-08
-6.0045e-09
-3.15163e-08
9.77397e-08
-6.73976e-09
-3.31545e-08
9.55616e-08
-7.51162e-09
-3.44378e-08
9.28589e-08
-8.30039e-09
-3.53644e-08
8.97517e-08
-9.10802e-09
-3.59424e-08
8.6335e-08
-9.91539e-09
-3.61812e-08
8.26948e-08
-1.07217e-08
-3.60975e-08
7.8898e-08
-1.15108e-08
-3.57183e-08
7.50227e-08
-1.22765e-08
-3.50848e-08
7.11234e-08
-1.30044e-08
-3.42254e-08
6.72473e-08
-1.36943e-08
-3.31848e-08
6.343e-08
-1.43346e-08
-3.19936e-08
5.97037e-08
-1.49251e-08
-3.0686e-08
5.60911e-08
-1.54568e-08
-2.92968e-08
5.26126e-08
-1.59297e-08
-2.78524e-08
4.92782e-08
-1.63368e-08
-2.63764e-08
4.60879e-08
-1.66801e-08
-2.48775e-08
4.30389e-08
-1.69539e-08
-2.33534e-08
4.01221e-08
-1.71574e-08
-2.1788e-08
3.73167e-08
-1.72849e-08
-2.01404e-08
3.4589e-08
-1.73328e-08
-1.8337e-08
3.18943e-08
-1.72886e-08
-1.62677e-08
2.91564e-08
-1.71381e-08
-1.37537e-08
2.62802e-08
-1.68675e-08
-1.05033e-08
2.31208e-08
-1.64877e-08
-6.20561e-09
1.95162e-08
-1.59191e-08
1.24629e-08
-1.39996e-08
-5.58785e-09
4.2448e-08
5.62995e-09
-7.41766e-09
6.63179e-08
4.50193e-09
-7.37226e-09
7.70842e-08
3.57351e-09
-6.27814e-09
8.48698e-08
2.95493e-09
-4.60472e-09
9.03067e-08
2.45525e-09
-2.60816e-09
9.38986e-08
1.92677e-09
-4.47718e-10
9.60314e-08
1.34751e-09
1.75719e-09
9.70096e-08
7.07895e-10
3.92692e-09
9.70658e-08
2.03231e-11
5.98292e-09
9.63925e-08
-7.09042e-10
7.88665e-09
9.51358e-08
-1.47834e-09
9.61147e-09
9.34216e-08
-2.28674e-09
1.11303e-08
9.13467e-08
-3.11386e-09
1.24233e-08
8.8999e-08
-3.9574e-09
1.3469e-08
8.64467e-08
-4.7984e-09
1.42473e-08
8.3753e-08
-5.63301e-09
1.47484e-08
8.0967e-08
-6.44581e-09
1.49694e-08
7.81363e-08
-7.23363e-09
1.49054e-08
7.52955e-08
-7.98321e-09
1.45505e-08
7.24758e-08
-8.69288e-09
1.39076e-08
6.96995e-08
-9.35212e-09
1.29756e-08
6.69844e-08
-9.96042e-09
1.17575e-08
6.4339e-08
-1.05099e-08
1.02722e-08
6.17657e-08
-1.10009e-08
8.52889e-09
5.92577e-08
-1.14279e-08
6.56197e-09
5.67987e-08
-1.1792e-08
4.41283e-09
5.43608e-08
-1.20891e-08
2.15016e-09
5.19e-08
-1.23208e-08
-1.32478e-10
4.93531e-08
-1.24834e-08
-2.29187e-09
4.66307e-08
-1.25748e-08
-4.15071e-09
4.36018e-08
-1.25876e-08
-5.43306e-09
4.00975e-08
-1.25354e-08
-5.70022e-09
3.58796e-08
-1.24926e-08
-4.34727e-09
3.06397e-08
-1.24755e-08
1.96369e-08
-1.15213e-08
-4.01393e-09
3.96409e-08
6.81947e-09
-4.4299e-09
6.08362e-08
5.90097e-09
-2.95848e-09
7.05492e-08
5.06089e-09
-3.72106e-10
7.77514e-08
4.53352e-09
2.82004e-09
8.30021e-08
4.11241e-09
6.3286e-09
8.67141e-08
3.67454e-09
9.954e-09
8.92246e-08
3.18222e-09
1.35411e-08
9.07777e-08
2.64466e-09
1.69715e-08
9.15765e-08
2.05813e-09
2.01621e-08
9.17693e-08
1.43341e-09
2.30464e-08
9.14795e-08
7.70725e-10
2.55871e-08
9.0802e-08
8.01076e-11
2.77343e-08
8.98225e-08
-6.24522e-10
2.94687e-08
8.86046e-08
-1.33893e-09
3.07677e-08
8.72075e-08
-2.06008e-09
3.162e-08
8.56741e-08
-2.77406e-09
3.20191e-08
8.4045e-08
-3.477e-09
3.19629e-08
8.23497e-08
-4.15732e-09
3.14557e-08
8.0615e-08
-4.81259e-09
3.05058e-08
7.88594e-08
-5.433e-09
2.91238e-08
7.70981e-08
-6.01713e-09
2.73274e-08
7.53377e-08
-6.55735e-09
2.51413e-08
7.35787e-08
-7.05344e-09
2.2594e-08
7.18128e-08
-7.49995e-09
1.97274e-08
7.00222e-08
-7.89755e-09
1.65913e-08
6.81776e-08
-8.24269e-09
1.3254e-08
6.62339e-08
-8.53703e-09
9.80558e-09
6.41277e-08
-8.77904e-09
6.3632e-09
6.17679e-08
-8.97108e-09
3.07048e-09
5.90319e-08
-9.11027e-09
1.21327e-10
5.57473e-08
-9.19533e-09
-2.22311e-09
5.16869e-08
-9.24456e-09
-3.52482e-09
4.65322e-08
-9.35254e-09
-3.20065e-09
3.98821e-08
-9.56607e-09
2.5552e-08
-9.11557e-09
-2.0242e-09
3.6202e-08
5.46406e-09
-1.56887e-09
5.5735e-08
4.64336e-09
2.60305e-10
6.47902e-08
3.93185e-09
2.87363e-09
7.16419e-08
3.49498e-09
5.91425e-09
7.67965e-08
3.16505e-09
9.1671e-09
8.06341e-08
2.82731e-09
1.24846e-08
8.34463e-08
2.46131e-09
1.5744e-08
8.54558e-08
2.06216e-09
1.88537e-08
8.68302e-08
1.63709e-09
2.17383e-08
8.77032e-08
1.18302e-09
2.43327e-08
8.81748e-08
7.07863e-10
2.65991e-08
8.83281e-08
2.09816e-10
2.8492e-08
8.82255e-08
-2.96637e-10
2.99848e-08
8.79209e-08
-8.09914e-10
3.10644e-08
8.74535e-08
-1.32442e-09
3.17166e-08
8.68596e-08
-1.837e-09
3.19329e-08
8.6165e-08
-2.33836e-09
3.17179e-08
8.53921e-08
-2.82675e-09
3.10729e-08
8.45555e-08
-3.29444e-09
3.00055e-08
8.36663e-08
-3.74048e-09
2.8534e-08
8.27288e-08
-4.15852e-09
2.66779e-08
8.17419e-08
-4.54841e-09
2.4465e-08
8.0697e-08
-4.90527e-09
2.19316e-08
7.95773e-08
-5.22978e-09
1.91151e-08
7.83553e-08
-5.5185e-09
1.60774e-08
7.699e-08
-5.77293e-09
1.28778e-08
7.54235e-08
-5.99109e-09
9.60588e-09
7.35748e-08
-6.17559e-09
6.36706e-09
7.13333e-08
-6.32563e-09
3.29256e-09
6.85481e-08
-6.44247e-09
5.48188e-10
6.50137e-08
-6.52311e-09
-1.63284e-09
6.04562e-08
-6.58712e-09
-2.88728e-09
5.44997e-08
-6.71379e-09
-2.70895e-09
4.66532e-08
-6.94814e-09
2.95361e-08
-6.69337e-09
-7.58858e-10
3.33479e-08
3.61501e-09
-2.88342e-10
5.23094e-08
2.95225e-09
9.44113e-10
6.11412e-08
2.41871e-09
2.59548e-09
6.78882e-08
2.0993e-09
4.48013e-09
7.30551e-08
1.8582e-09
6.48193e-09
7.70097e-08
1.62222e-09
8.52609e-09
8.00349e-08
1.36899e-09
1.05404e-08
8.23383e-08
1.10173e-09
1.24714e-08
8.40815e-08
8.17707e-10
1.42701e-08
8.53833e-08
5.21098e-10
1.58971e-08
8.63381e-08
2.08907e-10
1.73199e-08
8.70153e-08
-1.10146e-10
1.85076e-08
8.74714e-08
-4.33012e-10
1.94386e-08
8.7748e-08
-7.59158e-10
2.00991e-08
8.78802e-08
-1.08615e-09
2.04728e-08
8.78927e-08
-1.4076e-09
2.05566e-08
8.78053e-08
-1.72281e-09
2.03421e-08
8.76307e-08
-2.02599e-09
1.98368e-08
8.73781e-08
-2.31708e-09
1.9044e-08
8.70507e-08
-2.59119e-09
1.79747e-08
8.66469e-08
-2.84887e-09
1.66437e-08
8.61585e-08
-3.08619e-09
1.50744e-08
8.55706e-08
-3.30432e-09
1.3293e-08
8.48595e-08
-3.5003e-09
1.13351e-08
8.39899e-08
-3.67588e-09
9.23954e-09
8.29131e-08
-3.82898e-09
7.06384e-09
8.15608e-08
-3.96194e-09
4.87182e-09
7.98413e-08
-4.07373e-09
2.74475e-09
7.76285e-08
-4.16715e-09
7.75847e-10
7.47553e-08
-4.24029e-09
-9.08667e-10
7.09926e-08
-4.29397e-09
-2.15182e-09
6.6039e-08
-4.33897e-09
-2.70003e-09
5.948e-08
-4.43327e-09
-2.22348e-09
5.07743e-08
-4.59871e-09
3.17227e-08
-4.40929e-09
-4.90404e-10
3.13395e-08
2.49784e-09
-4.72967e-10
5.02066e-08
2.08605e-09
-9.55587e-11
5.89973e-08
1.76688e-09
4.80575e-10
6.57356e-08
1.57542e-09
1.1782e-09
7.09281e-08
1.42928e-09
1.95546e-09
7.49505e-08
1.28205e-09
2.78302e-09
7.80807e-08
1.1269e-09
3.63185e-09
8.0529e-08
9.61334e-10
4.47057e-09
8.24506e-08
7.89333e-10
5.28216e-09
8.39649e-08
6.08901e-10
6.03663e-09
8.51593e-08
4.24155e-10
6.71594e-09
8.6102e-08
2.33647e-10
7.30276e-09
8.68428e-08
4.25129e-11
7.77838e-09
8.74207e-08
-1.47959e-10
8.12683e-09
8.7863e-08
-3.3192e-10
8.34194e-09
8.81916e-08
-5.14452e-10
8.41617e-09
8.84207e-08
-6.89725e-10
8.34526e-09
8.85611e-08
-8.58402e-10
8.12202e-09
8.86168e-08
-1.01601e-09
7.75175e-09
8.85867e-08
-1.1639e-09
7.23198e-09
8.84641e-08
-1.29898e-09
6.57771e-09
8.8237e-08
-1.4231e-09
5.7967e-09
8.78855e-08
-1.53381e-09
4.90678e-09
8.73818e-08
-1.63344e-09
3.93116e-09
8.66859e-08
-1.72011e-09
2.89713e-09
8.57443e-08
-1.79655e-09
1.83599e-09
8.44834e-08
-1.86146e-09
7.88896e-10
8.28053e-08
-1.91806e-09
-1.93521e-10
8.05776e-08
-1.96547e-09
-1.05577e-09
7.76245e-08
-2.0063e-09
-1.73272e-09
7.37078e-08
-2.03861e-09
-2.13393e-09
6.85131e-08
-2.07295e-09
-2.12284e-09
6.16112e-08
-2.14263e-09
-1.52382e-09
5.24343e-08
-2.25851e-09
3.23598e-08
-2.16058e-09
-8.19383e-10
2.99527e-08
2.20623e-09
-1.3965e-09
4.8687e-08
2.09717e-09
-1.7903e-09
5.74078e-08
1.98219e-09
-2.06276e-09
6.40928e-08
1.91699e-09
-2.24333e-09
6.925e-08
1.85591e-09
-2.33164e-09
7.3255e-08
1.78634e-09
-2.34239e-09
7.63873e-08
1.70446e-09
-2.28576e-09
7.88551e-08
1.61502e-09
-2.16614e-09
8.0815e-08
1.51776e-09
-2.00084e-09
8.2383e-08
1.41677e-09
-1.80065e-09
8.36472e-08
1.31129e-09
-1.57728e-09
8.46725e-08
1.20549e-09
-1.34074e-09
8.55086e-08
1.09858e-09
-1.10644e-09
8.61911e-08
9.94502e-10
-8.82628e-10
8.67467e-08
8.93086e-10
-6.83292e-10
8.71934e-08
7.98136e-10
-5.14761e-10
8.75445e-08
7.08365e-10
-3.86985e-10
8.78058e-08
6.27094e-10
-3.01261e-10
8.79801e-08
5.5139e-10
-2.6353e-10
8.80636e-08
4.84368e-10
-2.71057e-10
8.80486e-08
4.23828e-10
-3.25063e-10
8.79196e-08
3.72023e-10
-4.22436e-10
8.76559e-08
3.26209e-10
-5.55423e-10
8.72266e-08
2.88078e-10
-7.14334e-10
8.6591e-08
2.54436e-10
-8.89613e-10
8.5693e-08
2.26491e-10
-1.06596e-09
8.44586e-08
2.00641e-10
-1.22604e-09
8.27883e-08
1.77552e-10
-1.35103e-09
8.05501e-08
1.53134e-10
-1.42173e-09
7.75677e-08
1.27909e-10
-1.41638e-09
7.36051e-08
9.7554e-11
-1.31158e-09
6.83489e-08
5.79663e-11
-1.05803e-09
6.13756e-08
-1.67952e-11
-6.15268e-10
5.21211e-08
-1.28478e-10
3.19267e-08
-1.82912e-10
-1.24128e-09
2.8874e-08
2.32062e-09
-2.26517e-09
4.72336e-08
2.47633e-09
-3.15034e-09
5.577e-08
2.52269e-09
-3.91841e-09
6.23089e-08
2.55309e-09
-4.57509e-09
6.73474e-08
2.55924e-09
-5.1204e-09
7.12564e-08
2.5436e-09
-5.55656e-09
7.43096e-08
2.51343e-09
-5.88568e-09
7.6714e-08
2.47077e-09
-6.11438e-09
7.8622e-08
2.42121e-09
-6.24604e-09
8.015e-08
2.36517e-09
-6.28951e-09
8.13829e-08
2.30714e-09
-6.24875e-09
8.23863e-08
2.24682e-09
-6.13679e-09
8.3207e-08
2.18825e-09
-5.95833e-09
8.38819e-08
2.13067e-09
-5.72487e-09
8.44355e-08
2.07766e-09
-5.44545e-09
8.4887e-08
2.02794e-09
-5.13291e-09
8.52468e-08
1.98447e-09
-4.794e-09
8.5521e-08
1.94608e-09
-4.43902e-09
8.57089e-08
1.91539e-09
-4.07132e-09
8.58077e-08
1.88996e-09
-3.70259e-09
8.58069e-08
1.87175e-09
-3.33303e-09
8.56926e-08
1.85788e-09
-2.97024e-09
8.54415e-08
1.84977e-09
-2.61013e-09
8.50243e-08
1.84407e-09
-2.26109e-09
8.43987e-08
1.84173e-09
-1.91884e-09
8.35107e-08
1.83895e-09
-1.58172e-09
8.22866e-08
1.83622e-09
-1.25384e-09
8.06308e-08
1.82913e-09
-9.35073e-10
7.84137e-08
1.81745e-09
-6.298e-10
7.54666e-08
1.79605e-09
-3.49782e-10
7.15608e-08
1.76358e-09
-1.06349e-10
6.63958e-08
1.71016e-09
8.47232e-11
5.9565e-08
1.61946e-09
1.96023e-10
5.05271e-08
1.48114e-09
3.08572e-08
1.26615e-09
-1.43298e-09
2.80016e-08
2.30553e-09
-2.63753e-09
4.58191e-08
2.61915e-09
-3.71946e-09
5.40972e-08
2.75403e-09
-4.67857e-09
6.04313e-08
2.83796e-09
-5.51467e-09
6.53043e-08
2.8784e-09
-6.22564e-09
6.90735e-08
2.89255e-09
-6.80931e-09
7.20077e-08
2.88682e-09
-7.2698e-09
7.43064e-08
2.86853e-09
-7.60876e-09
7.61209e-08
2.83985e-09
-7.82855e-09
7.75629e-08
2.80602e-09
-7.92967e-09
7.87181e-08
2.76777e-09
-7.92351e-09
7.96491e-08
2.72936e-09
-7.81165e-09
8.04044e-08
2.69074e-09
-7.60217e-09
8.10181e-08
2.65557e-09
-7.30854e-09
8.1517e-08
2.62322e-09
-6.93409e-09
8.19176e-08
2.59682e-09
-6.49607e-09
8.22325e-08
2.57513e-09
-6.001e-09
8.24664e-08
2.56068e-09
-5.4664e-09
8.2621e-08
2.55156e-09
-4.89917e-09
8.26909e-08
2.54969e-09
-4.31068e-09
8.26677e-08
2.55249e-09
-3.71476e-09
8.25349e-08
2.56122e-09
-3.11784e-09
8.22717e-08
2.57271e-09
-2.52749e-09
8.18469e-08
2.58768e-09
-1.95489e-09
8.12212e-08
2.60242e-09
-1.39811e-09
8.03403e-08
2.61713e-09
-8.75204e-10
7.9135e-08
2.62757e-09
-3.89938e-10
7.75112e-08
2.63324e-09
4.86613e-11
7.53478e-08
2.62904e-09
4.20125e-10
7.24811e-08
2.61335e-09
7.03262e-10
6.86968e-08
2.5794e-09
8.73316e-10
6.37069e-08
2.52111e-09
8.88211e-10
5.71298e-08
2.41953e-09
6.98901e-10
4.84521e-08
2.26376e-09
2.96114e-08
1.94563e-09
-1.26098e-09
2.73834e-08
1.87748e-09
-2.37143e-09
4.47237e-08
2.20823e-09
-3.40777e-09
5.27727e-08
2.35942e-09
-4.34839e-09
5.89234e-08
2.44743e-09
-5.17676e-09
6.36431e-08
2.49121e-09
-5.88966e-09
6.72803e-08
2.50677e-09
-6.48302e-09
7.00959e-08
2.50443e-09
-6.94981e-09
7.22868e-08
2.4878e-09
-7.29338e-09
7.39996e-08
2.46261e-09
-7.50707e-09
7.53465e-08
2.43065e-09
-7.59527e-09
7.64102e-08
2.39643e-09
-7.56229e-09
7.72553e-08
2.36074e-09
-7.4135e-09
7.79282e-08
2.32738e-09
-7.15705e-09
7.84659e-08
2.29647e-09
-6.80447e-09
7.8893e-08
2.27125e-09
-6.36782e-09
7.92292e-08
2.25121e-09
-5.85847e-09
7.94851e-08
2.23892e-09
-5.29374e-09
7.96681e-08
2.23317e-09
-4.68587e-09
7.9778e-08
2.23582e-09
-4.05169e-09
7.98119e-08
2.24489e-09
-3.40333e-09
7.9759e-08
2.26151e-09
-2.75887e-09
7.96057e-08
2.28297e-09
-2.12484e-09
7.93288e-08
2.30974e-09
-1.51672e-09
7.88999e-08
2.33848e-09
-9.41827e-10
7.82781e-08
2.36908e-09
-4.12723e-10
7.74128e-08
2.39769e-09
6.36661e-11
7.62342e-08
2.42364e-09
4.79274e-10
7.46541e-08
2.44247e-09
8.20622e-10
7.25533e-08
2.45271e-09
1.07621e-09
6.97773e-08
2.44889e-09
1.22491e-09
6.61191e-08
2.42797e-09
1.24589e-09
6.13057e-08
2.38078e-09
1.11043e-09
5.49724e-08
2.29447e-09
7.74975e-10
4.66321e-08
2.15263e-09
2.85484e-08
1.83889e-09
-8.11257e-10
2.71682e-08
1.02758e-09
-1.65506e-09
4.43078e-08
1.25825e-09
-2.50311e-09
5.22558e-08
1.36534e-09
-3.31675e-09
5.83162e-08
1.42124e-09
-4.06636e-09
6.29522e-08
1.44033e-09
-4.73222e-09
6.65069e-08
1.43821e-09
-5.29698e-09
6.92411e-08
1.42023e-09
-5.75034e-09
7.13489e-08
1.39177e-09
-6.08464e-09
7.29787e-08
1.35492e-09
-6.29351e-09
7.42411e-08
1.31408e-09
-6.37642e-09
7.52221e-08
1.27071e-09
-6.33363e-09
7.59849e-08
1.22863e-09
-6.17472e-09
7.65796e-08
1.18872e-09
-5.90439e-09
7.70419e-08
1.15431e-09
-5.53779e-09
7.74001e-08
1.12572e-09
-5.08643e-09
7.76727e-08
1.10563e-09
-4.56928e-09
7.78733e-08
1.09367e-09
-4.00002e-09
7.80079e-08
1.0918e-09
-3.4007e-09
7.8079e-08
1.09878e-09
-2.7867e-09
7.80815e-08
1.1157e-09
-2.17489e-09
7.80074e-08
1.14051e-09
-1.58265e-09
7.78401e-08
1.1735e-09
-1.02487e-09
7.7559e-08
1.21185e-09
-5.13988e-10
7.7133e-08
1.25519e-09
-5.95694e-11
7.65235e-08
1.30014e-09
3.29942e-10
7.56774e-08
1.34577e-09
6.47408e-10
7.45281e-08
1.38827e-09
8.88752e-10
7.29857e-08
1.42632e-09
1.05207e-09
7.09354e-08
1.45565e-09
1.13001e-09
6.82233e-08
1.47443e-09
1.12404e-09
6.46494e-08
1.47759e-09
1.02193e-09
5.99449e-08
1.46111e-09
8.25658e-10
5.37571e-08
1.41349e-09
5.22828e-10
4.56101e-08
1.32476e-09
2.79552e-08
1.11514e-09
-2.75965e-10
2.74604e-08
-1.56738e-11
-7.90729e-10
4.47772e-08
4.51302e-11
-1.40908e-09
5.27961e-08
7.76982e-11
-2.0673e-09
5.88946e-08
7.99179e-11
-2.71685e-09
6.35404e-08
6.11655e-11
-3.32158e-09
6.70839e-08
2.86605e-11
-3.85583e-09
6.97881e-08
-1.31277e-11
-4.29742e-09
7.1853e-08
-6.28356e-11
-4.6304e-09
7.34286e-08
-1.17158e-10
-4.84505e-09
7.46307e-08
-1.74545e-10
-4.93615e-09
7.55458e-08
-2.31485e-10
-4.90772e-09
7.6242e-08
-2.8655e-10
-4.76061e-09
7.67697e-08
-3.36449e-10
-4.50869e-09
7.71688e-08
-3.80122e-10
-4.15994e-09
7.74672e-08
-4.14745e-10
-3.73311e-09
7.76871e-08
-4.39868e-10
-3.24932e-09
7.78411e-08
-4.53403e-10
-2.72347e-09
7.79381e-08
-4.55763e-10
-2.17729e-09
7.79791e-08
-4.45759e-10
-1.63285e-09
7.79613e-08
-4.24691e-10
-1.10824e-09
7.78743e-08
-3.92269e-10
-6.19512e-10
7.77034e-08
-3.50695e-10
-1.83826e-10
7.74248e-08
-3.00512e-10
1.83987e-10
7.70087e-08
-2.44645e-10
4.79287e-10
7.64133e-08
-1.84215e-10
6.9269e-10
7.55861e-08
-1.22512e-10
8.24523e-10
7.4457e-08
-6.09466e-11
8.77351e-10
7.29369e-08
-2.96295e-12
8.54537e-10
7.09071e-08
5.0029e-11
7.68775e-10
6.82148e-08
9.48556e-11
6.31935e-10
6.4656e-08
1.30355e-10
4.60513e-10
5.99632e-08
1.53155e-10
2.77405e-10
5.37801e-08
1.59834e-10
1.12001e-10
4.56321e-08
1.45026e-10
2.79657e-08
1.00287e-10
1.89105e-10
2.8257e-08
-9.87843e-10
-3.32627e-11
4.60936e-08
-1.0915e-09
-4.4437e-10
5.43414e-08
-1.13471e-09
-9.60585e-10
6.05955e-08
-1.18441e-09
-1.51925e-09
6.53405e-08
-1.24106e-09
-2.07261e-09
6.8939e-08
-1.30222e-09
-2.58047e-09
7.16652e-08
-1.36827e-09
-3.01648e-09
7.37257e-08
-1.43786e-09
-3.35441e-09
7.52786e-08
-1.51038e-09
-3.58505e-09
7.64435e-08
-1.58317e-09
-3.69879e-09
7.73135e-08
-1.65475e-09
-3.69219e-09
7.79587e-08
-1.72207e-09
-3.5739e-09
7.84345e-08
-1.78349e-09
-3.35067e-09
7.87819e-08
-1.83613e-09
-3.03694e-09
7.9033e-08
-1.87877e-09
-2.65094e-09
7.92097e-08
-1.9091e-09
-2.21033e-09
7.93282e-08
-1.92667e-09
-1.73854e-09
7.93964e-08
-1.93003e-09
-1.25775e-09
7.94174e-08
-1.91969e-09
-7.87719e-10
7.9387e-08
-1.89521e-09
-3.51928e-10
7.9296e-08
-1.85811e-09
3.33005e-11
7.91271e-08
-1.80891e-09
3.51871e-10
7.88571e-08
-1.75e-09
5.90481e-10
7.84526e-08
-1.68262e-09
7.41163e-10
7.78716e-08
-1.60973e-09
8.02434e-10
7.70572e-08
-1.53298e-09
7.79394e-10
7.59379e-08
-1.45545e-09
6.74166e-10
7.44192e-08
-1.37862e-09
5.06685e-10
7.23799e-08
-1.30506e-09
2.95931e-10
6.96599e-08
-1.23533e-09
7.25522e-11
6.60505e-08
-1.17066e-09
-1.28914e-10
6.12749e-08
-1.1099e-09
-2.64028e-10
5.49675e-08
-1.05256e-09
-2.77115e-10
4.66395e-08
-9.94955e-10
2.85668e-08
-8.77475e-10
4.73666e-10
2.94378e-08
-1.65458e-09
4.38881e-10
4.80119e-08
-1.88184e-09
1.70408e-10
5.65896e-08
-1.98134e-09
-2.43176e-10
6.30779e-08
-2.07075e-09
-7.26557e-10
6.79818e-08
-2.15565e-09
-1.23158e-09
7.1683e-08
-2.23957e-09
-1.70849e-09
7.44674e-08
-2.32398e-09
-2.12847e-09
7.65538e-08
-2.40989e-09
-2.46082e-09
7.81074e-08
-2.49625e-09
-2.69101e-09
7.92559e-08
-2.58201e-09
-2.80974e-09
8.00968e-08
-2.66464e-09
-2.81522e-09
8.07063e-08
-2.74234e-09
-2.70983e-09
8.11423e-08
-2.81229e-09
-2.50664e-09
8.14504e-08
-2.87275e-09
-2.21702e-09
8.16639e-08
-2.92121e-09
-1.8578e-09
8.18082e-08
-2.95651e-09
-1.45191e-09
8.18995e-08
-2.97692e-09
-1.0233e-09
8.1948e-08
-2.98216e-09
-5.88137e-10
8.19562e-08
-2.97151e-09
-1.78031e-10
8.19207e-08
-2.94576e-09
1.92724e-10
8.18307e-08
-2.90521e-09
5.02627e-10
8.16692e-08
-2.85166e-09
7.34108e-10
8.14099e-08
-2.78632e-09
8.81477e-10
8.10189e-08
-2.71172e-09
9.32463e-10
8.04496e-08
-2.62967e-09
8.89586e-10
7.96434e-08
-2.54298e-09
7.58246e-10
7.85232e-08
-2.45349e-09
5.49901e-10
7.69908e-08
-2.36366e-09
2.86415e-10
7.49173e-08
-2.27453e-09
-3.33031e-12
7.21366e-08
-2.1871e-09
-2.80606e-10
6.84287e-08
-2.10032e-09
-4.99563e-10
6.35062e-08
-2.01215e-09
-6.01356e-10
5.69858e-08
-1.91708e-09
-5.13859e-10
4.83602e-08
-1.80713e-09
2.9622e-08
-1.57001e-09
5.40132e-10
3.08285e-08
-1.92988e-09
5.66207e-10
5.01942e-08
-2.20907e-09
3.60595e-10
5.91296e-08
-2.33376e-09
2.5734e-12
6.58746e-08
-2.44074e-09
-4.31941e-10
7.09573e-08
-2.5389e-09
-8.94653e-10
7.47773e-08
-2.63318e-09
-1.336e-09
7.76352e-08
-2.7268e-09
-1.71955e-09
7.97601e-08
-2.82046e-09
-2.02691e-09
8.13267e-08
-2.91418e-09
-2.232e-09
8.24693e-08
-3.00625e-09
-2.33296e-09
8.32919e-08
-3.09504e-09
-2.32424e-09
8.38748e-08
-3.17796e-09
-2.20892e-09
8.42808e-08
-3.25295e-09
-1.99901e-09
8.45576e-08
-3.31744e-09
-1.70724e-09
8.47423e-08
-3.36966e-09
-1.35339e-09
8.48611e-08
-3.40762e-09
-9.55497e-10
8.49328e-08
-3.43033e-09
-5.3767e-10
8.49675e-08
-3.43671e-09
-1.22951e-10
8.49689e-08
-3.42679e-09
2.63452e-10
8.49328e-08
-3.40058e-09
6.06339e-10
8.48486e-08
-3.35917e-09
8.82041e-10
8.4697e-08
-3.30358e-09
1.07648e-09
8.44512e-08
-3.23584e-09
1.18059e-09
8.40737e-08
-3.15774e-09
1.18437e-09
8.35163e-08
-3.07185e-09
1.09307e-09
8.27156e-08
-2.98027e-09
9.11169e-10
8.1591e-08
-2.88556e-09
6.53811e-10
8.00378e-08
-2.78937e-09
3.41828e-10
7.79214e-08
-2.69334e-09
1.06427e-11
7.50662e-08
-2.59748e-09
-3.02862e-10
7.12425e-08
-2.50103e-09
-5.44391e-10
6.6149e-08
-2.40044e-09
-6.55158e-10
5.93853e-08
-2.28938e-09
-5.5789e-10
5.04218e-08
-2.15737e-09
3.09341e-08
-1.87103e-09
4.40296e-10
3.22222e-08
-1.83377e-09
4.27006e-10
5.23012e-08
-2.09484e-09
2.10899e-10
6.15596e-08
-2.21329e-09
-1.34497e-10
6.85375e-08
-2.31694e-09
-5.47685e-10
7.37826e-08
-2.4129e-09
-9.75105e-10
7.77117e-08
-2.50619e-09
-1.37699e-09
8.06367e-08
-2.59923e-09
-1.7225e-09
8.27976e-08
-2.693e-09
-1.98535e-09
8.43767e-08
-2.78686e-09
-2.15088e-09
8.55151e-08
-2.87952e-09
-2.21269e-09
8.63218e-08
-2.96879e-09
-2.16787e-09
8.68821e-08
-3.05251e-09
-2.02018e-09
8.72617e-08
-3.12813e-09
-1.78144e-09
8.75121e-08
-3.19352e-09
-1.46405e-09
8.7672e-08
-3.24643e-09
-1.0881e-09
8.77702e-08
-3.28532e-09
-6.72877e-10
8.78262e-08
-3.30873e-09
-2.40065e-10
8.78515e-08
-3.31602e-09
1.84898e-10
8.78496e-08
-3.30677e-09
5.82448e-10
8.78168e-08
-3.28141e-09
9.3185e-10
8.7741e-08
-3.24059e-09
1.21184e-09
8.76026e-08
-3.18578e-09
1.40874e-09
8.73723e-08
-3.11855e-09
1.51271e-09
8.70112e-08
-3.04112e-09
1.51726e-09
8.64676e-08
-2.95566e-09
1.42137e-09
8.56752e-08
-2.8647e-09
1.23458e-09
8.45486e-08
-2.77043e-09
9.70805e-10
8.29786e-08
-2.67498e-09
6.47378e-10
8.08235e-08
-2.57966e-09
2.98054e-10
7.79007e-08
-2.48508e-09
-4.05495e-11
7.39703e-08
-2.39026e-09
-3.16113e-10
6.87193e-08
-2.29251e-09
-4.76945e-10
6.17309e-08
-2.18591e-09
-4.49514e-10
5.24568e-08
-2.06228e-09
3.22807e-08
-1.79578e-09
2.30842e-10
3.34573e-08
-1.46749e-09
1.14297e-10
5.40767e-08
-1.65688e-09
-1.61193e-10
6.358e-08
-1.74558e-09
-5.30009e-10
7.07339e-08
-1.82968e-09
-9.32151e-10
7.61008e-08
-1.91203e-09
-1.33715e-09
8.01089e-08
-1.99511e-09
-1.70042e-09
8.30806e-08
-2.08036e-09
-1.99731e-09
8.5263e-08
-2.16777e-09
-2.21016e-09
8.68451e-08
-2.25649e-09
-2.32434e-09
8.79732e-08
-2.34472e-09
-2.33247e-09
8.87609e-08
-2.43033e-09
-2.2359e-09
8.92967e-08
-2.51086e-09
-2.04046e-09
8.965e-08
-2.58397e-09
-1.75559e-09
8.98746e-08
-2.64727e-09
-1.39764e-09
9.00114e-08
-2.69877e-09
-9.80163e-10
9.00907e-08
-2.7367e-09
-5.28277e-10
9.01333e-08
-2.75985e-09
-5.96452e-11
9.01514e-08
-2.76735e-09
3.99619e-10
9.01489e-08
-2.75902e-09
8.28006e-10
9.01216e-08
-2.73504e-09
1.20954e-09
9.00573e-08
-2.69627e-09
1.51979e-09
8.99348e-08
-2.64393e-09
1.74944e-09
8.97238e-08
-2.5798e-09
1.88292e-09
8.93829e-08
-2.50586e-09
1.91637e-09
8.88582e-08
-2.42448e-09
1.85018e-09
8.80804e-08
-2.33802e-09
1.68751e-09
8.69604e-08
-2.24893e-09
1.43955e-09
8.53846e-08
-2.15932e-09
1.12752e-09
8.32066e-08
-2.07097e-09
7.76576e-10
8.02372e-08
-1.98473e-09
4.17396e-10
7.62289e-08
-1.90058e-09
9.50857e-11
7.08595e-08
-1.81691e-09
-1.43946e-10
6.37002e-08
-1.7306e-09
-2.40196e-10
5.41886e-08
-1.63802e-09
3.34871e-08
-1.4442e-09
-1.18604e-11
3.44287e-08
-9.60821e-10
-2.62002e-10
5.53779e-08
-1.04984e-09
-6.18478e-10
6.50302e-08
-1.09587e-09
-1.01875e-09
7.22889e-08
-1.15162e-09
-1.431e-09
7.77246e-08
-1.21375e-09
-1.81291e-09
8.17733e-08
-1.28147e-09
-2.14224e-09
8.47632e-08
-1.35443e-09
-2.39342e-09
8.69467e-08
-1.43172e-09
-2.55344e-09
8.8517e-08
-1.51182e-09
-2.61343e-09
8.96244e-08
-1.5926e-09
-2.56502e-09
9.03857e-08
-1.67169e-09
-2.41493e-09
9.08924e-08
-1.74661e-09
-2.16487e-09
9.12163e-08
-1.81492e-09
-1.82945e-09
9.14133e-08
-1.87432e-09
-1.42298e-09
9.15263e-08
-1.92279e-09
-9.58945e-10
9.15868e-08
-1.95865e-09
-4.62126e-10
9.16168e-08
-1.98066e-09
4.84925e-11
9.16288e-08
-1.98804e-09
5.50002e-10
9.16273e-08
-1.98052e-09
1.02342e-09
9.16078e-08
-1.95837e-09
1.4446e-09
9.15574e-08
-1.92235e-09
1.80101e-09
9.14543e-08
-1.8737e-09
2.07127e-09
9.12665e-08
-1.81411e-09
2.24818e-09
9.0951e-08
-1.74557e-09
2.32585e-09
9.04521e-08
-1.67038e-09
2.29862e-09
8.96976e-08
-1.59098e-09
2.17334e-09
8.8596e-08
-1.50983e-09
1.95673e-09
8.70304e-08
-1.42931e-09
1.66455e-09
8.48504e-08
-1.35148e-09
1.31761e-09
8.18627e-08
-1.2779e-09
9.40472e-10
7.78148e-08
-1.20943e-09
5.67706e-10
7.23785e-08
-1.1463e-09
2.40752e-10
6.51178e-08
-1.0888e-09
5.66868e-12
5.54619e-08
-1.03972e-09
3.44402e-08
-9.47003e-10
-2.32095e-10
3.51012e-08
-4.38327e-10
-6.13123e-10
5.61774e-08
-4.22933e-10
-1.04172e-09
6.58858e-08
-4.24155e-10
-1.48275e-09
7.31798e-08
-4.49855e-10
-1.90127e-09
7.86328e-08
-4.90254e-10
-2.26995e-09
8.26835e-08
-5.41153e-10
-2.56899e-09
8.56627e-08
-6.00416e-10
-2.78168e-09
8.78257e-08
-6.66175e-10
-2.89597e-09
8.93681e-08
-7.36253e-10
-2.90645e-09
9.04428e-08
-8.08232e-10
-2.80911e-09
9.11687e-08
-8.79519e-10
-2.60947e-09
9.16398e-08
-9.47612e-10
-2.31365e-09
9.19295e-08
-1.01003e-09
-1.92965e-09
9.20959e-08
-1.06455e-09
-1.47791e-09
9.21828e-08
-1.10917e-09
-9.71111e-10
9.22235e-08
-1.14231e-09
-4.3427e-10
9.22403e-08
-1.16272e-09
1.19577e-10
9.2247e-08
-1.1697e-09
6.61169e-10
9.22475e-08
-1.16295e-09
1.17417e-09
9.22377e-08
-1.14276e-09
1.63919e-09
9.22039e-08
-1.10982e-09
2.03402e-09
9.21235e-08
-1.06538e-09
2.34792e-09
9.19635e-08
-1.011e-09
2.56868e-09
9.16796e-08
-9.48683e-10
2.68711e-09
9.12138e-08
-8.80644e-10
2.70187e-09
9.04928e-08
-8.09347e-10
2.61279e-09
8.94222e-08
-7.37293e-10
2.42707e-09
8.78834e-08
-6.67044e-10
2.15497e-09
8.57232e-08
-6.01017e-10
1.81295e-09
8.27462e-08
-5.41364e-10
1.42185e-09
7.86969e-08
-4.89933e-10
1.00411e-09
7.32448e-08
-4.4876e-10
5.91318e-10
6.59509e-08
-4.21651e-10
2.30482e-10
5.62424e-08
-4.17946e-10
3.51004e-08
-4.30298e-10
-3.98206e-10
3.54888e-08
1.05779e-11
-8.66164e-10
5.65325e-08
1.12831e-10
-1.35255e-09
6.6223e-08
1.50163e-10
-1.81995e-09
7.34962e-08
1.50846e-10
-2.24042e-09
7.8924e-08
1.29984e-10
-2.59675e-09
8.29444e-08
9.48021e-11
-2.87152e-09
8.5889e-08
4.88432e-11
-3.05343e-09
8.80131e-08
-5.49677e-12
-3.13337e-09
8.95139e-08
-6.62241e-11
-3.10726e-09
9.05454e-08
-1.29469e-10
-2.97389e-09
9.12283e-08
-1.92901e-10
-2.73783e-09
9.16578e-08
-2.53954e-10
-2.40633e-09
9.19094e-08
-3.10292e-10
-1.99368e-09
9.20418e-08
-3.5968e-10
-1.51166e-09
9.21009e-08
-4.00266e-10
-9.77346e-10
9.21204e-08
-4.3045e-10
-4.13817e-10
9.21238e-08
-4.49131e-10
1.64654e-10
9.2125e-08
-4.55548e-10
7.32947e-10
9.21285e-08
-4.49514e-10
1.27282e-09
9.21297e-08
-4.31207e-10
1.76181e-09
9.21147e-08
-4.01386e-10
2.18685e-09
9.206e-08
-3.61129e-10
2.53097e-09
9.19317e-08
-3.12036e-10
2.78108e-09
9.16841e-08