/*--------------------------------*- C++ -*----------------------------------*\
| =========                 |                                                 |
| \\      /  F ield         | OpenFOAM: The Open Source CFD Toolbox           |
|  \\    /   O peration     | Version:  v2012                                 |
|   \\  /    A nd           | Website:  www.openfoam.com                      |
|    \\/     M anipulation  |                                                 |
\*---------------------------------------------------------------------------*/
FoamFile
{
    version     2.0;
    format      ascii;
    class       volScalarField;
    location    "900/topAir";
    object      rho;
}
// * * * * * * * * * * * * * * * * * * * * * * * * * * * * * * * * * * * * * //

dimensions      [1 -3 0 0 0 0 0];


internalField   nonuniform List<scalar> 
1200
(
1.135832
1.114833
1.096044
1.079054
1.063533
1.049214
1.035878
1.023354
1.011616
1.000752
0.9907035
0.9814341
0.9729325
0.9652163
0.9583267
0.9523381
0.9473496
0.9434707
0.9408102
0.9394352
0.9393402
0.9404325
0.9425459
0.9454654
0.9489344
0.9526301
0.9560818
0.9586234
0.9590321
0.9568157
1.158113
1.157138
1.155775
1.154078
1.152089
1.149842
1.147367
1.14468
1.141647
1.138015
1.133682
1.128478
1.122171
1.114604
1.105591
1.095034
1.083068
1.070165
1.057119
1.044859
1.034191
1.025615
1.019277
1.015008
1.012377
1.010701
1.008943
1.005633
0.9976335
0.9862389
1.158608
1.158576
1.158515
1.15842
1.158284
1.158105
1.157876
1.157594
1.157252
1.156836
1.156329
1.155709
1.154879
1.153445
1.15097
1.146817
1.140226
1.130554
1.117754
1.102631
1.086595
1.071129
1.057355
1.04587
1.036779
1.02978
1.024223
1.019067
1.012318
1.002659
1.158618
1.158617
1.158614
1.15861
1.158601
1.158587
1.158567
1.158539
1.1585
1.158447
1.158378
1.158286
1.158163
1.157982
1.15769
1.157047
1.155387
1.151459
1.143712
1.131579
1.116282
1.099906
1.084185
1.070129
1.058144
1.048204
1.039956
1.032725
1.025172
1.016298
1.135837
1.115066
1.096668
1.080206
1.065345
1.051828
1.039468
1.028129
1.017729
1.008198
0.9995188
0.9917113
0.9848373
0.9790099
0.974353
0.9709929
0.9690278
0.9684911
0.9693269
0.9713646
0.9743423
0.977986
0.9820928
0.986535
0.991176
0.9957426
0.9996241
1.001766
0.9997802
0.9949599
1.158114
1.157156
1.155842
1.154233
1.152382
1.150333
1.148121
1.145781
1.143342
1.140829
1.138272
1.135712
1.133205
1.130841
1.128645
1.126668
1.124963
1.123556
1.122428
1.121497
1.120616
1.119641
1.118494
1.117156
1.115589
1.113672
1.111172
1.107842
1.103357
1.092697
1.158608
1.158576
1.158519
1.15843
1.158308
1.158148
1.157951
1.157714
1.157437
1.15712
1.156763
1.156366
1.155929
1.155439
1.154874
1.154187
1.15331
1.15215
1.150571
1.148345
1.145145
1.14079
1.135416
1.129286
1.122466
1.114651
1.105129
1.093692
1.079295
1.06265
1.158618
1.158617
1.158615
1.15861
1.158603
1.158591
1.158575
1.158552
1.158521
1.158482
1.158433
1.158371
1.158294
1.158199
1.158074
1.157887
1.157525
1.156655
1.154489
1.149738
1.141233
1.128974
1.114337
1.099138
1.084714
1.0717
1.060163
1.049809
1.039823
1.029671
1.135836
1.115029
1.096603
1.080126
1.065258
1.051738
1.039364
1.027992
1.017517
1.007873
0.9990292
0.9909907
0.9838047
0.9775704
0.9724368
0.9686003
0.9662879
0.9657382
0.9671811
0.9707892
0.9765919
0.9843588
0.9935363
1.00333
1.012892
1.021449
1.028007
1.031393
1.029345
1.020902
1.158113
1.157153
1.155836
1.154225
1.152376
1.150333
1.148133
1.14581
1.143394
1.140917
1.13841
1.135912
1.133467
1.131129
1.128964
1.127046
1.125464
1.124309
1.123662
1.123569
1.123984
1.124716
1.125413
1.125654
1.125077
1.123376
1.120189
1.114991
1.106637
1.094364
1.158608
1.158576
1.158518
1.15843
1.158308
1.158149
1.157954
1.157722
1.157451
1.157144
1.156802
1.156427
1.156024
1.155598
1.155156
1.154709
1.154268
1.15385
1.153464
1.153058
1.152456
1.151265
1.148936
1.145058
1.139542
1.132442
1.123663
1.112638
1.098888
1.084113
1.158618
1.158617
1.158615
1.15861
1.158603
1.158591
1.158575
1.158553
1.158524
1.158487
1.15844
1.158384
1.158317
1.158237
1.158144
1.158035
1.157898
1.157699
1.157311
1.15637
1.15405
1.149067
1.140317
1.127857
1.113063
1.097684
1.082854
1.068957
1.055707
1.04335
1.135833
1.115007
1.096544
1.080011
1.065062
1.051427
1.038892
1.027287
1.01648
1.006361
0.9968388
0.9878398
0.9793074
0.9712235
0.9636577
0.9567067
0.9504939
0.9451757
0.9409148
0.9379613
0.9366813
0.9375242
0.9408942
0.9469127
0.9551185
0.9642547
0.9723018
0.9764258
0.9710299
0.9620576
1.158113
1.157152
1.15583
1.154213
1.152352
1.15029
1.148063
1.1457
1.143225
1.14066
1.138024
1.135334
1.132608
1.129862
1.127121
1.124414
1.121779
1.119272
1.116961
1.114939
1.113326
1.112246
1.111757
1.111704
1.111538
1.110244
1.106327
1.098061
1.081238
1.04732
1.158608
1.158576
1.158518
1.158429
1.158306
1.158146
1.157949
1.157713
1.157438
1.157124
1.156771
1.156381
1.155954
1.155493
1.155
1.15448
1.15394
1.153387
1.152836
1.1523
1.151777
1.151221
1.150455
1.149023
1.14609
1.140606
1.131418
1.117872
1.099433
1.074366
1.158618
1.158617
1.158615
1.15861
1.158603
1.158591
1.158575
1.158552
1.158523
1.158485
1.158438
1.158381
1.158312
1.158231
1.158137
1.158028
1.157903
1.157761
1.157595
1.15739
1.157085
1.156474
1.15498
1.151472
1.144524
1.133208
1.117212
1.09807
1.078662
1.060881
1.135831
1.114996
1.096519
1.079966
1.064993
1.051325
1.038742
1.027068
1.01616
1.005892
0.9961489
0.9868129
0.9777499
0.9689138
0.9605709
0.9528304
0.9457918
0.9396368
0.9341881
0.9293608
0.9251506
0.9216365
0.9189822
0.9173949
0.9170112
0.9177233
0.9189646
0.9195949
0.917077
0.9098257
1.158113
1.157151
1.155828
1.154207
1.152342
1.150273
1.148037
1.14566
1.143165
1.14057
1.13789
1.135135
1.132309
1.129229
1.125814
1.121977
1.117605
1.112572
1.106688
1.099729
1.091648
1.082318
1.071746
1.060127
1.047769
1.03483
1.020872
1.004585
0.9839268
0.9553383
1.158608
1.158576
1.158518
1.158429
1.158305
1.158145
1.157947
1.157709
1.157432
1.157115
1.156758
1.15636
1.155923
1.155443
1.154912
1.154325
1.153672
1.152941
1.152117
1.151146
1.149712
1.147618
1.144634
1.140526
1.134986
1.127229
1.113617
1.089386
1.053943
1.008202
1.158618
1.158617
1.158615
1.15861
1.158603
1.158591
1.158574
1.158552
1.158522
1.158484
1.158437
1.158379
1.158309
1.158226
1.158129
1.158015
1.157881
1.157726
1.157545
1.157329
1.157058
1.15669
1.156151
1.15528
1.153724
1.150441
1.140917
1.108503
1.069067
1.033071
1.135831
1.114996
1.096518
1.079965
1.064992
1.051323
1.03874
1.027066
1.016158
1.00589
0.9961468
0.9868108
0.9777477
0.9689114
0.9605683
0.9528276
0.9457888
0.9396338
0.9341852
0.9293581
0.9251481
0.9216348
0.9189817
0.9173961
0.9170147
0.9177291
0.9189732
0.9196075
0.9170946
0.9098465
1.158113
1.157151
1.155828
1.154207
1.152341
1.150273
1.148037
1.14566
1.143164
1.14057
1.13789
1.135135
1.132309
1.129229
1.125814
1.121977
1.117605
1.112573
1.106688
1.09973
1.09165
1.082321
1.071753
1.06014
1.047792
1.034868
1.020925
1.004651
0.9839997
0.9554137
1.158608
1.158576
1.158518
1.158429
1.158305
1.158145
1.157947
1.157709
1.157432
1.157115
1.156758
1.15636
1.155923
1.155443
1.154912
1.154325
1.153672
1.152941
1.152117
1.151147
1.149714
1.147623
1.144645
1.140548
1.135028
1.127302
1.113732
1.089515
1.054072
1.008349
1.158618
1.158617
1.158615
1.15861
1.158603
1.158591
1.158574
1.158552
1.158522
1.158484
1.158437
1.158379
1.158309
1.158226
1.158129
1.158015
1.157881
1.157726
1.157545
1.157329
1.157057
1.15669
1.15615
1.155279
1.15372
1.150428
1.140882
1.108503
1.069148
1.033272
1.135832
1.115005
1.096541
1.080007
1.065058
1.051423
1.038887
1.027282
1.016475
1.006355
0.9968323
0.9878329
0.9793003
0.9712159
0.9636498
0.9566986
0.9504857
0.9451675
0.9409071
0.9379547
0.936677
0.9375237
0.9408989
0.946923
0.9551327
0.9642693
0.9723201
0.9764547
0.971083
0.9621102
1.158113
1.157152
1.15583
1.154213
1.152351
1.15029
1.148063
1.145699
1.143225
1.14066
1.138023
1.135333
1.132607
1.129861
1.12712
1.124413
1.121779
1.119271
1.116961
1.11494
1.113329
1.112253
1.111767
1.111717
1.11155
1.110252
1.106329
1.098068
1.081272
1.047406
1.158608
1.158576
1.158518
1.158429
1.158306
1.158146
1.157949
1.157713
1.157438
1.157124
1.156771
1.156381
1.155954
1.155493
1.155
1.15448
1.153939
1.153387
1.152836
1.1523
1.151778
1.151222
1.150455
1.149018
1.146072
1.140567
1.131354
1.117798
1.099391
1.074431
1.158618
1.158617
1.158615
1.15861
1.158603
1.158591
1.158575
1.158552
1.158523
1.158485
1.158438
1.158381
1.158312
1.158231
1.158137
1.158028
1.157903
1.157761
1.157595
1.15739
1.157083
1.156467
1.15496
1.151422
1.144419
1.13302
1.116931
1.09777
1.078444
1.060781
1.135835
1.115026
1.096599
1.080121
1.065252
1.05173
1.039356
1.027983
1.017507
1.007863
0.9990183
0.9909793
0.9837932
0.977559
0.9724259
0.9685904
0.9662798
0.9657326
0.967179
0.9707913
0.9765986
0.9843691
0.993548
1.00334
1.012896
1.021444
1.027985
1.031356
1.029302
1.020864
1.158113
1.157153
1.155836
1.154225
1.152376
1.150332
1.148132
1.145809
1.143393
1.140915
1.138409
1.13591
1.133465
1.131128
1.128962
1.127045
1.125464
1.124309
1.123664
1.123571
1.123988
1.12472
1.125414
1.125652
1.125069
1.123362
1.120168
1.114965
1.106611
1.094349
1.158608
1.158576
1.158518
1.15843
1.158308
1.158149
1.157954
1.157721
1.157451
1.157144
1.156802
1.156427
1.156024
1.155598
1.155156
1.154708
1.154268
1.15385
1.153464
1.153057
1.152454
1.151259
1.148923
1.145035
1.139508
1.132399
1.123611
1.112569
1.098798
1.084004
1.158618
1.158617
1.158615
1.15861
1.158603
1.158591
1.158575
1.158553
1.158524
1.158487
1.15844
1.158384
1.158317
1.158237
1.158144
1.158035
1.157898
1.157698
1.157309
1.156364
1.154035
1.149035
1.14026
1.127775
1.11296
1.097567
1.082726
1.06882
1.055556
1.043172
1.135835
1.115062
1.096662
1.080199
1.065336
1.051819
1.039457
1.028117
1.017716
1.008184
0.9995035
0.991695
0.9848205
0.9789928
0.9743361
0.9709764
0.969012
0.9684761
0.9693125
0.9713502
0.9743271
0.9779692
0.9820735
0.9865126
0.9911496
0.9957109
0.9995846
1.001717
0.9997203
0.9948978
1.158114
1.157156
1.155841
1.154233
1.152382
1.150332
1.14812
1.14578
1.14334
1.140827
1.13827
1.13571
1.133203
1.130838
1.128642
1.126666
1.124961
1.123553
1.122426
1.121494
1.120612
1.119634
1.118485
1.117143
1.115572
1.11365
1.111145
1.10781
1.103319
1.092622
1.158608
1.158576
1.158519
1.15843
1.158308
1.158148
1.157951
1.157714
1.157437
1.15712
1.156763
1.156366
1.155928
1.155439
1.154873
1.154186
1.153308
1.152147
1.150566
1.148336
1.14513
1.140768
1.135385
1.129245
1.122415
1.114585
1.105045
1.093596
1.079184
1.062517
1.158618
1.158617
1.158615
1.15861
1.158603
1.158591
1.158575
1.158552
1.158521
1.158482
1.158433
1.158371
1.158294
1.158199
1.158074
1.157887
1.157524
1.156651
1.154479
1.149715
1.141192
1.128916
1.114266
1.099057
1.084629
1.071611
1.060072
1.049713
1.039718
1.02955
1.13583
1.114829
1.096038
1.079047
1.063524
1.049202
1.035864
1.023338
1.011599
1.000734
0.9906841
0.9814138
0.972911
0.9651944
0.9583044
0.9523154
0.9473267
0.9434481
0.9407879
0.9394133
0.9393185
0.9404105
0.942523
0.9454408
0.948907
0.9525989
0.9560453
0.9585797
0.9589792
0.9567522
1.158113
1.157138
1.155775
1.154077
1.152088
1.149841
1.147365
1.144678
1.141644
1.13801
1.133675
1.128468
1.122157
1.114585
1.105566
1.095002
1.083028
1.07012
1.057071
1.04481
1.034143
1.025569
1.019233
1.014965
1.012332
1.010652
1.008888
1.005568
0.9975485
0.9861499
1.158608
1.158576
1.158515
1.15842
1.158284
1.158105
1.157876
1.157594
1.157252
1.156836
1.156329
1.155708
1.154877
1.153441
1.150963
1.146803
1.140203
1.130519
1.117707
1.102574
1.086531
1.071064
1.05729
1.045807
1.036717
1.029719
1.02416
1.019
1.012239
1.002566
1.158618
1.158617
1.158614
1.15861
1.158601
1.158587
1.158567
1.158539
1.1585
1.158447
1.158377
1.158286
1.158163
1.157982
1.157689
1.157045
1.15538
1.151442
1.143679
1.131528
1.116217
1.099833
1.084108
1.070053
1.058069
1.048129
1.03988
1.032648
1.025086
1.016199
)
;

boundaryField
{
    maxY
    {
        type            calculated;
        value           nonuniform List<scalar> 
300
(
1.158618
1.158618
1.158618
1.158618
1.158618
1.158618
1.158618
1.158618
1.158618
1.158618
1.158617
1.158617
1.158617
1.158617
1.158617
1.158617
1.158617
1.158617
1.158617
1.158617
1.158614
1.158614
1.158614
1.158614
1.158614
1.158614
1.158614
1.158614
1.158614
1.158614
1.158609
1.15861
1.15861
1.15861
1.15861
1.15861
1.15861
1.15861
1.15861
1.158609
1.1586
1.158602
1.158602
1.158602
1.158602
1.158602
1.158602
1.158602
1.158602
1.1586
1.158587
1.158591
1.158591
1.158591
1.15859
1.15859
1.158591
1.158591
1.158591
1.158587
1.158567
1.158574
1.158574
1.158574
1.158574
1.158574
1.158574
1.158574
1.158574
1.158567
1.158538
1.158551
1.158552
1.158552
1.158551
1.158551
1.158552
1.158552
1.158551
1.158538
1.158499
1.158521
1.158523
1.158522
1.158522
1.158522
1.158522
1.158523
1.158521
1.158499
1.158447
1.158482
1.158486
1.158484
1.158484
1.158484
1.158484
1.158486
1.158482
1.158447
1.158377
1.158432
1.15844
1.158437
1.158436
1.158436
1.158437
1.15844
1.158432
1.158377
1.158285
1.15837
1.158384
1.15838
1.158378
1.158378
1.15838
1.158383
1.15837
1.158285
1.158162
1.158294
1.158316
1.158312
1.158308
1.158308
1.158312
1.158316
1.158294
1.158162
1.157982
1.158198
1.158237
1.158231
1.158226
1.158226
1.158231
1.158237
1.158198
1.157981
1.157689
1.158074
1.158144
1.158136
1.158128
1.158128
1.158136
1.158144
1.158074
1.157688
1.157047
1.157887
1.158034
1.158027
1.158014
1.158014
1.158027
1.158034
1.157886
1.157045
1.155386
1.157525
1.157898
1.157903
1.157881
1.157881
1.157903
1.157898
1.157523
1.15538
1.151458
1.156654
1.157698
1.15776
1.157726
1.157726
1.15776
1.157698
1.156651
1.151442
1.143712
1.154489
1.157311
1.157595
1.157544
1.157544
1.157595
1.157309
1.154478
1.143679
1.131578
1.149737
1.156369
1.15739
1.157329
1.157329
1.157389
1.156364
1.149714
1.131527
1.116281
1.141232
1.154049
1.157085
1.157057
1.157057
1.157083
1.154035
1.141192
1.116216
1.099905
1.128974
1.149066
1.156473
1.15669
1.15669
1.156467
1.149034
1.128916
1.099832
1.084184
1.114337
1.140316
1.154979
1.15615
1.15615
1.15496
1.14026
1.114265
1.084108
1.070129
1.099137
1.127856
1.151472
1.155279
1.155278
1.151422
1.127774
1.099057
1.070052
1.058144
1.084714
1.113063
1.144524
1.153723
1.153719
1.144418
1.11296
1.084629
1.058068
1.048204
1.071699
1.097684
1.133208
1.150441
1.150428
1.13302
1.097566
1.071611
1.048129
1.039955
1.060163
1.082854
1.117211
1.140917
1.140882
1.116931
1.082726
1.060071
1.03988
1.032725
1.049809
1.068957
1.09807
1.108503
1.108502
1.09777
1.068819
1.049712
1.032647
1.025171
1.039823
1.055707
1.078662
1.069067
1.069148
1.078443
1.055556
1.039718
1.025085
1.016297
1.029671
1.043349
1.06088
1.03307
1.033272
1.06078
1.043172
1.02955
1.016199
)
;
    }
    minX
    {
        type            calculated;
        value           nonuniform List<scalar> 
40
(
1.158622
1.15862
1.158619
1.158618
1.158622
1.15862
1.158619
1.158618
1.158622
1.15862
1.158619
1.158618
1.158622
1.15862
1.158619
1.158618
1.158622
1.15862
1.158619
1.158618
1.158622
1.15862
1.158619
1.158618
1.158622
1.15862
1.158619
1.158618
1.158622
1.15862
1.158619
1.158618
1.158622
1.15862
1.158619
1.158618
1.158622
1.15862
1.158619
1.158618
)
;
    }
    maxX
    {
        type            calculated;
        value           nonuniform List<scalar> 
40
(
0.9568638
0.9862739
1.002692
1.016332
0.9950055
1.092711
1.062668
1.029704
1.020955
1.094395
1.084139
1.043382
0.9621122
1.047366
1.074405
1.060945
0.9098943
0.9553877
1.008238
1.033159
0.9099152
0.9554634
1.008386
1.033361
0.9621652
1.047453
1.07447
1.060844
1.020918
1.09438
1.08403
1.043204
0.9949434
1.092636
1.062534
1.029583
0.9568002
0.9861848
1.0026
1.016233
)
;
    }
    minZ
    {
        type            calculated;
        value           nonuniform List<scalar> 
120
(
1.135832
1.158113
1.158608
1.158618
1.114833
1.157138
1.158576
1.158617
1.096044
1.155775
1.158515
1.158614
1.079054
1.154078
1.15842
1.15861
1.063533
1.152089
1.158284
1.158601
1.049214
1.149842
1.158105
1.158587
1.035878
1.147367
1.157876
1.158567
1.023354
1.14468
1.157594
1.158539
1.011616
1.141647
1.157252
1.1585
1.000752
1.138015
1.156836
1.158447
0.9907035
1.133682
1.156329
1.158378
0.9814341
1.128478
1.155709
1.158286
0.9729325
1.122171
1.154879
1.158163
0.9652163
1.114604
1.153445
1.157982
0.9583267
1.105591
1.15097
1.15769
0.9523381
1.095034
1.146817
1.157047
0.9473496
1.083068
1.140226
1.155387
0.9434707
1.070165
1.130554
1.151459
0.9408102
1.057119
1.117754
1.143712
0.9394352
1.044859
1.102631
1.131579
0.9393402
1.034191
1.086595
1.116282
0.9404325
1.025615
1.071129
1.099906
0.9425459
1.019277
1.057355
1.084185
0.9454654
1.015008
1.04587
1.070129
0.9489344
1.012377
1.036779
1.058144
0.9526301
1.010701
1.02978
1.048204
0.9560818
1.008943
1.024223
1.039956
0.9586234
1.005633
1.019067
1.032725
0.9590321
0.9976335
1.012318
1.025172
0.9568157
0.9862389
1.002659
1.016298
)
;
    }
    maxZ
    {
        type            calculated;
        value           nonuniform List<scalar> 
120
(
1.13583
1.158113
1.158608
1.158618
1.114829
1.157138
1.158576
1.158617
1.096038
1.155775
1.158515
1.158614
1.079047
1.154077
1.15842
1.15861
1.063524
1.152088
1.158284
1.158601
1.049202
1.149841
1.158105
1.158587
1.035864
1.147365
1.157876
1.158567
1.023338
1.144678
1.157594
1.158539
1.011599
1.141644
1.157252
1.1585
1.000734
1.13801
1.156836
1.158447
0.9906841
1.133675
1.156329
1.158377
0.9814138
1.128468
1.155708
1.158286
0.972911
1.122157
1.154877
1.158163
0.9651944
1.114585
1.153441
1.157982
0.9583044
1.105566
1.150963
1.157689
0.9523154
1.095002
1.146803
1.157045
0.9473267
1.083028
1.140203
1.15538
0.9434481
1.07012
1.130519
1.151442
0.9407879
1.057071
1.117707
1.143679
0.9394133
1.04481
1.102574
1.131528
0.9393185
1.034143
1.086531
1.116217
0.9404105
1.025569
1.071064
1.099833
0.942523
1.019233
1.05729
1.084108
0.9454408
1.014965
1.045807
1.070053
0.948907
1.012332
1.036717
1.058069
0.9525989
1.010652
1.029719
1.048129
0.9560453
1.008888
1.02416
1.03988
0.9585797
1.005568
1.019
1.032648
0.9589792
0.9975485
1.012239
1.025086
0.9567522
0.9861499
1.002566
1.016199
)
;
    }
    topAir_to_rightSolid
    {
        type            calculated;
        value           nonuniform List<scalar> 
130
(
0.7688093
0.7697531
0.7708994
0.7721514
0.773427
0.7746659
0.7758183
0.7768482
0.7777282
0.7784425
0.7789772
0.7793235
0.7794775
0.7677548
0.7689307
0.7702935
0.7717264
0.7731428
0.7744864
0.7757142
0.7767968
0.7777129
0.7784507
0.7789992
0.7793514
0.7795036
0.7655211
0.7672481
0.7690826
0.7708814
0.7725662
0.7741009
0.7754619
0.7766357
0.7776132
0.7783909
0.7789627
0.7793283
0.7794857
0.7620861
0.764905
0.767518
0.7698404
0.7718698
0.7736298
0.7751382
0.7764088
0.7774498
0.7782686
0.7788656
0.7792444
0.7794077
0.7579828
0.7626687
0.7662293
0.7690618
0.7713791
0.7733082
0.7749179
0.77625
0.7773281
0.7781697
0.7787808
0.7791691
0.7793367
0.7579786
0.7626649
0.7662255
0.7690578
0.7713749
0.7733037
0.7749132
0.7762451
0.7773229
0.7781644
0.7787754
0.7791637
0.7793312
0.7620744
0.7648936
0.7675064
0.7698283
0.7718571
0.7736164
0.7751241
0.7763939
0.7774337
0.7782521
0.7788502
0.7792288
0.7793906
0.7655022
0.7672292
0.7690632
0.7708612
0.7725451
0.7740787
0.7754384
0.776611
0.7775868
0.7783636
0.778936
0.7793009
0.7794565
0.7677294
0.7689049
0.7702667
0.7716984
0.7731134
0.7744555
0.7756817
0.7767626
0.7776767
0.7784128
0.7789596
0.7793101
0.7794614
0.7687833
0.7697255
0.7708698
0.77212
0.7733939
0.774631
0.7757815
0.7768093
0.777687
0.7783988
0.7789305
0.7792728
0.7794209
)
;
    }
    topAir_to_heater
    {
        type            calculated;
        value           nonuniform List<scalar> 
40
(
0.7685917
0.7680191
0.7678854
0.768191
0.7673271
0.7666416
0.7665097
0.7669307
0.7645564
0.7635733
0.7634443
0.7641675
0.7598101
0.7581878
0.7580661
0.7594371
0.7517191
0.7491547
0.7490598
0.7514122
0.751714
0.7491495
0.7490547
0.7514075
0.7597957
0.7581738
0.7580529
0.7594254
0.7645349
0.7635524
0.7634243
0.7641485
0.7672985
0.7666138
0.7664826
0.7669048
0.768562
0.7679887
0.767854
0.7681586
)
;
    }
    topAir_to_leftSolid
    {
        type            calculated;
        value           nonuniform List<scalar> 
130
(
0.7823182
0.7821247
0.7816953
0.7810456
0.780189
0.779141
0.7779233
0.7765645
0.7751036
0.7735899
0.7720905
0.7706891
0.7694851
0.7823415
0.7821401
0.7817003
0.7810348
0.780154
0.77907
0.7777999
0.7763666
0.7748018
0.7731482
0.7714689
0.7698518
0.7684163
0.782329
0.7821203
0.7816651
0.7809737
0.7800527
0.7789076
0.7775467
0.7759805
0.7742246
0.7723011
0.7702542
0.7681626
0.766173
0.7823048
0.7820889
0.781618
0.7808997
0.7799362
0.7787255
0.7772646
0.775546
0.7735581
0.7712819
0.768702
0.7658214
0.7627291
0.7822858
0.7820653
0.7815844
0.7808489
0.779858
0.7786041
0.7770752
0.7752484
0.7730845
0.7705126
0.7674152
0.7635754
0.7585969
0.782282
0.7820615
0.7815804
0.7808449
0.7798539
0.7785999
0.7770709
0.775244
0.77308
0.7705081
0.7674106
0.7635707
0.7585923
0.7822937
0.7820776
0.7816063
0.7808876
0.7799238
0.7787128
0.7772516
0.7755329
0.7735451
0.7712686
0.7686879
0.7658074
0.7627166
0.7823111
0.7821018
0.7816459
0.7809537
0.7800321
0.7788865
0.7775252
0.7759587
0.7742028
0.772279
0.7702314
0.7681401
0.7661524
0.7823184
0.7821152
0.7816738
0.7810069
0.7801251
0.7790404
0.7777698
0.776336
0.7747711
0.7731173
0.7714379
0.769821
0.7683855
0.7823029
0.7820985
0.7816657
0.781014
0.780156
0.779107
0.7778886
0.7765293
0.7750682
0.7735543
0.7720546
0.7706527
0.7694469
)
;
    }
}


// ************************************************************************* //
