/*--------------------------------*- C++ -*----------------------------------*\
| =========                 |                                                 |
| \\      /  F ield         | OpenFOAM: The Open Source CFD Toolbox           |
|  \\    /   O peration     | Version:  v2012                                 |
|   \\  /    A nd           | Website:  www.openfoam.com                      |
|    \\/     M anipulation  |                                                 |
\*---------------------------------------------------------------------------*/
FoamFile
{
    version     2.0;
    format      ascii;
    class       volScalarField;
    location    "900/topAir";
    object      T;
}
// * * * * * * * * * * * * * * * * * * * * * * * * * * * * * * * * * * * * * //

dimensions      [0 0 0 1 0 0 0];


internalField   nonuniform List<scalar> 
1200
(
306.0193
311.7834
317.1283
322.1213
326.8223
331.2828
335.5477
339.6541
343.5953
347.3253
350.8481
354.1617
357.2565
360.1125
362.7014
364.9822
366.904
368.4125
369.4543
369.9951
370.0325
369.6027
368.774
367.6352
366.2913
364.8703
363.553
362.5891
362.4346
363.2741
300.1315
300.3844
300.7386
301.1808
301.7008
302.2902
302.9425
303.6537
304.4603
305.432
306.5993
308.0132
309.7443
311.8471
314.3894
317.4203
320.9274
324.7968
328.805
332.6631
336.0947
338.9051
341.0125
342.4466
343.3367
343.9061
344.5052
345.639
348.4106
352.436
300.0029
300.0114
300.0271
300.0517
300.0868
300.1334
300.1926
300.2657
300.3544
300.4624
300.5941
300.7556
300.9716
301.3458
301.9938
303.0875
304.8395
307.4475
310.968
315.2332
319.8854
324.5041
328.7314
332.3412
335.2556
337.534
339.3655
341.0823
343.3563
346.6642
300.0001
300.0003
300.001
300.0023
300.0045
300.008
300.0132
300.0206
300.0307
300.0443
300.0624
300.0861
300.118
300.1648
300.2407
300.4073
300.8391
301.8653
303.91
307.1687
311.378
316.0139
320.5963
324.8071
328.4859
331.601
334.2311
336.5711
339.0511
342.0116
306.0178
311.7184
316.9478
321.7778
326.2666
330.4592
334.3889
338.0765
341.5315
344.7601
347.7538
350.4916
352.9379
355.0387
356.7356
357.9701
358.696
358.8948
358.5853
357.8331
356.7395
355.4104
353.9242
352.3305
350.6808
349.0725
347.7171
346.9735
347.6628
349.3471
300.1313
300.3797
300.7213
301.1404
301.624
302.1615
302.7435
303.3618
304.009
304.6786
305.3629
306.0513
306.7283
307.3696
307.9678
308.508
308.9756
309.3626
309.6733
309.9305
310.1742
310.4444
310.7626
311.1348
311.5718
312.1082
312.8102
313.7505
315.026
318.0993
300.0029
300.0111
300.0261
300.049
300.0808
300.122
300.1732
300.2346
300.3064
300.3887
300.4814
300.5846
300.6984
300.8256
300.9729
301.1521
301.3812
301.6845
302.0986
302.6842
303.53
304.6886
306.1307
307.7925
309.6625
311.8338
314.5206
317.8097
322.0489
327.0934
300.0001
300.0003
300.001
300.0021
300.0041
300.0071
300.0114
300.0173
300.0251
300.0353
300.0481
300.0641
300.0839
300.1086
300.1409
300.1894
300.2833
300.5092
301.0729
302.3173
304.5702
307.8772
311.9213
316.2348
320.4397
324.3311
327.8603
331.094
334.2736
337.5695
306.0181
311.7287
316.9666
321.8017
326.2931
330.4878
334.4222
338.1218
341.6026
344.8712
347.9242
350.7464
353.3084
355.5615
357.4386
358.8543
359.7131
359.9178
359.3809
358.0452
355.9178
353.1095
349.8477
346.4327
343.1622
340.2875
338.1168
337.0068
337.6772
340.4699
300.1313
300.3803
300.7228
301.1424
301.6256
302.1614
302.7403
303.3541
303.995
304.6552
305.3259
305.9975
306.6576
307.2912
307.8808
308.4046
308.838
309.1554
309.3333
309.359
309.2446
309.0434
308.8522
308.7858
308.9444
309.412
310.2924
311.7389
314.0923
317.6146
300.0029
300.0112
300.0262
300.0491
300.0808
300.1217
300.1723
300.2327
300.3028
300.3825
300.4714
300.5687
300.6736
300.7844
300.8995
301.016
301.131
301.24
301.3407
301.447
301.6043
301.9164
302.5283
303.5529
305.0225
306.9348
309.3327
312.3979
316.3069
320.6177
300.0001
300.0003
300.001
300.0021
300.0041
300.007
300.0112
300.017
300.0245
300.0341
300.0461
300.0607
300.0781
300.0987
300.1228
300.1512
300.1865
300.2382
300.3389
300.5834
301.1876
302.4937
304.8149
308.1823
312.2783
316.6535
320.9901
325.1631
329.2442
333.1439
306.019
311.7348
316.9837
321.8362
326.3532
330.5853
334.5742
338.3536
341.951
345.3895
348.6887
351.8652
354.9309
357.8851
360.6949
363.3155
365.6903
367.748
369.4133
370.5765
371.0829
370.7492
369.4214
367.0734
363.9197
360.4716
357.4882
355.9783
357.9564
361.2948
300.1314
300.3807
300.7242
301.1457
301.632
302.1726
302.7588
303.3832
304.04
304.7236
305.4295
306.1531
306.89
307.6358
308.384
309.1266
309.8525
310.5467
311.1893
311.7536
312.2052
312.5082
312.6457
312.6606
312.7074
313.0719
314.1802
316.5454
321.4703
331.8814
300.0029
300.0112
300.0262
300.0493
300.0812
300.1225
300.1737
300.2349
300.3063
300.3878
300.4794
300.5808
300.6918
300.8117
300.94
301.0756
301.2167
301.3609
301.505
301.6453
301.7822
301.9278
302.1289
302.5057
303.2798
304.7378
307.2125
310.9353
316.1501
323.5264
300.0001
300.0003
300.001
300.0021
300.0041
300.0071
300.0113
300.0171
300.0248
300.0346
300.0467
300.0615
300.0793
300.1003
300.1248
300.153
300.1853
300.2223
300.2652
300.3184
300.3975
300.5563
300.9451
301.8618
303.6943
306.7269
311.1188
316.5422
322.2377
327.6386
306.0194
311.7378
316.991
321.8493
326.3743
330.6175
334.6226
338.4259
342.0588
345.5505
348.9302
352.2313
355.4962
358.7382
361.854
364.7936
367.5084
369.9157
372.0733
374.0059
375.7079
377.1404
378.2297
378.8842
379.0427
378.7486
378.237
377.9777
379.0155
382.0362
300.1314
300.3809
300.7248
301.1471
301.6347
302.177
302.7657
303.3939
304.0561
304.7478
305.4656
306.2068
306.9711
307.8084
308.7421
309.798
311.0097
312.4167
314.0779
316.0654
318.4049
321.1497
324.3175
327.8721
331.7394
335.8871
340.4798
345.9998
353.2642
363.8356
300.0029
300.0112
300.0263
300.0494
300.0814
300.1229
300.1743
300.2359
300.3078
300.3901
300.4829
300.5861
300.6997
300.8248
300.9629
301.116
301.2865
301.4775
301.6933
301.9476
302.3244
302.876
303.6654
304.7592
306.2467
308.3542
312.1233
319.0657
329.7956
344.7582
300.0001
300.0003
300.001
300.0021
300.0041
300.0071
300.0114
300.0172
300.0249
300.0348
300.0471
300.0621
300.0801
300.1016
300.1269
300.1564
300.1909
300.2312
300.2783
300.3342
300.4047
300.5
300.6403
300.8669
301.2727
302.1324
304.6544
313.5629
325.1297
336.4586
306.0195
311.7379
316.9912
321.8496
326.3747
330.618
334.6231
338.4265
342.0594
345.5511
348.9309
352.2321
355.4971
358.7391
361.855
364.7947
367.5095
369.9169
372.0744
374.007
375.7089
377.1412
378.23
378.8837
379.0413
378.7462
378.2334
377.9725
379.0082
382.0275
300.1314
300.3809
300.7248
301.1471
301.6347
302.177
302.7657
303.3939
304.0561
304.7478
305.4656
306.2069
306.9712
307.8084
308.7422
309.798
311.0097
312.4166
314.0777
316.0651
318.4044
321.1487
324.3155
327.868
331.732
335.8749
340.462
345.977
353.238
363.8069
300.0029
300.0112
300.0263
300.0494
300.0814
300.1229
300.1743
300.2359
300.3078
300.3901
300.4829
300.5861
300.6997
300.8248
300.963
301.116
301.2865
301.4775
301.6932
301.9474
302.3238
302.8747
303.6626
304.7534
306.2355
308.3342
312.091
319.0281
329.7552
344.7078
300.0001
300.0003
300.001
300.0021
300.0041
300.0071
300.0114
300.0172
300.0249
300.0348
300.0471
300.0621
300.0802
300.1016
300.1269
300.1564
300.1909
300.2312
300.2783
300.3342
300.4047
300.5
300.6404
300.8673
301.2738
302.1358
304.6638
313.5631
325.105
336.3931
306.0192
311.7353
316.9844
321.8371
326.3543
330.5867
334.5758
338.3554
341.9529
345.3916
348.691
351.8676
354.9335
357.8879
360.6979
363.3186
365.6935
367.7511
369.4163
370.5791
371.0846
370.7495
369.4195
367.0693
363.9142
360.4661
357.4814
355.9678
357.9368
361.275
300.1314
300.3807
300.7242
301.1457
301.6321
302.1727
302.7589
303.3834
304.0401
304.7238
305.4297
306.1534
306.8903
307.6361
308.3843
309.1268
309.8527
310.5468
311.1892
311.7531
312.2042
312.5064
312.643
312.6571
312.7039
313.0697
314.1796
316.5435
321.4605
331.8541
300.0029
300.0112
300.0262
300.0493
300.0812
300.1225
300.1737
300.2349
300.3063
300.3878
300.4794
300.5808
300.6918
300.8117
300.94
301.0756
301.2167
301.3609
301.505
301.6452
301.782
301.9276
302.1289
302.5069
303.2844
304.7482
307.2298
310.9557
316.1623
323.5069
300.0001
300.0003
300.001
300.0021
300.0041
300.0071
300.0113
300.0172
300.0248
300.0346
300.0467
300.0615
300.0793
300.1003
300.1248
300.153
300.1853
300.2223
300.2652
300.3185
300.398
300.558
300.9502
301.8749
303.7223
306.7779
311.1969
316.6287
322.3028
327.6696
306.0185
311.7295
316.9678
321.8033
326.295
330.49
334.4248
338.1247
341.6058
344.8747
347.928
350.7504
353.3125
355.5657
357.4426
358.858
359.7161
359.9199
359.3817
358.0444
355.9153
353.1058
349.8436
346.4294
343.161
340.2892
338.124
337.0187
337.6913
340.4825
300.1314
300.3804
300.7228
301.1424
301.6257
302.1615
302.7405
303.3544
303.9953
304.6555
305.3263
305.9979
306.658
307.2916
307.8811
308.4049
308.8382
309.1553
309.3329
309.3583
309.2437
309.0425
308.8518
308.7866
308.9466
309.416
310.2981
311.7463
314.0997
317.619
300.0029
300.0112
300.0262
300.0491
300.0808
300.1217
300.1723
300.2327
300.3028
300.3825
300.4714
300.5688
300.6736
300.7845
300.8995
301.0161
301.131
301.24
301.3408
301.4471
301.6049
301.9181
302.532
303.5592
305.0314
306.9463
309.347
312.4174
316.3328
320.6499
300.0001
300.0003
300.001
300.0021
300.0041
300.007
300.0112
300.017
300.0245
300.0341
300.0461
300.0607
300.0781
300.0987
300.1228
300.1512
300.1866
300.2384
300.3393
300.5848
301.1914
302.5022
304.83
308.2047
312.3072
316.6874
321.0281
325.205
329.2913
333.2004
306.0184
311.7195
316.9494
321.7799
326.2692
330.4623
334.3925
338.0805
341.5359
344.765
347.7591
350.4973
352.9439
355.0449
356.7418
357.9762
358.7019
358.9004
358.5907
357.8384
356.7451
355.4165
353.9311
352.3385
350.6902
349.0837
347.7308
346.9906
347.6836
349.3689
300.1313
300.3797
300.7213
301.1405
301.6242
302.1617
302.7437
303.3621
304.0094
304.6791
305.3635
306.052
306.729
307.3703
307.9685
308.5087
308.9763
309.3633
309.674
309.9314
310.1754
310.4462
310.7652
311.1384
311.5765
312.1143
312.8179
313.7597
315.0369
318.121
300.0029
300.0111
300.0261
300.049
300.0808
300.122
300.1732
300.2346
300.3064
300.3887
300.4815
300.5847
300.6985
300.8258
300.9731
301.1524
301.3817
301.6854
302.1
302.6866
303.534
304.6947
306.1392
307.8036
309.6768
311.8522
314.5445
317.8375
322.0822
327.1344
300.0001
300.0003
300.001
300.0021
300.0041
300.0071
300.0114
300.0173
300.0251
300.0353
300.0481
300.0641
300.0839
300.1086
300.141
300.1895
300.2837
300.5103
301.0757
302.3233
304.581
307.8931
311.9414
316.2578
320.4648
324.3578
327.8887
331.1244
334.3075
337.6091
306.0197
311.7844
317.1299
322.1236
326.8253
331.2865
335.5522
339.6593
343.6011
347.3316
350.855
354.1691
357.2643
360.1206
362.7098
364.9909
366.9129
368.4213
369.4631
370.0037
370.041
369.6114
368.7829
367.6448
366.3018
364.8822
363.5669
362.6056
362.4546
363.2982
300.1315
300.3845
300.7386
301.181
301.701
302.2905
302.9429
303.6541
304.4611
305.4333
306.6013
308.016
309.7482
311.8526
314.3966
317.4297
320.939
324.8104
328.82
332.6787
336.1103
338.9203
341.0273
342.4613
343.3519
343.9226
344.524
345.6616
348.4403
352.4678
300.0029
300.0114
300.0271
300.0518
300.0868
300.1334
300.1927
300.2657
300.3545
300.4625
300.5942
300.7558
300.972
301.3468
301.9958
303.0911
304.8456
307.4569
310.9811
315.2495
319.9041
324.524
328.7517
332.3614
335.2756
337.5541
339.3863
341.105
343.3831
346.696
300.0001
300.0003
300.001
300.0023
300.0045
300.008
300.0132
300.0206
300.0307
300.0443
300.0624
300.0862
300.1181
300.1649
300.2409
300.4079
300.8408
301.8697
303.9187
307.1825
311.3961
316.0349
320.6188
324.8303
328.5094
331.6247
334.2553
336.5965
339.0795
342.0447
)
;

boundaryField
{
    maxY
    {
        type            zeroGradient;
    }
    minX
    {
        type            fixedValue;
        value           uniform 300;
    }
    maxX
    {
        type            inletOutlet;
        inletValue      uniform 300;
        value           nonuniform List<scalar> 
40
(
363.2559
352.4235
346.6525
342
349.3311
318.0952
327.088
337.5586
340.4521
317.6057
320.61
333.1335
361.2743
331.8668
323.5148
327.6187
382.0075
363.8168
344.7457
336.43
381.9987
363.788
344.6951
336.3641
361.2544
331.8394
323.4952
327.6499
340.4647
317.61
320.6423
333.1903
349.3529
318.1169
327.129
337.5984
363.28
352.4554
346.6844
342.0332
)
;
    }
    minZ
    {
        type            zeroGradient;
    }
    maxZ
    {
        type            zeroGradient;
    }
    topAir_to_rightSolid
    {
        type            compressible::turbulentTemperatureRadCoupledMixed;
        refValue        nonuniform List<scalar> 
130
(
452.1459
451.591
450.9191
450.1878
449.4447
448.726
448.0596
447.4659
446.9595
446.5496
446.2434
446.0451
445.9567
452.7701
452.0776
451.2778
450.4401
449.6145
448.8348
448.1247
447.5006
446.9734
446.5501
446.2358
446.0339
445.9463
454.0918
453.0696
451.9891
450.9348
449.9514
449.0602
448.273
447.5963
447.0341
446.588
446.26
446.0503
445.9594
456.1365
454.4546
452.9066
451.5398
450.3518
449.3274
448.4536
447.7205
447.1216
446.652
446.3095
446.0918
445.9973
458.6059
455.7868
453.6677
451.9959
450.6364
449.5116
448.5774
447.8073
447.1857
446.7021
446.3509
446.1281
446.0311
458.6084
455.7891
453.67
451.9982
450.6388
449.5142
448.5801
447.8102
447.1887
446.7051
446.354
446.1312
446.0343
456.1435
454.4613
452.9135
451.5469
450.3592
449.3352
448.4617
447.7291
447.1306
446.6613
446.3186
446.1011
446.007
454.103
453.0808
452.0004
450.9466
449.9637
449.0731
448.2865
447.6106
447.0491
446.6035
446.2756
446.0664
445.9759
452.785
452.0928
451.2935
450.4564
449.6316
448.8527
448.1435
447.5203
446.9941
446.5718
446.2584
446.0574
445.9703
452.1611
451.6072
450.9364
450.2061
449.4639
448.7462
448.0809
447.4883
446.9831
446.5747
446.2701
446.074
445.989
)
;
        refGradient     nonuniform List<scalar> 
130
(
-6772.341
-6772.341
-6772.341
-6772.341
-6325.298
-6325.298
-6325.298
-6325.298
-5957.166
-5957.166
-5957.166
-5957.166
-5971.403
-6772.341
-6772.341
-6772.341
-6772.341
-6325.298
-6325.298
-6325.298
-6325.298
-5957.166
-5957.166
-5957.166
-5957.166
-5971.403
-7238.552
-7238.552
-7238.552
-7238.552
-6700.463
-6700.463
-6700.463
-6700.463
-6374.577
-6374.577
-5971.403
-5971.403
-5971.403
-7238.552
-7238.552
-7238.552
-7238.552
-6700.463
-6700.463
-6700.463
-6700.463
-6374.577
-6374.577
-5971.403
-5971.403
-5971.403
-7449.254
-7449.254
-7449.254
-7449.254
-6799.705
-6799.705
-6799.705
-6799.705
-6374.577
-6374.577
-5866.342
-5866.342
-5866.342
-7449.254
-7449.254
-7449.254
-7449.254
-6799.705
-6799.705
-6799.705
-6799.705
-6374.577
-6374.577
-5866.342
-5866.342
-5866.342
-7238.271
-7238.271
-7238.271
-7238.271
-6697.79
-6697.79
-6697.79
-6697.79
-6227.1
-6227.1
-6227.1
-6227.1
-5866.342
-7238.271
-7238.271
-7238.271
-7238.271
-6697.79
-6697.79
-6697.79
-6697.79
-6227.1
-6227.1
-6227.1
-6227.1
-5866.342
-6771.974
-6771.974
-6771.974
-6771.974
-6320.147
-6320.147
-6320.147
-6320.147
-5904.231
-5904.231
-5904.231
-5904.231
-5904.231
-6771.974
-6771.974
-6771.974
-6771.974
-6320.147
-6320.147
-6320.147
-6320.147
-5904.231
-5904.231
-5904.231
-5904.231
-5904.231
)
;
        valueFraction   uniform 0.9996787;
        value           nonuniform List<scalar> 
130
(
452.1102
451.5559
450.8844
450.1533
449.4109
448.6922
448.0257
447.4317
446.9254
446.5153
446.2089
446.0106
445.9225
452.7312
452.0388
451.2391
450.4013
449.5761
448.7962
448.0858
447.4613
446.9343
446.5107
446.1962
445.9946
445.9075
454.0522
453.0302
451.9496
450.895
449.9117
449.0197
448.2316
447.5542
446.9916
446.545
446.2172
446.0078
445.9178
456.0988
454.4179
452.8708
451.5047
450.3176
449.2931
448.4188
447.6849
447.0855
446.6152
446.2728
446.0558
445.9624
458.5678
455.7503
453.6325
451.9618
450.604
449.48
448.5462
447.7765
447.1555
446.6719
446.3214
446.0989
446.003
458.5704
455.7527
453.6348
451.9641
450.6065
449.4825
448.549
447.7793
447.1585
446.6749
446.3245
446.102
446.0062
456.1058
454.4247
452.8777
451.5118
450.325
449.3009
448.427
447.6935
447.0948
446.6246
446.2816
446.0648
445.9722
454.0634
453.0414
451.9609
450.9068
449.924
449.0326
448.2452
447.5684
447.0068
446.5607
446.2325
446.0235
445.9345
452.7462
452.054
451.2548
450.4176
449.5932
448.8141
448.1046
447.481
446.9551
446.5324
446.2189
446.0182
445.9317
452.1255
451.5721
450.9017
450.1716
449.4302
448.7124
448.0469
447.4541
446.9491
446.5404
446.2356
446.0396
445.9548
)
;
        Tnbr            T;
        qrNbr           none;
        qr              qr;
        thermalInertia  false;
        thicknessLayers List<scalar> 0();
        kappaLayers     List<scalar> 0();
        kappaMethod     fluidThermo;
        kappa           none;
        alphaAni        none;
        alpha           none;
    }
    topAir_to_heater
    {
        type            compressible::turbulentTemperatureRadCoupledMixed;
        refValue        nonuniform List<scalar> 
40
(
452.2768
452.6132
452.6912
452.5104
453.0244
453.429
453.5066
453.2573
454.6666
455.2515
455.328
454.8967
457.5071
458.4853
458.5581
457.7293
462.4328
464.0151
464.0729
462.6189
462.4359
464.0183
464.0761
462.6218
457.5157
458.4938
458.566
457.7364
454.6794
455.264
455.3399
454.908
453.0413
453.4454
453.5226
453.2727
452.2943
452.6311
452.7097
452.5295
)
;
        refGradient     nonuniform List<scalar> 
40
(
-6942.568
-6942.568
-6864.364
-6864.364
-7261.53
-7261.53
-7217.494
-7217.494
-7496.342
-7496.342
-7467.358
-7467.358
-7787.676
-7787.676
-7766.21
-7766.21
-8252.48
-8252.48
-8232.62
-8232.62
-8252.721
-8252.721
-8232.806
-8232.806
-7788.289
-7788.289
-7766.611
-7766.611
-7497.207
-7497.207
-7467.947
-7467.947
-7262.656
-7262.656
-7218.298
-7218.298
-6943.711
-6943.711
-6865.344
-6865.344
)
;
        valueFraction   uniform 0.9996787;
        value           nonuniform List<scalar> 
40
(
452.2383
452.5754
452.6542
452.4741
452.9836
453.3886
453.4666
453.2177
454.6251
455.2105
455.2874
454.8565
457.465
458.4439
458.5175
457.6897
462.3889
463.9716
464.0304
462.5777
462.392
463.9749
464.0336
462.5806
457.4737
458.4524
458.5254
457.6968
454.6379
455.2229
455.2993
454.8678
453.0004
453.405
453.4826
453.233
452.2557
452.5933
452.6727
452.4932
)
;
        Tnbr            T;
        qrNbr           none;
        qr              qr;
        thermalInertia  false;
        thicknessLayers List<scalar> 0();
        kappaLayers     List<scalar> 0();
        kappaMethod     fluidThermo;
        kappa           none;
        alphaAni        none;
        alpha           none;
    }
    topAir_to_leftSolid
    {
        type            compressible::turbulentTemperatureRadCoupledMixed;
        refValue        nonuniform List<scalar> 
130
(
444.3565
444.4646
444.7071
445.0755
445.5628
446.1608
446.858
447.6387
448.4816
449.3581
450.2298
451.0476
451.753
444.3432
444.4559
444.7043
445.0818
445.583
446.2017
446.9292
447.7534
448.6569
449.6157
450.5936
451.5395
452.3829
444.3504
444.4672
444.7244
445.1166
445.641
446.2949
447.0749
447.9763
448.9917
450.1092
451.3048
452.533
453.7076
444.3642
444.485
444.7512
445.1588
445.7076
446.3993
447.2372
448.2273
449.3785
450.704
452.216
453.9164
455.7561
444.375
444.4985
444.7703
445.1878
445.7523
446.4689
447.3463
448.3994
449.6539
451.154
452.9747
455.2521
458.2394
444.3771
444.5006
444.7725
445.19
445.7546
446.4713
447.3488
448.4019
449.6565
451.1567
452.9775
455.2549
458.2422
444.3705
444.4915
444.7578
445.1657
445.7147
446.4066
447.2447
448.2349
449.3862
450.7118
452.2242
453.9246
455.7639
444.3606
444.4777
444.7353
445.128
445.6528
446.3071
447.0873
447.9889
449.0045
450.1222
451.318
452.5461
453.7201
444.3564
444.4701
444.7194
445.0976
445.5995
446.2187
446.9466
447.771
448.6747
449.6337
450.6118
451.5576
452.4006
444.3652
444.4795
444.724
445.0935
445.5816
446.1803
446.8779
447.659
448.5021
449.3788
450.2508
451.069
451.775
)
;
        refGradient     nonuniform List<scalar> 
130
(
-6753.737
-6753.737
-6753.737
-6753.737
-6813.471
-6813.471
-6813.471
-6813.471
-6980.938
-6980.938
-6980.938
-6980.938
-7320.793
-6753.737
-6753.737
-6753.737
-6753.737
-6813.471
-6813.471
-6813.471
-6813.471
-6980.938
-6980.938
-6980.938
-6980.938
-7320.793
-6794.538
-6794.538
-6794.538
-6794.538
-6937.264
-6937.264
-6937.264
-6937.264
-7184.939
-7184.939
-7320.793
-7320.793
-7320.793
-6794.538
-6794.538
-6794.538
-6794.538
-6937.264
-6937.264
-6937.264
-6937.264
-7184.939
-7184.939
-7320.793
-7320.793
-7320.793
-6802.013
-6802.013
-6802.013
-6802.013
-6963.85
-6963.85
-6963.85
-6963.85
-7184.939
-7184.939
-7593.125
-7593.125
-7593.125
-6802.013
-6802.013
-6802.013
-6802.013
-6963.85
-6963.85
-6963.85
-6963.85
-7184.939
-7184.939
-7593.125
-7593.125
-7593.125
-6795.208
-6795.208
-6795.208
-6795.208
-6938.023
-6938.023
-6938.023
-6938.023
-7251.401
-7251.401
-7251.401
-7251.401
-7593.125
-6795.208
-6795.208
-6795.208
-6795.208
-6938.023
-6938.023
-6938.023
-6938.023
-7251.401
-7251.401
-7251.401
-7251.401
-7593.125
-6754.863
-6754.863
-6754.863
-6754.863
-6814.884
-6814.884
-6814.884
-6814.884
-7000.5
-7000.5
-7000.5
-7000.5
-7000.5
-6754.863
-6754.863
-6754.863
-6754.863
-6814.884
-6814.884
-6814.884
-6814.884
-7000.5
-7000.5
-7000.5
-7000.5
-7000.5
)
;
        valueFraction   uniform 0.9996787;
        value           nonuniform List<scalar> 
130
(
444.3034
444.4133
444.6574
445.0273
445.5159
446.1151
446.8135
447.5953
448.4389
449.3163
450.1889
451.0075
451.7132
444.2901
444.4045
444.6546
445.0335
445.5359
446.1558
446.8843
447.7093
448.6135
449.573
450.5516
451.498
452.3415
444.2973
444.4158
444.6746
445.0683
445.5937
446.2488
447.0298
447.9321
448.948
450.0662
451.2622
452.4909
453.6659
444.311
444.4336
444.7014
445.1105
445.6603
446.3531
447.1921
448.1831
449.3348
450.6609
452.1734
453.8742
455.7143
444.3218
444.4471
444.7205
445.1394
445.705
446.4227
447.3011
448.3551
449.6101
451.1108
452.9315
455.2092
458.1966
444.3239
444.4492
444.7227
445.1417
445.7073
446.4252
447.3036
448.3576
449.6127
451.1135
452.9343
455.212
458.1994
444.3173
444.4401
444.708
445.1173
445.6674
446.3604
447.1996
448.1906
449.3424
450.6687
452.1817
453.8825
455.7218
444.3074
444.4263
444.6855
445.0796
445.6055
446.2609
447.0422
447.9447
448.9606
450.079
451.2755
452.5041
453.6781
444.3032
444.4187
444.6696
445.0493
445.5524
446.1727
446.9016
447.727
448.6313
449.591
450.5697
451.5161
452.3596
444.3121
444.4282
444.6743
445.0453
445.5347
446.1346
446.8334
447.6155
448.4594
449.337
450.2098
451.0288
451.7356
)
;
        Tnbr            T;
        qrNbr           none;
        qr              qr;
        thermalInertia  false;
        thicknessLayers List<scalar> 0();
        kappaLayers     List<scalar> 0();
        kappaMethod     fluidThermo;
        kappa           none;
        alphaAni        none;
        alpha           none;
    }
}


// ************************************************************************* //
