/*--------------------------------*- C++ -*----------------------------------*\
| =========                 |                                                 |
| \\      /  F ield         | OpenFOAM: The Open Source CFD Toolbox           |
|  \\    /   O peration     | Version:  v2006                                 |
|   \\  /    A nd           | Website:  www.openfoam.com                      |
|    \\/     M anipulation  |                                                 |
\*---------------------------------------------------------------------------*/
FoamFile
{
    version     2.0;
    format      ascii;
    class       volScalarField;
    location    "34";
    object      alphat;
}
// * * * * * * * * * * * * * * * * * * * * * * * * * * * * * * * * * * * * * //

dimensions      [1 -1 -1 0 0 0 0];


internalField   nonuniform List<scalar> 
78750
(
1.16528e-05
6.8021e-06
2.06477e-05
0.000103168
9.81635e-05
8.5441e-05
4.82008e-05
1.1981e-05
3.6085e-07
1.20532e-05
8.42112e-06
9.28642e-06
3.6812e-05
7.85746e-05
9.91268e-05
0.000113156
0.000124252
0.000133946
0.0001427
0.000149952
0.000154891
0.000157103
0.00015637
0.00015285
0.00014766
0.000142282
0.000137103
0.00013215
0.000129632
0.000132826
0.000133173
0.000123259
0.000105446
6.52036e-05
2.91558e-06
3.26816e-05
0.000174257
0.000170101
0.000299684
0.000424963
0.000565619
0.00069555
0.000751502
0.000741726
0.000700285
0.000641574
0.000569919
0.000500793
0.000442969
0.000393828
0.000352903
0.000321624
0.00029962
0.000286952
0.000284254
0.0002904
0.000300868
0.000309357
0.000313199
0.00031416
0.000313191
0.00030572
0.000271026
0.000193537
0.00013958
0.000132044
0.000153241
0.0001721
0.000141094
4.71429e-06
6.45539e-06
8.04905e-06
6.81825e-05
0.000126515
0.00016874
0.000195543
0.000215606
0.000231607
0.000245343
0.000257506
0.000268431
0.000278337
0.000285513
0.000291689
0.000296533
0.000297168
0.000303446
0.000325997
0.000361882
0.000409025
0.000469609
0.000537902
0.000584303
0.000578688
0.000536272
0.000491991
0.00044867
0.000373645
0.000243504
0.000135252
9.65628e-05
0.000101669
0.000140661
0.000159293
8.09482e-06
5.75363e-06
6.34364e-05
5.55241e-05
4.66902e-05
4.78437e-05
5.51011e-05
6.51574e-05
7.66313e-05
8.93871e-05
0.000104037
0.000121403
0.000142004
0.000166946
0.000198753
0.000238379
0.000277708
0.000302973
0.00031407
0.000321558
0.000332403
0.000347697
0.000364138
0.000374129
0.000366691
0.000336836
0.000297445
0.000272662
0.000273572
0.000269014
0.000204442
0.000139819
0.000114933
0.000115944
0.000107095
7.22484e-06
1.18873e-05
0.000117679
6.57062e-05
7.84555e-05
0.00011904
0.000136292
0.000132695
0.000126347
0.000122808
0.000123574
0.000128915
0.000139729
0.000154464
0.000173431
0.000204902
0.000258794
0.000344556
0.000455778
0.000523173
0.000530638
0.000539096
0.00053289
0.000515395
0.000495282
0.000455128
0.000390477
0.000330445
0.000310628
0.000339605
0.0003787
0.000355849
0.000295033
0.000243803
0.000161387
1.70842e-05
6.99006e-06
4.14204e-05
5.38858e-05
7.04063e-05
7.85518e-05
8.19621e-05
8.4088e-05
8.6096e-05
8.84744e-05
9.10722e-05
9.34264e-05
9.65054e-05
9.84243e-05
9.8812e-05
0.000103004
0.000115585
0.000140704
0.000186847
0.000271271
0.000404581
0.000540606
0.000555775
0.000545079
0.000474491
0.000413133
0.000372774
0.000340933
0.000289995
0.00024095
0.000230579
0.000268224
0.000325867
0.000328787
0.000179352
1.59169e-05
3.84292e-06
2.72099e-05
3.95658e-05
7.25398e-05
9.81015e-05
0.000103778
0.000103403
0.000100434
9.40812e-05
8.38705e-05
7.10571e-05
5.78845e-05
4.61731e-05
3.79656e-05
3.64194e-05
4.17655e-05
5.16293e-05
6.51254e-05
8.30671e-05
0.00010675
0.000139364
0.000194349
0.000292844
0.000400522
0.000412994
0.000346112
0.000286422
0.000280009
0.000316817
0.000334739
0.000324372
0.00030724
0.000252759
0.000116857
1.25402e-05
5.1485e-06
2.73124e-05
7.31781e-05
0.000125155
0.000130355
0.000121101
0.000116331
0.000117577
0.000123387
0.000133458
0.000148361
0.000166916
0.000182484
0.000184483
0.000171965
0.000155773
0.00014332
0.000132524
0.000119683
0.000107174
9.96634e-05
9.94627e-05
0.000108198
0.000128115
0.000166276
0.000232626
0.000303476
0.00032516
0.000315481
0.000307988
0.00031219
0.000319814
0.000278803
0.00011534
1.16861e-05
1.07253e-05
0.000147831
0.000163853
0.000106291
7.7914e-05
7.47196e-05
8.76983e-05
0.000110637
0.000137714
0.000163772
0.000182678
0.000189366
0.000184952
0.000175169
0.000165035
0.000156126
0.000147197
0.000137799
0.000128579
0.000120877
0.000114971
0.000110014
0.000106814
0.000107695
0.000115745
0.000136638
0.000179126
0.000244767
0.000307951
0.000342781
0.000350165
0.000324037
0.000233402
9.03299e-05
1.08206e-05
8.819e-06
9.01761e-05
0.000103157
6.81165e-05
6.14213e-05
7.45347e-05
0.000103222
0.000146113
0.000193388
0.000227083
0.000241217
0.000241696
0.00023453
0.000221563
0.000204854
0.000188027
0.000170862
0.000152639
0.000134532
0.000117759
0.000103334
9.18891e-05
8.404e-05
8.01226e-05
8.03379e-05
8.54341e-05
9.84903e-05
0.000126767
0.000178651
0.000245673
0.000293806
0.000308596
0.000279308
0.000136453
1.28758e-05
8.73025e-06
6.29835e-05
0.00012713
0.000110962
7.68344e-05
5.10343e-05
4.17399e-05
4.61775e-05
6.33667e-05
9.33976e-05
0.00013286
0.000174665
0.000211058
0.000237235
0.000253151
0.000259985
0.000257273
0.000246028
0.00022796
0.000203503
0.000173223
0.000140778
0.000112042
9.07219e-05
7.72335e-05
7.05114e-05
7.01317e-05
7.7102e-05
9.54974e-05
0.000132789
0.000186662
0.000231255
0.000237023
0.000119853
1.25279e-05
1.00831e-05
7.92496e-05
0.000132975
9.23303e-05
7.71672e-05
7.57924e-05
6.88796e-05
6.29141e-05
6.84652e-05
8.8491e-05
0.000122585
0.000167745
0.000217439
0.000262814
0.000295315
0.000309662
0.000305858
0.000288383
0.000263549
0.000235734
0.000205808
0.000173168
0.00013916
0.000108071
8.41326e-05
6.82268e-05
5.94422e-05
5.69273e-05
6.10505e-05
7.64792e-05
0.00011354
0.000178646
0.000227937
0.000110002
1.19871e-05
9.86546e-06
9.05725e-05
7.97438e-05
3.81732e-05
3.07307e-05
3.7874e-05
5.38062e-05
7.93345e-05
0.000120426
0.000184471
0.00026513
0.000327997
0.000326803
0.000323871
0.00031928
0.000313219
0.00030598
0.000297948
0.000289625
0.000260434
0.000225045
0.000185172
0.000142935
0.000104183
7.60042e-05
5.96212e-05
5.209e-05
5.13558e-05
5.60466e-05
6.39387e-05
8.0482e-05
0.000122726
0.000192609
0.00011457
1.18255e-05
9.4915e-06
7.73075e-05
8.525e-05
5.77529e-05
5.44279e-05
5.8582e-05
6.14028e-05
6.56196e-05
7.4619e-05
8.94199e-05
0.000108587
0.0001296
0.000150012
0.000168905
0.000186434
0.000202468
0.000216344
0.000227298
0.000234495
0.000236353
0.000229975
0.000212456
0.000182063
0.000139372
9.30404e-05
5.82155e-05
3.93508e-05
3.19594e-05
3.30758e-05
4.28466e-05
6.43824e-05
0.000107228
0.000163054
7.66542e-05
1.03608e-05
8.6524e-06
5.85275e-05
0.000102477
6.92808e-05
4.69347e-05
3.85904e-05
3.89278e-05
4.53293e-05
5.60966e-05
7.14623e-05
9.24966e-05
0.000118446
0.000144849
0.000165883
0.000179883
0.000189656
0.000197445
0.000203017
0.000205252
0.000203055
0.000195263
0.000180813
0.000159025
0.000130003
9.60204e-05
6.34948e-05
4.0275e-05
2.86755e-05
2.68003e-05
3.52146e-05
6.30626e-05
0.000117479
0.000126927
4.90356e-05
8.31711e-06
8.72955e-06
4.94626e-05
0.000128874
0.000155619
0.000139762
9.32966e-05
5.67909e-05
3.95405e-05
3.16633e-05
2.87207e-05
2.98406e-05
3.54031e-05
4.66176e-05
6.48278e-05
8.88801e-05
0.000112105
0.000128135
0.000137899
0.000143886
0.00014631
0.000144595
0.000138444
0.000127931
0.0001144
0.000101244
9.12643e-05
8.01546e-05
5.82543e-05
3.60392e-05
2.82291e-05
3.42988e-05
5.95739e-05
0.000116038
6.44328e-05
7.85129e-06
8.38835e-06
5.29257e-05
0.000179245
0.000242831
0.000252451
0.00024441
0.000208154
0.00014782
9.49676e-05
6.27348e-05
4.41342e-05
3.31924e-05
2.75384e-05
2.68504e-05
3.24297e-05
4.72278e-05
7.37173e-05
0.000106125
0.000131732
0.000146609
0.000152739
0.000151417
0.000143622
0.000133052
0.000128179
0.000131969
0.000127274
9.08747e-05
5.49578e-05
3.71279e-05
2.53117e-05
2.58025e-05
4.82943e-05
9.66975e-05
8.98837e-06
8.38345e-06
4.55077e-05
0.000148243
0.000235063
0.000255026
0.000246051
0.000229196
0.000218714
0.000209506
0.000181893
0.000133867
8.96841e-05
5.90711e-05
3.89548e-05
2.6226e-05
2.00807e-05
2.21719e-05
3.66916e-05
6.72609e-05
0.000107283
0.000143152
0.000166145
0.000174643
0.000171961
0.000148753
9.00019e-05
5.35106e-05
4.66286e-05
4.8172e-05
4.00427e-05
2.46426e-05
2.62425e-05
5.5488e-05
8.74836e-05
8.85253e-06
9.05314e-06
4.79425e-05
0.000134032
0.000191925
0.000204705
0.000199031
0.000182509
0.000161569
0.000145229
0.000140878
0.000151753
0.000174699
0.000187324
0.000148434
8.55319e-05
4.35142e-05
2.23706e-05
1.62002e-05
2.623e-05
6.20285e-05
0.000114416
0.000149151
0.000161495
0.000137029
4.8135e-05
2.25373e-05
2.86126e-05
5.03692e-05
6.69873e-05
5.46625e-05
4.2264e-05
5.25646e-05
0.000105243
4.7522e-05
7.3563e-06
1.01533e-05
5.15888e-05
0.000149568
0.00021544
0.000230486
0.000224841
0.000205166
0.000174528
0.000138371
0.000106213
8.53265e-05
7.83801e-05
8.84932e-05
0.000123009
0.000178929
0.000166544
6.53682e-05
2.42542e-05
1.3486e-05
2.21008e-05
5.78321e-05
9.39203e-05
9.9562e-05
7.5447e-05
3.55845e-05
2.14026e-05
2.76196e-05
5.08776e-05
7.66141e-05
7.81296e-05
7.62253e-05
9.22891e-05
0.000100196
2.94072e-05
5.79028e-06
1.09698e-05
6.07429e-05
0.00018097
0.000232329
0.000229466
0.000209568
0.000183933
0.000161813
0.000147216
0.000138428
0.000127894
0.000107847
8.69746e-05
8.09731e-05
9.74773e-05
0.000135281
0.000136712
5.71342e-05
2.18017e-05
1.41632e-05
2.61228e-05
5.59835e-05
7.91327e-05
7.9505e-05
5.89079e-05
3.88372e-05
3.36845e-05
3.97968e-05
5.17339e-05
6.47128e-05
7.74475e-05
8.85748e-05
7.28019e-05
2.29417e-05
4.89056e-06
1.16544e-05
6.14272e-05
0.000174841
0.00020204
0.000186286
0.00015758
0.000124987
9.65213e-05
7.59141e-05
6.58762e-05
6.86693e-05
8.40465e-05
0.000102671
0.000106319
0.000101219
0.000104445
0.000104895
6.96736e-05
3.36184e-05
1.96666e-05
2.4127e-05
5.26577e-05
9.21718e-05
0.000102295
8.9585e-05
6.76146e-05
5.12887e-05
4.41856e-05
4.36358e-05
4.89952e-05
6.07826e-05
7.30308e-05
6.05811e-05
1.99799e-05
4.77971e-06
1.17277e-05
7.41353e-05
0.000211025
0.000209299
0.000170948
0.000127295
9.60233e-05
7.88327e-05
6.95246e-05
6.29905e-05
6.08439e-05
6.78328e-05
8.55785e-05
0.000109176
0.000125191
0.000118649
8.42897e-05
4.37178e-05
2.15583e-05
1.49773e-05
3.08e-05
7.59488e-05
0.00011904
0.000136202
0.000128802
0.000107451
8.4492e-05
6.76483e-05
5.87809e-05
5.78865e-05
6.40052e-05
7.13158e-05
6.00766e-05
2.03827e-05
4.84703e-06
1.11299e-05
8.0972e-05
0.000202599
0.0001651
0.000106358
6.35269e-05
4.20838e-05
3.57845e-05
4.07797e-05
5.17644e-05
6.10396e-05
6.77111e-05
7.12925e-05
6.2344e-05
4.24849e-05
2.80752e-05
2.63574e-05
4.20175e-05
5.92439e-05
7.15249e-05
9.68746e-05
0.000119241
0.000133397
0.000140085
0.000138666
0.000129616
0.000115626
0.000100716
8.84113e-05
8.08164e-05
7.90775e-05
8.37305e-05
8.13792e-05
2.84421e-05
5.05602e-06
1.03446e-05
7.56227e-05
0.000139699
0.000110751
7.02141e-05
4.17216e-05
2.74022e-05
2.48959e-05
3.15123e-05
3.41115e-05
3.05196e-05
3.27818e-05
4.62336e-05
6.53607e-05
7.33301e-05
7.01663e-05
7.1846e-05
8.19341e-05
9.06172e-05
9.57373e-05
0.000103401
0.00011137
0.000117892
0.000122347
0.000123813
0.000121738
0.000116509
0.000109194
0.000101092
9.40993e-05
9.24083e-05
0.00010249
0.000112949
3.81378e-05
4.99481e-06
1.05744e-05
7.67532e-05
0.000167008
0.00015331
0.000113568
7.66687e-05
5.21441e-05
3.83667e-05
3.27784e-05
3.29508e-05
3.27592e-05
2.94047e-05
2.79361e-05
3.10137e-05
3.83821e-05
4.76815e-05
5.89279e-05
7.58866e-05
0.000100357
0.000128443
0.000150972
0.000160563
0.000158732
0.00015215
0.000144787
0.000136328
0.000125262
0.000111803
9.86625e-05
9.03625e-05
9.25027e-05
0.000109376
0.000119088
3.62054e-05
4.25654e-06
1.03416e-05
6.26237e-05
0.00019066
0.000233834
0.00022929
0.000202988
0.000158437
0.000112455
7.94685e-05
5.88413e-05
4.57911e-05
3.59811e-05
2.69774e-05
1.9903e-05
1.73015e-05
1.98492e-05
2.51011e-05
3.18542e-05
4.12558e-05
5.52318e-05
7.63304e-05
0.000107373
0.000145765
0.000174731
0.000181946
0.000172817
0.000156057
0.000136847
0.000118853
0.000106807
0.000106298
0.000118791
0.000120051
3.66474e-05
3.86621e-06
1.05304e-05
5.81102e-05
0.000181356
0.000214198
0.000184353
0.00013898
0.000106814
9.59592e-05
0.000102037
0.00011261
0.000108941
8.82702e-05
6.30743e-05
4.22166e-05
2.82551e-05
2.12511e-05
2.18695e-05
2.87018e-05
3.47878e-05
3.88414e-05
4.33326e-05
5.00316e-05
6.10457e-05
8.05123e-05
0.000109501
0.000135766
0.000146401
0.000142695
0.000131069
0.000119317
0.000114444
0.000118431
0.00011814
4.4694e-05
4.51693e-06
1.10154e-05
6.58881e-05
0.00019759
0.000227257
0.000208089
0.000164912
0.000120261
9.06341e-05
7.56182e-05
7.24135e-05
8.0829e-05
9.8201e-05
0.000106609
8.4948e-05
5.29179e-05
3.18912e-05
2.23537e-05
2.22382e-05
3.05629e-05
4.03519e-05
4.38461e-05
4.25915e-05
4.05373e-05
4.17582e-05
5.15628e-05
7.12178e-05
9.20423e-05
0.00010378
0.000105659
0.000102456
0.000100827
0.000105346
0.000110158
4.83601e-05
5.54587e-06
1.12636e-05
7.18491e-05
0.000209935
0.000225323
0.000189743
0.000140267
0.000108527
9.91462e-05
0.000103037
0.000107117
0.000103617
9.90013e-05
0.000100222
0.000101349
8.48864e-05
5.39013e-05
3.1514e-05
2.21345e-05
2.39527e-05
3.50733e-05
4.43975e-05
4.41812e-05
3.58796e-05
2.60565e-05
2.55805e-05
3.77763e-05
6.29254e-05
8.79612e-05
9.76044e-05
9.65237e-05
9.65684e-05
0.000104336
0.000111342
4.01247e-05
5.79315e-06
1.13558e-05
7.72131e-05
0.000212801
0.000217185
0.000178542
0.000128953
9.65685e-05
8.51285e-05
8.97158e-05
0.00010532
0.000122886
0.000130943
0.000128925
0.000124248
0.000114237
8.79365e-05
5.37107e-05
3.12193e-05
2.29105e-05
2.83575e-05
4.32673e-05
4.47798e-05
3.03815e-05
1.9566e-05
1.97009e-05
3.17217e-05
6.46261e-05
0.000111806
0.000125718
0.000118799
0.000113729
0.000116814
0.000105688
2.92071e-05
5.0424e-06
1.12189e-05
7.95259e-05
0.000203428
0.000206004
0.000174688
0.000133609
0.000103872
9.07237e-05
9.12143e-05
0.000102224
0.00012022
0.000138889
0.000150383
0.000151212
0.000142251
0.000121019
8.62475e-05
5.1823e-05
3.11503e-05
2.41293e-05
2.92633e-05
3.59823e-05
2.88819e-05
2.04231e-05
1.93353e-05
2.6393e-05
4.53841e-05
8.23122e-05
0.000122969
0.00013718
0.000134295
0.000125828
9.06576e-05
2.57781e-05
4.45791e-06
1.10445e-05
7.75214e-05
0.000201664
0.000212412
0.000192851
0.000158403
0.00012236
9.74111e-05
8.68998e-05
8.85732e-05
9.94109e-05
0.000116112
0.000134514
0.000149878
0.000157413
0.00015178
0.000127788
8.91597e-05
5.36344e-05
3.28584e-05
2.53217e-05
2.77227e-05
3.13677e-05
2.73603e-05
2.25282e-05
2.291e-05
2.90775e-05
4.08622e-05
5.90901e-05
8.57211e-05
0.000111167
0.00011405
8.69651e-05
2.93253e-05
4.77716e-06
1.07718e-05
7.14587e-05
0.00020079
0.000221983
0.000209447
0.000183226
0.000149424
0.000116276
9.34657e-05
8.41204e-05
8.67507e-05
9.89215e-05
0.00011719
0.000136855
0.000153647
0.000164601
0.000165535
0.000148754
0.00011164
7.05756e-05
4.37394e-05
3.174e-05
2.94611e-05
3.16542e-05
3.1804e-05
2.92482e-05
2.79468e-05
2.95754e-05
3.38963e-05
4.16955e-05
5.71426e-05
8.17813e-05
9.35416e-05
3.91761e-05
6.01129e-06
1.08574e-05
7.04808e-05
0.000202968
0.000224232
0.000208366
0.000183381
0.000159215
0.00013574
0.000111468
9.18595e-05
8.27426e-05
8.53247e-05
9.86901e-05
0.000120613
0.000146617
0.000170776
0.000187721
0.000192193
0.000177161
0.000139605
9.38262e-05
6.09508e-05
4.49334e-05
4.0411e-05
4.15172e-05
4.26177e-05
4.11356e-05
3.83064e-05
3.47458e-05
2.86661e-05
2.56972e-05
3.4028e-05
6.2097e-05
4.91482e-05
7.62844e-06
1.07756e-05
6.66749e-05
0.00020103
0.000222962
0.000200963
0.000171777
0.000151695
0.000141031
0.000130593
0.000113796
9.65492e-05
8.80742e-05
9.15141e-05
0.00010641
0.000130808
0.000160964
0.00019097
0.00021268
0.000216189
0.000193498
0.00014857
0.000101628
7.03384e-05
5.60829e-05
5.35291e-05
5.57686e-05
5.5026e-05
4.53597e-05
3.07249e-05
1.97444e-05
1.72757e-05
2.72165e-05
6.3435e-05
4.38767e-05
7.6448e-06
1.11001e-05
6.8546e-05
0.000204039
0.00021677
0.000181637
0.000145068
0.000126764
0.000124609
0.000128902
0.000127733
0.000116103
0.000103191
9.97219e-05
0.000109331
0.000131464
0.000163271
0.000199432
0.000231711
0.000248944
0.000239856
0.000201889
0.000149605
0.000105546
7.99601e-05
7.00631e-05
6.71746e-05
5.72841e-05
3.39088e-05
1.91984e-05
1.62457e-05
2.06085e-05
3.89905e-05
9.03872e-05
3.37408e-05
7.04707e-06
1.12694e-05
6.96058e-05
0.00020388
0.00020044
0.000152754
0.000117703
0.000106958
0.00011277
0.000125654
0.000134362
0.000130698
0.000119174
0.000112334
0.00011794
0.000137408
0.000168056
0.000203442
0.000233626
0.000247357
0.000236822
0.000203621
0.000160159
0.000121705
9.6333e-05
8.2764e-05
7.15555e-05
4.98605e-05
2.52118e-05
1.5376e-05
1.76309e-05
3.06621e-05
6.36333e-05
9.56222e-05
2.72964e-05
6.39429e-06
1.1589e-05
7.66324e-05
0.00020575
0.000175171
0.000120544
9.55217e-05
9.55587e-05
0.000109966
0.000128882
0.000141787
0.000142629
0.000135444
0.000130646
0.000136101
0.000153801
0.00018041
0.000208481
0.000228626
0.000232489
0.000216581
0.000185708
0.000150891
0.000121984
0.000102744
9.02099e-05
7.46803e-05
4.84244e-05
2.44039e-05
1.50983e-05
1.83907e-05
3.73044e-05
7.91593e-05
8.27612e-05
2.46118e-05
6.07463e-06
1.14722e-05
8.01278e-05
0.000192236
0.000140613
9.39615e-05
8.11903e-05
9.07094e-05
0.000112228
0.000133792
0.000145084
0.000144557
0.000139312
0.000138418
0.000147107
0.000164892
0.000185332
0.000198812
0.000199105
0.000187512
0.000170089
0.000152251
0.000136548
0.000123621
0.000112871
0.000101038
8.18823e-05
5.38582e-05
2.90291e-05
1.75261e-05
1.87985e-05
3.69835e-05
7.90541e-05
7.46926e-05
2.33343e-05
5.69101e-06
1.12441e-05
7.90429e-05
0.000176257
0.00013031
9.06802e-05
7.95838e-05
8.79492e-05
0.000107367
0.000128297
0.000141642
0.000144542
0.00014168
0.000140604
0.000146287
0.000158522
0.000171852
0.000178836
0.000176132
0.000166734
0.000155774
0.000146222
0.000138378
0.000131313
0.000123546
0.000112311
9.34769e-05
6.60134e-05
3.87707e-05
2.27034e-05
1.95514e-05
3.16077e-05
7.03542e-05
7.60435e-05
2.32218e-05
5.35165e-06
1.06911e-05
6.90404e-05
0.000166658
0.000143029
0.000102339
7.83787e-05
7.31795e-05
8.1416e-05
9.83344e-05
0.000117719
0.000133187
0.000142587
0.000148687
0.000155429
0.000163955
0.000171085
0.000171922
0.000165292
0.000155336
0.000147121
0.000142537
0.00014018
0.000137256
0.000131178
0.000119917
0.000101726
7.65844e-05
4.98397e-05
3.0635e-05
2.35051e-05
3.11463e-05
6.56307e-05
8.06917e-05
2.32025e-05
4.91866e-06
1.04745e-05
6.26912e-05
0.000165872
0.000171651
0.000139647
9.68271e-05
7.19337e-05
6.5739e-05
7.24258e-05
8.81671e-05
0.000108339
0.000127163
0.000141814
0.000153736
0.000164954
0.000174433
0.000178211
0.000173605
0.000163197
0.000152894
0.000146691
0.000144459
0.000143017
0.000138426
0.000127839
0.000109968
8.55763e-05
5.9226e-05
3.85536e-05
2.88217e-05
3.34299e-05
6.36862e-05
9.01063e-05
2.41622e-05
4.659e-06
1.0211e-05
5.85214e-05
0.00016996
0.000187722
0.000163712
0.000123772
8.72618e-05
6.61139e-05
5.9492e-05
6.46367e-05
8.07401e-05
0.000106126
0.000135185
0.000161149
0.000180976
0.000194059
0.000198703
0.000192938
0.000178774
0.000162883
0.000151609
0.000146766
0.000145399
0.000142187
0.000132609
0.000114782
9.01459e-05
6.41588e-05
4.41649e-05
3.46741e-05
3.93413e-05
6.88494e-05
9.52187e-05
2.46966e-05
4.46333e-06
1.0547e-05
6.07647e-05
0.000185817
0.000202235
0.000170591
0.000139883
0.000118135
9.47685e-05
7.29123e-05
6.1896e-05
6.37291e-05
7.83629e-05
0.000104928
0.000139274
0.000174601
0.000204845
0.000225151
0.000230871
0.000220137
0.000198173
0.000175298
0.000159054
0.000150132
0.000143958
0.000134368
0.000117249
9.28249e-05
6.66704e-05
4.68832e-05
3.8104e-05
4.34864e-05
7.18761e-05
9.6453e-05
2.50662e-05
4.41301e-06
1.09331e-05
6.26667e-05
0.000186723
0.000182251
0.000131122
0.000102025
0.000100269
0.00011014
0.000105383
8.32089e-05
6.88985e-05
7.13481e-05
9.09573e-05
0.000126995
0.000174492
0.000223206
0.000261151
0.000278479
0.000271097
0.000243863
0.000209061
0.000178925
0.000158845
0.000146592
0.000135458
0.000118907
9.50301e-05
6.87734e-05
4.88427e-05
4.04429e-05
4.65892e-05
7.42936e-05
9.36465e-05
2.4664e-05
4.38877e-06
1.1649e-05
7.21449e-05
0.000188672
0.000155752
0.000103286
8.17241e-05
8.50425e-05
0.000104181
0.000121999
0.000113395
8.98096e-05
7.94366e-05
8.93246e-05
0.000119399
0.000167462
0.000226215
0.000281614
0.000315987
0.000318056
0.000291147
0.000248964
0.000206287
0.000172543
0.000149482
0.000132676
0.000115301
9.32411e-05
6.90836e-05
5.02966e-05
4.23762e-05
4.88421e-05
7.56828e-05
9.15645e-05
2.43014e-05
4.36598e-06
1.16541e-05
8.30287e-05
0.00017254
0.00011403
7.7681e-05
7.17932e-05
8.45487e-05
0.00010767
0.000127415
0.000128145
0.000112695
0.000101371
0.000107599
0.000134765
0.000179854
0.000233778
0.000282657
0.000312692
0.000317106
0.000297785
0.000262019
0.000220034
0.000181777
0.000152393
0.000130664
0.000111443
9.04011e-05
6.8531e-05
5.15989e-05
4.47262e-05
5.19784e-05
7.88124e-05
9.14936e-05
2.43008e-05
4.32001e-06
1.11722e-05
8.21161e-05
0.000153462
9.95101e-05
7.31454e-05
7.26616e-05
8.68996e-05
0.000106134
0.00011993
0.000122993
0.000119365
0.000118333
0.00012797
0.000151844
0.000187357
0.000226862
0.000261528
0.000284403
0.000291467
0.000281591
0.000256736
0.000222222
0.000185674
0.000153681
0.00012838
0.000107382
8.71966e-05
6.76746e-05
5.29005e-05
4.74659e-05
5.59432e-05
8.34339e-05
9.3768e-05
2.47684e-05
4.24375e-06
1.03592e-05
6.47847e-05
0.00015362
0.000121748
8.06035e-05
6.21813e-05
6.23137e-05
7.53899e-05
9.55806e-05
0.00011435
0.000127185
0.000137314
0.00015072
0.000171276
0.000198754
0.000229161
0.000256825
0.000276547
0.000284564
0.000278816
0.000259373
0.000229142
0.000193875
0.000160017
0.00013139
0.000107771
8.68869e-05
6.81916e-05
5.46076e-05
5.02877e-05
6.00591e-05
8.85505e-05
9.74837e-05
2.56379e-05
4.18475e-06
1.01713e-05
5.48312e-05
0.000145085
0.000149937
0.000108215
6.47465e-05
4.70333e-05
4.71807e-05
6.04229e-05
8.46134e-05
0.000113669
0.000140449
0.000164188
0.000188542
0.000215952
0.000245333
0.000272697
0.000292999
0.00030204
0.000297472
0.000278924
0.00024863
0.000211515
0.000173901
0.00014071
0.000113331
9.04364e-05
7.11552e-05
5.75042e-05
5.33519e-05
6.37141e-05
9.27849e-05
0.00010145
2.66567e-05
4.16569e-06
1.02945e-05
5.34609e-05
0.000151677
0.000165391
0.000133227
9.08854e-05
5.88194e-05
4.3569e-05
4.31506e-05
5.68979e-05
8.56242e-05
0.0001255
0.000167776
0.0002073
0.00024446
0.000280033
0.000311735
0.000334426
0.000343222
0.000336198
0.000314277
0.000280044
0.000237984
0.000194361
0.000154962
0.000122494
9.64242e-05
7.56248e-05
6.12691e-05
5.68374e-05
6.73892e-05
9.66545e-05
0.000105239
2.76407e-05
4.21226e-06
1.08165e-05
5.6237e-05
0.000161797
0.000158261
0.000111859
8.47811e-05
7.44648e-05
6.07309e-05
4.76971e-05
4.8003e-05
6.53905e-05
0.000101952
0.000155043
0.000215909
0.000277275
0.000334802
0.000366422
0.000364685
0.000361937
0.000358283
0.000353823
0.000316135
0.000265464
0.000214551
0.000168741
0.000131228
0.000102109
8.00171e-05
6.52583e-05
6.08087e-05
7.17373e-05
0.000101123
0.000108606
2.82968e-05
4.28044e-06
1.11894e-05
5.81644e-05
0.000156418
0.000136048
8.05415e-05
5.64947e-05
5.78236e-05
6.80431e-05
6.56286e-05
5.90213e-05
6.75599e-05
9.82846e-05
0.000153532
0.000231614
0.000320724
0.000366648
0.000366675
0.000365598
0.000363451
0.000360318
0.000356312
0.000341567
0.000286583
0.000227627
0.000175884
0.000134782
0.000104071
8.20138e-05
6.81969e-05
6.50162e-05
7.74712e-05
0.000107323
0.000111321
2.85376e-05
4.34101e-06
1.13283e-05
6.35059e-05
0.000156533
0.000115981
6.51548e-05
4.61034e-05
4.82175e-05
6.24222e-05
7.47189e-05
7.74644e-05
8.58885e-05
0.000114777
0.000169978
0.000247066
0.000325365
0.000367648
0.000367529
0.000366494
0.000364508
0.000361607
0.000357889
0.000336078
0.000284826
0.000226446
0.000173358
0.000131483
0.000101444
8.12656e-05
6.9923e-05
6.93999e-05
8.45545e-05
0.00011468
0.000112295
2.82284e-05
4.32889e-06
1.11463e-05
6.91428e-05
0.000155045
0.000101817
5.77824e-05
4.3666e-05
4.75691e-05
6.2906e-05
8.06084e-05
9.40637e-05
0.00010957
0.000138207
0.000184719
0.000243207
0.000300038
0.00034108
0.000360959
0.00036592
0.000364867
0.000359768
0.000345008
0.0003145
0.000268761
0.000215151
0.000164081
0.00012358
9.5753e-05
7.87428e-05
7.10623e-05
7.43458e-05
9.29418e-05
0.0001223
0.000111566
2.76657e-05
4.2569e-06
1.09727e-05
6.75435e-05
0.000156639
0.000110381
6.05479e-05
4.11849e-05
4.13613e-05
5.51246e-05
7.69208e-05
9.9865e-05
0.000123664
0.000154088
0.000195254
0.000244643
0.000293449
0.000331402
0.000353323
0.000361474
0.000360777
0.000352838
0.000334881
0.000303489
0.000258836
0.000206505
0.000156222
0.000116675
9.06889e-05
7.65281e-05
7.24412e-05
7.97034e-05
0.000101469
0.000128644
0.000109604
2.70678e-05
4.14227e-06
1.09884e-05
6.5703e-05
0.000156435
0.000125091
7.07945e-05
4.22536e-05
3.58146e-05
4.448e-05
6.56077e-05
9.46566e-05
0.000127195
0.000163802
0.000207371
0.000257622
0.000308839
0.000351297
0.000371175
0.000369862
0.000367723
0.00036481
0.000344007
0.000307307
0.000259396
0.00020522
0.000153587
0.000113317
8.77416e-05
7.53156e-05
7.41615e-05
8.50762e-05
0.000109285
0.000133409
0.000107826
2.67676e-05
4.05955e-06
1.11136e-05
6.94918e-05
0.000161907
0.000128073
7.64403e-05
4.68355e-05
3.65193e-05
4.01995e-05
5.69533e-05
8.57462e-05
0.000123424
0.000167388
0.000217723
0.000275099
0.000334424
0.000371412
0.000371334
0.000370357
0.000368474
0.000365747
0.000357546
0.000317907
0.000265951
0.000209486
0.000156177
0.000114211
8.75254e-05
7.52077e-05
7.5585e-05
8.90619e-05
0.000114768
0.000136171
0.000106634
2.67095e-05
4.01896e-06
1.1092e-05
7.33037e-05
0.000164082
0.000124154
7.41873e-05
4.83939e-05
3.93425e-05
4.14647e-05
5.4773e-05
8.0037e-05
0.000116378
0.000162017
0.00021639
0.000278772
0.000339936
0.00037067
0.000371062
0.000370507
0.000368999
0.000366592
0.000361764
0.000322941
0.000271012
0.000214746
0.000161163
0.000117885
8.95333e-05
7.6196e-05
7.67149e-05
9.14119e-05
0.000117978
0.000137939
0.000106772
2.69588e-05
4.04009e-06
1.09675e-05
7.30579e-05
0.000161674
0.000124837
7.51909e-05
4.84708e-05
3.93528e-05
4.13649e-05
5.32815e-05
7.59409e-05
0.000109849
0.000154474
0.00020901
0.000271177
0.000331772
0.000369668
0.0003705
0.000370383
0.000369301
0.000367292
0.000358736
0.000322467
0.000273711
0.000219992
0.000167619
0.000123732
9.36031e-05
7.84884e-05
7.79239e-05
9.24474e-05
0.000119408
0.000139332
0.000107889
2.73081e-05
4.08272e-06
1.08669e-05
7.31973e-05
0.000162769
0.000129929
8.163e-05
5.24331e-05
4.04079e-05
4.00299e-05
4.98173e-05
7.00436e-05
0.000101338
0.000143901
0.000197253
0.000258926
0.000320733
0.000365125
0.00036959
0.000369914
0.00036928
0.000367699
0.000354823
0.000320384
0.000274845
0.000224089
0.0001736
0.000129948
9.86703e-05
8.19374e-05
7.99916e-05
9.37353e-05
0.000120837
0.000141416
0.000110057
2.77895e-05
4.14772e-06
1.0791e-05
7.32385e-05
0.000165826
0.000132034
8.4823e-05
5.65915e-05
4.32401e-05
3.98867e-05
4.62782e-05
6.34437e-05
9.23271e-05
0.000133299
0.000185964
0.000247835
0.00031079
0.00035789
0.000368268
0.000369034
0.000368841
0.000367692
0.000351737
0.000318083
0.000274757
0.000226456
0.000177912
0.000135091
0.000103462
8.57469e-05
8.27885e-05
9.58748e-05
0.000123053
0.000144184
0.000112372
2.81828e-05
4.20244e-06
1.07001e-05
7.09936e-05
0.000165457
0.000129446
8.31522e-05
5.83956e-05
4.67399e-05
4.18032e-05
4.43271e-05
5.6942e-05
8.16948e-05
0.000119759
0.000171161
0.00023349
0.000298659
0.000349942
0.000366553
0.000367753
0.000367989
0.000367264
0.000349049
0.000315323
0.000273063
0.000226363
0.000179541
0.000138105
0.00010717
8.9536e-05
8.64233e-05
9.94359e-05
0.000126679
0.000147695
0.000114688
2.8562e-05
4.25919e-06
1.06112e-05
6.66762e-05
0.00016159
0.000122006
7.62375e-05
5.59646e-05
4.84005e-05
4.45579e-05
4.45798e-05
5.26911e-05
7.25465e-05
0.000106576
0.000155749
0.000218097
0.000285708
0.000341799
0.000364557
0.000366174
0.000366816
0.000366485
0.000346574
0.000312208
0.000270166
0.000224255
0.00017865
0.000138664
0.000109097
9.25523e-05
9.03495e-05
0.000104183
0.000131577
0.000151426
0.000116181
2.87855e-05
4.30503e-06
1.05457e-05
6.09044e-05
0.000153433
0.000110546
6.57198e-05
5.01293e-05
4.78246e-05
4.74472e-05
4.66869e-05
5.06352e-05
6.48936e-05
9.3391e-05
0.000138658
0.000200004
0.000270072
0.000331909
0.0003624
0.000364418
0.000365449
0.000365491
0.000343797
0.000308518
0.00026638
0.000220994
0.000176492
0.000138091
0.000110277
9.53826e-05
9.47033e-05
0.000109782
0.000137042
0.000154874
0.00011715
2.89894e-05
4.36113e-06
1.04879e-05
5.46037e-05
0.00014057
9.91527e-05
5.48683e-05
4.15124e-05
4.31179e-05
4.82754e-05
5.01662e-05
5.17607e-05
6.07524e-05
8.29672e-05
0.000122519
0.000180591
0.000251455
0.000319092
0.000360213
0.000362602
0.000363992
0.000364367
0.000340126
0.000304329
0.000262303
0.000217385
0.000173758
0.00013671
0.000110618
9.7614e-05
9.8864e-05
0.00011546
0.000142307
0.000157611
0.000117389
2.91175e-05
4.42824e-06
1.04878e-05
5.0669e-05
0.000130522
9.79905e-05
5.14119e-05
3.53761e-05
3.63927e-05
4.4866e-05
5.16478e-05
5.37539e-05
5.85958e-05
7.43938e-05
0.000106936
0.000159502
0.000228776
0.000300091
0.000350518
0.000360744
0.000362479
0.000359964
0.000334852
0.000299243
0.000257824
0.000213724
0.000171159
0.00013546
0.000110952
9.97089e-05
0.000102822
0.000120777
0.000146836
0.000159407
0.000116769
2.90872e-05
4.49402e-06
1.05803e-05
5.02998e-05
0.000128625
0.000110017
5.88078e-05
3.41205e-05
3.01928e-05
3.77436e-05
4.90136e-05
5.52231e-05
5.82875e-05
6.82142e-05
9.30372e-05
0.000138167
0.000203491
0.000277169
0.00033616
0.000358797
0.000360884
0.000356093
0.000330267
0.000294917
0.00025419
0.000210916
0.000169267
0.00013464
0.000111393
0.000101602
0.000106271
0.000125228
0.000150323
0.000160504
0.000115913
2.89941e-05
4.57582e-06
1.07981e-05
5.35744e-05
0.000135959
0.000132435
8.15835e-05
4.10036e-05
2.78249e-05
3.03904e-05
4.19089e-05
5.31823e-05
5.79955e-05
6.37302e-05
8.10496e-05
0.000117584
0.000176899
0.000251393
0.000318904
0.000356574
0.000359074
0.000352668
0.000326689
0.000291597
0.000251314
0.00020862
0.000167697
0.000133967
0.000111809
0.000103325
0.000109435
0.000129263
0.000153317
0.000161064
0.00011389
2.85814e-05
4.62209e-06