/*--------------------------------*- C++ -*----------------------------------*\
| =========                 |                                                 |
| \\      /  F ield         | OpenFOAM: The Open Source CFD Toolbox           |
|  \\    /   O peration     | Version:  v2006                                 |
|   \\  /    A nd           | Website:  www.openfoam.com                      |
|    \\/     M anipulation  |                                                 |
\*---------------------------------------------------------------------------*/
FoamFile
{
    version     2.0;
    format      ascii;
    class       volScalarField;
    location    "34";
    object      nut;
}
// * * * * * * * * * * * * * * * * * * * * * * * * * * * * * * * * * * * * * //

dimensions      [0 2 -1 0 0 0 0];


internalField   nonuniform List<scalar> 
78750
(
1.62944e-06
1.78619e-06
1.38097e-05
7.60558e-05
7.26011e-05
6.31916e-05
3.55675e-05
8.82343e-06
2.67413e-07
9.04561e-06
6.41321e-06
7.17983e-06
2.87522e-05
6.14351e-05
7.72462e-05
8.77879e-05
9.59427e-05
0.000102976
0.000109291
0.000114483
0.000117953
0.0001194
0.000118671
0.000115891
0.000111914
0.000107859
0.000104003
0.000100362
9.86189e-05
0.00010131
0.000102001
9.50553e-05
8.23027e-05
5.18888e-05
2.45054e-06
3.59421e-05
0.00018632
0.000164749
0.00027696
0.000381988
0.00049782
0.000603097
0.000644173
0.000630051
0.000590473
0.000537517
0.000474601
0.000414474
0.000364236
0.00032161
0.000286179
0.000259058
0.000239845
0.000228462
0.000225299
0.000229377
0.000237073
0.000243398
0.000246163
0.000246547
0.000245055
0.000238033
0.000209583
0.000148226
0.000105343
9.80003e-05
0.000112498
0.000126339
0.00010505
3.72981e-06
4.16903e-06
5.80332e-06
5.07215e-05
9.60234e-05
0.000129494
0.000151097
0.000167284
0.000180083
0.00019092
0.000200373
0.000208739
0.000216211
0.000221462
0.000225889
0.000229258
0.000229308
0.000233714
0.000250741
0.000278167
0.00031446
0.000361369
0.000414522
0.000451076
0.000447622
0.000415697
0.000382179
0.000349141
0.000291017
0.000189502
0.000104789
7.41485e-05
7.76903e-05
0.000108179
0.000124621
6.64432e-06
3.98255e-06
4.45953e-05
3.93068e-05
3.32272e-05
3.41899e-05
3.95268e-05
4.69133e-05
5.53698e-05
6.48075e-05
7.56751e-05
8.8584e-05
0.000103926
0.000122526
0.000146262
0.000175866
0.000205357
0.000224517
0.000233208
0.000239228
0.000247758
0.000259636
0.000272427
0.000280465
0.000275503
0.000253716
0.000224746
0.000206904
0.000208721
0.000206344
0.000157417
0.000107697
8.82531e-05
8.89701e-05
8.29941e-05
5.86914e-06
8.39695e-06
8.57309e-05
4.83845e-05
5.79752e-05
8.80174e-05
0.00010081
9.81992e-05
9.35632e-05
9.10155e-05
9.16665e-05
9.57257e-05
0.000103868
0.000114949
0.000129204
0.000152794
0.000193114
0.000257223
0.000340343
0.000390748
0.000396419
0.000402882
0.000398468
0.00038572
0.000371142
0.000341676
0.000293907
0.00024966
0.000235861
0.000259214
0.000290196
0.000273248
0.000226716
0.000187628
0.000125175
1.37818e-05
4.8203e-06
2.92185e-05
3.82969e-05
5.03943e-05
5.6594e-05
5.93972e-05
6.1252e-05
6.29953e-05
6.49844e-05
6.71138e-05
6.90478e-05
7.15089e-05
7.31085e-05
7.35773e-05
7.68933e-05
8.64968e-05
0.000105521
0.000140361
0.000204008
0.000304432
0.000406866
0.000418313
0.000410297
0.000357227
0.000311128
0.000280917
0.0002573
0.000219478
0.000183227
0.000176558
0.000206978
0.000253242
0.000257395
0.000142127
1.31002e-05
2.62247e-06
1.90393e-05
2.81241e-05
5.21977e-05
7.12145e-05
7.58354e-05
7.59433e-05
7.40336e-05
6.95241e-05
6.20767e-05
5.26385e-05
4.28941e-05
3.42145e-05
2.8131e-05
2.69991e-05
3.10116e-05
3.84415e-05
4.86686e-05
6.23421e-05
8.04841e-05
0.000105565
0.000147863
0.000223544
0.000306313
0.000316097
0.000264931
0.000219208
0.000214425
0.000243218
0.000258167
0.000251794
0.000240444
0.000199907
9.40374e-05
1.05228e-05
3.51432e-06
1.92968e-05
5.29308e-05
9.19451e-05
9.6808e-05
9.06386e-05
8.75235e-05
8.87322e-05
9.32503e-05
0.000100896
0.000112126
0.000126068
0.000137723
0.000139124
0.000129581
0.000117276
0.000107806
9.96136e-05
8.99237e-05
8.05297e-05
7.49445e-05
7.49233e-05
8.17283e-05
9.71162e-05
0.000126543
0.000177695
0.00023248
0.000249657
0.000242797
0.000237777
0.000242103
0.000249545
0.000219404
9.21735e-05
9.76966e-06
7.69383e-06
0.000110276
0.000124199
8.14296e-05
6.01432e-05
5.78626e-05
6.7884e-05
8.54534e-05
0.0001061
0.000125891
0.000140166
0.000145085
0.000141538
0.000133927
0.000126078
0.000119176
0.000112262
0.000104991
9.78577e-05
9.18866e-05
8.72923e-05
8.34407e-05
8.09637e-05
8.16411e-05
8.78436e-05
0.000103932
0.000136673
0.000187407
0.000236633
0.000264431
0.000271373
0.000252551
0.000183328
7.19863e-05
9.02719e-06
6.26202e-06
6.60282e-05
7.64471e-05
5.08855e-05
4.60919e-05
5.60056e-05
7.75639e-05
0.000109778
0.000145309
0.000170693
0.00018144
0.00018197
0.000176779
0.000167225
0.000154834
0.000142323
0.00012951
0.000115845
0.000102214
8.9545e-05
7.86173e-05
6.99243e-05
6.39444e-05
6.09447e-05
6.10926e-05
6.4979e-05
7.49828e-05
9.66967e-05
0.000136602
0.000188288
0.000225684
0.000237661
0.000215934
0.000106409
1.04341e-05
6.13666e-06
4.63219e-05
9.52456e-05
8.40956e-05
5.87904e-05
3.93311e-05
3.22729e-05
3.56842e-05
4.88326e-05
7.17372e-05
0.000101745
0.000133441
0.000160956
0.000180689
0.00019266
0.000197788
0.000195722
0.000187215
0.000173544
0.000155009
0.000132017
0.000107338
8.54465e-05
6.91813e-05
5.88682e-05
5.37073e-05
5.33931e-05
5.87266e-05
7.28652e-05
0.000101555
0.000143056
0.000177721
0.000183122
9.37935e-05
1.0275e-05
7.16319e-06
5.84945e-05
9.96851e-05
6.98856e-05
5.87492e-05
5.78303e-05
5.26168e-05
4.81139e-05
5.23824e-05
6.76751e-05
9.36716e-05
0.000128071
0.000165897
0.000200418
0.000225139
0.000236058
0.000233183
0.000219923
0.000201074
0.000179952
0.000157203
0.000132347
0.000106402
8.26427e-05
6.43095e-05
5.20866e-05
4.52883e-05
4.32855e-05
4.64188e-05
5.83682e-05
8.72443e-05
0.000138306
0.000177911
8.70797e-05
9.93205e-06
7.12231e-06
6.81795e-05
6.11678e-05
2.96937e-05
2.40785e-05
2.96395e-05
4.18874e-05
6.14028e-05
9.27764e-05
0.00014168
0.000203232
0.000251079
0.000249896
0.000247443
0.000243789
0.000239083
0.000233542
0.000227453
0.000221186
0.000199007
0.00017209
0.000141722
0.000109504
7.98975e-05
5.8338e-05
4.57743e-05
3.99511e-05
3.92745e-05
4.26853e-05
4.85896e-05
6.13639e-05
9.43735e-05
0.000149684
9.04381e-05
9.74767e-06
6.77478e-06
5.72105e-05
6.40229e-05
4.38392e-05
4.16264e-05
4.50072e-05
4.72891e-05
5.05666e-05
5.74587e-05
6.8761e-05
8.33777e-05
9.93825e-05
0.000114909
0.000129268
0.000142586
0.000154777
0.000165339
0.000173697
0.000179215
0.000180682
0.000175879
0.000162571
0.000139412
0.000106815
7.13843e-05
4.4726e-05
3.02756e-05
2.46016e-05
2.53977e-05
3.26968e-05
4.89329e-05
8.18765e-05
0.000125919
6.04348e-05
8.63655e-06
6.11899e-06
4.29106e-05
7.62945e-05
5.22144e-05
3.57616e-05
2.96379e-05
3.00414e-05
3.50537e-05
4.33873e-05
5.52156e-05
7.13516e-05
9.12047e-05
0.000111345
0.000127324
0.000137896
0.000145239
0.000151083
0.000155258
0.00015691
0.000155206
0.000149256
0.000138245
0.000121641
9.95094e-05
7.35693e-05
4.87144e-05
3.0956e-05
2.20876e-05
2.06741e-05
2.71545e-05
4.86315e-05
9.1011e-05
9.92609e-05
3.9148e-05
7.05023e-06
6.02793e-06
3.53099e-05
9.33621e-05
0.000113916
0.000103413
6.98798e-05
4.30654e-05
3.02835e-05
2.44191e-05
2.22433e-05
2.31528e-05
2.74658e-05
3.61141e-05
5.01171e-05
6.85664e-05
8.63223e-05
9.85139e-05
0.000105887
0.000110371
0.000112137
0.00011075
0.000105985
9.78981e-05
8.75168e-05
7.74343e-05
6.97945e-05
6.13074e-05
4.45849e-05
2.76277e-05
2.17047e-05
2.64843e-05
4.63181e-05
9.10562e-05
5.14136e-05
6.60013e-06
5.80938e-06
3.82625e-05
0.000131974
0.000180537
0.000188966
0.00018394
0.000157474
0.000112512
7.27812e-05
4.83975e-05
3.42338e-05
2.58442e-05
2.14814e-05
2.09408e-05
2.52422e-05
3.66497e-05
5.70335e-05
8.19097e-05
0.000101494
0.000112809
0.000117411
0.000116311
0.000110265
0.000102106
9.83192e-05
0.00010115
9.74668e-05
6.95543e-05
4.20528e-05
2.83872e-05
1.93064e-05
1.96939e-05
3.73616e-05
7.64606e-05
7.46088e-06
5.7798e-06
3.28106e-05
0.000109066
0.000174855
0.000191241
0.000185797
0.000174135
0.000167061
0.000160789
0.000140244
0.000103715
6.98215e-05
4.61873e-05
3.05569e-05
2.06045e-05
1.57651e-05
1.73507e-05
2.85848e-05
5.21961e-05
8.30262e-05
0.000110583
0.000128193
0.000134654
0.00013254
0.000114647
6.94247e-05
4.13249e-05
3.59515e-05
3.69383e-05
3.04525e-05
1.85903e-05
1.98582e-05
4.27908e-05
6.94276e-05
7.4329e-06
6.28322e-06
3.46851e-05
9.87839e-05
0.000142985
0.000153767
0.000150592
0.000139019
0.00012385
0.000111979
0.000109181
0.000118095
0.000136398
0.000146666
0.000116545
6.73573e-05
3.43535e-05
1.76713e-05
1.27569e-05
2.05359e-05
4.83136e-05
8.88106e-05
0.000115533
0.000124985
0.0001061
3.74083e-05
1.76829e-05
2.25241e-05
3.9393e-05
5.18729e-05
4.19401e-05
3.23176e-05
4.0583e-05
8.27972e-05
3.85225e-05
6.35979e-06
7.04309e-06
3.72937e-05
0.000110224
0.000160564
0.000173254
0.000170271
0.000156427
0.000133919
0.000106836
8.2504e-05
6.66493e-05
6.1503e-05
6.96585e-05
9.70093e-05
0.000141272
0.00013164
5.17523e-05
1.9217e-05
1.06471e-05
1.73324e-05
4.51014e-05
7.2996e-05
7.72736e-05
5.86326e-05
2.7829e-05
1.69439e-05
2.20442e-05
4.05587e-05
6.07738e-05
6.17416e-05
6.03228e-05
7.37342e-05
8.1386e-05
2.45816e-05
5.10874e-06
7.66987e-06
4.45125e-05
0.00013527
0.000175634
0.000175005
0.000161074
0.000142361
0.000126011
0.000115226
0.00010877
0.000100785
8.51819e-05
6.8826e-05
6.41626e-05
7.72916e-05
0.000107291
0.00010844
4.53315e-05
1.72788e-05
1.11688e-05
2.04669e-05
4.3651e-05
6.15527e-05
6.18591e-05
4.60072e-05
3.05768e-05
2.67764e-05
3.1858e-05
4.16017e-05
5.22625e-05
6.29465e-05
7.26957e-05
6.05898e-05
1.95364e-05
4.33133e-06
8.20195e-06
4.51909e-05
0.000130912
0.000152873
0.000142211
0.000121306
9.69824e-05
7.5442e-05
5.97159e-05
5.20966e-05
5.45141e-05
6.68566e-05
8.17204e-05
8.46096e-05
8.05138e-05
8.30379e-05
8.33588e-05
5.5344e-05
2.66729e-05
1.55433e-05
1.89563e-05
4.11835e-05
7.19192e-05
7.9768e-05
6.99342e-05
5.29597e-05
4.04026e-05
3.50656e-05
3.49247e-05
3.95861e-05
4.96096e-05
6.02341e-05
5.05576e-05
1.69736e-05
4.20673e-06
8.29966e-06
5.48998e-05
0.000159063
0.000159542
0.000131657
9.9008e-05
7.5318e-05
6.21843e-05
5.50059e-05
4.99338e-05
4.83323e-05
5.39853e-05
6.81767e-05
8.6983e-05
9.96945e-05
9.44184e-05
6.70266e-05
3.47367e-05
1.70999e-05
1.18335e-05
2.42156e-05
5.94944e-05
9.30456e-05
0.000106344
0.000100564
8.40003e-05
6.62457e-05
5.32984e-05
4.66276e-05
4.6298e-05
5.16422e-05
5.80387e-05
4.93603e-05
1.70204e-05
4.2193e-06
7.92944e-06
6.0395e-05
0.000153693
0.00012674
8.26674e-05
4.99918e-05
3.34144e-05
2.84856e-05
3.24006e-05
4.10407e-05
4.836e-05
5.3659e-05
5.65246e-05
4.94383e-05
3.36703e-05
2.22078e-05
2.07783e-05
3.30061e-05
4.64147e-05
5.58994e-05
7.55375e-05
9.28155e-05
0.000103705
0.000108817
0.00010768
0.000100681
8.99086e-05
7.84727e-05
6.91022e-05
6.34402e-05
6.24221e-05
6.65667e-05
6.53282e-05
2.32547e-05
4.34771e-06
7.37342e-06
5.62948e-05
0.000105739
8.49155e-05
5.45761e-05
3.28379e-05
2.17141e-05
1.9714e-05
2.48652e-05
2.68606e-05
2.4001e-05
2.57353e-05
3.62254e-05
5.11271e-05
5.7281e-05
5.47229e-05
5.59169e-05
6.36241e-05
7.02221e-05
7.405e-05
7.9836e-05
8.58515e-05
9.07499e-05
9.40647e-05
9.50998e-05
9.34484e-05
8.94231e-05
8.38585e-05
7.77654e-05
7.26252e-05
7.17349e-05
8.02871e-05
8.9604e-05
3.09393e-05
4.29107e-06
7.48653e-06
5.65929e-05
0.000124919
0.000115833
8.66937e-05
5.91689e-05
4.06661e-05
3.01558e-05
2.5857e-05
2.60065e-05
2.58335e-05
2.31482e-05
2.19413e-05
2.42971e-05
2.99962e-05
3.7175e-05
4.58291e-05
5.88656e-05
7.7661e-05
9.91947e-05
0.000116402
0.000123622
0.000122051
0.000116839
0.000111051
0.000104464
9.59421e-05
8.56761e-05
7.57651e-05
6.9714e-05
7.19442e-05
8.60563e-05
9.50851e-05
2.96299e-05
3.69177e-06
7.257e-06
4.58976e-05
0.000141975
0.00017569
0.000173531
0.000154715
0.000121725
8.72357e-05
6.23066e-05
4.65672e-05
3.64633e-05
2.87235e-05
2.15118e-05
1.58046e-05
1.36663e-05
1.56097e-05
1.96776e-05
2.49057e-05
3.21687e-05
4.29417e-05
5.91758e-05
8.30322e-05
0.00011251
0.000134706
0.000140183
0.000133136
0.000120284
0.000105627
9.20061e-05
8.31166e-05
8.34107e-05
9.42647e-05
9.65927e-05
3.01693e-05
3.36179e-06
7.38197e-06
4.26524e-05
0.000135613
0.00016192
0.000140619
0.000106904
8.2794e-05
7.48446e-05
7.99791e-05
8.87034e-05
8.63171e-05
7.03991e-05
5.05992e-05
3.39636e-05
2.26886e-05
1.69627e-05
1.7336e-05
2.26338e-05
2.73384e-05
3.04452e-05
3.38865e-05
3.90331e-05
4.7509e-05
6.25066e-05
8.48466e-05
0.000105093
0.000113324
0.000110573
0.000101818
9.31094e-05
8.99527e-05
9.40237e-05
9.49973e-05
3.66999e-05
3.9074e-06
7.76206e-06
4.86594e-05
0.000148584
0.000172769
0.000159716
0.000127789
9.41105e-05
7.15772e-05
6.01197e-05
5.77872e-05
6.46307e-05
7.86533e-05
8.55617e-05
6.83372e-05
4.26423e-05
2.56685e-05
1.79017e-05
1.76959e-05
2.41982e-05
3.18411e-05
3.45161e-05
3.34642e-05
3.17929e-05
3.26845e-05
4.02543e-05
5.54394e-05
7.14956e-05
8.05457e-05
8.20845e-05
7.98752e-05
7.91351e-05
8.35263e-05
8.85198e-05
3.97177e-05
4.79907e-06
7.9584e-06
5.31763e-05
0.000158137
0.000171586
0.000145934
0.000108997
8.52287e-05
7.85947e-05
8.2249e-05
8.58982e-05
8.33227e-05
7.97408e-05
8.08058e-05
8.17737e-05
6.85244e-05
4.35037e-05
2.53743e-05
1.77254e-05
1.9067e-05
2.78018e-05
3.50991e-05
3.48644e-05
2.82739e-05
2.05074e-05
2.00982e-05
2.95847e-05
4.91028e-05
6.85057e-05
7.60578e-05
7.54999e-05
7.6121e-05
8.31982e-05
9.00944e-05
3.32446e-05
5.06184e-06
8.06176e-06
5.74098e-05
0.000160958
0.000166075
0.000137938
0.000100703
7.62351e-05
6.78234e-05
7.19272e-05
8.47499e-05
9.90968e-05
0.000105734
0.000104196
0.000100472
9.2396e-05
7.11031e-05
4.33716e-05
2.51198e-05
1.83243e-05
2.25546e-05
3.42956e-05
3.54242e-05
2.40065e-05
1.54567e-05
1.55717e-05
2.50703e-05
5.10164e-05
8.82103e-05
9.93041e-05
9.42161e-05
9.09051e-05
9.44563e-05
8.67627e-05
2.45775e-05
4.45436e-06
7.97144e-06
5.90807e-05
0.000153662
0.000157305
0.000134781
0.000104212
8.19331e-05
7.22959e-05
7.32446e-05
8.24749e-05
9.72397e-05
0.00011248
0.000121857
0.000122557
0.000115292
9.80519e-05
6.98177e-05
4.18637e-05
2.50582e-05
1.92965e-05
2.32848e-05
2.85445e-05
2.28769e-05
1.61758e-05
1.53419e-05
2.10111e-05
3.62654e-05
6.6028e-05
9.9038e-05
0.00011101
0.00010939
0.00010344
7.54947e-05
2.19385e-05
3.94906e-06
7.84114e-06
5.75321e-05
0.000152103
0.000161845
0.000148282
0.000122888
9.58186e-05
7.70293e-05
6.93488e-05
7.11972e-05
8.02955e-05
9.40486e-05
0.000109111
0.000121648
0.00012778
0.00012318
0.000103648
7.22315e-05
4.33489e-05
2.64462e-05
2.0271e-05
2.20924e-05
2.49264e-05
2.17122e-05
1.78807e-05
1.82229e-05
2.32257e-05
3.28311e-05
4.78193e-05
6.99236e-05
9.13928e-05
9.45017e-05
7.27534e-05
2.49348e-05
4.20967e-06
7.6164e-06
5.28796e-05
0.0001511
0.000168746
0.000160591
0.00014161
0.000116395
9.13193e-05
7.40415e-05
6.71936e-05
6.97689e-05
7.99389e-05
9.49816e-05
0.000111102
0.000124832
0.000133764
0.000134503
0.000120807
9.0574e-05
5.7147e-05
3.52954e-05
2.5494e-05
2.35604e-05
2.5235e-05
2.53071e-05
2.32571e-05
2.22363e-05
2.35846e-05
2.71413e-05
3.36009e-05
4.6461e-05
6.71709e-05
7.76405e-05
3.30214e-05
5.25697e-06
7.67792e-06
5.22123e-05
0.000152988
0.000170783
0.000160103
0.000142038
0.000124227
0.000106627
8.81385e-05
7.31296e-05
6.6317e-05
6.8782e-05
7.98883e-05
9.78886e-05
0.000119164
0.000138893
0.000152701
0.000156311
0.000144013
0.000113378
7.60712e-05
4.92748e-05
3.61843e-05
3.24178e-05
3.32065e-05
3.40177e-05
3.27935e-05
3.05197e-05
2.76839e-05
2.28638e-05
2.05861e-05
2.75718e-05
5.10967e-05
4.12545e-05
6.65654e-06
7.60895e-06
4.94407e-05
0.000151868
0.000170321
0.000154982
0.000133643
0.000118946
0.000111302
0.000103606
9.0705e-05
7.73287e-05
7.08898e-05
7.39809e-05
8.62999e-05
0.000106302
0.000130954
0.00015544
0.000173121
0.000175931
0.000157373
0.000120706
8.24159e-05
5.68756e-05
4.51863e-05
4.29893e-05
4.46834e-05
4.40226e-05
3.62567e-05
2.45448e-05
1.57585e-05
1.38232e-05
2.20575e-05
5.23028e-05
3.69759e-05
6.70794e-06
7.86136e-06
5.10328e-05
0.000154836
0.000166425
0.000140913
0.000113683
0.000100235
9.92104e-05
0.000103114
0.000102518
9.3441e-05
8.32886e-05
8.07299e-05
8.87402e-05
0.000106903
0.000132913
0.000162434
0.000188746
0.000202747
0.000195256
0.000164216
0.000121524
8.55477e-05
6.46146e-05
5.64391e-05
5.39791e-05
4.59606e-05
2.71914e-05
1.54046e-05
1.30409e-05
1.66187e-05
3.18759e-05
7.50645e-05
2.86124e-05
6.22609e-06
8.00131e-06
5.19848e-05
0.000155256
0.000154534
0.000119169
9.2911e-05
8.52719e-05
9.05221e-05
0.000101281
0.000108566
0.000105783
9.66021e-05
9.12072e-05
9.59128e-05
0.000111884
0.000136943
0.000165832
0.000190439
0.000201584
0.000192903
0.000165724
0.000130185
9.87378e-05
7.7956e-05
6.67969e-05
5.7628e-05
4.01107e-05
2.0294e-05
1.2417e-05
1.42983e-05
2.50364e-05
5.25718e-05
8.00615e-05
2.33095e-05
5.67456e-06
8.26591e-06
5.74506e-05
0.00015728
0.000135706
9.47001e-05
7.60828e-05
7.68966e-05
8.90183e-05
0.000104645
0.000115291
0.000116064
0.000110274
0.000106424
0.000110929
0.00012541
0.000147137
0.000170026
0.000186411
0.000189476
0.000176394
0.000151103
0.000122606
9.8937e-05
8.31521e-05
7.28546e-05
6.0218e-05
3.90247e-05
1.96955e-05
1.22473e-05
1.50358e-05
3.07705e-05
6.59532e-05
6.97458e-05
2.11227e-05
5.39931e-06
8.21414e-06
6.0233e-05
0.000147305
0.000109309
7.42386e-05
6.51338e-05
7.35045e-05
9.1405e-05
0.000109212
0.000118535
0.000118138
0.000113856
0.000113117
0.000120204
0.000134706
0.000151351
0.000162278
0.000162409
0.000152819
0.000138468
0.000123785
0.000110854
0.0001002
9.13451e-05
8.1661e-05
6.61236e-05
4.34955e-05
2.34894e-05
1.42619e-05
1.54487e-05
3.07276e-05
6.63152e-05
6.3303e-05
2.01062e-05
5.06354e-06
8.04625e-06
5.92702e-05
0.000134681
0.00010104
7.14896e-05
6.37431e-05
7.12372e-05
8.75174e-05
0.000104903
0.000115965
0.000118383
0.000116028
0.000115111
0.000119715
0.000129665
0.000140484
0.000146083
0.000143742
0.00013592
0.000126823
0.000118882
0.000112349
0.000106473
0.000100059
9.08781e-05
7.55992e-05
5.33966e-05
3.14102e-05
1.84787e-05
1.60631e-05
2.62941e-05
5.91657e-05
6.46055e-05
2.00337e-05
4.76244e-06
7.61463e-06
5.1511e-05
0.00012659
0.000110057
7.98706e-05
6.21201e-05
5.88186e-05
6.61146e-05
8.03557e-05
9.65132e-05
0.000109349
0.000117103
0.000122075
0.000127533
0.000134426
0.000140152
0.0001407
0.000135122
0.000126818
0.00011994
0.000116037
0.000113967
0.000111464
0.000106435
9.72406e-05
8.24725e-05
6.21146e-05
4.04865e-05
2.49855e-05
1.93295e-05
2.59323e-05
5.52902e-05
6.86836e-05
2.00421e-05
4.3805e-06
7.40935e-06
4.64517e-05
0.000125075
0.000130866
0.000107592
7.55082e-05
5.68881e-05
5.2701e-05
5.8688e-05
7.19542e-05
8.87796e-05
0.000104417
0.000116538
0.000126339
0.000135503
0.000143194
0.000146171
0.000142247
0.000133556
0.000124951
0.000119709
0.000117728
0.000116419
0.000112584
0.000103917
8.93758e-05
6.9581e-05
4.82253e-05
3.1502e-05
2.37206e-05
2.78347e-05
5.36752e-05
7.67319e-05
2.08695e-05
4.14954e-06
7.19894e-06
4.3361e-05
0.000128385
0.000143433
0.000126294
9.63594e-05
6.85998e-05
5.25463e-05
4.78185e-05
5.24645e-05
6.59955e-05
8.7106e-05
0.000111184
0.000132638
0.000148958
0.000159658
0.000163365
0.00015848
0.000146682
0.000133469
0.000124054
0.000119926
0.000118669
0.000115948
0.000108085
9.35517e-05
7.35166e-05
5.24107e-05
3.62086e-05
2.86249e-05
3.2829e-05
5.81191e-05
8.11971e-05
2.13571e-05
3.9791e-06
7.43455e-06
4.51821e-05
0.000141185
0.000155672
0.000132768
0.00010991
9.34934e-05
7.54157e-05
5.83642e-05
4.99095e-05
5.17869e-05
6.40823e-05
8.61566e-05
0.000114609
0.000143814
0.000168759
0.000185441
0.000190047
0.000181066
0.000162833
0.00014386
0.000130357
0.000122892
0.000117724
0.000109818
9.58191e-05
7.5906e-05
5.46147e-05
3.85507e-05
3.15496e-05
3.63784e-05
6.07912e-05
8.23885e-05
2.17085e-05
3.93736e-06
7.74259e-06
4.69176e-05
0.000142998
0.000141596
0.000103272
8.1408e-05
8.07444e-05
8.90713e-05
8.53423e-05
6.7471e-05
5.60448e-05
5.83093e-05
7.46485e-05
0.000104511
0.000143807
0.000184067
0.000215379
0.000229615
0.000223418
0.000200829
0.000172006
0.000147044
0.000130388
0.00012021
0.000111008
9.74331e-05
7.79179e-05
5.6496e-05
4.02859e-05
3.35997e-05
3.91036e-05
6.30188e-05
8.02063e-05
2.14126e-05
3.92019e-06
8.31461e-06
5.4344e-05
0.000145289
0.000121769
8.20187e-05
6.5864e-05
6.92375e-05
8.52116e-05
9.98883e-05
9.27986e-05
7.34789e-05
6.50873e-05
7.3384e-05
9.83219e-05
0.000138103
0.000186696
0.000232482
0.000260853
0.000262499
0.000240186
0.000205257
0.00016993
0.000141995
0.000122902
0.000109012
9.47207e-05
7.66469e-05
5.68999e-05
4.16005e-05
3.53108e-05
4.11174e-05
6.43746e-05
7.8622e-05
2.11427e-05
3.90265e-06
8.40086e-06
6.30726e-05
0.000133955
9.00277e-05
6.2456e-05
5.85905e-05
6.95781e-05
8.88903e-05
0.000105243
0.00010577
9.29214e-05
8.35435e-05
8.87248e-05
0.000111232
0.000148561
0.000193188
0.000233626
0.000258454
0.000262065
0.000246029
0.000216385
0.000181604
0.000149918
0.000125588
0.000107618
9.17748e-05
7.44957e-05
5.65875e-05
4.27892e-05
3.7367e-05
4.3864e-05
6.71749e-05
7.86979e-05
2.11693e-05
3.86257e-06
8.07227e-06
6.23809e-05
0.000119052
7.85359e-05
5.88158e-05
5.92998e-05
7.15345e-05
8.77232e-05
9.92745e-05
0.000101831
9.87923e-05
9.78996e-05
0.000105862
0.000125633
0.00015505
0.000187772
0.000216477
0.000235404
0.000241219
0.000232994
0.000212358
0.000183729
0.000153428
0.000126917
0.000105973
8.86333e-05
7.20225e-05
5.60124e-05
4.39715e-05
3.97416e-05
4.72912e-05
7.12003e-05
8.07212e-05
2.15858e-05
3.79414e-06
7.42419e-06
4.87849e-05
0.000117911
9.47979e-05
6.37907e-05
5.00674e-05
5.09006e-05
6.21476e-05
7.91538e-05
9.48663e-05
0.000105554
0.000113938
0.000125024
0.000142046
0.000164816
0.000190016
0.000212938
0.000229264
0.000235874
0.000231059
0.000214886
0.000189773
0.000160496
0.000132407
0.00010868
8.91418e-05
7.19178e-05
5.65566e-05
4.54784e-05
4.21735e-05
5.08289e-05
7.56153e-05
8.39431e-05
2.23418e-05
3.74055e-06
7.20583e-06
4.07737e-05
0.000109926
0.000114958
8.39752e-05
5.10231e-05
3.77365e-05
3.84574e-05
4.9777e-05
7.00998e-05
9.44012e-05
0.000116735
0.000136478
0.000156697
0.000179439
0.000203812
0.000226503
0.000243322
0.000250782
0.000246935
0.000231478
0.000206273
0.00017542
0.00014417
0.000116619
9.39266e-05
7.4999e-05
5.91182e-05
4.79621e-05
4.47928e-05
5.39579e-05
7.92547e-05
8.73612e-05
2.3224e-05
3.72264e-06
7.25942e-06
3.97049e-05
0.000115154
0.000127268
0.000103717
7.15665e-05
4.68853e-05
3.51947e-05
3.52963e-05
4.69687e-05
7.10445e-05
0.000104373
0.000139653
0.000172586
0.000203506
0.000233074
0.000259403
0.000278222
0.000285474
0.000279567
0.000261273
0.000232749
0.000197731
0.000161436
0.00012868
0.000101717
8.01123e-05
6.29359e-05
5.11714e-05
4.77644e-05
5.71014e-05
8.25815e-05
9.06294e-05
2.4078e-05
3.76377e-06
7.64876e-06
4.19992e-05
0.000123665
0.000122797
8.80724e-05
6.77204e-05
6.01093e-05
4.93589e-05
3.90222e-05
3.95589e-05
5.42033e-05
8.47962e-05
0.000129157
0.000179974
0.000231164
0.000279111
0.000305426
0.00030392
0.000301564
0.000298451
0.000294666
0.000263215
0.000220968
0.000178542
0.000140392
0.000109182
8.49981e-05
6.671e-05
5.45868e-05
5.11614e-05
6.08321e-05
8.64396e-05
9.35557e-05
2.46531e-05
3.82509e-06
7.94818e-06
4.35852e-05
0.000119871
0.000105889
6.3775e-05
4.56176e-05
4.73856e-05
5.61359e-05
5.42643e-05
4.88985e-05
5.6136e-05
8.18642e-05
0.000128059
0.00019331
0.000267746
0.0003061
0.000306105
0.000305167
0.000303322
0.000300648
0.000297244
0.000284886
0.000238978
0.000189778
0.00014662
0.000112364
8.6809e-05
6.85159e-05
5.71583e-05
5.47973e-05
6.57825e-05
9.18256e-05
9.59633e-05
2.48776e-05
3.88082e-06
8.07026e-06
4.77062e-05
0.000120259
9.05944e-05
5.18895e-05
3.75037e-05
3.98466e-05
5.19672e-05
6.23308e-05
6.46316e-05
7.16862e-05
9.58669e-05
0.000142054
0.000206541
0.000272032
0.000307393
0.000307281
0.000306387
0.000304687
0.000302215
0.000299061
0.000280792
0.000237937
0.000189146
0.000144798
0.000109843
8.48075e-05
6.80531e-05
5.87506e-05
5.86306e-05
7.19369e-05
9.82644e-05
9.6919e-05
2.46348e-05
3.87276e-06
7.96342e-06
5.21453e-05
0.000119606
7.99316e-05
4.63163e-05
3.57439e-05
3.95015e-05
5.25848e-05
6.75224e-05
7.8809e-05
9.17779e-05
0.00011575
0.000154702
0.000203686
0.000251278
0.000285637
0.000302264
0.000306389
0.000305474
0.000301169
0.000288779
0.000263215
0.000224918
0.000180049
0.000137325
0.000103468
8.02449e-05
6.612e-05
5.98831e-05
6.29885e-05
7.92623e-05
0.000104989
9.64414e-05
2.41783e-05
3.81159e-06
7.84351e-06
5.09386e-05
0.000120709
8.64395e-05
4.83206e-05
3.35655e-05
3.42731e-05
4.60841e-05
6.45264e-05
8.38496e-05
0.000103829
0.000129341
0.00016386
0.000205273
0.000246192
0.000278002
0.000296358
0.000303162
0.000302543
0.000295855
0.000280773
0.000254437
0.000216998
0.000173137
0.00013101
9.79031e-05
7.61919e-05
6.44433e-05
6.12333e-05
6.77298e-05
8.67537e-05
0.000110661
9.49108e-05
2.36923e-05
3.71195e-06
7.84305e-06
4.94783e-05
0.0001204
9.77454e-05
5.62428e-05
3.4225e-05
2.95365e-05
3.71135e-05
5.50426e-05
7.95715e-05
0.000106976
0.000137754
0.000174357
0.000216559
0.000259562
0.000295196
0.000311854
0.00031071
0.000308876
0.000306399
0.000288906
0.000258075
0.000217846
0.000172372
0.00012905
9.52871e-05
7.38928e-05
6.35948e-05
6.28706e-05
7.24989e-05
9.36612e-05
0.000114986
9.35285e-05
2.34625e-05
3.64005e-06
7.94613e-06
5.2488e-05
0.000125104
0.000100549
6.10253e-05
3.80552e-05
3.0139e-05
3.35427e-05
4.78061e-05
7.21575e-05
0.000103951
0.000140997
0.000183372
0.000231648
0.000281547
0.000312629
0.000312512
0.000311642
0.000310016
0.000307689
0.00030077
0.000267419
0.000223725
0.000176257
0.000131461
9.62224e-05
7.38652e-05
6.36519e-05
6.42374e-05
7.60791e-05
9.85692e-05
0.000117579
9.26365e-05
2.34399e-05
3.60523e-06
7.96425e-06
5.56111e-05
0.000127315
9.7912e-05
5.95469e-05
3.95563e-05
3.26266e-05
3.4702e-05
4.60636e-05
6.74579e-05
9.81643e-05
0.000136683
0.000182537
0.000235119
0.000286654
0.000312515
0.000312794
0.000312277
0.000310963
0.000308901
0.000304811
0.000272094
0.000228354
0.000180979
0.000135882
9.94855e-05
7.56924e-05
6.46083e-05
6.53249e-05
7.82359e-05
0.000101501
0.000119285
9.28754e-05
2.36808e-05
3.62511e-06
7.8892e-06
5.54943e-05
0.000125546
9.84932e-05
6.03602e-05
3.96427e-05
3.26954e-05
3.47025e-05
4.49093e-05
6.41285e-05
9.28177e-05
0.000130533
0.000176595
0.000229081
0.000280218
0.000312172
0.000312824
0.000312676
0.00031172
0.00030999
0.000302746
0.000272132
0.000230997
0.000185696
0.000141549
0.000104581
7.9251e-05
6.66485e-05
6.64496e-05
7.92331e-05
0.000102866
0.000120631
9.39398e-05
2.40041e-05
3.66401e-06
7.81827e-06
5.56188e-05
0.000126451
0.000102539
6.55046e-05
4.28317e-05
3.35413e-05
3.35951e-05
4.20447e-05
5.92453e-05
8.57693e-05
0.000121798
0.000166929
0.000219078
0.000271324
0.000308825
0.000312551
0.000312779
0.000312201
0.000310832
0.000299926
0.000270808
0.000232326
0.000189454
0.000146828
0.00011
8.36572e-05
6.96641e-05
6.82902e-05
8.04227e-05
0.000104201
0.000122547
9.59009e-05
2.44398e-05
3.72286e-06
7.76958e-06
5.5702e-05
0.000128934
0.000104283
6.8115e-05
4.62371e-05
3.58764e-05
3.34712e-05
3.90879e-05
5.37357e-05
7.82655e-05
0.000113006
0.000157628
0.000210027
0.000263327
0.000303182
0.000311924
0.000312529
0.000312328
0.000311325
0.000297797
0.000269298
0.000232628
0.000191765
0.000150714
0.000114528
8.78442e-05
7.29939e-05
7.07532e-05
8.23346e-05
0.0001062
0.000125036
9.79776e-05
2.47958e-05
3.77257e-06
7.70553e-06
5.3996e-05
0.00012862
0.000102215
6.6779e-05
4.77248e-05
3.87795e-05
3.50751e-05
3.74562e-05
4.82803e-05
6.93492e-05
0.00010168
0.000145303
0.000198174
0.000253437
0.000296904
0.000310952
0.000311929
0.000312096
0.000311456
0.000295995
0.000267393
0.000231572
0.000192
0.000152344
0.000117272
9.11331e-05
7.63265e-05
7.3949e-05
8.54798e-05
0.000109424
0.000128177
0.00010006
2.5141e-05
3.82435e-06
7.6329e-06
5.06478e-05
0.000125441
9.62225e-05
6.11999e-05
4.57559e-05
4.01751e-05
3.73948e-05
3.76859e-05
4.47186e-05
6.16648e-05
9.062e-05
0.000132417
0.000185387
0.00024281
0.000290431
0.000309726
0.000311063
0.00031158
0.00031128
0.00029436
0.000265177
0.000229488
0.000190528
0.000151842
0.000117946
9.29268e-05
7.90227e-05
7.7418e-05
8.96677e-05
0.000113767
0.000131522
0.000101432
2.53517e-05
3.86666e-06
7.5711e-06
4.61519e-05
0.000118806
8.69895e-05
5.27103e-05
4.10172e-05
3.97466e-05
3.9854e-05
3.94914e-05
4.30103e-05
5.52258e-05
7.95185e-05
0.000118055
0.000170253
0.000229853
0.000282437
0.000308344
0.00031003
0.000310884
0.000310908
0.000292454
0.000262457
0.000226638
0.000188069
0.000150265
0.000117665
9.40998e-05
8.1582e-05
8.12793e-05
9.46167e-05
0.000118628
0.000134647
0.000102364
2.55487e-05
3.91845e-06
7.50465e-06
4.11928e-05
0.000108344
7.76835e-05
4.3878e-05
3.39605e-05
3.58935e-05
4.06251e-05
4.24948e-05
4.40188e-05
5.17677e-05
7.07409e-05
0.000104462
0.000153945
0.00021431
0.000271913
0.000306918
0.000308927
0.000310094
0.000310409
0.000289765
0.00025929
0.00022352
0.000185298
0.000148186
0.000116693
9.45623e-05
8.36434e-05
8.49977e-05
9.96632e-05
0.000123346
0.000137182
0.000102675
2.56834e-05
3.98054e-06
7.4706e-06
3.80087e-05
0.000100038
7.63289e-05
4.08689e-05
2.88262e-05
3.02709e-05
3.77942e-05
4.38134e-05
4.5778e-05
4.99996e-05
6.35216e-05
9.13057e-05
0.000136158
0.00019525
0.000256073
0.000299069
0.000307771
0.000309241
0.000307097
0.000285689
0.000255339
0.000220043
0.00018247
0.000146215
0.00011583
9.50231e-05
8.56001e-05
8.85622e-05
0.000104425
0.000127459
0.000138927
0.000102255
2.56835e-05
4.04193e-06
7.50637e-06
3.76032e-05
9.8306e-05
8.5386e-05
4.64584e-05
2.75962e-05
2.49995e-05
3.17561e-05
4.16024e-05
4.70862e-05
4.98081e-05
5.83335e-05
7.95572e-05
0.000118114
0.000173911
0.000236834
0.000287204
0.000306523
0.000308299
0.000304214
0.000282173
0.00025201
0.000217264
0.000180351
0.000144833
0.000115327
9.55747e-05
8.73898e-05
9.17036e-05
0.000108462
0.000130694
0.000140089
0.000101644
2.56321e-05
4.11808e-06
7.65285e-06
4.01331e-05
0.000104251
0.000103034
6.43747e-05
3.29481e-05
2.28723e-05
2.5467e-05
3.55311e-05
4.5363e-05
4.96137e-05
5.45789e-05
6.94133e-05
0.000100667
0.000151396
0.000215099
0.000272825
0.00030503
0.000307163
0.000301696
0.000279501
0.000249524
0.000215119
0.000178658
0.000143719
0.000114946
9.6106e-05
8.90411e-05
9.46149e-05
0.000112164
0.000133527
0.000140806
0.000100024
2.53028e-05
4.16285e-06