/*--------------------------------*- C++ -*----------------------------------*\
| =========                 |                                                 |
| \\      /  F ield         | OpenFOAM: The Open Source CFD Toolbox           |
|  \\    /   O peration     | Version:  v2006                                 |
|   \\  /    A nd           | Website:  www.openfoam.com                      |
|    \\/     M anipulation  |                                                 |
\*---------------------------------------------------------------------------*/
FoamFile
{
    version     2.0;
    format      ascii;
    class       volScalarField;
    location    "35";
    object      k;
}
// * * * * * * * * * * * * * * * * * * * * * * * * * * * * * * * * * * * * * //

dimensions      [0 2 -2 0 0 0 0];


internalField   nonuniform List<scalar> 
78750
(
0.804712
0.233877
0.0993617
0.0177082
0.00316281
0.00419803
0.00175173
0.00321365
0.00207525
0.00257038
0.00218322
0.00219029
0.00208764
0.00201726
0.00195399
0.00190096
0.00185796
0.00182413
0.00179824
0.0017789
0.00176467
0.00175397
0.00174469
0.00173355
0.00171565
0.00169029
0.00165592
0.00161065
0.00155171
0.00147425
0.00136871
0.00122063
0.00102206
0.000694592
0.000256145
0.0250541
0.000925886
0.000611766
0.00341634
0.00593706
0.00600996
0.00605395
0.00582629
0.00569132
0.00551261
0.00535541
0.00519248
0.00502853
0.00486203
0.00469446
0.00452804
0.00436503
0.00420699
0.00405453
0.0039075
0.00376568
0.00363027
0.00350523
0.00339558
0.00329908
0.00320961
0.00312515
0.00304519
0.00296944
0.00289769
0.00283015
0.00275133
0.00261001
0.00223265
0.00088852
0.00177734
0.00388533
0.00436886
0.00436139
0.00430162
0.00434482
0.0043777
0.00438399
0.00435846
0.00430816
0.00424029
0.00416002
0.00407163
0.00397869
0.00388395
0.00378927
0.00369583
0.00360441
0.00351572
0.00343079
0.00335078
0.00327708
0.00321098
0.00315287
0.00310173
0.00305556
0.00301337
0.00297517
0.00293995
0.00290272
0.00285376
0.00277591
0.00263603
0.00236745
0.00193744
0.000208271
0.00111265
0.00153505
0.00184546
0.00210246
0.0023266
0.00253085
0.00272319
0.0029061
0.00308379
0.00325627
0.00341745
0.00355977
0.00367654
0.00376378
0.00382038
0.00384746
0.00384762
0.0038243
0.00378135
0.00372288
0.00365319
0.00357681
0.00349849
0.00342276
0.00335268
0.00328849
0.00322789
0.00316694
0.00310051
0.00301971
0.002902
0.0026911
0.00235605
0.00214796
0.000348722
0.00144327
0.00190624
0.00214521
0.00227014
0.00232911
0.00234564
0.00233776
0.00232118
0.00231447
0.00233083
0.00238014
0.00246713
0.00258913
0.00273734
0.00290121
0.00307103
0.00323813
0.00339475
0.00353299
0.00364463
0.0037224
0.00376216
0.00376484
0.00373676
0.00368791
0.0036283
0.00356373
0.00349358
0.00341025
0.00329703
0.0031167
0.00282753
0.00263841
0.00304734
0.000532001
0.00179518
0.00228858
0.00250198
0.00258952
0.00259784
0.00255455
0.00249463
0.00243661
0.00238022
0.00232638
0.00228128
0.00225149
0.00224398
0.00226513
0.00231971
0.00240433
0.00250673
0.00261718
0.00273208
0.00284927
0.00296602
0.00307952
0.00318738
0.00328753
0.00337657
0.00344798
0.00349209
0.00349753
0.00345387
0.00335652
0.00318868
0.00289629
0.00266779
0.00328925
0.00157363
0.00277215
0.00296057
0.00296658
0.00289503
0.00272095
0.00250364
0.00238457
0.00239204
0.00242756
0.00243077
0.0024119
0.00238918
0.00237609
0.00238373
0.00241705
0.00247376
0.00254737
0.00263226
0.00272539
0.00282498
0.00292996
0.00303988
0.00315463
0.00327365
0.00339305
0.00350259
0.00358806
0.00363628
0.00363544
0.00356861
0.00339598
0.00308958
0.00298734
0.00394479
0.00146724
0.00260879
0.00289234
0.00295518
0.00291622
0.0027562
0.00250484
0.00226682
0.00222111
0.0023726
0.00255805
0.0026404
0.00262459
0.00255599
0.00248482
0.00244465
0.00243958
0.00246805
0.00252823
0.00261192
0.00271018
0.00281766
0.00293168
0.00305233
0.00317954
0.00330851
0.00343045
0.00353538
0.0036141
0.00365613
0.00364353
0.00353033
0.00326368
0.00320232
0.00424283
0.00109067
0.00250764
0.00311364
0.00337147
0.00348795
0.00352419
0.00344595
0.00307731
0.00244252
0.00178343
0.0014156
0.00173861
0.00231404
0.00263559
0.00270375
0.00264562
0.00260378
0.0026279
0.0026878
0.00276477
0.00285324
0.00295157
0.00305918
0.00317526
0.00329763
0.0034223
0.00354249
0.00365083
0.00374068
0.0038035
0.00382282
0.00375313
0.00354929
0.00355584
0.00453794
0.0019079
0.00287505
0.00310159
0.00320734
0.00328396
0.00334813
0.00341142
0.00347701
0.00348066
0.00326294
0.00267876
0.00199471
0.00159381
0.00185884
0.00241992
0.00280665
0.0029657
0.00301919
0.0030519
0.00309443
0.00315002
0.00321492
0.00328564
0.00336031
0.00343817
0.00351797
0.00359753
0.00367386
0.00374307
0.00379932
0.0038281
0.0037929
0.00369981
0.00383344
0.00473888
0.00169244
0.00310675
0.00354306
0.00369469
0.00373868
0.00370915
0.00359546
0.00337658
0.00313118
0.00297083
0.00284077
0.00259683
0.00219078
0.00183292
0.00173611
0.00194357
0.00235385
0.00274047
0.00296556
0.00305763
0.00312064
0.00320234
0.0033036
0.00341376
0.00352201
0.00362175
0.00371112
0.00379045
0.00385951
0.00391533
0.00394717
0.00393227
0.00391933
0.00411115
0.00490386
0.00164478
0.00291059
0.00331375
0.00352435
0.00367658
0.00379855
0.00389077
0.00394131
0.00391445
0.00375568
0.00346958
0.00315075
0.00284475
0.00252593
0.00221512
0.00194863
0.00177371
0.00194071
0.00242016
0.00296777
0.0032998
0.003397
0.00342883
0.00347714
0.00354971
0.00363536
0.00372084
0.00379661
0.00385916
0.00390811
0.00394063
0.00395994
0.00404969
0.00430633
0.00511614
0.00149044
0.00310543
0.0036878
0.00392163
0.00403323
0.00408223
0.00408313
0.00404083
0.00396953
0.00389589
0.00381293
0.00367226
0.0034413
0.00313495
0.00279474
0.00245169
0.0020931
0.00175779
0.00160307
0.00187692
0.0024132
0.00302104
0.00342539
0.00356389
0.00361851
0.00367353
0.00374757
0.00383791
0.00393253
0.00401687
0.00407785
0.00412311
0.004244
0.00451508
0.005368
0.00197688
0.00327305
0.00377033
0.00399128
0.00410967
0.00417594
0.00420024
0.00418248
0.004125
0.00404119
0.00395653
0.0038837
0.00380022
0.00366801
0.00346057
0.0031771
0.0028455
0.00247975
0.00209537
0.00183619
0.00192458
0.00231632
0.00283245
0.00332913
0.00359645
0.00369231
0.00373791
0.00378292
0.00384675
0.00393628
0.00404463
0.00417009
0.00436888
0.00469681
0.00567847
0.0033234
0.00415543
0.00433964
0.00438446
0.0043834
0.00434395
0.00425226
0.00409043
0.00387664
0.00367476
0.00353913
0.00346674
0.00341773
0.00335791
0.00326056
0.00310262
0.00288634
0.00263346
0.00234945
0.00205747
0.00187733
0.0020064
0.00237201
0.00287426
0.00340345
0.00375826
0.00393198
0.00401589
0.00406809
0.00411896
0.00419106
0.0043087
0.00450788
0.00484348
0.00587531
0.00341933
0.00398878
0.00417357
0.00425825
0.00429769
0.00428821
0.00420386
0.00403601
0.00384395
0.00369862
0.00361369
0.00355826
0.00350033
0.00342206
0.00330854
0.00314741
0.00294543
0.00272781
0.00250975
0.00228734
0.0020846
0.00204026
0.00226908
0.00263331
0.00306607
0.00347755
0.00375183
0.00391545
0.00402496
0.00411414
0.0042076
0.00434201
0.00456558
0.00493422
0.00603126
0.00286521
0.00406461
0.00437444
0.00447369
0.00450041
0.00446605
0.00435001
0.00414607
0.0038918
0.00364964
0.00347816
0.00338833
0.00333787
0.00328105
0.00319728
0.00308186
0.00293684
0.00277078
0.00259531
0.00241262
0.00222242
0.00206363
0.0020707
0.00233807
0.00273872
0.00318061
0.00357263
0.00382762
0.00399137
0.00412652
0.00427415
0.00447177
0.00475211
0.00517795
0.00635484
0.00272011
0.00409442
0.00448318
0.00461779
0.0046704
0.00467288
0.00462481
0.00451708
0.00434603
0.00410438
0.0038184
0.00358159
0.00346133
0.00341608
0.00337569
0.00330458
0.00319267
0.0030445
0.00287223
0.00268635
0.00248837
0.00228203
0.00211108
0.0021161
0.00242416
0.00292422
0.00346919
0.003909
0.00415562
0.00428497
0.00440546
0.00460362
0.00489357
0.00532266
0.00644265
0.00312193
0.00429455
0.00461463
0.0047024
0.0047058
0.00464145
0.00449237
0.00427046
0.0040827
0.00397241
0.00383887
0.0036176
0.00339607
0.00328854
0.00327754
0.00328135
0.00326173
0.00321022
0.00312364
0.00300156
0.00284472
0.0026556
0.00244541
0.00227257
0.00229362
0.00264208
0.00321997
0.00382549
0.00429729
0.00456721
0.0047056
0.00484131
0.00504196
0.00536498
0.00623886
0.00399373
0.00470417
0.00485725
0.0048813
0.00484229
0.00472587
0.00449118
0.00413989
0.00383189
0.00371501
0.00370745
0.00366808
0.00355429
0.0034328
0.00337659
0.00336686
0.00336158
0.00334095
0.00329849
0.00323079
0.00313515
0.00300919
0.00285148
0.0026713
0.00251563
0.00249464
0.00273291
0.00324453
0.00383528
0.00434279
0.00469306
0.00491573
0.00509939
0.00536101
0.00613366
0.0043382
0.00474484
0.00483877
0.00485002
0.00479788
0.00464441
0.00432789
0.0038593
0.00342632
0.00323267
0.00324847
0.00332423
0.00338047
0.00341877
0.00345079
0.00347356
0.00348268
0.00347696
0.00345454
0.00341282
0.00334877
0.00325901
0.00313997
0.00298933
0.00281532
0.0026523
0.00256871
0.00271289
0.00318219
0.00376915
0.00430255
0.0047114
0.00502543
0.00539676
0.00639896
0.00396815
0.00467819
0.00489877
0.00497968
0.00498879
0.0049082
0.00468041
0.00424572
0.00366916
0.0032194
0.00310064
0.00320434
0.00333576
0.00343031
0.0034964
0.00354121
0.00356743
0.00357624
0.00356912
0.00354592
0.00350547
0.00344586
0.00336466
0.00325942
0.00312968
0.00297931
0.00281441
0.00263213
0.00267214
0.00309435
0.00372756
0.00438031
0.00495792
0.00558285
0.00703075
0.00363518
0.00467808
0.00496363
0.00507316
0.00512138
0.00511681
0.00502816
0.00477826
0.00426383
0.00352531
0.00291344
0.00277208
0.00296967
0.00321457
0.00339929
0.00352664
0.00361363
0.00367037
0.00370145
0.00370947
0.00369532
0.00365862
0.00359781
0.00350894
0.00338417
0.00321747
0.00302027
0.00272148
0.00239357
0.00267131
0.00347971
0.00438191
0.00515252
0.00594764
0.00767554
0.00363642
0.0047098
0.00501476
0.0051277
0.00517628
0.00518344
0.0051484
0.00506152
0.00487057
0.00443112
0.00366584
0.00290041
0.00261365
0.00273851
0.00298512
0.003206
0.00337713
0.00350793
0.00360557
0.00367285
0.00371012
0.00371653
0.00368905
0.00361995
0.00349427
0.0032991
0.00305851
0.00273257
0.002277
0.0025634
0.00356882
0.00463133
0.00545045
0.0062575
0.00802836
0.00401569
0.00489186
0.00511806
0.00518273
0.00518311
0.00512682
0.00500037
0.00481358
0.00462392
0.0044221
0.00404618
0.00333823
0.00267623
0.00249932
0.00264775
0.00286706
0.00306582
0.00323578
0.0033819
0.00350632
0.00360848
0.00368399
0.00372301
0.00371049
0.00362694
0.00345863
0.00321931
0.00289627
0.00243607
0.00255577
0.00349267
0.00459319
0.00547131
0.00634471
0.00840363
0.00462961
0.00516149
0.0052908
0.00532068
0.00529861
0.00521451
0.00503757
0.00476103
0.00445996
0.00419822
0.00390973
0.0034012
0.00265973
0.00228912
0.00237641
0.00259971
0.00282609
0.00305123
0.00328506
0.00351176
0.00370141
0.0038368
0.00391609
0.00394055
0.00390437
0.0037961
0.00361096
0.0033261
0.00284534
0.00257314
0.00318429
0.00426851
0.00529586
0.00641623
0.0091136
0.0051978
0.00530077
0.00533262
0.00532818
0.00527797
0.0051466
0.00488318
0.00449006
0.00407298
0.00373429
0.00345392
0.00310292
0.00252462
0.00206641
0.0021365
0.00240607
0.00269723
0.00300943
0.00334834
0.00366303
0.00389774
0.00404595
0.00412782
0.00416178
0.00415492
0.00409587
0.00395657
0.00367659
0.00311716
0.0026147
0.00307605
0.00419546
0.00534214
0.00670619
0.00994564
0.00527397
0.0052858
0.00535582
0.00537422
0.00533152
0.00518559
0.00487821
0.00441233
0.0038789
0.00337544
0.00292582
0.00248656
0.00203912
0.0017609
0.00197285
0.00233679
0.00270901
0.00311424
0.00354144
0.00390567
0.00414347
0.00426806
0.00431585
0.00431375
0.00427827
0.0042019
0.00403526
0.00369702
0.00316098
0.00289879
0.00353556
0.00464459
0.00574602
0.00714587
0.0103017
0.00487867
0.00526837
0.00544362
0.00549754
0.00547669
0.00535581
0.00507785
0.00461414
0.00402346
0.00342479
0.00288681
0.00237875
0.00188183
0.00156974
0.00176256
0.00220326
0.00266013
0.00315127
0.00366645
0.00410854
0.0043888
0.00451523
0.00453693
0.00449146
0.00441293
0.00432394
0.00419205
0.00396354
0.0037214
0.0038329
0.00450441
0.00538162
0.00625524
0.00739256
0.00960197
0.00480629
0.00539392
0.00559699
0.00565964
0.00565367
0.00556892
0.0053655
0.00499211
0.00440823
0.00366851
0.00292173
0.00226798
0.00171108
0.00134394
0.00151831
0.00203134
0.00252569
0.00304717
0.00361244
0.00414493
0.00452335
0.00470207
0.00472341
0.00464494
0.00452547
0.0044382
0.00442671
0.00447767
0.00461757
0.00496426
0.00551819
0.00611059
0.00667966
0.0073508
0.00836955
0.004873
0.00543153
0.0055895
0.00561854
0.0055796
0.00546013
0.00525848
0.00499385
0.0046132
0.00404233
0.00330525
0.002539
0.00183722
0.00124904
0.00106646
0.00156687
0.00216635
0.00273077
0.0033392
0.00396804
0.00452357
0.00489134
0.00503163
0.00498593
0.00483139
0.00466685
0.00460509
0.00471744
0.0050047
0.00542056
0.00587672
0.00628878
0.00663736
0.00696586
0.00735474
0.00550902
0.0057204
0.00574981
0.00571768
0.00562605
0.00544407
0.00519286
0.00492782
0.00461197
0.00415878
0.0035212
0.00276649
0.00202645
0.00136472
0.000921062
0.0010773
0.00170888
0.00227976
0.00285631
0.00349841
0.00417116
0.0047895
0.00524485
0.00547593
0.0054963
0.0053803
0.00523887
0.00518629
0.00528684
0.0055186
0.00579941
0.00605616
0.00626101
0.00641948
0.00657237
0.00585521
0.00567011
0.0055996
0.00552533
0.00538756
0.00514249
0.00484834
0.00459595
0.00435383
0.00404076
0.00358652
0.00296742
0.00226458
0.0015706
0.000969188
0.0007054
0.00110384
0.00176132
0.00230932
0.00287452
0.00349172
0.00414769
0.00479681
0.00536009
0.00576984
0.00600123
0.00608234
0.00607979
0.00606704
0.00608837
0.00614416
0.00620616
0.00623808
0.00618445
0.00594309
0.00595272
0.00567356
0.00560598
0.00553961
0.00540425
0.00515485
0.0048391
0.0045505
0.0042878
0.00399429
0.00362189
0.0031451
0.00257195
0.00195593
0.00135179
0.000837259
0.000682781
0.00111379
0.00170921
0.00221902
0.00272666
0.00325439
0.00381305
0.00439989
0.00498244
0.00551394
0.00595353
0.00627922
0.0064888
0.00659452
0.00661982
0.00658961
0.00650406
0.00628241
0.00573409
0.00522415
0.00533641
0.00541519
0.00543178
0.00536702
0.0051698
0.00483695
0.00447878
0.00418594
0.00392356
0.00362499
0.00325099
0.00279965
0.00229414
0.00177146
0.00124763
0.00078621
0.00062547
0.000988482
0.00152247
0.00201539
0.00248549
0.00294119
0.00338918
0.00384812
0.00432552
0.00481315
0.00528928
0.00572414
0.00608312
0.00632881
0.00643931
0.00643054
0.00629404
0.00599703
0.00478831
0.00538021
0.00558052
0.00566747
0.00568533
0.00559883
0.00532681
0.00486024
0.0043827
0.00401441
0.00370649
0.00338171
0.00300384
0.00257702
0.00212978
0.00168004
0.00122778
0.000793932
0.000565971
0.000764049
0.0011633
0.00159819
0.00203311
0.00245053
0.00283611
0.00320189
0.00356825
0.00394937
0.00434776
0.00475667
0.00516
0.00551561
0.00577666
0.00600009
0.00659517
0.00454348
0.00524901
0.00548423
0.00560028
0.0056672
0.00567735
0.00557288
0.00523912
0.00469722
0.00418784
0.00381179
0.00349639
0.00316669
0.00279103
0.00237802
0.00195089
0.00152946
0.00110314
0.000690538
0.0005925
0.000799654
0.00111201
0.00145993
0.00183684
0.0022229
0.00258674
0.00291378
0.00320713
0.00347816
0.00374153
0.00404007
0.00449537
0.00512803
0.00589557
0.00772753
0.00486824
0.00537116
0.00551806
0.00558276
0.00561533
0.0056164
0.00556178
0.00536758
0.00491549
0.00433374
0.00386116
0.00350819
0.00318969
0.00285139
0.00248052
0.0020822
0.00167415
0.00126272
0.000864756
0.000791956
0.00108177
0.00143671
0.00174661
0.00204352
0.00236596
0.00270039
0.00299994
0.00323497
0.0034032
0.00353559
0.00376515
0.0043397
0.00524298
0.00643377
0.00915874
0.00532104
0.00544255
0.00545507
0.00544485
0.00541278
0.00535599
0.00528015
0.00514223
0.0048254
0.00431809
0.00383361
0.00346827
0.00316058
0.00285366
0.00252612
0.00217414
0.001797
0.00140759
0.00106085
0.00106961
0.00158904
0.00219633
0.00260006
0.00284623
0.00305435
0.00328081
0.00351019
0.00370262
0.00384952
0.00401572
0.00436198
0.00502245
0.00587654
0.00704238
0.00955094
0.00595136
0.00557073
0.00543107
0.00533919
0.00522886
0.00508771
0.00494386
0.00477559
0.00450661
0.00411319
0.00370685
0.00337458
0.00308856
0.00281348
0.00253137
0.00223274
0.0019118
0.00157139
0.00127687
0.00128282
0.00187619
0.00276264
0.00342862
0.00372789
0.00384261
0.00393582
0.00407276
0.00425473
0.00447107
0.00475395
0.00516882
0.0057184
0.00632487
0.00712268
0.00850429
0.0061043
0.00535283
0.00513364
0.00499284
0.00482441
0.00464266
0.00448735
0.00432333
0.0041056
0.00383692
0.00355845
0.00330144
0.00305914
0.00281827
0.00256854
0.00230331
0.00201875
0.0017137
0.00142611
0.00131047
0.00166624
0.00258664
0.00364194
0.00432904
0.00457855
0.00462395
0.0046556
0.00476531
0.00497594
0.00527347
0.00563089
0.00600318
0.00635831
0.00675351
0.00716958
0.00570295
0.00507237
0.0048887
0.00473795
0.00453057
0.00431773
0.00416966
0.00404652
0.00389361
0.00370645
0.00350289
0.00329533
0.00308448
0.00286733
0.00264036
0.00239996
0.00214209
0.00186575
0.00158285
0.0013507
0.00132945
0.00177067
0.002746
0.00389995
0.00474349
0.00512928
0.00524654
0.00529665
0.00539439
0.00556806
0.00578389
0.00598981
0.00615846
0.00630325
0.00639671
0.00500064
0.00486525
0.00479133
0.00468274
0.00448964
0.00422654
0.00399754
0.00385899
0.00375799
0.00364241
0.00349974
0.00333334
0.00314882
0.00294964
0.00273717
0.00251156
0.00227164
0.00201847
0.00175988
0.00151594
0.00132885
0.00129486
0.0016035
0.0024119
0.00356441
0.0045961
0.00523596
0.0055565
0.00570939
0.00580668
0.005889
0.00595331
0.00599196
0.00602859
0.00625602
0.00461157
0.00492522
0.00492983
0.0048776
0.00477435
0.00457591
0.00426317
0.0039459
0.0037365
0.00361333
0.00350923
0.00338674
0.00323776
0.00306463
0.00287147
0.0026613
0.00243352
0.00218953
0.00193873
0.00170481
0.00151752
0.00138193
0.0013117
0.00143848
0.00200676
0.00305468
0.00413885
0.00495574
0.00547111
0.00575321
0.00588866
0.00593611
0.0059432
0.0059972
0.00659731
0.00463363
0.0050064
0.00497608
0.00489799
0.00481478
0.00476448
0.00464314
0.00431693
0.00391964
0.0036474
0.00350433
0.00340313
0.00329363
0.0031606
0.00300175
0.00281743
0.00260685
0.00236825
0.00210463
0.00183769
0.00162257
0.00150826
0.00144713
0.00137935
0.00141221
0.00188684
0.00286769
0.00389692
0.00472604
0.00529841
0.00564359
0.00582807
0.00593508
0.00612178
0.00712252
0.00545625
0.00531705
0.00507091
0.0048455
0.00462847
0.00457834
0.00464916
0.00456253
0.00421643
0.0038218
0.00357196
0.0034315
0.00332362
0.00321328
0.00308741
0.00293844
0.00275904
0.0025413
0.00227878
0.00197656
0.00168086
0.00150545
0.00150342
0.00153024
0.00149147
0.00158044
0.00220267
0.00316511
0.00408275
0.00480965
0.00532038
0.00565861
0.00590431
0.00623895
0.00744203
0.00645625
0.00551333
0.00503646
0.00466508
0.00431658
0.00425322
0.00437645
0.00439734
0.00420576
0.00388673
0.00363452
0.00348085
0.00337068
0.00326947
0.00315602
0.0030177
0.00285082
0.0026491
0.00239582
0.00207658
0.00171492
0.00143198
0.00141377
0.00159458
0.0017061
0.00175069
0.00210757
0.00292906
0.0038372
0.0045879
0.00514411
0.00554373
0.00585444
0.00623919
0.00732984
0.0068925
0.00545778
0.00492089
0.00449057
0.0041022
0.00404657
0.00415134
0.00416356
0.00404316
0.0038427
0.00366608
0.00354359
0.00344533
0.00334545
0.003229
0.0030875
0.00291701
0.00271194
0.00245666
0.00212726
0.00172712
0.00135669
0.00125623
0.00155485
0.00191483
0.00210078
0.00233242
0.00295053
0.00379571
0.00452638
0.0050623
0.00544839
0.00574561
0.00607287
0.00682003
0.0060823
0.00524045
0.0049599
0.00461595
0.0041603
0.00382839
0.00375973
0.00380407
0.00382309
0.0037781
0.00370006
0.0036193
0.00353687
0.0034438
0.00333174
0.00319419
0.00302516
0.0028162
0.00255231
0.0022112
0.00178543
0.00134129
0.00109019
0.00132943
0.00194976
0.00247807
0.00279373
0.00316802
0.00375612
0.00437696
0.00486612
0.00521512
0.0054696
0.00570146
0.00611054
0.00524558
0.00555295
0.00561547
0.00546676
0.00507591
0.00441997
0.00381412
0.00351097
0.00347207
0.00354054
0.00359594
0.00360713
0.00358378
0.00353353
0.00345626
0.00334792
0.00320247
0.00301213
0.00276636
0.00244962
0.00204338
0.0015627
0.0011238
0.00100289
0.00146409
0.00229571
0.0030437
0.00354581
0.00391698
0.00427662
0.00461579
0.00488179
0.00506977
0.00520831
0.0054219
0.00461028
0.00561736
0.00599047
0.006121
0.00608817
0.00578414
0.00506279
0.00415859
0.00345941
0.00318072
0.00323986
0.00338579
0.0034859
0.00352887
0.00352606
0.00348242
0.00339648
0.00326325
0.00307549
0.0028238
0.00249557
0.00207708
0.00158814
0.00114851
0.00102493
0.00145059
0.00230149
0.00321351
0.00389536
0.00428003
0.00450136
0.00465796
0.00475739
0.00479911
0.00493691
0.00446047
0.00549093
0.00595455
0.00621601
0.00640381
0.00651782
0.00644201
0.00589427
0.00481641
0.00365415
0.00301145
0.00298945
0.00319196
0.00336823
0.00347533
0.00352345
0.0035203
0.00346774
0.00336373
0.00320337
0.0029795
0.00268296
0.00230374
0.00185168
0.00141326
0.00118895
0.00138979
0.00202837
0.00288531
0.00364907
0.00411178
0.00433922
0.0044542
0.00449408
0.0047621
0.00463611
0.00551461
0.00583554
0.00597588
0.0060703
0.00618021
0.00633853
0.00647169
0.00625632
0.0052297
0.00377798
0.00297721
0.00294222
0.00316434
0.0033627
0.0034922
0.00356386
0.00358567
0.00356044
0.00348778
0.00336435
0.0031846
0.00294099
0.00262622
0.00224333
0.00183601
0.0015245
0.00147546
0.00179145
0.00241827
0.00312349
0.00362166
0.00391394
0.00413443
0.00486285
0.00553585
0.00605611
0.00613709
0.00611005
0.00604532
0.00596709
0.00590761
0.00592178
0.00597744
0.0057417
0.00468864
0.0034719
0.0030517
0.00317246
0.00338615
0.00353679
0.00363045
0.00368614
0.00370673
0.00369119
0.00363812
0.00354317
0.00340156
0.00320851
0.00295836
0.00264939
0.00229767
0.00196048
0.00174855
0.0017987
0.00219405
0.00278843
0.00327811
0.00377664
0.00511365
0.00683247
0.00644851
0.00616262
0.00595598
0.00581109
0.00575554
0.00571573
0.00560103
0.0054109
0.00510043
0.00446644
0.00366199
0.00335806
0.00347749
0.00362038
0.0037158
0.00378643
0.00383856
0.00386718
0.00386992
0.00384631
0.00379627
0.00371522
0.00359702
0.00343822
0.00323493
0.00298304
0.00268382
0.00235849
0.00207877
0.00200892
0.00234107
0.00290116
0.00363079
0.00534381
0.00816021
0.00655587
0.00584183
0.00538995
0.00520594
0.00527409
0.00532804
0.00521391
0.00490972
0.00447722
0.00404719
0.00380582
0.00381499
0.00388571
0.00394
0.00398314
0.00401834
0.00404345
0.00405529
0.00405172
0.0040314
0.00399289
0.00393379
0.00385086
0.00374086
0.00360002
0.00342296
0.0032025
0.00293054
0.00261332
0.00233798
0.00238441
0.00288785
0.00370064
0.00541054
0.00808902
0.00598074
0.00501325
0.00444227
0.00455029
0.00478974
0.00482311
0.00469945
0.00449915
0.00432153
0.00423443
0.00421243
0.00421289
0.00421825
0.00422399
0.00422872
0.00423052
0.00422727
0.00421709
0.00419841
0.00416968
0.00412945
0.00407595
0.00400703
0.0039201
0.00381176
0.00367693
0.0035075
0.00329091
0.00301553
0.00272297
0.00265704
0.0030675
0.00382292
0.00529241
0.00688568
0.00526273
0.00443957
0.00394747
0.00423109
0.00445667
0.00451448
0.0045184
0.0045013
0.00447985
0.00445939
0.00444128
0.00442567
0.00441051
0.00439483
0.00437796
0.00435896
0.00433675
0.00431024
0.00427845
0.00424048
0.00419532
0.00414151
0.00407761
0.00400176
0.0039112
0.0038012
0.00366381
0.00348675
0.00325858
0.00301221
0.00294296
0.00326099
0.00388114
0.00505386
0.0057775
0.00502525
0.00449574
0.00393341
0.00379246
0.00395983
0.0041513
0.00429568
0.00438059
0.00442371
0.00444336
0.00444972
0.00444738
0.00443861
0.00442461
0.00440588
0.00438254
0.00435452
0.00432159
0.00428346
0.00423982
0.00419049
0.00413515
0.00407303
0.00400333
0.00392456
0.0038332
0.00372213
0.00358013
0.00339906
0.00321199
0.00317008
0.00340015
0.00386788
0.00479947
0.00528726
0.00527369
0.00500941
0.00455046
0.00384511
0.0034678
0.0034942
0.00370617
0.00392813
0.00409337
0.00419944
0.00426387
0.004301
0.00432058
0.00432808
0.00432492
0.00431219
0.0042908
0.00426145
0.00422464
0.00418079
0.00413045
0.00407458
0.00401347
0.00394785
0.00387836
0.00380393
0.00371936
0.00361444
0.00348222
0.00335165
0.00333038
0.00348751
0.00382835
0.00462319
0.00491593
0.00539702
0.00537913
0.00520407
0.00474515
0.00392199
0.00325747
0.00304234
0.00319143
0.00347097
0.00371718
0.00389122
0.00400748
0.00408442
0.00413357
0.00416134
0.00417153
0.00416647
0.00414853
0.00411971
0.00408114
0.00403415
0.00398037
0.00392126
0.00385917
0.00379737
0.00373828
0.00367974
0.0036125
0.00352815
0.00344645
0.00343808
0.00354315
0.00379887
0.00455821
0.00478637
0.0053881
0.0055184
0.00553689
0.00546145
0.00510948
0.00428028
0.00335323
0.00279764
0.00275448
0.00302559
0.00333575
0.00357274
0.00373756
0.00385036
0.0039255
0.00397176
0.00399479
0.00399844
0.0039855
0.00395824
0.00391872
0.0038696
0.0038141
0.003756
0.00370072
0.00365433
0.00361884
0.00358677
0.00354663
0.00350642
0.00350885
0.00358317
0.00379194
0.00459221
0.00481745
0.00536559
0.00550801
0.00557417
0.00562321
0.0056435
0.00548022
0.00480469
0.00373274
0.00280946
0.00247152
0.00266785
0.00301423
0.0032988
0.00349919
0.00363772
0.00373148
0.00379069
0.00382203
0.0038304
0.00381984
0.00379345
0.00375425
0.00370551
0.00365134
0.00360119
0.00356464
0.00354719
0.00354396
0.0035414
0.00353654
0.00355199
0.00361363
0.00380549
0.004692
0.00510359
0.00555622
0.0056534
0.00567346
0.00566775
0.00565693
0.00566452
0.00561616
0.00518181
0.00412589
0.0029036
0.00232381
0.00246104
0.00281751
0.0031184
0.00333008
0.00347679
0.00357677
0.00364026
0.00367385
0.0036825
0.00367036
0.00364142
0.0036003
0.00355327
0.0035086
0.00347823
0.00347309
0.00349175
0.00351922
0.00354353
0.00357361
0.00363503
0.00383064
0.00482036
0.00547933
0.00576983
0.00585733
0.00587897
0.00585629
0.00577639
0.0056373
0.00550722
0.00541119
0.00508421
0.00404122
0.00273128
0.00224837
0.00245391
0.00280122
0.00307139
0.0032581
0.00338866
0.00347843
0.00353445
0.00356132
0.00356309
0.00354398
0.00350927
0.00346652
0.00342662
0.00340268
0.00340604
0.00343847
0.00348674
0.00353382
0.0035794
0.00364888
0.00386047
0.0049418
0.00588252
0.00590315
0.00595679
0.00598964
0.00599462
0.00594647
0.00579568
0.005517
0.00520321
0.00491383
0.00438686
0.00321415
0.00234727
0.00232845
0.00264827
0.00293493
0.00313043
0.0032658
0.00336327
0.00343006
0.00346833
0.00348016
0.00346869
0.00343883
0.00339851
0.00336045
0.00334036
0.0033499
0.00339058
0.00345036
0.00351136
0.00356938
0.00365033
0.00388377
0.00502747
0.00623739
0.00599821
0.00599269
0.00600156
0.00599119
0.00593434
0.005796
0.00553973
0.00514809
0.00466006
0.00405396
0.0031429
0.00238288
0.00235435
0.00265783
0.00292045
0.00309391
0.00321447
0.00330421
0.00336878
0.00340856
0.00342355
0.00341531
0.00338774
0.00334871
0.00331118
0.00329232
0.00330555
0.00335169
0.00341805
0.00348724
0.00355489
0.00364794
0.00390192
0.00505614
0.00650491
0.00609961
0.00606054
0.00604918
0.00600961
0.00589886
0.00568804
0.00539494
0.00501139
0.00448325
0.00375563
0.0028897
0.00233912
0.00243554
0.0027301
0.00294986
0.00309534
0.00319974
0.00327899
0.00333674
0.00337261
0.00338629
0.00337857
0.00335229
0.00331402
0.00327614
0.0032564
0.00326978
0.00331731
0.00338534
0.00345725
0.00353059
0.00363361
0.00390203
0.00501804
0.00658861
0.00609377
0.0060467
0.00603781
0.00599822
0.00587165
0.00562029
0.00527892
0.00487756
0.00436578
0.00365278
0.00280265
0.00232006
0.00248898
0.00276487
0.0029561
0.00308612
0.00318225
0.00325567
0.00330917
0.00334267
0.0033558
0.00334906
0.00332465
0.00328809
0.00325052
0.00322923
0.00324058
0.00328738
0.0033561
0.00343047
0.00350943
0.00362093
0.00389492
0.00493083
0.00650352
0.0060066
0.00596356
0.00595976
0.00592695
0.00580952
0.0055714
0.0052425
0.0048622
0.00440332
0.0037757
0.00295155
0.00232866
0.00243832
0.00271129
0.00290268
0.00303453
0.00313296
0.0032087
0.00326456
0.00330081
0.00331751
0.00331514
0.00329537
0.00326272
0.00322696
0.00320431
0.00321217
0.00325605
0.00332362
0.00339846
0.00347984
0.00359435
0.00386295
0.00480982
0.00631712
0.00591723
0.00590495
0.00591748
0.0058962
0.00578921
0.00556583
0.00526074
0.00492108
0.00453669
0.00403241
0.00330776
0.00249857
0.00230308
0.00255898
0.00277562
0.00292607
0.00303774
0.00312448
0.00319036
0.00323632
0.00326267
0.00326977
0.00325895
0.00323378
0.00320231
0.00317899
0.00318161
0.0032198
0.00328545
0.00336294
0.00344978
0.00356879
0.00383094
0.00469804
0.00604163
0.00580577
0.00585049
0.00589767
0.00590674
0.00582962
0.00562926
0.00533586
0.00501574
0.00468508
0.0042967
0.00374729
0.00295731
0.00229229
0.00234645
0.00258259
0.0027645
0.00289839
0.00300281
0.00308452
0.00314529
0.00318573
0.00320636
0.00320842
0.00319497
0.00317282
0.00315462
0.00315697
0.00319171
0.00325475
0.00333195
0.00341873
0.00353397
0.00377712
0.00456715
0.00574184
0.00569041
0.0057977
0.00588254
0.00593162
0.00590558
0.00575869
0.00549165
0.00517509
0.00486252
0.00454291
0.00414904
0.00355559
0.00272326
0.00223161
0.00234388
0.00255344
0.00271876
0.00284733
0.00295011
0.00303043
0.00308909
0.00312655
0.0031437
0.0031428
0.00312913
0.00311335
0.00311174
0.00313946
0.00319842
0.00327669
0.00336712
0.00348417
0.00372164
0.00449178
0.00551746
0.00561427
0.00576291
0.00587407
0.00595509
0.00597586
0.00589168
0.00567691
0.00537373
0.00505871
0.00476103
0.00445327
0.00405723
0.0034327
0.0025862
0.00220242
0.00231822
0.00250745
0.00266394
0.00279073
0.00289388
0.00297475
0.00303404
0.00307296
0.0030937
0.00310032
0.00310028
0.0031055
0.0031299
0.00318098
0.0032542
0.00334201
0.00345352
0.00367031
0.00437214
0.00544322
0.0055952
0.00575525
0.00587744
0.00597822
0.00603052
0.0059923
0.00583419
0.00556733
0.00525608
0.00495779
0.00467885
0.00438116
0.00397822
0.00332548
0.00250208
0.00218682
0.00229643
0.0024686
0.00261737
0.0027415
0.00284227
0.00291889
0.00297147
0.00300209
0.00301589
0.00302219
0.00303415
0.00306466
0.00311882
0.00319098
0.00327433
0.00337867
0.00358624
0.00432413
0.00550531
0.00560509
0.00574683
0.00586673
0.00597929
0.00605221
0.0060393
0.00591928
0.00569822
0.00541444
0.00512432
0.00485616
0.00459877
0.00430668
0.00388537
0.0031969
0.00243285
0.00219028
0.00229644
0.0024538
0.00259787
0.00272453
0.00283206
0.00291845
0.00298245
0.00302357
0.00304388
0.00305194
0.00306444
0.00309912
0.00316203
0.00324697
0.00335733
0.00356941
0.00427871
0.0056415
0.00561577
0.00571552
0.00582699
0.00595612
0.00605247
0.00605651
0.0059563
0.00576782
0.00551948
0.00525261
0.00499924
0.00476263
0.00451811
0.00420908
0.00373067