/*--------------------------------*- C++ -*----------------------------------*\
| =========                 |                                                 |
| \\      /  F ield         | OpenFOAM: The Open Source CFD Toolbox           |
|  \\    /   O peration     | Version:  v2006                                 |
|   \\  /    A nd           | Website:  www.openfoam.com                      |
|    \\/     M anipulation  |                                                 |
\*---------------------------------------------------------------------------*/
FoamFile
{
    version     2.0;
    format      ascii;
    class       volVectorField;
    location    "35";
    object      U;
}
// * * * * * * * * * * * * * * * * * * * * * * * * * * * * * * * * * * * * * //

dimensions      [0 1 -1 0 0 0 0];


internalField   nonuniform List<vector> 
78750
(
(-0.41677 -0.219349 -0.225208)
(-0.359096 -0.202529 -0.222217)
(-0.351004 -0.172549 -0.208053)
(-0.285136 -0.141179 -0.184132)
(-0.2148 -0.119263 -0.156999)
(-0.225933 -0.109412 -0.151417)
(-0.177497 -0.0975957 -0.134982)
(-0.168876 -0.0903 -0.129885)
(-0.138807 -0.0811488 -0.119231)
(-0.123562 -0.0746133 -0.11386)
(-0.105371 -0.0676726 -0.106633)
(-0.0898962 -0.0619934 -0.100755)
(-0.076045 -0.0568013 -0.0952726)
(-0.0632783 -0.0522035 -0.0903129)
(-0.0517207 -0.0481398 -0.0858756)
(-0.0411648 -0.0445809 -0.0819253)
(-0.0315285 -0.0414871 -0.0784551)
(-0.0227423 -0.0387993 -0.0754939)
(-0.0147456 -0.0364331 -0.0730829)
(-0.00747911 -0.0342801 -0.0712568)
(-0.000889885 -0.03221 -0.0700407)
(0.00506672 -0.030066 -0.0694512)
(0.0104343 -0.0276687 -0.0694917)
(0.015229 -0.0248454 -0.0701338)
(0.0194032 -0.0214658 -0.0713087)
(0.0229092 -0.0174392 -0.0730475)
(0.025693 -0.012686 -0.0752723)
(0.027719 -0.00718591 -0.0779425)
(0.0289155 -0.00102096 -0.0810326)
(0.0291712 0.00554571 -0.0844681)
(0.028374 0.0119796 -0.0879326)
(0.0262841 0.0176131 -0.0904867)
(0.0233379 0.0227524 -0.0900845)
(0.0204446 0.0339746 -0.079248)
(0.0100073 0.0792426 -0.0289683)
(0.0527346 -0.243583 -0.15764)
(-0.0594252 -0.194739 -0.243052)
(-0.0143365 -0.202367 -0.287353)
(-0.0348663 -0.20482 -0.302999)
(-0.0382306 -0.176968 -0.303814)
(-0.035613 -0.141439 -0.297436)
(-0.0341068 -0.11332 -0.289319)
(-0.029684 -0.0932439 -0.279426)
(-0.0249443 -0.0780909 -0.268519)
(-0.0194677 -0.065935 -0.256403)
(-0.0137998 -0.0563543 -0.243509)
(-0.00814611 -0.0488143 -0.230116)
(-0.00261039 -0.04294 -0.216474)
(0.00268546 -0.0384233 -0.202795)
(0.00768453 -0.0350091 -0.189244)
(0.0123439 -0.0325045 -0.175946)
(0.0166325 -0.0307598 -0.162982)
(0.0205371 -0.0296586 -0.150395)
(0.0240588 -0.0291093 -0.138212)
(0.0272114 -0.0290355 -0.126481)
(0.0300181 -0.0293545 -0.115337)
(0.0325042 -0.0299248 -0.10509)
(0.0346782 -0.0304758 -0.0962316)
(0.0365659 -0.0305972 -0.0891386)
(0.0382991 -0.0299598 -0.0835011)
(0.0398398 -0.0283946 -0.0790149)
(0.0410409 -0.0258385 -0.0758522)
(0.0418607 -0.0222599 -0.0743038)
(0.0422315 -0.0176879 -0.0746752)
(0.0418076 -0.0122285 -0.0772621)
(0.0404111 -0.00590076 -0.0820949)
(0.0374392 0.00248724 -0.0903935)
(0.0308136 0.0160625 -0.10578)
(0.020076 0.0448865 -0.120346)
(0.00294224 0.143369 -0.0593566)
(-0.0173635 -0.00076371 -0.124559)
(-0.0232119 -0.0257814 -0.14708)
(-0.0326981 -0.0335055 -0.146309)
(-0.0391026 -0.031446 -0.147498)
(-0.0435234 -0.0295672 -0.152836)
(-0.0445961 -0.0274583 -0.159166)
(-0.0433578 -0.024148 -0.163913)
(-0.0407172 -0.019915 -0.166264)
(-0.0373745 -0.0155098 -0.166196)
(-0.0335624 -0.0113706 -0.163962)
(-0.0294093 -0.00771363 -0.160021)
(-0.0250431 -0.00457864 -0.154737)
(-0.0205704 -0.00195639 -0.148449)
(-0.0160483 0.000170084 -0.141451)
(-0.0115166 0.00181411 -0.133973)
(-0.00701816 0.00298357 -0.126176)
(-0.00260711 0.00367775 -0.118173)
(0.00165005 0.0038848 -0.110059)
(0.00567562 0.00358978 -0.101951)
(0.00938268 0.00279928 -0.0940228)
(0.0126812 0.00158539 -0.0865156)
(0.015488 0.000136373 -0.0797121)
(0.0177452 -0.00121681 -0.0738549)
(0.0194418 -0.00202624 -0.0690527)
(0.0206294 -0.00180937 -0.0652217)
(0.0213805 -0.000203989 -0.0621842)
(0.0217063 0.00300389 -0.0599585)
(0.0216071 0.00792669 -0.0586613)
(0.0211851 0.0148691 -0.0582128)
(0.0205146 0.0251 -0.0583906)
(0.0195023 0.0417472 -0.0597048)
(0.0180883 0.0707014 -0.0647423)
(0.015648 0.11947 -0.0782817)
(0.0113731 0.185646 -0.0923212)
(0.00151187 0.244221 -0.058043)
(-0.00119457 -0.0118568 0.0244641)
(0.0022266 -0.0116085 0.00441712)
(0.00766485 -0.0114033 -0.0104463)
(0.0156122 -0.0101371 -0.0206278)
(0.0249705 -0.00727998 -0.028475)
(0.0347984 -0.00257924 -0.0358502)
(0.0444599 0.00363677 -0.0438181)
(0.0535466 0.0105972 -0.0528455)
(0.0619368 0.0174553 -0.0629219)
(0.0692018 0.0234734 -0.074263)
(0.0747799 0.0277914 -0.0864252)
(0.0786751 0.0299942 -0.0986514)
(0.0811363 0.030101 -0.110136)
(0.0823759 0.0284734 -0.120178)
(0.0825824 0.0256383 -0.128291)
(0.0819368 0.0221276 -0.13423)
(0.0806029 0.0184114 -0.137919)
(0.0787166 0.0148846 -0.139397)
(0.0763894 0.0118659 -0.138774)
(0.0737142 0.00959254 -0.1362)
(0.0707713 0.00820582 -0.131859)
(0.0676288 0.00772904 -0.125973)
(0.0643383 0.00805744 -0.118831)
(0.0609306 0.00899285 -0.110833)
(0.0574173 0.0103408 -0.102518)
(0.0537915 0.0120181 -0.0944976)
(0.0500145 0.0141036 -0.0872847)
(0.046041 0.0168677 -0.0811285)
(0.0418473 0.020786 -0.0759309)
(0.0374837 0.0266964 -0.0713168)
(0.0329168 0.0363115 -0.0664645)
(0.0277809 0.0544898 -0.0603528)
(0.0209209 0.0967841 -0.0535463)
(0.0132545 0.18498 -0.0520706)
(0.00297084 0.267401 -0.0301679)
(-0.00068002 -0.00337485 0.052562)
(0.0055952 -0.0401746 0.0567971)
(0.0147195 -0.0696425 0.0519029)
(0.0257767 -0.0882358 0.048154)
(0.037131 -0.0953304 0.0460162)
(0.0481316 -0.0917786 0.0449462)
(0.0582098 -0.078973 0.0444901)
(0.0668024 -0.0592228 0.044391)
(0.0736331 -0.0352278 0.044479)
(0.0788503 -0.0092432 0.0438697)
(0.0828607 0.0168226 0.0421504)
(0.0856829 0.0416072 0.0388099)
(0.0872562 0.0636018 0.0332613)
(0.0877177 0.08179 0.0253608)
(0.0871255 0.0957434 0.0153553)
(0.0855652 0.105636 0.00374506)
(0.0831452 0.111842 -0.00892029)
(0.0800121 0.114779 -0.0221281)
(0.0763193 0.114814 -0.0354221)
(0.0722318 0.112244 -0.0483192)
(0.0679031 0.107395 -0.0602465)
(0.0634552 0.100746 -0.0705725)
(0.0589823 0.0929852 -0.078754)
(0.0545495 0.0849817 -0.0845396)
(0.0501936 0.0776725 -0.0881114)
(0.0459306 0.0719344 -0.0900652)
(0.0417423 0.0684487 -0.0911905)
(0.0375605 0.0676466 -0.0921229)
(0.0333064 0.0699365 -0.0931439)
(0.0288935 0.0763226 -0.0942426)
(0.024221 0.0896875 -0.0949495)
(0.0191657 0.118875 -0.0933229)
(0.013093 0.186626 -0.0813603)
(0.00704261 0.285886 -0.0550303)
(0.000306603 0.32756 -0.0210661)
(0.00311491 -0.0851978 0.0202397)
(0.0173275 -0.189165 0.0207416)
(0.0303427 -0.230662 0.0180519)
(0.0430111 -0.243565 0.0157684)
(0.0543084 -0.240722 0.0137376)
(0.0641906 -0.22518 0.0112059)
(0.0719158 -0.198667 0.00764955)
(0.0764245 -0.165798 0.00322246)
(0.0777266 -0.131997 -0.000688278)
(0.077312 -0.0999093 -0.00250248)
(0.0768147 -0.0698781 -0.00171459)
(0.0771807 -0.0423682 0.00143091)
(0.0780748 -0.0173015 0.00604301)
(0.0791402 0.00560943 0.01124)
(0.080239 0.0263509 0.0160655)
(0.0812688 0.0445508 0.0195104)
(0.0821481 0.0596146 0.0207649)
(0.08285 0.0715185 0.0197993)
(0.0833401 0.0808707 0.0171436)
(0.0834879 0.0881961 0.0132658)
(0.0831065 0.0936873 0.00845626)
(0.0820369 0.0973603 0.00293156)
(0.0801772 0.0991894 -0.00312734)
(0.0774867 0.0991772 -0.00959136)
(0.073989 0.0974622 -0.0163876)
(0.0697698 0.0945276 -0.0234455)
(0.0649346 0.0913194 -0.0306456)
(0.0595454 0.0889915 -0.0378801)
(0.0535172 0.0885833 -0.0451881)
(0.0467412 0.0910807 -0.0527533)
(0.039479 0.0980206 -0.060718)
(0.0316706 0.114605 -0.0694281)
(0.0222307 0.164994 -0.0764028)
(0.0128396 0.281062 -0.0628631)
(0.00337768 0.34255 -0.0187251)
(0.00532404 -0.180699 0.0145774)
(0.00919519 -0.267358 0.0234473)
(0.010218 -0.276978 0.0259029)
(0.0108366 -0.270394 0.0269775)
(0.011611 -0.251162 0.0275438)
(0.0131791 -0.208906 0.0260244)
(0.0158081 -0.143185 0.0191259)
(0.0176025 -0.0699803 0.00501395)
(0.0165149 -0.00934205 -0.0122484)
(0.0134355 0.0317831 -0.0249826)
(0.0111629 0.0579065 -0.0304969)
(0.0109746 0.0756425 -0.0308435)
(0.012378 0.0899389 -0.028027)
(0.0148335 0.102598 -0.0229084)
(0.0178413 0.113704 -0.0163209)
(0.0210098 0.122892 -0.00955496)
(0.0241122 0.130032 -0.0038888)
(0.0270097 0.135457 0.000103431)
(0.0296133 0.139692 0.00250553)
(0.0318834 0.143106 0.00357187)
(0.0338121 0.145872 0.0034706)
(0.0353883 0.148027 0.0022706)
(0.0365763 0.14953 -2.70347e-05)
(0.0373192 0.150295 -0.00346461)
(0.0375528 0.150267 -0.00809055)
(0.0372042 0.149594 -0.0138924)
(0.0361785 0.148888 -0.0206514)
(0.0344088 0.149152 -0.0279686)
(0.0318509 0.151481 -0.0355551)
(0.028509 0.157078 -0.0435122)
(0.0243939 0.168216 -0.0524566)
(0.0192099 0.191593 -0.0635101)
(0.0120788 0.246909 -0.074595)
(0.00541015 0.34255 -0.067868)
(-0.000207346 0.378459 -0.0259144)
(-0.00516518 -0.171491 0.0370288)
(-0.0142489 -0.253816 0.0505859)
(-0.0202409 -0.274315 0.0496927)
(-0.0243557 -0.277382 0.0476825)
(-0.0277084 -0.268048 0.0451775)
(-0.0287983 -0.238416 0.0417199)
(-0.0246648 -0.184544 0.0367155)
(-0.0160603 -0.112146 0.0266451)
(-0.00547711 -0.0426472 0.00862764)
(0.00409694 0.00351911 -0.0132125)
(0.00923909 0.0248406 -0.0303946)
(0.0108532 0.0357248 -0.039198)
(0.0115715 0.0478383 -0.0418964)
(0.0130735 0.0640768 -0.0404861)
(0.0157814 0.0806401 -0.0365049)
(0.018677 0.0944312 -0.0313517)
(0.0211458 0.106073 -0.02508)
(0.0231268 0.116552 -0.0176505)
(0.0247995 0.125434 -0.0103852)
(0.0263193 0.132343 -0.00469614)
(0.0277254 0.137562 -0.00104345)
(0.0290024 0.14153 0.000686462)
(0.0301001 0.144567 0.000720023)
(0.0309736 0.146878 -0.000738429)
(0.031556 0.148594 -0.00358808)
(0.0317497 0.149952 -0.00770029)
(0.0314718 0.151447 -0.0127887)
(0.0306348 0.153772 -0.0184835)
(0.0291592 0.157759 -0.0245252)
(0.0269964 0.164625 -0.0309373)
(0.0240714 0.177105 -0.038345)
(0.0200495 0.203697 -0.0484527)
(0.0140892 0.267716 -0.0615591)
(0.00795309 0.3634 -0.0627319)
(0.00159441 0.388691 -0.0306483)
(0.0011521 -0.144121 0.0260009)
(0.00552913 -0.245421 0.0403221)
(0.00584276 -0.285488 0.0435071)
(0.00416116 -0.302967 0.0439738)
(0.00179383 -0.310606 0.0440255)
(-0.00033851 -0.311719 0.0446739)
(-0.00143802 -0.301966 0.0468032)
(0.000351368 -0.261829 0.0523128)
(0.00670953 -0.183108 0.0591882)
(0.0150799 -0.0809594 0.0630056)
(0.0231312 0.0276431 0.0535919)
(0.0262583 0.098638 0.0202266)
(0.0237204 0.119081 -0.0145588)
(0.0196128 0.121758 -0.031361)
(0.0152665 0.128843 -0.033144)
(0.0113216 0.144753 -0.024889)
(0.00936282 0.161751 -0.0141214)
(0.00888269 0.17258 -0.00702946)
(0.00906791 0.178766 -0.00327219)
(0.00974691 0.182681 -0.00149872)
(0.0108271 0.185405 -0.00106617)
(0.0121638 0.187406 -0.00171341)
(0.0136218 0.188958 -0.00331374)
(0.0150903 0.190284 -0.00577643)
(0.0164607 0.191612 -0.00900822)
(0.0176198 0.193236 -0.012875)
(0.0184364 0.195549 -0.0171783)
(0.0187928 0.199076 -0.021709)
(0.0185921 0.204511 -0.0263735)
(0.0177262 0.21303 -0.0312634)
(0.016059 0.227398 -0.03688)
(0.0131502 0.255779 -0.0445099)
(0.00823685 0.317272 -0.0541695)
(0.0041501 0.393079 -0.0550808)
(0.000533119 0.401042 -0.0332774)
(-0.000558591 -0.206342 0.0413004)
(0.00138416 -0.283132 0.0500482)
(0.00309766 -0.292867 0.0497149)
(0.00455253 -0.290936 0.0487359)
(0.00539297 -0.282822 0.0469612)
(0.0051234 -0.268764 0.0437277)
(0.00398104 -0.250127 0.0389029)
(0.00269699 -0.229171 0.0332683)
(0.00213593 -0.201867 0.0283505)
(0.00392244 -0.157178 0.028366)
(0.00967129 -0.0840115 0.039631)
(0.0179539 0.0100849 0.0561075)
(0.0249178 0.107921 0.0640268)
(0.0255691 0.17179 0.0463261)
(0.0215256 0.186738 0.0187992)
(0.0168081 0.182172 0.0014413)
(0.012875 0.177883 -0.00451355)
(0.0102106 0.177038 -0.00540939)
(0.00882469 0.178114 -0.00551123)
(0.00835165 0.179796 -0.00638651)
(0.00841395 0.181562 -0.00820062)
(0.00879156 0.183268 -0.0107344)
(0.00938773 0.184926 -0.0137223)
(0.0101362 0.186676 -0.0169396)
(0.0109534 0.188762 -0.0202453)
(0.0117324 0.191503 -0.0235524)
(0.012355 0.195306 -0.026799)
(0.0127065 0.200742 -0.0299393)
(0.012683 0.208748 -0.0329805)
(0.0121854 0.221286 -0.0360556)
(0.0110319 0.243111 -0.0395522)
(0.00880539 0.285079 -0.0441645)
(0.00499126 0.357439 -0.0488712)
(0.00238571 0.415935 -0.0471044)
(0.00054888 0.408735 -0.0325756)
(-0.00136291 -0.18945 0.0239693)
(-0.00354852 -0.297263 0.0239211)
(-0.00467262 -0.3293 0.0236904)
(-0.00527359 -0.340723 0.0247041)
(-0.00558098 -0.343665 0.0269802)
(-0.005603 -0.339711 0.0306397)
(-0.00533478 -0.325443 0.0358751)
(-0.00469097 -0.291987 0.0416258)
(-0.00345988 -0.237725 0.0433303)
(-0.00112407 -0.176745 0.0387853)
(0.00295201 -0.116941 0.0324439)
(0.00929484 -0.0539196 0.0315367)
(0.0181511 0.0192234 0.040412)
(0.0276982 0.0976515 0.0524206)
(0.0356484 0.164246 0.0581437)
(0.0391328 0.208603 0.0534445)
(0.0374449 0.221585 0.037251)
(0.033026 0.217607 0.0194767)
(0.0276181 0.212824 0.00918317)
(0.0232237 0.212859 0.00606066)
(0.0202416 0.215605 0.00445868)
(0.0182777 0.218628 0.00124814)
(0.0168767 0.221286 -0.00383347)
(0.0157776 0.22378 -0.0101077)
(0.0148987 0.226517 -0.0166913)
(0.0141957 0.229967 -0.0228572)
(0.0135918 0.234629 -0.0282344)
(0.012975 0.241085 -0.0327716)
(0.0122086 0.250233 -0.0365891)
(0.0111276 0.263957 -0.0398991)
(0.00947647 0.286949 -0.0429993)
(0.00688818 0.329548 -0.0460121)
(0.00357537 0.394953 -0.0472296)
(0.00176863 0.433765 -0.0439637)
(0.000753499 0.415428 -0.0329605)
(-0.00357492 -0.180429 0.0211663)
(-0.00369074 -0.273911 0.0150484)
(-0.00161488 -0.297483 0.0111187)
(0.00110196 -0.304782 0.00887451)
(0.00407886 -0.305376 0.00728401)
(0.0068372 -0.301543 0.00618837)
(0.00914139 -0.294575 0.0059534)
(0.0112121 -0.285139 0.00752677)
(0.0134929 -0.270547 0.0123897)
(0.0164306 -0.243084 0.0214547)
(0.0201193 -0.196042 0.0316824)
(0.0246246 -0.13437 0.0376893)
(0.0304077 -0.0680424 0.0395223)
(0.0376259 -0.00171752 0.041696)
(0.0456023 0.0621252 0.046836)
(0.0529684 0.122769 0.055671)
(0.0581726 0.184259 0.0690016)
(0.0579269 0.228498 0.0715439)
(0.0529383 0.239715 0.0538544)
(0.0452477 0.228831 0.0247074)
(0.0369487 0.216269 0.00361879)
(0.0309789 0.212845 -0.00345464)
(0.0266217 0.215218 -0.00544621)
(0.023253 0.219464 -0.00800351)
(0.0206609 0.224101 -0.0124135)
(0.0185085 0.229129 -0.0183314)
(0.0165968 0.235174 -0.0248651)
(0.0148087 0.243268 -0.0311184)
(0.0130383 0.255102 -0.0365605)
(0.0111403 0.273964 -0.0410159)
(0.00889786 0.306349 -0.0443598)
(0.00613842 0.360363 -0.0461823)
(0.00328345 0.42486 -0.0452823)
(0.00174567 0.453068 -0.0417092)
(0.000837984 0.426321 -0.0321223)
(-0.00133418 -0.174263 0.00152765)
(0.00441371 -0.321865 -0.0040532)
(0.0105716 -0.370041 -0.00399897)
(0.0168111 -0.385472 -0.00347908)
(0.0230277 -0.388446 -0.00310542)
(0.0292289 -0.382856 -0.00300008)
(0.0348904 -0.368159 -0.00337455)
(0.0395401 -0.34215 -0.00462175)
(0.0426116 -0.304455 -0.00707277)
(0.0439859 -0.260418 -0.00972721)
(0.044378 -0.216226 -0.00944091)
(0.0448478 -0.171253 -0.00348515)
(0.0463336 -0.120382 0.00747142)
(0.0493682 -0.0608372 0.0197493)
(0.0539594 0.00410093 0.0300429)
(0.0593264 0.0689668 0.038182)
(0.0645243 0.13288 0.0484917)
(0.0683741 0.195885 0.0639013)
(0.0696704 0.257509 0.0818412)
(0.0654115 0.294275 0.0825003)
(0.0574415 0.301378 0.0629936)
(0.0471188 0.288562 0.0298352)
(0.0375617 0.272174 0.00197144)
(0.0315236 0.265617 -0.00921912)
(0.0272714 0.265992 -0.0133796)
(0.0237635 0.270092 -0.0164762)
(0.020807 0.276945 -0.0204653)
(0.0181649 0.286453 -0.0257866)
(0.0155631 0.299405 -0.0320926)
(0.012751 0.318351 -0.0386812)
(0.00950822 0.349286 -0.0445786)
(0.00599218 0.398927 -0.0480135)
(0.00312248 0.452158 -0.0472981)
(0.00158909 0.473182 -0.0436891)
(0.000440738 0.437747 -0.0336502)
(0.00422395 -0.212806 -0.00605423)
(0.0177433 -0.353915 -0.00400937)
(0.0277394 -0.395854 -0.00373024)
(0.0352959 -0.406493 -0.00443241)
(0.0419545 -0.405414 -0.00576633)
(0.0481093 -0.396721 -0.00772483)
(0.0532683 -0.380833 -0.0104386)
(0.0571032 -0.357223 -0.0141413)
(0.0593939 -0.325371 -0.0191196)
(0.060016 -0.284787 -0.0257272)
(0.058896 -0.236769 -0.0334548)
(0.0563148 -0.187342 -0.0391365)
(0.0533409 -0.142243 -0.0388733)
(0.0511834 -0.10025 -0.0311429)
(0.0505789 -0.0551509 -0.0168475)
(0.0517995 -0.00191394 0.000735113)
(0.0543576 0.0577287 0.0175527)
(0.0571395 0.118972 0.0334494)
(0.0598016 0.181402 0.052956)
(0.0612375 0.241471 0.0745368)
(0.0592594 0.284631 0.0848917)
(0.0540421 0.299935 0.0741589)
(0.0468727 0.296778 0.0488136)
(0.0381607 0.282737 0.0156953)
(0.0310299 0.271888 -0.00732792)
(0.0261453 0.270121 -0.0178429)
(0.0222826 0.274849 -0.0231149)
(0.0188103 0.285384 -0.0268986)
(0.0156484 0.303229 -0.0308597)
(0.0125955 0.331391 -0.0358608)
(0.00930136 0.373709 -0.0417009)
(0.00575781 0.429652 -0.0462365)
(0.00294151 0.478401 -0.0468071)
(0.00139075 0.495587 -0.0440256)
(0.000165754 0.452284 -0.034018)
(0.00519889 -0.304414 0.00425919)
(0.0124346 -0.441653 0.00983124)
(0.01739 -0.466679 0.00996445)
(0.0210712 -0.467856 0.00915505)
(0.0245699 -0.459959 0.00791326)
(0.0277749 -0.443888 0.00613007)
(0.0302632 -0.416615 0.00325108)
(0.0314475 -0.37367 -0.0017932)
(0.0307589 -0.315264 -0.0103018)
(0.0285199 -0.248035 -0.0230007)
(0.0259891 -0.181302 -0.03834)
(0.0242185 -0.123766 -0.0517025)
(0.0234078 -0.0792527 -0.0589752)
(0.0233002 -0.0441281 -0.0595001)
(0.0236363 -0.0110442 -0.0534398)
(0.0244887 0.0274291 -0.0400884)
(0.0262003 0.0750399 -0.0213295)
(0.0284791 0.128275 -0.00162733)
(0.0308979 0.182031 0.0185302)
(0.0334762 0.23491 0.0416342)
(0.0353529 0.285452 0.0668901)
(0.0342919 0.32005 0.0796511)
(0.0310083 0.33394 0.0733968)
(0.0261488 0.335572 0.0522348)
(0.0202986 0.330055 0.0214931)
(0.0152156 0.324853 -0.00411755)
(0.0113055 0.324745 -0.0193149)
(0.00816202 0.330487 -0.028154)
(0.00546127 0.34349 -0.0341832)
(0.00317902 0.367749 -0.0392116)
(0.00135873 0.407973 -0.0439346)
(-5.6213e-05 0.459687 -0.0473769)
(-0.000879961 0.499627 -0.047667)
(-0.0010963 0.51191 -0.0448481)
(-0.00118727 0.457934 -0.0342372)
(-0.00035536 -0.314617 0.0088906)
(-0.0022811 -0.423966 0.00999878)
(-0.00224218 -0.440577 0.00920313)
(-0.00197564 -0.440751 0.00833824)
(-0.00128584 -0.432754 0.00728412)
(-0.000302501 -0.414891 0.00566067)
(0.000732809 -0.381506 0.00260814)
(0.00151192 -0.330474 -0.00301172)
(0.00182682 -0.271339 -0.0117366)
(0.00167115 -0.216031 -0.022754)
(0.00141523 -0.169481 -0.0339884)
(0.00155758 -0.131163 -0.0431279)
(0.00205993 -0.0987473 -0.0488093)
(0.0026752 -0.0689682 -0.0507218)
(0.00327672 -0.037725 -0.0485763)
(0.00401616 -0.00062802 -0.0415537)
(0.0053219 0.0445296 -0.0297387)
(0.00749256 0.0947988 -0.0153759)
(0.010365 0.145079 3.7844e-05)
(0.0137779 0.193695 0.0177226)
(0.017695 0.242193 0.0399323)
(0.0208722 0.287013 0.062265)
(0.0213316 0.312403 0.068866)
(0.0198257 0.320306 0.0593264)
(0.0171519 0.320659 0.0387436)
(0.014004 0.319358 0.0134044)
(0.0113801 0.321623 -0.00605403)
(0.00928141 0.328992 -0.0186851)
(0.00746069 0.342956 -0.0276301)
(0.00577704 0.367945 -0.0348909)
(0.00419023 0.410006 -0.0410957)
(0.00262612 0.464997 -0.0453703)
(0.00136954 0.506518 -0.0461423)
(0.000609171 0.51883 -0.0435889)
(-0.000289133 0.461957 -0.0333133)
(-0.00490541 -0.279788 0.0141948)
(-0.0086782 -0.4226 0.0177724)
(-0.00949248 -0.451748 0.0187392)
(-0.00903022 -0.457222 0.0191749)
(-0.00798096 -0.452365 0.0195539)
(-0.00625969 -0.435969 0.0198281)
(-0.00362825 -0.402325 0.0197297)
(4.95691e-05 -0.348491 0.018369)
(0.00469285 -0.2801 0.0143654)
(0.00953772 -0.20815 0.00652615)
(0.0131544 -0.143559 -0.00489682)
(0.014657 -0.0923625 -0.0172225)
(0.0141762 -0.053576 -0.0270347)
(0.0125229 -0.022231 -0.0326681)
(0.0105725 0.00622558 -0.0340869)
(0.00900016 0.0347754 -0.0316992)
(0.00822487 0.0653898 -0.0260292)
(0.0085703 0.0988013 -0.0178048)
(0.0101212 0.13429 -0.00767771)
(0.0126784 0.171258 0.00466093)
(0.0160923 0.210793 0.02085)
(0.0201488 0.25432 0.0422162)
(0.0234519 0.297277 0.0631032)
(0.0241057 0.325114 0.0689419)
(0.0224928 0.335622 0.0573501)
(0.0196029 0.338238 0.0338253)
(0.0161813 0.340567 0.00623499)
(0.0132214 0.347899 -0.0140484)
(0.0106083 0.362371 -0.0266005)
(0.00788985 0.388057 -0.0350608)
(0.00500303 0.43093 -0.0412046)
(0.00236933 0.484997 -0.0449251)
(0.000542167 0.523381 -0.0454752)
(-0.000455442 0.533665 -0.043106)
(-0.00129182 0.47128 -0.032823)
(-0.00160044 -0.262666 0.00201077)
(0.00136464 -0.418358 0.000241203)
(0.00405473 -0.458113 0.000820568)
(0.0073396 -0.468199 0.00132935)
(0.0107293 -0.466913 0.00177136)
(0.0142587 -0.456414 0.00234684)
(0.0176585 -0.43485 0.00339005)
(0.0205866 -0.398263 0.00535846)
(0.0228427 -0.345481 0.00900111)
(0.0249425 -0.279783 0.0142909)
(0.0274351 -0.205459 0.0178425)
(0.0296558 -0.131719 0.0148452)
(0.0300546 -0.0714904 0.00505444)
(0.0282201 -0.0291858 -0.00632417)
(0.0249642 0.00145085 -0.0149226)
(0.0212835 0.0280897 -0.0194336)
(0.0180607 0.0547594 -0.0199543)
(0.0159003 0.0824982 -0.0170043)
(0.0149903 0.110984 -0.0112535)
(0.0151993 0.139954 -0.00300564)
(0.0163491 0.170183 0.00834439)
(0.0183591 0.203714 0.0244792)
(0.021007 0.242642 0.0467239)
(0.0229956 0.284239 0.0699087)
(0.0226679 0.316021 0.0783138)
(0.020236 0.333234 0.0654425)
(0.0165914 0.343981 0.0361723)
(0.0125822 0.356882 0.00148882)
(0.00906582 0.37688 -0.0244988)
(0.00580968 0.407408 -0.0393662)
(0.00255956 0.452247 -0.046195)
(-1.49402e-05 0.503649 -0.047907)
(-0.00133442 0.537013 -0.0468382)
(-0.0018066 0.543935 -0.0434803)
(-0.0019002 0.47089 -0.0316068)
(0.0022614 -0.289303 0.000656884)
(0.00991568 -0.457776 0.00457698)
(0.0150829 -0.499653 0.00558084)
(0.0190543 -0.507483 0.00558667)
(0.022786 -0.502221 0.00503834)
(0.0263182 -0.484993 0.00379273)
(0.0291093 -0.450647 0.00102724)
(0.0304205 -0.393572 -0.00489915)
(0.0297006 -0.321873 -0.0135442)
(0.0275712 -0.253077 -0.0187217)
(0.0255876 -0.190053 -0.0152952)
(0.025029 -0.12272 -0.00549698)
(0.0256872 -0.048945 0.00184337)
(0.0255782 0.0164609 0.000528815)
(0.0236459 0.0608558 -0.00592156)
(0.020736 0.0874184 -0.0118883)
(0.0177865 0.105215 -0.0154963)
(0.0151797 0.120322 -0.0167332)
(0.0131506 0.135788 -0.0156648)
(0.0118473 0.153093 -0.0121344)
(0.0112636 0.173059 -0.00572205)
(0.0113478 0.196614 0.0045241)
(0.0121444 0.225386 0.0203388)
(0.0135803 0.260914 0.042815)
(0.0147087 0.30051 0.0663825)
(0.0142297 0.33438 0.0764638)
(0.0120043 0.357405 0.0652808)
(0.00882186 0.375759 0.0373931)
(0.00546171 0.397939 0.00338502)
(0.00255642 0.429174 -0.0248089)
(0.00022531 0.47049 -0.041421)
(-0.00124838 0.513231 -0.0472052)
(-0.00179083 0.539473 -0.0467103)
(-0.0017833 0.542206 -0.0424472)
(-0.00149518 0.459176 -0.0281447)
(0.00402132 -0.341957 0.00418919)
(0.00906323 -0.494212 0.0063637)
(0.0116858 -0.52388 0.00637116)
(0.0131996 -0.526524 0.00652671)
(0.0144026 -0.517752 0.00685893)
(0.0152236 -0.497306 0.00746599)
(0.0154467 -0.459442 0.00792304)
(0.0150443 -0.397663 0.0056613)
(0.0139672 -0.317468 -0.00360799)
(0.0117952 -0.239397 -0.0170567)
(0.0088973 -0.176838 -0.0256896)
(0.00622932 -0.123886 -0.0253427)
(0.00469352 -0.0692503 -0.0182732)
(0.00450835 -0.0118096 -0.0116086)
(0.00511531 0.0386583 -0.0101193)
(0.00589748 0.075939 -0.0121543)
(0.00658146 0.102008 -0.0147207)
(0.00713263 0.12145 -0.0165027)
(0.00760944 0.137849 -0.0171589)
(0.00808563 0.153355 -0.0164879)
(0.00863703 0.169232 -0.0141732)
(0.00933451 0.18644 -0.00968163)
(0.0102745 0.206125 -0.00207021)
(0.0116116 0.229873 0.0100921)
(0.0133686 0.259181 0.0275596)
(0.0149604 0.29373 0.0471523)
(0.0152325 0.329931 0.0602314)
(0.0135963 0.362224 0.0570647)
(0.0108951 0.392401 0.0378361)
(0.00813768 0.427567 0.0103682)
(0.00594069 0.47013 -0.0152252)
(0.00432082 0.51151 -0.0307043)
(0.00317487 0.536464 -0.0357136)
(0.00209501 0.538775 -0.0339973)
(0.00053368 0.455294 -0.0212653)
(0.000816864 -0.36384 0.00869772)
(-0.00111618 -0.497327 0.00608157)
(-0.00241684 -0.518336 0.00458078)
(-0.00376446 -0.517734 0.00423747)
(-0.00498131 -0.505896 0.00474378)
(-0.00596419 -0.480236 0.00630033)
(-0.0065602 -0.433598 0.0088018)
(-0.00638067 -0.362605 0.00994885)
(-0.00539583 -0.276583 0.00483084)
(-0.00446757 -0.192794 -0.00743832)
(-0.00446126 -0.122664 -0.0199464)
(-0.00526989 -0.0647339 -0.0267903)
(-0.00622179 -0.0136577 -0.0276097)
(-0.00648311 0.0308967 -0.0255484)
(-0.0055556 0.0655406 -0.0239254)
(-0.0038274 0.0903499 -0.0235389)
(-0.00182244 0.108765 -0.0238137)
(0.000220885 0.124031 -0.024227)
(0.00221221 0.138174 -0.0244501)
(0.0041135 0.152332 -0.0242221)
(0.00591197 0.167228 -0.0232738)
(0.00762124 0.183516 -0.0212572)
(0.00928467 0.202006 -0.0176381)
(0.0109525 0.22369 -0.011585)
(0.0127031 0.249466 -0.00205606)
(0.014627 0.27989 0.0116131)
(0.0165947 0.315894 0.0288701)
(0.0176978 0.35675 0.0450725)
(0.0172302 0.39421 0.0474474)
(0.0158549 0.429181 0.0341169)
(0.0140381 0.469159 0.0121315)
(0.0115015 0.511915 -0.00830897)
(0.00858512 0.541178 -0.0191835)
(0.0055986 0.546586 -0.0214593)
(0.0018773 0.467997 -0.0132854)
(-0.00296831 -0.34011 0.00670469)
(-0.00734746 -0.476901 0.00106495)
(-0.0096125 -0.502138 -0.000258306)
(-0.0110837 -0.505189 -0.000191608)
(-0.0121945 -0.497723 0.000966557)
(-0.0127057 -0.478951 0.00365926)
(-0.0121661 -0.444172 0.00868575)
(-0.00994066 -0.387681 0.015732)
(-0.00594917 -0.309571 0.0205232)
(-0.00142619 -0.222385 0.0162665)
(0.00173255 -0.144525 0.00329069)
(0.00284353 -0.0835359 -0.0100353)
(0.00310693 -0.0343532 -0.0183377)
(0.00387733 0.00794724 -0.0221257)
(0.00547726 0.0434286 -0.0236784)
(0.00759651 0.0715533 -0.0245202)
(0.009869 0.0935569 -0.0251782)
(0.0120455 0.11147 -0.0257173)
(0.0140138 0.127057 -0.0260769)
(0.0157476 0.141595 -0.0261698)
(0.0172832 0.156013 -0.0258936)
(0.0187112 0.17107 -0.0251214)
(0.0201688 0.187507 -0.023674)
(0.0218237 0.20613 -0.0212602)
(0.0238049 0.227669 -0.0174106)
(0.0261305 0.252497 -0.0114856)
(0.0287961 0.281702 -0.00233081)
(0.0315056 0.320069 0.0134578)
(0.0326095 0.368701 0.0327473)
(0.0309884 0.417295 0.0390641)
(0.0269303 0.467969 0.0285274)
(0.0208236 0.522274 0.00954675)
(0.0143569 0.561702 -0.00430837)
(0.00875438 0.572005 -0.00970335)
(0.0029293 0.496022 -0.00604327)
(-0.00271836 -0.313871 -7.86338e-05)
(-0.00411121 -0.465228 -0.0060831)
(-0.00428082 -0.497725 -0.00750517)
(-0.0037335 -0.504242 -0.00805814)
(-0.00271579 -0.499691 -0.00820393)
(-0.00124739 -0.484807 -0.00776846)
(0.000632221 -0.457013 -0.00582044)
(0.00321442 -0.411896 -0.00026798)
(0.00723289 -0.344976 0.0105502)
(0.013046 -0.25542 0.0222267)
(0.0195905 -0.154272 0.0236125)
(0.0245509 -0.0658084 0.0109012)
(0.0269974 -0.0061762 -0.00533091)
(0.0279219 0.030404 -0.0168641)
(0.0284922 0.0552768 -0.0236558)
(0.0293279 0.0751916 -0.0276619)
(0.0306168 0.0930265 -0.0301547)
(0.032271 0.109812 -0.0317499)
(0.034106 0.125869 -0.0327225)
(0.0359704 0.141252 -0.0331879)
(0.0377755 0.155907 -0.0331977)
(0.0394824 0.169827 -0.0327729)
(0.0410869 0.183301 -0.0318787)
(0.0425989 0.197186 -0.0303509)
(0.0439835 0.213121 -0.027798)
(0.0450602 0.233356 -0.0236289)
(0.045591 0.259702 -0.0173563)
(0.0455437 0.296202 -0.00569602)
(0.043894 0.355632 0.0224309)
(0.038858 0.427359 0.0439822)
(0.0308598 0.49689 0.039075)
(0.0216254 0.560101 0.0197669)
(0.0137584 0.600505 0.0047313)
(0.00753074 0.609013 -0.00275165)
(0.00176879 0.522874 -0.00240238)
(-0.000457701 -0.309791 -0.00640364)
(0.00275795 -0.475098 -0.0107541)
(0.00576705 -0.51495 -0.0118387)
(0.00878676 -0.523699 -0.0127722)
(0.0119953 -0.51984 -0.0140224)
(0.0152872 -0.504714 -0.0158713)
(0.0182812 -0.47642 -0.0183591)
(0.0205938 -0.434841 -0.0203044)
(0.0223779 -0.383048 -0.0179466)
(0.0249236 -0.319513 -0.00657083)
(0.0297921 -0.237128 0.0121597)
(0.0364697 -0.13872 0.0243233)
(0.0421537 -0.0491429 0.0193703)
(0.0454604 0.0132105 0.00529339)
(0.0470496 0.0515786 -0.00799851)
(0.0480772 0.0758213 -0.0177596)
(0.0492573 0.0933112 -0.0247347)
(0.0508285 0.108084 -0.0299331)
(0.0527671 0.121979 -0.0339019)
(0.0548855 0.135619 -0.036866)
(0.0569194 0.149187 -0.0389196)
(0.0585813 0.162979 -0.0400941)
(0.0595788 0.177668 -0.040325)
(0.0596376 0.194376 -0.0393608)
(0.0585192 0.214808 -0.036636)
(0.0560483 0.241044 -0.0313592)
(0.0523961 0.273863 -0.0233384)
(0.0478712 0.315204 -0.0105505)
(0.0423211 0.380613 0.0222547)
(0.0349934 0.466086 0.0522497)
(0.026363 0.544134 0.0477329)
(0.0178581 0.604168 0.0262001)
(0.0113978 0.637033 0.00974213)
(0.00619465 0.63955 0.000262526)
(0.00125395 0.537611 -0.00187529)
(0.0020038 -0.329947 -0.010777)
(0.00828282 -0.501143 -0.0104951)
(0.0131821 -0.542333 -0.00980987)
(0.0172938 -0.55039 -0.0100105)
(0.0213986 -0.544887 -0.0110325)
(0.0255172 -0.526559 -0.0131811)
(0.0292741 -0.490856 -0.0172357)
(0.0321049 -0.435458 -0.0238004)
(0.0336244 -0.370201 -0.0308571)
(0.034293 -0.30679 -0.0331613)
(0.0354035 -0.24217 -0.0248185)
(0.0386501 -0.161943 -0.00517223)
(0.0431947 -0.0691971 0.00946728)
(0.0461359 0.00540939 0.00772887)
(0.0475333 0.0510656 -0.00211665)
(0.0486688 0.0773268 -0.0121355)
(0.0500789 0.0946305 -0.020531)
(0.0517736 0.108862 -0.0276973)
(0.0535715 0.122837 -0.0340446)
(0.0551696 0.138012 -0.0397007)
(0.0562323 0.155399 -0.0446265)
(0.0564717 0.175654 -0.0485991)
(0.0557044 0.198828 -0.0511763)
(0.0538446 0.224568 -0.0517764)
(0.0508694 0.252828 -0.0497079)
(0.0468598 0.28411 -0.044277)
(0.0421762 0.318675 -0.0352427)
(0.0371615 0.358707 -0.0209363)
(0.0321313 0.416419 0.0101188)
(0.0272809 0.495818 0.0455698)
(0.0222406 0.572248 0.0491911)
(0.0165038 0.630467 0.031343)
(0.0114922 0.661942 0.0151191)
(0.00694638 0.663402 0.00477246)
(0.0019907 0.5547 0.000866519)
(0.00334711 -0.366036 -0.00882157)
(0.0101543 -0.53643 -0.00428877)
(0.0153211 -0.574519 -0.00295028)
(0.0193443 -0.58067 -0.00293965)
(0.0230725 -0.573383 -0.00379925)
(0.0263581 -0.553041 -0.00571074)
(0.028813 -0.514634 -0.0094145)
(0.0301653 -0.454608 -0.0160726)
(0.0304594 -0.381692 -0.0252513)
(0.0299585 -0.31185 -0.032824)
(0.0291243 -0.249148 -0.0336031)
(0.029033 -0.180942 -0.0222606)
(0.0313991 -0.0908498 -0.00246984)
(0.0339438 -0.00424907 0.00494736)
(0.0352074 0.0490503 -0.000935197)