/*--------------------------------*- C++ -*----------------------------------*\
| =========                 |                                                 |
| \\      /  F ield         | OpenFOAM: The Open Source CFD Toolbox           |
|  \\    /   O peration     | Version:  v2012                                 |
|   \\  /    A nd           | Website:  www.openfoam.com                      |
|    \\/     M anipulation  |                                                 |
\*---------------------------------------------------------------------------*/
FoamFile
{
    version     2.0;
    format      ascii;
    class       surfaceScalarField;
    location    "34";
    object      phi;
}
// * * * * * * * * * * * * * * * * * * * * * * * * * * * * * * * * * * * * * //

dimensions      [1 0 -1 0 0 0 0];
oriented        oriented;


internalField   nonuniform List<scalar> 
228225
(
-5.99341e-09
8.51161e-09
-2.76641e-09
-2.17069e-08
2.41344e-08
-8.42094e-09
-4.45309e-08
3.30804e-08
-1.02551e-08
-7.34788e-08
4.01317e-08
-1.11841e-08
-1.07268e-07
4.55649e-08
-1.17773e-08
-1.44411e-07
4.93796e-08
-1.22338e-08
-1.83558e-07
5.17748e-08
-1.26288e-08
-2.23339e-07
5.27993e-08
-1.30176e-08
-2.62591e-07
5.26758e-08
-1.34262e-08
-3.00249e-07
5.15603e-08
-1.39007e-08
-3.35498e-07
4.97129e-08
-1.44633e-08
-3.67615e-07
4.72657e-08
-1.51488e-08
-3.96039e-07
4.43855e-08
-1.59631e-08
-4.20237e-07
4.11187e-08
-1.69166e-08
-4.39837e-07
3.7592e-08
-1.79953e-08
-4.54511e-07
3.38809e-08
-1.92046e-08
-4.6414e-07
3.00857e-08
-2.04562e-08
-4.68591e-07
2.62334e-08
-2.1786e-08
-4.67838e-07
2.24043e-08
-2.31563e-08
-4.61935e-07
1.86285e-08
-2.45266e-08
-4.51028e-07
1.49508e-08
-2.58621e-08
-4.35287e-07
1.13936e-08
-2.71327e-08
-4.1497e-07
7.98663e-09
-2.8306e-08
-3.90363e-07
4.74705e-09
-2.93533e-08
-3.61812e-07
1.69704e-09
-3.0246e-08
-3.2971e-07
-1.14622e-09
-3.09576e-08
-2.94482e-07
-3.76349e-09
-3.14626e-08
-2.56625e-07
-6.1237e-09
-3.1735e-08
-2.16684e-07
-8.19367e-09
-3.1748e-08
-1.75293e-07
-9.92437e-09
-3.14646e-08
-1.33223e-07
-1.12511e-08
-3.08204e-08
-9.14934e-08
-1.20658e-08
-2.96623e-08
-5.1754e-08
-1.2168e-08
-2.75716e-08
-1.72053e-08
-1.12259e-08
-2.33251e-08
-6.98212e-09
-1.02217e-08
-1.75126e-08
4.62186e-08
-2.01945e-08
-5.62458e-08
8.42519e-08
-2.13845e-08
-1.02075e-07
1.01013e-07
-2.21035e-08
-1.50899e-07
1.12233e-07
-2.32764e-08
-1.99752e-07
1.18843e-07
-2.44258e-08
-2.46517e-07
1.2161e-07
-2.54655e-08
-2.8948e-07
1.21191e-07
-2.64526e-08
-3.27395e-07
1.1812e-07
-2.7407e-08
-3.59512e-07
1.13141e-07
-2.83481e-08
-3.85695e-07
1.06994e-07
-2.92516e-08
-4.06068e-07
1.00191e-07
-3.01033e-08
-4.20904e-07
9.29781e-08
-3.08795e-08
-4.30439e-07
8.55126e-08
-3.15891e-08
-4.35051e-07
7.79672e-08
-3.22389e-08
-4.3509e-07
7.04668e-08
-3.28357e-08
-4.30947e-07
6.31097e-08
-3.33702e-08
-4.22982e-07
5.59685e-08
-3.38477e-08
-4.11594e-07
4.9107e-08
-3.42633e-08
-3.97149e-07
4.25817e-08
-3.46223e-08
-3.80014e-07
3.64175e-08
-3.49224e-08
-3.60534e-07
3.06331e-08
-3.51645e-08
-3.3903e-07
2.52377e-08
-3.53465e-08
-3.15811e-07
2.02351e-08
-3.54682e-08
-2.91162e-07
1.56253e-08
-3.55271e-08
-2.65351e-07
1.14048e-08
-3.55201e-08
-2.38625e-07
7.56987e-09
-3.54418e-08
-2.11221e-07
4.11666e-09
-3.52839e-08
-1.83356e-07
1.04351e-09
-3.50331e-08
-1.55244e-07
-1.63924e-09
-3.46669e-08
-1.27096e-07
-3.91866e-09
-3.41523e-08
-9.91351e-08
-5.76365e-09
-3.34488e-08
-7.1596e-08
-7.10738e-09
-3.24977e-08
-4.4852e-08
-7.83277e-09
-3.10795e-08
-1.99435e-08
-7.58976e-09
-2.85455e-08
-4.18564e-09
-2.27395e-08
-1.73769e-08
6.73116e-08
-3.71659e-09
-4.19596e-08
1.1345e-07
-4.61474e-09
-6.85828e-08
1.32782e-07
-5.14501e-09
-9.55878e-08
1.45123e-07
-5.88642e-09
-1.21709e-07
1.51774e-07
-6.80776e-09
-1.45983e-07
1.53844e-07
-7.96045e-09
-1.67587e-07
1.52132e-07
-9.3393e-09
-1.85973e-07
1.47521e-07
-1.10118e-08
-2.00844e-07
1.40994e-07
-1.29839e-08
-2.12067e-07
1.33387e-07
-1.51686e-08
-2.19763e-07
1.2518e-07
-1.72944e-08
-2.24209e-07
1.16613e-07
-1.91881e-08
-2.25775e-07
1.0787e-07
-2.07914e-08
-2.24857e-07
9.92171e-08
-2.21678e-08
-2.21821e-07
9.07669e-08
-2.33362e-08
-2.16966e-07
8.26007e-08
-2.43462e-08
-2.10561e-07
7.47727e-08
-2.52097e-08
-2.02827e-07
6.73165e-08
-2.59445e-08
-1.9397e-07
6.02783e-08
-2.6553e-08
-1.84173e-07
5.36746e-08
-2.70533e-08
-1.73608e-07
4.7516e-08
-2.74504e-08
-1.624e-07
4.17886e-08
-2.7756e-08
-1.50679e-07
3.64879e-08
-2.7974e-08
-1.38562e-07
3.16168e-08
-2.81119e-08
-1.26146e-07
2.71635e-08
-2.81723e-08
-1.13528e-07
2.31095e-08
-2.81582e-08
-1.00782e-07
1.94395e-08
-2.80686e-08
-8.79737e-08
1.61347e-08
-2.7899e-08
-7.51579e-08
1.31825e-08
-2.76388e-08
-6.23772e-08
1.05712e-08
-2.72688e-08
-4.9681e-08
8.29722e-09
-2.6759e-08
-3.71043e-08
6.36481e-09
-2.6047e-08
-2.47321e-08
4.78531e-09
-2.49924e-08
-1.26412e-08
3.57295e-09
-2.32491e-08
2.36373e-09
-1.91936e-08
-1.60624e-08
6.79073e-08
1.54687e-08
-2.70551e-08
1.09182e-07
1.52581e-08
-3.57237e-08
1.26987e-07
1.44647e-08
-4.32294e-08
1.38879e-07
1.37507e-08
-5.0322e-08
1.45987e-07
1.28778e-08
-5.7425e-08
1.49137e-07
1.18113e-08
-6.48081e-08
1.49067e-07
1.04461e-08
-7.24285e-08
1.46559e-07
8.58429e-09
-7.97984e-08
1.42297e-07
6.06722e-09
-8.62133e-08
1.36721e-07
3.07874e-09
-9.10744e-08
1.30186e-07
-1.41931e-10
-9.41454e-08
1.22947e-07
-3.26488e-09
-9.5435e-08
1.15274e-07
-6.11342e-09
-9.51258e-08
1.07445e-07
-8.53689e-09
-9.34886e-08
9.97119e-08
-1.05835e-08
-9.07932e-08
9.22563e-08
-1.23511e-08
-8.73191e-08
8.51968e-08
-1.38973e-08
-8.32971e-08
7.85515e-08
-1.52586e-08
-7.88831e-08
7.23294e-08
-1.64636e-08
-7.42295e-08
6.65351e-08
-1.75142e-08
-6.94515e-08
6.11659e-08
-1.84282e-08
-6.46488e-08
5.61962e-08
-1.92109e-08
-5.98974e-08
5.16125e-08
-1.98749e-08
-5.52704e-08
4.7409e-08
-2.04203e-08
-5.08018e-08
4.35517e-08
-2.08567e-08
-4.65162e-08
4.00105e-08
-2.11877e-08
-4.24043e-08
3.67481e-08
-2.14197e-08
-3.84398e-08
3.37253e-08
-2.15552e-08
-3.45515e-08
3.08897e-08
-2.15959e-08
-3.06302e-08
2.81869e-08
-2.15369e-08
-2.65074e-08
2.5542e-08
-2.13681e-08
-2.19265e-08
2.28778e-08
-2.10926e-08
-1.64343e-08
2.0064e-08
-2.07724e-08
-9.50373e-09
1.70001e-08
-2.03598e-08
1.13007e-08
-1.8439e-08
-1.2549e-08
5.84673e-08
2.19911e-08
-1.4273e-08
8.90036e-08
2.18997e-08
-1.15008e-08
1.03104e-07
2.1111e-08
-6.69197e-09
1.13395e-07
2.06743e-08
-1.19608e-09
1.20365e-07
2.01267e-08
4.15249e-09
1.24595e-07
1.91936e-08
8.77756e-09
1.26585e-07
1.78553e-08
1.24965e-08
1.26725e-07
1.61155e-08
1.53922e-08
1.25341e-07
1.40604e-08
1.76248e-08
1.2272e-07
1.17668e-08
1.93673e-08
1.19104e-07
9.33962e-09
2.07592e-08
1.14717e-07
6.83983e-09
2.19099e-08
1.09769e-07
4.35416e-09
2.29204e-08
1.04479e-07
1.95442e-09
2.38602e-08
9.90544e-08
-2.8038e-10
2.4693e-08
9.36959e-08
-2.27321e-09
2.53626e-08
8.85619e-08
-4.03402e-09
2.57901e-08
8.37252e-08
-5.60258e-09
2.5907e-08
7.92108e-08
-6.99819e-09
2.56447e-08
7.50333e-08
-8.23626e-09
2.49484e-08
7.11887e-08
-9.32513e-09
2.37674e-08
6.76551e-08
-1.02789e-08
2.20737e-08
6.44086e-08
-1.11021e-08
1.9869e-08
6.14185e-08
-1.1806e-08
1.7177e-08
5.86422e-08
-1.23969e-08
1.40397e-08
5.60338e-08
-1.28857e-08
1.05241e-08
5.35414e-08
-1.32786e-08
6.74278e-09
5.10934e-08
-1.35877e-08
2.84914e-09
4.86054e-08
-1.38213e-08
-9.44644e-10
4.59694e-08
-1.39885e-08
-4.35917e-09
4.30491e-08
-1.40939e-08
-6.95876e-09
3.96657e-08
-1.41862e-08
-8.00825e-09
3.55677e-08
-1.44551e-08
-6.43558e-09
3.045e-08
-1.5023e-08
1.9636e-08
-1.47701e-08
-6.20866e-09
4.69751e-08
1.76998e-08
-4.59296e-09
7.00056e-08
1.73833e-08
8.92053e-10
8.10105e-08
1.66068e-08
8.67088e-09
8.94288e-08
1.61868e-08
1.78054e-08
9.55713e-08
1.56598e-08
2.76596e-08
9.98353e-08
1.4905e-08
3.76978e-08
1.02607e-07
1.39409e-08
4.7475e-08
1.0412e-07
1.28269e-08
5.66298e-08
1.04603e-07
1.15829e-08
6.48729e-08
1.04233e-07
1.0245e-08
7.19676e-08
1.03178e-07
8.83028e-09
7.77393e-08
1.01572e-07
7.37234e-09
8.20713e-08
9.95489e-08
5.88771e-09
8.49309e-08
9.72147e-08
4.40484e-09
8.63682e-08
9.46771e-08
2.93977e-09
8.65072e-08
9.20341e-08
1.52101e-09
8.55276e-08
8.93793e-08
1.64343e-10
8.3548e-08
8.67814e-08
-1.07838e-09
8.06856e-08
8.42931e-08
-2.21816e-09
7.70162e-08
8.19474e-08
-3.24656e-09
7.26198e-08
7.97543e-08
-4.16749e-09
6.75549e-08
7.77038e-08
-4.98476e-09
6.18933e-08
7.57734e-08
-5.70346e-09
5.57024e-08
7.39364e-08
-6.32556e-09
4.90514e-08
7.21506e-08
-6.85961e-09
4.20311e-08
7.03674e-08
-7.31335e-09
3.47513e-08
6.85181e-08
-7.69674e-09
2.73499e-08
6.65171e-08
-8.02156e-09
2.00073e-08
6.42487e-08
-8.29988e-09
1.29474e-08
6.15715e-08
-8.54548e-09
6.47072e-09
5.82895e-08
-8.75999e-09
9.79356e-10
5.41495e-08
-8.99441e-09
-2.78669e-09
4.88036e-08
-9.46973e-09
-3.82451e-09
4.1836e-08
-1.0349e-08
2.66216e-08
-1.08095e-08
-3.09769e-09
3.87232e-08
1.13486e-08
-1.99447e-09
5.86793e-08
1.02253e-08
1.8621e-09
6.80575e-08
9.09463e-09
7.49611e-09
7.53136e-08
8.48199e-09
1.42191e-08
8.08308e-08
8.01699e-09
2.15844e-08
8.49731e-08
7.49686e-09
2.92455e-08
8.80355e-08
6.91062e-09
3.68799e-08
9.02232e-08
6.26212e-09
4.42189e-08
9.16988e-08
5.56678e-09
5.10232e-08
9.26015e-08
4.82807e-09
5.71023e-08
9.30382e-08
4.05834e-09
6.23155e-08
9.31e-08
3.26019e-09
6.65516e-08
9.28642e-08
2.44979e-09
6.97299e-08
9.24001e-08
1.63532e-09
7.18094e-08
9.17673e-08
8.30806e-10
7.27865e-08
9.10173e-08
3.96652e-11
7.26897e-08
9.01892e-08
-7.12939e-10
7.15811e-08
8.93193e-08
-1.42948e-09
6.95422e-08
8.84339e-08
-2.1015e-09
6.66652e-08
8.75461e-08
-2.72248e-09
6.30423e-08
8.6662e-08
-3.28397e-09
5.87564e-08
8.57742e-08
-3.78504e-09
5.38859e-08
8.48686e-08
-4.22323e-09
4.8509e-08
8.39152e-08
-4.60274e-09
4.27086e-08
8.28763e-08
-4.9253e-09
3.6581e-08
8.16934e-08
-5.19799e-09
3.02316e-08
8.02948e-08
-5.42577e-09
2.37872e-08
7.85781e-08
-5.61892e-09
1.74098e-08
7.6414e-08
-5.78641e-09
1.12967e-08
7.36246e-08
-5.93939e-09
5.69532e-09
6.99762e-08
-6.08655e-09
9.66389e-10
6.51555e-08
-6.27621e-09
-2.29618e-09
5.87367e-08
-6.67231e-09
-3.22668e-09
5.01636e-08
-7.39525e-09
3.11937e-08
-7.79923e-09
-3.3943e-10
3.29141e-08
6.14926e-09
2.52795e-10
5.28826e-08
5.204e-09
1.76998e-09
6.21706e-08
4.36958e-09
3.92373e-09
6.92811e-08
3.87771e-09
6.47876e-09
7.4764e-08
3.51214e-09
9.31195e-09
7.89939e-08
3.14764e-09
1.23412e-08
8.22563e-08
2.74939e-09
1.54729e-08
8.47645e-08
2.32464e-09
1.86182e-08
8.66811e-08
1.87356e-09
2.16828e-08
8.81316e-08
1.40453e-09
2.45873e-08
8.92137e-08
9.20165e-10
2.72514e-08
9.00059e-08
4.30498e-10
2.96031e-08
9.05703e-08
-5.88949e-11
3.15749e-08
9.09583e-08
-5.29128e-10
3.31164e-08
9.12098e-08
-9.84358e-10
3.41886e-08
9.13577e-08
-1.41392e-09
3.47653e-08
9.1428e-08
-1.81367e-09
3.48225e-08
9.14402e-08
-2.17917e-09
3.43638e-08
9.1401e-08
-2.50814e-09
3.33914e-08
9.13142e-08
-2.79605e-09
3.19255e-08
9.11733e-08
-3.04534e-09
2.99868e-08
9.09665e-08
-3.25436e-09
2.76145e-08
9.06691e-08
-3.42765e-09
2.48454e-08
9.02492e-08
-3.56597e-09
2.17384e-08
8.96584e-08
-3.67572e-09
1.83576e-08
8.88361e-08
-3.7597e-09
1.47815e-08
8.76959e-08
-3.82595e-09
1.11092e-08
8.6129e-08
-3.8793e-09
7.47011e-09
8.39842e-08
-3.92926e-09
4.00464e-09
8.10678e-08
-3.98023e-09
9.10636e-10
7.7112e-08
-4.04029e-09
-1.56852e-09
7.17704e-08
-4.13703e-09
-3.01418e-09
6.4561e-08
-4.37726e-09
-2.88122e-09
5.48538e-08
-4.82528e-09
3.3331e-08
-5.01725e-09
-8.50826e-10
3.00439e-08
3.71731e-09
-1.27333e-09
5.00817e-08
3.22772e-09
-1.30328e-09
5.93964e-08
2.80367e-09
-1.10257e-09
6.65403e-08
2.53921e-09
-7.10891e-10
7.20504e-08
2.32348e-09
-1.37907e-10
7.63247e-08
2.09472e-09
6.1648e-10
7.96573e-08
1.8454e-09
1.53286e-09
8.2271e-08
1.57615e-09
2.58673e-09
8.43327e-08
1.29525e-09
3.7435e-09
8.59703e-08
1.00431e-09
4.96363e-09
8.72813e-08
7.12026e-10
6.20854e-09
8.8341e-08
4.20755e-10
7.43206e-09
8.92074e-08
1.38689e-10
8.59181e-09
8.99253e-08
-1.27077e-10
9.64171e-09
9.05286e-08
-3.6807e-10
1.05464e-08
9.10423e-08
-5.87663e-10
1.12663e-08
9.14836e-08
-7.77995e-10
1.17835e-08
9.18626e-08
-9.40006e-10
1.20723e-08
9.21827e-08
-1.06876e-09
1.2113e-08
9.24398e-08
-1.16752e-09
1.18983e-08
9.26229e-08
-1.23417e-09
1.14249e-08
9.27144e-08
-1.27438e-09
1.06943e-08
9.26877e-08
-1.28812e-09
9.72119e-09
9.25044e-08
-1.28222e-09
8.52619e-09
9.21126e-08
-1.25845e-09
7.14402e-09
9.14435e-08
-1.22568e-09
5.61941e-09
9.04076e-08
-1.18705e-09
4.01501e-09
8.88864e-08
-1.15252e-09
2.40203e-09
8.6724e-08
-1.12619e-09
8.71087e-10
8.3715e-08
-1.11742e-09
-4.71242e-10
7.95844e-08
-1.12939e-09
-1.48682e-09
7.39702e-08
-1.18496e-09
-1.96075e-09
6.63803e-08
-1.34516e-09
-1.61807e-09
5.61596e-08
-1.648e-09
3.35565e-08
-1.84407e-09
-1.63461e-09
2.83905e-08
3.28834e-09
-3.22257e-09
4.83444e-08
3.3244e-09
-4.66472e-09
5.75816e-08
3.25868e-09
-5.96812e-09
6.46358e-08
3.20573e-09
-7.09597e-09
7.00562e-08
3.12241e-09
-8.0204e-09
7.42453e-08
3.00435e-09
-8.7171e-09
7.7502e-08
2.85266e-09
-9.17664e-09
8.00515e-08
2.67846e-09
-9.39387e-09
8.20639e-08
2.48596e-09
-9.37665e-09
8.36677e-08
2.28546e-09
-9.13817e-09
8.49618e-08
2.08045e-09
-8.69839e-09
8.60208e-08
1.88104e-09
-8.08403e-09
8.69032e-08
1.69005e-09
-7.32626e-09
8.76518e-08
1.51672e-09
-6.46323e-09
8.83006e-08
1.36232e-09
-5.52486e-09
8.8872e-08
1.2343e-09
-4.55666e-09
8.93815e-08
1.13276e-09
-3.59187e-09
8.98358e-08
1.06305e-09
-2.66927e-09
9.02369e-08
1.02189e-09
-1.81894e-09
9.05777e-08
1.01253e-09
-1.07012e-09
9.08459e-08
1.02933e-09
-4.49643e-10
9.10188e-08
1.07304e-09
3.73125e-11
9.10676e-08
1.13581e-09
3.74998e-10
9.09501e-08
1.21523e-09
5.70916e-10
9.0614e-08
1.30193e-09
6.35594e-10
8.9988e-08
1.39356e-09
5.79352e-10
8.89823e-08
1.47932e-09
4.33681e-10
8.74777e-08
1.55566e-09
2.25393e-10
8.53205e-08
1.61095e-09
-7.41286e-12
8.23074e-08
1.64147e-09
-2.3073e-10
7.8171e-08
1.6354e-09
-3.96686e-10
7.25569e-08
1.58043e-09
-4.37535e-10
6.49903e-08
1.42964e-09
-2.74012e-10
5.48358e-08
1.16298e-09
3.24706e-08
8.10495e-10
-2.46966e-09
2.73366e-08
3.52346e-09
-4.77818e-09
4.66753e-08
3.9775e-09
-6.96517e-09
5.5605e-08
4.16328e-09
-8.98815e-09
6.24042e-08
4.25427e-09
-1.07969e-08
6.76001e-08
4.26511e-09
-1.23537e-08
7.15864e-08
4.21523e-09
-1.36298e-08
7.4656e-08
4.12243e-09
-1.4604e-08
7.70323e-08
3.99468e-09
-1.5269e-08
7.88816e-08
3.84537e-09
-1.56146e-08
8.03341e-08
3.68035e-09
-1.56513e-08
8.14864e-08
3.51163e-09
-1.53906e-08
8.2416e-08
3.34372e-09
-1.48551e-08
8.31793e-08
3.1874e-09
-1.4069e-08
8.38229e-08
3.04558e-09
-1.30762e-08
8.4378e-08
2.92734e-09
-1.19085e-08
8.48706e-08
2.83343e-09
-1.06103e-08
8.5314e-08
2.7707e-09
-9.22973e-09
8.57179e-08
2.7372e-09
-7.81103e-09
8.60808e-08
2.73713e-09
-6.39668e-09
8.63982e-08
2.76563e-09
-5.03134e-09
8.66539e-08
2.82406e-09
-3.74008e-09
8.68265e-08
2.90523e-09
-2.56509e-09
8.68813e-08
3.00847e-09
-1.51722e-09
8.67789e-08
3.12414e-09
-6.14751e-10
8.64626e-08
3.24937e-09
1.3403e-10
8.58657e-08
3.3728e-09
7.28446e-10
8.48967e-08
3.49033e-09
1.17342e-09
8.34435e-08
3.58942e-09
1.47501e-09
8.13556e-08
3.66488e-09
1.63446e-09
7.84427e-08
3.70335e-09
1.65909e-09
7.44495e-08
3.69834e-09
1.5416e-09
6.90448e-08
3.62904e-09
1.28677e-09
6.17828e-08
3.46294e-09
8.85364e-10
5.20717e-08
3.1638e-09
3.07504e-08
2.60675e-09
-2.63285e-09
2.65413e-08
3.4259e-09
-5.17358e-09
4.51136e-08
4.10455e-09
-7.64713e-09
5.36641e-08
4.41414e-09
-9.95997e-09
6.0144e-08
4.57392e-09
-1.2044e-08
6.50629e-08
4.62116e-09
-1.38514e-08
6.8796e-08
4.59661e-09
-1.5341e-08
7.16308e-08
4.51687e-09
-1.64896e-08
7.37817e-08
4.39824e-09
-1.72751e-08
7.54158e-08
4.24945e-09
-1.76824e-08
7.6659e-08
4.08453e-09
-1.77181e-08
7.76115e-08
3.91057e-09
-1.7392e-08
7.8349e-08
3.74005e-09
-1.67237e-08
7.89335e-08
3.57835e-09
-1.57475e-08
7.94099e-08
3.43622e-09
-1.45014e-08
7.98155e-08
3.31687e-09
-1.30334e-08
8.01741e-08
3.2287e-09
-1.13966e-08
8.05046e-08
3.17213e-09
-9.64651e-09
8.08139e-08
3.15265e-09
-7.83602e-09
8.11047e-08
3.16749e-09
-6.02482e-09
8.1368e-08
3.21899e-09
-4.26358e-09
8.15911e-08
3.30114e-09
-2.59892e-09
8.17483e-08
3.41326e-09
-1.0726e-09
8.18093e-08
3.54644e-09
2.78581e-10
8.1729e-08
3.69743e-09
1.43171e-09
8.14552e-08
3.85503e-09
2.36807e-09
8.09162e-08
4.01411e-09
3.07532e-09
8.00272e-08
4.16186e-09
3.55202e-09
7.86749e-08
4.29183e-09
3.79687e-09
7.67203e-08
4.38991e-09
3.8134e-09
7.39782e-08
4.44856e-09
3.59622e-09
7.02143e-08
4.45188e-09
3.1435e-09
6.51132e-08
4.38511e-09
2.45003e-09
5.82672e-08
4.20807e-09
1.51785e-09
4.91224e-08
3.88227e-09
2.90738e-08
3.19409e-09
-2.27831e-09
2.62122e-08
2.60591e-09
-4.69222e-09
4.42409e-08
3.28949e-09
-7.15586e-09
5.25132e-08
3.61254e-09
-9.52124e-09
5.87469e-08
3.76433e-09
-1.16917e-08
6.34334e-08
3.79852e-09
-1.35904e-08
6.69403e-08
3.75429e-09
-1.51593e-08
6.95477e-08
3.65415e-09
-1.63593e-08
7.14705e-08
3.50916e-09
-1.71495e-08
7.28732e-08
3.33403e-09
-1.75164e-08
7.38865e-08
3.13837e-09
-1.74507e-08
7.46109e-08
2.93616e-09
-1.69674e-08
7.5129e-08
2.7358e-09
-1.60864e-08
7.5504e-08
2.54978e-09
-1.48501e-08
7.57885e-08
2.38439e-09
-1.33043e-08
7.602e-08
2.24978e-09
-1.15098e-08
7.62296e-08
2.14936e-09
-9.52864e-09
7.64353e-08
2.09018e-09
-7.43897e-09
7.66496e-08
2.07219e-09
-5.30409e-09
7.68726e-08
2.09884e-09
-3.20199e-09
7.70993e-08
2.16634e-09
-1.197e-09
7.73121e-08
2.27443e-09
6.47377e-10
7.74881e-08
2.41571e-09
2.27915e-09
7.75905e-08
2.58655e-09
3.65521e-09
7.75765e-08
2.77646e-09
4.74433e-09
7.7387e-08
2.97911e-09
5.52579e-09
7.6953e-08
3.18176e-09
5.99309e-09
7.61842e-08
3.37629e-09
6.14736e-09
7.49726e-08
3.54872e-09
6.00055e-09
7.31771e-08
3.68999e-09
5.5696e-09
7.06227e-08
3.78566e-09
4.88005e-09
6.70799e-08
3.82561e-09
3.95156e-09
6.22516e-08
3.78909e-09
2.82778e-09
5.57478e-08
3.64288e-09
1.56453e-09
4.7049e-08
3.33773e-09
2.79635e-08
2.67422e-09
-1.57296e-09
2.65876e-08
1.19628e-09
-3.67258e-09
4.46242e-08
1.71796e-09
-5.99579e-09
5.28663e-08
1.97001e-09
-8.33902e-09
5.90285e-08
2.06257e-09
-1.05582e-08
6.36073e-08
2.04275e-09
-1.25372e-08
6.69712e-08
1.95034e-09
-1.41994e-08
6.94074e-08
1.80104e-09
-1.54716e-08
7.11336e-08
1.60892e-09
-1.63042e-08
7.23231e-08
1.3839e-09
-1.66694e-08
7.31102e-08
1.14056e-09
-1.65541e-08
7.36059e-08
8.89649e-10
-1.59669e-08
7.38967e-08
6.45536e-10
-1.49366e-08
7.40555e-08
4.18077e-10
-1.35063e-08
7.41377e-08
2.19957e-10
-1.17337e-08
7.41905e-08
5.68561e-11
-9.68694e-09
7.4247e-08
-6.289e-11
-7.4504e-09
7.43326e-08
-1.34767e-10
-5.10646e-09
7.44595e-08
-1.53826e-10
-2.74637e-09
7.46327e-08
-1.21046e-10
-4.54667e-10
7.48435e-08
-3.55373e-11
1.68318e-09
7.50766e-08
9.72428e-11
3.59611e-09
7.53026e-08
2.73714e-10
5.2156e-09
7.5485e-08
4.84714e-10
6.4976e-09
7.55724e-08
7.2316e-10
7.40259e-09
7.55047e-08
9.76438e-10
7.91743e-09
7.52039e-08
1.23484e-09
8.03966e-09
7.45787e-08
1.48389e-09
7.7852e-09
7.35128e-08
1.7131e-09
7.18815e-09
7.18659e-08
1.90782e-09
6.29686e-09
6.9457e-08
2.05886e-09
5.16184e-09
6.60605e-08
2.15333e-09
3.856e-09
6.13784e-08
2.17747e-09
2.47809e-09
5.50294e-08
2.09758e-09
1.15413e-09
4.64989e-08
1.87286e-09
2.77419e-08
1.37678e-09
-8.43412e-10
2.78e-08
-3.69935e-10
-2.59122e-09
4.64659e-08
-9.20035e-11
-4.73645e-09
5.49585e-08
5.10424e-11
-7.02513e-09
6.1257e-08
5.96005e-11
-9.26607e-09
6.5877e-08
-2.69397e-11
-1.13219e-08
6.92077e-08
-1.81697e-10
-1.30742e-08
7.15483e-08
-3.87629e-10
-1.44374e-08
7.31329e-08
-6.36867e-10
-1.53402e-08
7.4144e-08
-9.17088e-10
-1.5743e-08
7.47303e-08
-1.2171e-09
-1.56262e-08
7.50099e-08
-1.5222e-09
-1.49912e-08
7.50827e-08
-1.8204e-09
-1.38673e-08
7.50281e-08
-2.09715e-09
-1.23012e-08
7.49143e-08
-2.34164e-09
-1.03633e-08
7.4793e-08
-2.54061e-09
-8.13562e-09
7.47065e-08
-2.68759e-09
-5.70904e-09
7.46821e-08
-2.7751e-09
-3.1886e-09
7.47382e-08
-2.80093e-09
-6.69932e-10
7.4878e-08
-2.7624e-09
1.74037e-09
7.50957e-08
-2.66242e-09
3.94985e-09
7.53706e-08
-2.50343e-09
5.87133e-09
7.56728e-08
-2.29329e-09
7.43938e-09
7.59574e-08
-2.03905e-09
8.59568e-09
7.61699e-08
-1.75268e-09
9.30444e-09
7.62395e-08
-1.44484e-09
9.55589e-09
7.60838e-08
-1.13009e-09
9.35436e-09
7.55998e-08
-8.20752e-10
8.73312e-09
7.46657e-08
-5.31768e-10
7.74619e-09
7.31292e-08
-2.73913e-10
6.45618e-09
7.08033e-08
-5.91282e-11
4.9675e-09
6.7449e-08
1.01629e-10
3.38998e-09
6.27607e-08
1.96217e-10
1.87554e-09
5.63416e-08
2.0176e-10
6.21891e-10
4.76662e-08
8.58881e-11
2.85276e-08
-1.63352e-10
-2.92143e-10
2.97646e-08
-1.67028e-09
-1.74833e-09
4.95363e-08
-1.6172e-09
-3.70946e-09
5.85018e-08
-1.58033e-09
-5.90507e-09
6.51028e-08
-1.65144e-09
-8.11589e-09
6.98916e-08
-1.80357e-09
-1.01791e-08
7.3284e-08
-2.01373e-09
-1.19604e-08
7.56038e-08
-2.27335e-09
-1.33555e-08
7.71018e-08
-2.57325e-09
-1.42889e-08
7.79796e-08
-2.90439e-09
-1.47028e-08
7.8398e-08
-3.25304e-09
-1.45772e-08
7.84907e-08
-3.60606e-09
-1.39143e-08
7.83667e-08
-3.94743e-09
-1.27422e-08
7.81198e-08
-4.26408e-09
-1.11104e-08
7.78261e-08
-4.54208e-09
-9.09684e-09
7.75483e-08
-4.77078e-09
-6.78184e-09
7.73331e-08
-4.93945e-09
-4.27515e-09
7.72156e-08
-5.04206e-09
-1.67639e-09
7.72147e-08
-5.07319e-09
8.94122e-10
7.73376e-08
-5.03239e-09
3.33605e-09
7.75754e-08
-4.92e-09
5.5403e-09
7.79075e-08
-4.74133e-09
7.41838e-09
7.82969e-08
-4.50239e-09
8.89492e-09
7.86952e-08
-4.21385e-09
9.913e-09
7.90378e-08
-3.88655e-09
1.0439e-08
7.92475e-08
-3.53516e-09
1.04701e-08
7.92295e-08
-3.17342e-09
1.00107e-08
7.88725e-08
-2.81713e-09
9.11778e-09
7.80409e-08
-2.47937e-09
7.8488e-09
7.65716e-08
-2.17378e-09
6.30125e-09
7.42608e-08
-1.90934e-09
4.58901e-09
7.08542e-08
-1.69467e-09
2.86443e-09
6.60244e-08
-1.53704e-09
1.3088e-09
5.93511e-08
-1.45486e-09
1.68915e-10
5.02769e-08
-1.47037e-09
3.02002e-08
-1.50399e-09
-4.10949e-11
3.22349e-08
-2.42958e-09
-1.31459e-09
5.33411e-08
-2.53035e-09
-3.13376e-09
6.2889e-08
-2.56814e-09
-5.22002e-09
6.98823e-08
-2.69408e-09
-7.35067e-09
7.49112e-08
-2.88833e-09
-9.35674e-09
7.84259e-08
-3.13579e-09
-1.10982e-08
8.0774e-08
-3.42921e-09
-1.24634e-08
8.223e-08
-3.76265e-09
-1.33695e-08
8.30118e-08
-4.12643e-09
-1.37596e-08
8.3298e-08
-4.5088e-09
-1.36109e-08
8.32345e-08
-4.89491e-09
-1.29176e-08
8.29452e-08
-5.26999e-09
-1.17127e-08
8.25327e-08
-5.61738e-09
-1.00504e-08
8.20847e-08
-5.92258e-09
-7.99983e-09
8.16711e-08
-6.1722e-09
-5.65852e-09
8.13477e-08
-6.35702e-09
-3.12444e-09
8.11527e-08
-6.46936e-09
-5.15915e-10
8.11103e-08
-6.50571e-09
2.05859e-09
8.12272e-08
-6.46397e-09
4.4838e-09
8.14959e-08
-6.3461e-09
6.65701e-09
8.18909e-08
-6.15544e-09
8.47972e-09
8.23732e-08
-5.89953e-09
9.87804e-09
8.28857e-08
-5.58764e-09
1.07897e-08
8.33575e-08
-5.2333e-09
1.11891e-08
8.36999e-08
-4.85147e-09
1.10677e-08
8.38091e-08
-4.45903e-09
1.04522e-08
8.356e-08
-4.07102e-09
9.3889e-09
8.28055e-08
-3.70215e-09
7.95807e-09
8.1366e-08
-3.36416e-09
6.26276e-09
7.90221e-08
-3.06651e-09
4.43603e-09
7.54979e-08
-2.8151e-09
2.6321e-09
7.04437e-08
-2.61626e-09
1.05684e-09
6.34073e-08
-2.48211e-09
-3.29696e-11
5.37955e-08
-2.4291e-09
3.24827e-08
-2.31431e-09
-4.23034e-11
3.49044e-08
-2.62952e-09
-1.27255e-09
5.73589e-08
-2.78512e-09
-3.03172e-09
6.75015e-08
-2.85343e-09
-5.04952e-09
7.49009e-08
-3.00021e-09
-7.11536e-09
8.01867e-08
-3.21046e-09
-9.0575e-09
8.384e-08
-3.47122e-09
-1.07424e-08
8.6235e-08
-3.77746e-09
-1.20554e-08
8.76667e-08
-4.12317e-09
-1.2915e-08
8.83719e-08
-4.50036e-09
-1.32633e-08
8.85436e-08
-4.89712e-09
-1.30704e-08
8.83427e-08
-5.30077e-09
-1.23347e-08
8.79041e-08
-5.69376e-09
-1.10897e-08
8.73431e-08
-6.0572e-09
-9.38612e-09
8.67564e-08
-6.37364e-09
-7.30666e-09
8.62235e-08
-6.6312e-09
-4.94464e-09
8.58056e-08
-6.82067e-09
-2.40191e-09
8.55469e-08
-6.93644e-09
2.09289e-10
8.54731e-08
-6.97466e-09
2.77832e-09
8.55934e-08
-6.93451e-09
5.1933e-09
8.58979e-08
-6.81669e-09
7.34775e-09
8.63605e-08
-6.62493e-09
9.15082e-09
8.69362e-08
-6.36464e-09
1.05154e-08
8.75633e-08
-6.04482e-09
1.1392e-08
8.81614e-08
-5.67732e-09
1.17383e-08
8.86332e-08
-5.27994e-09
1.15558e-08
8.88627e-08
-4.87222e-09
1.08742e-08
8.87143e-08
-4.47192e-09
9.74314e-09
8.80264e-08
-4.09163e-09
8.24833e-09
8.66054e-08
-3.74298e-09
6.491e-09
8.42135e-08
-3.43397e-09
4.60457e-09
8.0555e-08
-3.17042e-09
2.75029e-09
7.52547e-08
-2.95687e-09
1.13162e-09
6.78302e-08
-2.80431e-09
2.56265e-12
5.76505e-08
-2.72565e-09
3.5045e-08
-2.55978e-09
-2.15597e-10
3.74926e-08
-2.37318e-09
-1.51591e-09
6.1154e-08
-2.49453e-09
-3.2906e-09
7.18289e-08
-2.5515e-09
-5.29258e-09
7.95915e-08
-2.68973e-09
-7.31729e-09
8.51041e-08
-2.89264e-09
-9.2084e-09
8.88772e-08
-3.14734e-09
-1.08295e-08
9.13068e-08
-3.4481e-09
-1.20829e-08
9.27079e-08
-3.78967e-09
-1.28797e-08
9.33332e-08
-4.16406e-09
-1.31655e-08
9.33913e-08
-4.56158e-09
-1.29098e-08
9.3055e-08
-4.96871e-09
-1.21106e-08
9.24721e-08
-5.36561e-09
-1.08072e-08
9.17678e-08
-5.72974e-09
-9.05486e-09
9.10495e-08
-6.04395e-09
-6.93686e-09
9.04038e-08
-6.29739e-09
-4.54938e-09
8.98987e-08
-6.48328e-09
-1.98667e-09
8.95825e-08
-6.59665e-09
6.37344e-10
8.9484e-08
-6.63486e-09
3.2137e-09
8.96126e-08
-6.59672e-09
5.63902e-09
8.99586e-08
-6.48334e-09
7.80149e-09
9.04926e-08
-6.29726e-09
9.61628e-09
9.11662e-08
-6.04333e-09
1.09962e-08
9.19109e-08
-5.72812e-09
1.18804e-08
9.26395e-08
-5.36237e-09
1.22328e-08
9.32443e-08
-4.9634e-09
1.20504e-08
9.35995e-08
-4.55412e-09
1.13623e-08
9.35571e-08
-4.15471e-09
1.02234e-08
9.29437e-08
-3.77871e-09
8.71434e-09
9.15501e-08
-3.4356e-09
6.93716e-09
8.91235e-08
-3.13322e-09
5.02265e-09
8.53483e-08
-2.87675e-09
3.11892e-09
7.98276e-08
-2.6715e-09
1.4298e-09
7.20506e-08
-2.52912e-09
1.89994e-10
6.1354e-08
-2.46471e-09
3.75711e-08
-2.3351e-09
-4.95237e-10
3.9802e-08
-1.81458e-09
-1.93597e-09
6.44333e-08
-1.83785e-09
-3.78615e-09
7.55328e-08
-1.85374e-09
-5.81221e-09
8.35784e-08
-1.96212e-09
-7.8242e-09
8.92591e-08
-2.14172e-09
-9.67834e-09
9.31072e-08
-2.37655e-09
-1.12513e-08
9.55382e-08
-2.65989e-09
-1.24397e-08
9.68833e-08
-2.98568e-09
-1.31699e-08
9.74098e-08
-3.3467e-09
-1.33829e-08
9.73393e-08
-3.73413e-09
-1.30526e-08
9.68571e-08
-4.1335e-09
-1.2181e-08
9.61217e-08
-4.52205e-09
-1.08049e-08
9.52692e-08
-4.87602e-09
-8.99184e-09
9.44155e-08
-5.17891e-09
-6.82357e-09
9.36556e-08
-5.42189e-09
-4.38854e-09
9.30632e-08
-5.59947e-09
-1.78693e-09
9.2691e-08
-5.70784e-09
8.70217e-10
9.257e-08
-5.74458e-09
3.48081e-09
9.27111e-08
-5.7089e-09
5.93772e-09
9.31033e-08
-5.60153e-09
8.13982e-09
9.37152e-08
-5.42482e-09
9.99363e-09
9.44938e-08
-5.18251e-09
1.14193e-08
9.53653e-08
-4.87993e-09
1.2351e-08
9.62344e-08
-4.5258e-09
1.27457e-08
9.69849e-08
-4.13672e-09
1.26034e-08
9.74803e-08
-3.73665e-09
1.19456e-08
9.75617e-08
-3.34856e-09
1.0833e-08
9.70439e-08
-2.98701e-09
9.33889e-09
9.57047e-08
-2.66061e-09
7.56398e-09
9.32767e-08
-2.37647e-09
5.62208e-09
8.94282e-08
-2.14057e-09
3.66565e-09
8.37436e-08
-1.95931e-09
1.87526e-09
7.569e-08
-1.84774e-09
4.77179e-10
6.45781e-08
-1.82606e-09
3.98429e-08
-1.7956e-09
-8.02736e-10
4.1733e-08
-1.12594e-09
-2.41432e-09
6.70639e-08
-1.02114e-09
-4.36473e-09
7.84638e-08
-9.81059e-10
-6.43473e-09
8.66985e-08
-1.0491e-09
-8.45469e-09
9.24754e-08
-1.1971e-09
-1.02861e-08
9.63429e-08
-1.40495e-09
-1.18139e-08
9.87315e-08
-1.66409e-09
-1.29494e-08
9.99853e-08
-1.96787e-09
-1.36127e-08
1.00384e-07
-2.30958e-09
-1.37556e-08
1.00162e-07
-2.68026e-09
-1.33483e-08
9.95138e-08
-3.06387e-09
-1.24011e-08
9.86097e-08
-3.43634e-09
-1.09531e-08
9.75957e-08
-3.774e-09
-9.07299e-09
9.65965e-08
-4.06136e-09
-6.8399e-09
9.57147e-08
-4.29098e-09
-4.34974e-09
9.50299e-08
-4.45845e-09
-1.69536e-09
9.45992e-08
-4.56059e-09
1.01314e-09
9.44563e-08
-4.59533e-09
3.67332e-09
9.46129e-08
-4.56199e-09
6.18143e-09
9.50571e-08
-4.46121e-09
8.43581e-09
9.57552e-08
-4.29502e-09
1.03472e-08
9.66498e-08
-4.06654e-09
1.18294e-08
9.76613e-08
-3.78008e-09
1.28218e-08
9.86869e-08
-3.443e-09
1.32755e-08
9.96014e-08
-3.07085e-09
1.3185e-08
1.00259e-07
-2.68738e-09
1.25743e-08
1.00489e-07
-2.31678e-09
1.14963e-08
1.00097e-07
-1.9751e-09
1.00253e-08
9.88475e-08
-1.67125e-09
8.25338e-09
9.64618e-08
-1.41181e-09
6.28869e-09
9.25951e-08
-1.20332e-09
4.26915e-09
8.6817e-08
-1.05409e-09
2.36447e-09
7.85787e-08
-9.83502e-10
7.89103e-10
6.71727e-08
-1.01887e-09
4.17495e-08
-1.11749e-09
-1.07488e-09
4.3276e-08
-4.68647e-10
-2.83797e-09
6.90672e-08
-2.39637e-10
-4.8858e-09
8.06557e-08
-1.43704e-10
-7.01095e-09
8.89935e-08
-1.71211e-10
-9.04808e-09
9.47989e-08
-2.87159e-10
-1.08682e-08
9.86319e-08
-4.67342e-10
-1.23683e-08
1.00933e-07
-7.01088e-10
-1.34611e-08
1.02059e-07
-9.81271e-10
-1.40744e-08
1.02298e-07
-1.30125e-09
-1.41569e-08
1.01896e-07
-1.6517e-09
-1.36836e-08
1.01057e-07
-2.01555e-09
-1.26686e-08
9.99633e-08
-2.36849e-09
-1.1154e-08
9.87691e-08
-2.68735e-09
-9.21056e-09
9.76088e-08
-2.95773e-09
-6.91373e-09
9.65928e-08
-3.17314e-09
-4.36276e-09
9.58071e-08
-3.32982e-09
-1.65057e-09
9.53132e-08
-3.42493e-09
1.11551e-09
9.51476e-08
-3.45729e-09
3.83195e-09
9.53224e-08
-3.42632e-09
6.39563e-09
9.58253e-08
-3.33257e-09
8.70834e-09
9.66199e-08
-3.17721e-09
1.06777e-08
9.76445e-08
-2.96303e-09
1.22186e-08
9.88131e-08
-2.69374e-09
1.32667e-08
1.00015e-07
-2.37575e-09
1.37747e-08
1.01116e-07
-2.0235e-09
1.37308e-08
1.01961e-07
-1.66019e-09
1.31626e-08
1.0237e-07
-1.31017e-09
1.21144e-08
1.02135e-07
-9.90533e-10
1.06581e-08
1.01013e-07
-7.10538e-10
8.8826e-09
9.87148e-08
-4.76725e-10
6.89109e-09
9.48835e-08
-2.96138e-10
4.80775e-09
8.90787e-08
-1.79261e-10
2.79638e-09
8.07404e-08
-1.49696e-10
1.06039e-09
6.91503e-08
-2.4181e-10
4.32761e-08
-4.65788e-10
-1.25622e-09
4.4486e-08
4.57328e-11
-3.12876e-09
7.05711e-08
3.6937e-10
-5.25416e-09
8.22692e-08
5.1137e-10
-7.42426e-09
9.06465e-08
5.17467e-10
-9.48252e-09
9.64289e-08
4.28669e-10
-1.13082e-08
1.00183e-07
2.7271e-10
-1.27965e-08
1.02361e-07
6.19977e-11
-1.38652e-08
1.03323e-07
-1.96621e-10
-1.4443e-08
1.03373e-07
-4.95794e-10
-1.4485e-08
1.02762e-07
-8.25726e-10
-1.39674e-08
1.01708e-07
-1.16915e-09
-1.29008e-08
1.00401e-07
-1.50179e-09
-1.13387e-08
9.90067e-08
-1.80162e-09
-9.34197e-09
9.76685e-08
-2.05574e-09
-6.99636e-09
9.65051e-08
-2.2584e-09
-4.38993e-09
9.56082e-08
-2.40646e-09
-1.625e-09
9.5045e-08
-2.49736e-09
1.19743e-09
9.48545e-08
-2.52837e-09
3.96565e-09
9.50508e-08
-2.49862e-09
6.58055e-09
9.56198e-08
-2.40894e-09
8.94052e-09
9.65222e-08
-2.26205e-09
1.09553e-08
9.76912e-08
-2.06049e-09
1.2539e-08
9.90348e-08
-1.80729e-09
1.36298e-08
1.00434e-07
-1.50814e-09
1.41767e-08
1.01746e-07
-1.17654e-09
1.41669e-08
1.02804e-07
-8.3391e-10
1.36216e-08