/*--------------------------------*- C++ -*----------------------------------*\
| =========                 |                                                 |
| \\      /  F ield         | OpenFOAM: The Open Source CFD Toolbox           |
|  \\    /   O peration     | Version:  v2006                                 |
|   \\  /    A nd           | Website:  www.openfoam.com                      |
|    \\/     M anipulation  |                                                 |
\*---------------------------------------------------------------------------*/
FoamFile
{
    version     2.0;
    format      ascii;
    class       surfaceScalarField;
    location    "7";
    object      phi;
}
// * * * * * * * * * * * * * * * * * * * * * * * * * * * * * * * * * * * * * //

dimensions      [1 0 -1 0 0 0 0];
oriented        oriented;


internalField   nonuniform List<scalar> 
228225
(
-0.000357786
-3.85057e-05
-6.0675e-06
-0.000318866
-3.41372e-05
-4.79687e-06
-0.000280365
-3.38412e-05
-4.6703e-06
-0.00024287
-3.23064e-05
-5.21679e-06
-0.000212208
-2.45066e-05
-6.14578e-06
-0.000184983
-2.0533e-05
-6.69499e-06
-0.00016239
-1.55621e-05
-7.04647e-06
-0.000142396
-1.28037e-05
-7.20314e-06
-0.000125061
-1.00265e-05
-7.3252e-06
-0.000109457
-8.29494e-06
-7.32447e-06
-9.5578e-05
-6.57743e-06
-7.3191e-06
-8.29991e-05
-5.35666e-06
-7.23965e-06
-7.1658e-05
-4.19083e-06
-7.16803e-06
-6.13478e-05
-3.2742e-06
-7.0547e-06
-5.20064e-05
-2.41516e-06
-6.94517e-06
-4.34983e-05
-1.70564e-06
-6.82172e-06
-3.57559e-05
-1.04557e-06
-6.71666e-06
-2.87014e-05
-4.59424e-07
-6.61518e-06
-2.22004e-05
-5.48053e-09
-6.51604e-06
-1.62863e-05
4.79865e-07
-6.41479e-06
-1.09089e-05
9.07077e-07
-6.30573e-06
-6.04243e-06
1.29885e-06
-6.18674e-06
-1.67338e-06
1.66563e-06
-6.05636e-06
2.2035e-06
2.01603e-06
-5.91473e-06
5.58565e-06
2.35923e-06
-5.76329e-06
8.46352e-06
2.70487e-06
-5.60466e-06
1.08212e-05
3.06249e-06
-5.44202e-06
1.26389e-05
3.44141e-06
-5.28058e-06
1.3892e-05
3.8498e-06
-5.12364e-06
1.45654e-05
4.29043e-06
-4.98284e-06
1.46521e-05
4.75499e-06
-4.85674e-06
1.42247e-05
5.21155e-06
-4.78929e-06
1.32413e-05
5.72039e-06
-4.7188e-06
1.0898e-05
7.37017e-06
-4.96765e-06
1.31468e-05
-2.26341e-06
-2.16196e-05
-2.13796e-05
4.60087e-06
-3.60299e-05
-2.5353e-05
5.59307e-06
-4.48895e-05
-3.03231e-05
5.19935e-06
-5.19887e-05
-3.00011e-05
4.73722e-06
-5.48738e-05
-2.48919e-05
3.25052e-06
-5.68202e-05
-2.08417e-05
2.25328e-06
-5.76936e-05
-1.59084e-05
1.21315e-06
-5.86714e-05
-1.22941e-05
4.6118e-07
-5.92767e-05
-9.20354e-06
-2.26123e-07
-5.97925e-05
-7.12008e-06
-6.71109e-07
-5.95932e-05
-5.70912e-06
-1.08207e-06
-5.87509e-05
-4.8079e-06
-1.40602e-06
-5.71555e-05
-4.11065e-06
-1.69148e-06
-5.50093e-05
-3.4982e-06
-1.93824e-06
-5.23247e-05
-2.95733e-06
-2.15847e-06
-4.92769e-05
-2.41385e-06
-2.35563e-06
-4.59016e-05
-1.90064e-06
-2.5362e-06
-4.22591e-05
-1.41503e-06
-2.70285e-06
-3.84681e-05
-9.5335e-07
-2.85916e-06
-3.44864e-05
-5.09825e-07
-3.00803e-06
-3.03798e-05
-6.61555e-08
-3.14949e-06
-2.61211e-05
3.08896e-07
-3.28504e-06
-2.17432e-05
6.87506e-07
-3.41616e-06
-1.72845e-05
1.08309e-06
-3.54251e-06
-1.27838e-05
1.5034e-06
-3.6622e-06
-8.28841e-06
1.96273e-06
-3.7715e-06
-3.86215e-06
2.48186e-06
-3.86556e-06
4.05335e-07
3.09026e-06
-3.93919e-06
4.38534e-06
3.83023e-06
-3.98839e-06
7.88632e-06
4.76477e-06
-4.0116e-06
1.06125e-05
5.99325e-06
-4.01215e-06
1.20256e-05
7.72229e-06
-3.97844e-06
1.11506e-05
1.04718e-05
-3.89722e-06
6.29504e-06
1.5861e-05
-3.59023e-06
2.08584e-05
-1.46003e-06
-1.64633e-05
-4.41686e-07
-4.47464e-06
-2.27378e-05
-1.63243e-05
-2.77121e-06
-2.92962e-05
-2.28667e-05
-9.31159e-07
-3.32755e-05
-2.63047e-05
2.31754e-07
-3.23446e-05
-2.70354e-05
1.16821e-06
-3.00159e-05
-2.48508e-05
1.64134e-06
-2.6166e-05
-2.17638e-05
1.97719e-06
-2.25053e-05
-1.79975e-05
2.03031e-06
-1.96218e-05
-1.39798e-05
1.89438e-06
-1.82983e-05
-1.00054e-05
1.57025e-06
-1.86191e-05
-6.53022e-06
1.14791e-06
-2.00984e-05
-4.04923e-06
7.17348e-07
-2.1868e-05
-2.68392e-06
3.30287e-07
-2.33201e-05
-2.04313e-06
-2.15288e-08
-2.43161e-05
-1.72441e-06
-2.58427e-07
-2.47561e-05
-1.50661e-06
-4.89881e-07
-2.46575e-05
-1.31629e-06
-7.06e-07
-2.40555e-05
-1.13132e-06
-9.08513e-07
-2.2998e-05
-9.33184e-07
-1.09985e-06
-2.15344e-05
-7.12798e-07
-1.28216e-06
-1.97013e-05
-4.62939e-07
-1.45704e-06
-1.76077e-05
-1.79223e-07
-1.62515e-06
-1.52875e-05
1.35747e-07
-1.78695e-06
-1.27508e-05
4.70203e-07
-1.94082e-06
-1.00305e-05
8.5183e-07
-2.08379e-06
-7.15993e-06
1.29051e-06
-2.2111e-06
-4.17453e-06
1.80327e-06
-2.31698e-06
-1.10838e-06
2.41512e-06
-2.39945e-06
2.00582e-06
3.16768e-06
-2.46152e-06
5.10873e-06
4.15225e-06
-2.51071e-06
7.98956e-06
5.61599e-06
-2.55975e-06
9.8766e-06
8.2962e-06
-2.62829e-06
8.54071e-06
1.40954e-05
-2.75547e-06
3.28761e-06
2.30897e-05
-2.6774e-06
2.50461e-05
-1.14714e-06
1.065e-05
-1.31433e-05
2.0081e-06
1.21357e-05
-2.20019e-05
4.16033e-06
1.07458e-05
-2.55567e-05
4.04353e-06
7.6782e-06
-2.6602e-05
3.32126e-06
4.32375e-06
-2.62134e-05
2.47974e-06
2.78858e-06
-2.52136e-05
1.83633e-06
3.1021e-06
-2.36442e-05
1.50015e-06
4.90782e-06
-2.1328e-05
1.46262e-06
7.49071e-06
-1.82105e-05
1.60216e-06
1.00458e-05
-1.43304e-05
1.75121e-06
1.17589e-05
-9.96657e-06
1.73637e-06
1.2118e-05
-5.85139e-06
1.47782e-06
1.10131e-05
-2.60085e-06
1.05824e-06
8.61188e-06
-2.09998e-07
5.93843e-07
5.59874e-06
1.17214e-06
1.27147e-07
2.54167e-06
1.78571e-06
-2.39837e-07
-1.7139e-07
1.9436e-06
-5.63239e-07
-2.35487e-06
1.88622e-06
-8.58851e-07
-3.92051e-06
1.72711e-06
-1.12408e-06
-4.86223e-06
1.55854e-06
-1.36085e-06
-5.23738e-06
1.45133e-06
-1.57063e-06
-5.13138e-06
1.43595e-06
-1.75229e-06
-4.65331e-06
1.52852e-06
-1.9014e-06
-3.94006e-06
1.73929e-06
-2.01253e-06
-3.10768e-06
2.07454e-06
-2.08531e-06
-2.25709e-06
2.5327e-06
-2.12326e-06
-1.46004e-06
3.10731e-06
-2.13092e-06
-7.60653e-07
3.80254e-06
-2.11173e-06
-1.79157e-07
4.64626e-06
-2.06891e-06
3.04065e-07
5.70285e-06
-2.00397e-06
8.74809e-07
7.08005e-06
-1.92051e-06
2.18911e-06
9.1005e-06
-1.83827e-06
4.53982e-06
1.39635e-05
-1.812e-06
2.69803e-06
2.67563e-05
-1.7548e-06
2.84313e-05
-7.87966e-07
-3.78667e-06
-1.03309e-05
8.30499e-07
-6.52976e-06
-1.93858e-05
-2.65927e-08
-8.03249e-06
-2.40385e-05
-1.39447e-07
-8.45467e-06
-2.63368e-05
6.02327e-08
-7.80751e-06
-2.72651e-05
3.22819e-07
-6.26593e-06
-2.72977e-05
4.64671e-07
-3.97251e-06
-2.657e-05
5.56884e-07
-8.54516e-07
-2.51528e-05
6.37292e-07
3.29184e-06
-2.31594e-05
7.38934e-07
8.63599e-06
-2.06372e-05
9.06366e-07
1.50604e-05
-1.75788e-05
1.14507e-06
2.18181e-05
-1.40269e-05
1.39688e-06
2.77934e-05
-1.01525e-05
1.58285e-06
3.21905e-05
-6.21103e-06
1.63766e-06
3.44746e-05
-2.58676e-06
1.52215e-06
3.46585e-05
3.67182e-07
1.2775e-06
3.2852e-05
2.80452e-06
9.8267e-07
2.97574e-05
4.34303e-06
6.73874e-07
2.61331e-05
5.01254e-06
3.67857e-07
2.259e-05
5.04305e-06
7.4233e-08
1.94644e-05
4.73175e-06
-1.52435e-07
1.6946e-05
4.31232e-06
-3.65772e-07
1.50832e-05
3.94806e-06
-5.71058e-07
1.38237e-05
3.73251e-06
-7.50979e-07
1.30578e-05
3.71461e-06
-8.92316e-07
1.26656e-05
3.90673e-06
-1.00087e-06
1.25258e-05
4.31206e-06
-1.08674e-06
1.24997e-05
4.95669e-06
-1.15602e-06
1.24103e-05
5.91137e-06
-1.21549e-06
1.19895e-05
7.33454e-06
-1.27481e-06
1.07202e-05
9.58879e-06
-1.33805e-06
7.84963e-06
1.32862e-05
-1.38968e-06
4.37667e-06
1.90255e-05
-1.35522e-06
2.17633e-06
3.04143e-05
-1.07557e-06
3.08765e-05
-3.23836e-07
1.96576e-06
-1.33333e-05
1.01028e-06
5.29978e-06
-2.45771e-05
1.8258e-06
8.15934e-06
-2.88555e-05
1.93129e-06
1.04643e-05
-3.04504e-05
1.78841e-06
1.24478e-05
-3.08135e-05
1.55038e-06
1.43326e-05
-3.04728e-05
1.27956e-06
1.62699e-05
-2.95163e-05
9.9911e-07
1.83298e-05
-2.79454e-05
7.21974e-07
2.05184e-05
-2.58229e-05
4.63708e-07
2.28783e-05
-2.3252e-05
2.42123e-07
2.55296e-05
-2.03317e-05
8.53658e-08
2.8553e-05
-1.71107e-05
3.98158e-08
3.17601e-05
-1.35286e-05
1.46636e-07
3.45421e-05
-9.40549e-06
3.94973e-07
3.57999e-05
-4.58138e-06
7.34126e-07
3.45977e-05
5.65184e-07
1.02315e-06
3.15927e-05
4.76067e-06
1.0838e-06
2.80052e-05
7.10678e-06
8.59813e-07
2.43692e-05
8.20833e-06
4.63749e-07
2.08953e-05
8.50793e-06
1.4412e-08
1.76752e-05
8.26944e-06
-3.30064e-07
1.49214e-05
7.66306e-06
-6.22036e-07
1.27428e-05
6.93052e-06
-8.35921e-07
1.11148e-05
6.30392e-06
-9.78458e-07
9.93966e-06
5.92177e-06
-1.0667e-06
9.13842e-06
5.79238e-06
-1.11542e-06
8.65083e-06
5.90664e-06
-1.13198e-06
8.43617e-06
6.27454e-06
-1.12213e-06
8.48904e-06
6.94048e-06
-1.09717e-06
8.84578e-06
8.03547e-06
-1.07845e-06
9.4665e-06
1.001e-05
-1.1089e-06
9.40896e-06
1.44027e-05
-1.2702e-06
5.08136e-06
2.45251e-05
-1.50023e-06
1.50329e-06
3.51709e-05
-1.24748e-06
3.27671e-05
-3.91479e-07
1.08421e-06
-1.49675e-05
4.78177e-07
2.19955e-06
-2.60061e-05
2.28583e-07
2.88002e-06
-2.99999e-05
3.91574e-07
3.27326e-06
-3.1591e-05
6.86897e-07
3.61987e-06
-3.20603e-05
8.48476e-07
4.06995e-06
-3.18277e-05
8.58723e-07
4.74905e-06
-3.10082e-05
7.72101e-07
5.75118e-06
-2.96227e-05
6.42268e-07
7.09149e-06
-2.76827e-05
4.95408e-07
8.68139e-06
-2.52041e-05
3.45209e-07
1.03979e-05
-2.22614e-05
2.00935e-07
1.219e-05
-1.89944e-05
8.16518e-08
1.41061e-05
-1.54859e-05
3.19192e-08
1.61948e-05
-1.1613e-05
1.10874e-07
1.83477e-05
-7.07035e-06
3.33954e-07
2.02092e-05
-1.88079e-06
5.92999e-07
2.12504e-05
3.05912e-06
6.68294e-07
2.13718e-05
6.44071e-06
5.40896e-07
2.07548e-05
8.47575e-06
3.37385e-07
1.97989e-05
9.35256e-06
9.89658e-08
1.86962e-05
9.51305e-06
-1.49371e-07
1.74681e-05
9.27075e-06
-3.9004e-07
1.61797e-05
8.78701e-06
-5.86407e-07
1.49551e-05
8.21984e-06
-7.18145e-07
1.3896e-05
7.74795e-06
-7.99507e-07
1.29986e-05
7.50464e-06
-8.5091e-07
1.22127e-05
7.53405e-06
-8.81244e-07
1.14723e-05
7.87024e-06
-8.98393e-07
1.06506e-05
8.62597e-06
-9.07337e-07
9.4946e-06
1.00676e-05
-9.12936e-07
7.88723e-06
1.25234e-05
-9.17116e-07
6.30141e-06
1.69766e-05
-9.07196e-07
5.02947e-06
2.69491e-05
-9.79949e-07
2.24437e-06
3.89006e-05
-8.63133e-07
3.52216e-05
-2.58815e-07
1.86199e-06
-1.70282e-05
1.76599e-07
4.63694e-06
-2.88092e-05
1.85461e-08
6.9595e-06
-3.24195e-05
9.1147e-08
8.62749e-06
-3.35777e-05
3.1249e-07
9.77335e-06
-3.3704e-05
4.9447e-07
1.05625e-05
-3.32057e-05
5.91069e-07
1.11419e-05
-3.21772e-05
5.97071e-07
1.16084e-05
-3.06196e-05
5.40101e-07
1.20111e-05
-2.85305e-05
4.53196e-07
1.23718e-05
-2.59212e-05
3.60454e-07
1.26699e-05
-2.28326e-05
2.73084e-07
1.28466e-05
-1.93725e-05
1.97565e-07
1.29075e-05
-1.57059e-05
1.51698e-07
1.30285e-05
-1.19159e-05
1.70979e-07
1.34744e-05
-7.83664e-06
3.07802e-07
1.41642e-05
-3.15531e-06
5.74706e-07
1.45736e-05
1.80788e-06
8.35149e-07
1.42182e-05
5.87299e-06
9.17448e-07
1.35141e-05
8.36518e-06
8.05937e-07
1.28963e-05
9.35982e-06
5.96033e-07
1.24956e-05
9.52113e-06
3.7711e-07
1.22598e-05
9.32473e-06
1.66227e-07
1.2077e-05
8.98754e-06
-3.1397e-08
1.18944e-05
8.5956e-06
-2.03025e-07
1.17207e-05
8.24682e-06
-3.35036e-07
1.15806e-05
8.06079e-06
-4.27678e-07
1.15068e-05
8.08228e-06
-4.88066e-07
1.15335e-05
8.34585e-06
-5.20698e-07
1.16643e-05
8.99018e-06
-5.29485e-07
1.17501e-05
1.04474e-05
-5.46205e-07
1.10535e-05
1.36939e-05
-6.75454e-07
7.73699e-06
2.08731e-05
-1.03746e-06
2.74241e-06
3.26275e-05
-1.31523e-06
5.14939e-07
4.17793e-05
-1.0665e-06
3.59685e-05
-3.7178e-07
7.52766e-07
-1.77006e-05
-1.08688e-07
2.37556e-06
-2.95575e-05
-8.77204e-07
3.74789e-06
-3.28366e-05
-9.51034e-07
4.49714e-06
-3.36873e-05
-6.35615e-07
4.69887e-06
-3.35961e-05
-3.06805e-07
4.4786e-06
-3.29091e-05
-7.40401e-08
3.95765e-06
-3.17008e-05
4.76849e-08
3.26926e-06
-2.99958e-05
6.93508e-08
2.56534e-06
-2.7852e-05
3.03844e-08
2.01698e-06
-2.5343e-05
-2.77411e-08
1.74188e-06
-2.24959e-05
-6.55066e-08
1.72604e-06
-1.92925e-05
-7.4547e-08
1.81562e-06
-1.57667e-05
-4.35145e-08
1.89068e-06
-1.20584e-05
5.12561e-08
2.0937e-06
-8.289e-06
2.34112e-07
2.82823e-06
-4.41759e-06
5.14664e-07
4.23365e-06
-4.16516e-07
8.06496e-07
6.01272e-06
3.15149e-06
9.252e-07
7.65025e-06
5.88001e-06
8.22068e-07
8.40765e-06
7.95989e-06
6.10086e-07
7.97356e-06
9.56026e-06
3.56158e-07
6.75751e-06
1.03938e-05
1.01589e-07
5.25221e-06
1.05492e-05
-1.07463e-07
3.6622e-06
1.03918e-05
-2.60851e-07
2.13414e-06
1.0084e-05
-3.63619e-07
8.72098e-07
9.69951e-06
-4.24917e-07
-1.60474e-08
9.39052e-06
-4.52458e-07
-5.06439e-07
9.2838e-06
-4.51379e-07
-5.46961e-07
9.48186e-06
-4.19631e-07
1.13306e-07
1.02237e-05
-3.40929e-07
2.00053e-06
1.22571e-05
-2.15006e-07
4.48092e-06
1.89198e-05
-2.57497e-07
2.74879e-06
3.49504e-05
-8.11236e-07
8.59645e-07
4.42799e-05
-9.1506e-07
3.70786e-05
-4.09035e-07
2.80794e-06
-1.97837e-05
-7.03193e-07
6.57727e-06
-3.18902e-05
-1.35385e-06
1.01357e-05
-3.48703e-05
-1.44407e-06
1.32003e-05
-3.54283e-05
-1.25676e-06
1.56452e-05
-3.50093e-05
-9.74814e-07
1.73955e-05
-3.39135e-05
-6.93855e-07
1.84124e-05
-3.21922e-05
-4.75374e-07
1.86904e-05
-2.98841e-05
-3.40817e-07
1.82839e-05
-2.71148e-05
-2.84776e-07
1.7351e-05
-2.40828e-05
-2.87617e-07
1.6193e-05
-2.09845e-05
-3.23753e-07
1.52117e-05
-1.79254e-05
-3.69099e-07
1.47651e-05
-1.49102e-05
-4.06491e-07
1.50755e-05
-1.1951e-05
-4.25723e-07
1.63033e-05
-9.1169e-06
-4.16098e-07
1.86348e-05
-6.41466e-06
-3.5568e-07
2.2136e-05
-3.72548e-06
-2.15414e-07
2.62295e-05
-9.66026e-07
1.25579e-09
2.96675e-05
2.17453e-06
2.47358e-07
3.15007e-05
5.60644e-06
5.08318e-07
3.14595e-05
8.89299e-06
7.07005e-07
2.99426e-05
1.11653e-05
7.42416e-07
2.76725e-05
1.21624e-05
6.45597e-07
2.50585e-05
1.24952e-05
4.93638e-07
2.2346e-05
1.24656e-05
3.10524e-07
1.97239e-05
1.2177e-05
1.15141e-07
1.72602e-05
1.18705e-05
-5.98627e-08
1.49016e-05
1.17901e-05
-2.06129e-07
1.24994e-05
1.21417e-05
-3.35443e-07
9.69574e-06
1.3385e-05
-4.62574e-07
6.2641e-06
1.61754e-05
-5.57618e-07
4.00545e-06
2.1855e-05
-4.78242e-07
2.88122e-06
3.68932e-05
-5.48196e-07
1.2519e-06
4.64569e-05
-6.24415e-07
3.84519e-05
-2.80182e-07
3.67616e-06
-2.26722e-05
-7.2598e-07
6.72993e-06
-3.37108e-05
-1.15358e-06
8.82526e-06
-3.5618e-05
-1.30211e-06
1.04347e-05
-3.56587e-05
-1.3491e-06
1.17043e-05
-3.49168e-05
-1.33531e-06
1.25616e-05
-3.34598e-05
-1.28124e-06
1.28744e-05
-3.12429e-05
-1.22639e-06
1.26178e-05
-2.83838e-05
-1.20488e-06
1.19324e-05
-2.51738e-05
-1.21896e-06
1.10191e-05
-2.18905e-05
-1.24881e-06
1.00412e-05
-1.87103e-05
-1.27351e-06
9.12445e-06
-1.57078e-05
-1.28521e-06
8.38302e-06
-1.28728e-05
-1.28723e-06
7.8856e-06
-1.01655e-05
-1.28584e-06
7.63266e-06
-7.58374e-06
-1.28419e-06
7.64191e-06
-5.15557e-06
-1.2778e-06
8.01306e-06
-2.86041e-06
-1.25052e-06
8.73482e-06
-5.36205e-07
-1.17e-06
1.00418e-05
1.83357e-06
-9.87219e-07
1.17093e-05
4.59263e-06
-6.76074e-07
1.32644e-05
7.61479e-06
-2.99937e-07
1.42269e-05
1.01655e-05
1.3646e-08
1.46359e-05
1.16033e-05
1.28026e-07
1.47021e-05
1.22525e-05
1.59297e-07
1.44531e-05
1.25536e-05
1.51957e-07
1.38426e-05
1.26621e-05
1.26294e-07
1.29341e-05
1.26929e-05
9.72972e-08
1.18657e-05
1.28022e-05
7.39923e-08
1.07695e-05
1.31979e-05
5.34005e-08
9.66384e-06
1.44621e-05
2.74761e-09
7.70397e-06
1.82525e-05
-2.32029e-07
4.05414e-06
2.60122e-05
-5.19111e-07
2.23239e-06
3.96157e-05
-5.40338e-07
1.00626e-06
4.83033e-05
-4.94382e-07
3.95583e-05
-1.99828e-07
7.29141e-07
-2.26239e-05
-7.74045e-07
1.90805e-06
-3.38946e-05
-9.82428e-07
3.42498e-06
-3.61178e-05
-1.00863e-06
5.03991e-06
-3.62364e-05
-1.033e-06
6.55595e-06
-3.5358e-05
-1.07076e-06
7.65138e-06
-3.34109e-05
-1.13399e-06
8.00635e-06
-3.03476e-05
-1.23132e-06
7.62805e-06
-2.66319e-05
-1.35226e-06
6.80097e-06
-2.2863e-05
-1.46804e-06
5.87357e-06
-1.94006e-05
-1.55675e-06
5.1474e-06
-1.63789e-05
-1.60999e-06
4.83015e-06
-1.37778e-05
-1.62671e-06
5.00865e-06
-1.14624e-05
-1.61035e-06
5.65554e-06
-9.26952e-06
-1.56995e-06
6.64665e-06
-7.08729e-06
-1.51828e-06
7.79671e-06
-4.8716e-06
-1.46665e-06
8.94245e-06
-2.6207e-06
-1.41852e-06
1.00711e-05
-3.32917e-07
-1.36436e-06
1.09595e-05
2.19302e-06
-1.27862e-06
1.16333e-05
5.01353e-06
-1.12239e-06
1.1991e-05
8.11422e-06
-8.81214e-07
1.18924e-05
1.08695e-05
-6.28281e-07
1.14391e-05
1.2496e-05
-4.64719e-07
1.08694e-05
1.31944e-05
-3.99413e-07
1.02215e-05
1.35549e-05
-3.78748e-07
9.45453e-06
1.37835e-05
-3.73262e-07
8.55672e-06
1.3953e-05
-3.69654e-07
7.5665e-06
1.41593e-05
-3.54626e-07
6.56919e-06
1.45449e-05
-3.15671e-07
5.8334e-06
1.54936e-05
-2.4128e-07
5.52894e-06
1.88019e-05
-1.90095e-07
3.71612e-06
2.82384e-05
-4.21396e-07
1.49618e-06
4.25608e-05
-5.36499e-07
6.66051e-07
4.96927e-05
-4.24771e-07
4.03437e-05
-1.58299e-07
2.50495e-06
-2.46331e-05
-4.54307e-07
4.71763e-06
-3.58332e-05
-2.18741e-07
6.48509e-06
-3.75723e-05
-2.71675e-07
8.04334e-06
-3.73387e-05
-4.19606e-07
9.25075e-06
-3.59335e-05
-5.90625e-07
9.69602e-06
-3.2978e-05
-8.24666e-07
9.12185e-06
-2.85722e-05
-1.14138e-06
7.80598e-06
-2.37797e-05
-1.48385e-06
6.1927e-06
-1.94375e-05
-1.77572e-06
4.57135e-06
-1.57794e-05
-1.9808e-06
3.06757e-06
-1.27735e-05
-2.09693e-06
1.73742e-06
-1.03143e-05
-2.13836e-06
6.48454e-07
-8.25662e-06
-2.12759e-06
-9.75648e-08
-6.45429e-06
-2.08419e-06
-3.9965e-07
-4.7863e-06
-2.01787e-06
-2.18182e-07
-3.14616e-06
-1.9301e-06
3.80409e-07
-1.42928e-06
-1.81737e-06
1.22708e-06
4.62537e-07
-1.67275e-06
2.36158e-06
2.50758e-06
-1.4812e-06
3.6332e-06
4.92892e-06
-1.21801e-06
4.89574e-06
7.70282e-06
-8.78521e-07
5.91653e-06
1.03723e-05
-5.48875e-07
6.54374e-06
1.22014e-05
-3.61868e-07
6.85201e-06
1.31561e-05
-3.05202e-07
6.97571e-06
1.36881e-05
-2.99584e-07
6.94067e-06
1.4085e-05
-3.18138e-07
6.70065e-06
1.44865e-05
-3.54206e-07
6.19983e-06
1.49938e-05
-4.03429e-07
5.38294e-06
1.57427e-05
-4.56315e-07
4.25854e-06
1.70485e-05
-4.92337e-07
3.43609e-06
2.01226e-05
-4.73734e-07
2.74027e-06
2.95617e-05
-4.82674e-07
9.36079e-07
4.51745e-05
-5.9062e-07
5.40862e-07
5.07095e-05
-4.62883e-07
4.10635e-05
-1.91124e-07
2.9886e-07
-2.50591e-05
1.19813e-07
8.09839e-07
-3.71488e-05
7.93634e-07
1.56248e-06
-3.92094e-05
8.78525e-07
2.4395e-06
-3.89102e-05
6.97175e-07
3.10972e-06
-3.70169e-05
4.29627e-07
3.01951e-06
-3.29138e-05
5.68399e-08
2.14302e-06
-2.71545e-05
-5.1117e-07
9.74771e-07
-2.15273e-05
-1.06814e-06
3.95987e-08
-1.69968e-05
-1.50495e-06
-3.82305e-07
-1.35749e-05
-1.793e-06
-2.67106e-07
-1.09443e-05
-1.96181e-06
2.25545e-07
-8.77978e-06
-2.04918e-06
8.87301e-07
-6.86067e-06
-2.08311e-06
1.56264e-06
-5.0758e-06
-2.08176e-06
2.17199e-06
-3.36892e-06
-2.05669e-06
2.70459e-06
-1.6952e-06
-2.01532e-06
3.24238e-06
-4.02911e-08
-1.96021e-06
3.73789e-06
1.82017e-06
-1.88808e-06
4.183e-06
3.81373e-06
-1.78729e-06
4.6949e-06
6.01607e-06
-1.63501e-06
5.38939e-06
8.37972e-06
-1.40466e-06
6.22409e-06
1.06194e-05
-1.10872e-06
6.94523e-06
1.22966e-05
-8.35249e-07
7.43999e-06
1.33057e-05
-6.57376e-07
7.76005e-06
1.39216e-05
-5.63558e-07
7.93367e-06
1.44171e-05
-5.15078e-07
7.94452e-06
1.49531e-05
-4.88924e-07
7.74386e-06
1.5655e-05
-4.78198e-07
7.23255e-06
1.67079e-05
-4.84876e-07
6.24778e-06
1.84993e-05
-5.12166e-07
4.9186e-06
2.19927e-05
-5.37695e-07
4.07661e-06
3.11147e-05
-4.81415e-07
2.47024e-06
4.76628e-05
-5.14214e-07
1.37867e-06
5.24263e-05
-4.17875e-07
4.25735e-05
-1.70895e-07
1.39965e-06
-2.69416e-05
4.57154e-07
2.85841e-06
-3.99042e-05
1.29692e-06
4.02715e-06
-4.19088e-05
1.55417e-06
4.97817e-06
-4.13069e-05
1.48809e-06
5.36195e-06
-3.86175e-05
1.28007e-06
4.61734e-06
-3.30066e-05
9.11395e-07
2.96307e-06
-2.57871e-05
3.47735e-07
1.10473e-06
-1.93035e-05
-3.28685e-07
-5.3353e-07
-1.43998e-05
-9.45299e-07
-1.8223e-06
-1.08841e-05
-1.4064e-06
-2.71277e-06
-8.36018e-06
-1.7084e-06
-3.15948e-06
-6.46652e-06
-1.8862e-06
-3.13756e-06
-4.92586e-06
-1.97854e-06
-2.6747e-06
-3.54944e-06
-2.01247e-06
-1.85225e-06
-2.21208e-06
-2.00402e-06
-7.86818e-07
-8.25012e-07
-1.96207e-06
3.4996e-07
6.85786e-07
-1.891e-06
1.56152e-06
2.37166e-06
-1.79239e-06
2.70737e-06
4.30536e-06
-1.66692e-06
3.71441e-06
6.49698e-06
-1.51578e-06
4.59762e-06
8.81638e-06
-1.34347e-06
5.44481e-06
1.09195e-05
-1.16343e-06
6.28242e-06
1.24574e-05
-1.00562e-06
7.04613e-06
1.34369e-05
-8.93606e-07
7.6917e-06
1.41088e-05
-8.22764e-07
8.22013e-06
1.46852e-05
-7.77195e-07
8.64726e-06
1.52996e-05
-7.44784e-07
8.98311e-06
1.60746e-05
-7.18668e-07
9.1877e-06
1.72364e-05
-6.96495e-07
8.97503e-06
1.94037e-05
-6.91503e-07
7.56762e-06
2.40521e-05
-7.37569e-07
5.10135e-06
3.42055e-05
-7.0208e-07
2.71547e-06
5.0689e-05
-5.97805e-07
1.43494e-06
5.41988e-05
-4.39932e-07
4.41921e-05
-1.93024e-07
1.81556e-06
-2.95074e-05
7.52431e-07
2.91758e-06
-4.26469e-05
1.68754e-06
3.50014e-06
-4.43698e-05
1.94233e-06
3.68998e-06
-4.32814e-05
1.86739e-06
3.01451e-06
-3.94839e-05
1.64998e-06
1.12263e-06
-3.22975e-05
1.29118e-06
-1.25358e-06
-2.41226e-05
7.83872e-07
-3.23117e-06
-1.75075e-05
2.14622e-07
-4.46322e-06
-1.28449e-05
-3.15215e-07
-5.01511e-06
-9.58653e-06
-7.51959e-07
-5.07496e-06
-7.22155e-06
-1.09269e-06
-4.80254e-06
-5.41007e-06
-1.3471e-06
-4.29629e-06
-3.92477e-06
-1.52825e-06
-3.60947e-06
-2.61054e-06
-1.6486e-06
-2.76667e-06
-1.36168e-06
-1.71788e-06
-1.75573e-06
-1.19945e-07
-1.74254e-06
-6.251e-07
1.25194e-06
-1.7253e-06
6.28484e-07
2.75191e-06
-1.66422e-06
1.99902e-06
4.45678e-06
-1.55351e-06
3.44535e-06
6.40892e-06
-1.38938e-06
4.88297e-06
8.53528e-06
-1.18486e-06
6.21727e-06
1.05443e-05
-9.82757e-07
7.41882e-06
1.20693e-05
-8.33129e-07
8.51607e-06
1.30677e-05
-7.45907e-07
9.53672e-06
1.37728e-05
-7.01228e-07
1.04948e-05
1.43952e-05
-6.81964e-07
1.13932e-05
1.50705e-05
-6.7907e-07
1.22148e-05
1.59339e-05
-6.87198e-07
1.28676e-05
1.72721e-05
-7.00739e-07
1.29231e-05
1.99915e-05
-7.21095e-07
1.09568e-05
2.64974e-05
-8.09483e-07
6.37663e-06
3.90128e-05
-8.87642e-07
3.00125e-06
5.42476e-05
-7.64614e-07
1.49897e-06
5.59933e-05
-5.62386e-07
4.59775e-05
-2.93388e-07
2.56278e-06
-3.30323e-05
1.04597e-06
2.62654e-06
-4.45565e-05
1.96606e-06
1.65923e-06
-4.54791e-05
2.19065e-06
1.26441e-07
-4.3769e-05
2.14484e-06
-2.17594e-06
-3.89851e-05
1.95072e-06
-4.91381e-06
-3.10329e-05
1.60633e-06
-7.24e-06
-2.28411e-05
1.12919e-06
-8.74877e-06
-1.65636e-05
6.00346e-07
-9.52459e-06
-1.2175e-05
1.07979e-07
-9.76897e-06
-9.06815e-06
-2.89738e-07
-9.61508e-06
-6.79017e-06
-6.08174e-07
-9.15151e-06
-5.03982e-06
-8.58634e-07
-8.44106e-06
-3.60467e-06
-1.05558e-06
-7.53435e-06
-2.33276e-06
-1.20966e-06
-6.47682e-06
-1.11858e-06
-1.32636e-06
-5.33593e-06
1.19366e-07
-1.40704e-06
-4.05573e-06
1.39323e-06
-1.45003e-06
-2.66565e-06
2.78227e-06
-1.45131e-06
-1.15023e-06
4.3118e-06
-1.40416e-06
5.17563e-07
6.00535e-06
-1.30087e-06
2.32095e-06
7.83487e-06
-1.14195e-06
4.13246e-06
9.6474e-06
-9.54935e-07
5.76796e-06
1.11869e-05
-7.94829e-07
7.15393e-06
1.23314e-05
-6.94707e-07
8.32872e-06
1.31918e-05
-6.4356e-07
9.34861e-06
1.39435e-05
-6.2325e-07
1.02454e-05
1.47377e-05
-6.2456e-07
1.10122e-05
1.57415e-05
-6.43513e-07
1.1542e-05
1.73242e-05
-6.76584e-07
1.1371e-05
2.06843e-05
-7.22494e-07
9.10601e-06
2.90344e-05
-8.2804e-07
4.05255e-06
4.39666e-05
-1.00136e-06
1.35515e-06
5.70137e-05
-9.49873e-07
4.61888e-07
5.71139e-05
-7.76636e-07
4.66376e-05
-4.69157e-07
4.11307e-07
-3.4759e-05
1.49633e-06
-2.1926e-06
-4.4141e-05
2.33242e-06
-5.50794e-06
-4.45289e-05
2.46523e-06
-8.8867e-06
-4.27161e-05
2.40494e-06
-1.17533e-05
-3.82712e-05
2.21075e-06
-1.32711e-05
-3.13748e-05
1.89117e-06
-1.34581e-05
-2.41298e-05
1.49677e-06
-1.29096e-05
-1.81853e-05
1.08962e-06
-1.20715e-05
-1.37102e-05
7.05358e-07
-1.11443e-05
-1.03529e-05
3.56174e-07
-1.01692e-05
-7.80599e-06
3.15712e-08
-9.19045e-06
-5.83528e-06
-1.97819e-07
-8.15902e-06
-4.24485e-06
-4.09201e-07
-7.04484e-06
-2.87647e-06
-5.90834e-07
-5.82933e-06
-1.6128e-06
-7.43587e-07
-4.49836e-06
-3.67538e-07
-8.68156e-07
-3.06574e-06
8.98452e-07
-9.63823e-07
-1.53085e-06
2.24754e-06
-1.02829e-06
9.86576e-08
3.7091e-06
-1.05747e-06
1.81327e-06
5.303e-06
-1.04579e-06
3.57982e-06
7.02088e-06
-9.88931e-07
5.29265e-06
8.7883e-06
-8.92365e-07
6.76837e-06
1.04512e-05
-7.80058e-07
7.8689e-06
1.1872e-05
-6.82529e-07
8.57745e-06
1.30519e-05
-6.12255e-07
8.93432e-06
1.41049e-05
-5.64957e-07
8.97721e-06
1.51777e-05
-5.34403e-07
8.7213e-06
1.64557e-05
-5.17611e-07
8.14397e-06
1.83388e-05
-5.13759e-07
7.13228e-06
2.20912e-05
-5.26614e-07
5.24815e-06
3.11671e-05
-5.96746e-07
1.66422e-06
4.74303e-05
-8.13777e-07
2.56197e-08
5.86867e-05
-8.9872e-07
-3.82447e-07
5.76967e-05
-8.22999e-07
4.63099e-05
-5.06187e-07
-4.42427e-06
-3.22938e-05
2.00317e-06
-9.09629e-06
-4.20837e-05
2.59708e-06
-1.30626e-05
-4.33154e-05
2.67697e-06
-1.59208e-05
-4.26859e-05
2.69543e-06
-1.65659e-05
-4.04603e-05
2.63937e-06
-1.43529e-05
-3.62695e-05
2.48148e-06
-1.05879e-05
-3.02446e-05
2.21442e-06
-7.05935e-06
-2.36524e-05
1.87826e-06
-4.54484e-06
-1.77609e-05
1.52096e-06
-3.05737e-06
-1.30132e-05
1.17388e-06
-2.32337e-06
-9.39354e-06
8.55785e-07
-2.02044e-06
-6.71222e-06
5.72197e-07
-1.8833e-06
-4.70739e-06
3.18752e-07
-1.73132e-06
-3.12257e-06
8.31838e-08
-1.50152e-06
-1.76041e-06
-9.67038e-08
-1.15304e-06
-4.78808e-07
-2.54725e-07
-6.31638e-07
7.51299e-07
-3.94399e-07
7.65432e-08
2.02682e-06
-5.10123e-07
9.4896e-07
3.40958e-06
-5.98115e-07
1.95209e-06
4.92626e-06
-6.54244e-07
3.02605e-06
6.59133e-06
-6.7457e-07
4.05997e-06
8.38155e-06
-6.58496e-07
4.88657e-06
1.02082e-05
-6.14087e-07
5.35004e-06
1.1939e-05
-5.58166e-07
5.38847e-06
1.34948e-05
-5.05475e-07
5.01777e-06
1.49156e-05
-4.61342e-07
4.27044e-06
1.63319e-05
-4.25573e-07
3.17579e-06
1.79341e-05
-3.962e-07
1.81912e-06
2.00787e-05
-3.69097e-07
5.43156e-07
2.38216e-05
-3.39712e-07
8.38572e-08
3.22616e-05
-3.27084e-07
-3.30528e-07
4.83302e-05
-4.58238e-07
-7.52738e-07
5.9238e-05
-6.19014e-07
-6.86359e-07
5.77999e-05
-6.17736e-07
4.56828e-05
-3.50515e-07
-6.36936e-06
-2.81109e-05
2.01047e-06
-9.74278e-06
-4.13019e-05
2.37845e-06
-1.12219e-05
-4.44674e-05
2.41991e-06
-1.14767e-05
-4.51357e-05
2.48149e-06
-1.02458e-05
-4.451e-05
2.56734e-06
-7.09799e-06
-4.23507e-05
2.65298e-06
-2.24419e-06
-3.80444e-05
2.68291e-06
3.1527e-06
-3.18446e-05
2.6054e-06
7.86659e-06
-2.49967e-05
2.41881e-06
1.11999e-05
-1.85298e-05
2.14823e-06
1.29255e-05
-1.29495e-05
1.83275e-06
1.31975e-05
-8.48517e-06
1.51472e-06
1.24534e-05
-5.17335e-06
1.2214e-06
1.12102e-05
-2.83432e-06
9.59785e-07
9.86239e-06
-1.1412e-06
7.2701e-07
8.64445e-06
2.13303e-07
5.18737e-07
7.6206e-06
1.43177e-06
3.31814e-07
6.83501e-06
2.63395e-06
1.6319e-07
6.32029e-06
3.89794e-06
7.77704e-09
6.02508e-06
5.28319e-06
-8.35159e-08
5.90981e-06
6.83793e-06
-1.56142e-07
5.87752e-06
8.58614e-06
-1.99314e-07
5.77415e-06
1.04961e-05
-2.11674e-07
5.43387e-06
1.24569e-05
-2.02025e-07
4.76583e-06
1.43289e-05
-1.85687e-07
3.77986e-06
1.60621e-05
-1.74332e-07
2.52416e-06
1.77533e-05
-1.72219e-07
1.0299e-06
1.96154e-05
-1.78281e-07
-6.33916e-07
2.19874e-05
-1.84601e-07
-2.01244e-06
2.5629e-05
-1.72489e-07
-1.70201e-06
3.28855e-05
-1.19706e-07
2.20751e-07
4.77256e-05
-9.5583e-08
3.895e-07
5.95587e-05
-2.02335e-07
2.45486e-07
5.82385e-05
-2.08119e-07
4.60635e-05
-5.21006e-08
-2.85034e-06
-2.70785e-05
1.58513e-06
-2.59096e-06
-4.37485e-05
1.92913e-06
-9.07708e-07
-4.82749e-05
1.93918e-06
1.09463e-06
-4.91907e-05
1.91794e-06
3.05183e-06
-4.84871e-05
1.91892e-06
4.98401e-06
-4.63163e-05
1.94698e-06
7.27769e-06
-4.24512e-05
2.01119e-06
1.0275e-05
-3.70809e-05
2.11251e-06
1.39844e-05
-3.10537e-05
2.22005e-06
1.79774e-05
-2.49017e-05
2.27842e-06
2.15115e-05
-1.8776e-05
2.23625e-06
2.38434e-05
-1.29069e-05
2.07706e-06
2.45435e-05
-7.69365e-06
1.83273e-06
2.36995e-05
-3.53515e-06
1.56235e-06
2.18549e-05
-5.93299e-07
1.30884e-06
1.95958e-05
1.3929e-06
1.08437e-06
1.7323e-05
2.81615e-06
8.86714e-07
1.52361e-05
4.00138e-06
7.11886e-07
1.34265e-05
5.13754e-06
5.57402e-07
1.19355e-05
6.33459e-06
4.22642e-07
1.077e-05
7.67304e-06
3.09072e-07
9.89296e-06
9.21729e-06
2.20351e-07
9.2006e-06
1.09984e-05
1.61022e-07
8.52147e-06
1.2974e-05
1.3117e-07
7.68741e-06
1.50134e-05
1.19155e-07
6.6339e-06
1.69814e-05
1.05398e-07
5.40857e-06
1.88787e-05
7.4095e-08
4.09084e-06
2.08976e-05
1.65758e-08
2.69154e-06
2.34287e-05
-3.58746e-08
1.3508e-06
2.71837e-05
-8.04013e-08
1.1053e-06
3.38478e-05
-6.63709e-08
2.8119e-06
4.74643e-05
8.33313e-08
2.68339e-06
6.04692e-05
1.63939e-07
1.65662e-06
5.96249e-05
2.4277e-07
4.77679e-05
3.34336e-07
3.74437e-07
-2.88235e-05
1.21674e-06
2.71176e-06
-4.81433e-05
1.88425e-06
5.82739e-06
-5.33863e-05
1.85911e-06
9.08501e-06
-5.42464e-05
1.68633e-06
1.2185e-05
-5.32059e-05
1.52843e-06
1.48024e-05
-5.03786e-05
1.39118e-06
1.64243e-05
-4.53203e-05
1.25595e-06
1.68568e-05
-3.85861e-05
1.13423e-06
1.69922e-05
-3.22328e-05
1.10516e-06
1.80192e-05
-2.71217e-05
1.21709e-06
2.03712e-05
-2.2571e-05
1.42902e-06
2.36098e-05
-1.78236e-05
1.64783e-06
2.67178e-05
-1.25974e-05
1.77353e-06
2.86215e-05
-7.18997e-06
1.74751e-06
2.87917e-05
-2.34966e-06
1.59386e-06
2.74916e-05
1.30855e-06
1.39149e-06
2.53952e-05
3.71814e-06
1.19628e-06
2.31013e-05
5.26939e-06
1.02286e-06
2.09093e-05
6.45202e-06
8.69994e-07
1.89607e-05
7.5364e-06
7.34861e-07
1.73318e-05
8.67e-06
6.15845e-07
1.60614e-05
9.95383e-06
5.13296e-07
1.5139e-05
1.14659e-05
4.29784e-07
1.44722e-05
1.3243e-05
3.68301e-07
1.38871e-05
1.52385e-05
3.26644e-07
1.32174e-05
1.73212e-05
2.92668e-07
1.24126e-05
1.93917e-05
2.49272e-07
1.15312e-05
2.15459e-05
1.81848e-07
1.06033e-05
2.42138e-05
7.29669e-08
9.29947e-06
2.84425e-05
-5.12606e-08
7.46583e-06
3.58841e-05
-1.36224e-07
6.33427e-06
4.93419e-05
-2.17341e-08
4.81614e-06
6.25746e-05
2.58467e-07
2.63616e-06
6.20104e-05
4.52302e-07
5.03256e-05
5.00945e-07
3.394e-06
-3.3485e-05
1.21632e-06
5.95235e-06
-5.28454e-05
2.08695e-06
7.95787e-06
-5.74521e-05
2.00216e-06
9.85021e-06
-5.79573e-05
1.7551e-06
1.1753e-05
-5.67207e-05
1.536e-06
1.37043e-05
-5.37943e-05
1.36596e-06
1.55305e-05
-4.84553e-05
1.20937e-06
1.65427e-05
-4.05805e-05
9.55864e-07
1.63161e-05
-3.2568e-05
6.26451e-07
1.56185e-05
-2.67153e-05
3.96325e-07
1.56277e-05
-2.28221e-05
3.43814e-07
1.70841e-05
-1.96727e-05
4.67722e-07
2.00167e-05
-1.62314e-05
7.38961e-07
2.36499e-05
-1.18747e-05
1.06051e-06
2.66145e-05
-6.5984e-06
1.28338e-06
2.79463e-05
-1.34297e-06
1.31965e-06
2.76133e-05
2.82739e-06
1.22177e-06
2.6343e-05
5.44747e-06
1.08561e-06
2.47704e-05
7.05981e-06
9.54999e-07
2.32206e-05
8.23714e-06
8.37157e-07
2.18493e-05
9.29688e-06
7.30594e-07
2.07482e-05
1.04051e-05
6.33745e-07
1.99767e-05
1.16719e-05
5.46557e-07
1.95425e-05
1.31843e-05