/*--------------------------------*- C++ -*----------------------------------*\
| =========                 |                                                 |
| \\      /  F ield         | OpenFOAM: The Open Source CFD Toolbox           |
|  \\    /   O peration     | Version:  v2012                                 |
|   \\  /    A nd           | Website:  www.openfoam.com                      |
|    \\/     M anipulation  |                                                 |
\*---------------------------------------------------------------------------*/
FoamFile
{
    version     2.0;
    format      ascii;
    class       volScalarField;
    location    "1600";
    object      alphat;
}
// * * * * * * * * * * * * * * * * * * * * * * * * * * * * * * * * * * * * * //

dimensions      [1 -1 -1 0 0 0 0];


internalField   nonuniform List<scalar> 
4000
(
0.000292662
0.000243013
0.000181385
0.000155643
0.000149045
0.000143603
0.000135505
0.000132264
0.00013264
0.00013289
0.000131925
0.000129976
0.000128844
0.000130523
0.000138448
0.000147448
0.000157831
0.000181671
0.000259022
0.000325678
0.000407204
0.000388917
0.000353869
0.000311374
0.0002698
0.000183033
0.000169167
0.000164801
0.000167367
0.000169848
0.000168178
0.000162572
0.00015679
0.000155786
0.000199697
0.000277072
0.00031317
0.000346723
0.00037231
0.000401391
0.00043368
0.000418202
0.000387767
0.000349102
0.000308388
0.000264678
0.000207653
0.000169009
0.000175733
0.000182706
0.000183618
0.00017447
0.000165318
0.000214623
0.000263449
0.000307522
0.000343792
0.0003782
0.0004071
0.000427591
0.000447295
0.000437438
0.000409442
0.000369538
0.000325938
0.000285734
0.000250888
0.000216509
0.000180714
0.000189176
0.000196229
0.00017854
0.000202412
0.000238413
0.000273531
0.000311919
0.000353912
0.000395069
0.00042528
0.000440324
0.000456123
0.000453301
0.000434999
0.000408007
0.000377014
0.000348877
0.000322106
0.00029436
0.000271702
0.000259202
0.000274058
0.000288828
0.000304674
0.000326481
0.000348725
0.000372238
0.000397775
0.000423185
0.000442355
0.000448359
0.000463336
0.000468384
0.000463424
0.000453638
0.000442451
0.000430774
0.000418665
0.000405671
0.000392594
0.000382523
0.000393726
0.000404982
0.000415225
0.000424438
0.000432673
0.000440515
0.000448272
0.000455515
0.000459679
0.000454893
0.000470632
0.000484328
0.000491371
0.000494448
0.000495311
0.000493558
0.000489025
0.000481978
0.00047276
0.000462759
0.000468966
0.00047786
0.000485153
0.000489879
0.000492058
0.000491785
0.000489061
0.000484326
0.000476407
0.000461129
0.000478928
0.00050119
0.00051823
0.000530392
0.00053902
0.000543873
0.000544897
0.000541634
0.000534394
0.000523493
0.000526737
0.000534833
0.00054033
0.000541696
0.000538953
0.000532542
0.000522853
0.000509984
0.000492607
0.000467919
0.000489649
0.00052172
0.000547452
0.000566912
0.000581709
0.000591729
0.000597124
0.000597255
0.000591425
0.000578975
0.00058013
0.000588179
0.0005918
0.00058973
0.000582552
0.000571064
0.000555722
0.000536346
0.00051086
0.000476891
0.000504724
0.000546529
0.000580487
0.000605922
0.000625888
0.000641224
0.000651884
0.000657366
0.000656783
0.000647306
0.000644351
0.00064794
0.000646427
0.000639446
0.000627598
0.000611496
0.000591347
0.000566341
0.00053312
0.000489936
0.000243013
0.000219412
0.000194194
0.000180498
0.000190124
0.000187711
0.00016498
0.000157596
0.000155412
0.000154879
0.000152797
0.00014946
0.000148757
0.000156501
0.000173844
0.000180199
0.000186732
0.000204921
0.00025527
0.000289278
0.000388917
0.000501607
0.00046552
0.000429188
0.00041396
0.00037134
0.000367278
0.000398788
0.000457201
0.000504085
0.000508356
0.000463663
0.000398734
0.000372309
0.000395432
0.000448304
0.000465422
0.000492615
0.000508558
0.000389779
0.000418202
0.000553524
0.000555755
0.000491973
0.000442756
0.000411192
0.000378922
0.000385444
0.000444193
0.000538951
0.000568534
0.000492768
0.000385517
0.000380076
0.000416459
0.000454531
0.000492368
0.000540845
0.000550106
0.000423569
0.000437438
0.00058975
0.000608739
0.000552756
0.000472416
0.000418118
0.000380217
0.000359093
0.000387731
0.000505626
0.00053901
0.000416125
0.000345579
0.000365974
0.000406041
0.000450925
0.000512162
0.000577035
0.000579813
0.000439335
0.000453301
0.000615237
0.000642124
0.000594207
0.000505259
0.000438127
0.000389337
0.000350529
0.000331623
0.000357214
0.000371414
0.000335871
0.000334429
0.000372926
0.000420706
0.000475278
0.000556337
0.000625433
0.000614633
0.000450766
0.000468384
0.000641019
0.000679509
0.000656804
0.000589449
0.000500462
0.000440751
0.00039091
0.00036136
0.000358032
0.000371932
0.000373121
0.000390175
0.000430435
0.000482385
0.000553431
0.000633298
0.000672411
0.000641872
0.000460943
0.000484328
0.000662166
0.000709849
0.000722955
0.000709731
0.000651058
0.000557693
0.000497191
0.000457105
0.000440693
0.000458395
0.000479045
0.000512192
0.000567684
0.000638956
0.000701579
0.000718584
0.00070371
0.000657256
0.000471857
0.00050119
0.000677978
0.000731627
0.00077948
0.000832227
0.000859711
0.000853239
0.000805489
0.000750084
0.00071076
0.000744802
0.000789694
0.000832779
0.000859299
0.000864205
0.000837876
0.000779406
0.000719507
0.000660839
0.000485059
0.00052172
0.000671901
0.00074164
0.000797862
0.000843242
0.000864607
0.000869171
0.000850918
0.000809586
0.000756867
0.000776196
0.000824578
0.000856568
0.000862107
0.000845729
0.000813743
0.000768646
0.000715183
0.000652774
0.000502031
0.000546529
0.000591147
0.000628628
0.000658347
0.000683277
0.000703853
0.000719372
0.000728449
0.000729491
0.000719563
0.000713685
0.000716763
0.000712705
0.000701091
0.000683311
0.000661042
0.000635394
0.000605847
0.000568935
0.000523322
0.000181385
0.000194194
0.000190458
0.000195418
0.000214067
0.000206483
0.000184215
0.000172209
0.000167466
0.000165566
0.000162634
0.000158874
0.000159598
0.000171364
0.000192085
0.000195252
0.00019814
0.000202942
0.000221277
0.000235655
0.000353869
0.00046552
0.00047356
0.000484396
0.000485005
0.000446078
0.000435718
0.00046832
0.000527698
0.00058795
0.00060239
0.000542259
0.000462467
0.00042307
0.000476943
0.000532847
0.000531409
0.000531789
0.000517545
0.000374091
0.000387767
0.000555755
0.000568191
0.000531719
0.000506245
0.000493636
0.000474734
0.000476027
0.000531078
0.000630482
0.000674427
0.000563652
0.000474978
0.000474083
0.00050017
0.000531506
0.000557046
0.000588129
0.000568784
0.000407556
0.000409442
0.000608739
0.000656925
0.000605901
0.000542252
0.000499796
0.000474611
0.000469322
0.000508811
0.00059861
0.000636398
0.000523849
0.000453322
0.000461144
0.000494116
0.000536087
0.000591445
0.000645889
0.000616348
0.000425321
0.000434999
0.000642124
0.000697357
0.000660126
0.000575318
0.000509679
0.00046559
0.000437319
0.000438918
0.000519882
0.000553944
0.000447255
0.000417111
0.00044563
0.000490714
0.000549658
0.000635717
0.00070327
0.000665112
0.000442431
0.000463424
0.000679509
0.000742473
0.000715564
0.000627911
0.000538165
0.000472683
0.000420734
0.000386715
0.000393721
0.000406953
0.000385084
0.000397747
0.000443659
0.000502758
0.000583167
0.000692371
0.000755465
0.000704141
0.000460242
0.000491371
0.000709849
0.000784754
0.000779165
0.000712392
0.000625805
0.000543456
0.000479654
0.000433604
0.000420541
0.000432486
0.000436772
0.000463394
0.000514076
0.000579469
0.000662458
0.000754087
0.000792105
0.000728059
0.000479181
0.00051823
0.000731627
0.000831597
0.000878949
0.00087294
0.000832474
0.000783007
0.000721512
0.000657433
0.000613693
0.000634654
0.000673559
0.000713551
0.000749674
0.000782962
0.000817996
0.000845267
0.000821794
0.000737834
0.000499413
0.000547452
0.00074164
0.000911102
0.0010718
0.00118606
0.00123636
0.00124067
0.00118968
0.00109674
0.000992023
0.00102055
0.00112428
0.00119029
0.00120005
0.00117119
0.00111224
0.00101763
0.000876373
0.000725863
0.000524156
0.000580487
0.000628628
0.000668821
0.000701714
0.000730492
0.000755379
0.00077528
0.00078779
0.000790411
0.000779684
0.00077078
0.000773924
0.000767487
0.000751498
0.000728368
0.000701097
0.000671662
0.000639406
0.000600508
0.00055277
0.000155643
0.000180498
0.000195418
0.000218361
0.000226991
0.000212106
0.000193458
0.000181627
0.00017607
0.000173875
0.000170688
0.000166336
0.000167593
0.000178373
0.000200628
0.000208809
0.000204618
0.000199958
0.000194568
0.000181611
0.000311375
0.000429188
0.000484396
0.000516643
0.000514816
0.000481168
0.000481375
0.000515991
0.000575985
0.000641789
0.000659459
0.000584489
0.000491206
0.000457065
0.000503679
0.000575239
0.000570316
0.000538401
0.000491151
0.000353698
0.000349102
0.000491973
0.000531719
0.000537665
0.000541327
0.000544949
0.000532042
0.000538182
0.000597714
0.000696263
0.000737677
0.000616413
0.000529399
0.000529162
0.000546415
0.000567174
0.000573555
0.000572584
0.00053909
0.00037956
0.000369538
0.000552756
0.000605901
0.00059114
0.000564478
0.00054752
0.000541137
0.000545725
0.000581904
0.000672342
0.000704933
0.000592862
0.00052546
0.000523863
0.000544701
0.000573523
0.000609028
0.000639834
0.000595203
0.000397475
0.000408007
0.000594207
0.000660126
0.000644928
0.00059683
0.000555754
0.000528873
0.000516637
0.000538252
0.000626734
0.000649474
0.00054244
0.000497407
0.000512665
0.000546679
0.000593937
0.000658252
0.000704969
0.000656948
0.000424107
0.000453638
0.000656804
0.000715564
0.000702826
0.000643889
0.000580168
0.000529629
0.000490261
0.00046992
0.000498106
0.000515476
0.000466483
0.000464834
0.000502341
0.000554462
0.000624299
0.000713951
0.000766967
0.000716709
0.000454148
0.000494448
0.000722955
0.000779165
0.000774352
0.000722949
0.000654733
0.000591554
0.000538226
0.000498746
0.000493991
0.000499458
0.000486007
0.000504626
0.000548021
0.000604846
0.000681471
0.000774088
0.000821019
0.000762618
0.000482214
0.000530392
0.00077948
0.000878949
0.000925361
0.000910913
0.000867037
0.000818438
0.000762923
0.000699173
0.00065026
0.000660248
0.000694249
0.000729371
0.000759502
0.000792679
0.000841075
0.000897651
0.000890623
0.000787197
0.000509672
0.000566912
0.000797862
0.0010718
0.00133047
0.00138565
0.00141792
0.00143416
0.00140518
0.00131137
0.00118217
0.00119331
0.00131574
0.00137809
0.00136144
0.00130903
0.00126304
0.00123594
0.00103532
0.000780492
0.00054071
0.000605922
0.000658347
0.000701714
0.000738182
0.000771907
0.000802646
0.000828264
0.000845932
0.00085256
0.000845007
0.000830227
0.000830169
0.000819641
0.000798275
0.000769148
0.000736006
0.000702109
0.000666992
0.00062564
0.000574907
0.000149045
0.000190124
0.000214067
0.000226991
0.000224029
0.000209452
0.000195843
0.000186859
0.000183092
0.000182752
0.000179456
0.000173724
0.000175109
0.000184342
0.000200865
0.000214724
0.00021093
0.000200791
0.00018635
0.000159769
0.0002698
0.00041396
0.000485005
0.000514816
0.00050935
0.000500329
0.000514884
0.000553196
0.000620303
0.000694005
0.000706399
0.000602479
0.000511717
0.00048227
0.000498924
0.000569132
0.000591566
0.000547687
0.000469302
0.000320548
0.000308388
0.000442756
0.000506245
0.000541327
0.000566436
0.000571347
0.000563852
0.000581895
0.000652481
0.000756105
0.000782634
0.000647108
0.000559929
0.000558602
0.00057262
0.000578582
0.000573028
0.000544653
0.000483422
0.000342708
0.000325938
0.000472417
0.000542252
0.000564478
0.00057226
0.000579641
0.000585989
0.000593539
0.000636582
0.00073599
0.000755083
0.000634261
0.000570768
0.000562584
0.000569378
0.000578374
0.000584888
0.000576168
0.000518956
0.000358876
0.000377014
0.000505259
0.000575318
0.00059683
0.000590303
0.00057941
0.000573311
0.000578611
0.000617102
0.000710327
0.000722731
0.000606193
0.000553228
0.000555795
0.000573587
0.000596901
0.00062326
0.000631661
0.000587087
0.000401986
0.000442451
0.000589449
0.000627911
0.000643889
0.000628336
0.000600188
0.000573393
0.000554205
0.00055965
0.000628017
0.000646909
0.000555203
0.000530717
0.000553031
0.000589184
0.000633469
0.000682298
0.000706789
0.000678292
0.000445497
0.000495311
0.000709731
0.000712392
0.000722949
0.000709555
0.000676108
0.000637606
0.000602938
0.000585714
0.00061641
0.000619813
0.00056648
0.000566287
0.000598618
0.000643572
0.000698887
0.000757994
0.000788404
0.000769742
0.00048251
0.00053902
0.000832227
0.00087294
0.000910913
0.000909981
0.000881264
0.000845578
0.000801021
0.000744045
0.000700883
0.000703431
0.000724131
0.000752977
0.000778162
0.000810545
0.000858166
0.000908119
0.00091243
0.000826762
0.000516463
0.000581709
0.000843242
0.00118606
0.00138565
0.00149757
0.00158065
0.00162844
0.00160226
0.00147238
0.00127915
0.00127513
0.0014581
0.00155039
0.00152523
0.00144377
0.00136292
0.00128942
0.00113897
0.000818668
0.000552789
0.000625888
0.000683277
0.000730492
0.000771907
0.000813067
0.000850533
0.000882104
0.000905195
0.000916814
0.000914072
0.000892363
0.000887791
0.000872595
0.000845925
0.000811082
0.000771851
0.000731148
0.000691476
0.000646776
0.000592139
0.000143603
0.000187711
0.000206483
0.000212106
0.000209452
0.000201964
0.000194656
0.000189952
0.000189432
0.000192362
0.000188709
0.000181382
0.000181703
0.000188155
0.000198167
0.000209195
0.000213198
0.000201231
0.000182325
0.000151138
0.000183033
0.00037134
0.000446078
0.000481168
0.000500329
0.000517696
0.000542393
0.000584348
0.000653392
0.000722935
0.000725972
0.000615312
0.000530586
0.00050338
0.000501031
0.000523214
0.000555973
0.000537777
0.000452843
0.000280646
0.000264678
0.000411192
0.000493636
0.000544949
0.000571347
0.000577191
0.000584043
0.000615016
0.000688732
0.000768706
0.000781208
0.000659725
0.000577436
0.000570044
0.000581927
0.000578486
0.000558888
0.000518798
0.000441977
0.000302983
0.000285734
0.000418118
0.000499796
0.00054752
0.000579641
0.00060135
0.000610407
0.000621824
0.000671643
0.000740993
0.000751955
0.000650729
0.000594798
0.000585459
0.000580797
0.000571782
0.000553898
0.000517838
0.000445866
0.00031826
0.000348877
0.000438127
0.000509679
0.000555754
0.00057941
0.000592869
0.000604756
0.000623327
0.000668006
0.000726471
0.000734569
0.000640204
0.000586795
0.000578914
0.000580524
0.00057926
0.000569712
0.000541085
0.000486965
0.000379327
0.000430774
0.000500461
0.000538165
0.000580168
0.000600188
0.00060307
0.000599996
0.000602637
0.000632478
0.000696017
0.0007058
0.000614285
0.000574287
0.000580216
0.00059631
0.000609872
0.00061408
0.000600307
0.000583801
0.000435425
0.000493558
0.000651058
0.000625805
0.000654733
0.000676108
0.000674968
0.000660612
0.000647105
0.000657819
0.000714579
0.000710859
0.000627661
0.000608251
0.000627901
0.000656636
0.000682863
0.000698514
0.000701317
0.000737275
0.000480251
0.000543873
0.000859711
0.000832474
0.000867037
0.000881264
0.000874402
0.000856143
0.000820218
0.000766142
0.00073066
0.000727122
0.000736399
0.000764731
0.000785745
0.000809468
0.000842551
0.000870752
0.000866266
0.00083992
0.000519501
0.000591729
0.000864607
0.00123636
0.00141792
0.00158065
0.0017062
0.00176603
0.0017081
0.00149766
0.00121006
0.00120809
0.00149124
0.00165465
0.00164572
0.00154526
0.00142532
0.00130505
0.00117257
0.000826073
0.000560024
0.000641224
0.000703854
0.000755379
0.000802646
0.000850533
0.000894379
0.000932281
0.00096192
0.000980995
0.000987575
0.000957876
0.000944974
0.000923252
0.000890523
0.000849705
0.000804391
0.000757278
0.00071227
0.000663897
0.00060508
0.000135505
0.00016498
0.000184215
0.000193458
0.000195843
0.000194656
0.000192968
0.000192858
0.000196534
0.000204613
0.000200764
0.000190195
0.000187778
0.000190037
0.000193762
0.000197263
0.000199572
0.000196293
0.000179496
0.000143381
0.000169167
0.000367278
0.000435718
0.000481375
0.000514884
0.000542393
0.000571702
0.000613301
0.000669316
0.000708209
0.000711016
0.000627112
0.000554317
0.000524608
0.000511933
0.000499094
0.000484376
0.000461816
0.000389009
0.000205306
0.000207653
0.000378922
0.000474734
0.000532042
0.000563852
0.000584043
0.000606111
0.000642529
0.000682927
0.000657722
0.000679903
0.00065136
0.000592771
0.000577216
0.000579247
0.000573514
0.000544484
0.000487768
0.000401377
0.000261643
0.000250888
0.000380217
0.000474611
0.000541137
0.000585989
0.000610407
0.000622008
0.000639294
0.000654803
0.000578292
0.000614363
0.000637591
0.000605395
0.000597702
0.000588299
0.00056589
0.000529662
0.000474481
0.000394023
0.00028391
0.000322106
0.000389337
0.00046559
0.000528873
0.000573311
0.000604756
0.000628595
0.000650909
0.000657826
0.000553746
0.000590015
0.000636211
0.000605536
0.000591511
0.000580208
0.000559935
0.000525615
0.000474584
0.000419167
0.000358915
0.000418665
0.000440751
0.000472683
0.000529629
0.000573393
0.000599996
0.000617769
0.000637873
0.000649492
0.000563693
0.000588651
0.000627258
0.000598898
0.000591032
0.000587846
0.00057505
0.000546119
0.000505037
0.00048916
0.000424742
0.000489025
0.000557693
0.000543456
0.000591554
0.000637606
0.000660612
0.000667203
0.000674963
0.000693463
0.000663889
0.000667522
0.000652883
0.00062861
0.000634646
0.000645349
0.000643741
0.000622962
0.000600511
0.000659258
0.00047555
0.000544897
0.000853239
0.000783007
0.000818438
0.000845578
0.000856143
0.000847118
0.00081161
0.000759554
0.000722163
0.000710929
0.000720441
0.000753632
0.000775741
0.000789742
0.000803001
0.000806371
0.000786541
0.000825841
0.000519081
0.000597124
0.000869171
0.00124067
0.00143416
0.00162844
0.00176603
0.00180561
0.00167015
0.00136525
0.00109802
0.00108274
0.00138133
0.00165809
0.00169815
0.00159944
0.0014527
0.00129209
0.00113297
0.000811881
0.000563096
0.000651884
0.000719372
0.000775281
0.000828264
0.000882104
0.000932281
0.000977601
0.00101646
0.0010493
0.00107642
0.00103587
0.00100412
0.000971126
0.000930514
0.000883097
0.000831767
0.000778848
0.000728461
0.000676519
0.000613864
0.000132264
0.000157596
0.000172209
0.000181627
0.000186859
0.000189952
0.000192858
0.000197317
0.000205763
0.000219344
0.000215806
0.000201581
0.000194484
0.000190986
0.000188648
0.00018586
0.000181448
0.000174283
0.000160004
0.000129349
0.000164801
0.000398788
0.00046832
0.000515991
0.000553196
0.000584348
0.000613301
0.000638238
0.000631954
0.000530857
0.000550252
0.000619746
0.00059201
0.0005561
0.000530514
0.000504408
0.000470137
0.00042163
0.000344006
0.000159708
0.000169009
0.000385444
0.000476027
0.000538182
0.000581895
0.000615016
0.000642529
0.000647805
0.000554377
0.000402149
0.000404434
0.000566779
0.000612808
0.000595485
0.000580654
0.000563829
0.000532005
0.000470866
0.000373669
0.000223974
0.000216509
0.000359093
0.000469322
0.000545725
0.000593539
0.000621824
0.000639294
0.000626399
0.000494537
0.000430687
0.00039126
0.000519919
0.000609502
0.000608117
0.000595209
0.000565796
0.000516133
0.000445685
0.000354906
0.000251571
0.00029436
0.000350529
0.000437319
0.000516637
0.000578611
0.000623327
0.000650909
0.000636283
0.000495164
0.000541565
0.000449591
0.00050333
0.000610859
0.00060453
0.000582238
0.00054652
0.000493852
0.000426506
0.000368194
0.0003404
0.00040567
0.00039091
0.000420734
0.000490261
0.000554205
0.000602637
0.000637873
0.000634761
0.000511645
0.000656625
0.000526096
0.000492936
0.000606002
0.000599579
0.000578204
0.000543145
0.000491063
0.000435139
0.000426569
0.000413909
0.000481978
0.000497191
0.000479654
0.000538226
0.000602938
0.000647105
0.000674963
0.00068464
0.000605011
0.000764714
0.000624696
0.000561148
0.000635954
0.00063432
0.000625483
0.000599373
0.00055164
0.000510027
0.000562361
0.000468771
0.000541634
0.000805489
0.000721512
0.000762923
0.000801021
0.000820218
0.00081161
0.000777372
0.000735947
0.000847325
0.000728911
0.000676594
0.000718216
0.000745304
0.00075435
0.000750394
0.000733153
0.000700684
0.000796268
0.000515334
0.000597255
0.000850918
0.00118968
0.00140518
0.00160226
0.0017081
0.00167015
0.00144571
0.00123937
0.00131341
0.00120046
0.00118263
0.00148158
0.00162994
0.00157893
0.00143465
0.00125192
0.00106213
0.000781973
0.000561978
0.000657366
0.000728449
0.00078779
0.000845932
0.000905195
0.00096192
0.00101646
0.00107075
0.00113023
0.00119402
0.00113894
0.00107038
0.00101521
0.000963199
0.000908565
0.000851587
0.000793636
0.000738676
0.000683871
0.000618296
0.00013264
0.000155412
0.000167466
0.00017607
0.000183092
0.000189432
0.000196534
0.000205763
0.000217352
0.000233151
0.000227927
0.000215344
0.000204547
0.000193701
0.000184998
0.000177388
0.000169639
0.000160041
0.000145489
0.00012157
0.000167367
0.000457201
0.000527698
0.000575985
0.000620302
0.000653392
0.000669316
0.000631954
0.00048098
0.000555152
0.000560322
0.000498932
0.00063194
0.000615849
0.000572392
0.000529538
0.000484462
0.000427307
0.000342155
0.000152839
0.000175733
0.000444193
0.000531078
0.000597714
0.000652481
0.000688732
0.000682927
0.000554377
0.000399928
0.000803821
0.000736634
0.00038004
0.000585958
0.000641327
0.000611327
0.000572895
0.000528146
0.000465594
0.000363758
0.000175544
0.000180714
0.000387731
0.000508811
0.000581904
0.000636582
0.000671642
0.000654803
0.000494537
0.000496038
0.00115252
0.00100289
0.000401449
0.000538369
0.000633032
0.000614615
0.000576157
0.000517693
0.000434383
0.000329379
0.0002177
0.000271702
0.000331623
0.000438918
0.000538252
0.000617102
0.000668006
0.000657826
0.000495164
0.000673725
0.00153962
0.00130494
0.000473442
0.00051577
0.000625472
0.000599293
0.000546647
0.00047581
0.000392247
0.000330262
0.000325606
0.000392594
0.00036136
0.000386715
0.00046992
0.00055965
0.000632478
0.000649492
0.000511645
0.000836944
0.00188368
0.00158115
0.00055199
0.000500331
0.000616083
0.000584003
0.000524322
0.000450205
0.000384913
0.000386026
0.00040376
0.00047276
0.000457105
0.000433604
0.000498746
0.000585714
0.000657819
0.000693463
0.000605011
0.000970915
0.00210681
0.00175829
0.000651311
0.000558376
0.000644541
0.000617697
0.000565115
0.000494803
0.000445676
0.000499346
0.000460528
0.000534394
0.000750084
0.000657433
0.000699173
0.000744045
0.000766142
0.000759554
0.000735947
0.00106522
0.00217186
0.00182565
0.000760648
0.00066391
0.000699874
0.000707864
0.000692425
0.000660416
0.000624455
0.000753747
0.000508097
0.000591425
0.000809586
0.00109674
0.00131137
0.00147238
0.00149766
0.00136525
0.00123937
0.00148479
0.00202255
0.00179377
0.00122755
0.00118139
0.00138762
0.00144347
0.0013489
0.00117606
0.000975787
0.000739743
0.000556011
0.000656783
0.000729491
0.000790411
0.00085256
0.000916814
0.000980995
0.0010493
0.00113023
0.00122979
0.00132731
0.0012647
0.0011493
0.00105691
0.000985644
0.000922237
0.000860144
0.0007983
0.000739935
0.000683904
0.00061707
0.00013289
0.000154879
0.000165566
0.000173875
0.000182752
0.000192362
0.000204613
0.000219344
0.000233151
0.000242349
0.00023662
0.000227692
0.000215074
0.000199383
0.000185456
0.000174433
0.000164107
0.000152619
0.000138426
0.000116937
0.000169848
0.000504085
0.00058795
0.000641788
0.000694005
0.000722935
0.000708209
0.000530857
0.000555152
0.000355824
0.000368081
0.000574233
0.000551378
0.000666272
0.000627532
0.000576351
0.000520287
0.000446479
0.000357508
0.000146194
0.000182706
0.000538951
0.000630482
0.000696263
0.000756105
0.000768706
0.000657722
0.000402149
0.000803821
0.000530033
0.000543119
0.000716202
0.00040745
0.000665235
0.000677316
0.000628557
0.000564069
0.000480573
0.000384643
0.000162546
0.000189176
0.000505626
0.000598609
0.000672342
0.00073599
0.000740993
0.000578292
0.000430687
0.00115252
0.000717916
0.000729073
0.000937474
0.000374856
0.000627422
0.000670654
0.000622648
0.000551366
0.000456598
0.000329011
0.000202455
0.000259202
0.000357214
0.000519882
0.000626734
0.000710327
0.000726471
0.000553746
0.000541565
0.00153962
0.000923033
0.000934339
0.00118386
0.000400421
0.000599654
0.000648755
0.000580569
0.000483872
0.000378556
0.000314401
0.000321843
0.000382523
0.000358032
0.000393721
0.000498106
0.000628017
0.000696017
0.000563693
0.000656625
0.00188368
0.00113997
0.00115608
0.0014112
0.000439458
0.000582236
0.000624476
0.000538492
0.000431923
0.000359878
0.000372295
0.000397698
0.000462758
0.000440693
0.000420541
0.000493991
0.00061641
0.000714579
0.000663889
0.000764714
0.00210681
0.00134575
0.00137525
0.0015763
0.000524243
0.000632838
0.000648587
0.000563902
0.000464195
0.00041548
0.000476844
0.000452434
0.000523493
0.00071076
0.000613693
0.00065026
0.000700883
0.00073066
0.000722163
0.000847325
0.00217186
0.00150291
0.00155177
0.00161412
0.000628971
0.000666528
0.0006781
0.000650762
0.000606647
0.000578014
0.000723979
0.000498035
0.000578975
0.000756867
0.000992023
0.00118217
0.00127915
0.00121006
0.00109802
0.00131341
0.00202255
0.00162427
0.00166571
0.00162478
0.00108463
0.001061
0.00122021
0.00121636
0.00108336
0.000895095
0.000691754
0.000544175
0.000647306
0.000719563
0.000779684
0.000845007
0.000914072
0.000987575
0.00107642
0.00119402
0.00132731
0.00128356
0.00129614
0.00122682
0.00109668
0.000995678
0.000920215
0.000853514
0.000789153
0.000728834
0.000673652
0.000607328
0.000131925
0.000152797
0.000162634
0.000170688
0.000179456
0.000188709
0.000200764
0.000215806
0.000227927
0.00023662
0.000230503
0.000221549
0.000210439
0.000197384
0.000185862
0.000175813
0.000165416
0.000152789
0.000136638
0.000115031
0.000168178
0.000508356
0.00060239
0.000659459
0.000706399
0.000725972
0.000711016
0.000550252
0.000560322
0.000368081
0.000364586
0.000533133
0.00054257
0.000613903
0.000581192
0.000545645
0.000506573
0.00044796
0.000364332
0.000143847
0.000183618
0.000568534
0.000674427
0.000737677
0.000782634
0.000781208
0.000679903
0.000404434
0.000736634
0.000543119
0.000531131
0.000600365
0.000432324
0.000642884
0.000645135
0.00061388
0.000567821
0.000491683
0.000396346
0.000162979
0.000196229
0.00053901
0.000636398
0.000704933
0.000755083
0.000751955
0.000614363
0.00039126
0.00100289
0.000729073
0.000714478
0.000754154
0.00039338
0.000642033
0.000667609
0.000635753
0.000579282
0.000490397
0.000345874
0.000220534
0.000274058
0.000371414
0.000553944
0.000649474
0.000722732
0.000734569
0.000590015
0.000449592
0.00130494
0.000934339
0.00092553
0.000946523
0.000396448
0.000635272
0.000665572
0.000602765
0.000497312
0.000381018
0.00032441
0.00033547
0.000393726
0.000371932
0.000406953
0.000515476
0.000646909
0.0007058
0.000588651
0.000526096
0.00158115
0.00115608
0.00115944
0.00113498
0.000420188
0.000623583
0.00064515
0.000554911
0.00043145
0.000360755
0.00038505
0.000405895
0.000468966
0.000458395
0.000432486
0.000499458
0.000619813
0.000710859
0.000667522
0.000624697
0.00175829
0.00137525
0.00139592
0.00128799
0.000519586
0.00067526
0.00067125
0.000578153
0.000464825
0.000421515
0.000493948
0.000458448
0.000526737
0.000744802
0.000634654
0.000660249
0.000703431
0.000727122
0.00071093
0.000728911
0.00182565
0.00155177
0.00160016
0.00134055
0.000638212
0.000694022
0.000699189
0.000663775
0.000611226
0.000586478
0.000733656
0.000503215
0.00058013
0.000776196
0.00102055
0.00119331
0.00127513
0.00120809
0.00108274
0.00120046
0.00179377
0.00166571
0.0017049
0.00144605
0.0010449
0.00106467
0.00121165
0.00122311
0.00110731
0.000924808
0.000708115
0.000549192
0.000644351
0.000713685
0.00077078
0.000830227
0.000892363
0.000957876
0.00103587
0.00113894
0.0012647
0.00129614
0.00130889
0.00119172
0.00106902
0.000977082
0.000907211
0.000845583
0.000786235
0.000730055
0.000676174
0.000610927
0.000129976
0.00014946
0.000158874
0.000166336
0.000173724
0.000181382
0.000190195
0.000201581
0.000215344
0.000227692
0.000221549
0.000212839
0.000206041
0.000198974
0.000191931
0.000184084
0.000174519
0.000161466
0.000140965
0.000115402
0.000162572
0.000463663
0.000542259
0.000584489
0.000602479
0.000615312
0.000627112
0.000619746
0.000498932
0.000574233
0.000533133
0.000482232
0.000551835
0.00053049
0.000502231
0.000474548
0.000442517
0.000399001
0.000322428
0.00014337
0.00017447
0.000492768
0.000563652
0.000616414
0.000647108
0.000659725
0.00065136
0.000566779
0.00038004
0.000716202
0.000600365
0.000386151
0.000562895
0.00057711
0.000559969
0.00053781
0.000504707
0.000449819
0.000354672
0.000165615
0.00017854
0.000416125
0.000523849
0.000592862
0.000634261
0.000650729
0.000637591
0.000519919
0.000401449
0.000937474
0.000754154
0.000371009
0.000560584
0.000601749
0.000590615
0.00056462
0.000516005
0.000433968
0.000319239
0.000242823
0.000288828
0.000335871
0.000447255
0.00054244
0.000606193
0.000640204
0.000636211
0.00050333
0.000473442
0.00118386
0.000946523
0.000392278
0.000555687
0.000614163
0.000590729
0.000540076
0.000463139
0.000374254
0.000331634
0.000349448
0.000404982
0.000373121
0.000385084
0.000466483
0.000555203
0.000614286
0.000627258
0.000492936
0.00055199
0.0014112
0.00113498
0.000427422
0.000543976
0.000613447
0.000579975
0.000514941
0.000430184
0.000371812
0.000403762
0.000416913
0.00047786
0.000479045
0.000436772
0.000486007
0.00056648
0.000627661
0.000652883
0.000561148
0.000651311
0.0015763
0.001288
0.000529966
0.00060109
0.000651073
0.000621789
0.000562904
0.000484703
0.000452239
0.000551389
0.000468479
0.000534833
0.000789694
0.000673559
0.00069425
0.000724131
0.000736399
0.000720441
0.000676594
0.000760648
0.00161412
0.00134055
0.000665579
0.000682819
0.000719443
0.000729285
0.000708989
0.000670815
0.000639944
0.000757068
0.000513297
0.000588179
0.000824579
0.00112428
0.00131575
0.0014581
0.00149124
0.00138133
0.00118263
0.00122755
0.00162478
0.00144605
0.00109793
0.00117732
0.00137618
0.00144777
0.00138623
0.00123553
0.00103439
0.000762325
0.000560081
0.000647941
0.000716763
0.000773924
0.000830169
0.000887791
0.000944974
0.00100412
0.00107038
0.0011493
0.00122682
0.00119172
0.00109948
0.00102268
0.000959825
0.000903022
0.000847546
0.000791981
0.000738246
0.000683707
0.000618164
0.000128844
0.000148757
0.000159598
0.000167593
0.000175109
0.000181703
0.000187778
0.000194484
0.000204547
0.000215074
0.000210439
0.000206041
0.000205893
0.000205751
0.000203995
0.000199752
0.00019225
0.000179362
0.000157249
0.000120621
0.00015679
0.000398734
0.000462467
0.000491206
0.000511717
0.000530586
0.000554317
0.00059201
0.00063194
0.000551378
0.00054257
0.000551835
0.000517421
0.000492551
0.000472506
0.000450609
0.000422975
0.000381974
0.000313065
0.000150412
0.000165317
0.000385517
0.000474978
0.000529399
0.000559929
0.000577436
0.000592771
0.000612808
0.000585958
0.00040745
0.000432324
0.000562895
0.000559027
0.000545018
0.000536634
0.000524237
0.000496529
0.000442061
0.000351094
0.000214998
0.000202412
0.000345579
0.000453322
0.00052546
0.000570768
0.000594798
0.000605395
0.000609502
0.000538369