/*--------------------------------*- C++ -*----------------------------------*\
| =========                 |                                                 |
| \\      /  F ield         | OpenFOAM: The Open Source CFD Toolbox           |
|  \\    /   O peration     | Version:  v2012                                 |
|   \\  /    A nd           | Website:  www.openfoam.com                      |
|    \\/     M anipulation  |                                                 |
\*---------------------------------------------------------------------------*/
FoamFile
{
    version     2.0;
    format      ascii;
    class       volScalarField;
    location    "1600";
    object      epsilon;
}
// * * * * * * * * * * * * * * * * * * * * * * * * * * * * * * * * * * * * * //

dimensions      [0 2 -3 0 0 0 0];


internalField   nonuniform List<scalar> 
4000
(
1.32059e-07
7.64636e-08
3.31958e-08
2.21494e-08
1.93837e-08
1.74137e-08
1.47561e-08
1.37704e-08
1.39223e-08
1.40094e-08
1.36734e-08
1.30313e-08
1.2651e-08
1.31202e-08
1.558e-08
1.88293e-08
2.30586e-08
3.55287e-08
1.03809e-07
2.04312e-07
3.89287e-07
3.39612e-07
2.55733e-07
1.74013e-07
1.13446e-07
3.59319e-08
2.8671e-08
2.65543e-08
2.78679e-08
2.91309e-08
2.82274e-08
2.54255e-08
2.27691e-08
2.22693e-08
4.56735e-08
1.23313e-07
1.77995e-07
2.40669e-07
2.98248e-07
3.77033e-07
4.74097e-07
4.25352e-07
3.39827e-07
2.48346e-07
1.71486e-07
1.08456e-07
5.29123e-08
2.84468e-08
3.21562e-08
3.61429e-08
3.66498e-08
3.13582e-08
2.66058e-08
5.7192e-08
1.06287e-07
1.69402e-07
2.3685e-07
3.1527e-07
3.92904e-07
4.5568e-07
5.21034e-07
4.87217e-07
3.99773e-07
2.94063e-07
2.01884e-07
1.36362e-07
9.25794e-08
5.9648e-08
3.48236e-08
3.9777e-08
4.45682e-08
3.35029e-08
4.85651e-08
7.9069e-08
1.19473e-07
1.76775e-07
2.58389e-07
3.59239e-07
4.4814e-07
4.97652e-07
5.52866e-07
5.42542e-07
4.79351e-07
3.95121e-07
3.11088e-07
2.46157e-07
1.94405e-07
1.48534e-07
1.16871e-07
1.01797e-07
1.20442e-07
1.4061e-07
1.63871e-07
2.01231e-07
2.4562e-07
2.99958e-07
3.66414e-07
4.41531e-07
5.04489e-07
5.25458e-07
5.79705e-07
5.9872e-07
5.79772e-07
5.4363e-07
5.04279e-07
4.65448e-07
4.27396e-07
3.88812e-07
3.52358e-07
3.26247e-07
3.56049e-07
3.87486e-07
4.17311e-07
4.45496e-07
4.7186e-07
4.97981e-07
5.24826e-07
5.50803e-07
5.6618e-07
5.48809e-07
6.07688e-07
6.62281e-07
6.91691e-07
7.04911e-07
7.08808e-07
7.01556e-07
6.8263e-07
6.53577e-07
6.16655e-07
5.7859e-07
6.02787e-07
6.37638e-07
6.66929e-07
6.86236e-07
6.95126e-07
6.93728e-07
6.82098e-07
6.62398e-07
6.30418e-07
5.71739e-07
6.40576e-07
7.34252e-07
8.12059e-07
8.71013e-07
9.14673e-07
9.4001e-07
9.45661e-07
9.2895e-07
8.92104e-07
8.3903e-07
8.55212e-07
8.95041e-07
9.22396e-07
9.28829e-07
9.1425e-07
8.81584e-07
8.34005e-07
7.73686e-07
6.9711e-07
5.97407e-07
6.84791e-07
8.28657e-07
9.57974e-07
1.06448e-06
1.15076e-06
1.21193e-06
1.24593e-06
1.24698e-06
1.21092e-06
1.13657e-06
1.14377e-06
1.19162e-06
1.21291e-06
1.1993e-06
1.15525e-06
1.08764e-06
1.00184e-06
9.00271e-07
7.77664e-07
6.32477e-07
7.503e-07
9.53197e-07
1.14298e-06
1.30084e-06
1.43464e-06
1.54355e-06
1.62251e-06
1.66412e-06
1.6599e-06
1.58954e-06
1.56782e-06
1.59317e-06
1.58081e-06
1.52896e-06
1.44456e-06
1.33544e-06
1.20717e-06
1.05999e-06
8.83896e-07
6.85836e-07
7.64637e-08
5.98055e-08
4.21112e-08
3.43553e-08
3.95588e-08
3.84649e-08
2.6299e-08
2.31735e-08
2.23793e-08
2.22043e-08
2.1267e-08
1.97963e-08
1.94279e-08
2.24807e-08
3.05925e-08
3.42479e-08
3.80661e-08
5.06031e-08
9.8362e-08
1.43513e-07
3.39612e-07
4.08311e-07
3.06502e-07
2.24574e-07
1.67255e-07
8.73188e-08
3.96698e-08
3.09844e-08
2.61786e-08
2.45662e-08
2.30198e-08
2.18506e-08
2.5307e-08
3.96244e-08
1.30541e-07
2.20806e-07
2.81784e-07
3.58644e-07
4.48307e-07
3.4421e-07
4.25352e-07
4.32076e-07
3.63522e-07
2.59065e-07
1.85058e-07
1.34061e-07
8.65972e-08
5.00347e-08
3.33244e-08
2.926e-08
2.78235e-08
3.033e-08
5.53235e-08
9.41619e-08
1.40613e-07
1.9605e-07
2.56684e-07
3.43639e-07
4.32004e-07
4.42644e-07
4.87217e-07
4.59139e-07
4.05459e-07
3.06171e-07
2.05838e-07
1.43377e-07
1.01866e-07
7.25911e-08
5.05374e-08
4.02346e-08
4.01934e-08
4.76495e-08
6.35365e-08
9.28721e-08
1.32203e-07
1.82717e-07
2.58334e-07
3.58004e-07
4.36695e-07
4.94122e-07
5.42542e-07
4.91811e-07
4.49796e-07
3.68905e-07
2.63862e-07
1.9216e-07
1.43301e-07
1.05646e-07
7.83982e-08
6.67415e-08
7.21049e-08
8.0746e-08
1.00401e-07
1.35994e-07
1.81636e-07
2.39756e-07
3.28551e-07
4.1706e-07
4.74362e-07
5.3383e-07
5.9872e-07
5.41548e-07
5.13456e-07
4.62971e-07
3.95228e-07
3.08196e-07
2.50636e-07
2.03018e-07
1.7268e-07
1.60322e-07
1.72765e-07
1.87635e-07
2.11825e-07
2.50882e-07
3.00594e-07
3.67844e-07
4.36474e-07
4.85183e-07
5.17875e-07
5.7088e-07
6.62281e-07
6.01898e-07
5.81789e-07
5.57206e-07
5.33084e-07
4.74967e-07
3.85675e-07
3.28385e-07
2.89417e-07
2.68037e-07
2.80322e-07
3.04279e-07
3.38344e-07
3.90841e-07
4.58285e-07
5.15417e-07
5.32543e-07
5.41209e-07
5.61532e-07
6.12439e-07
7.34252e-07
6.93128e-07
6.89014e-07
6.87762e-07
7.0851e-07
7.11187e-07
6.86259e-07
6.21916e-07
5.49478e-07
4.94025e-07
5.17435e-07
5.90594e-07
6.4994e-07
6.81051e-07
6.85157e-07
6.677e-07
6.37586e-07
6.23873e-07
6.32827e-07
6.65359e-07
8.28657e-07
8.85649e-07
9.58259e-07
1.01777e-06
1.07968e-06
1.12461e-06
1.14581e-06
1.12665e-06
1.05041e-06
9.18353e-07
9.44553e-07
1.04413e-06
1.09454e-06
1.08683e-06
1.03831e-06
9.70567e-07
9.03581e-07
8.48877e-07
7.96112e-07
7.37751e-07
9.53197e-07
1.20709e-06
1.45274e-06
1.67001e-06
1.86836e-06
2.04354e-06
2.18277e-06
2.26696e-06
2.27709e-06
2.18593e-06
2.13233e-06
2.1583e-06
2.11985e-06
2.01607e-06
1.86513e-06
1.68765e-06
1.49798e-06
1.29796e-06
1.07438e-06
8.35695e-07
3.31958e-08
4.21112e-08
4.02629e-08
4.32253e-08
5.68306e-08
5.10273e-08
3.62253e-08
2.99902e-08
2.78817e-08
2.7049e-08
2.55563e-08
2.36842e-08
2.38857e-08
2.93235e-08
4.10558e-08
4.34583e-08
4.53825e-08
4.8658e-08
6.32237e-08
7.78182e-08
2.55733e-07
3.06502e-07
2.60001e-07
2.19785e-07
1.68685e-07
9.35261e-08
5.17869e-08
3.77765e-08
3.12079e-08
2.81652e-08
2.62619e-08
2.58677e-08
3.25839e-08
5.65605e-08
1.47158e-07
2.44777e-07
2.98534e-07
3.508e-07
3.98626e-07
3.01792e-07
3.39827e-07
3.63522e-07
3.06946e-07
2.33562e-07
1.78826e-07
1.38986e-07
9.5921e-08
5.96862e-08
4.18451e-08
3.39587e-08
3.21277e-08
4.01874e-08
6.83764e-08
1.09053e-07
1.52978e-07
2.05718e-07
2.57356e-07
3.24908e-07
3.90956e-07
3.94073e-07
3.99773e-07
4.05459e-07
3.6339e-07
2.74765e-07
1.96903e-07
1.45313e-07
1.09985e-07
8.32784e-08
6.06084e-08
4.37355e-08
4.24542e-08
5.85988e-08
7.70755e-08
1.04648e-07
1.41134e-07
1.8736e-07
2.51743e-07
3.39721e-07
4.11062e-07
4.48121e-07
4.79351e-07
4.49796e-07
3.92873e-07
3.13803e-07
2.25429e-07
1.65513e-07
1.25985e-07
9.69497e-08
7.44759e-08
5.67461e-08
5.4305e-08
6.68853e-08
8.63329e-08
1.15819e-07
1.52981e-07
2.03511e-07
2.84111e-07
3.7878e-07
4.57201e-07
5.04633e-07
5.79772e-07
5.13456e-07
4.42304e-07
3.63663e-07
2.83624e-07
2.13816e-07
1.66446e-07
1.29185e-07
1.01356e-07
8.76398e-08
8.92264e-08
9.84063e-08
1.20388e-07
1.53497e-07
1.94401e-07
2.51825e-07
3.34776e-07
4.22216e-07
5.06467e-07
5.6811e-07
6.91691e-07
5.81789e-07
5.03704e-07
4.13347e-07
3.40652e-07
2.78946e-07
2.22693e-07
1.81155e-07
1.51278e-07
1.35764e-07
1.38581e-07
1.49981e-07
1.72342e-07
2.06432e-07
2.49976e-07
3.02691e-07
3.67019e-07
4.58122e-07
5.54809e-07
6.41292e-07
8.12059e-07
6.89014e-07
6.33873e-07
5.36494e-07
4.31436e-07
3.99407e-07
3.66057e-07
3.26537e-07
2.82659e-07
2.44738e-07
2.50215e-07
2.81759e-07
3.10955e-07
3.3393e-07
3.54336e-07
3.74993e-07
4.3759e-07
5.40854e-07
6.33739e-07
7.26131e-07
9.57974e-07
9.58259e-07
1.0641e-06
1.16518e-06
1.25633e-06
1.27254e-06
1.28229e-06
1.24255e-06
1.10487e-06
9.06482e-07
9.40652e-07
1.12325e-06
1.21923e-06
1.19703e-06
1.11236e-06
1.03513e-06
9.74793e-07
9.03783e-07
8.47362e-07
8.39679e-07
1.14298e-06
1.45274e-06
1.75107e-06
2.02398e-06
2.28506e-06
2.52819e-06
2.73472e-06
2.86993e-06
2.89926e-06
2.78349e-06
2.68816e-06
2.7185e-06
2.64833e-06
2.48379e-06
2.2597e-06
2.01411e-06
1.77003e-06
1.52626e-06
1.2636e-06
9.84913e-07
2.21494e-08
3.43553e-08
4.32253e-08
6.05667e-08
6.77626e-08
5.50881e-08
4.18458e-08
3.50438e-08
3.23081e-08
3.12647e-08
2.94453e-08
2.70636e-08
2.75345e-08
3.2996e-08
4.66296e-08
5.26687e-08
4.99386e-08
4.662e-08
4.31223e-08
3.53393e-08
1.74013e-07
2.24575e-07
2.19785e-07
1.92376e-07
1.40853e-07
8.23727e-08
5.47907e-08
4.21616e-08
3.57962e-08
3.30586e-08
3.1184e-08
3.02602e-08
3.66261e-08
5.74163e-08
1.2796e-07
2.29706e-07
2.86126e-07
3.12812e-07
3.23743e-07
2.55395e-07
2.48346e-07
2.59065e-07
2.33562e-07
1.95683e-07
1.6124e-07
1.30374e-07
9.07165e-08
6.08495e-08
4.59985e-08
3.88833e-08
3.77192e-08
4.59552e-08
6.95916e-08
1.08489e-07
1.48357e-07
1.95012e-07
2.36054e-07
2.7774e-07
3.198e-07
3.18592e-07
2.94063e-07
3.06171e-07
2.74765e-07
2.21124e-07
1.72793e-07
1.37212e-07
1.10622e-07
8.55086e-08
6.27473e-08
4.7766e-08
4.79548e-08
6.3909e-08
8.30053e-08
1.07777e-07
1.39494e-07
1.78855e-07
2.29917e-07
2.97034e-07
3.55467e-07
3.65649e-07
3.95121e-07
3.68905e-07
3.13803e-07
2.50707e-07
1.91085e-07
1.47957e-07
1.17906e-07
9.56006e-08
7.63189e-08
5.76033e-08
5.43095e-08
6.79863e-08
8.57599e-08
1.10411e-07
1.41273e-07
1.83578e-07
2.48486e-07
3.32441e-07
4.15362e-07
4.44199e-07
5.4363e-07
4.62971e-07
3.63663e-07
2.8664e-07
2.22168e-07
1.7184e-07
1.3589e-07
1.07306e-07
8.35333e-08
6.50027e-08
5.98788e-08
7.33877e-08
9.45573e-08
1.22212e-07
1.55578e-07
2.0239e-07
2.74281e-07
3.65353e-07
4.766e-07
5.4565e-07
7.04911e-07
5.57206e-07
4.13347e-07
3.19117e-07
2.55158e-07
2.07719e-07
1.69987e-07
1.39571e-07
1.14853e-07
9.86151e-08
9.45018e-08
1.03158e-07
1.22138e-07
1.47802e-07
1.78944e-07
2.21029e-07
2.8569e-07
3.85678e-07
5.26671e-07
6.53461e-07
8.71013e-07
6.87761e-07
5.36494e-07
4.1687e-07
3.74255e-07
3.60789e-07
3.50198e-07
3.27891e-07
2.86098e-07
2.37877e-07
2.37685e-07
2.75509e-07
3.00098e-07
3.03789e-07
3.01317e-07
3.05834e-07
3.39013e-07
4.57554e-07
6.10306e-07
7.7179e-07
1.06448e-06
1.01777e-06
1.16518e-06
1.30695e-06
1.4886e-06
1.709e-06
1.88146e-06
1.91931e-06
1.76056e-06
1.46425e-06
1.45211e-06
1.70946e-06
1.80666e-06
1.68101e-06
1.4492e-06
1.21023e-06
1.05422e-06
9.69342e-07
8.77704e-07
9.21831e-07
1.30084e-06
1.67001e-06
2.02398e-06
2.35807e-06
2.69808e-06
3.03511e-06
3.33645e-06
3.5555e-06
3.64037e-06
3.54515e-06
3.36046e-06
3.35633e-06
3.22665e-06
2.97797e-06
2.66175e-06
2.33102e-06
2.02246e-06
1.73288e-06
1.42923e-06
1.10816e-06
1.93837e-08
3.95588e-08
5.68306e-08
6.77626e-08
6.4887e-08
5.28418e-08
4.34193e-08
3.81561e-08
3.63126e-08
3.6264e-08
3.41116e-08
3.0749e-08
3.13865e-08
3.64093e-08
4.68422e-08
5.71974e-08
5.45716e-08
4.72303e-08
3.78576e-08
2.39794e-08
1.13446e-07
1.67255e-07
1.68685e-07
1.40853e-07
9.9457e-08
6.86119e-08
5.22673e-08
4.28612e-08
3.87865e-08
3.8996e-08
3.73257e-08
3.29616e-08
3.74496e-08
5.263e-08
9.22116e-08
1.76392e-07
2.49654e-07
2.73699e-07
2.61551e-07
1.91079e-07
1.71487e-07
1.85058e-07
1.78826e-07
1.6124e-07
1.40694e-07
1.10815e-07
7.84287e-08
5.73818e-08
4.68212e-08
4.36485e-08
4.2699e-08
4.58459e-08
6.3948e-08
9.75506e-08
1.33814e-07
1.69555e-07
2.04107e-07
2.2705e-07
2.3913e-07
2.34832e-07
2.01884e-07
2.05838e-07
1.96903e-07
1.72793e-07
1.47168e-07
1.2523e-07
1.03802e-07
7.9976e-08
6.08933e-08
5.17597e-08
5.2127e-08
6.30652e-08
8.15815e-08
1.03368e-07
1.28617e-07
1.57772e-07
1.91472e-07
2.28707e-07
2.63043e-07
2.69233e-07
3.11088e-07
2.63862e-07
2.25429e-07
1.91085e-07
1.57904e-07
1.30784e-07
1.09853e-07
9.32283e-08
7.71363e-08
6.3238e-08
6.1047e-08
7.00618e-08
8.44403e-08
1.04563e-07
1.29003e-07
1.60425e-07
2.04738e-07
2.6457e-07
3.41927e-07
3.77918e-07
5.04279e-07
3.95228e-07
2.83624e-07
2.22168e-07
1.78376e-07
1.44625e-07
1.1884e-07
9.81179e-08
8.12546e-08
6.89143e-08
6.37068e-08
7.05877e-08
8.65327e-08
1.08555e-07
1.35443e-07
1.71721e-07
2.26147e-07
3.05846e-07
4.31287e-07
5.14827e-07
7.08808e-07
5.33084e-07
3.40652e-07
2.55158e-07
2.07159e-07
1.74199e-07
1.48959e-07
1.28639e-07
1.12869e-07
1.07203e-07
9.92112e-08
9.73073e-08
1.09392e-07
1.27926e-07
1.51555e-07
1.84439e-07
2.36573e-07
3.25432e-07
5.01584e-07
6.54547e-07
9.14673e-07
7.0851e-07
4.31436e-07
3.74255e-07
3.73901e-07
3.88839e-07
4.01664e-07
3.93991e-07
3.51319e-07
2.93239e-07
2.85564e-07
3.27247e-07
3.48496e-07
3.36388e-07
3.15313e-07
3.03653e-07
3.11643e-07
3.64152e-07
6.10539e-07
8.03031e-07
1.15076e-06
1.07968e-06
1.25633e-06
1.4886e-06
1.93368e-06
2.36883e-06
2.67977e-06
2.75454e-06
2.48345e-06
1.98462e-06
1.90415e-06
2.33522e-06
2.51481e-06
2.32006e-06
1.95169e-06
1.56407e-06
1.21736e-06
1.03145e-06
9.10318e-07
9.85037e-07
1.43464e-06
1.86836e-06
2.28506e-06
2.69808e-06
3.15499e-06
3.61345e-06
4.03242e-06
4.35851e-06
4.52932e-06
4.48987e-06
4.17444e-06
4.10623e-06
3.89455e-06
3.54489e-06
3.12232e-06
2.68921e-06
2.28449e-06
1.93114e-06
1.57923e-06
1.21093e-06
1.74137e-08
3.84649e-08
5.10274e-08
5.50881e-08
5.28418e-08
4.74504e-08
4.2783e-08
4.01614e-08
4.0231e-08
4.22458e-08
3.95426e-08
3.49657e-08
3.50702e-08
3.87753e-08
4.51035e-08
5.29116e-08
5.61528e-08
4.75391e-08
3.55086e-08
2.03361e-08
3.59319e-08
8.73188e-08
9.35262e-08
8.23727e-08
6.86119e-08
5.67081e-08
4.77019e-08
4.19745e-08
4.12203e-08
4.61096e-08
4.40645e-08
3.54816e-08
3.73854e-08
4.78925e-08
6.68944e-08
1.07812e-07
1.69333e-07
2.1023e-07
2.02217e-07
1.28426e-07
1.08456e-07
1.34061e-07
1.38986e-07
1.30374e-07
1.10815e-07
8.57921e-08
6.54669e-08
5.25334e-08
4.71461e-08
4.99377e-08
4.71852e-08
4.42168e-08
5.60346e-08
8.07608e-08
1.11748e-07
1.39232e-07
1.62484e-07
1.78187e-07
1.77503e-07
1.62446e-07
1.36362e-07
1.43377e-07
1.45313e-07
1.37212e-07
1.2523e-07
1.10207e-07
9.0241e-08
7.05837e-08
5.83934e-08
5.84923e-08
5.53967e-08
5.87964e-08
7.48221e-08
9.43088e-08
1.13401e-07
1.3321e-07
1.52909e-07
1.70519e-07
1.8272e-07
1.87881e-07
2.46157e-07
1.9216e-07
1.65513e-07
1.47957e-07
1.30784e-07
1.14755e-07
1.00958e-07
8.78619e-08
7.53924e-08
7.2048e-08
6.68281e-08
6.87683e-08
7.9914e-08
9.58262e-08
1.14156e-07
1.35252e-07
1.61153e-07
1.95172e-07
2.4975e-07
3.17276e-07
4.65448e-07
3.08196e-07
2.13816e-07
1.7184e-07
1.44625e-07
1.22971e-07
1.05411e-07
9.16311e-08
8.28126e-08
8.51722e-08
7.65533e-08
7.10683e-08
8.09756e-08
9.7592e-08
1.18127e-07
1.43973e-07
1.80073e-07
2.37876e-07
3.58484e-07
4.80489e-07
7.01556e-07
4.74966e-07
2.78946e-07
2.07719e-07
1.74199e-07
1.53069e-07
1.37687e-07
1.26642e-07
1.22418e-07
1.39837e-07
1.2382e-07
1.0252e-07
1.06121e-07
1.18054e-07
1.35224e-07
1.5926e-07
1.97102e-07
2.71237e-07
4.67607e-07
6.45269e-07
9.4001e-07
7.11187e-07
3.99407e-07
3.60789e-07
3.88839e-07
4.31884e-07
4.65946e-07
4.64722e-07
4.0907e-07
3.44286e-07
3.27308e-07
3.73217e-07
4.02025e-07
3.80139e-07
3.41736e-07
3.11275e-07
2.9817e-07
3.26749e-07
6.07931e-07
8.17235e-07
1.21193e-06
1.12461e-06
1.27254e-06
1.709e-06
2.36883e-06
2.98901e-06
3.41872e-06
3.48339e-06
2.98918e-06
2.29781e-06
2.16315e-06
2.80103e-06
3.15827e-06
2.92169e-06
2.414e-06
1.86593e-06
1.36243e-06
1.01323e-06
9.24366e-07
1.02422e-06
1.54355e-06
2.04354e-06
2.52819e-06
3.03511e-06
3.61345e-06
4.20351e-06
4.76235e-06
5.23225e-06
5.55116e-06
5.66597e-06
5.16488e-06
4.954e-06
4.61486e-06
4.13715e-06
3.59114e-06
3.04466e-06
2.53877e-06
2.11093e-06
1.70816e-06
1.29217e-06
1.47561e-08
2.6299e-08
3.62253e-08
4.18458e-08
4.34193e-08
4.2783e-08
4.19298e-08
4.21742e-08
4.49748e-08
5.07938e-08
4.74989e-08
4.03137e-08
3.87465e-08
4.00602e-08
4.23391e-08
4.45909e-08
4.62108e-08
4.4037e-08
3.3871e-08
1.74278e-08
2.8671e-08
3.96698e-08
5.17869e-08
5.47907e-08
5.22673e-08
4.77019e-08
4.34126e-08
4.151e-08
4.62773e-08
6.32089e-08
5.93023e-08
4.04667e-08
3.8096e-08
4.37872e-08
5.30817e-08
6.57457e-08
8.5352e-08
1.09895e-07
1.08865e-07
5.02992e-08
5.29123e-08
8.65973e-08
9.5921e-08
9.07165e-08
7.84288e-08
6.54669e-08
5.51603e-08
4.90036e-08
5.17746e-08
7.18759e-08
6.17156e-08
4.47818e-08
4.96353e-08
6.49387e-08
8.61974e-08
1.08934e-07
1.25201e-07
1.30031e-07
1.23274e-07
1.04938e-07
9.25794e-08
1.01866e-07
1.09985e-07
1.10622e-07
1.03802e-07
9.0241e-08
7.43914e-08
6.22268e-08
6.30811e-08
9.6246e-08
7.52495e-08
5.61247e-08
6.57389e-08
8.24231e-08
9.80176e-08
1.10827e-07
1.21159e-07
1.27417e-07
1.29486e-07
1.33494e-07
1.94405e-07
1.43301e-07
1.25985e-07
1.17906e-07
1.09853e-07
1.00958e-07
9.08843e-08
8.04215e-08
8.11594e-08
1.34425e-07
9.83916e-08
6.79514e-08
7.36144e-08
8.58234e-08
9.92611e-08
1.12987e-07
1.27582e-07
1.46975e-07
1.8841e-07
2.68564e-07
4.27396e-07
2.50636e-07
1.66446e-07
1.3589e-07
1.1884e-07
1.05411e-07
9.43344e-08
8.70745e-08
9.54345e-08
1.79054e-07
1.27607e-07
7.38996e-08
7.52009e-08
8.68695e-08
1.01589e-07
1.18853e-07
1.41378e-07
1.80763e-07
2.82475e-07
4.45823e-07
6.8263e-07
3.85675e-07
2.22693e-07
1.69987e-07
1.48959e-07
1.37687e-07
1.30908e-07
1.29007e-07
1.47742e-07
2.67615e-07
1.97138e-07
1.12345e-07
1.04533e-07
1.10284e-07
1.20834e-07
1.36152e-07
1.61089e-07
2.18876e-07
4.04643e-07
6.26371e-07
9.45661e-07
6.86259e-07
3.66057e-07
3.50198e-07
4.01664e-07
4.65946e-07
5.13077e-07
5.02067e-07
4.35355e-07
4.52645e-07
3.88878e-07
3.88147e-07
4.35244e-07
4.13849e-07
3.60703e-07
3.12018e-07
2.80329e-07
2.89562e-07
5.88448e-07
8.15177e-07
1.24593e-06
1.14581e-06
1.28229e-06
1.88146e-06
2.67977e-06
3.41872e-06
3.95149e-06
3.85687e-06
3.13626e-06
2.90894e-06
2.57065e-06
2.94018e-06
3.61125e-06
3.39295e-06
2.74765e-06
2.06518e-06
1.44947e-06
9.92235e-07
9.21066e-07
1.04114e-06
1.62251e-06
2.18277e-06
2.73472e-06
3.33645e-06
4.03242e-06
4.76235e-06
5.49265e-06
6.17572e-06
6.79756e-06
7.34323e-06
6.53469e-06
5.94643e-06
5.37317e-06
4.72194e-06
4.03279e-06
3.36709e-06
2.76245e-06
2.25846e-06
1.80759e-06
1.34932e-06
1.37704e-08
2.31735e-08
2.99902e-08
3.50438e-08
3.81561e-08
4.01614e-08
4.21742e-08
4.53681e-08
5.17032e-08
6.25795e-08
5.89606e-08
4.80331e-08
4.31248e-08
4.07964e-08
3.92625e-08
3.75309e-08
3.49487e-08
3.10943e-08
2.41553e-08
1.281e-08
2.65543e-08
3.09844e-08
3.77765e-08
4.21615e-08
4.28612e-08
4.19745e-08
4.151e-08
4.48495e-08
6.07197e-08
1.06568e-07
9.85836e-08
5.46567e-08
4.26617e-08
4.15174e-08
4.43878e-08
4.80892e-08
5.11174e-08
5.2307e-08
4.28286e-08
2.40805e-08
2.84468e-08
5.00347e-08
5.96863e-08
6.08496e-08
5.73819e-08
5.25334e-08
4.90036e-08
5.16104e-08
7.98991e-08
2.37336e-07
1.84498e-07
6.02471e-08
4.82522e-08
5.36165e-08
6.43451e-08
7.77781e-08
9.00254e-08
9.33472e-08
8.47747e-08
6.60661e-08
5.9648e-08
7.25911e-08
8.32784e-08
8.55086e-08
7.9976e-08
7.05837e-08
6.22268e-08
6.38354e-08
1.22806e-07
5.07256e-07
3.40104e-07
7.88728e-08
6.00971e-08
6.96265e-08
8.20573e-08
9.15933e-08
9.62299e-08
9.59139e-08
9.19722e-08
9.30271e-08
1.48534e-07
1.05645e-07
9.69496e-08
9.56006e-08
9.32283e-08
8.78619e-08
8.04215e-08
8.26464e-08
1.90425e-07
9.50573e-07
5.85385e-07
1.0666e-07
7.04258e-08
7.65181e-08
8.55757e-08
9.38407e-08
1.01266e-07
1.11857e-07
1.43889e-07
2.28958e-07
3.88812e-07
2.03018e-07
1.29185e-07
1.07306e-07
9.81179e-08
9.16311e-08
8.70745e-08
9.66698e-08
2.62323e-07
1.44218e-06
8.72352e-07
1.32922e-07
7.39395e-08
7.75866e-08
8.66161e-08
9.67841e-08
1.10161e-07
1.38828e-07
2.29828e-07
4.12417e-07
6.53577e-07
3.28385e-07
1.81155e-07
1.39571e-07
1.28639e-07
1.26642e-07
1.29007e-07
1.49871e-07
3.6589e-07
1.83214e-06
1.12606e-06
1.95565e-07
1.08318e-07
1.04121e-07
1.07593e-07
1.14347e-07
1.28526e-07
1.72067e-07
3.28978e-07
5.99823e-07
9.2895e-07
6.21915e-07
3.26537e-07
3.27891e-07
3.93991e-07
4.64722e-07
5.02067e-07
4.82076e-07
5.83027e-07
1.87348e-06
1.21712e-06
4.20831e-07
4.16218e-07
4.1268e-07
3.59256e-07
2.99595e-07
2.5403e-07
2.49213e-07
5.53897e-07
7.97529e-07
1.24698e-06
1.12665e-06
1.24255e-06
1.91931e-06
2.75454e-06
3.48339e-06
3.85687e-06
3.55363e-06
3.58036e-06
5.47776e-06
4.34064e-06
2.94251e-06
3.42057e-06
3.47366e-06
2.85429e-06
2.12482e-06
1.45276e-06
9.37085e-07
8.92718e-07
1.03487e-06
1.66412e-06
2.26696e-06
2.86993e-06
3.5555e-06
4.35851e-06
5.23225e-06
6.17572e-06
7.22359e-06
8.50291e-06
1.00307e-05
8.68956e-06
7.20526e-06
6.14121e-06
5.23953e-06
4.39343e-06
3.61455e-06
2.92334e-06
2.35502e-06
1.86727e-06
1.3788e-06
1.39223e-08
2.23793e-08
2.78817e-08
3.23081e-08
3.63126e-08
4.0231e-08
4.49748e-08
5.17032e-08
6.10971e-08
7.51817e-08
6.9486e-08
5.86363e-08
5.02669e-08
4.26691e-08
3.71643e-08
3.27756e-08
2.87038e-08
2.41676e-08
1.82084e-08
1.0638e-08
2.78679e-08
2.61786e-08
3.12079e-08
3.57962e-08
3.87865e-08
4.12203e-08
4.62773e-08
6.07197e-08
1.10872e-07
7.56468e-07
6.31556e-07
9.85544e-08
6.03124e-08
4.55776e-08
4.04534e-08
3.86455e-08
3.74787e-08
3.48976e-08
2.77179e-08
2.10861e-08
3.21562e-08
3.33244e-08
4.18451e-08
4.59985e-08
4.68212e-08
4.71461e-08
5.17746e-08
7.98991e-08
3.28909e-07
3.29171e-06
2.52705e-06
2.28031e-07
6.52328e-08
5.0282e-08
5.04086e-08
5.43674e-08
5.89522e-08
6.00762e-08
5.21291e-08
3.21277e-08
3.48236e-08
5.05374e-08
6.06085e-08
6.27473e-08
6.08933e-08
5.83934e-08
6.30811e-08
1.22806e-07
7.76918e-07
6.7099e-06
4.8926e-06
4.50591e-07
8.2096e-08
6.15342e-08
6.57875e-08
7.20207e-08
7.4758e-08
7.20045e-08
6.45804e-08
6.04444e-08
1.16871e-07
7.83982e-08
7.44759e-08
7.63189e-08
7.71363e-08
7.53924e-08
8.11594e-08
1.90425e-07
1.5434e-06
1.111e-05
7.89986e-06
7.76653e-07
1.0567e-07
7.15252e-08
7.32284e-08
7.6297e-08
7.85545e-08
8.43583e-08
1.12831e-07
2.00268e-07
3.52358e-07
1.7268e-07
1.01356e-07
8.35333e-08
8.12546e-08
8.28126e-08
9.54345e-08
2.62323e-07
2.38222e-06
1.54702e-05
1.08869e-05
1.13876e-06
1.24994e-07
7.43933e-08
7.40587e-08
7.71878e-08
8.40217e-08
1.08148e-07
1.94976e-07
3.82675e-07
6.16655e-07
2.89417e-07
1.51278e-07
1.14853e-07
1.12869e-07
1.22418e-07
1.47742e-07
3.6589e-07
3.03562e-06
1.81735e-05
1.26539e-05
1.47235e-06
1.78492e-07
1.04855e-07
9.71294e-08
9.50054e-08
1.01159e-07
1.38554e-07
2.79324e-07
5.68587e-07
8.92104e-07
5.49478e-07
2.82659e-07
2.86098e-07
3.51319e-07
4.0907e-07
4.35355e-07
5.83027e-07
3.05002e-06
1.73275e-05
1.20755e-05
1.51958e-06
3.97473e-07
3.59478e-07
3.24565e-07
2.68579e-07
2.186e-07
2.1091e-07
4.98016e-07
7.64203e-07
1.21092e-06
1.05041e-06
1.10487e-06
1.76055e-06
2.48345e-06
2.98918e-06
3.13626e-06
3.58036e-06
6.26732e-06
1.34446e-05
1.01765e-05
4.28836e-06
2.87969e-06
2.89253e-06
2.56726e-06
1.96525e-06
1.34418e-06
8.30842e-07
8.29416e-07
1.00206e-06
1.6599e-06
2.27709e-06
2.89926e-06
3.64037e-06
4.52932e-06
5.55116e-06
6.79756e-06
8.50291e-06
1.09641e-05
1.37872e-05
1.19034e-05
8.92176e-06
6.93163e-06
5.61649e-06
4.59639e-06
3.72562e-06
2.97567e-06
2.36716e-06
1.86753e-06
1.37058e-06
1.40094e-08
2.22043e-08
2.7049e-08
3.12647e-08
3.6264e-08
4.22458e-08
5.07938e-08
6.25794e-08
7.51817e-08
8.4716e-08
7.81992e-08
6.94438e-08
5.85959e-08
4.66876e-08
3.75636e-08
3.12546e-08
2.60372e-08
2.09747e-08
1.56571e-08
9.45193e-09
2.91309e-08
2.45662e-08
2.81652e-08
3.30586e-08
3.8996e-08
4.61096e-08
6.32089e-08
1.06568e-07
7.56468e-07
9.65519e-07
9.04265e-07
6.12838e-07
9.1536e-08
5.91879e-08
4.30207e-08
3.60478e-08
3.13245e-08
2.61335e-08
2.05662e-08
1.83789e-08
3.61429e-08
2.926e-08
3.39587e-08
3.88833e-08
4.36485e-08
4.99377e-08
7.18759e-08
2.37336e-07
3.29171e-06
2.16074e-06
2.03185e-06
2.35558e-06
1.61599e-07
6.02885e-08
4.6607e-08
4.32512e-08
4.1308e-08
3.77533e-08
3.10985e-08
2.52862e-08
3.9777e-08
4.02346e-08
4.37355e-08
4.7766e-08
5.17597e-08
5.84923e-08
9.6246e-08
5.07256e-07
6.7099e-06
3.67336e-06
3.50006e-06
4.39914e-06
2.82303e-07
7.11076e-08
5.56622e-08
5.48585e-08
5.44683e-08
5.17729e-08
4.57403e-08
4.79702e-08
1.01797e-07
6.67415e-08
5.67461e-08
5.76033e-08
6.3238e-08
7.20479e-08
1.34425e-07
9.50573e-07
1.111e-05
5.48756e-06
5.34782e-06
6.86789e-06
4.52703e-07
8.68713e-08
6.43682e-08
6.05249e-08
5.87932e-08
6.61735e-08
1.00875e-07
1.93183e-07
3.26247e-07
1.60322e-07
8.76398e-08
6.50027e-08
6.89143e-08
8.51722e-08
1.79054e-07
1.44218e-06
1.54702e-05
7.46948e-06
7.48664e-06
9.27395e-06
6.32312e-07
9.9455e-08
6.72926e-08
6.10372e-08
6.35548e-08
9.13918e-08
1.81982e-07
3.65609e-07
5.7859e-07
2.68037e-07
1.35764e-07
9.86151e-08
1.07203e-07
1.39837e-07
2.67615e-07
1.83214e-06
1.81735e-05
9.24304e-06
9.58574e-06
1.07081e-05
8.26499e-07
1.44335e-07
9.67442e-08
8.17903e-08
8.1303e-08
1.2101e-07
2.58168e-07
5.39056e-07
8.3903e-07
4.94025e-07
2.44738e-07
2.37877e-07
2.93239e-07
3.44286e-07
4.52645e-07
1.87348e-06
1.73275e-05
1.016e-05
1.09485e-05
9.80473e-06
8.90268e-07
3.17661e-07
2.74443e-07
2.29229e-07
1.82082e-07
1.81435e-07
4.47955e-07
7.19561e-07
1.13657e-06
9.18353e-07
9.06482e-07
1.46425e-06
1.98462e-06
2.29781e-06
2.90894e-06
5.47776e-06
1.34446e-05
1.05984e-05
1.12757e-05
8.59884e-06
3.63469e-06
2.23146e-06
1.98394e-06
1.63018e-06
1.15065e-06
7.00476e-07
7.29494e-07
9.39151e-07
1.58954e-06
2.18593e-06
2.78349e-06
3.54515e-06
4.48987e-06
5.66597e-06
7.34324e-06
1.00307e-05
1.37872e-05
1.24362e-05
1.28393e-05
1.08541e-05
7.745e-06
5.79138e-06
4.56779e-06
3.64116e-06
2.87496e-06
2.2622e-06
1.7846e-06
1.30639e-06
1.36734e-08
2.1267e-08
2.55563e-08
2.94454e-08
3.41116e-08
3.95426e-08
4.74989e-08
5.89606e-08
6.9486e-08
7.81992e-08
7.25214e-08
6.40954e-08
5.49352e-08
4.52974e-08
3.77912e-08
3.19628e-08
2.66066e-08
2.09738e-08
1.50221e-08
8.97681e-09
2.82274e-08
2.30198e-08
2.62619e-08
3.1184e-08
3.73257e-08
4.40646e-08
5.93023e-08
9.85836e-08
6.31557e-07
9.04265e-07
7.56161e-07
3.97647e-07
7.01583e-08
5.09142e-08
4.1122e-08
3.62685e-08
3.21123e-08
2.59926e-08
1.88184e-08
1.74429e-08
3.66498e-08
2.78235e-08
3.21277e-08
3.77192e-08
4.2699e-08
4.71852e-08
6.17156e-08
1.84498e-07
2.52705e-06
2.03185e-06
1.77789e-06
1.5266e-06
1.11166e-07
5.39766e-08
4.69467e-08
4.50041e-08
4.25352e-08
3.64309e-08
2.83691e-08
2.53539e-08
4.45682e-08
4.01934e-08
4.24542e-08
4.79548e-08
5.2127e-08
5.53967e-08
7.52496e-08
3.40105e-07
4.8926e-06
3.50006e-06
3.24449e-06
2.77676e-06
1.77115e-07
6.42176e-08
5.61207e-08
5.47887e-08
5.15915e-08
4.62502e-08
4.38251e-08
6.17741e-08
1.20442e-07
7.21048e-08
5.4305e-08
5.43095e-08
6.1047e-08
6.68281e-08
9.83916e-08
5.85385e-07
7.89987e-06
5.34782e-06
5.24621e-06
4.33819e-06
2.81839e-07
7.7247e-08
6.28891e-08
5.72056e-08
5.23021e-08
6.41512e-08
1.11479e-07
2.19059e-07
3.56049e-07
1.72765e-07
8.92263e-08
5.98788e-08
6.37068e-08
7.65533e-08
1.27607e-07
8.72352e-07
1.08869e-05
7.48664e-06
7.69027e-06
5.87534e-06
3.94949e-07
8.88654e-08
6.50325e-08
5.57792e-08
5.63736e-08
9.14687e-08
1.93751e-07
3.89059e-07
6.02787e-07
2.80322e-07
1.38581e-07
9.45018e-08
9.92112e-08
1.2382e-07
1.97138e-07
1.12606e-06
1.26539e-05
9.58574e-06
1.0187e-05
6.80681e-06
5.51571e-07
1.40211e-07
1.00275e-07
8.01351e-08
7.5935e-08
1.21797e-07
2.67496e-07
5.61158e-07
8.55212e-07
5.17435e-07
2.50215e-07
2.37685e-07
2.85565e-07
3.27308e-07
3.88879e-07
1.21712e-06
1.20755e-05
1.09485e-05
1.20943e-05
6.19252e-06
6.6174e-07
3.19781e-07
2.82808e-07
2.35825e-07
1.83742e-07
1.78654e-07
4.75663e-07
7.42552e-07
1.14377e-06
9.44554e-07
9.40652e-07
1.45211e-06
1.90415e-06
2.16315e-06
2.57065e-06
4.34064e-06
1.01765e-05
1.12757e-05
1.21499e-05
6.6467e-06
3.06991e-06
2.10347e-06
1.90269e-06
1.60686e-06
1.18076e-06
7.44554e-07
7.64566e-07
9.65626e-07
1.56782e-06
2.13233e-06
2.68817e-06
3.36046e-06
4.17444e-06
5.16488e-06
6.53469e-06
8.68956e-06
1.19034e-05
1.28393e-05
1.32135e-05
9.95061e-06
7.174e-06
5.47277e-06
4.37681e-06
3.54066e-06
2.84334e-06
2.27394e-06
1.80492e-06
1.32982e-06
1.30313e-08
1.97963e-08
2.36842e-08
2.70636e-08
3.0749e-08
3.49657e-08
4.03137e-08
4.80331e-08
5.86363e-08
6.94438e-08
6.40954e-08
5.67828e-08
5.14153e-08
4.62288e-08
4.14355e-08
3.65187e-08
3.10955e-08
2.46331e-08
1.64369e-08
9.06028e-09
2.54255e-08
2.18506e-08
2.58677e-08
3.02602e-08
3.29617e-08
3.54816e-08
4.04667e-08
5.46567e-08
9.85544e-08
6.12838e-07
3.97647e-07
6.88851e-08
5.00347e-08
4.45713e-08
4.26843e-08
4.18971e-08
4.0756e-08
3.70585e-08
2.54809e-08
1.72828e-08
3.13582e-08
3.033e-08
4.01874e-08
4.59552e-08
4.58459e-08
4.42168e-08
4.47818e-08
6.02471e-08
2.28031e-07
2.35558e-06
1.5266e-06
1.33681e-07
5.49663e-08
5.12665e-08
5.41199e-08
5.82973e-08
6.11371e-08
5.90398e-08
4.72391e-08
2.63166e-08
3.35028e-08
4.76495e-08
5.85988e-08
6.3909e-08
6.30652e-08
5.87964e-08
5.61247e-08
7.88728e-08
4.50591e-07
4.39914e-06
2.77676e-06
2.30276e-07
6.59295e-08
6.09482e-08
6.5792e-08
7.03414e-08
7.0923e-08
6.55863e-08
5.98251e-08
8.23854e-08
1.4061e-07
8.0746e-08
6.68853e-08
6.79863e-08
7.00618e-08
6.87683e-08
6.79514e-08
1.0666e-07
7.76653e-07
6.86789e-06
4.3382e-06
3.7706e-07
7.96135e-08
6.82575e-08
7.0811e-08
7.20765e-08
7.19068e-08
8.03141e-08
1.26876e-07
2.47675e-07
3.87486e-07
1.87635e-07
9.84063e-08
7.33877e-08
7.05877e-08
7.10683e-08
7.38996e-08
1.32923e-07
1.13877e-06
9.27395e-06
5.87534e-06
5.37726e-07
9.05985e-08
6.9783e-08
6.96595e-08
6.98492e-08
7.44771e-08
1.05323e-07
2.13764e-07
4.2171e-07
6.37639e-07
3.04279e-07
1.49981e-07
1.03157e-07
9.73073e-08
1.0252e-07
1.12345e-07
1.95565e-07
1.47235e-06
1.07081e-05
6.80681e-06
7.42916e-07
1.41194e-07
1.04517e-07
9.72886e-08
9.07233e-08
9.2635e-08
1.38305e-07
3.08122e-07
5.98893e-07
8.95042e-07
5.90595e-07
2.8176e-07
2.75509e-07
3.27247e-07
3.73217e-07
3.88147e-07
4.20831e-07
1.51958e-06
9.80473e-06
6.19252e-06
8.38756e-07
3.71539e-07
3.67001e-07
3.42769e-07
2.89743e-07
2.32284e-07
2.0452e-07
5.26736e-07
7.88123e-07
1.19162e-06
1.04413e-06
1.12325e-06
1.70946e-06
2.33522e-06
2.80103e-06
2.94019e-06
2.94251e-06
4.28836e-06
8.59884e-06
6.6467e-06
3.22383e-06
2.62565e-06
2.70836e-06
2.479e-06
1.99703e-06
1.44106e-06
9.22598e-07
8.64222e-07
1.02418e-06
1.59317e-06
2.1583e-06
2.7185e-06
3.35633e-06
4.10623e-06
4.954e-06
5.94643e-06
7.20526e-06
8.92176e-06
1.08541e-05
9.95061e-06
7.80661e-06
6.27712e-06
5.18555e-06
4.31479e-06
3.56413e-06
2.90524e-06
2.35085e-06
1.86563e-06
1.37745e-06
1.2651e-08
1.94279e-08
2.38857e-08
2.75345e-08
3.13865e-08
3.50702e-08
3.87465e-08
4.31248e-08
5.02669e-08
5.85959e-08
5.49352e-08
5.14153e-08
5.11522e-08
5.09158e-08
4.95245e-08
4.64285e-08
4.1359e-08
3.36057e-08
2.26651e-08
1.03125e-08
2.27691e-08
2.5307e-08
3.25839e-08
3.66261e-08
3.74496e-08
3.73854e-08
3.8096e-08
4.26617e-08
6.03124e-08
9.1536e-08
7.01583e-08
5.00347e-08
4.70197e-08
4.92056e-08
5.34022e-08
5.87509e-08
6.42562e-08
6.54021e-08
5.36362e-08
1.9906e-08
2.66058e-08
5.53234e-08
6.83764e-08
6.95915e-08
6.39479e-08
5.60345e-08
4.96353e-08
4.82522e-08
6.52328e-08
1.61599e-07