/*--------------------------------*- C++ -*----------------------------------*\
| =========                 |                                                 |
| \\      /  F ield         | OpenFOAM: The Open Source CFD Toolbox           |
|  \\    /   O peration     | Version:  v2012                                 |
|   \\  /    A nd           | Website:  www.openfoam.com                      |
|    \\/     M anipulation  |                                                 |
\*---------------------------------------------------------------------------*/
FoamFile
{
    version     2.0;
    format      ascii;
    class       volScalarField;
    location    "1600";
    object      heatTransferCoeff(T);
}
// * * * * * * * * * * * * * * * * * * * * * * * * * * * * * * * * * * * * * //

dimensions      [1 0 -3 -1 0 0 0];


internalField   uniform 0;

boundaryField
{
    floor
    {
        type            calculated;
        value           uniform 0;
    }
    ceiling
    {
        type            calculated;
        value           nonuniform List<scalar> 
400
(
-0.00270048
-0.00289667
-0.00306124
-0.0031888
-0.0032917
-0.00337311
-0.00343206
-0.00346529
-0.00346769
-0.0034248
-0.00340705
-0.0034195
-0.00340549
-0.0033641
-0.00329905
-0.00321386
-0.00311001
-0.00298431
-0.00282282
-0.00261948
-0.00289667
-0.00310579
-0.00328783
-0.00343726
-0.00356584
-0.00367473
-0.00375979
-0.00381321
-0.00382591
-0.0037821
-0.00374912
-0.00375743
-0.00372862
-0.00366226
-0.0035664
-0.00344979
-0.00331806
-0.00316936
-0.00298951
-0.00277479
-0.00306124
-0.00328783
-0.00348395
-0.00365001
-0.00379894
-0.00393092
-0.00404014
-0.00411361
-0.00413716
-0.00409144
-0.00404236
-0.00404859
-0.00400502
-0.00391437
-0.00379024
-0.00364778
-0.00349623
-0.00333302
-0.00314244
-0.00291674
-0.0031888
-0.00343726
-0.00365001
-0.00383485
-0.00400969
-0.00417235
-0.00431252
-0.00441482
-0.00446112
-0.00443164
-0.00435267
-0.00434213
-0.00427535
-0.00415507
-0.00399896
-0.00382622
-0.0036512
-0.00347241
-0.00326867
-0.00302739
-0.0032917
-0.00356584
-0.00379894
-0.00400969
-0.00422181
-0.00442119
-0.0045961
-0.0047314
-0.00480817
-0.00480539
-0.00468886
-0.00465291
-0.00455746
-0.00440528
-0.0042161
-0.00401007
-0.00380119
-0.00359872
-0.00337748
-0.00311602
-0.00337311
-0.00367473
-0.00393092
-0.00417235
-0.00442119
-0.00465798
-0.00487197
-0.00504913
-0.00517266
-0.00522318
-0.00505983
-0.00497654
-0.00483975
-0.00464902
-0.00442337
-0.00418218
-0.003939
-0.00370897
-0.00346826
-0.00318488
-0.00343206
-0.00375979
-0.00404014
-0.00431252
-0.0045961
-0.00487197
-0.0051334
-0.00537054
-0.00557929
-0.0057492
-0.00551775
-0.00532811
-0.00512071
-0.00487827
-0.00461051
-0.0043329
-0.00405681
-0.00379848
-0.00353803
-0.00323391
-0.00346529
-0.00381321
-0.00411361
-0.00441482
-0.0047314
-0.00504913
-0.00537054
-0.00570532
-0.0060773
-0.00648096
-0.00614633
-0.00573793
-0.00539567
-0.0050783
-0.0047623
-0.00444865
-0.00414261
-0.0038591
-0.003582
-0.00326145
-0.00346769
-0.00382591
-0.00413716
-0.00446112
-0.00480817
-0.00517266
-0.00557929
-0.0060773
-0.00671534
-0.00744101
-0.00699463
-0.00624386
-0.00566785
-0.00522983
-0.00485574
-0.00450825
-0.00417801
-0.00387519
-0.00358935
-0.00326057
-0.0034248
-0.0037821
-0.00409144
-0.00443164
-0.00480539
-0.00522318
-0.0057492
-0.00648096
-0.00744101
-0.00784725
-0.00764484
-0.00681003
-0.00593285
-0.00531153
-0.00486398
-0.00448731
-0.00414169
-0.00382817
-0.00354432
-0.00321659
-0.00340705
-0.00374912
-0.00404236
-0.00435267
-0.00468886
-0.00505983
-0.00551775
-0.00614633
-0.00699463
-0.00764484
-0.00744315
-0.00651338
-0.00573666
-0.00518698
-0.00478059
-0.00443602
-0.00411834
-0.00382615
-0.00355015
-0.00322888
-0.0034195
-0.00375743
-0.00404859
-0.00434213
-0.00465291
-0.00497654
-0.00532811
-0.00573793
-0.00624386
-0.00681003
-0.00651338
-0.00592653
-0.00545278
-0.00507218
-0.00474071
-0.00443153
-0.00413485
-0.00385557
-0.00357871
-0.00325775
-0.00340549
-0.00372862
-0.00400502
-0.00427534
-0.00455746
-0.00483975
-0.00512071
-0.00539567
-0.00566785
-0.00593285
-0.00573666
-0.00545278
-0.00518317
-0.00491603
-0.0046443
-0.00437051
-0.00409826
-0.00383795
-0.00357154
-0.0032602
-0.0033641
-0.00366226
-0.00391437
-0.00415507
-0.00440528
-0.00464902
-0.00487827
-0.0050783
-0.00522983
-0.00531152
-0.00518698
-0.00507218
-0.00491603
-0.00471825
-0.00449198
-0.00425195
-0.00400775
-0.00377225
-0.00352571
-0.00323408
-0.00329905
-0.0035664
-0.00379024
-0.00399896
-0.0042161
-0.00442337
-0.00461051
-0.0047623
-0.00485574
-0.00486398
-0.00478059
-0.00474071
-0.0046443
-0.00449198
-0.00430269
-0.00409515
-0.00388082
-0.00367285
-0.00344963
-0.0031833
-0.00321386
-0.00344979
-0.00364778
-0.00382622
-0.00401007
-0.00418218
-0.0043329
-0.00444865
-0.00450825
-0.0044873
-0.00443602
-0.00443153
-0.00437051
-0.00425195
-0.00409515
-0.00391907
-0.00373531
-0.0035537
-0.00335193
-0.00311149
-0.00311001
-0.00331806
-0.00349623
-0.0036512
-0.00380119
-0.003939
-0.0040568
-0.00414261
-0.00417801
-0.00414169
-0.00411834
-0.00413485
-0.00409826
-0.00400775
-0.00388082
-0.00373531
-0.00358202
-0.00342187
-0.00323753
-0.00301996
-0.00298431
-0.00316936
-0.00333302
-0.00347241
-0.00359872
-0.00370897
-0.00379848
-0.0038591
-0.00387519
-0.00382817
-0.00382615
-0.00385557
-0.00383795
-0.00377225
-0.00367285
-0.0035537
-0.00342187
-0.00327671
-0.00310536
-0.00290583
-0.00282282
-0.00298951
-0.00314244
-0.00326867
-0.00337748
-0.00346826
-0.00353803
-0.003582
-0.00358935
-0.00354432
-0.00355015
-0.00357871
-0.00357154
-0.00352571
-0.00344963
-0.00335193
-0.00323753
-0.00310536
-0.00294382
-0.00275718
-0.00261948
-0.00277479
-0.00291674
-0.00302739
-0.00311602
-0.00318488
-0.00323391
-0.00326145
-0.00326057
-0.00321659
-0.00322888
-0.00325775
-0.0032602
-0.00323408
-0.0031833
-0.00311149
-0.00301996
-0.00290583
-0.00275718
-0.00257853
)
;
    }
    fixedWalls
    {
        type            calculated;
        value           uniform 0;
    }
}


// ************************************************************************* //
