/*--------------------------------*- C++ -*----------------------------------*\
| =========                 |                                                 |
| \\      /  F ield         | OpenFOAM: The Open Source CFD Toolbox           |
|  \\    /   O peration     | Version:  v2012                                 |
|   \\  /    A nd           | Website:  www.openfoam.com                      |
|    \\/     M anipulation  |                                                 |
\*---------------------------------------------------------------------------*/
FoamFile
{
    version     2.0;
    format      ascii;
    class       volScalarField;
    location    "1600";
    object      k;
}
// * * * * * * * * * * * * * * * * * * * * * * * * * * * * * * * * * * * * * //

dimensions      [0 2 -2 0 0 0 0];


internalField   nonuniform List<scalar> 
4000
(
1.92476e-05
1.33456e-05
7.59677e-06
5.74829e-06
5.26232e-06
4.89591e-06
4.37794e-06
4.17832e-06
4.20727e-06
4.22439e-06
4.15823e-06
4.02932e-06
3.95275e-06
4.05154e-06
4.5471e-06
5.15869e-06
5.90622e-06
7.8655e-06
1.60547e-05
2.52575e-05
3.89869e-05
3.55875e-05
2.94567e-05
2.27925e-05
1.71305e-05
7.94068e-06
6.81921e-06
6.47744e-06
6.68717e-06
6.88752e-06
6.74646e-06
6.29525e-06
5.85044e-06
5.7673e-06
9.35129e-06
1.80991e-05
2.31182e-05
2.82858e-05
3.26297e-05
3.80935e-05
4.44026e-05
4.13008e-05
3.55473e-05
2.88332e-05
2.25188e-05
1.65906e-05
1.02642e-05
6.78967e-06
7.36099e-06
7.95729e-06
8.03287e-06
7.24292e-06
6.49419e-06
1.08488e-05
1.63857e-05
2.235e-05
2.7943e-05
3.38137e-05
3.91637e-05
4.32247e-05
4.72747e-05
4.52086e-05
3.96192e-05
3.22814e-05
2.51199e-05
1.93296e-05
1.49242e-05
1.11283e-05
7.76826e-06
8.49456e-06
9.15769e-06
7.57355e-06
9.70893e-06
1.3445e-05
1.77024e-05
2.29948e-05
2.96133e-05
3.68919e-05
4.27508e-05
4.58401e-05
4.91766e-05
4.85647e-05
4.47181e-05
3.93199e-05
3.35378e-05
2.86982e-05
2.45056e-05
2.04768e-05
1.74506e-05
1.59073e-05
1.77918e-05
1.9735e-05
2.18816e-05
2.51008e-05
2.86606e-05
3.2723e-05
3.73868e-05
4.23309e-05
4.62616e-05
4.75321e-05
5.07537e-05
5.18599e-05
5.07621e-05
4.86328e-05
4.62586e-05
4.38516e-05
4.1426e-05
3.88939e-05
3.64241e-05
3.45961e-05
3.66671e-05
3.87945e-05
4.07658e-05
4.25846e-05
4.42497e-05
4.5868e-05
4.75007e-05
4.90535e-05
4.996e-05
4.89305e-05
5.23728e-05
5.5465e-05
5.70941e-05
5.78175e-05
5.80279e-05
5.76281e-05
5.65839e-05
5.49664e-05
5.28782e-05
5.06755e-05
5.207e-05
5.40595e-05
5.57074e-05
5.67825e-05
5.7276e-05
5.72024e-05
5.65634e-05
5.54699e-05
5.36697e-05
5.02843e-05
5.42442e-05
5.94099e-05
6.35321e-05
6.65658e-05
6.87665e-05
7.00258e-05
7.03021e-05
6.94694e-05
6.76212e-05
6.49065e-05
6.57321e-05
6.77601e-05
6.91403e-05
6.94685e-05
6.87463e-05
6.71041e-05
6.46715e-05
6.15174e-05
5.73898e-05
5.17786e-05
5.67103e-05
6.43946e-05
7.09244e-05
7.60808e-05
8.01298e-05
8.29376e-05
8.44756e-05
8.45206e-05
8.2882e-05
7.94476e-05
7.97781e-05
8.19926e-05
8.29762e-05
8.23646e-05
8.03443e-05
7.71849e-05
7.30757e-05
6.80539e-05
6.17288e-05
5.37861e-05
6.02685e-05
7.06881e-05
7.97749e-05
8.69507e-05
9.28058e-05
9.74367e-05
0.000100725
0.000102437
0.000102261
9.93457e-05
9.84393e-05
9.95077e-05
9.9005e-05
9.68405e-05
9.32533e-05
8.8504e-05
8.27477e-05
7.58821e-05
6.72294e-05
5.67706e-05
1.33456e-05
1.12147e-05
8.85325e-06
7.70949e-06
8.49063e-06
8.31927e-06
6.44901e-06
5.91665e-06
5.77395e-06
5.74147e-06
5.58107e-06
5.3255e-06
5.26331e-06
5.80726e-06
7.13991e-06
7.6912e-06
8.25416e-06
9.96951e-06
1.55139e-05
1.99496e-05
3.55875e-05
4.43152e-05
3.69874e-05
3.03992e-05
2.57645e-05
1.76316e-05
1.1819e-05
1.08842e-05
1.07123e-05
1.08962e-05
1.05923e-05
9.85572e-06
9.83598e-06
1.18929e-05
2.22466e-05
3.08069e-05
3.54603e-05
4.11579e-05
4.6755e-05
3.58671e-05
4.13008e-05
4.78895e-05
4.40148e-05
3.49592e-05
2.80296e-05
2.29906e-05
1.77379e-05
1.35985e-05
1.19136e-05
1.22967e-05
1.23158e-05
1.19711e-05
1.43006e-05
1.85246e-05
2.36961e-05
2.92312e-05
3.48122e-05
4.22161e-05
4.77372e-05
4.24012e-05
4.52086e-05
5.09575e-05
4.8651e-05
4.02858e-05
3.05369e-05
2.39764e-05
1.92718e-05
1.58102e-05
1.37077e-05
1.39671e-05
1.44135e-05
1.3789e-05
1.45103e-05
1.80534e-05
2.26882e-05
2.81086e-05
3.56202e-05
4.45089e-05
4.92757e-05
4.56261e-05
4.85647e-05
5.38682e-05
5.26297e-05
4.58501e-05
3.57568e-05
2.84147e-05
2.31311e-05
1.8845e-05
1.579e-05
1.51206e-05
1.60257e-05
1.6127e-05
1.79444e-05
2.20536e-05
2.70707e-05
3.30575e-05
4.18681e-05
5.00151e-05
5.28777e-05
4.80379e-05
5.18599e-05
5.76998e-05
5.78458e-05
5.40031e-05
4.72684e-05
3.84612e-05
3.25493e-05
2.75885e-05
2.44632e-05
2.34627e-05
2.48245e-05
2.59121e-05
2.81539e-05
3.21818e-05
3.72915e-05
4.41862e-05
5.1488e-05
5.5936e-05
5.64619e-05
5.02356e-05
5.5465e-05
6.18264e-05
6.29358e-05
6.2158e-05
6.02391e-05
5.44598e-05
4.54195e-05
3.95719e-05
3.56209e-05
3.36588e-05
3.5106e-05
3.73902e-05
4.07689e-05
4.61304e-05
5.29952e-05
5.88912e-05
6.05827e-05
6.0438e-05
5.94952e-05
5.26454e-05
5.94099e-05
6.71356e-05
6.95343e-05
7.17074e-05
7.52034e-05
7.65794e-05
7.49417e-05
6.9317e-05
6.28745e-05
5.80337e-05
6.07984e-05
6.68834e-05
7.20518e-05
7.49213e-05
7.5361e-05
7.32525e-05
6.90386e-05
6.56152e-05
6.33324e-05
5.56362e-05
6.43946e-05
7.55491e-05
8.25633e-05
8.82549e-05
9.34493e-05
9.65751e-05
9.77382e-05
9.58946e-05
9.03166e-05
8.16528e-05
8.386e-05
9.08758e-05
9.48314e-05
9.48015e-05
9.17767e-05
8.70377e-05
8.16199e-05
7.63094e-05
7.06012e-05
5.96019e-05
7.06881e-05
8.2731e-05
9.35931e-05
0.000102693
0.000110659
0.000117461
0.000122728
0.000125859
0.00012623
0.000122833
0.000120821
0.000121817
0.000120384
0.000116439
0.000110566
0.000103445
9.55493e-05
8.68486e-05
7.65699e-05
6.4767e-05
7.59677e-06
8.85325e-06
8.57313e-06
8.99797e-06
1.07986e-05
1.00497e-05
7.99793e-06
7.036e-06
6.69007e-06
6.55191e-06
6.31194e-06
6.00569e-06
6.0449e-06
6.94027e-06
8.69443e-06
9.01851e-06
9.28377e-06
9.72864e-06
1.15798e-05
1.3258e-05
2.94567e-05
3.69874e-05
3.43587e-05
3.19489e-05
2.80068e-05
1.99997e-05
1.47085e-05
1.30238e-05
1.25655e-05
1.26004e-05
1.23156e-05
1.15968e-05
1.20198e-05
1.51467e-05
2.59405e-05
3.53625e-05
3.90007e-05
4.22928e-05
4.44762e-05
3.29014e-05
3.55473e-05
4.40148e-05
4.08947e-05
3.45084e-05
2.94628e-05
2.56487e-05
2.08957e-05
1.65055e-05
1.45975e-05
1.43281e-05
1.4414e-05
1.47376e-05
1.76468e-05
2.22649e-05
2.70863e-05
3.23795e-05
3.70765e-05
4.28062e-05
4.61773e-05
3.92439e-05
3.96192e-05
4.8651e-05
4.78462e-05
3.99561e-05
3.19981e-05
2.63903e-05
2.23732e-05
1.93595e-05
1.71964e-05
1.58446e-05
1.6096e-05
1.71569e-05
1.83043e-05
2.15117e-05
2.58598e-05
3.10352e-05
3.77865e-05
4.58714e-05
4.9291e-05
4.2752e-05
4.47181e-05
5.26297e-05
5.12587e-05
4.45713e-05
3.52672e-05
2.8443e-05
2.37176e-05
2.01641e-05
1.77054e-05
1.682e-05
1.69847e-05
1.69375e-05
1.85832e-05
2.22477e-05
2.68313e-05
3.2753e-05
4.16187e-05
5.05436e-05
5.40022e-05
4.62722e-05
5.07621e-05
5.78458e-05
5.61208e-05
4.99572e-05
4.1328e-05
3.322e-05
2.7469e-05
2.28312e-05
1.93882e-05
1.81913e-05
1.86611e-05
1.90637e-05
2.14296e-05
2.55561e-05
3.06161e-05
3.75291e-05
4.71486e-05
5.5309e-05
5.84824e-05
5.00757e-05
5.70941e-05
6.29357e-05
6.15726e-05
5.55783e-05
4.82446e-05
4.09178e-05
3.40697e-05
2.88683e-05
2.50823e-05
2.34007e-05
2.39756e-05
2.50656e-05
2.76759e-05
3.19032e-05
3.72731e-05
4.38542e-05
5.15213e-05
5.89947e-05
6.2242e-05
5.4288e-05
6.35321e-05
6.95343e-05
7.11049e-05
6.72523e-05
6.01027e-05
5.64724e-05
5.24324e-05
4.75369e-05
4.22182e-05
3.79549e-05
3.90272e-05
4.26647e-05
4.6132e-05
4.90011e-05
5.15846e-05
5.42412e-05
5.95624e-05
6.52923e-05
6.69688e-05
5.89756e-05
7.09244e-05
8.25633e-05
9.64331e-05
0.000109448
0.000119553
0.000122847
0.000123531
0.000119077
0.000107811
9.28745e-05
9.59593e-05
0.00011006
0.000117984
0.000117383
0.000111787
0.000105087
9.75443e-05
8.71617e-05
7.68083e-05
6.49724e-05
7.97749e-05
9.35931e-05
0.000105989
0.000116719
0.000126537
0.000135348
0.000142611
0.000147268
0.000148265
0.000144285
0.000140981
0.000142063
0.000139633
0.000133809
0.00012565
0.000116383
0.000106788
9.6751e-05
8.53128e-05
7.22634e-05
5.74829e-06
7.70949e-06
8.99797e-06
1.12591e-05
1.21424e-05
1.05832e-05
8.80905e-06
7.81096e-06
7.38426e-06
7.21861e-06
6.94091e-06
6.56889e-06
6.6508e-06
7.51111e-06
9.46966e-06
1.02672e-05
9.89659e-06
9.45248e-06
8.96757e-06
7.84311e-06
2.27925e-05
3.03993e-05
3.19489e-05
3.08691e-05
2.6367e-05
1.94936e-05
1.59019e-05
1.44423e-05
1.40599e-05
1.42625e-05
1.40416e-05
1.30221e-05
1.31336e-05
1.58621e-05
2.48581e-05
3.55931e-05
3.95545e-05
4.01844e-05
3.90459e-05
2.94302e-05
2.88332e-05
3.49592e-05
3.45084e-05
3.17623e-05
2.89296e-05
2.61005e-05
2.15125e-05
1.77203e-05
1.62367e-05
1.61119e-05
1.6334e-05
1.64809e-05
1.87952e-05
2.34619e-05
2.78799e-05
3.25662e-05
3.6031e-05
3.90505e-05
4.06594e-05
3.40525e-05
3.22814e-05
4.02858e-05
3.99561e-05
3.54048e-05
3.05831e-05
2.68405e-05
2.39589e-05
2.11536e-05
1.87118e-05
1.75488e-05
1.80046e-05
1.90612e-05
2.0451e-05
2.32683e-05
2.69929e-05
3.13633e-05
3.66441e-05
4.26912e-05
4.50437e-05
3.73326e-05
3.93199e-05
4.58501e-05
4.45713e-05
3.93778e-05
3.30712e-05
2.80813e-05
2.44541e-05
2.17635e-05
1.98479e-05
1.86068e-05
1.83918e-05
1.88058e-05
2.02257e-05
2.32985e-05
2.72147e-05
3.23363e-05
3.96058e-05
4.74083e-05
5.11553e-05
4.25048e-05
4.86328e-05
5.40031e-05
4.99572e-05
4.39558e-05
3.70399e-05
3.09215e-05
2.62724e-05
2.24618e-05
1.94026e-05
1.76216e-05
1.72051e-05
1.81195e-05
2.05312e-05
2.42647e-05
2.87628e-05
3.48107e-05
4.33366e-05
5.18402e-05
5.72361e-05
4.87501e-05
5.78175e-05
6.2158e-05
5.55783e-05
4.86831e-05
4.20622e-05
3.61162e-05
3.10554e-05
2.68417e-05
2.34392e-05
2.16153e-05
2.12764e-05
2.19281e-05
2.43131e-05
2.78721e-05
3.2219e-05
3.80084e-05
4.60548e-05
5.51088e-05
6.2066e-05
5.49741e-05
6.65658e-05
7.17074e-05
6.72523e-05
6.08273e-05
5.71828e-05
5.47757e-05
5.24314e-05
4.89831e-05
4.38016e-05
3.85176e-05
3.87966e-05
4.28318e-05
4.5819e-05
4.70426e-05
4.78632e-05
4.96709e-05
5.40261e-05
6.25186e-05
6.78821e-05
6.14231e-05
7.60808e-05
8.82549e-05
0.000109448
0.000129147
0.00014066
0.000152458
0.00016088
0.00016084
0.000148814
0.000128856
0.000128923
0.000146883
0.000154537
0.000148162
0.000134894
0.000121086
0.000111793
9.81129e-05
8.10599e-05
6.91436e-05
8.69507e-05
0.000102693
0.000116719
0.000129217
0.000141343
0.000152868
0.000162816
0.00016986
0.000172548
0.00016952
0.000163595
0.000163488
0.000159279
0.000151009
0.000140137
0.000128285
0.000116708
0.000105293
9.26116e-05
7.81715e-05
5.26232e-06
8.49063e-06
1.07986e-05
1.21424e-05
1.18043e-05
1.03001e-05
9.02831e-06
8.26702e-06
7.98311e-06
7.97036e-06
7.66014e-06
7.15572e-06
7.25828e-06
8.02097e-06
9.49686e-06
1.08501e-05
1.0504e-05
9.53407e-06
8.22307e-06
6.05981e-06
1.71305e-05
2.57645e-05
2.80068e-05
2.6367e-05
2.20382e-05
1.81418e-05
1.6063e-05
1.50775e-05
1.51879e-05
1.61082e-05
1.58995e-05
1.37985e-05
1.35549e-05
1.55997e-05
2.10021e-05
3.10242e-05
3.76294e-05
3.79108e-05
3.43058e-05
2.42335e-05
2.25188e-05
2.80296e-05
2.94628e-05
2.89296e-05
2.76432e-05
2.4639e-05
2.05919e-05
1.78932e-05
1.71153e-05
1.77891e-05
1.79006e-05
1.68662e-05
1.85292e-05
2.28582e-05
2.71056e-05
3.067e-05
3.34886e-05
3.44353e-05
3.32941e-05
2.77798e-05
2.51199e-05
3.05369e-05
3.19981e-05
3.05831e-05
2.84182e-05
2.63831e-05
2.41512e-05
2.13352e-05
1.92799e-05
1.91129e-05
1.94278e-05
1.95849e-05
2.11309e-05
2.36145e-05
2.64998e-05
2.95811e-05
3.27708e-05
3.55479e-05
3.61809e-05
3.04395e-05
3.35378e-05
3.57568e-05
3.52672e-05
3.30712e-05
2.98981e-05
2.69574e-05
2.45758e-05
2.27443e-05
2.13655e-05
2.07551e-05
2.05697e-05
2.01814e-05
2.11657e-05
2.36076e-05
2.66383e-05
3.03037e-05
3.4982e-05
4.00336e-05
4.38763e-05
3.81695e-05
4.62586e-05
4.72684e-05
4.1328e-05
3.70399e-05
3.27858e-05
2.88526e-05
2.55639e-05
2.28364e-05
2.08833e-05
2.03731e-05
1.98807e-05
1.93869e-05
2.09865e-05
2.39948e-05
2.76646e-05
3.22994e-05
3.84684e-05
4.55322e-05
5.2968e-05
4.69001e-05
5.80279e-05
6.02391e-05
4.82446e-05
4.20622e-05
3.75472e-05
3.36095e-05
3.01814e-05
2.72742e-05
2.51802e-05
2.51749e-05
2.42851e-05
2.29929e-05
2.43748e-05
2.71009e-05
3.05854e-05
3.5161e-05
4.14713e-05
4.96063e-05
6.08522e-05
5.50368e-05
6.87665e-05
7.52034e-05
6.01027e-05
5.71828e-05
5.71264e-05
5.73297e-05
5.70755e-05
5.50181e-05
5.00715e-05
4.4399e-05
4.38937e-05
4.76745e-05
5.01683e-05
5.01066e-05
4.95108e-05
4.99938e-05
5.21004e-05
5.64524e-05
6.95805e-05
6.30702e-05
8.01298e-05
9.34492e-05
0.000119553
0.00014066
0.000166663
0.000189513
0.000204593
0.000205754
0.000187281
0.000156047
0.00015261
0.000180723
0.000193388
0.000184235
0.000164402
0.000142994
0.000122704
0.000106153
8.45474e-05
7.2269e-05
9.28058e-05
0.000110659
0.000126537
0.000141343
0.000156866
0.000171703
0.000184721
0.000194544
0.000199589
0.000198421
0.000189038
0.000187005
0.000180555
0.000169605
0.000155861
0.000141105
0.000126578
0.000113176
9.89814e-05
8.29321e-05
4.89591e-06
8.31927e-06
1.00497e-05
1.05832e-05
1.03001e-05
9.58447e-06
8.9347e-06
8.55139e-06
8.54706e-06
8.82594e-06
8.45743e-06
7.79698e-06
7.81553e-06
8.36266e-06
9.25616e-06
1.03005e-05
1.07123e-05
9.57581e-06
7.87754e-06
5.42778e-06
7.94068e-06
1.76316e-05
1.99997e-05
1.94936e-05
1.81418e-05
1.67771e-05
1.575e-05
1.53351e-05
1.60694e-05
1.78773e-05
1.7513e-05
1.44679e-05
1.37907e-05
1.52033e-05
1.79259e-05
2.32555e-05
3.00436e-05
3.29234e-05
2.96306e-05
1.85893e-05
1.65906e-05
2.29906e-05
2.56487e-05
2.61005e-05
2.4639e-05
2.17901e-05
1.91474e-05
1.76011e-05
1.76452e-05
1.91855e-05
1.88003e-05
1.67245e-05
1.7614e-05
2.10102e-05
2.49706e-05
2.77902e-05
2.95083e-05
2.97726e-05
2.74273e-05
2.17243e-05
1.93296e-05
2.39764e-05
2.63903e-05
2.68405e-05
2.63831e-05
2.52093e-05
2.29828e-05
2.05154e-05
1.9393e-05
2.03869e-05
1.99863e-05
1.91544e-05
2.06582e-05
2.301e-05
2.51311e-05
2.70257e-05
2.84987e-05
2.90991e-05
2.79507e-05
2.3946e-05
2.86982e-05
2.84147e-05
2.8443e-05
2.80813e-05
2.69574e-05
2.5543e-05
2.41972e-05
2.29173e-05
2.19766e-05
2.24041e-05
2.16971e-05
2.05475e-05
2.12061e-05
2.30651e-05
2.52096e-05
2.74104e-05
2.96727e-05
3.18238e-05
3.41518e-05
3.39733e-05
4.38516e-05
3.84612e-05
3.322e-05
3.09215e-05
2.88526e-05
2.66688e-05
2.46284e-05
2.30127e-05
2.24124e-05
2.38438e-05
2.27635e-05
2.04616e-05
2.11183e-05
2.33034e-05
2.59914e-05
2.90188e-05
3.25655e-05
3.7007e-05
4.48011e-05
4.4794e-05
5.76281e-05
5.44597e-05
4.09178e-05
3.61162e-05
3.36095e-05
3.14787e-05
2.95359e-05
2.80354e-05
2.7791e-05
3.09575e-05
2.90547e-05
2.48425e-05
2.48812e-05
2.66634e-05
2.91822e-05
3.22962e-05
3.63382e-05
4.27133e-05
5.75025e-05
5.45174e-05
7.00258e-05
7.65794e-05
5.64724e-05
5.47757e-05
5.73297e-05
6.01839e-05
6.1856e-05
6.04647e-05
5.48268e-05
4.91197e-05
4.77771e-05
5.13424e-05
5.43025e-05
5.35244e-05
5.15093e-05
5.01546e-05
4.99022e-05
5.21043e-05
6.99822e-05
6.38125e-05
8.29375e-05
9.65751e-05
0.000122847
0.000152458
0.000189514
0.000221175
0.000240651
0.0002389
0.000207225
0.000163312
0.000158325
0.000200166
0.00022389
0.000214758
0.000189157
0.000159719
0.000130594
0.000106752
8.55819e-05
7.41733e-05
9.74367e-05
0.000117461
0.000135348
0.000152868
0.000171703
0.000189907
0.000206378
0.000219734
0.000228566
0.000231691
0.000217856
0.00021192
0.000202171
0.000187996
0.000171089
0.000153275
0.000135801
0.000120094
0.000104297
8.66002e-05
4.37794e-06
6.44901e-06
7.99793e-06
8.80905e-06
9.02831e-06
8.9347e-06
8.80675e-06
8.82985e-06
9.20478e-06
9.9812e-06
9.56082e-06
8.57305e-06
8.3512e-06
8.54251e-06
8.86781e-06
9.18242e-06
9.40225e-06
9.10269e-06
7.63394e-06
4.89412e-06
6.81921e-06
1.1819e-05
1.47085e-05
1.59019e-05
1.6063e-05
1.575e-05
1.54259e-05
1.56233e-05
1.72329e-05
2.0717e-05
2.01063e-05
1.55983e-05
1.4229e-05
1.48405e-05
1.61412e-05
1.7737e-05
1.99091e-05
2.20586e-05
2.01501e-05
9.95028e-06
1.02642e-05
1.77379e-05
2.08957e-05
2.15125e-05
2.05919e-05
1.91474e-05
1.79047e-05
1.73756e-05
1.8413e-05
2.12908e-05
2.00586e-05
1.6724e-05
1.67964e-05
1.89582e-05
2.18804e-05
2.44754e-05
2.55666e-05
2.46608e-05
2.17816e-05
1.62256e-05
1.49242e-05
1.92718e-05
2.23732e-05
2.39589e-05
2.41512e-05
2.29828e-05
2.10645e-05
1.95314e-05
1.99021e-05
2.31025e-05
2.10552e-05
1.85243e-05
1.95355e-05
2.1735e-05
2.35149e-05
2.45234e-05
2.48067e-05
2.40778e-05
2.21191e-05
1.90642e-05
2.45056e-05
2.31311e-05
2.37176e-05
2.44541e-05
2.45758e-05
2.41972e-05
2.34065e-05
2.24054e-05
2.26272e-05
2.67179e-05
2.35949e-05
2.03613e-05
2.06755e-05
2.20643e-05
2.3501e-05
2.46314e-05
2.53592e-05
2.58634e-05
2.75205e-05
3.04041e-05
4.1426e-05
3.25493e-05
2.7469e-05
2.62724e-05
2.55639e-05
2.46284e-05
2.3641e-05
2.30797e-05
2.43813e-05
3.11122e-05
2.684e-05
2.10844e-05
2.07828e-05
2.21899e-05
2.39317e-05
2.56021e-05
2.72116e-05
2.95895e-05
3.6403e-05
4.26153e-05
5.65839e-05
4.54195e-05
3.40697e-05
3.10553e-05
3.01814e-05
2.95359e-05
2.89429e-05
2.88985e-05
3.13467e-05
4.12792e-05
3.5526e-05
2.6523e-05
2.51041e-05
2.5909e-05
2.73477e-05
2.89933e-05
3.10238e-05
3.55051e-05
5.05819e-05
5.34497e-05
7.03021e-05
7.49417e-05
5.24324e-05
5.24314e-05
5.70755e-05
6.1856e-05
6.4566e-05
6.25165e-05
5.63171e-05
5.59932e-05
5.14942e-05
5.17888e-05
5.60899e-05
5.54905e-05
5.22705e-05
4.90216e-05
4.65631e-05
4.67383e-05
6.82722e-05
6.37064e-05
8.44756e-05
9.77382e-05
0.000123531
0.00016088
0.000204593
0.000240651
0.000261608
0.000248573
0.000202662
0.000175039
0.000163397
0.000197376
0.000239657
0.000235089
0.000205315
0.000169637
0.000134031
0.000103841
8.46922e-05
7.49885e-05
0.000100725
0.000122728
0.000142611
0.000162816
0.000184721
0.000206378
0.000226963
0.000245402
0.00026159
0.000275379
0.000254835
0.000239338
0.000223737
0.000205306
0.000184834
0.000163907
0.000143661
0.000125624
0.000108305
8.9135e-05
4.17832e-06
5.91665e-06
7.036e-06
7.81096e-06
8.26702e-06
8.55139e-06
8.82985e-06
9.26335e-06
1.00984e-05
1.14707e-05
1.1044e-05
9.63401e-06
8.96637e-06
8.64216e-06
8.42609e-06
8.17707e-06
7.79654e-06
7.20739e-06
6.0867e-06
3.98532e-06
6.47744e-06
1.08842e-05
1.30238e-05
1.44423e-05
1.50775e-05
1.53351e-05
1.56233e-05
1.65664e-05
1.91807e-05
2.32895e-05
2.28056e-05
1.80213e-05
1.55611e-05
1.48781e-05
1.50258e-05
1.525e-05
1.51793e-05
1.45412e-05
1.18852e-05
6.07228e-06
6.78967e-06
1.35985e-05
1.65055e-05
1.77203e-05
1.78932e-05
1.76011e-05
1.73756e-05
1.79048e-05
2.06088e-05
3.02521e-05
2.67485e-05
1.80948e-05
1.68383e-05
1.7497e-05
1.89275e-05
2.05059e-05
2.14297e-05
2.05294e-05
1.74282e-05
1.19115e-05
1.11283e-05
1.58102e-05
1.93595e-05
2.11536e-05
2.13352e-05
2.05154e-05
1.95314e-05
1.95817e-05
2.41326e-05
4.57709e-05
3.57218e-05
1.98301e-05
1.87416e-05
2.01499e-05
2.16414e-05
2.22922e-05
2.18237e-05
2.02464e-05
1.76921e-05
1.49806e-05
2.04768e-05
1.8845e-05
2.01641e-05
2.17635e-05
2.27443e-05
2.29173e-05
2.24054e-05
2.24566e-05
3.00707e-05
7.02628e-05
5.02385e-05
2.26899e-05
2.03115e-05
2.10618e-05
2.1859e-05
2.21771e-05
2.18996e-05
2.13896e-05
2.25404e-05
2.73392e-05
3.88939e-05
2.75885e-05
2.28312e-05
2.24618e-05
2.28364e-05
2.30127e-05
2.30797e-05
2.42587e-05
3.58773e-05
9.52985e-05
6.63431e-05
2.50675e-05
2.07296e-05
2.11219e-05
2.19158e-05
2.24532e-05
2.27773e-05
2.40698e-05
3.06632e-05
4.04616e-05
5.49664e-05
3.95719e-05
2.88683e-05
2.68417e-05
2.72742e-05
2.80354e-05
2.88985e-05
3.13703e-05
4.60771e-05
0.00011592
8.21379e-05
3.24423e-05
2.57034e-05
2.51682e-05
2.54056e-05
2.56384e-05
2.60767e-05
2.90119e-05
4.21234e-05
5.19306e-05
6.94694e-05
6.9317e-05
4.75369e-05
4.89831e-05
5.50181e-05
6.04647e-05
6.25165e-05
5.99531e-05
6.41515e-05
0.000123393
9.22453e-05
5.22584e-05
5.35459e-05
5.43141e-05
5.09832e-05
4.64356e-05
4.22649e-05
4.09248e-05
6.50408e-05
6.27853e-05
8.45206e-05
9.58946e-05
0.000119077
0.00016084
0.000205754
0.0002389
0.000248573
0.000221992
0.000206313
0.000262707
0.000223573
0.000182703
0.000220481
0.000233044
0.000207915
0.000170997
0.00013208
9.77085e-05
8.18287e-05
7.46881e-05
0.000102437
0.000125859
0.000147268
0.00016986
0.000194544
0.000219734
0.000245402
0.000272406
0.000303648
0.000338986
0.000308146
0.000272015
0.000244567
0.000220034
0.000195686
0.000171836
0.000149183
0.000129178
0.000110675
9.04282e-05
4.20727e-06
5.77395e-06
6.69007e-06
7.38426e-06
7.98311e-06
8.54706e-06
9.20478e-06
1.00984e-05
1.12825e-05
1.29626e-05
1.23215e-05
1.10018e-05
9.92773e-06
8.90091e-06
8.11816e-06
7.4653e-06
6.83191e-06
6.08895e-06
5.03918e-06
3.52087e-06
6.68717e-06
1.07123e-05
1.25655e-05
1.40598e-05
1.51879e-05
1.60694e-05
1.72329e-05
1.91807e-05
2.26117e-05
6.34549e-05
5.82491e-05
2.17129e-05
1.91161e-05
1.64048e-05
1.48998e-05
1.40073e-05
1.31941e-05
1.19571e-05
9.53562e-06
5.55869e-06
7.36099e-06
1.19136e-05
1.45975e-05
1.62367e-05
1.71153e-05
1.76452e-05
1.8413e-05
2.06088e-05
3.55147e-05
0.000159285
0.000133603
2.88264e-05
1.91446e-05
1.75843e-05
1.71897e-05
1.72816e-05
1.72784e-05
1.63769e-05
1.34841e-05
7.35376e-06
7.76826e-06
1.37077e-05
1.71964e-05
1.87118e-05
1.92799e-05
1.9393e-05
1.99021e-05
2.41326e-05
6.07911e-05
0.000272323
0.000216919
4.16486e-05
2.05871e-05
1.9327e-05
1.96909e-05
1.99476e-05
1.92645e-05
1.73185e-05
1.42821e-05
1.12331e-05
1.74506e-05
1.579e-05
1.77054e-05
1.98479e-05
2.13656e-05
2.19766e-05
2.26272e-05
3.00707e-05
9.98594e-05
0.000405026
0.000314428
5.93819e-05
2.28618e-05
2.07128e-05
2.05147e-05
1.99992e-05
1.89325e-05
1.78135e-05
1.89039e-05
2.50071e-05
3.64241e-05
2.44632e-05
1.93882e-05
1.94026e-05
2.08833e-05
2.24124e-05
2.43813e-05
3.58773e-05
0.00013828
0.000528667
0.00040632
7.76426e-05
2.449e-05
2.09654e-05
2.03663e-05
1.97011e-05
1.90467e-05
1.99806e-05
2.6867e-05
3.84946e-05
5.28782e-05
3.56209e-05
2.50823e-05
2.34392e-05
2.51802e-05
2.7791e-05
3.13467e-05
4.60771e-05
0.00016813
0.000606005
0.000461953
9.5902e-05
3.09172e-05
2.54594e-05
2.39878e-05
2.26919e-05
2.19102e-05
2.4336e-05
3.65752e-05
5.01139e-05
6.76212e-05
6.28744e-05
4.22181e-05
4.38016e-05
5.00715e-05
5.48268e-05
5.63171e-05
6.41515e-05
0.000176528
0.000600823
0.000459853
0.000105292
5.03091e-05
4.91229e-05
4.69423e-05
4.22339e-05
3.72111e-05
3.55418e-05
6.00034e-05
6.10265e-05
8.2882e-05
9.03166e-05
0.000107811
0.000148814
0.000187281
0.000207225
0.000202662
0.000206313
0.000298777
0.000510763
0.000418477
0.000224716
0.000180647
0.000196215
0.000188536
0.000159461
0.000123139
8.81841e-05
7.67149e-05
7.31033e-05
0.000102261
0.00012623
0.000148265
0.000172548
0.000199589
0.000228566
0.00026159
0.000303648
0.000359681
0.000419042
0.000380062
0.000313654
0.000265115
0.000230453
0.000201656
0.000175332
0.000150954
0.000129621
0.000110686
9.0069e-05
4.22439e-06
5.74147e-06
6.55191e-06
7.21861e-06
7.97036e-06
8.82594e-06
9.9812e-06
1.14707e-05
1.29626e-05
1.40403e-05
1.33287e-05
1.23114e-05
1.09911e-05
9.4462e-06
8.17176e-06
7.22906e-06
6.39986e-06
5.53938e-06
4.558e-06
3.25495e-06
6.88752e-06
1.08962e-05
1.26004e-05
1.42625e-05
1.61082e-05
1.78773e-05
2.0717e-05
2.32895e-05
6.34549e-05
5.74251e-05
5.65206e-05
5.80875e-05
2.19978e-05
1.94447e-05
1.60884e-05
1.41137e-05
1.25003e-05
1.05769e-05
8.3961e-06
5.07554e-06
7.95729e-06
1.22967e-05
1.43281e-05
1.61119e-05
1.77891e-05
1.91855e-05
2.12908e-05
3.02521e-05
0.000159285
0.00010484
0.000102908
0.00012719
2.51268e-05
1.96103e-05
1.7398e-05
1.61454e-05
1.49473e-05
1.31897e-05
1.07097e-05
6.27781e-06
8.49456e-06
1.39671e-05
1.58446e-05
1.75488e-05
1.91129e-05
2.03869e-05
2.31025e-05
4.57709e-05
0.000272324
0.000159086
0.000156483
0.000198868
3.18555e-05
2.06839e-05
1.89201e-05
1.80983e-05
1.69701e-05
1.50561e-05
1.20129e-05
9.65035e-06
1.59073e-05
1.51206e-05
1.682e-05
1.86068e-05
2.07551e-05
2.24041e-05
2.67179e-05
7.02628e-05
0.000405026
0.000220474
0.000218967
0.000279239
4.16938e-05
2.23509e-05
2.00116e-05
1.83569e-05
1.65171e-05
1.54993e-05
1.74398e-05
2.44185e-05
3.45961e-05
2.34627e-05
1.81913e-05
1.76216e-05
2.03731e-05
2.38438e-05
3.11122e-05
9.52985e-05
0.000528667
0.000285857
0.000288186
0.000354287
5.16228e-05
2.35657e-05
2.00751e-05
1.77543e-05
1.62254e-05
1.77603e-05
2.54905e-05
3.73428e-05
5.06755e-05
3.36588e-05
2.34007e-05
2.16153e-05
2.51749e-05
3.09575e-05
4.12792e-05
0.00011592
0.000606005
0.0003455
0.000355665
0.000402361
6.44637e-05
2.95978e-05
2.45315e-05
2.1032e-05
1.90253e-05
2.19591e-05
3.43614e-05
4.83645e-05
6.49065e-05
5.80337e-05
3.79549e-05
3.85176e-05
4.4399e-05
4.91197e-05
5.59932e-05
0.000123393
0.000600823
0.000382803
0.00040377
0.000389616
7.32849e-05
4.50639e-05
4.22484e-05
3.78255e-05
3.25492e-05
3.17153e-05
5.57727e-05
5.86279e-05
7.94476e-05
8.16527e-05
9.28745e-05
0.000128856
0.000156047
0.000163312
0.000175039
0.000262707
0.000510763
0.000406458
0.000424543
0.000366103
0.000194464
0.000150699
0.000152383
0.000137912
0.000109348
7.75504e-05
6.95728e-05
7.00142e-05
9.93457e-05
0.000122833
0.000144285
0.00016952
0.000198421
0.000231691
0.000275379
0.000338986
0.000419042
0.000391403
0.000399624
0.000357446
0.000285466
0.000235203
0.000200808
0.000172664
0.000147525
0.000125761
0.000107386
8.72375e-05
4.15823e-06
5.58107e-06
6.31194e-06
6.94091e-06
7.66015e-06
8.45743e-06
9.56082e-06
1.1044e-05
1.23215e-05
1.33287e-05
1.26684e-05
1.16672e-05
1.0527e-05
9.25774e-06
8.20545e-06
7.33938e-06
6.49522e-06
5.54235e-06
4.43567e-06
3.14614e-06
6.74646e-06
1.05923e-05
1.23156e-05
1.40416e-05
1.58995e-05
1.7513e-05
2.01063e-05
2.28056e-05
5.82491e-05
5.65206e-05
5.14374e-05
4.5085e-05
1.91041e-05
1.73112e-05
1.51375e-05
1.37746e-05
1.24886e-05
1.05658e-05
8.10769e-06
4.90476e-06
8.03287e-06
1.23158e-05
1.4414e-05
1.6334e-05
1.79006e-05
1.88003e-05
2.00586e-05
2.67485e-05
0.000133603
0.000102908
9.51902e-05
9.37465e-05
2.14669e-05
1.8241e-05
1.70415e-05
1.6276e-05
1.5218e-05
1.31056e-05
1.03834e-05
6.29457e-06
9.15769e-06
1.44135e-05
1.6096e-05
1.80046e-05
1.94278e-05
1.99863e-05
2.10552e-05
3.57218e-05
0.000216919
0.000156483
0.000149139
0.00014171
2.58481e-05
1.98838e-05
1.89547e-05
1.82761e-05
1.69289e-05
1.47477e-05
1.20563e-05
1.14297e-05
1.77918e-05
1.60257e-05
1.69847e-05
1.83918e-05
2.05697e-05
2.16971e-05
2.35949e-05
5.02385e-05
0.000314428
0.000218967
0.000215842
0.000198442
3.27341e-05
2.16934e-05
2.00351e-05
1.81844e-05
1.57936e-05
1.53102e-05
1.86231e-05
2.65472e-05
3.66671e-05
2.48245e-05
1.86611e-05
1.72051e-05
1.98807e-05
2.27635e-05
2.684e-05
6.63431e-05
0.00040632
0.000288186
0.00029249
0.000252893
3.98941e-05
2.30531e-05
2.00591e-05
1.72292e-05
1.52729e-05
1.77894e-05
2.67486e-05
3.89167e-05
5.207e-05
3.5106e-05
2.39756e-05
2.12764e-05
2.42851e-05
2.90547e-05
3.5526e-05
8.21379e-05
0.000461953
0.000355665
0.000369377
0.000289978
5.24272e-05
3.01337e-05
2.54077e-05
2.10795e-05
1.8399e-05
2.21899e-05
3.55985e-05
4.96729e-05
6.57321e-05
6.07984e-05
3.90272e-05
3.87967e-05
4.38937e-05
4.77772e-05
5.14942e-05
9.22454e-05
0.000459853
0.00040377
0.000430919
0.000282178
6.3645e-05
4.61371e-05
4.35492e-05
3.87475e-05
3.28203e-05
3.17009e-05
5.78545e-05
5.9866e-05
7.97781e-05
8.386e-05
9.59593e-05
0.000128923
0.00015261
0.000158325
0.000163397
0.000223573
0.000418477
0.000424543
0.000445827
0.000303651
0.000175414
0.000146566
0.000148705
0.000137301
0.000111987
8.12694e-05
7.20629e-05
7.13206e-05
9.84393e-05
0.000120821
0.000140981
0.000163595
0.000189038
0.000217856
0.000254835
0.000308146
0.000380062
0.000399624
0.00040738
0.000337308
0.000271252
0.000226495
0.00019517
0.000169471
0.00014644
0.000126192
0.000108198
8.82767e-05
4.02932e-06
5.3255e-06
6.00569e-06
6.56889e-06
7.15572e-06
7.79698e-06
8.57305e-06
9.63401e-06
1.10018e-05
1.23114e-05
1.16672e-05
1.07634e-05
1.00771e-05
9.39004e-06
8.73114e-06
8.02743e-06
7.21242e-06
6.17463e-06
4.71275e-06
3.16582e-06
6.29525e-06
9.85572e-06
1.15968e-05
1.30221e-05
1.37985e-05
1.44679e-05
1.55984e-05
1.80213e-05
2.17129e-05
5.80875e-05
4.5085e-05
1.78464e-05
1.62704e-05
1.50565e-05
1.43365e-05
1.38067e-05
1.31498e-05
1.19066e-05
8.87525e-06
4.8741e-06
7.24292e-06
1.19711e-05
1.47376e-05
1.64809e-05
1.68662e-05
1.67245e-05
1.6724e-05
1.80948e-05
2.88265e-05
0.00012719
9.37465e-05
2.22482e-05
1.72243e-05
1.68432e-05
1.70467e-05
1.73387e-05
1.72008e-05
1.59577e-05
1.26748e-05
6.46461e-06
7.57355e-06
1.3789e-05
1.71569e-05
1.90612e-05
1.95849e-05
1.91544e-05
1.85243e-05
1.98301e-05
4.16486e-05
0.000198868
0.00014171
2.86227e-05
1.88258e-05
1.87535e-05
1.93033e-05
1.95154e-05
1.87333e-05
1.65207e-05
1.3533e-05
1.38505e-05
1.9735e-05
1.6127e-05
1.69375e-05
1.88058e-05
2.01814e-05
2.05475e-05
2.03613e-05
2.26899e-05
5.93819e-05
0.000279239
0.000198442
3.76625e-05
2.05975e-05
2.00504e-05
2.00286e-05
1.9321e-05
1.78709e-05
1.6978e-05
2.00876e-05
2.881e-05
3.87945e-05
2.59121e-05
1.90637e-05
1.81195e-05
1.93869e-05
2.04616e-05
2.10844e-05
2.50675e-05
7.76427e-05
0.000354287
0.000252893
4.6949e-05
2.17403e-05
2.02619e-05
1.96839e-05
1.85727e-05
1.75289e-05
1.93795e-05
2.87707e-05
4.10631e-05
5.40595e-05
3.73902e-05
2.50656e-05
2.19281e-05
2.29929e-05
2.48426e-05
2.6523e-05
3.24423e-05
9.5902e-05
0.000402361
0.000289978
6.145e-05
2.85302e-05
2.55467e-05
2.40868e-05
2.21312e-05
2.07517e-05
2.44925e-05
4.03665e-05
5.18742e-05
6.77602e-05
6.68834e-05
4.26647e-05
4.28318e-05
4.76745e-05
5.13424e-05
5.17888e-05
5.22584e-05
0.000105292
0.000389616
0.000282178
7.31739e-05
4.93279e-05
5.03234e-05
4.89652e-05
4.43879e-05
3.86589e-05
3.54306e-05
6.18451e-05
6.22904e-05
8.19926e-05
9.08759e-05
0.00011006
0.000146883
0.000180723
0.000200166
0.000197376
0.000182703
0.000224716
0.000366103
0.000303651
0.000184263
0.000172197
0.000189081
0.000185543
0.000162953
0.000130684
9.56755e-05
7.94942e-05
7.41756e-05
9.95077e-05
0.000121817
0.000142063
0.000163489
0.000187005
0.00021192
0.000239338
0.000272015
0.000313654
0.000357446
0.000337308
0.000286964
0.000248166
0.000218514
0.000193334
0.000170228
0.000148565
0.000129026
0.000110613
9.03743e-05
3.95275e-06
5.26331e-06
6.0449e-06
6.6508e-06
7.25828e-06
7.81553e-06
8.3512e-06
8.96637e-06
9.92773e-06
1.09911e-05
1.0527e-05
1.00771e-05
1.00477e-05
1.0021e-05
9.84087e-06
9.42868e-06
8.73031e-06
7.60122e-06
5.84498e-06
3.45305e-06
5.85044e-06
9.83598e-06
1.20198e-05
1.31336e-05
1.35549e-05
1.37907e-05
1.4229e-05
1.55611e-05
1.91161e-05
2.19978e-05
1.91041e-05
1.62704e-05
1.52729e-05
1.52437e-05
1.5554e-05
1.59318e-05
1.61425e-05
1.54764e-05
1.26883e-05
5.35783e-06
6.49419e-06
1.43005e-05
1.76468e-05
1.87952e-05
1.85292e-05
1.7614e-05
1.67964e-05
1.68383e-05
1.91446e-05