/*--------------------------------*- C++ -*----------------------------------*\
| =========                 |                                                 |
| \\      /  F ield         | OpenFOAM: The Open Source CFD Toolbox           |
|  \\    /   O peration     | Version:  v2012                                 |
|   \\  /    A nd           | Website:  www.openfoam.com                      |
|    \\/     M anipulation  |                                                 |
\*---------------------------------------------------------------------------*/
FoamFile
{
    version     2.0;
    format      ascii;
    class       surfaceScalarField;
    location    "1600";
    object      phi;
}
// * * * * * * * * * * * * * * * * * * * * * * * * * * * * * * * * * * * * * //

dimensions      [1 0 -1 0 0 0 0];
oriented        oriented;


internalField   nonuniform List<scalar> 
11200
(
0.000874702
-0.00174905
0.000874702
0.000658911
-0.000558407
0.000774362
-6.11679e-05
0.000377541
0.000342523
-0.000544455
0.000469995
1.32762e-05
-0.000534554
-2.20505e-05
1.2151e-05
-0.000206527
-0.000346806
1.87948e-05
5.22786e-05
-0.000227648
-3.11575e-05
0.000210762
-0.000151121
-7.37456e-06
0.000314092
-7.96249e-05
-2.37289e-05
0.000400028
-3.42302e-05
-5.17379e-05
0.000511253
-3.73363e-05
-7.39199e-05
0.000662802
-6.24697e-05
-8.91029e-05
0.000872561
-0.00011974
-9.00327e-05
0.00115456
-0.000191841
-9.01695e-05
0.00136752
-0.000164601
-4.83681e-05
0.00126969
0.000229471
-0.000131644
0.000918251
0.000542357
-0.00019092
0.000479397
0.000363344
7.54965e-05
-0.00052258
0.000715933
0.000285956
-0.00146939
0.000946753
0.00283609
-0.0074212
0.00283609
0.00419916
-0.00452968
0.00260824
0.00398042
-0.00154304
0.00213938
0.00239134
0.000513845
0.00154528
0.000140947
0.00109258
0.00113581
-0.000996116
0.000366944
0.000423323
-0.000878865
-0.000261502
-8.33871e-05
-0.000549896
-0.00025892
-0.000221164
-0.000140187
-0.000167942
-0.000321393
0.000291463
-9.4324e-05
-0.00037156
0.000662864
-5.38176e-05
-0.000354927
0.00092468
-5.00378e-05
-0.000274254
0.00101495
-6.43261e-05
-0.000145683
0.000743627
4.135e-05
3.81239e-05
-0.000802258
0.000674505
0.000706776
-0.00308454
0.00128103
0.00123073
-0.00474081
0.00069322
0.00150542
-0.00522459
-0.00111342
0.00196058
-0.00333554
-0.00340648
0.00223339
-0.00705719
0.00225225
0.00168906
-0.0107993
0.00168906
0.00288634
-0.00754701
0.00182005
0.00352261
-0.00384094
0.00166164
0.00332131
-0.000692998
0.00140816
0.00233192
0.000875969
0.00120602
0.000801747
0.000915346
0.000981781
-0.000458367
0.000333002
0.000665619
-0.000796839
7.0371e-06
7.25231e-05
-0.000464928
-0.00020269
-0.000297157
3.92356e-05
-8.30498e-05
-0.000515434
0.000469607
6.94429e-05
-0.000553631
0.000617842
0.000139137
-0.000337409
3.78065e-05
0.000316773
0.000198936
-0.0012906
0.000557823
0.000811937
-0.0026331
0.00104203
0.000974977
-0.00368343
0.00115773
0.00117362
-0.00400871
-0.00034858
0.00136709
-0.00350662
-0.0032086
0.00159308
-0.00202368
-0.00659478
0.00170535
-0.0106778
0.00159689
0.000837209
-0.0124738
0.000837209
0.00123702
-0.00926736
0.00132054
0.00162129
-0.00570333
0.00147812
0.00212568
-0.00273025
0.00153287
0.00234048
-0.000778648
0.00143982
0.00201529
-2.26156e-05
0.00126316
0.00117899
0.000129801
0.00103951
0.000239595
0.000186215
0.000760219
-0.000315251
0.000141841
0.000210321
-0.00022811
0.000263941
-0.000434127
4.2623e-05
0.000331311
-0.0005326
-0.000243873
0.000317719
0.000107911
-0.00104215
0.000312799
0.000802242
-0.00176832
0.00016023
0.00112376
-0.00204141
2.54808e-05
0.00128964
-0.00172647
-0.00061186
0.00145465
-0.00134305
-0.00234509
0.00161309
-0.00110524
-0.00504051
0.0015941
-0.000682873
-0.008434
0.00141684
-0.0124579
0.00109727
0.000278796
-0.0130314
0.000278798
-4.91915e-05
-0.0100297
0.00109034
-0.000315996
-0.00693676
0.00150023
-0.000271562
-0.00458546
0.00181078
-8.70309e-05
-0.00294981
0.00198663
1.15922e-05
-0.00204671
0.00192548
-9.18164e-05
-0.00148922
0.00172243
-0.000308291
-0.00107463
0.00147732
-0.000520821
-0.00078508
0.00113945
-0.000458124
-0.000570184
0.000771426
-4.49579e-05
-0.000824426
0.000742566
0.000243057
-0.00106865
0.00109835
0.000425229
-0.00134567
0.0014763
0.000583814
-0.00170743
0.00170907
0.000854962
-0.00215586
0.00191019
0.00109867
-0.00291132
0.00205575
0.00102697
-0.00427246
0.00199908
0.000664654
-0.00639274
0.00171453
0.000233686
-0.00936846
0.00136543
-0.0130264
0.000802191
-0.000139037
-0.0127533
-0.000139036
-0.000927828
-0.0101824
0.000941493
-0.00153975
-0.00774472
0.00141987
-0.00182785
-0.0060255
0.00172814
-0.00181101
-0.00487995
0.00191329
-0.00162508
-0.00414631
0.00191367
-0.00131575
-0.00361576
0.00181721
-0.000915002
-0.00318867
0.0017133
-0.000494935
-0.00283732
0.00163217
-2.58712e-05
-0.00260563
0.00156637
0.00064109
-0.00296956
0.00147816
0.00128703
-0.00327212
0.00155752
0.0018502
-0.00356956
0.00166071
0.00229104
-0.00389666
0.00174838
0.00258983
-0.00430026
0.0018456
0.00265312
-0.00489086
0.00191625
0.00237574
-0.00584464
0.00184955
0.00172667
-0.00737107
0.00162739
0.000773072
-0.00971591
0.00130104
-0.0128115
0.000558158
-0.000467458
-0.0118184
-0.000467456
-0.00157798
-0.00979201
0.000720111
-0.00241168
-0.0080255
0.00111447
-0.00281095
-0.00692375
0.0012975
-0.00279534
-0.00624964
0.00135408
-0.00247505
-0.00582448
0.00135788
-0.00193807
-0.00548839
0.00133564
-0.00124373
-0.00517467
0.00129165
-0.000489013
-0.00488224
0.00129019
0.000273328
-0.0046706
0.00130262
0.0010804
-0.00497679
0.00120015
0.00188105
-0.00525168
0.00117891
0.00261881
-0.00549161
0.00118429
0.00321981
-0.00570707
0.00120941
0.00360262
-0.00594518
0.0012621
0.00366463
-0.00627105
0.00131818
0.00329216
-0.0068144
0.00134223
0.00244467
-0.00778612
0.00126254
0.00114221
-0.00948118
0.00106773
-0.011884
0.00021475
-0.000921654
-0.00997507
-0.000921654
-0.0023125
-0.00846704
6.58682e-05
-0.00331346
-0.00738457
0.000360034
-0.00375725
-0.00680913
0.000329164
-0.0036734
-0.0064916
0.000158111
-0.00319979
-0.00632452
2.64313e-05
-0.00243575
-0.00619341
-5.90195e-05
-0.00150895
-0.00604847
-5.30082e-05
-0.00054
-0.00585935
8.15492e-06
0.000366041
-0.00567848
0.000101838
0.00129339
-0.00588029
-2.38486e-05
0.00228719
-0.00608949
-0.000155986
0.00323395
-0.00622862
-0.000209758
0.00401851
-0.00630781
-0.000183819
0.0045258
-0.0063701
-8.23609e-05
0.00463522
-0.00647343
9.29555e-05
0.00420314
-0.00671428
0.00033196
0.00318782
-0.00722451
0.0004537
0.00158045
-0.00829352
0.00041971
-0.0100057
-0.000297941
-0.00173788
-0.00649932
-0.00173788
-0.00344514
-0.00565995
-0.00109983
-0.00451104
-0.00524074
-0.00107794
-0.00491175
-0.00515003
-0.00125839
-0.00472962
-0.00518006
-0.00149368
-0.00410483
-0.00526937
-0.00167994
-0.00313354
-0.00534599
-0.00181872
-0.00193513
-0.00537069
-0.0018762
-0.000673656
-0.00530866
-0.00181216
0.000420469
-0.00518837
-0.00158424
0.00158558
-0.00529664
-0.00174876
0.00283915
-0.00540983
-0.00193323
0.0040079
-0.00542603
-0.00197135
0.00495983
-0.00535706
-0.00190268
0.00558012
-0.00524148
-0.00174892
0.00575576
-0.00512047
-0.0015286
0.0053543
-0.00505596
-0.00125687
0.00425388
-0.00512292
-0.00100117
0.00236115
-0.00553784
-0.000862953
-0.00648639
-0.00115813
-0.00324966
-0.00324966
-0.0053735
-0.00353612
-0.00642399
-0.00419025
-0.0067268
-0.00484721
-0.00642505
-0.00548182
-0.00562696
-0.00606747
-0.00441653
-0.00655642
-0.00287443
-0.0069128
-0.00110694
-0.00707615
0.000566019
-0.00686133
0.00222087
-0.0069515
0.00387909
-0.00706806
0.00532445
-0.00687139
0.0064601
-0.00649271
0.00720943
-0.00599081
0.00748116
-0.0053922
0.00715424
-0.00472903
0.00605617
-0.00402485
0.00378767
-0.00326934
-0.00269871
0.000774363
-0.000558408
0.000658912
0.000771114
6.52029e-06
0.000771114
0.000367822
0.000282543
0.000463257
3.90091e-05
0.000210086
0.000131979
6.40689e-05
-0.00018921
0.000176315
0.000296617
-0.000425575
0.000211841
0.000432812
-0.000289118
0.000121771
0.000471851
-0.000162369
0.000115946
0.000442289
-7.43186e-05
8.01306e-05
0.000396602
-3.66217e-05
3.05455e-05
0.00038693
-5.23771e-05
-1.18921e-05
0.000443364
-0.000118566
-2.69813e-05
0.000553824
-0.000187534
-1.29592e-05
0.000720918
-0.000270398
1.31367e-05
0.000781506
-0.000158171
4.92143e-05
0.000625633
0.000119179
-9.49545e-05
0.000317749
0.000291916
-0.000174952
0.00014114
0.00016662
8.54739e-05
-0.000229938
0.000615132
4.18408e-05
0.000522515
0.000194212
0.00260825
-0.00452968
0.00419916
0.00392579
-0.00262851
0.00392579
0.00374998
-0.000553175
0.00315097
0.0024318
0.000904036
0.00216957
0.000883269
0.00108287
0.0014123
-8.43495e-05
0.000276472
0.000688908
-0.000199678
-0.000339168
8.20032e-05
-2.07468e-05
-0.000440642
-0.000121817
0.000182116
-0.000296769
-0.000301804
0.000352805
-0.000183342
-0.000395534
0.000467233
-0.000131869
-0.000389867
0.000502077
-0.000173167
-0.000254502
0.000393521
-0.000228868
4.20636e-06
-0.000190241
-7.21159e-07
0.000352207
-0.00162075
0.000798056
0.00118106
-0.00341547
0.00132788
0.00181676
-0.00483376
0.000759151
0.0024565
-0.00516176
-0.000909766
0.00336501
-0.00355399
-0.00294161
0.00418239
-0.00527016
0.00449093
0.00182005
-0.00754701
0.00288634
0.00319089
-0.00537019
0.00319089
0.00382407
-0.00245754
0.00293283
0.00362992
8.0917e-05
0.00242544
0.0027597
0.00123307
0.00192605
0.0015045
0.00105525
0.00145821
0.000530237
0.000384665
0.000916058
3.36338e-05
-0.000164349
0.000292843
3.74751e-05
-0.000335675
-0.000262087
0.000163616
-0.000198079
-0.000626837
0.000183102
-2.33876e-05
-0.000681601
-0.000120771
7.82557e-05
-0.000284962
-0.000926123
0.00023932
0.000536098
-0.00204339
0.000709418
0.00121907
-0.00319145
0.00132982
0.00159127
-0.00415068
0.00152746
0.00193327
-0.00451985
0.000169019
0.00232639
-0.00400983
-0.00260873
0.00278201
-0.00248428
-0.00583316
0.00307136
-0.00902657
0.00286901
0.00132054
-0.00926736
0.00123702
0.00222395
-0.00717703
0.00222395
0.00287653
-0.00421522
0.00258322
0.0032337
-0.00123841
0.00249502
0.00309521
0.000596304
0.00221509
0.00251281
0.00102153
0.00187929
0.00164505
0.00082086
0.00147108
0.000786157
0.000532432
0.000922338
0.00019676
0.000309078
0.000154971
-5.65568e-05
0.000301491
-0.000680376
-0.000308764
0.000494037
-0.000797819
-0.000881274
0.000676389
8.22819e-05
-0.00165289
0.00082079
0.000992381
-0.00239296
0.0010392
0.00153405
-0.002926
0.00130685
0.00184565
-0.00305198
0.00103846
0.00206964
-0.00284155
-0.000718879
0.00229055
-0.00237146
-0.00391016
0.00242544
-0.00150819
-0.00750011
0.00222051
-0.0108513
0.00141375
0.00109034
-0.0100297
-4.91905e-05
0.001494
-0.00798435
0.001494
0.00157349
-0.00508474
0.00229026
0.00171527
-0.00217694
0.00260753
0.00179031
-0.000121372
0.00262926
0.00152166
0.000797579
0.00241808
0.000984072
0.00101068
0.0020702
0.000337969
0.0010362
0.00161965
-0.000207691
0.00101579
0.000978396
-0.000337667
0.00101781
0.000185085
-0.000257388
0.001087
6.93167e-05
-0.000411635
0.00116522
0.000763759
-0.000756827
0.00115424
0.00148804
-0.00108765
0.00111719
0.0019619
-0.00121595
0.00104303
0.00230232
-0.00108668
0.000423658
0.00254127
-0.00100212
-0.00142908
0.00262472
-0.00112293
-0.00448392
0.0024091
-0.000924244
-0.00814316
0.00180979
-0.0114538
0.000480527
0.000941492
-0.0101824
-0.000927828
0.000968618
-0.00803861
0.000968619
0.000619468
-0.00531645
0.00200073
0.00032979
-0.00265476
0.00249564
0.000251747
-0.000817489
0.00268745
0.000181974
0.000215433
0.00256558
-4.52726e-05
0.000776085
0.00227904
-0.000269863
0.00103781
0.00193628
-0.000359524
0.00116963
0.00156799
-0.000183491
0.00122596
0.00118218
0.000125892
0.00118393
0.00107185
0.000324576
0.00111481
0.00140924
0.000364383
0.000962634
0.0018125
0.000333404
0.000754372
0.00214217
0.000359588
0.000415894
0.00244655
0.000400077
-0.000392566
0.00269198
0.000198149
-0.00205201
0.0026744
-0.00029561
-0.0046857
0.00232293
-0.000553265
-0.0080892
0.00150472
-0.0112713
-0.000177646
0.000720112
-0.00979201
-0.00157798
0.000433704
-0.0074658
0.000433704
-0.000171074
-0.00511737
0.00152017
-0.000517794
-0.00305496
0.00204442
-0.000655607
-0.00157442
0.00224882
-0.000641251
-0.000636884
0.00219584
-0.00057473
-1.46849e-05
0.00205989
-0.000476331
0.000357861
0.0018732
-0.000309715
0.000600145
0.00169305
4.52195e-06
0.000707747
0.0015066
0.000362939
0.000601396
0.00142426
0.000727823
0.000356343
0.00157249
0.00101526
0.000112247
0.00174724
0.00124607
-0.000176283
0.00190924
0.00138069
-0.000547834
0.0020912
0.00132968
-0.00129026
0.00226688
0.00098891
-0.002667
0.00229799
0.000354553
-0.00470528
0.00191648
-0.000173095
-0.00754221
0.00104839
-0.010454
-0.00077569
6.5868e-05
-0.00846704
-0.0023125
-0.000452136
-0.00642979
-0.000452136
-0.00118145
-0.0045707
0.000542672
-0.00154157
-0.00327744
0.000911769
-0.00161559
-0.00236109
0.0010188
-0.00145979
-0.00174782
0.000981561
-0.00110327
-0.0013487
0.000918471
-0.000687108
-0.00104881
0.000937497
-0.000267887
-0.000817541
0.00100662
0.000179494
-0.000674014
0.00103621
0.000652905
-0.000780578
0.000884711
0.00121335
-0.00107039
0.000710299
0.00175839
-0.00129233
0.000649782
0.00218104
-0.00148402
0.000701258
0.00240468
-0.00172149
0.000867653
0.00234794
-0.00219724
0.00105667
0.00197624
-0.0030717
0.00110836
0.00124608
-0.00440074
0.000879327
0.000380264
-0.00642954
0.000172852
-0.00883409
-0.00153755
-0.00109983
-0.00565995
-0.00344514
-0.00222442
-0.00418061
-0.00222442
-0.00302303
-0.00321671
-0.00163333
-0.00333957
-0.00269705
-0.00152225
-0.0031779
-0.00239285
-0.00162359
-0.00273564
-0.00224016
-0.00162986
-0.00206126
-0.00211929
-0.00172252
-0.00122666
-0.00197865
-0.00178096
-0.000383328
-0.00177855
-0.0016945
0.000323267
-0.00150058
-0.00146427
0.00112405
-0.00164471
-0.00168542
0.00197317
-0.00192507
-0.00192767
0.00276704
-0.0020765
-0.00198106
0.00343691
-0.00216158
-0.00189498
0.00390059
-0.00222788
-0.00170621
0.00405754
-0.00233948
-0.00154331
0.00374518
-0.00261009
-0.00140612
0.00286799
-0.00313683
-0.0013879
0.00147727
-0.0041652
-0.00173658
-0.00580787
-0.00270707
-0.00353612
-0.0053735
-0.00562642
-0.00562642
-0.00664113
-0.00639226
-0.00692181
-0.00726359
-0.00663812
-0.00815836
-0.00589719
-0.00904858
-0.004763
-0.00980991
-0.00327623
-0.0103782
-0.00146145
-0.0106695
0.000622598
-0.010446
0.00257329
-0.0105469
0.0042153
-0.0106351
0.00555549
-0.0102881
0.00657388
-0.00967268
0.00723754
-0.00888235
0.0074725
-0.00796663
0.00714855
-0.00701518
0.00606228
-0.0060754
0.0038142
-0.00518646
-0.00469239
0.000342524
0.00037754
-6.11673e-05
0.000463258
0.000282543
0.000367822
0.000377088
0.000172327
0.000377088
0.000282773
-6.77884e-05
0.000294085
0.000408824
-0.000324257
0.000374535
0.00070244
-0.00054584
0.000464086
0.000787056
-0.000367494
0.00040466
0.000723628
-0.00020464
0.000384014
0.000563581
-0.000103675
0.000343838
0.000369794
-6.35367e-05
0.00028785
0.000221579
-9.67763e-05
0.000233087
0.000166886
-0.000188023
0.000215738
0.000196221
-0.000256531
0.000214248
0.000321736
-0.000327312
0.000214943
0.000388563
-0.00020385
0.00018624
0.00024585
3.89116e-05
8.84149e-06
-5.57218e-05
0.000204424
-7.78099e-05
-0.000127897
8.96693e-05
6.79749e-05
-6.83576e-05
-1.53926e-05
-2.3222e-06
0.000402802
-0.000277023
0.00213938
-0.00154305
0.00398042
0.00315097
-0.000553176
0.00374998
0.00292184
0.000630649
0.00292184
0.00189337
0.00121789
0.00191242
0.000849067
0.000908472
0.0012239
0.000267251
7.36228e-05
0.000651275
0.000228512
-0.000491057
0.000244315
0.000359119
-0.000533205
7.6148e-05
0.000415257
-0.000368224
-9.33917e-05
0.000397427
-0.000225822
-0.000215421
0.000315778
-0.000181862
-0.000223138
0.000174012
-0.000254134
-4.66259e-05
1.28699e-05
-0.000328731
0.000237549
-0.000502736
-6.02815e-05
0.000600783
-0.00156939
0.00076286
0.00128101
-0.00303781
0.00138686
0.00193724
-0.00423362
0.00106238
0.00279437
-0.00444817
-0.000265213
0.00393448
-0.00319594
-0.00200665
0.00492146
-0.00363973
0.00533755
0.00166164
-0.00384095
0.00352261
0.00293283
-0.00245755
0.00382407
0.00355185
-0.000607379
0.00355185
0.00334963
0.000953633
0.00289193
0.00259552
0.00137192
0.00221673
0.00155456
0.000994817
0.00157799
0.000755584
0.000251981
0.000972013
0.000397529
-0.000300528
0.000418229
0.000305595
-0.000458156
-8.02157e-05
0.000219083
-0.000295235
-0.000470911
-4.99055e-06
-0.000121388
-0.000518003
-0.0004774
-5.74403e-05
-9.25024e-06
-0.00119952
0.000149783
0.0007797
-0.00220676
0.000714431
0.0014516
-0.00322951
0.00142409
0.00195279
-0.0040614
0.00174073
0.00241129
-0.00439941
0.000773775
0.00295301
-0.00386479
-0.00154354
0.00352571
-0.00238199
-0.00420089
0.0037828
-0.00650747
0.00335477
0.00147812
-0.00570334
0.0016213
0.00258322
-0.00421522
0.00287653
0.00338316
-0.00220726
0.00338316
0.00367862
-6.15509e-05
0.00321475
0.0033407
0.00117757
0.00274737
0.00265775
0.00132007
0.00223699
0.00177293
0.000920346
0.00168754
0.000944136
0.000425007
0.00102561
0.000342661
6.83098e-05
0.000229985
-3.22012e-05
-5.68648e-05
-0.000543882
-0.000474328
0.000139123
-0.000616206
-0.00114689
0.000434947
0.000262451
-0.00196606
0.000751827
0.00120951
-0.00276758
0.0012308
0.0018192
-0.00345303
0.00173443
0.00222075
-0.00380141
0.00162269
0.00253607
-0.00363485
9.31415e-05
0.00280462
-0.00294165
-0.00271988
0.00290858
-0.00177839
-0.0056135
0.00246986
-0.00808344
0.00121132
0.00150023
-0.00693676
-0.000315995
0.00229026
-0.00508474
0.00157349
0.00271898
-0.00306472
0.00271898
0.00295133
-0.000814049
0.00312768
0.00285742
0.000866727
0.00303402
0.00238663
0.00149852
0.00271042
0.00168035
0.00142774
0.00226908
0.000869171
0.00114395
0.00171189
0.000158813
0.000862995
0.000894068
-0.000205446
0.000648218
-0.000155738
-0.000433794
0.000744603
-0.000307819
-0.00092131
0.00104316
0.000643057
-0.00154735
0.00131401
0.00155189
-0.00213172
0.00164523
0.00213183
-0.00251819
0.00191044
0.00251278
-0.0026062
0.00149318
0.00275878
-0.00244532
-0.000296647
0.00285363
-0.00216452
-0.00316528
0.00257369
-0.00144075
-0.00617215
0.00164467
-0.0088242
-0.000219472
0.00141987
-0.00774472
-0.00153975
0.00200073
-0.00531645
0.000619468
0.00207685
-0.00321697
0.00207685
0.00196196
-0.000993234
0.00278971
0.00180786
0.000691156
0.00301712
0.00147606
0.00153136
0.00286455
0.000969837
0.00168806
0.00252494
0.000404479
0.00158399
0.0020616
-4.80587e-05
0.00142828
0.00145524
-0.000218496
0.00131205
0.000688784
-0.000213102
0.00132239
0.00048866
-0.000386381
0.00147863
0.00114704
-0.000717739
0.00163846
0.00181941
-0.00104961
0.00182115
0.00229811
-0.00125784
0.00191274
0.00265246
-0.00132728
0.00137103
0.00288357
-0.00141825
-0.000388306
0.00285702
-0.00152359
-0.00308808
0.00235107
-0.00116772
-0.00613778
0.00111449
-0.00909994
-0.00106963
0.00111447
-0.0080255
-0.00241168
0.00152017
-0.00511737
-0.000171073
0.0014207
-0.00301803
0.0014207
0.00114504
-0.000922326
0.00224916
0.000879972
0.000631615
0.00257343
0.000669871
0.0013754
0.0025619
0.000432699
0.00159796
0.00238715
0.000169376
0.00159869
0.00212181
-4.54192e-05
0.00154612
0.00179001
-0.000111379
0.00150929
0.00137531
-3.74028e-05
0.00146704
0.00120564
-1.32033e-05
0.00150914
0.00151777
-6.55938e-05
0.00157968
0.00185841
-0.000138541
0.0016636
0.00213974
-0.00019035
0.00165542
0.00240033
-0.000287396
0.00113547
0.00259948
-0.000547812
-0.000370429
0.00254052
-0.000872755
-0.00277018
0.00192352
-0.00079107
-0.00565105
0.000479966
-0.00890737
-0.00175933
0.000360034
-0.00738457
-0.00331346
0.000542673
-0.0045707
-0.00118145
0.000259233
-0.00245115
0.000259233
7.30232e-05
-0.000887624
0.00106327
3.65933e-05
0.000157937
0.0015289
8.63897e-06
0.000840563
0.00154435
1.11364e-05
0.00104583
0.0014681
4.0682e-05
0.00111816
0.00138848
5.67662e-05
0.00120431
0.00133234
3.31148e-05
0.00135694
0.00121221
0.000120018
0.00124825
0.00101659
0.000309738
0.00102792
0.00100179
0.000478173
0.000977975
0.00108305
0.000612862
0.00100254
0.00122762
0.000722857
0.000978061
0.00143501
0.00077416
0.000529012
0.00161182
0.000586566
-0.000576248
0.00150177
9.11601e-05
-0.00225613
0.000860678
2.62415e-05
-0.00483229
-0.000580989
-0.00782413
-0.00259454
-0.00107794
-0.00524074
-0.00451104
-0.00163333
-0.00321671
-0.00302303
-0.00190132
-0.00191517
-0.00190132
-0.00189031
-0.00112033
-0.00130055
-0.00150418
-0.000546386
-0.0013054
-0.000977951
-0.000129899
-0.00118563
-0.000518393
5.46179e-05
-0.00119087
-0.000167747
0.000215599
-0.00122905
8.00793e-05
0.000428186
-0.00116621
0.00023277
0.000772896
-0.00103292
0.000432677
0.000613556
-0.00125063
0.000700337
0.000268632
-0.00143605
0.00105209
8.64556e-05
-0.00144129
0.00150011
-2.57566e-05
-0.0013147
0.00202804
-0.000113302
-0.00114279
0.00249362
-0.000415588
-0.00106429
0.00254566
-0.000997568
-0.00103684
0.00222021
-0.00183588
-0.0014827
0.0013613
-0.00325267
-0.00245729
-0.00538886
-0.00378105
-0.00419025
-0.00642399
-0.00639226
-0.00664113
-0.00734984
-0.00734984
-0.00752685
-0.00820692
-0.0071698
-0.0090618
-0.00636221
-0.00998607
-0.00520996
-0.0109075
-0.00367993
-0.0116927
-0.00173906
-0.0121822
0.000652493
-0.0120646
0.00285231
-0.0121332
0.00457959
-0.0120938
0.00590687
-0.0115289
0.0068894
-0.010681
0.00758952
-0.00969577
0.00791171
-0.00870441
0.00769835
-0.00779939
0.0066916
-0.00690453
0.00436273
-0.00611027
-0.00571851
1.32764e-05
0.000469995
-0.000544454
0.00013198
0.000210086
3.90093e-05
0.000294085
-6.77883e-05
0.000282773
0.000424639
-0.0002611
0.00042464
0.000705237
-0.000525454
0.000619413
0.000993959
-0.000588242
0.000763629
0.00104871
-0.000402111
0.000752041
0.000914588
-0.000235725
0.00075386
0.000641412
-0.000125131
0.000742135
0.000297684
-8.61889e-05
0.000717754
6.88725e-06
-0.000132545
0.000656422
-0.000149036
-0.000234937
0.000606608
-0.000162142
-0.000307346
0.000534719
-3.11432e-05
-0.000362011
0.000445973
0.000100504
-0.000291395
0.000345992
6.39727e-05
-9.21275e-05
0.000137501
-8.56106e-05
9.75674e-05
-2.58007e-05
-0.000152906
0.000153307
-1.8043e-05
-0.000115331
5.88779e-05
-9.87795e-05
8.82758e-05
-0.000480641
0.00154528
0.000513844
0.00239134
0.00216957
0.000904036
0.00243181
0.00191242
0.00121789
0.00189337
0.00124237
0.00107903
0.00124237
0.000671729
0.000433469
0.000835636
0.0004621
-0.000299311
0.000571986
0.000553746
-0.000676727
0.000427297
0.000633479
-0.000592823
0.000353521
0.000579328
-0.00040453
0.000240159
0.000406308
-0.00025858
0.000129988
0.00015313
-0.000222945
0.000120438
-9.8332e-05
-0.000315175
0.000285075
-0.000251374
-0.000418842
0.000502089
-0.000514125
-0.000222134
0.00072366
-0.00114967
0.00049586
0.0011293
-0.00222155
0.00130611
0.0016109
-0.0031588
0.00142593
0.00240328
-0.00336388
0.000806667
0.00348623
-0.00240537
-0.000400056
0.00442192
-0.00160414
0.00462463
0.00140815
-0.000692998
0.00332131
0.00242544
8.0916e-05
0.00362992
0.00289193
0.000953633
0.00334963
0.00272891
0.00140508
0.00272891
0.00209474
0.00124099
0.00204339
0.00131041
0.000656706
0.00140631
0.000755526
-5.46666e-05
0.00090485
0.000556844
-0.000505357
0.000529452
0.00044284
-0.000543348
0.000172612
0.000237284
-0.000369571
-0.000154362
-0.000141447
-0.000199479
-0.00016274
-0.000615485
-0.000173981
0.00032359
-0.00119345
-8.40354e-07
0.000939656
-0.00200776
0.000531663
0.00151211
-0.00288428
0.0012864
0.00203877
-0.00354409
0.00182648
0.00255073
-0.00380969
0.00150733
0.00313721
-0.00328789
6.17038e-05
0.00374888
-0.00202459
-0.0017987
0.00391813
-0.003658
0.00338404
0.00153287
-0.00273025
0.00212568
0.00249502
-0.00123841
0.0032337
0.00321475
-6.1551e-05
0.00367862
0.0034199
0.000994784
0.0034199
0.00309563
0.00142937
0.00288328
0.00244744
0.00123694
0.00230495
0.00164601
0.00073036
0.00170395
0.000926371
0.000167295
0.0010726
0.000402687
-0.000192317
0.000402643
-2.36854e-05
-0.000249514
-0.000237565
-0.000574454
-3.46407e-05
-0.000230279
-0.0012752
0.000226423
0.000562783
-0.00204305
0.000575545
0.00140097
-0.00281969
0.00113071
0.00199679
-0.0034988
0.00174696
0.00243931
-0.00387101
0.00189928
0.00283548
-0.00371494
0.00100222
0.00315365
-0.00300096
-0.000931748
0.00318804
-0.00182604
-0.00304342
0.00253966
-0.00526679
0.000994071
0.00181078
-0.00458546
-0.000271562
0.00260753
-0.00217694
0.00171527
0.00312768
-0.000814049
0.00295133
0.00337043
0.00050929
0.00337043
0.00321089
0.00139697
0.00322595
0.00270741
0.00160274
0.00284811
0.00200017
0.00132525
0.00238143
0.00119119
0.000898396
0.00178977
0.0004697
0.000482261
0.000940987
-0.000113725
0.00020385
-2.56758e-05
-0.000681201
0.000325661
-0.000100648
-0.00134105
0.000695416
0.000833908
-0.0020462
0.00112267
0.00170991
-0.0027101
0.00163908
0.00228736
-0.00319783
0.00207662
0.00267085
-0.00337342
0.00192041
0.00291323
-0.00314022
0.00067449
0.00294817
-0.00258936
-0.00142175
0.00251282
-0.00166913
-0.00361249
0.0012935
-0.00650505
-0.000650349
0.00172814
-0.0060255
-0.00182785
0.00249564
-0.00265476
0.000329791
0.00278971
-0.000993233
0.00196196
0.00284693
0.000394841
0.00284693
0.00269108
0.00144858
0.00312136
0.00229723
0.00185816
0.00300298
0.00170823
0.0017619
0.00267729
0.00101621
0.00145755
0.00219447
0.000337377
0.00111637
0.00149996
-0.000157699
0.000821273
0.000566436
-0.000535423
0.000824977
0.000367064
-0.00103177
0.00116592
0.00117289
-0.00156651
0.00155118
0.00192562
-0.00203331
0.00197665
0.00242734
-0.00233629
0.00229002
0.00274203
-0.00242346
0.00201343
0.00287772
-0.00232285
0.000712776
0.00271812
-0.00206125
-0.00135774
0.00202547
-0.00139136
-0.00376907
0.000601172
-0.00741732
-0.00154872
0.0012975
-0.00692375
-0.00281095
0.00204442
-0.00305496
-0.000517794
0.00224916
-0.000922327
0.00114504
0.0021264
0.000640361
0.0021264
0.00196845
0.00154107
0.00263889
0.00172437
0.00191707
0.00274707
0.00137139
0.00187644
0.00262559
0.000910176
0.00168233
0.00235825
0.000390827
0.00147851
0.00194721
-9.02545e-05
0.00131285
0.00136482
-0.000450573
0.00125323
0.0011377
-0.000783723
0.00142027
0.00159656
-0.00107105
0.00166522
0.00203169
-0.00127312
0.00197915
0.0023393
-0.00135976
0.0022356
0.00254139
-0.00136265
0.00201719
0.00259861
-0.00142027
0.000965537
0.00234538
-0.00137301
-0.00105301
0.00157152
-0.000906199
-0.00370374
-5.21769e-05
-0.00780664
-0.00227622
0.000329164
-0.00680913
-0.00375725
0.000911769
-0.00327744
-0.00154157
0.00106327
-0.000887625
7.3023e-05
0.00107843
0.000610051
0.00107843
0.00106998
0.00143812
0.0016403
0.00104832
0.00165985
0.00182323
0.000974459
0.00160068
0.00181771
0.000808463
0.00150434
0.00173247
0.000523829
0.00148582
0.00160966
5.28943e-05
0.00160622
0.00138976
-0.000331747
0.00148867
0.00116578
-0.000491701
0.00131489
0.00126712
-0.000543636
0.0013745
0.0014257
-0.000504786
0.00156983
0.00159808
-0.000373188
0.00179301
0.00174599
-0.000244302
0.00171894
0.00178118
-0.000178951
0.000904773
0.00149718
-0.000245503
-0.000809326
0.000683538
7.30231e-05
-0.00353031
-0.00107294
-0.00722513
-0.00310303
-0.00125839
-0.00515002
-0.00491175
-0.00152225
-0.00269705
-0.00333957
-0.00130055
-0.00112033
-0.00189031
-0.000984023
-2.30035e-05
-0.000984023
-0.000616896
0.000441356
-0.00067577
-0.000184403
0.000619967
-0.000578244
0.000155415
0.000708513
-0.000638521
0.000356363
0.000837288
-0.000762948
0.000400833
0.00109324
-0.000818096
0.000234678
0.00155224
-0.000812783
0.000143362
0.00136403
-0.00103468
0.000159642
0.000907983
-0.00104542
0.000313866
0.00070328
-0.000924298
0.000622372
0.000624693
-0.000678074
0.00111166
0.000614042
-0.000453119
0.00162348
0.000521391
-0.000378567
0.00196234
0.00010134
-0.000572264
0.00206359
-0.00102902
-0.00136425
0.00152092
-0.00271954
-0.0027254
-0.0052634
-0.00422185
-0.00484721
-0.0067268
-0.00726359
-0.00692181
-0.00820692
-0.00752685
-0.00821843
-0.00821843
-0.00775683
-0.00908204
-0.00698096
-0.010142
-0.00587908
-0.0113009
-0.00432383
-0.0124106
-0.00217463
-0.0132381
0.000702238
-0.0133893
0.00330522
-0.0133721
0.00516305
-0.0130436
0.00646529
-0.0121279
0.0073659
-0.0109569
0.00801175
-0.00972759
0.0084196
-0.00859086
0.0083985
-0.00767695
0.00744869
-0.00698373
0.00495497
-0.00633608
-0.00602694
1.21512e-05
-2.20501e-05
-0.000534554
0.000176315
-0.00018921
6.40689e-05
0.000374534
-0.000324257
0.000408824
0.000619413
-0.000525454
0.000705237
0.000949969
-0.000661083
0.000949969
0.00119397
-0.000557925
0.00107758
0.00122498
-0.000392292
0.00111334
0.00105056
-0.000245098
0.00117338
0.000685009
-0.000143939
0.00125162
0.000174745
-0.000111934
0.00133994
-0.000267173
-0.000174377
0.00127272
-0.000484405
-0.00028032
0.00110418
-0.000508021
-0.000336678
0.000895036
-0.00036628
-0.000391174
0.000695428
-0.000136601
-0.000399292
0.000515617
-2.59237e-05
-0.000226374
0.0002532
-2.22782e-05
-4.43996e-05
1.49488e-05
2.26501e-06
0.000108101
-0.00015069
4.53111e-05
0.000197646
-0.00033947
0.000359184
-0.000794508
0.00113581
0.00109258
0.000140948
0.0014123
0.00108287
0.000883269
0.0012239
0.000908472
0.000849067
0.000835636
0.000433469
0.000671729
0.000598811
-0.000187419
0.000598812
0.000649204
-0.000666334
0.000630016
0.00077877
-0.000763127
0.000668576
0.000811756
-0.000608258
0.000683702
0.000667521
-0.000419763
0.000660222
0.000357405
-0.000290597
0.000618766
-4.01152e-05
-0.000267693
0.000611273
-0.00036056
-0.000360502
0.000685705
-0.000466075
-0.000478999
0.000749931
-0.000499679
-0.000419481
0.000785576
-0.000752484
7.70343e-05
0.000905779
-0.00136128
0.000884072
0.00110926
-0.00202121
0.00145514
0.00156368
-0.00222795
0.00146911
0.00233198
-0.00164851
0.00106702
0.00297312
0.000424671
0.00291066
0.00120602
0.00087597
0.00233192
0.00192605
0.00123307
0.0027597
0.00221673
0.00137192
0.00259552
0.00204339
0.00124099
0.00209474
0.00154992
0.000799551
0.00154992
0.00103783
0.000144385
0.00110769
0.000748566
-0.000414509
0.000845508
0.000648499
-0.000659342
0.000680611
0.000511683
-0.000599847
0.000489516
0.000209948
-0.000428471
0.00028525
-0.000254507
-0.000271412
0.000305432
-0.000686719
-0.000266873
0.000662171
-0.00110667
-0.000178111
0.00105872
-0.00168857
0.00024474
0.00142978
-0.00235749
0.000949088
0.00183564
-0.00285167
0.00160385
0.00232512
-0.00298957
0.00187361
0.00285664
-0.00259008
0.00146866
0.00334984
-0.00162952
0.000507368
0.00351723
-0.000866029
0.00304522
0.00143982
-0.000778646
0.00234048
0.00221509
0.000596303
0.00309521
0.00274737
0.00117757
0.0033407
0.00288328
0.00142937
0.00309563
0.00261545
0.00133521
0.00261545
0.00205037
0.000948681
0.00206575
0.00139902
0.000394322
0.00154648
0.000840502
-0.000113908