/*--------------------------------*- C++ -*----------------------------------*\
| =========                 |                                                 |
| \\      /  F ield         | OpenFOAM: The Open Source CFD Toolbox           |
|  \\    /   O peration     | Version:  v2012                                 |
|   \\  /    A nd           | Website:  www.openfoam.com                      |
|    \\/     M anipulation  |                                                 |
\*---------------------------------------------------------------------------*/
FoamFile
{
    version     2.0;
    format      ascii;
    class       volVectorField;
    location    "1600";
    object      U;
}
// * * * * * * * * * * * * * * * * * * * * * * * * * * * * * * * * * * * * * //

dimensions      [0 1 -1 0 0 0 0];


internalField   nonuniform List<vector> 
4000
(
(0.00243733 0.00990284 0.00243733)
(0.00327303 0.00943881 0.00200357)
(0.00107419 0.0061216 0.000595574)
(-0.00143976 0.000825286 -8.71911e-05)
(-0.0020539 -0.00319852 -0.000138332)
(-0.00150762 -0.00147737 -0.000230583)
(-0.000102102 -0.000419315 -0.00026865)
(0.000470983 -0.000573645 -0.000182367)
(0.000941155 -0.000506764 -0.000207128)
(0.00125783 -0.000308682 -0.000252342)
(0.00160914 -0.000325061 -0.000285497)
(0.00203045 -0.000459275 -0.000308365)
(0.00264599 -0.000511015 -0.000329996)
(0.00348435 -0.000486926 -0.000371022)
(0.00448354 -0.00137587 -0.000269139)
(0.00479759 -0.00189695 -0.00034017)
(0.00362239 0.000699886 -0.000432666)
(0.00323659 0.00383429 0.000173276)
(-5.83483e-05 0.0120301 0.00143119)
(-0.0039995 0.00548706 0.00361733)
(0.00590832 -0.0214307 0.00590832)
(0.0123598 -0.0124777 0.00595077)
(0.0152223 -0.00276117 0.00534653)
(0.0123048 0.00288719 0.00420121)
(0.00569964 0.00319354 0.00329118)
(-0.00451655 -0.000735896 0.000381972)
(-0.00305842 -0.00142947 -0.000598173)
(-0.00271907 -0.000571174 -0.00101403)
(-0.00121059 -0.00011064 -0.00119227)
(0.000253741 2.76713e-05 -0.00128484)
(0.00173318 7.97501e-05 -0.00120147)
(0.00276908 0.000133301 -0.000986521)
(0.00349945 -0.000179637 -0.000743024)
(0.00361359 -0.000931845 -0.000367)
(0.00207143 0.000501093 0.00119916)
(-0.00795255 0.00389236 0.00302094)
(-0.0151036 0.00349767 0.00357263)
(-0.0186618 -0.000585158 0.00443779)
(-0.0148287 -0.00654944 0.00482319)
(-0.00662708 -0.0178379 0.0047001)
(0.00308668 -0.033131 0.00308668)
(0.0078867 -0.0218969 0.0036607)
(0.0109608 -0.00974563 0.00364311)
(0.0130815 0.000180155 0.00342851)
(0.0107017 0.003994 0.0031382)
(0.00584079 0.00331656 0.00251744)
(9.63569e-05 -7.8826e-05 0.00153825)
(-0.00347429 -0.00139772 -0.000486577)
(-0.00215918 -0.0012301 -0.00115433)
(-0.000903124 -0.000753466 -0.00167775)
(0.00112922 -0.000521071 -0.00180425)
(0.00193833 -0.000590051 -0.00127537)
(0.00261901 -0.000353145 -0.000307156)
(-0.00232968 0.00125339 0.00192343)
(-0.0067687 0.00378144 0.00241722)
(-0.0118201 0.00453355 0.00295179)
(-0.0148376 0.000806109 0.00330311)
(-0.0130868 -0.00849113 0.00360327)
(-0.00966965 -0.0192771 0.00360826)
(-0.00299683 -0.0327261 0.00336253)
(0.00146103 -0.0412078 0.00146104)
(0.00389494 -0.0299286 0.00254121)
(0.00426012 -0.0170806 0.00300616)
(0.00638509 -0.00570346 0.00356414)
(0.00855826 0.00146997 0.00368957)
(0.00808952 0.00325948 0.00333586)
(0.00580235 0.00256136 0.00286671)
(0.00270142 0.00149474 0.00220129)
(-0.000931913 8.50855e-05 0.000665843)
(-0.00131929 0.000282717 -0.00116149)
(-0.000226127 0.00111242 -0.00153583)
(0.000466018 0.0017647 0.000308706)
(-0.00211088 0.00278005 0.00218201)
(-0.00516972 0.00306254 0.00312015)
(-0.0071019 0.00388023 0.0034961)
(-0.00752265 0.00281563 0.00388305)
(-0.00503778 -0.00380851 0.0040623)
(-0.00373169 -0.0144816 0.00349276)
(-0.00346835 -0.0267654 0.00292421)
(-0.000479223 -0.0410325 0.00247975)
(0.000481143 -0.0447639 0.000481148)
(0.00107769 -0.03392 0.0019342)
(-0.00136973 -0.0220228 0.00260095)
(-0.00108913 -0.012723 0.00355528)
(-0.000662309 -0.0065099 0.00448698)
(5.93225e-05 -0.00335309 0.00473086)
(3.83738e-05 -0.00144419 0.00443715)
(-0.000591432 7.09388e-05 0.0040184)
(-0.00154527 0.00111131 0.00345007)
(-0.00201482 0.00184 0.00284292)
(-0.000948211 0.00149266 0.00276386)
(0.000558491 0.000751792 0.00336591)
(0.00112931 -0.000248471 0.00397085)
(0.00165075 -0.00175537 0.00432747)
(0.0024009 -0.00359585 0.00463555)
(0.00348572 -0.00651204 0.0046904)
(0.00380554 -0.0115638 0.00409676)
(0.00356392 -0.0198106 0.00315505)
(0.00096839 -0.0311224 0.00250408)
(0.00111799 -0.0447024 0.00190046)
(-0.000310187 -0.0452494 -0.000310183)
(-0.00101988 -0.0354034 0.00132344)
(-0.00501751 -0.0258541 0.00166798)
(-0.00601411 -0.0188914 0.0021198)
(-0.00648699 -0.0142032 0.00243711)
(-0.00603376 -0.0112433 0.0025444)
(-0.00513989 -0.00914451 0.00255698)
(-0.00387341 -0.00748329 0.00265666)
(-0.00237803 -0.00618748 0.0028792)
(-0.00115957 -0.0053817 0.00310616)
(0.00105495 -0.00678745 0.00256008)
(0.00331581 -0.00788501 0.00235433)
(0.00546339 -0.00903556 0.00223521)
(0.00723258 -0.0103092 0.00217836)
(0.00855287 -0.0118535 0.00220504)
(0.00927 -0.0141903 0.00223951)
(0.00893142 -0.0181162 0.00219068)
(0.00779408 -0.024314 0.001952)
(0.00380529 -0.033511 0.00183949)
(0.00227047 -0.0452906 0.00133726)
(-0.00125145 -0.0431054 -0.00125145)
(-0.00273741 -0.0352418 0.000350264)
(-0.00767835 -0.0281062 7.52907e-05)
(-0.00935203 -0.0234074 -0.000186687)
(-0.00997257 -0.020423 -0.000557334)
(-0.0092974 -0.018519 -0.00093623)
(-0.00774398 -0.0170844 -0.00123887)
(-0.00555162 -0.0158181 -0.00134335)
(-0.00293021 -0.0146772 -0.00120958)
(-0.000513678 -0.0138817 -0.00091084)
(0.00244015 -0.015102 -0.00146697)
(0.0050517 -0.0161456 -0.00171884)
(0.00782516 -0.0170716 -0.00178063)
(0.0102048 -0.0179648 -0.00164223)
(0.0119749 -0.0190058 -0.00132294)
(0.0128454 -0.0204925 -0.000861104)
(0.0123704 -0.0229422 -0.000337483)
(0.0106819 -0.0270908 0.000131369)
(0.00570395 -0.0339399 0.000693339)
(0.00328179 -0.0433445 0.000495482)
(-0.00270778 -0.0376932 -0.00270778)
(-0.00493627 -0.0319997 -0.00140102)
(-0.0105388 -0.0274995 -0.00222117)
(-0.0126362 -0.0250023 -0.00307473)
(-0.0131654 -0.0236408 -0.00394377)
(-0.0121051 -0.0229129 -0.00475734)
(-0.00988727 -0.0223334 -0.00541798)
(-0.00689288 -0.0217704 -0.00587642)
(-0.00345834 -0.0211389 -0.00605138)
(-0.000435441 -0.0205241 -0.00576553)
(0.00301137 -0.0213275 -0.00614073)
(0.00611258 -0.0219503 -0.00616428)
(0.0096009 -0.0223972 -0.005961)
(0.0126665 -0.0227152 -0.00554799)
(0.0149803 -0.023065 -0.00495817)
(0.0161569 -0.0235916 -0.00416844)
(0.0157011 -0.0246496 -0.00323447)
(0.0135779 -0.0268517 -0.00223925)
(0.00787119 -0.0312191 -0.00116374)
(0.00468464 -0.0378688 -0.000985269)
(-0.00524689 -0.0281544 -0.00524689)
(-0.00867884 -0.0243093 -0.00475372)
(-0.0145831 -0.0221405 -0.0058769)
(-0.0167403 -0.0213762 -0.00711515)
(-0.0169928 -0.0212263 -0.00828847)
(-0.0155012 -0.0214148 -0.0092775)
(-0.0126793 -0.0216335 -0.0100708)
(-0.00886583 -0.0217138 -0.0106062)
(-0.00445822 -0.0215462 -0.0107571)
(-0.000638735 -0.0212654 -0.0102588)
(0.00375148 -0.0216057 -0.0106273)
(0.00760063 -0.0219885 -0.0108895)
(0.0119152 -0.0220185 -0.0106822)
(0.0156502 -0.0217623 -0.0101495)
(0.0184314 -0.0213718 -0.00937136)
(0.0199095 -0.0210407 -0.00836854)
(0.0196552 -0.0210506 -0.00715229)
(0.0174312 -0.0217198 -0.00579308)
(0.0114032 -0.0239042 -0.0043368)
(0.00712252 -0.0281974 -0.00360521)
(-0.00939466 -0.0173767 -0.00939466)
(-0.0152994 -0.0138185 -0.0107308)
(-0.0212056 -0.0120712 -0.0129893)
(-0.0231858 -0.0113624 -0.0151467)
(-0.0230581 -0.0109705 -0.0172078)
(-0.021065 -0.0106666 -0.0190927)
(-0.0175333 -0.0102659 -0.0206722)
(-0.0127288 -0.00969176 -0.0218562)
(-0.00698776 -0.00889283 -0.0224641)
(-0.00137002 -0.00807638 -0.0218472)
(0.00547186 -0.00860599 -0.0221057)
(0.0105819 -0.00939995 -0.0223533)
(0.0160031 -0.0100572 -0.0216821)
(0.0205264 -0.0105089 -0.0204741)
(0.0238402 -0.0107942 -0.0188983)
(0.0257 -0.0109872 -0.0170135)
(0.0257454 -0.0112583 -0.0149017)
(0.0236447 -0.0118672 -0.0126323)
(0.0175589 -0.0135596 -0.010095)
(0.0110891 -0.0173386 -0.00776305)
(0.00200357 0.0094388 0.00327303)
(0.0029831 0.00687049 0.0029831)
(0.00226482 0.00255115 0.00159368)
(0.000329321 -0.00136084 0.000165229)
(-2.69933e-05 -0.00369447 0.000220982)
(0.000496886 -0.00216066 0.000361256)
(0.00134687 -0.000414848 3.89294e-05)
(0.00161761 -9.28436e-05 0.000111383)
(0.00160875 -4.20696e-05 1.29801e-05)
(0.00147822 -6.10053e-06 -0.000139897)
(0.00136611 -7.42149e-05 -0.000257618)
(0.00142477 -0.000233575 -0.000313351)
(0.00169305 -0.000312217 -0.00029121)
(0.0022151 -0.000512403 -0.000252514)
(0.00267905 -0.00198874 -5.34094e-05)
(0.00267051 -0.0026435 -0.000492902)
(0.00144493 -0.000720061 -0.000783594)
(0.000957622 0.00205915 0.000315714)
(0.00020519 0.0106744 0.000582369)
(-0.00212852 0.0151635 0.00247022)
(0.00595077 -0.0124777 0.0123598)
(0.0116373 -0.0064148 0.0116373)
(0.0142321 0.000146576 0.00956347)
(0.0117316 0.00329927 0.0067862)
(0.00621351 0.00278258 0.00467029)
(3.01354e-05 -0.000848227 0.00235562)
(-0.00077343 -0.0019826 -1.55924e-05)
(-0.0004893 -0.00124436 -0.000582156)
(0.000301297 -0.000578094 -0.00115952)
(0.000956808 -0.000301579 -0.00142906)
(0.00145785 -0.000312455 -0.00138431)
(0.0017512 -0.000546533 -0.000993917)
(0.00167694 -0.00107236 -0.000296396)
(0.00120875 -0.00158416 0.000645897)
(-0.00229172 0.00116593 0.00355578)
(-0.00931795 0.00378979 0.00539985)
(-0.0156106 0.00322784 0.00702973)
(-0.0186409 -0.000362099 0.0093494)
(-0.0150927 -0.0053649 0.0111156)
(-0.00792849 -0.0118479 0.01186)
(0.0036607 -0.0218969 0.0078867)
(0.00878425 -0.0142917 0.00878424)
(0.0123288 -0.00503465 0.00814521)
(0.0138705 0.00249071 0.00681176)
(0.0115943 0.004619 0.00552823)
(0.00769187 0.00310071 0.0043257)
(0.00314498 3.20946e-05 0.00290076)
(0.000370196 -0.00186408 0.00091216)
(-0.00011804 -0.00159959 -0.00101883)
(0.000337227 -0.000874757 -0.00211892)
(0.00071653 -0.000507748 -0.00227578)
(0.000550091 -0.000690976 -0.00121326)
(-0.00129683 -0.000465751 0.00154081)
(-0.0052011 0.00160847 0.00356216)
(-0.00897523 0.00414581 0.00450543)
(-0.0133102 0.0050287 0.0054469)
(-0.0162779 0.00151247 0.00651538)
(-0.0150691 -0.00700844 0.00780542)
(-0.0114052 -0.0169597 0.00861246)
(-0.00469478 -0.0270868 0.00809409)
(0.00254121 -0.0299286 0.00389495)
(0.00656947 -0.0226234 0.00656947)
(0.00843192 -0.0123579 0.00743511)
(0.0107725 -0.00218888 0.00719168)
(0.0116597 0.00351607 0.00636994)
(0.0100614 0.00423557 0.00547394)
(0.00739185 0.00281142 0.00438343)
(0.0042642 0.000958467 0.00295597)
(0.00129712 -0.000535094 0.000646016)
(-1.16695e-05 -0.000643954 -0.00208774)
(-0.000412643 0.000290346 -0.00246444)
(-0.00176166 0.00128766 0.000300891)
(-0.00429905 0.00232901 0.00313529)
(-0.00714355 0.00366162 0.00460533)
(-0.00947804 0.00530661 0.00544068)
(-0.011114 0.00501129 0.00613541)
(-0.0105115 -0.000740561 0.00696416)
(-0.00864275 -0.0117738 0.00749969)
(-0.00714514 -0.0239144 0.00706378)
(-0.00260998 -0.0353951 0.00514632)
(0.0019342 -0.03392 0.00107769)
(0.00537922 -0.0267844 0.00537923)
(0.00488434 -0.0165764 0.00741352)
(0.00546633 -0.0062754 0.00826865)
(0.0063949 0.000758135 0.00835069)
(0.00610205 0.00317673 0.00773747)
(0.00456168 0.00337667 0.00674614)
(0.00238914 0.00319387 0.00553045)
(-1.41653e-05 0.00305948 0.00382348)
(-0.00133825 0.00310438 0.00195174)
(-0.000957509 0.00359068 0.00175919)
(-0.000922126 0.0039607 0.00349035)
(-0.00198168 0.00393896 0.00538957)
(-0.00329684 0.0040375 0.00662188)
(-0.00426003 0.00416386 0.00760772)
(-0.00440744 0.00256664 0.00842011)
(-0.00332275 -0.00384948 0.00873497)
(-0.00321352 -0.0148009 0.00809106)
(-0.0043933 -0.0275482 0.00668281)
(-0.00141155 -0.0391878 0.00336523)
(0.00132344 -0.0354034 -0.00101988)
(0.00464483 -0.0282315 0.00464483)
(0.00225797 -0.0184434 0.00729906)
(0.00163204 -0.0086821 0.0085931)
(0.000720161 -0.00172649 0.00925458)
(0.00102773 0.00205763 0.00902194)
(0.000320216 0.00341519 0.0083151)
(-0.000595139 0.00408184 0.00750819)
(-0.00118982 0.00439394 0.00676031)
(-0.00119293 0.0045331 0.00611089)
(-9.57888e-05 0.00447763 0.00599539)
(0.000903227 0.00436676 0.00668135)
(0.00125424 0.00391649 0.00747969)
(0.00121674 0.00339546 0.00815847)
(0.00101239 0.00270027 0.00885089)
(0.00140111 0.000161794 0.00941121)
(0.00118984 -0.00606936 0.00919653)
(0.00042495 -0.0161146 0.00826436)
(-0.00266253 -0.0285964 0.0064433)
(-0.000521361 -0.0399077 0.00198207)
(0.000350266 -0.0352418 -0.0027374)
(0.00368311 -0.0275966 0.00368311)
(-0.000242483 -0.0185972 0.00640978)
(-0.00121282 -0.0102197 0.00762197)
(-0.0022118 -0.00449758 0.00817891)
(-0.00230219 -0.000995221 0.00841466)
(-0.00200851 0.00108523 0.00846906)
(-0.00184343 0.00205781 0.008227)
(-0.00138965 0.00251635 0.00802472)
(-0.000664744 0.00268701 0.00778825)
(0.000685865 0.00247274 0.00770215)
(0.00189418 0.00223424 0.0078792)
(0.00302857 0.00176414 0.00803636)
(0.00390746 0.0010039 0.00812353)
(0.00455296 -0.000394588 0.00821858)
(0.00487481 -0.00332074 0.00824371)
(0.00413066 -0.00862448 0.00806169)
(0.00315077 -0.0166349 0.00728499)
(-0.00111376 -0.0276272 0.00557707)
(0.000499671 -0.0381986 0.000407612)
(-0.00140102 -0.0319997 -0.00493628)
(0.00131276 -0.0244199 0.00131276)
(-0.00378394 -0.0172667 0.00362129)
(-0.0048888 -0.0114772 0.00422093)
(-0.00559935 -0.00688482 0.00416503)
(-0.00536294 -0.00351773 0.00421473)
(-0.0044764 -0.0011127 0.00429279)
(-0.00306556 0.000845989 0.0048109)
(-0.00158281 0.0023335 0.00543564)
(-0.000241077 0.00307978 0.00579651)
(0.0014251 0.0024657 0.00532727)
(0.00316967 0.000748315 0.00424215)
(0.00515996 -0.000733669 0.00353458)
(0.00688195 -0.00202438 0.00335419)
(0.00798599 -0.00344885 0.00368355)
(0.00832971 -0.00599728 0.00411928)
(0.00770438 -0.0103507 0.0044046)
(0.00638963 -0.0163253 0.004187)
(0.00144543 -0.0245976 0.00298505)
(0.00226094 -0.0335893 -0.00193689)
(-0.00475372 -0.0243093 -0.00867883)
(-0.00471741 -0.0185845 -0.00471741)
(-0.00981478 -0.0144388 -0.00353723)
(-0.011302 -0.0122059 -0.00381064)
(-0.0114863 -0.0109739 -0.00460345)
(-0.0103503 -0.0104994 -0.00525499)
(-0.00837173 -0.0103544 -0.00570771)
(-0.00572663 -0.0102932 -0.00574706)
(-0.00270575 -0.0101503 -0.00522012)
(-0.00024753 -0.00982617 -0.00400924)
(0.00267244 -0.0100266 -0.0048736)
(0.00532632 -0.0105044 -0.00595391)
(0.00822322 -0.0105172 -0.00634091)
(0.0107883 -0.0103573 -0.00621231)
(0.0127901 -0.0102728 -0.0056487)
(0.0139587 -0.0105975 -0.00477449)
(0.013813 -0.0117495 -0.00373486)
(0.0121888 -0.0140665 -0.00300808)
(0.00677772 -0.0185272 -0.00329036)
(0.00557641 -0.0250707 -0.00605961)
(-0.0107308 -0.0138185 -0.0152994)
(-0.0161238 -0.00849418 -0.0161238)
(-0.0220684 -0.00553627 -0.0187012)
(-0.0238896 -0.00389832 -0.0215459)
(-0.0237563 -0.00276822 -0.024391)
(-0.0219161 -0.00184036 -0.0270877)
(-0.0186458 -0.00083661 -0.0293441)
(-0.0140963 0.000311189 -0.0310097)
(-0.00838935 0.00166117 -0.0318435)
(-0.00215381 0.0031298 -0.0311042)
(0.00644141 0.00240679 -0.0314071)
(0.0118435 0.00103357 -0.0317176)
(0.017066 -0.000180114 -0.030737)
(0.0211624 -0.00122571 -0.0289628)
(0.0240806 -0.00211733 -0.0266514)
(0.0257153 -0.00291864 -0.0239018)
(0.0257138 -0.00391661 -0.0209055)
(0.0237125 -0.00548584 -0.0178266)
(0.0174858 -0.00850033 -0.0147942)
(0.0114693 -0.0141288 -0.012971)
(0.000595575 0.0061216 0.00107419)
(0.00159369 0.00255115 0.00226482)
(0.0016397 -0.00106329 0.0016397)
(0.000911217 -0.00370872 0.000763843)
(0.00114277 -0.00363428 0.000988625)
(0.00180201 -0.00239597 0.00116642)
(0.00270814 -0.000726445 0.000839485)
(0.00268418 -0.000132117 0.000731901)
(0.00229136 4.94395e-06 0.00057887)
(0.00165983 2.74139e-06 0.000374439)
(0.00101024 -0.000126825 0.000200963)
(0.000612437 -0.000349911 0.000157731)
(0.000544989 -0.000409653 0.000224539)
(0.000872896 -0.000719569 0.000349038)
(0.00129485 -0.00210456 0.000400032)
(0.00132833 -0.00319214 -0.000180719)
(0.000287848 -0.00181145 -0.00038759)
(-0.000710087 -6.89472e-05 0.000292191)
(-3.20657e-05 0.0037389 -0.000219122)
(-0.000535208 0.0113843 -0.000790984)
(0.00534653 -0.00276117 0.0152223)
(0.00956348 0.000146574 0.0142321)
(0.0113412 0.0027731 0.0113412)
(0.00910641 0.00353134 0.0077587)
(0.00475071 0.00179614 0.00497909)
(0.000944308 -0.00172867 0.00249894)
(0.000717449 -0.0022908 0.000614285)
(0.000935074 -0.00153958 -0.000181379)
(0.00137702 -0.00083833 -0.000812646)
(0.00145964 -0.000476711 -0.00120188)
(0.00128483 -0.000503817 -0.00121649)
(0.000906026 -0.000875194 -0.000685346)
(0.000362043 -0.00151857 0.000335857)
(-0.000230218 -0.00180841 0.0017686)
(-0.00290727 0.000968225 0.00455108)
(-0.00831108 0.00365445 0.00692795)
(-0.0135271 0.00365095 0.00962281)
(-0.0161603 0.00104941 0.0132244)
(-0.0136123 -0.0035542 0.0161826)
(-0.00748055 -0.00783152 0.0169071)
(0.00364311 -0.00974564 0.0109608)
(0.00814521 -0.00503466 0.0123288)
(0.0116495 0.00089505 0.0116495)
(0.0125491 0.00456803 0.00960858)
(0.0106298 0.00469284 0.00748555)
(0.00749927 0.00246038 0.00555064)
(0.00364576 -0.000634451 0.00345759)
(0.00157871 -0.00211586 0.00124953)
(0.0010733 -0.00184434 -0.000670441)
(0.000919448 -0.00111999 -0.00203887)
(0.000524988 -0.000725737 -0.00224802)
(-0.000547793 -0.000935008 -0.000626134)
(-0.00253028 -0.000647297 0.00233926)
(-0.00601266 0.00150701 0.00477854)
(-0.00936687 0.0042398 0.00631043)
(-0.013 0.0056417 0.007763)
(-0.0155668 0.00325734 0.00939716)
(-0.0148003 -0.00345358 0.0110312)
(-0.0110569 -0.0118468 0.0118288)
(-0.00491461 -0.0194148 0.0105281)
(0.00300615 -0.0170806 0.00426012)
(0.00743511 -0.0123579 0.00843192)
(0.0102051 -0.00557024 0.0102051)
(0.0126209 0.00159288 0.0100083)
(0.0126193 0.00468819 0.00877625)
(0.0106701 0.00439094 0.00730014)
(0.00786437 0.00250014 0.00561781)
(0.00467785 0.000280067 0.00347285)
(0.00191999 -0.00115601 0.000548789)
(0.000382472 -0.001001 -0.0023146)
(-0.000627876 -0.000179598 -0.00270138)
(-0.00260305 0.000557272 0.000378924)
(-0.0053779 0.00178119 0.00384488)
(-0.00829757 0.00364669 0.00588727)
(-0.0109804 0.0057641 0.00714167)
(-0.0130826 0.00598484 0.00808397)
(-0.013442 0.00147054 0.00891216)
(-0.0112133 -0.00787061 0.00928667)
(-0.00863624 -0.0176805 0.00801683)
(-0.00329396 -0.0259748 0.00413007)
(0.00260095 -0.0220228 -0.00136973)
(0.00741352 -0.0165764 0.00488434)
(0.0085534 -0.00974269 0.0085534)
(0.0097514 -0.00212742 0.0100097)
(0.0104255 0.00324637 0.0099579)
(0.00942132 0.00478942 0.00903517)
(0.00725179 0.00409266 0.00764734)
(0.00449471 0.00285125 0.00585288)
(0.00158578 0.00169923 0.0032212)
(-0.000397602 0.000656832 -0.00047215)
(-0.00100636 0.00116572 -0.00113659)
(-0.00213185 0.00261322 0.00215013)
(-0.00425937 0.00370893 0.00527326)
(-0.00648996 0.00507099 0.00720259)
(-0.00833802 0.00627893 0.00849386)
(-0.0093121 0.00522604 0.00937878)
(-0.00871214 -0.000749401 0.00974335)
(-0.00772467 -0.0106178 0.00880292)
(-0.00717625 -0.0208441 0.00587044)
(-0.00220898 -0.0295875 -0.000141437)
(0.00166798 -0.0258541 -0.0050175)
(0.00729906 -0.0184434 0.00225797)
(0.00697243 -0.0113223 0.00697243)
(0.00696084 -0.00349343 0.00935342)
(0.00654156 0.00267257 0.0102084)
(0.00594681 0.00544232 0.00970198)
(0.00440149 0.00574991 0.00852982)
(0.00239857 0.00524912 0.00700343)
(0.000453315 0.00463347 0.00515013)
(-0.000760253 0.0042049 0.00301353)
(-0.000709027 0.00435383 0.00240508)
(-0.000853006 0.00495544 0.00419437)
(-0.00185327 0.00553399 0.00627133)
(-0.0031194 0.00626991 0.00784548)
(-0.0042344 0.00678717 0.00912983)
(-0.00463104 0.00504309 0.0100763)
(-0.00459467 -0.00121356 0.0100574)
(-0.00478528 -0.0111444 0.00830708)
(-0.00612228 -0.0217089 0.00430959)
(-0.00105891 -0.0313723 -0.00302444)
(7.52948e-05 -0.0281062 -0.00767835)
(0.00640978 -0.0185972 -0.00024248)
(0.00485116 -0.0111385 0.00485116)
(0.00449835 -0.00375889 0.0076134)
(0.00348787 0.00152915 0.00874474)
(0.00275564 0.00443238 0.00844151)
(0.00198662 0.00514721 0.00762939)
(0.00103166 0.00487112 0.00663415)
(0.000131363 0.0043703 0.00558521)
(-0.000452777 0.00404153 0.00445856)
(-0.000279017 0.00395995 0.00396979)
(-1.37819e-05 0.00439336 0.00483527)
(-8.31177e-05 0.00495853 0.00588689)
(-0.000352968 0.00556817 0.0068633)
(-0.000655001 0.00578428 0.00790487)
(-0.000769651 0.00387959 0.00885925)
(-0.00143475 -0.00181071 0.00890082)
(-0.00193199 -0.0105007 0.00673068)
(-0.00477417 -0.0209882 0.00223759)
(0.000462418 -0.0318815 -0.0053009)
(-0.00222118 -0.0274995 -0.0105388)
(0.00362129 -0.0172667 -0.00378394)
(0.000885694 -0.00957428 0.000885695)
(0.000567179 -0.00204421 0.00319945)
(0.000128229 0.00367362 0.00440593)
(8.65412e-05 0.00626893 0.00418979)
(6.40224e-06 0.00729906 0.00371054)
(7.82934e-05 0.00773451 0.00337652)
(0.000223966 0.00795307 0.00328304)
(9.77268e-05 0.00800024 0.00310328)
(0.000164099 0.00780144 0.00243545)
(0.000713961 0.00768059 0.00217194)
(0.00137714 0.0075003 0.00237397)
(0.00188913 0.00728366 0.00291181)
(0.00227433 0.00680138 0.00379629)
(0.00258634 0.00483897 0.00466269)
(0.00232478 -0.000319546 0.00447064)
(0.00213341 -0.00847393 0.002745)
(-0.00187268 -0.0185318 -0.00142971)
(0.00266372 -0.0296161 -0.00806016)
(-0.0058769 -0.0221405 -0.0145831)
(-0.00353723 -0.0144388 -0.00981478)
(-0.00679566 -0.00894615 -0.00679566)
(-0.00663181 -0.00560725 -0.00568924)
(-0.00600001 -0.00341174 -0.0054245)
(-0.0040746 -0.00243717 -0.00445709)
(-0.00248015 -0.00241339 -0.00429703)
(-0.0011642 -0.00257321 -0.00443352)
(-2.1758e-05 -0.00236882 -0.00423427)
(0.000513527 -0.00145849 -0.00385717)
(0.00113205 -0.00191338 -0.00446769)
(0.0018995 -0.00312458 -0.00508444)
(0.00299036 -0.00311301 -0.00518824)
(0.00435035 -0.00256007 -0.00492187)
(0.00592231 -0.0020242 -0.0044979)
(0.00777277 -0.00253437 -0.00461577)
(0.00888069 -0.0048349 -0.00496579)
(0.00896555 -0.00847967 -0.005663)
(0.00526691 -0.0146181 -0.00798089)
(0.00637814 -0.022894 -0.0120686)
(-0.0129893 -0.0120712 -0.0212056)
(-0.0187012 -0.00553626 -0.0220684)
(-0.0246859 -0.00209301 -0.0246859)
(-0.0261425 -0.000133689 -0.0277472)
(-0.0256377 0.00126931 -0.0308195)
(-0.0235986 0.00248106 -0.033901)
(-0.0202527 0.0038251 -0.0367044)
(-0.0156344 0.00534206 -0.0388722)
(-0.00965963 0.00711675 -0.0400211)
(-0.00277775 0.00907636 -0.0391968)
(0.00719222 0.00821188 -0.0395915)
(0.0130536 0.00643098 -0.0399244)
(0.0183717 0.00480541 -0.0385326)
(0.0223473 0.00335864 -0.0361287)
(0.0251842 0.00210627 -0.0331308)
(0.0269785 0.00102922 -0.0298813)
(0.0273794 -0.00025456 -0.0266264)
(0.0258144 -0.00215789 -0.0233691)
(0.0196149 -0.00568936 -0.020384)
(0.013433 -0.0123763 -0.0188156)
(-8.71902e-05 0.000825286 -0.00143975)
(0.00016523 -0.00136084 0.000329323)
(0.000763843 -0.00370872 0.000911217)
(0.00125314 -0.00389059 0.00125315)
(0.00187444 -0.00326036 0.00173032)
(0.002854 -0.0021268 0.00208933)
(0.00367624 -0.000820973 0.00197812)
(0.00350787 -0.000218178 0.00193016)
(0.00280207 -2.35796e-05 0.00181041)
(0.00170227 -1.53877e-05 0.00163285)
(0.000475369 -0.00018971 0.00143033)
(-0.000411645 -0.000457329 0.00136971)
(-0.000654319 -0.000523581 0.0012916)
(-0.000427424 -0.000736917 0.00116272)
(0.000237589 -0.00184242 0.000933171)
(0.000402892 -0.00335269 0.000246438)
(-8.99209e-06 -0.00308584 -0.000163597)
(-0.000599433 -0.0016199 0.00015595)
(-0.000444529 0.000138513 0.000131991)
(-0.000354748 0.00349883 -0.00149549)
(0.00420121 0.00288719 0.0123049)
(0.0067862 0.00329928 0.0117316)
(0.0077587 0.00353134 0.00910641)
(0.00585063 0.00249186 0.00585063)
(0.00303069 -0.000212274 0.0036625)
(0.00144444 -0.00249225 0.00209637)
(0.0016861 -0.00244635 0.00116521)
(0.00204 -0.00168126 0.00072158)
(0.00216791 -0.000958877 0.000176365)
(0.00179592 -0.000596187 -0.000296239)
(0.00104264 -0.000660297 -0.000335251)
(2.39395e-05 -0.00107988 0.000352307)
(-0.000650856 -0.00175986 0.00131723)
(-0.00106269 -0.00206375 0.00238045)
(-0.00220088 -1.8393e-05 0.00435966)
(-0.00591004 0.00298049 0.00656972)
(-0.00996295 0.00406801 0.00964248)
(-0.0121095 0.00309096 0.0136975)
(-0.0105235 0.000571362 0.0173381)
(-0.0063269 -0.0025629 0.0185294)
(0.00342851 0.000180151 0.0130815)
(0.00681176 0.00249071 0.0138705)
(0.00960858 0.00456803 0.0125491)
(0.0101252 0.00509853 0.0101252)
(0.00866915 0.00359874 0.00770992)
(0.00607194 0.000872089 0.00543251)
(0.00322127 -0.0018144 0.00331267)
(0.00204013 -0.00251966 0.0016452)
(0.00167322 -0.00199339 0.000126195)
(0.00125441 -0.00127213 -0.00117859)
(0.000325985 -0.00092181 -0.00128964)
(-0.00122805 -0.00119019 0.000572621)
(-0.00280183 -0.00114284 0.00302159)
(-0.00560934 0.000735252 0.00528996)
(-0.00855195 0.00360891 0.00711218)
(-0.0113155 0.0058292 0.00887189)
(-0.0133075 0.005452 0.010963)
(-0.012853 0.00188493 0.013076)
(-0.00950735 -0.00411669 0.0135955)
(-0.00457641 -0.010026 0.0116939)
(0.00356414 -0.00570346 0.0063851)
(0.00719168 -0.00218888 0.0107725)
(0.0100083 0.00159288 0.0126209)
(0.0118323 0.00446913 0.0118323)
(0.0116374 0.00502047 0.0100496)
(0.00984673 0.00370817 0.00809907)
(0.007283 0.00154054 0.00608084)
(0.00433286 -0.000700162 0.00369967)
(0.00205566 -0.00162096 0.00108638)
(0.000667456 -0.00119651 -0.00142824)
(-0.000844369 -0.000380191 -0.00154521)
(-0.00304808 5.39906e-05 0.00145025)
(-0.0057574 0.00115483 0.00458712)
(-0.00851915 0.00310289 0.006718)
(-0.0111429 0.00548577 0.00822395)
(-0.0131212 0.00665241 0.00947429)
(-0.0136066 0.00442491 0.0104649)
(-0.0117628 -0.00168259 0.0105195)
(-0.00874657 -0.00878896 0.00851042)
(-0.00358994 -0.0156279 0.00371651)
(0.00355529 -0.012723 -0.00108913)
(0.00826865 -0.0062754 0.00546633)
(0.0100097 -0.00212742 0.0097514)
(0.0113801 0.00214859 0.0113801)
(0.0116947 0.00469468 0.0110182)
(0.0105269 0.00487986 0.00978211)
(0.00833195 0.00358933 0.00816001)
(0.0056075 0.00191362 0.00612963)
(0.00274175 0.000254648 0.0031273)
(0.000563055 -0.000741163 -0.00055257)
(-0.00138754 4.44217e-05 -0.000951204)
(-0.00342091 0.00142951 0.00243414)
(-0.0058639 0.00295354 0.00562637)
(-0.00835443 0.00483464 0.00769453)
(-0.0104837 0.00655238 0.00904786)
(-0.0117333 0.0063696 0.00989945)
(-0.0114767 0.00244076 0.0100899)
(-0.00990482 -0.00458666 0.0087807)
(-0.00823032 -0.0118659 0.00507948)
(-0.0025411 -0.0203962 -0.00162417)
(0.0021198 -0.0188914 -0.00601411)
(0.00859311 -0.0086821 0.00163204)
(0.00935342 -0.00349343 0.00696084)
(0.00982132 0.0012997 0.00982132)
(0.00971482 0.00487347 0.0107198)
(0.00885872 0.00616418 0.0102318)
(0.0070972 0.00568804 0.00902632)
(0.00477936 0.0045583 0.00731437)
(0.00227197 0.00338291 0.00495192)
(0.000152452 0.00238999 0.00180841)
(-0.00122971 0.00250455 0.000991734)
(-0.00262642 0.0037174 0.00372774)
(-0.00448686 0.0050274 0.00634673)
(-0.00632093 0.00653349 0.00814504)
(-0.00778855 0.0077018 0.0093731)
(-0.0084638 0.00678993 0.0100601)
(-0.00821095 0.00221222 0.00977453)
(-0.00755061 -0.00516711 0.00768488)
(-0.00744711 -0.0131504 0.0029647)
(-0.000985437 -0.0246343 -0.00474448)
(-0.000186689 -0.0234074 -0.00935203)
(0.00762197 -0.0102197 -0.00121282)
(0.0076134 -0.00375889 0.00449835)
(0.00768222 0.00103599 0.00768221)
(0.00714622 0.00456169 0.00911257)
(0.00648434 0.00610063 0.00919872)
(0.00544462 0.00587518 0.00858179)
(0.00399595 0.00484097 0.0075738)
(0.00226254 0.00364348 0.00621127)
(0.000461457 0.00264621 0.00441805)
(-0.0010749 0.00254116 0.00371748)
(-0.00212938 0.00363099 0.00507116)
(-0.00321139 0.00503088 0.00649477)
(-0.00410233 0.00655809 0.00762278)
(-0.00468511 0.00763697 0.00854568)
(-0.00479872 0.00666969 0.00911416)
(-0.00481825 0.00233446 0.00867335)
(-0.00463588 -0.00462126 0.00623569)
(-0.00591247 -0.0133595 0.000672851)
(0.00102611 -0.0272397 -0.0073016)
(-0.00307473 -0.0250023 -0.0126362)
(0.00422093 -0.0114772 -0.0048888)
(0.00319945 -0.00204421 0.000567177)
(0.00398248 0.0041427 0.00398248)
(0.00373696 0.00703666 0.00564108)
(0.00371831 0.00819346 0.00593316)
(0.00354146 0.00832719 0.0057434)
(0.00312969 0.00820411 0.00541725)
(0.0024156 0.00807856 0.00506424)
(0.00109148 0.00792126 0.00443534)
(-0.000711125 0.00759849 0.00375296)
(-0.0015189 0.00771076 0.00394637)
(-0.00182902 0.007918 0.0043816)
(-0.00185436 0.0083588 0.00495384)
(-0.00159555 0.00880663 0.00562088)
(-0.00100577 0.00812728 0.00608305)
(-0.000966481 0.00505644 0.00558236)
(-1.08901e-05 -0.00203219 0.0028238)
(-0.00240501 -0.0128651 -0.0029848)
(0.0035862 -0.0270111 -0.0102677)
(-0.00711515 -0.0213762 -0.0167403)
(-0.00381064 -0.0122059 -0.011302)
(-0.00568924 -0.00560725 -0.00663181)
(-0.00331992 -0.00141467 -0.00331992)
(-0.00277504 0.000843079 -0.00280164)
(-0.00133884 0.000978816 -0.00281803)
(8.89395e-06 0.000232117 -0.00309147)
(0.000945961 -0.000493172 -0.0033501)
(0.0014518 -0.000631411 -0.00330202)
(0.0011442 0.000275105 -0.00304705)
(0.000569758 -9.75267e-05 -0.00382355)
(0.00043666 -0.00130218 -0.00422866)
(0.00074044 -0.000966015 -0.00404158)
(0.00154875 8.78468e-05 -0.00336591)
(0.00291109 0.00137284 -0.00257157)
(0.00473599 0.00177927 -0.00199752)
(0.00562969 -0.000364622 -0.00202627)
(0.00768944 -0.00492908 -0.00486814)
(0.00539585 -0.0122247 -0.00919932)
(0.0075804 -0.0219764 -0.0142733)
(-0.0151467 -0.0113624 -0.0231858)
(-0.0215459 -0.00389833 -0.0238896)
(-0.0277472 -0.000133689 -0.0261425)
(-0.0287626 0.00200926 -0.0287626)
(-0.0277157 0.00354333 -0.0314844)
(-0.0256454 0.0049168 -0.0347982)
(-0.0225208 0.00650753 -0.0383532)
(-0.0180153 0.00842292 -0.0416006)
(-0.01168 0.0107039 -0.0437849)
(-0.00374443 0.0133171 -0.0437473)
(0.00840785 0.0122033 -0.0438726)
(0.0149972 0.00987862 -0.0433565)
(0.0204378 0.00776297 -0.0408722)
(0.0241785 0.00591423 -0.0374017)
(0.0267059 0.00439095 -0.0335817)
(0.0284418 0.00314877 -0.0299603)
(0.0293676 0.00173939 -0.0270286)
(0.0283954 -0.00033469 -0.024372)
(0.0221313 -0.00413458 -0.0219224)
(0.0154401 -0.0116263 -0.0207419)
(-0.00013833 -0.00319852 -0.0020539)
(0.000220982 -0.00369446 -2.69928e-05)
(0.000988624 -0.00363428 0.00114277)
(0.00173031 -0.00326036 0.00187444)
(0.0026375 -0.00271897 0.0026375)
(0.00369454 -0.00160997 0.0031321)
(0.00431118 -0.000726971 0.0032125)
(0.0040714 -0.000269035 0.00331929)
(0.0031712 -8.92541e-05 0.00340373)
(0.0016394 -7.37916e-05 0.0034541)
(-0.000319284 -0.000310413 0.00324369)
(-0.00151523 -0.000579708 0.00292753)