/*--------------------------------*- C++ -*----------------------------------*\
| =========                 |                                                 |
| \\      /  F ield         | OpenFOAM: The Open Source CFD Toolbox           |
|  \\    /   O peration     | Version:  v2006                                 |
|   \\  /    A nd           | Website:  www.openfoam.com                      |
|    \\/     M anipulation  |                                                 |
\*---------------------------------------------------------------------------*/
FoamFile
{
    version     2.0;
    format      ascii;
    class       volScalarField;
    location    "44";
    object      alphat;
}
// * * * * * * * * * * * * * * * * * * * * * * * * * * * * * * * * * * * * * //

dimensions      [1 -1 -1 0 0 0 0];


internalField   nonuniform List<scalar> 
78750
(
1.13254e-05
2.89112e-07
5.23045e-06
6.06731e-06
1.31407e-06
1.34156e-05
4.35052e-06
2.10069e-05
2.21178e-05
7.85905e-06
3.96558e-05
4.95446e-05
6.29796e-05
8.3055e-05
9.67509e-05
0.000111435
0.000123907
0.000134341
0.000142994
0.000149422
0.000154412
0.000158149
0.000161097
0.000163729
0.000166627
0.000170136
0.000174199
0.000178365
0.000181894
0.000183727
0.000182125
0.00017485
0.000158874
0.000114264
8.40099e-06
3.80178e-05
0.000331034
0.000367457
0.000593717
0.000683885
0.000725359
0.000595694
0.000557066
0.000466095
0.000428599
0.00038134
0.000364418
0.000353208
0.000361442
0.00038105
0.000411669
0.000441939
0.00046422
0.000474976
0.000475453
0.000468833
0.000455925
0.000436077
0.000410262
0.000381126
0.000353156
0.000330582
0.000314779
0.000305217
0.000302621
0.000304095
0.000285463
0.000210309
0.000105857
1.10184e-05
2.77236e-05
3.26632e-05
8.56013e-05
0.000128828
0.000168091
0.000210634
0.000257094
0.000306751
0.000357401
0.000401352
0.000440887
0.000475121
0.000496995
0.000506132
0.000521208
0.000550569
0.000586591
0.000621329
0.00064513
0.00064806
0.000628751
0.000594507
0.000554196
0.000513229
0.000473837
0.000436603
0.00040166
0.000368201
0.000331933
0.00029099
0.000249508
0.000215091
0.00019268
0.000151719
1.11514e-05
7.2149e-06
3.16359e-05
4.18887e-05
4.83696e-05
6.39768e-05
8.85548e-05
0.000122055
0.000168295
0.0002343
0.000327939
0.000442338
0.000523765
0.000533071
0.000512459
0.000486586
0.000462738
0.000443853
0.000429375
0.000419638
0.000413826
0.000411002
0.000410381
0.00041107
0.000412272
0.000412839
0.000410694
0.000402665
0.000384946
0.000355338
0.000317168
0.000277072
0.000236576
0.000182033
0.000100605
9.25503e-06
9.92551e-06
0.000173353
6.42155e-05
5.56111e-05
7.43991e-05
0.000119763
0.000194278
0.000301195
0.000426884
0.000524008
0.000574762
0.000603888
0.000620275
0.000620575
0.000606484
0.000583666
0.000558789
0.000536884
0.000520215
0.000507242
0.000495351
0.000483437
0.000471129
0.000458466
0.000445714
0.000433065
0.000420056
0.000405459
0.000387391
0.000361877
0.000319162
0.000248046
0.000161232
8.75686e-05
1.01937e-05
4.93126e-06
3.03265e-05
4.91868e-05
6.08673e-05
8.54777e-05
0.000133902
0.000192945
0.000253402
0.000313209
0.000368761
0.000415519
0.000449875
0.000470683
0.000478597
0.000475051
0.000461758
0.000440723
0.000414692
0.0003867
0.000359488
0.000335195
0.00031476
0.000298435
0.000286001
0.000276609
0.000269239
0.000262881
0.000256569
0.00024907
0.000238016
0.000219137
0.000189866
0.000157798
0.000119541
1.25859e-05
2.32928e-06
1.37332e-05
1.55896e-05
4.41859e-05
7.00533e-05
9.60824e-05
0.000123446
0.000152957
0.000183729
0.000214306
0.000242562
0.00026652
0.000284751
0.000296371
0.000300944
0.000298614
0.000290237
0.000277406
0.00026234
0.000247443
0.000234718
0.000225324
0.000219467
0.00021641
0.000215017
0.000214254
0.000213467
0.000212374
0.000210705
0.00020744
0.000201079
0.000196092
0.000207061
0.0002059
1.17154e-05
4.44863e-06
6.8887e-05
6.23104e-05
4.35614e-05
2.79908e-05
3.2472e-05
4.73015e-05
6.82838e-05
9.29421e-05
0.000119619
0.000147154
0.000173899
0.000197764
0.000216961
0.000230591
0.000238682
0.000241974
0.000241892
0.000240524
0.000240293
0.000243209
0.000250115
0.000260038
0.0002701
0.000276435
0.000275454
0.00026484
0.000245054
0.000221905
0.000199272
0.000161403
0.000101769
9.45756e-05
0.000166126
9.92562e-06
2.91109e-06
2.1479e-05
4.10623e-05
2.87394e-05
2.40222e-05
2.53048e-05
3.14216e-05
4.2357e-05
5.8551e-05
8.05698e-05
0.000109587
0.000146656
0.000188346
0.000226641
0.000254845
0.000272375
0.000283536
0.000294073
0.000309168
0.000332542
0.00033698
0.000332175
0.000327877
0.000324237
0.000321276
0.000318945
0.000317178
0.000315926
0.000315176
0.000314546
0.000198215
7.26393e-05
5.83333e-05
0.000137896
7.07032e-06
4.64436e-06
1.77971e-05
3.49466e-05
2.81071e-05
1.59499e-05
1.20115e-05
1.45138e-05
2.22457e-05
3.56679e-05
5.59214e-05
8.52856e-05
0.0001341
0.000222032
0.000303865
0.00030701
0.000309323
0.000310861
0.00031172
0.000312009
0.000311838
0.000311296
0.000310464
0.000309389
0.000308091
0.000306571
0.00030482
0.000302823
0.000300572
0.000298089
0.000188444
8.53493e-05
5.20049e-05
6.76161e-05
0.000212128
6.17327e-06
5.65525e-06
1.41471e-05
2.37294e-05
1.11897e-05
6.42283e-06
5.2801e-06
7.16172e-06
1.44637e-05
2.70742e-05
4.87479e-05
8.8908e-05
0.000170427
0.000286359
0.000291175
0.000295338
0.000298984
0.000302174
0.000304901
0.000307104
0.000308711
0.000309652
0.00030988
0.000309409
0.000308244
0.000306379
0.000303792
0.000300436
0.000296247
0.000278791
0.000177299
8.5537e-05
5.20975e-05
6.36509e-05
0.000131217
4.33958e-06
7.20362e-06
1.21043e-05
6.2425e-06
1.25704e-06
1.91578e-07
1.93915e-06
2.41995e-06
1.65279e-05
3.43932e-05
5.87071e-05
9.01109e-05
0.000129229
0.000175956
0.000225618
0.00027017
0.000289273
0.000293105
0.000296682
0.000299895
0.000302594
0.000293123
0.000274088
0.000254462
0.000235433
0.000217117
0.000198938
0.000179599
0.000156585
0.000127203
9.41782e-05
6.80378e-05
5.97674e-05
8.13027e-05
7.66441e-05
4.81526e-06
7.98981e-06
4.26234e-06
1.26085e-06
1.66809e-06
5.84598e-07
3.28673e-06
2.88115e-06
3.20296e-05
4.89641e-05
6.38078e-05
7.62246e-05
8.93383e-05
0.000104787
0.000122551
0.000141705
0.000162195
0.000183499
0.000203727
0.000220375
0.000231196
0.00023494
0.000231826
0.00022263
0.000209061
0.000193337
0.000176836
0.000159792
0.000140874
0.000117263
8.87072e-05
6.39168e-05
5.39208e-05
6.55928e-05
6.22954e-05
3.97963e-06
6.28431e-06
8.63416e-08
3.77736e-06
1.57041e-06
5.06893e-06
5.66086e-07
1.87139e-06
1.82174e-06
5.29123e-06
1.27473e-05
2.45534e-05
3.62576e-05
4.80135e-05
6.06422e-05
7.36733e-05
8.66287e-05
0.000100042
0.000114317
0.000129243
0.0001439
0.000157086
0.000167333
0.00017283
0.000171404
0.000162258
0.000146749
0.000127065
0.000105447
8.41199e-05
6.54313e-05
5.23656e-05
4.97595e-05
6.47631e-05
5.07776e-05
4.75898e-06
4.07704e-06
1.06631e-05
1.16907e-05
1.32178e-05
8.17776e-06
6.03577e-06
2.09138e-06
5.95967e-06
1.69269e-06
1.79634e-06
3.50671e-06
4.423e-07
3.25743e-06
3.15426e-06
1.6495e-05
3.18883e-05
4.61164e-05
5.80613e-05
6.85468e-05
7.92544e-05
9.13698e-05
0.00010478
0.000117898
0.000128417
0.000134574
0.000135648
0.000130962
0.000118921
9.84278e-05
7.36244e-05
5.4048e-05
4.7442e-05
5.86674e-05
4.82109e-05
3.95199e-06
3.02909e-06
2.45623e-05
3.33167e-05
4.70746e-05
6.89163e-05
9.14294e-05
8.07643e-05
5.86336e-05
4.23248e-05
2.96784e-05
2.39686e-05
1.7138e-05
1.14437e-05
8.12492e-06
5.72388e-06
8.28653e-06
1.48479e-05
2.42498e-05
3.48382e-05
4.51385e-05
5.50659e-05
6.55271e-05
7.71199e-05
8.9996e-05
0.000102099
0.000107269
0.000100691
8.67306e-05
7.1293e-05
5.66337e-05
4.54891e-05
4.2263e-05
5.18444e-05
3.70463e-05
4.83853e-06
3.91393e-06
2.84407e-05
6.4758e-05
0.000114481
0.000172126
0.000219571
0.00024784
0.000252829
0.000215893
0.000147321
9.84699e-05
7.74854e-05
6.83929e-05
5.93677e-05
4.76742e-05
3.67008e-05
2.97973e-05
2.81138e-05
3.13824e-05
3.62537e-05
3.91645e-05
4.05368e-05
4.13451e-05
4.21802e-05
4.43713e-05
5.2926e-05
8.07538e-05
0.000131767
0.00014091
0.000105586
6.87103e-05
5.41e-05
6.69412e-05
9.25515e-05
5.06038e-06
4.83915e-06
2.27127e-05
4.59896e-05
7.4513e-05
0.000121915
0.000179343
0.000192058
0.000164254
0.00012986
0.000102757
8.51093e-05
7.87631e-05
8.56745e-05
0.000103936
0.000121088
0.000112963
8.39254e-05
5.87006e-05
4.36127e-05
3.55688e-05
3.12458e-05
3.10736e-05
4.17501e-05
7.06522e-05
7.28623e-05
3.71752e-05
2.42914e-05
2.36452e-05
2.96028e-05
3.85363e-05
4.66815e-05
5.39688e-05
6.64399e-05
2.89439e-05
5.12604e-06
8.7205e-06
3.48417e-05
8.02619e-05
0.000144476
0.00018618
0.000175765
0.000142343
0.000108704
8.2293e-05
6.22549e-05
4.87315e-05
4.59099e-05
6.10789e-05
0.000100438
0.000165415
0.000218051
0.000222164
0.000206212
0.00015483
9.32317e-05
5.05173e-05
2.01536e-05
5.44079e-06
2.45151e-06
7.4521e-06
2.33645e-05
4.22138e-05
4.31018e-05
4.12378e-05
3.93733e-05
3.93457e-05
4.34044e-05
5.05647e-05
3.30062e-05
3.13298e-06
1.22157e-05
0.000124783
0.000157802
0.000133385
0.000120487
0.000104734
8.85015e-05
8.19548e-05
8.75759e-05
0.00010023
0.000107746
0.000105238
9.34264e-05
7.21743e-05
4.90619e-05
3.54318e-05
4.30485e-05
0.000131417
0.000145842
0.000179383
0.000203305
0.000176663
0.00013189
9.1881e-05
7.78522e-05
7.77361e-05
6.95211e-05
5.38417e-05
3.95453e-05
2.88978e-05
2.35638e-05
2.38925e-05
3.02114e-05
3.20307e-05
5.51298e-06
1.05106e-05
7.04029e-05
0.000154983
0.000173859
0.000167114
0.000152678
0.00014021
0.000131651
0.000125386
0.000123809
0.000125485
0.000119358
0.000101777
9.25636e-05
0.00010076
0.000112833
0.000112491
0.000107651
0.000106396
0.000106161
0.000102554
9.38882e-05
8.12148e-05
6.46474e-05
4.11627e-05
1.80939e-05
1.36429e-05
1.81928e-05
2.16072e-05
8.7369e-05
9.22789e-05
4.51417e-05
2.40613e-05
1.95321e-05
3.25036e-06
9.4515e-06
5.13859e-05
0.000164169
0.000184065
0.000166335
0.00014028
0.000114296
9.04457e-05
6.96692e-05
5.82509e-05
6.22271e-05
8.58628e-05
0.000127439
0.000162443
0.000181887
0.00019786
0.00022193
0.000269814
0.000341092
0.000349396
0.000344616
0.00034005
0.000335774
0.000331852
0.000305695
0.000119293
5.35905e-05
5.12028e-05
7.21987e-05
6.70021e-05
6.55387e-05
6.8105e-05
9.93464e-05
0.000139058
2.2966e-06
1.12374e-05
8.11141e-05
0.000204006
0.000214742
0.000188583
0.000152342
0.000128048
0.000128252
0.00015257
0.000185204
0.00020179
0.000189524
0.000161171
0.000142022
0.000143299
0.000165715
0.00020876
0.000272332
0.000345049
0.000360063
0.000352926
0.000345593
0.000338169
0.000330765
0.000323559
0.000316761
0.000310603
0.0002302
0.000177483
0.000147929
0.000119374
9.49484e-05
8.72843e-05
9.24145e-05
2.11541e-06
1.12819e-05
7.95843e-05
0.000171419
0.000161943
0.000132344
9.63845e-05
6.79663e-05
5.35349e-05
5.43591e-05
7.26758e-05
0.000114778
0.00018727
0.000282731
0.000381234
0.000432188
0.000429131
0.000423686
0.000416968
0.000409784
0.000402325
0.000394209
0.000384958
0.000375043
0.000309313
0.000236709
0.000187953
0.000160901
0.000151208
0.000151706
0.000148018
0.00012876
0.00010369
8.73594e-05
6.86102e-05
2.28221e-06
9.61347e-06
6.32058e-05
0.000169444
0.000186204
0.000174077
0.000151532
0.000122725
9.27602e-05
7.22142e-05
6.87634e-05
8.37883e-05
0.000115368
0.000158095
0.000205242
0.000253785
0.000304559
0.000356874
0.000401304
0.000416227
0.000385757
0.000330293
0.000285192
0.000264415
0.000262859
0.000264194
0.000247366
0.000208328
0.000164788
0.00013066
0.000110569
0.000102597
9.93111e-05
9.05631e-05
5.76816e-05
2.92907e-06
1.13605e-05
7.48776e-05
0.000184076
0.000188869
0.000164415
0.000134505
0.000106435
8.20793e-05
6.36379e-05
5.46109e-05
5.9368e-05
8.1455e-05
0.000124286
0.000190174
0.000276855
0.000372704
0.00044444
0.000447085
0.000447399
0.000445337
0.000441012
0.000434768
0.000419614
0.000366565
0.000318286
0.000280494
0.000250171
0.000222119
0.000190519
0.000153031
0.000117043
9.28548e-05
7.53635e-05
4.16701e-05
2.90338e-06
1.0615e-05
8.1009e-05
0.000178897
0.000172019
0.000148736
0.000125834
0.000109522
9.84017e-05
8.84689e-05
7.96508e-05
7.70595e-05
8.61582e-05
0.000111985
0.00015928
0.000230922
0.000323084
0.000413229
0.000441006
0.000446083
0.000449187
0.00045017
0.000448985
0.00044569
0.000440455
0.000433568
0.000405394
0.000353982
0.000302351
0.000252404
0.000202757
0.000157182
0.000125545
0.000105282
5.45327e-05
3.04031e-06
1.02617e-05
6.08138e-05
0.000173498
0.00020275
0.00019749
0.000178916
0.000150676
0.000116554
8.46911e-05
6.2247e-05
5.10584e-05
5.14324e-05
6.45454e-05
9.35156e-05
0.000145314
0.000228919
0.000341692
0.000428726
0.000435716
0.000441153
0.000444856
0.000446698
0.000446606
0.000444561
0.000440622
0.000434909
0.000427589
0.000418896
0.000363834
0.000294588
0.000220129
0.000162748
0.000136857
9.95649e-05
3.82052e-06
1.13477e-05
8.7338e-05
0.000194467
0.000183419
0.000153863
0.000128218
0.000114944
0.000111789
0.000108158
9.30026e-05
7.2758e-05
6.05019e-05
6.09399e-05
7.56242e-05
0.000109628
0.000173945
0.000280331
0.000405416
0.000420628
0.00042755
0.000432744
0.00043608
0.000437471
0.000436865
0.000434244
0.00042963
0.000423091
0.000414755
0.000379714
0.000302367
0.000215787
0.000152649
0.000131559
0.000115639
3.77818e-06
1.04426e-05
6.81168e-05
0.000185429
0.000198529
0.00018511
0.000160023
0.000133224
0.000114566
0.000106244
0.000102219
9.2314e-05
7.64526e-05
6.65601e-05
6.94203e-05
8.76722e-05
0.000127722
0.00020035
0.00030925
0.000411765
0.000418743
0.000424152
0.000427816
0.000429588
0.000429349
0.000427
0.000422467
0.00041571
0.000406734
0.000372189
0.000297497
0.000220303
0.000168263
0.000154605
0.000129212
3.32035e-06
1.10941e-05
7.86125e-05
0.000196706
0.000204103
0.00018427
0.000157855
0.000133395
0.000114456
0.000102269
9.58638e-05
9.08295e-05
8.16603e-05
7.02753e-05
6.47481e-05
7.00308e-05
9.07552e-05
0.000135567
0.00021503
0.00032529
0.000409529
0.000415975
0.000420639
0.000423368
0.000424018
0.000422446
0.000418514
0.000412094
0.000403075
0.000374527
0.000317446
0.000267908
0.000245181
0.000250621
0.00017161
3.60572e-06
1.06096e-05
7.34877e-05
0.000190537
0.000194038
0.000173293
0.000149137
0.000131202
0.00012101
0.000115547
0.00011137
0.00010614
9.76833e-05
8.57268e-05
7.53878e-05
7.25152e-05
7.9177e-05
9.94324e-05
0.000141883
0.000214728
0.000311585
0.00039606
0.000413259
0.000416963
0.000418698
0.000418299
0.000415586
0.000410373
0.000402448
0.000385019
0.000360484
0.000346495
0.000337002
0.000311301
0.000208829
4.11447e-06
1.08912e-05
7.38346e-05
0.000194829
0.00020467
0.000186856
0.000159577
0.000133236
0.000114646
0.000105194
0.000103128
0.000105698
0.000108826
0.000106164
9.40757e-05
7.97921e-05
7.2877e-05
7.395e-05
8.17148e-05
0.000104414
0.000151885
0.000228451
0.000317261
0.000383565
0.000408694
0.000409908
0.000408854
0.000405373
0.000399268
0.000390302
0.000378199
0.000362656
0.000343335
0.000319797
0.000203345
4.28965e-06
1.05138e-05
6.91659e-05
0.000188322
0.000203504
0.000188181
0.000166058
0.000146669
0.000132553
0.000122522
0.000115244
0.000110507
0.000108462
0.000108178
0.000106137
9.79405e-05
8.59625e-05
7.93127e-05
8.23071e-05
8.81602e-05
9.48342e-05
0.000114164
0.000155654
0.000221515
0.000295395
0.000348717
0.00037242
0.000377225
0.000375065
0.000373108
0.000372063
0.000358751
0.000341752
0.000320637
0.000178946
4.23739e-06
1.0694e-05
6.73772e-05
0.000186726
0.000197354
0.000176828
0.000148297
0.000124769
0.000111466
0.000107338
0.000109233
0.000113885
0.000118498
0.000121449
0.000122529
0.000121208
0.000115284
0.000104653
9.55342e-05
9.46099e-05
0.000100467
0.000103142
0.000104494
0.000117434
0.000150625
0.000206502
0.000271586
0.000319842
0.00034233
0.000350445
0.000355409
0.000347786
0.000332532
0.000313318
0.000164625
4.14484e-06
1.0481e-05
6.30252e-05
0.000181613
0.000203523
0.000188774
0.000163875
0.000141677
0.000127595
0.00012039
0.000117032
0.000115632
0.000115482
0.000116061
0.000116749
0.000117317
0.000118011
0.000118285
0.000116435
0.000112532
0.00011037
0.000112912
0.000115526
0.000110503
0.000104774
0.000110722
0.000135018
0.00018006
0.000237081
0.000286215
0.000319327
0.000339368
0.00032607
0.000309054
0.000140769
4.02847e-06
1.06425e-05
6.08128e-05
0.000174939
0.000191627
0.000168853
0.000136622
0.000112908
0.000103288
0.000105369
0.000114836
0.000126679
0.000136359
0.000141684
0.000142918
0.000141346
0.000138602
0.00013658
0.00013642
0.00013724
0.000136798
0.000134105
0.000130504
0.000126945
0.000121056
0.000111391
0.000104243
0.000107039
0.000123263
0.000153918
0.000194548
0.000232041
0.000252997
0.000241727
0.000108529
3.78439e-06
1.08358e-05
6.30392e-05
0.000181621
0.000197055
0.000172845
0.000139556
0.000115981
0.000106523
0.000107673
0.000115035
0.000124857
0.000134124
0.00014077
0.000144003
0.00014426
0.000142723
0.000141046
0.000141296
0.000145163
0.000152542
0.000160818
0.000165877
0.000164772
0.000157533
0.000145966
0.000131789
0.000117473
0.000107457
0.000105907
0.000114544
0.000132044
0.000151942
0.000157794
7.95736e-05
3.52335e-06
1.08306e-05
6.12027e-05
0.000177368
0.000190867
0.000159521
0.000121821
0.000100174
9.58189e-05
0.000103877
0.00011972
0.000138543
0.000155602
0.000167655
0.000173718
0.000174415
0.000170639
0.000163368
0.000155472
0.000151932
0.000156215
0.000167865
0.00018301
0.000195742
0.000200073
0.000192644
0.000174584
0.000150831
0.000127726
0.000111054
0.000104786
0.000110283
0.000124717
0.000133729
6.22937e-05
3.34133e-06
1.11405e-05
6.52697e-05
0.000184009
0.000186855
0.000148417
0.000110135
9.21189e-05
9.15825e-05
0.000102553
0.000120194
0.000139947
0.000157494
0.000169803
0.000176042
0.000177188
0.000173705
0.000164026
0.000149714
0.000140626
0.000146124
0.000167643
0.000200056
0.000233335
0.000255861
0.000259198
0.000241787
0.00020932
0.00017173
0.000139075
0.000119187
0.000118154
0.00014053
0.000169609
7.05533e-05
3.54591e-06
1.08887e-05
6.08459e-05
0.00017422
0.000176891
0.000136177
9.8304e-05
8.2965e-05
8.58448e-05
0.00010113
0.000124225
0.000150494
0.000175045
0.000193281
0.000201907
0.000200116
0.000189256
0.000169886
0.000143233
0.000120738
0.000117709
0.000138985
0.000181291
0.000232494
0.000275064
0.000296405
0.000292772
0.000266727
0.000225207
0.000179978
0.000145852
0.000136283
0.000164408
0.00022399
9.90833e-05
3.93138e-06
1.10591e-05
6.05262e-05
0.000168844
0.000169839
0.00012972
9.1437e-05
7.55123e-05
7.80174e-05
9.31413e-05
0.00011585
0.000141296
0.000165811
0.000186998
0.000202674
0.000210305
0.00020773
0.000193536
0.000165942
0.00012889
0.000102447
0.000103439
0.000133665
0.00018757
0.000244415
0.000280478
0.000288383
0.000271779
0.000238091
0.00019892
0.000169771
0.000165583
0.000197731
0.000243934
0.00010524
4.01685e-06
1.08256e-05
5.75173e-05
0.000162111
0.000166114
0.00012878
8.88858e-05
7.02099e-05
7.11999e-05
8.74839e-05
0.000115455
0.000149298
0.000181782
0.000207602
0.000224609
0.000232443
0.000230847
0.00021909
0.000196048
0.000160216
0.000116685
8.65852e-05
8.5861e-05
0.000115205
0.000170924
0.000228569
0.000257375
0.000254908
0.000233129
0.000205666
0.000186624
0.000187746
0.000211619
0.000225571
9.09739e-05
3.73e-06
1.11572e-05
6.05752e-05
0.000165548
0.000172527
0.000139981
9.72402e-05
7.13721e-05
6.59497e-05
7.62707e-05
9.87719e-05
0.000129705
0.000164455
0.000198416
0.000227795
0.000249736
0.000262055
0.000262936
0.000250574
0.000223121
0.000178997
0.000124378
8.21509e-05
7.02219e-05
8.76543e-05
0.000130631
0.000181802
0.000211031
0.000214647
0.000206239
0.000199117
0.000201815
0.000211931
0.000202547
7.83276e-05
3.53702e-06
1.1045e-05
6.21741e-05
0.000171101
0.000178864
0.000147783
0.000104136
7.42103e-05
6.52986e-05
7.40797e-05
9.77362e-05
0.000132185
0.000170877
0.000207609
0.000238855
0.000263327
0.000280524
0.000289608
0.000288751
0.000275301
0.00024592
0.000197242
0.000134502
8.17914e-05
6.00334e-05
6.83555e-05
0.000101826
0.000148051
0.00017997
0.000192013
0.00019571
0.000199435
0.000201696
0.000184088
7.19147e-05
3.55288e-06
1.14565e-05
6.86321e-05
0.000181835
0.000190046
0.000162952
0.000119584
8.25632e-05
6.59087e-05
6.81032e-05
8.60332e-05
0.000116928
0.000156298
0.000198374
0.000238196
0.000272685
0.000300316
0.000320073
0.000330443
0.000328999
0.000312649
0.000277488
0.00021947
0.000144806
8.12924e-05
5.22961e-05
5.52492e-05
8.29731e-05
0.000125054
0.00015866
0.000177294
0.000186903
0.000188559
0.000169115
6.46798e-05
3.63217e-06
1.13386e-05
7.28199e-05
0.000191102
0.00019571
0.000166754
0.000125348
9.00339e-05
7.1996e-05
7.20911e-05
8.89185e-05
0.000120196
0.000160893
0.000204532
0.000246129
0.000283206
0.00031507
0.000341524
0.000361369
0.000370215
0.000358937
0.000342186
0.000297525
0.000225722
0.0001389
7.15867e-05
4.43441e-05
4.92945e-05
7.9144e-05
0.000122588
0.000155166
0.000172632
0.000177541
0.00015841
5.74818e-05
3.64906e-06
1.16494e-05
7.92056e-05
0.000199848
0.000202366
0.000174286
0.000133573
9.62648e-05
7.45654e-05
7.05759e-05
8.315e-05
0.000110796
0.000149853
0.000194555
0.000239479
0.000281472
0.00032004
0.000355576
0.000382705
0.000380389
0.000370417
0.000358617
0.000345208
0.000293939
0.000209198
0.000118468
5.81143e-05
3.80584e-05
4.70492e-05
8.0986e-05
0.000127334
0.000157644
0.000167202
0.000146626
4.96871e-05
3.54444e-06
1.1411e-05
8.17522e-05
0.000201031
0.000199247
0.000169508
0.000133026
0.000102465
8.37545e-05
7.90432e-05
8.93791e-05
0.000114497
0.000151149
0.000193765
0.0002372
0.000278502
0.00031703
0.000353012
0.000382606
0.000389242
0.000380661
0.000370274
0.000358197
0.000332483
0.000267043
0.000180864
9.83381e-05
4.94953e-05
3.61562e-05
4.83596e-05
8.4963e-05
0.000129402
0.000150032
0.000133396
4.47312e-05
3.45571e-06
1.13819e-05
7.94042e-05
0.000199913
0.000199481
0.000170775
0.000134153
0.000102274
8.19926e-05
7.53173e-05
8.28242e-05
0.000104731
0.000139146
0.0001814
0.000226092
0.000269258
0.000308801
0.000343942
0.000373835
0.000394012
0.000390413
0.000381832
0.000371566
0.000352716
0.000304456
0.000238638
0.000160765
8.90538e-05
4.79087e-05
3.75986e-05
5.10123e-05
8.74526e-05
0.000123263
0.00011953
4.25134e-05
3.40698e-06
1.11016e-05
7.69748e-05
0.000197267
0.000195942
0.000166224
0.000134298
0.000109327
9.1502e-05
8.2159e-05
8.46376e-05
0.000101115
0.000131063
0.000170756
0.000214889
0.000258974
0.000300094
0.000336481
0.000366961
0.000389801
0.000398422
0.000391646
0.000383233
0.000369659
0.000334614
0.000286277
0.000225594
0.000154442
8.93655e-05
5.2017e-05
4.34335e-05
5.93571e-05
9.59713e-05
0.000111777
4.4392e-05
3.41593e-06
1.10117e-05
7.1072e-05
0.000192457
0.000189794
0.000155223
0.000121722
0.00010028
8.74621e-05
8.02824e-05
8.10805e-05
9.37894e-05
0.000120327
0.000158939
0.000204659
0.000251928
0.000296567
0.000336094
0.000369312
0.000394572
0.00040408
0.000399123
0.00039257
0.000384468
0.000361711
0.000325023
0.000278307
0.000220158
0.000152581
9.2298e-05
5.92468e-05
5.56071e-05
8.02707e-05
0.000112054
5.041e-05
3.42135e-06
1.09262e-05
6.81718e-05
0.000184404
0.000178559
0.000139295
0.0001075
9.34796e-05
8.96021e-05
8.77094e-05
8.75639e-05
9.51945e-05
0.000115425
0.000148866
0.000192111
0.000239746
0.000286752
0.00032976
0.000367111
0.000396308
0.000406462
0.000403152
0.000398311
0.000391954
0.000383213
0.00035505
0.000317321
0.000270085
0.000210898
0.00014437
9.12381e-05
6.89325e-05
7.99077e-05
0.000118976
6.11869e-05
3.44273e-06
1.07811e-05
6.16651e-05
0.000170931
0.000163699
0.000121129
8.85661e-05
7.67765e-05
7.8238e-05
8.46209e-05
9.10931e-05
9.98341e-05
0.000116784
0.000145546
0.000185173
0.000231256
0.000278473
0.000322682
0.000361623
0.000392812
0.000405974
0.000404082
0.000400739
0.000395935
0.000389702
0.000370742
0.000339439
0.000299976
0.000249501
0.000186811
0.00012495
8.85437e-05
8.83682e-05
0.000125912
7.32655e-05
3.47298e-06
1.08378e-05
6.08179e-05
0.000164793
0.000156363
0.000112564
8.02668e-05
6.97252e-05
7.33946e-05
8.35246e-05
9.43717e-05
0.000105311
0.000120632
0.000144828
0.000179091
0.000220892
0.00026569
0.000309013
0.000347626
0.000379416
0.000400991
0.000402066
0.000400004
0.000396567
0.000391698
0.000371314
0.000344084
0.000309845
0.000265374
0.000208098
0.000146503
0.00010457
9.84802e-05
0.000131223
7.88536e-05
3.51673e-06
1.08281e-05
5.96742e-05
0.000160394
0.000150439
0.000105364
7.22913e-05
6.16373e-05
6.64498e-05
8.02301e-05
9.67667e-05
0.000112447
0.000128861
0.000150255
0.000179368
0.000215575
0.000255618
0.000295443
0.000331581
0.000361379
0.000382687
0.000394384
0.000396607
0.000390824
0.000377893
0.000358921
0.000334171
0.00030251
0.000261179
0.000208167
0.000151246
0.000111986
0.000106403
0.000136451
7.43106e-05
3.52651e-06
1.11158e-05
6.52682e-05
0.000165833
0.000153714
0.000108557
7.31096e-05
5.98334e-05
6.29729e-05
7.68028e-05
9.56911e-05
0.000115147
0.00013437
0.000155576
0.0001812
0.00021174
0.000245543
0.000279846
0.000311869
0.000339118
0.000359334
0.000371
0.00037377
0.000368349
0.000355919
0.000337508
0.000313356
0.0002824
0.000242437
0.000193178
0.000143852
0.000112852
0.000112945
0.000142666
6.53321e-05
3.54578e-06
1.11644e-05
7.00039e-05
0.000171621
0.000158352
0.000113812
7.58882e-05
5.9321e-05
6.02844e-05
7.40886e-05
9.55057e-05
0.00011874
0.000140905
0.000162774
0.000186272
0.000212171
0.000239657
0.0002671
0.000292848
0.000315283
0.000332604
0.000343105
0.000345756
0.000340535
0.00032819
0.000309563
0.000284883
0.000253426
0.000214381
0.000170389
0.000131779
0.000112223
0.000120512
0.000147776
5.5706e-05
3.53772e-06
1.1402e-05
7.89121e-05
0.00018272
0.000169855
0.000127897
8.63673e-05
6.34809e-05
5.90336e-05
6.89865e-05
8.90773e-05
0.000113845
0.000138961
0.000163192
0.000187237
0.000211566
0.000235638
0.000258378
0.000278856
0.000296286
0.000309637
0.000317575
0.000318834
0.000312787
0.000299611
0.000279855
0.000253886
0.000221917
0.000185251
0.000148821
0.000121774
0.000113371
0.000129054
0.000149732
4.86498e-05
3.57899e-06
1.13218e-05
8.45772e-05
0.000188888
0.000177129
0.000139192
9.79276e-05
7.06739e-05
6.12277e-05
6.71893e-05
8.53212e-05
0.000110593
0.000137625
0.000163495
0.000187767
0.000210613
0.000231722
0.000250448
0.000266377
0.00027936
0.000289063
0.000294625
0.000294744
0.00028827
0.000274707
0.000254158
0.000227119
0.000194918
0.000160932
0.000131448
0.000113994
0.000114896
0.000136055
0.000148163
4.35617e-05
3.63484e-06
1.13245e-05
8.92934e-05
0.000194956
0.000186564
0.000154534
0.000114254
8.11997e-05
6.45139e-05
6.40279e-05
7.72698e-05
0.000100464
0.000128464
0.000156989
0.00018384
0.000207999
0.000228674
0.000245262
0.000257744
0.000266629
0.000272389
0.00027487
0.00027306
0.00026558
0.000251395
0.000230211
0.00020278
0.000171576
0.000141445
0.000118751
0.000109292
0.00011755
0.000141638
0.000144661
3.99611e-05
3.71136e-06
1.10829e-05
9.01258e-05
0.000197212
0.000192411
0.000166873
0.000132776
9.81245e-05
7.3897e-05
6.53647e-05
7.18831e-05
9.082e-05
0.000117625
0.000147188
0.000175979
0.00020199
0.000223769
0.000240257
0.000251296
0.000257712
0.000260691
0.000260855
0.000257644
0.000249618
0.00023529
0.000213923
0.00018631
0.000155664
0.000127793
0.000109175
0.000104783
0.000118005
0.000143657
0.000140258
3.74358e-05
3.80556e-06
1.09741e-05
8.98862e-05
0.000201194
0.000198429
0.000176268
0.000148116
0.000116359
8.69707e-05
6.94654e-05
6.7204e-05
7.92725e-05
0.000102799
0.000132856
0.000164217
0.000193123
0.000217168
0.000234815
0.000245626
0.00025048
0.000251093
0.000248894
0.000244025
0.000235338
0.000221162
0.000200369
0.000173588
0.000144256
0.000118511
0.000102789
0.000101756
0.000118269
0.000144516
0.000135846
3.54052e-05
3.89681e-06
1.07635e-05
8.85849e-05
0.000202386
0.000197862
0.000175049
0.00015328
0.000132682
0.000107797
8.34709e-05
7.05569e-05
7.27559e-05
8.91331e-05
0.000116453
0.000149327
0.00018195
0.000209832
0.000230184
0.000242065
0.000246416
0.000245489
0.00024144
0.000235046
0.000225526
0.000211246
0.000190899
0.000164924
0.000136682
0.000112315
9.8223e-05
9.90615e-05
0.000117541
0.000144186
0.000131987
3.37955e-05
3.98146e-06
1.06423e-05
8.45927e-05
0.00020097
0.000190981
0.000162045
0.000141675
0.000131194
0.00012009
0.000101
8.15878e-05
7.34143e-05
8.00947e-05
0.000100705
0.000131555
0.000166475
0.000198834
0.000223504
0.000237952
0.00024268
0.000240557
0.000234755
0.000226898
0.000216613
0.000202289
0.000182489
0.000157524
0.000130656
0.000107863
9.53686e-05
9.7845e-05
0.000117863
0.000144267
0.000128016
3.23001e-05
4.04599e-06
1.04826e-05
7.74688e-05
0.000190998
0.000172851
0.000137104
0.000118993
0.000117974
0.000121899
0.000116897
9.9602e-05
8.32965e-05
7.96669e-05
9.14856e-05
0.000117261
0.00015204
0.00018812
0.000217746
0.000235863
0.000241765
0.000238659
0.000230854
0.000221105
0.000209716
0.000195233
0.000176066
0.00015224
0.000126734
0.000105272
9.39609e-05
9.75616e-05
0.000118501
0.000144246
0.000124567
3.10925e-05
4.10501e-06
1.04114e-05
6.79253e-05
0.000171888
0.000145988
0.00010649
9.13235e-05
9.64015e-05
0.000111198
0.000122113
0.000117156
0.000100159
8.78079e-05
8.98967e-05
0.000108085
0.000139683
0.000177708
0.000212294
0.000234919
0.000242708
0.000238864
0.000228914
0.000216908
0.000203973
0.000188967
0.00017026
0.000147626
0.000123709
0.000103871
9.4022e-05
9.89854e-05
0.000120855
0.000145418
0.000121677
3.01603e-05
4.15933e-06
1.03777e-05
5.97648e-05
0.00015081
0.000119708
8.11967e-05
6.9511e-05
7.78013e-05
9.81689e-05
0.000119755
0.000128392
0.000118937
0.000103626
9.78342e-05
0.000107971
0.00013399
0.000170804
0.000208108
0.00023434
0.000243828
0.000239164
0.000226931
0.00021248
0.000197843
0.000182339
0.000164363
0.000143392
0.000121592
0.000103833
9.58102e-05
0.000102397
0.000125025
0.000147574
0.000119117
2.93811e-05
4.18609e-06
1.04514e-05
5.63899e-05
0.000137788
0.000104613
6.78531e-05
5.68524e-05
6.47206e-05
8.59348e-05
0.000112479
0.000130485
0.000130532
0.000118645
0.000109762
0.000113905
0.000133903
0.00016695
0.000203883
0.000231893
0.000242779
0.00023783
0.000223963
0.000207452
0.000191154
0.000175
0.000157677
0.000138593
0.000119469
0.000104528
9.90585e-05
0.000107811
0.000131155
0.000151156
0.000117929
2.90503e-05
4.22586e-06
1.0607e-05
5.99414e-05
0.000137699
0.000107607
6.99309e-05
5.40209e-05
5.63735e-05
7.28358e-05
9.86777e-05
0.000122622
0.000132555
0.000128206
0.000120939
0.000122034
0.000136661
0.000164165
0.000197443
0.000224483
0.000235909
0.000231364
0.000217145
0.000199839
0.000182927
0.000166915
0.000150819
0.000134068
0.000118056
0.000106457
0.000104137
0.000115464
0.000139191
0.000155886
0.000117308
2.89075e-05
4.24226e-06
1.07436e-05