/*--------------------------------*- C++ -*----------------------------------*\
| =========                 |                                                 |
| \\      /  F ield         | OpenFOAM: The Open Source CFD Toolbox           |
|  \\    /   O peration     | Version:  v2006                                 |
|   \\  /    A nd           | Website:  www.openfoam.com                      |
|    \\/     M anipulation  |                                                 |
\*---------------------------------------------------------------------------*/
FoamFile
{
    version     2.0;
    format      ascii;
    class       volScalarField;
    location    "44";
    object      k;
}
// * * * * * * * * * * * * * * * * * * * * * * * * * * * * * * * * * * * * * //

dimensions      [0 2 -2 0 0 0 0];


internalField   nonuniform List<scalar> 
78750
(
0.00468665
0.000176429
0.00427236
0.0043141
0.000578666
0.00257357
0.000603674
0.00330853
0.00265208
0.000913025
0.0038626
0.00454639
0.00536983
0.00655165
0.00716284
0.00784613
0.00839307
0.00882224
0.00918799
0.00945851
0.0096701
0.00981785
0.00990648
0.00993579
0.00991416
0.0098489
0.00974562
0.00960713
0.00943071
0.00920527
0.0089015
0.00845035
0.00770552
0.00635355
0.00288784
0.125852
0.155062
0.141701
0.134396
0.125512
0.117448
0.109185
0.1003
0.0910595
0.0819685
0.0732256
0.0651191
0.0578425
0.0515498
0.04633
0.0422049
0.0390359
0.0366308
0.0348009
0.0333679
0.0321717
0.0310961
0.0300316
0.0288871
0.0276044
0.0261786
0.0246677
0.0231625
0.0217321
0.0204067
0.0191999
0.0180832
0.0168611
0.0146735
0.00540849
0.00712821
0.0149615
0.0238007
0.0297716
0.0340938
0.0371851
0.0392208
0.0404
0.0408706
0.040746
0.0401765
0.0392938
0.0381719
0.0368473
0.0355018
0.0343219
0.0333566
0.0325621
0.0318874
0.0312797
0.0306926
0.0300882
0.0294321
0.0286916
0.0278375
0.0268484
0.0257154
0.0244488
0.0230735
0.021578
0.0199312
0.0180933
0.016043
0.0135159
0.00547797
0.00205826
0.00250659
0.00335975
0.00485012
0.00706682
0.00972041
0.0125957
0.0154892
0.0181565
0.0203899
0.0220984
0.0233542
0.0242337
0.0247643
0.0249743
0.0248989
0.0246346
0.0242997
0.0239135
0.0234784
0.022992
0.0224532
0.0218648
0.0212351
0.0205777
0.0199105
0.0192531
0.0186234
0.0180304
0.0174697
0.0169147
0.0162331
0.0151137
0.0126385
0.00454021
0.00366184
0.00484169
0.00674787
0.00905708
0.010657
0.0118923
0.0131152
0.0143111
0.0153877
0.0163178
0.0171107
0.0177713
0.0183034
0.01871
0.0189932
0.0191599
0.0192281
0.0192179
0.0191463
0.0190259
0.0188635
0.0186644
0.0184341
0.0181783
0.0179042
0.0176213
0.0173406
0.0170723
0.0168215
0.0165831
0.0163249
0.0159403
0.0151237
0.0128358
0.00500431
0.00186531
0.00270304
0.00669619
0.0102143
0.0125442
0.0137174
0.0144467
0.015026
0.0155237
0.0159666
0.0163645
0.0167186
0.0170256
0.0172788
0.0174718
0.0175984
0.0176535
0.0176325
0.0175318
0.0173503
0.0170931
0.0167736
0.016407
0.0160178
0.0156309
0.0152667
0.0149386
0.0146509
0.0143966
0.0141519
0.0138622
0.0134068
0.012534
0.0107737
0.00585472
0.000663634
0.00119213
0.00184469
0.00451854
0.00708912
0.00919915
0.0108858
0.0121342
0.013053
0.0137194
0.0141882
0.0144966
0.0146674
0.0147125
0.0146369
0.0144418
0.0141267
0.013693
0.0131474
0.0125053
0.0117951
0.0110564
0.0103334
0.00966591
0.00908285
0.0086005
0.00822457
0.00795231
0.00777343
0.00766954
0.00761014
0.00753642
0.00731763
0.00678249
0.00508026
0.00126916
0.00168387
0.00175349
0.00167335
0.00191179
0.00264333
0.00365515
0.00472501
0.00572378
0.00656086
0.00721151
0.00767962
0.0079798
0.00812901
0.00814202
0.0080309
0.007807
0.00748386
0.00708042
0.00662336
0.00614646
0.00568455
0.00526658
0.00490944
0.0046183
0.00439119
0.00422374
0.0041124
0.0040558
0.00405124
0.00409493
0.00420829
0.00449504
0.00466551
0.00436404
0.000817431
0.00104846
0.00105738
0.00115031
0.00135543
0.00165633
0.00203088
0.00242758
0.00282311
0.00318751
0.00350463
0.00375895
0.00394335
0.00406179
0.00412219
0.00413164
0.0040977
0.00402947
0.00393813
0.00383563
0.00373108
0.00363241
0.00354561
0.00347276
0.00341341
0.00336591
0.00332843
0.00329971
0.00327934
0.00326752
0.00326077
0.0032556
0.00332343
0.00338081
0.0031961
0.00131761
0.00152978
0.00127819
0.00101836
0.000846861
0.000884994
0.00119528
0.00167162
0.00214145
0.00251867
0.00279684
0.00299233
0.00311913
0.00320294
0.00326413
0.00330988
0.00334118
0.00335981
0.00336788
0.00336759
0.00336082
0.00334913
0.00333346
0.00331418
0.00329134
0.00326476
0.00323435
0.00320023
0.00316316
0.00311692
0.00304666
0.00296729
0.00294694
0.00294605
0.00289452
0.00164495
0.00166446
0.0010663
0.000613908
0.000414131
0.000386304
0.000608106
0.00116856
0.00174169
0.00221673
0.00255993
0.00277534
0.00290597
0.00300222
0.00308634
0.00316094
0.00322741
0.00328571
0.0033347
0.00337282
0.00339856
0.00341099
0.00341043
0.00339709
0.00337113
0.00333245
0.00328058
0.00321494
0.00313269
0.00301842
0.00283714
0.0025767
0.00234151
0.00221613
0.00208915
0.00315882
0.00151419
0.00046188
0.000130249
1.8002e-05
0.000159682
0.000196914
0.00112115
0.00171494
0.00212295
0.00240261
0.00259653
0.00273538
0.00284094
0.0029298
0.00301185
0.00309038
0.0031645
0.00323259
0.00329188
0.00333903
0.003373
0.00339295
0.00339736
0.00338584
0.00335908
0.00331814
0.00326324
0.00319157
0.00309358
0.00295039
0.00275164
0.00255882
0.0024278
0.00236779
0.00383394
0.00045021
0.000151272
0.000164518
4.04586e-05
0.000192666
0.000140201
0.00129508
0.0017565
0.0021822
0.00244224
0.00261514
0.0027305
0.0028094
0.00286665
0.00291383
0.00295797
0.00300285
0.00304921
0.00309548
0.00313804
0.00317186
0.0031904
0.00319081
0.00316994
0.00312612
0.00306001
0.00297407
0.00287049
0.00274741
0.00259631
0.0024091
0.00221535
0.00205888
0.0019677
0.00218611
8.23906e-06
0.000167925
5.04546e-05
0.000183877
2.31553e-05
9.04995e-05
9.54718e-05
0.00027071
0.000630926
0.00118426
0.00167614
0.0020678
0.0023849
0.00262015
0.00277226
0.00286541
0.00292202
0.00295865
0.00298688
0.00301327
0.00303977
0.00306455
0.00308166
0.00308659
0.00307426
0.00303893
0.00297555
0.00288127
0.00275731
0.00261169
0.00246223
0.00234395
0.0022908
0.00238668
0.00122165
0.00134051
0.000908534
0.000632996
0.00039579
0.000256279
8.65193e-05
0.000281492
9.34907e-05
0.00011142
0.000232563
3.00585e-05
0.000212235
0.000181787
0.000812142
0.0013836
0.00184773
0.00220151
0.00245381
0.00262656
0.00274089
0.00281384
0.00285733
0.00287834
0.00287953
0.00286143
0.00282284
0.00276038
0.00266874
0.00254356
0.00238645
0.00221967
0.00208401
0.00198921
0.00196297
0.000904078
0.00279034
0.00307964
0.0033002
0.00330269
0.00306171
0.0027427
0.00238779
0.00208016
0.00171506
0.00152922
0.00116845
0.000826023
0.000592101
0.000391423
0.000498651
0.000770825
0.00111456
0.00146764
0.00178276
0.0020404
0.00224347
0.00240442
0.00253681
0.00264755
0.00273545
0.00279319
0.00281012
0.00277491
0.00267329
0.00249598
0.00227115
0.00210096
0.00206967
0.00245609
0.00113542
0.00371195
0.0050045
0.00569533
0.00607417
0.00629477
0.00640061
0.00639946
0.00630004
0.00611754
0.00578647
0.00543124
0.00498377
0.00436203
0.00359669
0.00276923
0.0020755
0.00165617
0.0015236
0.00159098
0.00175557
0.00194042
0.00209531
0.00220266
0.00227531
0.00233793
0.00241493
0.00250544
0.00258735
0.00264206
0.00264511
0.00256605
0.00243907
0.00235534
0.00244022
0.00139379
0.00282694
0.00368868
0.00427191
0.00466457
0.00489475
0.00501788
0.00507949
0.00510505
0.00512364
0.00524766
0.00558087
0.00609787
0.00650745
0.0065536
0.00618949
0.00544167
0.00442887
0.00338746
0.00251818
0.00191052
0.00163018
0.00172651
0.00204734
0.0024074
0.00271084
0.00284374
0.00280972
0.00273334
0.00267403
0.00258104
0.00244015
0.0023205
0.00232427
0.00262713
0.00392
0.00516264
0.00581692
0.00624084
0.0064587
0.00650036
0.00635894
0.00598147
0.00529716
0.00432063
0.00331397
0.00286986
0.00337742
0.00437903
0.00515913
0.00552279
0.00556636
0.00530852
0.00468728
0.00369256
0.00245162
0.00116507
0.00039433
0.000194689
0.000475593
0.000895586
0.00124455
0.00154563
0.0018017
0.00197701
0.00211578
0.00219711
0.00219008
0.00201211
0.00155811
0.00673889
0.00686124
0.00675735
0.00669053
0.00670518
0.00673461
0.00666233
0.00639771
0.00596994
0.00554504
0.00519681
0.00482091
0.00433639
0.00378529
0.00319423
0.00259377
0.00229383
0.00264514
0.00317132
0.0033616
0.00328221
0.00313744
0.00295223
0.00276895
0.00267716
0.0026693
0.00268084
0.0026515
0.00265033
0.00261971
0.00244252
0.00237301
0.0023422
0.00244657
0.00273861
0.00452808
0.00457247
0.00466077
0.00476504
0.00489047
0.00503865
0.0052197
0.0054617
0.00576624
0.00606504
0.00625099
0.00626566
0.00613326
0.00597228
0.00588995
0.00582808
0.00571858
0.00553108
0.00528761
0.00503225
0.00478169
0.00452369
0.00423895
0.00391149
0.003502
0.00288953
0.00185703
0.0020531
0.0035834
0.00416637
0.00410032
0.00388011
0.00336436
0.00258378
0.00163142
0.00436401
0.00563977
0.00610128
0.00629306
0.00635974
0.00631427
0.0061655
0.00590901
0.00553686
0.00524842
0.0052747
0.00551706
0.00574389
0.00584901
0.00582896
0.00571707
0.00555588
0.00539098
0.00525183
0.0051304
0.00501418
0.00490136
0.00479247
0.00468823
0.00458476
0.00444446
0.00406153
0.00355809
0.00329525
0.00309074
0.00301562
0.00299552
0.00273621
0.00219629
0.00112545
0.00545664
0.00590722
0.00596467
0.00596127
0.00595466
0.00599127
0.00613208
0.00641404
0.00677304
0.00703246
0.00709694
0.00699716
0.00680983
0.00662188
0.00647415
0.00632885
0.00614668
0.00593343
0.00571655
0.00550387
0.00529075
0.00507886
0.00487137
0.00467056
0.00447983
0.00430301
0.00414396
0.00398716
0.00383239
0.00370549
0.00360334
0.00348242
0.00322059
0.00264616
0.00102913
0.00601337
0.00568567
0.0055473
0.00541907
0.00524032
0.00498649
0.00471033
0.00462034
0.00498455
0.00578706
0.00665238
0.00727971
0.00762541
0.00775786
0.0077477
0.00763455
0.0074467
0.0072234
0.0069919
0.00675798
0.00650899
0.00623003
0.00593624
0.00563623
0.0053089
0.00496169
0.00462847
0.00434476
0.00412665
0.00396559
0.00383704
0.00369453
0.00343412
0.00285237
0.00110884
0.00423038
0.00544566
0.00589516
0.00610805
0.00620409
0.00617
0.00596986
0.00560083
0.00523501
0.00522601
0.00566087
0.00627251
0.00683785
0.00727497
0.00756747
0.00772016
0.0077475
0.0076724
0.00752014
0.00731122
0.00706096
0.00678243
0.00648163
0.00615907
0.00582393
0.00548734
0.00515081
0.00481432
0.00448659
0.00420646
0.00400162
0.00384071
0.00361017
0.00308392
0.0014314
0.00575911
0.00599341
0.00600082
0.00597599
0.00592784
0.00584702
0.00570887
0.00547125
0.00513181
0.00492896
0.00522943
0.00594504
0.0067102
0.00732315
0.0077533
0.00803181
0.00819878
0.00828184
0.00828476
0.00820602
0.00805069
0.00783225
0.00757292
0.00728627
0.00697405
0.00663788
0.00627741
0.00589184
0.00547938
0.00503414
0.00455575
0.00406821
0.00357735
0.00290849
0.00143902
0.00506031
0.0053817
0.00554234
0.00563232
0.00567158
0.0056414
0.00553358
0.00535993
0.00514223
0.00493311
0.00491271
0.005278
0.00593032
0.00661246
0.00717677
0.00759672
0.00789851
0.00812201
0.00828416
0.0083795
0.00840201
0.00834998
0.00822635
0.00803866
0.00779888
0.00752
0.00720268
0.00683906
0.00642057
0.00592962
0.00534089
0.00465206
0.00391823
0.00306537
0.00151273
0.0048306
0.00582469
0.00616079
0.00632595
0.00642459
0.00645794
0.00639615
0.0061836
0.00575953
0.00514333
0.00455904
0.00441238
0.00487853
0.00567725
0.00645212
0.00704382
0.00745404
0.00774531
0.00797175
0.00814773
0.00826549
0.0083197
0.00830749
0.00822869
0.00808676
0.00788783
0.00764027
0.00735472
0.00702884
0.0066393
0.00614393
0.00548256
0.0046499
0.00366872
0.00188822
0.00570936
0.00579592
0.00582415
0.00585149
0.00587546
0.00588006
0.00584256
0.0057366
0.00552707
0.00515877
0.0046167
0.00412028
0.00410493
0.00469506
0.00555331
0.00631741
0.00686037
0.00722275
0.00749649
0.00772174
0.00789215
0.00800171
0.00804653
0.00802467
0.00793627
0.00778366
0.00757154
0.00730726
0.00699166
0.00659859
0.00606624
0.00531893
0.00438691
0.00341304
0.00188583
0.0051363
0.00564032
0.00587963
0.00602571
0.00613049
0.00618746
0.00618582
0.00611832
0.00598467
0.00577578
0.00544904
0.00497268
0.0045376
0.00455916
0.00512001
0.00587074
0.00649728
0.00693079
0.00722721
0.00745339
0.00763197
0.00775566
0.00781868
0.00781672
0.00774704
0.00760868
0.00740268
0.00713251
0.00679506
0.00635856
0.00576107
0.00495744
0.00403922
0.00311436
0.0016668
0.00554949
0.00595622
0.00611161
0.00620747
0.00627554
0.00630168
0.00626068
0.0061291
0.00590245
0.00559805
0.00523113
0.00479329
0.00430948
0.00401701
0.00426465
0.00500637
0.00583073
0.00646041
0.00687766
0.00716033
0.00737136
0.00752853
0.00762562
0.00765727
0.00761901
0.00750742
0.00732042
0.00705761
0.00671412
0.00626462
0.00567621
0.00496511
0.0042206
0.00339674
0.00179532
0.00522297
0.00551564
0.00568757
0.00581643
0.00593529
0.00603382
0.00609265
0.00608989
0.00600804
0.0058381
0.00558047
0.00523826
0.0048159
0.0043785
0.00416286
0.00442751
0.00510815
0.00586565
0.00645559
0.0068495
0.00710947
0.00729304
0.00741984
0.00748617
0.00748639
0.0074153
0.00726832
0.00704112
0.00672902
0.00632351
0.00582271
0.00523897
0.0045823
0.00377066
0.00203007
0.00548628
0.00594884
0.00613402
0.0062522
0.00634374
0.00639981
0.00640555
0.00634852
0.00622762
0.00605292
0.00583573
0.00557743
0.00525932
0.00484163
0.00432137
0.00388122
0.00384155
0.00433942
0.00517016
0.00595961
0.00651128
0.00685007
0.00705448
0.00717336
0.0072233
0.00720429
0.00711204
0.00694186
0.00668916
0.00634975
0.00592066
0.00540073
0.0047902
0.00398246
0.00211145
0.00509494
0.00553708
0.00576123
0.00592146
0.0060695
0.00620173
0.00630076
0.00634324
0.00631005
0.00619566
0.00601063
0.00577476
0.00550609
0.00520617
0.00484912
0.00440664
0.00395291
0.0037098
0.00384743
0.00437145
0.00512242
0.00582556
0.00631132
0.00659115
0.00673317
0.0067806
0.00674828
0.00663724
0.00644503
0.00617033
0.0058097
0.00535807
0.00481412
0.00404236
0.00208992
0.00542241
0.0058308
0.00600831
0.00612941
0.00623777
0.00632974
0.00639117
0.00640199
0.00634923
0.00623479
0.0060746
0.00588396
0.00567336
0.00544722
0.00520266
0.00492496
0.00459195
0.00421712
0.00390329
0.0037919
0.0039556
0.00439269
0.00500701
0.00559472
0.00599199
0.00618493
0.00623269
0.00617797
0.00603662
0.00581339
0.00550708
0.00511286
0.00462982
0.00392119
0.00204969
0.00520731
0.00574318
0.00598864
0.00615552
0.00630933
0.00645538
0.00658273
0.00666543
0.0066725
0.0065855
0.00640876
0.00616737
0.00589672
0.00562738
0.00537554
0.00514205
0.00491335
0.00466738
0.00438993
0.0041057
0.00388701
0.00381493
0.00394295
0.00429216
0.00480826
0.0053255
0.00567028
0.0057948
0.00574855
0.00558214
0.00532605
0.00498783
0.00456432
0.00390581
0.00200509
0.00551248
0.00587454
0.00604933
0.0061699
0.00628354
0.00639845
0.00650872
0.00659417
0.0066304
0.006601
0.00650156
0.0063383
0.00612627
0.00588855
0.00565129
0.00543679
0.00525439
0.00509493
0.00493324
0.00474458
0.00452154
0.00428298
0.00407439
0.00395603
0.00398382
0.00418585
0.00452262
0.0048778
0.00511999
0.0051836
0.00507805
0.00483505
0.00446548
0.00381663
0.00189868
0.00578211
0.00607383
0.00624902
0.00638237
0.00651499
0.00664979
0.00677142
0.00684854
0.00685411
0.00677882
0.00662864
0.00641796
0.00616501
0.0058924
0.00562825
0.00540324
0.00524187
0.00514996
0.00510635
0.00507019
0.0050033
0.00488545
0.00471478
0.00450481
0.00428375
0.00409317
0.00397943
0.00397357
0.00406596
0.00418935
0.00424622
0.00416799
0.00392846
0.0034012
0.001778
0.00587092
0.00603897
0.00617664
0.00629092
0.00641655
0.00656494
0.00672416
0.0068528
0.00691144
0.00688489
0.00677586
0.00659584
0.00635989
0.00608741
0.00580575
0.00555092
0.00536235
0.00527216
0.00528627
0.00536474
0.00544069
0.00546316
0.00541118
0.00528267
0.00508407
0.00482542
0.00452339
0.0042059
0.00391563
0.00369588
0.0035503
0.00342461
0.00324983
0.00288894
0.00168741
0.00631215
0.00623426
0.00629375
0.00637584
0.00649062
0.00664683
0.00682401
0.00695781
0.00699645
0.00693232
0.00678001
0.00655607
0.00627583
0.00595725
0.0056291
0.00533538
0.00513144
0.00507697
0.00521526
0.00550652
0.00581133
0.00601659
0.00609456
0.00606145
0.00593695
0.00573182
0.00544922
0.00509034
0.00466504
0.00420909
0.00378589
0.00345012
0.00318904
0.00284516
0.00178166
0.00610744
0.00601912
0.00607763
0.00615316
0.00626273
0.00643319
0.00666677
0.00689503
0.00703585
0.00706094
0.00697929
0.00680708
0.00655714
0.00623892
0.00586563
0.00546615
0.0050973
0.00485193
0.00486206
0.0052108
0.00573534
0.00616466
0.00640785
0.00649742
0.00647388
0.00635935
0.00616093
0.00587398
0.00548718
0.00499696
0.00444467
0.00394151
0.00356458
0.00313801
0.00196285
0.00637192
0.00619144
0.00619751
0.00623438
0.00629887
0.00641784
0.00662062
0.00686058
0.00703288
0.00708469
0.00702136
0.00686344
0.00662758
0.00632495
0.00596408
0.00555571
0.00512253
0.00471406
0.00443503
0.00448118
0.00498814
0.00567465
0.00617011
0.00643046
0.00652709
0.00650681
0.00638607
0.00616382
0.00582908
0.00537641
0.00484385
0.00433324
0.00390828
0.00339219
0.00200457
0.00612528
0.00606511
0.00612511
0.00617471
0.00621987
0.00628516
0.00643629
0.00669985
0.00697468
0.00715023
0.00719733
0.00712899
0.00696251
0.00670998
0.0063799
0.00598002
0.00551992
0.00501813
0.00451455
0.00410947
0.00404185
0.00455298
0.00534587
0.00592251
0.00621088
0.00630806
0.00626929
0.00610853
0.00582408
0.00542182
0.00494355
0.0044647
0.00401774
0.00342652
0.00186835
0.00644903
0.00641759
0.00648987
0.00653969
0.00655834
0.00654264
0.00654457
0.00667025
0.00689909
0.00710322
0.00721039
0.00721149
0.00711814
0.00694262
0.00669368
0.00637707
0.00599686
0.00555517
0.00505802
0.0045206
0.00399764
0.00368115
0.00392141
0.00467584
0.0053654
0.00573793
0.00587039
0.00583376
0.00565335
0.00534678
0.00495098
0.00451756
0.00406536
0.00342713
0.00177863
0.0062524
0.00634891
0.00650324
0.00660224
0.0066505
0.00663525
0.00658691
0.00663776
0.0068492
0.00709338
0.00725935
0.00732021
0.00728378
0.00716218
0.00696515
0.00670046
0.00637436
0.00599128
0.00555477
0.00506744
0.00453205
0.00396761
0.00349251
0.00345371
0.00405857
0.00479139
0.00521712
0.00537293
0.00534114
0.00516195
0.00486887
0.0044998
0.00407059
0.00343018
0.00179157
0.00664373
0.00673544
0.00688971
0.00699702
0.00704903
0.00701327
0.00688111
0.0067702
0.0068547
0.00707468
0.00727702
0.00739233
0.00741279
0.00734778
0.0072074
0.00699985
0.00673109
0.00640639
0.00603002
0.00560458
0.00513007
0.00460156
0.00401542
0.00343533
0.00317799
0.00362048
0.00432327
0.00473964
0.00488653
0.00484804
0.00467096
0.00438818
0.00401327
0.00340854
0.00183748
0.00641244
0.00654358
0.00674767
0.00690384
0.00701571
0.00705108
0.00698513
0.0068792
0.00691053
0.00710353
0.00731905
0.00746742
0.00752835
0.00750616
0.00740881
0.00724367
0.00701674
0.00673459
0.00640288
0.00602287
0.00559757
0.00512635
0.00459493
0.00398561
0.00334787
0.0030367
0.00348457
0.00413103
0.00445064
0.00452172
0.00443156
0.00422063
0.00390148
0.00334347
0.00185259
0.00673501
0.00678987
0.00694439
0.00707815
0.00718183
0.00721744
0.00714811
0.00700294
0.00694966
0.0070874
0.00730527
0.00748739
0.00759358
0.00762062
0.00757403
0.00745948
0.00728296
0.00705164
0.00676502
0.00642053
0.00602442
0.00558948
0.00511064
0.00455678
0.00390005
0.0032147
0.00293886
0.00342256
0.00396754
0.00417647
0.00417061
0.00402702
0.00376148
0.00324562
0.00180502
0.00635997
0.00641877
0.00660209
0.00677301
0.00693436
0.00705535
0.00710107
0.00706863
0.00705066
0.00716191
0.00736408
0.00755731
0.00769113
0.00775379
0.00774666
0.00767301
0.00753695
0.00734388
0.00709582
0.00679023
0.00642966
0.00602315
0.00557652
0.00507396
0.00448403
0.00378947
0.00310946
0.00290619
0.00334034
0.00374294
0.00386113
0.00380071
0.00360221
0.00314676
0.00176069
0.00636831
0.00645296
0.00660646
0.00674816
0.00688266
0.00698271
0.00701499
0.00697272
0.00693313
0.00701617
0.00722114
0.00745271
0.00764301
0.00776808
0.00782433
0.00781286
0.00773646
0.00759869
0.00740386
0.00715269
0.00684495
0.00648622
0.00608095
0.00562237
0.00509458
0.00447979
0.00377179
0.00310569
0.00288107
0.00316193
0.00342606
0.00348675
0.00338606
0.00302798
0.00173141
0.00597561
0.0061207
0.00630356
0.00647581
0.00665925
0.00683244
0.0069535
0.00698564
0.00695749
0.00698545
0.00713943
0.00736366
0.00758035
0.007749
0.00785664
0.0078998
0.0078795
0.0077979
0.00765759
0.00746202
0.00721152
0.00690745
0.00655417
0.00614964
0.00568767
0.00516146
0.00455634
0.00386858
0.00322043
0.00293038
0.00303777
0.00316349
0.003153
0.00290418
0.00172787
0.00600672
0.00607963
0.0061969
0.00631837
0.00646487
0.00662777
0.00676657
0.00682766
0.00680897
0.00680195
0.00691286
0.00713207
0.00738042
0.00760013
0.00776676
0.00787222
0.0079158
0.00789884
0.0078232
0.00769091
0.00750238
0.00725835
0.00696342
0.00661904
0.00622261
0.00577209
0.00526243
0.00467843
0.00401535
0.0033806
0.00304234
0.00300466
0.00298709
0.00279013
0.00172369
0.00593393
0.00590453
0.00598278
0.00608538
0.00623188
0.00643028
0.00664511
0.00679707
0.00683942
0.00681589
0.00684298
0.00698444
0.0072
0.0074251
0.00761955
0.00776547
0.00785717
0.00789343
0.00787445
0.0078004
0.00767109
0.00748649
0.00724938
0.00696389
0.00663033
0.00624691
0.00581311
0.00532104
0.0047508
0.0040974
0.00348713
0.00314514
0.0029921
0.00275111
0.0017315
0.00596332
0.00582956
0.00584527
0.00589131
0.00597406
0.00612012
0.00633097
0.0065387
0.00667165
0.00672394
0.00675936
0.00685558
0.00702631
0.00723219
0.00743113
0.00759841
0.00772301
0.00780018
0.00782746
0.00780318
0.00772637
0.0075961
0.00741359
0.00718202
0.00690273
0.00657473
0.00619847
0.00577091
0.00527542
0.00468254
0.00401359
0.0034554
0.00312731
0.00278503
0.00174829
0.00605194
0.0058978
0.00590062
0.00592678
0.00597261
0.00606552
0.00623676
0.00644117
0.00659636
0.00667691
0.00671659
0.00677493
0.00688883
0.00704966
0.00722595
0.00739103
0.0075291
0.00763127
0.00769176
0.00770627
0.00767309
0.00759057
0.00745819
0.00727699
0.00704697
0.00676764
0.00643974
0.00606008
0.00561409
0.00506995
0.00441125
0.0037615
0.00330754
0.00286821
0.00177564
0.00610511
0.00593808
0.00593849
0.00594374
0.00593666
0.0059405
0.00603524
0.00623304
0.00643593
0.00657895
0.00666392
0.00672605
0.00680402
0.00691454
0.00704788
0.00718625
0.00731438
0.007421
0.00749722
0.007536
0.00753381
0.00748808
0.00739674
0.0072581
0.00707094
0.00683448
0.00654734
0.00620411
0.0057889
0.00526903
0.00462251
0.00394929
0.00344058
0.00293974
0.00178799
0.00635255
0.00620307
0.00622127
0.00622794
0.0061882
0.00609797
0.00605596
0.00615884
0.00633288
0.0064859
0.00659364
0.00666932
0.00673663
0.00681448
0.00690655
0.00700762
0.00710888
0.00720085
0.00727388
0.00731981
0.00733363
0.00731134
0.00724952
0.00714503
0.006995
0.00679668
0.00654557
0.00623286
0.00583926
0.00533178
0.00469652
0.00403812
0.00352745
0.00300094
0.00180564
0.00632074
0.00622916
0.00629422
0.00632634
0.00628734
0.00615009
0.00600341
0.00602161
0.00618301
0.00636359
0.00650678
0.00660946
0.00668615
0.00675285
0.00681797
0.00688491
0.00695255
0.00701631
0.0070689
0.00710322
0.00711414
0.00709723
0.00704842
0.00696369
0.0068388
0.00666858
0.00644504
0.00615489
0.00577495
0.00527559
0.00466222
0.00404837
0.00356337
0.00303097
0.00180873
0.00645191
0.0064253
0.00651932
0.00657268
0.00654635
0.00638956
0.00613941
0.00600208
0.00607047
0.00622944
0.00638332
0.00650491
0.00659698
0.00666915
0.00672838
0.00678011
0.00682685
0.00686786
0.00689899
0.00691541
0.00691341
0.00688942
0.00683986
0.00676089
0.006648
0.00649436
0.00628952
0.00601689
0.00565197
0.0051727
0.00460277
0.00405097
0.00359928
0.00306936
0.00183582
0.00623311
0.006295
0.00643668
0.00653258
0.00655658
0.00645523
0.00621906
0.00599937
0.00597686
0.00610365
0.00626288
0.00640085
0.00650766
0.00658748
0.00664606
0.00668962
0.00672251
0.00674634
0.0067592
0.00675804
0.00674067
0.00670465
0.00664731
0.00656548
0.00645496
0.00630827
0.00611376
0.00585332
0.00550341
0.00505095
0.00453269
0.00404347
0.00362509
0.00310175
0.00186938
0.00613534
0.00631093
0.00648818
0.00661296
0.00667057
0.0066082
0.00638844
0.00608951
0.00592856
0.0059735
0.00611572
0.00626652
0.00639377
0.00649158
0.00656174
0.00660928
0.00663903
0.00665409
0.00665431
0.00663833
0.00660574
0.00655562
0.00648661
0.00639668
0.00628215
0.00613596
0.00594667
0.00569686
0.00536614
0.00494888
0.00448596
0.00405281
0.00366321
0.00314604
0.001913
0.00575802
0.00607891
0.00632194
0.00650321
0.00662929
0.00665294
0.00652428
0.00624331
0.00596836
0.00588652
0.00597134
0.00611445
0.00625423
0.0063697
0.00645629
0.0065164
0.00655386
0.00657181
0.00657039
0.00654887
0.00650786
0.00644766
0.00636819
0.0062687
0.00614627
0.0059948
0.00580414
0.00555923
0.00524417
0.00485903
0.00444374
0.00405654
0.00369383
0.0031887
0.00196522
0.00559109
0.00599752
0.00626825
0.0064788
0.00665053
0.00673946
0.00669227
0.00646857
0.00612621
0.00588068
0.00585028
0.00595547
0.00609748
0.0062284
0.00633238
0.00640793
0.00645774
0.00648476
0.00648899
0.00646992
0.00642857
0.00636582
0.00628235
0.0061784
0.0060514
0.00589606
0.0057034
0.00546076
0.00515672
0.0047962
0.00441737
0.0040652
0.00372454
0.00323086
0.00201577
0.00533573
0.00576827
0.00605805
0.00629899
0.00652814
0.00670477
0.0067713
0.00667501
0.00639389
0.00604013
0.00583583
0.00583725
0.00594809
0.00608235
0.00620074
0.00629263
0.00635761
0.00639747
0.0064115
0.00639934
0.00636212
0.00630101
0.00621727
0.00611167
0.00598215
0.00582415
0.0056298
0.00538848
0.00509228
0.0047496
0.00439693
0.00407053
0.00374791
0.0032659
0.00206262
0.00526836
0.00564233
0.00589762
0.00612604
0.00637627
0.00661561
0.00677547
0.00679577
0.00663991
0.00631804
0.00598184
0.00582237
0.00584478
0.00595166
0.0060704
0.00617264
0.00625108
0.00630445
0.00633076
0.00632947
0.00630125
0.00624706
0.00616828
0.0060655
0.0059369
0.00577832
0.00558266
0.00534112
0.0050493
0.00471935
0.00438669
0.00408017
0.00377082
0.00329535
0.00209887
0.0052063
0.00545877
0.00565227
0.0058489
0.00610769
0.00641131
0.0066709
0.00680384
0.00677523
0.00657313
0.0062404
0.0059502
0.00584195
0.00588138
0.00597705
0.00607651
0.00616038
0.00622166
0.00625641
0.00626389
0.0062441
0.00619748
0.00612526
0.00602738
0.005902
0.00574498
0.00554941
0.0053075
0.00501738
0.00469481
0.00437554
0.00408329
0.00378429
0.00331549
0.00213181
0.00533131
0.00536612
0.00544417
0.00556698
0.00579343
0.00613656
0.00648597
0.00671964
0.00679566
0.00671267
0.00647758
0.00616579
0.00594381
0.00588666
0.00593324
0.00601424
0.00609413
0.00615694
0.00619613
0.00621014
0.006198
0.0061594
0.00609496
0.00600364
0.00588327
0.00572942
0.0055351
0.00529302
0.00500351
0.00468601
0.00437722
0.00409641
0.0038054
0.00334066
0.002162
0.00552324
0.00530534
0.00525961
0.00529605
0.00546018
0.00580752
0.00622448
0.00654386
0.00670463
0.00671492
0.00658933
0.00635508
0.0061114
0.00597804
0.00596203
0.00600751
0.00606901
0.0061216
0.00615642
0.00617007
0.00616058
0.00612695
0.00606847
0.00598337
0.00586873
0.00571946
0.00552792
0.00528675
0.0049978
0.00468384
0.00438257
0.00410927
0.00382193
0.00335594
0.00217736
0.00578779
0.00537656
0.00525764
0.00522118
0.00527941
0.0055304
0.00593211
0.00629856
0.00652558
0.00660955
0.00657089
0.00643052
0.00624024
0.00609277
0.00603561
0.00604614
0.00608354
0.00612055
0.0061455
0.0061535
0.00614186
0.00610907
0.0060533
0.00597219
0.00586226
0.00571783
0.00553074
0.00529353
0.005009
0.00470179
0.00440895
0.00414207
0.00385707
0.00338859
0.00219915
0.00595189
0.00558359
0.00552166
0.00547511
0.00540949
0.00542207
0.00563581
0.00595945
0.00623104
0.00638781
0.0064337
0.00638707
0.0062799
0.00616938
0.00610559
0.00609473
0.00611245
0.00613455
0.00614881
0.00614967
0.00613412
0.0061005
0.00604606
0.00596794
0.00586213
0.00572241
0.00554027
0.00530851
0.00503107
0.0047332
0.00444897
0.00418613
0.00389928
0.00342131
0.00220846
0.00588794
0.00589044
0.00600831
0.00602578
0.00589884
0.00564758
0.00548046
0.00556594
0.00580484
0.0060286
0.00616807
0.00622258
0.00621232
0.00616944
0.00613246
0.00612239
0.00613227
0.0061458
0.00615284
0.00614834
0.00612965
0.00609503
0.00604179
0.005967
0.00586651
0.00573391
0.00556069
0.00533994
0.00507597
0.00479243
0.00451845
0.00425883
0.00396868
0.00347909
0.00223144
0.00566977
0.0061542
0.00647125
0.0066169
0.00659149
0.00633025
0.00585477
0.00545563
0.0054011
0.00558575
0.0057933
0.00594132
0.00602586
0.00606265
0.0060772
0.00609211
0.00611196
0.00612916
0.00613755
0.00613387
0.00611658
0.00608414
0.00603426
0.00596413
0.00586955
0.00574404
0.00557943
0.00536989
0.00512053
0.00485255
0.00458896
0.00433124
0.00403383
0.00352297
0.00223019
0.00550907
0.00620044
0.00663258
0.00692177
0.00709865
0.00709033
0.00676586
0.00607765
0.00544337
0.00528158
0.00542444
0.00561513
0.00576777
0.00587377
0.00594566
0.0060002
0.00604381
0.00607506
0.00609239
0.00609502
0.00608311
0.00605577
0.00601172
0.00594908
0.00586411
0.00575007
0.00559821
0.00540274
0.00516901
0.0049158
0.0046611
0.00440406
0.00409838
0.00356506
0.00223101
0.00550212
0.00602665
0.00642629
0.00676684
0.0070881
0.00731865
0.0073478
0.00698933
0.00615046
0.00544592
0.00528281
0.00539064
0.00554329
0.0056756
0.00578251
0.00587172
0.00594359
0.0059962
0.00602898
0.00604335
0.0060406
0.00602029
0.00598194
0.00592495
0.00584736
0.00574383
0.00560586
0.00542696
0.00521097
0.00497308
0.00472692
0.00447024
0.00415629
0.00360142
0.00223311
0.0055632
0.0058015
0.00609082
0.00638949
0.00673622
0.00706719
0.00727197
0.00723488
0.0067792
0.00597749
0.00549063
0.00541274
0.00548528
0.0055833
0.00567849
0.00576876
0.00584862
0.00591282
0.00595785
0.00598373
0.00599138
0.00598026
0.00594965
0.00589904
0.00582759
0.00573208
0.00560582
0.0054427
0.00524467
0.00502261
0.00478572
0.00453026
0.00420845
0.00363148
0.00223071
0.00559155
0.00566279
0.00590319
0.00619146
0.00654269
0.00687018
0.00707313
0.00708025
0.00683475
0.00632175
0.00584112
0.00564588
0.00561967
0.00564877
0.00569574
0.0057514
0.00580943
0.00586321
0.00590625
0.00593461
0.00594706
0.00594179
0.005917
0.00587112
0.005803
0.00571064
0.00558972
0.00543595
0.00525064
0.00504107
0.00481247
0.00455926
0.00423172
0.00363613
0.0022092
0.00552843
0.00554002
0.00579007
0.00615007
0.00658513
0.00691267
0.00705045
0.00699875
0.0067812
0.00645722
0.00614806
0.0059621
0.0058759
0.00583834
0.00582433
0.00582579
0.00583923
0.0058607
0.00588387
0.00590217
0.00591145
0.00590749
0.00588652
0.00584512
0.00578052
0.00569036
0.00557173
0.00542241
0.00524435