/*--------------------------------*- C++ -*----------------------------------*\
| =========                 |                                                 |
| \\      /  F ield         | OpenFOAM: The Open Source CFD Toolbox           |
|  \\    /   O peration     | Version:  v2006                                 |
|   \\  /    A nd           | Website:  www.openfoam.com                      |
|    \\/     M anipulation  |                                                 |
\*---------------------------------------------------------------------------*/
FoamFile
{
    version     2.0;
    format      ascii;
    class       volScalarField;
    location    "44";
    object      nut;
}
// * * * * * * * * * * * * * * * * * * * * * * * * * * * * * * * * * * * * * //

dimensions      [0 2 -1 0 0 0 0];


internalField   nonuniform List<scalar> 
78750
(
1.3318e-06
1.08013e-07
5.13249e-06
3.45809e-06
8.58379e-07
8.99261e-06
2.79599e-06
1.37645e-05
1.40475e-05
5.046e-06
2.54352e-05
3.22609e-05
4.14464e-05
5.53554e-05
6.51713e-05
7.58389e-05
8.51512e-05
9.31687e-05
0.000100042
0.00010543
0.000109868
0.000113471
0.000116563
0.000119483
0.000122669
0.000126397
0.000130657
0.000135139
0.000139304
0.000142351
0.000142912
0.000139158
0.000128471
9.42393e-05
7.18511e-06
3.84466e-05
0.000327987
0.000358424
0.000570692
0.000647223
0.000676969
0.000548138
0.000504927
0.000415498
0.000375637
0.000328362
0.000308328
0.000293884
0.00029622
0.000308339
0.000329827
0.000351558
0.000367565
0.000375111
0.000375125
0.000369976
0.000360142
0.000344931
0.000324947
0.000302168
0.000280098
0.000262102
0.000249308
0.000241314
0.000238688
0.000239166
0.000223919
0.000164848
8.35601e-05
9.09964e-06
1.72607e-05
2.27883e-05
6.26446e-05
9.7101e-05
0.000129419
0.000164799
0.000203549
0.000244944
0.000287003
0.000323343
0.000355695
0.000383374
0.000400674
0.000407383
0.000418827
0.000441837
0.000470264
0.000497735
0.000516525
0.000518684
0.000503113
0.000475628
0.000443275
0.000410321
0.000378487
0.000348194
0.000319522
0.000291845
0.000261832
0.000228172
0.000194391
0.000166788
0.000149608
0.000119346
9.21243e-06
4.81276e-06
2.0992e-05
2.79256e-05
3.27158e-05
4.4007e-05
6.19242e-05
8.6733e-05
0.000121464
0.00017156
0.000243126
0.000331183
0.000395079
0.000404348
0.000390291
0.000371575
0.00035389
0.000339698
0.000328719
0.000321254
0.000316703
0.000314373
0.000313698
0.00031404
0.000314845
0.000315297
0.000313866
0.000308168
0.000295281
0.000273445
0.000245083
0.000215184
0.000184869
0.000143432
8.03973e-05
7.69483e-06
6.51967e-06
0.000114535
4.3432e-05
3.95432e-05
5.47951e-05
8.93685e-05
0.000145492
0.000225891
0.000320628
0.000394276
0.000433352
0.000456347
0.000469883
0.000471341
0.000461935
0.000445932
0.000428419
0.00041326
0.000402219
0.000394116
0.000386894
0.000379643
0.000372008
0.000363962
0.000355673
0.000347272
0.000338386
0.000328021
0.000314627
0.000294906
0.000260783
0.000202944
0.000131793
7.13805e-05
8.44733e-06
3.22876e-06
1.96604e-05
3.30056e-05
4.34719e-05
6.42894e-05
0.000103334
0.000150697
0.000199102
0.000246891
0.000291285
0.000328767
0.000356522
0.000373642
0.000380614
0.000378515
0.000368627
0.000352456
0.000332113
0.000309967
0.000288192
0.000268526
0.000251765
0.000238163
0.000227612
0.000219489
0.000213024
0.000207431
0.000201939
0.000195534
0.000186286
0.000170774
0.000146992
0.000121041
9.1041e-05
9.82249e-06
1.58569e-06
9.40437e-06
1.0359e-05
2.9377e-05
4.79427e-05
6.77055e-05
8.92026e-05
0.000112735
0.000137438
0.000162037
0.000184768
0.000203999
0.000218539
0.000227654
0.000230985
0.000228654
0.000221365
0.000210414
0.000197588
0.000184806
0.000173649
0.000165034
0.000159138
0.000155431
0.000153097
0.000151397
0.000149862
0.000148274
0.000146408
0.000143511
0.000138531
0.000134654
0.000142301
0.000143003
8.57584e-06
3.00237e-06
4.69918e-05
4.29067e-05
3.00927e-05
1.92326e-05
2.21594e-05
3.22035e-05
4.66006e-05
6.37599e-05
8.25795e-05
0.000102204
0.000121389
0.000138555
0.000152342
0.000162044
0.000167641
0.000169654
0.000169115
0.000167534
0.00016665
0.0001679
0.000171885
0.000177948
0.000184126
0.0001878
0.000186554
0.000178847
0.000165022
0.000149013
0.000133434
0.000107755
6.77662e-05
6.33818e-05
0.000114419
7.40699e-06
1.948e-06
1.454e-05
2.79636e-05
1.96722e-05
1.65501e-05
1.75439e-05
2.18734e-05
2.95185e-05
4.07581e-05
5.5988e-05
7.60476e-05
0.000101697
0.000130576
0.000157122
0.000176675
0.000188817
0.000196526
0.000203786
0.000214188
0.000230312
0.000233315
0.000229922
0.000226882
0.000224297
0.000222173
0.000220469
0.000219132
0.000218124
0.000217435
0.000216813
0.000136525
5.00982e-05
4.09661e-05
9.98792e-05
5.47457e-06
3.11459e-06
1.22063e-05
2.41796e-05
1.94485e-05
1.09917e-05
8.25999e-06
1.00197e-05
1.54727e-05
2.49758e-05
3.93188e-05
6.00725e-05
9.45012e-05
0.000156467
0.000214111
0.000216306
0.000217926
0.000219019
0.000219658
0.000219922
0.000219892
0.000219636
0.000219209
0.000218647
0.000217963
0.000217157
0.000216223
0.000215157
0.000213963
0.00021267
0.000134881
6.14893e-05
3.79726e-05
5.06051e-05
0.000162902
4.96996e-06
3.84479e-06
1.00506e-05
1.7059e-05
7.99094e-06
4.51611e-06
3.65825e-06
4.93709e-06
1.00199e-05
1.89154e-05
3.43051e-05
6.28525e-05
0.000120764
0.000203145
0.000206704
0.000209766
0.000212444
0.000214797
0.000216834
0.000218525
0.000219827
0.000220698
0.000221108
0.000221073
0.000220601
0.000219695
0.000218346
0.000216528
0.00021421
0.000202407
0.000129482
6.31272e-05
3.92105e-05
4.93028e-05
0.000104402
3.61119e-06
4.99243e-06
8.8642e-06
4.58314e-06
9.06515e-07
1.3524e-07
1.34686e-06
1.67394e-06
1.15043e-05
2.41447e-05
4.15059e-05
6.40197e-05
9.20969e-05
0.000125638
0.000161293
0.000193299
0.00020709
0.000209934
0.000212589
0.000214996
0.000217062
0.000210433
0.000196971
0.000183117
0.00016972
0.000156864
0.000144128
0.000130565
0.000114333
9.34186e-05
6.97421e-05
5.10332e-05
4.57124e-05
6.37065e-05
6.17435e-05
4.08252e-06
5.64894e-06
3.14394e-06
9.0593e-07
1.17441e-06
4.09054e-07
2.2972e-06
2.02019e-06
2.25662e-05
3.46269e-05
4.5282e-05
5.42638e-05
6.37713e-05
7.49653e-05
8.78272e-05
0.000101692
0.00011652
0.000131943
0.000146608
0.000158723
0.000166677
0.000169571
0.000167559
0.000161192
0.000151694
0.000140661
0.000129079
0.000117108
0.000103753
8.68988e-05
6.62852e-05
4.83441e-05
4.15312e-05
5.1735e-05
5.05808e-05
3.40432e-06
4.4633e-06
6.31944e-08
2.70942e-06
1.12962e-06
3.64511e-06
4.06169e-07
1.33979e-06
1.3024e-06
3.78226e-06
9.11486e-06
1.75756e-05
2.59971e-05
3.44977e-05
4.36669e-05
5.31547e-05
6.25962e-05
7.23588e-05
8.27265e-05
9.35485e-05
0.000104171
0.000113744
0.000121227
0.000125327
0.000124476
0.000118091
0.000107134
9.31677e-05
7.77848e-05
6.25772e-05
4.92501e-05
4.00636e-05
3.88976e-05
5.18678e-05
4.18286e-05
4.11433e-06
2.89039e-06
7.95536e-06
8.80426e-06
9.91008e-06
6.08438e-06
4.47753e-06
1.5469e-06
4.39268e-06
1.24258e-06
1.31213e-06
2.54742e-06
3.19608e-07
2.34422e-06
2.26576e-06
1.1855e-05
2.2971e-05
3.33298e-05
4.21113e-05
4.98767e-05
5.78161e-05
6.67762e-05
7.66705e-05
8.63433e-05
9.41209e-05
9.87289e-05
9.96562e-05
9.64155e-05
8.78247e-05
7.30342e-05
5.50324e-05
4.08728e-05
3.65247e-05
4.62525e-05
3.91967e-05
3.39631e-06
2.15074e-06
1.82361e-05
2.50205e-05
3.56189e-05
5.25339e-05
7.01082e-05
6.22335e-05
4.53489e-05
3.27958e-05
2.29746e-05
1.84666e-05
1.30866e-05
8.62751e-06
6.03698e-06
4.19468e-06
6.00704e-06
1.0691e-05
1.74114e-05
2.50182e-05
3.24776e-05
3.97252e-05
4.74046e-05
5.59449e-05
6.54675e-05
7.45034e-05
7.85852e-05
7.41618e-05
6.4347e-05
5.34254e-05
4.30458e-05
3.52739e-05
3.36142e-05
4.2292e-05
3.10425e-05
4.23148e-06
2.69104e-06
2.00131e-05
4.60552e-05
8.22844e-05
0.000125188
0.000161684
0.000184778
0.000190828
0.000164991
0.000114043
7.71354e-05
6.11946e-05
5.41645e-05
4.68493e-05
3.72422e-05
2.82325e-05
2.25239e-05
2.09196e-05
2.30955e-05
2.65275e-05
2.86099e-05
2.96378e-05
3.02812e-05
3.0932e-05
3.25349e-05
3.87087e-05
5.87384e-05
9.52753e-05
0.000101442
7.5852e-05
4.95131e-05
3.95785e-05
5.04184e-05
7.22369e-05
4.20514e-06
3.2928e-06
1.58423e-05
3.26444e-05
5.37004e-05
8.90774e-05
0.000132528
0.000143238
0.00012349
9.83299e-05
7.82738e-05
6.51726e-05
6.06873e-05
6.65746e-05
8.15177e-05
9.5621e-05
8.94038e-05
6.61638e-05
4.57769e-05
3.34652e-05
2.6819e-05
2.32065e-05
2.2863e-05
3.0718e-05
5.24426e-05
5.48692e-05
2.85613e-05
1.9071e-05
1.88074e-05
2.36869e-05
3.10122e-05
3.78591e-05
4.42325e-05
5.52421e-05
2.45877e-05
4.52035e-06
5.98752e-06
2.50472e-05
5.94319e-05
0.000109266
0.000143068
0.000136854
0.000112177
8.66086e-05
6.60826e-05
5.00684e-05
3.89034e-05
3.61595e-05
4.76148e-05
7.81355e-05
0.000128974
0.000170473
0.000174065
0.000161638
0.000120895
7.19521e-05
3.81514e-05
1.47746e-05
3.87758e-06
1.71826e-06
5.20717e-06
1.64734e-05
3.02023e-05
3.13127e-05
3.04213e-05
2.9498e-05
2.99908e-05
3.37806e-05
4.03042e-05
2.70886e-05
2.70537e-06
8.77342e-06
9.40315e-05
0.000120773
0.000102972
9.37628e-05
8.22323e-05
7.0145e-05
6.5408e-05
6.99637e-05
7.97301e-05
8.51661e-05
8.25816e-05
7.26542e-05
5.54976e-05
3.7255e-05
2.665e-05
3.24605e-05
0.000100592
0.000112785
0.000138693
0.000156371
0.000135061
0.000100125
6.92575e-05
5.84454e-05
5.83639e-05
5.23245e-05
4.06119e-05
2.99457e-05
2.20773e-05
1.81748e-05
1.86747e-05
2.40162e-05
2.60383e-05
4.70627e-06
7.4829e-06
5.17323e-05
0.000115197
0.00013015
0.000125816
0.00011551
0.000106577
0.000100631
9.65409e-05
9.6148e-05
9.82978e-05
9.42453e-05
8.09424e-05
7.40676e-05
8.09738e-05
9.08575e-05
9.05385e-05
8.63979e-05
8.50239e-05
8.44278e-05
8.11327e-05
7.38209e-05
6.33656e-05
4.99344e-05
3.135e-05
1.34649e-05
9.78045e-06
1.2937e-05
1.58709e-05
6.56722e-05
7.01669e-05
3.47985e-05
1.90115e-05
1.60204e-05
2.83123e-06
6.59322e-06
3.7753e-05
0.000123264
0.000140007
0.000127879
0.000108854
8.93634e-05
7.10625e-05
5.48075e-05
4.57148e-05
4.86319e-05
6.68458e-05
9.89447e-05
0.000125921
0.000140902
0.000153318
0.000172183
0.000209745
0.000265701
0.00027268
0.000269398
0.000266184
0.000263061
0.000260053
0.000239435
9.32456e-05
4.14906e-05
3.90553e-05
5.46889e-05
5.04963e-05
4.94114e-05
5.21515e-05
7.85475e-05
0.000113508
1.96209e-06
7.94035e-06
5.99839e-05
0.000153675
0.000163664
0.000145221
0.000118491
0.000100546
0.000101495
0.000121318
0.000147511
0.00016064
0.000150629
0.000127834
0.000112424
0.00011324
0.000130746
0.000164464
0.000214283
0.000271256
0.000282881
0.000277144
0.000271307
0.000265454
0.000259658
0.000254028
0.000248697
0.000243816
0.000180603
0.000139135
0.000115913
9.36225e-05
7.48141e-05
6.96079e-05
7.51861e-05
1.7955e-06
8.08042e-06
5.94184e-05
0.000129852
0.000123827
0.000102059
7.49267e-05
5.32226e-05
4.21617e-05
4.293e-05
5.73554e-05
9.03262e-05
0.00014693
0.000221321
0.000297993
0.000337526
0.000334983
0.000330691
0.000325498
0.000320014
0.000314374
0.000308272
0.000301319
0.000293859
0.000242633
0.000185933
0.000147869
0.000126794
0.000119328
0.000119844
0.000117004
0.000101839
8.2142e-05
6.96003e-05
5.5513e-05
1.93303e-06
6.76785e-06
4.65992e-05
0.000127301
0.000141638
0.000133887
0.000117739
9.62126e-05
7.32316e-05
5.72348e-05
5.45144e-05
6.62878e-05
9.10303e-05
0.000124442
0.000161224
0.000199031
0.000238558
0.000279298
0.000313909
0.000325499
0.000301653
0.00025831
0.000223108
0.000206976
0.000205952
0.000207267
0.000194374
0.000163997
0.00012998
0.000103259
8.7508e-05
8.12653e-05
7.87584e-05
7.21565e-05
4.66441e-05
2.48797e-06
8.0098e-06
5.50882e-05
0.000137812
0.000142991
0.000125743
0.000103915
8.30916e-05
6.47427e-05
5.06195e-05
4.3586e-05
4.72636e-05
6.45082e-05
9.79523e-05
0.000149357
0.000216928
0.00029158
0.000347331
0.000349118
0.000349158
0.000347421
0.000343996
0.000339146
0.000327408
0.000286142
0.000248625
0.000219322
0.000195884
0.000174246
0.000149826
0.000120734
9.27416e-05
7.40297e-05
6.06723e-05
3.41916e-05
2.50119e-06
7.58931e-06
6.04315e-05
0.000135521
0.000131651
0.000114901
9.80477e-05
8.59917e-05
7.77741e-05
7.03288e-05
6.36043e-05
6.16367e-05
6.87708e-05
8.90003e-05
0.000126026
0.000182059
0.000254055
0.000324323
0.000345602
0.000349133
0.000351186
0.00035166
0.000350523
0.000347828
0.000343709
0.000338392
0.000316544
0.000276621
0.000236583
0.000197912
0.000159515
0.000124333
0.000100173
8.51017e-05
4.5011e-05
2.62745e-06
7.16129e-06
4.44176e-05
0.000129126
0.000152639
0.000150139
0.000137267
0.000116624
9.09966e-05
6.66819e-05
4.93942e-05
4.07507e-05
4.11287e-05
5.1508e-05
7.43262e-05
0.000115042
0.000180687
0.000269135
0.000337171
0.000342233
0.000346117
0.000348695
0.000349879
0.000349623
0.000347921
0.000344827
0.000340442
0.000334904
0.000328402
0.000285641
0.000231799
0.000173882
0.000129464
0.000110197
8.17274e-05
3.26872e-06
8.08736e-06
6.50634e-05
0.000147374
0.000140595
0.000119201
0.000100358
9.08102e-05
8.89829e-05
8.65556e-05
7.47015e-05
5.85821e-05
4.87443e-05
4.89873e-05
6.05092e-05
8.72694e-05
0.000137907
0.000221653
0.000320002
0.000331582
0.000336681
0.000340491
0.000342922
0.000343916
0.000343445
0.000341506
0.000338126
0.000333369
0.000327344
0.000300374
0.000239993
0.000172214
0.000122985
0.000107585
9.64349e-05
3.26485e-06
7.3688e-06
5.02466e-05
0.000139048
0.000150402
0.000141515
0.00012341
0.000103644
8.9895e-05
8.40151e-05
8.13566e-05
7.38503e-05
6.13838e-05
5.3506e-05
5.56922e-05
7.00363e-05
0.000101584
0.000158831
0.000244658
0.000325335
0.000330545
0.000334602
0.000337385
0.000338794
0.000338753
0.000337199
0.000334091
0.000329409
0.000323166
0.000296778
0.00023842
0.000177915
0.000137478
0.000128277
0.000109145
2.89124e-06
7.86714e-06
5.83337e-05
0.000148584
0.00015595
0.000142249
0.000123043
0.000104916
9.07399e-05
8.16111e-05
7.68792e-05
7.30932e-05
6.58584e-05
5.67245e-05
5.21972e-05
5.62411e-05
7.251e-05
0.000107821
0.000170496
0.00025745
0.000323767
0.000328642
0.000332222
0.000334407
0.000335105
0.000334225
0.000331677
0.000327376
0.000321245
0.000299755
0.000255525
0.00021735
0.00020093
0.000207731
0.000144161
3.11038e-06
7.50732e-06
5.43184e-05
0.00014316
0.00014734
0.000132883
0.000115475
0.000102564
9.54492e-05
9.18611e-05
8.91129e-05
8.53421e-05
7.88013e-05
6.92781e-05
6.09277e-05
5.84863e-05
6.35972e-05
7.94661e-05
0.000112899
0.000170359
0.000246775
0.000313375
0.000326819
0.000329718
0.000331212
0.00033119
0.000329535
0.000326115
0.000320777
0.000308094
0.000289928
0.000280454
0.000274852
0.000256146
0.000173792
3.50976e-06
7.72114e-06
5.47656e-05
0.000146931
0.000155957
0.000143682
0.00012376
0.000104185
9.03509e-05
8.34894e-05
8.23428e-05
8.48041e-05
8.76388e-05
8.57322e-05
7.61168e-05
6.46161e-05
5.89681e-05
5.96624e-05
6.56258e-05
8.34414e-05
0.000120906
0.000181426
0.000251647
0.000304088
0.000324023
0.000325168
0.000324701
0.000322517
0.000318468
0.000312373
0.000304004
0.000293094
0.000279318
0.00026224
0.000168562
3.64794e-06
7.4197e-06
5.10236e-05
0.000141342
0.000154421
0.000144209
0.000128475
0.000114525
0.000104401
9.72468e-05
9.20693e-05
8.87461e-05
8.74427e-05
8.74453e-05
8.59378e-05
7.93716e-05
6.96777e-05
6.42402e-05
6.65381e-05
7.10554e-05
7.61482e-05
9.13262e-05
0.000124165
0.000176426
0.000235138
0.000277631
0.000296739
0.000301004
0.000299938
0.000299279
0.000299618
0.000290333
0.000278278
0.000263037
0.000148393
3.61148e-06
7.56043e-06
4.98282e-05
0.000140385
0.000149885
0.000135509
0.000114642
9.72944e-05
8.76495e-05
8.50451e-05
8.71085e-05
9.12982e-05
9.5387e-05
9.80602e-05
9.91384e-05
9.81936e-05
9.34493e-05
8.48341e-05
7.74011e-05
7.65625e-05
8.11578e-05
8.31314e-05
8.40087e-05
9.41936e-05
0.000120633
0.000165306
0.000217498
0.000256433
0.000274966
0.000282232
0.000287253
0.000282396
0.000271595
0.00025775
0.00013688
3.54321e-06
7.38396e-06
4.64941e-05
0.000136395
0.000154538
0.000144713
0.000126764
0.000110542
0.000100353
9.5365e-05
9.32831e-05
9.26581e-05
9.29418e-05
9.37239e-05
9.45035e-05
9.51019e-05
9.57293e-05
9.5957e-05
9.44227e-05
9.11987e-05
8.93672e-05
9.1326e-05
9.33252e-05
8.91514e-05
8.44299e-05
8.91674e-05
0.000108772
0.000145263
0.000191697
0.000232102
0.000259893
0.000277422
0.000267998
0.000255718
0.000117697
3.46753e-06
7.49103e-06
4.48671e-05
0.000131476
0.000145654
0.000129627
0.000105909
8.83671e-05
8.15446e-05
8.37857e-05
9.18202e-05
0.000101717
0.000109849
0.000114433
0.000115657
0.000114541
0.000112404
0.000110787
0.000110633
0.000111245
0.000110819
0.000108568
0.000105589
0.000102654
9.78543e-05
9.00324e-05
8.42962e-05
8.66798e-05
0.000100074
0.000125415
0.000159225
0.000190882
0.000209352
0.000201454
9.147e-05
3.28663e-06
7.64991e-06
4.67098e-05
0.000137114
0.000150486
0.000133352
0.000108748
9.12516e-05
8.45272e-05
8.60319e-05
9.24028e-05
0.000100691
0.000108481
0.000114094
0.000116876
0.000117172
0.000115942
0.000114538
0.000114653
0.000117674
0.000123532
0.00013012
0.000134125
0.000133175
0.000127304
0.000117975
0.000106582
9.51278e-05
8.72187e-05
8.62724e-05
9.3779e-05
0.000108792
0.000126123
0.000132126
6.74939e-05
3.08103e-06
7.62977e-06
4.52928e-05
0.000133854
0.000145791
0.000123184
9.5111e-05
7.90454e-05
7.62848e-05
8.32419e-05
9.63732e-05
0.000111885
0.000125959
0.000135956
0.000141051
0.000141722
0.000138681
0.000132721
0.000126189
0.00012315
0.000126433
0.000135677
0.000147762
0.000157934
0.000161377
0.000155395
0.000140901
0.000121872
0.000103422
9.02361e-05
8.55891e-05
9.07012e-05
0.000103411
0.00011191
5.28408e-05
2.92629e-06
7.89921e-06
4.86325e-05
0.000139698
0.000143555
0.000115328
8.6614e-05
7.32973e-05
7.35614e-05
8.29053e-05
9.75545e-05
0.000113855
0.000128307
0.000138439
0.000143565
0.000144474
0.00014154
0.000133491
0.00012162
0.000113968
0.000118127
0.000135235
0.000161143
0.000187786
0.000205833
0.000208519
0.000194594
0.000168625
0.000138585
0.000112569
9.69345e-05
9.6756e-05
0.00011603
0.000141248
5.94825e-05
3.08692e-06
7.69453e-06
4.51283e-05
0.000131651
0.000135274
0.000105354
7.70155e-05
6.58121e-05
6.87835e-05
8.15939e-05
0.00010068
0.000122329
0.000142562
0.000157619
0.000164784
0.000163377
0.000154481
0.000138551
0.000116616
9.80349e-05
9.5249e-05
0.000112109
0.000145911
0.000186876
0.000220942
0.000238028
0.000235148
0.000214359
0.000181217
0.000145158
0.000118112
0.000111075
0.000135098
0.00018557
8.30106e-05
3.39537e-06
7.83251e-06
4.49935e-05
0.000127891
0.000130222
0.00010067
7.19191e-05
6.02092e-05
6.28932e-05
7.56235e-05
9.44495e-05
0.000115458
0.000135657
0.000153088
0.000165963
0.000172201
0.000170026
0.000158283
0.000135528
0.00010503
8.32001e-05
8.36656e-05
0.000107751
0.000150893
0.000196408
0.000225279
0.000231623
0.00021839
0.000191537
0.000160377
0.000137406
0.00013482
0.000162203
0.000201683
8.80034e-05
3.46639e-06
7.62785e-06
4.24946e-05
0.000122061
0.000126608
9.93201e-05
6.9461e-05
5.56445e-05
5.71248e-05
7.07987e-05
9.39425e-05
0.000121881
0.0001487
0.000170034
0.000184101
0.000190587
0.000189279
0.000179573
0.000160557
0.000131025
9.5202e-05
7.03912e-05
6.95073e-05
9.2955e-05
0.000137671
0.000183976
0.000207161
0.000205297
0.000188008
0.000166265
0.000151471
0.000153254
0.000173953
0.000186892
7.62992e-05
3.23478e-06
7.87231e-06
4.48773e-05
0.000125095
0.000132022
0.000108387
7.62519e-05
5.67376e-05
5.3081e-05
6.19321e-05
8.06299e-05
0.000106198
0.000134873
0.000162875
0.000187085
0.000205146
0.00021526
0.000215931
0.000205679
0.000182996
0.000146618
0.000101669
6.69367e-05
5.69852e-05
7.08985e-05
0.000105498
0.000146794
0.000170511
0.000173701
0.000167334
0.000162198
0.000165288
0.000174733
0.000168336
6.594e-05
3.08186e-06
7.77896e-06
4.60018e-05
0.000129145
0.000136701
0.000114238
8.14642e-05
5.88206e-05
5.24256e-05
6.00705e-05
7.97588e-05
0.000108271
0.000140261
0.000170621
0.000196436
0.000216634
0.000230798
0.000238237
0.000237449
0.000226261
0.000201944
0.000161772
0.000110112
6.67713e-05
4.88304e-05
5.54374e-05
8.25031e-05
0.000120021
0.000146126
0.000156309
0.000159925
0.000163805
0.000166732
0.000153402
6.07176e-05
3.10389e-06
8.10458e-06
5.11138e-05
0.000138235
0.000146332
0.00012688
9.41374e-05
6.5741e-05
5.30773e-05
5.53535e-05
7.03518e-05
9.59492e-05
0.000128501
0.000163265
0.00019615
0.00022461
0.000247382
0.000263627
0.000272095
0.000270791
0.000257178
0.000228066
0.000180173
0.000118678
6.64554e-05
4.26119e-05
4.49166e-05
6.7462e-05
0.000101843
0.000129557
0.000145317
0.000153956
0.000156301
0.000141314
5.47708e-05
3.18212e-06
8.03996e-06
5.43986e-05
0.000145711
0.000151138
0.00013023
9.89644e-05
7.18722e-05
5.80939e-05
5.86988e-05
7.28501e-05
9.88329e-05
0.000132556
0.000168679
0.000203083
0.000233714
0.000259998
0.000281773
0.000298051
0.000305211
0.000295744
0.000281737
0.000244738
0.000185445
0.000113915
5.85595e-05
3.61715e-05
4.01831e-05
6.46595e-05
0.000100488
0.000127711
0.000142802
0.000147782
0.00013291
4.88733e-05
3.20785e-06
8.31414e-06
5.96033e-05
0.000153474
0.000157392
0.000137061
0.000106139
7.72612e-05
6.04012e-05
5.76083e-05
6.82383e-05
9.12251e-05
0.000123611
0.000160645
0.000197837
0.000232573
0.000264438
0.000293753
0.000316079
0.000314045
0.000305654
0.000295723
0.000284435
0.000241948
0.000171964
9.71948e-05
4.75534e-05
3.10809e-05
3.84939e-05
6.6586e-05
0.000105248
0.000131027
0.000139856
0.000123617
4.2445e-05
3.12677e-06
8.17387e-06
6.16915e-05
0.000154731
0.000155305
0.000133635
0.000106026
8.25324e-05
6.81052e-05
6.47586e-05
7.35949e-05
9.45489e-05
0.000125002
0.000160361
0.000196363
0.00023056
0.000262419
0.000292129
0.000316512
0.000321865
0.000314605
0.000305824
0.000295622
0.000274147
0.000219936
0.000148729
8.06941e-05
4.05136e-05
2.95774e-05
3.9729e-05
7.02868e-05
0.000107776
0.000125807
0.000112742
3.82949e-05
3.05112e-06
8.17106e-06
6.00627e-05
0.000154177
0.000155736
0.00013479
0.000106994
8.23915e-05
6.66675e-05
6.17145e-05
6.82376e-05
8.65692e-05
0.000115218
0.000150333
0.000187437
0.000223237
0.000255991
0.000285054
0.000309727
0.00032631
0.000323172
0.000315882
0.000307175
0.000291349
0.00025123
0.000196664
0.000132262
7.30989e-05
3.92348e-05
3.0799e-05
4.20056e-05
7.2563e-05
0.000103051
0.00010075
3.62994e-05
3.00114e-06
7.96491e-06
5.8181e-05
0.000152065
0.000152962
0.000131271
0.000107246
8.82207e-05
7.45222e-05
6.74253e-05
6.98489e-05
8.37363e-05
0.000108734
0.000141782
0.000178476
0.000215089
0.000249196
0.000279331
0.000304523
0.00032334
0.000330332
0.000324535
0.00031736
0.000305893
0.000276649
0.000236431
0.000186062
0.000127154
7.34094e-05
4.26386e-05
3.56208e-05
4.89271e-05
7.96883e-05
9.35826e-05
3.76552e-05
2.99508e-06
7.88625e-06
5.36514e-05
0.000148164
0.000147956
0.000122435
9.71366e-05
8.0905e-05
7.12273e-05
6.58777e-05
6.69195e-05
7.77128e-05
9.99267e-05
0.000132138
0.000170221
0.00020955
0.000246643
0.00027944
0.000306949
0.000327809
0.000335554
0.000331265
0.000325636
0.000318705
0.000299615
0.000268988
0.000230079
0.000181767
0.000125762
7.59181e-05
4.86516e-05
4.57205e-05
6.63569e-05
9.33512e-05
4.25394e-05
2.98794e-06
7.81802e-06
5.13826e-05
0.000141789
0.000139107
0.000109925
8.59781e-05
7.57002e-05
7.32749e-05
7.22314e-05
7.24651e-05
7.90398e-05
9.60264e-05
0.000123971
0.000160044
0.000199733
0.000238852
0.000274596
0.000305588
0.000329757
0.000338054
0.000335136
0.000330932
0.000325458
0.000317994
0.000294411
0.000262907
0.000223553
0.000174361
0.000119193
7.52203e-05
5.68281e-05
6.61207e-05
9.91377e-05
5.16069e-05
3.00126e-06
7.68528e-06
4.62766e-05
0.000130856
0.000126986
9.52346e-05
7.06713e-05
6.21483e-05
6.40514e-05
6.98161e-05
7.5534e-05
8.30437e-05
9.7323e-05
0.000121405
0.000154512
0.000192964
0.000232317
0.000269116
0.000301481
0.000327348
0.000338167
0.000336432
0.000333479
0.000329305
0.000323936
0.000307989
0.000281798
0.000248857
0.000206821
0.000154727
0.000103418
7.33104e-05
7.34159e-05
0.000105317
6.19955e-05
3.02993e-06
7.70678e-06
4.55012e-05
0.000125848
0.000121082
8.84297e-05
6.40845e-05
5.65485e-05
6.02494e-05
6.9112e-05
7.84669e-05
8.78125e-05
0.000100746
0.000121043
0.000149711
0.000184638
0.000222026
0.000258138
0.000290277
0.000316686
0.000334544
0.000335286
0.000333407
0.00033038
0.00032616
0.000309028
0.000286215
0.000257598
0.000220513
0.000172847
0.000121674
8.694e-05
8.21958e-05
0.000110287
6.70303e-05
3.07658e-06
7.67221e-06
4.45023e-05
0.000122173
0.000116241
8.2627e-05
5.76554e-05
4.99888e-05
5.45995e-05
6.64841e-05
8.05955e-05
9.39304e-05
0.000107814
0.000125807
0.000150214
0.000180514
0.000213983
0.000247225
0.000277346
0.000302132
0.000319799
0.000329422
0.000331127
0.00032615
0.000315217
0.000299262
0.000278511
0.00025203
0.000217535
0.000173368
0.000126018
9.34753e-05
8.92213e-05
0.000115232
6.34675e-05
3.09765e-06
7.88735e-06
4.87985e-05
0.000126709
0.000119181
8.54264e-05
5.84902e-05
4.86653e-05
5.18884e-05
6.38144e-05
7.9894e-05
9.63973e-05
0.00011265
0.000130514
0.000152034
0.000177634
0.000205926
0.000234598
0.000261323
0.000284019
0.000300806
0.000310426
0.000312602
0.000307935
0.000297423
0.000281934
0.000261677
0.000235774
0.000202397
0.000161316
0.000120244
9.45784e-05
9.51495e-05
0.000121046
5.60494e-05
3.12775e-06
7.93767e-06
5.25153e-05
0.000131607
0.000123213
8.98309e-05
6.08323e-05
4.83067e-05
4.97334e-05
6.16499e-05
7.98697e-05
9.9574e-05
0.000118334
0.000136791
0.000156568
0.000178317
0.000201357
0.000224322
0.000245831
0.000264534
0.00027893
0.000287599
0.00028969
0.000285196
0.000274755
0.000259082
0.000238377
0.000212041
0.000179405
0.000142686
0.000110535
9.44571e-05
0.000102009
0.00012596
4.79974e-05
3.133e-06
8.15648e-06
5.9615e-05
0.00014108
0.000133034
0.000101526
6.95154e-05
5.18171e-05
4.87785e-05
5.749e-05
7.46101e-05
9.56234e-05
0.000116892
0.000137371
0.000157646
0.000178115
0.000198328
0.000217384
0.000234508
0.000249044
0.000260139
0.00026668
0.000267618
0.000262438
0.0002513
0.000234673
0.000212874
0.000186089
0.000155415
0.000124993
0.000102513
9.58325e-05
0.000109723
0.000128155
4.20757e-05
3.17913e-06
8.14329e-06
6.42383e-05
0.000146566
0.000139376
0.000110942
7.90593e-05
5.7795e-05
5.06526e-05
5.60594e-05
7.15599e-05
9.3025e-05
0.000115942
0.000137839
0.000158344
0.000177604
0.00019536
0.000211072
0.000224401
0.000235227
0.000243279
0.000247843
0.000247834
0.000242298
0.000230828
0.000213521
0.000190803
0.000163793
0.000135334
0.000110712
9.6291e-05
9.74963e-05
0.000116116
0.000127263
3.77977e-05
3.23628e-06
8.19037e-06
6.81668e-05
0.00015196
0.000147398
0.000123579
9.24379e-05
6.64631e-05
5.339e-05
5.34543e-05
6.48759e-05
8.46187e-05
0.000108384
0.000132557
0.000155277
0.000175682
0.000193108
0.00020705
0.000217499
0.000224896
0.000229646
0.000231631
0.000230008
0.000223626
0.000211625
0.000193768
0.000170694
0.000144489
0.000119235
0.000100303
9.26239e-05
0.0001001
0.000121287
0.000124642
3.47725e-05
3.3105e-06
8.03344e-06
6.89353e-05
0.000153986
0.00015226
0.000133617
0.000107488
8.02862e-05
6.10947e-05
5.45362e-05
6.03669e-05
7.65635e-05
9.93611e-05
0.000124456
0.000148859
0.00017087
0.000189264
0.000203152
0.000212406
0.000217735
0.000220152
0.00022019
0.00021739
0.000210544
0.000198411
0.000180378
0.00015712
0.000131349
0.000107964
9.24475e-05
8.90576e-05
0.000100789
0.000123367
0.00012117
3.26539e-05
3.39932e-06
7.96342e-06
6.88335e-05
0.000157262
0.00015717
0.000141246
0.00011994
9.51477e-05
7.17892e-05
5.7856e-05
5.63874e-05
6.68392e-05
8.69116e-05
0.000112473
0.000139103
0.000163613
0.000183967
0.000198866
0.000207951
0.000211974
0.0002124
0.000210447
0.000206247
0.000198838
0.000186819
0.000169247
0.000146659
0.000121959
0.000100336
8.72484e-05
8.67133e-05
0.000101288
0.000124426
0.000117644
3.09515e-05
3.48522e-06
7.80851e-06
6.78236e-05
0.000158188
0.000156761
0.000140372
0.00012426
0.000108591
8.89715e-05
6.94395e-05
5.91238e-05
6.13126e-05
7.53819e-05
9.86743e-05
0.000126641
0.000154357
0.000178011
0.00019524
0.000205256
0.000208867
0.000207995
0.000204477
0.000198984
0.000190863
0.000178741
0.000161521
0.000139582
0.000115767
9.52769e-05
8.35527e-05
8.46145e-05
0.000100905
0.000124429
0.000114552
2.96029e-05
3.56481e-06
7.71416e-06
6.47207e-05
0.000156961
0.000151212
0.000129941
0.000114951
0.000107521
9.92279e-05
8.40366e-05
6.83184e-05
6.18234e-05
6.7733e-05
8.53782e-05
0.000111677
0.000141398
0.000168907
0.000189846
0.000202071
0.000206019
0.000204139
0.000199136
0.000192398
0.00018362
0.000171447
0.000154669
0.000133553
0.000110868
9.1681e-05
8.12987e-05
8.3766e-05
0.000101415
0.000124773
0.000111338
2.83476e-05
3.62634e-06
7.58107e-06
5.91383e-05
0.000148869
0.000136643
0.000109901
9.66681e-05
9.69129e-05
0.000100976
9.74455e-05
8.34681e-05
7.01434e-05
6.73683e-05
7.75915e-05
9.96216e-05
0.000129275
0.000160002
0.000185202
0.000200579
0.000205544
0.000202835
0.00019613
0.000187781
0.000178057
0.000165735
0.000149472
0.000129294
0.000107733
8.9651e-05
8.02633e-05
8.37024e-05
0.000102179
0.000125007
0.000108544
2.73338e-05
3.68223e-06
7.50376e-06
5.16639e-05
0.000133533
0.000115111
8.5295e-05
7.43084e-05
7.94492e-05
9.24608e-05
0.000102145
9.8429e-05
8.44621e-05
7.42998e-05
7.62834e-05
9.18921e-05
0.000118881
0.000151315
0.000180788
0.000200042
0.000206635
0.000203306
0.000194775
0.0001845
0.000173451
0.000160669
0.000144775
0.000125584
0.000105345
8.86221e-05
8.04732e-05
8.50942e-05
0.000104411
0.000126248
0.000106201
2.65527e-05
3.73342e-06
7.4428e-06
4.51978e-05
0.000116581
9.40472e-05
6.49641e-05
5.66687e-05
6.43697e-05
8.20013e-05
0.000100619
0.000108287
0.000100594
8.78561e-05
8.31238e-05
9.18894e-05
0.000114153
0.000145595
0.000177432
0.000199798
0.000207864
0.000203846
0.000193368
0.000181006
0.000168499
0.000155279
0.000139989
0.00012219
0.000103727
8.87567e-05
8.21645e-05
8.81969e-05
0.000108207
0.000128326
0.000104118
2.58992e-05
3.75945e-06
7.45256e-06
4.23775e-05
0.000105963
8.1878e-05
5.42026e-05
4.63975e-05
5.3709e-05
7.20619e-05
9.4885e-05
0.000110463
0.000110759
0.00010085
9.34354e-05
9.70787e-05
0.000114218
0.000142477
0.000174035
0.000197953
0.000207233
0.000202978
0.000191105
0.000176977
0.000163045
0.000149259
0.000134508
0.000118296
0.000102093
8.95125e-05
8.51058e-05
9.30194e-05
0.000113682
0.000131609
0.000103194
2.56299e-05
3.79632e-06
7.53852e-06
4.49533e-05
0.000105768
8.41447e-05
5.57895e-05
4.4035e-05
4.67973e-05
6.11957e-05
8.34779e-05
0.000104126
0.000112809
0.000109262
0.000103173
0.000104186
0.000116738
0.000140281
0.000168748
0.000191867
0.000201626
0.000197721
0.000185543
0.000170729
0.000156263
0.000142586
0.000128869
0.00011463
0.000101067
9.13336e-05
8.96298e-05
9.97817e-05
0.000120804
0.00013587