/*--------------------------------*- C++ -*----------------------------------*\
| =========                 |                                                 |
| \\      /  F ield         | OpenFOAM: The Open Source CFD Toolbox           |
|  \\    /   O peration     | Version:  v2006                                 |
|   \\  /    A nd           | Website:  www.openfoam.com                      |
|    \\/     M anipulation  |                                                 |
\*---------------------------------------------------------------------------*/
FoamFile
{
    version     2.0;
    format      ascii;
    class       volScalarField;
    location    "44";
    object      omega;
}
// * * * * * * * * * * * * * * * * * * * * * * * * * * * * * * * * * * * * * //

dimensions      [0 0 -1 0 0 0 0];


internalField   nonuniform List<scalar> 
78750
(
288.817
25.1473
37.7207
29.9999
20.0955
27.0071
16.3856
27.3605
26.8405
17.3081
28.8171
31.4943
33.7081
37.0138
38.598
40.2467
41.549
42.5302
43.3587
43.9588
44.4381
44.7739
44.9866
45.0778
45.0665
44.969
44.7959
44.5513
44.2272
43.7981
43.1979
42.2669
40.6448
37.4668
401.92
877.714
101.936
97.5901
95.1047
92.0123
88.8167
85.3111
81.4137
77.2574
73.0688
68.9099
64.9073
61.1751
57.8199
54.9358
52.5705
50.6897
49.2153
48.0572
47.1158
46.299
45.5327
44.7441
43.8697
42.8674
41.7338
40.5131
39.2746
38.0706
36.9235
35.8468
34.82
33.6588
31.4621
594.363
412.972
31.5646
39.6903
44.3461
47.4273
49.5105
50.8339
51.5844
51.8689
51.784
51.4117
50.8473
50.1284
49.2761
48.4042
47.642
47.0124
46.4852
46.0269
45.6016
45.1771
44.7264
44.2245
43.6467
42.97
42.1766
41.2567
40.2131
39.0587
37.7748
36.3229
34.6479
32.6893
30.0892
594.628
427.667
13.3492
15.3533
18.3293
21.9967
25.6941
29.1668
32.2694
34.8629
36.8762
38.3345
39.3701
40.0799
40.5022
40.6684
40.6086
40.3989
40.1299
39.8146
39.4533
39.0427
38.5815
38.0716
37.5198
36.9377
36.3409
35.7472
35.1739
34.6313
34.117
33.6066
32.9668
31.8615
29.1917
590.034
437.421
18.1389
21.3465
24.7007
26.8098
28.3195
29.7148
31.0058
32.1171
33.0431
33.8098
34.4347
34.9306
35.3058
35.5663
35.7207
35.7862
35.7815
35.7215
35.6169
35.4735
35.2954
35.087
34.8529
34.5996
34.3357
34.0719
33.8175
33.5779
33.3479
33.0957
32.7128
31.8779
29.4084
592.414
426.482
13.5609
21.0934
26.0513
28.94
30.3168
31.1328
31.7563
32.2758
32.7271
33.1244
33.4722
33.7691
34.0104
34.1908
34.3051
34.3487
34.317
34.2061
34.0141
33.7454
33.4111
33.0262
32.6157
32.2048
31.8151
31.4615
31.1496
30.8728
30.6062
30.2908
29.7928
28.82
26.7714
596.053
418.513
9.53352
11.4188
17.3784
21.7054
24.708
26.875
28.3774
29.4358
30.1816
30.6953
31.0279
31.2088
31.2536
31.1679
30.9521
30.603
30.1179
29.4978
28.7529
27.9079
27.0036
26.0916
25.2238
24.4435
23.7812
23.2539
22.8659
22.6088
22.4604
22.3796
22.2852
21.9906
21.2296
592.392
422.719
11.0771
11.3463
11.1803
11.8463
13.6632
15.8476
17.8786
19.5881
20.9151
21.892
22.5681
22.9894
23.1929
23.2045
23.0412
22.7158
22.2416
21.6382
20.9375
20.1845
19.4323
18.7302
18.1123
17.595
17.1822
16.8724
16.6643
16.5589
16.5524
16.6374
16.8554
17.4091
17.753
589.178
419.627
8.96802
9.04328
9.41679
10.1557
11.1241
12.1875
13.1959
14.1159
14.9074
15.5608
16.0641
16.4182
16.6406
16.7513
16.7661
16.6996
16.5686
16.3936
16.1953
15.9916
15.7985
15.6275
15.4829
15.3637
15.267
15.1892
15.1277
15.0819
15.0526
15.0318
15.0083
15.1416
15.2747
583.808
423.044
10.56
9.79122
8.91177
8.28332
8.48057
9.65389
11.1751
12.4759
13.4189
14.0687
14.505
14.7796
14.9592
15.0904
15.1881
15.2552
15.2957
15.314
15.3147
15.3018
15.2782
15.2458
15.2053
15.1565
15.099
15.0325
14.9569
14.8736
14.7675
14.6046
14.4204
14.3747
14.3845
582.402
425.095
11.0556
9.19402
7.39904
6.39273
6.181
7.29607
9.50242
11.3235
12.6295
13.49
14.0022
14.3049
14.5243
14.7132
14.8789
15.0254
15.1531
15.26
15.3431
15.3992
15.4268
15.4267
15.3992
15.3446
15.2623
15.1508
15.0084
14.8267
14.5693
14.1547
13.543
12.9718
12.6652
578.522
434.352
10.6979
6.75674
4.91587
3.9294
4.86971
4.95524
9.20697
11.1642
12.3312
13.0712
13.56
13.8983
14.1487
14.3555
14.5437
14.7207
14.8855
15.0356
15.1656
15.2685
15.3428
15.3869
15.3977
15.3743
15.3179
15.2307
15.1129
14.9582
14.7454
14.4311
13.9864
13.5442
13.2452
579.981
438.795
6.80036
4.97092
3.45992
4.0886
5.3032
4.55257
9.84486
11.3301
12.5175
13.1859
13.6126
13.8909
14.0787
14.2139
14.324
14.4255
14.5272
14.6313
14.7346
14.8296
14.9053
14.9475
14.9503
14.9063
14.8111
14.665
14.4721
14.2361
13.9518
13.5982
13.1525
12.681
12.2995
578.001
429.224
3.63323
4.81377
4.17117
3.62493
4.23649
4.83618
4.91689
5.88439
7.52144
9.59868
11.1667
12.2591
13.0819
13.653
14.0093
14.2233
14.3518
14.4341
14.4968
14.5549
14.6132
14.668
14.7065
14.7187
14.6933
14.6172
14.478
14.2673
13.9855
13.6493
13.3017
13.0298
12.9263
580.091
422.66
9.95447
8.43231
7.22455
6.00555
5.27187
4.15273
5.63962
4.52596
4.71475
5.54798
4.13393
5.39206
5.11816
8.24928
10.274
11.6571
12.6073
13.2434
13.6624
13.9333
14.1036
14.2041
14.2523
14.2548
14.2133
14.1246
13.9802
13.7653
13.4662
13.0817
12.6648
12.326
12.1044
577.97
420.357
13.9826
14.5259
14.9544
14.9335
14.3667
13.5937
12.7215
11.9096
10.8647
10.3565
9.15179
7.89637
6.94013
6.04763
6.72487
8.0042
9.33315
10.5087
11.4498
12.1636
12.6981
13.1071
13.4351
13.7045
13.9162
14.0562
14.1025
14.0304
13.8056
13.3981
12.8609
12.4445
12.3906
580.434
421.927
16.1066
18.5653
19.7437
20.3511
20.6895
20.8408
20.8167
20.6335
20.3159
19.744
19.1186
18.3038
17.1332
15.6021
13.7873
12.0917
10.9746
10.6307
10.8693
11.3691
11.8934
12.3114
12.5923
12.7793
12.9383
13.1304
13.3541
13.5543
13.6862
13.696
13.5165
13.2273
13.0439
580.295
423.285
14.0262
15.9669
17.1627
17.9336
18.3837
18.6358
18.7822
18.8713
18.9485
19.1937
19.7539
20.5578
21.1477
21.1642
20.5331
19.243
17.3939
15.2964
13.3179
11.7601
10.9948
11.3148
12.2278
13.1695
13.9105
14.2201
14.139
13.9597
13.8258
13.6155
13.2851
12.9977
13.0218
581.179
438.449
18.5949
19.7728
20.5032
20.869
20.9426
20.727
20.1339
19.0066
17.2661
15.2758
14.3383
15.4866
17.5197
18.9695
19.6107
19.6833
19.2309
18.093
16.1201
13.274
9.46759
6.17359
4.94293
6.53216
8.3982
9.68703
10.6823
11.4725
11.9882
12.3851
12.6307
12.6496
12.2128
575.933
455.178
21.6566
21.5385
21.4574
21.4905
21.5432
21.439
21.0208
20.2953
19.5234
18.8822
18.2246
17.371
16.3388
15.1215
13.7019
12.7948
13.5612
14.8743
15.3717
15.2089
14.8868
14.4741
14.052
13.8318
13.8151
13.8473
13.7771
13.7743
13.7216
13.2892
13.1154
13.0456
13.328
581.905
443.394
17.8333
17.9554
18.1261
18.3497
18.6245
18.9638
19.409
19.9465
20.4449
20.7293
20.7228
20.4778
20.1989
20.0676
19.9766
19.8078
19.5034
19.0893
18.6399
18.1864
17.7058
17.1587
16.5073
15.656
14.2899
11.5894
12.0732
15.7707
17.0209
16.9045
16.4878
15.4364
13.657
576.224
441.673
19.5562
20.341
20.6633
20.7776
20.7079
20.4675
20.0452
19.4273
18.9637
19.0517
19.4906
19.8776
20.0491
20.0101
19.819
19.5449
19.263
19.0241
18.8147
18.6125
18.4134
18.2181
18.028
17.8346
17.5649
16.8037
15.7475
15.1973
14.7575
14.603
14.5939
14.0444
12.7294
573.596
447.897
20.1036
20.2413
20.2585
20.2644
20.3359
20.5656
20.9994
21.5291
21.8952
21.9727
21.813
21.5276
21.2464
21.028
20.8089
20.5233
20.1778
19.8168
19.4565
19.0902
18.72
18.3511
17.9874
17.6352
17.3022
16.9963
16.6877
16.3794
16.1263
15.9239
15.6868
15.1538
13.8743
573.173
451.523
19.748
19.4998
19.2741
18.9646
18.5248
18.0448
17.9076
18.59
19.9674
21.341
22.2821
22.7835
22.9711
22.9543
22.7908
22.5186
22.1918
21.8488
21.4966
21.1144
20.6759
20.201
19.7026
19.1433
18.5317
17.9262
17.3961
16.9794
16.6677
16.417
16.1362
15.607
14.341
573.629
441.075
19.2801
20.0483
20.4046
20.5651
20.5131
20.1902
19.5855
18.9831
18.9976
19.7511
20.7454
21.6206
22.2744
22.7023
22.9229
22.9625
22.8546
22.6337
22.3269
21.9537
21.5312
21.0667
20.5586
20.0168
19.4561
18.8793
18.2824
17.6803
17.1478
16.7491
16.4311
15.9639
14.8414
575.33
449.771
20.2392
20.2745
20.2464
20.177
20.051
19.8249
19.4207
18.8259
18.4689
19.0104
20.2187
21.4282
22.3488
22.9735
23.3699
23.6051
23.7222
23.7278
23.6199
23.4035
23.094
22.7196
22.2986
21.8316
21.3171
20.7514
20.1288
19.4407
18.6687
17.8005
16.8689
15.8816
14.4389
575.333
446.051
19.2085
19.4762
19.6263
19.6928
19.6446
19.4673
19.1785
18.8124
18.4606
18.4495
19.1109
20.2097
21.2894
22.1409
22.7542
23.1857
23.501
23.7278
23.8605
23.8924
23.8215
23.6506
23.388
23.0469
22.6438
22.1772
21.6303
20.9836
20.1987
19.2147
17.9936
16.5945
14.8132
575.739
444.437
19.9215
20.4927
20.7699
20.9356
20.9946
20.9006
20.5626
19.8699
18.8251
17.7946
17.5539
18.4272
19.8043
21.0471
21.9476
22.5513
22.9714
23.2933
23.5404
23.7041
23.7788
23.7613
23.651
23.4516
23.1694
22.8133
22.3955
21.9101
21.3173
20.5386
19.4483
17.9788
16.0851
577.665
449.561
19.92
19.9823
20.0368
20.0844
20.0995
20.0434
19.8691
19.5113
18.8624
17.8717
16.9314
16.922
18.053
19.5655
20.8159
21.6597
22.2049
22.6082
22.9349
23.1787
23.3339
23.3968
23.3652
23.239
23.02
22.7122
22.3229
21.8496
21.2465
20.4012
19.1509
17.4698
15.535
577.618
446.309
19.6182
20.0246
20.2704
20.4477
20.5479
20.5555
20.4586
20.2536
19.9182
19.369
18.5328
17.7433
17.7979
18.8204
20.0979
21.1023
21.7695
22.2147
22.5488
22.8091
22.9876
23.078
23.075
22.9747
22.7743
22.4726
22.0707
21.5588
20.8789
19.9113
18.5315
16.8218
14.9109
576.502
448.666
20.1803
20.4493
20.6129
20.7286
20.7753
20.7138
20.506
20.1412
19.6403
19.0168
18.2385
17.3306
16.757
17.2403
18.6127
20.0267
21.0421
21.6884
22.1157
22.4298
22.6612
22.8034
22.8503
22.7961
22.6347
22.3609
21.9696
21.4476
20.7455
19.7896
18.5703
17.2032
15.552
577.205
446.799
19.4207
19.7226
19.9458
20.1503
20.3199
20.4236
20.4262
20.2986
20.0236
19.5963
19.0118
18.2621
17.4506
17.0402
17.5533
18.7973
20.0881
21.0371
21.6473
22.0408
22.3152
22.5036
22.6024
22.6045
22.5024
22.2876
21.9502
21.4776
20.8479
20.0434
19.0611
17.8894
16.3273
578.407
448.322
20.1514
20.4626
20.6591
20.8109
20.9052
20.9196
20.8348
20.6479
20.3721
20.022
19.5957
19.055
18.3173
17.3526
16.4951
16.4197
17.3951
18.9093
20.2436
21.1257
21.6494
21.9595
22.1384
22.2141
22.1874
22.0517
21.7977
21.414
20.887
20.2006
19.3354
18.2665
16.7473
578.807
446.081
19.4671
19.8581
20.1324
20.382
20.6023
20.7663
20.8385
20.7896
20.6103
20.3144
19.9297
19.4814
18.9673
18.3349
17.5181
16.6396
16.15
16.4272
17.446
18.8146
20.0151
20.8053
21.2473
21.4683
21.5422
21.494
21.3245
21.0272
20.594
20.0104
19.2544
18.3021
16.8584
578.689
447.909
19.9386
20.2408
20.4451
20.6268
20.7811
20.8859
20.9098
20.8328
20.6571
20.406
20.1016
19.7583
19.3812
18.9628
18.4742
17.8689
17.1617
16.5465
16.321
16.6444
17.4851
18.6081
19.6277
20.2909
20.6065
20.6851
20.5991
20.3731
20.0104
19.5013
18.8253
17.9625
16.6158
578.484
446.693
19.8032
20.2217
20.5014
20.7557
20.9938
21.199
21.3315
21.3449
21.2112
20.9356
20.5536
20.118
19.6761
19.2543
18.8546
18.4539
18.0112
17.497
16.9526
16.5194
16.3699
16.6189
17.2917
18.2481
19.1662
19.7604
19.9756
19.9046
19.6305
19.1984
18.6114
17.849
16.5926
578.247
448.333
19.9989
20.3012
20.5066
20.6984
20.891
21.0751
21.2187
21.2834
21.2434
21.0913
20.8354
20.4971
20.1113
19.7199
19.3605
19.051
18.777
18.4945
18.1579
17.75
17.301
16.8957
16.6564
16.7022
17.0871
17.7199
18.3711
18.8096
18.9317
18.7567
18.3318
17.6594
16.4076
577.697
449.887
20.3383
20.6358
20.8572
21.0738
21.2909
21.4853
21.61
21.6247
21.5147
21.2867
20.9594
20.5577
20.1149
19.6764
19.2961
19.0207
18.865
18.794
18.736
18.6228
18.4167
18.1109
17.7248
17.3061
16.9327
16.6999
16.6769
16.8497
17.087
17.201
17.0597
16.6014
15.5341
577.081
450.335
20.2785
20.5226
20.7184
20.9283
21.1704
21.4249
21.6284
21.7228
21.6864
21.5224
21.2454
20.8748
20.4372
19.9738
19.5448
19.2219
19.0675
19.0963
19.2385
19.3763
19.4219
19.3393
19.1233
18.7806
18.3219
17.7685
17.1643
16.5885
16.1354
15.8282
15.5647
15.198
14.4116
576.64
452.857
20.6098
20.7232
20.8655
21.0574
21.3111
21.5916
21.8
21.8615
21.7665
21.5353
21.1889
20.7458
20.2289
19.681
19.1761
18.8168
18.7187
18.9637
19.4725
19.9934
20.3389
20.4722
20.4241
20.2262
19.8923
19.4211
18.8043
18.0445
17.1898
16.3533
15.6576
15.0986
14.3365
577.163
451.735
20.2581
20.3705
20.5053
20.6949
20.9802
21.3571
21.7132
21.9281
21.9666
21.844
21.5821
21.1953
20.6911
20.0817
19.4062
18.7588
18.3132
18.3272
18.9501
19.8557
20.5693
20.9641
21.1102
21.0775
20.9008
20.5882
20.1263
19.4854
18.6405
17.6384
16.6712
15.9082
15.0017
578.096
453.225
20.5317
20.5534
20.6231
20.7406
20.9495
21.288
21.6695
21.9338
22.0111
21.9145
21.6738
21.31
20.8339
20.2508
19.5685
18.8149
18.0721
17.5417
17.6188
18.548
19.7474
20.5724
20.9938
21.1499
21.1216
20.9346
20.5835
20.0421
19.2859
18.3569
17.4193
16.5977
15.5426
578.286
451.821
20.3075
20.412
20.4995
20.5845
20.7106
20.98
21.4152
21.8461
22.1128
22.183
22.08
21.8281
21.4407
20.9235
20.2789
19.5101
18.6334
17.7069
16.9194
16.7711
17.745
19.1784
20.1633
20.6396
20.7995
20.741
20.486
20.025
19.354
18.5253
17.6567
16.8051
15.6079
577.582
453.626
20.8723
20.9909
21.0732
21.1098
21.1003
21.1307
21.3573
21.7278
22.0438
22.2062
22.2083
22.0687
21.8035
21.4216
20.9256
20.3135
19.5776
18.7132
17.7288
16.7112
16.0533
16.5226
17.9722
19.2167
19.8606
20.0874
20.0324
19.7374
19.2225
18.5356
17.7525
16.8964
15.6092
577.127
452.507
20.759
21.0098
21.1685
21.2483
21.2336
21.1783
21.2891
21.6409
22.0239
22.2772
22.3698
22.3169
22.1363
21.8397
21.4344
20.9239
20.3073
19.5805
18.7345
17.7569
16.6616
15.673
15.5674
16.7956
18.1975
18.9707
19.2498
19.2023
18.8982
18.3857
17.7172
16.9058
15.6171
577.202
454.702
21.3816
21.6275
21.7945
21.8752
21.8233
21.6295
21.4805
21.6372
21.9887
22.2997
22.4746
22.5072
22.413
22.2057
21.8947
21.4845
20.9776
20.3737
19.668
18.8486
17.8907
16.7629
15.5618
14.9807
15.915
17.3304
18.1238
18.3999
18.3386
18.0244
17.5064
16.7929
15.5722
577.439
453.431
21.0944
21.4253
21.6714
21.8447
21.8993
21.8007
21.6485
21.7165
22.0268
22.359
22.5835
22.6762
22.6462
22.5052
22.2622
21.9228
21.4925
20.9748
20.3652
19.6597
18.8458
17.8827
16.7098
15.3827
14.6728
15.6374
16.9701
17.5986
17.7417
17.5814
17.189
16.5737
15.4367
577.516
455.263
21.4965
21.7472
21.9566
22.1156
22.1687
22.0619
21.8422
21.7717
21.9958
22.333
22.6087
22.7684
22.811
22.746
22.5807
22.3219
21.9771
21.5416
21.0059
20.3718
19.6511
18.8241
17.8186
16.5481
15.1033
14.4557
15.5108
16.656
17.0842
17.0847
16.8151
16.2959
15.231
577.279
453.261
20.9336
21.2347
21.5073
21.7593
21.9448
22.0125
21.9608
21.936
22.1125
22.4222
22.7118
22.9101
23.0036
22.9958
22.8917
22.6959
22.4141
22.0459
21.5834
21.0241
20.3745
19.6348
18.7664
17.6932
16.3403
14.8868
14.391
15.3432
16.2102
16.4688
16.3617
15.9699
15.0184
577.062
453.315
20.9882
21.2418
21.4692
21.6809
21.8357
21.8847
21.8197
21.7621
21.8962
22.2122
22.5602
22.8412
23.0242
23.107
23.0925
22.9845
22.787
22.5038
22.1328
21.6693
21.1157
20.4714
19.7159
18.8091
17.6954
16.3186
14.8943
14.3508
14.9708
15.5605
15.7074
15.5113
14.7529
576.92
451.129
20.4632
20.7726
21.0551
21.3485
21.6185
21.8023
21.8482
21.8047
21.8523
22.0919
22.4307
22.7512
22.9972
23.1531
23.2161
23.1886
23.0734
22.8728
22.5895
22.2211
21.7654
21.2228
20.5833
19.8278
18.9311
17.8452
16.5236
15.1608
14.4866
14.7195
15.0105
15.0029
14.468
576.904
451.235
20.3858
20.5954
20.8027
21.0449
21.3058
21.5211
21.6115
21.5793
21.5706
21.7472
22.0848
22.4576
22.7811
23.0233
23.1756
23.2389
23.2159
23.109
22.92
22.6476
22.2898
21.8491
21.3223
20.6991
19.9675
19.1067
18.0708
16.8161
15.511
14.7559
14.668
14.6369
14.2034
576.882
450.834
20.1008
20.2493
20.4307
20.6804
21.0065
21.3463
21.5772
21.6345
21.5929
21.6359
21.8566
22.1853
22.5215
22.8073
23.0196
23.1522
23.2052
23.1792
23.0744
22.8895
22.6224
22.2744
21.8474
21.3371
20.7351
20.0326
19.205
18.1996
16.9727
15.7345
14.9936
14.6561
14.1155
576.922
450.947
19.9532
19.9976
20.0881
20.2411
20.4976
20.8496
21.1814
21.3852
21.4599
21.5107
21.6592
21.9215
22.2327
22.5288
22.7747
22.9563
23.0684
23.1086
23.0749
22.9656
22.7783
22.5129
22.1711
21.7512
21.2471
20.6539
19.9587
19.1218
18.0694
16.8016
15.665
14.9616
14.1981
577.008
451.433
20.0547
20.0731
20.1282
20.2201
20.3944
20.6917
21.0267
21.2707
21.3919
21.4486
21.5363
21.7111
21.9564
22.2221
22.4679
22.6716
22.8214
22.91
22.9321
22.8852
22.7666
22.5746
22.3084
21.9653
21.5412
21.0325
20.4275
19.6931
18.7581
17.5598
16.294
15.3537
14.3919
577.146
451.677
20.1012
20.1136
20.1325
20.1371
20.1698
20.3548
20.693
21.0212
21.2444
21.3727
21.4651
21.5831
21.7515
21.9539
22.1621
22.3534
22.5116
22.6244
22.6821
22.6799
22.6139
22.4808
22.2766
21.9978
21.64
21.1973
20.6554
19.9799
19.1002
17.9469
16.6658
15.6355
14.5557
577.208
453.073
20.5364
20.5745
20.5921
20.5395
20.415
20.3777
20.5687
20.8576
21.101
21.2674
21.3819
21.4832
21.6011
21.7408
21.8938
22.0463
22.1843
22.2937
22.3624
22.3836
22.3514
22.2604
22.1053
21.8804
21.5792
21.1915
20.6982
20.0595
19.2045
18.0792
16.8394
15.818
14.6953
577.299
452.917
20.5868
20.7003
20.7578
20.7032
20.4968
20.2845
20.3419
20.6181
20.9108
21.1361
21.2943
21.4106
21.5113
21.6095
21.7106
21.8126
21.9087
21.988
22.0396
22.0562
22.0312
21.9581
21.8305
21.641
21.3799
21.0318
20.5708
19.9508
19.1058
18.0165
16.8619
15.8957
14.7657
577.317
453.701
20.9178
21.0765
21.1657
21.1288
20.8874
20.5015
20.3034
20.4338
20.6982
20.9448
21.1353
21.2771
21.387
21.4766
21.5546
21.625
21.6868
21.7336
21.7582
21.7548
21.718
21.6423
21.5213
21.3473
21.1082
20.7852
20.3473
19.746
18.9283
17.9106
16.8718
15.9747
14.8554
577.459
452.544
20.7283
20.964
21.1205
21.1615
21.0044
20.634
20.2955
20.2792
20.4968
20.7564
20.9756
21.1422
21.265
21.3541
21.4199
21.4692
21.5047
21.5236
21.521
21.4936
21.4375
21.3483
21.2208
21.0476
20.8159
20.5047
20.0809
19.4975
18.7177
17.7857
16.8625
16.0328
14.9316
577.634
452.042
20.7656
21.0559
21.2563
21.3485
21.2519
20.9071
20.4375
20.1952
20.2848
20.5227
20.7663
20.9676
21.12
21.228
21.3003
21.3449
21.3669
21.3661
21.3403
21.2888
21.2099
21.1012
20.9592
20.7772
20.5429
20.236
19.8242
19.2666
18.5409
17.7039
16.8857
16.1156
15.0333
577.858
449.945
20.4008
20.8018
21.0937
21.2932
21.3294
21.1261
20.682
20.2519
20.1377
20.2888
20.5253
20.75
20.9324
21.0674
21.16
21.2169
21.2435
21.24
21.2053
21.1402
21.0449
20.9187
20.7601
20.5635
20.318
20.0051
19.5967
19.0598
18.3841
17.6291
16.8967
16.1815
15.1299
578.123
448.984
20.2698
20.7205
21.0613
21.3329
21.4702
21.3937
21.0397
20.498
20.1165
20.0852
20.2674
20.5011
20.7113
20.8757
20.9936
21.0703
21.1112
21.1165
21.0854
21.0194
20.9194
20.7862
20.6194
20.4141
20.1604
19.8418
19.4338
18.9115
18.2749
17.5833
16.9169
16.2469
15.2242
578.376
447.521
19.895
20.3885
20.786
21.1533
21.4286
21.5276
21.372
20.925
20.364
20.0488
20.0676
20.2574
20.478
20.6684
20.8139
20.9156
20.9771
20.9979
20.9775
20.9176
20.8198
20.6855
20.5153
20.3049
20.0455
19.7221
19.3139
18.802
18.1939
17.5481
16.93
16.2966
15.3018
578.607
447.103
19.6817
20.1284
20.5145
20.9234
21.3014
21.5459
21.571
21.3212
20.8087
20.2753
20.0316
20.0823
20.2639
20.4589
20.6236
20.7482
20.832
20.8726
20.8694
20.8236
20.7364
20.6097
20.4435
20.2339
19.9727
19.646
19.2358
18.7295
18.1419
17.5315
16.9511
16.3449
15.3668
578.785
446.714
19.3671
19.7223
20.0681
20.5045
20.9946
21.3982
21.5972
21.545
21.2215
20.6905
20.2305
20.0682
20.1436
20.305
20.4681
20.6034
20.7011
20.7558
20.7668
20.7344
20.6592
20.5426
20.384
20.1792
19.9201
19.5929
19.181
18.6761
18.1
17.513
16.9593
16.374
15.4116
578.946
447.372
19.196
19.3617
19.5938
19.9941
20.5668
21.1227
21.4809
21.5905
21.4536
21.077
20.5782
20.227
20.1448
20.2287
20.3644
20.4953
20.597
20.6598
20.6818
20.6619
20.5995
20.4953
20.3472
20.1506
19.8967
19.5714
19.159
18.6548
18.0871
17.5191
16.9874
16.4188
15.4673
579.095
448.415
19.0696
19.0197
19.1082
19.4209
20.0298
20.7167
21.219
21.4626
21.471
21.2671
20.8904
20.4994
20.2896
20.2707
20.3496
20.4522
20.5386
20.5954
20.6175
20.6023
20.548
20.4536
20.3156
20.1284
19.8822
19.5619
19.1513
18.6481
18.0868
17.5326
17.0154
16.4547
15.5022
579.172
449.877
19.1609
18.9717
18.9282
19.0666
19.5439
20.2412
20.8391
21.194
21.3189
21.251
21.0223
20.7141
20.4771
20.3885
20.41
20.4737
20.5355
20.577
20.5906
20.5723
20.5198
20.4299
20.2986
20.1193
19.8814
19.5692
19.1661
18.6717
18.1236
17.5863
17.0827
16.5285
15.5746
579.284
450.834
19.4924
19.3878
19.3177
19.236
19.3159
19.7336
20.2948
20.7373
20.982
21.0472
20.9653
20.7875
20.6066
20.5042
20.489
20.5201
20.5576
20.582
20.5844
20.5601
20.5064
20.4189
20.2927
20.1205
19.8909
19.5877
19.1952
18.7147
18.1852
17.6657
17.1718
16.6163
15.647
579.335
450.548
20.0093
20.1975
20.2261
20.0268
19.6418
19.4226
19.624
20.0468
20.4154
20.635
20.7146
20.6901
20.6152
20.5531
20.5368
20.5538
20.5768
20.5891
20.5828
20.5534
20.4982
20.4127
20.2919
20.1287
19.9114
19.624
19.2516
18.7968
18.2959
17.7986
17.3143
16.7566
15.7708
579.453
449.367
20.4718
20.9786
21.2017
21.1513
20.7291
19.9767
19.3702
19.3397
19.6796
20.0291
20.2679
20.3988
20.4518
20.4707
20.4926
20.5241
20.552
20.566
20.5605
20.5331
20.4812
20.401
20.2878
20.1343
19.929
19.6566
19.3044
18.8767
18.406
17.9308
17.4535
16.8858
15.863
579.447
448.457
20.5875
21.2839
21.7284
21.9852
21.9514
21.4271
20.3365
19.3395
19.1252
19.3983
19.7266
19.979
20.1495
20.2627
20.3482
20.4171
20.467
20.4949
20.4992
20.4801
20.436
20.3649
20.2635
20.1257
19.9395
19.6889
19.3617
18.9627
18.5205
18.0645
17.5919
17.0125
15.9512
579.452
448.41
20.3289
20.9942
21.5358
22.0255
22.3605
22.3829
21.8067
20.4755
19.354
19.1237
19.3311
19.597
19.8196
19.9954
20.14
20.2558
20.3405
20.3934
20.4167
20.4123
20.3794
20.3172
20.2246
20.0984
19.9293
19.7021
19.4035
19.0364
18.6233
18.1853
17.7166
17.1254
16.0271
579.463
448.761
19.9557
20.4538
20.9467
21.4987
22.0083
22.3136
22.2467
21.5223
20.2356
19.4546
19.349
19.4857
19.6568
19.8179
19.9679
20.0992
20.2041
20.2775
20.3199
20.3327
20.3149
20.2653
20.183
20.0664
19.91
19.702
19.4301
19.0946
18.7106
18.2915
17.8279
17.2257
16.0893
579.452
448.933
19.7154
20.1318
20.6096
21.1747
21.692
22.0111
22.0284
21.6501
20.8284
20.0468
19.7357
19.7031
19.7587
19.8407
19.9351
20.0319
20.121
20.1921
20.2391
20.2602
20.2523
20.2125
20.138
20.0267
19.8751
19.6752
19.4184
19.1043
18.7423
18.3387
17.8807
17.2697
16.0988
579.347
448.586
19.5146
19.9532
20.5484
21.2403
21.7521
21.9713
21.9013
21.5708
21.0599
20.5613
20.2627
20.1276
20.071
20.0515
20.0562
20.0796
20.1157
20.1545
20.1854
20.2016
20.1961
20.1628
20.0959
19.9905
19.8423
19.6458
19.3959
19.0936
18.7454
18.3529
17.8996
17.2799
16.0692
579.072
447.856
19.1601
19.5585
20.3279
21.2463
21.8258
22.0255
21.9508
21.6982
21.3667
21.0507
20.8027
20.622
20.4859
20.377
20.2897
20.2246
20.1836
20.163
20.1548
20.149
20.1337
20.0985
20.034
19.932
19.7863
19.5924
19.3477
19.0542
18.7161
18.3315
17.88
17.2464
15.9796
578.59
446.888
18.548
18.7354
19.6505
20.8552
21.6125
21.9488
22.017
21.9185
21.7323
21.5197
21.3118
21.1182
20.9378
20.766
20.6021
20.4505
20.32
20.2194
20.1515
20.1071
20.0703
20.0254
19.958
19.8552
19.7078
19.5118
19.2678
18.9793
18.6493
18.2734
17.8276
17.1897
15.8853
578.134
445.884
17.7304
17.5499
18.4036
19.8994
20.9776
21.5951
21.9068
22.0134
21.9864
21.8817
21.735
21.5659
21.3828
21.1871
20.9785
20.7587
20.541
20.3474
20.1963
20.0897
20.0129
19.9468
19.8716
19.7681
19.6207
19.4225
19.1758
18.8872
18.5608
18.1917
17.7543
17.1232
15.8132
577.848
444.498
17.0051
16.462
16.6972
17.9882
19.4129
20.5235
21.2757
21.7237
21.9503
22.0239
21.9965
21.9028
21.7637
21.5887
21.3801
21.1378
20.8693
20.5973
20.3534
20.1603
20.0159
19.9045
19.8053
19.6956
19.5535
19.3642
19.125
18.842
18.5209
18.1586
17.7312
17.1187
15.8446
577.939
442.77
17.2873
16.8127
16.2011
15.9739
16.6304
17.929
19.4051
20.5809
21.3232
21.7419
21.9473
22.0127
21.9828
21.8844
21.729
21.5195
21.2584
20.9585
20.6502
20.3716
20.1426
19.9605
19.8089
19.6669
19.5126
19.3271
19.1001
18.8315
18.5238
18.1735
17.7588
17.1686
15.9442
578.285
441.993
18.6967
18.8424
18.4183
17.3879
16.0096
15.0509
15.6413
17.7837
19.6343
20.7643
21.4089
21.7665
21.9394
21.9862
21.9387
21.8126
21.614
21.3485
21.0341
20.7075
20.4077
20.1534
19.9391
19.7468
19.5558
19.3481
19.112
18.8433
18.5409
18.199
17.7959
17.2286
16.0611
578.78
444.331
19.8548
20.4908
20.68
20.4695
19.5319
17.282
13.7836
14.1711
17.0627
19.2714
20.5392
21.241
21.6372
21.8579
21.9534
21.9443
21.8456
21.6611
21.3974
21.0778
20.7443
20.4362
20.1672
19.9271
19.6964
19.4572
19.1976
18.9135
18.6029
18.2591
17.8605
17.3089
16.1856
579.267
450.531
20.1687
20.2913
20.3911
20.4518
20.3721
19.6183
16.1977
13.7608
16.2192
18.8243
20.2378
20.9468
21.3968
21.7118
21.8993
21.9732
21.9504
21.8466
21.6613
21.3891
21.0624
20.7321
20.4299
20.1564
19.8956
19.63
19.3486
19.0479
18.7255
18.3742
17.9719
17.4202
16.3037
579.563
455.788
20.0631
19.4304
18.8983
18.2189
17.5566
17.1529
16.1932
16.0052
18.3654
19.9209
20.6587
21.1344
21.5042
21.7795
21.9558
22.0388
22.039
21.9674
21.823
21.5955
21.2974
20.9718
20.6608
20.3755
20.1022
19.8233
19.5284
19.2146
18.88
18.5172
18.1035
17.5364
16.3896
579.548
453.241
19.2928
18.7112
17.9751
16.5815
14.8978
14.9028
16.8887
18.8373
20.01
20.6518
21.1012
21.4501
21.7238
21.9266
22.0583
22.1203
22.1161
22.0481
21.9125
21.7031
21.4255
21.1113
20.8036
20.5209
20.2512
19.9741
19.677
19.3565
19.0116
18.6355
18.2052
17.6096
16.3963
579.152
446.834
18.6008
18.5041
18.158
17.2601
15.9921
15.7863
17.293
18.7928
19.7953
20.4862
20.9933
21.3814
21.6783
21.8963
22.041
22.116
22.1259
22.0725
21.9532
21.762
21.4999
21.1902
20.8766
20.5903
20.3255
20.0578
19.7682
19.4496
19.1004
18.7156
18.2737
17.6603
16.4071
578.812
443.592
18.3064
18.416
18.5607
18.7427
18.5198
17.3134
15.9703
16.2265
17.5579
18.876
19.8617
20.5727
21.0965
21.4804
21.7496
21.9221
22.011
22.0245
21.9646
21.8273
21.6086
21.3184
20.9924
20.6771
20.3919
20.121
19.8395
19.5317
19.1913
18.8126
18.3758
17.7712
16.533
578.888
444.432
18.106
17.8091
17.5993
17.7074
18.51
19.3121
18.9496
17.2049
15.6744
15.8485
17.2693
18.707
19.7532
20.4972
21.0339
21.4114
21.6617
21.8072
21.8616
21.829
21.7067
21.4933
21.2037
20.8771
20.556
20.2543
19.9583
19.649
19.313
18.9401
18.5093
17.9171
16.7087
579.307
449.007
18.8378
18.1962
17.5451
16.7317
16.6717
18.1029
19.59
20.1129
19.4134
17.4395
15.7935
16.2809
17.8108
19.0704
19.9546
20.5888
21.0453
21.3616
21.5618
21.6602
21.6614
21.5634
21.367
21.0908
20.7734
20.45
20.1314
19.8091
19.4687
19.0954
18.665
18.076
16.8786
579.836
454.401
19.8319
19.222
18.6654
17.8077
16.984
17.3289
18.6712
19.7999
20.3071
20.2171
19.0702
16.9153
16.5124
17.729
18.9064
19.7496
20.3638
20.8187
21.145
21.3598
21.4718
21.4817
21.3869
21.1929
20.9237
20.6139
20.2888
19.9544
19.6032
19.2201
18.7784
18.1702
16.9349
580.071
455.79
20.1196
19.6153
19.0908
18.2182
17.2968
17.1121
17.8693
18.9278
19.7052
20.0804
20.0563
19.238
17.5512
17.3921
18.342
19.222
19.8754
20.3761
20.763
21.0472
21.2323
21.3167
21.2959
21.171
20.9581
20.6853
20.3784
20.0497
19.697
19.3078
18.8546
18.221
16.9317
580.088
453.744
20.4064
20.2036
19.7658
18.7661
17.1159
15.783
15.7882
16.8045
17.9555
18.7719
19.1576
19.034
18.2201
17.8251
18.5224
19.276
19.8282
20.2545
20.6012
20.8751
21.071
21.18
21.1921
21.1043
20.9285
20.6882
20.4052
20.0901
19.7419
19.3492
18.8833
18.2176
16.8586
579.806
451.358
20.7325
20.9379
20.8683
20.3508
18.8583
16.359
14.1987
13.8117
14.912
16.2518
17.1254
17.5228
17.9439
18.5946
19.2247
19.7145
20.0999
20.418
20.6815
20.8903
21.0385
21.1171
21.1162
21.0319
20.8724
20.6543
20.3921
20.0918
19.7504
19.3565
18.8792
18.1818
16.7516
579.316
449.563
20.5358
20.9791
21.3256
21.6346
21.5143
20.2097
17.5624
14.5081
12.8314
13.6165
15.5671
17.263
18.3318
19.0311
19.5585
19.974
20.3055
20.5705
20.7785
20.9335
21.0343
21.0763
21.0535
20.964
20.8131
20.6105
20.3633
20.0732
19.7352
19.3374
18.8464
18.1148
16.6022
578.597
450.76
20.3789
20.5844
20.839
21.3866
22.3793
23.2465
23.1598
21.7174
18.8301
15.0759
12.1225
12.4504
15.1517
17.5703
18.9219
19.629
20.0666
20.3844
20.6266
20.8038
20.9176
20.9666
20.9502
20.8695
20.7309
20.543
20.311
20.0342
19.7064
19.3146
18.8236
18.0799
16.513
578.074
456.065
21.0256
20.9032
20.8903
20.9416
21.2039
22.0662
23.0635
23.5052
23.3341
22.3256
19.5567
14.6474
9.73721
11.0306
14.7642
17.3088
18.7538
19.5852
20.1071
20.4505
20.6705
20.792
20.8261
20.7801
20.6627
20.4869
20.263
19.9936
19.6733
19.288
18.8008
18.0547
16.463
578.002
457.912
21.1342
21.1569
21.4863
22.1327
22.6051
22.5516
22.3927
22.2379
22.0308
21.7233
21.1103
19.3301
14.6653
9.49823
11.2157
14.7649
17.1151
18.5052
19.3547
19.9128
20.2852
20.5179
20.6333
20.6445
20.5648
20.4116
20.2012
19.9419
19.6314
19.2563
18.7787
18.0418
16.4637
578.252
455.069
20.5505
20.573
20.8622
21.7271
23.0098
23.6906
23.7084
23.4087
22.9689
22.4341
21.7406
20.603
18.1439
13.0968
9.27485
12.0268
15.2674
17.3487
18.5947
19.3688
19.8827
20.2195
20.414
20.484
20.4449
20.3171
20.1221
19.8739
19.5738
19.2098
18.7433
18.0136
16.4356
578.258
456.312
21.1683
21.0424
20.9555
20.9986
21.9482
23.188
23.8272
23.9571
23.7965
23.449
22.9307
22.1479
20.7322
17.7519
12.734
10.2542
13.0006
15.7873
17.6085
18.7207
19.4167
19.8688
20.1446
20.2736
20.2756
20.1736
19.9943
19.758
19.4715
19.1258
18.6839
17.9872
16.4521
578.255
458.483
21.5358
21.4671
21.6934
22.018
22.523
23.3631
23.8923
24.0478
23.9752
23.7501
23.3851
22.8336
21.9217
20.1879
16.8529
12.4491
11.467
14.0182
16.3692
17.9188
18.8765
19.4826
19.8616
20.0645
20.1188
20.0505
19.8893
19.6614
19.38
19.0414
18.6108
17.9313
16.4224
578.109
458.283
20.9496
20.7046
21.3513
22.4949
23.3351
23.9581
24.2919
24.3791
24.3007
24.0979
23.778
23.3219
22.6444
21.4897
19.3686
15.9477
12.6511
12.7372
14.9739
16.9473
18.2391
19.0309
19.526
19.8147
19.9384
19.9266
19.8087
19.612
19.3539
19.0354
18.6273
17.9822
16.5302
578.181
456.759
20.2589
19.8703
20.9615
22.7433
23.784
24.3409
24.6179
24.7033
24.6431
24.4631
24.1753
23.7726
23.2069
22.3437
20.88
18.4518
15.331
13.1935
13.8534
15.817
17.4669
18.5265
19.176
19.5642
19.7616
19.8074
19.7335
19.568
19.3303
19.0249
18.6252
17.9854
16.5292
577.957
452.576
19.2337
18.851
20.042
22.3692
23.6425
24.29
24.6527
24.8307
24.8558
24.7488
24.5252
24.1878
23.7149
23.0353
21.986
20.282
17.8075
15.2266
13.987
14.8386
16.5261
17.8793
18.7352
19.2582
19.5568
19.6843
19.6751
19.5574
19.3518
19.0662
18.6789
18.0512
16.6137
578.005
450.321
18.9732
18.2964
18.0284
20.1111
22.1939
23.3781
24.0607
24.4719
24.6917
24.7523
24.6726
24.463
24.1184
23.6059
22.842
21.6698
19.8961