/*--------------------------------*- C++ -*----------------------------------*\
| =========                 |                                                 |
| \\      /  F ield         | OpenFOAM: The Open Source CFD Toolbox           |
|  \\    /   O peration     | Version:  v2006                                 |
|   \\  /    A nd           | Website:  www.openfoam.com                      |
|    \\/     M anipulation  |                                                 |
\*---------------------------------------------------------------------------*/
FoamFile
{
    version     2.0;
    format      ascii;
    class       surfaceScalarField;
    location    "44";
    object      phi;
}
// * * * * * * * * * * * * * * * * * * * * * * * * * * * * * * * * * * * * * //

dimensions      [1 0 -1 0 0 0 0];
oriented        oriented;


internalField   nonuniform List<scalar> 
228225
(
0.000130383
-3.21429e-05
0.000822421
-4.84782e-05
1.91515e-08
0.00022207
-0.000113879
1.72518e-05
4.78535e-05
-0.000182677
-1.90962e-07
5.25446e-05
-0.000173022
1.11778e-05
-8.28773e-06
-0.000174868
9.37685e-06
-9.67794e-06
-0.000168758
8.03153e-06
-1.4861e-05
-0.000154904
7.38281e-06
-2.05457e-05
-0.000146068
7.45049e-06
-1.61818e-05
-0.000138541
6.32311e-06
-1.27074e-05
-0.000137515
6.05787e-06
-6.13398e-06
-0.000138475
5.86167e-06
-3.62627e-06
-0.000139644
5.91562e-06
-3.47837e-06
-0.00014075
5.83957e-06
-3.48184e-06
-0.000141927
5.51818e-06
-3.1251e-06
-0.000142602
4.90363e-06
-2.97904e-06
-0.00014248
4.00113e-06
-2.86803e-06
-0.00014128
2.85339e-06
-2.78285e-06
-0.000138814
1.53655e-06
-2.72089e-06
-0.00013495
6.68098e-08
-2.63476e-06
-0.000130038
-1.11445e-06
-2.5026e-06
-0.000124035
-2.39828e-06
-2.31194e-06
-0.000117056
-3.61052e-06
-2.0867e-06
-0.000109235
-4.68866e-06
-1.87346e-06
-0.000100742
-5.59734e-06
-1.67376e-06
-9.17507e-05
-6.33022e-06
-1.49124e-06
-8.23996e-05
-6.91269e-06
-1.33677e-06
-7.27762e-05
-7.3941e-06
-1.21343e-06
-6.2926e-05
-7.83314e-06
-1.10302e-06
-5.28841e-05
-8.30274e-06
-9.38974e-07
-4.27531e-05
-8.90121e-06
-5.48396e-07
-3.28581e-05
-9.72681e-06
3.97755e-07
-2.30001e-05
-1.08968e-05
1.49558e-06
-1.20405e-05
-1.26394e-05
1.99796e-06
-1.35446e-05
1.59715e-06
4.75286e-05
-9.43272e-06
-6.72768e-05
9.85074e-05
1.52925e-06
-5.45299e-05
0.000137053
8.03652e-06
-3.16562e-05
0.00014385
1.18569e-05
-2.1083e-05
0.000157351
1.45713e-05
-1.93302e-05
0.000169381
1.60746e-05
-2.084e-05
0.000179681
1.7086e-05
-2.08252e-05
0.000188116
1.75413e-05
-1.93342e-05
0.000194699
1.80733e-05
-1.71755e-05
0.000198485
1.85303e-05
-1.52931e-05
0.000200455
1.91049e-05
-1.38326e-05
0.000200186
1.96228e-05
-1.2033e-05
0.000197848
2.00381e-05
-1.02877e-05
0.00019375
2.0139e-05
-8.89168e-06
0.000188084
1.98659e-05
-7.70218e-06
0.000180879
1.92373e-05
-6.52884e-06
0.000172403
1.82872e-05
-5.5651e-06
0.000162936
1.70849e-05
-4.8141e-06
0.000152715
1.57238e-05
-4.23657e-06
0.000141885
1.42798e-05
-3.79298e-06
0.000130933
1.2813e-05
-3.4606e-06
0.000119878
1.1376e-05
-3.21571e-06
0.000108811
1.00196e-05
-3.01953e-06
9.77988e-05
8.78817e-06
-2.84179e-06
8.68723e-05
7.70535e-06
-2.65015e-06
7.60595e-05
6.76048e-06
-2.44455e-06
6.54209e-05
5.90437e-06
-2.25874e-06
5.50785e-05
5.06329e-06
-2.14843e-06
4.52238e-05
4.1615e-06
-2.17135e-06
3.61094e-05
3.12826e-06
-2.38086e-06
2.79729e-05
1.9476e-06
-2.82147e-06
2.08598e-05
7.54606e-07
-3.50266e-06
1.43535e-05
-5.02829e-07
-3.99005e-06
7.94268e-06
-2.67942e-06
-3.56536e-06
-4.53427e-06
-1.11267e-06
-9.25395e-07
-1.13596e-05
2.43974e-06
2.16123e-05
-7.49987e-06
-1.31938e-05
4.96928e-05
-3.09988e-06
-1.67166e-05
7.73395e-05
2.29263e-06
-1.79148e-05
0.000101575
8.80057e-06
-1.83378e-05
0.000121887
1.41781e-05
-1.83208e-05
0.000138433
1.85127e-05
-1.78906e-05
0.00015141
2.18834e-05
-1.72014e-05
0.000161505
2.44754e-05
-1.63047e-05
0.000169315
2.6396e-05
-1.53931e-05
0.000175434
2.77389e-05
-1.43892e-05
0.000180154
2.86369e-05
-1.33121e-05
0.000184095
2.91368e-05
-1.25877e-05
0.00018803
2.91619e-05
-1.25273e-05
0.000191679
2.8689e-05
-1.21104e-05
0.000194224
2.78153e-05
-1.08392e-05
0.00019544
2.67081e-05
-9.4295e-06
0.000195269
2.55298e-05
-8.13227e-06
0.000193655
2.43612e-05
-6.92834e-06
0.000190582
2.32485e-05
-5.8271e-06
0.000186065
2.22201e-05
-4.82512e-06
0.00018017
2.12947e-05
-3.93532e-06
0.00017299
2.04853e-05
-3.14816e-06
0.00016462
1.98024e-05
-2.42841e-06
0.000155142
1.92501e-05
-1.74818e-06
0.000144621
1.88215e-05
-1.10088e-06
0.000133103
1.84978e-05
-5.07201e-07
0.000120532
1.82533e-05
6.75394e-08
0.000106612
1.80592e-05
7.94446e-07
9.13682e-05
1.78787e-05
1.29018e-06
7.4959e-05
1.76836e-05
1.38839e-06
5.78474e-05
1.74892e-05
8.63119e-07
4.03176e-05
1.7441e-05
-2.70604e-07
2.084e-05
1.75094e-05
-9.34542e-07
1.62776e-05
-4.7604e-07
2.03758e-05
-3.05685e-05
-1.10611e-06
4.29534e-05
-3.14304e-05
1.19901e-06
6.28964e-05
-2.56353e-05
2.30105e-06
7.77839e-05
-1.4956e-05
1.96271e-06
8.96362e-05
-4.26907e-06
7.27843e-07
9.93682e-05
4.43887e-06
-5.51746e-07
0.000107569
1.14754e-05
-1.73171e-06
0.000114465
1.71822e-05
-2.70328e-06
0.000120067
2.17698e-05
-3.28001e-06
0.000124325
2.54011e-05
-3.47661e-06
0.000127065
2.82061e-05
-3.25036e-06
0.00012842
3.03343e-05
-2.96061e-06
0.000128949
3.1895e-05
-3.09928e-06
0.000129131
3.29289e-05
-3.69657e-06
0.000129304
3.34386e-05
-4.63268e-06
0.000129671
3.34407e-05
-5.68776e-06
0.000129902
3.30424e-05
-6.26081e-06
0.000129556
3.24047e-05
-6.23573e-06
0.000128578
3.16549e-05
-6.03909e-06
0.000126954
3.089e-05
-5.76804e-06
0.000124662
3.01741e-05
-5.44705e-06
0.000121665
2.95509e-05
-5.0915e-06
0.000117909
2.90477e-05
-4.7022e-06
0.000113325
2.86801e-05
-4.2686e-06
0.000107817
2.84565e-05
-3.77104e-06
0.000101245
2.8383e-05
-3.17847e-06
9.341e-05
2.84634e-05
-2.45324e-06
8.40729e-05
2.86956e-05
-1.57718e-06
7.30793e-05
2.90601e-05
-6.40705e-07
6.04346e-05
2.94993e-05
2.34254e-07
4.6183e-05
2.98828e-05
1.14616e-06
3.12587e-05
2.99384e-05
1.54502e-06
1.71182e-05
2.92361e-05
1.53767e-06
5.68598e-06
2.6737e-05
1.75716e-06
1.89903e-05
3.16936e-06
5.6388e-06
-4.10612e-05
4.76583e-06
9.18644e-06
-4.14654e-05
6.44385e-06
6.85289e-06
-2.97431e-05
6.40282e-06
3.04959e-06
-1.52568e-05
4.0798e-06
-1.89229e-08
-3.26092e-06
1.84702e-06
-1.21497e-06
4.7698e-06
4.20765e-07
-7.25042e-07
1.08683e-05
-4.77833e-07
1.12347e-06
1.58176e-05
-1.14687e-06
4.14562e-06
1.98004e-05
-1.73106e-06
8.11307e-06
2.30099e-05
-2.24606e-06
1.26889e-05
2.56175e-05
-2.64191e-06
1.74524e-05
2.77416e-05
-2.81435e-06
2.20461e-05
2.94577e-05
-2.79985e-06
2.62448e-05
3.08075e-05
-2.73604e-06
2.98486e-05
3.18135e-05
-2.66914e-06
3.26405e-05
3.25046e-05
-2.59377e-06
3.44734e-05
3.29303e-05
-2.51776e-06
3.5351e-05
3.31494e-05
-2.48365e-06
3.53572e-05
3.32244e-05
-2.49977e-06
3.46305e-05
3.32104e-05
-2.5717e-06
3.33482e-05
3.31464e-05
-2.70844e-06
3.16727e-05
3.30616e-05
-2.87659e-06
2.97419e-05
3.29704e-05
-3.03516e-06
2.76639e-05
3.28922e-05
-3.15805e-06
2.5519e-05
3.28469e-05
-3.2298e-06
2.33597e-05
3.28506e-05
-3.23567e-06
2.12191e-05
3.29114e-05
-3.16325e-06
1.9115e-05
3.3021e-05
-2.99068e-06
1.70413e-05
3.3144e-05
-2.67397e-06
1.49566e-05
3.3205e-05
-2.15022e-06
1.27792e-05
3.30677e-05
-1.35615e-06
1.04642e-05
3.24871e-05
-3.19118e-07
7.47931e-06
3.10115e-05
1.54509e-06
3.78267e-06
2.76082e-05
3.76838e-06
1.85132e-05
5.54207e-06
-1.51731e-05
-3.01513e-05
4.70758e-06
-3.05676e-05
-3.34875e-05
8.84751e-06
-4.15422e-05
-2.53484e-05
8.80166e-06
-4.77633e-05
-1.25285e-05
5.77426e-06
-5.05667e-05
-1.5028e-06
2.58131e-06
-5.13003e-05
5.70273e-06
6.03484e-07
-5.09944e-05
1.13924e-05
-4.80822e-07
-5.00075e-05
1.5954e-05
-1.06285e-06
-4.84997e-05
1.96344e-05
-1.47632e-06
-4.66312e-05
2.26393e-05
-1.76444e-06
-4.45232e-05
2.51133e-05
-1.9567e-06
-4.22714e-05
2.71533e-05
-2.06761e-06
-3.99615e-05
2.88208e-05
-2.09891e-06
-3.76748e-05
3.01521e-05
-2.05143e-06
-3.54881e-05
3.11692e-05
-1.92932e-06
-3.34551e-05
3.18881e-05
-1.74066e-06
-3.15798e-05
3.23218e-05
-1.49634e-06
-2.98112e-05
3.24844e-05
-1.20374e-06
-2.80407e-05
3.2394e-05
-8.7498e-07
-2.61167e-05
3.20774e-05
-5.27118e-07
-2.38702e-05
3.15779e-05
-1.88714e-07
-2.13672e-05
3.09558e-05
3.42959e-07
-1.85521e-05
3.02811e-05
8.73641e-07
-1.54042e-05
2.96316e-05
1.36553e-06
-1.19704e-05
2.90718e-05
1.83212e-06
-8.33913e-06
2.86447e-05
2.28211e-06
-4.62868e-06
2.83692e-05
2.73203e-06
-9.83728e-07
2.82382e-05
3.20692e-06
2.42594e-06
2.82138e-05
3.73687e-06
5.40381e-06
2.82192e-05
4.35455e-06
7.69627e-06
2.81327e-05
5.10773e-06
8.90638e-06
2.77698e-05
6.08233e-06
8.47179e-06
2.67485e-05
7.36063e-06
5.66344e-06
2.43241e-05
8.73235e-06
1.77469e-05
8.57013e-06
-1.60742e-05
-1.79172e-05
4.11009e-06
-3.41929e-05
-2.16897e-05
6.33083e-06
-4.78578e-05
-2.17812e-05
9.9512e-06
-5.41217e-05
-1.66597e-05
1.14056e-05
-5.44193e-05
-1.00044e-05
1.04886e-05
-5.32427e-05
-2.74713e-06
9.13383e-06
-5.15575e-05
3.86493e-06
7.72905e-06
-4.96989e-05
9.46363e-06
6.48246e-06
-4.78443e-05
1.41126e-05
5.45451e-06
-4.59886e-05
1.78558e-05
4.64471e-06
-4.40521e-05
2.07999e-05
4.03036e-06
-4.19411e-05
2.3063e-05
3.58491e-06
-3.95742e-05
2.47478e-05
3.28488e-06
-3.68897e-05
2.5932e-05
3.11101e-06
-3.38426e-05
2.66698e-05
3.04908e-06
-3.03996e-05
2.69984e-05
3.08908e-06
-2.6535e-05
2.69468e-05
3.22225e-06
-2.22403e-05
2.65471e-05
3.44524e-06
-1.75347e-05
2.58465e-05
3.75172e-06
-1.24767e-05
2.49171e-05
4.12866e-06
-7.17212e-06
2.38589e-05
4.55641e-06
-1.76803e-06
2.27854e-05
5.01067e-06
3.56583e-06
2.18035e-05
5.46668e-06
8.67348e-06
2.09926e-05
5.90484e-06
1.34304e-05
2.03984e-05
6.31482e-06
1.7742e-05
2.00391e-05
6.69747e-06
2.15257e-05
1.99168e-05
7.0642e-06
2.46831e-05
2.00268e-05
7.43407e-06
2.70729e-05
2.03516e-05
7.83194e-06
2.85024e-05
2.0835e-05
8.2885e-06
2.86837e-05
2.14097e-05
8.84411e-06
2.69729e-05
2.22039e-05
9.529e-06
2.17656e-05
2.37792e-05
1.02286e-05
1.25299e-05
2.45026e-05
1.0629e-05
2.1757e-05
9.22591e-06
-4.77962e-06
-1.655e-05
3.21842e-06
-8.6591e-06
-2.22668e-05
4.35641e-06
-1.21073e-05
-2.2861e-05
4.58155e-06
-1.21642e-05
-2.15411e-05
4.88649e-06
-1.04032e-05
-1.77371e-05
5.80957e-06
-8.16699e-06
-1.19545e-05
6.88614e-06
-5.96137e-06
-5.80231e-06
7.5865e-06
-3.57383e-06
-4.01807e-07
7.85126e-06
-1.43876e-06
4.77326e-06
7.82112e-06
8.63071e-07
8.77129e-06
7.61433e-06
3.47954e-06
1.18613e-05
7.32908e-06
6.48509e-06
1.41704e-05
7.02748e-06
9.91583e-06
1.58091e-05
6.74377e-06
1.37627e-05
1.68898e-05
6.49409e-06
1.7972e-05
1.75106e-05
6.28429e-06
2.24545e-05
1.77474e-05
6.1143e-06
2.70889e-05
1.76652e-05
5.98096e-06
3.17244e-05
1.73311e-05
5.87837e-06
3.6181e-05
1.6823e-05
5.80366e-06
4.02684e-05
1.62294e-05
5.75018e-06
4.38129e-05
1.56419e-05
5.71186e-06
4.66752e-05
1.51488e-05
5.68549e-06
4.87649e-05
1.4818e-05
5.67171e-06
5.00439e-05
1.46834e-05
5.67444e-06
5.05131e-05
1.47534e-05
5.69981e-06
5.01934e-05
1.50213e-05
5.75599e-06
4.91114e-05
1.54725e-05
5.85424e-06
4.72923e-05
1.60861e-05
6.00871e-06
4.47632e-05
1.68222e-05
6.23422e-06
4.1566e-05
1.75864e-05
6.54751e-06
3.76527e-05
1.83536e-05
6.99375e-06
3.24423e-05
1.96259e-05
7.7202e-06
2.33638e-05
2.37004e-05
8.87284e-06
1.14827e-05
2.639e-05
9.34846e-06
2.46541e-05
7.59708e-06
-1.25305e-06
-1.88498e-05
3.48021e-06
2.07934e-06
-2.97707e-05
4.1986e-06
6.94518e-06
-3.18966e-05
4.19158e-06
1.19971e-05
-3.08464e-05
4.19261e-06
1.69937e-05
-2.70978e-05
4.21553e-06
2.15078e-05
-2.10343e-05
4.37515e-06
2.48182e-05
-1.39314e-05
4.65147e-06
2.66034e-05
-7.2366e-06
4.92766e-06
2.78521e-05
-1.71882e-06
5.14861e-06
2.87006e-05
2.5723e-06
5.26684e-06
2.93811e-05
5.83429e-06
5.27407e-06
3.0095e-05
8.21826e-06
5.18331e-06
3.1052e-05
9.79718e-06
5.02122e-06
3.23356e-05
1.07765e-05
4.81608e-06
3.3899e-05
1.13581e-05
4.58726e-06
3.56324e-05
1.16696e-05
4.34432e-06
3.73957e-05
1.17976e-05
4.09507e-06
3.90418e-05
1.18128e-05
3.84372e-06
4.04342e-05
1.17792e-05
3.59504e-06
4.14677e-05
1.17513e-05
3.35571e-06
4.20789e-05
1.1773e-05
3.132e-06
4.2248e-05
1.18856e-05
2.92917e-06
4.19889e-05
1.21189e-05
2.75362e-06
4.13302e-05
1.24864e-05
2.61163e-06
4.03006e-05
1.29912e-05
2.50762e-06
3.8924e-05
1.36274e-05
2.44403e-06
3.72205e-05
1.43789e-05
2.42437e-06
3.52121e-05
1.52168e-05
2.4526e-06
3.29375e-05
1.60782e-05
2.53373e-06
3.03368e-05
1.69552e-05
2.67764e-06
2.68859e-05
1.82071e-05
2.94048e-06
2.1326e-05
2.07283e-05
3.54862e-06
1.3236e-05
2.54817e-05
4.9178e-06
5.30072e-06
2.73504e-05
5.62673e-06
2.46426e-05
4.59113e-06
3.49342e-07
-2.09192e-05
1.94019e-06
4.85738e-06
-3.61337e-05
2.57927e-06
1.17387e-05
-4.00386e-05
2.15065e-06
1.91102e-05
-3.91347e-05
1.68681e-06
2.61723e-05
-3.51341e-05
1.41379e-06
3.22073e-05
-2.86944e-05
1.64705e-06
3.61816e-05
-2.04313e-05
2.26275e-06
3.77847e-05
-1.20134e-05
2.84728e-06
3.75542e-05
-4.95931e-06
3.20541e-06
3.6356e-05
2.21149e-07
3.35448e-06
3.43471e-05
4.3225e-06
3.3639e-06
3.22706e-05
6.87555e-06
3.27375e-06
3.04275e-05
8.38593e-06
3.10876e-06
2.88632e-05
9.28985e-06
2.90305e-06
2.75491e-05
9.84417e-06
2.67851e-06
2.64404e-05
1.01866e-05
2.44059e-06
2.54854e-05
1.0406e-05
2.19414e-06
2.46267e-05
1.05707e-05
1.94621e-06
2.38125e-05
1.07328e-05
1.7025e-06
2.30022e-05
1.09298e-05
1.46766e-06
2.2171e-05
1.11867e-05
1.24555e-06
2.13132e-05
1.15211e-05
1.03912e-06
2.04409e-05
1.19417e-05
8.51379e-07
1.95737e-05
1.24503e-05
6.8547e-07
1.87348e-05
1.30438e-05
5.43822e-07
1.7947e-05
1.37141e-05
4.27772e-07
1.72306e-05
1.44475e-05
3.36829e-07
1.65958e-05
1.52252e-05
2.69214e-07
1.60027e-05
1.60271e-05
2.25394e-07
1.51902e-05
1.70146e-05
2.28359e-07
1.34166e-05
1.88877e-05
3.77604e-07
9.70803e-06
2.26753e-05
8.44353e-07
5.83959e-06
2.68396e-05
1.57654e-06
2.60153e-06
2.75743e-05
2.10213e-06
2.41912e-05
2.18267e-06
4.50047e-06
-2.79949e-05
2.9835e-06
9.5662e-06
-4.52814e-05
5.08042e-06
1.43881e-05
-4.82116e-05
4.45714e-06
1.71886e-05
-4.41173e-05
3.1417e-06
1.83445e-05
-3.71749e-05
1.59774e-06
1.91254e-05
-2.97681e-05
7.0363e-07
1.91632e-05
-2.12121e-05
8.47363e-07
1.83026e-05
-1.26831e-05
1.44642e-06
1.69784e-05
-5.75576e-06
1.98251e-06
1.54387e-05
-6.63571e-07
2.30035e-06
1.4086e-05
3.15251e-06
2.42153e-06
1.287e-05
5.61332e-06
2.38863e-06
1.17238e-05
7.18867e-06
2.25564e-06
1.0616e-05
8.24338e-06
2.06715e-06
9.56691e-06
8.97274e-06
1.83665e-06
8.60695e-06
9.49768e-06
1.56969e-06
7.75819e-06
9.90177e-06
1.27887e-06
7.03621e-06
1.02483e-05
9.75036e-07
6.45523e-06
1.05819e-05
6.66381e-07
6.03444e-06
1.09295e-05
3.57711e-07
5.8151e-06
1.13034e-05
3.97622e-08
5.72228e-06
1.17152e-05
-1.6673e-07
5.77006e-06
1.21842e-05
-3.61085e-07
5.94482e-06
1.27271e-05
-5.30841e-07
6.20804e-06
1.33572e-05
-6.68024e-07
6.49866e-06
1.4085e-05
-7.69481e-07
6.73103e-06
1.49193e-05
-8.33917e-07
6.78767e-06
1.58711e-05
-8.59881e-07
6.46772e-06
1.69828e-05
-8.4196e-07
5.52641e-06
1.8425e-05
-7.58241e-07
3.95594e-06
2.06257e-05
-5.52296e-07
2.33248e-06
2.40187e-05
-1.66604e-07
1.25462e-06
2.71327e-05
3.60191e-07
7.28427e-08
2.74737e-05
8.40098e-07
2.27419e-05
1.0715e-06
6.88443e-06
-3.86183e-05
4.17986e-06
7.61287e-06
-5.23466e-05
6.69312e-06
3.27773e-06
-5.00524e-05
6.1008e-06
-4.48232e-06
-4.13858e-05
4.774e-06
-1.22621e-05
-3.29121e-05
3.35033e-06
-1.7811e-05
-2.67016e-05
2.53875e-06
-2.12077e-05
-1.99643e-05
2.39988e-06
-2.25175e-05
-1.3454e-05
2.36858e-06
-2.20549e-05
-8.37851e-06
2.36376e-06
-2.06676e-05
-4.33619e-06
2.39365e-06
-1.8788e-05
-1.09219e-06
2.40384e-06
-1.69665e-05
1.42274e-06
2.36409e-06
-1.54803e-05
3.40582e-06
2.26654e-06
-1.4346e-05
4.95841e-06
2.10848e-06
-1.34986e-05
6.18532e-06
1.89124e-06
-1.28599e-05
7.18463e-06
1.62372e-06
-1.23462e-05
8.02675e-06
1.31448e-06
-1.18722e-05
8.76298e-06
9.71675e-07
-1.13555e-05
9.43102e-06
6.02552e-07
-1.07125e-05
1.00558e-05
2.05694e-07
-9.92361e-06
1.06505e-05
-1.55988e-07
-8.98738e-06
1.12337e-05
-4.71231e-07
-7.8717e-06
1.18344e-05
-7.8204e-07
-6.57922e-06
1.24866e-05
-1.07146e-06
-5.14057e-06
1.32224e-05
-1.33117e-06
-3.61398e-06
1.4074e-05
-1.55608e-06
-2.08837e-06
1.50768e-05
-1.74276e-06
-6.95477e-07
1.62803e-05
-1.88791e-06
3.71481e-07
1.77809e-05
-1.98487e-06
8.8613e-07
1.97712e-05
-2.01651e-06
7.73602e-07
2.25069e-05
-1.94585e-06
5.11861e-07
2.58511e-05
-1.73165e-06
5.84106e-07
2.83319e-05
-1.40082e-06
2.79441e-07
2.8459e-05
-8.30467e-07
2.27722e-05
4.58699e-08
-4.90099e-06
-3.88368e-05
5.34577e-06
-1.75471e-05
-4.63439e-05
6.143e-06
-3.12941e-05
-4.23696e-05
5.00823e-06
-4.20153e-05
-3.56593e-05
4.48988e-06
-4.93956e-05
-3.00662e-05
4.62325e-06
-5.36697e-05
-2.69664e-05
4.99701e-06
-5.45761e-05
-2.33921e-05
4.88745e-06
-5.24921e-05
-1.92827e-05
4.15128e-06
-4.8388e-05
-1.56181e-05
3.40086e-06
-4.32826e-05
-1.21361e-05
2.87379e-06
-3.80248e-05
-8.82383e-06
2.59432e-06
-3.32848e-05
-5.7047e-06
2.46544e-06
-2.9361e-05
-2.8681e-06
2.39627e-06
-2.645e-05
-2.61115e-07
2.33035e-06
-2.39624e-05
1.46848e-06
2.23456e-06
-2.19772e-05
3.11249e-06
2.08225e-06
-2.04064e-05
4.58399e-06
1.8631e-06
-1.9127e-05
5.89328e-06
1.58196e-06
-1.80128e-05
7.06231e-06
1.25023e-06
-1.69515e-05
8.11632e-06
8.79977e-07
-1.5853e-05
9.08097e-06
4.79948e-07
-1.46137e-05
9.98156e-06
2.88124e-08
-1.33112e-05
1.0843e-05
-2.89444e-07
-1.18882e-05
1.17018e-05
-6.12939e-07
-1.03263e-05
1.26032e-05
-9.17263e-07
-8.64562e-06
1.36001e-05
-1.18631e-06
-6.90636e-06
1.47544e-05
-1.40827e-06
-5.20941e-06
1.61435e-05
-1.57197e-06
-3.67843e-06
1.78744e-05
-1.66594e-06
-2.41294e-06
2.0105e-05
-1.67784e-06
-1.42689e-06
2.29988e-05
-1.59359e-06
-6.478e-07
2.63372e-05
-1.4049e-06
-1.02212e-07
2.87496e-05
-1.11729e-06
1.42169e-08
2.87685e-05
-5.92467e-07
2.22476e-05
3.89437e-07
-1.93331e-05
-2.43744e-05
4.73365e-06
-3.85507e-05
-3.21854e-05
4.84405e-06
-4.90531e-05
-3.62849e-05
5.11483e-06
-5.25523e-05
-3.66947e-05
5.72075e-06
-5.30945e-05
-3.46044e-05
5.98985e-06
-5.28358e-05
-3.27234e-05
6.26365e-06
-5.10325e-05
-3.0888e-05
6.33358e-06
-4.73968e-05
-2.85798e-05
6.18616e-06
-4.24082e-05
-2.59755e-05
5.77729e-06
-3.64343e-05
-2.30023e-05
5.18386e-06
-2.99773e-05
-1.96637e-05
4.57096e-06
-2.36719e-05
-1.59496e-05
4.03988e-06
-1.81239e-05
-1.19814e-05
3.60333e-06
-1.35e-05
-8.10847e-06
3.22416e-06
-1.02611e-05
-4.67445e-06
2.88682e-06
-8.03683e-06
-1.71795e-06
2.58086e-06
-6.53252e-06
7.5947e-07
2.29105e-06
-5.59786e-06
2.92948e-06
1.9984e-06
-5.08199e-06
4.82826e-06
1.6879e-06
-4.84228e-06
6.4998e-06
1.34963e-06
-4.75069e-06
7.9898e-06
9.78612e-07
-4.69126e-06
9.33835e-06
5.72073e-07
-4.53726e-06
1.05806e-05
1.0827e-07
-4.30233e-06
1.17501e-05
-2.70372e-07
-3.92971e-06
1.28963e-05
-6.39206e-07
-3.36203e-06
1.40785e-05
-1.00625e-06
-2.57418e-06
1.53667e-05
-1.34876e-06
-1.57918e-06
1.68542e-05
-1.64667e-06
-4.47916e-07
1.86783e-05
-1.87442e-06
6.74705e-07
2.10312e-05
-1.99214e-06
1.595e-06
2.40692e-05
-1.93851e-06
2.14084e-06
2.74905e-05
-1.64732e-06
2.16356e-06
2.98767e-05
-1.10999e-06
1.42656e-06
2.98402e-05
-3.29197e-07
2.28658e-05
7.65104e-07
-1.53894e-05
-1.3193e-05
4.29448e-06
-2.85932e-05
-2.37705e-05
5.35664e-06
-3.68488e-05
-3.29196e-05
5.71267e-06
-4.0516e-05
-3.77573e-05
5.42618e-06
-3.9711e-05
-3.95536e-05
5.0594e-06
-3.65103e-05
-3.97801e-05
4.97607e-06
-3.20365e-05
-3.92422e-05
5.10796e-06
-2.65917e-05
-3.80239e-05
5.28108e-06
-2.06112e-05
-3.60842e-05
5.38887e-06
-1.45017e-05
-3.33735e-05
5.42364e-06
-8.57623e-06
-3.00185e-05
5.42423e-06
-3.04605e-06
-2.61611e-05
5.44644e-06
1.82487e-06
-2.18324e-05
5.48329e-06
5.80996e-06
-1.72877e-05
5.45304e-06
8.7758e-06
-1.28477e-05
5.28971e-06
1.07277e-05
-8.69401e-06
5.0034e-06
1.16969e-05
-4.90764e-06
4.63191e-06
1.18647e-05
-1.51364e-06
4.20129e-06
1.13386e-05
1.55875e-06
3.73214e-06
1.03241e-05
4.22082e-06
3.24584e-06
9.00273e-06
6.51468e-06
2.76297e-06
7.54668e-06
8.47339e-06
2.29819e-06
6.1037e-06
1.0153e-05
1.85621e-06
4.78953e-06
1.1624e-05
1.43354e-06
3.6997e-06
1.29638e-05
1.02275e-06
2.90692e-06
1.42622e-05
6.15243e-07
2.44496e-06
1.56418e-05
1.95011e-07
2.2296e-06
1.72446e-05
-1.71796e-07
2.15644e-06
1.91999e-05
-4.60901e-07
2.19655e-06
2.16647e-05
-7.18003e-07
2.27859e-06
2.47784e-05
-8.85231e-07
2.26313e-06
2.82194e-05
-8.5701e-07
1.91169e-06
3.05836e-05
-5.21196e-07
9.90147e-07
3.04706e-05
1.29426e-07
2.27528e-05
9.98708e-07
-6.64756e-06
-1.06157e-05
3.73326e-06
-1.14158e-05
-2.38819e-05
4.22473e-06
-1.66967e-05
-3.2891e-05
4.4925e-06
-2.0886e-05
-3.91428e-05
4.99608e-06
-2.28868e-05
-4.3301e-05
5.43516e-06
-2.28351e-05
-4.55743e-05
5.65417e-06
-2.1174e-05
-4.64555e-05
5.71575e-06
-1.81431e-05
-4.62534e-05
5.63814e-06
-1.39142e-05
-4.50295e-05
5.43292e-06
-8.81768e-06
-4.25888e-05
5.10467e-06
-3.50739e-06
-3.88363e-05
4.72105e-06
1.49054e-06
-3.42214e-05
4.40925e-06
6.04203e-06
-2.93539e-05
4.32282e-06
1.012e-05
-2.46353e-05
4.48791e-06
1.36292e-05
-2.01807e-05
4.78508e-06
1.65021e-05
-1.59664e-05
5.04621e-06
1.87494e-05
-1.19516e-05
5.15328e-06
2.03695e-05
-8.06777e-06
5.07788e-06
2.14491e-05
-4.34214e-06
4.83964e-06
2.20359e-05
-8.86975e-07
4.48109e-06
2.18977e-05
2.55447e-06
4.0396e-06
2.10694e-05
5.6902e-06
3.55121e-06
1.9638e-05
8.48875e-06
3.04069e-06
1.76798e-05
1.1012e-05
2.52592e-06
1.52601e-05
1.33389e-05
2.02147e-06
1.25104e-05
1.54953e-05
1.53281e-06
9.80505e-06
1.73764e-05
1.05076e-06
7.65796e-06
1.8995e-05
5.62593e-07
6.41142e-06
2.06802e-05
3.58076e-08
6.00995e-06
2.27693e-05
-3.18133e-07
6.27736e-06
2.56289e-05
-6.25883e-07
6.59089e-06
2.92465e-05
-7.93584e-07
6.19571e-06
3.20632e-05
-5.54736e-07
4.29419e-06
3.2453e-05
4.18211e-07
2.59898e-05
1.43074e-06
5.04158e-06
-1.65781e-05
4.18119e-07
1.29581e-05
-3.24061e-05
-3.14246e-07
1.94716e-05
-4.08644e-05
4.86107e-07
2.39234e-05
-4.5961e-05
1.39129e-06
2.61251e-05
-4.87716e-05
2.28128e-06
2.65009e-05
-4.99938e-05
3.06027e-06
2.56751e-05
-5.02487e-05
3.65987e-06
2.42338e-05
-4.97796e-05
4.05191e-06
2.27026e-05
-4.8561e-05
4.20386e-06
2.16482e-05
-4.63548e-05
4.08781e-06
2.13827e-05
-4.27615e-05
3.74048e-06
2.15248e-05
-3.7747e-05
3.3242e-06
2.14871e-05
-3.20057e-05
3.05343e-06
2.10299e-05
-2.65058e-05
3.08624e-06
2.02207e-05
-2.17974e-05
3.46753e-06
1.9089e-05
-1.78261e-05
4.12706e-06
1.75832e-05
-1.43229e-05
4.89134e-06
1.58162e-05
-1.11049e-05
5.54356e-06
1.40948e-05
-8.10356e-06
5.91694e-06
1.27224e-05
-5.28395e-06
5.96135e-06
1.21076e-05
-2.51335e-06
5.71955e-06
1.20895e-05
3.95274e-07
5.26857e-06
1.26579e-05
3.15783e-06
4.68236e-06
1.37749e-05
5.76367e-06
4.02398e-06
1.56116e-05
8.01564e-06
3.33546e-06
1.77484e-05
1.04567e-05
2.66667e-06
1.8571e-05
1.40514e-05
2.13494e-06
1.72014e-05
1.80868e-05
1.80203e-06
1.42832e-05
2.14885e-05
1.56934e-06
1.07599e-05
2.43487e-05
1.38414e-06
7.32082e-06
2.731e-05
1.26188e-06
4.4785e-06
3.06043e-05
1.17565e-06
2.3864e-06
3.30186e-05
1.06046e-06
8.08727e-07
3.27381e-05
1.30817e-06
2.51897e-05
1.55996e-06
1.44828e-05
-2.90374e-05
-2.22411e-06
3.06671e-05
-4.5434e-05
-2.97201e-06
4.3802e-05
-5.16984e-05
-1.70344e-06
5.31122e-05
-5.43342e-05
-7.91636e-08
5.89317e-05
-5.49515e-05
1.33022e-06
6.16546e-05
-5.41853e-05
2.46189e-06
6.16046e-05
-5.24406e-05
3.22304e-06
5.89853e-05
-4.98599e-05
3.63559e-06
5.4048e-05
-4.65053e-05
3.70412e-06
4.73571e-05
-4.25012e-05
3.41059e-06
4.00908e-05
-3.80742e-05
2.7487e-06
3.36845e-05
-3.33924e-05
1.81212e-06
2.88835e-05
-2.8517e-05
8.62478e-07
2.55811e-05
-2.38223e-05
1.8803e-07
2.34474e-05
-1.98527e-05
-8.96989e-08
2.21857e-05
-1.66697e-05
7.50539e-08
2.15637e-05
-1.40605e-05
6.50277e-07
2.13624e-05
-1.19197e-05
1.5886e-06
2.13945e-05
-1.02077e-05
2.76779e-06
2.16276e-05
-8.8581e-06
3.97341e-06
2.21309e-05
-7.61675e-06
5.03715e-06
2.25775e-05
-5.77895e-06
5.90404e-06
2.1742e-05
-2.5285e-06
6.48722e-06
1.85498e-05
2.20227e-06
6.65352e-06
1.30264e-05
7.05471e-06
6.38723e-06
6.87855e-06
1.10139e-05
5.51156e-06
1.85139e-06
1.52871e-05
3.75558e-06
-1.62243e-06
1.96645e-05
1.81967e-06
-3.97168e-06
2.32588e-05
3.73088e-07
-5.81068e-06
2.6317e-05
-5.24562e-07
-7.10668e-06
2.89883e-05
-9.85418e-07
-7.20682e-06
3.10942e-05
-1.12998e-06
-5.7101e-06
3.18341e-05
-1.07752e-06
-3.27238e-06
3.02446e-05
-6.55019e-07
2.12043e-05
2.76895e-07
1.883e-05
-4.53691e-05
-1.6878e-06
3.41715e-05
-5.67134e-05
-2.90332e-06
4.45077e-05
-5.81277e-05
-2.75864e-06
5.00105e-05
-5.70449e-05
-1.79083e-06
5.13101e-05
-5.47506e-05
-6.44701e-07
4.9297e-05
-5.18038e-05
4.42876e-07
4.4628e-05
-4.8248e-05
1.31963e-06
3.79019e-05
-4.41524e-05
1.90633e-06
2.9897e-05
-3.98095e-05
2.20789e-06
2.13732e-05
-3.54004e-05
2.30036e-06
1.29091e-05
-3.10341e-05
2.21423e-06
5.12772e-06
-2.69294e-05
1.87137e-06
-1.30867e-06
-2.3094e-05
1.24825e-06
-6.30007e-06
-1.94557e-05
5.74142e-07
-1.02871e-05
-1.62201e-05
8.80592e-08
-1.35328e-05
-1.35055e-05
-2.8443e-07
-1.59711e-05
-1.15161e-05
-4.80701e-07
-1.70697e-05
-1.07084e-05
-4.7315e-07
-1.67811e-05
-1.05857e-05
-2.2367e-07
-1.58031e-05
-1.03146e-05
2.73974e-07
-1.48863e-05
-9.64783e-06
1.0209e-06
-1.43173e-05
-8.3431e-06
1.98977e-06
-1.44356e-05
-5.51441e-06
3.08895e-06
-1.58318e-05
-6.41683e-07
4.24016e-06
-1.80982e-05
4.31398e-06
5.19872e-06
-2.05941e-05
8.46608e-06
5.5233e-06
-2.14052e-05
1.16601e-05
5.19155e-06
-1.95486e-05
1.42192e-05
4.54445e-06
-1.51793e-05
1.61012e-05
3.82618e-06
-9.7861e-06
1.88502e-05
3.11196e-06
-5.15239e-06
2.30788e-05
2.3e-06
-1.47445e-06
2.68689e-05
1.50069e-06
6.56665e-07
2.95946e-05
9.33185e-07
1.19696e-06
2.93086e-05
1.10932e-06
2.11298e-05
1.70135e-06
-6.09736e-07
-4.35573e-05
-2.94026e-07
-5.83523e-06
-5.05281e-05
-7.0394e-07
-1.20223e-05
-5.03233e-05
-1.64395e-06
-1.85437e-05
-4.88621e-05
-1.84442e-06
-2.53177e-05
-4.67898e-05
-1.48995e-06
-3.24911e-05
-4.42067e-05
-8.23053e-07
-4.00506e-05
-4.10678e-05
-1.62205e-07
-4.75774e-05
-3.7611e-05
2.15454e-07
-5.44121e-05
-3.43227e-05
3.8411e-07
-5.97957e-05
-3.1443e-05
4.92396e-07
-6.32579e-05
-2.88744e-05
5.89575e-07
-6.50022e-05
-2.63675e-05
6.82583e-07
-6.57503e-05
-2.35506e-05
7.96272e-07
-6.64558e-05
-2.01664e-05
1.01401e-06
-6.7693e-05
-1.6798e-05
1.53026e-06
-6.94937e-05
-1.39355e-05
2.5039e-06
-7.16794e-05
-1.17536e-05
3.64678e-06
-7.46552e-05
-1.06434e-05
4.08728e-06
-7.86931e-05
-1.01464e-05
3.82742e-06
-8.32332e-05
-9.51659e-06
3.5018e-06
-8.79045e-05
-8.59186e-06
3.36055e-06
-9.23637e-05
-7.54696e-06
3.39542e-06
-9.54939e-05
-6.26323e-06
3.55587e-06
-9.58303e-05
-4.45534e-06
3.81819e-06
-9.39114e-05
-1.94997e-06
4.10404e-06
-9.10931e-05
1.2188e-06
4.30475e-06
-8.96123e-05
5.73737e-06
4.43294e-06
-8.48201e-05
4.84629e-06
4.69489e-06
-7.09043e-05
-2.49467e-06
4.93448e-06
-5.35844e-05
-2.88391e-06
4.74073e-06
-3.6496e-05
1.74207e-06
4.63532e-06
-1.99645e-05
6.55211e-06
4.21426e-06
-7.1081e-06
1.34144e-05
3.71118e-06
-5.76617e-07
1.97808e-05
3.31758e-06
1.82007e-05
2.55025e-06
-6.15724e-06
-3.81472e-05
-5.18742e-08
-7.3745e-06
-4.96335e-05
-2.69662e-07
-5.7598e-06
-5.12429e-05
-1.12587e-06
-2.29274e-06
-5.09402e-05
-1.717e-06
1.9773e-06
-4.96379e-05
-1.67334e-06
6.02294e-06
-4.74351e-05
-1.02191e-06
9.04161e-06
-4.43963e-05
1.22692e-07
1.05542e-05
-4.06943e-05
1.38189e-06
1.0293e-05
-3.65148e-05
2.25758e-06
8.12097e-06
-3.20092e-05
2.54519e-06
4.46876e-06
-2.77568e-05
2.37277e-06
4.99467e-07
-2.44088e-05
1.91154e-06
-2.49708e-06
-2.18243e-05
1.24826e-06
-3.73049e-06
-1.93873e-05
4.9193e-07
-3.10212e-06
-1.71698e-05
-2.10366e-07
-9.7388e-07
-1.52874e-05
-7.6972e-07
1.95039e-06
-1.35216e-05
-1.20688e-06
4.48706e-06
-1.17948e-05
-1.4625e-06
6.01133e-06
-1.01806e-05
-1.53535e-06
6.67187e-06
-8.7167e-06
-1.45769e-06
6.76328e-06
-7.40303e-06
-1.23562e-06
6.37986e-06
-6.20596e-06
-8.7335e-07
5.65721e-06
-5.0575e-06
-3.62179e-07
4.84943e-06
-3.91102e-06
4.07182e-07
4.10535e-06
-2.63277e-06
1.5603e-06
2.63378e-06
-7.30151e-07
3.48395e-06
-3.90337e-06
4.5699e-06
7.75593e-06
-1.1433e-05
3.27802e-06
9.34109e-06
-1.44726e-05
-4.474e-06
5.33634e-06
-1.53596e-05
-5.38732e-06
3.45156e-06
-1.32043e-05
-3.50312e-06
3.2e-06
-8.96431e-06
-6.78316e-07
3.2157e-06
-3.86156e-06
4.98065e-06
3.56288e-06
6.06734e-08
1.18297e-05
4.1019e-06
1.50942e-05
3.12925e-06
3.22523e-06
-4.13054e-05
-1.61706e-07
6.92978e-06
-5.31859e-05
-7.95888e-08
1.04243e-05
-5.43651e-05
-2.07667e-07
1.41179e-05
-5.3606e-05
-8.10627e-07
1.812e-05
-5.18328e-05
-1.54043e-06
2.20573e-05
-4.91013e-05
-1.94508e-06
2.53095e-05
-4.54177e-05
-1.83028e-06
2.71848e-05
-4.10277e-05
-1.06192e-06
2.72529e-05
-3.63216e-05
2.69713e-07
2.57375e-05
-3.14244e-05
1.43137e-06
2.3025e-05
-2.66826e-05
2.01207e-06
1.95441e-05
-2.27831e-05
2.07084e-06
1.58669e-05
-1.99224e-05
1.86411e-06
1.27119e-05
-1.77046e-05
1.47931e-06
1.03493e-05
-1.57789e-05
9.34987e-07
8.73567e-06
-1.40295e-05
3.01964e-07
7.92741e-06
-1.23969e-05
-3.76539e-07
7.9204e-06
-1.08957e-05
-9.61787e-07
8.62643e-06
-9.6136e-06
-1.35403e-06
9.90044e-06
-8.50302e-06
-1.57466e-06
1.15359e-05
-7.46096e-06
-1.6644e-06
1.33835e-05
-6.46022e-06
-1.67513e-06
1.54161e-05
-5.51814e-06
-1.64356e-06
1.76803e-05
-4.66283e-06
-1.56959e-06
2.03842e-05
-3.92777e-06
-1.44695e-06
2.41405e-05
-3.24631e-06
-1.22694e-06
3.14221e-05
-2.09725e-06
-4.34735e-07
3.46027e-05
-3.84463e-07
8.65791e-07
2.79962e-05
1.15642e-06
1.26125e-06
1.81651e-05
3.03755e-06
1.5546e-06
8.24252e-06
4.95629e-06
1.60765e-06
-5.01486e-07
7.15888e-06
1.23073e-06
-5.28362e-06
9.17444e-06
9.36841e-07
-4.53375e-06
1.03978e-05
9.06904e-07
1.00868e-05
5.21456e-07
5.05231e-06
-4.52474e-05
-6.37546e-07
6.69587e-06
-5.38618e-05
-7.23699e-07
7.07693e-06
-5.41832e-05
-4.87373e-07
6.84207e-06
-5.30507e-05
-3.33635e-07
6.2895e-06
-5.09382e-05
-4.12038e-07
5.58434e-06
-4.77135e-05
-7.89826e-07
4.70463e-06
-4.32102e-05
-1.45102e-06
3.35695e-06
-3.77108e-05
-2.09483e-06
1.50335e-06
-3.21423e-05
-2.44269e-06
-1.2086e-07
-2.74633e-05
-2.42215e-06
-8.77463e-07
-2.39125e-05
-2.04485e-06
-1.07823e-06
-2.11528e-05
-1.40495e-06
-1.55349e-06
-1.87791e-05
-6.07676e-07
-2.73324e-06
-1.6569e-05
1.10572e-07
-4.44539e-06
-1.4567e-05
5.50564e-07
-6.33645e-06
-1.29016e-05
7.94162e-07
-8.01494e-06
-1.15805e-05
8.81087e-07
-9.2012e-06
-1.05182e-05
8.21282e-07
-9.77484e-06
-9.61292e-06
5.80248e-07
-9.60624e-06
-8.75732e-06
8.45169e-08
-8.57049e-06
-7.86648e-06
-6.43641e-07
-6.9044e-06
-6.91438e-06
-1.23846e-06
-5.00022e-06
-5.90631e-06
-1.55417e-06
-3.18375e-06
-4.83023e-06
-1.69609e-06
-1.80531e-06
-3.62631e-06
-1.7324e-06
-1.14391e-06
-2.27619e-06
-1.68516e-06
-8.95762e-07
-8.31816e-07
-1.56292e-06
-6.46714e-07
6.72131e-07