/*--------------------------------*- C++ -*----------------------------------*\
| =========                 |                                                 |
| \\      /  F ield         | OpenFOAM: The Open Source CFD Toolbox           |
|  \\    /   O peration     | Version:  v2006                                 |
|   \\  /    A nd           | Website:  www.openfoam.com                      |
|    \\/     M anipulation  |                                                 |
\*---------------------------------------------------------------------------*/
FoamFile
{
    version     2.0;
    format      ascii;
    class       volScalarField;
    location    "18";
    object      nut;
}
// * * * * * * * * * * * * * * * * * * * * * * * * * * * * * * * * * * * * * //

dimensions      [0 2 -1 0 0 0 0];


internalField   nonuniform List<scalar> 
78750
(
7.64813e-07
1.02255e-05
1.2004e-05
1.15612e-05
1.14183e-05
1.12747e-05
1.11932e-05
1.11516e-05
1.11401e-05
1.11533e-05
1.1198e-05
1.12654e-05
1.1352e-05
1.14479e-05
1.1538e-05
1.16115e-05
1.16627e-05
1.16888e-05
1.16883e-05
1.16599e-05
1.16017e-05
1.15106e-05
1.13829e-05
1.12142e-05
1.09989e-05
1.07306e-05
1.04016e-05
1.00024e-05
9.52169e-06
8.94716e-06
8.26869e-06
7.44906e-06
5.74658e-06
3.52681e-06
4.64465e-08
1.0016e-07
8.73038e-06
1.66011e-05
2.33025e-05
2.66896e-05
3.07375e-05
3.64514e-05
4.34705e-05
5.00335e-05
4.91394e-05
4.84576e-05
4.30504e-05
3.58179e-05
3.11142e-05
2.85666e-05
2.72999e-05
2.67146e-05
2.65065e-05
2.65395e-05
2.67444e-05
2.70851e-05
2.75281e-05
2.80172e-05
2.84775e-05
2.87588e-05
2.85813e-05
2.7522e-05
2.51132e-05
2.11673e-05
1.6228e-05
1.15098e-05
8.24674e-06
7.10911e-06
6.7781e-06
5.8095e-08
1.81299e-07
1.11438e-05
1.50494e-05
1.45318e-05
1.39451e-05
1.35214e-05
1.33059e-05
1.34188e-05
1.41841e-05
1.55802e-05
1.72157e-05
1.88648e-05
2.04305e-05
2.18826e-05
2.32436e-05
2.45005e-05
2.55914e-05
2.64436e-05
2.70125e-05
2.72847e-05
2.72549e-05
2.69276e-05
2.62907e-05
2.52826e-05
2.38523e-05
2.19553e-05
1.95222e-05
1.64827e-05
1.29158e-05
9.30149e-06
6.48115e-06
5.1527e-06
6.01869e-06
7.29856e-06
6.76208e-08
1.52797e-07
1.17755e-05
3.15946e-05
2.6829e-05
2.35832e-05
2.18034e-05
2.14901e-05
2.15978e-05
2.06435e-05
1.80733e-05
1.5065e-05
1.32273e-05
1.30615e-05
1.44406e-05
1.7258e-05
2.15203e-05
2.70775e-05
3.29331e-05
3.70734e-05
3.8166e-05
3.67056e-05
3.38557e-05
3.04772e-05
2.7067e-05
2.38937e-05
2.10723e-05
1.85457e-05
1.60445e-05
1.32087e-05
9.97641e-06
7.02701e-06
5.37111e-06
5.89142e-06
8.89689e-06
6.60835e-08
1.2448e-07
7.36634e-06
3.10164e-05
2.81271e-05
2.35421e-05
1.92771e-05
1.57352e-05
1.27339e-05
1.01162e-05
8.00158e-06
6.7944e-06
6.72785e-06
7.79339e-06
1.00118e-05
1.34946e-05
1.8446e-05
2.49446e-05
3.19959e-05
3.67746e-05
3.71024e-05
3.38916e-05
2.92441e-05
2.45578e-05
2.04481e-05
1.71388e-05
1.46513e-05
1.28366e-05
1.1369e-05
9.80381e-06
7.85737e-06
5.9322e-06
4.95789e-06
6.26432e-06
6.64925e-06
7.43056e-08
8.91452e-08
5.22157e-06
2.47665e-05
2.63192e-05
2.0954e-05
1.71307e-05
1.44603e-05
1.11633e-05
7.70858e-06
5.54769e-06
4.95497e-06
5.67515e-06
7.52951e-06
1.0505e-05
1.46441e-05
1.99407e-05
2.61778e-05
3.25472e-05
3.73322e-05
3.8762e-05
3.65022e-05
3.16677e-05
2.58601e-05
2.0485e-05
1.63493e-05
1.36021e-05
1.2004e-05
1.11526e-05
1.04776e-05
9.24149e-06
7.34704e-06
6.01156e-06
7.05886e-06
8.88384e-06
8.79615e-08
6.77608e-08
4.88253e-06
1.95206e-05
2.49922e-05
2.06488e-05
1.19133e-05
6.03387e-06
3.53748e-06
2.91963e-06
3.48057e-06
5.03752e-06
7.61589e-06
1.12346e-05
1.56885e-05
2.04419e-05
2.49366e-05
2.90266e-05
3.2839e-05
3.61096e-05
3.75633e-05
3.53184e-05
2.88825e-05
2.08241e-05
1.43151e-05
1.02099e-05
8.00594e-06
7.11035e-06
7.05889e-06
7.34288e-06
7.30992e-06
6.80322e-06
7.0622e-06
1.20829e-05
5.39351e-06
9.67485e-08
7.35968e-08
3.77192e-06
1.26566e-05
1.04416e-05
5.16376e-06
3.04985e-06
2.84628e-06
3.92035e-06
6.21911e-06
9.70053e-06
1.37889e-05
1.71915e-05
1.91414e-05
2.02496e-05
2.14931e-05
2.34393e-05
2.62704e-05
2.99292e-05
3.39166e-05
3.66787e-05
3.52638e-05
2.77982e-05
1.83686e-05
1.16698e-05
7.94848e-06
6.24052e-06
5.91356e-06
6.43462e-06
7.01991e-06
7.1636e-06
7.48742e-06
1.00019e-05
2.2339e-05
4.21519e-06
7.82449e-08
8.42459e-08
3.00025e-06
1.01118e-05
4.89412e-06
2.95944e-06
3.1545e-06
4.74342e-06
7.33791e-06
9.81905e-06
1.1213e-05
1.21027e-05
1.34463e-05
1.5694e-05
1.88727e-05
2.26786e-05
2.66017e-05
3.01664e-05
3.30745e-05
3.50456e-05
3.54684e-05
3.31643e-05
2.71431e-05
1.89552e-05
1.19404e-05
7.38649e-06
4.85608e-06
3.79307e-06
3.94298e-06
5.11649e-06
6.63891e-06
8.42477e-06
1.27032e-05
1.98525e-05
3.63848e-06
6.09129e-08
9.31369e-08
2.73721e-06
9.45561e-06
3.95096e-06
3.37658e-06
4.5529e-06
6.81514e-06
9.3466e-06
1.12604e-05
1.25161e-05
1.35754e-05
1.48613e-05
1.66994e-05
1.92854e-05
2.25952e-05
2.63534e-05
3.01034e-05
3.33237e-05
3.55178e-05
3.62509e-05
3.51114e-05
3.16365e-05
2.55796e-05
1.80221e-05
1.13429e-05
6.79827e-06
4.14536e-06
2.86909e-06
2.74043e-06
3.82931e-06
6.56125e-06
1.22883e-05
1.69544e-05
3.47869e-06
5.45983e-08
9.59928e-08
2.71537e-06
1.08769e-05
4.26925e-06
4.02278e-06
5.49749e-06
7.77714e-06
9.77782e-06
1.07363e-05
1.09673e-05
1.12548e-05
1.22262e-05
1.42913e-05
1.76558e-05
2.2129e-05
2.69465e-05
3.1098e-05
3.39122e-05
3.5162e-05
3.48765e-05
3.32444e-05
3.05525e-05
2.701e-05
2.25379e-05
1.70715e-05
1.14419e-05
6.98473e-06
4.13465e-06
2.61138e-06
2.17353e-06
2.88855e-06
5.77583e-06
1.21482e-05
2.883e-06
5.71579e-08
8.65286e-08
2.59056e-06
1.65943e-05
6.09238e-06
5.14049e-06
6.4273e-06
8.53527e-06
1.02853e-05
1.073e-05
1.01197e-05
9.47843e-06
9.62754e-06
1.1023e-05
1.39693e-05
1.854e-05
2.41271e-05
2.93699e-05
3.31227e-05
3.50907e-05
3.54446e-05
3.44009e-05
3.2119e-05
2.87863e-05
2.4717e-05
2.02224e-05
1.54494e-05
1.06913e-05
6.68215e-06
3.9579e-06
2.46258e-06
2.01313e-06
2.75535e-06
7.13682e-06
2.50165e-06
6.04595e-08
7.31338e-08
2.52041e-06
1.61046e-05
8.58987e-06
6.26661e-06
6.81445e-06
8.22127e-06
9.32053e-06
9.2785e-06
8.40712e-06
7.72861e-06
7.99645e-06
9.63161e-06
1.29895e-05
1.82234e-05
2.45389e-05
3.00235e-05
3.33435e-05
3.45828e-05
3.4363e-05
3.32219e-05
3.14664e-05
2.91642e-05
2.62185e-05
2.25471e-05
1.82573e-05
1.36699e-05
9.30235e-06
5.78293e-06
3.47303e-06
2.3189e-06
2.23363e-06
4.37341e-06
2.5335e-06
6.23228e-08
5.57949e-08
2.30712e-06
1.08768e-05
1.36669e-05
8.73482e-06
7.78946e-06
8.04317e-06
8.23893e-06
7.68829e-06
6.68296e-06
6.16515e-06
6.73512e-06
8.69136e-06
1.22961e-05
1.76045e-05
2.38238e-05
2.92708e-05
3.27932e-05
3.44137e-05
3.45804e-05
3.36513e-05
3.18353e-05
2.9273e-05
2.61252e-05
2.25999e-05
1.88906e-05
1.5099e-05
1.12686e-05
7.68751e-06
4.88381e-06
3.18607e-06
2.64372e-06
3.87445e-06
3.56126e-06
6.36014e-08
4.13551e-08
2.22808e-06
9.04964e-06
1.60043e-05
1.09011e-05
8.74666e-06
7.85925e-06
6.73182e-06
5.30313e-06
4.48619e-06
4.79055e-06
6.36485e-06
9.43727e-06
1.41958e-05
2.01642e-05
2.58869e-05
3.01114e-05
3.26708e-05
3.38954e-05
3.40862e-05
3.34285e-05
3.20115e-05
2.98465e-05
2.69177e-05
2.33153e-05
1.93529e-05
1.54522e-05
1.18704e-05
8.6484e-06
5.9335e-06
4.06464e-06
3.33835e-06
4.4406e-06
5.2385e-06
6.66911e-08
3.72777e-08
2.4517e-06
9.87892e-06
1.74621e-05
1.2092e-05
7.77887e-06
5.10699e-06
3.66628e-06
3.36714e-06
4.23244e-06
6.3884e-06
1.01055e-05
1.52714e-05
2.0727e-05
2.51597e-05
2.84098e-05
3.09259e-05
3.29487e-05
3.44159e-05
3.51248e-05
3.48622e-05
3.34661e-05
3.08681e-05
2.71854e-05
2.28339e-05
1.84432e-05
1.45204e-05
1.12258e-05
8.47461e-06
6.20453e-06
4.58456e-06
3.98437e-06
5.42547e-06
6.18346e-06
6.91791e-08
4.07921e-08
2.40406e-06
9.54559e-06
1.35869e-05
7.27309e-06
4.16112e-06
3.15349e-06
3.39657e-06
4.82822e-06
7.5698e-06
1.15046e-05
1.56912e-05
1.90785e-05
2.1737e-05
2.42793e-05
2.6989e-05
2.97164e-05
3.21137e-05
3.3856e-05
3.47181e-05
3.45401e-05
3.31812e-05
3.05292e-05
2.66372e-05
2.19585e-05
1.72934e-05
1.32917e-05
1.01374e-05
7.70342e-06
5.85317e-06
4.64812e-06
4.39441e-06
6.58652e-06
5.40865e-06
7.14403e-08
4.63656e-08
2.28299e-06
1.03302e-05
7.81064e-06
4.1478e-06
3.21841e-06
3.62529e-06
5.18601e-06
7.83864e-06
1.10871e-05
1.42102e-05
1.70769e-05
1.9988e-05
2.30517e-05
2.60689e-05
2.8784e-05
3.10776e-05
3.29253e-05
3.42696e-05
3.49524e-05
3.47082e-05
3.31969e-05
3.01211e-05
2.55542e-05
2.02788e-05
1.54035e-05
1.15604e-05
8.76886e-06
6.78679e-06
5.41071e-06
4.63973e-06
4.81845e-06
8.3064e-06
4.34567e-06
7.24028e-08
5.0844e-08
2.21384e-06
1.18567e-05
5.52106e-06
3.56919e-06
3.63463e-06
4.85543e-06
7.11659e-06
9.96481e-06
1.28232e-05
1.54761e-05
1.80125e-05
2.05221e-05
2.30131e-05
2.54682e-05
2.78552e-05
3.01003e-05
3.20776e-05
3.36083e-05
3.44554e-05
3.43087e-05
3.27888e-05
2.95591e-05
2.4713e-05
1.91591e-05
1.41242e-05
1.0264e-05
7.58957e-06
5.86066e-06
4.86085e-06
4.49114e-06
5.15616e-06
1.02582e-05
3.59038e-06
7.20783e-08
5.32634e-08
2.27998e-06
1.35693e-05
5.14163e-06
3.8505e-06
4.38491e-06
5.91245e-06
8.0868e-06
1.03819e-05
1.25506e-05
1.4752e-05
1.72376e-05
2.00829e-05
2.31146e-05
2.60402e-05
2.86337e-05
3.08028e-05
3.25209e-05
3.3729e-05
3.42783e-05
3.39059e-05
3.22516e-05
2.89878e-05
2.41942e-05
1.87033e-05
1.36625e-05
9.73861e-06
7.01075e-06
5.29944e-06
4.4246e-06
4.25894e-06
5.25997e-06
1.14025e-05
3.10977e-06
7.17766e-08
5.34319e-08
2.30354e-06
1.51656e-05
6.0323e-06
4.4973e-06
4.98309e-06
6.30034e-06
7.99382e-06
9.74677e-06
1.15473e-05
1.36311e-05
1.61942e-05
1.92027e-05
2.23774e-05
2.53734e-05
2.79799e-05
3.01381e-05
3.18367e-05
3.30224e-05
3.35619e-05
3.32283e-05
3.17158e-05
2.87347e-05
2.42897e-05
1.90088e-05
1.3925e-05
9.80012e-06
6.85875e-06
5.00055e-06
4.07247e-06
3.93755e-06
5.03844e-06
1.12269e-05
2.80193e-06
7.13401e-08
4.86317e-08
2.14429e-06
1.32195e-05
8.08951e-06
5.40501e-06
5.34105e-06
6.09105e-06
7.11761e-06
8.30241e-06
9.7813e-06
1.18315e-05
1.4652e-05
1.81649e-05
2.19253e-05
2.53466e-05
2.80898e-05
3.01369e-05
3.15829e-05
3.24758e-05
3.27705e-05
3.23314e-05
3.09601e-05
2.8457e-05
2.47555e-05
2.01244e-05
1.52185e-05
1.08141e-05
7.42561e-06
5.16819e-06
3.94988e-06
3.6288e-06
4.54996e-06
1.02724e-05
2.64264e-06
7.19652e-08
4.13423e-08
1.9342e-06
9.4207e-06
1.1733e-05
6.99268e-06
5.96094e-06
5.9713e-06
6.29574e-06
6.93178e-06
8.15079e-06
1.01817e-05
1.31326e-05
1.68326e-05
2.07283e-05
2.41713e-05
2.68693e-05
2.88907e-05
3.03746e-05
3.13595e-05
3.17703e-05
3.14574e-05
3.02538e-05
2.80537e-05
2.48953e-05
2.09814e-05
1.66311e-05
1.23102e-05
8.58961e-06
5.86398e-06
4.22897e-06
3.59366e-06
4.19789e-06
9.30004e-06
2.64332e-06
7.3021e-08
3.61571e-08
1.83622e-06
7.87654e-06
1.42889e-05
8.44137e-06
6.38498e-06
5.7465e-06
5.70084e-06
6.2436e-06
7.61132e-06
9.92776e-06
1.3179e-05
1.70259e-05
2.07635e-05
2.3791e-05
2.60404e-05
2.77715e-05
2.91863e-05
3.02688e-05
3.08321e-05
3.06316e-05
2.94807e-05
2.73704e-05
2.45199e-05
2.12018e-05
1.7541e-05
1.3659e-05
9.9324e-06
6.88475e-06
4.85442e-06
3.88977e-06
4.21625e-06
8.87761e-06
2.78947e-06
7.44877e-08
3.39377e-08
1.739e-06
6.93238e-06
1.48311e-05
9.20865e-06
6.43744e-06
5.4551e-06
5.38729e-06
6.12143e-06
7.78573e-06
1.0408e-05
1.38335e-05
1.75363e-05
2.07427e-05
2.30342e-05
2.4625e-05
2.59985e-05
2.74481e-05
2.8851e-05
2.97495e-05
2.9639e-05
2.82682e-05
2.58733e-05
2.30823e-05
2.03411e-05
1.75936e-05
1.45731e-05
1.1276e-05
8.15838e-06
5.79881e-06
4.48713e-06
4.55096e-06
8.87958e-06
3.07314e-06
7.63681e-08
3.22884e-08
1.6431e-06
6.41859e-06
1.43241e-05
8.75243e-06
5.99154e-06
5.19143e-06
5.45294e-06
6.61659e-06
8.75244e-06
1.18262e-05
1.55112e-05
1.89948e-05
2.13973e-05
2.25557e-05
2.30709e-05
2.37637e-05
2.51463e-05
2.7012e-05
2.8401e-05
2.82366e-05
2.61928e-05
2.3118e-05
2.02366e-05
1.80265e-05
1.62246e-05
1.43157e-05
1.19563e-05
9.30245e-06
6.94291e-06
5.41692e-06
5.32807e-06
9.71942e-06
3.41941e-06
8.04163e-08
3.04148e-08
1.54319e-06
6.10441e-06
1.36859e-05
8.0939e-06
5.68459e-06
5.31288e-06
6.03659e-06
7.68511e-06
1.02677e-05
1.36271e-05
1.71627e-05
1.98428e-05
2.09511e-05
2.07136e-05
2.00522e-05
2.00533e-05
2.15176e-05
2.4337e-05
2.67619e-05
2.64432e-05
2.32131e-05
1.93413e-05
1.65572e-05
1.49793e-05
1.40776e-05
1.32325e-05
1.19317e-05
1.00396e-05
7.96871e-06
6.41742e-06
6.31112e-06
1.09688e-05
3.69475e-06
8.85757e-08
2.80527e-08
1.55706e-06
6.59909e-06
1.32958e-05
7.58534e-06
5.88126e-06
6.08059e-06
7.32791e-06
9.47008e-06
1.242e-05
1.57861e-05
1.86652e-05
2.00295e-05
1.95886e-05
1.79996e-05
1.63842e-05
1.58675e-05
1.73992e-05
2.12513e-05
2.4877e-05
2.37976e-05
1.90848e-05
1.49686e-05
1.2703e-05
1.17941e-05
1.16205e-05
1.16466e-05
1.13605e-05
1.03963e-05
8.8711e-06
7.51964e-06
7.64096e-06
1.31169e-05
3.7544e-06
1.01754e-07
2.70667e-08
1.701e-06
7.96814e-06
1.34224e-05
8.05834e-06
7.04793e-06
7.73608e-06
9.39146e-06
1.17911e-05
1.46044e-05
1.71149e-05
1.84067e-05
1.79624e-05
1.60828e-05
1.37089e-05
1.18422e-05
1.12439e-05
1.26899e-05
1.70424e-05
2.21491e-05
2.07183e-05
1.51552e-05
1.13583e-05
9.70223e-06
9.35278e-06
9.73237e-06
1.03756e-05
1.07734e-05
1.04637e-05
9.45922e-06
8.52443e-06
9.29977e-06
1.59698e-05
3.58585e-06
1.15485e-07
2.76321e-08
2.13526e-06
1.08932e-05
1.38322e-05
9.81079e-06
9.19326e-06
1.01106e-05
1.18369e-05
1.39483e-05
1.588e-05
1.69153e-05
1.65529e-05
1.48821e-05
1.25162e-05
1.0263e-05
8.74153e-06
8.37188e-06
9.75644e-06
1.39656e-05
1.93295e-05
1.68401e-05
1.11571e-05
8.14319e-06
7.12225e-06
7.29465e-06
8.24886e-06
9.49501e-06
1.03605e-05
1.04965e-05
1.01662e-05
1.02498e-05
1.26382e-05
1.64544e-05
3.14165e-06
1.16533e-07
2.93045e-08
2.58659e-06
1.26609e-05
1.70688e-05
1.31383e-05
1.20815e-05
1.2631e-05
1.39008e-05
1.53439e-05
1.64293e-05
1.66294e-05
1.56321e-05
1.35769e-05
1.10393e-05
8.74446e-06
7.20571e-06
6.70611e-06
7.66045e-06
1.09384e-05
1.54042e-05
1.3108e-05
8.51052e-06
6.09058e-06
5.21388e-06
5.47182e-06
6.8553e-06
8.97677e-06
1.05272e-05
1.06886e-05
1.04315e-05
1.12604e-05
1.49364e-05
1.21199e-05
2.62398e-06
1.00696e-07
2.67475e-08
2.71686e-06
1.18193e-05
1.97896e-05
1.71047e-05
1.52539e-05
1.49262e-05
1.53966e-05
1.61352e-05
1.67258e-05
1.67797e-05
1.59747e-05
1.42281e-05
1.18751e-05
9.54838e-06
7.82609e-06
7.04188e-06
7.47232e-06
9.48044e-06
1.22693e-05
1.20985e-05
9.23485e-06
6.49424e-06
4.66323e-06
3.77859e-06
3.84227e-06
4.99383e-06
7.28797e-06
1.0205e-05
1.23464e-05
1.38669e-05
1.66938e-05
1.13127e-05
2.60251e-06
8.83112e-08
2.04385e-08
2.52784e-06
9.19483e-06
1.80643e-05
1.91563e-05
1.79356e-05
1.6875e-05
1.62659e-05
1.59502e-05
1.56047e-05
1.47344e-05
1.30544e-05
1.0915e-05
8.96749e-06
7.65505e-06
7.21075e-06
7.93175e-06
1.01796e-05
1.28756e-05
1.26817e-05
1.05395e-05
9.16819e-06
8.78408e-06
8.07904e-06
6.13366e-06
4.22803e-06
3.28288e-06
3.35987e-06
4.46421e-06
6.83041e-06
1.0895e-05
1.60581e-05
1.0554e-05
2.56746e-06
1.00251e-07
1.42477e-08
2.71551e-06
9.60815e-06
1.58741e-05
1.7318e-05
1.64128e-05
1.57051e-05
1.44277e-05
1.2042e-05
9.33458e-06
7.18345e-06
5.7997e-06
5.06828e-06
4.90658e-06
5.36849e-06
6.69472e-06
9.19584e-06
1.19694e-05
1.23517e-05
1.08023e-05
9.38453e-06
8.72449e-06
8.74064e-06
9.21481e-06
9.54044e-06
8.49578e-06
6.16333e-06
4.30739e-06
3.56808e-06
3.94879e-06
5.65379e-06
9.38997e-06
1.00548e-05
2.43974e-06
1.27236e-07
1.41726e-08
2.99664e-06
9.94337e-06
1.45419e-05
1.59001e-05
1.02618e-05
6.23263e-06
4.20161e-06
3.24993e-06
2.9287e-06
3.08542e-06
3.71388e-06
4.91886e-06
6.98171e-06
1.02212e-05
1.3595e-05
1.43643e-05
1.28343e-05
1.10782e-05
1.00766e-05
1.00863e-05
1.11704e-05
1.31696e-05
1.52291e-05
1.56774e-05
1.34573e-05
9.74546e-06
6.50584e-06
4.50092e-06
3.70189e-06
4.16577e-06
6.83018e-06
8.90353e-06
2.10667e-06
1.45283e-07
2.00307e-08
2.34971e-06
8.00662e-06
6.88014e-06
4.22965e-06
3.11569e-06
2.88526e-06
3.27013e-06
4.27082e-06
6.11536e-06
9.31099e-06
1.42635e-05
1.95074e-05
2.18747e-05
2.10291e-05
1.87343e-05
1.64661e-05
1.50499e-05
1.47817e-05
1.55739e-05
1.69892e-05
1.83507e-05
1.90575e-05
1.87001e-05
1.70272e-05
1.411e-05
1.06127e-05
7.47973e-06
5.24313e-06
4.00747e-06
3.91129e-06
6.03502e-06
8.54941e-06
1.91464e-06
1.38401e-07
2.85147e-08
2.54299e-06
7.52533e-06
3.91706e-06
3.20379e-06
3.66253e-06
5.33174e-06
8.76736e-06
1.37581e-05
1.72053e-05
1.74097e-05
1.64856e-05
1.62589e-05
1.73652e-05
1.94597e-05
2.08571e-05
1.94379e-05
1.57676e-05
1.24444e-05
1.05591e-05
9.9432e-06
1.02722e-05
1.12472e-05
1.2413e-05
1.30565e-05
1.24549e-05
1.05254e-05
8.07001e-06
5.96514e-06
4.62585e-06
4.35757e-06
6.41875e-06
8.76781e-06
1.91828e-06
1.32498e-07
3.19194e-08
3.43428e-06
6.93859e-06
3.85065e-06
3.85083e-06
5.20179e-06
7.54111e-06
9.77444e-06
1.13278e-05
1.28375e-05
1.48959e-05
1.76085e-05
2.05579e-05
2.29124e-05
2.38155e-05
2.27835e-05
2.00258e-05
1.651e-05
1.33411e-05
1.11154e-05
9.93677e-06
9.72399e-06
1.03501e-05
1.15138e-05
1.25206e-05
1.25099e-05
1.12124e-05
9.17829e-06
7.19735e-06
5.8278e-06
5.58336e-06
7.97592e-06
9.76047e-06
2.12653e-06
1.22585e-07
2.54922e-08
3.44687e-06
1.27692e-05
5.42128e-06
4.79256e-06
5.82524e-06
7.87081e-06
1.02437e-05
1.18689e-05
1.22697e-05
1.20871e-05
1.22091e-05
1.31873e-05
1.52652e-05
1.83491e-05
2.16699e-05
2.34666e-05
2.16375e-05
1.66581e-05
1.19376e-05
8.94753e-06
7.40008e-06
6.92821e-06
7.36063e-06
8.48224e-06
9.57625e-06
9.66821e-06
8.73076e-06
7.56239e-06
6.84758e-06
7.31663e-06
1.08359e-05
1.0222e-05
2.33213e-06
1.14318e-07
1.89956e-08
3.66215e-06
1.17467e-05
6.58442e-06
5.51618e-06
6.06364e-06
7.39198e-06
9.11905e-06
1.09704e-05
1.27857e-05
1.44303e-05
1.5778e-05
1.6907e-05
1.81343e-05
1.97605e-05
2.18168e-05
2.39481e-05
2.54623e-05
2.52855e-05
2.18051e-05
1.54626e-05
1.00891e-05
7.05193e-06
5.72232e-06
5.59757e-06
6.47034e-06
7.83714e-06
8.64921e-06
8.37382e-06
7.90767e-06
8.62577e-06
1.24887e-05
1.10723e-05
2.50408e-06
1.07171e-07
1.99032e-08
3.72656e-06
1.18096e-05
7.74735e-06
6.57084e-06
6.92453e-06
7.74221e-06
8.51554e-06
9.10775e-06
9.68619e-06
1.05213e-05
1.18996e-05
1.40714e-05
1.71121e-05
2.0697e-05
2.41119e-05
2.66988e-05
2.81135e-05
2.81307e-05
2.64177e-05
2.24688e-05
1.65837e-05
1.09665e-05
7.25023e-06
5.32759e-06
4.73489e-06
5.17639e-06
6.26445e-06
7.49599e-06
8.65023e-06
1.05816e-05
1.49503e-05
1.1018e-05
2.56524e-06
1.05655e-07
2.18789e-08
2.99065e-06
1.20632e-05
1.11209e-05
8.46836e-06
8.10468e-06
8.5376e-06
9.17543e-06
9.7919e-06
1.03266e-05
1.08899e-05
1.17141e-05
1.31001e-05
1.53638e-05
1.86564e-05
2.2608e-05
2.61859e-05
2.82395e-05
2.81431e-05
2.60006e-05
2.2494e-05
1.82997e-05
1.38294e-05
9.70299e-06
6.64259e-06
4.88517e-06
4.31975e-06
4.70022e-06
5.69995e-06
7.03685e-06
9.23466e-06
1.41015e-05
1.0637e-05
2.46814e-06
1.08946e-07
1.90293e-08
2.69865e-06
1.16906e-05
1.43591e-05
1.06503e-05
9.34179e-06
9.23556e-06
9.52757e-06
9.84262e-06
1.00559e-05
1.02969e-05
1.09094e-05
1.23142e-05
1.48722e-05
1.85978e-05
2.26969e-05
2.58359e-05
2.73125e-05
2.7289e-05
2.61871e-05
2.42781e-05
2.1548e-05
1.78416e-05
1.33739e-05
9.08282e-06
5.92864e-06
4.17296e-06
3.66876e-06
4.21765e-06
5.81629e-06
8.79529e-06
1.43991e-05
1.17949e-05
2.66119e-06
1.10065e-07
1.60525e-08
2.47435e-06
1.07076e-05
1.32417e-05
1.18935e-05
9.70692e-06
8.72712e-06
8.14608e-06
7.71932e-06
7.62415e-06
8.10805e-06
9.44048e-06
1.1938e-05
1.57541e-05
2.01642e-05
2.34867e-05
2.48272e-05
2.45884e-05
2.34811e-05
2.20936e-05
2.08059e-05
1.97245e-05
1.86092e-05
1.68344e-05
1.37077e-05
9.59383e-06
6.04143e-06
3.93495e-06
3.14072e-06
3.49106e-06
5.43298e-06
1.0821e-05
1.03252e-05
2.4957e-06
1.13707e-07
1.46668e-08
2.62047e-06
1.03938e-05
1.27677e-05
1.2928e-05
9.43541e-06
7.48987e-06
6.62502e-06
6.62747e-06
7.51397e-06
9.38977e-06
1.24081e-05
1.64128e-05
2.04923e-05
2.34888e-05
2.50615e-05
2.55447e-05
2.53532e-05
2.47706e-05
2.39317e-05
2.28473e-05
2.14702e-05
1.97891e-05
1.78753e-05
1.57328e-05
1.31277e-05
9.91256e-06
6.7028e-06
4.39718e-06
3.27765e-06
3.37953e-06
5.60796e-06
9.5384e-06
2.25492e-06
1.2208e-07
1.42881e-08
2.33178e-06
9.19493e-06
1.11145e-05
7.0748e-06
5.45059e-06
5.21869e-06
5.90585e-06
7.49361e-06
1.01038e-05
1.38309e-05
1.83459e-05
2.26163e-05
2.55606e-05
2.68878e-05
2.69133e-05
2.6064e-05
2.46897e-05
2.30514e-05
2.13415e-05
1.9688e-05
1.81514e-05
1.67312e-05
1.53952e-05
1.4109e-05
1.28345e-05
1.14146e-05
9.58773e-06
7.35885e-06
5.35228e-06
4.31999e-06
5.0319e-06
1.07364e-05
2.66207e-06
1.45417e-07
1.30556e-08
2.48308e-06
8.73271e-06
6.68273e-06
5.32073e-06
5.5031e-06
6.70777e-06
8.88559e-06
1.20257e-05
1.58118e-05
1.9437e-05
2.21159e-05
2.37523e-05
2.47327e-05
2.53281e-05
2.54858e-05
2.50867e-05
2.41601e-05
2.2872e-05
2.14314e-05
2.00118e-05
1.87234e-05
1.76139e-05
1.66914e-05
1.59542e-05
1.52292e-05
1.42337e-05
1.2683e-05
1.0303e-05
7.46033e-06
5.31336e-06
4.94715e-06
9.20797e-06
3.36747e-06
1.91092e-07
1.6939e-08
5.20753e-06
1.27942e-05
7.65946e-06
6.8839e-06
7.79496e-06
9.63336e-06
1.18104e-05
1.36786e-05
1.49556e-05
1.58491e-05
1.67003e-05
1.77256e-05
1.89982e-05
2.04724e-05
2.19357e-05
2.30501e-05
2.34912e-05
2.30785e-05
2.18625e-05
2.01369e-05
1.82922e-05
1.65863e-05
1.50843e-05
1.38521e-05
1.28836e-05
1.1914e-05
1.05604e-05
8.7193e-06
6.92845e-06
6.07748e-06
7.73912e-06
1.79359e-05
2.89956e-06
1.93941e-07
2.57104e-08
8.5319e-06
8.20384e-06
7.02907e-06
8.3219e-06
1.06505e-05
1.20643e-05
1.20024e-05
1.15433e-05
1.13494e-05
1.15332e-05
1.20974e-05
1.31198e-05
1.47512e-05
1.71427e-05
2.02675e-05
2.35051e-05
2.51982e-05
2.33885e-05
1.87647e-05
1.43629e-05
1.15584e-05
1.02329e-05
1.0078e-05
1.07747e-05
1.18091e-05
1.23857e-05
1.19105e-05
1.0763e-05
1.00206e-05
1.11293e-05
1.64385e-05
7.8934e-06
2.14186e-06
1.2684e-07
3.15581e-08
3.68135e-06
1.54144e-05
8.11112e-06
6.11031e-06
5.8081e-06
6.26401e-06
7.19669e-06
8.25601e-06
9.10471e-06
9.74135e-06
1.04327e-05
1.15312e-05
1.34208e-05
1.65733e-05
2.13409e-05
2.54943e-05
2.54513e-05
1.89178e-05
1.34923e-05
1.04399e-05
8.80736e-06
8.022e-06
7.90619e-06
8.42073e-06
9.49234e-06
1.08573e-05
1.2031e-05
1.27701e-05
1.34797e-05
1.43724e-05
1.11587e-05
4.54099e-06
1.63633e-06
6.6795e-08
1.65745e-08
1.86601e-06
6.61209e-06
1.51787e-05
1.6826e-05
1.37712e-05
1.14032e-05
1.0048e-05
8.99589e-06
7.9296e-06
6.85135e-06
6.02207e-06
5.69772e-06
5.92408e-06
6.62349e-06
7.77815e-06
9.47165e-06
1.15533e-05
1.29114e-05
1.20613e-05
9.93549e-06
8.14864e-06
7.00213e-06
6.32479e-06
5.98184e-06
5.93318e-06
6.17549e-06
6.75231e-06
7.81296e-06
9.60483e-06
1.15222e-05
9.07991e-06
3.87238e-06
1.43088e-06
4.83448e-08
6.24296e-09
1.53154e-06
3.79775e-06
7.9498e-06
1.27041e-05
1.39503e-05
1.47591e-05
1.51886e-05
1.52788e-05
1.50775e-05
1.46641e-05
1.41492e-05
1.36465e-05
1.32394e-05
1.07537e-05
8.85762e-06
7.76538e-06
7.22757e-06
7.14815e-06
7.55628e-06
8.56036e-06
9.90686e-06
1.0228e-05
8.93117e-06
7.44846e-06
6.45289e-06
5.90993e-06
5.70793e-06
5.85023e-06
6.57324e-06
8.74027e-06
1.36074e-05
7.49235e-06
2.00005e-06
6.31488e-08
5.24098e-09
1.32215e-06
3.52573e-06
5.48664e-06
5.48559e-06
5.08036e-06
4.85291e-06
4.81117e-06
4.91997e-06
5.17014e-06
5.58354e-06
6.2001e-06
7.07324e-06
8.21887e-06
9.53598e-06
1.07805e-05
1.15926e-05
1.16916e-05
1.11755e-05
1.018e-05
8.87279e-06
7.74313e-06
7.04925e-06
6.62472e-06
6.21588e-06
5.83672e-06
5.76104e-06
5.99145e-06
6.27984e-06
6.60908e-06
7.4801e-06
1.00539e-05
1.14173e-05
2.64299e-06
1.00245e-07
5.94784e-09
2.64517e-06
2.73285e-06
2.54792e-06
2.70634e-06
3.00997e-06
3.40604e-06
3.89888e-06
4.50675e-06
5.27278e-06
6.29598e-06
7.77798e-06
1.01245e-05
1.35693e-05
1.41807e-05
1.33342e-05
1.02273e-05
7.89804e-06
6.02588e-06
4.73116e-06
4.28683e-06
4.6856e-06
5.76877e-06
7.24024e-06
8.86567e-06
1.05836e-05
1.20205e-05
1.23604e-05
1.14977e-05
1.05541e-05
1.08613e-05
1.38084e-05
1.2075e-05
2.5879e-06
1.19448e-07
4.42701e-09
1.92077e-06
2.6462e-06
3.58628e-06
4.80955e-06
6.42369e-06
8.55184e-06
1.11733e-05
1.37365e-05
1.48429e-05
1.30296e-05
9.46829e-06
6.61787e-06
5.03489e-06
4.50806e-06
4.90659e-06
6.02176e-06
7.53518e-06
9.51221e-06
1.23974e-05
1.65121e-05
2.03158e-05
2.21592e-05
2.4224e-05
2.63355e-05
2.61233e-05
2.39166e-05
2.06985e-05
1.73583e-05
1.51304e-05
1.50179e-05
1.76527e-05
1.14408e-05
2.56526e-06
1.14916e-07
7.05722e-09
2.6718e-06
4.4218e-06
6.50078e-06
8.94799e-06
1.14026e-05
1.37255e-05
1.61562e-05
1.76987e-05
1.52513e-05
9.93917e-06
6.18881e-06
4.28007e-06
3.5091e-06
3.7341e-06
5.47839e-06
9.85875e-06
1.58351e-05
2.0548e-05
2.2909e-05
2.47267e-05
2.30414e-05
2.03548e-05
1.91492e-05
1.91285e-05
1.95068e-05
1.95858e-05
1.90556e-05
1.80964e-05
1.72957e-05
1.73835e-05
1.77749e-05
9.34669e-06
2.44256e-06
1.04697e-07
1.26837e-08
4.36252e-06
4.1919e-06
4.82311e-06
5.962e-06
7.55372e-06
9.98226e-06
1.41133e-05
1.93388e-05
1.94448e-05
1.3476e-05
8.37507e-06
5.42559e-06
3.72863e-06
2.74678e-06
2.29215e-06
2.39547e-06
3.36604e-06
5.97972e-06
1.05719e-05
1.45277e-05
1.71446e-05
1.96276e-05
2.10603e-05
2.03769e-05
1.8715e-05
1.73405e-05
1.65644e-05
1.62957e-05
1.64912e-05
1.70847e-05
1.62741e-05
7.88912e-06
2.29375e-06
9.46075e-08
1.62106e-08
6.75461e-06
1.03504e-05
6.64972e-06
4.98993e-06
4.23643e-06
4.28895e-06
5.28978e-06
7.54048e-06
1.15522e-05
1.76839e-05
2.12398e-05
1.60709e-05
1.03164e-05
6.88287e-06
4.81375e-06
3.45089e-06
2.5607e-06
2.1004e-06
2.16729e-06
3.05613e-06
5.34003e-06
9.14698e-06
1.26558e-05
1.50149e-05
1.70763e-05
1.86186e-05
1.88908e-05
1.82772e-05
1.78548e-05
1.8129e-05
1.74386e-05
8.83525e-06
2.5044e-06
9.73732e-08
1.21967e-08
6.38986e-06
1.05763e-05
1.20533e-05
9.90076e-06
8.83201e-06
7.68487e-06
6.1502e-06
4.92156e-06
4.67174e-06
5.80425e-06
8.51542e-06
1.28689e-05
1.81596e-05
2.07195e-05
1.76053e-05
1.2544e-05
8.53695e-06
5.82449e-06
4.02355e-06
2.91103e-06
2.44773e-06
2.72248e-06
4.04431e-06
6.82144e-06
1.04186e-05
1.30478e-05
1.48767e-05
1.6576e-05
1.79447e-05
1.859e-05
1.78949e-05
1.04926e-05
2.86114e-06
1.20608e-07
1.3675e-08
4.93296e-06
1.07976e-05
1.02801e-05
7.73635e-06
6.27473e-06
5.36972e-06
4.96516e-06
5.25188e-06
6.54674e-06
9.29423e-06
1.36602e-05
1.81435e-05
2.02252e-05
2.11571e-05
2.1048e-05
2.0432e-05
1.84223e-05
1.46233e-05
1.03423e-05
6.87845e-06
4.52188e-06
3.16057e-06
2.6674e-06
3.05441e-06
4.58777e-06
7.51528e-06
1.06617e-05
1.23731e-05
1.33515e-05
1.42055e-05
1.43293e-05
9.31758e-06
2.7571e-06
1.40602e-07
1.57633e-08
3.47631e-06
1.0762e-05
1.24006e-05
8.92376e-06
6.78499e-06
5.39892e-06
4.64965e-06
4.63834e-06
5.50413e-06
7.44507e-06
1.06035e-05
1.46591e-05
1.87053e-05
2.12716e-05
2.21246e-05
2.28964e-05
2.30175e-05
2.05039e-05
1.6782e-05
1.24292e-05
8.40655e-06
5.40531e-06
3.54251e-06
2.67572e-06
2.68348e-06
3.62731e-06
5.71303e-06
8.71633e-06
1.11936e-05
1.24486e-05
1.22268e-05
7.16162e-06
2.34794e-06
1.31168e-07
1.76264e-08
2.75531e-06
1.07052e-05
1.23155e-05
8.45829e-06
6.208e-06
4.93662e-06
4.41302e-06
4.69844e-06
5.96185e-06
8.43084e-06
1.21053e-05
1.62257e-05
1.96532e-05
2.05914e-05
2.12957e-05
2.2072e-05
2.28993e-05
2.25816e-05
2.0712e-05
1.78086e-05
1.39434e-05
9.86198e-06
6.47731e-06
4.19539e-06
2.97861e-06
2.66747e-06
3.1822e-06
4.61255e-06
7.30955e-06
1.1135e-05
1.2051e-05
6.04072e-06
2.03719e-06
1.08599e-07
1.9275e-08
2.19062e-06
9.12099e-06
1.25862e-05
8.66143e-06
6.16757e-06
4.87227e-06
4.41949e-06
4.78373e-06
6.08895e-06
8.47858e-06
1.19569e-05
1.60428e-05
1.93282e-05
1.98764e-05
2.05091e-05
2.1269e-05
2.21612e-05
2.16931e-05
2.03936e-05
1.89903e-05
1.70936e-05
1.44051e-05
1.11616e-05
7.99986e-06
5.50055e-06
3.9162e-06
3.23877e-06
3.3851e-06
4.38482e-06
6.82789e-06
1.11735e-05
6.29477e-06
1.92446e-06
8.88677e-08
1.8276e-08
1.81091e-06
6.70804e-06
1.25199e-05
1.05202e-05
6.91793e-06
5.10215e-06
4.45017e-06
4.65009e-06
5.70538e-06
7.71514e-06
1.08019e-05
1.48213e-05
1.74702e-05
1.79737e-05
1.86153e-05
1.945e-05
2.04942e-05
1.94935e-05
1.85772e-05
1.81274e-05
1.76929e-05
1.67755e-05
1.50891e-05
1.2705e-05
1.00212e-05
7.56878e-06
5.74581e-06
4.7377e-06
4.57496e-06
5.38162e-06
7.956e-06
8.06237e-06
2.0733e-06
7.3414e-08
1.27203e-08
1.59954e-06
5.13704e-06
1.13014e-05
1.24004e-05
9.11419e-06
6.43418e-06
5.30209e-06
5.13261e-06
5.67354e-06
6.94747e-06
9.17158e-06
1.26601e-05
1.55437e-05
1.61014e-05
1.6768e-05
1.75948e-05
1.82525e-05
1.67996e-05
1.62e-05
1.63565e-05
1.68167e-05
1.71078e-05
1.684e-05
1.57902e-05
1.39821e-05
1.17251e-05
9.47904e-06
7.67699e-06
6.62397e-06
6.55123e-06
7.87806e-06
9.18467e-06
2.44551e-06
6.43128e-08
7.36556e-09
1.59539e-06
4.59608e-06
8.61897e-06
8.98106e-06
7.37937e-06
6.08816e-06
5.45104e-06
5.36143e-06
5.77324e-06
6.8426e-06
9.08177e-06
1.31692e-05
1.39717e-05
1.4812e-05
1.5703e-05
1.66515e-05
1.57939e-05
1.49101e-05
1.50309e-05
1.59012e-05
1.71521e-05
1.83573e-05
1.90586e-05
1.88535e-05
1.76095e-05
1.55456e-05
1.3115e-05
1.08225e-05
9.11647e-06
8.43253e-06
9.31688e-06
1.06061e-05
2.87849e-06
6.20816e-08
4.4236e-09
1.60923e-06
3.71087e-06
3.82583e-06
3.52972e-06
3.43221e-06
3.57965e-06
4.02134e-06
4.86158e-06
6.44294e-06
9.54625e-06
1.33815e-05
1.45452e-05
1.56888e-05
1.68021e-05
1.73381e-05
1.63552e-05
1.64854e-05
1.75526e-05
1.92343e-05
2.11677e-05
2.29476e-05
2.42092e-05
2.46663e-05
2.40754e-05
2.23856e-05
1.98652e-05
1.69755e-05
1.42039e-05
1.20191e-05
1.09503e-05
1.16959e-05
1.27353e-05
3.23021e-06
6.50482e-08
4.32438e-09
3.46312e-06
3.77151e-06
4.27225e-06
5.26484e-06
6.89464e-06
9.60854e-06
1.40386e-05
1.62519e-05
1.73129e-05
1.82688e-05
1.91117e-05
1.98596e-05
2.05467e-05
2.12257e-05
2.19542e-05
2.27821e-05
2.37438e-05
2.48571e-05
2.61239e-05
2.7521e-05
2.8997e-05
3.04757e-05
3.1859e-05
2.99762e-05
2.66134e-05
2.30511e-05
1.96968e-05
1.67628e-05
1.45503e-05
1.35857e-05
1.4618e-05
1.47404e-05
3.41692e-06
7.05771e-08
7.15811e-09
4.04516e-06
5.96264e-06
8.54016e-06
1.24814e-05
1.68939e-05
1.76774e-05
1.83469e-05
1.89461e-05
1.94989e-05
2.00317e-05
2.05737e-05
2.11545e-05
2.18005e-05
2.2536e-05
2.33838e-05
2.4363e-05
2.54857e-05
2.67536e-05
2.81485e-05
2.96142e-05
3.10877e-05
3.25011e-05
3.37767e-05
3.1554e-05
2.72031e-05
2.33324e-05
2.01798e-05
1.76723e-05
1.59616e-05
1.55385e-05
1.69531e-05
1.47138e-05
3.30437e-06
7.33414e-08
1.23736e-08
4.67499e-06
4.53961e-06
4.98572e-06
6.67138e-06
9.81615e-06
1.42844e-05
1.75993e-05
1.81478e-05
1.87336e-05
1.93531e-05
2.00148e-05
2.07281e-05
2.15035e-05
2.23543e-05
2.32144e-05
2.28788e-05
2.38452e-05
2.60803e-05
2.83973e-05
2.99037e-05
3.14158e-05
3.28496e-05
3.21995e-05
2.87887e-05
2.51358e-05
2.19635e-05
1.93791e-05
1.74296e-05
1.63042e-05
1.64282e-05
1.78815e-05
1.30033e-05
3.01019e-06
7.02918e-08