/*--------------------------------*- C++ -*----------------------------------*\
| =========                 |                                                 |
| \\      /  F ield         | OpenFOAM: The Open Source CFD Toolbox           |
|  \\    /   O peration     | Version:  v2006                                 |
|   \\  /    A nd           | Website:  www.openfoam.com                      |
|    \\/     M anipulation  |                                                 |
\*---------------------------------------------------------------------------*/
FoamFile
{
    version     2.0;
    format      ascii;
    class       volScalarField;
    location    "11";
    object      alphat;
}
// * * * * * * * * * * * * * * * * * * * * * * * * * * * * * * * * * * * * * //

dimensions      [1 -1 -1 0 0 0 0];


internalField   nonuniform List<scalar> 
78750
(
1.15732e-05
1.32795e-05
1.66539e-05
1.50036e-05
1.46816e-05
1.46279e-05
1.45585e-05
1.46519e-05
1.48042e-05
1.50159e-05
1.5265e-05
1.49999e-05
1.46126e-05
1.42639e-05
1.39497e-05
1.3665e-05
1.34045e-05
1.31626e-05
1.29336e-05
1.27114e-05
1.24899e-05
1.22666e-05
1.20094e-05
1.17114e-05
1.13582e-05
1.09325e-05
1.04134e-05
9.77335e-06
8.97716e-06
7.9789e-06
6.73232e-06
5.04581e-06
2.98474e-06
1.46231e-06
2.69114e-08
9.24431e-08
9.43314e-06
2.56231e-05
3.48896e-05
3.53404e-05
3.91875e-05
4.45793e-05
4.9521e-05
5.38086e-05
5.64635e-05
5.78303e-05
5.88354e-05
5.95755e-05
5.99784e-05
6.0137e-05
6.01506e-05
6.0136e-05
6.0148e-05
6.02786e-05
6.0527e-05
6.08532e-05
6.11986e-05
6.09262e-05
5.99499e-05
5.8361e-05
5.58522e-05
5.21195e-05
4.69507e-05
4.03369e-05
3.26825e-05
2.49051e-05
1.82153e-05
1.32903e-05
6.31397e-06
7.96991e-08
2.33972e-07
9.51393e-06
1.38984e-05
1.39621e-05
1.42597e-05
1.52098e-05
1.68117e-05
1.92986e-05
2.46713e-05
3.76451e-05
3.91357e-05
3.86859e-05
3.85758e-05
3.88029e-05
3.93286e-05
4.01007e-05
4.1068e-05
4.21837e-05
4.34068e-05
4.4701e-05
4.60301e-05
4.73568e-05
4.8618e-05
4.97559e-05
4.54553e-05
4.20871e-05
3.91582e-05
3.57341e-05
3.17408e-05
2.74453e-05
2.32583e-05
1.96532e-05
1.584e-05
5.47804e-06
8.59106e-08
1.96386e-07
1.3931e-05
1.87684e-05
1.72657e-05
1.73278e-05
1.85216e-05
2.04683e-05
2.32083e-05
2.91174e-05
4.37999e-05
4.1164e-05
3.85663e-05
3.6392e-05
3.49011e-05
3.41529e-05
3.40688e-05
3.45382e-05
3.54329e-05
3.65649e-05
3.50051e-05
3.39838e-05
3.38068e-05
3.40704e-05
3.41509e-05
3.36015e-05
3.24099e-05
3.07119e-05
2.85936e-05
2.61751e-05
2.37358e-05
2.17393e-05
2.0672e-05
1.94887e-05
6.32785e-06
8.84416e-08
1.83962e-07
9.5642e-06
2.21525e-05
1.96765e-05
1.90563e-05
1.94914e-05
2.00751e-05
1.96263e-05
1.71493e-05
1.32463e-05
9.37022e-06
6.70651e-06
5.67633e-06
6.17492e-06
7.73834e-06
8.88199e-06
9.02912e-06
9.10854e-06
9.75401e-06
1.11099e-05
1.32731e-05
1.62441e-05
1.9596e-05
2.25199e-05
2.42489e-05
2.49311e-05
2.50087e-05
2.45834e-05
2.3729e-05
2.27536e-05
2.20955e-05
2.18417e-05
1.91331e-05
5.50258e-06
8.22051e-08
1.49855e-07
8.57998e-06
2.38274e-05
1.73744e-05
1.39738e-05
1.21503e-05
1.06998e-05
8.54317e-06
5.26448e-06
2.17973e-06
3.7762e-07
6.17772e-08
1.40816e-07
6.28538e-07
1.42446e-06
1.97965e-06
2.05873e-06
1.38361e-06
6.59375e-07
2.28759e-07
2.37723e-07
7.73651e-07
1.95048e-06
3.97241e-06
6.91692e-06
1.01634e-05
1.25681e-05
1.40393e-05
1.52068e-05
1.64994e-05
1.82623e-05
2.05617e-05
2.06266e-05
5.73908e-06
7.04883e-08
1.49394e-07
7.62471e-06
2.33858e-05
1.74068e-05
1.4178e-05
1.13511e-05
6.67744e-06
2.42718e-06
3.02376e-07
5.88859e-07
1.06958e-06
3.54541e-06
7.15399e-06
1.13998e-05
1.53712e-05
1.78936e-05
1.82037e-05
1.64699e-05
1.33759e-05
9.75824e-06
6.23114e-06
3.22214e-06
1.11402e-06
2.07384e-07
5.85811e-07
2.31138e-06
5.83541e-06
1.12621e-05
1.56622e-05
1.78752e-05
1.96998e-05
2.14344e-05
2.11625e-05
6.32069e-06
7.50139e-08
1.67313e-07
6.41081e-06
1.93737e-05
1.31269e-05
6.41597e-06
2.18827e-06
2.11656e-07
4.39218e-07
8.67562e-07
3.92419e-06
9.09893e-06
1.60948e-05
2.35603e-05
2.955e-05
3.32786e-05
3.4983e-05
3.49507e-05
3.3184e-05
2.95734e-05
2.43053e-05
1.8208e-05
1.23544e-05
7.39934e-06
3.53939e-06
9.5942e-07
1.18028e-07
2.51745e-07
3.86963e-07
2.58568e-06
6.59021e-06
1.00948e-05
1.32351e-05
1.72056e-05
5.15535e-06
7.07193e-08
2.1681e-07
5.37983e-06
1.3038e-05
5.6545e-06
1.93753e-06
2.65073e-07
3.69708e-07
1.72246e-06
5.94666e-06
1.28072e-05
1.92885e-05
2.40182e-05
2.80414e-05
3.18118e-05
3.49869e-05
3.70795e-05
3.79437e-05
3.78312e-05
3.71225e-05
3.59412e-05
3.37894e-05
2.95165e-05
2.25421e-05
1.46777e-05
8.26685e-06
3.89511e-06
1.34543e-06
2.27413e-07
2.67789e-08
1.53885e-06
6.15111e-06
1.35819e-05
1.50706e-05
5.11678e-06
6.98249e-08
2.34645e-07
4.28792e-06
1.31155e-05
4.27679e-06
1.08364e-06
1.57204e-07
3.00828e-07
1.03843e-06
3.93285e-06
8.82904e-06
1.5119e-05
2.14093e-05
2.65904e-05
3.02646e-05
3.24868e-05
3.34845e-05
3.35122e-05
3.2813e-05
3.1629e-05
3.0216e-05
2.88307e-05
2.76755e-05
2.67673e-05
2.56894e-05
2.33193e-05
1.8346e-05
1.15811e-05
5.84156e-06
2.26211e-06
4.3743e-07
5.93475e-08
1.29254e-06
4.90978e-06
3.78396e-06
8.26094e-08
2.14201e-07
3.50541e-06
1.42276e-05
4.75031e-06
1.16178e-06
2.29876e-07
8.27646e-08
1.36198e-06
5.03622e-06
1.25143e-05
2.35324e-05
3.39303e-05
4.04837e-05
4.35788e-05
4.44917e-05
4.4126e-05
4.29927e-05
4.1356e-05
3.93263e-05
3.69038e-05
3.40333e-05
3.06977e-05
2.69726e-05
2.31076e-05
1.94348e-05
1.61509e-05
1.31218e-05
9.83301e-06
6.03347e-06
2.71896e-06
9.17039e-07
6.8805e-07
2.2265e-06
3.32224e-06
1.18189e-07
1.55105e-07
3.07916e-06
1.20469e-05
5.50953e-06
1.40147e-06
2.04451e-07
7.6308e-08
1.42126e-06
4.97771e-06
1.15511e-05
2.02893e-05
2.84561e-05
3.43049e-05
3.78295e-05
3.95994e-05
4.01418e-05
3.98361e-05
3.89523e-05
3.76754e-05
3.61334e-05
3.44084e-05
3.25198e-05
3.0383e-05
2.77663e-05
2.43153e-05
1.97772e-05
1.44788e-05
9.42811e-06
5.45447e-06
2.63237e-06
9.33251e-07
4.09193e-07
1.30751e-06
3.17618e-06
1.41385e-07
1.26974e-07
2.83086e-06
1.00097e-05
4.51388e-06
9.3058e-07
1.56531e-07
7.06798e-07
3.14645e-06
8.23182e-06
1.55977e-05
2.3142e-05
2.94257e-05
3.43623e-05
3.81312e-05
4.08436e-05
4.25936e-05
4.34767e-05
4.35862e-05
4.29733e-05
4.16394e-05
3.954e-05
3.66109e-05
3.27953e-05
2.80422e-05
2.23286e-05
1.58972e-05
9.65309e-06
4.84968e-06
1.94306e-06
5.43739e-07
1.26013e-07
5.08705e-07
3.42139e-06
2.22725e-06
1.20687e-07
1.13834e-07
3.29819e-06
8.52084e-06
1.73999e-06
4.94384e-07
1.34053e-06
4.60008e-06
1.08145e-05
1.72735e-05
2.14183e-05
2.4403e-05
2.73786e-05
3.05412e-05
3.37236e-05
3.67097e-05
3.93291e-05
4.14267e-05
4.28252e-05
4.33283e-05
4.27548e-05
4.09711e-05
3.79295e-05
3.36748e-05
2.82335e-05
2.16206e-05
1.43854e-05
7.98846e-06
3.6055e-06
1.19878e-06
2.11354e-07
1.47151e-07
1.08459e-06
6.05186e-06
1.82231e-06
7.4411e-08
1.4019e-07
2.4718e-06
2.68281e-06
8.56982e-07
1.6778e-06
4.52866e-06
8.61343e-06
1.15742e-05
1.37635e-05
1.63175e-05
1.95149e-05
2.32671e-05
2.72609e-05
3.11899e-05
3.48255e-05
3.79587e-05
4.036e-05
4.17663e-05
4.19095e-05
4.05622e-05
3.7669e-05
3.35327e-05
2.87988e-05
2.40431e-05
1.93246e-05
1.42805e-05
9.00025e-06
4.52191e-06
1.65066e-06
2.90388e-07
1.07343e-07
1.18184e-06
5.10817e-06
1.74173e-06
5.10984e-08
1.8403e-07
6.94573e-06
4.14096e-06
4.3312e-06
7.01968e-06
1.03085e-05
1.20495e-05
1.29934e-05
1.40293e-05
1.55837e-05
1.80449e-05
2.15144e-05
2.56854e-05
3.00493e-05
3.4172e-05
3.77073e-05
4.03026e-05
4.16376e-05
4.14721e-05
3.9725e-05
3.65415e-05
3.23611e-05
2.78712e-05
2.3705e-05
2.0123e-05
1.68339e-05
1.31317e-05
8.73667e-06
4.66032e-06
1.95934e-06
6.96079e-07
6.4978e-07
2.63434e-06
1.69028e-06
4.40449e-08
3.03119e-07
8.90456e-06
4.10305e-06
4.28039e-06
7.30212e-06
1.05898e-05
1.14245e-05
1.0889e-05
1.04633e-05
1.10226e-05
1.32362e-05
1.75479e-05
2.36481e-05
3.00553e-05
3.50758e-05
3.8063e-05
3.90914e-05
3.8459e-05
3.65464e-05
3.37184e-05
3.02623e-05
2.64349e-05
2.25671e-05
1.90688e-05
1.62628e-05
1.42597e-05
1.28386e-05
1.12924e-05
8.71158e-06
5.4368e-06
2.92168e-06
1.7643e-06
2.08446e-06
2.33157e-06
4.46986e-08
1.93515e-07
3.54097e-06
1.5012e-05
7.5827e-06
7.27445e-06
8.27754e-06
8.80303e-06
7.9188e-06
6.12527e-06
5.07837e-06
5.83314e-06
9.00856e-06
1.54509e-05
2.54011e-05
3.56035e-05
4.13383e-05
4.24139e-05
4.08558e-05
3.80917e-05
3.47792e-05
3.11137e-05
2.71244e-05
2.29383e-05
1.89435e-05
1.56112e-05
1.32171e-05
1.17554e-05
1.09205e-05
1.00611e-05
8.38147e-06
5.98745e-06
4.1888e-06
4.15392e-06
9.58647e-06
5.32253e-08
7.42146e-08
2.37741e-06
8.79787e-06
1.07301e-05
8.09487e-06
8.15598e-06
8.36182e-06
6.6435e-06
4.3833e-06
3.6055e-06
4.65154e-06
7.61169e-06
1.26557e-05
1.97e-05
2.78366e-05
3.49188e-05
3.91623e-05
4.04526e-05
3.94684e-05
3.67967e-05
3.27947e-05
2.77721e-05
2.22909e-05
1.72403e-05
1.33238e-05
1.07982e-05
9.57447e-06
9.30358e-06
9.33429e-06
8.77251e-06
7.27048e-06
5.87188e-06
6.48732e-06
1.09195e-05
6.46251e-08
6.13063e-08
2.62696e-06
9.52345e-06
1.57865e-05
1.01843e-05
5.59696e-06
2.77922e-06
1.69411e-06
2.19742e-06
4.4374e-06
8.92722e-06
1.56375e-05
2.26933e-05
2.80865e-05
3.20097e-05
3.53369e-05
3.81987e-05
4.01083e-05
4.04662e-05
3.88004e-05
3.48008e-05
2.86483e-05
2.15821e-05
1.53806e-05
1.09522e-05
8.33105e-06
7.25154e-06
7.31356e-06
7.84754e-06
7.99348e-06
7.48245e-06
7.28516e-06
1.03241e-05
6.17924e-06
6.27e-08
8.63185e-08
2.4272e-06
8.08759e-06
7.80148e-06
2.98961e-06
1.55141e-06
1.79731e-06
3.64291e-06
7.4912e-06
1.27096e-05
1.63122e-05
1.75926e-05
1.90029e-05
2.20124e-05
2.66561e-05
3.19432e-05
3.65051e-05
3.93628e-05
4.0004e-05
3.80912e-05
3.34787e-05
2.67589e-05
1.9576e-05
1.35153e-05
9.15883e-06
6.47236e-06
5.28878e-06
5.39816e-06
6.37626e-06
7.4486e-06
8.12489e-06
9.43188e-06
1.53702e-05
4.63784e-06
5.42826e-08
1.16406e-07
2.20814e-06
7.75092e-06
3.00911e-06
1.90025e-06
2.52722e-06
4.67018e-06
8.1821e-06
1.14968e-05
1.35821e-05
1.56305e-05
1.87414e-05
2.3021e-05
2.78687e-05
3.24901e-05
3.63365e-05
3.91258e-05
4.0566e-05
4.03024e-05
3.80134e-05
3.36126e-05
2.75832e-05
2.10108e-05
1.49787e-05
1.00894e-05
6.59862e-06
4.55859e-06
3.89403e-06
4.42775e-06
5.7546e-06
7.30856e-06
9.70892e-06
1.59646e-05
4.08169e-06
5.32376e-08
1.2853e-07
2.19457e-06
7.63269e-06
2.74075e-06
2.64687e-06
4.17869e-06
7.10654e-06
1.04995e-05
1.29514e-05
1.44386e-05
1.57832e-05
1.77159e-05
2.07489e-05
2.5082e-05
3.0314e-05
3.5341e-05
3.9023e-05
4.0763e-05
4.03824e-05
3.78776e-05
3.34673e-05
2.78165e-05
2.19157e-05
1.64788e-05
1.17082e-05
7.75112e-06
4.87577e-06
3.2496e-06
2.88729e-06
3.74871e-06
5.58449e-06
8.69861e-06
1.47287e-05
3.568e-06
6.02899e-08
1.19007e-07
2.5624e-06
9.32781e-06
3.72351e-06
3.96522e-06
5.95166e-06
8.93337e-06
1.15692e-05
1.29702e-05
1.37318e-05
1.48866e-05
1.71281e-05
2.074e-05
2.56098e-05
3.11074e-05
3.60994e-05
3.96029e-05
4.11757e-05
4.07422e-05
3.83561e-05
3.42113e-05
2.88622e-05
2.3235e-05
1.81078e-05
1.35997e-05
9.5759e-06
6.1652e-06
3.70447e-06
2.38521e-06
2.25702e-06
3.28821e-06
5.87023e-06
1.21873e-05
3.09027e-06
7.02531e-08
1.04088e-07
3.2536e-06
1.39172e-05
5.90158e-06
5.89466e-06
7.81951e-06
1.0178e-05
1.17195e-05
1.21902e-05
1.2444e-05
1.33671e-05
1.54544e-05
1.89137e-05
2.37376e-05
2.9512e-05
3.51373e-05
3.93448e-05
4.14511e-05
4.13445e-05
3.91306e-05
3.50468e-05
2.96793e-05
2.40287e-05
1.89847e-05
1.4723e-05
1.09572e-05
7.52061e-06
4.63781e-06
2.65579e-06
1.72772e-06
1.85259e-06
3.31263e-06
8.78668e-06
2.42048e-06
7.83737e-08
9.47692e-08
4.2566e-06
2.05001e-05
9.33281e-06
8.30488e-06
9.49595e-06
1.07343e-05
1.11407e-05
1.10183e-05
1.12184e-05
1.23676e-05
1.47385e-05
1.83859e-05
2.32354e-05
2.89586e-05
3.46507e-05
3.91225e-05
4.15886e-05
4.18165e-05
3.98349e-05
3.58263e-05
3.0377e-05
2.46013e-05
1.95336e-05
1.5418e-05
1.1915e-05
8.67339e-06
5.70683e-06
3.35983e-06
1.90631e-06
1.39036e-06
1.93245e-06
5.80483e-06
1.87694e-06
8.00498e-08
9.37061e-08
5.15015e-06
2.62885e-05
1.36383e-05
1.0786e-05
1.06305e-05
1.05506e-05
1.00629e-05
9.74799e-06
1.0209e-05
1.17474e-05
1.44051e-05
1.8118e-05
2.28384e-05
2.84046e-05
3.41316e-05
3.88802e-05
4.17227e-05
4.22512e-05
4.03727e-05
3.62189e-05
3.04657e-05
2.44547e-05
1.9372e-05
1.54458e-05
1.22857e-05
9.42845e-06
6.684e-06
4.26384e-06
2.53207e-06
1.6623e-06
1.7415e-06
4.66783e-06
1.67836e-06
7.64933e-08
9.84396e-08
5.59483e-06
2.84635e-05
1.69805e-05
1.22816e-05
1.0749e-05
9.76735e-06
9.02829e-06
8.99779e-06
9.93523e-06
1.18678e-05
1.46759e-05
1.82769e-05
2.27384e-05
2.80629e-05
3.37188e-05
3.86218e-05
4.17575e-05
4.25678e-05
4.08254e-05
3.65808e-05
3.05679e-05
2.43311e-05
1.91911e-05
1.53742e-05
1.24631e-05
9.97022e-06
7.59146e-06
5.34179e-06
3.53433e-06
2.49876e-06
2.43997e-06
5.38297e-06
2.01717e-06
7.08431e-08
1.07622e-07
5.59197e-06
2.82889e-05
1.87283e-05
1.27111e-05
1.02595e-05
8.91416e-06
8.30588e-06
8.66425e-06
9.96668e-06
1.20562e-05
1.47715e-05
1.81298e-05
2.23373e-05
2.74951e-05
3.31474e-05
3.82231e-05
4.16297e-05
4.26695e-05
4.09717e-05
3.65121e-05
3.01515e-05
2.3698e-05
1.85606e-05
1.48862e-05
1.22085e-05
1.00409e-05
8.06077e-06
6.17206e-06
4.54523e-06
3.55272e-06
3.58779e-06
7.16777e-06
2.73504e-06
6.56217e-08
1.20028e-07
5.34612e-06
2.72466e-05
1.88019e-05
1.22241e-05
9.54495e-06
8.33528e-06
8.07334e-06
8.7772e-06
1.02439e-05
1.22396e-05
1.46754e-05
1.77077e-05
2.16418e-05
2.6639e-05
3.23041e-05
3.75822e-05
4.13227e-05
4.2721e-05
4.12795e-05
3.68513e-05
3.02945e-05
2.36058e-05
1.83395e-05
1.46551e-05
1.20562e-05
1.00531e-05
8.32511e-06
6.73507e-06
5.3648e-06
4.54207e-06
4.776e-06
8.99858e-06
3.6311e-06
6.14867e-08
1.34142e-07
4.9755e-06
2.58612e-05
1.87956e-05
1.18982e-05
9.22038e-06
8.19164e-06
8.11477e-06
8.85878e-06
1.01712e-05
1.18583e-05
1.39478e-05
1.66781e-05
2.03857e-05
2.52769e-05
3.10347e-05
3.66016e-05
4.07273e-05
4.24883e-05
4.12777e-05
3.68514e-05
3.01009e-05
2.3223e-05
1.7882e-05
1.4217e-05
1.16938e-05
9.82169e-06
8.29489e-06
6.96879e-06
5.87647e-06
5.29894e-06
5.81387e-06
1.06996e-05
4.33072e-06
5.87467e-08
1.47936e-07
4.58648e-06
2.42702e-05
1.91136e-05
1.18577e-05
9.20596e-06
8.31218e-06
8.2953e-06
8.91598e-06
9.96449e-06
1.13088e-05
1.3052e-05
1.54665e-05
1.89065e-05
2.36476e-05
2.95007e-05
3.54284e-05
4.00414e-05
4.2291e-05
4.15156e-05
3.73788e-05
3.06379e-05
2.35425e-05
1.79613e-05
1.41502e-05
1.15622e-05
9.68681e-06
8.22097e-06
7.02573e-06
6.11562e-06
5.73413e-06
6.47788e-06
1.17046e-05
4.87279e-06
5.72522e-08
1.578e-07
4.18233e-06
2.18364e-05
2.07947e-05
1.26599e-05
9.7314e-06
8.74338e-06
8.53925e-06
8.77912e-06
9.37599e-06
1.02926e-05
1.16725e-05
1.37729e-05
1.69301e-05
2.14855e-05
2.74402e-05
3.38412e-05
3.90758e-05
4.18555e-05
4.14752e-05
3.75969e-05
3.09151e-05
2.36996e-05
1.79627e-05
1.40606e-05
1.14392e-05
9.56464e-06
8.12741e-06
6.99774e-06
6.19615e-06
5.95818e-06
6.8942e-06
1.24285e-05
5.26229e-06
5.7176e-08
1.61489e-07
3.80762e-06
1.87656e-05
2.36276e-05
1.41638e-05
1.05795e-05
9.279e-06
8.76895e-06
8.60429e-06
8.76386e-06
9.31634e-06
1.03963e-05
1.22206e-05
1.50917e-05
1.93947e-05
2.53368e-05
3.21811e-05
3.81176e-05
4.15118e-05
4.16047e-05
3.81159e-05
3.16249e-05
2.42907e-05
1.83015e-05
1.42135e-05
1.15004e-05
9.58798e-06
8.13243e-06
6.99667e-06
6.2117e-06
6.02144e-06
7.04927e-06
1.27325e-05
5.65217e-06
5.84062e-08
1.58394e-07
3.46599e-06
1.55915e-05
2.70796e-05
1.66387e-05
1.19562e-05
1.00766e-05
9.11772e-06
8.46695e-06
8.10321e-06
8.24084e-06
9.01267e-06
1.05821e-05
1.31867e-05
1.72023e-05
2.30131e-05
3.0214e-05
3.69108e-05
4.09721e-05
4.1465e-05
3.82326e-05
3.18876e-05
2.45258e-05
1.84158e-05
1.4236e-05
1.15033e-05
9.61288e-06
8.17931e-06
7.0454e-06
6.25272e-06
6.07144e-06
7.16049e-06
1.30715e-05
5.96393e-06
6.13848e-08
1.50933e-07
3.17523e-06
1.30209e-05
2.88992e-05
1.95098e-05
1.3568e-05
1.08763e-05
9.36072e-06
8.2363e-06
7.4552e-06
7.29525e-06
7.9027e-06
9.36923e-06
1.18528e-05
1.56863e-05
2.1348e-05
2.8726e-05
3.60046e-05
4.0625e-05
4.14167e-05
3.83441e-05
3.20831e-05
2.46708e-05
1.84472e-05
1.42009e-05
1.14784e-05
9.64787e-06
8.27562e-06
7.16482e-06
6.35489e-06
6.14899e-06
7.2581e-06
1.34008e-05
6.19042e-06
6.64323e-08
1.4215e-07
2.93454e-06
1.11001e-05
2.83415e-05
2.21279e-05
1.51965e-05
1.159e-05
9.45812e-06
7.87876e-06
6.77434e-06
6.42215e-06
6.97581e-06
8.43941e-06
1.08958e-05
1.46367e-05
2.0192e-05
2.76555e-05
3.53163e-05
4.02773e-05
4.11231e-05
3.79378e-05
3.15589e-05
2.41036e-05
1.79208e-05
1.37692e-05
1.11722e-05
9.49188e-06
8.26902e-06
7.2673e-06
6.50963e-06
6.32755e-06
7.51857e-06
1.41938e-05
6.19296e-06
7.40742e-08
1.34552e-07
2.76161e-06
9.83631e-06
2.66856e-05
2.37648e-05
1.6291e-05
1.18303e-05
9.09662e-06
7.15164e-06
5.92451e-06
5.63888e-06
6.36287e-06
8.01545e-06
1.06307e-05
1.44899e-05
2.01581e-05
2.77626e-05
3.5526e-05
4.03726e-05
4.08803e-05
3.7288e-05
3.06085e-05
2.31004e-05
1.70638e-05
1.3118e-05
1.07232e-05
9.24278e-06
8.21151e-06
7.365e-06
6.71007e-06
6.58327e-06
7.91254e-06
1.54088e-05
6.01057e-06
8.46321e-08
1.28959e-07
2.65164e-06
9.06173e-06
2.51452e-05
2.44497e-05
1.65512e-05
1.13137e-05
8.09936e-06
6.04624e-06
5.01922e-06
5.08385e-06
6.15978e-06
8.11338e-06
1.09609e-05
1.50148e-05
2.08907e-05
2.86373e-05
3.62408e-05
4.05388e-05
4.03041e-05
3.59628e-05
2.87788e-05
2.12774e-05
1.55985e-05
1.20444e-05
9.97251e-06
8.77391e-06
8.01021e-06
7.41021e-06
6.9688e-06
6.98983e-06
8.61556e-06
1.7508e-05
5.66676e-06
9.8116e-08
1.24632e-07
2.56686e-06
8.51139e-06
2.364e-05
2.36155e-05
1.51535e-05
9.55798e-06
6.42375e-06
4.79109e-06
4.328e-06
4.95802e-06
6.49611e-06
8.80291e-06
1.1931e-05
1.62969e-05
2.25637e-05
3.04914e-05
3.75935e-05
4.08396e-05
3.94711e-05
3.41171e-05
2.63742e-05
1.9051e-05
1.39249e-05
1.08744e-05
9.1867e-06
8.30011e-06
7.8178e-06
7.48591e-06
7.29373e-06
7.53265e-06
9.63118e-06
2.02773e-05
5.27709e-06
1.13995e-07
1.20762e-07
2.44898e-06
7.8746e-06
2.15181e-05
2.02481e-05
1.16996e-05
6.94003e-06
4.70555e-06
3.90843e-06
4.19491e-06
5.43494e-06
7.41521e-06
1.00128e-05
1.33807e-05
1.80913e-05
2.47534e-05
3.26622e-05
3.88699e-05
4.07575e-05
3.80282e-05
3.14764e-05
2.32629e-05
1.63989e-05
1.20107e-05
9.5498e-06
8.29671e-06
7.76991e-06
7.63231e-06
7.6592e-06
7.77858e-06
8.35491e-06
1.12044e-05
2.31744e-05
4.87107e-06
1.30796e-07
1.17661e-07
2.29332e-06
7.17266e-06
1.90282e-05
1.45342e-05
7.65659e-06
4.71572e-06
3.68228e-06
3.76222e-06
4.7707e-06
6.51736e-06
8.77866e-06
1.15098e-05
1.50642e-05
2.01721e-05
2.72332e-05
3.48834e-05
3.9903e-05
4.03043e-05
3.60942e-05
2.83158e-05
1.99549e-05
1.38446e-05
1.02573e-05
8.37574e-06
7.54742e-06
7.37791e-06
7.59236e-06
7.97762e-06
8.42938e-06
9.48908e-06
1.34145e-05
2.42971e-05
4.47595e-06
1.46253e-07
1.16211e-07
2.16925e-06
6.75726e-06
1.67907e-05
9.35013e-06
5.05757e-06
3.69005e-06
3.61503e-06
4.41503e-06
5.95413e-06
7.95166e-06
1.0232e-05
1.29582e-05
1.67061e-05
2.22237e-05
2.95221e-05
3.66132e-05
4.03873e-05
3.93808e-05
3.36206e-05
2.47667e-05
1.67043e-05
1.15135e-05
8.67361e-06
7.31078e-06
6.8915e-06
7.11214e-06
7.74365e-06
8.49961e-06
9.33777e-06
1.10712e-05
1.64196e-05
2.26042e-05
4.09979e-06
1.57964e-07
1.17305e-07
2.1813e-06
7.20152e-06
1.45436e-05
6.56785e-06
4.15113e-06
3.7638e-06
4.33648e-06
5.6295e-06
7.37851e-06
9.29822e-06
1.14071e-05
1.41117e-05
1.81026e-05
2.3995e-05
3.13473e-05
3.77832e-05
4.04994e-05
3.82322e-05
3.09614e-05
2.14674e-05
1.40525e-05
9.70036e-06
7.4383e-06
6.47685e-06
6.40597e-06
7.0046e-06
8.02648e-06
9.14694e-06
1.04481e-05
1.30507e-05
1.99252e-05
1.94414e-05
3.77351e-06
1.64685e-07
1.2079e-07
2.38769e-06
9.11644e-06
1.2452e-05
5.8171e-06
4.38774e-06
4.55315e-06
5.49538e-06
6.96044e-06
8.57791e-06
1.02145e-05
1.21238e-05
1.48507e-05
1.90737e-05
2.52074e-05
3.24694e-05
3.83693e-05
4.03551e-05
3.70438e-05
2.85408e-05
1.88889e-05
1.21454e-05
8.37001e-06
6.46579e-06
5.77154e-06
5.98479e-06
6.9485e-06
8.33498e-06
9.84261e-06
1.16966e-05
1.52752e-05
2.31137e-05
1.64589e-05
3.50594e-06
1.66672e-07
1.25866e-07
2.77434e-06
1.29469e-05
1.17825e-05
6.19199e-06
5.21621e-06
5.64752e-06
6.68694e-06
8.01263e-06
9.30376e-06
1.0637e-05
1.2397e-05
1.51412e-05
1.95086e-05
2.57874e-05
3.29923e-05
3.86079e-05
4.02147e-05
3.62607e-05
2.70933e-05
1.75144e-05
1.11377e-05
7.587e-06
5.78305e-06
5.16384e-06
5.51446e-06
6.72602e-06
8.42936e-06
1.03503e-05
1.28115e-05
1.72719e-05
2.49226e-05
1.42323e-05
3.29774e-06
1.65548e-07
1.31398e-07
3.23092e-06
1.7786e-05
1.26227e-05
7.17148e-06
6.29368e-06
6.75033e-06
7.64198e-06
8.65365e-06
9.59204e-06
1.0649e-05
1.22427e-05
1.49137e-05
1.92827e-05
2.56306e-05
3.29097e-05
3.85545e-05
4.01739e-05
3.61698e-05
2.69562e-05
1.74047e-05
1.09914e-05
7.33162e-06
5.38306e-06
4.62378e-06
4.90048e-06
6.17185e-06
8.10121e-06
1.04227e-05
1.34654e-05
1.85663e-05
2.52797e-05
1.27197e-05
3.14536e-06
1.63691e-07
1.36102e-07
3.60773e-06
2.12677e-05
1.47132e-05
8.56948e-06
7.46197e-06
7.7366e-06
8.33651e-06
8.97024e-06
9.56432e-06
1.03577e-05
1.17529e-05
1.4256e-05
1.84981e-05
2.48788e-05
3.24164e-05
3.83828e-05
4.03159e-05
3.67942e-05
2.8112e-05
1.85687e-05
1.17835e-05
7.72059e-06
5.39827e-06
4.27549e-06
4.20428e-06
5.24306e-06
7.17116e-06
9.76889e-06
1.32827e-05
1.88222e-05
2.47901e-05
1.17857e-05
3.04635e-06
1.63654e-07
1.38346e-07
3.81742e-06
2.20363e-05
1.81809e-05
1.04544e-05
8.74099e-06
8.65201e-06
8.87068e-06
9.08119e-06
9.33443e-06
9.86305e-06
1.10247e-05
1.32698e-05
1.72298e-05
2.35185e-05
3.14412e-05
3.80475e-05
4.05084e-05
3.76783e-05
2.98776e-05
2.05592e-05
1.33621e-05
8.76926e-06
5.95344e-06
4.33897e-06
3.74388e-06
4.24714e-06
5.79719e-06
8.33852e-06
1.20968e-05
1.79874e-05
2.3943e-05
1.12557e-05
2.98923e-06
1.67702e-07
1.37145e-07
3.88549e-06
2.08649e-05
2.30584e-05
1.29282e-05
1.01617e-05
9.51591e-06
9.28291e-06
9.05958e-06
8.99181e-06
9.28815e-06
1.02473e-05
1.22403e-05
1.58495e-05
2.18736e-05
3.01128e-05
3.75759e-05
4.07147e-05
3.85237e-05
3.15888e-05
2.26801e-05
1.52375e-05
1.02216e-05
6.98689e-06
4.9043e-06
3.74991e-06
3.58381e-06
4.48234e-06
6.4982e-06
9.99156e-06
1.59759e-05
2.2794e-05
1.09763e-05
2.95512e-06
1.7738e-07
1.33136e-07
3.88735e-06
1.91796e-05
2.8343e-05
1.59231e-05
1.17109e-05
1.03197e-05
9.57754e-06
8.93785e-06
8.5719e-06
8.69593e-06
9.53507e-06
1.13606e-05
1.46608e-05
2.02966e-05
2.85966e-05
3.69036e-05
4.08308e-05
3.91584e-05
3.28385e-05
2.42978e-05
1.67371e-05
1.14771e-05
8.06409e-06
5.75854e-06
4.21504e-06
3.47162e-06
3.70114e-06
4.97991e-06
7.70597e-06
1.31406e-05
2.12443e-05
1.07753e-05
2.91363e-06
1.92337e-07
1.28442e-07
3.88682e-06
1.78429e-05
3.20656e-05
1.88682e-05
1.31337e-05
1.08897e-05
9.61692e-06
8.6291e-06
8.06562e-06
8.15098e-06
9.01212e-06
1.08119e-05
1.3938e-05
1.92322e-05
2.73516e-05
3.61898e-05
4.08619e-05
3.96306e-05
3.36597e-05
2.52579e-05
1.75416e-05
1.21121e-05
8.6726e-06
6.40824e-06
4.8019e-06
3.76621e-06
3.52358e-06
4.16717e-06
6.06399e-06
1.05018e-05
1.94534e-05
1.05509e-05
2.8442e-06
2.09586e-07
1.25603e-07
3.91678e-06
1.70686e-05
3.35188e-05
2.08716e-05
1.3984e-05
1.09888e-05
9.27806e-06
8.09584e-06
7.53532e-06
7.75843e-06
8.77516e-06
1.06496e-05
1.37013e-05
1.87426e-05
2.65637e-05
3.55396e-05
4.07722e-05
3.99487e-05
3.41026e-05
2.55189e-05
1.75364e-05
1.20082e-05
8.64654e-06
6.5652e-06
5.13762e-06
4.13231e-06
3.70038e-06
3.96097e-06
5.28085e-06
8.90489e-06
1.81517e-05
1.01635e-05
2.73916e-06
2.23251e-07
1.27286e-07
3.98594e-06
1.68506e-05
3.33282e-05
2.12907e-05
1.38873e-05
1.0489e-05
8.60804e-06
7.49633e-06
7.17863e-06
7.68483e-06
8.90678e-06
1.08429e-05
1.38101e-05
1.86259e-05
2.60866e-05
3.49013e-05
4.05438e-05
4.02148e-05
3.43547e-05
2.52147e-05
1.6816e-05
1.12667e-05
8.07036e-06
6.22966e-06
5.08159e-06
4.31739e-06
3.96547e-06
4.11014e-06
5.15836e-06
8.44827e-06
1.81799e-05
9.41407e-06
2.59805e-06
2.26261e-07
1.35492e-07
4.07733e-06
1.70526e-05
3.20934e-05
2.0224e-05
1.29728e-05
9.63707e-06
7.92377e-06
7.1325e-06
7.19918e-06
7.98991e-06
9.3023e-06
1.1144e-05
1.39173e-05
1.84626e-05
2.55112e-05
3.40269e-05
4.00738e-05
4.04356e-05
3.45039e-05
2.4502e-05
1.56481e-05
1.01749e-05
7.19356e-06
5.59821e-06
4.74625e-06
4.31742e-06
4.20505e-06
4.44559e-06
5.5141e-06
9.02876e-06
1.95319e-05
8.34865e-06
2.43747e-06
2.14295e-07
1.50579e-07
4.14308e-06
1.7358e-05
3.02817e-05
1.84657e-05
1.1855e-05
8.94939e-06
7.64011e-06
7.2583e-06
7.63115e-06
8.49849e-06
9.6468e-06
1.12e-05
1.36755e-05
1.78832e-05
2.44727e-05
3.26703e-05
3.92234e-05
4.06204e-05
3.49136e-05
2.40655e-05
1.47238e-05
9.24548e-06
6.37073e-06
4.91597e-06
4.28487e-06
4.17883e-06
4.37653e-06
4.85689e-06
6.18216e-06
1.03347e-05
2.02924e-05
7.36144e-06
2.29321e-06
1.90791e-07
1.70973e-07
4.14235e-06
1.74916e-05
2.88606e-05
1.72151e-05
1.12896e-05
8.86843e-06
7.95085e-06
7.8456e-06
8.26334e-06
8.90862e-06
9.66774e-06
1.08144e-05
1.28939e-05
1.66346e-05
2.26798e-05
3.05847e-05
3.77566e-05
4.06537e-05
3.61685e-05
2.50401e-05
1.49289e-05
9.02012e-06
5.93801e-06
4.38602e-06
3.77493e-06
3.85149e-06
4.36175e-06
5.1744e-06
6.87399e-06
1.1652e-05
1.94646e-05
6.78999e-06
2.20676e-06
1.6469e-07
1.92457e-07
4.05278e-06
1.71513e-05
2.91002e-05
1.73711e-05
1.16885e-05
9.53654e-06
8.83447e-06
8.76585e-06
8.93141e-06
9.13217e-06
9.39614e-06
1.0053e-05
1.15964e-05
1.46703e-05
2.00042e-05
2.75962e-05
3.54449e-05
4.017e-05
3.83616e-05
2.84714e-05
1.72283e-05
1.01004e-05
6.27647e-06
4.26505e-06
3.34414e-06
3.26572e-06
3.89371e-06
5.04114e-06
7.11308e-06
1.21713e-05
1.88002e-05
6.7896e-06
2.20784e-06
1.43427e-07
2.0801e-07
3.88175e-06
1.60936e-05
3.18206e-05
1.96585e-05
1.3332e-05
1.10153e-05
1.02686e-05
1.00269e-05
9.77998e-06
9.40874e-06
9.08805e-06
9.14477e-06
9.99506e-06
1.21771e-05
1.64728e-05
2.34946e-05
3.20577e-05
3.87054e-05
4.02007e-05
3.39089e-05
2.24536e-05
1.32699e-05
7.92203e-06
4.96971e-06
3.37637e-06
2.737e-06
2.96538e-06
4.02247e-06
6.18548e-06
1.11483e-05
1.8644e-05
7.30067e-06
2.29225e-06
1.29929e-07
2.11171e-07
3.65837e-06
1.44145e-05
3.56023e-05
2.4858e-05
1.66875e-05
1.34605e-05
1.23262e-05
1.1797e-05
1.11477e-05
1.01783e-05
9.16016e-06
8.49474e-06
8.54054e-06
9.7004e-06
1.26341e-05
1.8384e-05
2.72129e-05
3.60386e-05
4.05235e-05
3.84796e-05
2.96313e-05
1.90995e-05
1.16047e-05
7.10697e-06
4.45472e-06
2.96349e-06
2.38438e-06
2.70792e-06
4.10394e-06
7.80462e-06
1.66806e-05
8.1756e-06
2.41964e-06
1.24097e-07
2.00872e-07
3.424e-06
1.25511e-05
3.61803e-05
3.23899e-05
2.23385e-05
1.72627e-05
1.51712e-05
1.41461e-05
1.31477e-05
1.17266e-05
1.00062e-05
8.50773e-06
7.6951e-06
7.87891e-06
9.4891e-06
1.34174e-05
2.10431e-05
3.16297e-05
3.9411e-05
4.06039e-05
3.51794e-05
2.5709e-05
1.69429e-05
1.085e-05
6.92149e-06
4.39137e-06
2.87693e-06
2.2656e-06
2.60931e-06
4.41596e-06
1.06665e-05
9.78019e-06
2.57134e-06
1.24703e-07
1.82558e-07
3.22485e-06
1.09767e-05
3.2946e-05
3.8524e-05
2.96691e-05
2.25998e-05
1.89216e-05
1.69743e-05
1.54627e-05
1.36597e-05
1.14091e-05
9.12935e-06
7.49247e-06
6.89314e-06
7.58375e-06
1.00964e-05
1.57345e-05
2.59307e-05
3.69419e-05
4.11976e-05
3.81359e-05
3.02951e-05
2.15601e-05
1.47275e-05
1.00485e-05
6.79775e-06
4.46354e-06
2.96687e-06
2.39061e-06
2.90789e-06
5.87925e-06
1.31493e-05
2.8271e-06
1.30463e-07
1.63297e-07
3.09045e-06
9.90941e-06
2.92278e-05
4.08892e-05
3.60272e-05
2.84629e-05
2.31881e-05
1.99916e-05
1.76724e-05
1.53224e-05
1.25558e-05
9.64191e-06
7.33868e-06
6.26006e-06
6.55453e-06
8.49078e-06
1.30108e-05
2.1939e-05
3.42001e-05
4.1073e-05
3.95167e-05
3.27647e-05
2.43503e-05
1.71734e-05
1.21846e-05
8.85773e-06
6.3663e-06
4.3818e-06
3.08835e-06
2.79285e-06
4.17265e-06
1.36704e-05
3.27017e-06
1.41052e-07
1.49224e-07
3.04763e-06
9.41502e-06
2.70256e-05
4.13291e-05
3.98322e-05
3.30232e-05
2.6741e-05
2.23134e-05
1.9026e-05
1.59467e-05
1.25356e-05
9.0892e-06
6.5589e-06
5.56018e-06
6.0448e-06
8.14804e-06
1.27014e-05
2.13958e-05
3.35956e-05
4.10454e-05
3.99094e-05
3.3534e-05
2.52858e-05
1.79927e-05
1.29126e-05
9.70124e-06
7.48989e-06
5.64598e-06
4.11631e-06
3.35612e-06
4.01115e-06
1.06727e-05
3.86254e-06
1.57026e-07
1.44083e-07
3.10709e-06
9.46909e-06
2.6578e-05
4.15612e-05
4.14334e-05
3.50594e-05
2.82374e-05
2.30155e-05
1.88886e-05
1.47955e-05
1.05308e-05
7.09023e-06
5.25601e-06
5.05298e-06
6.27564e-06
9.15614e-06
1.46367e-05
2.40485e-05
3.54981e-05
4.14854e-05
3.97803e-05
3.31185e-05
2.453e-05
1.71603e-05
1.23142e-05
9.44999e-06
7.64852e-06
6.21684e-06
4.90649e-06
4.09073e-06
4.56732e-06
1.08086e-05
4.26928e-06
1.75286e-07
1.50973e-07
3.26005e-06
1.0009e-05
2.74894e-05
4.15832e-05
4.11369e-05
3.46989e-05
2.76415e-05
2.15952e-05
1.60091e-05
1.08404e-05
6.99394e-06
4.94498e-06
4.56425e-06
5.54456e-06
7.87234e-06
1.19581e-05
1.86831e-05
2.83968e-05
3.79712e-05
4.20412e-05
3.94053e-05
3.15835e-05
2.21182e-05
1.49514e-05
1.07667e-05
8.5166e-06
7.24157e-06
6.29148e-06
5.41053e-06
4.84722e-06
5.70442e-06
1.4932e-05
4.25376e-06
1.88388e-07
1.72156e-07
3.46303e-06
1.08579e-05
2.86765e-05
4.02813e-05
3.88789e-05
3.19993e-05
2.38291e-05
1.63153e-05
1.0397e-05
6.58311e-06
4.7032e-06
4.40484e-06
5.39896e-06
7.49674e-06
1.07564e-05
1.56174e-05
2.26751e-05
3.15786e-05
3.94597e-05
4.24288e-05
3.84902e-05
2.84657e-05
1.83828e-05
1.21309e-05
8.90503e-06
7.35543e-06
6.64627e-06
6.24271e-06
5.91395e-06
5.88608e-06
7.94568e-06
2.43e-05
4.05204e-06
1.88663e-07
2.07396e-07
3.64374e-06
1.17052e-05
2.92908e-05
3.78252e-05
3.46318e-05
2.59314e-05
1.68406e-05
1.03518e-05
6.56011e-06
4.78113e-06
4.50616e-06
5.46384e-06
7.23088e-06
9.61197e-06
1.29328e-05
1.79035e-05
2.49001e-05
3.31487e-05
4.01774e-05
4.24842e-05
3.64792e-05
2.43121e-05
1.48415e-05
9.80069e-06
7.35592e-06
6.33129e-06
6.1257e-06
6.33036e-06
6.64818e-06
7.53974e-06
1.18093e-05
2.39587e-05
3.74799e-06
1.7376e-07
2.50392e-07
3.7106e-06
1.21756e-05
2.96642e-05
3.55151e-05
2.93777e-05
1.94086e-05
1.17996e-05
7.47181e-06
5.40469e-06
4.8664e-06
5.43803e-06
6.66882e-06
8.20659e-06
1.03169e-05
1.36405e-05
1.87991e-05
2.58164e-05
3.37144e-05
4.03918e-05
4.21945e-05
3.44024e-05
2.16369e-05
1.3027e-05
8.55868e-06
6.33557e-06
5.4539e-06
5.52638e-06
6.2634e-06
7.3378e-06
9.48461e-06
1.6461e-05
1.83342e-05
3.53592e-06
1.52174e-07
2.86393e-07
3.63645e-06
1.20499e-05
3.05287e-05
3.51926e-05
2.64763e-05
1.64203e-05
1.01384e-05
6.96117e-06
5.66641e-06
5.5409e-06
6.06825e-06
6.87413e-06
7.95765e-06
9.75414e-06
1.29027e-05
1.81028e-05
2.54337e-05
3.36166e-05
4.03072e-05
4.20098e-05
3.43069e-05
2.19269e-05
1.33209e-05
8.57512e-06
6.00416e-06
4.78567e-06
4.66257e-06
5.54034e-06
7.20744e-06
1.04401e-05
1.9012e-05
1.64842e-05
3.54349e-06
1.34964e-07
2.92312e-07
3.40897e-06
1.10157e-05