/*--------------------------------*- C++ -*----------------------------------*\
| =========                 |                                                 |
| \\      /  F ield         | OpenFOAM: The Open Source CFD Toolbox           |
|  \\    /   O peration     | Version:  v2006                                 |
|   \\  /    A nd           | Website:  www.openfoam.com                      |
|    \\/     M anipulation  |                                                 |
\*---------------------------------------------------------------------------*/
FoamFile
{
    version     2.0;
    format      ascii;
    class       volScalarField;
    location    "11";
    object      k;
}
// * * * * * * * * * * * * * * * * * * * * * * * * * * * * * * * * * * * * * //

dimensions      [0 2 -2 0 0 0 0];


internalField   nonuniform List<scalar> 
78750
(
0.00369313
0.000344569
0.000291616
0.000255726
0.000249605
0.000236248
0.000225624
0.000215988
0.00020742
0.000199863
0.000193213
0.000187302
0.000182016
0.000177278
0.000173027
0.000169188
0.000165686
0.000162443
0.000159383
0.000156421
0.000153477
0.000150517
0.000147117
0.000143191
0.000138558
0.000133
0.000126261
0.00011801
0.000107838
9.52247e-05
7.96942e-05
6.10843e-05
4.0171e-05
2.0722e-05
8.04675e-06
4.12692e-05
0.000411435
0.000513958
0.000517691
0.000487883
0.000451632
0.000418884
0.00039065
0.000367189
0.00034878
0.000334866
0.000324384
0.000316545
0.000310766
0.000306784
0.000304292
0.000303089
0.000302991
0.000303889
0.000305606
0.000307873
0.000310282
0.000312097
0.00031275
0.000311694
0.00030839
0.00030228
0.000292667
0.000278514
0.000258162
0.000229177
0.00018918
0.000139812
8.79211e-05
3.49994e-05
0.000104626
0.000219038
0.000258709
0.000255557
0.000235453
0.000216012
0.000201328
0.000190115
0.00018192
0.000176328
0.000172255
0.00016976
0.00016914
0.000170376
0.000173268
0.000177555
0.000182983
0.000189322
0.000196366
0.000203927
0.00021181
0.000219798
0.000227503
0.000234551
0.000240663
0.000245317
0.000247507
0.000246046
0.000239524
0.000226264
0.000204517
0.000173417
0.000134749
8.99505e-05
3.78648e-05
8.78249e-05
0.000176712
0.000222774
0.000245935
0.000252719
0.000250008
0.000241818
0.000229541
0.000214391
0.000198905
0.000183746
0.000169246
0.000157433
0.000149496
0.000145556
0.000145101
0.000147542
0.000152245
0.000158624
0.000166218
0.000174776
0.000184067
0.00019373
0.000203448
0.000212758
0.000220961
0.000226984
0.000229396
0.000226505
0.000216547
0.000198114
0.000171284
0.000138499
9.72169e-05
3.89981e-05
8.23392e-05
0.000155463
0.000198158
0.000225561
0.000240057
0.000239771
0.000225627
0.000199936
0.000166011
0.000128177
9.20047e-05
6.43633e-05
4.87039e-05
4.33371e-05
4.46431e-05
4.96994e-05
5.74085e-05
6.71558e-05
7.94312e-05
9.41265e-05
0.000110753
0.000128411
0.000145873
0.000162062
0.000176099
0.000187944
0.00019709
0.000202423
0.000202349
0.000195117
0.000180075
0.000157829
0.000129715
9.17107e-05
3.63302e-05
6.70722e-05
0.00013757
0.0001745
0.000194802
0.000200726
0.00018965
0.000163444
0.000125157
7.97329e-05
3.63817e-05
6.66017e-06
1.04331e-06
2.09312e-06
7.88478e-06
1.52003e-05
1.91361e-05
1.98283e-05
1.43991e-05
7.70771e-06
3.01445e-06
3.46696e-06
1.19649e-05
2.9847e-05
5.52684e-05
8.32074e-05
0.000109426
0.000130853
0.000146163
0.000154664
0.000155538
0.000148412
0.000134037
0.000113421
8.19509e-05
3.11873e-05
6.68833e-05
0.000134988
0.000172085
0.000192378
0.00019561
0.000172891
0.000121943
5.61812e-05
7.89772e-06
1.49435e-05
2.40377e-05
6.79824e-05
0.000115475
0.000155612
0.000183313
0.000198037
0.000200292
0.000191066
0.000169974
0.000137896
9.78833e-05
5.59589e-05
2.11731e-05
4.17453e-06
1.1541e-05
3.93848e-05
7.55511e-05
0.000108624
0.000131285
0.000142722
0.000143721
0.000135069
0.000117411
8.63943e-05
3.32084e-05
7.49109e-05
0.000130202
0.000155477
0.000154739
0.000123078
6.18384e-05
7.2406e-06
1.52368e-05
2.68479e-05
9.72284e-05
0.000167847
0.00021945
0.000250961
0.000268045
0.000276679
0.000280365
0.000280518
0.000276987
0.000268483
0.000252482
0.000225645
0.000185182
0.000131997
7.26761e-05
2.1632e-05
2.76192e-06
5.70867e-06
7.57712e-06
3.76936e-05
6.96663e-05
8.95545e-05
9.57829e-05
8.96404e-05
6.97379e-05
3.13374e-05
9.70939e-05
0.000130845
0.000139208
0.000115018
5.96563e-05
9.86123e-06
1.38008e-05
5.27835e-05
0.000121881
0.000169287
0.000194096
0.000207698
0.000217034
0.000224758
0.000231498
0.000237329
0.000242321
0.00024657
0.000250013
0.000252153
0.000251625
0.000245666
0.000229631
0.00019791
0.000148466
8.84487e-05
3.57857e-05
6.46887e-06
7.08053e-07
3.02668e-05
7.069e-05
9.40794e-05
9.48549e-05
7.43808e-05
3.09757e-05
0.000105109
0.000125008
0.000122336
9.07669e-05
3.68098e-05
6.47826e-06
1.22964e-05
3.49144e-05
9.50488e-05
0.000150469
0.000195392
0.000229527
0.000254567
0.000272186
0.00028363
0.000289907
0.000291889
0.000290371
0.000286154
0.000280144
0.000273384
0.000266926
0.000261336
0.000255666
0.000246326
0.000226821
0.000189126
0.000131129
6.51344e-05
1.4088e-05
1.74838e-06
2.67167e-05
5.38203e-05
5.7373e-05
3.65931e-05
9.59612e-05
0.000121286
0.000120181
9.281e-05
4.18193e-05
1.07219e-05
3.91162e-06
5.22238e-05
0.000129829
0.000199357
0.000247199
0.000276975
0.000295407
0.00030671
0.000313235
0.000316438
0.000317298
0.000316362
0.000313795
0.000309438
0.000302836
0.000293346
0.000280293
0.000263396
0.000242878
0.000219561
0.000193973
0.000164208
0.00012531
7.53581e-05
3.05908e-05
2.08755e-05
3.92909e-05
5.2251e-05
5.2292e-05
6.94779e-05
0.000104789
0.000109297
8.8809e-05
4.59446e-05
9.38916e-06
3.65883e-06
5.46662e-05
0.000127799
0.000189582
0.000232165
0.000259667
0.000277349
0.000288555
0.000295257
0.000298712
0.00029975
0.000298924
0.000296648
0.000293214
0.000288759
0.000283209
0.000276169
0.000266796
0.00025366
0.000234708
0.000207606
0.000170935
0.000126685
7.87644e-05
3.46936e-05
1.53953e-05
2.97826e-05
5.04439e-05
6.25497e-05
5.68715e-05
9.52947e-05
0.000102463
8.23188e-05
3.63716e-05
8.17185e-06
3.42325e-05
0.000109989
0.000188067
0.000246223
0.000284735
0.000309354
0.000324654
0.000333541
0.000337926
0.000339085
0.000337807
0.000334545
0.000329481
0.000322604
0.000313684
0.000302266
0.000287638
0.000268765
0.000244105
0.000211335
0.000167725
0.000114026
5.93569e-05
1.94737e-05
4.58352e-06
1.43806e-05
3.64337e-05
5.20916e-05
5.35074e-05
5.0977e-05
8.21265e-05
8.1699e-05
5.13514e-05
2.33573e-05
6.1795e-05
0.000148891
0.000225637
0.000272584
0.000298394
0.000312654
0.000320399
0.000324088
0.000325236
0.000324725
0.000323018
0.000320366
0.000316858
0.000312452
0.000307056
0.000300427
0.00029198
0.000280704
0.000264939
0.000242031
0.000208057
0.000159355
9.85145e-05
4.06729e-05
7.58817e-06
4.56632e-06
2.07399e-05
3.7373e-05
4.31365e-05
3.30684e-05
6.27926e-05
6.16457e-05
4.51922e-05
3.38029e-05
7.19588e-05
0.00014721
0.000210677
0.000250068
0.000275152
0.000293229
0.000306936
0.000317681
0.0003256
0.000330785
0.000333542
0.000334143
0.000332746
0.000329389
0.000324138
0.000317055
0.000308134
0.000297191
0.000283699
0.000266696
0.000244459
0.000213957
0.000171141
0.000114588
5.32136e-05
1.013e-05
3.13438e-06
1.96436e-05
3.35586e-05
3.49043e-05
2.27478e-05
8.23673e-05
8.1673e-05
0.000100791
0.000141461
0.000196814
0.000241722
0.000270067
0.000286309
0.000296061
0.000303897
0.00031234
0.000320949
0.000328296
0.000333625
0.00033692
0.000338372
0.000337987
0.000335874
0.000332098
0.000326698
0.000319684
0.000311075
0.000300842
0.000288538
0.000273261
0.000253108
0.000224507
0.000182418
0.000125135
6.33876e-05
2.20647e-05
1.42417e-05
2.19234e-05
2.51404e-05
1.9625e-05
0.000135735
0.000122434
0.000128675
0.000166478
0.000211962
0.000236804
0.000242903
0.000239717
0.000235306
0.000237186
0.000249481
0.00026867
0.000287913
0.000303482
0.000314505
0.000321468
0.000324978
0.000325436
0.000323115
0.000318237
0.000310979
0.000301538
0.000290312
0.000277899
0.000264689
0.00025084
0.000235324
0.000214691
0.000183126
0.000136918
8.37315e-05
4.4782e-05
2.7878e-05
2.27402e-05
1.9914e-05
8.66864e-05
0.000118269
0.000130177
0.000149684
0.00018061
0.000206555
0.00021711
0.000207497
0.000181875
0.000162074
0.000171934
0.000208031
0.000249485
0.000282686
0.000305327
0.000319676
0.000327995
0.00033163
0.000331391
0.000327817
0.000321189
0.00031158
0.000299033
0.000284111
0.000267942
0.000252226
0.000238485
0.000225733
0.000209606
0.000184144
0.000145913
0.000102097
6.57983e-05
4.24973e-05
2.36477e-05
3.32397e-05
7.81678e-05
0.000101681
0.000122109
0.000147132
0.000172322
0.000183679
0.000169642
0.000139299
0.000126396
0.000150084
0.000196309
0.000242862
0.000278113
0.000300936
0.000313796
0.000319756
0.000320938
0.000318523
0.000313057
0.000304631
0.00029301
0.000277853
0.000259445
0.000238893
0.000219528
0.000205565
0.00019759
0.000190749
0.000177995
0.000154549
0.000121882
8.75999e-05
5.8665e-05
2.86729e-05
2.74582e-05
6.88255e-05
9.88684e-05
0.000119668
0.000131085
0.000122479
9.20764e-05
7.01801e-05
9.25573e-05
0.000157262
0.000231864
0.00028696
0.000316788
0.000330067
0.000335088
0.00033615
0.000334881
0.000331653
0.000326276
0.000318358
0.000307298
0.000292213
0.000272088
0.000246697
0.000217609
0.000190612
0.000173411
0.000167874
0.000166983
0.000161278
0.000145094
0.000118529
8.95262e-05
6.13709e-05
2.78454e-05
3.86681e-05
6.49457e-05
8.12048e-05
8.16672e-05
6.78233e-05
5.48699e-05
7.26307e-05
0.000131717
0.000205296
0.000259917
0.000287694
0.000299423
0.000306014
0.000312093
0.000317894
0.000322093
0.000323759
0.000322617
0.00031856
0.000311383
0.000300546
0.000285044
0.000263587
0.000235076
0.000200397
0.00016563
0.000141641
0.000134504
0.000137385
0.000137906
0.000127803
0.000106869
8.29727e-05
5.74288e-05
2.41593e-05
5.21552e-05
5.96392e-05
6.31178e-05
5.9942e-05
6.36179e-05
9.67347e-05
0.000157603
0.00021877
0.000260162
0.000284778
0.000301538
0.000314662
0.00032455
0.000331293
0.000335416
0.000337075
0.00033655
0.000333973
0.000329264
0.000322121
0.000311931
0.000297686
0.000277966
0.000250991
0.000215149
0.000172694
0.000133766
0.000112124
0.000109921
0.000114244
0.000110624
9.58545e-05
7.62072e-05
5.33731e-05
2.37509e-05
5.75912e-05
6.01068e-05
6.17628e-05
6.74665e-05
9.25449e-05
0.000141628
0.000197075
0.000241246
0.00027015
0.000287688
0.000298636
0.00030672
0.000313866
0.00032034
0.000325776
0.000329478
0.000331072
0.000330453
0.000327535
0.000322149
0.000313916
0.000302176
0.000285951
0.000263739
0.00023296
0.000191893
0.000144215
0.000103465
8.49698e-05
8.7414e-05
9.09482e-05
8.4409e-05
7.04656e-05
5.15773e-05
2.69563e-05
5.33176e-05
6.55708e-05
7.48862e-05
9.16563e-05
0.000128743
0.0001793
0.000226396
0.000260211
0.000280139
0.000291031
0.000298688
0.000306743
0.000315423
0.000323408
0.00032986
0.000334093
0.000335999
0.000335654
0.000333084
0.00032819
0.000320685
0.000310062
0.000295632
0.000276631
0.000251002
0.00021608
0.000170398
0.000119444
7.94829e-05
6.54401e-05
6.85638e-05
6.99568e-05
6.32233e-05
4.99176e-05
3.14697e-05
4.66258e-05
7.37621e-05
9.3385e-05
0.000117983
0.000158612
0.000203398
0.000238992
0.000261578
0.000272969
0.000279052
0.000285808
0.000295574
0.000306869
0.000317278
0.000325635
0.000331396
0.000334504
0.000335147
0.000333453
0.00032942
0.000322851
0.000313329
0.000300286
0.000283166
0.000260515
0.000230276
0.000190263
0.00014065
9.01999e-05
5.68158e-05
4.80786e-05
5.08209e-05
5.06368e-05
4.45608e-05
3.518e-05
4.2446e-05
8.47511e-05
0.000113137
0.000142698
0.000183297
0.000221038
0.000246467
0.000259833
0.000265797
0.000271024
0.000280376
0.000293631
0.000307508
0.000319293
0.000328228
0.00033415
0.000337238
0.000337812
0.000336085
0.000332119
0.000325784
0.000316754
0.000304589
0.000288919
0.000268627
0.000241942
0.000206787
0.000161763
0.000110388
6.54769e-05
4.13649e-05
3.6551e-05
3.79681e-05
3.7546e-05
3.59919e-05
4.19683e-05
9.64497e-05
0.000130535
0.000161769
0.000198534
0.000227826
0.000243479
0.000248969
0.000252468
0.000260445
0.000274666
0.000291733
0.000307504
0.000319942
0.000328968
0.000334871
0.000337914
0.000338439
0.00033667
0.000332676
0.000326332
0.000317334
0.000305338
0.000290229
0.000271184
0.000246992
0.000216018
0.000176708
0.000129971
8.35419e-05
5.05981e-05
3.59708e-05
3.3465e-05
3.37648e-05
3.44045e-05
4.409e-05
0.000105965
0.00014326
0.000174138
0.000205806
0.000227903
0.000237086
0.000239786
0.00024631
0.000260144
0.000278795
0.000297352
0.000312726
0.000324234
0.00033242
0.000337716
0.000340332
0.000340559
0.000338594
0.000334497
0.000328144
0.000319244
0.000307504
0.000292957
0.00027505
0.00025292
0.00022542
0.0001913
0.000150486
0.000107405
7.22696e-05
5.05157e-05
4.11141e-05
3.62797e-05
3.18281e-05
4.82071e-05
0.000113099
0.000151621
0.00018098
0.000207755
0.000224327
0.000229933
0.000233145
0.000244156
0.00026221
0.000282331
0.000300337
0.00031464
0.000325333
0.000333036
0.000338103
0.000340577
0.000340672
0.000338549
0.000334254
0.000327645
0.000318425
0.000306358
0.000291671
0.000274066
0.00025306
0.000227908
0.000197782
0.000162626
0.000125011
9.2259e-05
6.79638e-05
5.31529e-05
4.17909e-05
2.94425e-05
5.377e-05
0.000118484
0.000156725
0.000184315
0.000207685
0.000221478
0.000227145
0.000233646
0.00024865
0.000268305
0.000287589
0.000303971
0.000316979
0.000326983
0.000334447
0.000339534
0.000342106
0.000342312
0.000340296
0.000336093
0.00032955
0.000320352
0.000308243
0.000293493
0.000276096
0.000255774
0.000232044
0.00020433
0.000172588
0.000138718
0.000108119
8.26221e-05
6.39236e-05
4.71299e-05
2.7563e-05
6.01012e-05
0.000122673
0.000160121
0.000186411
0.000208031
0.000221316
0.000228354
0.000236581
0.000251479
0.000269424
0.000286516
0.000301382
0.000313849
0.000324033
0.000332002
0.000337712
0.000340816
0.00034142
0.000339675
0.000335623
0.000329109
0.000319801
0.000307445
0.000292371
0.000274845
0.000254759
0.00023187
0.000205866
0.000176787
0.000146066
0.000117668
9.20179e-05
7.11564e-05
5.09532e-05
2.63285e-05
6.62907e-05
0.000125984
0.000162683
0.00018841
0.000209792
0.000224172
0.000232935
0.00024151
0.000254047
0.000269127
0.000283852
0.000297507
0.000309927
0.000320846
0.000329867
0.000336705
0.000340794
0.000342213
0.000341143
0.00033766
0.000331624
0.000322693
0.000310552
0.000295444
0.00027793
0.000257908
0.000235233
0.000209781
0.000181756
0.000152438
0.000124984
9.90079e-05
7.65814e-05
5.4002e-05
2.56604e-05
7.07206e-05
0.000127717
0.000164487
0.000190476
0.00021246
0.00022853
0.000238143
0.000244696
0.000251899
0.000262103
0.000273804
0.000286507
0.000299637
0.000312209
0.000323125
0.000331774
0.000337368
0.000339956
0.000339793
0.000337027
0.000331567
0.000323097
0.000311294
0.000296374
0.000279163
0.000259566
0.000237435
0.000212652
0.000185477
0.000157158
0.000130495
0.000104495
8.1141e-05
5.69102e-05
2.56308e-05
7.23825e-05
0.000127641
0.000165455
0.000192189
0.000214863
0.000232585
0.000242759
0.00024722
0.000249494
0.000254266
0.000262872
0.000274793
0.000288976
0.00030367
0.000317011
0.000327865
0.000335326
0.000339359
0.000340328
0.00033849
0.000333827
0.000326057
0.000314831
0.00030027
0.000283433
0.000264324
0.000242746
0.000218437
0.000191554
0.000163344
0.000136636
0.00011029
8.60162e-05
6.02559e-05
2.61863e-05
7.10019e-05
0.000125298
0.000164978
0.000192693
0.000215798
0.000234792
0.000245459
0.000248014
0.000245462
0.000243346
0.000247539
0.000258179
0.000273633
0.000291
0.000307319
0.000320805
0.00033043
0.000336057
0.000338194
0.000337254
0.000333319
0.000326176
0.000315511
0.000301467
0.000285153
0.000266929
0.000246559
0.000223504
0.000197575
0.000169837
0.000143218
0.000116577
9.15394e-05
6.43766e-05
2.75256e-05
6.76611e-05
0.000121094
0.000162515
0.000191191
0.000214398
0.000233798
0.000244695
0.000245972
0.00024006
0.00023281
0.000233144
0.000243354
0.000260883
0.000281331
0.000300661
0.000316623
0.000328151
0.00033511
0.000338165
0.000337889
0.00033446
0.000327708
0.000317334
0.000303504
0.000287496
0.000270016
0.000250924
0.000229434
0.00020485
0.000177808
0.00015123
0.000124062
9.81413e-05
6.95163e-05
2.97927e-05
6.37261e-05
0.00011574
0.000157896
0.000187242
0.000210227
0.000229182
0.000239861
0.000240072
0.000231511
0.00022038
0.000217594
0.000228419
0.000248753
0.000272394
0.00029438
0.000312286
0.000325157
0.000332958
0.000336507
0.000336502
0.000333187
0.000326418
0.000315906
0.000301918
0.000286036
0.000269251
0.000251666
0.000232357
0.000210135
0.000185032
0.000159482
0.000132132
0.000105592
7.57227e-05
3.32265e-05
6.03214e-05
0.000110775
0.000152563
0.000181865
0.000204099
0.000221822
0.000231334
0.0002296
0.000218044
0.000204611
0.000202804
0.000217987
0.000243108
0.000270188
0.0002941
0.000312945
0.000326101
0.000333873
0.000337236
0.000336946
0.000333248
0.000325966
0.000314802
0.000300177
0.00028406
0.000267713
0.000251522
0.000234476
0.000214954
0.000192504
0.000168283
0.000140776
0.000113752
8.2902e-05
3.79738e-05
5.78151e-05
0.000107159
0.000148122
0.00017661
0.000197347
0.000212797
0.000219342
0.000213514
0.000198416
0.000185992
0.000191066
0.000213892
0.000243984
0.000272997
0.000296968
0.000315149
0.000327341
0.00033418
0.000336686
0.000335547
0.00033092
0.000322525
0.000310061
0.000294299
0.000277666
0.000261703
0.000247113
0.000232856
0.000216974
0.000198674
0.000176538
0.000149239
0.000122114
9.07875e-05
4.40454e-05
5.58759e-05
0.000104199
0.00014406
0.000170874
0.000189
0.000200451
0.000201245
0.000189633
0.000174248
0.000170456
0.000188608
0.000220151
0.000253455
0.000282175
0.000304489
0.000320783
0.000331118
0.000336376
0.00033752
0.000335082
0.000329055
0.000319005
0.000304687
0.000287545
0.000270279
0.000254884
0.000242177
0.000230952
0.000219014
0.000204854
0.000184595
0.000157456
0.00013039
9.89825e-05
5.12092e-05
5.41417e-05
0.000100029
0.000137459
0.000161092
0.000175023
0.000180438
0.000174263
0.000160996
0.000154938
0.000168116
0.000199536
0.000235901
0.000268313
0.000293864
0.000312903
0.000326101
0.000333861
0.000337057
0.00033643
0.000332267
0.000324315
0.000311942
0.000295146
0.000276335
0.00025856
0.000244249
0.00023425
0.000227166
0.000220653
0.000210535
0.000191947
0.000165061
0.000138103
0.000106742
5.88132e-05
5.27509e-05
9.39921e-05
0.000126456
0.000144799
0.000153197
0.000152705
0.000145167
0.000141643
0.000153592
0.000183949
0.000222055
0.00025713
0.000285046
0.000305914
0.000321236
0.00033134
0.000336629
0.000337802
0.000335338
0.000329259
0.000319018
0.000303835
0.000284398
0.000264023
0.000246303
0.000233912
0.000227389
0.000225065
0.000223523
0.000216062
0.000198415
0.000171948
0.000144884
0.000113168
6.5844e-05
5.20996e-05
8.78181e-05
0.000113741
0.000126234
0.000130346
0.000129556
0.000131251
0.000144991
0.000173592
0.000211762
0.000247999
0.00027719
0.000299124
0.000315363
0.000327202
0.000334486
0.00033748
0.000336673
0.000332283
0.000324043
0.000311059
0.000292557
0.000270411
0.000248642
0.000231718
0.00022243
0.000220808
0.000224497
0.000226769
0.000220718
0.000203386
0.000177643
0.000150246
0.000117508
7.12171e-05
5.25873e-05
8.47455e-05
0.000105633
0.0001149
0.000119229
0.000125717
0.000141495
0.000168722
0.000204631
0.000240618
0.000270129
0.000292454
0.000309209
0.000322032
0.000331318
0.000336545
0.000337801
0.000335388
0.0003293
0.00031896
0.000303148
0.000281376
0.000256751
0.000234027
0.000218501
0.000212953
0.000216846
0.000225266
0.000229447
0.000223611
0.000206243
0.000181479
0.000153835
0.000119731
7.43561e-05
5.41453e-05
8.65699e-05
0.000106161
0.000116366
0.000125639
0.000142085
0.000167767
0.000199208
0.000233255
0.000262442
0.0002847
0.000301413
0.000314615
0.000325379
0.000333087
0.000336973
0.000337035
0.000333442
0.000325993
0.000313803
0.000295419
0.000270808
0.000243723
0.000219902
0.000205717
0.000204139
0.000213706
0.000225271
0.00023019
0.000224055
0.000206741
0.000183077
0.000155473
0.000120146
7.53587e-05
5.64162e-05
9.27306e-05
0.000114171
0.000128089
0.000144146
0.000167876
0.000196594
0.000225686
0.000253698
0.000275722
0.000292281
0.000305458
0.000316798
0.000326661
0.00033378
0.000337205
0.000336859
0.000332821
0.000324745
0.000311531
0.000291558
0.000264898
0.0002354
0.00020939
0.000194691
0.000195443
0.000208949
0.000222568
0.000227952
0.000221779
0.000205007
0.000182525
0.000155289
0.000119309
7.49425e-05
5.88917e-05
0.000101093
0.000125817
0.00014401
0.000165881
0.000192957
0.000220162
0.000243896
0.000265244
0.000281535
0.000294081
0.000305058
0.0003156
0.000325428
0.00033286
0.000336675
0.000336725
0.000333058
0.000325282
0.000312232
0.000292159
0.000264717
0.000233151
0.000203496
0.000185027
0.000184716
0.00020013
0.000215765
0.000222358
0.000217039
0.000201492
0.000180388
0.000153918
0.000118016
7.41746e-05
6.09987e-05
0.000109474
0.000138038
0.000160025
0.000185641
0.000213444
0.000237556
0.000255712
0.00027079
0.000282276
0.000291835
0.000301534
0.000312068
0.000322589
0.000331164
0.000336166
0.00033737
0.000334872
0.000328353
0.000316759
0.000298327
0.000272004
0.000239758
0.000205969
0.000179916
0.000172263
0.000185991
0.000203758
0.000213132
0.000210153
0.000196733
0.000177454
0.000152299
0.000117188
7.42097e-05
6.2005e-05
0.000116337
0.000149177
0.000174283
0.000201585
0.000228905
0.000249902
0.000262979
0.000271776
0.000278946
0.000286036
0.000294924
0.000305891
0.000317535
0.000327804
0.000334534
0.000337358
0.000336479
0.000331754
0.000322384
0.000306846
0.000283718
0.000253462
0.000218272
0.000184774
0.000165047
0.00016978
0.000187001
0.000200205
0.000201345
0.000191186
0.000174368
0.000151122
0.000117449
7.60784e-05
6.14683e-05
0.000121155
0.000158629
0.000186079
0.00021344
0.000239749
0.000258175
0.000267142
0.00027031
0.000273547
0.000278571
0.00028708
0.000298856
0.000311882
0.000324009
0.000332664
0.000337215
0.000337965
0.000334978
0.000327728
0.000315035
0.000295589
0.000269201
0.000236545
0.000200344
0.000169415
0.000158378
0.000168658
0.000183779
0.000190193
0.000184636
0.000171109
0.000150472
0.000119005
8.0488e-05
5.96725e-05
0.000124266
0.0001663
0.000195247
0.000221697
0.000246592
0.000262911
0.000268758
0.000267471
0.000266852
0.000270257
0.000278979
0.000291948
0.00030647
0.000320149
0.000330502
0.000336537
0.000338586
0.000336904
0.00033118
0.000320493
0.000303735
0.00028077
0.000252378
0.000218985
0.000184124
0.00015926
0.000156541
0.000167554
0.0001772
0.000176586
0.000166925
0.000149561
0.000121284
8.72857e-05
5.75692e-05
0.000126575
0.000172384
0.000202087
0.000227208
0.000250129
0.000264233
0.000267404
0.000262998
0.000259628
0.000262952
0.000273182
0.000287867
0.000303664
0.000318346
0.000329704
0.000336581
0.000339285
0.00033819
0.000333124
0.000323303
0.00030771
0.000286348
0.000260655
0.000231174
0.000198928
0.000169453
0.000156127
0.000158062
0.000165836
0.00016806
0.000161822
0.000147742
0.000123339
9.51215e-05
5.62977e-05
0.000129081
0.000177391
0.000207156
0.000230704
0.000251094
0.000262448
0.00026289
0.000256486
0.000252893
0.000258492
0.000271451
0.000287784
0.000304084
0.000318828
0.000330234
0.000337135
0.000339747
0.000338461
0.000333154
0.00032305
0.000307116
0.000285564
0.000260625
0.00023379
0.000205812
0.000179011
0.000162444
0.000157106
0.000159724
0.000161309
0.000156743
0.00014509
0.000124179
0.000101332
5.70534e-05
0.000132768
0.000182235
0.000211373
0.000233118
0.000250621
0.000258813
0.000256901
0.000250491
0.000250108
0.000259971
0.000275489
0.000292133
0.000307573
0.000321386
0.000332038
0.000338289
0.000340185
0.000338044
0.000331702
0.000320251
0.000302508
0.000279003
0.000252935
0.000227098
0.000202949
0.000181735
0.000168065
0.000160534
0.000158613
0.000157407
0.000152375
0.000141639
0.00012282
0.000102707
6.07343e-05
0.000138369
0.000187815
0.000215778
0.000235583
0.00025013
0.000255376
0.00025255
0.000248957
0.000254085
0.00026752
0.000283151
0.000297884
0.000311288
0.000323733
0.000333476
0.000338941
0.00033994
0.000336684
0.000328905
0.000315442
0.00029487
0.000268158
0.000239683
0.000213779
0.000193075
0.000178669
0.000170298
0.00016402
0.000159663
0.000155353
0.000148564
0.000137227
0.00011843
9.7279e-05
6.75029e-05
0.000145589
0.000194253
0.000220868
0.000238953
0.000251341
0.000255517
0.000254629
0.000255641
0.000264413
0.000277508
0.000290077
0.000301457
0.000312757
0.000324292
0.000333751
0.000338984
0.000339541
0.000335545
0.000326624
0.000311335
0.000287905
0.000257506
0.000225633
0.000198345
0.000180061
0.000171945
0.000169041
0.000165195
0.000159938
0.000153181
0.000144443
0.000131571
0.000111256
8.66029e-05
7.66544e-05
0.000153433
0.000201144
0.000226949
0.000244421
0.000256729
0.000262541
0.000265051
0.000268761
0.000276336
0.000285104
0.000292677
0.000300458
0.000310141
0.000321518
0.000331798
0.000338002
0.000339299
0.00033574
0.000326953
0.000311363
0.000286733
0.000253494
0.00021739
0.000185983
0.000166473
0.000161595
0.00016369
0.000162971
0.000158022
0.00014994
0.000139766
0.000125389
0.000103201
7.474e-05
8.62991e-05
0.000160671
0.000208046
0.000234219
0.000252849
0.000267564
0.000276822
0.000282128
0.00028515
0.000287172
0.00028908
0.000290833
0.000294707
0.00030267
0.000314253
0.000326516
0.000335339
0.000339113
0.0003378
0.000331209
0.000317989
0.000295617
0.000262676
0.000223001
0.000184283
0.000156291
0.00014672
0.000151595
0.000155929
0.000153669
0.000146042
0.000135488
0.000120394
9.66193e-05
6.5071e-05
9.32864e-05
0.000166029
0.000214644
0.000242541
0.000263661
0.000282417
0.000295779
0.000302863
0.00030354
0.000298818
0.000292164
0.000286786
0.000285204
0.000289928
0.000300977
0.00031546
0.000328457
0.000336553
0.000339322
0.000336944
0.000328671
0.000312313
0.000285
0.000246605
0.000202301
0.00016091
0.000134801
0.000131351
0.000139361
0.000143674
0.000139999
0.000131159
0.000116818
9.25136e-05
5.8926e-05
9.47131e-05
0.0001681
0.000220366
0.000251385
0.000275189
0.000297573
0.000315048
0.000324425
0.000324364
0.000315389
0.000300738
0.000286193
0.000276418
0.000274644
0.000282344
0.000297466
0.000314996
0.000328826
0.000336899
0.000339723
0.000337405
0.000328808
0.000311382
0.000282358
0.000241824
0.000194127
0.000148845
0.00012061
0.000116839
0.000124016
0.000127651
0.00012379
0.000112666
9.01085e-05
5.62561e-05
9.0096e-05
0.000165927
0.000223264
0.00025891
0.000285518
0.000309909
0.000330375
0.000342741
0.000344627
0.000335759
0.000317955
0.000295453
0.000275135
0.00026317
0.000263124
0.000275338
0.000295107
0.000315005
0.000329141
0.000337196
0.00034016
0.000337995
0.000329431
0.00031218
0.000284016
0.000244679
0.000196037
0.000147194
0.000114812
0.000107085
0.00011101
0.00011273
0.000106557
8.83088e-05
5.64943e-05
8.18798e-05
0.000160486
0.000222617
0.000263749
0.000293279
0.000318587
0.000340084
0.000354688
0.000359444
0.000353301
0.000336833
0.000312119
0.000283694
0.000260471
0.000250026
0.00025586
0.000274819
0.000298568
0.000318605
0.000331643
0.00033883
0.000341059
0.00033797
0.000328323
0.00031064
0.000284086
0.000247653
0.000200616
0.000150958
0.000116941
0.000105423
0.000104834
0.000101479
8.7744e-05
5.90449e-05
7.32375e-05
0.00015384
0.000219207
0.000265077
0.000297278
0.00032314
0.000344627
0.000360058
0.000366826
0.00036335
0.000349256
0.00032511
0.000293111
0.000260753
0.000241797
0.000242863
0.000261066
0.000286775
0.00031058
0.000327197
0.000337185
0.000341987
0.000341831
0.000335969
0.000323378
0.00030405
0.000278456
0.000244011
0.000199272
0.000152599
0.000122174
0.000109559
0.000103254
9.0339e-05
6.3764e-05
6.69233e-05
0.000149296
0.000216392
0.000264985
0.000298698
0.000324614
0.00034546
0.000360435
0.000367509
0.000364851
0.000351386
0.000326454
0.000290736
0.000252513
0.000232037
0.000236289
0.000258311
0.000286335
0.000311114
0.000328295
0.000338634
0.000343714
0.000344027
0.000339083
0.000328119
0.00031162
0.000291039
0.00026522
0.000231072
0.000188711
0.000150903
0.000126415
0.000113012
9.71583e-05
7.09124e-05
6.46169e-05
0.000149166
0.000217147
0.000266101
0.000299506
0.000324463
0.000343911
0.000357375
0.000362987
0.000358563
0.00034182
0.000310458
0.000267514
0.000231275
0.000223368
0.000240556
0.00026927
0.000298208
0.000320661
0.000335115
0.000343156
0.000346228
0.000344742
0.000338159
0.0003259
0.000309394
0.000290765
0.000269774
0.000243531
0.000209778
0.000174842
0.000145351
0.000125821
0.00010627
7.91131e-05
6.77091e-05
0.000154767
0.000223154
0.00027059
0.000302086
0.000325112
0.000342306
0.000352829
0.000354101
0.000342271
0.000313263
0.00026904
0.000227919
0.000216034
0.000232969
0.000262963
0.000293088
0.000317531
0.000333978
0.000343394
0.000347432
0.000347109
0.000342373
0.0003323
0.000316698
0.000298659
0.000281027
0.000263838
0.000243783
0.000218977
0.000189514
0.000159423
0.00013692
0.000114796
8.50219e-05
7.72173e-05
0.000165664
0.000233707
0.000278432
0.000307061
0.000327093
0.000340084
0.000343844
0.000333765
0.000305235
0.000262262
0.0002239
0.000214122
0.00023362
0.000264033
0.000292795
0.000316189
0.000333035
0.000343301
0.000348065
0.000348316
0.000344353
0.000335463
0.000320334
0.000300252
0.000280084
0.000263819
0.000251361
0.000238735
0.000222423
0.000197487
0.000167742
0.000144707
0.000121138
8.51868e-05
9.30403e-05
0.000180197
0.000246909
0.00028806
0.000312764
0.000327833
0.000333134
0.00032469
0.000298874
0.000259899
0.000225815
0.000216858
0.000236366
0.000264083
0.000289264
0.000310493
0.000328193
0.00034068
0.000347576
0.000349448
0.000346824
0.000339494
0.000326052
0.000305294
0.000280671
0.000258518
0.000244114
0.000237481
0.000233881
0.000223563
0.000201895
0.000173852
0.000149318
0.000121979
7.85432e-05
0.000112356
0.000194219
0.000258603
0.000295754
0.000315839
0.000324945
0.000321647
0.000302534
0.000270594
0.000239334
0.000226012
0.000235489
0.000256339
0.000277024
0.000296731
0.000315577
0.000331986
0.000343246
0.000349004
0.0003498
0.000345897
0.000336645
0.00032018
0.000295556
0.000266882
0.000241083
0.000225524
0.000222658
0.00022635
0.000221192
0.000203075
0.000177848
0.00015164
0.000119093
6.88723e-05
0.00012854
0.000204487
0.000266495
0.000300866
0.000318048
0.000323749
0.000316133
0.000293962
0.000265439
0.000243942
0.000237737
0.000244244
0.000257142
0.000272266
0.000290088
0.000309469
0.000327558
0.00034067
0.000348107
0.000350438
0.000347893
0.000339748
0.000324069
0.000299371
0.000268029
0.000236079
0.000212141
0.000204807
0.000211908
0.000213389
0.000200786
0.000179232
0.000153167
0.00011712
6.11395e-05
0.000131208
0.00020647
0.000268637