/*--------------------------------*- C++ -*----------------------------------*\
| =========                 |                                                 |
| \\      /  F ield         | OpenFOAM: The Open Source CFD Toolbox           |
|  \\    /   O peration     | Version:  v2006                                 |
|   \\  /    A nd           | Website:  www.openfoam.com                      |
|    \\/     M anipulation  |                                                 |
\*---------------------------------------------------------------------------*/
FoamFile
{
    version     2.0;
    format      ascii;
    class       volScalarField;
    location    "11";
    object      omega;
}
// * * * * * * * * * * * * * * * * * * * * * * * * * * * * * * * * * * * * * //

dimensions      [0 0 -1 0 0 0 0];


internalField   nonuniform List<scalar> 
78750
(
380.895
17.4403
15.7312
15.4461
15.4062
15.3169
15.2454
15.1801
15.1218
15.07
15.0243
14.9834
14.9467
14.9137
14.884
14.8571
14.8325
14.8097
14.7881
14.7671
14.7462
14.7252
14.701
14.6729
14.6398
14.5998
14.5512
14.4913
14.417
14.3238
14.2078
14.0677
13.9128
13.7824
356.925
529.118
6.62733
7.10911
7.12436
6.98386
6.80984
6.64891
6.50706
6.38679
6.2908
6.2172
6.16106
6.11873
6.08722
6.06552
6.05178
6.04519
6.04453
6.04932
6.05854
6.07073
6.08371
6.09345
6.0969
6.0911
6.07309
6.03972
5.98687
5.90824
5.79333
5.62577
5.38644
5.07677
4.73248
524.076
529.598
5.58559
5.80517
5.78222
5.6645
5.54971
5.46167
5.39354
5.34314
5.3084
5.28283
5.26698
5.26283
5.27031
5.28813
5.31458
5.34798
5.38681
5.42967
5.47536
5.52263
5.57017
5.61567
5.65699
5.69259
5.71958
5.73233
5.72412
5.68671
5.60975
5.48122
5.29229
5.04841
4.75243
525.041
529.476
5.33387
5.6026
5.73204
5.76798
5.75101
5.70323
5.63164
5.54239
5.44965
5.35723
5.26734
5.19284
5.142
5.11633
5.11301
5.12834
5.15814
5.19847
5.24611
5.29923
5.35641
5.41535
5.47412
5.5299
5.5786
5.61413
5.62839
5.61167
5.55333
5.44368
5.28032
5.07432
4.80395
525.165
529.438
5.20715
5.4627
5.62033
5.70092
5.69671
5.61262
5.45877
5.24965
5.00676
4.76309
4.5673
4.4516
4.41019
4.41865
4.45544
4.51209
4.58311
4.67121
4.77427
4.88777
5.00505
5.11814
5.22084
5.30841
5.38138
5.43717
5.46958
5.46946
5.42632
5.33534
5.19807
5.01981
4.76944
525.748
529.325
5.0942
5.32022
5.43941
5.4713
5.4015
5.23791
4.99128
4.68194
4.36345
4.12686
4.0792
4.07903
4.1174
4.17061
4.19837
4.20444
4.16267
4.11388
4.08298
4.09414
4.1686
4.31209
4.50363
4.70285
4.88161
5.02294
5.12178
5.17613
5.18221
5.1379
5.04696
4.91374
4.70356
526.024
529.324
5.07906
5.30723
5.42714
5.444
5.30429
4.97845
4.51932
4.13552
4.19186
4.23367
4.5542
4.88169
5.14517
5.3207
5.41219
5.4263
5.37007
5.2389
5.03368
4.76714
4.47376
4.21951
4.09672
4.1654
4.38487
4.64934
4.87675
5.0264
5.10076
5.10818
5.05409
4.94089
4.73514
526.181
529.385
5.04697
5.2023
5.19336
4.98585
4.55961
4.13042
4.20277
4.25475
4.76354
5.23283
5.55618
5.74732
5.84941
5.90073
5.9226
5.92352
5.90274
5.85285
5.75867
5.59868
5.35067
5.009
4.60148
4.22421
4.09071
4.12503
4.12978
4.36821
4.60489
4.74651
4.79189
4.75313
4.61929
526.427
529.549
5.05053
5.09758
4.93427
4.54363
4.15369
4.17535
4.45301
4.94268
5.25915
5.41774
5.50142
5.5568
5.60166
5.64055
5.67425
5.70327
5.72815
5.74839
5.76094
5.75767
5.72224
5.62656
5.4338
5.12161
4.71802
4.33728
4.11782
4.07507
4.31347
4.616
4.78294
4.79204
4.65521
526.72
529.607
5.01276
4.98867
4.77068
4.37305
4.13239
4.17262
4.32459
4.75968
5.129
5.41036
5.61549
5.76187
5.86312
5.92832
5.96416
5.97594
5.96824
5.9455
5.91271
5.87566
5.84022
5.8095
5.77777
5.72383
5.60866
5.37957
5.00847
4.55292
4.1713
4.08118
4.28641
4.49684
4.53066
526.354
529.541
4.98865
4.97435
4.78322
4.4079
4.16777
4.09777
4.46136
5.00204
5.44441
5.73056
5.90221
6.0061
6.0689
6.1048
6.12224
6.12677
6.12141
6.10706
6.0828
6.04602
5.99298
5.91956
5.82353
5.70517
5.56792
5.41329
5.227
4.97241
4.62616
4.29709
4.23067
4.38235
4.48963
526.106
529.348
4.8812
4.90293
4.75515
4.43878
4.15575
4.10491
4.49602
5.00432
5.39552
5.64843
5.80538
5.90379
5.96512
6.00137
6.01987
6.02533
6.02078
6.00843
5.9898
5.96553
5.93506
5.89598
5.84322
5.76812
5.6577
5.49574
5.26856
4.98077
4.64943
4.32618
4.18499
4.30889
4.4755
526.123
529.256
4.81848
4.85808
4.71038
4.3676
4.14959
4.34799
4.88725
5.38593
5.72856
5.94472
6.07925
6.16167
6.20927
6.23278
6.23914
6.23254
6.2153
6.18831
6.15138
6.10307
6.04063
5.95969
5.85365
5.71218
5.5186
5.24999
4.89942
4.5158
4.21637
4.1025
4.18739
4.36539
4.49102
526.651
529.211
4.72511
4.71124
4.4836
4.26577
4.55203
5.14302
5.61164
5.8803
6.02352
6.10153
6.14352
6.16334
6.16937
6.16644
6.15711
6.14271
6.12377
6.10002
6.0709
6.03493
5.98871
5.92631
5.83776
5.70645
5.50577
5.20461
4.80215
4.3861
4.13091
4.10944
4.24305
4.37761
4.42978
527.191
529.303
4.58243
4.44979
4.35299
4.62656
5.13143
5.52205
5.75163
5.89339
5.99342
6.06803
6.12575
6.16784
6.19516
6.20954
6.21251
6.20495
6.18702
6.15901
6.12109
6.07308
6.01369
5.93966
5.84501
5.71873
5.54062
5.28013
4.91456
4.48402
4.15601
4.10308
4.23901
4.35287
4.37216
527.609
529.452
4.71652
4.83543
5.09765
5.44023
5.70423
5.86546
5.95642
6.01102
6.0549
6.10151
6.14818
6.18737
6.21542
6.23255
6.23991
6.23759
6.22616
6.20591
6.177
6.13933
6.09288
6.0372
5.96956
5.88449
5.77041
5.60468
5.35172
4.987
4.56151
4.25448
4.19811
4.26521
4.29961
527.828
529.846
4.98804
5.01062
5.2441
5.52245
5.67041
5.70674
5.68925
5.66508
5.67801
5.75077
5.8604
5.9673
6.05197
6.11102
6.14791
6.16629
6.16846
6.15591
6.12974
6.09074
6.03973
5.97861
5.91026
5.83652
5.75797
5.66843
5.54707
5.35639
5.06485
4.70784
4.43075
4.31029
4.28084
527.8
529.483
4.96538
5.02934
5.14451
5.33145
5.48608
5.5485
5.4916
5.3373
5.21843
5.28688
5.51128
5.75441
5.94054
6.06372
6.14035
6.18419
6.20301
6.20134
6.18203
6.14641
6.09462
6.02649
5.94462
5.85469
5.76593
5.68708
5.61275
5.51724
5.36325
5.12396
4.83672
4.5886
4.42653
527.091
529.078
4.69767
4.84869
4.97647
5.13272
5.28821
5.35646
5.26733
5.07312
4.99144
5.14941
5.43912
5.71419
5.91314
6.03805
6.10716
6.13881
6.14493
6.13186
6.10241
6.05681
5.99342
5.90977
5.80663
5.68926
5.57636
5.49342
5.4454
5.40388
5.3258
5.1795
4.96943
4.74144
4.54335
526.747
529.034
4.63415
4.83399
4.96638
5.03523
4.97283
4.76341
4.60977
4.76965
5.19896
5.65106
5.96174
6.12304
6.19351
6.22003
6.22564
6.21893
6.20176
6.17306
6.13057
6.07078
5.98834
5.87666
5.73273
5.56335
5.40147
5.29585
5.26161
5.25644
5.22128
5.11945
4.94805
4.75562
4.56395
526.996
529.122
4.60668
4.71238
4.70764
4.60278
4.50512
4.63258
5.03547
5.49488
5.81173
5.96636
6.03072
6.0667
6.09947
6.13031
6.15228
6.16067
6.15411
6.13196
6.09294
6.03374
5.94817
5.8278
5.66404
5.45854
5.24507
5.09347
5.04866
5.06872
5.07324
5.00882
4.87211
4.71254
4.5382
527.549
529.226
4.56804
4.58359
4.55296
4.57432
4.80498
5.20458
5.57695
5.81513
5.95206
6.04316
6.11322
6.16524
6.20042
6.22181
6.2303
6.22733
6.21354
6.18837
6.15006
6.09501
6.01721
5.90784
5.75489
5.54541
5.28729
5.04039
4.89978
4.88795
4.91918
4.89694
4.79979
4.66797
4.51198
528.177
529.269
4.57237
4.57574
4.61029
4.7825
5.10748
5.45164
5.71044
5.8731
5.96906
6.0279
6.07104
6.10912
6.14347
6.17213
6.19148
6.19961
6.19602
6.18023
6.15122
6.10675
6.04285
5.95343
5.8287
5.65132
5.40587
5.10714
4.8392
4.71552
4.73664
4.76468
4.72336
4.63049
4.50247
528.77
529.237
4.61281
4.67181
4.78363
5.02944
5.34795
5.62809
5.82013
5.92952
5.98766
6.02797
6.07061
6.11669
6.15894
6.19291
6.21509
6.22496
6.22297
6.20923
6.18312
6.14293
6.08563
6.00695
5.90175
5.75671
5.55288
5.27452
4.94657
4.67535
4.57962
4.6069
4.62239
4.58062
4.49305
529.28
529.187
4.67221
4.80293
4.96485
5.22443
5.49662
5.70282
5.82873
5.88994
5.92149
5.95724
6.00993
6.07087
6.12665
6.17107
6.20148
6.21776
6.22101
6.21191
6.1904
6.15527
6.10406
6.03325
5.93908
5.81213
5.63821
5.39948
5.08823
4.75178
4.51739
4.45772
4.48422
4.49063
4.45626
529.841
529.157
4.74968
4.93777
5.12768
5.37887
5.60192
5.74613
5.81889
5.84947
5.87627
5.92667
5.99881
6.07391
6.1371
6.18457
6.21583
6.23205
6.235
6.22583
6.20483
6.17116
6.12289
6.05727
5.97173
5.85907
5.70752
5.50152
5.22598
4.89309
4.58341
4.41062
4.38051
4.39936
4.40719
530.283
529.154
4.83013
5.05276
5.24911
5.47147
5.64162
5.72877
5.75657
5.77316
5.81586
5.89423
5.98803
6.07377
6.14063
6.18866
6.21987
6.23587
6.23859
6.22923
6.2081
6.17443
6.1264
6.06182
5.97957
5.87428
5.73779
5.55819
5.32166
5.02627
4.71528
4.48341
4.38034
4.36902
4.38123
530.366
529.171
4.89434
5.13482
5.3259
5.51469
5.64155
5.69118
5.70274
5.73676
5.81323
5.91672
6.01862
6.10196
6.16362
6.20706
6.23501
6.24876
6.24994
6.2396
6.21801
6.1844
6.13705
6.07406
5.99516
5.89662
5.77257
5.61465
5.41244
5.16043
4.88089
4.64195
4.49043
4.42761
4.39995
530.065
529.204
4.94193
5.18787
5.36764
5.52577
5.6199
5.64861
5.66298
5.7232
5.82419
5.93605
6.03485
6.1123
6.16955
6.2104
6.23714
6.25014
6.25062
6.23945
6.21682
6.18186
6.1328
6.06804
5.98836
5.8915
5.77387
5.62984
5.4524
5.23793
4.9987
4.78185
4.61646
4.5155
4.43941
529.698
529.248
4.97754
5.21983
5.38753
5.52459
5.60215
5.6311
5.66475
5.74826
5.85833
5.96524
6.05485
6.12512
6.17856
6.21808
6.24487
6.25837
6.25943
6.24884
6.22674
6.1922
6.14335
6.07849
5.99863
5.90313
5.78967
5.65437
5.49221
5.30051
5.08834
4.88965
4.71925
4.59234
4.47746
529.459
529.297
5.00507
5.2409
5.39982
5.52599
5.60039
5.63739
5.68136
5.76428
5.86466
5.95942
6.04086
6.10834
6.16287
6.20514
6.23527
6.25157
6.25472
6.24554
6.22422
6.18982
6.14037
6.07416
5.99249
5.89624
5.78407
5.65363
5.50177
5.32694
5.13604
4.95381
4.78446
4.64379
4.50521
529.391
529.344
5.02672
5.2567
5.41158
5.53595
5.61661
5.66371
5.70984
5.77914
5.8633
5.94501
6.02002
6.08746
6.14608
6.19403
6.23013
6.2516
6.25901
6.25336
6.23504
6.20321
6.15585
6.09094
6.00929
5.91338
5.80194
5.67323
5.52531
5.35783
5.17711
5.00266
4.8328
4.68255
4.52782
529.406
529.378
5.0381
5.2679
5.424
5.55172
5.64218
5.69428
5.72889
5.7677
5.8243
5.88949
5.95983
6.03176
6.0998
6.15823
6.20408
6.23355
6.2471
6.24619
6.2316
6.20277
6.15783
6.09473
6.01413
5.91996
5.81107
5.68578
5.54228
5.3807
5.2073
5.03927
4.87065
4.71518
4.54959
529.454
529.391
5.03778
5.27404
5.43449
5.56626
5.66626
5.72158
5.74423
5.75489
5.78048
5.82857
5.89526
5.97378
6.054
6.12583
6.18359
6.22296
6.24408
6.24906
6.23932
6.21467
6.17347
6.11354
6.03506
5.94323
5.83749
5.71598
5.57613
5.41749
5.2462
5.07944
4.91008
4.74968
4.57438
529.496
529.382
5.02276
5.27126
5.43784
5.57237
5.67981
5.73797
5.74974
5.73276
5.71882
5.74208
5.8025
5.88936
5.98536
6.07403
6.14625
6.19722
6.22676
6.23783
6.23273
6.21183
6.17387
6.11686
6.04112
5.9522
5.85152
5.73719
5.60527
5.45337
5.28642
5.12187
4.95227
4.78824
4.60451
529.539
529.357
4.99548
5.25602
5.42898
5.5646
5.67472
5.7343
5.73871
5.70226
5.65845
5.65962
5.71865
5.81867
5.93291
6.03863
6.1244
6.1855
6.22199
6.2378
6.2361
6.2178
6.18185
6.12637
6.05181
5.96465
5.86828
5.76152
5.63926
5.4964
5.33527
5.17282
5.00174
4.83364
4.64157
529.582
529.328
4.96063
5.2274
5.40532
5.54035
5.64851
5.70712
5.70524
5.6529
5.58589
5.56921
5.63332
5.75109
5.88437
6.00525
6.1017
6.16995
6.21081
6.22913
6.22874
6.21093
6.17474
6.11834
6.04273
5.95607
5.86341
5.76512
5.65563
5.52732
5.37921
5.22482
5.05451
4.88429
4.68583
529.648
529.304
4.92838
5.19454
5.37318
5.50453
5.60621
5.65826
5.64453
5.57351
5.4921
5.48217
5.57376
5.72034
5.87329
6.00458
6.10582
6.17532
6.21583
6.23303
6.23105
6.21111
6.1721
6.11208
6.03286
5.94474
5.85439
5.76394
5.6676
5.55561
5.42458
5.27984
5.11049
4.93915
4.73646
529.746
529.286
4.90486
5.16719
5.34167
5.46465
5.55336
5.5878
5.54884
5.45541
5.37999
5.41346
5.55189
5.72712
5.89007
6.02088
6.11799
6.18204
6.21745
6.23003
6.22349
6.19852
6.15339
6.08608
6.00032
5.90886
5.82022
5.73858
5.6582
5.56773
5.46221
5.33134
5.16504
4.99496
4.79157
529.899
529.272
4.88496
5.14125
5.30598
5.41356
5.47849
5.47806
5.40338
5.30793
5.28715
5.40194
5.59114
5.78235
5.94147
6.06185
6.14809
6.20193
6.22886
6.23422
6.22078
6.18831
6.13417
6.05656
5.96282
5.86739
5.78157
5.71046
5.6476
5.58055
5.50004
5.38148
5.21779
5.04981
4.84825
530.11
529.259
4.85616
5.09761
5.24317
5.32555
5.35394
5.31097
5.22654
5.19087
5.2777
5.47116
5.68412
5.86621
6.00537
6.10683
6.17601
6.21607
6.23213
6.22816
6.20556
6.16271
6.09578
6.00414
5.90044
5.80136
5.72113
5.66538
5.62665
5.59168
5.53513
5.4273
5.26662
5.10076
4.90151
530.395
529.25
4.81455
5.02475
5.13799
5.18677
5.17926
5.12937
5.10885
5.18862
5.37917
5.6057
5.8049
5.9581
6.06992
6.15068
6.20319
6.23021
6.23568
6.22206
6.18929
6.13406
6.05157
5.94489
5.83153
5.73192
5.66226
5.62669
5.61612
5.61017
5.56926
5.46761
5.31077
5.14547
4.94552
530.744
529.246
4.77255
4.94109
5.0183
5.04121
5.03393
5.04599
5.13694
5.31769
5.54676
5.75424
5.91546
6.03362
6.11967
6.1816
6.21922
6.23427
6.22941
6.20567
6.16135
6.09111
5.98996
5.86723
5.74473
5.64864
5.59666
5.59003
5.61489
5.63091
5.59817
5.49883
5.34726
5.18096
4.97578
531.138
529.251
4.75251
4.88899
4.94678
4.97291
5.01502
5.11782
5.28904
5.50543
5.71272
5.87665
5.99754
6.08676
6.15429
6.20272
6.22962
6.23568
6.22248
6.18982
6.13423
6.04846
5.92873
5.79094
5.66154
5.57254
5.54236
5.56871
5.62115
5.64806
5.61661
5.51735
5.37213
5.20513
4.9923
531.539
529.264
4.76622
4.89485
4.95983
5.01911
5.12448
5.28473
5.47364
5.6708
5.834
5.95524
6.04472
6.11473
6.17137
6.21159
6.23159
6.23152
6.21223
6.17242
6.10689
6.00689
5.87077
5.71768
5.58027
5.49807
5.49141
5.55168
5.62254
5.65374
5.62065
5.52185
5.38329
5.21698
4.99707
531.914
529.282
4.80892
4.94943
5.03832
5.13994
5.28698
5.45914
5.62768
5.78532
5.90615
5.99541
6.06565
6.12571
6.17767
6.21494
6.23268
6.23063
6.20914
6.16613
6.09522
5.98659
5.83873
5.67095
5.5193
5.43285
5.44009
5.52426
5.60764
5.64185
5.60871
5.51302
5.38132
5.21735
4.9936
532.238
529.301
4.86552
5.02622
5.14111
5.27643
5.43913
5.59724
5.73107
5.84899
5.93729
6.00443
6.06286
6.11881
6.17077
6.20988
6.22983
6.22999
6.21058
6.16933
6.09953
5.99067
5.83874
5.65911
5.48526
5.37485
5.37514
5.47163
5.56803
5.61002
5.58205
5.49337
5.36961
5.21022
4.98696
532.496
529.318
4.92141
5.10527
5.24218
5.39734
5.56052
5.69755
5.79781
5.87955
5.94103
5.99187
6.04352
6.09962
6.15546
6.20079
6.22712
6.23343
6.22028
6.18584
6.12414
6.02481
5.88014
5.69805
5.50088
5.34415
5.29842
5.38558
5.49651
5.55605
5.54215
5.46583
5.35275
5.20127
4.98299
532.682
529.326
4.96686
5.17641
5.33075
5.49335
5.65099
5.76838
5.83913
5.88536
5.92288
5.96022
6.00761
6.0663
6.12841
6.18293
6.21849
6.23337
6.22878
6.2039
6.15426
6.07109
5.9452
5.77648
5.57399
5.37427
5.25359
5.28511
5.39453
5.47862
5.48978
5.43285
5.33442
5.19465
4.98565
532.805
529.323
4.99881
5.23629
5.40321
5.56417
5.71423
5.81606
5.86343
5.87811
5.89364
5.91954
5.965
6.02838
6.09823
6.1628
6.20864
6.23264
6.23661
6.22092
6.18263
6.11503
6.01004
5.8647
5.67992
5.46806
5.28061
5.21324
5.28049
5.37803
5.42188
5.39279
5.3143
5.19071
4.99618
532.884
529.311
5.01965
5.2846
5.45915
5.61344
5.75435
5.84382
5.87366
5.8635
5.85719
5.874
5.92081
5.99102
6.06924
6.14232
6.19727
6.22912
6.23992
6.23108
6.20091
6.14417
6.05413
5.92857
5.7698
5.57771
5.37032
5.21819
5.20381
5.27669
5.34128
5.3426
5.28775
5.18453
5.01086
532.943
529.296
5.03529
5.32277
5.50072
5.6464
5.77548
5.85231
5.86717
5.83945
5.8174
5.83368
5.88904
5.96893
6.05423
6.13277
6.19308
6.2294
6.24364
6.2379
6.21123
6.15919
6.07562
5.95921
5.81625
5.64811
5.45891
5.28094
5.20043
5.2163
5.2697
5.28879
5.25507
5.17227
5.02362
532.993
529.288
5.05216
5.35408
5.53147
5.66743
5.78184
5.84322
5.84278
5.80355
5.77983
5.80883
5.87949
5.96845
6.05642
6.13524
6.19582
6.2323
6.24612
6.23944
6.21156
6.15809
6.07274
5.95523
5.81631
5.66322
5.49967
5.33928
5.23944
5.20958
5.23056
5.24576
5.22236
5.15461
5.02825
533.038
529.296
5.07654
5.38418
5.55696
5.68198
5.77982
5.82345
5.80965
5.76998
5.76396
5.81681
5.90145
5.99178
6.07484
6.14855
6.20515
6.23831
6.2485
6.23748
6.20429
6.14376
6.04864
5.92001
5.77384
5.62523
5.48316
5.35617
5.27451
5.23098
5.22325
5.22078
5.19429
5.13202
5.01866
533.066
529.325
5.1129
5.41839
5.58328
5.69659
5.77749
5.80455
5.78538
5.76109
5.78575
5.85814
5.94291
6.02237
6.09421
6.16057
6.21248
6.24171
6.24742
6.23078
6.19023
6.11919
6.00873
5.86167
5.70026
5.549
5.4253
5.33839
5.28921
5.25349
5.2303
5.20803
5.17014
5.10358
4.98964
533.054
529.377
5.15906
5.45734
5.61324
5.71612
5.78455
5.80545
5.79686
5.7981
5.84268
5.91273
5.98017
6.04108
6.10147
6.16302
6.21363
6.24191
6.2456
6.22537
6.17914
6.09871
5.97294
5.80478
5.62209
5.45985
5.348
5.2981
5.28258
5.2621
5.23322
5.19521
5.14452
5.06755
4.94271
532.995
529.447
5.20851
5.49851
5.64862
5.74738
5.81498
5.84479
5.85497
5.87118
5.90879
5.95443
5.99415
6.03526
6.08683
6.14763
6.20284
6.23653
6.24439
6.22679
6.18168
6.10025
5.96876
5.78532
5.57771
5.38876
5.26634
5.23447
5.25
5.24954
5.22283
5.17623
5.11584
5.02859
4.88994
532.899
529.519
5.25368
5.53945
5.69066
5.79528
5.87581
5.92443
5.95012
5.96271
5.96971
5.97715
5.98458
6.00401
6.04609
6.10808
6.17407
6.22185
6.24294
6.23733
6.2041
6.1359
6.01804
5.83902
5.61385
5.38282
5.20656
5.14212
5.17361
5.20537
5.19631
5.15269
5.08958
4.997
4.84645
532.784
529.571
5.28692
5.57859
5.73883
5.85647
5.95838
6.02894
6.0644
6.06492
6.03601
5.9963
5.964
5.95285
5.97686
6.03609
6.11422
6.18449
6.2285
6.2443
6.23317
6.19128
6.10665
5.96179
5.75048
5.49456
5.24116
5.07106
5.04491
5.09867
5.13173
5.11385
5.06174
4.97367
4.81881
532.665
529.581
5.29975
5.61242
5.78978
5.92152
6.04191
6.13373
6.18134
6.17872
6.12847
6.0466
5.96374
5.90659
5.89398
5.93471
6.01685
6.11197
6.18679
6.2305
6.24637
6.23537
6.19164
6.10123
5.94689
5.72324
5.44657
5.16706
4.98104
4.95368
5.00344
5.03265
5.01288
4.9455
4.80193
532.538
529.547
5.28652
5.6296
5.83287
5.97943
6.10975
6.21636
6.2792
6.28714
6.23878
6.14221
6.01791
5.90256
5.83244
5.82954
5.89623
6.0047
6.11295
6.18917
6.23245
6.2487
6.23813
6.1941
6.10396
5.95371
5.7371
5.45643
5.15672
4.94523
4.89352
4.92287
4.93941
4.9042
4.78878
532.367
529.488
5.25322
5.62633
5.86055
6.02266
6.1574
6.26885
6.34282
6.36547
6.33183
6.24378
6.10992
5.95207
5.81922
5.75743
5.78902
5.89473
6.02525
6.13365
6.20336
6.24157
6.25359
6.23778
6.18745
6.094
5.95128
5.75046
5.48032
5.17858
4.96045
4.8864
4.88691
4.86979
4.78371
532.113
529.425
5.21249
5.60728
5.86866
6.04514
6.18267
6.29402
6.37202
6.40479
6.38482
6.30952
6.17971
6.00387
5.82079
5.71091
5.71642
5.81978
5.96269
6.09196
6.18063
6.23332
6.25846
6.25761
6.22685
6.16035
6.05711
5.91822
5.72686
5.46897
5.18651
4.99549
4.91737
4.8807
4.79996
531.825
529.379
5.18497
5.59195
5.86909
6.05368
6.19142
6.29946
6.37514
6.40934
6.39327
6.32077
6.18614
5.98914
5.77244
5.65432
5.67975
5.80597
5.96192
6.09607
6.18723
6.24135
6.26763
6.26893
6.24268
6.18454
6.09646
5.98531
5.84351
5.65124
5.40428
5.17599
5.02521
4.94354
4.8446
531.58
529.364
5.1852
5.59744
5.87626
6.05887
6.19142
6.29223
6.36016
6.38672
6.36092
6.26979
6.09799
5.8573
5.64942
5.60486
5.70585
5.86859
6.02738
6.14739
6.22327
6.26494
6.28053
6.27231
6.23731
6.17204
6.0836
5.98281
5.86779
5.72123
5.52825
5.32264
5.14465
5.02578
4.90442
531.457
529.389
5.22126
5.63322
5.90192
6.07343
6.1954
6.28422
6.33668
6.34018
6.27428
6.11493
5.86739
5.63055
5.56223
5.66236
5.83324
5.99927
6.13043
6.21706
6.26603
6.28678
6.28476
6.25961
6.20612
6.1227
6.02538
5.92941
5.83508
5.72358
5.58346
5.41266
5.2335
5.09744
4.96074
531.466
529.462
5.28947
5.69451
5.94546
6.10025
6.20564
6.27193
6.2886
6.23176
6.07445
5.83262
5.60961
5.55151
5.66512
5.83747
5.99584
6.1219
6.21126
6.26513
6.28998
6.29122
6.27041
6.22352
6.143
6.03477
5.92459
5.835
5.76656
5.69735
5.6066
5.4636
5.288
5.14884
5.00293
531.593
529.58
5.37828
5.7694
5.99771
6.1301
6.20863
6.23434
6.18646
6.04375
5.8235
5.62362
5.5674
5.67872
5.835
5.97419
6.0897
6.18467
6.25089
6.28724
6.29724
6.28378
6.24559
6.17479
6.06384
5.92963
5.80648
5.72569
5.68974
5.67243
5.61672
5.49364
5.32908
5.18071
5.01042
531.857
529.722
5.46196
5.8344
6.03866
6.14563
6.1925
6.17284
6.06719
5.88757
5.70507
5.62196
5.67223
5.78951
5.90509
6.01378
6.11616
6.20415
6.26399
6.2946
6.29927
6.27945
6.23154
6.14507
6.01323
5.85569
5.71004
5.62066
5.60567
5.63107
5.60587
5.50399
5.35651
5.19833
4.99489
532.154
529.837
5.52185
5.8775
6.06557
6.15689
6.18599
6.14368
6.02093
5.85817
5.72995
5.68812
5.72126
5.79327
5.878
5.97685
6.08282
6.18032
6.25022
6.28973
6.30246
6.28985
6.24802
6.16628
6.03502
5.86392
5.68375
5.54461
5.50201
5.5476
5.56186
5.49271
5.36738
5.21062
4.98513
532.371
529.853
5.53189
5.88831
6.0791
6.1734
6.20905
6.179
6.07456
5.93424
5.81642
5.74462
5.71272
5.72481
5.7763
5.86625
5.98401
6.10506
6.20155
6.2633
6.29541
6.30187
6.28103
6.22481
6.12236
5.97057
5.78068
5.57841
5.436
5.42259
5.46933
5.45589
5.36684
5.22754
5.0007
532.467
529.741
5.46779
5.85305
6.07348
6.18853
6.24572
6.24944
6.18711
6.0731
5.95188
5.83938
5.73676
5.65945
5.64628
5.70468
5.82596
5.9758
6.11221
6.20717
6.26459
6.29357
6.29647
6.26952
6.20618
6.10328
5.96007
5.76717
5.54462
5.38227
5.36422
5.38543
5.34816
5.24525
5.04382
532.457
529.559
5.34293
5.76194
6.02765
6.17577
6.25874
6.29511
6.27808
6.20416
6.09341
5.96528
5.82335
5.67357
5.56709
5.56695
5.67472
5.84369
6.01602
6.14501
6.22623
6.27278
6.29154
6.28169
6.24001
6.16886
6.07755
5.9566
5.77808
5.55421
5.39681
5.35458
5.33656
5.26998
5.10575
532.396
529.403
5.21938
5.65498
5.95486
6.13147
6.23413
6.28974
6.29864
6.25376
6.16347
6.04165
5.87506
5.66523
5.49929
5.48558
5.61253
5.80488
5.99314
6.13235
6.21904
6.26766
6.28721
6.27831
6.23913
6.17549
6.10519
6.03168
5.92957
5.76322
5.56814
5.43627
5.37666
5.318
5.18141
532.372
529.324
5.15391
5.58867
5.89507
6.07659
6.18271
6.24415
6.26487
6.23754
6.14927
5.97876
5.72522
5.47908
5.39104
5.49327
5.69701
5.91243
6.08459
6.19547
6.25676
6.28382
6.28371
6.256
6.20045
6.13084
6.07296
6.03048
5.97868
5.88016
5.73235
5.57623
5.46606
5.38808
5.26832
532.46
529.339
5.17133
5.59767
5.886
6.04943
6.14243
6.19136
6.18767
6.09422
5.88664
5.60627
5.37611
5.33608
5.49022
5.72462
5.94589
6.11306
6.21669
6.2694
6.28694
6.27878
6.24632
6.18466
6.09902
6.0241
5.99041
5.99251
5.99275
5.95489
5.85437
5.70533
5.5637
5.46664
5.35086
532.687
529.443
5.24155
5.64599
5.89091
6.00983
6.05667
6.0379
5.9182
5.68981
5.44066
5.30639
5.37773
5.59642
5.8335
6.02148
6.15261
6.23283
6.27316
6.28263
6.26742
6.22845
6.15881
6.0521
5.94106
5.8844
5.90807
5.97699
6.03761
6.03706
5.95148
5.80474
5.65377
5.53036
5.37685
533.039
529.606
5.31046
5.66881
5.85034
5.90666
5.88366
5.76944
5.57008
5.38807
5.34213
5.46579
5.68291
5.87719
6.02269
6.13167
6.21278
6.26238
6.28132
6.27243
6.23737
6.1712
6.06183
5.91898
5.80316
5.78265
5.87164
6.0043
6.09404
6.09504
6.00881
5.86593
5.71776
5.55974
5.33052
533.385
529.752
5.3371
5.63918
5.76748
5.78192
5.7167
5.57688
5.43747
5.40322
5.49378
5.65065
5.80396
5.93191
6.04615
6.14634
6.22376
6.26996
6.28664
6.27629
6.23818
6.16405
6.04161
5.88096
5.73481
5.68525
5.78654
5.96853
6.08619
6.09745
6.02245
5.89393
5.74983
5.56695
5.27335
533.628
529.775
5.3111
5.58147
5.6927
5.70592
5.65057
5.54507
5.47642
5.49635
5.57089
5.66196
5.76424
5.87087
5.98462
6.09566
6.18964
6.253
6.28673
6.29462
6.27652
6.22547
6.12824
5.97751
5.79288
5.6336
5.61267
5.77767
5.97812
6.06056
6.02217
5.91376
5.77857
5.59177
5.26907
533.727
529.632
5.21048
5.49089
5.62401
5.66398
5.65052
5.5964
5.55757
5.56417
5.5872
5.60775
5.65161
5.7313
5.84548
5.97846
6.1035
6.19835
6.25821
6.29067
6.29991
6.28392
6.23648
6.15
6.01616
5.82626
5.62361
5.54503
5.68714
5.88561
5.97429
5.93541
5.831
5.66262
5.34489
533.719
529.425
5.06445
5.36614
5.54042
5.6179
5.64506
5.63719
5.61808
5.61318
5.60762
5.58362
5.56003
5.59197
5.69175
5.83883
5.99514
6.12532
6.21248
6.26529
6.29246
6.29468
6.27009
6.22217
6.16097
6.07769
5.93589
5.72935
5.58635
5.64532
5.80334
5.89037
5.86656
5.74891
5.4744
533.725
529.265
4.93239
5.23667
5.43351
5.53782
5.59102
5.61355
5.62009
5.62152
5.5981
5.53702
5.47953
5.49982
5.61193
5.77934
5.95529
6.10061
6.19757
6.25589
6.28627
6.29107
6.27008
6.22777
6.17841
6.13444
6.09213
6.00908
5.85219
5.71584
5.72411
5.82356
5.87702
5.82681
5.62511
533.815
529.188
4.86946
5.16653
5.35597
5.4632
5.52621
5.56412
5.5752
5.5442
5.46849
5.39225
5.39377
5.50349
5.6827
5.8783
6.05063
6.17158
6.24199
6.27622
6.28247
6.2628
6.22041
6.16844
6.12674
6.11037
6.11908
6.12478
6.07766
5.96051
5.85754
5.85722
5.90291
5.88849
5.76801
534.061
529.186
4.87974
5.16317
5.32243
5.40245
5.44157
5.44115
5.39321
5.32416
5.29554
5.3687
5.53869
5.75032
5.95222
6.11465
6.2181
6.26653
6.27625
6.25732
6.21193
6.14264
6.06398
6.00688
5.99535
6.037
6.12255
6.21666
6.25597
6.1982
6.08982
6.03142
6.01507
5.98365
5.91015
534.465
529.246
4.9308
5.18138
5.28357
5.31517
5.30448
5.2685
5.25734
5.32912
5.50498
5.7288
5.93827
6.10235
6.21099
6.26209
6.26569
6.23622
6.18152
6.09757
5.98196
5.86446
5.79938
5.83364
5.97734
6.17766
6.35369
6.46034
6.48231
6.429
6.33956
6.25456
6.18249
6.09711
5.94622
534.811
529.355
4.99279
5.19443
5.25818
5.26791
5.2752
5.33692
5.486
5.7039
5.90793
6.05908
6.15771
6.21775
6.23985
6.22524
6.17822
6.10316
5.98925
5.8201
5.67188
5.68225
5.8702
6.12156
6.34462
6.51919
6.63324
6.67492
6.6551
6.59119
6.49964
6.39432
6.27185
6.09277
5.78047
535.052
529.496
5.06809
5.23204
5.29946
5.34959
5.44351
5.5974
5.78051
5.93466
6.04363
6.12505
6.18663
6.22382
6.22648
6.1922
6.12337
6.01596
5.85763
5.68692
5.63045
5.78446
6.09467
6.37211
6.52866
6.62761
6.7133
6.76636
6.75659
6.68755
6.57861
6.43862
6.24867
5.96183
5.5331
535.223
529.62
5.13264
5.2855
5.37769
5.47924
5.60981
5.74646
5.86427
5.95928
6.03842
6.11154
6.17496
6.21953
6.23676
6.22093
6.16896
6.07501
5.92344
5.7187
5.55567
5.58407
5.87447
6.29779
6.61426
6.73494
6.7291
6.69159
6.65991
6.61014
6.51988
6.37997
6.16486
5.83406
5.37301
535.254
529.644
5.15092
5.32335
5.44345
5.57022
5.70325
5.80652
5.86636
5.90883
5.95961
6.02396
6.09784
6.167
6.21874
6.24777
6.25106
6.22306
6.15001
6.00525
5.7746
5.53018
5.41582
5.54972
5.91259
6.34288
6.66467
6.78349
6.73775
6.62303
6.49037
6.3372
6.12979
5.81526
5.365
535.074
529.552
5.11125
5.34238
5.48115
5.60509
5.74507
5.85011
5.89632
5.89189
5.87599
5.89396
5.95389
6.03983
6.12193
6.1817
6.22054
6.24461
6.25551
6.24491
6.18969
6.05229
5.81546
5.53938
5.35924
5.40295
5.68797
6.09672
6.45242
6.59822
6.5653
6.44787
6.26412
5.97638
5.53215
534.829
529.414
5.02816
5.31698
5.49031
5.62021
5.75038
5.8615
5.92432
5.92935
5.88601
5.82939
5.82272
5.88476
5.99015
6.09286
6.16337
6.20333
6.22346
6.22901
6.22376
6.21112
6.17988
6.09517
5.91838
5.65846
5.41541
5.36301
5.58478
5.97792
6.28444
6.38196
6.33433
6.14621
5.75178
534.727
529.299
4.94561
5.26303
5.47349
5.61582
5.73553
5.84252
5.91635
5.93943
5.90126
5.81637
5.75307
5.78031
5.87942
6.00098
6.10208
6.16731
6.20593
6.22673
6.23107
6.21799
6.19044
6.15803
6.12635
6.07368
5.94402
5.7107
5.48468
5.48043
5.77994
6.11146
6.26162
6.22631
5.94759
534.799
529.227
4.9063
5.2365
5.46113
5.60991
5.72568
5.82428
5.89027
5.89505
5.82441
5.71996
5.67479
5.73477
5.8586
5.99118
6.0948
6.1591
6.1943
6.20972
6.20857
6.1933
6.16869
6.14278
6.12563
6.12271
6.12268
6.07762
5.92674
5.69025
5.62692
5.86998
6.13057
6.21973
6.08306
534.876
529.201
4.92491
5.26013
5.47289
5.60589
5.69967
5.76145
5.7659
5.703
5.619
5.59481
5.67197
5.81169
5.95776
6.0727
6.14281
6.17628
6.18543
6.17588
6.1502
6.11323
6.07356
6.04542
6.04608
6.08371
6.15318
6.22261
6.22245
6.08035
5.8687
5.85938
6.05081
6.18718
6.18931
535.082
529.219
4.98086
5.29949
5.46368
5.54919
5.59038
5.58228
5.54039
5.52091
5.58213
5.72148
5.88393
6.02114
6.11112
6.15345
6.1599
6.14378
6.11121
6.06193
5.99885
5.93495
5.89054
5.88506
5.94563
6.08462
6.26096
6.40557
6.45197
6.34544
6.14161
6.06179
6.1639
6.27301
6.30188
535.42
529.27
5.03865
5.31534
5.42444
5.46626
5.47364
5.48403
5.54868
5.69319
5.86427
6.00432
6.08989
6.12573
6.12544
6.1002
6.05923
6.00504
5.93128
5.83546
5.74054
5.70344
5.78007
5.96476
6.18368
6.3757
6.51633
6.58965
6.58234
6.49576
6.38698
6.34773
6.36579
6.36072
6.20353
535.664
529.359
5.11765
5.34354
5.43623
5.48555
5.54846
5.66379
5.82583
5.96544
6.04643
6.08051
6.08738
6.07486
6.04293
5.99223
5.92437
5.82857
5.69671
5.59876
5.64942
5.85377
6.09819
6.30378
6.47853
6.62529
6.7158
6.73369
6.69231
6.62291
6.55267
6.49305
6.4105
6.23243
5.858
535.789
529.473
5.19713
5.39977
5.50777
5.61291
5.74047
5.87436
5.97866
6.03104
6.05213
6.06049
6.05724
6.03573
5.99227
5.92819
5.83938
5.71545
5.58407
5.54862
5.70923
6.038
6.34345
6.50678
6.57885
6.64517
6.72855
6.77949
6.76721
6.70625
6.61676
6.49419
6.29899
5.97518
5.5042
535.8
529.588
5.2732
5.47926
5.61398
5.75832
5.88694
5.97262
6.01332
6.02618
6.03034
6.03598
6.0391
6.02992
6.00106
5.94912
5.87003
5.75153
5.59393
5.46592
5.4944
5.75784
6.17051
6.53449
6.72744
6.76355
6.72309
6.67789
6.64626
6.60039
6.5179
6.37873
6.14321
5.77951
5.31322
535.636
529.628
5.2882
5.51519
5.67414
5.83509
5.96837
6.03681
6.04144
6.0174
5.9973
5.99388
6.00458
6.01689
6.01922
6.00578
5.97194
5.90879
5.79822
5.62736
5.44488
5.36479
5.48435
5.79727
6.19486
6.55016
6.76359
6.79888
6.71948
6.60444
6.47807
6.32203
6.09355
5.75225
5.31249
535.332
529.582
5.2603
5.54926
5.72095
5.87135
6.02127
6.11226
6.12532
6.07523
6.00193
5.9517
5.94153
5.95877
5.98025
5.99263
5.99528
5.9885
5.96622
5.91271
5.80171
5.62316
5.42629
5.30808
5.35675
5.59019
5.9444
6.31027
6.55505
6.61021
6.54503
6.4144
6.21196
5.9023
5.46894
535.041
529.483
5.18168
5.53259
5.72758
5.87255
6.01703
6.13119
6.18233
6.16368
6.08814
5.98739
5.91139
5.89277
5.91726
5.94885
5.96614
5.97052
5.96737
5.95865
5.94164
5.90391
5.82062
5.6711
5.4716
5.29737
5.25868
5.41914
5.7497
6.11175
6.31786
6.35374
6.27223
6.05293
5.65576
534.916
529.395
5.11315
5.49903
5.73995
5.89393
6.02137
6.13394
6.2063
6.22125
6.17467
6.07344
5.9474
5.86256
5.85628
5.89257
5.92881
5.94817
5.9541
5.95084
5.93999
5.92328
5.90313
5.87508
5.81662
5.69577
5.50675
5.32258
5.2701
5.45832
5.81344
6.07974
6.16992
6.09254
5.78954
534.891
529.328
5.05865
5.45147
5.7152
5.8799
6.00307
6.11005
6.19074
6.22608
6.19896
6.09901
5.95241
5.8375
5.81881
5.85486
5.89657
5.92133
5.93023
5.92909
5.92062
5.90618
5.88822
5.87148
5.86052
5.84838
5.8065
5.69478
5.51648
5.3729
5.4649
5.76673
5.99189
6.04251
5.86547
534.825
529.302
5.07635
5.47445
5.73716
5.90101
6.01949
6.11592
6.18408
6.20036
6.13778
6.00268
5.85879
5.78723
5.80251
5.84971
5.88751
5.90386
5.90476