/*--------------------------------*- C++ -*----------------------------------*\
| =========                 |                                                 |
| \\      /  F ield         | OpenFOAM: The Open Source CFD Toolbox           |
|  \\    /   O peration     | Version:  v2006                                 |
|   \\  /    A nd           | Website:  www.openfoam.com                      |
|    \\/     M anipulation  |                                                 |
\*---------------------------------------------------------------------------*/
FoamFile
{
    version     2.0;
    format      ascii;
    class       volScalarField;
    location    "11";
    object      T;
}
// * * * * * * * * * * * * * * * * * * * * * * * * * * * * * * * * * * * * * //

dimensions      [0 0 0 1 0 0 0];


internalField   nonuniform List<scalar> 
78750
(
296.47
294.772
295.099
294.982
294.966
294.95
294.939
294.931
294.924
294.919
294.914
294.909
294.905
294.902
294.898
294.895
294.892
294.89
294.887
294.884
294.882
294.88
294.877
294.874
294.871
294.867
294.863
294.858
294.852
294.844
294.835
294.847
294.983
295.472
296.45
298.568
296.595
295.701
295.336
295.158
295.068
295.02
294.99
294.969
294.953
294.941
294.931
294.924
294.919
294.915
294.913
294.911
294.91
294.91
294.91
294.911
294.911
294.911
294.911
294.909
294.906
294.902
294.896
294.889
294.886
294.899
294.964
295.159
295.62
296.522
298.794
296.933
295.827
295.258
295.018
294.929
294.892
294.87
294.854
294.842
294.832
294.825
294.819
294.817
294.816
294.818
294.822
294.827
294.834
294.842
294.85
294.86
294.871
294.883
294.896
294.912
294.933
294.959
294.997
295.055
295.152
295.319
295.608
296.131
297.057
298.884
297.25
296.269
295.656
295.3
295.112
295.014
294.955
294.914
294.881
294.851
294.823
294.799
294.782
294.772
294.768
294.768
294.773
294.78
294.79
294.8
294.812
294.824
294.838
294.853
294.871
294.893
294.925
294.973
295.048
295.171
295.368
295.674
296.192
297.121
299.162
297.795
296.932
296.34
295.904
295.595
295.37
295.195
295.048
294.919
294.808
294.724
294.669
294.641
294.632
294.633
294.642
294.656
294.676
294.702
294.732
294.767
294.804
294.843
294.883
294.926
294.976
295.038
295.12
295.233
295.396
295.629
295.965
296.515
297.464
299.221
297.922
297.103
296.509
296.014
295.635
295.352
295.134
294.957
294.817
294.721
294.674
294.666
294.679
294.697
294.707
294.707
294.695
294.676
294.655
294.642
294.645
294.67
294.717
294.781
294.855
294.938
295.034
295.154
295.308
295.511
295.778
296.131
296.686
297.643
299.298
298.108
297.351
296.785
296.278
295.845
295.467
295.147
294.931
294.853
294.883
294.966
295.058
295.133
295.182
295.204
295.202
295.177
295.129
295.06
294.974
294.882
294.8
294.748
294.747
294.803
294.906
295.037
295.187
295.364
295.581
295.854
296.209
296.764
297.723
299.284
298.071
297.273
296.646
296.03
295.478
295.098
294.956
295
295.121
295.236
295.314
295.357
295.377
295.385
295.387
295.385
295.379
295.366
295.341
295.299
295.232
295.141
295.03
294.92
294.839
294.821
294.887
295.039
295.256
295.53
295.87
296.284
296.883
297.87
299.258
297.967
297.052
296.307
295.648
295.214
295.065
295.108
295.187
295.229
295.24
295.24
295.24
295.242
295.247
295.254
295.262
295.272
295.282
295.292
295.3
295.302
295.291
295.259
295.199
295.118
295.04
295.009
295.077
295.285
295.615
296.001
296.438
297.057
298.037
299.305
298.033
297.102
296.334
295.664
295.27
295.15
295.173
295.226
295.277
295.322
295.359
295.387
295.408
295.42
295.426
295.427
295.421
295.412
295.4
295.386
295.372
295.36
295.349
295.335
295.31
295.264
295.19
295.111
295.085
295.204
295.535
296.055
296.78
297.804
299.373
298.183
297.303
296.577
295.927
295.527
295.382
295.373
295.403
295.433
295.452
295.463
295.468
295.469
295.47
295.469
295.468
295.466
295.464
295.461
295.455
295.445
295.431
295.412
295.387
295.358
295.323
295.278
295.212
295.13
295.097
295.263
295.739
296.519
297.593
299.444
298.379
297.564
296.892
296.293
295.883
295.658
295.54
295.479
295.451
295.442
295.441
295.442
295.443
295.444
295.444
295.444
295.443
295.442
295.44
295.438
295.436
295.432
295.426
295.417
295.402
295.379
295.343
295.289
295.214
295.152
295.24
295.664
296.458
297.558
299.469
298.483
297.736
297.126
296.561
296.105
295.792
295.619
295.548
295.533
295.537
295.544
295.548
295.55
295.55
295.549
295.546
295.543
295.54
295.535
295.528
295.52
295.509
295.495
295.476
295.451
295.419
295.375
295.321
295.277
295.309
295.527
296.018
296.803
297.898
299.438
298.424
297.662
296.998
296.35
295.876
295.638
295.567
295.562
295.566
295.563
295.554
295.542
295.53
295.52
295.513
295.508
295.506
295.505
295.506
295.507
295.509
295.51
295.511
295.509
295.505
295.5
295.497
295.501
295.536
295.664
295.971
296.48
297.226
298.293
299.447
298.427
297.496
296.631
295.98
295.681
295.615
295.622
295.631
295.628
295.616
295.601
295.588
295.577
295.569
295.562
295.557
295.554
295.551
295.55
295.548
295.547
295.546
295.543
295.541
295.541
295.552
295.586
295.658
295.784
295.992
296.333
296.831
297.544
298.575
299.139
297.782
296.757
296.049
295.766
295.73
295.754
295.768
295.761
295.738
295.704
295.669
295.638
295.612
295.594
295.581
295.572
295.568
295.567
295.57
295.574
295.581
295.588
295.594
295.598
295.597
295.598
295.616
295.678
295.821
296.075
296.46
296.986
297.706
298.713
299.063
297.505
296.359
295.762
295.7
295.791
295.855
295.879
295.876
295.848
295.794
295.73
295.673
295.63
295.6
295.58
295.566
295.559
295.555
295.556
295.561
295.569
295.582
295.597
295.612
295.624
295.631
295.635
295.658
295.743
295.952
296.342
296.92
297.688
298.695
299.375
298.1
297.162
296.534
296.162
296.017
296.007
296.069
296.142
296.153
296.069
295.931
295.803
295.713
295.657
295.623
295.603
295.591
295.586
295.586
295.591
295.599
295.613
295.631
295.653
295.675
295.691
295.699
295.704
295.731
295.839
296.123
296.652
297.353
298.276
299.557
298.643
297.876
297.306
296.896
296.648
296.541
296.506
296.454
296.317
296.11
295.905
295.751
295.657
295.606
295.582
295.571
295.568
295.569
295.573
295.582
295.596
295.616
295.643
295.678
295.714
295.744
295.763
295.776
295.799
295.879
296.097
296.538
297.167
298.057
299.582
298.775
298.119
297.662
297.333
297.078
296.848
296.575
296.253
295.945
295.729
295.625
295.594
295.594
295.6
295.605
295.607
295.607
295.609
295.613
295.622
295.637
295.662
295.699
295.746
295.797
295.84
295.867
295.888
295.928
296.032
296.26
296.658
297.265
298.201
299.587
298.813
298.207
297.749
297.337
296.909
296.48
296.11
295.866
295.756
295.725
295.716
295.701
295.677
295.651
295.63
295.615
295.606
295.603
295.607
295.616
295.634
295.664
295.71
295.774
295.85
295.926
295.99
296.052
296.142
296.3
296.568
296.956
297.547
298.531
299.577
298.779
298.13
297.563
296.998
296.495
296.128
295.927
295.838
295.793
295.754
295.717
295.684
295.661
295.645
295.635
295.63
295.627
295.628
295.631
295.64
295.655
295.68
295.72
295.783
295.871
295.977
296.088
296.199
296.334
296.535
296.839
297.249
297.865
298.89
299.574
298.759
298.066
297.43
296.832
296.39
296.131
295.999
295.926
295.872
295.824
295.779
295.739
295.705
295.679
295.659
295.646
295.638
295.635
295.637
295.644
295.658
295.68
295.715
295.769
295.852
295.969
296.117
296.283
296.474
296.723
297.065
297.506
298.159
299.211
299.554
298.709
298.001
297.368
296.81
296.435
296.217
296.091
296.004
295.931
295.864
295.803
295.753
295.715
295.687
295.669
295.658
295.652
295.65
295.654
295.662
295.676
295.697
295.728
295.775
295.846
295.952
296.103
296.298
296.534
296.828
297.217
297.705
298.402
299.481
299.532
298.659
297.985
297.411
296.906
296.561
296.345
296.201
296.091
295.997
295.912
295.839
295.781
295.736
295.705
295.684
295.67
295.663
295.661
295.664
295.673
295.687
295.71
295.743
295.789
295.856
295.957
296.108
296.32
296.594
296.938
297.381
297.931
298.685
299.783
299.51
298.617
298.001
297.499
297.037
296.701
296.469
296.298
296.16
296.041
295.938
295.855
295.791
295.746
295.714
295.693
295.68
295.673
295.672
295.677
295.687
295.703
295.727
295.761
295.808
295.873
295.969
296.114
296.333
296.641
297.042
297.548
298.159
298.951
300.029
299.5
298.604
298.035
297.589
297.158
296.82
296.564
296.363
296.196
296.056
295.944
295.86
295.798
295.754
295.723
295.702
295.69
295.683
295.683
295.688
295.699
295.718
295.745
295.783
295.834
295.901
295.994
296.13
296.34
296.652
297.083
297.632
298.273
299.057
300.083
299.502
298.614
298.066
297.646
297.234
296.887
296.608
296.383
296.199
296.054
295.945
295.866
295.807
295.764
295.733
295.712
295.699
295.693
295.692
295.698
295.711
295.731
295.761
295.802
295.857
295.927
296.019
296.147
296.335
296.617
297.024
297.561
298.186
298.937
299.923
299.509
298.634
298.09
297.678
297.273
296.914
296.617
296.376
296.189
296.05
295.949
295.875
295.819
295.776
295.743
295.721
295.707
295.7
295.7
295.707
295.72
295.743
295.776
295.822
295.882
295.959
296.057
296.185
296.362
296.615
296.977
297.465
298.043
298.754
299.725
299.518
298.652
298.105
297.69
297.281
296.911
296.605
296.366
296.189
296.063
295.97
295.898
295.84
295.793
295.757
295.732
295.716
295.708
295.708
295.714
295.728
295.751
295.785
295.834
295.899
295.982
296.087
296.221
296.398
296.639
296.972
297.418
297.953
298.632
299.597
299.53
298.675
298.122
297.703
297.292
296.918
296.614
296.384
296.218
296.097
296.005
295.929
295.865
295.812
295.771
295.742
295.724
295.714
295.712
295.718
295.732
295.755
295.792
295.843
295.912
296.001
296.114
296.257
296.443
296.687
297.013
297.44
297.948
298.602
299.563
299.545
298.705
298.147
297.726
297.318
296.947
296.651
296.431
296.273
296.154
296.058
295.975
295.902
295.84
295.791
295.756
295.734
295.721
295.717
295.721
295.733
295.756
295.791
295.843
295.913
296.004
296.121
296.272
296.467
296.721
297.053
297.477
297.974
298.616
299.574
299.567
298.755
298.194
297.778
297.386
297.025
296.737
296.522
296.363
296.238
296.131
296.034
295.947
295.873
295.814
295.771
295.743
295.727
295.72
295.723
295.733
295.755
295.789
295.839
295.909
296
296.118
296.273
296.475
296.739
297.08
297.51
298.007
298.644
299.6
299.595
298.822
298.26
297.856
297.489
297.141
296.858
296.641
296.475
296.34
296.219
296.107
296.003
295.913
295.842
295.79
295.755
295.735
295.725
295.725
295.733
295.753
295.785
295.833
295.9
295.989
296.104
296.257
296.46
296.729
297.079
297.52
298.023
298.663
299.621
299.627
298.903
298.346
297.958
297.622
297.293
297.014
296.792
296.615
296.463
296.323
296.189
296.065
295.957
295.871
295.808
295.766
295.741
295.729
295.726
295.734
295.751
295.783
295.83
295.895
295.98
296.091
296.238
296.437
296.706
297.063
297.514
298.027
298.674
299.639
299.658
298.985
298.442
298.07
297.761
297.454
297.179
296.95
296.758
296.587
296.425
296.267
296.121
295.995
295.896
295.824
295.776
295.747
295.733
295.729
295.735
295.753
295.783
295.83
295.895
295.979
296.085
296.225
296.415
296.678
297.035
297.496
298.019
298.676
299.652
299.685
299.062
298.54
298.181
297.892
297.606
297.338
297.102
296.895
296.702
296.513
296.33
296.161
296.019
295.91
295.832
295.78
295.75
295.735
295.731
295.738
295.756
295.788
295.837
295.904
295.988
296.094
296.229
296.41
296.665
297.02
297.485
298.014
298.68
299.674
299.706
299.123
298.624
298.275
298
297.731
297.468
297.226
297.001
296.782
296.564
296.355
296.17
296.02
295.908
295.83
295.78
295.751
295.737
295.734
295.743
295.763
295.798
295.851
295.923
296.012
296.119
296.252
296.427
296.674
297.023
297.49
298.021
298.694
299.708
299.72
299.166
298.687
298.347
298.081
297.823
297.563
297.311
297.064
296.815
296.567
296.339
296.147
295.999
295.892
295.819
295.774
295.748
295.737
295.738
295.749
295.774
295.815
295.875
295.955
296.051
296.164
296.298
296.473
296.716
297.062
297.529
298.055
298.729
299.768
299.731
299.199
298.735
298.401
298.14
297.885
297.619
297.346
297.067
296.783
296.512
296.279
296.095
295.96
295.865
295.803
295.765
295.746
295.739
295.744
295.76
295.791
295.84
295.911
296.002
296.108
296.229
296.369
296.546
296.789
297.136
297.603
298.12
298.791
299.856
299.741
299.229
298.78
298.45
298.187
297.92
297.628
297.319
296.998
296.685
296.411
296.193
296.031
295.916
295.838
295.787
295.758
295.744
295.743
295.752
295.775
295.814
295.876
295.961
296.066
296.186
296.317
296.465
296.65
296.899
297.25
297.716
298.223
298.893
299.984
299.746
299.249
298.814
298.487
298.207
297.904
297.565
297.207
296.853
296.539
296.288
296.102
295.969
295.876
295.813
295.774
295.752
295.745
295.749
295.765
295.796
295.847
295.925
296.028
296.15
296.284
296.427
296.587
296.782
297.041
297.397
297.857
298.358
299.038
300.152
299.74
299.242
298.81
298.476
298.165
297.805
297.412
297.02
296.669
296.387
296.178
296.029
295.923
295.847
295.797
295.766
295.751
295.749
295.758
295.781
295.822
295.888
295.985
296.109
296.251
296.402
296.56
296.733
296.942
297.214
297.575
298.02
298.522
299.225
300.353
299.72
299.194
298.749
298.39
298.033
297.618
297.195
296.811
296.499
296.266
296.1
295.98
295.892
295.828
295.786
295.761
295.751
295.754
295.769
295.799
295.852
295.935
296.054
296.201
296.364
296.534
296.708
296.897
297.122
297.407
297.771
298.198
298.701
299.436
300.567
299.689
299.112
298.642
298.249
297.846
297.403
296.988
296.643
296.383
296.195
296.058
295.955
295.877
295.82
295.782
295.761
295.754
295.76
295.779
295.816
295.879
295.979
296.118
296.289
296.477
296.669
296.863
297.071
297.313
297.61
297.973
298.383
298.886
299.649
300.775
299.653
299.014
298.523
298.108
297.672
297.229
296.844
296.545
296.326
296.166
296.045
295.95
295.875
295.819
295.782
295.762
295.757
295.764
295.785
295.826
295.896
296.006
296.162
296.355
296.57
296.789
297.007
297.236
297.495
297.802
298.162
298.56
299.064
299.845
300.96
299.623
298.928
298.427
298.007
297.561
297.132
296.78
296.515
296.321
296.175
296.058
295.963
295.885
295.827
295.788
295.766
295.759
295.765
295.786
295.825
295.895
296.007
296.169
296.378
296.62
296.871
297.121
297.374
297.651
297.966
298.324
298.715
299.22
300.008
301.11
299.606
298.876
298.37
297.956
297.52
297.112
296.785
296.54
296.356
296.212
296.093
295.991
295.907
295.843
295.798
295.773
295.762
295.765
295.781
295.816
295.878
295.979
296.133
296.343
296.602
296.887
297.175
297.461
297.759
298.086
298.445
298.834
299.34
300.127
301.214
299.603
298.864
298.354
297.953
297.543
297.157
296.845
296.607
296.424
296.275
296.147
296.035
295.941
295.866
295.814
295.783
295.768
295.766
295.777
295.805
295.855
295.94
296.072
296.263
296.516
296.82
297.147
297.475
297.806
298.153
298.52
298.911
299.417
300.2
301.276
299.611
298.881
298.368
297.985
297.611
297.246
296.943
296.704
296.514
296.354
296.213
296.088
295.98
295.894
295.832
295.794
295.774
295.769
295.776
295.797
295.838
295.908
296.016
296.176
296.398
296.689
297.034
297.404
297.778
298.158
298.546
298.946
299.453
300.232
301.302
299.624
298.913
298.399
298.035
297.698
297.355
297.057
296.813
296.611
296.436
296.279
296.137
296.016
295.919
295.85
295.805
295.782
295.773
295.777
295.795
295.831
295.892
295.985
296.12
296.307
296.56
296.887
297.271
297.683
298.104
298.528
298.947
299.462
300.239
301.306
299.635
298.946
298.435
298.088
297.779
297.456
297.162
296.911
296.694
296.501
296.324
296.168
296.037
295.934
295.86
295.812
295.786
295.777
295.78
295.797
295.832
295.891
295.98
296.104
296.27
296.489
296.779
297.143
297.566
298.02
298.483
298.931
299.458
300.237
301.302
299.643
298.97
298.465
298.129
297.838
297.529
297.236
296.975
296.74
296.526
296.334
296.169
296.035
295.933
295.86
295.813
295.788
295.78
295.785
295.804
295.841
295.903
295.997
296.126
296.289
296.492
296.751
297.084
297.492
297.955
298.446
298.918
299.46
300.243
301.302
299.646
298.981
298.482
298.152
297.866
297.561
297.262
296.985
296.732
296.502
296.304
296.142
296.016
295.922
295.854
295.811
295.788
295.782
295.79
295.813
295.856
295.927
296.034
296.178
296.353
296.559
296.807
297.117
297.501
297.955
298.452
298.934
299.483
300.266
301.313
299.643
298.977
298.481
298.15
297.86
297.547
297.233
296.939
296.673
296.442
296.255
296.108
295.997
295.911
295.849
295.808
295.788
295.785
295.796
295.823
295.874
295.958
296.085
296.254
296.454
296.678
296.931
297.232
297.598
298.035
298.519
298.988
299.529
300.305
301.329
299.638
298.964
298.466
298.128
297.825
297.494
297.165
296.862
296.6
296.387
296.221
296.093
295.992
295.911
295.85
295.81
295.789
295.786
295.799
295.829
295.886
295.982
296.129
296.326
296.56
296.814
297.086
297.389
297.745
298.16
298.616
299.057
299.58
300.34
301.339
299.634
298.951
298.446
298.098
297.781
297.436
297.101
296.805
296.562
296.372
296.227
296.111
296.012
295.929
295.863
295.817
295.792
295.786
295.796
295.824
295.879
295.977
296.133
296.351
296.619
296.913
297.217
297.534
297.883
298.277
298.699
299.112
299.615
300.353
301.333
299.637
298.952
298.438
298.083
297.761
297.413
297.085
296.806
296.584
296.414
296.279
296.166
296.064
295.972
295.894
295.836
295.801
295.785
295.787
295.806
295.849
295.931
296.072
296.285
296.569
296.903
297.256
297.607
297.964
298.343
298.739
299.131
299.616
300.335
301.307
299.649
298.975
298.456
298.104
297.792
297.457
297.143
296.88
296.672
296.511
296.379
296.264
296.155
296.05
295.954
295.876
295.823
295.793
295.782
295.787
295.811
295.863
295.963
296.133
296.388
296.729
297.127
297.541
297.944
298.339
298.732
299.115
299.585
300.291
301.265
299.67
299.026
298.508
298.164
297.876
297.569
297.273
297.02
296.818
296.657
296.524
296.406
296.289
296.171
296.053
295.949
295.868
295.817
295.79
295.781
295.786
295.811
295.865
295.969
296.148
296.427
296.809
297.268
297.75
298.215
298.654
299.06
299.533
300.228
301.204
299.697
299.095
298.588
298.252
297.988
297.719
297.45
297.207
297.005
296.84
296.703
296.581
296.459
296.33
296.192
296.056
295.942
295.861
295.814
295.79
295.783
295.79
295.816
295.871
295.972
296.146
296.429
296.838
297.353
297.911
298.452
298.942
299.452
300.132
301.105
299.723
299.168
298.682
298.349
298.102
297.87
297.633
297.407
297.209
297.04
296.897
296.768
296.64
296.501
296.345
296.181
296.031
295.917
295.845
295.807
295.789
295.787
295.801
295.835
295.897
295.999
296.17
296.451
296.882
297.453
298.095
298.723
299.291
299.963
300.949
299.745
299.231
298.773
298.444
298.207
297.999
297.792
297.588
297.398
297.23
297.081
296.944
296.806
296.65
296.47
296.276
296.098
295.96
295.87
295.82
295.797
295.79
295.8
295.827
295.877
295.956
296.074
296.256
296.552
297.019
297.657
298.38
299.032
299.75
300.765
299.758
299.275
298.841
298.521
298.293
298.1
297.913
297.727
297.549
297.383
297.229
297.081
296.922
296.734
296.514
296.291
296.098
295.957
295.868
295.82
295.798
295.794
295.805
295.833
295.884
295.962
296.071
296.218
296.435
296.784
297.325
298.036
298.755
299.545
300.595
299.762
299.293
298.877
298.568
298.349
298.166
297.991
297.816
297.644
297.478
297.316
297.142
296.936
296.69
296.431
296.201
296.026
295.909
295.841
295.808
295.796
295.799
295.818
295.854
295.916
296.006
296.124
296.272
296.468
296.76
297.216
297.867
298.589
299.41
300.49
299.757
299.287
298.879
298.582
298.371
298.193
298.022
297.85
297.677
297.497
297.297
297.058
296.777
296.489
296.24
296.055
295.931
295.856
295.816
295.8
295.8
295.813
295.843
295.895
295.977
296.091
296.234
296.401
296.605
296.887
297.311
297.916
298.584
299.373
300.47
299.746
299.262
298.855
298.567
298.359
298.181
298.006
297.823
297.621
297.386
297.106
296.794
296.492
296.245
296.069
295.952
295.876
295.831
295.808
295.803
295.813
295.837
295.881
295.955
296.069
296.22
296.399
296.597
296.827
297.128
297.555
298.133
298.714
299.424
300.541
299.733
299.23
298.818
298.532
298.322
298.134
297.937
297.713
297.447
297.137
296.807
296.507
296.275
296.113
296
295.917
295.859
295.824
295.809
295.811
295.828
295.862
295.922
296.024
296.175
296.37
296.594
296.835
297.101
297.427
297.855
298.382
298.916
299.606
300.719
299.725
299.204
298.782
298.49
298.269
298.059
297.824
297.546
297.227
296.895
296.599
296.374
296.216
296.097
295.999
295.919
295.862
295.827
295.813
295.816
295.834
295.873
295.943
296.061
296.239
296.475
296.754
297.052
297.365
297.717
298.14
298.615
299.129
299.836
300.927
299.727
299.2
298.765
298.463
298.231
297.999
297.735
297.429
297.105
296.807
296.571
296.401
296.27
296.155
296.048
295.955
295.884
295.84
295.818
295.814
295.827
295.858
295.92
296.028
296.2
296.448
296.769
297.138
297.52
297.916
298.345
298.795
299.297
300.01
301.081
299.744
299.232
298.79
298.478
298.242
298.011
297.747
297.448
297.149
296.888
296.688
296.538
296.411
296.285
296.156
296.035
295.936
295.87
295.832
295.816
295.816
295.834
295.874
295.95
296.077
296.279
296.579
296.981
297.448
297.931
298.413
298.88
299.382
300.085
301.145
299.772
299.3
298.867
298.545
298.31
298.097
297.862
297.597
297.329
297.092
296.906
296.76
296.63
296.491
296.333
296.169
296.025
295.922
295.86
295.829
295.817
295.822
295.847
295.896
295.977
296.103
296.307
296.632
297.097
297.664
298.259
298.823
299.36
300.052
301.116
299.799
299.379
298.974
298.648
298.412
298.215
298.015
297.794
297.564
297.351
297.17
297.022
296.884
296.727
296.532
296.32
296.126
295.981
295.891
295.844
295.823
295.821
295.839
295.881
295.948
296.041
296.167
296.365
296.7
297.22
297.886
298.593
299.213
299.933
301.022
299.816
299.437
299.067
298.752
298.519
298.334
298.157
297.97
297.771
297.578
297.408
297.259
297.1
296.893
296.636
296.372
296.147
295.987
295.891
295.842
295.823
295.824
295.845
295.891
295.962
296.057
296.17
296.309
296.523
296.901
297.503
298.269
298.99
299.789
300.916
299.818
299.455
299.109
298.811
298.588
298.413
298.248
298.078
297.903
297.737
297.576
297.387
297.134
296.821
296.5
296.227
296.029
295.908
295.846
295.821
295.819
295.835
295.873
295.937
296.03
296.144
296.267
296.399
296.569
296.854
297.353
298.081
298.838
299.692
300.861
299.805
299.429
299.087
298.804
298.6
298.439
298.29
298.137
297.969
297.766
297.5
297.162
296.788
296.441
296.169
295.988
295.883
295.833
295.816
295.82
295.84
295.878
295.942
296.042
296.175
296.322
296.464
296.603
296.772
297.038
297.499
298.189
298.893
299.716
300.929
299.785
299.38
299.033
298.767
298.579
298.425
298.263
298.056
297.775
297.417
297.011
296.621
296.306
296.089
295.957
295.882
295.844
295.829
295.832
295.851
295.888
295.952
296.062
296.223
296.413
296.597
296.759
296.914
297.107
297.404
297.872
298.497
299.142
299.95
301.167
299.766
299.33
298.97
298.707
298.51
298.315
298.063
297.722
297.313
296.893
296.536
296.28
296.115
296.006
295.929
295.877
295.848
295.84
295.851
295.881
295.936
296.036
296.2
296.425
296.676
296.907
297.103
297.294
297.532
297.868
298.328
298.851
299.449
300.291
301.467
299.758
299.297
298.912
298.631
298.399
298.134
297.787
297.378
296.974
296.642
296.411
296.252
296.129
296.026
295.944
295.889
295.859
295.85
295.859
295.888
295.944
296.05
296.228
296.487
296.806
297.127
297.401
297.648
297.925
298.276
298.703
299.155
299.715
300.563
301.695
299.766
299.303
298.898
298.599
298.343
298.044
297.672
297.284
296.946
296.695
296.515
296.369
296.235
296.111
296.007
295.931
295.886
295.863
295.859
295.871
295.905
295.973
296.1
296.312
296.632
297.038
297.455
297.822
298.157
298.516
298.915
299.33
299.858
300.682
301.786
299.787
299.354
298.952
298.638
298.385
298.114
297.778
297.437
297.146
296.923
296.749
296.592
296.432
296.269
296.122
296.009
295.935
295.894
295.876
295.873
295.888
295.922
295.983
296.085
296.268
296.583
297.039
297.565
298.071
298.527
298.952
299.357
299.856
300.646
301.745
299.806
299.411
299.038
298.723
298.48
298.251
297.982
297.697
297.44
297.228
297.048
296.872
296.678
296.468
296.268
296.106
295.996
295.932
295.9
295.888
295.896
295.924
295.974
296.039
296.121
296.248
296.494
296.926
297.516
298.153
298.739
299.234
299.757
300.526
301.638
299.812
299.441
299.097
298.801
298.569
298.364
298.144
297.91
297.691
297.496
297.304
297.085
296.832
296.568
296.328
296.14
296.015
295.946
295.912
295.901
295.912
295.944
295.998
296.07
296.151
296.235
296.339
296.539
296.94
297.558
298.276
298.94
299.559
300.352
301.501
299.802
299.425
299.091
298.813
298.599
298.417
298.233
298.041
297.841
297.613
297.339
297.026
296.705
296.419
296.193
296.04
295.953
295.914
295.904
295.916
295.95
296.007
296.085
296.175
296.265
296.349
296.428
296.537
296.762
297.205
297.866
298.618
299.336
300.19
301.401
299.778
299.369
299.03
298.771
298.582
298.414
298.22
297.971
297.659
297.297
296.921
296.574
296.292
296.091
295.969
295.911
295.896
295.907
295.938
295.991
296.072
296.179
296.298
296.412
296.509
296.583
296.645
296.726
296.898
297.261
297.867
298.616
299.349
300.225
301.482
299.741
299.278
298.919
298.669
298.457
298.196
297.843
297.426
296.996
296.608
296.304
296.096
295.974
295.916
295.902
295.915
295.947
295.998
296.078
296.206
296.378
296.564
296.719
296.815
296.859
296.887
296.942
297.069
297.321
297.748
298.333
298.938
299.601
300.534
301.789
299.692
299.146
298.733
298.419
298.081
297.633
297.149
296.712
296.382
296.17
296.049
295.982
295.948
295.937
295.95
295.986
296.049
296.158
296.353
296.634
296.907
297.083
297.161
297.195
297.229
297.291
297.416
297.635
297.966
298.396
298.874
299.373
300.023
300.99
302.196
299.64
298.985
298.51
298.092
297.606
297.1
296.681
296.4
296.232
296.127
296.05
295.994
295.963
295.958
295.98
296.034
296.131
296.31
296.602
296.957
297.275
297.466
297.541
297.589
297.677
297.822
298.017
298.264
298.571
298.929
299.324
299.798
300.466
301.39
302.517
299.622
298.903
298.387
297.919
297.391
296.936
296.62
296.424
296.293
296.19
296.104
296.037
295.992
295.969
295.97
295.996
296.061
296.195
296.448
296.826
297.27
297.666
297.923
298.042
298.111
298.22
298.416
298.689
298.999
299.321
299.675
300.124
300.758
301.602
302.646
299.652
298.959
298.435
297.983
297.511
297.096
296.804
296.611
296.471
296.352
296.242
296.147
296.073
296.024
295.993
295.977
295.975
295.999
296.079
296.27
296.609
297.068
297.571
298.032
298.389
298.628
298.79
298.955
299.175
299.455
299.781
300.192
300.773
301.559
302.556
299.697
299.075
298.546
298.171
297.822
297.446
297.143
296.924
296.76
296.619
296.481
296.344
296.222
296.133
296.079
296.051
296.035
296.026
296.019
296.024
296.074
296.227
296.529
296.977
297.52
298.09
298.61
299.015
299.29
299.51
299.757
300.09
300.591
301.333
302.332
299.738
299.196
298.698
298.362
298.09
297.8
297.522
297.292
297.106
296.946
296.789
296.621
296.448
296.294
296.18
296.113
296.08
296.067
296.07
296.086
296.11
296.134
296.169
296.263
296.483
296.878
297.445
298.117
298.762
299.252
299.593
299.915
300.365
301.081
302.107
299.765
299.287
298.845
298.519
298.279
298.056
297.825
297.608
297.419
297.247
297.069
296.868
296.653
296.452
296.293
296.19
296.134
296.106
296.096
296.1
296.122
296.161
296.213
296.268
296.323
296.413
296.621
297.046
297.714
298.487
299.156
299.657
300.158
300.886
301.93
299.773
299.326
298.923
298.617
298.396
298.206
298.016
297.829
297.645
297.448
297.217
296.956
296.696
296.473
296.307
296.204
296.15
296.127
296.124
296.136
296.165
296.21
296.267
296.331
296.396
296.455
296.525
296.672
297.029
297.687
298.51
299.234
299.864
300.637
301.724
299.763
299.314
298.932
298.651
298.452
298.285
298.113
297.912
297.666
297.376
297.062
296.762
296.512
296.33
296.217
296.161
296.142
296.144
296.163
296.198
296.25
296.318
296.395
296.472
296.541
296.599
296.651
296.724
296.89
297.285
297.969
298.797
299.555
300.404
301.592
299.74
299.265
298.891
298.633
298.439
298.239
297.976
297.647
297.284
296.929
296.626
296.4
296.256
296.179
296.153
296.157
296.178
296.213
296.266
296.343
296.442
296.551
296.656
296.739
296.791
296.815
296.831
296.866
296.99
297.33
297.98
298.801
299.581
300.482
301.76
299.701
299.17
298.771
298.495
298.229
297.873
297.455
297.04
296.691
296.44
296.286
296.207
296.178
296.18
296.202
296.237
296.288
296.367
296.493
296.664
296.843
296.978
297.044
297.053
297.04
297.037
297.077
297.202
297.469
297.935
298.574
299.207
299.907
300.915
302.189
299.639
299.002
298.563
298.198
297.772
297.294
296.868
296.562
296.38
296.286
296.239
296.219
296.218
296.238
296.279
296.344
296.452
296.644
296.906
297.152
297.301
297.358
297.373
297.383
297.408
297.47
297.606
297.853
298.222
298.687
299.183
299.724
300.446
301.435
302.612
299.582
298.831
298.336
297.888
297.362
296.913
296.613
296.446
296.355
296.3
296.263
296.245
296.249
296.276
296.33
296.422
296.587
296.854
297.183
297.485
297.671
297.733
297.747
297.792
297.9
298.069
298.289
298.562
298.894
299.267
299.681
300.201
300.906
301.788
302.844
299.573
298.772
298.241
297.766
297.243
296.858
296.628
296.499
296.417
296.357
296.31
296.28
296.267
296.275
296.306
296.37
296.494
296.721
297.059
297.458
297.827
298.084
298.213
298.271
298.34
298.482
298.714
299.008
299.324
299.648
300.014
300.488
301.115
301.887
302.849
299.614
298.85
298.317
297.865
297.393
297.021
296.785
296.642
296.546
296.469
296.403
296.351
296.316
296.297
296.291
296.301
296.333
296.415
296.593
296.894
297.294
297.734
298.145
298.478
298.719
298.889
299.041
299.225
299.461
299.738
300.062
300.479
301.042
301.754
302.68
299.669
298.99
298.449
298.065
297.707
297.347
297.075
296.892
296.763
296.66
296.566
296.481
296.413
296.371
296.349
296.34
296.337
296.34
296.36
296.426
296.585
296.865
297.256
297.722
298.208
298.664
299.045
299.327
299.532
299.73
299.975
300.314
300.805
301.494
302.436
299.717
299.128
298.6
298.264
297.991
297.694
297.421
297.205
297.042
296.912
296.795
296.68
296.57
296.479
296.422
296.395
296.387
296.388
296.396
296.409
296.429
296.478
296.594
296.822
297.185
297.672
298.234
298.796
299.265
299.592
299.847
300.141
300.58
301.26
302.232
299.752
299.238
298.759
298.424
298.187
297.964
297.731
297.517
297.337
297.185
297.047
296.908
296.763
296.628
296.524
296.463
296.435
296.426
296.428
296.439
296.46
296.488
296.523
296.575
296.679
296.893
297.27
297.822
298.479
299.102
299.575
299.953
300.398
301.085
302.071
299.769
299.305
298.874
298.55
298.327
298.138
297.945
297.753
297.576
297.417
297.261
297.091
296.908
296.737
296.605
296.523
296.483
296.469
296.469
296.478
296.497
296.525
296.562
296.604
296.652
296.722
296.859
297.147
297.658
298.359
299.079
299.646
300.176
300.889
301.888
299.768
299.318
298.917
298.615
298.406
298.236
298.071
297.906
297.739
297.562
297.362
297.141
296.923
296.741
296.614
296.543
296.513
296.507
296.512
296.527
296.551
296.584
296.626