/*--------------------------------*- C++ -*----------------------------------*\
| =========                 |                                                 |
| \\      /  F ield         | OpenFOAM: The Open Source CFD Toolbox           |
|  \\    /   O peration     | Version:  v2006                                 |
|   \\  /    A nd           | Website:  www.openfoam.com                      |
|    \\/     M anipulation  |                                                 |
\*---------------------------------------------------------------------------*/
FoamFile
{
    version     2.0;
    format      ascii;
    class       volVectorField;
    location    "11";
    object      U;
}
// * * * * * * * * * * * * * * * * * * * * * * * * * * * * * * * * * * * * * //

dimensions      [0 1 -1 0 0 0 0];


internalField   nonuniform List<vector> 
78750
(
(-0.0698111 -0.0365349 -0.0328709)
(-0.0511008 -0.0381753 -0.037622)
(-0.0435706 -0.0349103 -0.0350415)
(-0.0389964 -0.0324795 -0.0344579)
(-0.032747 -0.029761 -0.033389)
(-0.027081 -0.0274988 -0.0327616)
(-0.0214627 -0.0253876 -0.0322897)
(-0.0161745 -0.0233536 -0.0319527)
(-0.0112115 -0.0213597 -0.0317244)
(-0.00658178 -0.0193898 -0.0315717)
(-0.00227479 -0.0174322 -0.0314494)
(0.00172231 -0.0154839 -0.0313187)
(0.00539216 -0.0135718 -0.0311825)
(0.00873556 -0.0117289 -0.0310528)
(0.0117682 -0.00996727 -0.0309241)
(0.0145088 -0.00828803 -0.030784)
(0.016971 -0.00668642 -0.0306189)
(0.0191649 -0.00515327 -0.030415)
(0.0210973 -0.00367644 -0.0301592)
(0.0227727 -0.002241 -0.0298395)
(0.0241942 -0.000827651 -0.0294459)
(0.0253514 0.000586178 -0.0289739)
(0.0262458 0.00201306 -0.0283862)
(0.0268064 0.00346811 -0.0276759)
(0.0270143 0.00497152 -0.0268287)
(0.0268544 0.0065419 -0.0258272)
(0.026299 0.00819197 -0.02465)
(0.025307 0.00992937 -0.023268)
(0.0238255 0.0117496 -0.0216421)
(0.0217874 0.0136296 -0.0197202)
(0.0191175 0.0155247 -0.0174457)
(0.015743 0.017443 -0.0147095)
(0.0114425 0.0194596 -0.0111586)
(0.00624175 0.0201228 -0.00637532)
(0.00141822 0.013255 -0.00102927)
(-0.00249302 0.00980895 -0.0160891)
(-0.0091169 -0.0292938 -0.0472665)
(-0.0154076 -0.0440672 -0.0583816)
(-0.0192885 -0.0453334 -0.0604349)
(-0.0219491 -0.0413156 -0.0592011)
(-0.0235909 -0.0372613 -0.0571318)
(-0.0245081 -0.0346228 -0.0552143)
(-0.0248171 -0.03248 -0.0534894)
(-0.0245778 -0.0303753 -0.0519928)
(-0.0238847 -0.0281597 -0.0507629)
(-0.0228623 -0.0258653 -0.0498001)
(-0.0216713 -0.0235683 -0.0490485)
(-0.0203694 -0.0213024 -0.048444)
(-0.0189698 -0.019069 -0.0479353)
(-0.0174835 -0.0168652 -0.0474854)
(-0.0159237 -0.0146853 -0.0470669)
(-0.0143034 -0.0125165 -0.046657)
(-0.0126363 -0.0103401 -0.0462365)
(-0.0109341 -0.00813184 -0.0457883)
(-0.00920777 -0.00586491 -0.0452967)
(-0.0074768 -0.00350844 -0.0447447)
(-0.00578115 -0.00102571 -0.0441109)
(-0.00410648 0.0016213 -0.0433525)
(-0.00245194 0.00444753 -0.042451)
(-0.000855081 0.00746099 -0.0413746)
(0.000636084 0.0106765 -0.0400737)
(0.0019781 0.0141307 -0.0384805)
(0.00312971 0.0178851 -0.0365085)
(0.00403554 0.0220202 -0.0340369)
(0.00462832 0.0266225 -0.0308908)
(0.00481893 0.0317436 -0.0268335)
(0.00447495 0.0372323 -0.0216462)
(0.00350598 0.0421191 -0.0153833)
(0.0019867 0.0429871 -0.00840394)
(0.000180796 0.0283231 -0.00149317)
(9.6819e-05 0.049627 -0.00899716)
(-0.00318165 0.0656533 -0.0258841)
(-0.00788008 0.0621427 -0.0317835)
(-0.0121627 0.0531277 -0.0313707)
(-0.0154397 0.0426785 -0.0289945)
(-0.017638 0.0321386 -0.0270781)
(-0.0189553 0.0221512 -0.0260777)
(-0.0195665 0.0131486 -0.0257883)
(-0.019659 0.00541014 -0.026029)
(-0.0193559 2.11071e-05 -0.0264311)
(-0.018654 -0.00287247 -0.0267668)
(-0.017753 -0.00420599 -0.0271946)
(-0.016845 -0.00484509 -0.0278067)
(-0.0159252 -0.00509123 -0.0285764)
(-0.0149876 -0.00503099 -0.0294556)
(-0.0140323 -0.00467767 -0.0303962)
(-0.0130634 -0.00402156 -0.0313504)
(-0.012087 -0.00304841 -0.0322709)
(-0.0111132 -0.00174597 -0.0331128)
(-0.0101625 -0.00010533 -0.0338349)
(-0.00925577 0.00187079 -0.0344001)
(-0.0083839 0.0041784 -0.0347768)
(-0.00753194 0.00683681 -0.0349291)
(-0.00669018 0.00990709 -0.0348304)
(-0.00582242 0.0135142 -0.0344612)
(-0.00494247 0.0176292 -0.0338062)
(-0.00408737 0.0220921 -0.032855)
(-0.00325585 0.0268627 -0.0315481)
(-0.0024647 0.0319518 -0.0297736)
(-0.00174654 0.0373287 -0.0273717)
(-0.00113336 0.0428197 -0.0241579)
(-0.000650323 0.0478929 -0.0199927)
(-0.00031786 0.0512419 -0.0148758)
(-0.000131409 0.0492218 -0.00862803)
(-0.000130298 0.0296859 -0.00170495)
(-8.84448e-05 0.0449801 -0.00509945)
(-0.000533076 0.0580763 -0.0162725)
(-0.000841868 0.0519496 -0.021132)
(-0.000901328 0.0407222 -0.0221456)
(-0.000973065 0.0278454 -0.0210864)
(-0.00114938 0.0152155 -0.0193612)
(-0.00144691 0.00369988 -0.0176591)
(-0.00189877 -0.00637489 -0.0162092)
(-0.0026426 -0.0146877 -0.0150349)
(-0.00358723 -0.0202366 -0.014009)
(-0.00446832 -0.0231807 -0.0128671)
(-0.00521147 -0.0243007 -0.0116649)
(-0.00568094 -0.024412 -0.0106756)
(-0.00581126 -0.0239674 -0.0100759)
(-0.00563337 -0.0231941 -0.0099714)
(-0.00523199 -0.0221457 -0.010384)
(-0.00470573 -0.0208164 -0.011254)
(-0.00413937 -0.0191815 -0.0124743)
(-0.00359183 -0.0171848 -0.0138953)
(-0.00308432 -0.0147181 -0.0153811)
(-0.00262907 -0.0117196 -0.0168444)
(-0.00223302 -0.00825706 -0.0181943)
(-0.0018864 -0.00440915 -0.0193515)
(-0.00160251 -0.000193129 -0.0202693)
(-0.00137325 0.0044327 -0.0209188)
(-0.00116273 0.00951766 -0.0212934)
(-0.000940688 0.0150812 -0.0213737)
(-0.000697571 0.0211194 -0.0211069)
(-0.000440654 0.0275993 -0.0203927)
(-0.000188364 0.0343961 -0.0190849)
(4.93064e-05 0.0411509 -0.0170255)
(0.000250987 0.0470543 -0.0141321)
(0.000364034 0.0507443 -0.0104653)
(0.000347356 0.0491135 -0.00569815)
(0.000110162 0.0295167 -0.000275992)
(0.000556049 0.0447779 -0.00235325)
(0.00151062 0.0661986 -0.0103747)
(0.00201145 0.0651203 -0.0147589)
(0.00227128 0.0583383 -0.0166652)
(0.00217996 0.0492255 -0.0168811)
(0.00168167 0.0397212 -0.015952)
(0.000842424 0.0309873 -0.0143046)
(-0.000331094 0.023459 -0.0121548)
(-0.00185993 0.0170007 -0.00949194)
(-0.00363716 0.0110708 -0.00617945)
(-0.0053631 0.00522007 -0.0021422)
(-0.00661869 -0.000864198 0.00230314)
(-0.00726287 -0.00681021 0.00632513)
(-0.0073534 -0.0118375 0.00915513)
(-0.00701727 -0.0152822 0.0105113)
(-0.00638299 -0.0169128 0.0104784)
(-0.00556047 -0.0168521 0.00916814)
(-0.0046692 -0.015409 0.00666524)
(-0.00383395 -0.0129769 0.00317495)
(-0.00314892 -0.00989434 -0.000938907)
(-0.00267449 -0.00639163 -0.00521339)
(-0.0024477 -0.00259199 -0.00915953)
(-0.00247558 0.00149174 -0.0123909)
(-0.00270582 0.00591474 -0.0147182)
(-0.00297453 0.0107244 -0.0160795)
(-0.00318047 0.015979 -0.0166811)
(-0.00329462 0.0216443 -0.0166976)
(-0.00330386 0.0276538 -0.0162592)
(-0.00318659 0.0339051 -0.0154194)
(-0.00293599 0.0401913 -0.014159)
(-0.00253988 0.0460323 -0.0123764)
(-0.00200151 0.0506489 -0.0100177)
(-0.00139779 0.0529057 -0.0070562)
(-0.000714094 0.049561 -0.00320355)
(-0.000125636 0.0285475 0.000741744)
(-8.93451e-05 0.0397186 -0.000306275)
(-0.000130568 0.0622643 -0.00577813)
(-0.000353276 0.0623805 -0.00879936)
(-0.000685909 0.0564459 -0.00980079)
(-0.00126834 0.0467377 -0.00906969)
(-0.00216068 0.0352287 -0.00692139)
(-0.003304 0.023746 -0.00371734)
(-0.00452246 0.0133837 0.000684815)
(-0.00549317 0.00412282 0.00691623)
(-0.00586406 -0.00500316 0.015209)
(-0.00552757 -0.0148715 0.0245797)
(-0.00469761 -0.0251862 0.0332061)
(-0.00362675 -0.0347359 0.0397871)
(-0.00246725 -0.0424717 0.0441715)
(-0.00128682 -0.0477783 0.0467808)
(-8.81533e-05 -0.050483 0.0481286)
(0.00113216 -0.0506112 0.048507)
(0.00237895 -0.0483003 0.0479125)
(0.0036278 -0.0437797 0.0460495)
(0.00480074 -0.0374752 0.0425336)
(0.00581171 -0.0299383 0.0370519)
(0.00654216 -0.0218485 0.0296206)
(0.00687516 -0.0139431 0.0208751)
(0.00674415 -0.00670271 0.0121244)
(0.00615424 -0.00011167 0.00486181)
(0.00514475 0.00635077 -0.000271124)
(0.00394047 0.0131705 -0.00334239)
(0.00278592 0.0204685 -0.00484932)
(0.0018279 0.0279478 -0.00527957)
(0.0011276 0.035087 -0.00494328)
(0.000696165 0.0412511 -0.00399037)
(0.000507041 0.0457071 -0.00252529)
(0.000456108 0.04773 -0.000657591)
(0.000420371 0.0448934 0.00163405)
(0.000235385 0.0260899 0.00288748)
(-0.000186099 0.0403138 0.00219508)
(-0.00086115 0.0651285 -0.000164428)
(-0.00165434 0.0667433 -0.00218697)
(-0.00270559 0.0618896 -0.00321875)
(-0.00421184 0.053246 -0.00319763)
(-0.00591622 0.0433248 -0.00125076)
(-0.00745914 0.0330926 0.00423081)
(-0.00844929 0.0207093 0.0141209)
(-0.00852234 0.00428588 0.0257521)
(-0.00779457 -0.014733 0.0342285)
(-0.00670928 -0.032847 0.0373359)
(-0.00563895 -0.0477829 0.036148)
(-0.00474516 -0.0588239 0.0328779)
(-0.0040287 -0.0662981 0.0294455)
(-0.00342719 -0.0708467 0.0269771)
(-0.002868 -0.073051 0.0259008)
(-0.00226643 -0.0732483 0.0262826)
(-0.00154857 -0.0715133 0.028029)
(-0.000650956 -0.0677001 0.030905)
(0.000444272 -0.0615387 0.0344062)
(0.00172914 -0.0527813 0.0376525)
(0.00316526 -0.041398 0.0393761)
(0.0046092 -0.0278499 0.0381469)
(0.00584413 -0.0133393 0.0330096)
(0.0066156 0.000355641 0.0244007)
(0.00678477 0.0116088 0.0145282)
(0.0063222 0.0200112 0.00632327)
(0.0053942 0.0263357 0.00153276)
(0.00431889 0.0318824 -0.000235335)
(0.0033191 0.0372671 -0.00019753)
(0.002504 0.0421239 0.000701693)
(0.00186305 0.0457527 0.00197497)
(0.00134473 0.0474868 0.00340862)
(0.000820735 0.0449759 0.00481071)
(0.000234642 0.0269474 0.00423307)
(-0.00051841 0.0441782 0.0029411)
(-0.00271403 0.0716459 0.0019632)
(-0.00495016 0.0743611 0.00108561)
(-0.00718647 0.0704963 0.00223889)
(-0.00959527 0.0617743 0.00725321)
(-0.0114798 0.0465892 0.0174113)
(-0.0122492 0.0235879 0.0291732)
(-0.011705 -0.0041832 0.0349941)
(-0.0104671 -0.0302303 0.0323148)
(-0.00925723 -0.0500694 0.0247307)
(-0.00840768 -0.0629304 0.0167099)
(-0.00788853 -0.0708321 0.0106501)
(-0.00759784 -0.0758263 0.00691599)
(-0.00742827 -0.0791918 0.00493973)
(-0.00730857 -0.0815745 0.00409745)
(-0.00718753 -0.0832545 0.00400542)
(-0.00702507 -0.0843109 0.00451488)
(-0.00678543 -0.0846975 0.00566434)
(-0.00642633 -0.0842567 0.00764099)
(-0.00588744 -0.0826851 0.0107339)
(-0.00508788 -0.0794781 0.0152127)
(-0.0039489 -0.073925 0.0210781)
(-0.00240915 -0.0652362 0.0277357)
(-0.000474952 -0.0528351 0.033823)
(0.00174037 -0.0368415 0.0373906)
(0.00389687 -0.0187903 0.0366673)
(0.00559251 -0.00100756 0.0312746)
(0.0064631 0.0141694 0.0227147)
(0.00625412 0.0251054 0.0144826)
(0.00522437 0.0326736 0.00963279)
(0.00382845 0.0389789 0.00815197)
(0.00244347 0.0441956 0.00846097)
(0.00141651 0.0469298 0.00909648)
(0.000642072 0.0448605 0.00907359)
(0.000115674 0.0267989 0.00576896)
(-0.000339975 0.0522212 0.0044665)
(-0.00271464 0.0856261 0.00672398)
(-0.00547148 0.0879874 0.00815537)
(-0.00839658 0.0790257 0.011714)
(-0.0113977 0.0599914 0.0185217)
(-0.0133194 0.0321935 0.0248842)
(-0.0139305 0.00056296 0.0244401)
(-0.0136964 -0.0270017 0.0170903)
(-0.013317 -0.0454792 0.0101213)
(-0.0129355 -0.0565643 0.00743631)
(-0.0125593 -0.0640367 0.00750274)
(-0.0121533 -0.0697961 0.00847092)
(-0.0116976 -0.0744558 0.00942557)
(-0.0111984 -0.0781275 0.0100139)
(-0.0106727 -0.080817 0.0101651)
(-0.0101438 -0.0825553 0.00991246)
(-0.00963715 -0.0834101 0.00930874)
(-0.00917637 -0.0834726 0.00841511)
(-0.00877954 -0.0828437 0.00733061)
(-0.00845116 -0.0816049 0.00623379)
(-0.0081705 -0.0797588 0.00541822)
(-0.00788022 -0.0771394 0.00531489)
(-0.00748035 -0.0733016 0.00649937)
(-0.00682039 -0.0674197 0.00955564)
(-0.00571162 -0.0583205 0.0145243)
(-0.00402915 -0.0448826 0.0202853)
(-0.00179707 -0.0268786 0.0248243)
(0.000755242 -0.00563491 0.0262628)
(0.00305732 0.0161366 0.023896)
(0.00442894 0.0337661 0.0189211)
(0.00455429 0.0436329 0.0144559)
(0.00379307 0.0470847 0.01237)
(0.00269882 0.0473909 0.0118735)
(0.0014172 0.0437355 0.0112552)
(0.000295556 0.0258978 0.00685705)
(0.000251121 0.0550452 0.00326619)
(-0.000749619 0.0946323 0.00639978)
(-0.00258278 0.099242 0.00861795)
(-0.00498057 0.0900035 0.0121981)
(-0.00796949 0.0677846 0.0178415)
(-0.0103907 0.0357187 0.0215598)
(-0.0119516 0.000324733 0.0202412)
(-0.0126882 -0.0311388 0.0167337)
(-0.0126975 -0.0544366 0.0142383)
(-0.0121134 -0.0701983 0.0123523)
(-0.0111476 -0.0809008 0.0104773)
(-0.00998854 -0.0883142 0.00872876)
(-0.00874327 -0.0934961 0.00726689)
(-0.00747054 -0.097049 0.00617429)
(-0.00619691 -0.0993236 0.00547781)
(-0.00493723 -0.100524 0.00516929)
(-0.00370273 -0.100762 0.00521454)
(-0.00250665 -0.100097 0.0055507)
(-0.00136769 -0.0985597 0.00607705)
(-0.00031151 -0.0961857 0.00664782)
(0.000631783 -0.0930493 0.00708073)
(0.00143464 -0.0892914 0.00719708)
(0.00208446 -0.0851087 0.00690634)
(0.0025961 -0.0806597 0.00632575)
(0.00302995 -0.0758547 0.00587406)
(0.0035029 -0.0700834 0.00625566)
(0.00417261 -0.061994 0.00829516)
(0.00520635 -0.0495983 0.012423)
(0.00667538 -0.0312987 0.0178108)
(0.0083115 -0.00768574 0.0224171)
(0.00930759 0.0175956 0.0242187)
(0.00858602 0.0378268 0.0226914)
(0.00635238 0.0483663 0.019817)
(0.00343961 0.048666 0.0162305)
(0.000713116 0.0301336 0.00857278)
(0.000431497 0.0517693 0.00252909)
(0.00100884 0.0965245 0.00590499)
(0.000750101 0.105184 0.00823882)
(-0.000149535 0.0982864 0.01118)
(-0.00180527 0.0756618 0.0153976)
(-0.00357976 0.0399821 0.0180062)
(-0.00479029 -0.00105846 0.0166688)
(-0.00528214 -0.0379926 0.0122111)
(-0.00534398 -0.0641565 0.00687385)
(-0.00512932 -0.0800433 0.00255213)
(-0.00469377 -0.0894435 -0.000196066)
(-0.00410901 -0.0953542 -0.00181193)
(-0.00340137 -0.0993173 -0.00278822)
(-0.00257672 -0.102023 -0.0034132)
(-0.00164042 -0.103786 -0.00384057)
(-0.000605096 -0.104763 -0.00415054)
(0.000515382 -0.105022 -0.00437423)
(0.00170813 -0.104588 -0.00450548)
(0.00295948 -0.103458 -0.00450643)
(0.00425417 -0.101592 -0.00431502)
(0.00557364 -0.0989182 -0.00385842)
(0.00689284 -0.0953231 -0.00307478)
(0.00816437 -0.0906616 -0.00194393)
(0.0093206 -0.0847682 -0.000518531)
(0.0102881 -0.0775414 0.00104668)
(0.0109956 -0.0689949 0.00252953)
(0.0113929 -0.0592417 0.00378083)
(0.0114731 -0.0482106 0.00499739)
(0.0112744 -0.0350001 0.00701308)
(0.0108855 -0.0172945 0.0111002)
(0.0104002 0.00714512 0.0171505)
(0.00923512 0.0346436 0.0218295)
(0.00665774 0.0549733 0.0224917)
(0.00328364 0.0601772 0.0189388)
(0.000512819 0.0380759 0.00924084)
(0.000386919 0.0424623 0.00212946)
(0.0017162 0.0845501 0.00486859)
(0.00244738 0.095407 0.00678695)
(0.00265518 0.0912308 0.00901743)
(0.00236515 0.0723999 0.0122818)
(0.0020457 0.0390469 0.0153045)
(0.00231543 -0.00233671 0.0154061)
(0.00268296 -0.0396205 0.0123429)
(0.00267298 -0.0656071 0.00880429)
(0.00249229 -0.0819034 0.00648709)
(0.0023975 -0.0923563 0.00524507)
(0.00247298 -0.0995693 0.00453653)
(0.00273641 -0.104832 0.00404598)
(0.00318294 -0.10872 0.00363793)
(0.00379742 -0.111492 0.00325933)
(0.00455707 -0.113271 0.00289048)
(0.00543686 -0.114125 0.0025213)
(0.00640921 -0.114096 0.00214111)
(0.00744659 -0.113214 0.00173484)
(0.00852555 -0.111502 0.00128578)
(0.00962423 -0.108983 0.000783074)
(0.0107226 -0.105674 0.000234168)
(0.0118036 -0.101574 -0.000321326)
(0.0128504 -0.0966288 -0.000801842)
(0.0138385 -0.0906767 -0.00108434)
(0.0147116 -0.0833579 -0.00101931)
(0.0153635 -0.0740179 -0.000461077)
(0.0155953 -0.0617154 0.000669066)
(0.0151086 -0.045522 0.00237867)
(0.0135779 -0.0247376 0.00512079)
(0.0110419 0.0019785 0.0100238)
(0.00793632 0.0342359 0.0159919)
(0.00452499 0.062021 0.0188038)
(0.00152276 0.0697906 0.0158918)
(3.49011e-05 0.0427161 0.00682336)
(-0.000168192 0.0376522 0.00400408)
(0.000195739 0.0779243 0.0076528)
(0.000584041 0.0902924 0.00965089)
(0.00109936 0.0869909 0.0120414)
(0.00204217 0.0659149 0.0160048)
(0.00395461 0.0265592 0.0185308)
(0.00602485 -0.0168764 0.016139)
(0.00693533 -0.0503373 0.0110251)
(0.00663959 -0.0716747 0.00640436)
(0.00588224 -0.0850982 0.00313125)
(0.0051522 -0.0943321 0.000845215)
(0.00462305 -0.101247 -0.000853769)
(0.00434555 -0.10661 -0.00218139)
(0.00431313 -0.110743 -0.00323472)
(0.00449553 -0.113809 -0.00405813)
(0.00486201 -0.115902 -0.00467458)
(0.00538307 -0.117081 -0.005098)
(0.00602911 -0.117374 -0.00533646)
(0.00676982 -0.116784 -0.00539355)
(0.00757334 -0.115288 -0.00526989)
(0.00840526 -0.112841 -0.00496492)
(0.0092272 -0.109374 -0.00447779)
(0.00999564 -0.104794 -0.00380554)
(0.010661 -0.0989582 -0.00293624)
(0.0111665 -0.091622 -0.00183564)
(0.0114369 -0.0822982 -0.000431844)
(0.0113652 -0.0700293 0.00137071)
(0.010793 -0.0532837 0.00355755)
(0.00951763 -0.0306452 0.00582412)
(0.00723576 -0.00255249 0.00805368)
(0.00405286 0.0280581 0.0108181)
(0.000883664 0.0564426 0.0135609)
(-0.000990352 0.0737564 0.0138364)
(-0.00139228 0.0718403 0.010342)
(-0.000501684 0.039085 0.00345548)
(-0.000472646 0.035871 0.00579669)
(-0.00157088 0.067714 0.0107423)
(-0.00239967 0.0735416 0.0137122)
(-0.00228528 0.0619347 0.0171541)
(-0.000741473 0.0288284 0.0186131)
(0.00120656 -0.0120899 0.0139866)
(0.00169166 -0.0426369 0.0067784)
(0.000832115 -0.0606103 0.0016904)
(-0.000500174 -0.0723095 -0.000835157)
(-0.0017477 -0.0818352 -0.00193255)
(-0.002627 -0.0903493 -0.00237218)
(-0.00312638 -0.0978382 -0.00251057)
(-0.00330674 -0.104168 -0.00250596)
(-0.00323876 -0.109313 -0.00243475)
(-0.00297777 -0.113314 -0.00234494)
(-0.00256698 -0.116226 -0.0022702)
(-0.00204648 -0.118085 -0.00223378)
(-0.00145335 -0.118913 -0.0022498)
(-0.000822314 -0.118712 -0.00232355)
(-0.000187198 -0.117469 -0.00245062)
(0.000416798 -0.115146 -0.00261415)
(0.000951895 -0.111688 -0.00277865)
(0.00137802 -0.107007 -0.00287759)
(0.00165589 -0.100958 -0.00279378)
(0.00175352 -0.0932281 -0.00233357)
(0.00164513 -0.0831205 -0.00120607)
(0.00131866 -0.0692718 0.00091026)
(0.000789707 -0.0497899 0.00398382)
(7.98157e-05 -0.0237013 0.00707797)
(-0.000823583 0.00659135 0.00894776)
(-0.00194866 0.0355499 0.00970331)
(-0.00275565 0.0572613 0.00983564)
(-0.00268716 0.0659402 0.00869924)
(-0.00174885 0.0594051 0.00585008)
(-0.000297705 0.0297437 0.00165595)
(-0.000671569 0.0419889 0.00851674)
(-0.00225947 0.0771622 0.017816)
(-0.00310369 0.0781473 0.0219965)
(-0.0030397 0.0538108 0.0208228)
(-0.00283549 0.0173109 0.0131816)
(-0.00398073 -0.0113654 0.00457109)
(-0.00610604 -0.0306501 -0.000310592)
(-0.00822087 -0.046616 -0.00222665)
(-0.00985898 -0.0615359 -0.00291722)
(-0.0108592 -0.0750498 -0.00321187)
(-0.0112918 -0.0866694 -0.00340002)
(-0.0112937 -0.0962681 -0.0035566)
(-0.0109875 -0.104001 -0.00368201)
(-0.0104687 -0.110097 -0.00375464)
(-0.00980709 -0.114744 -0.00375804)
(-0.00905141 -0.118067 -0.0036855)
(-0.00824007 -0.120148 -0.00353886)
(-0.00740558 -0.121026 -0.00332578)
(-0.00657766 -0.120705 -0.00305754)
(-0.00578534 -0.119152 -0.00274782)
(-0.00505863 -0.116299 -0.00241131)
(-0.00443093 -0.112051 -0.00206047)
(-0.00394198 -0.106318 -0.00169581)
(-0.00363533 -0.0990587 -0.00128171)
(-0.0035421 -0.0902547 -0.00070454)
(-0.00366267 -0.0797001 0.000275927)
(-0.00392355 -0.0665812 0.00204172)
(-0.00412543 -0.0492072 0.0049245)
(-0.00396378 -0.0257639 0.0085187)
(-0.00332179 0.00281804 0.011147)
(-0.00256466 0.0304228 0.0113809)
(-0.00193229 0.0491688 0.00988457)
(-0.00127679 0.0549888 0.00792085)
(-0.000533109 0.0483555 0.00551339)
(5.24384e-05 0.0242552 0.00219364)
(-0.00142247 0.0487049 0.00899614)
(-0.00518736 0.0717824 0.016154)
(-0.00808706 0.0610574 0.0134997)
(-0.0100818 0.0361538 0.00434909)
(-0.0117775 0.0130218 -0.00451666)
(-0.013534 -0.0050921 -0.00914495)
(-0.0153014 -0.0219479 -0.0108151)
(-0.0169901 -0.0387228 -0.0111371)
(-0.0183349 -0.0549861 -0.0106522)
(-0.0191982 -0.0701894 -0.00973317)
(-0.0195045 -0.083723 -0.00875338)
(-0.0192777 -0.0951082 -0.00793412)
(-0.0186247 -0.104267 -0.00729357)
(-0.0176769 -0.111426 -0.00677241)
(-0.0165439 -0.11686 -0.00632463)
(-0.0153052 -0.120776 -0.00593119)
(-0.0140151 -0.123306 -0.00558813)
(-0.0127111 -0.124522 -0.00529497)
(-0.0114217 -0.124453 -0.00504995)
(-0.0101699 -0.12308 -0.00484856)
(-0.00897517 -0.120344 -0.0046836)
(-0.00785619 -0.116138 -0.00454553)
(-0.00683738 -0.110348 -0.00442075)
(-0.00595722 -0.102911 -0.0042814)
(-0.00526828 -0.0938963 -0.00405331)
(-0.00481702 -0.0834725 -0.00355835)
(-0.0045887 -0.0716214 -0.00245162)
(-0.00445682 -0.0575943 -0.000210227)
(-0.00414213 -0.039614 0.0036053)
(-0.00329314 -0.0160579 0.00843786)
(-0.0018974 0.0109236 0.0121025)
(-0.00047725 0.0336515 0.0127377)
(0.000308819 0.0445148 0.011008)
(0.000442259 0.0421814 0.00813626)
(0.000218876 0.0229901 0.00364403)
(0.000619736 0.0624175 0.00315221)
(-0.00064842 0.0934914 0.00669998)
(-0.00349953 0.0795785 0.000486105)
(-0.00724438 0.0467171 -0.0119203)
(-0.011062 0.0199331 -0.0194134)
(-0.014524 0.00112384 -0.0208148)
(-0.0173795 -0.0156572 -0.0195746)
(-0.0196613 -0.0330455 -0.0172814)
(-0.0214216 -0.0513713 -0.0141614)
(-0.0224406 -0.0698501 -0.0106736)
(-0.0225734 -0.0870667 -0.00767754)
(-0.0219097 -0.101509 -0.00567628)
(-0.0206561 -0.112581 -0.00451093)
(-0.0190483 -0.120649 -0.00382596)
(-0.017272 -0.126364 -0.00337478)
(-0.0154478 -0.130204 -0.00303827)
(-0.0136479 -0.132436 -0.00277132)
(-0.0119063 -0.133196 -0.00255906)
(-0.010237 -0.13255 -0.00239625)
(-0.00864603 -0.130505 -0.00228294)
(-0.00713593 -0.12702 -0.00222687)
(-0.00570958 -0.121989 -0.00224846)
(-0.00437673 -0.115247 -0.00238485)
(-0.00316421 -0.106632 -0.00268536)
(-0.00212427 -0.096117 -0.00318154)
(-0.00133392 -0.0839586 -0.00381319)
(-0.000861453 -0.0707128 -0.00432671)
(-0.0007066 -0.0568915 -0.00421647)
(-0.00075398 -0.0422129 -0.00275811)
(-0.000742762 -0.0251027 0.000773934)
(-0.000332985 -0.0039574 0.00612266)
(0.00038068 0.0188351 0.0109276)
(0.00080938 0.0353798 0.0125258)
(0.000709721 0.0389193 0.0104713)
(0.000258848 0.0234097 0.00473905)
(0.00161124 0.0469242 -0.0033998)
(0.00560978 0.0918704 -0.00349558)
(0.00734097 0.0979109 -0.0064534)
(0.00746075 0.0875819 -0.0126224)
(0.00630867 0.0692887 -0.0197471)
(0.00469634 0.0490506 -0.0248686)
(0.00318214 0.0285673 -0.0273849)
(0.00159839 0.00742658 -0.0267118)
(-6.20745e-05 -0.0158586 -0.0220352)
(-0.00122319 -0.0422753 -0.0144358)
(-0.00167226 -0.0695663 -0.00742324)
(-0.00171501 -0.0932684 -0.00327191)
(-0.00148403 -0.11089 -0.00160317)
(-0.0010514 -0.12275 -0.00119654)
(-0.000499029 -0.13041 -0.00125361)
(0.000121249 -0.135223 -0.00145518)
(0.000780866 -0.137954 -0.00169564)
(0.0014599 -0.138972 -0.0019328)
(0.00214942 -0.138469 -0.00214296)
(0.00284617 -0.136539 -0.00231269)
(0.00354603 -0.133184 -0.00244094)
(0.00423827 -0.128303 -0.00254666)
(0.0048996 -0.121673 -0.00268215)
(0.00548735 -0.113 -0.00294827)
(0.00593724 -0.102072 -0.00349178)
(0.00617419 -0.0889887 -0.00443526)
(0.00613283 -0.0742786 -0.00571337)
(0.0057829 -0.058739 -0.00693892)
(0.00514555 -0.0429764 -0.00745637)
(0.00430156 -0.026821 -0.00646652)
(0.00339932 -0.00913638 -0.0032217)
(0.00258691 0.0106252 0.00198548)
(0.00180356 0.028341 0.00645109)
(0.00104602 0.0350063 0.00714322)
(0.000322031 0.0241966 0.00372586)
(0.000216556 0.0268801 -0.00296502)
(0.00295662 0.0641263 -0.00560711)
(0.00563611 0.0780705 -0.00752449)
(0.0074495 0.0767685 -0.0102803)
(0.00861473 0.0663404 -0.013905)
(0.00915239 0.050843 -0.017357)
(0.00929648 0.0342661 -0.018875)
(0.00961435 0.016493 -0.0166389)
(0.0106175 -0.00562405 -0.0101912)
(0.0122266 -0.0330166 -0.00227507)
(0.0135953 -0.0613629 0.00327291)
(0.0141223 -0.0855741 0.005422)
(0.0138805 -0.103794 0.00537322)
(0.0132747 -0.116588 0.00449753)
(0.0126036 -0.125154 0.00352311)
(0.0119939 -0.130613 0.00266709)
(0.0114831 -0.133781 0.00194404)
(0.0110816 -0.135147 0.00132903)
(0.0107909 -0.134954 0.000802038)
(0.0106068 -0.133282 0.00035079)
(0.0105156 -0.130081 -3.72689e-05)
(0.0104892 -0.125164 -0.000388805)
(0.0104808 -0.118184 -0.000768564)
(0.0104207 -0.108694 -0.0013161)
(0.0102206 -0.096395 -0.00227634)
(0.00979394 -0.0814962 -0.00392719)
(0.00909121 -0.0649359 -0.00628963)
(0.00814243 -0.048024 -0.0088492)
(0.00702665 -0.0316321 -0.0107415)
(0.00578731 -0.0157088 -0.0111504)
(0.00440236 0.000591966 -0.00944708)
(0.00289746 0.0177341 -0.00553386)
(0.00148535 0.0326986 -0.00107413)
(0.000494271 0.0379768 0.00110406)
(-1.82508e-06 0.0260173 0.000728593)
(-0.000443946 0.0252237 -0.000402757)
(-0.000705624 0.05425 -0.0034333)
(-0.000218074 0.066284 -0.00601033)
(0.000272491 0.0674008 -0.00794924)
(0.000684809 0.062506 -0.00900578)
(0.00108239 0.0512496 -0.00748558)
(0.00207207 0.0313135 -0.00204409)
(0.00407279 0.00210056 0.00511947)
(0.00655215 -0.031923 0.0100841)
(0.00848494 -0.0633576 0.0107083)
(0.00931385 -0.0868773 0.008125)
(0.00924277 -0.102321 0.00494363)
(0.0087434 -0.112503 0.00262442)
(0.00812981 -0.119857 0.00126381)
(0.00755539 -0.125511 0.000525689)
(0.00708935 -0.129768 0.000114731)
(0.00674487 -0.132636 -0.000139208)
(0.00650924 -0.134092 -0.000307547)
(0.00636687 -0.134126 -0.000408947)
(0.00629963 -0.132686 -0.000442137)
(0.00628508 -0.129619 -0.000404606)
(0.00629335 -0.124599 -0.000309181)
(0.00628519 -0.117077 -0.000217681)
(0.00621103 -0.10637 -0.000316966)
(0.00601505 -0.0920472 -0.00101683)
(0.0056336 -0.0744702 -0.00287591)
(0.00499949 -0.0551583 -0.00608017)
(0.00411399 -0.0361273 -0.00986186)
(0.00309078 -0.0184443 -0.0128714)
(0.00204803 -0.00185149 -0.0140648)
(0.00105963 0.0142469 -0.0130104)
(0.000196226 0.0292484 -0.0100207)
(-0.00032544 0.0396461 -0.00660344)
(-0.000484242 0.0413086 -0.00403025)
(-0.000253613 0.0252664 -0.00192711)
(-0.000465429 0.0322178 0.00209631)
(-0.00215521 0.062648 0.00118113)
(-0.00341299 0.0733333 0.000108501)
(-0.00416855 0.07297 0.000853359)
(-0.00423849 0.0627474 0.00398838)
(-0.00303295 0.039808 0.00841744)
(-0.000678773 0.00818784 0.0108023)
(0.0017227 -0.0234018 0.0093135)
(0.00317948 -0.0479785 0.00537671)
(0.00357928 -0.0649186 0.00186438)
(0.00335258 -0.0779507 0.000155888)
(0.00291869 -0.0901061 -9.11574e-05)
(0.00253066 -0.101871 0.000268912)
(0.00228053 -0.112215 0.000619098)
(0.00214245 -0.120283 0.00076594)
(0.00206639 -0.125981 0.000761438)
(0.00201989 -0.129602 0.000702285)
(0.00198933 -0.131441 0.000655129)
(0.00196836 -0.131655 0.00065745)
(0.00194878 -0.130248 0.000733779)
(0.00191988 -0.127056 0.00090703)
(0.00187113 -0.121709 0.00119907)
(0.00179798 -0.113603 0.00160205)
(0.00171078 -0.102012 0.0019798)
(0.00163577 -0.086369 0.0018963)
(0.00157401 -0.0668234 0.000567255)
(0.0014285 -0.0450273 -0.00260916)
(0.00104508 -0.023893 -0.00700951)
(0.000423837 -0.00544038 -0.0108921)
(-0.000209976 0.010364 -0.0129391)
(-0.000671892 0.0241571 -0.0129184)
(-0.000852124 0.0353216 -0.0112994)
(-0.000764635 0.0413822 -0.00913649)
(-0.000482606 0.0404925 -0.00667272)
(-0.000115037 0.0232229 -0.00295071)
(-0.000272067 0.0387025 0.00425941)
(-0.00183894 0.0724792 0.0070719)
(-0.00337439 0.0796663 0.00811459)
(-0.00426647 0.0717291 0.00969262)
(-0.00415944 0.0494831 0.0110088)
(-0.0030642 0.0183726 0.00930619)
(-0.00212964 -0.0115121 0.00477854)
(-0.00197678 -0.0348089 0.000509987)
(-0.0023574 -0.0532218 -0.00164311)
(-0.00282106 -0.0697756 -0.00203224)
(-0.00307262 -0.0852181 -0.00170665)
(-0.00305105 -0.0986955 -0.00137406)
(-0.00286005 -0.109552 -0.00122461)
(-0.00261835 -0.117858 -0.00118127)
(-0.00237996 -0.124027 -0.00114888)
(-0.00215432 -0.128436 -0.00108462)
(-0.00193934 -0.131306 -0.000978721)
(-0.00173414 -0.132734 -0.000829449)
(-0.00154121 -0.132733 -0.000630272)
(-0.00136519 -0.131233 -0.000363674)
(-0.0012103 -0.128062 4.66305e-06)
(-0.00107547 -0.122913 0.000531439)
(-0.000946936 -0.115325 0.00128761)
(-0.000788996 -0.104677 0.00229839)
(-0.000538974 -0.0902145 0.00337484)
(-0.000138605 -0.0713176 0.00384616)
(0.000404307 -0.0484842 0.00256913)
(0.000877505 -0.0244503 -0.0010232)
(0.00100791 -0.00293398 -0.00561664)
(0.000791428 0.0144695 -0.00907596)
(0.000456636 0.0281693 -0.0104848)
(0.000241409 0.0380624 -0.0101469)
(0.000171503 0.0427898 -0.00885386)
(0.000167425 0.0411615 -0.00665657)
(5.18376e-05 0.023603 -0.00264371)
(1.45328e-05 0.0405671 0.00484644)
(-0.000447191 0.0765785 0.0103038)
(-0.00115959 0.0821108 0.0122302)
(-0.00153736 0.0697354 0.0120132)
(-0.00147506 0.0433113 0.00874281)
(-0.00141296 0.0140485 0.00302039)
(-0.00182474 -0.0104316 -0.00200485)
(-0.00246871 -0.0299997 -0.00464359)
(-0.00306543 -0.047092 -0.00534681)
(-0.00352615 -0.0631871 -0.00496826)
(-0.00383944 -0.0785106 -0.00411852)
(-0.00400869 -0.09262 -0.00320441)
(-0.00402964 -0.104866 -0.00245684)
(-0.00391236 -0.114763 -0.00194139)
(-0.00368905 -0.12221 -0.00161589)
(-0.00340033 -0.127439 -0.00140483)
(-0.00307933 -0.130776 -0.00124482)
(-0.00274818 -0.132458 -0.00109527)
(-0.00242082 -0.132596 -0.000931205)
(-0.00210573 -0.131174 -0.000732162)
(-0.00180713 -0.12806 -0.000470667)
(-0.00152516 -0.123002 -9.95525e-05)
(-0.00125416 -0.115662 0.000461246)
(-0.000976437 -0.105653 0.00132674)
(-0.00064829 -0.0924778 0.00259142)
(-0.000190961 -0.0753804 0.00411029)
(0.000491954 -0.0536935 0.00508705)
(0.0013424 -0.028313 0.00408618)
(0.00201639 -0.00293698 0.000535773)
(0.00218726 0.0181546 -0.00384725)
(0.00190529 0.0334785 -0.00681178)
(0.0014358 0.043323 -0.00771792)
(0.00100634 0.0476072 -0.00714903)
(0.00058748 0.0453609 -0.00536545)
(8.55356e-05 0.0261394 -0.00189593)
(3.769e-05 0.038258 0.00394361)
(0.000240661 0.0729724 0.00952043)
(0.000239215 0.0773259 0.0109078)
(0.000222771 0.0642193 0.00873978)
(4.44464e-05 0.0390124 0.00318604)
(-0.000466766 0.0131717 -0.00271588)
(-0.00119261 -0.0087015 -0.0064534)
(-0.00190151 -0.0274675 -0.00779327)
(-0.00248387 -0.0449771 -0.00745623)
(-0.0028879 -0.0621627 -0.00620555)
(-0.00309096 -0.0787655 -0.00473688)
(-0.00311373 -0.0938334 -0.00354362)
(-0.00300629 -0.106521 -0.00277435)
(-0.00281601 -0.116516 -0.0023322)
(-0.00257398 -0.123954 -0.00207171)
(-0.00230055 -0.129186 -0.00189223)
(-0.00201014 -0.132557 -0.0017398)
(-0.00171365 -0.134299 -0.00158735)
(-0.001419 -0.134521 -0.00141989)
(-0.00113127 -0.133214 -0.0012252)
(-0.000852918 -0.13026 -0.000987034)
(-0.000584738 -0.125429 -0.000678251)
(-0.000326998 -0.118415 -0.000251213)
(-7.7514e-05 -0.108919 0.000378159)
(0.000175236 -0.0966809 0.00134512)
(0.000473589 -0.0812416 0.0027923)
(0.00091054 -0.0617488 0.00461093)
(0.00157508 -0.037564 0.00591578)