/*--------------------------------*- C++ -*----------------------------------*\
| =========                 |                                                 |
| \\      /  F ield         | OpenFOAM: The Open Source CFD Toolbox           |
|  \\    /   O peration     | Version:  v2012                                 |
|   \\  /    A nd           | Website:  www.openfoam.com                      |
|    \\/     M anipulation  |                                                 |
\*---------------------------------------------------------------------------*/
FoamFile
{
    version     2.0;
    format      ascii;
    class       volVectorField;
    location    "48";
    object      U;
}
// * * * * * * * * * * * * * * * * * * * * * * * * * * * * * * * * * * * * * //

dimensions      [0 1 -1 0 0 0 0];


internalField   nonuniform List<vector> 
78750
(
(-2.78942e-06 -8.82804e-05 0.000103394)
(-1.05355e-05 -0.000112154 0.000179049)
(-2.92329e-05 -0.000105251 0.000219357)
(-5.56028e-05 -8.56002e-05 0.000249189)
(-8.84559e-05 -5.96163e-05 0.000271188)
(-0.000126504 -3.09246e-05 0.000287312)
(-0.000168405 -2.26538e-06 0.000298642)
(-0.00021266 2.47395e-05 0.000305844)
(-0.000257912 4.87844e-05 0.000309093)
(-0.000302886 6.93344e-05 0.000308447)
(-0.000346453 8.58986e-05 0.000303724)
(-0.000387586 9.85179e-05 0.00029481)
(-0.000425396 0.000107121 0.000281536)
(-0.000459109 0.000111987 0.000263916)
(-0.000488086 0.000113254 0.000242017)
(-0.000511824 0.000111332 0.000216135)
(-0.000529905 0.000106513 0.000186735)
(-0.000541898 9.93178e-05 0.000154763)
(-0.000547841 8.98395e-05 0.000120025)
(-0.000547507 7.86011e-05 8.38738e-05)
(-0.000540928 6.5874e-05 4.72059e-05)
(-0.000528209 5.20076e-05 1.1025e-05)
(-0.000509531 3.72578e-05 -2.36564e-05)
(-0.00048516 2.19476e-05 -5.57973e-05)
(-0.000455412 6.34993e-06 -8.43933e-05)
(-0.000420689 -9.1898e-06 -0.000108469)
(-0.000381449 -2.43149e-05 -0.000127129)
(-0.000338222 -3.85673e-05 -0.000139544)
(-0.000291636 -5.14011e-05 -0.00014501)
(-0.000242399 -6.20918e-05 -0.000143027)
(-0.000191125 -6.97196e-05 -0.000133339)
(-0.000138272 -7.30355e-05 -0.00011614)
(-8.55738e-05 -7.03252e-05 -9.21258e-05)
(-4.30601e-05 -5.94623e-05 -6.3134e-05)
(-1.29288e-05 -3.24538e-05 -2.13944e-05)
(-1.03705e-05 0.000224728 -0.000305242)
(-4.18903e-05 0.000450421 -0.000421032)
(-7.94795e-05 0.000563785 -0.0004571)
(-0.000132441 0.000649604 -0.000490414)
(-0.000187628 0.000710779 -0.000518394)
(-0.000241732 0.000749847 -0.000539308)
(-0.000293315 0.000770801 -0.000554208)
(-0.00034133 0.000775558 -0.000565133)
(-0.000384818 0.000767533 -0.000572621)
(-0.000422947 0.00074814 -0.000577725)
(-0.000455538 0.000719976 -0.000580729)
(-0.000482224 0.000684125 -0.000582439)
(-0.000502954 0.000642937 -0.00058288)
(-0.000517784 0.000597128 -0.000582688)
(-0.000526786 0.000548737 -0.00058163)
(-0.000530371 0.000497926 -0.000580394)
(-0.000528677 0.000446246 -0.000578822)
(-0.000522032 0.000394095 -0.000577203)
(-0.000510779 0.000342621 -0.000575355)
(-0.000495288 0.000292074 -0.00057342)
(-0.000475938 0.00024325 -0.000571213)
(-0.000453119 0.000196268 -0.000568798)
(-0.000427216 0.000151654 -0.0005659)
(-0.000398612 0.00010946 -0.000562409)
(-0.000367684 7.00326e-05 -0.000557988)
(-0.000334795 3.34019e-05 -0.000552341)
(-0.000300302 -1.79723e-07 -0.000544909)
(-0.000264566 -3.06452e-05 -0.000534982)
(-0.000227943 -5.77554e-05 -0.000521419)
(-0.000190797 -8.13263e-05 -0.000502625)
(-0.000153303 -0.000100943 -0.000476329)
(-0.000115144 -0.000115869 -0.000438213)
(-7.66292e-05 -0.000124266 -0.000377727)
(-4.61529e-05 -0.000121322 -0.000281542)
(-2.37102e-05 -7.57154e-05 -8.92312e-05)
(-8.31358e-06 0.000471094 -0.000153582)
(-2.79427e-05 0.000816742 -0.000237465)
(-4.65267e-05 0.000964797 -0.000271846)
(-7.28315e-05 0.00106515 -0.000295972)
(-9.91534e-05 0.001127 -0.000314626)
(-0.000124119 0.00115972 -0.000329621)
(-0.000147323 0.00116821 -0.000342789)
(-0.000168475 0.00115846 -0.000354438)
(-0.000187216 0.00113329 -0.000365452)
(-0.00020329 0.00109683 -0.000375519)
(-0.000216609 0.00105078 -0.00038515)
(-0.000227107 0.000998208 -0.000393858)
(-0.000234838 0.000940218 -0.000401977)
(-0.000239833 0.00087917 -0.000409012)
(-0.000242255 0.000815789 -0.000415211)
(-0.00024216 0.000751859 -0.000420358)
(-0.000239809 0.000687763 -0.000424667)
(-0.000235375 0.000624748 -0.000427823)
(-0.000229052 0.000563002 -0.000430075)
(-0.000221074 0.000503632 -0.000431064)
(-0.000211626 0.000446689 -0.000431015)
(-0.000200885 0.000392744 -0.000429795)
(-0.000189054 0.000341769 -0.000427567)
(-0.000176282 0.00029411 -0.000424199)
(-0.000162734 0.000249697 -0.00041975)
(-0.000148526 0.000208732 -0.000414007)
(-0.000133805 0.000171156 -0.000406813)
(-0.00011868 0.000137095 -0.000397683)
(-0.00010329 0.000106544 -0.000385982)
(-8.77189e-05 7.97133e-05 -0.000370532)
(-7.20018e-05 5.6692e-05 -0.000349567)
(-5.58728e-05 3.77382e-05 -0.000319723)
(-3.91299e-05 2.30726e-05 -0.000274988)
(-2.45705e-05 1.34208e-05 -0.000208611)
(-1.46458e-05 8.35834e-06 -6.38939e-05)
(-1.09545e-05 0.000579217 0.000122469)
(-2.37138e-05 0.000956331 0.000105693)
(-3.13274e-05 0.00112022 7.58645e-05)
(-4.1744e-05 0.00123146 5.06942e-05)
(-5.08674e-05 0.00130189 3.18304e-05)
(-5.89267e-05 0.00133955 1.40726e-05)
(-6.60831e-05 0.00135194 -4.19771e-06)
(-7.24303e-05 0.00134359 -2.39781e-05)
(-7.78565e-05 0.00131962 -4.47073e-05)
(-8.23386e-05 0.0012827 -6.66992e-05)
(-8.58276e-05 0.0012365 -8.92159e-05)
(-8.83193e-05 0.00118267 -0.000112364)
(-8.98216e-05 0.00112393 -0.000135396)
(-9.04424e-05 0.00106128 -0.000158399)
(-9.01792e-05 0.000996766 -0.000180413)
(-8.90595e-05 0.00093142 -0.000201117)
(-8.72521e-05 0.000866743 -0.000220104)
(-8.48675e-05 0.000803044 -0.000237528)
(-8.19871e-05 0.000741354 -0.000253058)
(-7.8742e-05 0.000681795 -0.000266843)
(-7.51837e-05 0.00062501 -0.000278667)
(-7.14445e-05 0.000571029 -0.000288656)
(-6.75725e-05 0.000520183 -0.000296689)
(-6.36485e-05 0.000472246 -0.000302968)
(-5.96977e-05 0.000427371 -0.000307397)
(-5.5777e-05 0.00038542 -0.000310037)
(-5.18969e-05 0.000346579 -0.000310624)
(-4.80557e-05 0.000310553 -0.00030914)
(-4.41808e-05 0.000277123 -0.00030528)
(-4.02066e-05 0.000245832 -0.000298682)
(-3.59142e-05 0.000216326 -0.00028861)
(-3.08315e-05 0.000188086 -0.000274734)
(-2.41175e-05 0.000160417 -0.000256729)
(-1.66584e-05 0.000132505 -0.00022866)
(-1.13139e-05 8.44475e-05 -0.000128063)
(-1.25839e-05 0.000572673 0.0002608)
(-2.11791e-05 0.000903877 0.000281164)
(-2.23846e-05 0.00105028 0.000254537)
(-2.24724e-05 0.00115282 0.00023011)
(-1.98353e-05 0.00122034 0.00021215)
(-1.57323e-05 0.00126063 0.000195423)
(-1.08014e-05 0.00127867 0.000177082)
(-5.54368e-06 0.00127964 0.000157114)
(-1.41303e-07 0.0012665 0.000135361)
(5.14764e-06 0.00124288 0.000112405)
(1.02268e-05 0.00121062 8.82855e-05)
(1.49297e-05 0.00117239 6.37051e-05)
(1.91984e-05 0.00112935 3.88744e-05)
(2.30146e-05 0.0010835 1.45207e-05)
(2.61597e-05 0.00103559 -9.61018e-06)
(2.8657e-05 0.000987054 -3.29137e-05)
(3.05454e-05 0.000938291 -5.51124e-05)
(3.17746e-05 0.000890364 -7.58043e-05)
(3.23357e-05 0.000843433 -9.49701e-05)
(3.22351e-05 0.000798197 -0.000112345)
(3.14575e-05 0.000754642 -0.000127988)
(3.00322e-05 0.000713191 -0.000141734)
(2.79492e-05 0.000673696 -0.000153687)
(2.52485e-05 0.000636353 -0.000163755)
(2.19377e-05 0.000600898 -0.00017206)
(1.80788e-05 0.0005673 -0.000178567)
(1.37362e-05 0.000535151 -0.000183392)
(9.04235e-06 0.000504186 -0.00018651)
(4.17503e-06 0.000473563 -0.000188099)
(-6.62294e-07 0.000442567 -0.00018808)
(-5.1901e-06 0.000409939 -0.000186668)
(-8.88095e-06 0.000374231 -0.00018533)
(-1.06061e-05 0.000333079 -0.000187383)
(-9.30736e-06 0.000283798 -0.000187616)
(-7.92185e-06 0.000183104 -0.000128014)
(-8.23614e-06 0.000523683 0.000278905)
(-1.10006e-05 0.000795917 0.000301201)
(-8.72437e-06 0.000919147 0.000274868)
(-3.81574e-06 0.001008 0.000251009)
(3.48981e-06 0.00107058 0.000234603)
(1.19653e-05 0.00111166 0.000219967)
(2.09222e-05 0.00113623 0.000204614)
(2.98968e-05 0.00114709 0.000188017)
(3.85667e-05 0.00114756 0.000170346)
(4.66686e-05 0.0011393 0.000151602)
(5.40178e-05 0.00112467 0.00013208)
(6.04627e-05 0.0011047 0.000111921)
(6.59304e-05 0.00108112 9.15111e-05)
(7.03166e-05 0.00105458 7.10195e-05)
(7.36559e-05 0.00102629 5.0929e-05)
(7.59152e-05 0.000996638 3.14016e-05)
(7.70688e-05 0.000966607 1.26561e-05)
(7.71443e-05 0.000936347 -5.19772e-06)
(7.61948e-05 0.000906538 -2.1901e-05)
(7.42242e-05 0.000877202 -3.74149e-05)
(7.12979e-05 0.000848796 -5.15531e-05)
(6.74372e-05 0.000821181 -6.43468e-05)
(6.27279e-05 0.000794587 -7.56795e-05)
(5.72058e-05 0.000768722 -8.56379e-05)
(5.09719e-05 0.000743584 -9.41646e-05)
(4.41018e-05 0.00071867 -0.000101404)
(3.6742e-05 0.000693668 -0.000107371)
(2.90319e-05 0.000667739 -0.000112296)
(2.11977e-05 0.000640076 -0.000116262)
(1.34669e-05 0.000609257 -0.000119515)
(6.16113e-06 0.000573629 -0.000122418)
(-2.3366e-07 0.00053072 -0.000127076)
(-4.63173e-06 0.000477341 -0.000137513)
(-5.64319e-06 0.000409124 -0.000149419)
(-5.65911e-06 0.000262902 -0.000113179)
(-3.83351e-06 0.000454394 0.00022294)
(-3.07043e-06 0.000688523 0.000232237)
(-3.08206e-08 0.00079644 0.000207601)
(5.4532e-06 0.00087728 0.000186465)
(1.2373e-05 0.000936964 0.000172365)
(1.99198e-05 0.000980205 0.00016065)
(2.76653e-05 0.00101023 0.000149023)
(3.53243e-05 0.00103008 0.00013707)
(4.26636e-05 0.00104153 0.000124643)
(4.94852e-05 0.00104662 0.000111803)
(5.56341e-05 0.00104636 9.85238e-05)
(6.10071e-05 0.00104219 8.49753e-05)
(6.55189e-05 0.00103468 7.12348e-05)
(6.91213e-05 0.00102489 5.75426e-05)
(7.17663e-05 0.00101313 4.39754e-05)
(7.3439e-05 0.00100021 3.0784e-05)
(7.41238e-05 0.000986259 1.80396e-05)
(7.38445e-05 0.00097187 5.95442e-06)
(7.26077e-05 0.000957032 -5.44677e-06)
(7.04548e-05 0.000942164 -1.5995e-05)
(6.74098e-05 0.000927117 -2.57119e-05)
(6.35341e-05 0.000912132 -3.44735e-05)
(5.88708e-05 0.000896907 -4.23497e-05)
(5.35013e-05 0.000881471 -4.92627e-05)
(4.74962e-05 0.000865308 -5.53326e-05)
(4.09713e-05 0.000848166 -6.0532e-05)
(3.40378e-05 0.000829203 -6.50414e-05)
(2.68568e-05 0.000807708 -6.8912e-05)
(1.96196e-05 0.000782254 -7.23868e-05)
(1.25547e-05 0.000751344 -7.55435e-05)
(5.93656e-06 0.000712512 -7.88705e-05)
(1.91572e-07 0.000662879 -8.3999e-05)
(-3.79576e-06 0.000598088 -9.44337e-05)
(-4.88539e-06 0.000512756 -0.000106624)
(-4.68254e-06 0.000325932 -8.23443e-05)
(-1.68026e-06 0.000400568 0.000154269)
(-3.74544e-07 0.000620797 0.000154802)
(1.43639e-06 0.000723514 0.000136089)
(4.70177e-06 0.000801766 0.000120297)
(8.64364e-06 0.000861516 0.000109664)
(1.29037e-05 0.000906686 0.000100921)
(1.72675e-05 0.000940799 9.25986e-05)
(2.16287e-05 0.00096601 8.42585e-05)
(2.58474e-05 0.000984484 7.58845e-05)
(2.98226e-05 0.000997396 6.73617e-05)
(3.34606e-05 0.00100616 5.87702e-05)
(3.66906e-05 0.00101139 5.00794e-05)
(3.94537e-05 0.00101408 4.14424e-05)
(4.16887e-05 0.00101453 3.28685e-05)
(4.33443e-05 0.00101345 2.45535e-05)
(4.44373e-05 0.00101094 1.64932e-05)
(4.49081e-05 0.00100753 8.87241e-06)
(4.47559e-05 0.00100319 1.67335e-06)
(4.3989e-05 0.000998286 -4.95621e-06)
(4.26059e-05 0.000992654 -1.10683e-05)
(4.06335e-05 0.00098653 -1.65434e-05)
(3.80913e-05 0.000979601 -2.14728e-05)
(3.50251e-05 0.000971933 -2.57679e-05)
(3.14748e-05 0.000963026 -2.95577e-05)
(2.75125e-05 0.0009527 -3.27849e-05)
(2.32085e-05 0.000940162 -3.56168e-05)
(1.86649e-05 0.000924841 -3.80356e-05)
(1.40034e-05 0.00090545 -4.02583e-05)
(9.36449e-06 0.000880742 -4.23004e-05)
(4.92424e-06 0.000848565 -4.43803e-05)
(8.88206e-07 0.000806469 -4.66636e-05)
(-2.42862e-06 0.000750767 -5.03828e-05)
(-4.43407e-06 0.000676834 -5.76949e-05)
(-4.58688e-06 0.000578201 -6.61574e-05)
(-3.73857e-06 0.000361425 -4.9293e-05)
(-1.28818e-06 0.000365485 0.000103612)
(-8.05297e-07 0.000584001 0.000105249)
(-5.08516e-07 0.000685972 9.52225e-05)
(3.31914e-07 0.000764368 8.64003e-05)
(1.51879e-06 0.000824704 8.00776e-05)
(2.9122e-06 0.000871468 7.46732e-05)
(4.43729e-06 0.000907653 6.93506e-05)
(6.05377e-06 0.000935895 6.40332e-05)
(7.708e-06 0.000957785 5.86329e-05)
(9.35383e-06 0.00097494 5.32451e-05)
(1.09408e-05 0.000988179 4.78138e-05)
(1.24278e-05 0.000998548 4.2482e-05)
(1.37677e-05 0.00100643 3.72198e-05)
(1.49364e-05 0.00101254 3.21862e-05)
(1.58902e-05 0.001017 2.73551e-05)
(1.65814e-05 0.00102035 2.28578e-05)
(1.70146e-05 0.00102255 1.86472e-05)
(1.71662e-05 0.00102395 1.48594e-05)
(1.70278e-05 0.00102438 1.14101e-05)
(1.658e-05 0.00102409 8.45791e-06)
(1.58247e-05 0.00102275 5.88677e-06)
(1.47745e-05 0.00102047 3.77688e-06)
(1.34389e-05 0.00101677 1.98697e-06)
(1.18455e-05 0.00101156 5.75786e-07)
(1.00278e-05 0.00100412 -6.25918e-07)
(8.03552e-06 0.000994032 -1.58142e-06)
(5.92475e-06 0.000980187 -2.49038e-06)
(3.7719e-06 0.000961646 -3.34593e-06)
(1.66358e-06 0.000936589 -4.3712e-06)
(-3.02871e-07 0.000903152 -5.56473e-06)
(-1.99882e-06 0.000858267 -7.24307e-06)
(-3.2569e-06 0.000798413 -1.00307e-05)
(-3.7511e-06 0.00071826 -1.5443e-05)
(-3.31382e-06 0.000611291 -2.19506e-05)
(-2.35216e-06 0.000376111 -1.5235e-05)
(-1.87933e-06 0.000344378 7.37647e-05)
(-2.55826e-06 0.00056302 8.31864e-05)
(-3.60591e-06 0.000664979 8.22939e-05)
(-4.67789e-06 0.000743217 8.02951e-05)
(-5.47275e-06 0.000803687 7.83406e-05)
(-6.02104e-06 0.000850584 7.60228e-05)
(-6.36972e-06 0.000887345 7.33295e-05)
(-6.52468e-06 0.000916206 7.02631e-05)
(-6.50105e-06 0.000939197 6.70197e-05)
(-6.31022e-06 0.000957481 6.36012e-05)
(-5.98004e-06 0.000972311 6.01811e-05)
(-5.52905e-06 0.000984251 5.67467e-05)
(-4.98736e-06 0.000994118 5.34658e-05)
(-4.38002e-06 0.00100213 5.03114e-05)
(-3.72868e-06 0.00100884 4.74346e-05)
(-3.07969e-06 0.00101424 4.48266e-05)
(-2.45069e-06 0.00101871 4.26244e-05)
(-1.86894e-06 0.00102212 4.07647e-05)
(-1.37089e-06 0.00102474 3.93543e-05)
(-9.51858e-07 0.00102632 3.82202e-05)
(-6.38033e-07 0.001027 3.74544e-05)
(-4.35828e-07 0.00102634 3.69316e-05)
(-3.47722e-07 0.00102431 3.67059e-05)
(-3.69505e-07 0.0010203 3.6618e-05)
(-4.91053e-07 0.00101404 3.66954e-05)
(-6.95826e-07 0.00100459 3.67498e-05)
(-9.60794e-07 0.000991293 3.67815e-05)
(-1.2535e-06 0.000972694 3.65697e-05)
(-1.54089e-06 0.000947424 3.60804e-05)
(-1.78204e-06 0.00091312 3.5062e-05)
(-1.93834e-06 0.000867155 3.33765e-05)
(-1.95903e-06 0.000805531 3.03569e-05)
(-1.74776e-06 0.00072334 2.50511e-05)
(-1.26759e-06 0.000613645 1.77641e-05)
(-6.94251e-07 0.000373417 1.24575e-05)
(-2.53211e-06 0.000329914 5.72498e-05)
(-4.07009e-06 0.000545437 7.53715e-05)
(-5.94086e-06 0.000645603 8.16046e-05)
(-8.11796e-06 0.000722439 8.48858e-05)
(-9.95491e-06 0.000781558 8.62441e-05)
(-1.14797e-05 0.000827484 8.63227e-05)
(-1.27276e-05 0.000863259 8.54339e-05)
(-1.37156e-05 0.000891498 8.39313e-05)
(-1.44286e-05 0.000913819 8.19553e-05)
(-1.48816e-05 0.000931787 7.97482e-05)
(-1.50708e-05 0.000946227 7.73701e-05)
(-1.50214e-05 0.000958118 7.50135e-05)
(-1.47395e-05 0.000967836 7.26983e-05)
(-1.42598e-05 0.000976027 7.05869e-05)
(-1.35973e-05 0.000982797 6.86681e-05)
(-1.27893e-05 0.000988585 6.70753e-05)
(-1.18615e-05 0.000993324 6.5762e-05)
(-1.08538e-05 0.000997306 6.48268e-05)
(-9.78758e-06 0.00100031 6.4201e-05)
(-8.70403e-06 0.00100247 6.39784e-05)
(-7.62178e-06 0.00100346 6.40399e-05)
(-6.56551e-06 0.0010033 6.44207e-05)
(-5.54965e-06 0.00100149 6.4975e-05)
(-4.59188e-06 0.000997881 6.571e-05)
(-3.70202e-06 0.000991717 6.64518e-05)
(-2.88147e-06 0.000982549 6.71798e-05)
(-2.13411e-06 0.000969245 6.76872e-05)
(-1.4613e-06 0.000950849 6.7914e-05)
(-8.59621e-07 0.000925565 6.76032e-05)
(-3.27407e-07 0.00089155 6.66272e-05)
(1.21522e-07 0.000845825 6.45974e-05)
(4.51461e-07 0.000784953 6.10211e-05)
(6.22145e-07 0.000703825 5.48293e-05)
(7.20696e-07 0.000596126 4.56863e-05)
(6.99869e-07 0.000360813 2.99218e-05)
(-2.73053e-06 0.000318405 4.37963e-05)
(-4.61429e-06 0.000527214 6.61697e-05)
(-6.81715e-06 0.000624152 7.60532e-05)
(-9.3966e-06 0.000698214 8.19916e-05)
(-1.16284e-05 0.000755165 8.50812e-05)
(-1.34967e-05 0.00079907 8.63024e-05)
(-1.50699e-05 0.000833233 8.63208e-05)
(-1.63301e-05 0.000859858 8.54648e-05)
(-1.72829e-05 0.000880885 8.40594e-05)
(-1.79068e-05 0.000897488 8.2261e-05)
(-1.822e-05 0.000910854 8.02984e-05)
(-1.82175e-05 0.000921573 7.82558e-05)
(-1.79271e-05 0.000930403 7.63107e-05)
(-1.73544e-05 0.000937597 7.45047e-05)
(-1.65429e-05 0.000943655 7.29784e-05)
(-1.55091e-05 0.000948615 7.17371e-05)
(-1.43019e-05 0.000952807 7.08849e-05)
(-1.29465e-05 0.000956115 7.03891e-05)
(-1.14908e-05 0.000958735 7.03151e-05)
(-9.96768e-06 0.000960415 7.05906e-05)
(-8.4226e-06 0.000961221 7.12417e-05)
(-6.88566e-06 0.000960758 7.21572e-05)
(-5.3955e-06 0.000958936 7.33264e-05)
(-3.97619e-06 0.000955176 7.46032e-05)
(-2.65015e-06 0.000949161 7.59432e-05)
(-1.43711e-06 0.000940031 7.71669e-05)
(-3.50796e-07 0.000927108 7.81913e-05)
(5.9295e-07 0.000909062 7.87921e-05)
(1.38439e-06 0.000884589 7.88234e-05)
(2.00259e-06 0.000851539 7.79794e-05)
(2.42467e-06 0.000807494 7.59595e-05)
(2.57415e-06 0.000748831 7.21193e-05)
(2.37444e-06 0.000671128 6.54981e-05)
(1.99654e-06 0.0005681 5.52601e-05)
(1.4887e-06 0.000343766 3.42129e-05)
(-2.29056e-06 0.000309863 2.78208e-05)
(-4.05959e-06 0.000511573 4.79455e-05)
(-6.16235e-06 0.000604974 5.76596e-05)
(-8.68536e-06 0.000676241 6.36417e-05)
(-1.09089e-05 0.000730718 6.6661e-05)
(-1.2818e-05 0.000772586 6.78271e-05)
(-1.44249e-05 0.000804774 6.77315e-05)
(-1.57301e-05 0.000829719 6.67905e-05)
(-1.66954e-05 0.00084902 6.52335e-05)
(-1.7322e-05 0.000864142 6.33197e-05)
(-1.75892e-05 0.000875944 6.11921e-05)
(-1.75172e-05 0.000885342 5.90451e-05)
(-1.71045e-05 0.000892771 5.69732e-05)
(-1.63904e-05 0.000898826 5.51274e-05)
(-1.53939e-05 0.00090368 5.3564e-05)
(-1.41607e-05 0.00090772 5.23954e-05)
(-1.27264e-05 0.000910943 5.16371e-05)
(-1.11468e-05 0.000913583 5.13579e-05)
(-9.46319e-06 0.000915493 5.15287e-05)
(-7.73324e-06 0.000916772 5.21723e-05)
(-6.00193e-06 0.000917136 5.32149e-05)
(-4.31726e-06 0.000916542 5.46346e-05)
(-2.71809e-06 0.000914546 5.6316e-05)
(-1.24287e-06 0.000910924 5.81978e-05)
(7.88304e-08 0.000905014 6.01282e-05)
(1.22078e-06 0.000896321 6.20106e-05)
(2.16885e-06 0.000883842 6.36577e-05)
(2.90955e-06 0.00086664 6.49304e-05)
(3.42929e-06 0.000843131 6.55862e-05)
(3.72538e-06 0.000811601 6.5413e-05)
(3.77489e-06 0.000769445 6.40361e-05)
(3.53118e-06 0.000713548 6.09486e-05)
(2.93221e-06 0.00063947 5.52075e-05)
(2.23301e-06 0.000541556 4.60916e-05)
(1.51489e-06 0.000328476 2.66069e-05)
(-1.41349e-06 0.000306249 8.52194e-06)
(-2.79887e-06 0.000503793 2.07206e-05)
(-4.56932e-06 0.000595144 2.73367e-05)
(-6.77577e-06 0.000664524 3.1263e-05)
(-8.84362e-06 0.000717373 3.28589e-05)
(-1.06742e-05 0.000757572 3.2938e-05)
(-1.2266e-05 0.000788244 3.20098e-05)
(-1.35641e-05 0.000811559 3.03492e-05)
(-1.45448e-05 0.000829366 2.82097e-05)
(-1.51641e-05 0.000842878 2.57755e-05)
(-1.54246e-05 0.000853231 2.3186e-05)
(-1.53112e-05 0.000861096 2.05833e-05)
(-1.48479e-05 0.000867197 1.81409e-05)
(-1.40508e-05 0.000871881 1.59602e-05)
(-1.29636e-05 0.000875616 1.41721e-05)
(-1.16215e-05 0.000878532 1.28383e-05)
(-1.00825e-05 0.000880917 1.20422e-05)
(-8.40022e-06 0.000882741 1.17993e-05)
(-6.63965e-06 0.000884141 1.21411e-05)
(-4.855e-06 0.000884943 1.30324e-05)
(-3.11101e-06 0.000885138 1.44522e-05)
(-1.45951e-06 0.000884403 1.63165e-05)
(4.88629e-08 0.000882564 1.85575e-05)
(1.37239e-06 0.000879113 2.10491e-05)
(2.47894e-06 0.00087366 2.36857e-05)
(3.34025e-06 0.000865431 2.63093e-05)
(3.95088e-06 0.000853703 2.87839e-05)
(4.29838e-06 0.000837279 3.09241e-05)
(4.39386e-06 0.000814878 3.25616e-05)
(4.24369e-06 0.000784566 3.3477e-05)
(3.87156e-06 0.000744079 3.34256e-05)
(3.25825e-06 0.000690164 3.20019e-05)
(2.42824e-06 0.000618789 2.85697e-05)
(1.63377e-06 0.000524311 2.27401e-05)
(9.70236e-07 0.000318865 1.07206e-05)
(-4.16601e-07 0.000309485 -1.08267e-05)
(-1.39264e-06 0.000508078 -9.04213e-06)
(-2.74788e-06 0.000599661 -6.86116e-06)
(-4.60499e-06 0.000668996 -5.88659e-06)
(-6.48405e-06 0.000721407 -6.34258e-06)
(-8.25461e-06 0.000760998 -7.77319e-06)
(-9.83213e-06 0.000790758 -9.93127e-06)
(-1.11551e-05 0.000813092 -1.26394e-05)
(-1.21569e-05 0.000829688 -1.57585e-05)
(-1.28049e-05 0.000841992 -1.91104e-05)
(-1.30737e-05 0.000850983 -2.24912e-05)
(-1.29632e-05 0.000857583 -2.57505e-05)
(-1.24783e-05 0.000862352 -2.87672e-05)
(-1.16543e-05 0.000865884 -3.14039e-05)
(-1.05261e-05 0.000868471 -3.35622e-05)
(-9.14882e-06 0.000870485 -3.51417e-05)
(-7.57603e-06 0.000872023 -3.60848e-05)
(-5.8776e-06 0.000873281 -3.63432e-05)
(-4.11799e-06 0.000874196 -3.5912e-05)
(-2.36944e-06 0.000874804 -3.48005e-05)
(-6.98025e-07 0.000874886 -3.30598e-05)
(8.36436e-07 0.000874312 -3.07538e-05)
(2.17487e-06 0.000872689 -2.79837e-05)
(3.27569e-06 0.000869692 -2.48579e-05)
(4.10431e-06 0.000864702 -2.1514e-05)
(4.6408e-06 0.000857126 -1.80883e-05)
(4.8739e-06 0.000846011 -1.47375e-05)
(4.82099e-06 0.000830337 -1.16067e-05)
(4.4958e-06 0.000808603 -8.85247e-06)
(3.94189e-06 0.000779057 -6.60549e-06)
(3.20135e-06 0.000739234 -5.01855e-06)
(2.32942e-06 0.000686071 -4.27414e-06)
(1.40812e-06 0.000615377 -4.67554e-06)
(6.98471e-07 0.000521711 -6.07508e-06)
(1.90092e-07 0.00031774 -7.784e-06)
(4.09483e-07 0.000320163 -2.68434e-05)
(-2.45735e-07 0.000525043 -3.48579e-05)
(-1.21652e-06 0.000619335 -3.70062e-05)
(-2.73338e-06 0.000690349 -3.89764e-05)
(-4.42847e-06 0.00074371 -4.14596e-05)
(-6.09539e-06 0.000783566 -4.43722e-05)
(-7.63676e-06 0.000813161 -4.76488e-05)
(-8.95066e-06 0.000834877 -5.1232e-05)
(-9.97194e-06 0.000850658 -5.50508e-05)
(-1.06413e-05 0.000861912 -5.90044e-05)
(-1.09391e-05 0.000869838 -6.29512e-05)
(-1.08497e-05 0.000875267 -6.67407e-05)
(-1.03902e-05 0.000878962 -7.02258e-05)
(-9.58328e-06 0.00088141 -7.32711e-05)
(-8.47222e-06 0.000883094 -7.57548e-05)
(-7.11081e-06 0.000884264 -7.75791e-05)
(-5.56634e-06 0.000885194 -7.86693e-05)
(-3.90339e-06 0.000885945 -7.89812e-05)
(-2.20098e-06 0.000886611 -7.84998e-05)
(-5.31834e-07 0.000887078 -7.72416e-05)
(1.03203e-06 0.000887267 -7.52534e-05)
(2.4228e-06 0.000886885 -7.261e-05)
(3.58657e-06 0.000885661 -6.94117e-05)
(4.47156e-06 0.000883095 -6.57789e-05)
(5.05093e-06 0.000878675 -6.18478e-05)
(5.30173e-06 0.000871618 -5.77621e-05)
(5.23277e-06 0.000861067 -5.36675e-05)
(4.85243e-06 0.000845802 -4.96985e-05)
(4.20749e-06 0.000824396 -4.59716e-05)
(3.34702e-06 0.000794888 -4.25607e-05)
(2.35704e-06 0.000754858 -3.95061e-05)
(1.32225e-06 0.000701017 -3.68061e-05)
(4.05674e-07 0.000629161 -3.44262e-05)
(-1.60053e-07 0.000533598 -3.17355e-05)
(-5.20757e-07 0.000325206 -2.38392e-05)
(8.94574e-07 0.000336842 -3.66008e-05)
(3.87241e-07 0.000551697 -5.11673e-05)
(-3.01414e-07 0.000650359 -5.63042e-05)
(-1.57919e-06 0.000724404 -6.03297e-05)
(-3.10305e-06 0.000779672 -6.42421e-05)
(-4.66819e-06 0.000820652 -6.82243e-05)
(-6.13175e-06 0.000850689 -7.23617e-05)
(-7.39853e-06 0.000872416 -7.66793e-05)
(-8.38811e-06 0.000887802 -8.11387e-05)
(-9.04634e-06 0.000898449 -8.5649e-05)
(-9.33574e-06 0.000905548 -9.00823e-05)
(-9.25019e-06 0.000910111 -9.43002e-05)
(-8.79312e-06 0.000912868 -9.81558e-05)
(-7.99693e-06 0.000914466 -0.000101514)
(-6.89885e-06 0.000915333 -0.00010425)
(-5.55816e-06 0.000915858 -0.000106263)
(-4.04062e-06 0.000916243 -0.000107474)
(-2.41899e-06 0.000916666 -0.00010784)
(-7.69411e-07 0.00091713 -0.00010734)
(8.30182e-07 0.00091762 -0.000105995)
(2.3035e-06 0.000917945 -0.00010385)
(3.58465e-06 0.000917892 -0.000100987)
(4.61407e-06 0.000917059 -9.75028e-05)
(5.34846e-06 0.000915004 -9.35272e-05)
(5.74927e-06 0.000911072 -8.91936e-05)
(5.81196e-06 0.000904515 -8.465e-05)
(5.5347e-06 0.000894311 -8.00333e-05)
(4.94656e-06 0.000879254 -7.54702e-05)
(4.09147e-06 0.000857727 -7.10484e-05)
(3.04572e-06 0.000827744 -6.6803e-05)
(1.89435e-06 0.000786655 -6.26974e-05)
(7.65251e-07 0.000731086 -5.86073e-05)
(-1.53353e-07 0.000656524 -5.42695e-05)
(-6.06991e-07 0.000557093 -4.87398e-05)
(-9.4582e-07 0.00033986 -3.42566e-05)
(1.00402e-06 0.000357181 -3.97785e-05)
(4.74584e-07 0.00058347 -5.67337e-05)
(-1.02761e-07 0.000687236 -6.30556e-05)
(-1.27194e-06 0.000764841 -6.79238e-05)
(-2.70633e-06 0.000822506 -7.24366e-05)
(-4.18225e-06 0.000864944 -7.68757e-05)
(-5.57201e-06 0.000895765 -8.13901e-05)
(-6.76782e-06 0.000917718 -8.60279e-05)
(-7.69372e-06 0.000932964 -9.07731e-05)
(-8.29039e-06 0.000943163 -9.55361e-05)
(-8.53035e-06 0.000949662 -0.000100201)
(-8.39695e-06 0.000953493 -0.000104622)
(-7.90318e-06 0.000955518 -0.000108662)
(-7.07475e-06 0.000956379 -0.000112175)
(-5.95646e-06 0.000956613 -0.000115042)
(-4.60357e-06 0.000956585 -0.000117155)
(-3.08275e-06 0.000956584 -0.00011844)
(-1.46659e-06 0.000956745 -0.000118844)
(1.64897e-07 0.00095714 -0.000118356)
(1.73697e-06 0.000957689 -0.000116988)
(3.17362e-06 0.00095825 -0.000114793)
(4.4055e-06 0.000958525 -0.000111843)
(5.3772e-06 0.000958141 -0.000108249)
(6.04233e-06 0.000956555 -0.000104131)
(6.37095e-06 0.000953113 -9.96312e-05)
(6.34672e-06 0.000946951 -9.489e-05)
(5.98502e-06 0.000937025 -9.00515e-05)
(5.30453e-06 0.000921982 -8.52301e-05)
(4.36284e-06 0.000900151 -8.0514e-05)
(3.22826e-06 0.000869365 -7.59162e-05)
(2.00137e-06 0.00082686 -7.13825e-05)
(8.05107e-07 0.000769019 -6.67375e-05)
(-1.51369e-07 0.000691108 -6.16481e-05)
(-5.92699e-07 0.000586892 -5.50542e-05)
(-1.0246e-06 0.000358912 -3.81339e-05)
(8.31306e-07 0.000378453 -3.74232e-05)
(1.79109e-07 0.000615714 -5.29498e-05)
(-4.18567e-07 0.000724381 -5.87644e-05)
(-1.59694e-06 0.000805458 -6.3337e-05)
(-2.99325e-06 0.000865456 -6.76631e-05)
(-4.40899e-06 0.000909376 -7.19911e-05)
(-5.71699e-06 0.000940993 -7.64357e-05)
(-6.82574e-06 0.00096325 -8.10351e-05)
(-7.66055e-06 0.000978407 -8.57541e-05)
(-8.17227e-06 0.000988266 -9.05049e-05)
(-8.32721e-06 0.000994234 -9.51592e-05)
(-8.11919e-06 0.000997453 -9.95795e-05)
(-7.55507e-06 0.000998817 -0.000103616)
(-6.66579e-06 0.000999059 -0.000107135)
(-5.49428e-06 0.000998726 -0.000110006)
(-4.09863e-06 0.000998253 -0.000112132)
(-2.542e-06 0.000997921 -0.000113429)
(-8.9718e-07 0.000997915 -0.000113854)
(7.57391e-07 0.000998278 -0.000113386)
(2.34665e-06 0.000998962 -0.000112046)
(3.79605e-06 0.000999777 -0.000109877)
(5.03764e-06 0.00100044 -0.000106962)
(6.01587e-06 0.0010005 -0.000103399)
(6.68696e-06 0.00099942 -9.93177e-05)
(7.01769e-06 0.000996453 -9.48519e-05)
(6.99655e-06 0.000990704 -9.0151e-05)
(6.62995e-06 0.000981022 -8.53521e-05)
(5.94721e-06 0.000965998 -8.05825e-05)
(4.99096e-06 0.000943826 -7.59285e-05)
(3.83937e-06 0.000912237 -7.14238e-05)
(2.57618e-06 0.000868285 -6.70254e-05)
(1.32216e-06 0.000808188 -6.26019e-05)
(2.69361e-07 0.000726936 -5.787e-05)
(-2.46013e-07 0.000618008 -5.18603e-05)
(-8.41486e-07 0.000379441 -3.63192e-05)
(4.71212e-07 0.000398201 -3.14462e-05)
(-3.54212e-07 0.000644532 -4.28191e-05)
(-1.07237e-06 0.00075726 -4.69082e-05)
(-2.33341e-06 0.000841187 -5.03491e-05)
(-3.73901e-06 0.000903097 -5.39177e-05)
(-5.11157e-06 0.000948185 -5.77081e-05)
(-6.34849e-06 0.000980404 -6.1755e-05)
(-7.36747e-06 0.00100282 -6.60405e-05)
(-8.10557e-06 0.00101782 -7.05057e-05)
(-8.5127e-06 0.00102728 -7.50384e-05)
(-8.56648e-06 0.00103272 -7.95078e-05)
(-8.26016e-06 0.00103532 -8.3765e-05)
(-7.60547e-06 0.00103605 -8.7666e-05)
(-6.63302e-06 0.00103569 -9.10704e-05)
(-5.38435e-06 0.00103484 -9.38572e-05)
(-3.91695e-06 0.00103395 -9.59218e-05)
(-2.29591e-06 0.00103333 -9.71905e-05)
(-5.92176e-07 0.00103319 -9.76135e-05)
(1.1174e-06 0.00103357 -9.71774e-05)
(2.75769e-06 0.00103441 -9.58952e-05)
(4.26148e-06 0.00103553 -9.38164e-05)
(5.55754e-06 0.0010366 -9.10144e-05)
(6.58926e-06 0.00103717 -8.75934e-05)
(7.31523e-06 0.00103662 -8.36742e-05)
(7.70228e-06 0.00103419 -7.93968e-05)
(7.73687e-06 0.0010289 -7.49048e-05)
(7.42531e-06 0.00101956 -7.03465e-05)
(6.78888e-06 0.00100465 -6.58519e-05)
(5.87193e-06 0.000982297 -6.15317e-05)
(4.73696e-06 0.000950106 -5.74435e-05)
(3.46419e-06 0.000905008 -5.36015e-05)
(2.15133e-06 0.000843047 -4.99586e-05)
(9.74521e-07 0.000759023 -4.63951e-05)
(3.13438e-07 0.000646149 -4.21522e-05)
(-4.77556e-07 0.000398734 -3.07244e-05)
(4.793e-08 0.00041482 -2.39035e-05)
(-9.50208e-07 0.000667598 -2.97959e-05)
(-1.83157e-06 0.00078319 -3.15458e-05)
(-3.2127e-06 0.000869091 -3.34295e-05)
(-4.65098e-06 0.000932261 -3.5934e-05)
(-5.99756e-06 0.000978047 -3.89571e-05)
(-7.17171e-06 0.00101052 -4.24154e-05)
(-8.10758e-06 0.00103285 -4.6229e-05)
(-8.74578e-06 0.0010475 -5.02966e-05)
(-9.05093e-06 0.00105645 -5.44874e-05)
(-9.00254e-06 0.00106126 -5.86552e-05)
(-8.59359e-06 0.00106319 -6.26493e-05)
(-7.84114e-06 0.00106326 -6.63228e-05)
(-6.77841e-06 0.00106228 -6.95389e-05)
(-5.44628e-06 0.0010609 -7.21763e-05)
(-3.89838e-06 0.0010596 -7.41358e-05)
(-2.20272e-06 0.00105871 -7.53429e-05)
(-4.28452e-07 0.00105845 -7.57519e-05)
(1.35236e-06 0.00105887 -7.53473e-05)
(3.06211e-06 0.00105992 -7.41444e-05)
(4.6327e-06 0.00106137 -7.21881e-05)
(6.00085e-06 0.0010629 -6.95527e-05)
(7.10781e-06 0.00106402 -6.63369e-05)
(7.9083e-06 0.00106408 -6.26617e-05)
(8.37349e-06 0.00106227 -5.86634e-05)
(8.48895e-06 0.00105756 -5.44886e-05)
(8.25098e-06 0.0010487 -5.02873e-05)
(7.68259e-06 0.00103411 -4.62046e-05)
(6.82206e-06 0.00101183 -4.23701e-05)
(5.7211e-06 0.000979383 -3.88837e-05)
(4.44632e-06 0.000933602 -3.58221e-05)
(3.07747e-06 0.000870411 -3.32584e-05)
(1.75668e-06 0.000784463 -3.12755e-05)
(9.17659e-07 0.000668797 -2.93961e-05)
(-5.53061e-08 0.00041507 -2.34288e-05)
(-3.43769e-07 0.000427584 -1.66486e-05)
(-1.47521e-06 0.000684096 -1.70643e-05)
(-2.51791e-06 0.000801313 -1.64499e-05)
(-4.01479e-06 0.000888259 -1.67401e-05)
(-5.48987e-06 0.000952 -1.81404e-05)
(-6.81872e-06 0.000997963 -2.03497e-05)
(-7.94349e-06 0.0010303 -2.31694e-05)
(-8.81099e-06 0.00105225 -2.64566e-05)
(-9.36807e-06 0.00106634 -3.00712e-05)
(-9.58537e-06 0.00107461 -3.38632e-05)
(-9.44592e-06 0.00107867 -3.76748e-05)
(-8.94899e-06 0.00107983 -4.1354e-05)
(-8.11169e-06 0.00107917 -4.47528e-05)
(-6.96764e-06 0.00107752 -4.77391e-05)
(-5.55951e-06 0.00107558 -5.01926e-05)
(-3.93892e-06 0.00107385 -5.20201e-05)