/*--------------------------------*- C++ -*----------------------------------*\
| =========                 |                                                 |
| \\      /  F ield         | OpenFOAM: The Open Source CFD Toolbox           |
|  \\    /   O peration     | Version:  v2006                                 |
|   \\  /    A nd           | Website:  www.openfoam.com                      |
|    \\/     M anipulation  |                                                 |
\*---------------------------------------------------------------------------*/
FoamFile
{
    version     2.0;
    format      ascii;
    class       volScalarField;
    location    "64";
    object      k;
}
// * * * * * * * * * * * * * * * * * * * * * * * * * * * * * * * * * * * * * //

dimensions      [0 2 -2 0 0 0 0];


internalField   nonuniform List<scalar> 
78750
(
0.00217183
0.00813888
0.0217687
0.0163527
0.0167918
0.014652
0.0136041
0.0127343
0.011389
0.00951479
0.00770865
0.00628692
0.00520702
0.00432533
0.00355067
0.00279248
0.0019851
0.00122438
0.000817422
0.00092385
0.00129604
0.00161829
0.00175553
0.00174852
0.00166384
0.00154337
0.00141921
0.00131147
0.00122423
0.00115665
0.00110922
0.00107224
0.00101847
0.000862972
0.000174548
0.0343091
0.0329983
0.0158826
0.00631852
0.0031325
0.00248561
0.00177665
0.000935863
0.000368753
0.00010808
9.84462e-05
0.000383704
0.000738842
0.0010981
0.00136507
0.0016007
0.00172511
0.00173326
0.0017159
0.00173363
0.00176848
0.0017791
0.00177339
0.00175458
0.00172164
0.00167193
0.00160305
0.00151354
0.00140214
0.00126868
0.00111587
0.000962735
0.000857302
0.000829028
0.00119292
0.021369
0.0227437
0.0202931
0.0171424
0.0148557
0.0136094
0.0126444
0.0115293
0.0103075
0.00911415
0.00804069
0.00706671
0.00605789
0.00487331
0.00336522
0.00162477
0.000402176
0.000665328
0.000693569
0.00125218
0.00142113
0.00161947
0.0017308
0.00179105
0.00181334
0.00181032
0.00178964
0.00175332
0.0016984
0.00162028
0.00151485
0.0013861
0.00125844
0.00119654
0.00142866
0.00467089
0.0113171
0.0147345
0.0165211
0.0173433
0.0178683
0.0184374
0.0187846
0.0188638
0.0187384
0.0184306
0.0179713
0.0173842
0.0166195
0.0155929
0.0143506
0.0130346
0.0117473
0.0104833
0.00922263
0.0078379
0.00625485
0.00469052
0.00350171
0.00285947
0.00261043
0.00252737
0.0024865
0.00243927
0.00236647
0.00225718
0.00209476
0.00185451
0.00154777
0.00110601
0.00202104
0.00441785
0.00593741
0.00728028
0.00854467
0.00973827
0.0108833
0.0118614
0.0125423
0.0129645
0.0131947
0.0132619
0.0131868
0.0130054
0.0127433
0.0124597
0.0121829
0.0118597
0.011408
0.0107807
0.00992906
0.00873593
0.00718282
0.00565206
0.00453422
0.00386453
0.003504
0.00331779
0.00321897
0.00315742
0.00309906
0.00300656
0.00283312
0.00255568
0.00193779
0.0048346
0.00512154
0.00506647
0.00495295
0.00494151
0.0051384
0.00559834
0.00631137
0.00719536
0.00809788
0.00886462
0.00944822
0.00989547
0.0102403
0.0104814
0.0106099
0.0106045
0.0104299
0.0100665
0.00949866
0.00867134
0.00754549
0.00630554
0.00527841
0.00459911
0.00419424
0.00394199
0.00375382
0.00357948
0.00339345
0.00318075
0.00292426
0.00259522
0.00215377
0.0013151
0.00395355
0.00423721
0.00429229
0.00486573
0.00567778
0.00645318
0.0071434
0.00774797
0.00826396
0.00868239
0.00900291
0.00924888
0.00945009
0.00961669
0.00973735
0.00979495
0.0097777
0.00967368
0.00945762
0.00908871
0.0085392
0.00782157
0.00701389
0.00623666
0.00559207
0.00512
0.00480853
0.00462239
0.00452095
0.00447339
0.00445801
0.00444876
0.00439025
0.00414572
0.00295292
0.00453402
0.00405743
0.0037883
0.00390846
0.00438372
0.00497498
0.00564209
0.00634091
0.00702578
0.00769031
0.00830611
0.00880037
0.00909587
0.009174
0.00906494
0.00879038
0.00831754
0.00759583
0.00669954
0.00581016
0.00506435
0.00455597
0.00434135
0.00434378
0.00440804
0.00445143
0.00444532
0.00438457
0.00427964
0.00415015
0.00401739
0.00389331
0.00376176
0.00352553
0.00269148
0.00123012
0.00184474
0.00217734
0.00230289
0.00235602
0.00248588
0.00273322
0.00306404
0.0034495
0.00388387
0.00436724
0.00490921
0.00550622
0.00615844
0.00684285
0.00753772
0.00824599
0.00887448
0.00923136
0.00930031
0.00916189
0.0087938
0.00811146
0.00719398
0.00627989
0.00557893
0.00515081
0.00492961
0.00482406
0.00476576
0.00471124
0.00462529
0.00443958
0.00397537
0.0025136
0.000760053
0.0023223
0.00305615
0.00342641
0.0036014
0.00363411
0.00354211
0.00335082
0.00309315
0.00280949
0.00253403
0.0022991
0.00211746
0.00200728
0.00199527
0.00208742
0.0023107
0.00270526
0.00323836
0.00389785
0.00460889
0.00543255
0.00625707
0.00678061
0.00697427
0.00691672
0.0066658
0.00632077
0.00601712
0.00584212
0.00580423
0.00584817
0.00584084
0.00549661
0.00341859
0.00230192
0.00336489
0.00356603
0.00355993
0.00348002
0.00336011
0.00321249
0.00303924
0.00284168
0.00261951
0.00236856
0.00207766
0.00174031
0.0013634
0.000971552
0.000629158
0.000420011
0.000383185
0.000483811
0.000741763
0.00116521
0.00182525
0.00293419
0.00437255
0.00559678
0.00641893
0.00688769
0.00703477
0.00690644
0.00662607
0.00633747
0.00612804
0.00597588
0.00570859
0.00464765
0.0027311
0.00353113
0.00374348
0.00383179
0.00386859
0.00386746
0.0038332
0.00376768
0.00367041
0.0035338
0.0033246
0.00298847
0.0024937
0.00186069
0.00114481
0.000522706
0.00019577
9.12617e-05
4.25451e-05
3.3721e-06
2.45396e-05
0.000213427
0.000861775
0.00225316
0.0039854
0.00528217
0.00604778
0.00645025
0.00653689
0.00633015
0.00593727
0.00549447
0.00512132
0.00486793
0.00463505
0.0028245
0.00375726
0.00401714
0.00408653
0.00408815
0.00405397
0.00400185
0.00394997
0.00393711
0.00402054
0.00414655
0.00415044
0.00389032
0.00327854
0.00250697
0.00192579
0.00164692
0.00168554
0.00176289
0.00172356
0.0015813
0.00143762
0.00157823
0.00240512
0.00392384
0.00554513
0.00665255
0.00726282
0.00755041
0.00757506
0.00737235
0.00699268
0.00646743
0.00566844
0.00403943
0.00437626
0.00442943
0.00436773
0.00424214
0.00402794
0.00371145
0.00328971
0.00276624
0.00223417
0.00196981
0.00201876
0.00207443
0.0019242
0.00126622
0.000128129
6.95669e-05
0.000415397
0.000980578
0.00142157
0.00166781
0.00175769
0.00177148
0.00183855
0.00220005
0.00308869
0.00441069
0.00577894
0.00681859
0.00748242
0.00787197
0.00803512
0.00797586
0.00766522
0.00694252
0.00501447
0.00367818
0.00415454
0.00436453
0.00442029
0.00436064
0.00415399
0.00375101
0.00310338
0.00228194
0.0015654
0.00116094
0.000932153
0.000665062
0.000262498
0.000226584
0.00092443
0.00167198
0.00218819
0.00248767
0.00259975
0.00256158
0.00243655
0.0023158
0.00230815
0.0025692
0.00321509
0.00416265
0.00514061
0.0059411
0.00653587
0.00695309
0.00719703
0.00725249
0.00700614
0.00556453
0.00362374
0.00475122
0.00516303
0.00538903
0.00553711
0.00559193
0.0054923
0.00512348
0.00435606
0.00319586
0.00191256
0.000940495
0.000414189
0.000455805
0.000842847
0.00139743
0.00204811
0.00281199
0.00362929
0.00422635
0.00459618
0.00480573
0.00487437
0.00488464
0.00491842
0.00505699
0.0053306
0.00568282
0.00602976
0.00632015
0.00652364
0.00659771
0.00641194
0.00554319
0.00280168
0.00284758
0.0040044
0.00447519
0.00472565
0.00492917
0.00514258
0.00539995
0.00570195
0.00597742
0.0060815
0.00578935
0.0048925
0.00353405
0.00204125
0.000839862
0.000136282
1.96813e-05
0.000301487
0.00153912
0.00268407
0.00359537
0.00459825
0.00550964
0.00626447
0.00690712
0.0074531
0.00790766
0.00827387
0.00854496
0.00871736
0.00877806
0.00867101
0.00819673
0.00676444
0.00244137
0.0035054
0.00489222
0.00537972
0.00560617
0.00571306
0.00571706
0.00562675
0.00547181
0.00531451
0.0052411
0.00530798
0.00545099
0.00550355
0.00530792
0.00473874
0.00372555
0.00216034
0.000532169
1.08771e-05
7.52033e-05
0.000182628
0.000786139
0.00175914
0.00270262
0.00363155
0.00453172
0.0053842
0.00612996
0.00673569
0.00717493
0.00742886
0.00746339
0.00713303
0.00608012
0.00296524
0.00324078
0.00440667
0.00491715
0.00522311
0.00547176
0.0056958
0.00589459
0.00604828
0.00612112
0.00607587
0.00589521
0.00560389
0.0052779
0.00500409
0.00479903
0.00458789
0.00426444
0.00371206
0.00296287
0.00206264
0.00090573
0.000176171
8.17408e-05
6.95444e-05
0.000293283
0.000560521
0.000975723
0.00150136
0.00205684
0.0025644
0.00295115
0.00319473
0.00339779
0.00342578
0.00284295
0.00385086
0.00497885
0.0054129
0.00563597
0.00577538
0.00586062
0.00590673
0.00592907
0.00594361
0.0059621
0.00598131
0.00597794
0.00592105
0.00578981
0.0055736
0.0052675
0.00489348
0.00449998
0.00409057
0.00362049
0.00301727
0.00231363
0.00157378
0.000715488
1.96065e-05
3.03329e-05
4.20856e-06
6.40193e-05
0.000167479
0.000357713
0.000682499
0.00112275
0.0019803
0.00252044
0.00279736
0.00437651
0.00514945
0.00546731
0.00566221
0.00581235
0.00592724
0.0060059
0.00604465
0.00603837
0.00598301
0.00587889
0.0057321
0.00555277
0.00535181
0.00513665
0.00490418
0.00463623
0.00431429
0.00395154
0.00358105
0.00320339
0.00278541
0.0022905
0.00172653
0.00119829
0.000767248
0.000342178
3.29372e-05
4.7995e-05
9.21122e-06
2.33153e-05
0.000133937
0.00040401
0.00145021
0.00281177
0.00459996
0.00527227
0.00558392
0.00578302
0.00593627
0.00605091
0.00612773
0.00616735
0.0061704
0.00613727
0.00606765
0.00596052
0.00581552
0.00563381
0.00541687
0.00516474
0.00487528
0.00454641
0.00418288
0.00380075
0.00341105
0.00300075
0.00254316
0.00204435
0.00157825
0.00107989
0.000371353
6.28056e-05
0.000205058
0.000863005
0.00142373
0.001741
0.0020187
0.00250117
0.00302686
0.00478696
0.00533203
0.00559831
0.00577745
0.0059226
0.00603338
0.00610443
0.00613012
0.00610638
0.00603203
0.0059091
0.00574226
0.00553847
0.00530632
0.00505443
0.00478911
0.00451282
0.00422634
0.00393153
0.00363297
0.00333614
0.0030396
0.00272814
0.00237293
0.00194088
0.00144967
0.00096991
0.00058417
0.000328273
0.000289981
0.000434997
0.000883581
0.00150451
0.00164929
0.000896398
0.00484282
0.00538854
0.00566178
0.00584493
0.00599426
0.00611199
0.00619511
0.00624068
0.00624777
0.00621624
0.00614488
0.00603253
0.00588089
0.00569488
0.00548104
0.00524625
0.00499716
0.00473729
0.00446751
0.00418949
0.00390541
0.00361755
0.0033311
0.00307221
0.00290228
0.00271567
0.00247794
0.00225375
0.00202871
0.00167263
0.00136648
0.000442907
0.000288689
0.000831596
0.00308935
0.00488497
0.00541635
0.00565239
0.00580319
0.00592339
0.00601448
0.00607234
0.00609379
0.00607957
0.00603131
0.00594778
0.00582521
0.00566083
0.00545565
0.00521571
0.00495486
0.00468425
0.00438679
0.00404308
0.00365041
0.00319071
0.00259358
0.00177338
0.000823392
0.000975512
0.00193709
0.00257937
0.00271691
0.00250523
0.00200293
0.00151901
0.00150086
0.00199039
0.00262903
0.0034266
0.00504888
0.00551405
0.00571567
0.00584921
0.00596125
0.00605259
0.00612058
0.006165
0.00618703
0.00618474
0.0061538
0.00609106
0.0059963
0.00587177
0.00572046
0.00554357
0.00533812
0.00509502
0.00479655
0.00442275
0.00396567
0.00343037
0.00282251
0.00218741
0.00170101
0.00165086
0.00183833
0.00196939
0.00202055
0.00195884
0.00186729
0.00187171
0.00189916
0.00160688
0.000417473
0.00515974
0.00546636
0.0056136
0.00571161
0.00579061
0.00584994
0.00589136
0.0059229
0.0059494
0.00596418
0.00595604
0.0059184
0.00585152
0.00576048
0.00565159
0.00553089
0.00540322
0.00527066
0.00513066
0.00497819
0.00481379
0.00464216
0.00443901
0.00415612
0.00377925
0.00334688
0.00291255
0.0024956
0.00215475
0.00200697
0.00202915
0.00206631
0.00202934
0.00147084
0.000617179
0.00527054
0.00552255
0.00564147
0.00571929
0.00577782
0.00581395
0.00583483
0.00585779
0.00588705
0.00590324
0.00588398
0.00582059
0.00571704
0.00558223
0.00542433
0.00524949
0.00506178
0.00486106
0.00463754
0.00437072
0.00406601
0.00389009
0.00402995
0.00418534
0.00419638
0.00409197
0.00387973
0.00354931
0.00311084
0.00269402
0.00246691
0.00238777
0.00234918
0.002284
0.00226558
0.00505221
0.00532984
0.00545656
0.00553184
0.00557921
0.00559741
0.00560408
0.00563544
0.0057081
0.00579721
0.00586517
0.00588995
0.00586716
0.0058007
0.0056963
0.00555782
0.00538604
0.005181
0.00494321
0.00467063
0.00435335
0.00399655
0.00369848
0.00358554
0.00359984
0.00362192
0.00358962
0.00347238
0.00324065
0.00289568
0.00255537
0.00235521
0.00227366
0.00221255
0.00185494
0.00496662
0.0053099
0.0054499
0.00552294
0.00555515
0.00553804
0.00548268
0.00543669
0.00544993
0.00552312
0.00561347
0.00568391
0.00572122
0.00572605
0.00570355
0.00565832
0.00559326
0.00550942
0.00540444
0.00526792
0.00507984
0.00481405
0.00445473
0.00404275
0.00368477
0.00345372
0.00332722
0.00323541
0.00310683
0.0028864
0.00259087
0.00233534
0.00218042
0.00206038
0.00173471
0.00456136
0.00510401
0.00530259
0.00540996
0.00547568
0.0054864
0.00542882
0.00532678
0.00524568
0.00523916
0.00529632
0.00536289
0.00540008
0.00539927
0.00536604
0.00530726
0.00522788
0.00513741
0.00505307
0.00497785
0.00488315
0.00474395
0.00454879
0.0042924
0.00398724
0.00367352
0.00340331
0.00320626
0.00306028
0.0028961
0.00266796
0.00241308
0.00218982
0.00198552
0.00161731
0.00458257
0.00510863
0.00528772
0.0053935
0.00548194
0.00554288
0.0055408
0.0054524
0.00530914
0.00519286
0.00517701
0.00525964
0.00537019
0.00544248
0.00545263
0.00540444
0.00531244
0.0051892
0.00504287
0.00488148
0.00471882
0.00456543
0.0044157
0.00425392
0.00406557
0.00384283
0.00359279
0.00334561
0.00314637
0.00300222
0.00284674
0.00263264
0.00238089
0.00209432
0.0015719
0.00455382
0.00499387
0.00513546
0.00522263
0.00531272
0.00541106
0.0054856
0.00548114
0.00537538
0.00520194
0.00503676
0.00496824
0.00503341
0.0051795
0.00532258
0.00541388
0.00544468
0.00542165
0.00535008
0.00523196
0.00507124
0.00487955
0.00467556
0.00447423
0.00427629
0.00407153
0.00384691
0.00359579
0.00333649
0.00312044
0.00296457
0.00279922
0.00258126
0.00230647
0.00183222
0.00470482
0.00500195
0.00508086
0.00512764
0.00518849
0.00528591
0.00541549
0.00551776
0.00552489
0.00542086
0.00523539
0.0050316
0.00490841
0.00493858
0.00508174
0.00523433
0.0053385
0.00538572
0.00538408
0.00533777
0.00524671
0.0051104
0.00493511
0.00473754
0.00453458
0.00433137
0.00412019
0.00388458
0.0036085
0.00330191
0.00302134
0.0028005
0.00260172
0.00238487
0.00210721
0.00477322
0.00497024
0.00501718
0.00503006
0.00504144
0.00507728
0.00516872
0.00529995
0.00539556
0.00540216
0.00531818
0.00516526
0.00498304
0.00486254
0.00490047
0.00505498
0.0052141
0.00532362
0.00537787
0.00538214
0.00533927
0.00524829
0.00510969
0.00493259
0.00473313
0.00452599
0.00431537
0.0040921
0.00383539
0.00352669
0.00318671
0.00289116
0.002677
0.00249594
0.00235242
0.00488997
0.00513174
0.00520359
0.0052126
0.00518971
0.00515145
0.00514544
0.0052143
0.00530748
0.00534764
0.00530922
0.00520316
0.00504848
0.0048835
0.00480497
0.00488457
0.0050437
0.00518392
0.00527213
0.00530875
0.00529861
0.00524268
0.00514095
0.00499814
0.00482412
0.0046298
0.00442008
0.00419185
0.00393452
0.00363587
0.00330138
0.00298605
0.00274848
0.00255429
0.0024029
0.00509275
0.00537708
0.00547697
0.0054917
0.00544864
0.00534743
0.00523307
0.00521068
0.00527691
0.00532917
0.00531178
0.00522653
0.00509155
0.00492928
0.00479577
0.00478916
0.00491255
0.00505757
0.0051575
0.00520292
0.00519815
0.00514463
0.00504264
0.00489726
0.00472139
0.00453209
0.00433928
0.00413834
0.00391338
0.00364877
0.00334589
0.00303839
0.00276935
0.00251948
0.00228391
0.0054592
0.00568905
0.00578205
0.0058032
0.00576702
0.00565253
0.00547164
0.0053518
0.0053645
0.00540842
0.00539483
0.00530975
0.00516927
0.00499417
0.00482159
0.00473073
0.00479011
0.004934
0.00505527
0.00512028
0.00512979
0.00508561
0.00498611
0.00483044
0.00462567
0.0043918
0.00415779
0.00394562
0.00375026
0.0035415
0.00329856
0.00303183
0.00275832
0.00245813
0.00211766
0.00567927
0.00579577
0.00584253
0.00585277
0.0058323
0.00575773
0.00560685
0.00546237
0.00545027
0.00551526
0.00554339
0.00549437
0.00537561
0.00520468
0.0050026
0.00481303
0.0047215
0.00477411
0.004891
0.0049858
0.00503045
0.00501875
0.00494619
0.0048077
0.00460296
0.00434245
0.00405344
0.00377872
0.00355483
0.00337705
0.00320499
0.00301215
0.00278857
0.0024956
0.00206477
0.00585508
0.00583513
0.00579359
0.00575491
0.00572074
0.00569336
0.00563597
0.00553751
0.00550854
0.00557987
0.0056578
0.00567251
0.00560921
0.00547661
0.00528728
0.00505935
0.00484171
0.00472777
0.00476524
0.00487718
0.00497412
0.00502225
0.00501296
0.00493753
0.00478665
0.00455624
0.00425504
0.00391257
0.00358041
0.00330927
0.00310859
0.00294599
0.00278187
0.00255192
0.00210966
0.00594933
0.00579867
0.00565732
0.00553785
0.00543836
0.00542074
0.00547732
0.00550534
0.00552206
0.00559805
0.00570876
0.00579045
0.0058085
0.0057568
0.0056401
0.00546531
0.00523826
0.00497666
0.00474086
0.00462113
0.00464072
0.00472389
0.0047969
0.00482627
0.0047954
0.00468913
0.00449593
0.00421717
0.00387695
0.00352566
0.00322251
0.00299504
0.0028187
0.00261354
0.00220685
0.00626374
0.00597016
0.00572871
0.00550672
0.00527756
0.00517536
0.0052621
0.00539098
0.00549661
0.00560901
0.00573305
0.00583863
0.00589973
0.00590447
0.00584915
0.00573635
0.00557061
0.00535609
0.0051021
0.00484268
0.00465249
0.00458713
0.004612
0.00465686
0.00468038
0.00465976
0.00457476
0.00440709
0.00415151
0.00383075
0.003501
0.0032224
0.00300422
0.00276893
0.00233859
0.00678498
0.00626786
0.00594018
0.00563014
0.00526418
0.00504664
0.00509768
0.00524562
0.005398
0.00555937
0.00572188
0.00585884
0.00595075
0.0059894
0.00597209
0.00590094
0.00577961
0.00561004
0.00539125
0.00512521
0.00483842
0.00459963
0.00447301
0.00444421
0.0044544
0.00446062
0.00443707
0.00436281
0.00422051
0.00400587
0.00374338
0.00348032
0.00323593
0.00293392
0.00236213
0.00747531
0.00655778
0.00613555
0.00575519
0.0052969
0.00501582
0.00503662
0.00517136
0.00531606
0.00546877
0.00563067
0.00578255
0.00590384
0.00598145
0.00600825
0.00598336
0.00590929
0.00578852
0.00561974
0.00539676
0.00511722
0.00480631
0.00453282
0.00435996
0.00427568
0.00422911
0.00418054
0.00410625
0.0039952
0.00384589
0.00365973
0.00344855
0.00321335
0.00287006
0.00221023
0.00751171
0.00650093
0.00609711
0.00571836
0.00525577
0.00492488
0.00487452
0.00499455
0.00516554
0.00534028
0.00550661
0.00565809
0.00578646
0.0058837
0.00594118
0.0059537
0.00592056
0.00584357
0.0057232
0.0055548
0.00532899
0.00504223
0.00472052
0.00443089
0.00422517
0.00408742
0.00396927
0.00383311
0.00366371
0.00347404
0.00328584
0.003104
0.00290701
0.00260811
0.00202027
0.00683247
0.00637064
0.00618597
0.00594105
0.00554819
0.00507352
0.00472685
0.00462973
0.00473093
0.00493023
0.00515471
0.00536699
0.00555105
0.00569913
0.00580501
0.0058637
0.00587415
0.00583891
0.00576152
0.00564194
0.00547404
0.00524889
0.00496617
0.00465587
0.00437591
0.00415552
0.00396956
0.00377669
0.00355198
0.0033061
0.00307995
0.00289841
0.00273742
0.00251416
0.0019972
0.00598597
0.00641903
0.0065549
0.00652984
0.00632442
0.00586854
0.00521663
0.00463276
0.00431987
0.00429151
0.00445494
0.00470533
0.00497177
0.00521743
0.005423
0.00557545
0.00566832
0.00570222
0.00568307
0.00561616
0.00550132
0.00533358
0.00510741
0.00483312
0.0045565
0.00432803
0.00414255
0.00395766
0.00374331
0.00350188
0.00327108
0.00308496
0.00292813
0.00271504
0.00211593
0.00558074
0.006613
0.00699741
0.00717698
0.00721365
0.00704361
0.00656094
0.00576304
0.00490074
0.00425897
0.00396264
0.00397286
0.00417166
0.00444986
0.00474004
0.00500245
0.00521175
0.00535319
0.00542435
0.00543088
0.00537844
0.00526786
0.00509386
0.00485445
0.00458016
0.0043474
0.00420158
0.00408699
0.00394111
0.00375054
0.00354156
0.003347
0.0031592
0.00288002
0.002122
0.00539721
0.00654744
0.00705117
0.00737495
0.00762164
0.00775697
0.00771033
0.00736211
0.0066099
0.00558956
0.00462239
0.00396426
0.00369486
0.00373894
0.00396338
0.00426043
0.00456056
0.00481921
0.00500718
0.00511338
0.00514102
0.00509623
0.00497893
0.00478184
0.00450847
0.00421587
0.00402061
0.00395176
0.00390497
0.00380354
0.00364516
0.00345738
0.00324115
0.00289053
0.00202241
0.00535589
0.00640251
0.00688728
0.0072302
0.00755451
0.00785967
0.00810297
0.00821538
0.008094
0.0075875
0.00663711
0.00546608
0.00441835
0.00374003
0.00348841
0.0035648
0.00382277
0.0041444
0.00445173
0.00469142
0.00483902
0.00489405
0.00486255
0.00474316
0.00452645
0.00421735
0.00389418
0.0036919
0.0036291
0.00359434
0.00351434
0.00338237
0.0031925
0.00283989
0.00196187
0.00543483
0.00636968
0.00681432
0.00712009
0.0074093
0.00771055
0.00802346
0.00831594
0.00852967
0.00859346
0.00840328
0.00780306
0.00673083
0.00543844
0.00429798
0.00357285
0.00331887
0.00341539
0.00369566
0.00402963
0.00432482
0.00453007
0.00463407
0.00464189
0.00455276
0.00435531
0.00405418
0.00372503
0.00348973
0.00337331
0.00330039
0.00321152
0.00307479
0.00279245
0.0020441
0.005763
0.00659493
0.00702955
0.00733584
0.00761858
0.00789299
0.00815251
0.00839055
0.00860153
0.00876372
0.00884129
0.00878613
0.00851058
0.00785214
0.00670946
0.00533613
0.00415496
0.00346379
0.00328234
0.00343187
0.00372541
0.00402683
0.0042579
0.00439547
0.00444028
0.00439085
0.00423587
0.00397605
0.00366966
0.00341216
0.00323933
0.00311621
0.00299397
0.00278152
0.00223356
0.00632086
0.00675568
0.00708561
0.00739309
0.0077533
0.00815297
0.00851736
0.00878276
0.00894485
0.00903107
0.00906069
0.00903423
0.00893967
0.00874706
0.00836696
0.00759888
0.00631391
0.00486533
0.00379218
0.00332285
0.00331287
0.00352895
0.00379667
0.00401656
0.00415589
0.0042142
0.00419094
0.00407646
0.00387049
0.00361307
0.00337435
0.00319603
0.00305619
0.00286724
0.00242075
0.00676836
0.00661749
0.00676545
0.00703062
0.007468
0.00804648
0.00861023
0.00902657
0.00926992
0.0093729
0.00937396
0.00930283
0.00917825
0.00900852
0.00878694
0.00846991
0.00791391
0.00683751
0.00534118
0.00410188
0.00348816
0.00336914
0.00349852
0.00369455
0.00385364
0.00394522
0.00396953
0.00392918
0.00383114
0.00369429
0.00353282
0.00337386
0.00322201
0.00299413
0.00245398
0.00663369
0.00614202
0.0062019
0.0064582
0.00695388
0.00763153
0.00829994
0.00881844
0.00916015
0.00935168
0.00942291
0.00939476
0.00928425
0.00910774
0.00887775
0.00859191
0.00821176
0.00761514
0.00656225
0.00517232
0.00410599
0.00360372
0.00348857
0.00355734
0.003662
0.00372463
0.00372269
0.00365441
0.00354186
0.00344804
0.00338293
0.00329194
0.00315344
0.00287716
0.00224754
0.00616402
0.00573662
0.00581156
0.00604206
0.00645318
0.00700356
0.00758365
0.00809472
0.00849055
0.00876502
0.00892718
0.00898733
0.00895302
0.0088315
0.00862867
0.00834338
0.00795394
0.00740077
0.00658802
0.00551516
0.00453181
0.00394514
0.00369799
0.0036412
0.00365298
0.00364455
0.00356928
0.00340557
0.0031688
0.00295751
0.00285515
0.00279594
0.00270135
0.00247085
0.00192239
0.00559117
0.0054977
0.00558145
0.00568712
0.00584725
0.00610925
0.00649109
0.00693302
0.00734817
0.00768029
0.0079075
0.00802622
0.00803955
0.00795019
0.00775584
0.00744329
0.00698896
0.00638274
0.00567916
0.00501027
0.00449057
0.0041415
0.00392965
0.00381705
0.00375355
0.00367571
0.00353225
0.00329494
0.00297351
0.00265578
0.00245456
0.00235762
0.00227805
0.00211836
0.00162923
0.00515699
0.0054698
0.00559597
0.0056368
0.00563582
0.00562806
0.00568856
0.00587663
0.00616067
0.00645702
0.00669423
0.00683144
0.00685011
0.00674691
0.00653461
0.00624712
0.00592957
0.00561129
0.00529615
0.0049856
0.0046961
0.00444761
0.00425006
0.00410006
0.0039733
0.00383354
0.0036515
0.0034114
0.00311977
0.00282448
0.00259825
0.00245558
0.00234127
0.00215739
0.00152183
0.00503247
0.00572672
0.00603446
0.00619908
0.00628603
0.00626356
0.00611123
0.00591211
0.00579522
0.00581076
0.00592045
0.00605605
0.00616221
0.0062085
0.00618377
0.00608466
0.0059126
0.00567834
0.00540657
0.00512916
0.00487218
0.00465485
0.0044959
0.00440598
0.00435342
0.00426399
0.0040984
0.00387319
0.00361459
0.00335687
0.00313782
0.00296539
0.00279915
0.00252135
0.00158414
0.00550976
0.00616556
0.0065274
0.0067731
0.00697991
0.00712933
0.00716055
0.00702017
0.00673963
0.00643188
0.00619866
0.00607747
0.00605054
0.00607079
0.00608502
0.0060479
0.00593553
0.00574861
0.0055058
0.00523023
0.00493898
0.00464954
0.00439512
0.00423973
0.00424948
0.00438188
0.00446307
0.00440299
0.00424236
0.00403236
0.00380825
0.00358232
0.00332056
0.00286277
0.00155951
0.00636336
0.00657241
0.00679556
0.00699711
0.0072032
0.00738749
0.0075282
0.00759397
0.00753002
0.00732411
0.00700858
0.00664515
0.00631523
0.00608827
0.00597387
0.00591515
0.00584755
0.00573625
0.00557185
0.00535499
0.00508828
0.00477349
0.00441849
0.00406367
0.0038207
0.00383046
0.00406796
0.00429466
0.00436665
0.00430425
0.00414651
0.00390964
0.00355921
0.00289747
0.00139234
0.00661388
0.00661733
0.0068084
0.00704155
0.00731061
0.00751598
0.00761691
0.00766061
0.00765507
0.0075831
0.00743262
0.00719255
0.00686639
0.00650665
0.00620571
0.0060077
0.00587798
0.00576292
0.0056275
0.00545351
0.00522976
0.0049461
0.00459297
0.00417071
0.00372284
0.00337913
0.00329549
0.00344506
0.00362464
0.0037023
0.00365865
0.00349734
0.0031813
0.00252872
0.00121193
0.00619608
0.00629764
0.00652025
0.00681809
0.00722079
0.0075615
0.00772792
0.0077665
0.00774176
0.00767893
0.00757859
0.00743057
0.00721827
0.00693063
0.00659647
0.00629226
0.00606938
0.005912
0.00577497
0.00562395
0.00543824
0.00520247
0.00490258
0.004526
0.00407042
0.00357183
0.00313544
0.00287708
0.00279473
0.00278436
0.00275762
0.00267211
0.0024857
0.00206509
0.00112191
0.00597695
0.00595392
0.00608738
0.00634982
0.00682692
0.00734201
0.00769007
0.00785657
0.00789708
0.00785778
0.00776562
0.00763203
0.00745667
0.00723111
0.00695025
0.00663691
0.00634979
0.00613182
0.00597078
0.00582857
0.00567611
0.00549344
0.00526513
0.00497795
0.00462053
0.00419034
0.00371253
0.00325352
0.00288878
0.00264331
0.00248534
0.00236552
0.00222979
0.00195898
0.00114722
0.00580283
0.00554126
0.00556127
0.00575935
0.00624895
0.00689331
0.00742455
0.00776142
0.00793825
0.00799857
0.00797259
0.00787927
0.00772966
0.00752779
0.00727411
0.0069757
0.00666462
0.00639279
0.00618761
0.00602851
0.00588569
0.00573543
0.00556053
0.00534775
0.00508558
0.00476599
0.00438982
0.00397649
0.00356846
0.00321401
0.00293668
0.00272352
0.00252855
0.0022185
0.00123923
0.00544367
0.00515017
0.00510424
0.00518486
0.0055069
0.00610156
0.00674977
0.00726443
0.00761089
0.00781752
0.00791556
0.00792539
0.00785933
0.00772414
0.00752338
0.00726193
0.00696042
0.00666291
0.00641479
0.00622245
0.00606637
0.00592259
0.00577193
0.00560037
0.00539641
0.00515159
0.0048618
0.00453125
0.00417728
0.00382905
0.00351345
0.0032367
0.00296902
0.00256265
0.00134398
0.00537157
0.00522142
0.00515722
0.00510167
0.00509719
0.00533191
0.00586479
0.00647963
0.00698767
0.00734602
0.00757609
0.00770295
0.00774301
0.00770512
0.00759252
0.00740626
0.00715744
0.00687868
0.0066175
0.0063998
0.0062232
0.00607052
0.00592381
0.00576811
0.00559167
0.00538568
0.00514422
0.00486645
0.00455898
0.00423673
0.00391714
0.00360818
0.00328935
0.00280499
0.00142057
0.00558386
0.00565815
0.00570984
0.00567984
0.00554856
0.00538438
0.00547616
0.00590257
0.00642428
0.00685947
0.00717212
0.00737812
0.00749586
0.00753632
0.00750228
0.00739339
0.00721421
0.0069862
0.00674758
0.0065297
0.00634349
0.006182
0.00603188
0.00587937
0.00571327
0.00552477
0.00530739
0.00505791
0.004778
0.00447505
0.00415931
0.00383617
0.00348823
0.00295629
0.00148594
0.0057568
0.00608431
0.00630517
0.00639151
0.00633009
0.00605655
0.00572161
0.00572095
0.00606014
0.00647322
0.00681527
0.0070625
0.00722586
0.00731563
0.0073353
0.00728454
0.00716547
0.0069927
0.00679362
0.006596
0.00641555
0.00625303
0.00610064
0.00594768
0.00578449
0.00560282
0.00539598
0.00515961
0.00489302
0.00459988
0.0042865
0.00395618
0.0035915
0.00303065
0.0015239
0.00596244
0.00641863
0.00672082
0.00690299
0.00696606
0.00680878
0.00636094
0.00593426
0.00591969
0.00619555
0.00651537
0.0067773
0.00696667
0.00708768
0.00714395
0.00713565
0.00706394
0.0069378
0.00677683
0.00660405
0.0064358
0.00627733
0.00612531
0.00597245
0.00581112
0.005634
0.00543444
0.00520738
0.00495055
0.00466539
0.00435586
0.00402379
0.00365123
0.00307495
0.00155734
0.00623342
0.00650984
0.00677389
0.00701488
0.00722969
0.00728928
0.00704632
0.00652967
0.00615973
0.00616816
0.00637099
0.00659275
0.00677309
0.00689968
0.00697184
0.00698857
0.00694957
0.0068587
0.0067286
0.00657777
0.00642145
0.00626715
0.00611484
0.00596038
0.00579829
0.00562242
0.00542642
0.0052047
0.004954
0.00467444
0.00436861
0.00403729
0.00366075
0.00307385
0.00156216
0.0064639
0.0064056
0.00655964
0.00680088
0.00712134
0.00735459
0.00734571
0.00705363
0.00663886
0.00642502
0.00645252
0.00657539
0.00670216
0.00680061
0.00686154
0.00688044
0.00685424
0.00678182
0.00666973
0.00653192
0.00638151
0.00622678
0.0060699
0.00590943
0.00574227
0.00556398
0.00536899
0.0051515
0.00490717
0.00463458
0.00433484
0.00400744
0.00363012
0.00303599
0.001541
0.00651562
0.00620989
0.00628919
0.00654968
0.00695262
0.00727067
0.00737024
0.00726034
0.00700897
0.00677778
0.00668931
0.00670558
0.00675654
0.00680438
0.00683354
0.00683584
0.00680529
0.00673714
0.00663266
0.00650075
0.00635115
0.00619123
0.00602413
0.00585035
0.00566908
0.00547827
0.00527445
0.00505305
0.00480987
0.00454267
0.00425109
0.00393283
0.00356187
0.00296962
0.00150025
0.00623056
0.00583987
0.00593072
0.00626935
0.00677382
0.0071587
0.00732779
0.00732655
0.00721475
0.00706473
0.00695337
0.00690141
0.00688454
0.00687736
0.00686494
0.00683808
0.00678966
0.00671306
0.00660608
0.00647343
0.00632118
0.00615461
0.00597629
0.00578722
0.00558794
0.00537849
0.00515802
0.00492456
0.00467564
0.00440942
0.00412451
0.00381643
0.00345411
0.00286699
0.00142737
0.00560427
0.00536552
0.00551741
0.00587465
0.00639161
0.00685147
0.00714469
0.00727908
0.00729472
0.00723737
0.00715633
0.00708563
0.00703145
0.00698572
0.00693969
0.00688624
0.00681912
0.00673123
0.00661825
0.00648172
0.00632469
0.00615026
0.00596007
0.00575474
0.00553523
0.0053031
0.00506014
0.00480792
0.00454726
0.00427823
0.00399934
0.00370422
0.0033581
0.00279024
0.00137582
0.00501809
0.00514102
0.00534408
0.00557598
0.00591465
0.00634206
0.00674668
0.00703667
0.00719565
0.00724914
0.00723547
0.00718952
0.00713175
0.00706947
0.00700327
0.00693111
0.00684969
0.00675289
0.00663608
0.00649904
0.00634256
0.00616758
0.00597404
0.00576121
0.00552929
0.00527996
0.00501661
0.00474394
0.00446691
0.00418899
0.00390998
0.00362235
0.00328786
0.00273421
0.00132997
0.00482388
0.00531036
0.0055641
0.00572624
0.00586619
0.00605931
0.00636318
0.00670382
0.00697368
0.00713802
0.00721357
0.0072274
0.0072007