/*--------------------------------*- C++ -*----------------------------------*\
| =========                 |                                                 |
| \\      /  F ield         | OpenFOAM: The Open Source CFD Toolbox           |
|  \\    /   O peration     | Version:  v2006                                 |
|   \\  /    A nd           | Website:  www.openfoam.com                      |
|    \\/     M anipulation  |                                                 |
\*---------------------------------------------------------------------------*/
FoamFile
{
    version     2.0;
    format      ascii;
    class       surfaceScalarField;
    location    "64";
    object      phi;
}
// * * * * * * * * * * * * * * * * * * * * * * * * * * * * * * * * * * * * * //

dimensions      [1 0 -1 0 0 0 0];
oriented        oriented;


internalField   nonuniform List<scalar> 
228225
(
0.000400249
-4.5061e-05
0.000515043
0.000291954
-1.34132e-05
0.000107789
0.00023852
1.15333e-05
5.55705e-05
0.000195952
1.14161e-05
3.53797e-05
0.0001596
9.51215e-06
2.9349e-05
0.000127686
7.16673e-06
2.72061e-05
9.94e-05
6.17307e-06
2.54463e-05
7.56223e-05
6.34971e-06
2.12488e-05
5.85181e-05
6.56255e-06
1.48764e-05
4.62498e-05
6.84691e-06
9.6734e-06
3.74382e-05
7.20992e-06
5.9262e-06
3.18818e-05
8.16879e-06
1.74162e-06
2.96872e-05
8.803e-06
-2.22188e-06
2.97727e-05
9.62407e-06
-5.32054e-06
3.13705e-05
1.00599e-05
-7.30096e-06
3.35006e-05
1.07899e-05
-8.66433e-06
3.52291e-05
1.16423e-05
-9.43076e-06
3.4546e-05
1.30445e-05
-9.13025e-06
2.97901e-05
1.41106e-05
-6.96046e-06
2.20782e-05
1.38739e-05
-4.08766e-06
1.25442e-05
1.22852e-05
-3.17204e-07
3.32122e-06
1.02658e-05
1.97362e-06
-4.58146e-06
8.55965e-06
2.7505e-06
-1.08231e-05
7.34131e-06
2.45956e-06
-1.52249e-05
6.45437e-06
1.52744e-06
-1.7609e-05
5.76811e-06
1.49943e-07
-1.78237e-05
5.25417e-06
-1.59125e-06
-1.6529e-05
4.89162e-06
-2.80659e-06
-1.38032e-05
4.66359e-06
-4.07425e-06
-9.94942e-06
4.57122e-06
-5.15655e-06
-5.24901e-06
4.65504e-06
-6.1192e-06
-2.4182e-07
5.02873e-06
-6.82388e-06
4.01972e-06
5.95771e-06
-7.06095e-06
5.48105e-06
7.76749e-06
-6.23571e-06
9.22968e-06
-9.49865e-07
-1.32644e-05
-6.44623e-06
4.46821e-06
-3.30527e-05
9.36779e-06
4.37924e-06
-4.54001e-05
1.83115e-05
3.96056e-06
-6.26202e-05
1.75874e-05
1.00989e-05
-7.3387e-05
1.23675e-05
9.24243e-06
-8.19736e-05
8.59495e-06
9.64361e-06
-8.90708e-05
6.48043e-06
9.36157e-06
-9.48055e-05
4.79926e-06
9.85367e-06
-9.95151e-05
3.85162e-06
1.02248e-05
-0.000103077
3.38886e-06
1.01824e-05
-0.000105718
3.61376e-06
9.73945e-06
-0.000106931
4.37362e-06
8.73443e-06
-0.000106744
5.07755e-06
7.32515e-06
-0.000104691
5.39179e-06
5.9494e-06
-0.000101024
5.21548e-06
4.93e-06
-9.53747e-05
4.86505e-06
4.01969e-06
-8.82765e-05
4.72072e-06
3.50654e-06
-8.02598e-05
5.3212e-06
3.27394e-06
-7.20779e-05
6.06624e-06
3.34762e-06
-6.44854e-05
6.47425e-06
3.32711e-06
-5.82353e-05
6.62424e-06
2.98815e-06
-5.34777e-05
6.72995e-06
2.35749e-06
-4.96317e-05
6.73487e-06
1.50497e-06
-4.60584e-05
6.69969e-06
5.05738e-07
-4.23043e-05
6.64442e-06
-6.15453e-07
-3.81159e-05
6.58123e-06
-1.79202e-06
-3.36846e-05
6.53581e-06
-2.61608e-06
-2.87847e-05
6.55969e-06
-3.59273e-06
-2.34095e-05
6.71909e-06
-4.58395e-06
-1.75947e-05
7.13213e-06
-5.67301e-06
-1.15547e-05
8.01114e-06
-6.86903e-06
-5.78489e-06
9.68896e-06
-8.13446e-06
-1.12174e-06
1.24046e-05
-9.1214e-06
1.1871e-06
1.55562e-05
-8.37644e-06
1.48249e-05
-2.32293e-06
-2.86101e-05
2.41602e-05
1.55017e-06
-4.2027e-05
2.27967e-05
4.49178e-06
-4.8875e-05
2.20232e-05
6.14336e-06
-5.61102e-05
1.99897e-05
6.82522e-06
-6.26416e-05
1.65851e-05
4.12748e-06
-6.89305e-05
1.42149e-05
2.54649e-06
-7.56315e-05
1.29349e-05
2.11016e-06
-8.31078e-05
1.22042e-05
1.8358e-06
-9.08967e-05
1.17371e-05
1.53325e-06
-9.84663e-05
1.13418e-05
1.12894e-06
-0.000105049
1.08138e-05
8.01036e-07
-0.000110038
1.00109e-05
6.89907e-07
-0.00011333
8.94511e-06
6.79545e-07
-0.000114673
7.11743e-06
7.56821e-07
-0.000114962
5.26701e-06
1.30271e-06
-0.000114463
3.07177e-06
2.69569e-06
-0.00011349
1.62938e-06
4.6095e-06
-0.000110967
1.24842e-06
5.34539e-06
-0.000106774
1.52658e-06
4.21854e-06
-0.000101793
1.79302e-06
3.19007e-06
-9.64054e-05
2.02787e-06
2.56262e-06
-9.05045e-05
2.22622e-06
1.85783e-06
-8.42412e-05
2.4642e-06
1.21781e-06
-7.79028e-05
2.938e-06
5.96329e-07
-7.18172e-05
3.72438e-06
-3.72779e-08
-6.56812e-05
4.27085e-06
-7.46183e-07
-5.92395e-05
4.57719e-06
-1.45e-06
-5.25746e-05
4.87604e-06
-1.98537e-06
-4.54071e-05
5.14615e-06
-2.64255e-06
-3.76895e-05
5.56651e-06
-3.25514e-06
-2.93714e-05
6.23529e-06
-3.73789e-06
-2.09198e-05
7.75383e-06
-3.88561e-06
-1.2662e-05
9.98834e-06
-3.47233e-06
-4.84709e-06
1.20529e-05
-2.07422e-06
1.08934e-05
1.45466e-06
2.90431e-05
-1.62999e-06
9.45357e-07
5.21246e-05
4.43632e-06
-1.33712e-06
6.96161e-05
9.65379e-06
-2.2838e-06
8.14948e-05
1.36674e-05
-3.01548e-06
8.83259e-05
1.64148e-05
-4.15118e-06
9.23823e-05
1.8259e-05
-5.56949e-06
9.44928e-05
1.97322e-05
-6.42248e-06
9.5103e-05
2.07305e-05
-6.69902e-06
9.4593e-05
2.11579e-05
-6.50659e-06
9.31807e-05
2.11191e-05
-6.00183e-06
9.09769e-05
2.07101e-05
-5.38617e-06
8.80954e-05
2.00202e-05
-4.89268e-06
8.46494e-05
1.91034e-05
-4.55218e-06
7.98788e-05
1.80561e-05
-4.0806e-06
7.36392e-05
1.6929e-05
-3.43556e-06
6.55181e-05
1.58318e-05
-2.76597e-06
5.62239e-05
1.49248e-05
-2.21947e-06
4.67034e-05
1.43409e-05
-1.79663e-06
3.75607e-05
1.40939e-05
-1.54693e-06
2.87877e-05
1.39814e-05
-1.37553e-06
2.05987e-05
1.37344e-05
-1.23149e-06
1.31767e-05
1.31654e-05
-9.28554e-07
6.41657e-06
1.22543e-05
-2.63407e-07
5.59317e-07
1.12587e-05
2.76281e-07
-3.90436e-06
1.04656e-05
3.83664e-07
-7.04831e-06
9.96733e-06
6.62562e-08
-9.03754e-06
9.75566e-06
-5.91125e-07
-1.00671e-05
9.7776e-06
-1.28555e-06
-1.02776e-05
9.97639e-06
-2.04051e-06
-9.58065e-06
1.03557e-05
-2.91097e-06
-7.99064e-06
1.09964e-05
-3.7796e-06
-5.37328e-06
1.2106e-05
-4.40216e-06
-2.25927e-06
1.36956e-05
-4.25701e-06
2.82444e-07
1.47751e-05
-2.61285e-06
1.28189e-05
1.12938e-06
1.58853e-05
-2.12462e-05
6.06608e-06
3.55762e-05
-1.90525e-05
6.02915e-06
5.68783e-05
-1.43233e-05
4.89937e-06
7.67273e-05
-7.78376e-06
3.79444e-06
9.25518e-05
-2.39612e-07
2.98459e-06
0.00010413
6.36597e-06
2.44022e-06
0.000112121
1.20461e-05
1.79894e-06
0.000117241
1.65502e-05
1.15169e-06
0.000119808
2.0008e-05
6.95799e-07
0.000120151
2.24852e-05
4.12329e-07
0.000118464
2.42271e-05
2.72742e-07
0.000115027
2.55408e-05
-9.70034e-09
0.000110542
2.66079e-05
-1.00686e-06
0.000104346
2.75082e-05
-1.33847e-06
9.61639e-05
2.81639e-05
-1.27925e-06
8.63103e-05
2.84845e-05
-1.17317e-06
7.54635e-05
2.84823e-05
-1.17414e-06
6.44817e-05
2.82648e-05
-1.39434e-06
5.40527e-05
2.79581e-05
-1.78011e-06
4.44974e-05
2.75681e-05
-2.22246e-06
3.58865e-05
2.69739e-05
-2.62993e-06
2.81912e-05
2.59946e-05
-2.86078e-06
2.12137e-05
2.45207e-05
-2.75277e-06
1.46822e-05
2.27226e-05
-2.38229e-06
8.67418e-06
2.09131e-05
-2.03986e-06
3.48608e-06
1.93123e-05
-1.88376e-06
-6.78779e-07
1.80283e-05
-1.89394e-06
-3.74437e-06
1.7054e-05
-2.01828e-06
-5.6857e-06
1.63405e-05
-2.23798e-06
-6.47297e-06
1.58815e-05
-2.5546e-06
-6.0933e-06
1.57199e-05
-2.90978e-06
-4.55888e-06
1.5906e-05
-3.1155e-06
-2.10619e-06
1.62947e-05
-2.78065e-06
1.17209e-07
1.61953e-05
-1.31663e-06
1.34881e-05
1.76587e-06
7.92427e-06
-3.39172e-05
6.30813e-06
1.62828e-05
-3.33373e-05
7.41507e-06
2.41638e-05
-2.76998e-05
7.02853e-06
3.08691e-05
-1.88141e-05
5.93868e-06
3.68767e-05
-9.27936e-06
4.74985e-06
4.18539e-05
-4.06158e-07
3.56219e-06
4.56138e-05
7.36487e-06
2.66802e-06
4.79511e-05
1.37256e-05
2.17853e-06
4.9073e-05
1.89223e-05
1.59895e-06
4.91489e-05
2.29935e-05
1.00419e-06
4.84241e-05
2.60298e-05
4.69771e-07
4.69226e-05
2.8325e-05
2.37337e-07
4.46336e-05
3.01453e-05
2.46331e-07
4.17282e-05
3.15973e-05
2.81587e-07
3.84181e-05
3.26758e-05
2.4714e-07
3.49327e-05
3.33673e-05
6.84522e-08
3.15661e-05
3.36975e-05
-3.29775e-07
2.85134e-05
3.37281e-05
-7.91487e-07
2.5881e-05
3.35248e-05
-1.17998e-06
2.38194e-05
3.30355e-05
-1.49549e-06
2.24024e-05
3.21531e-05
-1.63961e-06
2.1445e-05
3.08523e-05
-1.53279e-06
2.0312e-05
2.92898e-05
-1.1869e-06
1.84248e-05
2.77155e-05
-7.89092e-07
1.57603e-05
2.62919e-05
-5.83407e-07
1.26169e-05
2.5052e-05
-5.90193e-07
9.40393e-06
2.39632e-05
-7.67497e-07
6.53753e-06
2.29867e-05
-1.11147e-06
4.26848e-06
2.21125e-05
-1.51039e-06
2.71753e-06
2.13713e-05
-1.87773e-06
1.93604e-06
2.0805e-05
-2.14978e-06
1.9017e-06
2.0423e-05
-2.22496e-06
2.29171e-06
2.01118e-05
-1.85093e-06
2.10093e-06
1.9344e-05
-6.34921e-07
1.54091e-05
2.07355e-06
-1.07451e-05
-3.06825e-05
8.79324e-06
-1.9014e-05
-3.23782e-05
8.54913e-06
-2.38376e-05
-2.77824e-05
6.25559e-06
-2.61112e-05
-1.97199e-05
4.63546e-06
-2.69841e-05
-1.07356e-05
3.87411e-06
-2.65764e-05
-2.75361e-06
3.54795e-06
-2.57448e-05
4.64207e-06
3.53099e-06
-2.50505e-05
1.10149e-05
3.66156e-06
-2.46202e-05
1.63191e-05
3.80787e-06
-2.46102e-05
2.07399e-05
3.86e-06
-2.49716e-05
2.42397e-05
3.74687e-06
-2.54233e-05
2.68854e-05
3.47371e-06
-2.55525e-05
2.87686e-05
3.08363e-06
-2.4971e-05
2.99954e-05
2.60451e-06
-2.33658e-05
3.0695e-05
1.98152e-06
-2.0575e-05
3.09794e-05
1.24524e-06
-1.65939e-05
3.08902e-05
5.36077e-07
-1.13543e-05
3.04332e-05
-1.64766e-07
-5.05902e-06
2.97753e-05
-6.81379e-07
1.86172e-06
2.9171e-05
-1.0854e-06
8.70496e-06
2.87066e-05
-1.32007e-06
1.46293e-05
2.83928e-05
-1.33811e-06
1.89957e-05
2.81602e-05
-1.16514e-06
2.17333e-05
2.77948e-05
-8.87301e-07
2.31378e-05
2.7265e-05
-6.16465e-07
2.35569e-05
2.67112e-05
-4.65888e-07
2.32265e-05
2.62024e-05
-4.09384e-07
2.23569e-05
2.57698e-05
-4.95793e-07
2.11099e-05
2.54469e-05
-7.26781e-07
1.95834e-05
2.52868e-05
-1.06945e-06
1.77315e-05
2.53551e-05
-1.4082e-06
1.52921e-05
2.56649e-05
-1.53305e-06
1.18322e-05
2.59678e-05
-1.12298e-06
6.65299e-06
2.54696e-05
2.98924e-07
2.05311e-05
2.52241e-06
-2.42889e-05
-1.55341e-05
1.01522e-05
-4.3237e-05
-2.19505e-05
9.62433e-06
-5.31098e-05
-2.44539e-05
7.64272e-06
-5.47658e-05
-2.30423e-05
6.05822e-06
-4.97049e-05
-1.95717e-05
4.86532e-06
-4.04791e-05
-1.46463e-05
3.79159e-06
-2.88667e-05
-8.76466e-06
2.96725e-06
-1.66737e-05
-2.5016e-06
2.5566e-06
-5.21422e-06
3.4487e-06
2.70813e-06
4.59391e-06
9.09414e-06
3.1998e-06
1.25056e-05
1.40322e-05
3.72031e-06
1.84839e-05
1.83391e-05
4.0513e-06
2.26852e-05
2.19138e-05
4.19189e-06
2.52564e-05
2.47861e-05
4.22846e-06
2.64244e-05
2.69873e-05
4.17416e-06
2.64349e-05
2.86032e-05
4.03663e-06
2.53783e-05
2.97914e-05
3.8666e-06
2.32839e-05
3.05066e-05
3.77809e-06
2.05007e-05
3.05595e-05
3.78036e-06
1.74858e-05
3.01747e-05
3.7715e-06
1.45364e-05
2.96534e-05
3.69495e-06
1.18883e-05
2.91006e-05
3.52436e-06
9.75158e-06
2.8519e-05
3.22398e-06
8.11888e-06
2.79306e-05
2.79157e-06
6.7789e-06
2.74799e-05
2.28153e-06
5.48079e-06
2.7291e-05
1.76482e-06
4.04946e-06
2.72601e-05
1.32938e-06
2.562e-06
2.72139e-05
9.31311e-07
1.14898e-06
2.70783e-05
6.20961e-07
-1.89784e-08
2.68706e-05
3.81222e-07
-7.67081e-07
2.66247e-05
2.26313e-07
-1.02079e-06
2.63025e-05
2.83502e-07
-7.94544e-07
2.55966e-05
7.33718e-07
-3.57171e-07
2.37581e-05
1.78952e-06
1.75637e-05
3.10199e-06
-1.64298e-05
-5.07126e-06
6.72802e-06
-2.95847e-05
-1.48052e-05
6.82231e-06
-3.91388e-05
-2.08447e-05
6.84119e-06
-4.51427e-05
-2.34317e-05
7.29979e-06
-4.74406e-05
-2.38919e-05
7.51869e-06
-4.60431e-05
-2.27136e-05
7.55459e-06
-4.10563e-05
-2.02534e-05
7.35753e-06
-3.25067e-05
-1.72096e-05
7.00095e-06
-2.10755e-05
-1.37182e-05
6.57994e-06
-7.55868e-06
-9.78702e-06
6.22008e-06
6.88109e-06
-5.59692e-06
6.0633e-06
2.14171e-05
-1.39637e-06
6.09718e-06
3.52226e-05
2.84503e-06
6.18923e-06
4.75202e-05
7.23817e-06
6.2072e-06
5.77256e-05
1.16973e-05
6.07514e-06
6.54724e-05
1.61287e-05
5.75631e-06
7.04718e-05
2.05951e-05
5.26886e-06
7.24215e-05
2.49297e-05
4.73719e-06
7.12417e-05
2.85912e-05
4.26401e-06
6.73822e-05
3.13939e-05
3.72467e-06
6.17905e-05
3.33509e-05
2.93718e-06
5.51939e-05
3.45912e-05
2.10958e-06
4.83092e-05
3.47793e-05
1.58246e-06
4.17819e-05
3.39628e-05
1.39851e-06
3.59983e-05
3.28209e-05
1.28812e-06
3.12478e-05
3.17956e-05
1.04118e-06
2.75483e-05
3.09931e-05
7.23165e-07
2.44883e-05
3.04521e-05
5.49076e-07
2.14205e-05
3.01789e-05
6.80895e-07
1.80086e-05
3.00384e-05
9.77658e-07
1.43404e-05
2.9783e-05
1.31435e-06
1.06312e-05
2.90891e-05
1.86444e-06
6.99713e-06
2.75476e-05
2.8245e-06
3.31699e-06
2.4639e-05
4.1089e-06
1.73604e-05
4.64772e-06
6.6743e-06
-1.3757e-05
2.69493e-06
1.44361e-05
-2.39937e-05
2.16406e-06
2.02529e-05
-2.75401e-05
1.59069e-06
2.46995e-05
-2.84505e-05
1.24028e-06
2.8397e-05
-2.81075e-05
1.15427e-06
3.20832e-05
-2.70792e-05
1.30135e-06
3.63965e-05
-2.56083e-05
1.66055e-06
4.13835e-05
-2.37512e-05
2.17532e-06
4.7057e-05
-2.15507e-05
2.78455e-06
5.35359e-05
-1.90611e-05
3.4272e-06
6.08849e-05
-1.63687e-05
4.06123e-06
6.89808e-05
-1.3519e-05
4.67093e-06
7.77265e-05
-1.05394e-05
5.28687e-06
8.70587e-05
-7.36908e-06
5.92441e-06
9.6781e-05
-3.97617e-06
6.60518e-06
0.000106389
-9.57619e-08
7.26833e-06
0.000115374
4.44583e-06
7.82014e-06
0.000123203
9.58483e-06
8.19386e-06
0.000129136
1.49897e-05
8.37346e-06
0.000132427
2.051e-05
8.3203e-06
0.000132598
2.58934e-05
8.02607e-06
0.000129383
3.11158e-05
7.42922e-06
0.000122347
3.58535e-05
6.64591e-06
0.00011197
3.90711e-05
5.87971e-06
9.98863e-05
4.03321e-05
5.12438e-06
8.76283e-05
4.02441e-05
4.31852e-06
7.62588e-05
3.93351e-05
3.5109e-06
6.63124e-05
3.80444e-05
2.83237e-06
5.77772e-05
3.68129e-05
2.39569e-06
5.01592e-05
3.59162e-05
2.27276e-06
4.27352e-05
3.53561e-05
2.44709e-06
3.46589e-05
3.49005e-05
2.95675e-06
2.50144e-05
3.41432e-05
3.87352e-06
1.30705e-05
3.24986e-05
5.06411e-06
2.63777e-05
5.03846e-06
1.02551e-05
-2.5358e-05
1.75399e-06
1.85128e-05
-3.42298e-05
2.33408e-06
2.47249e-05
-3.59178e-05
2.44865e-06
2.99399e-05
-3.58896e-05
2.45571e-06
3.47494e-05
-3.51493e-05
2.4295e-06
3.9366e-05
-3.39056e-05
2.38459e-06
4.3826e-05
-3.22372e-05
2.33517e-06
4.81488e-05
-3.01916e-05
2.29206e-06
5.23447e-05
-2.78179e-05
2.27337e-06
5.64459e-05
-2.52252e-05
2.30983e-06
6.05381e-05
-2.25949e-05
2.43728e-06
6.47796e-05
-2.00863e-05
2.69032e-06
6.92927e-05
-1.77276e-05
3.09702e-06
7.41316e-05
-1.54548e-05
3.7094e-06
7.91794e-05
-1.31317e-05
4.57622e-06
8.4386e-05
-1.03905e-05
5.50389e-06
8.95298e-05
-6.63462e-06
6.29121e-06
9.44931e-05
-1.91409e-06
6.87363e-06
9.94653e-05
3.10049e-06
7.28615e-06
0.000103925
8.89794e-06
7.58884e-06
0.000107306
1.52765e-05
7.75189e-06
0.000109096
2.226e-05
7.67391e-06
0.000108248
3.02004e-05
7.1749e-06
0.000103746
3.80057e-05
6.19467e-06
9.6147e-05
4.34505e-05
5.00018e-06
8.71008e-05
4.59044e-05
3.81531e-06
7.76451e-05
4.645e-05
2.71742e-06
6.83673e-05
4.57865e-05
1.88574e-06
5.96234e-05
4.43081e-05
1.58412e-06
5.14298e-05
4.25724e-05
1.85185e-06
4.3364e-05
4.11619e-05
2.51277e-06
3.46138e-05
4.0372e-05
3.37757e-06
2.43067e-05
4.00218e-05
4.28314e-06
1.21837e-05
3.92625e-05
5.01461e-06
3.38768e-05
4.48895e-06
1.65338e-06
-2.69806e-05
-6.91178e-08
5.54707e-06
-3.81892e-05
5.71268e-08
1.01394e-05
-4.06746e-05
2.1591e-07
1.51706e-05
-4.10511e-05
2.14759e-07
2.05895e-05
-4.05828e-05
1.20813e-07
2.63865e-05
-3.95454e-05
-3.14713e-08
3.24496e-05
-3.80058e-05
-1.49488e-07
3.85842e-05
-3.59058e-05
-2.52659e-07
4.43893e-05
-3.3115e-05
-3.08147e-07
4.93794e-05
-2.96962e-05
-2.71429e-07
5.33384e-05
-2.61288e-05
-1.10682e-07
5.62003e-05
-2.28874e-05
3.43454e-07
5.80696e-05
-2.01024e-05
1.02068e-06
5.91744e-05
-1.78705e-05
1.9348e-06
6.00522e-05
-1.62917e-05
2.95188e-06
6.09897e-05
-1.45899e-05
3.77783e-06
6.17356e-05
-1.13469e-05
4.18867e-06
6.20946e-05
-6.5609e-06
4.32564e-06
6.22678e-05
-1.49146e-06
4.42376e-06
6.31155e-05
3.52375e-06
4.59612e-06
6.48633e-05
8.85057e-06
4.85648e-06
6.71597e-05
1.5097e-05
5.17032e-06
6.93454e-05
2.30472e-05
5.37318e-06
6.99369e-05
3.26128e-05
5.18466e-06
6.75284e-05
4.15643e-05
4.51925e-06
6.26633e-05
4.72104e-05
3.64082e-06
5.66642e-05
4.97254e-05
2.72015e-06
5.01253e-05
5.04253e-05
1.84498e-06
4.31708e-05
4.99796e-05
1.17596e-06
3.58114e-05
4.88296e-05
9.1204e-07
2.80391e-05
4.74944e-05
1.12306e-06
1.98729e-05
4.63377e-05
1.7242e-06
1.15435e-05
4.52158e-05
2.51385e-06
3.85705e-06
4.28779e-05
3.22132e-06
3.36168e-05
3.07943e-06
6.62452e-06
-3.40108e-05
6.49969e-07
1.30668e-05
-4.59524e-05
1.55914e-06
1.86888e-05
-4.78458e-05
1.8188e-06
2.37441e-05
-4.76318e-05
1.80623e-06
2.83233e-05
-4.65675e-05
1.68139e-06
3.24809e-05
-4.49062e-05
1.46317e-06
3.62405e-05
-4.26629e-05
1.12836e-06
3.95177e-05
-3.9649e-05
6.55161e-07
4.20261e-05
-3.54995e-05
1.92296e-08
4.33635e-05
-3.03043e-05
-6.19337e-07
4.38023e-05
-2.52825e-05
-1.1801e-06
4.39477e-05
-2.14473e-05
-1.44658e-06
4.39944e-05
-1.85809e-05
-1.31206e-06
4.42171e-05
-1.68338e-05
-7.78436e-07
4.52666e-05
-1.67112e-05
-4.76979e-09
4.59886e-05
-1.54024e-05
7.99086e-07
4.49703e-05
-1.08907e-05
1.09125e-06
4.27447e-05
-4.88105e-06
7.6325e-07
3.99799e-05
9.53409e-07
4.13693e-07
3.73935e-05
5.80361e-06
4.01191e-07
3.55065e-05
1.01715e-05
7.07633e-07
3.47124e-05
1.48428e-05
1.25809e-06
3.52437e-05
2.07957e-05
1.98579e-06
3.68412e-05
2.8603e-05
2.64324e-06
3.81336e-05
3.74087e-05
2.92732e-06
3.7558e-05
4.4864e-05
2.79504e-06
3.50246e-05
4.95569e-05
2.4485e-06
3.11784e-05
5.19097e-05
2.02588e-06
2.64119e-05
5.27533e-05
1.60673e-06
2.09376e-05
5.26138e-05
1.29152e-06
1.51003e-05
5.17805e-05
1.19296e-06
9.40271e-06
5.03814e-05
1.4131e-06
4.3649e-06
4.82233e-05
1.97352e-06
5.32061e-07
4.40821e-05
2.77225e-06
3.19422e-05
2.50312e-06
4.94759e-06
-3.84458e-05
-3.31563e-07
7.65022e-06
-4.84301e-05
-7.59752e-08
9.04059e-06
-4.9372e-05
2.64945e-07
9.92252e-06
-4.89219e-05
5.34258e-07
1.06308e-05
-4.78868e-05
7.47842e-07
1.13316e-05
-4.63681e-05
9.16094e-07
1.20751e-05
-4.42604e-05
1.02912e-06
1.27353e-05
-4.11642e-05
1.04639e-06
1.30314e-05
-3.64715e-05
8.63923e-07
1.28039e-05
-3.03635e-05
4.19801e-07
1.22652e-05
-2.46911e-05
-2.09822e-08
1.23842e-05
-2.14615e-05
-2.04218e-07
1.36579e-05
-2.00063e-05
-4.70036e-08
1.6518e-05
-2.05541e-05
7.40997e-07
1.96554e-05
-2.19943e-05
2.24756e-06
2.04185e-05
-1.8864e-05
2.8678e-06
1.93526e-05
-1.19019e-05
2.15274e-06
1.82211e-05
-4.56646e-06
8.34827e-07
1.76818e-05
2.04115e-06
-5.5662e-07
1.7296e-05
7.78026e-06
-1.60541e-06
1.71097e-05
1.23969e-05
-2.03826e-06
1.73268e-05
1.65518e-05
-1.88668e-06
1.85256e-05
2.09803e-05
-1.29502e-06
2.12299e-05
2.64257e-05
-4.09992e-07
2.51394e-05
3.30867e-05
5.10269e-07
2.88001e-05
4.00212e-05
1.23602e-06
3.09106e-05
4.57569e-05
1.71589e-06
3.12855e-05
4.95432e-05
2.0049e-06
3.01348e-05
5.17261e-05
2.18771e-06
2.75929e-05
5.2842e-05
2.34443e-06
2.3745e-05
5.31656e-05
2.55817e-06
1.8687e-05
5.27595e-05
2.90178e-06
1.24713e-05
5.14895e-05
3.36953e-06
5.30264e-06
4.82894e-05
3.61574e-06
3.56706e-05
2.11735e-06
-3.03173e-06
-3.6982e-05
1.57584e-06
-6.65616e-06
-4.71632e-05
2.28159e-06
-9.75404e-06
-4.84564e-05
2.09597e-06
-1.22575e-05
-4.84316e-05
1.92517e-06
-1.41911e-05
-4.78886e-05
1.84715e-06
-1.55722e-05
-4.69168e-05
1.84793e-06
-1.63342e-05
-4.54681e-05
1.90164e-06
-1.62086e-05
-4.32896e-05
1.95085e-06
-1.46869e-05
-3.98743e-05
1.84859e-06
-1.16654e-05
-3.48829e-05
1.43714e-06
-8.30578e-06
-2.9098e-05
8.92727e-07
-5.77988e-06
-2.49453e-05
7.11751e-07
-3.82289e-06
-2.32242e-05
9.66164e-07
-3.06323e-06
-2.34709e-05
1.99826e-06
-4.95194e-06
-2.30003e-05
3.17031e-06
-7.93685e-06
-1.84805e-05
2.97846e-06
-1.0066e-05
-1.16447e-05
2.14574e-06
-1.12234e-05
-4.15708e-06
9.72321e-07
-1.17189e-05
3.08817e-06
-4.42688e-07
-1.12528e-05
9.04503e-06
-1.76485e-06
-1.03537e-05
1.3995e-05
-2.6609e-06
-9.40871e-06
1.83838e-05
-3.03144e-06
-8.38915e-06
2.2541e-05
-2.87629e-06
-6.89072e-06
2.68898e-05
-2.27569e-06
-4.53577e-06
3.17582e-05
-1.35007e-06
-1.59176e-06
3.70393e-05
-2.75837e-07
1.11437e-06
4.20888e-05
6.89581e-07
2.81275e-06
4.61746e-05
1.4494e-06
3.26834e-06
4.90653e-05
2.00775e-06
2.53667e-06
5.09446e-05
2.41714e-06
7.50784e-07
5.19819e-05
2.72109e-06
-1.80193e-06
5.21192e-05
2.8993e-06
-4.32029e-06
5.08155e-05
2.8305e-06
-4.7088e-06
4.59338e-05
2.23204e-06
2.96288e-05
8.23549e-07
-4.61311e-06
-3.31904e-05
6.61838e-07
-8.02697e-06
-4.46581e-05
8.16891e-07
-1.10178e-05
-4.65237e-05
9.97288e-07
-1.39054e-05
-4.67348e-05
1.11787e-06
-1.6834e-05
-4.63222e-05
1.25336e-06
-1.99182e-05
-4.54505e-05
1.45808e-06
-2.32245e-05
-4.41658e-05
1.78727e-06
-2.65501e-05
-4.25234e-05
2.29743e-06
-2.91558e-05
-4.05345e-05
2.99034e-06
-3.01154e-05
-3.78861e-05
3.71669e-06
-2.9435e-05
-3.418e-05
4.22689e-06
-2.91794e-05
-2.97806e-05
4.53728e-06
-3.14843e-05
-2.55141e-05
4.83914e-06
-3.74328e-05
-2.18515e-05
4.93764e-06
-4.53704e-05
-1.93981e-05
4.97136e-06
-5.00403e-05
-1.84176e-05
5.04344e-06
-4.96673e-05
-1.61663e-05
4.60789e-06
-4.70864e-05
-9.86729e-06
3.70402e-06
-4.38845e-05
-1.99299e-06
2.42498e-06
-4.02034e-05
4.74884e-06
1.0261e-06
-3.66713e-05
1.09888e-05
-2.86662e-07
-3.39458e-05
1.70568e-05
-1.3856e-06
-3.2103e-05
2.25921e-05
-2.12349e-06
-3.10109e-05
2.77441e-05
-2.40465e-06
-3.03187e-05
3.26503e-05
-2.23815e-06
-2.96377e-05
3.72803e-05
-1.72685e-06
-2.88375e-05
4.14331e-05
-1.03707e-06
-2.80404e-05
4.48183e-05
-3.44158e-07
-2.73405e-05
4.72671e-05
2.45477e-07
-2.66513e-05
4.87492e-05
7.40051e-07
-2.56467e-05
4.91976e-05
1.12617e-06
-2.37072e-05
4.82838e-05
1.37762e-06
-1.95782e-05
4.48789e-05
1.45294e-06
-1.12804e-05
3.61896e-05
1.35328e-06
1.7503e-05
1.05557e-06
-1.27074e-06
-3.26492e-05
8.66345e-07
-2.69958e-06
-4.3977e-05
1.01325e-06
-4.3323e-06
-4.56863e-05
1.11181e-06
-6.09137e-06
-4.57753e-05
1.14105e-06
-7.92595e-06
-4.52479e-05
1.11899e-06
-9.81023e-06
-4.42566e-05
1.05793e-06
-1.17352e-05
-4.28522e-05
9.69841e-07
-1.37369e-05
-4.10935e-05
8.94384e-07
-1.58503e-05
-3.90727e-05
9.13599e-07
-1.78557e-05
-3.68137e-05
1.12735e-06
-1.93067e-05
-3.41964e-05
1.62505e-06
-2.04232e-05
-3.08557e-05
2.37825e-06
-2.24539e-05
-2.64821e-05
3.20044e-06
-2.65023e-05
-2.17622e-05
4.0264e-06
-3.27559e-05
-1.80903e-05
4.83357e-06
-4.11804e-05
-1.56798e-05
5.56634e-06
-5.12329e-05
-1.22976e-05
6.2322e-06
-6.0548e-05
-6.89064e-06
6.70492e-06
-6.52061e-05
-3.17347e-06
6.54838e-06
-6.42578e-05
-1.23309e-06
5.88996e-06
-5.97556e-05
2.37733e-06
5.04837e-06
-5.40694e-05
8.28301e-06
4.0276e-06
-4.84232e-05
1.47949e-05
2.98271e-06
-4.29276e-05
2.08444e-05
2.06379e-06
-3.76413e-05
2.64431e-05
1.37527e-06
-3.26356e-05
3.15411e-05
9.81921e-07
-2.79793e-05
3.59707e-05
8.8284e-07
-2.37403e-05
3.95342e-05
1.01346e-06
-1.98986e-05
4.20785e-05
1.28137e-06
-1.63072e-05
4.34976e-05
1.63215e-06
-1.2754e-05
4.36709e-05
2.05233e-06
-9.01669e-06
4.22686e-05
2.54937e-06
-4.93338e-06
3.82313e-05
3.16154e-06
-1.11104e-06
2.96057e-05
3.79264e-06
1.39304e-05
3.30368e-06
6.84007e-08
-3.2383e-05
-1.58614e-07
5.23942e-08
-4.34087e-05
-3.87268e-07
-2.63031e-07
-4.51816e-05
-4.38355e-08
-9.13435e-07
-4.53012e-05
3.14785e-07
-1.84172e-06
-4.479e-05
6.12657e-07
-2.97955e-06
-4.38478e-05
8.856e-07
-4.24309e-06
-4.2557e-05
1.14753e-06
-5.56903e-06
-4.09522e-05
1.39007e-06
-6.96836e-06
-3.90377e-05
1.5878e-06
-8.46271e-06
-3.68214e-05
1.71527e-06
-9.90319e-06
-3.43769e-05
1.78298e-06
-1.07619e-05
-3.17766e-05
1.86482e-06
-1.03849e-05
-2.88837e-05
2.04565e-06
-9.0925e-06
-2.5398e-05
2.36053e-06
-8.84306e-06
-2.1043e-05
2.80728e-06
-1.20389e-05
-1.56522e-05
3.39297e-06
-1.89488e-05
-9.43442e-06
4.20074e-06
-2.73754e-05
-3.90706e-06
5.23194e-06
-3.591e-05
-1.22274e-06
6.0763e-06
-4.36542e-05
-3.21123e-07
6.43608e-06
-5.00869e-05
2.19728e-06
6.53262e-06
-5.39737e-05
5.96517e-06
6.47328e-06
-5.34047e-05
8.53944e-06
6.24268e-06
-4.82181e-05
1.04458e-05
5.93767e-06
-4.01948e-05
1.35958e-05
5.64435e-06
-3.09865e-05
1.77794e-05
5.42068e-06
-2.1545e-05
2.2093e-05
5.3204e-06
-1.25284e-05
2.60304e-05
5.37717e-06
-4.40379e-06
2.92595e-05
5.59751e-06
2.58681e-06
3.14838e-05
5.96412e-06
8.34829e-06
3.24638e-05
6.45976e-06
1.25693e-05
3.20827e-05
7.0817e-06
1.3812e-05
3.04106e-05
7.79819e-06
9.65909e-06
2.67038e-05
8.24634e-06
1.83007e-05
5.96498e-06
1.08455e-06
-3.30599e-05
-4.15677e-07
3.35485e-06
-4.49282e-05
-7.61689e-07
5.53585e-06
-4.6854e-05
-5.17825e-07
7.40527e-06
-4.69082e-05
-2.77107e-07
8.94512e-06
-4.62475e-05
-1.02207e-07
1.01366e-05
-4.50813e-05
2.32373e-08
1.09083e-05
-4.34848e-05
1.46471e-07
1.1214e-05
-4.1495e-05
2.47154e-07
1.10249e-05
-3.91611e-05
3.54583e-07
1.03644e-05
-3.65656e-05
4.90008e-07
9.27683e-06
-3.38184e-05
6.63955e-07
7.81975e-06
-3.10158e-05
8.74318e-07
6.21441e-06
-2.81991e-05
1.11367e-06
4.95717e-06
-2.53612e-05
1.38196e-06
4.72414e-06
-2.24088e-05
1.69109e-06
6.12616e-06
-1.90866e-05
2.05385e-06
9.30008e-06
-1.5094e-05
2.47309e-06
1.28505e-05
-1.04154e-05
2.94457e-06
1.36874e-05
-5.49796e-06
3.44359e-06
1.01825e-05
-7.33398e-07
3.9619e-06
3.79633e-06
4.04134e-06
4.57138e-06
-3.09235e-06
7.56332e-06
5.21252e-06
-8.96921e-06
8.63663e-06
5.60573e-06
-1.32229e-05
8.83016e-06
5.7019e-06
-1.45894e-05
9.21554e-06
5.66707e-06
-1.15356e-05
9.12495e-06
5.64652e-06
-4.69967e-06
9.71507e-06
5.70693e-06
3.95385e-06
1.17661e-05
5.88004e-06
1.25266e-05
1.48523e-05
6.19357e-06
1.96636e-05
1.81173e-05
6.66106e-06
2.44359e-05
2.09023e-05
7.27098e-06
2.55591e-05
2.3469e-05
8.0191e-06
2.09879e-05
2.64836e-05
8.9058e-06
1.13386e-05
2.72976e-05
9.03497e-06
2.33141e-05
5.93259e-06
4.30556e-06
-3.61051e-05
-1.06318e-06
8.25314e-06
-4.7132e-05
-1.54305e-06
1.15128e-05
-4.87042e-05
-1.22773e-06
1.4219e-05
-4.85699e-05
-8.73499e-07
1.64496e-05
-4.77378e-05
-5.75145e-07
1.82624e-05
-4.64006e-05
-3.32558e-07
1.97017e-05
-4.46263e-05
-1.42617e-07
2.07941e-05
-4.24309e-05
-9.83279e-09
2.1488e-05
-3.98236e-05
1.05196e-07
2.17433e-05
-3.68571e-05
1.64196e-07
2.15348e-05
-3.36713e-05
1.85917e-07
2.09165e-05
-3.04672e-05
1.96644e-07
2.00448e-05
-2.74148e-05
2.20905e-07
1.91342e-05
-2.45836e-05
2.73904e-07
1.84179e-05
-2.19152e-05
3.69287e-07
1.81344e-05
-1.91914e-05
5.32664e-07
1.84575e-05
-1.609e-05
7.92417e-07
1.93927e-05
-1.24222e-05
1.14176e-06
2.06576e-05
-8.28339e-06
1.53965e-06
2.19534e-05
-3.99249e-06
1.95074e-06
2.34342e-05
1.65397e-07
2.37105e-06
2.41806e-05
3.98436e-06
2.79712e-06
2.2211e-05
7.36126e-06
3.20244e-06
1.72552e-05
1.01603e-05
3.62466e-06
1.10822e-05
1.13257e-05
4.09188e-06
5.52582e-06
1.02369e-05
4.41048e-06
1.97104e-06
8.64824e-06
4.52307e-06
2.06563e-06
6.9926e-06
4.57123e-06
5.45892e-06
6.6949e-06
4.68424e-06
1.02737e-05
8.30648e-06
4.9433e-06
1.56239e-05
1.01366e-05
5.38762e-06
2.0245e-05
1.27678e-05
6.08401e-06
1.7634e-05
2.19671e-05
7.10785e-06
8.44731e-06
2.90057e-05
7.26802e-06
2.6655e-05
4.67124e-06
3.04689e-06
-3.80647e-05
-1.01825e-06
6.35892e-06
-4.89718e-05
-1.47012e-06
9.40488e-06
-5.03913e-05
-1.37732e-06
1.21115e-05
-5.01131e-05
-1.18788e-06
1.44472e-05
-4.91013e-05
-9.94728e-07
1.63894e-05
-4.75392e-05
-8.17844e-07
1.79206e-05
-4.54951e-05
-6.63675e-07
1.90381e-05
-4.29984e-05
-5.35858e-07
1.97727e-05
-4.00908e-05
-4.36927e-07
2.0191e-05
-3.68641e-05
-3.66165e-07
2.0355e-05
-3.3459e-05
-3.19368e-07
2.02701e-05
-3.00281e-05
-2.88722e-07
1.98969e-05
-2.67062e-05
-2.63412e-07
1.9221e-05
-2.35987e-05
-2.32377e-07
1.83263e-05
-2.0753e-05
-1.87495e-07
1.74517e-05
-1.81114e-05
-1.22737e-07
1.69736e-05
-1.54973e-05
-2.97625e-08
1.71652e-05
-1.26749e-05
1.41811e-07
1.80713e-05
-9.50836e-06
3.81112e-07
1.95853e-05
-6.12737e-06
6.56172e-07
2.16532e-05
-2.82214e-06
9.32927e-07
2.43135e-05
1.27099e-07
1.19923e-06
2.71285e-05
3.08862e-06
1.46158e-06
3.00562e-05
5.52622e-06
1.72666e-06
3.2336e-05
7.11034e-06
1.96136e-06
3.27262e-05
7.75071e-06
2.13726e-06
3.28489e-05
6.3272e-06
2.30974e-06
3.48312e-05
2.61168e-06
2.59163e-06
3.61865e-05
2.62181e-06
2.96407e-06
3.41108e-05
7.28052e-06
3.38598e-06
2.91282e-05
1.16587e-05
3.77088e-06
2.2482e-05
1.51807e-05
4.33318e-06
1.41424e-05
2.4038e-05
5.71395e-06
5.02667e-06
3.1133e-05
6.16667e-06
2.77614e-05
3.55073e-06
2.75819e-06
-3.96683e-05
-1.14751e-06
5.81081e-06
-5.03192e-05
-1.69614e-06
8.63042e-06
-5.14886e-05
-1.70902e-06
1.1174e-05
-5.10395e-05
-1.60246e-06
1.33943e-05
-4.98375e-05
-1.46734e-06
1.52291e-05
-4.80272e-05
-1.32723e-06
1.66052e-05
-4.56548e-05
-1.19436e-06
1.74529e-05
-4.27443e-05
-1.07773e-06
1.774e-05
-3.93666e-05
-9.85396e-07
1.75121e-05
-3.56863e-05
-9.22095e-07
1.69068e-05
-3.19401e-05
-8.84053e-07
1.61217e-05
-2.8352e-05
-8.59774e-07
1.53406e-05
-2.50562e-05
-8.36349e-07
1.4662e-05
-2.20815e-05
-8.04757e-07
1.4087e-05
-1.9382e-05
-7.60077e-07
1.35838e-05
-1.68706e-05
-6.9848e-07
1.31807e-05
-1.44372e-05
-6.14182e-07
1.30146e-05
-1.19647e-05
-4.98629e-07
1.32614e-05
-9.36534e-06
-3.46736e-07
1.39681e-05
-6.63355e-06
-1.67337e-07
1.50042e-05
-3.85657e-06
1.71545e-08
1.60247e-05
-1.111e-06
2.23845e-07
1.73102e-05
1.39114e-06
4.11222e-07
1.87107e-05
3.55472e-06
5.7077e-07
1.97697e-05
5.38463e-06
6.74831e-07
2.00829e-05
6.71074e-06
7.67458e-07
1.91125e-05
6.43783e-06
1.03874e-06
1.55706e-05
5.03664e-06
1.39093e-06
1.0575e-05
6.39107e-06
1.39584e-06
6.08457e-06
1.05734e-05
1.18371e-06
1.44499e-06
1.47488e-05
1.37461e-06
-5.27723e-06
1.93068e-05
2.20433e-06
-8.94939e-06
2.37394e-05
3.37243e-06
-6.52816e-06
2.44883e-05
3.59094e-06
1.90301e-05
1.73622e-06
1.39723e-06
-4.01056e-05
-9.33724e-07
3.15865e-06
-5.06317e-05
-1.3999e-06
4.98157e-06
-5.1716e-05
-1.54394e-06
6.70224e-06
-5.11391e-05
-1.56916e-06
8.19673e-06
-4.97322e-05
-1.545e-06
9.35384e-06
-4.76312e-05
-1.49425e-06
1.00634e-05
-4.48727e-05
-1.43004e-06
1.02486e-05
-4.15068e-05
-1.36182e-06
9.91166e-06
-3.76765e-05
-1.29692e-06
9.14206e-06
-3.36277e-05
-1.24059e-06
8.07123e-06
-2.96363e-05
-1.19297e-06
6.81635e-06
-2.59158e-05
-1.14892e-06
5.45811e-06
-2.25709e-05
-1.1006e-06
4.051e-06
-1.96107e-05
-1.04137e-06
2.64332e-06
-1.69861e-05
-9.67938e-07
1.29501e-06
-1.4623e-05
-8.79226e-07
8.88087e-08
-1.24369e-05
-7.72867e-07
-8.67861e-07
-1.0339e-05
-6.45672e-07
-1.45996e-06
-8.25272e-06
-4.95568e-07
-1.60639e-06
-6.13791e-06
-3.24295e-07
-1.30663e-06
-3.99344e-06
-1.39655e-07
-6.18906e-07
-1.83298e-06
5.56234e-08
1.52688e-07
3.55624e-07
2.84326e-07
3.88786e-07
2.81866e-06
5.20464e-07
-4.74826e-07
5.49438e-06
7.73636e-07
-2.62067e-06
7.84402e-06
1.02656e-06
-6.9083e-06
9.48641e-06
1.22883e-06
-1.35513e-05
1.0279e-05
1.32217e-06
-1.87965e-05
1.0107e-05
1.35329e-06
-1.89386e-05
9.08818e-06