/*--------------------------------*- C++ -*----------------------------------*\
| =========                 |                                                 |
| \\      /  F ield         | OpenFOAM: The Open Source CFD Toolbox           |
|  \\    /   O peration     | Version:  v2006                                 |
|   \\  /    A nd           | Website:  www.openfoam.com                      |
|    \\/     M anipulation  |                                                 |
\*---------------------------------------------------------------------------*/
FoamFile
{
    version     2.0;
    format      ascii;
    class       volScalarField;
    location    "9";
    object      nut;
}
// * * * * * * * * * * * * * * * * * * * * * * * * * * * * * * * * * * * * * //

dimensions      [0 2 -1 0 0 0 0];


internalField   nonuniform List<scalar> 
78750
(
7.97647e-06
2.33771e-06
6.98991e-06
7.39325e-06
2.08693e-05
2.50244e-05
4.10886e-05
6.82094e-05
6.65918e-05
8.24962e-05
8.94174e-05
9.65526e-05
0.000100633
0.000101088
9.91696e-05
9.65901e-05
9.35496e-05
8.86458e-05
7.89097e-05
6.87631e-05
6.48354e-05
6.60229e-05
6.65815e-05
6.4362e-05
5.92844e-05
4.96937e-05
3.99838e-05
3.36097e-05
2.07371e-05
7.56468e-06
5.85245e-06
6.7509e-06
5.80041e-06
1.53797e-05
4.46718e-06
2.04669e-05
0.000181204
8.90078e-05
7.7696e-05
5.85531e-05
6.03599e-05
6.75011e-05
7.72775e-05
9.47416e-05
0.000114232
0.000134923
0.000154634
0.000172812
0.000188831
0.000201938
0.000212061
0.000219862
0.000225839
0.000229524
0.00022839
0.000220769
0.00020938
0.000199372
0.000193791
0.000191307
0.00019015
0.00019092
0.000187615
0.000177655
0.000173944
0.000176557
0.000153299
0.000142178
0.000111721
5.75788e-06
1.52913e-05
6.37662e-06
6.68436e-05
5.03176e-05
0.000124599
0.000158885
0.000186372
0.000218819
0.000248791
0.000274904
0.000299453
0.000325631
0.000353923
0.000382186
0.000407464
0.000411159
0.000412626
0.000413989
0.000415336
0.000416723
0.000418071
0.000419044
0.000419027
0.000417313
0.00041333
0.000406829
0.00039808
0.000388125
0.000378343
0.000369328
0.000360983
0.000337314
0.000278739
0.000152811
8.0793e-06
1.29789e-05
1.99242e-05
4.4528e-05
0.000254267
0.000267429
0.000306976
0.000355528
0.000396643
0.000403199
0.000409058
0.000394173
0.000372
0.00034839
0.000324122
0.000300706
0.000281554
0.000267856
0.000259258
0.000255994
0.000258694
0.000267271
0.000279389
0.000287727
0.000278442
0.000250003
0.000227199
0.000223832
0.000230599
0.000232901
0.000229529
0.000226969
0.000229895
0.00022842
0.000148324
7.18122e-06
7.69441e-06
2.70451e-05
3.02447e-05
3.79966e-05
4.75283e-05
6.4871e-05
9.42069e-05
0.000134541
0.000183234
0.000246113
0.00028211
0.000286476
0.000274698
0.000178924
0.000158761
0.000187972
0.000248949
0.000310907
0.00034134
0.000341973
0.000328891
0.000308966
0.000277731
0.000237367
0.000207515
0.000179175
0.000124466
0.000108967
0.000143796
0.00021837
0.000304552
0.000345876
0.000286037
0.000161979
7.04846e-06
5.35746e-06
3.01956e-05
5.58225e-05
4.30697e-05
2.62303e-05
2.39924e-05
3.37234e-05
5.54254e-05
8.88817e-05
0.000131688
0.000179288
0.000226385
0.000266669
0.0002952
0.000310254
0.000311685
0.000306946
0.000300204
0.000286213
0.000263152
0.000239541
0.000220564
0.000203053
0.000188588
0.000184771
0.000194668
0.00021799
0.000251475
0.000276972
0.000284708
0.000275885
0.000252973
0.000208207
0.000107986
6.44083e-06
8.5688e-06
9.35371e-05
7.62845e-05
7.57943e-05
8.84882e-05
0.000130459
0.000192838
0.000228775
0.00022943
0.000215162
0.000203018
0.000197447
0.000198586
0.000208042
0.000230414
0.000273444
0.000339603
0.000366469
0.000366729
0.000366195
0.00036473
0.000362261
0.000358767
0.000354321
0.000349191
0.000343795
0.000300256
0.00020945
0.00015002
0.000114983
9.14079e-05
7.25667e-05
5.36409e-05
2.91463e-05
2.28375e-06
4.58459e-06
8.93412e-05
0.000147093
0.000175328
0.000204639
0.000223072
0.00021926
0.000206789
0.000201606
0.000201095
0.000200095
0.000197197
0.000192312
0.000184898
0.00017664
0.000170682
0.000168731
0.000171222
0.000177855
0.000188525
0.000203347
0.000221943
0.000241956
0.000257868
0.000262037
0.000246609
0.000211958
0.000175148
0.000151069
0.000138624
0.000124878
9.68977e-05
6.41477e-05
4.11706e-05
2.15186e-06
6.4018e-06
9.42722e-05
0.0001734
0.000171606
0.000156575
0.00014268
0.000130066
0.000118344
0.00010907
0.000103012
9.93121e-05
9.67786e-05
9.50037e-05
9.38784e-05
9.29913e-05
9.23172e-05
9.20426e-05
9.2476e-05
9.37276e-05
9.56689e-05
9.83568e-05
0.000101954
0.000106644
0.000112926
0.000121328
0.000132364
0.000146346
0.000161627
0.00017548
0.000177174
0.000159572
8.91818e-05
5.0994e-05
5.26675e-05
8.52315e-06
3.10432e-06
2.7742e-05
2.80886e-05
3.02371e-05
3.28156e-05
3.51793e-05
3.75433e-05
3.98302e-05
4.18616e-05
4.35912e-05
4.5379e-05
4.73419e-05
4.96435e-05
5.22291e-05
5.51248e-05
5.82198e-05
6.14535e-05
6.50087e-05
6.92779e-05
7.4296e-05
8.00656e-05
8.61799e-05
9.2955e-05
9.83677e-05
9.93792e-05
9.90164e-05
8.69194e-05
7.77425e-05
6.51158e-05
5.51182e-05
5.18326e-05
3.87944e-05
4.42646e-05
5.40021e-05
5.26978e-06
1.99615e-06
1.58398e-05
3.00087e-05
4.37396e-05
5.52785e-05
6.47281e-05
7.24997e-05
7.87965e-05
8.38561e-05
8.816e-05
9.22498e-05
9.63999e-05
0.000100824
0.000106394
0.000112884
0.00011856
0.00012233
0.000122879
0.000118606
0.000108907
9.5197e-05
8.20356e-05
7.41317e-05
6.8105e-05
6.05342e-05
5.1581e-05
4.26949e-05
3.91193e-05
3.88658e-05
4.7463e-05
4.57451e-05
3.39974e-05
3.47498e-05
1.4513e-05
6.36585e-06
6.62512e-06
2.93345e-05
6.89725e-05
9.69491e-05
0.000109535
0.000116375
0.000120242
0.000121809
0.000121561
0.00011914
0.000112065
9.59109e-05
7.61483e-05
6.31275e-05
5.73386e-05
5.43474e-05
5.14586e-05
4.50686e-05
3.65833e-05
3.09605e-05
2.9688e-05
3.35962e-05
4.36968e-05
6.27471e-05
4.9142e-05
2.70252e-05
2.9647e-05
1.98484e-05
1.3374e-05
1.31633e-05
1.18023e-05
9.34475e-06
1.24631e-05
2.42434e-05
9.99527e-06
6.94787e-06
3.84286e-05
0.000102189
0.000128896
0.000138002
0.00014183
0.000139731
0.000128441
0.000103561
6.93249e-05
4.0025e-05
2.16431e-05
1.36453e-05
1.7258e-05
5.34544e-05
4.07886e-05
3.0917e-05
3.36735e-05
3.99841e-05
3.92502e-05
3.37471e-05
2.83144e-05
2.15129e-05
2.01154e-05
2.78624e-05
2.46899e-05
1.67702e-05
1.67798e-05
2.05768e-05
2.766e-05
3.93654e-05
6.40408e-05
0.000126512
9.86719e-05
1.15951e-05
6.61907e-06
4.57154e-05
0.000137057
0.000163179
0.000165887
0.000157697
0.000133112
9.0631e-05
4.94833e-05
2.39339e-05
1.13285e-05
1.13539e-05
4.28292e-05
0.000118657
9.12464e-05
5.17562e-05
3.52367e-05
3.20415e-05
3.56259e-05
3.73788e-05
3.53581e-05
3.72617e-05
5.24309e-05
8.73483e-05
9.53258e-05
7.90728e-05
6.90337e-05
6.85221e-05
7.63801e-05
9.17567e-05
0.000109408
0.000111896
7.80785e-05
3.55786e-05
9.38112e-06
6.28506e-06
4.46595e-05
0.000129845
0.000153368
0.000152969
0.000138924
0.000113547
8.52812e-05
6.00102e-05
3.90747e-05
2.34082e-05
1.40346e-05
1.37052e-05
2.10796e-05
2.15006e-05
2.35614e-05
2.70856e-05
3.2581e-05
4.09922e-05
5.10076e-05
5.96515e-05
7.03897e-05
9.03322e-05
0.000113125
0.000122404
0.000121264
0.000118478
0.000117689
0.000119095
0.000120527
0.000117062
9.96642e-05
6.45574e-05
2.89322e-05
4.56631e-06
6.01024e-06
3.81145e-05
0.000132417
0.000177702
0.0001815
0.000173806
0.000162163
0.000148107
0.000129056
0.000101913
6.92522e-05
4.06685e-05
2.11798e-05
9.15313e-06
2.47917e-06
3.8502e-06
3.34931e-06
1.14419e-05
1.67794e-05
2.10599e-05
2.68265e-05
3.42421e-05
4.32035e-05
5.33747e-05
6.42555e-05
7.57912e-05
8.74078e-05
9.72928e-05
0.000105471
0.00011276
0.000117129
0.000110465
7.88898e-05
4.15508e-05
4.16566e-06
6.48135e-06
3.99062e-05
0.000132045
0.000175273
0.000174549
0.000157316
0.000132401
0.00010658
8.57778e-05
7.36422e-05
7.12652e-05
7.61292e-05
7.67773e-05
6.1911e-05
4.17863e-05
2.58072e-05
1.41748e-05
6.27511e-06
1.73223e-06
1.24275e-06
4.3171e-06
9.51095e-06
1.22036e-05
1.16349e-05
1.33514e-05
1.91968e-05
2.79174e-05
3.23082e-05
3.67032e-05
5.41873e-05
7.95617e-05
5.62338e-05
5.50217e-05
2.36767e-05
4.9695e-06
6.0422e-06
3.40549e-05
0.000114248
0.000172869
0.000187774
0.000187222
0.000178345
0.000163006
0.000141276
0.000114899
8.95727e-05
7.10755e-05
6.10522e-05
5.79246e-05
5.72538e-05
5.06063e-05
3.4803e-05
1.92959e-05
9.44942e-06
3.30661e-06
9.17072e-07
3.96109e-07
2.49187e-07
9.99003e-08
3.48954e-06
2.11017e-06
4.82106e-06
8.71482e-06
1.17467e-05
1.39417e-05
1.96515e-05
2.09872e-05
2.26143e-05
4.29372e-05
9.58922e-06
6.3632e-06
3.67627e-05
0.000120995
0.000173752
0.000186981
0.000184186
0.000170145
0.000148842
0.000126809
0.000110205
0.000100452
9.47215e-05
8.9428e-05
8.29843e-05
7.37546e-05
5.79519e-05
3.68608e-05
1.83599e-05
3.3246e-06
3.37921e-07
6.13858e-07
5.44496e-06
9.0517e-06
1.62427e-05
2.95822e-05
3.46038e-05
2.5537e-05
1.3035e-05
1.05137e-05
1.92134e-05
4.4603e-05
8.32646e-05
0.000115092
5.05266e-05
8.88042e-06
6.15075e-06
3.46523e-05
0.000115739
0.000175598
0.000193495
0.00019282
0.000178299
0.000154232
0.000128472
0.000108066
9.50598e-05
8.7753e-05
8.32981e-05
7.96873e-05
7.51416e-05
6.41247e-05
4.28916e-05
2.16844e-05
7.25439e-06
5.81807e-06
6.93818e-06
9.58504e-06
1.60553e-05
2.94826e-05
4.66337e-05
6.34164e-05
7.88182e-05
6.85182e-05
5.85997e-05
6.53659e-05
7.51197e-05
8.27717e-05
8.45875e-05
2.80174e-05
5.59228e-06
6.78224e-06
4.04226e-05
0.000134038
0.000180591
0.000186695
0.000173508
0.00014762
0.000119872
9.90603e-05
8.68888e-05
8.18108e-05
8.23441e-05
8.67521e-05
9.11008e-05
9.03259e-05
8.35887e-05
7.33347e-05
5.86437e-05
3.85313e-05
1.93938e-05
6.30093e-06
2.29216e-06
4.97776e-06
9.48768e-06
1.27224e-05
1.60059e-05
1.96243e-05
2.4785e-05
3.26441e-05
5.18321e-05
9.35686e-05
7.98237e-05
5.75532e-05
2.53086e-05
3.98659e-06
6.77628e-06
3.99118e-05
0.000135581
0.000181968
0.000182254
0.000161286
0.000131267
0.000106895
9.37945e-05
8.97868e-05
9.04956e-05
9.16361e-05
9.10326e-05
8.94436e-05
8.83226e-05
8.71845e-05
8.38736e-05
7.73129e-05
6.82166e-05
5.74336e-05
4.58974e-05
3.52973e-05
2.64e-05
1.81776e-05
9.14794e-06
1.71286e-06
6.57792e-06
9.69421e-06
9.65804e-06
1.12061e-05
1.47471e-05
2.73795e-05
7.18353e-05
3.09035e-05
5.68251e-06
7.36062e-06
4.60265e-05
0.000146517
0.000175045
0.000164507
0.000135532
0.000104886
8.55908e-05
7.79017e-05
7.81702e-05
8.39564e-05
9.42266e-05
0.00010766
0.000120985
0.00012979
0.00013172
0.000127561
0.000119205
0.000108225
9.62394e-05
8.4701e-05
7.45249e-05
6.62428e-05
5.99813e-05
5.62679e-05
5.69953e-05
6.36745e-05
6.11462e-05
3.81424e-05
1.3169e-05
5.44015e-06
1.0301e-06
4.16172e-06
2.09019e-05
7.47251e-06
7.30725e-06
4.60163e-05
0.000148526
0.000170644
0.000149651
0.000112864
8.55149e-05
7.51142e-05
7.8161e-05
9.08169e-05
0.000108803
0.000126752
0.000140921
0.000151146
0.000159189
0.000166359
0.000172669
0.000177153
0.000178456
0.000175931
0.000171602
0.000170603
0.000178179
0.000192704
0.000202637
0.000184595
0.000112529
5.39607e-05
2.32709e-05
3.17497e-06
4.78576e-06
1.51717e-05
4.52066e-05
5.82897e-05
8.55549e-06
7.60601e-06
4.84066e-05
0.000147893
0.000159707
0.000131253
9.42439e-05
7.21503e-05
6.62989e-05
7.17774e-05
8.49364e-05
0.000103118
0.000124115
0.000145858
0.000166117
0.000182548
0.000193264
0.000197449
0.000195437
0.000188276
0.000177477
0.000164846
0.000151817
0.000138543
0.000123523
0.000105576
8.55625e-05
6.68584e-05
5.04529e-05
3.51626e-05
2.21157e-05
1.69819e-05
2.54029e-05
4.50406e-05
3.26063e-05
4.35767e-06
7.49473e-06
4.70687e-05
0.000142744
0.000149342
0.000116582
8.10777e-05
6.32805e-05
6.16666e-05
7.21952e-05
9.21504e-05
0.000117772
0.000144052
0.000167056
0.000184992
0.0001972
0.000203542
0.000204869
0.000202373
0.000196503
0.000187334
0.000175423
0.000161916
0.000147903
0.000132992
0.0001143
9.5512e-05
9.9473e-05
0.000158965
0.000241573
0.000146158
0.000125641
0.000183961
1.52683e-05
8.88931e-06
5.35265e-06
7.57461e-06
4.69058e-05
0.000138954
0.000144355
0.000111451
7.62673e-05
5.92709e-05
5.83901e-05
6.97305e-05
9.11793e-05
0.000120527
0.000155552
0.000195504
0.000240229
0.000283423
0.000298725
0.000295518
0.00029167
0.000287218
0.000282186
0.00027659
0.000270455
0.000263862
0.000241019
0.000207358
0.000149634
6.91814e-05
3.21776e-05
2.60845e-05
3.29672e-05
3.71805e-05
2.4095e-05
2.07981e-05
4.59709e-05
8.82517e-06
7.42956e-06
4.50134e-05
0.000133321
0.000137346
0.000103121
6.88954e-05
5.28769e-05
5.23382e-05
6.43699e-05
8.82435e-05
0.000122175
0.000161957
0.000202762
0.000241852
0.000278746
0.000301668
0.000299015
0.000295635
0.000291519
0.000286623
0.000280873
0.000274189
0.000236696
0.000174619
0.00010921
5.66963e-05
2.80522e-05
1.8451e-05
2.38081e-05
4.09402e-05
4.93763e-05
4.54394e-05
5.1166e-05
3.29956e-05
4.15659e-06
7.5252e-06
4.48556e-05
0.000131684
0.000135591
0.000102086
6.79003e-05
5.12299e-05
4.95154e-05
5.95851e-05
8.03808e-05
0.000110352
0.000146511
0.000185204
0.000222636
0.00025491
0.000278686
0.000293004
0.000298271
0.000293811
0.000279691
0.000261156
0.000249763
0.000252878
0.000252036
0.000211733
0.000146219
7.77489e-05
3.76364e-05
2.45753e-05
2.60672e-05
3.69703e-05
5.14131e-05
6.01198e-05
2.91894e-05
2.77579e-06
7.3717e-06
4.35411e-05
0.000128626
0.000129875
9.36576e-05
6.06607e-05
4.58012e-05
4.51022e-05
5.65462e-05
8.10065e-05
0.000118144
0.000164504
0.00021536
0.000265364
0.000301769
0.000300616
0.000298549
0.000295634
0.000291984
0.000287773
0.00026937
0.000201732
0.000127621
8.29568e-05
7.221e-05
8.38565e-05
9.30181e-05
7.94944e-05
6.01208e-05
4.94773e-05
4.97438e-05
5.91915e-05
6.93096e-05
3.83999e-05
4.12956e-06
7.45332e-06
4.26961e-05
0.000126715
0.000129186
9.36546e-05
6.0949e-05
4.53826e-05
4.27047e-05
5.04348e-05
6.90927e-05
9.875e-05
0.000136679
0.000178516
0.000221103
0.000262842
0.000298137
0.000301191
0.000298519
0.000294755
0.000289981
0.000267587
0.000199326
0.000129465
8.32978e-05
6.52263e-05
6.99689e-05
8.8937e-05
0.000100315
9.05849e-05
7.28284e-05
6.0497e-05
5.99025e-05
7.05846e-05
4.22863e-05
4.42729e-06
7.36888e-06
4.15663e-05
0.000124203
0.000122045
8.31426e-05
5.3416e-05
4.13289e-05
4.06609e-05
4.9271e-05
6.82868e-05
9.80938e-05
0.000135517
0.00017518
0.000212461
0.000244177
0.000268138
0.000283182
0.000288428
0.000281947
0.000261605
0.000227538
0.000184297
0.000139416
0.000101322
7.63047e-05
6.56097e-05
6.63657e-05
7.29664e-05
7.77197e-05
7.52458e-05
6.86904e-05
6.61762e-05
6.69584e-05
3.37481e-05
3.89441e-06
7.4587e-06
4.06438e-05
0.000122024
0.000119797
8.03415e-05
5.13513e-05
3.99046e-05
3.88495e-05
4.55616e-05
6.12413e-05
8.70484e-05
0.000120892
0.00015772
0.000192533
0.000222073
0.000244691
0.000259869
0.00026763
0.000267876
0.00025979
0.00024231
0.000215249
0.000180351
0.000142423
0.000108417
8.3525e-05
6.84734e-05
6.11681e-05
5.89157e-05
5.90692e-05
5.96225e-05
6.03733e-05
5.83739e-05
2.70552e-05
3.58696e-06
7.42108e-06
3.98644e-05
0.000119105
0.000112535
7.10869e-05
4.51762e-05
3.69765e-05
3.85212e-05
4.66407e-05
6.21404e-05
8.68813e-05
0.000119895
0.00015667
0.000191846
0.000221567
0.000243935
0.000258666
0.000266403
0.000267753
0.000262645
0.000250638
0.00023158
0.000206053
0.000175724
0.000143482
0.000113083
8.78856e-05
6.95839e-05
5.81114e-05
5.24782e-05
5.12939e-05
5.3003e-05
5.33899e-05
2.43545e-05
3.80781e-06
7.52135e-06
3.97339e-05
0.000117636
0.00010958
6.80257e-05
4.24099e-05
3.45351e-05
3.64634e-05
4.46022e-05
5.88329e-05
8.09013e-05
0.000111041
0.000145715
0.000179074
0.000205991
0.000223852
0.000233087
0.000236282
0.000236018
0.000233126
0.000226656
0.000215405
0.000199366
0.000179553
0.000156902
0.00013201
0.000106213
8.24075e-05
6.39135e-05
5.26934e-05
4.90992e-05
5.20904e-05
5.48364e-05
2.31095e-05
4.04324e-06
7.4973e-06
3.93635e-05
0.000114667
0.000107231
6.66198e-05
4.09109e-05
3.29618e-05
3.5371e-05
4.4118e-05
5.73808e-05
7.59236e-05
0.000101281
0.000133039
0.000167688
0.000199258
0.000220984
0.000228422
0.000222881
0.000210797
0.000198518
0.000188568
0.000180048
0.00017109
0.000160723
0.000148676
0.000134108
0.000115726
9.41494e-05
7.34735e-05
5.88301e-05
5.33381e-05
5.75328e-05
6.24828e-05
2.44745e-05
4.06581e-06
7.57735e-06
3.97624e-05
0.000114407
0.000109431
7.08519e-05
4.21864e-05
3.14797e-05
3.21362e-05
4.04455e-05
5.4028e-05
7.18823e-05
9.43885e-05
0.00012145
0.00015111
0.000179565
0.000201669
0.0002123
0.000209329
0.000196007
0.000179271
0.000165129
0.000155737
0.000149823
0.0001448
0.000138814
0.000131042
0.000120454
0.000105913
8.87764e-05
7.40847e-05
6.74257e-05
7.1026e-05
7.46953e-05
2.85022e-05
4.065e-06
7.49318e-06
3.90696e-05
0.000112044
0.00011449
8.13481e-05
4.84591e-05
3.26522e-05
2.96655e-05
3.53994e-05
4.73119e-05
6.36865e-05
8.45017e-05
0.000110166
0.00013952
0.0001694
0.00019509
0.000211018
0.000212562
0.00019936
0.000177102
0.000154383
0.000137463
0.00012828
0.000125161
0.000124405
0.000122535
0.000117895
0.000110212
0.000100011
8.98425e-05
8.43739e-05
8.64103e-05
8.66255e-05
3.30844e-05
4.20724e-06
7.5415e-06
3.93044e-05
0.000113306
0.00012128
9.47042e-05
5.9101e-05
3.65886e-05
2.84966e-05
3.04069e-05
3.98407e-05
5.45875e-05
7.34233e-05
9.67881e-05
0.000124834
0.000155645
0.000185173
0.000207999
0.000218521
0.000213064
0.00019281
0.000164509
0.000137109
0.000117166
0.000106941
0.000105103
0.000107603
0.000109216
0.000107008
0.000101693
9.59097e-05
9.28758e-05
9.40851e-05
9.07297e-05
3.34214e-05
4.32177e-06
7.42985e-06
3.84498e-05
0.000112301
0.000126766
0.000108139
7.48367e-05
4.5669e-05
3.08715e-05
2.76311e-05
3.30704e-05
4.52826e-05
6.23772e-05
8.39417e-05
0.000110803
0.000142628
0.000176382
0.000206522
0.00022633
0.000230115
0.000216048
0.000187702
0.000153038
0.000121096
9.81575e-05
8.63349e-05
8.46411e-05
8.94232e-05
9.4481e-05
9.54738e-05
9.38747e-05
9.34968e-05
9.5323e-05
8.93635e-05
3.02433e-05
4.28797e-06
7.47792e-06
3.86801e-05
0.000114447
0.00013229
0.000117688
8.85902e-05
5.74966e-05
3.67833e-05
2.80364e-05
2.86532e-05
3.70159e-05
5.14323e-05
7.05253e-05
9.48091e-05
0.000125339
0.000161041
0.000197222
0.000226339
0.000240885
0.000236822
0.000215031
0.00018059
0.000141465
0.00010636
8.13398e-05
6.82287e-05
6.61329e-05
7.24956e-05
8.18862e-05
8.87541e-05
9.33063e-05
9.66484e-05
8.76384e-05
2.74006e-05
4.16436e-06
7.40963e-06
3.81887e-05
0.000114408
0.000135853
0.000124262
9.91954e-05
6.99626e-05
4.61029e-05
3.23778e-05
2.81571e-05
3.21134e-05
4.30398e-05
5.92608e-05
8.03323e-05
0.000107664
0.000142247
0.000181685
0.00021882
0.000244146
0.000251088
0.000238856
0.000210933
0.000172795
0.0001315
9.50163e-05
6.91182e-05
5.52962e-05
5.26165e-05
5.97901e-05
7.35513e-05
8.71107e-05
9.46419e-05
8.32613e-05
2.49702e-05
4.02258e-06
7.5086e-06
3.89885e-05
0.000117705
0.000140079
0.000128352
0.000103364
7.58704e-05
5.34463e-05
3.82503e-05
3.06954e-05
3.07512e-05
3.8069e-05
5.13319e-05
6.9276e-05
9.26877e-05
0.000123493
0.00016167
0.000202416
0.000236413
0.000254661
0.000253702
0.000235627
0.000204746
0.000165746
0.000124443
8.80305e-05
6.20481e-05
4.78728e-05
4.46342e-05
5.19715e-05
6.8132e-05
8.27032e-05
7.4609e-05
2.22626e-05
3.90673e-06
7.52774e-06
3.94729e-05
0.000119757
0.000143486
0.000131978
0.00010698
8.0048e-05
5.88633e-05
4.41686e-05
3.52195e-05
3.24752e-05
3.64793e-05
4.65535e-05
6.11686e-05
8.05032e-05
0.000106961
0.000142375
0.000184255
0.000224164
0.000251519
0.000260473
0.000251926
0.000229892
0.00019821
0.000160249
0.00012051
8.52416e-05
5.97367e-05
4.56142e-05
4.24776e-05
5.08039e-05
6.77749e-05
6.86347e-05
2.06864e-05
3.87824e-06
7.70286e-06
4.15291e-05
0.000125755
0.000147165
0.000132874
0.000105369
7.84038e-05
5.95174e-05
4.76321e-05
4.00716e-05
3.66831e-05
3.87833e-05
4.65355e-05
5.82082e-05
7.29972e-05
9.3121e-05
0.000121734
0.000159279
0.000200489
0.000235086
0.000254151
0.000255757
0.000243202
0.000220502
0.000190498
0.000155445
0.000118731
8.57668e-05
6.18025e-05
4.92915e-05
4.9327e-05
6.34011e-05
7.52428e-05
2.3335e-05
4.03695e-06
7.79539e-06
4.33666e-05
0.000130011
0.000148821
0.000132577
0.000103951
7.73823e-05
5.97629e-05
4.95954e-05
4.37809e-05
4.11747e-05
4.27037e-05
4.90558e-05
5.88504e-05
7.07114e-05
8.63309e-05
0.000109173
0.000141005
0.00017898
0.000214937
0.000239572
0.000248687
0.000244028
0.000229353
0.000207558
0.000180249
0.000148765
0.000115844
8.66056e-05
6.68134e-05
6.07433e-05
7.25346e-05
9.486e-05
3.18437e-05
4.37906e-06
7.94961e-06
4.61113e-05
0.000135315
0.000149137
0.00012932
9.89477e-05
7.35593e-05
5.84373e-05
5.09686e-05
4.76812e-05
4.68944e-05
4.89782e-05
5.44902e-05
6.20799e-05
7.01456e-05
8.04148e-05
9.70126e-05
0.000122913
0.000157084
0.00019311
0.000221616
0.000236488
0.000237825
0.000229003
0.000213151
0.000191956
0.000166118
0.000136669
0.000106961
8.35341e-05
7.38689e-05
8.50746e-05
0.000115248
4.27782e-05
4.75972e-06
8.00269e-06
4.84088e-05
0.000138207
0.000147747
0.000126243
9.60071e-05
7.18316e-05
5.7994e-05
5.19614e-05
5.05558e-05
5.18565e-05
5.5599e-05
6.19287e-05
6.92544e-05
7.52163e-05
8.09358e-05
9.11683e-05
0.000110131
0.000138432
0.000171656
0.000201242
0.00021969
0.000225103
0.000219891
0.000207143
0.000188757
0.000165516
0.000138328
0.000110379
8.84116e-05
8.06188e-05
9.48556e-05
0.000126893
4.64285e-05
4.91233e-06
8.0431e-06
5.06134e-05
0.000140958
0.000147569
0.000124829
9.4679e-05
7.13268e-05
5.84246e-05
5.35758e-05
5.38326e-05
5.7029e-05
6.21489e-05
6.87948e-05
7.54006e-05
7.94861e-05
8.1531e-05
8.6394e-05
9.93169e-05
0.000122417
0.000152984
0.000183096
0.000203921
0.000211634
0.000207663
0.000195026
0.000175961
0.000151992
0.000125378
0.000100667
8.43416e-05
8.30062e-05
0.000102778
0.000129204
4.12567e-05
4.7061e-06
8.03134e-06
5.24191e-05
0.000142685
0.000147343
0.000124694
9.55359e-05
7.2688e-05
5.96833e-05
5.48658e-05
5.59754e-05
6.11178e-05
6.88713e-05
7.801e-05
8.61973e-05
8.9851e-05
8.81216e-05
8.61041e-05
9.07199e-05
0.000105874
0.000130941
0.000159655
0.000182284
0.000192441
0.000189938
0.000177616
0.000158329
0.000134772
0.000110631
9.09752e-05
8.11907e-05
8.64901e-05
0.000109707
0.000123121
3.45927e-05
4.30403e-06
8.0133e-06
5.39027e-05
0.000144954
0.000149183
0.000127015
9.86564e-05
7.59391e-05
6.23517e-05
5.68003e-05
5.75604e-05
6.30281e-05
7.16772e-05
8.21284e-05
9.22682e-05
9.8204e-05
9.6747e-05
9.07604e-05
8.80475e-05
9.47564e-05
0.000112564
0.0001378
0.000161091
0.000173521
0.000172892
0.000161927
0.000144221
0.000123244
0.000102994
8.8101e-05
8.32061e-05
9.26001e-05
0.000114716
0.000115057
3.07179e-05
3.94067e-06
7.99994e-06
5.54463e-05
0.000146983
0.00015024
0.000128183
0.000100983
7.92433e-05
6.56806e-05
5.95133e-05
5.97907e-05
6.56599e-05
7.58001e-05
8.82742e-05
0.00010046
0.000108415
0.000107821
9.89958e-05
8.92407e-05
8.66526e-05
9.4965e-05
0.000113411
0.000135669
0.000151863
0.000156226
0.000149727
0.000136132
0.00011936
0.000103389
9.25007e-05
9.10204e-05
0.000102191
0.000120829
0.000113037
3.02235e-05
3.76067e-06
7.99145e-06
5.70801e-05
0.000149469
0.000151572
0.000129262
0.000102968
8.24779e-05
6.94742e-05
6.28298e-05
6.18875e-05
6.65096e-05
7.62514e-05
8.98296e-05
0.00010479
0.000116943
0.000120551
0.000112641
9.8386e-05
8.76025e-05
8.66671e-05
9.69569e-05
0.000115361
0.000133668
0.000143387
0.000142319
0.000133452
0.000121016
0.000109115
0.000101832
0.000103094
0.000114838
0.000129802
0.000117233
3.19574e-05
3.73544e-06
7.98735e-06
5.88621e-05
0.0001514
0.000151698
0.000128564
0.000103175
8.46065e-05
7.33297e-05
6.75575e-05
6.65483e-05
7.05039e-05
7.94405e-05
9.24623e-05
0.000107585
0.000121399
0.000128525
0.000123881
0.000108809
9.23834e-05
8.34769e-05
8.56256e-05
9.80604e-05
0.000115678
0.000129954
0.000135221
0.000132046
0.000124328
0.000116438
0.000112488
0.000115967
0.000127624
0.000139506
0.000124263
3.47157e-05
3.81619e-06
7.96458e-06
6.03981e-05
0.000152967
0.000150976
0.000126797
0.000102218
8.55101e-05
7.60256e-05
7.13003e-05
7.03467e-05
7.36671e-05
8.19505e-05
9.49493e-05
0.000111031
0.00012698
0.000137526
0.000136524
0.000122255
0.000101842
8.58911e-05
8.04476e-05
8.64321e-05
0.000101104
0.000117546
0.000128131
0.000130431
0.000127215
0.000122929
0.000121773
0.000126843
0.000138043
0.000147496
0.000130421
3.71942e-05
3.93759e-06
7.91027e-06
6.10289e-05
0.000153375
0.000149764
0.000124683
0.000101033
8.63909e-05
7.91547e-05
7.62291e-05
7.60562e-05
7.88449e-05
8.55186e-05
9.64989e-05
0.000111036
0.000126898
0.00013979
0.000143471
0.000133341
0.000112565
9.14919e-05
7.89646e-05
7.8083e-05
8.79052e-05
0.000103839
0.000118278
0.000125963
0.000127488
0.000126825
0.000128235
0.000134636
0.000145533
0.000153393
0.000134994
3.89692e-05
4.07499e-06
7.82759e-06
6.06276e-05
0.000153071
0.000147398
0.000120762
9.78183e-05
8.51615e-05
8.00382e-05
7.88846e-05
7.99556e-05
8.33197e-05
8.98644e-05
0.000100195
0.000113925
0.000129363
0.000143078
0.000149646
0.000143519
0.000124374
0.000100171
8.1275e-05
7.33829e-05
7.72402e-05
9.0336e-05
0.000106511
0.000118749
0.000124904
0.000127847
0.000131775
0.000139548
0.000150463
0.000157255
0.000137363
3.97057e-05
4.20589e-06
7.71349e-06
5.84809e-05
0.000151566
0.000144728
0.000116338
9.4189e-05
8.39332e-05
8.14074e-05
8.22041e-05
8.41009e-05
8.70638e-05
9.22713e-05
0.000100858
0.000113029
0.000127682
0.000142076
0.000151573
0.000150431
0.000135569
0.000111241
8.74281e-05
7.24833e-05
6.93511e-05
7.72533e-05
9.23629e-05
0.000107884
0.000118873
0.000125959
0.000132775
0.000142144
0.000153306
0.000159275
0.000137687
3.95462e-05
4.32188e-06
7.58968e-06
5.47516e-05
0.000147304
0.000138203
0.000106789
8.54804e-05
7.81698e-05
7.90624e-05
8.29961e-05
8.7285e-05
9.15664e-05
9.68552e-05
0.00010443
0.000114963
0.000128009
0.000141654
0.000152256
0.000154731
0.000144754
0.000122991
9.68311e-05
7.58398e-05
6.5591e-05
6.69789e-05
7.81696e-05
9.43624e-05
0.000109391
0.000120949
0.000131142
0.000142452
0.000154069
0.000159336
0.000135879
3.85743e-05
4.42697e-06
7.45028e-06
4.9088e-05
0.000137634
0.000127548
9.42732e-05
7.4631e-05
7.07231e-05
7.55587e-05
8.29572e-05
8.93001e-05
9.41285e-05
9.8958e-05
0.000105564
0.000114948
0.000126963
0.000140109
0.000151431
0.000156671
0.0001514
0.000133926
0.000108254
8.30867e-05
6.62028e-05
6.06629e-05
6.60052e-05
7.97161e-05
9.67721e-05
0.000112634
0.000126704
0.000140307
0.000152492
0.000157114
0.000131858
3.69633e-05
4.51304e-06
7.31265e-06
4.26499e-05
0.000121812
0.00011231
7.89908e-05
6.09048e-05
5.92671e-05
6.75709e-05
7.98852e-05
9.11592e-05
9.91331e-05
0.000104719
0.000110254
0.000117685
0.000127679
0.000139338
0.000150298
0.000157004
0.000155385
0.000142605
0.000119714
9.29786e-05
7.08592e-05
5.87923e-05
5.78306e-05
6.67781e-05
8.26497e-05
0.000100913
0.000118537
0.000134742
0.000147887
0.000152269
0.00012568
3.48206e-05
4.58232e-06
7.21529e-06
3.75731e-05
0.000106862
0.000100302
6.90028e-05
5.10729e-05
4.92214e-05
5.81705e-05
7.31542e-05
8.86335e-05
0.000100511
0.0001084
0.000114472
0.000121137
0.00012968
0.000139804
0.000149751
0.000156705
0.0001573
0.000148559
0.000129561
0.00010367
7.83016e-05
6.06078e-05
5.36122e-05
5.7125e-05
6.95792e-05
8.77494e-05
0.000107615
0.000126234
0.000140715
0.000145341
0.000117575
3.21839e-05
4.5974e-06
7.20208e-06
3.56212e-05
0.000100014
9.7028e-05
6.75877e-05
4.69588e-05
4.1867e-05
4.83856e-05
6.3531e-05
8.28852e-05
0.000100345
0.000112353
0.000119821
0.000125763
0.000132557
0.00014073
0.000149083
0.000155368
0.000156995
0.000151403
0.00013669
0.000113648
8.74071e-05
6.54918e-05
5.29954e-05
5.10246e-05
5.88968e-05
7.48881e-05
9.54985e-05
0.000116192
0.00013226
0.000137449
0.000108775
2.95858e-05
4.57442e-06
7.32602e-06
3.77361e-05
0.000104569
0.000105784
7.90645e-05
5.27952e-05
4.07855e-05
4.14119e-05
5.21083e-05
7.04511e-05
9.1477e-05
0.0001093
0.000121393
0.000129218
0.000135536
0.000141934
0.000148176
0.000152872
0.000154354
0.000150821
0.000140202
0.000121436
9.68373e-05
7.27105e-05
5.56322e-05
4.85125e-05
5.14369e-05
6.37396e-05
8.33257e-05
0.000105427
0.000123416
0.000129692
0.000100733
2.73678e-05
4.53268e-06
7.51756e-06
4.31224e-05
0.000117463
0.000124477
0.000103663
7.16675e-05
4.83373e-05
3.97942e-05
4.3237e-05
5.65392e-05
7.68406e-05
9.84958e-05
0.000116031
0.000127895
0.000135803
0.000141762
0.000146444
0.000149403
0.000149981
0.000147394
0.000140104
0.000126176
0.00010535
8.1425e-05
6.11071e-05
4.93311e-05
4.74486e-05
5.54458e-05
7.26842e-05
9.54047e-05
0.000115485
0.00012327
9.45602e-05
2.57541e-05
4.4877e-06
7.74133e-06
5.03315e-05
0.000134185
0.00014684
0.000134751
0.000105618
6.98578e-05
4.71315e-05
4.00985e-05
4.51284e-05
6.00465e-05
8.15691e-05
0.00010372
0.000121364
0.000133255
0.000140634
0.000144779
0.00014625
0.000145435
0.000142683
0.000137444
0.000127872
0.000112024
9.0711e-05
6.9031e-05
5.32889e-05
4.67534e-05
5.01851e-05
6.40143e-05
8.64016e-05
0.000108842
0.000118823
9.10599e-05
2.48572e-05
4.47081e-06
7.85515e-06
5.56122e-05
0.000147345
0.000163366
0.000157437
0.00013999
0.000107424
7.00945e-05
4.77257e-05
4.15331e-05
4.7605e-05
6.35909e-05
8.57373e-05
0.000107976
0.000125528
0.00013693
0.00014269
0.000143828
0.000141695
0.000137872
0.000133163
0.000126617
0.000115779
9.89934e-05
7.84642e-05
6.01724e-05
4.93895e-05
4.82822e-05
5.80254e-05
7.89057e-05
0.000103741
0.000116659
9.03019e-05
2.46217e-05
4.4834e-06
7.90523e-06
5.83446e-05
0.000154154
0.000168961
0.000163348
0.000152976
0.000137155
0.000107444
7.15446e-05
4.97183e-05
4.41221e-05
5.11708e-05
6.82985e-05
9.11691e-05
0.000113456
0.00013026
0.00013972
0.000142171
0.000139416
0.000134135
0.0001286
0.000123265
0.000116232
0.000104581
8.75403e-05
6.89566e-05
5.49793e-05
4.97052e-05
5.52192e-05
7.34101e-05
0.00010014
0.000117104
9.30984e-05
2.51763e-05
4.5686e-06
7.89387e-06
5.91645e-05
0.000155272
0.00016705
0.000158438
0.000148797
0.000142712
0.000133671
0.000108904
7.45592e-05
5.29671e-05
4.79322e-05
5.61776e-05
7.46995e-05
9.84145e-05
0.000120387
0.000135242
0.000140956
0.000138763
0.000132156
0.000124915
0.000119114
0.000114049
0.000106754
9.44306e-05
7.79831e-05
6.26124e-05
5.39649e-05
5.5512e-05
7.01683e-05
9.73003e-05
0.00011904
9.8525e-05
2.63257e-05
4.70293e-06
7.95143e-06
6.10184e-05
0.000157422
0.000165053
0.000151432
0.000139053
0.000135161
0.000136782
0.000133202
0.000110919
7.78092e-05
5.71867e-05
5.35848e-05
6.39679e-05
8.46132e-05
0.000109136
0.000129527
0.000140043
0.000139738
0.000132199
0.000122724
0.000115125
0.000110052
0.000105184
9.69981e-05
8.41104e-05
6.96089e-05
5.92509e-05
5.78566e-05
6.92778e-05
9.52953e-05
0.000120567
0.000103489
2.73558e-05
4.83972e-06
8.06692e-06