/*--------------------------------*- C++ -*----------------------------------*\
| =========                 |                                                 |
| \\      /  F ield         | OpenFOAM: The Open Source CFD Toolbox           |
|  \\    /   O peration     | Version:  v2006                                 |
|   \\  /    A nd           | Website:  www.openfoam.com                      |
|    \\/     M anipulation  |                                                 |
\*---------------------------------------------------------------------------*/
FoamFile
{
    version     2.0;
    format      ascii;
    class       volScalarField;
    location    "9";
    object      T;
}
// * * * * * * * * * * * * * * * * * * * * * * * * * * * * * * * * * * * * * //

dimensions      [0 0 0 1 0 0 0];


internalField   nonuniform List<scalar> 
78750
(
318.939
303.064
302.971
309.485
308.925
309.745
309.681
309.449
308.977
308.332
307.563
306.695
305.744
304.715
303.592
302.344
300.882
299.1
296.957
294.603
292.351
290.367
288.63
286.839
284.295
281.369
280.301
277.492
268.308
268.46
278.98
253.914
215.957
215.245
288.591
291.967
296.03
295.651
295.057
297.103
298.976
300.529
301.847
303.019
304.04
304.905
305.62
306.184
306.604
306.87
306.983
306.935
306.712
306.294
305.642
304.7
303.414
301.762
299.787
297.591
295.264
292.933
290.83
289.09
287.781
287.384
288.281
291.033
297.649
323.078
322.003
320.08
311.65
316.155
315.767
315.842
316.051
316.309
316.577
316.847
317.105
317.334
317.512
317.616
317.611
317.455
317.098
316.49
315.579
314.324
312.698
310.701
308.362
305.739
302.908
300.003
297.291
295.206
294.037
293.812
294.581
296.506
299.875
306.385
328.075
315.33
312.202
307.979
308.858
309.213
309.564
309.896
310.231
310.602
311.053
311.617
312.325
313.185
314.18
315.214
316.112
316.699
316.874
316.613
315.955
314.987
313.816
312.536
311.205
309.89
308.745
308.016
307.921
308.533
309.894
312.135
315.42
319.962
327.19
347.104
306.449
312.819
316.481
318.306
318.927
319.23
319.637
320.194
320.82
321.423
321.958
322.41
322.733
322.658
321.928
320.853
319.836
319.006
318.337
317.817
317.516
317.579
318.219
319.713
321.949
323.466
322.036
317.798
315.035
314.948
316.472
319.036
322.994
330.047
349.77
326.14
346.936
349.877
345.485
336.754
328.904
324.552
322.718
322.136
322.109
322.308
322.591
322.889
323.164
323.395
323.591
323.764
323.908
324.025
324.119
324.161
324.167
324.286
324.568
324.683
324.145
322.986
321.805
321.294
321.839
323.619
326.815
331.878
340.87
364.182
330.692
331.608
324.16
318.714
317.591
317.683
317.983
318.022
317.837
317.462
316.974
316.475
316.058
315.805
315.805
316.117
316.707
317.492
318.475
319.69
321.129
322.781
324.613
326.57
328.589
330.642
332.819
335.47
338.822
342.59
346.803
351.844
358.496
368.751
388.734
325.254
338.587
341.725
341.878
340.825
339.538
338.268
336.98
335.685
334.435
333.246
332.119
331.058
330.066
329.153
328.344
327.685
327.233
327.028
327.086
327.404
327.963
328.725
329.641
330.678
331.837
333.159
334.702
336.487
338.54
341.006
344.183
348.516
355.271
373.132
318.422
326.966
329.17
330.003
330.313
330.373
330.373
330.394
330.455
330.534
330.577
330.539
330.405
330.181
329.869
329.452
328.918
328.28
327.585
326.942
326.5
326.337
326.452
326.803
327.321
327.951
328.63
329.325
329.947
330.424
330.661
330.508
328.914
327.579
349.857
306.288
312.627
316.174
318.832
320.962
322.748
324.319
325.745
327.051
328.251
329.339
330.314
331.173
331.923
332.575
333.137
333.618
334.023
334.364
334.65
334.897
335.125
335.34
335.498
335.71
335.733
336.016
335.919
336.347
336.675
337.567
338.592
336.239
333.2
353.811
307.407
317.014
323.159
327.491
330.771
333.411
335.62
337.517
339.176
340.645
341.959
343.143
344.179
345.025
345.671
346.145
346.497
346.779
347.022
347.243
347.452
347.68
347.903
348.138
348.395
348.365
348.091
346.967
345.815
343.837
343.605
345.248
349.258
345.986
364.66
311.633
322.871
328.354
331.429
333.57
335.315
336.878
338.365
339.825
341.261
342.62
343.791
344.552
344.669
344.28
343.657
343.051
342.644
342.394
342.124
341.742
341.37
341.096
341.132
341.071
340.944
342.552
345.319
346.765
345.895
346.331
347.543
347.779
345.637
361.162
314.552
326.531
331.406
334.332
336.798
339.101
341.311
343.465
345.596
347.686
349.556
350.749
350.245
347.152
343.676
340.69
338.055
336.275
335.243
334.738
334.743
335.47
336.301
335.745
334.135
333.22
333.531
334.403
335.462
336.794
338.636
340.507
342.671
347.308
367.028
315.471
326.895
330.862
333.263
335.389
337.443
339.499
341.624
343.726
345.161
344.862
342.617
339.762
337.89
336.547
335.286
334.236
333.448
332.603
331.45
330.119
329.168
328.981
329.389
330.214
331.552
333.423
335.65
338.182
341.062
344.422
348.617
354.783
365.559
386.926
315.404
327.282
331.502
334.13
336.48
338.761
341.04
343.257
345.175
346.415
346.456
344.74
341.62
338.576
336.256
334.813
334.154
333.686
332.974
331.903
330.638
329.636
329.359
329.96
331.345
333.422
336.092
339.188
342.616
346.404
350.718
355.92
362.833
373.077
390.185
312.558
323.992
328.215
330.548
332.423
334.168
335.905
337.758
339.885
342.455
345.521
348.639
350.415
349.206
344.888
339.52
335.218
332.693
331.567
331.139
330.905
330.648
330.438
330.441
330.833
331.663
332.841
334.386
336.392
338.962
342.041
345.673
350.392
357.367
375.408
314.001
325.907
330.575
333.227
335.336
337.219
338.948
340.537
341.967
343.218
344.347
345.553
347.084
348.985
350.849
351.867
351.147
348.209
344.009
340.108
337.233
335.225
333.774
332.915
332.266
331.298
330.455
330.351
331.546
333.534
335.678
337.502
335.843
329.368
355.074
311.887
323.355
328.325
331.112
333.24
335.126
336.885
338.584
340.279
342.007
343.761
345.458
346.992
348.334
349.556
350.733
351.727
351.634
349.55
346.219
342.837
340.358
338.275
335.982
334.991
335.156
334.16
331.806
329.46
328.055
327.093
325.013
322.526
325.202
351.187
313.078
325.412
330.524
333.39
335.593
337.529
339.317
341.024
342.674
344.237
345.659
346.938
348.122
349.25
350.286
351.075
351.132
349.218
344.174
338.676
336.567
338.958
343.15
344.735
341.481
336.389
331.361
326.825
324.736
326.538
329.882
332.88
336.965
346.551
374.957
312.184
324.608
330.083
333.16
335.498
337.553
339.461
341.293
343.067
344.743
346.248
347.541
348.661
349.698
350.718
351.652
352.075
350.587
344.888
337.444
337.352
343.591
348.463
350.257
349.648
348.192
346.276
344
341.977
341.238
342.603
346.671
353.945
367.028
393.132
313.704
326.584
331.833
334.826
337.188
339.309
341.327
343.291
345.145
346.772
348.079
349.054
349.751
350.27
350.731
351.258
351.942
352.753
353.309
352.376
347.554
339.195
334.853
337.129
340.67
343.576
346.603
349.561
352.63
356.512
360.564
363.526
366.692
375.291
395.708
313.874
327.287
332.767
335.856
338.289
340.494
342.607
344.619
346.39
347.797
348.843
349.62
350.224
350.713
351.111
351.439
351.735
352.044
352.388
352.694
352.716
352.13
350.907
349.124
346.809
344.053
341.774
341.355
342.914
346.301
352.188
362.235
373.364
382.59
396.706
315.727
329.276
334.506
337.554
340.095
342.504
344.893
347.143
349.006
350.348
351.201
351.68
351.918
352.028
352.086
352.131
352.183
352.249
352.335
352.442
352.553
352.627
352.602
352.429
352.08
351.537
350.88
350.288
349.704
348.657
346.129
338.002
342.99
357.516
381.692
316.379
330.232
335.45
338.506
341.131
343.717
346.281
348.491
350.041
350.974
351.511
351.839
352.058
352.213
352.325
352.404
352.46
352.5
352.529
352.547
352.551
352.529
352.469
352.363
352.206
351.982
351.628
350.926
349.591
348.225
350.899
353.836
357.708
367.309
387.181
317.387
331.334
336.614
339.799
342.651
345.547
348.383
350.658
352.092
352.828
353.14
353.235
353.234
353.197
353.151
353.109
353.075
353.05
353.034
353.026
353.025
353.029
353.033
353.034
353.027
353.004
352.965
352.926
353.013
353.751
356.294
361.9
370.664
382.798
396.642
317.676
331.734
337.055
340.287
343.239
346.287
349.226
351.456
352.762
353.388
353.645
353.73
353.739
353.716
353.68
353.64
353.599
353.561
353.528
353.499
353.476
353.458
353.444
353.431
353.402
353.288
352.838
351.95
351.074
350.263
349.528
348.458
342.857
341.735
373.696
318.126
332.397
337.834
341.191
344.311
347.576
350.714
353.028
354.297
354.827
354.976
354.962
354.89
354.808
354.737
354.682
354.644
354.626
354.633
354.672
354.753
354.887
355.086
355.364
355.751
356.339
357.521
360.095
360.841
357.723
351.857
344.892
342.897
351.859
377.676
317.991
332.382
337.942
341.38
344.593
347.987
351.276
353.726
355.071
355.624
355.778
355.768
355.702
355.626
355.557
355.505
355.47
355.454
355.458
355.489
355.56
355.696
355.949
356.442
357.438
359.538
363.66
369.18
371.79
370.366
368.132
367.428
370.838
380.492
399.015
318.236
332.823
338.501
342.032
345.345
348.857
352.277
354.835
356.234
356.791
356.921
356.882
356.793
356.704
356.631
356.583
356.562
356.565
356.587
356.622
356.654
356.667
356.653
356.636
356.705
357.089
358.327
361.467
366.555
371.161
374.383
377.043
380.388
386.171
398.741
318.361
333.1
338.792
342.364
345.796
349.505
353.106
355.766
357.187
357.716
357.819
357.775
357.705
357.657
357.65
357.695
357.803
357.983
358.239
358.566
358.958
359.446
360.083
360.735
360.718
359.804
359.008
359.092
360.575
363.455
367.072
370.841
374.696
380.053
392.899
318.254
333.102
338.932
342.597
346.114
349.9
353.558
356.311
357.866
358.491
358.615
358.535
358.398
358.269
358.179
358.144
358.176
358.289
358.501
358.825
359.27
359.891
360.769
361.817
362.398
361.673
360.075
358.609
357.808
358.028
359.651
362.938
367.655
374.806
391.155
318.366
333.345
339.203
342.94
346.656
350.746
354.574
357.28
358.723
359.276
359.371
359.282
359.134
358.981
358.844
358.738
358.675
358.667
358.728
358.88
359.157
359.613
360.322
361.333
362.503
363.307
363.198
362.221
360.931
360.078
360.515
363.054
367.984
376.623
395.138
318.208
333.211
339.173
343.009
346.873
351.172
355.162
357.951
359.447
360.024
360.115
360.005
359.832
359.649
359.476
359.325
359.202
359.115
359.077
359.101
359.209
359.435
359.829
360.464
361.414
362.661
363.994
365.058
365.635
365.932
366.701
368.97
373.51
382.005
399.344
318.237
333.318
339.335
343.276
347.394
352.07
356.247
358.93
360.246
360.718
360.771
360.654
360.485
360.307
360.133
359.97
359.819
359.685
359.572
359.489
359.45
359.479
359.613
359.913
360.466
361.386
362.766
364.599
366.731
368.967
371.394
374.563
379.126
386.729
401.303
318.278
333.291
339.305
343.308
347.581
352.534
357.013
359.834
361.123
361.507
361.479
361.31
361.118
360.94
360.781
360.64
360.514
360.398
360.29
360.192
360.103
360.035
360.01
360.073
360.305
360.828
361.81
363.454
365.939
369.287
373.286
377.694
382.56
389.423
401.847
318.07
333.015
339.073
343.106
347.409
352.474
357.223
360.292
361.71
362.151
362.136
361.954
361.74
361.545
361.382
361.249
361.14
361.049
360.973
360.906
360.844
360.78
360.715
360.667
360.688
360.878
361.397
362.477
364.433
367.556
371.815
376.643
381.559
388.046
400.369
318.259
333.11
339.059
342.999
347.15
352.109
357.146
360.691
362.375
362.877
362.843
362.626
362.382
362.167
361.995
361.862
361.762
361.69
361.642
361.616
361.606
361.603
361.594
361.574
361.56
361.61
361.84
362.44
363.686
365.918
369.323
373.584
378.235
384.731
398.386
317.814
332.517
338.463
342.291
346.114
350.638
355.733
360.006
362.432
363.343
363.45
363.237
362.953
362.701
362.507
362.37
362.281
362.232
362.22
362.244
362.304
362.396
362.501
362.596
362.671
362.751
362.907
363.274
364.061
365.557
368.027
371.486
375.773
382.413
397.497
317.849
332.519
338.395
342.089
345.589
349.561
354.275
358.951
362.195
363.713
364.11
363.974
363.659
363.339
363.081
362.898
362.783
362.727
362.724
362.777
362.893
363.082
363.344
363.653
363.958
364.23
364.504
364.893
365.579
366.813
368.872
371.918
376.027
382.871
398.562
317.354
331.942
337.871
341.528
344.823
348.345
352.5
357.173
361.19
363.564
364.487
364.581
364.316
363.961
363.642
363.404
363.247
363.164
363.148
363.2
363.332
363.569
363.944
364.483
365.162
365.894
366.594
367.301
368.201
369.558
371.641
374.623
378.663
385.505
400.636
317.294
331.928
337.899
341.551
344.758
348.012
351.629
355.785
359.987
363.106
364.694
365.159
365.031
364.673
364.288
363.97
363.743
363.602
363.54
363.554
363.654
363.866
364.237
364.838
365.745
366.971
368.401
369.853
371.311
373.006
375.23
378.168
382.032
388.529
402.383
316.862
331.561
337.686
341.418
344.649
347.843
351.22
354.922
358.847
362.309
364.526
365.484
365.625
365.362
364.964
364.586
364.288
364.082
363.96
363.916
363.955
364.097
364.382
364.884
365.721
367.037
368.913
371.229
373.684
376.102
378.63
381.53
385.153
391.16
403.568
316.954
331.867
338.091
341.87
345.125
348.317
351.612
355.04
358.525
361.817
364.323
365.692
366.133
366.025
365.667
365.256
364.897
364.625
364.438
364.33
364.299
364.357
364.531
364.878
365.493
366.54
368.237
370.745
373.95
377.408
380.704
383.875
387.404
392.955
404.073
316.841
332.055
338.489
342.388
345.727
348.982
352.3
355.637
358.84
361.784
364.227
365.814
366.523
366.607
366.343
365.946
365.554
365.233
364.995
364.831
364.736
364.714
364.783
364.979
365.366
366.061
367.264
369.253
372.256
376.146
380.291
384.079
387.742
392.988
403.531
317.402
332.965
339.454
343.401
346.821
350.188
353.621
356.976
359.984
362.532
364.615
366.102
366.9
367.129
366.982
366.64
366.249
365.901
365.626
365.424
365.285
365.206
365.195
365.273
365.48
365.889
366.626
367.917
370.079
373.361
377.532
381.742
385.569
390.69
401.742
317.902
333.696
340.239
344.256
347.785
351.286
354.855
358.283
361.235
363.569
365.348
366.616
367.356
367.631
367.565
367.291
366.934
366.59
366.307
366.091
365.934
365.829
365.777
365.789
365.889
366.12
366.558
367.348
368.74
371.084
374.564
378.655
382.516
387.634
399.531
318.775
334.704
341.194
345.237
348.872
352.544
356.297
359.815
362.688
364.793
366.273
367.282
367.892
368.153
368.139
367.927
367.611
367.286
367.012
366.804
366.655
366.556
366.502
366.5
366.563
366.717
367.013
367.546
368.502
370.211
373.043
376.83
380.674
385.866
398.274
319.509
335.472
341.916
345.989
349.712
353.492
357.349
360.935
363.819
365.855
367.187
368.021
368.499
368.706
368.703
368.538
368.267
367.971
367.719
367.535
367.417
367.354
367.342
367.382
367.486
367.675
367.989
368.509
369.403
370.981
373.627
377.235
380.999
386.257
398.94
320.181
336.205
342.63
346.728
350.506
354.342
358.23
361.813
364.666
366.646
367.901
368.655
369.075
369.262
369.275
369.148
368.916
368.645
368.411
368.253
368.174
368.164
368.22
368.346
368.557
368.879
369.363
370.101
371.272
373.159
375.997
379.508
383.105
388.314
400.889
320.744
336.829
343.245
347.362
351.16
354.983
358.824
362.378
365.252
367.265
368.521
369.245
369.631
369.804
369.829
369.739
369.551
369.304
369.076
368.929
368.88
368.925
369.059
369.293
369.65
370.171
370.929
372.039
373.68
376.038
379.104
382.456
385.838
390.865
402.694
321.205
337.422
343.871
348.008
351.798
355.557
359.276
362.711
365.547
367.606
368.933
369.711
370.13
370.325
370.373
370.316
370.169
369.952
369.724
369.564
369.519
369.592
369.781
370.102
370.587
371.293
372.308
373.757
375.782
378.446
381.554
384.693
387.859
392.617
403.52
321.726
338.089
344.591
348.77
352.585
356.319
359.935
363.219
365.941
367.969
369.319
370.133
370.584
370.808
370.89
370.873
370.774
370.6
370.38
370.189
370.105
370.16
370.358
370.71
371.254
372.051
373.19
374.785
376.932
379.608
382.562
385.468
388.437
392.933
403.355
322.347
338.888
345.437
349.655
353.501
357.224
360.75
363.87
366.424
368.36
369.701
370.546
371.032
371.285
371.393
371.406
371.347
371.219
371.03
370.826
370.692
370.694
370.855
371.184
371.712
372.497
373.622
375.18
377.229
379.716
382.415
385.101
387.917
392.26
402.713
323.067
339.744
346.341
350.617
354.533
358.307
361.809
364.804
367.172
368.933
370.168
370.974
371.463
371.737
371.871
371.915
371.893
371.811
371.669
371.482
371.314
371.251
371.346
371.616
372.085
372.798
373.829
375.251
377.108
379.343
381.788
384.291
387
391.276
401.983
323.859
340.637
347.224
351.52
355.487
359.311
362.814
365.74
367.989
369.623
370.757
371.503
371.963
372.227
372.365
372.422
372.423
372.376
372.281
372.136
371.972
371.866
371.896
372.1
372.496
373.122
374.039
375.31
376.97
378.977
381.212
383.575
386.213
390.471
401.436
324.447
341.306
347.898
352.222
356.249
360.139
363.666
366.556
368.726
370.265
371.318
372.012
372.45
372.71
372.853
372.921
372.939
372.92
372.866
372.772
372.648
372.541
372.528
372.674
373.006
373.557
374.375
375.517
377.018
378.85
380.926
383.182
385.765
390.014
401.149
324.894
341.832
348.389
352.705
356.775
360.738
364.316
367.217
369.375
370.893
371.915
372.577
372.987
373.228
373.362
373.428
373.453
373.449
373.422
373.373
373.304
373.239
373.231
373.351
373.642
374.139
374.886
375.935
377.321
379.027
380.987
383.161
385.701
389.946
401.158
324.95
342.005
348.55
352.86
356.984
361.045
364.688
367.601
369.758
371.287
372.337
373.03
373.464
373.721
373.863
373.934
373.963
373.967
373.957
373.938
373.918
373.912
373.956
374.1
374.392
374.871
375.58
376.569
377.875
379.489
381.363
383.47
385.976
390.22
401.429
324.783
341.908
348.419
352.727
356.969
361.252
365.074
368.054
370.213
371.732
372.783
373.487
373.938
374.209
374.361
374.436
374.468
374.476
374.474
374.47
374.479
374.523
374.636
374.856
375.209
375.722
376.438
377.406
378.664
380.213
382.021
384.074
386.553
390.801
401.933
324.135
341.172
347.657
351.996
356.437
361.096
365.237
368.359
370.546
372.066
373.13
373.867
374.357
374.664
374.84
374.931
374.97
374.982
374.983
374.985
375.005
375.071
375.231
375.536
376.006
376.629
377.42
378.42
379.669
381.18
382.939
384.95
387.41
391.666
402.633
322.969
339.538
346.006
350.436
355.193
360.476
365.253
368.746
371.054
372.568
373.593
374.303
374.791
375.11
375.305
375.411
375.461
375.479
375.482
375.486
375.508
375.578
375.75
376.102
376.687
377.477
378.426
379.539
380.848
382.373
384.119
386.111
388.566
392.832
403.495
321.215
336.947
343.421
347.968
352.997
358.9
364.512
368.66
371.315
372.966
374.029
374.744
375.233
375.561
375.769
375.889
375.949
375.973
375.979
375.984
376.004
376.069
376.231
376.585
377.237
378.199
379.374
380.689
382.139
383.744
385.524
387.524
389.987
394.248
404.426
319.272
334.327
340.909
345.543
350.603
356.735
363.076
368.104
371.365
373.305
374.47
375.207
375.694
376.02
376.231
376.359
376.428
376.459
376.469
376.474
376.492
376.548
376.69
377.013
377.658
378.725
380.138
381.729
383.404
385.155
387.011
389.036
391.499
395.702
405.221
318.069
333.343
340.144
344.733
349.38
354.85
361.049
366.709
370.779
373.282
374.743
375.611
376.149
376.492
376.709
376.84
376.913
376.947
376.96
376.965
376.979
377.025
377.144
377.418
377.994
379.042
380.592
382.445
384.384
386.322
388.276
390.325
392.765
396.849
405.711
318.213
334.614
341.672
346.11
350.102
354.345
359.357
364.805
369.495
372.728
374.682
375.82
376.495
376.907
377.16
377.31
377.393
377.433
377.448
377.453
377.464
377.501
377.599
377.823
378.301
379.229
380.748
382.739
384.896
387.011
389.056
391.121
393.524
397.479
405.876
319.873
337.356
344.484
348.77
352.277
355.504
358.993
363.226
367.794
371.635
374.24
375.806
376.718
377.256
377.577
377.764
377.868
377.919
377.938
377.943
377.95
377.979
378.057
378.235
378.616
379.376
380.722
382.669
384.926
387.163
389.272
391.336
393.695
397.546
405.759
321.81
339.696
346.799
351.092
354.55
357.467
360.109
362.949
366.429
370.178
373.306
375.423
376.705
377.458
377.903
378.165
378.314
378.392
378.425
378.436
378.442
378.462
378.524
378.666
378.965
379.565
380.676
382.429
384.644
386.926
389.059
391.102
393.411
397.194
405.466
323.215
340.991
348.062
352.483
356.19
359.345
361.96
364.207
366.507
369.293
372.296
374.797
376.492
377.524
378.138
378.502
378.717
378.838
378.899
378.924
378.935
378.952
379
379.113
379.349
379.817
380.702
382.189
384.237
386.482
388.605
390.61
392.853
396.574
405.078
323.721
341.359
348.487
353.065
357.063
360.608
363.558
365.864
367.723
369.545
371.738
374.114
376.095
377.439
378.267
378.765
379.067
379.247
379.35
379.404
379.431
379.452
379.493
379.586
379.774
380.141
380.836
382.055
383.872
386.028
388.146
390.141
392.346
396.035
404.81
324.164
341.903
349.149
353.866
358.081
361.927
365.184
367.681
369.495
370.898
372.266
373.942
375.77
377.285
378.316
378.961
379.36
379.61
379.765
379.86
379.916
379.957
380.008
380.099
380.268
380.583
381.16
382.183
383.792
385.851
387.979
389.999
392.205
395.891
404.782
325.268
343.248
350.583
355.438
359.878
363.94
367.305
369.807
371.546
372.76
373.716
374.702
375.954
377.303
378.402
379.152
379.634
379.946
380.152
380.29
380.383
380.452
380.523
380.628
380.802
381.102
381.626
382.537
383.996
385.957
388.073
390.101
392.297
395.958
404.872
326.94
344.901
352.22
357.297
362.207
366.646
370.053
372.374
373.881
374.867
375.563
376.157
376.848
377.749
378.68
379.419
379.933
380.282
380.526
380.703
380.835
380.941
381.044
381.177
381.379
381.702
382.233
383.111
384.486
386.346
388.392
390.381
392.553
396.208
405.139
327.927
345.524
352.855
358.38
364.211
369.323
372.821
374.93
376.175
376.935
377.432
377.809
378.184
378.674
379.286
379.872
380.333
380.671
380.923
381.121
381.284
381.425
381.566
381.74
381.988
382.367
382.961
383.894
385.291
387.118
389.103
391.047
393.213
396.889
405.653
327.094
344.373
351.966
358.198
365.295
371.219
374.86
376.842
377.932
378.567
378.962
379.236
379.471
379.746
380.102
380.495
380.848
381.135
381.369
381.57
381.751
381.925
382.107
382.326
382.632
383.085
383.775
384.825
386.324
388.187
390.137
392.036
394.193
397.872
406.271
325.095
342.326
350.299
357.168
365.354
372.075
376.003
378.038
379.124
379.747
380.128
380.377
380.563
380.742
380.955
381.2
381.446
381.669
381.871
382.062
382.254
382.459
382.688
382.966
383.337
383.865
384.639
385.769
387.322
389.176
391.064
392.908
395.053
398.758
406.889
323.47
340.904
348.938
355.774
364.192
371.657
376.2
378.554
379.796
380.504
380.937
381.216
381.409
381.565
381.718
381.885
382.059
382.233
382.406
382.588
382.792
383.036
383.335
383.711
384.207
384.892
385.84
387.115
388.715
390.501
392.288
394.075
396.249
400.044
407.66
323.225
341.134
348.953
355.167
362.854
370.673
375.978
378.81
380.279
381.099
381.592
381.905
382.113
382.264
382.392
382.517
382.649
382.788
382.94
383.113
383.328
383.609
383.983
384.471
385.104
385.962
387.147
388.692
390.475
392.279
393.994
395.711
397.838
401.477
408.17
324.382
342.942
350.723
356.491
363.19
370.454
375.983
379.112
380.741
381.636
382.171
382.509
382.731
382.884
383
383.103
383.208
383.322
383.455
383.617
383.831
384.133
384.569
385.169
385.918
386.814
387.959
389.471
391.283
393.133
394.857
396.537
398.578
402.003
408.261
326.341
345.347
353.278
359.095
365.428
371.784
376.772
379.767
381.362
382.243
382.77
383.105
383.325
383.474
383.58
383.667
383.748
383.837
383.946
384.086
384.283
384.578
385.039
385.749
386.734
387.895
389.099
390.365
391.791
393.345
394.926
396.55
398.579
402.045
408.334
328.039
347.002
354.961
360.964
367.435
373.415
377.847
380.565
382.055
382.886
383.386
383.706
383.917
384.059
384.157
384.229
384.289
384.349
384.421
384.518
384.661
384.885
385.254
385.879
386.893
388.344
390.059
391.717
393.145
394.449
395.779
397.236
399.135
402.401
408.289
328.735
347.638
355.626
361.755
368.379
374.3
378.57
381.212
382.687
383.51
384
384.313
384.521
384.661
384.757
384.822
384.869
384.907
384.945
384.994
385.069
385.191
385.404
385.781
386.452
387.587
389.278
391.37
393.453
395.174
396.576
397.913
399.54
402.275
407.718
329.047
348.115
356.462
362.992
369.796
375.321
379.202
381.721
383.211
384.065
384.574
384.898
385.115
385.264
385.368
385.439
385.487
385.519
385.54
385.557
385.577
385.615
385.69
385.841
386.132
386.675
387.627
389.119
391.093
393.21
395.08
396.661
398.272
400.758
406.542
329.756
348.866
358.008
365.654
373.098
377.968
380.857
382.727
383.938
384.695
385.173
385.49
385.71
385.868
385.984
386.07
386.132
386.175
386.202
386.215
386.217
386.214
386.215
386.238
386.311
386.485
386.846
387.53
388.699
390.434
392.55
394.619
396.521
399.172
405.673
330.297
349.126
359.172
368.389
376.763
381.231
383.233
384.315
385.032
385.533
385.888
386.145
386.339
386.489
386.608
386.704
386.782
386.844
386.891
386.922
386.937
386.935
386.92
386.901
386.893
386.925
387.051
387.377
388.105
389.509
391.604
393.815
395.83
398.678
405.84
329.486
347.952
358.223
368.153
377.317
382.408
384.626
385.605
386.115
386.439
386.673
386.856
387.006
387.134
387.245
387.345
387.435
387.517
387.592
387.655
387.704
387.73
387.733
387.72
387.709
387.737
387.864
388.211
388.983
390.388
392.311
394.268
396.22
399.278
406.804
326.963
344.933
353.953
362.259
371.431
378.676
383.068
385.374
386.499
387.044
387.331
387.509
387.64
387.751
387.853
387.952
388.052
388.157
388.271
388.394
388.52
388.631
388.707
388.752
388.802
388.918
389.181
389.711
390.641
392.014
393.646
395.311
397.226
400.526
407.831
323.99
341.472
348.861
354.499
361.298
369.249
376.409
381.625
384.864
386.618
387.482
387.903
388.124
388.263
388.37
388.468
388.572
388.691
388.836
389.019
389.248
389.509
389.747
389.92
390.068
390.286
390.677
391.338
392.323
393.581
394.981
396.47
398.35
401.71
408.435
322.988
341.193
348.618
353.217
357.325
362.051
367.926
374.14
379.652
383.753
386.272
387.593
388.24
388.568
388.754
388.882
388.994
389.113
389.26
389.46
389.742
390.132
390.606
391.062
391.427
391.771
392.228
392.898
393.812
394.919
396.15
397.514
399.305
402.518
408.673
325.301
345.336
353.701
358.958
363.093
365.976
368.151
370.768
374.469
378.905
383.054
385.987
387.636
388.474
388.908
389.154
389.315
389.446
389.581
389.751
389.996
390.369
390.922
391.635
392.371
393.003
393.582
394.236
395.042
396.006
397.106
398.365
400.028
402.986
408.718
328.93
349.366
358.2
364.633
370.752
374.931
376.671
376.997
377.047
377.957
380.463
383.749
386.385
387.955
388.793
389.254
389.532
389.722
389.874
390.027
390.219
390.501
390.951
391.647
392.588
393.62
394.556
395.379
396.189
397.069
398.065
399.224
400.762
403.467
408.793
330.539
350.044
359.189
366.831
375.148
381.127
383.831
384.418
384.023
383.224
382.769
383.843
385.914
387.648
388.711
389.32
389.69
389.941
390.131
390.295
390.463
390.673
390.987
391.494
392.296
393.409
394.663
395.827
396.846
397.807
398.809
399.931
401.366
403.832
408.822
329.394
347.955
357.778
367.049
377.147
383.903
386.995
387.962
387.954
387.481
386.84
386.657
387.402
388.423
389.182
389.67
390
390.248
390.448
390.618
390.779
390.957
391.189
391.541
392.117
393.029
394.288
395.699
397.013
398.177
399.285
400.444
401.86
404.222
408.971
326.036
343.87
353.436
362.691
373.222
381.559
386.405
388.516
389.178
389.202
389.033
388.997
389.246
389.638
389.999
390.289
390.522
390.718
390.888
391.041
391.188
391.342
391.53
391.793
392.207
392.888
393.945
395.351
396.862
398.255
399.519
400.756
402.185
404.492
409.082
321.838
339.555
347.318
353.432
361.47
371.497
380.818
386.633
389.142
390.021
390.292
390.4
390.517
390.673
390.843
391.007
391.159
391.299
391.428
391.55
391.669
391.797
391.947
392.151
392.461
392.969
393.81
395.07
396.632
398.204
399.621
400.933
402.384
404.679
409.205
320.46
340.274
348.957
354.013
357.995
362.964
371.422
381.369
387.388
389.883
390.832
391.215
391.399
391.521
391.628
391.73
391.832
391.933
392.034
392.136
392.242
392.359
392.498
392.683
392.951
393.378
394.082
395.189
396.681
398.296
399.772
401.108
402.57
404.885
409.36
326.897
349.73
361.179
368.965
372.986
372.453
371.476
377.483
385.088
389.11
390.806
391.561
391.937
392.148
392.283
392.384
392.468
392.546
392.623
392.703
392.791
392.894
393.021
393.191
393.438
393.825
394.457
395.463
396.875
398.471
399.949
401.268
402.703
404.994
409.44
340.607
360.913
373.258
384.739
389.414
387.645
383.599
383.663
387.959
390.416
391.479
392.044
392.418
392.686
392.874
393.009
393.11
393.193
393.268
393.341
393.422
393.519
393.644
393.815
394.062
394.446
395.063
396.027
397.366
398.873
400.266
401.521
402.93
405.24
409.639
347.269
371.305
385.496
395.537
394.687
392.186
391.131
391.365
391.931
392.395
392.759
393.043
393.264
393.435
393.569
393.676
393.763
393.84
393.912
393.987
394.073
394.178
394.315
394.502
394.773
395.185
395.825
396.782
398.051
399.431
400.705
401.883
403.257
405.566
409.849
341.405
374.689
390.809
394.906
393.839
393.926
393.914
393.819
393.808
393.887
393.997
394.105
394.202
394.285
394.358
394.422
394.482
394.542
394.606
394.68
394.77
394.885
395.038
395.252
395.559
396.016
396.693
397.643
398.82
400.051
401.198
402.296
403.63
405.921
410.066
335.671
356.7
369.552
381.701
389.091
393.026
394.59
395.012
395.055
395.029
395.016
395.024
395.046
395.076
395.111
395.15
395.196
395.25
395.316
395.398
395.504
395.643
395.829
396.085
396.443
396.949
397.653
398.573
399.644
400.733
401.769
402.802
404.105
406.38
410.324
326.164
342.53
350.121
358.023
370.56
383.057
391.033
394.517
395.653
395.925
395.937
395.891
395.85
395.827
395.822
395.834
395.862
395.906
395.971
396.061
396.183
396.349
396.573
396.876
397.288
397.842
398.564
399.446
400.418
401.394
402.342
403.319
404.574
406.77
410.496
324.728
345.932
354.598
359.593
365.358
375.51
385.896
392.45
395.298
396.273
396.554
396.601
396.575
396.538
396.511
396.502
396.514
396.55
396.612
396.707
396.844
397.033
397.293
397.643
398.107
398.706
399.445
400.293
401.19
402.082
402.967
403.902
405.117
407.231
410.709
328.393
350.94
361.205
368.4
374.463
379.408
385.851
391.955
395.348
396.67
397.105
397.221
397.224
397.191
397.157
397.138
397.14
397.171
397.234
397.335
397.486
397.698
397.99
398.38
398.887
399.518
400.259
401.072
401.906
402.737
403.574
404.473
405.646
407.666
410.896
329.695
351.393
361.992
370.413
378.051
382.761
386.453
391.272
395.093
396.896
397.552
397.763
397.812
397.799
397.77
397.75
397.75
397.779
397.845
397.956
398.121
398.356
398.677
399.104
399.647
400.305
401.049
401.838
402.635
403.429
404.236
405.107
406.242
408.159
411.092
334.17
356.059
369.181
380.684
387.388
389.795
390.992
393.292
396.022
397.513
398.08
398.286
398.355
398.365
398.351
398.338
398.342
398.376
398.449
398.57
398.751
399.004
399.346
399.792
400.347
401.003
401.728
402.483
403.243
404.004
404.781
405.619
406.702
408.503
411.208
341.794
364.241
380.364
396.159
398.76
397.482
396.82
397.304
398.183
398.645
398.848
398.934
398.959
398.954
398.938
398.93
398.943
398.988