/*--------------------------------*- C++ -*----------------------------------*\
| =========                 |                                                 |
| \\      /  F ield         | OpenFOAM: The Open Source CFD Toolbox           |
|  \\    /   O peration     | Version:  v2006                                 |
|   \\  /    A nd           | Website:  www.openfoam.com                      |
|    \\/     M anipulation  |                                                 |
\*---------------------------------------------------------------------------*/
FoamFile
{
    version     2.0;
    format      ascii;
    class       volScalarField;
    location    "78";
    object      k;
}
// * * * * * * * * * * * * * * * * * * * * * * * * * * * * * * * * * * * * * //

dimensions      [0 2 -2 0 0 0 0];


internalField   nonuniform List<scalar> 
78750
(
1.80264e-06
0.000181744
0.000423163
0.000583299
0.000681104
0.000764167
0.000804386
0.000821558
0.000771212
0.000773448
0.000718956
0.000700596
0.000642797
0.000661738
0.000622817
0.000656013
0.000612658
0.00065373
0.000611105
0.0006671
0.000630646
0.000694414
0.000681744
0.000743033
0.000788061
0.000832915
0.000916071
0.00093948
0.000922568
0.000861526
0.000589734
0.000196292
8.52845e-05
0.000685082
0.000560316
0.00214909
0.00377066
0.00327044
0.00262909
0.00272674
0.00243247
0.00196492
0.00151533
0.00111085
0.00097361
0.00154168
0.00277025
0.00380441
0.00417183
0.00415351
0.00402999
0.00388592
0.0037564
0.00360416
0.00347408
0.00329722
0.00316329
0.00297707
0.00287799
0.00272294
0.00265839
0.00253008
0.00245641
0.00230259
0.00208244
0.00184495
0.00134592
0.000800246
0.00147711
0.00931272
0.00885395
0.00518887
0.00217085
0.00285386
0.00619973
0.00440473
0.00335602
0.00285825
0.00263387
0.00267761
0.00293055
0.00319659
0.00333674
0.00338768
0.00341442
0.00343561
0.0034449
0.00342633
0.00336622
0.00325044
0.0030729
0.00285501
0.00263251
0.0024368
0.00226182
0.00214903
0.00211388
0.0022154
0.00236443
0.0025147
0.00255193
0.00238739
0.00181916
0.00136918
0.0170756
0.00389238
0.00762316
0.00649646
0.00510366
0.00438969
0.00469168
0.00465972
0.00443721
0.00414461
0.00388869
0.00367852
0.00349429
0.00333548
0.00321798
0.00313269
0.0030278
0.00282401
0.00249478
0.00215473
0.00194785
0.00190202
0.00198167
0.00216018
0.00242005
0.00273334
0.00306108
0.00335843
0.00357979
0.00368144
0.00367579
0.00362953
0.00372522
0.0042711
0.00637539
0.0172179
0.0076999
0.00636999
0.00507527
0.0040332
0.00351252
0.00334931
0.00335892
0.00334954
0.0032842
0.003183
0.00307318
0.00296035
0.00284577
0.00273759
0.00263445
0.00252253
0.00239388
0.00226275
0.00214861
0.00205784
0.00198321
0.00191904
0.00187106
0.00186366
0.0019413
0.00214441
0.00246743
0.00285973
0.00326209
0.00362558
0.0039044
0.00412861
0.00461791
0.0059847
0.00972223
0.00140091
0.00338566
0.00357309
0.0036754
0.0039353
0.00405019
0.00402116
0.0039282
0.00381602
0.00370168
0.00358568
0.00346251
0.00332927
0.00320567
0.00310441
0.0029851
0.00280245
0.00255056
0.00228089
0.00204998
0.00187333
0.00174344
0.00165187
0.00159295
0.00156568
0.00157816
0.00164094
0.00175857
0.00193765
0.00220131
0.00260237
0.00318333
0.0038288
0.00458104
0.00592423
0.00457782
0.00288091
0.00249825
0.00290056
0.00332578
0.00359545
0.00371005
0.00370611
0.0036212
0.00347891
0.00329767
0.00308936
0.00284841
0.00260689
0.00246357
0.00241428
0.00237635
0.00230667
0.00220454
0.00208369
0.00195796
0.00183601
0.00172205
0.00161957
0.00153313
0.00146642
0.00141839
0.00138392
0.00136422
0.0013721
0.00141125
0.00156878
0.00224034
0.00310985
0.00434913
0.00717535
0.00496289
0.00454729
0.00452494
0.00447248
0.00434627
0.00422261
0.0040732
0.00386616
0.00359248
0.0032919
0.00304478
0.00287373
0.00273696
0.00260393
0.00247413
0.00235985
0.00225862
0.00216055
0.00206077
0.0019586
0.00185645
0.00175883
0.00167168
0.00160101
0.00154956
0.00151478
0.00149318
0.0014915
0.00154542
0.00169727
0.00187993
0.0021884
0.00284656
0.00402561
0.00143568
0.00388955
0.00439326
0.00446611
0.00447928
0.00450875
0.00450604
0.00443838
0.00429239
0.00408505
0.00382726
0.00351136
0.0031692
0.00287849
0.00267979
0.00255128
0.00245446
0.00236676
0.002277
0.00218327
0.00208522
0.00198329
0.00187927
0.00177739
0.00168355
0.00160364
0.00153958
0.00148692
0.001436
0.00137925
0.00134938
0.00153351
0.00210651
0.00275845
0.00376522
0.00346081
0.0033508
0.0035066
0.00375299
0.0040563
0.00434119
0.00454855
0.00466299
0.00468867
0.0046287
0.0044822
0.00424389
0.00389796
0.00344885
0.00299987
0.00267149
0.00247253
0.00234789
0.00225113
0.0021611
0.00206772
0.00196663
0.00185933
0.00175475
0.00166458
0.00159546
0.00154788
0.00151939
0.00150804
0.00151142
0.00148443
0.00152425
0.00212251
0.00286759
0.00397193
0.00346924
0.00423706
0.00446758
0.00457529
0.0046361
0.00467931
0.00470643
0.00469707
0.00463381
0.0045197
0.00437006
0.0041936
0.00397834
0.00368792
0.00330062
0.00290285
0.0026102
0.0024293
0.00230572
0.00220277
0.00210406
0.0020047
0.00191028
0.00183599
0.00179582
0.00179181
0.00181902
0.00187791
0.00198804
0.00218622
0.00240933
0.00250218
0.00275694
0.00323366
0.00408868
0.00349873
0.00381712
0.00389899
0.00397157
0.00409132
0.00428497
0.00451597
0.00469094
0.004757
0.00471385
0.00458275
0.0043903
0.00415641
0.00387925
0.00353486
0.00312559
0.00274981
0.00249203
0.00232905
0.00221077
0.00210624
0.00199997
0.00188649
0.00177182
0.00167
0.00159178
0.00154089
0.00152487
0.0015735
0.00177049
0.00221213
0.00272464
0.00305245
0.0033545
0.00393707
0.00362448
0.00398998
0.00393101
0.00383193
0.00375982
0.00382821
0.00408794
0.00436916
0.00453104
0.00455603
0.00447544
0.00432306
0.00412116
0.00387418
0.00356985
0.00320291
0.00283076
0.0025468
0.00236295
0.00223749
0.00213583
0.00203896
0.0019373
0.00183065
0.00172754
0.00163912
0.00157061
0.00152054
0.00148973
0.0015074
0.00169532
0.00222931
0.00287006
0.00337048
0.00431626
0.00397234
0.00430426
0.00408145
0.00376247
0.00339928
0.00317116
0.00338171
0.00384054
0.00419722
0.00435192
0.00434342
0.00422376
0.00402645
0.00376726
0.00345315
0.0031027
0.00276599
0.00250042
0.00231607
0.00218537
0.00207981
0.00198396
0.00189182
0.00180818
0.00174671
0.00171953
0.00173024
0.00177524
0.00183886
0.00187675
0.0018695
0.00210154
0.00283323
0.0035955
0.00495498
0.00431284
0.00481818
0.00457558
0.00411848
0.00347578
0.00277244
0.00259936
0.00306923
0.00362494
0.00396729
0.00409257
0.00406752
0.00394008
0.00372969
0.00344397
0.003105
0.00276837
0.00249425
0.00229481
0.00214818
0.00202807
0.00191871
0.00181502
0.00172194
0.00165234
0.00161698
0.00162417
0.00169543
0.00187937
0.00219247
0.00247383
0.00269486
0.00319895
0.00386661
0.00505019
0.00493063
0.00542276
0.00525106
0.00480985
0.00410131
0.00313383
0.00237012
0.00242026
0.00293562
0.00341759
0.00370684
0.00381631
0.00379195
0.0036663
0.00345847
0.00318695
0.00288545
0.00260099
0.00236689
0.00218515
0.00203915
0.00191272
0.00179727
0.00169376
0.0016132
0.00156798
0.0015613
0.00160264
0.00174967
0.00211536
0.00269484
0.00318417
0.0035091
0.00392053
0.00472126
0.00499156
0.00564169
0.00569384
0.00545678
0.0049653
0.00418166
0.00318756
0.00251654
0.00249343
0.00281108
0.00317415
0.00344106
0.00357563
0.00358717
0.00349527
0.00331702
0.00307459
0.00280167
0.00253646
0.00230526
0.00211139
0.00194458
0.00179318
0.00165015
0.00151867
0.00141613
0.00136627
0.0013688
0.00142421
0.00162
0.00211008
0.00285009
0.00335373
0.00377412
0.00474468
0.00457802
0.00579748
0.0061988
0.00629972
0.00619346
0.00584695
0.00516604
0.00414171
0.00321244
0.00271936
0.00262556
0.00277388
0.00300654
0.0032049
0.0033064
0.00329753
0.00318966
0.00300528
0.00277386
0.00252844
0.00229332
0.00207724
0.00187691
0.00168483
0.00149613
0.00131891
0.00120011
0.00121302
0.00130095
0.00136026
0.00151929
0.00213509
0.00304109
0.00381677
0.00544119
0.00400119
0.00570253
0.00638101
0.00675585
0.00700853
0.00714803
0.00712186
0.00681432
0.00606397
0.00498929
0.00396722
0.00321217
0.00280372
0.00271053
0.00282115
0.00299221
0.00310627
0.00310702
0.00299311
0.00279521
0.0025528
0.00229712
0.00204276
0.00179076
0.00153688
0.00128168
0.00104825
0.000989281
0.00126427
0.00156354
0.00161215
0.00193502
0.00300352
0.00413691
0.00621523
0.00398989
0.00567567
0.00633312
0.00667222
0.0069088
0.00711302
0.0073127
0.00750639
0.00763651
0.00755521
0.00708052
0.00615954
0.00501766
0.00394111
0.00313471
0.0027067
0.0026392
0.00279472
0.00294761
0.00296442
0.00284093
0.00261909
0.00234217
0.0020349
0.00170126
0.00135358
0.00100426
0.00074217
0.0010124
0.00180847
0.00227806
0.00248716
0.00328348
0.00435486
0.00628317
0.0051717
0.00643727
0.00684185
0.00701574
0.00709246
0.00709938
0.00704795
0.00696521
0.00691434
0.00697179
0.007145
0.00733191
0.00733933
0.0069224
0.00599756
0.004792
0.00357629
0.0027289
0.00257113
0.00277011
0.00291306
0.00289067
0.00271925
0.00243532
0.00207324
0.00166552
0.00125125
0.000885919
0.000909765
0.00179145
0.0029354
0.00342332
0.00382256
0.00444781
0.00584149
0.00706705
0.00718099
0.00717794
0.00719328
0.00720666
0.00718625
0.00710172
0.00693547
0.00668034
0.00634259
0.00598066
0.00578921
0.00602142
0.00646997
0.00669371
0.00655801
0.0059285
0.00445554
0.00310246
0.00269242
0.00279944
0.00291608
0.00289524
0.0027332
0.00244054
0.00204291
0.00159823
0.0011832
0.000961909
0.00138317
0.00260635
0.00378396
0.0042525
0.00469297
0.00570862
0.00806887
0.00695604
0.00671221
0.00663397
0.00657144
0.00646665
0.00631991
0.00619515
0.00613825
0.00608622
0.00594054
0.00570815
0.00559878
0.00569554
0.00577188
0.00567596
0.00519733
0.00403256
0.00301962
0.00296299
0.00308714
0.00311289
0.00306152
0.0029343
0.00272574
0.00244213
0.00210573
0.00175353
0.00145118
0.00140043
0.0019433
0.00307533
0.0039165
0.00445238
0.00555851
0.00694889
0.006218
0.00618921
0.00613627
0.00594675
0.00558306
0.00515716
0.00493563
0.00505839
0.00533743
0.00554743
0.00558401
0.00538454
0.00497021
0.00447876
0.0041717
0.00414062
0.00407674
0.00392733
0.00383534
0.00376927
0.00368279
0.00356728
0.00341648
0.00322599
0.00299498
0.00272748
0.0024313
0.00212059
0.00182406
0.00160854
0.00176536
0.00298927
0.0040071
0.00582825
0.00576759
0.00629049
0.00643517
0.00640981
0.00622657
0.00586942
0.00545846
0.00522331
0.00518336
0.00513665
0.00504987
0.00503292
0.00510472
0.00516161
0.00513061
0.00500526
0.0048377
0.00468709
0.00453939
0.00439363
0.00424799
0.00409692
0.00393588
0.00376072
0.00356889
0.00335955
0.00313384
0.00289458
0.00263651
0.00229512
0.00173682
0.00142172
0.00289679
0.00448121
0.00676307
0.00511938
0.00604106
0.00629943
0.0064869
0.0066962
0.00689883
0.0069851
0.00683991
0.00645774
0.00594665
0.00541027
0.00490918
0.00451881
0.00434241
0.00442076
0.00463795
0.00481297
0.00487162
0.0048347
0.00473043
0.00458103
0.00440314
0.00420548
0.00399158
0.00376152
0.00351416
0.00324657
0.00294761
0.00261031
0.00238326
0.00230415
0.00235886
0.00348643
0.00485304
0.00649978
0.00526429
0.00603561
0.00633982
0.00650826
0.00663587
0.00676547
0.00693687
0.00716377
0.00738112
0.00744057
0.00719456
0.00657733
0.0056322
0.004538
0.00363985
0.00334147
0.00364944
0.0041199
0.00446637
0.00464676
0.0046913
0.00463291
0.0044977
0.0043024
0.00405619
0.00376421
0.00342298
0.00299858
0.00249499
0.00231249
0.00290524
0.00353615
0.00418778
0.00486802
0.00523826
0.00568064
0.00648437
0.00684315
0.00704043
0.00716858
0.00723377
0.00722503
0.00716473
0.00712186
0.00712702
0.00710602
0.0069693
0.00667416
0.00614283
0.00519382
0.0039054
0.00317374
0.00337907
0.00388205
0.0042657
0.00449511
0.00460347
0.00460974
0.00452409
0.00435278
0.00410011
0.00376778
0.00334519
0.0028361
0.00247954
0.00286514
0.00379317
0.00433205
0.0046537
0.00449215
0.00591237
0.00687673
0.00728825
0.0075503
0.00779508
0.00804102
0.00823681
0.00831194
0.00822915
0.00800487
0.0076878
0.00732493
0.00695438
0.00659334
0.00619089
0.00554748
0.00437344
0.00345656
0.0034937
0.00389212
0.00423461
0.00446295
0.00459559
0.00464394
0.00461044
0.00449431
0.00429389
0.00400904
0.00363917
0.00322204
0.00298872
0.00329911
0.00385897
0.00423722
0.0046121
0.00640209
0.00721664
0.00750305
0.00769021
0.00792189
0.00821173
0.00846707
0.00863984
0.00873112
0.00872865
0.00860553
0.00834553
0.0079536
0.00746864
0.00694854
0.00639627
0.00567313
0.00455261
0.00372016
0.00371363
0.00400651
0.00427766
0.00447395
0.00460378
0.00467365
0.00468329
0.00462939
0.00450893
0.00431984
0.00405866
0.00372206
0.00338454
0.0035864
0.00411063
0.00520836
0.0077132
0.00796972
0.00796602
0.00804336
0.0083974
0.00893247
0.00932763
0.00948772
0.00946742
0.00933299
0.00911766
0.00883144
0.0084793
0.00806738
0.00760275
0.00708014
0.0064461
0.00556926
0.00445152
0.00389533
0.00396986
0.0041888
0.00438085
0.00452687
0.00463033
0.00469223
0.0047107
0.00468013
0.00458964
0.00441867
0.00411872
0.00363185
0.00381164
0.00462748
0.006308
0.00895166
0.0082093
0.0077943
0.0077104
0.00836791
0.00930864
0.00992575
0.0102006
0.0102446
0.0101324
0.00990525
0.00958789
0.00919995
0.00876134
0.00828944
0.00778712
0.00722011
0.00649041
0.00546006
0.00436811
0.0039874
0.00407362
0.00423383
0.00437235
0.00448178
0.0045647
0.00462298
0.00465989
0.00467293
0.00461628
0.00436695
0.00402854
0.00436693
0.00527453
0.00690342
0.00979996
0.00816542
0.00736974
0.00717257
0.0082407
0.00953705
0.0102949
0.0106721
0.0108266
0.0108208
0.0106824
0.0104302
0.0100811
0.00965306
0.00916809
0.00864718
0.00809262
0.0074605
0.00663754
0.00550098
0.00440503
0.00402824
0.00404512
0.00412099
0.00418176
0.00421722
0.00423077
0.00424501
0.00435407
0.00465008
0.00478605
0.00473554
0.00495809
0.00547769
0.00641172
0.00936963
0.00755697
0.00668768
0.00635545
0.00725703
0.00875941
0.00989718
0.0105948
0.0109962
0.0111877
0.0112078
0.0110802
0.0108257
0.0104645
0.0100173
0.00950341
0.00893417
0.00829611
0.00752816
0.00651527
0.0052316
0.00419968
0.00395242
0.0040478
0.00415996
0.00423394
0.00426194
0.00425092
0.0042962
0.0046148
0.0049638
0.00509047
0.00521449
0.00541806
0.00577779
0.00840183
0.00748934
0.00679345
0.0059957
0.00539601
0.00622063
0.00798739
0.00947098
0.0104355
0.0110287
0.0113642
0.011496
0.011453
0.011257
0.01093
0.0104954
0.00997487
0.00938026
0.00869905
0.00787194
0.00677686
0.00537936
0.0040978
0.00350965
0.00345767
0.00354996
0.00367909
0.00384587
0.00411292
0.00461605
0.00518237
0.00538727
0.00545713
0.00547502
0.00528085
0.00809938
0.00827203
0.0077355
0.00677365
0.0051956
0.00387577
0.00496222
0.0071909
0.00902718
0.0102211
0.01097
0.0114311
0.0116765
0.0117404
0.0116436
0.011404
0.0110384
0.010563
0.0099898
0.00931842
0.00851952
0.00751499
0.0062401
0.00493127
0.00414669
0.00386839
0.00371339
0.00357504
0.00353858
0.00380889
0.00448738
0.00505268
0.00522432
0.00521763
0.0050937
0.0084553
0.00886484
0.00867109
0.00813966
0.00707012
0.00497388
0.00362873
0.00506028
0.00732993
0.00912487
0.0103021
0.0110632
0.0115546
0.0118444
0.0119664
0.0119352
0.0117571
0.0114421
0.0110055
0.0104678
0.00983015
0.00905717
0.00808296
0.006832
0.00545053
0.00456285
0.00442769
0.00446172
0.00433716
0.00409198
0.00400704
0.00433829
0.00472912
0.00508082
0.00589354
0.00867168
0.00880914
0.00878052
0.00862229
0.0082017
0.0072008
0.00499795
0.00383788
0.00533838
0.00759965
0.00933309
0.0104844
0.0112506
0.0117621
0.0120815
0.0122412
0.0122476
0.0120985
0.0117965
0.0113502
0.0107734
0.0100399
0.00906465
0.00773406
0.00603121
0.00426521
0.00308791
0.00305676
0.00367556
0.00418134
0.00428989
0.00438498
0.00481956
0.00543254
0.0066175
0.00854562
0.00874019
0.00871529
0.00862463
0.00844646
0.00807888
0.00711348
0.00460001
0.00328488
0.00528842
0.00769336
0.00942505
0.0105815
0.0113748
0.0119319
0.0123107
0.0125374
0.0126141
0.012535
0.0122988
0.0119047
0.0113362
0.0105569
0.00952075
0.00816957
0.00652729
0.00483982
0.00352047
0.00294348
0.00328984
0.00406222
0.00462246
0.00513318
0.00570049
0.00649168
0.00857769
0.00889775
0.00889329
0.00878001
0.00856093
0.00820552
0.00765548
0.00639724
0.0032007
0.00321918
0.00594597
0.00823527
0.0097764
0.0108095
0.011546
0.0120958
0.0125092
0.0127946
0.0129426
0.0129469
0.0128024
0.012501
0.0120309
0.0113759
0.0105144
0.00943112
0.00814295
0.00671739
0.00530234
0.00420999
0.00404545
0.0046264
0.0051864
0.00566652
0.00621314
0.00899827
0.00904929
0.00901002
0.0088976
0.0086662
0.00824928
0.00758382
0.00662125
0.00455251
0.00224715
0.00480089
0.00737326
0.00910031
0.0102551
0.0110809
0.0117234
0.0122456
0.0126623
0.0129668
0.0131479
0.0131934
0.0130948
0.0128459
0.0124418
0.0118763
0.0111416
0.0102279
0.00911957
0.00779026
0.00625275
0.00498363
0.00486869
0.00530653
0.00578201
0.00654807
0.00929145
0.0089971
0.00887616
0.00874169
0.00851683
0.00812446
0.00746779
0.00645706
0.00502631
0.00230161
0.00389156
0.00663578
0.00844132
0.00963269
0.0104983
0.0111992
0.0117982
0.0123087
0.0127184
0.0130084
0.0131646
0.01318
0.0130518
0.0127785
0.0123576
0.0117835
0.0110446
0.0101183
0.00895822
0.00749471
0.00591684
0.00522262
0.00544532
0.00593884
0.00697557
0.00907875
0.00889071
0.00882696
0.0087151
0.00848837
0.00807234
0.00737445
0.00628846
0.00478923
0.00287148
0.00259063
0.00565969
0.00764712
0.00890259
0.00980636
0.0105464
0.0111934
0.011759
0.0122265
0.0125737
0.0127872
0.012862
0.0127973
0.0125922
0.012244
0.0117473
0.0110949
0.0102731
0.00924526
0.00793834
0.0064407
0.00559638
0.00573142
0.00626695
0.00741475
0.00896168
0.00888618
0.00885651
0.00877647
0.00859033
0.0082195
0.00755994
0.00648338
0.00495337
0.00311705
0.00117945
0.00407647
0.00643546
0.00790442
0.00893375
0.00974647
0.0104485
0.0110637
0.0115777
0.0119688
0.0122242
0.0123414
0.0123218
0.0121651
0.0118672
0.0114235
0.010827
0.0100638
0.00910099
0.00789631
0.00659545
0.00589721
0.00600786
0.00646432
0.00735499
0.00899405
0.00883977
0.00877408
0.00868598
0.00852279
0.00822828
0.0077366
0.0069516
0.0057397
0.00391553
0.00157489
0.00177196
0.00462557
0.00658167
0.00785678
0.00880503
0.0095866
0.0102594
0.0108229
0.0112609
0.0115629
0.0117285
0.011762
0.0116652
0.0114378
0.0110767
0.0105753
0.00991816
0.00907044
0.00800262
0.00689192
0.00631725
0.00635646
0.00665812
0.00722238
0.00910909
0.00885827
0.00879172
0.00870539
0.0085263
0.00819075
0.00764619
0.00685836
0.00579898
0.00442544
0.002628
0.00121991
0.00292049
0.00526455
0.00679563
0.00789405
0.00877474
0.00953315
0.0101743
0.0106771
0.0110288
0.0112331
0.0112998
0.0112382
0.0110523
0.0107397
0.0102922
0.00969218
0.00891625
0.0079834
0.00710453
0.00666802
0.00662621
0.00674223
0.00688986
0.00896018
0.00870735
0.00870998
0.00868878
0.00856129
0.00823876
0.00763257
0.00666259
0.00531426
0.00363177
0.00169425
6.02846e-06
0.0016224
0.00434317
0.00593744
0.00706406
0.00798467
0.00878399
0.00947474
0.0100347
0.0104479
0.0107157
0.0108503
0.0108627
0.0107584
0.0105362
0.0101875
0.00969314
0.00902948
0.00822419
0.0074777
0.00706429
0.0069184
0.00686545
0.0067255
0.00874733
0.00862352
0.00870065
0.00873576
0.0086725
0.00842763
0.00790632
0.00700472
0.00564592
0.00382204
0.00174404
0.000466579
0.00125635
0.00374696
0.00532196
0.00644028
0.00740242
0.00824686
0.00897573
0.00956312
0.00999438
0.0102758
0.0104258
0.0104592
0.0103839
0.0102005
0.00990183
0.00947406
0.00891142
0.0082635
0.00768888
0.00733581
0.00713698
0.00695971
0.00653191
0.00835866
0.00852014
0.00869546
0.00879657
0.00880594
0.00865127
0.00824288
0.00747881
0.00624066
0.00444421
0.00218102
0.000313972
0.000496571
0.00228412
0.00421631
0.00540306
0.00648809
0.00746802
0.00831228
0.00899653
0.00951214
0.00987026
0.0100938
0.0102003
0.010199
0.0100914
0.00987031
0.00952226
0.00904307
0.00848347
0.00797538
0.0076154
0.00735198
0.00705361
0.00636452
0.00810285
0.00850558
0.00875488
0.00891863
0.00901163
0.0089828
0.00876868
0.00829821
0.00748115
0.00620746
0.00432399
0.00186575
0.00023212
0.000738388
0.00176674
0.00338174
0.00467838
0.00590381
0.00701108
0.00791037
0.00859432
0.00907759
0.00939575
0.00957861
0.00964701
0.00961123
0.00947207
0.00922464
0.00887339
0.00846072
0.00807302
0.00776395
0.00749728
0.00714867
0.00627193
0.00773595
0.00840201
0.00876369
0.00901983
0.0092193
0.00932397
0.00928602
0.00906236
0.00861135
0.00786591
0.00670799
0.00492022
0.00227929
0.000169197
0.000190062
0.000599349
0.00236049
0.00399423
0.00550156
0.00679216
0.00780343
0.00852394
0.00901318
0.00933177
0.00950607
0.00955333
0.00947792
0.00928105
0.00897239
0.00859695
0.00823093
0.00791497
0.00761465
0.00718468
0.00607912
0.00754207
0.00837931
0.00881809
0.00914239
0.00942843
0.00965024
0.00976347
0.00972532
0.00950807
0.00909708
0.00846549
0.00754221
0.00615612
0.00376149
0.000588368
0.000791398
0.000622849
0.000718842
0.00128284
0.00332628
0.00510502
0.00644283
0.00740347
0.00803883
0.00845893
0.00872764
0.00886206
0.00885627
0.00872246
0.00849639
0.00823691
0.00798228
0.00771562
0.00730295
0.0062021
0.00741934
0.00835466
0.00884442
0.00921225
0.00955117
0.00984609
0.0100583
0.010142
0.0100595
0.00979203
0.00933992
0.00872086
0.0079579
0.0070211
0.00559857
0.00304693
0.000804015
9.88663e-05
0.000542227
0.000208364
0.00191899
0.00448517
0.00637997
0.0075617
0.00825894
0.00864794
0.00884096
0.00887666
0.00877058
0.00856022
0.00830719
0.00805271
0.00777909
0.00734327
0.00621444
0.00746735
0.00843667
0.00896618
0.00937104
0.00975366
0.0101093
0.0104116
0.0106233
0.0107052
0.0106311
0.0103888
0.00997103
0.00936538
0.00855155
0.00755775
0.00643461
0.00493876
0.00293759
0.000519895
2.82471e-07
0.000505482
0.000889079
0.00238631
0.004614
0.00624255
0.00732327
0.00798213
0.00835028
0.00849347
0.00845991
0.00831702
0.00812694
0.00790059
0.00752574
0.00659904
0.00756707
0.0085428
0.00911228
0.00955677
0.00997629
0.0103624
0.0106893
0.0109275
0.0110512
0.0110386
0.0108726
0.010544
0.0100599
0.0094249
0.0085888
0.00743137
0.00597215
0.00447476
0.00303139
0.00106111
0.000607779
0.000611443
0.000418431
0.00240284
0.00461877
0.0062732
0.00737728
0.00803512
0.00835977
0.00843262
0.00834957
0.00819451
0.00799429
0.00765922
0.00693428
0.0077332
0.00867155
0.00926869
0.0097578
0.0102367
0.0106947
0.0111003
0.0114164
0.0116161
0.0116897
0.0116384
0.0114633
0.0111596
0.0107263
0.0101687
0.00948307
0.00859287
0.00731834
0.00559413
0.00370554
0.00128153
0.000177239
0.000216043
0.000240328
0.00251187
0.00460311
0.00617843
0.00727988
0.00795974
0.00828559
0.00835335
0.00827935
0.00813132
0.00786622
0.00736626
0.00782839
0.00869794
0.00929328
0.00980596
0.0103296
0.0108481
0.011319
0.0116927
0.0119337
0.0120279
0.0119776
0.0117921
0.0114808
0.0110479
0.0104873
0.00978664
0.00893502
0.00790953
0.00663319
0.00499456
0.00297129
0.000417751
0.00046368
0.000529718
0.00162479
0.00393745
0.00572657
0.00695657
0.00774085
0.00818324
0.0083603
0.00836806
0.00827822
0.0080669
0.00760515
0.0078766
0.0086723
0.0092495
0.0097744
0.0103439
0.0109448
0.0115258
0.0120202
0.0123812
0.0125934
0.0126612
0.0125943
0.0124038
0.0121003
0.0116928
0.0111847
0.0105687
0.00981849
0.00887021
0.00758886
0.00581359
0.00337253
0.000529496
0.000684923
0.000680845
0.0024154
0.00459186
0.00633456
0.00745499
0.00803923
0.0082915
0.00835214
0.00830409
0.0081313
0.00764581
0.00786435
0.00856446
0.00910666
0.00962409
0.0102151
0.0108701
0.0115273
0.012102
0.0125368
0.0128142
0.0129396
0.0129249
0.0127818
0.0125189
0.012142
0.0116563
0.011066
0.0103693
0.0095439
0.00850535
0.00707785
0.00491777
0.00157592
0.000577993
0.000400647
0.00145478
0.00386751
0.00573312
0.00712326
0.00798129
0.00837049
0.00849132
0.00846671
0.00829017
0.00773712
0.00782355
0.00844013
0.0089392
0.00943836
0.0100452
0.0107635
0.0115238
0.0122181
0.0127727
0.0131654
0.0134025
0.0134983
0.0134658
0.0133144
0.0130509
0.0126813
0.0122116
0.011639
0.0109528
0.010138
0.00908004
0.00748219
0.00477237
0.000785885
0.000148095
0.000334511
0.0026182
0.00517492
0.0067378
0.00765547
0.00817462
0.00841435
0.00848094
0.00838357
0.00782923
0.007768
0.00829213
0.00872327
0.00916993
0.00974501
0.0104699
0.0112738
0.0120345
0.0126685
0.0131492
0.0134796
0.0136721
0.0137379
0.0136842
0.0135159
0.0132364
0.012848
0.0123511
0.0117385
0.0109885
0.0100356
0.00868297
0.0064911
0.00280797
0.000241694
2.02336e-05
0.00185206
0.00394669
0.00633706
0.00768445
0.00824482
0.00846318
0.00851369
0.0083965
0.00777563
0.00778354
0.00823624
0.00859763
0.00898903
0.00953236
0.010269
0.0111218
0.0119497
0.0126603
0.0132258
0.0136492
0.0139426
0.0141166
0.0141777
0.0141294
0.0139736
0.0137113
0.0133421
0.0128576
0.012248
0.0114866
0.0104858
0.00900439
0.00643853
0.00186024
8.0962e-05
0.00109159
0.00336965
0.0049255
0.0066624
0.0077913
0.00831555
0.00853575
0.00856178
0.00812333
0.00798424
0.00826109
0.00850952
0.00881833
0.00930141
0.0100121
0.0108589
0.0116931
0.012428
0.0130399
0.0135312
0.0139104
0.014186
0.0143625
0.0144414
0.014422
0.014302
0.0140765
0.0137363
0.0132644
0.0126318
0.0117893
0.0106336
0.00891767
0.00599779
0.00129347
0.00112469
0.00277701
0.00544552
0.00671039
0.00758849
0.00813525
0.00843792
0.00855504
0.00805934
0.008293
0.00830769
0.00844239
0.00869018
0.00915911
0.00990279
0.0107767
0.0116062
0.0123218
0.0129227
0.0134239
0.0138367
0.0141695
0.0144266
0.0146085
0.0147132
0.0147366
0.0146725
0.0145118
0.0142406
0.0138376
0.0132729
0.0125077
0.0114839
0.0100302
0.00771686
0.00418678
0.000590764
0.00307763
0.00597909
0.00739142
0.00804238
0.00837033
0.00849674
0.00787623
0.00854754
0.00825534
0.00826651
0.00843426
0.00884835
0.00957102
0.0104271
0.0112265
0.0119109
0.0124918
0.0129913
0.0134246
0.0138003
0.0141254
0.0144024
0.0146307
0.0148054
0.0149171
0.0149519
0.0148926
0.0147229
0.0144285
0.0139925
0.0133792
0.0125073
0.0111902
0.00907008
0.00539293
0.00242629
0.00430654
0.00653805
0.00772509
0.008301
0.0085608
0.00829932
0.00877862
0.00824462
0.00818733
0.00830637
0.00867556
0.00935846
0.0101583
0.0108752
0.0114684
0.0119662
0.0123989
0.0127859
0.0131405
0.0134756
0.0138021
0.0141283
0.0144543
0.0147633
0.0150192
0.015181
0.0152146
0.0150854
0.0147472
0.0141541
0.0132829
0.0121069
0.0104841
0.00799561
0.00436163
0.00374717
0.00569846
0.00721584
0.00803392
0.00852176
0.00928651
0.00876709
0.0081602
0.00808675
0.00816321
0.0084321
0.00898119
0.00966918
0.0102893
0.0107896
0.0111968
0.0115435
0.0118533
0.0121461
0.0124461
0.0127855
0.0132104
0.0137679
0.0144481
0.0151372
0.0156355
0.0158058
0.0156651
0.0152766
0.0146702
0.0138399
0.0127468
0.0112753
0.00916516
0.0060308
0.00413507
0.00545375
0.00703592
0.00798096
0.00874588
0.0103014
0.00875002
0.00821711
0.00817178
0.00823129
0.00840234
0.00878078
0.0093234
0.0098295
0.0102191
0.0105106
0.0107376
0.0109281
0.0111092
0.0113272
0.0116779
0.0123563
0.0135083
0.0147577
0.0155847
0.0159646
0.0160385
0.0158843
0.0155235
0.0149536
0.0141597
0.013101
0.0116641
0.00962985
0.00685347
0.00490739
0.00585846
0.00724921
0.00813555
0.00896672
0.0102279
0.00860127
0.00821773
0.00823308
0.00830577
0.00841073
0.00861292
0.00898891
0.00939788
0.00971341
0.0099244
0.0100571
0.0101411
0.0102079
0.0103073
0.010564
0.0112642
0.0126357
0.0141343
0.0151055
0.0155889
0.0157569
0.0156921
0.0154165
0.0149272
0.0142033
0.0131885
0.0117591
0.00974767
0.00731767
0.00590132
0.00669001
0.00769045
0.00836525
0.0090113
0.00942176
0.0085001
0.00829169
0.00839144
0.00851694
0.00862924
0.00871846
0.00890213
0.00917354
0.00940193
0.00953714
0.00958655
0.0095719
0.00951933
0.00946386
0.00949829
0.00991891
0.0112229
0.0130489
0.0142913
0.0149309
0.0152205
0.0152741
0.0151182
0.0147454
0.0141286
0.0132057
0.0118612
0.00998478
0.00791564
0.00694748
0.00753588
0.0081525
0.00857412
0.00892727
0.00867209
0.00829274
0.00826078
0.00845776
0.00865541
0.00883181
0.00891903
0.00897662
0.00911355
0.00925806
0.00933172
0.00931775
0.00922548
0.00907327
0.00888353
0.00869663
0.008703
0.00951263
0.0114812
0.0131555
0.0140266
0.0144663
0.0146551
0.0146385
0.0144116
0.0139449
0.0131812
0.0120293
0.0104232
0.00869837
0.00790505
0.0081931
0.00849991
0.00870078
0.00880824
0.00820503
0.00813879
0.00825132
0.00852276
0.00879751
0.00907306
0.00924279
0.00926606
0.00928401
0.00933242
0.00934334
0.0092782
0.00913034
0.00890775
0.00862261
0.00828425
0.00795722
0.00805346
0.00956316
0.0118474
0.0130128
0.013593
0.0139013
0.0140101
0.0139125
0.0135721
0.0129286
0.0119209
0.010606
0.00936034
0.00881187
0.00887028
0.00895097
0.00895708
0.00877394
0.0076297
0.00796452
0.00813109
0.00844705
0.00879702
0.00920109
0.00952512
0.00963778
0.00962147
0.00959448
0.0095457
0.00943614
0.00924618
0.00897211
0.0086184
0.00818528
0.00766786
0.00719595
0.00754783
0.00980633
0.011974
0.012745
0.0131028
0.0132866
0.0132993
0.0130823
0.0125581
0.0116756
0.0105761
0.00969668
0.00935165
0.00929539
0.00923092
0.00905445
0.00851964
0.0067459
0.00792499
0.00800198
0.00831664
0.00873538
0.00929238
0.00980459
0.0100718
0.010115
0.0100631
0.00997124
0.00982706
0.00961165
0.00931339
0.0089281
0.0084529
0.00787048
0.0071613
0.00652739
0.00703469
0.0096059
0.0117783
0.0124125
0.0125936
0.0126074
0.0124676
0.0121344
0.0115444
0.0107525
0.0100705
0.00971529
0.00952561
0.00932168
0.00895961
0.00808244
0.00584511
0.00779171
0.00773746
0.00804211
0.00853015
0.00925289
0.00997258
0.0104327
0.0106161
0.0106268
0.0105438
0.0103922
0.0101704
0.0098708
0.00948655
0.00901206
0.0084355
0.00772439
0.00684358
0.00601548
0.00634329
0.00874772
0.0112734
0.0121266
0.0121902
0.0119839
0.0116396
0.0112555
0.0108481
0.0104536
0.0101389
0.00986146
0.00953782
0.00902161
0.00791148
0.00546253
0.00753723
0.00746795
0.00778654
0.00832381
0.00914991
0.0100251
0.0106686
0.0110258
0.0111673
0.0111651
0.0110583
0.0108651
0.01059
0.0102322
0.00978832
0.00925167
0.00860559
0.00780789
0.0068043
0.00575714
0.0055967
0.00738512
0.0101562
0.0117158
0.0119014
0.0115449
0.0110367
0.0106257
0.0103663
0.0101615
0.00992171
0.00958422
0.00901817
0.00782365
0.00531169
0.00701707
0.0071312
0.00750091
0.00802984
0.00882073
0.00974941
0.0105706
0.0111502
0.0114946
0.0116541
0.0116697
0.0115679
0.0113653
0.0110721
0.0106912
0.0102208
0.00965277
0.00896908
0.00812882
0.00706775
0.00585059
0.00512925
0.00601054
0.00848204
0.0108696
0.0116511
0.0113815
0.0108373
0.0103556
0.0100178
0.00974998
0.00944747
0.00896041
0.00789724
0.00558599
0.00654323
0.00694571
0.00735908
0.0078164
0.00843288
0.00922886
0.010103
0.010884
0.0114697
0.0118514
0.0120571
0.0121165
0.0120528
0.0118803
0.0116068
0.0112366
0.0107693
0.0101985
0.00951048
0.00867524
0.00763476
0.00637237
0.00523399