/*--------------------------------*- C++ -*----------------------------------*\
| =========                 |                                                 |
| \\      /  F ield         | OpenFOAM: The Open Source CFD Toolbox           |
|  \\    /   O peration     | Version:  v2006                                 |
|   \\  /    A nd           | Website:  www.openfoam.com                      |
|    \\/     M anipulation  |                                                 |
\*---------------------------------------------------------------------------*/
FoamFile
{
    version     2.0;
    format      ascii;
    class       volScalarField;
    location    "78";
    object      omega;
}
// * * * * * * * * * * * * * * * * * * * * * * * * * * * * * * * * * * * * * //

dimensions      [0 0 -1 0 0 0 0];


internalField   nonuniform List<scalar> 
78750
(
271.066
8.59676
10.0499
11.4214
12.1741
12.7754
12.9936
12.9801
12.621
12.6561
12.2279
12.1145
11.7292
11.958
11.7341
12.0889
11.8546
12.2834
12.0729
12.5977
12.4181
12.9867
12.934
13.478
13.7936
14.1363
14.6918
14.6626
14.4941
13.68
11.2868
6.93042
6.03345
11.7151
397.726
417.046
15.7626
14.6243
13.1196
13.2876
12.4435
11.1215
9.70955
8.33493
8.28805
10.9426
14.3869
16.4302
17.0037
16.9237
16.677
16.3954
16.1325
15.8177
15.5365
15.1568
14.8572
14.4352
14.2014
13.8204
13.6563
13.304
13.097
12.6343
11.9956
11.2324
9.53974
7.69769
10.7346
636.643
455.477
18.0953
11.6086
13.9093
20.4822
17.2274
15.023
13.8757
13.4213
13.663
14.3436
14.934
15.2157
15.3259
15.3937
15.4479
15.4717
15.4298
15.2902
15.0194
14.6027
14.0874
13.5553
13.0774
12.6483
12.3901
12.3539
12.6685
13.052
13.3882
13.4021
12.9132
11.45
10.7086
665.369
427.72
22.5584
20.8222
18.651
17.4538
18.0108
17.929
17.4913
16.9253
16.4241
15.9987
15.6128
15.2756
15.026
14.8409
14.6009
14.1228
13.3315
12.4766
11.9251
11.7878
11.988
12.4493
13.1054
13.8646
14.6227
15.2831
15.76
15.9748
15.9596
15.85
16.0261
17.0825
20.6635
663.307
449.605
20.9463
18.6599
16.6801
15.6001
15.2823
15.3249
15.3168
15.1765
14.9504
14.7003
14.4398
14.1721
13.9169
13.6705
13.3984
13.0784
12.744
12.4457
12.2025
11.9985
11.8208
11.6843
11.6547
11.8526
12.3763
13.1781
14.0993
14.9938
15.7685
16.3466
16.7835
17.6533
19.9064
635.234
412.126
15.2759
15.6798
15.8617
16.413
16.6693
16.6391
16.4747
16.2626
16.0389
15.8061
15.5528
15.2722
15.0064
14.785
14.5181
14.0966
13.4912
12.8099
12.1956
11.7032
11.3266
11.0523
10.8696
10.7775
10.799
10.9625
11.2748
11.7436
12.4151
13.397
14.7391
16.124
17.5847
620.772
430.88
14.04
13.2594
14.2487
15.2093
15.7945
16.0404
16.038
15.8673
15.5741
15.1906
14.7356
14.1873
13.6103
13.2538
13.1306
13.0384
12.864
12.6005
12.2791
11.9343
11.5893
11.257
10.9496
10.6837
10.4742
10.3208
10.2074
10.1363
10.1465
10.2405
10.6729
12.5438
14.6908
614.35
447.28
18.7343
17.8119
17.6813
17.5675
17.3206
17.0817
16.7952
16.3913
15.838
15.2009
14.6527
14.2603
13.9385
13.6174
13.2955
13.0054
12.7436
12.4853
12.2169
11.9352
11.646
11.3619
11.1013
10.885
10.7251
10.6169
10.5514
10.5506
10.7257
11.1964
11.7295
12.5562
14.2055
613.05
412.513
16.3251
17.3245
17.4802
17.5175
17.583
17.5849
17.4625
17.1876
16.7868
16.2746
15.6252
14.8932
14.245
13.7861
13.4792
13.2404
13.0186
12.7871
12.5408
12.2777
11.9977
11.7045
11.4096
11.1307
10.8872
10.6875
10.5199
10.3546
10.1662
10.0595
10.6517
12.3434
14.028
611.931
425.093
15.2697
15.6509
16.1832
16.796
17.3434
17.7264
17.931
17.9728
17.8586
17.5822
17.124
16.4363
15.5032
14.5206
13.763
13.2828
12.9706
12.7209
12.4827
12.2299
11.9496
11.6447
11.3404
11.0729
10.8653
10.7221
10.6384
10.6103
10.6326
10.5553
10.677
12.4117
14.2994
612.873
425.354
17.0749
17.5208
17.7299
17.8502
17.937
17.9928
17.9804
17.8674
17.6578
17.3773
17.0391
16.615
16.0226
15.1983
14.3097
13.6231
13.1804
12.8671
12.5984
12.334
12.0609
11.7949
11.5811
11.4638
11.4524
11.5328
11.7053
12.0221
12.5738
13.173
13.4225
14.0425
15.1419
613.367
425.504
16.2642
16.455
16.6189
16.8713
17.2547
17.6876
18.0018
18.1135
18.0283
17.7823
17.4185
16.9671
16.4157
15.7026
14.8135
13.9536
13.3346
12.9272
12.6217
12.3437
12.0531
11.7337
11.4008
11.0958
10.8544
10.6924
10.6372
10.7828
11.3703
12.6036
13.9226
14.7174
15.4131
612.715
426.247
16.5827
16.4864
16.3103
16.1931
16.3601
16.8834
17.416
17.7095
17.7479
17.5917
17.2993
16.9063
16.4136
15.7853
14.9936
14.149
13.4721
13.0154
12.693
12.4244
12.1619
11.8794
11.5754
11.2739
11.0094
10.801
10.6466
10.5495
10.5992
11.1596
12.6565
14.288
15.4578
614.47
428.286
17.168
16.7528
16.1378
15.4172
14.9796
15.4703
16.4131
17.0966
17.3776
17.351
17.1144
16.7234
16.1985
15.5408
14.7744
14.0006
13.3603
12.8973
12.5575
12.2749
12.0114
11.7518
11.511
11.3315
11.2526
11.2872
11.4243
11.617
11.736
11.7194
12.3617
14.221
15.9424
617.249
430.265
18.1079
17.6671
16.805
15.5201
14.01
13.6721
14.783
15.9648
16.6436
16.8796
16.8225
16.5637
16.1325
15.5309
14.7885
14.0147
13.3527
12.8495
12.4657
12.1411
11.8367
11.5396
11.2655
11.0557
10.9475
10.9695
11.1867
11.7315
12.6118
13.3669
13.9243
15.0842
16.5036
617.589
433.907
19.1928
18.8981
18.1134
16.7801
14.7787
13.0315
13.2186
14.4651
15.5232
16.1184
16.3328
16.2763
16.013
15.5726
14.9808
14.2971
13.6221
13.0408
12.5707
12.179
11.8283
11.4976
11.1911
10.9449
10.802
10.7774
10.9
11.3355
12.3646
13.8629
15.0369
15.7563
16.6167
616.163
434.393
19.5906
19.6748
19.2657
18.3941
16.9191
14.8673
13.3653
13.3766
14.1735
15.0039
15.5752
15.8487
15.8636
15.663
15.2755
14.7363
14.107
13.469
12.8876
12.3788
11.9228
11.4923
11.0687
10.6625
10.3317
10.1635
10.1666
10.338
10.9325
12.3213
14.2104
15.4004
16.3278
616.353
432.061
19.8635
20.5131
20.6632
20.4755
19.8857
18.6931
16.7828
14.8986
13.8458
13.6905
14.0853
14.6343
15.0709
15.2798
15.2479
15.0015
14.5816
14.0418
13.4485
12.8555
12.2853
11.7312
11.1729
10.5945
10.0194
9.61354
9.65886
9.96268
10.1554
10.6414
12.418
14.7126
16.4335
619.435
428.615
19.7163
20.8256
21.4124
21.7943
21.9922
21.9291
21.4209
20.1832
18.332
16.4289
14.9087
14.0606
13.9081
14.2039
14.6013
14.8447
14.8292
14.5585
14.0919
13.5054
12.8608
12.1863
11.4783
10.7165
9.89145
9.07475
8.86957
9.86884
10.8529
11.0004
11.9333
14.6444
17.0634
622.652
428.391
19.6464
20.7406
21.2877
21.6655
21.988
22.296
22.5815
22.7537
22.5926
21.8221
20.3268
18.3743
16.3699
14.7379
13.8419
13.7523
14.1467
14.489
14.5075
14.2067
13.6696
12.9757
12.1623
11.2128
10.1293
8.913
7.90212
9.00507
11.6171
12.9315
13.4613
15.2915
17.4637
622.789
435.194
20.8625
21.52
21.8002
21.9271
21.9483
21.8839
21.7773
21.7249
21.8357
22.1034
22.3598
22.3183
21.6154
20.0894
17.9874
15.6426
13.8569
13.5794
14.0818
14.4038
14.3366
13.9213
13.2198
12.2753
11.1197
9.80972
8.50072
8.60787
11.5215
14.503
15.6362
16.4554
17.6583
620.897
445.973
22.0431
22.0702
22.109
22.1389
22.114
21.9879
21.731
21.3296
20.7933
20.2185
19.9334
20.3441
21.0583
21.3832
21.1372
20.0591
17.4036
14.6889
13.8363
14.1266
14.4021
14.3516
13.9684
13.2546
12.2238
10.9573
9.626
8.81904
10.2203
13.6015
16.301
17.273
18.1144
620.401
451.805
21.7572
21.4006
21.2925
21.2104
21.062
20.8386
20.6305
20.5126
20.3967
20.1293
19.7231
19.547
19.7363
19.8831
19.7349
18.9224
16.743
14.5979
14.4795
14.7756
14.8422
14.7332
14.4503
13.9711
13.2902
12.432
11.4611
10.5436
10.3234
11.8355
14.6384
16.5254
17.6264
619.84
445.793
20.5916
20.5518
20.4812
20.195
19.6133
18.8842
18.4609
18.6395
19.1106
19.4733
19.5501
19.2281
18.5143
17.6036
16.9845
16.9218
16.816
16.53
16.3536
16.2265
16.0554
15.8209
15.5074
15.1008
14.5911
13.9761
13.26
12.4615
11.6365
10.9487
11.3102
14.5383
16.7906
621.152
439.062
20.6892
20.9303
20.8999
20.6135
20.027
19.3169
18.8979
18.8504
18.8012
18.6597
18.6246
18.7476
18.8457
18.7884
18.5639
18.2602
17.9855
17.7138
17.4418
17.1653
16.873
16.555
16.2015
15.8049
15.3602
14.8659
14.3237
13.7139
12.8586
11.3257
10.3976
14.4042
17.7349
625.081
435.275
20.292
20.7087
21.0055
21.3317
21.6417
21.7699
21.5446
20.9473
20.1274
19.2397
18.3831
17.6986
17.3938
17.5534
17.949
18.2514
18.3432
18.2677
18.0727
17.7946
17.4591
17.0788
16.6576
16.1922
15.6761
15.0976
14.4223
13.623
13.0819
12.9487
13.1516
15.7402
18.3951
623.721
435.996
20.2463
20.7385
21.0103
21.22
21.4359
21.7158
22.0709
22.3954
22.4725
22.0894
21.1241
19.5747
17.6426
15.9262
15.365
16.0422
16.9762
17.6233
17.9468
18.0203
17.9069
17.6512
17.2779
16.7968
16.2085
15.4933
14.5576
13.3747
12.9413
14.427
15.8665
17.1728
18.4321
618.28
438.326
20.9422
21.5029
21.8049
21.9983
22.0971
22.0908
22.0175
21.9787
22.0114
21.9956
21.7942
21.3365
20.4773
18.8502
16.4383
14.9534
15.4367
16.481
17.2297
17.6621
17.8625
17.8735
17.7146
17.3933
16.9085
16.2497
15.3751
14.256
13.4101
14.3078
16.3376
17.422
18.0411
615.157
439.645
21.5605
22.192
22.5844
22.9418
23.2924
23.5674
23.674
23.5637
23.257
22.8147
22.2957
21.7505
21.2023
20.5656
19.489
17.3618
15.5571
15.6688
16.4935
17.1654
17.5991
17.8469
17.9379
17.8794
17.6687
17.2973
16.7548
16.0244
15.1559
14.6247
15.2723
16.4625
17.2469
615.798
442.286
22.0599
22.5082
22.7941
23.1318
23.5405
23.8958
24.137
24.2681
24.2721
24.111
23.7581
23.2114
22.5147
21.7424
20.8888
19.7059
17.7126
16.11
16.1195
16.715
17.2434
17.6157
17.8582
17.9886
18.0091
17.9145
17.6975
17.3495
16.8554
16.188
15.4622
15.9078
17.0219
618.491
449.48
23.1663
23.1965
23.3245
23.8186
24.5372
25.0578
25.2698
25.2498
25.0826
24.8071
24.4311
23.9557
23.3835
22.7183
21.9448
20.9667
19.5289
17.5304
16.4686
16.6309
17.0642
17.4329
17.7076
17.8997
18.0141
18.0495
17.9962
17.8329
17.5156
16.9392
15.9661
16.3883
18.0181
623.206
456.289
23.5387
22.9904
22.8918
23.8103
25.0643
25.8598
26.2084
26.2644
26.124
25.8373
25.4313
24.9256
24.3402
23.6932
22.9833
22.153
21.0333
19.3377
17.3726
16.6519
16.8324
17.1463
17.411
17.6161
17.7692
17.8754
17.9425
17.9697
17.8767
17.4227
16.8005
17.4912
19.1546
625.557
461.107
23.5169
22.4014
22.1298
23.6722
25.4064
26.3642
26.8251
27.0085
26.9969
26.8242
26.5107
26.0719
25.5242
24.8892
24.1886
23.4195
22.5096
21.2641
19.4097
17.4462
16.7339
16.7771
16.9291
17.0477
17.115
17.1384
17.1628
17.3742
17.9503
18.2283
18.1659
18.5815
19.4871
623.364
459.102
22.6549
21.3514
20.8727
22.3458
24.4798
25.9363
26.7814
27.2532
27.4712
27.4858
27.3251
27.0108
26.5623
25.9983
25.3359
24.5819
23.7082
22.6113
21.0758
18.9519
17.0619
16.5892
16.7859
17.0084
17.1528
17.2066
17.1848
17.2729
17.8871
18.5552
18.8047
19.0344
19.392
620.685
453.836
22.4797
21.4276
20.2051
19.3693
20.8796
23.4936
25.4338
26.616
27.3179
27.7045
27.8493
27.7888
27.5476
27.1473
26.6093
25.9527
25.1832
24.2726
23.1192
21.4969
19.2292
16.8868
15.7012
15.5964
15.7915
16.0577
16.3933
16.9161
17.8699
18.9204
19.3119
19.4516
19.5011
618.622
451.957
23.5643
22.7852
21.3335
18.7414
16.5019
18.7426
22.3216
24.8416
26.3462
27.2503
27.7921
28.0737
28.1413
28.021
27.7314
27.2878
26.7029
25.9823
25.1141
24.0417
22.6221
20.6805
18.4764
17.0237
16.4831
16.1738
15.8882
15.8018
16.3312
17.6361
18.696
19.0251
19.0479
617.912
453.821
24.4325
24.1547
23.3819
21.7595
18.2529
15.9141
18.8264
22.4676
24.9388
26.4308
27.3544
27.9351
28.271
28.4089
28.3683
28.156
27.7804
27.2532
26.5907
25.7838
24.7709
23.4324
21.5905
19.3523
17.7707
17.5302
17.6125
17.3942
16.9289
16.7468
17.3865
18.1506
18.8311
621.427
455.103
24.3929
24.3613
24.1363
23.5197
21.9785
18.3027
16.3797
19.3332
22.8627
25.2101
26.6551
27.5779
28.1784
28.5471
28.7288
28.7338
28.5592
28.2053
27.6752
26.9748
26.0567
24.7827
22.9307
20.318
17.1983
14.7626
14.6933
16.0376
17.0753
17.3099
17.51
18.3432
19.4512
624.412
454.485
24.2878
24.2626
24.1444
23.8985
23.3662
21.8643
17.5962
15.3173
19.2664
22.9902
25.3218
26.7685
27.7217
28.3746
28.8106
29.0682
29.1544
29.0643
28.7947
28.3385
27.6665
26.7191
25.4065
23.5877
21.1682
18.3531
15.8018
14.5247
15.2697
16.8703
17.9634
18.9033
19.8895
623.798
454.571
24.4896
24.4916
24.3442
24.0525
23.5675
22.7816
20.7713
14.8127
15.2083
20.2961
23.7018
25.742
27.0271
27.9111
28.5546
29.0293
29.3529
29.5202
29.5268
29.3666
29.0275
28.4901
27.7237
26.6828
25.3136
23.583
21.5045
19.2119
17.2156
16.8714
17.978
18.996
19.8299
622.652
456.791
24.7046
24.6677
24.5242
24.2155
23.6445
22.7025
21.2554
17.5856
12.7278
18.2575
22.4261
24.8327
26.3209
27.3375
28.1042
28.7128
29.1902
29.5351
29.7395
29.7923
29.6852
29.4096
28.955
28.3059
27.4393
26.321
24.896
23.0687
20.752
18.6177
18.4163
19.2017
20.0242
624.127
458.467
24.6473
24.4972
24.3232
24.0228
23.4831
22.5458
21.0213
18.6267
12.7746
16.4853
21.2852
23.9225
25.5144
26.6116
27.4683
28.1807
28.7746
29.2431
29.5706
29.7461
29.7645
29.6231
29.318
28.8411
28.1768
27.2974
26.1523
24.6428
22.5975
20.1708
19.0257
19.4354
20.2854
625.947
457.372
24.501
24.4229
24.2773
23.9734
23.4006
22.4026
20.7524
18.2267
14.2354
13.6399
19.7163
22.8004
24.55
25.7358
26.6677
27.4569
28.1294
28.6735
29.0709
29.3126
29.3966
29.3236
29.0913
28.6926
28.114
27.3352
26.3213
24.9958
23.2056
20.9836
19.6526
19.9137
20.8127
627.76
456.701
24.4932
24.4661
24.3663
24.1193
23.6102
22.6684
21.0338
18.4657
14.8382
9.60422
16.889
20.9895
23.178
24.5964
25.6614
26.5473
27.3002
27.9139
28.3715
28.6661
28.7997
28.7762
28.5948
28.2476
27.7228
27.0016
26.0501
24.799
23.1443
21.2311
20.1611
20.3727
21.124
627.482
456.851
24.4301
24.3547
24.2443
24.0299
23.6295
22.9364
21.7728
19.8325
16.4897
10.7878
11.5389
17.931
21.2171
23.11
24.4237
25.456
26.3123
27.0084
27.537
27.8948
28.0886
28.1264
28.0113
27.741
27.3072
26.6937
25.8681
24.7643
23.3057
21.7017
20.8489
20.9348
21.4246
626.914
457.497
24.4588
24.3783
24.2674
24.0297
23.5741
22.8127
21.6601
19.9939
17.5735
13.7488
9.86122
14.4107
19.0342
21.5261
23.1508
24.3755
25.3826
26.2035
26.8293
27.2581
27.5034
27.5824
27.5079
27.2834
26.9027
26.3487
25.5879
24.5715
23.297
22.0424
21.4087
21.3618
21.557
625.528
456.711
24.2556
24.2681
24.2453
24.0771
23.6376
22.7846
21.3483
19.1743
16.0546
11.4242
4.03713
10.9529
17.3181
20.143
21.9194
23.2704
24.3818
25.3028
26.0254
26.5458
26.8775
27.0424
27.0578
26.9308
26.6581
26.2246
25.5982
24.7341
23.6487
22.606
22.0174
21.8123
21.7476
624.848
455.557
24.1371
24.2515
24.3067
24.228
23.8996
23.1767
21.8653
19.7229
16.4173
11.537
6.85981
9.79154
16.1101
19.0966
20.9525
22.4236
23.6393
24.6413
25.4206
25.9779
26.3351
26.5237
26.5662
26.4737
26.2458
25.8701
25.3231
24.5871
23.7159
22.9223
22.4262
22.1446
21.8943
624.045
453.437
23.9917
24.2416
24.3865
24.4071
24.2055
23.6511
22.5691
20.689
17.6046
12.6978
6.17893
6.94502
12.7732
17.1036
19.2613
21.0386
22.527
23.7369
24.6753
25.36
25.825
26.1114
26.2474
26.2475
26.1139
25.8361
25.3926
24.7704
24.027
23.3361
22.8367
22.4651
22.0381
623.346
452.052
23.9735
24.3221
24.5487
24.6783
24.644
24.3593
23.7162
22.5514
20.6012
17.3212
11.7645
5.71941
8.18074
11.5085
15.4568
18.0034
20.1197
21.8608
23.1824
24.1409
24.7964
25.219
25.4592
25.5497
25.5058
25.3286
25.0095
24.5503
24.0021
23.478
23.0528
22.6795
22.1824
622.958
450.047
23.8306
24.3332
24.6826
24.9514
25.0918
25.0431
24.7471
24.1379
23.0941
21.3715
18.3994
12.8284
5.31825
5.68784
7.57871
13.1446
16.7317
19.4642
21.5378
23.037
24.0504
24.7158
25.1406
25.3712
25.4357
25.3415
25.0894
24.6886
24.1934
23.7022
23.2704
22.852
22.2386
622.14
448.958
23.7965
24.4058
24.8463
25.2281
25.52
25.6678
25.6192
25.3376
24.7959
23.9381
22.6217
20.4815
16.1379
7.24736
4.18792
7.85846
8.18869
10.0827
15.3674
18.7915
21.01
22.4717
23.3886
23.9765
24.3466
24.5321
24.5295
24.3565
24.059
23.7124
23.3666
22.9979
22.4134
622.656
448.251
23.758
24.438
24.9364
25.3869
25.7724
26.046
26.1533
26.0485
25.7057
25.116
24.2862
23.2218
21.8398
19.5467
14.5867
8.27288
4.98536
4.17223
5.74684
12.0115
17.6929
20.9151
22.7045
23.7007
24.241
24.5077
24.5623
24.4278
24.152
23.8144
23.4693
23.0915
22.475
622.709
448.498
23.8673
24.5973
25.1407
25.6439
26.1033
26.4879
26.7545
26.8577
26.7669
26.4649
25.9356
25.1492
24.0528
22.6434
20.9374
18.4155
14.3923
7.00285
4.36983
7.324
8.76326
13.1623
17.9141
20.7011
22.3628
23.3211
23.8442
24.051
24.0158
23.8295
23.5747
23.2654
22.7412
624.333
449.03
24.0122
24.7919
25.3825
25.9273
26.4189
26.8289
27.1249
27.2789
27.2664
27.0658
26.6606
26.0504
25.2262
24.0962
22.4377
20.1655
17.5468
14.5925
9.12281
7.64762
7.73735
6.76102
13.2395
17.9282
20.7558
22.4491
23.4043
23.8679
23.9799
23.8763
23.6706
23.3987
22.934
625.735
449.953
24.1934
25.0057
25.6495
26.2632
26.8364
27.3339
27.716
27.9559
28.0455
27.9874
27.7817
27.4189
26.891
26.1944
25.3087
24.1043
22.2655
19.5239
16.0257
9.89421
5.43189
5.78058
5.77268
13.5233
17.915
20.6185
22.3174
23.3096
23.7779
23.8836
23.7914
23.5943
23.2324
627.533
450.491
24.2371
25.0474
25.7219
26.3909
27.0352
27.6064
28.051
28.334
28.4444
28.3866
28.1705
27.8033
27.2839
26.5953
25.7077
24.584
23.1537
21.2376
18.4961
14.442
6.4592
7.04065
7.33941
11.1384
16.6328
19.8761
21.8346
22.9986
23.6343
23.8904
23.9106
23.7951
23.5116
628.502
450.772
24.2078
24.996
25.6885
26.4168
27.1618
27.8615
28.4423
28.8585
29.1002
29.1767
29.1004
28.8828
28.5329
28.0561
27.4497
26.6952
25.7441
24.4837
22.6662
19.8857
15.2969
7.07146
4.13286
7.94177
13.2479
17.8846
20.87
22.5879
23.4378
23.7999
23.892
23.8329
23.6022
628.667
450.714
24.0645
24.8114
25.5002
26.2621
27.0785
27.8713
28.545
29.0434
29.3563
29.4959
29.4782
29.3163
29.0174
28.5839
28.0157
27.309
26.4505
25.3943
23.9936
21.918
18.3453
10.7707
7.4929
6.6599
10.5726
16.4767
19.8865
22.0889
23.3514
23.9081
24.0846
24.0599
23.8281
629.06
450.491
23.894
24.589
25.2614
26.0522
26.9547
27.875
28.6874
29.3187
29.757
30.0176
30.1215
30.0844
29.9163
29.6225
29.2059
28.6676
27.998
27.1752
26.1612
24.775
22.5159
18.0705
8.12056
5.26313
6.21287
13.7285
18.9205
21.5059
22.8863
23.634
23.9758
24.0759
23.9539
629.437
450.18
23.6856
24.2946
24.9062
25.6687
26.5945
27.5809
28.4798
29.2062
29.7441
30.1074
30.3165
30.3867
30.327
30.142
29.833
29.3989
28.8339
28.1221
27.2247
26.0381
24.2516
21.0351
14.0865
5.80992
4.34474
11.7708
16.5945
20.8339
22.9092
23.7261
24.0422
24.1233
23.9781
629.262
450.23
23.5995
24.1162
24.6591
25.389
26.3409
27.3969
28.3813
29.1981
29.831
30.2955
30.6127
30.7989
30.8633
30.8108
30.6426
30.3578
29.9528
29.4136
28.7207
27.8292
26.6093
24.692
20.9638
11.7087
4.89793
9.44623
15.4856
18.4909
21.3753
23.077
23.8337
24.1515
24.2059
630.696
451.31
23.6308
23.9925
24.4266
25.0837
26.0135
27.075
28.0788
28.9327
29.6239
30.1667
30.5787
30.8743
31.0619
31.1451
31.1243
30.9967
30.7559
30.3891
29.8729
29.1665
28.1983
26.813
24.612
20.3279
10.171
9.78172
14.0359
19.3891
21.4633
22.7882
23.5806
24.0133
24.1901
630.389
453.009
23.6993
23.9035
24.2567
24.9007
25.8798
26.9789
27.9793
28.8131
29.4941
30.0496
30.499
30.8561
31.129
31.3205
31.4301
31.4544
31.3874
31.2189
30.9324
30.5019
29.888
29.0351
27.8526
26.0816
22.9868
17.201
7.56767
14.7829
20.2845
22.5007
23.4555
23.9258
24.1151
629.645
454.412
23.6258
23.6574
23.9044
24.4871
25.4592
26.5557
27.5356
28.3451
29.013
29.5742
30.0517
30.4592
30.807
31.1001
31.3392
31.521
31.6369
31.6732
31.6124
31.4368
31.1291
30.6668
30.0029
29.0295
27.4888
24.8094
19.3114
13.3033
17.3516
21.2052
23.0011
23.828
24.1997
631.419
455.689
23.6093
23.542
23.7219
24.2514
25.1863
26.2268
27.1189
27.8321
28.4146
28.9098
29.3445
29.7363
30.1012
30.4522
30.7988
31.1419
31.4647
31.7311
31.8995
31.9359
31.8043
31.4526
30.8241
29.8761
28.5458
26.5998
23.305
17.4359
16.257
19.8473
22.2519
23.4502
24.1461
635.481
455.639
23.4853
23.392
23.5123
23.9105
24.6857
25.6072
26.4014
27.0205
27.5114
27.9205
28.2791
28.6126
28.9492
29.3247
29.7889
30.3915
31.1176
31.8427
32.3601
32.5364
32.3945
31.9966
31.365
30.4777
29.267
27.5508
24.8835
20.3086
17.0238
19.4582
21.9985
23.3853
24.4584
639.512
455.553
23.5625
23.5066
23.6003
23.8594
24.4083
25.1547
25.8207
26.317
26.6792
26.9549
27.1816
27.3931
27.644
28.0442
28.8111
30.0896
31.4359
32.3011
32.6915
32.768
32.6132
32.246
31.6563
30.815
29.6541
27.9986
25.4744
21.5921
18.4785
20.1661
22.3327
23.6098
24.7525
639.108
454.754
23.5643
23.592
23.7009
23.862
24.1682
24.7045
25.2608
25.6762
25.9472
26.1134
26.2143
26.2904
26.4027
26.7015
27.5247
29.1066
30.7699
31.8067
32.3102
32.4841
32.4195
32.1381
31.6309
30.8642
29.7548
28.1176
25.6448
22.3257
20.207
21.498
22.9822
23.9315
24.8088
635.864
454.214
23.6718
23.8164
23.9952
24.1589
24.3003
24.5765
24.9592
25.2704
25.4509
25.5153
25.4934
25.4191
25.3366
25.3623
25.8692
27.4494
29.5721
30.9458
31.6294
31.9344
31.9926
31.8334
31.446
30.7925
29.7873
28.2601
25.9848
23.2363
21.8655
22.7553
23.6329
24.2155
24.6969
632.879
453.093
23.6349
23.9157
24.1921
24.4377
24.5664
24.6654
24.8709
25.0769
25.1819
25.167
25.0455
24.8403
24.5793
24.3125
24.2891
25.3129
27.7483
29.7015
30.6664
31.142
31.3455
31.3313
31.0941
30.5972
29.7648
28.4648
26.5534
24.3471
23.279
23.6922
24.1169
24.3925
24.5436
630.981
452.245
23.6283
24.0148
24.3954
24.7698
25.0003
25.0435
25.0869
25.1676
25.1935
25.1148
24.9225
24.6252
24.2358
23.7615
23.2812
23.3626
25.3449
28.1954
29.5528
30.2002
30.5391
30.6603
30.5586
30.1914
29.4814
28.3353
26.7761
25.2284
24.5314
24.619
24.7305
24.7414
24.4977
628.553
451.269
23.4666
23.9207
24.406
24.9502
25.3778
25.5295
25.5213
25.5023
25.4525
25.3198
25.0773
24.7168
24.2392
23.638
22.8935
22.1683
22.5962
25.6281
28.358
29.2633
29.6658
29.8703
29.8878
29.6534
29.0722
28.0632
26.7551
25.6695
25.2389
25.1716
25.0904
24.8592
24.138
624.824
451.046
23.2913
23.7495
24.3333
25.0819
25.7496
26.0928
26.1539
26.0995
25.9951
25.8222
25.5541
25.1722
24.6653
24.0217
23.2058
22.1646
21.1516
21.7993
25.3332
28.1257
28.9002
29.1079
29.1199
28.9608
28.588
27.9195
26.9933
26.1663
25.7225
25.4799
25.2153
24.7378
23.5388
621.048
450.34
22.9181
23.3691
24.0592
25.0391
25.9761
26.5579
26.7883
26.8075
26.7134
26.5347
26.2663
25.8948
25.4067
24.7873
24.0105
23.0148
21.7104
20.3602
20.7275
24.1526
27.4832
28.579
28.6689
28.4277
28.0209
27.5705
27.0993
26.6377
26.2589
25.9147
25.5025
24.8278
23.3087
619.463
448.988
22.5288
23.0048
23.7767
24.9125
26.0576
26.8655
27.3028
27.4757
27.4771
27.3544
27.127
26.7973
26.3599
25.8046
25.1148
24.2569
23.1533
21.6792
19.982
19.5596
22.2174
26.0284
28.0734
28.3516
27.9454
27.3363
26.8313
26.5131
26.2652
25.9712
25.5475
24.8156
23.1872
618.863
446.123
22.0244
22.5844
23.3622
24.4782
25.7197
26.7616
27.469
27.8796
28.0686
28.0895
27.9734
27.7384
27.393
26.9364
26.3602
25.646
24.7583
23.622
22.1016
20.1874
18.8514
20.1415
23.7706
26.9806
28.0458
27.7714
27.1277
26.5338
26.1047
25.7619
25.3742
24.7411
23.299
620.084
443.429
21.7311
22.3617
23.0421
23.9321
25.0322
26.1786
27.1539
27.859
28.308
28.5478
28.6185
28.5479
28.3516
28.0361
27.6023
27.0439
26.3454
25.4774
24.3829
22.9475
21.0615
19.133
18.8006
21.2683
24.9393
27.2689
27.5803
27.1962
26.6541
26.0998
25.5427
24.869
23.6523
622.223
441.875
21.6224
22.3434
23.0238
23.7942
24.6548
25.6162
26.6205
27.5184
28.2068
28.6796
28.9661
29.0945
29.081
28.9364
28.6696
28.2837
27.7748
27.1303
26.3282
25.33
24.0572
22.3855
20.3529
18.8045
19.3886
22.3775
25.5973
26.6306
26.6976
26.4189
25.9905
25.4209
24.387
625.147
442.894
21.8172
22.5819
23.409
24.3724
25.2734
26.0295
26.7582
27.5212
28.2365
28.8132
29.2262
29.486
29.608
29.6054
29.4877
29.2606
28.9221
28.4689
27.8917
27.176
26.2983
25.212
23.8215
22.0257
20.0516
19.0518
20.7517
24.3403
25.5808
25.8711
25.7474
25.3936
24.7536
630.024
445.248
21.9593
22.6435
23.6651
25.0388
26.2953
27.1837
27.7982
28.3334
28.8679
29.3522
29.7346
29.999
30.1504
30.1991
30.1515
30.0072
29.7633
29.4182
28.9741
28.4276
27.7678
26.9709
25.9943
24.7508
23.083
20.8882
18.8211
20.0469
23.6095
24.9802
25.4701
25.5306
25.1995
632.271
446.972
21.9202
22.5159
23.7834
25.5682
27.1265
28.2064
28.9201
29.4337
29.8549
30.2114
30.4915
30.6854
30.7963
30.8318
30.7942
30.6787
30.4804
30.1944
29.8166
29.3442
28.7786
28.1256
27.3599
26.4235
25.2159
23.5081
21.0081
18.6788
21.1572
23.8777
24.9416
25.3603
25.3699
633.66
445.723
21.4794
22.1675
23.8194
25.9187
27.5863
28.7475
29.5678
30.1649
30.6061
30.9314
31.1636
31.3153
31.3962
31.4135
31.3688
31.2597
31.0832
30.8354
30.5122
30.1092
29.6249
29.0629
28.4055
27.6141
26.6364
25.3428
23.419
20.6355
19.4031
22.5234
24.3668
25.2064
25.5639
635.109
442.632
20.7727
21.5388
23.4047
25.6585
27.4028
28.656
29.5925
30.3046
30.8393
31.2298
31.5044
31.6839
31.7845
31.8169
31.7867
31.6955
31.5434
31.3301
31.0538
30.7123
30.2995
29.8078
29.2286
28.5518
27.7602
26.8071
25.5465
23.6835
21.318
21.3137
23.2267
24.3643
25.134
638.271
439.766
19.9914
20.5633
22.2443
24.5876
26.5363
27.9785
29.0792
29.9373
30.6008
31.1018
31.4672
31.7204
31.8811
31.9636
31.977
31.9265
31.8153
31.6452
31.4167
31.128
30.7752
30.3547
29.8618
29.2909
28.6348
27.8773
26.9648
25.7308
23.8351
21.8448
22.6488
24.0837
25.5007
643.362
438.454
19.5062
19.7693
21.0186
23.2667
25.3746
26.9991
28.2565
29.2525
30.0411
30.6544
31.1174
31.4545
31.6872
31.832
31.8995
31.8962
31.8267
31.695
31.5038
31.2537
30.9424
30.5674
30.1262
29.6151
29.0285
28.3548
27.557
26.5088
24.8565
22.5617
22.669
24.1319
25.6815
642.755
437.927
19.2318
19.3153
20.264
22.2586
24.3242
26.012
27.3559
28.4427
29.3232
30.0255
30.5716
30.9851
31.2903
31.5053
31.638
31.6915
31.6697
31.5774
31.42
31.2003
30.9166
30.5654
30.1455
29.6543
29.0862
28.4251
27.6182
26.5137
24.8035
22.8342
23.1703
24.4447
25.6497
638.691
437.214
18.849
18.8124
19.5824
21.3837
23.3531
25.0384
26.4272
27.5761
28.5246
29.2947
29.9057
30.3806
30.7481
31.0265
31.219
31.3268
31.3528
31.3012
31.177
30.984
30.72
30.3794
29.9599
29.4572
28.8579
28.1241
27.1628
25.8184
24.1007
22.8729
23.5475
24.461
25.0732
631.482
436.005
18.4006
18.178
18.499
19.9894
21.9997
23.811
25.3129
26.5613
27.602
28.4603
29.1549
29.7061
30.1433
30.488
30.7439
30.91
30.9874
30.9782
30.8858
30.7138
30.4595
30.1163
29.6816
29.1477
28.49
27.6474
26.5128
25.0447
23.6268
23.1259
23.7977
24.3716
24.5175
627.17
435.474
18.5036
18.1888
17.8593
18.3005
20.101
22.1862
23.9458
25.3699
26.5362
27.4972
28.2831
28.9166
29.43
29.8496
30.1805
30.4211
30.571
30.6308
30.6013
30.4801
30.262
29.9423
29.5161
28.9696
28.2663
27.3237
26.0207
24.42
23.2271
23.1612
23.6756
24.0074
23.865
624.668
436.564
19.2283
19.0302
18.5369
17.8165
18.4861
20.5472
22.602
24.2516
25.5535
26.6044
27.456
28.144
28.7171
29.2028
29.5996
29.9069
30.1247
30.2533
30.292
30.2351
30.0744
29.8045
29.4193
28.9043
28.2234
27.2942
25.9903
24.3516
23.1386
23.1356
23.5013
23.7108
23.5011
624.437
439.687
19.9635
19.8131
19.5389
18.8676
18.5813
20.034
22.0247
23.6976
24.9922
26.0042
26.8047
27.4772
28.0729
28.5928
29.035
29.3985
29.6824
29.8886
30.0149
30.0486
29.9761
29.7894
29.4813
29.0392
28.4345
27.6011
26.4211
24.8491
23.4175
23.057
23.2113
23.3252
23.1599
625.099
443.143
20.1331
19.7019
19.5521
19.5651
19.7716
20.9927
22.6289
23.9956
25.0515
25.8802
26.5525
27.1391
27.6761
28.1577
28.5792
28.9379
29.2368
29.4821
29.6703
29.7846
29.8069
29.7245
29.5273
29.2029
28.7295
28.0592
27.0978
25.7544
24.2829
23.499
23.3667
23.3606
23.237
626.621
442.717
19.4243
18.7801
18.9607
19.9225
21.058
22.3121
23.4663
24.4088
25.1866
25.8479
26.4238
26.9358
27.3973
27.8145
28.1896
28.5254
28.8256
29.0907
29.315
29.4848
29.5816
29.5878
29.4893
29.271
28.9127
28.3774
27.5916
26.4618
25.0913
24.0804
23.6882
23.5278
23.3244
627.016
437.424
18.1646
17.8279
18.6209
20.1141
21.4406
22.5429
23.4881
24.306
25.0144
25.6307
26.1698
26.6446
27.0659
27.4423
27.7816
28.091
28.3773
28.6435
28.8878
29.0999
29.2615
29.3499
29.3472
29.2339
28.987
28.5704
27.9205
26.9581
25.747
24.7291
24.201
23.9083
23.5673
626.96
432.959
17.8892
17.7275
17.8426
18.7429
20.0484
21.2991
22.3985
23.3477
24.1643
24.8678
25.475
26.0001
26.4551
26.8516
27.2012
27.5156
27.8065
28.0827
28.3493
28.603
28.8285
28.9985
29.0843
29.0589
28.8946
28.5551
27.9872
27.1426
26.1049
25.2044
24.6358
24.2139
23.6262
625.445
434.472
18.7645
18.3816
17.5599
16.9967
17.8656
19.3731
20.8291
22.0679
23.0979
23.9537
24.667
25.2632
25.7639
26.1884
26.5534
26.8743
27.1658
27.4416
27.7158
27.9978
28.2832
28.5442
28.7364
28.8158
28.7422
28.4768
27.9793
27.2391
26.3635
25.5872
25.0049
24.4699
23.6388
624.114
440.417
19.5402
18.8729
18.0812
17.1622
17.4894
18.8382
20.2732
21.4929
22.5002
23.327
24.0189
24.6234
25.1547
25.6106
25.9931
26.3169
26.6059
26.8757
27.1392
27.4158
27.72
28.0391
28.3208
28.4981
28.5131
28.326
27.9129
27.2932
26.5742
25.9037
25.3167
24.6848
23.6257
622.897
443.565
19.0552
18.078
17.8336
18.2283
19.1715
20.3058
21.302
22.1728
22.932
23.5791
24.1259
24.5961
25.0122
25.3801
25.6947
25.9631
26.202
26.4249
26.6472
26.8913
27.1845
27.5349
27.896
28.1742
28.2793
28.1669
27.8338
27.3219
26.7238
26.1262
25.5372
24.8374
23.6186
622.193
437.12
17.0714
16.8942
18.3293
19.6593
20.5511
21.3082
22.0304
22.7074
23.3241
23.873
24.3522
24.7653
25.1182
25.4175
25.6691
25.8793
26.0557
26.2068
26.3483
26.5068
26.7216
27.029
27.4163
27.7863
28.0059
28.0014
27.7734
27.3708
26.8685
26.3242
25.7421
25.0163
23.7394
622.206
430.246
17.0394
17.1425
17.9346
18.8121
19.5923
20.4068
21.2396
22.0349
22.7606
23.4043
23.9661
24.4487
24.8577
25.2003
25.4832
25.7119
25.8919
26.0283
26.1333
26.2298
26.3582
26.573
26.9098
27.3146
27.6388
27.7572
27.6498
27.36
26.9482
26.4588
25.8987
25.1747
23.8835
622.324
433.489
18.1108
17.1743
15.8258
16.9628
18.4305
19.543
20.4702
21.3257
22.1218
22.8433
23.4798
24.0294
24.498
24.8948
25.2282
25.503
25.7207
25.8808
25.9881
26.057
26.1182
26.2265
26.4516
26.8158
27.2108
27.4573
27.4785
27.3036
26.9859
26.5646
26.0503
25.3638
24.1135
622.903
439.743
18.4679
16.7575
13.9809
14.8751
17.2055
18.8523
20.0048
20.9344
21.7611
22.5128
23.183
23.763
24.2546
24.6696
25.0215
25.3202
25.5674
25.7601
25.8957
25.9773
26.0191
26.0559
26.1512
26.3783
26.73
27.0532
27.1936
27.1303
26.9053
26.5565
26.0981
25.464
24.2822
623.533
439.585
17.568
15.367
13.1954
15.7696
18.0895
19.4013
20.3832
21.2309
21.9994
22.7033
23.3377
23.8924
24.3649
24.7627
25.0978
25.3805
25.6147
25.7997
25.9328
26.0132
26.046
26.0488
26.0624
26.1573
26.3904
26.7001
26.9179
26.9552
26.826
26.5618
26.1761
25.6095
24.4984
624.205
439.38
17.9964
15.8255
12.832
15.4749
17.5354
18.8899
19.9815
20.9317
21.7803
22.5454
23.2287
23.8261
24.338
24.7714
25.1366
25.4432
25.6951
25.8925
26.0337
26.1175
26.146
26.1286
26.0899
26.0822
26.1786
26.3945
26.6093
26.6935
26.6241
26.4219
26.0971
25.5917
24.5509
624.491
442.523
19.1506
16.8794
11.589
12.2515
15.2454
17.1788
18.579
19.7205
20.7157
21.6107
22.4214
23.1485
23.7894
24.3441
24.8186
25.2216