/*--------------------------------*- C++ -*----------------------------------*\
| =========                 |                                                 |
| \\      /  F ield         | OpenFOAM: The Open Source CFD Toolbox           |
|  \\    /   O peration     | Version:  v2006                                 |
|   \\  /    A nd           | Website:  www.openfoam.com                      |
|    \\/     M anipulation  |                                                 |
\*---------------------------------------------------------------------------*/
FoamFile
{
    version     2.0;
    format      ascii;
    class       surfaceScalarField;
    location    "78";
    object      phi;
}
// * * * * * * * * * * * * * * * * * * * * * * * * * * * * * * * * * * * * * //

dimensions      [1 0 -1 0 0 0 0];
oriented        oriented;


internalField   nonuniform List<scalar> 
228225
(
0.000704552
-1.86749e-05
2.99944e-05
0.000722891
-4.99863e-05
2.35516e-05
0.00086725
-0.000163652
1.83487e-05
0.00100488
-0.000152949
1.59233e-05
0.00110834
-0.000117814
1.43395e-05
0.00120966
-0.000108513
1.2945e-05
0.00132126
-0.000106968
1.1594e-05
0.00140559
-8.74485e-05
1.0371e-05
0.00142241
-3.71861e-05
9.56629e-06
0.0013911
9.32414e-06
9.46785e-06
0.00134384
2.09053e-05
9.70964e-06
0.00129061
1.167e-05
9.83111e-06
0.00123797
-6.90235e-07
9.47327e-06
0.00118609
-6.26932e-06
8.88427e-06
0.00113614
-8.289e-06
8.3427e-06
0.00108926
-8.54913e-06
8.02542e-06
0.00104585
-7.08857e-06
7.63356e-06
0.00100682
-6.14514e-06
7.17632e-06
0.00097267
-3.71542e-06
6.58789e-06
0.000943989
-2.49001e-06
6.18705e-06
0.000916148
2.5803e-06
5.89545e-06
0.000891089
5.39693e-06
5.79531e-06
0.000861818
1.15812e-05
5.86802e-06
0.000831106
1.35805e-05
6.35173e-06
0.000794593
1.97356e-05
6.57315e-06
0.000749029
2.3683e-05
8.38854e-06
0.000702459
2.95627e-05
8.40062e-06
0.000643629
3.62587e-05
1.24684e-05
0.000595041
4.14228e-05
1.2532e-05
0.00054111
5.08407e-05
1.85862e-05
0.000509811
5.79032e-05
2.02897e-05
0.000503562
6.72825e-05
2.50001e-05
0.000450694
9.41368e-05
3.30923e-05
0.000287918
0.000113275
1.88348e-05
0.000135123
4.31726e-05
8.12453e-05
-6.42048e-05
4.34998e-06
0.00020485
-9.16738e-05
-4.85603e-06
0.000304176
-0.000196607
-7.44417e-06
0.000342041
-0.00014466
-1.15411e-06
0.000405319
-9.54288e-05
-5.47995e-07
0.000536472
-8.89595e-05
-1.99828e-06
0.000718055
-8.69512e-05
-3.88687e-06
0.000784154
-6.00135e-05
-5.59034e-06
0.000615936
-2.45464e-06
-6.41313e-06
0.000388381
4.56195e-05
-6.11045e-06
0.000235838
6.00514e-05
-5.30603e-06
0.000152775
4.90398e-05
-4.71341e-06
0.000110457
3.05374e-05
-4.42933e-06
9.17128e-05
1.50283e-05
-4.32004e-06
8.48121e-05
4.88104e-06
-4.2828e-06
8.58303e-05
-2.932e-06
-4.23336e-06
9.30536e-05
-8.17117e-06
-4.20606e-06
0.000103231
-1.04355e-05
-4.21378e-06
0.000115521
-1.04138e-05
-4.27222e-06
0.000126453
-7.84489e-06
-4.36092e-06
0.000137605
-3.33756e-06
-4.48908e-06
0.000146296
1.89776e-06
-4.60869e-06
0.000157066
5.45719e-06
-4.70213e-06
0.000165911
9.16694e-06
-4.64445e-06
0.00017681
1.28266e-05
-4.44332e-06
0.000186699
1.68885e-05
-3.87731e-06
0.000197617
2.15357e-05
-3.09636e-06
0.000207711
2.71387e-05
-1.86074e-06
0.000218416
3.39158e-05
-8.94097e-07
0.000228717
4.24633e-05
1.37657e-06
0.000241145
5.43893e-05
2.76354e-06
0.000251202
7.2301e-05
6.40526e-06
0.000254356
0.000103801
8.18977e-06
0.000135347
0.000165743
1.24533e-05
0.000163879
2.44231e-05
6.0135e-05
-0.000102238
4.53881e-06
0.000145477
-0.000102456
4.44856e-06
0.000101738
-8.49698e-05
2.66426e-06
2.52572e-05
-5.93081e-05
7.17938e-06
-1.2337e-05
-4.66819e-05
6.54369e-06
-3.69234e-05
-4.42351e-05
4.58003e-06
-5.92011e-05
-4.19704e-05
3.80957e-06
-6.75369e-05
-3.56037e-05
3.53928e-06
-4.61355e-05
-2.53482e-05
3.62299e-06
2.4478e-07
-1.51109e-05
3.84571e-06
5.50731e-05
-9.2407e-06
3.98691e-06
0.000103744
-8.32898e-06
3.9521e-06
0.000138998
-9.56003e-06
3.76244e-06
0.000160759
-1.05879e-05
3.47948e-06
0.000172742
-1.10623e-05
3.16353e-06
0.000176761
-1.12336e-05
2.83702e-06
0.000175576
-1.12434e-05
2.51573e-06
0.000172401
-1.13005e-05
2.21222e-06
0.000169252
-1.10773e-05
1.93942e-06
0.000167669
-9.73525e-06
1.71884e-06
0.000168398
-7.05029e-06
1.56209e-06
0.000171152
-3.25421e-06
1.43507e-06
0.000173559
1.25454e-06
1.30564e-06
0.00017412
7.42735e-06
1.16495e-06
0.000173415
1.2954e-05
1.03727e-06
0.000171957
1.84865e-05
9.95852e-07
0.000169868
2.4445e-05
1.10815e-06
0.00016704
3.12703e-05
1.5173e-06
0.000163393
3.9299e-05
2.27651e-06
0.000157589
4.9342e-05
3.60327e-06
0.000149449
6.34781e-05
5.05722e-06
0.000133367
8.40319e-05
7.17839e-06
9.84056e-05
0.00011504
9.22366e-06
3.53349e-05
0.000149667
1.47943e-05
0.000133014
1.62775e-05
-9.9335e-06
-7.63082e-05
3.74778e-06
-3.24592e-05
-6.43746e-05
-1.80525e-06
-4.15274e-05
-4.44537e-05
-1.21183e-05
-3.46763e-05
-5.3875e-05
-9.81921e-06
-2.54348e-05
-5.45991e-05
-6.79669e-06
-1.83169e-05
-4.75505e-05
-5.00466e-06
-1.25662e-05
-4.2035e-05
-4.02567e-06
-3.83601e-06
-3.78192e-05
-3.29094e-06
1.02065e-05
-3.38084e-05
-2.70844e-06
2.86961e-05
-2.97564e-05
-2.27111e-06
4.75184e-05
-2.54811e-05
-1.97013e-06
6.18906e-05
-2.07318e-05
-1.79187e-06
6.94496e-05
-1.53345e-05
-1.74235e-06
7.02246e-05
-9.48828e-06
-1.79221e-06
6.50563e-05
-3.85331e-06
-1.8138e-06
5.50703e-05
8.11034e-07
-1.67588e-06
4.27075e-05
2.93834e-06
-1.31219e-06
2.91494e-05
3.57162e-06
-7.49479e-07
1.54045e-05
3.28618e-06
-1.34515e-07
2.75013e-06
2.9926e-06
2.16101e-07
-7.88852e-06
3.26819e-06
4.10001e-07
-1.60506e-05
4.33042e-06
5.18465e-07
-2.18773e-05
6.32736e-06
5.96523e-07
-2.49281e-05
9.55011e-06
6.84486e-07
-2.71611e-05
1.39939e-05
8.27385e-07
-2.96289e-05
1.92943e-05
1.07985e-06
-3.27115e-05
2.50622e-05
1.49754e-06
-3.6359e-05
3.1154e-05
2.14464e-06
-4.058e-05
3.77516e-05
3.06638e-06
-4.55698e-05
4.5513e-05
4.28459e-06
-5.10557e-05
5.5604e-05
5.74839e-06
-5.65896e-05
6.88698e-05
7.48764e-06
-5.58584e-05
8.3483e-05
9.30157e-06
-3.4762e-05
8.93808e-05
1.07945e-05
7.15648e-05
8.23593e-06
-2.43478e-05
-6.57701e-05
8.69176e-06
-3.65526e-05
-8.02957e-05
9.64342e-06
-2.11542e-05
-7.78026e-05
9.72769e-06
-1.66695e-05
-6.66925e-05
5.84277e-06
-1.94911e-05
-5.47176e-05
2.42175e-06
-2.34929e-05
-4.5003e-05
5.65564e-07
-2.82707e-05
-3.78184e-05
-2.69709e-07
-3.37625e-05
-3.24137e-05
-5.63536e-07
-3.89011e-05
-2.84579e-05
-6.02727e-07
-4.27835e-05
-2.55018e-05
-5.55643e-07
-4.48614e-05
-2.29694e-05
-4.90429e-07
-4.48299e-05
-2.03283e-05
-4.1523e-07
-4.26163e-05
-1.71512e-05
-3.27519e-07
-3.83336e-05
-1.34508e-05
-2.12289e-07
-3.21212e-05
-9.87698e-06
-4.52428e-08
-2.45844e-05
-6.81115e-06
2.51808e-07
-1.78247e-05
-4.28805e-06
6.36834e-07
-1.29797e-05
-2.17545e-06
1.06624e-06
-1.04478e-05
-5.75802e-07
1.4809e-06
-1.01465e-05
9.77919e-07
1.84459e-06
-1.13243e-05
2.39087e-06
2.15342e-06
-1.31528e-05
3.81177e-06
2.41676e-06
-1.51342e-05
5.71955e-06
2.64204e-06
-1.70248e-05
8.61651e-06
2.83866e-06
-1.88974e-05
1.27649e-05
3.02068e-06
-2.10384e-05
1.79744e-05
3.21034e-06
-2.369e-05
2.3747e-05
3.45101e-06
-2.69464e-05
2.96911e-05
3.79674e-06
-3.07252e-05
3.56786e-05
4.28654e-06
-3.46309e-05
4.18717e-05
4.94852e-06
-3.76801e-05
4.86728e-05
5.79301e-06
-3.77533e-05
5.59483e-05
6.75603e-06
-3.09116e-05
6.12181e-05
7.55032e-06
-1.70472e-05
6.03324e-05
7.53827e-06
4.56714e-05
4.79704e-06
9.08364e-07
-5.78797e-05
4.31027e-06
1.23784e-05
-7.17528e-05
1.31441e-06
9.21121e-06
-6.33353e-05
-1.80165e-06
1.98647e-06
-5.46223e-05
-2.50428e-06
-2.53154e-06
-4.75241e-05
-2.27728e-06
-3.81311e-06
-4.17385e-05
-2.04556e-06
-2.98554e-06
-3.69046e-05
-1.87835e-06
-1.09631e-06
-3.27718e-05
-1.73106e-06
9.94518e-07
-2.91729e-05
-1.58375e-06
2.76061e-06
-2.59927e-05
-1.43483e-06
4.02709e-06
-2.30465e-05
-1.29338e-06
4.87471e-06
-2.00615e-05
-1.17276e-06
5.14726e-06
-1.63642e-05
-1.08188e-06
4.07554e-06
-1.13717e-05
-1.00457e-06
1.31747e-06
-6.20521e-06
-9.01906e-07
-2.63351e-06
-2.09476e-06
-7.6374e-07
-7.36823e-06
1.02043e-06
-5.94632e-07
-1.26297e-05
3.42689e-06
-3.84861e-07
-1.8592e-05
5.45456e-06
-1.27735e-07
-2.48897e-05
7.01921e-06
1.91017e-07
-3.13481e-05
8.24612e-06
5.46243e-07
-3.77646e-05
9.2914e-06
9.10453e-07
-4.36305e-05
1.0326e-05
1.28336e-06
-4.81581e-05
1.156e-05
1.66218e-06
-5.0579e-05
1.32519e-05
2.04641e-06
-5.05559e-05
1.56248e-05
2.43428e-06
-4.83079e-05
1.87301e-05
2.82583e-06
-4.43648e-05
2.24849e-05
3.2309e-06
-3.9316e-05
2.68223e-05
3.66987e-06
-3.35554e-05
3.16975e-05
4.1852e-06
-2.69578e-05
3.69357e-05
4.83125e-06
-1.9567e-05
4.24982e-05
5.56944e-06
-1.26021e-05
4.73323e-05
6.02771e-06
-5.63585e-06
4.68665e-05
5.64299e-06
3.65411e-05
3.40425e-06
1.77133e-05
-4.59413e-05
8.79669e-07
1.74045e-05
-4.57633e-05
-4.53213e-07
1.38714e-05
-4.25187e-05
-3.07722e-07
9.48451e-06
-4.00962e-05
-1.08879e-07
4.78765e-06
-3.75354e-05
-2.53652e-07
7.90929e-07
-3.49777e-05
-4.40556e-07
-1.82795e-06
-3.26953e-05
-5.35049e-07
-3.08119e-06
-3.04363e-05
-5.55478e-07
-3.65123e-06
-2.77569e-05
-5.4465e-07
-4.63728e-06
-2.42992e-05
-5.25789e-07
-6.91707e-06
-2.01548e-05
-5.14929e-07
-1.02673e-05
-1.61466e-05
-5.33356e-07
-1.35018e-05
-1.25232e-05
-6.17832e-07
-1.56921e-05
-8.44331e-06
-7.50959e-07
-1.68781e-05
-4.18968e-06
-8.09874e-07
-1.75091e-05
-6.63021e-07
-7.58301e-07
-1.8044e-05
2.24636e-06
-6.55273e-07
-1.8568e-05
4.5016e-06
-5.36027e-07
-1.89781e-05
6.26574e-06
-4.07035e-07
-1.93723e-05
7.66258e-06
-2.67937e-07
-1.98126e-05
8.7832e-06
-1.17958e-07
-2.0297e-05
9.71781e-06
4.52372e-08
-2.08126e-05
1.05638e-05
2.84613e-07
-2.11997e-05
1.143e-05
5.53699e-07
-2.11667e-05
1.24286e-05
8.64895e-07
-2.03039e-05
1.36549e-05
1.22232e-06
-1.82448e-05
1.51899e-05
1.62919e-06
-1.4874e-05
1.71979e-05
2.07434e-06
-1.05484e-05
2.01012e-05
2.51512e-06
-6.35287e-06
2.46134e-05
2.89436e-06
-3.5676e-06
3.08021e-05
3.26527e-06
-1.97621e-06
3.72058e-05
3.88088e-06
-9.00883e-07
4.21588e-05
4.71363e-06
-3.82118e-07
4.21022e-05
4.68572e-06
3.34012e-05
2.74327e-06
-1.57701e-05
-2.57343e-05
-4.06544e-06
-2.96313e-05
-3.18432e-05
-4.63946e-06
-4.04964e-05
-3.51081e-05
-3.72041e-06
-4.6723e-05
-3.73115e-05
-2.54516e-06
-4.81335e-05
-3.72655e-05
-1.76721e-06
-4.69249e-05
-3.59269e-05
-1.39879e-06
-4.48005e-05
-3.40856e-05
-1.22031e-06
-4.25222e-05
-3.17466e-05
-1.13252e-06
-4.03142e-05
-2.88471e-05
-1.09247e-06
-3.80929e-05
-2.53426e-05
-1.07612e-06
-3.58879e-05
-2.12154e-05
-1.07666e-06
-3.41005e-05
-1.68518e-05
-1.08326e-06
-3.2938e-05
-1.26457e-05
-1.07511e-06
-3.17189e-05
-8.65733e-06
-1.05678e-06
-2.99945e-05
-4.93863e-06
-1.03978e-06
-2.82272e-05
-1.48005e-06
-1.01859e-06
-2.63903e-05
1.3226e-06
-9.78431e-07
-2.45405e-05
3.50859e-06
-9.20062e-07
-2.28642e-05
5.37685e-06
-8.52301e-07
-2.14337e-05
6.94249e-06
-7.78337e-07
-2.0278e-05
8.25373e-06
-6.95934e-07
-1.93966e-05
9.36942e-06
-5.99546e-07
-1.87587e-05
1.03516e-05
-4.81199e-07
-1.82897e-05
1.12586e-05
-3.31295e-07
-1.7857e-05
1.21365e-05
-1.40839e-07
-1.72827e-05
1.3015e-05
1.11541e-07
-1.64048e-05
1.39249e-05
4.93758e-07
-1.49429e-05
1.49659e-05
9.58473e-07
-1.25015e-05
1.64529e-05
1.50503e-06
-8.64446e-06
1.91411e-05
2.00987e-06
-3.79905e-06
2.40188e-05
2.29185e-06
-4.48304e-07
3.15635e-05
2.5076e-06
2.01147e-07
3.87293e-05
3.01991e-06
-2.70196e-07
3.95795e-05
3.16042e-06
3.13821e-05
1.68091e-06
-5.27973e-06
-2.70669e-05
6.33242e-08
-4.276e-06
-3.91269e-05
9.51988e-07
-5.91057e-08
-4.21993e-05
1.03729e-06
4.29849e-06
-4.22045e-05
6.66349e-07
6.91558e-06
-4.00536e-05
2.7058e-07
7.68444e-06
-3.68922e-05
7.70467e-08
6.92939e-06
-3.34874e-05
-5.32743e-09
5.15752e-06
-3.0132e-05
-2.29769e-08
3.19789e-06
-2.70613e-05
-5.56306e-09
2.03575e-06
-2.43777e-05
5.1946e-08
2.48416e-06
-2.18733e-05
1.14674e-07
4.4533e-06
-1.90232e-05
1.48695e-07
7.04637e-06
-1.53873e-05
1.21835e-07
9.40951e-06
-1.1034e-05
7.77857e-09
1.09622e-05
-6.37496e-06
-1.08192e-07
1.18835e-05
-2.14287e-06
-2.47793e-07
1.2138e-05
1.45103e-06
-3.77398e-07
1.16773e-05
4.44872e-06
-4.82231e-07
1.09739e-05
6.63335e-06
-5.64377e-07
1.02259e-05
8.30254e-06
-6.31011e-07
9.49892e-06
9.64247e-06
-6.86308e-07
8.78711e-06
1.0784e-05
-7.29558e-07
8.05341e-06
1.18164e-05
-7.56548e-07
7.26375e-06
1.27871e-05
-7.60348e-07
6.40257e-06
1.37107e-05
-7.30877e-07
5.45707e-06
1.45943e-05
-6.51362e-07
4.40354e-06
1.54529e-05
-4.93771e-07
3.26849e-06
1.63163e-05
-2.24842e-07
2.26697e-06
1.7289e-05
2.09893e-07
1.94998e-06
1.87248e-05
9.18741e-07
3.34005e-06
2.13927e-05
1.72977e-06
5.54369e-06
2.78771e-05
2.3419e-06
4.93453e-06
3.73331e-05
2.77001e-06
2.73576e-06
3.94292e-05
2.85722e-06
3.28468e-05
1.43917e-06
1.09003e-05
-3.4869e-05
-8.86717e-07
1.72543e-05
-4.08712e-05
-1.75515e-06
2.00142e-05
-4.06628e-05
-1.93596e-06
2.05767e-05
-3.91918e-05
-1.84305e-06
2.02999e-05
-3.6946e-05
-1.60501e-06
1.9777e-05
-3.41241e-05
-1.30592e-06
1.90561e-05
-3.09832e-05
-1.04543e-06
1.81079e-05
-2.77608e-05
-8.58859e-07
1.68236e-05
-2.46286e-05
-7.31758e-07
1.51057e-05
-2.17313e-05
-6.34374e-07
1.31459e-05
-1.91778e-05
-5.41204e-07
1.16074e-05
-1.69366e-05
-4.33273e-07
1.12701e-05
-1.46975e-05
-2.99871e-07
1.22581e-05
-1.18477e-05
-1.59499e-07
1.38719e-05
-7.89888e-06
-8.36295e-08
1.5079e-05
-3.22248e-06
-1.16617e-07
1.56125e-05
1.15303e-06
-2.23929e-07
1.59669e-05
4.44894e-06
-3.48292e-07
1.61827e-05
6.87908e-06
-4.61993e-07
1.63924e-05
8.65211e-06
-5.64477e-07
1.6672e-05
1.00171e-05
-6.59324e-07
1.70431e-05
1.11611e-05
-7.45266e-07
1.74943e-05
1.22045e-05
-8.20365e-07
1.80056e-05
1.31981e-05
-8.88105e-07
1.85653e-05
1.41424e-05
-9.57274e-07
1.91529e-05
1.50469e-05
-1.03009e-06
1.96853e-05
1.59705e-05
-1.09086e-06
1.99214e-05
1.70586e-05
-1.1011e-06
1.92687e-05
1.86918e-05
-1.00128e-06
1.66592e-05
2.16425e-05
-7.23701e-07
1.16766e-05
2.60992e-05
-1.73862e-07
6.58838e-06
3.18656e-05
8.25208e-07
3.5188e-06
3.85614e-05
1.89847e-06
9.33691e-07
3.96996e-05
2.37625e-06
3.25731e-05
1.09752e-06
-8.13873e-07
-3.37083e-05
-7.38907e-07
-1.59636e-06
-4.03954e-05
-5.39048e-07
-1.74082e-06
-4.08114e-05
-5.52586e-07
-1.04838e-06
-4.00778e-05
-5.47374e-07
4.08272e-07
-3.84821e-05
-5.43066e-07
2.23127e-06
-3.58808e-05
-5.49466e-07
4.01954e-06
-3.25301e-05
-5.67397e-07
5.58194e-06
-2.89231e-05
-5.83301e-07
6.83842e-06
-2.53745e-05
-5.79464e-07
7.72768e-06
-2.20612e-05
-5.49625e-07
8.19789e-06
-1.90948e-05
-5.00704e-07
8.26853e-06
-1.64973e-05
-4.41824e-07
8.15118e-06
-1.41437e-05
-3.70682e-07
8.319e-06
-1.16982e-05
-2.67875e-07
9.17171e-06
-8.59796e-06
-1.27684e-07
1.0465e-05
-4.48316e-06
-2.21149e-08
1.15019e-05
1.32281e-07
-1.13513e-08
1.19911e-05
4.03035e-06
-7.02015e-08
1.19843e-05
7.03678e-06
-1.57088e-07
1.16655e-05
9.20275e-06
-2.4506e-07
1.11872e-05
1.08058e-05
-3.2813e-07
1.06428e-05
1.20941e-05
-4.0501e-07
1.00878e-05
1.32304e-05
-4.77577e-07
9.56692e-06
1.42857e-05
-5.57104e-07
9.14138e-06
1.52534e-05
-6.61263e-07
8.89545e-06
1.61218e-05
-7.99706e-07
8.89918e-06
1.69508e-05
-9.65784e-07
9.14246e-06
1.7933e-05
-1.13749e-06
9.4284e-06
1.95732e-05
-1.27967e-06
9.12384e-06
2.29775e-05
-1.34297e-06
6.90403e-06
2.89215e-05
-1.22061e-06
3.08801e-06
3.55573e-05
-6.78836e-07
9.76407e-07
3.97963e-05
3.04361e-07
-5.07293e-07
3.9697e-05
1.10872e-06
3.12619e-05
3.2781e-07
1.00039e-06
-3.52558e-05
3.7366e-07
4.99205e-06
-4.50761e-05
7.71581e-07
9.80068e-06
-4.59542e-05
4.93622e-07
1.46441e-05
-4.49751e-05
2.27841e-07
1.88037e-05
-4.2451e-05
-6.40151e-09
2.14141e-05
-3.80623e-05
-2.21153e-07
2.21826e-05
-3.26739e-05
-4.11242e-07
2.16489e-05
-2.76722e-05
-5.32418e-07
2.05179e-05
-2.35193e-05
-5.83288e-07
1.92231e-05
-2.0078e-05
-5.84944e-07
1.79053e-05
-1.71405e-05
-5.56987e-07
1.65662e-05
-1.45788e-05
-5.12391e-07
1.52178e-05
-1.22761e-05
-4.58554e-07
1.39859e-05
-1.00167e-05
-3.92849e-07
1.31628e-05
-7.42786e-06
-2.96407e-07
1.29401e-05
-4.06347e-06
-1.59584e-07
1.31845e-05
-4.55991e-08
-4.40647e-08
1.30534e-05
4.18012e-06
-7.25103e-09
1.25968e-05
7.51908e-06
-2.32611e-08
1.18779e-05
9.98046e-06
-6.54139e-08
1.0964e-05
1.18219e-05
-1.17591e-07
9.89795e-06
1.33089e-05
-1.71405e-07
8.69703e-06
1.46263e-05
-2.20627e-07
7.36311e-06
1.58646e-05
-2.66111e-07
5.90646e-06
1.70215e-05
-3.18033e-07
4.38057e-06
1.80569e-05
-3.88629e-07
2.89495e-06
1.89834e-05
-4.81179e-07
1.62427e-06
1.9925e-05
-5.87729e-07
9.0483e-07
2.12091e-05
-6.91413e-07
1.33145e-06
2.36433e-05
-7.74036e-07
2.79298e-06
2.85467e-05
-8.22427e-07
3.44145e-06
3.56093e-05
-7.51638e-07
2.79534e-06
4.04953e-05
-3.17916e-07
1.2506e-06
4.06521e-05
2.87145e-07
3.22247e-05
-3.63749e-09
6.66138e-07
-3.71984e-05
1.09948e-06
2.3967e-06
-4.91784e-05
2.0868e-06
4.87568e-06
-5.06409e-05
1.88707e-06
7.85009e-06
-4.98242e-05
1.53268e-06
1.10546e-05
-4.71002e-05
1.10681e-06
1.36147e-05
-4.14725e-05
5.90751e-07
1.47308e-05
-3.39968e-05
6.51393e-08
1.46377e-05
-2.72994e-05
-3.3398e-07
1.39104e-05
-2.22375e-05
-5.6249e-07
1.2962e-05
-1.84637e-05
-6.53484e-07
1.19983e-05
-1.55005e-05
-6.55715e-07
1.10721e-05
-1.30199e-05
-6.08729e-07
1.01556e-05
-1.07948e-05
-5.3939e-07
9.22958e-06
-8.60309e-06
-4.61173e-07
8.36848e-06
-6.16691e-06
-3.72736e-07
7.77678e-06
-3.18204e-06
-2.63859e-07
7.48192e-06
4.18469e-07
-1.49234e-07
7.72867e-06
4.02303e-06
-7.78827e-08
8.20417e-06
7.11261e-06
-6.4823e-08
8.75764e-06
9.51179e-06
-8.72066e-08
9.30595e-06
1.1389e-05
-1.23291e-07
9.80098e-06
1.29654e-05
-1.63543e-07
1.02039e-05
1.44119e-05
-2.03291e-07
1.04641e-05
1.58263e-05
-2.39024e-07
1.05075e-05
1.723e-05
-2.74431e-07
1.02448e-05
1.8605e-05
-3.20744e-07
9.5938e-06
1.99687e-05
-3.87619e-07
8.51509e-06
2.14135e-05
-4.72567e-07
7.13872e-06
2.31079e-05
-5.54949e-07
6.10413e-06
2.53663e-05
-5.95134e-07
6.38385e-06
2.91512e-05
-5.48767e-07
6.80929e-06
3.60045e-05
-4.19737e-07
5.26818e-06
4.23015e-05
-2.09122e-07
2.73408e-06
4.29131e-05
1.48656e-07
3.47015e-05
1.14183e-07
-5.0332e-07
-3.9209e-05
2.16621e-06
1.27842e-06
-5.49367e-05
3.60921e-06
4.18925e-06
-5.73369e-05
3.48991e-06
7.62972e-06
-5.6636e-05
3.11336e-06
1.12505e-05
-5.35914e-05
2.63028e-06
1.43223e-05
-4.6728e-05
1.99965e-06
1.57113e-05
-3.67095e-05
1.24392e-06
1.543e-05
-2.75669e-05
5.45064e-07
1.42484e-05
-2.10689e-05
4.1019e-08
1.27709e-05
-1.67007e-05
-2.50697e-07
1.13024e-05
-1.35996e-05
-3.98889e-07
9.92992e-06
-1.1167e-05
-4.49404e-07
8.63647e-06
-9.03357e-06
-4.38704e-07
7.38184e-06
-6.9303e-06
-3.90143e-07
6.17219e-06
-4.61438e-06
-3.15771e-07
5.13458e-06
-1.89771e-06
-2.21662e-07
4.5058e-06
1.18975e-06
-1.22042e-07
4.32504e-06
4.26496e-06
-4.73965e-08
4.5538e-06
6.90791e-06
-1.68641e-08
5.08415e-06
9.00534e-06
-2.17676e-08
5.82991e-06
1.06905e-05
-4.79858e-08
6.72829e-06
1.215e-05
-8.36005e-08
7.72926e-06
1.35339e-05
-1.20373e-07
8.79767e-06
1.49238e-05
-1.60699e-07
9.92308e-06
1.63208e-05
-2.20255e-07
1.10993e-05
1.77123e-05
-3.20674e-07
1.22455e-05
1.91989e-05
-4.78732e-07
1.30761e-05
2.10716e-05
-6.96771e-07
1.29504e-05
2.38251e-05
-9.51299e-07
1.1152e-05
2.78241e-05
-1.16375e-06
8.0893e-06
3.28662e-05
-1.16216e-06
5.25887e-06
3.92586e-05
-7.90402e-07
2.94895e-06
4.46318e-05
-3.16218e-07
9.43194e-07
4.45714e-05
6.68559e-09
3.52333e-05
4.22278e-08
4.96221e-07
-4.25074e-05
2.62177e-06
2.67453e-07
-5.88449e-05
4.01518e-06
1.44554e-07
-6.12788e-05
4.01826e-06
3.38042e-07
-6.06101e-05
3.76345e-06
1.08342e-06
-5.77869e-05
3.42305e-06
2.67967e-06
-5.13377e-05
2.96531e-06
4.34615e-06
-4.06987e-05
2.30573e-06
5.06906e-06
-2.98014e-05
1.53164e-06
4.84133e-06
-2.1679e-05
8.72304e-07
3.99696e-06
-1.62386e-05
4.16564e-07
2.83864e-06
-1.25462e-05
1.35052e-07
1.5608e-06
-9.84293e-06
-1.99132e-08
2.729e-07
-7.63754e-06
-8.40788e-08
-9.33977e-07
-5.60576e-06
-9.50648e-08
-1.95662e-06
-3.50282e-06
-6.77944e-08
-2.66907e-06
-1.15077e-06
-1.59063e-08
-2.98753e-06
1.45747e-06
6.50478e-08
-2.94291e-06
4.08571e-06
1.43138e-07
-2.68008e-06
6.44793e-06
1.99465e-07
-2.30601e-06
8.39825e-06
2.29542e-07
-1.85339e-06
9.99109e-06
2.38652e-07
-1.31364e-06
1.13644e-05
2.35918e-07
-6.71215e-07
1.26562e-05
2.29427e-07
7.86691e-08
1.39614e-05
2.19591e-07
9.36925e-07
1.52975e-05
1.91156e-07
1.94103e-06
1.66323e-05
1.15118e-07
3.18574e-06
1.80264e-05
-4.35798e-08
4.65175e-06
1.98523e-05
-2.82188e-07
5.89002e-06
2.30251e-05
-6.59202e-07
5.59688e-06
2.86523e-05
-1.1489e-06
2.71808e-06
3.61698e-05
-1.51002e-06
-5.12169e-07
4.27221e-05
-1.40071e-06
-1.58723e-06
4.58334e-05
-9.67746e-07
-1.72221e-06
4.45936e-05
-5.03656e-07
3.32256e-05
-2.80185e-07
-5.3159e-07
-4.46937e-05
2.81017e-06
-3.80889e-06
-5.90358e-05
3.76527e-06
-7.58619e-06
-6.09704e-05
3.83951e-06
-1.10819e-05
-6.04578e-05
3.73503e-06
-1.36781e-05
-5.84273e-05
3.5957e-06
-1.41941e-05
-5.39936e-05
3.42678e-06
-1.20391e-05
-4.58177e-05
3.1135e-06
-8.82606e-06
-3.54561e-05
2.54016e-06
-6.04847e-06
-2.62651e-05
1.88053e-06
-4.23796e-06
-1.93126e-05
1.31987e-06
-3.38277e-06
-1.4267e-05
9.10827e-07
-3.25052e-06
-1.05748e-05
6.36647e-07
-3.58032e-06
-7.74175e-06
4.65384e-07
-4.14647e-06
-5.38219e-06
3.70142e-07
-4.74569e-06
-3.21075e-06
3.31653e-07
-5.18316e-06
-1.02785e-06
3.35683e-07
-5.34267e-06
1.2639e-06
3.69853e-07
-5.28156e-06
3.61485e-06
4.21144e-07
-5.15282e-06
5.84839e-06
4.76169e-07
-5.08789e-06
7.80706e-06
5.25127e-07
-5.12645e-06
9.45695e-06
5.643e-07
-5.24017e-06
1.08669e-05
5.94601e-07
-5.3781e-06
1.21504e-05
6.19114e-07
-5.51236e-06
1.34271e-05
6.40134e-07
-5.68202e-06
1.47942e-05
6.54547e-07
-5.97582e-06
1.62954e-05
6.50117e-07
-6.39646e-06
1.79355e-05
6.083e-07
-6.64324e-06
1.98136e-05
5.01729e-07
-6.02617e-06
2.24974e-05
2.68826e-07
-4.1232e-06
2.73052e-05
-1.76831e-07
-2.21428e-06
3.50052e-05
-7.43777e-07
-1.65567e-06
4.28035e-05
-1.17126e-06
-1.01784e-06
4.58361e-05
-1.21586e-06
-5.85038e-07
4.45343e-05
-8.72805e-07
3.26185e-05
-3.61413e-07
-3.92836e-06
-4.30361e-05
2.55226e-06
-1.03478e-05
-5.52003e-05
2.94636e-06
-1.70124e-05
-5.71025e-05
3.13213e-06
-2.31131e-05
-5.72707e-05
3.2164e-06
-2.79811e-05
-5.65994e-05
3.28129e-06
-3.03368e-05
-5.48509e-05
3.3534e-06
-2.84942e-05
-5.10216e-05
3.39442e-06
-2.29794e-05
-4.42221e-05
3.2512e-06
-1.62801e-05
-3.58261e-05
2.87467e-06
-1.02197e-05
-2.77411e-05
2.40127e-06
-5.63793e-06
-2.07514e-05
1.94869e-06
-2.68535e-06
-1.50518e-05
1.57335e-06
-1.0975e-06
-1.05724e-05
1.28796e-06
-4.46576e-07
-7.07701e-06
1.08338e-06
-3.18188e-07
-4.24944e-06
9.44446e-07
-3.95076e-07
-1.77877e-06
8.57295e-07
-4.61342e-07
5.44424e-07
8.1081e-07
-3.69135e-07
2.74767e-06
7.95419e-07
-2.05156e-07
4.89843e-06
8.01468e-07
-8.18224e-08
6.87428e-06
8.1991e-07
-6.84616e-08
8.60526e-06
8.43674e-07
-1.67934e-07
1.00973e-05
8.68701e-07
-3.36673e-07
1.14179e-05
8.93649e-07
-5.2077e-07
1.26755e-05
9.19091e-07
-7.12905e-07
1.40143e-05
9.45101e-07
-1.0367e-06
1.5618e-05
9.66653e-07
-1.77228e-06
1.76756e-05
9.7083e-07
-3.07753e-06
2.02188e-05
9.48232e-07
-4.23635e-06
2.30312e-05
8.89855e-07
-3.45524e-06
2.64676e-05
7.32853e-07
1.23272e-07
3.21373e-05
3.51864e-07
3.2641e-06
4.07023e-05
-2.47897e-07
3.64262e-06
4.6319e-05
-6.89958e-07
2.5843e-06
4.6141e-05
-6.46504e-07
3.51694e-05
-6.96751e-08
-6.34394e-06
-3.83678e-05
1.80974e-06
-1.19897e-05
-5.12432e-05
1.7352e-06
-1.717e-05
-5.40003e-05
2.06056e-06
-2.19672e-05
-5.48464e-05
2.31713e-06
-2.62124e-05
-5.49611e-05
2.52845e-06
-2.9359e-05
-5.45278e-05
2.72527e-06
-3.00554e-05
-5.3394e-05
2.93073e-06
-2.67933e-05
-5.0802e-05
3.14368e-06
-1.98966e-05
-4.61101e-05
3.24569e-06
-1.12163e-05
-3.96631e-05
3.16218e-06
-2.58149e-06
-3.23368e-05
2.93409e-06
4.7251e-06
-2.49535e-05
2.62829e-06
1.00251e-05
-1.81145e-05
2.30449e-06
1.32329e-05
-1.22192e-05
2.00581e-06
1.47041e-05
-7.40746e-06
1.75515e-06
1.50213e-05
-3.59357e-06
1.55782e-06
1.47435e-05
-5.35336e-07
1.40912e-06
1.42997e-05
1.93371e-06
1.30122e-06
1.3872e-05
4.1366e-06
1.22542e-06
1.34736e-05
6.12774e-06
1.17404e-06
1.3076e-05
7.88586e-06
1.14029e-06
1.26786e-05
9.39513e-06
1.11843e-06
1.23205e-05
1.06866e-05
1.10452e-06
1.20711e-05
1.18394e-05
1.0971e-06
1.20115e-05
1.29832e-05
1.09697e-06
1.21862e-05
1.43342e-05
1.10422e-06
1.24363e-05
1.62881e-05
1.10454e-06
1.21004e-05
1.94158e-05
1.05264e-06
1.05091e-05
2.35826e-05
9.42627e-07
8.69646e-06
2.75398e-05
8.39902e-07
8.56324e-06
3.21034e-05
7.34685e-07
8.93928e-06
4.06493e-05
5.12111e-07
6.88281e-06
4.85992e-05
6.68611e-08
3.99441e-06
4.91446e-05
-7.81897e-08
3.87713e-05
3.79732e-07
-2.875e-06
-3.60601e-05
4.29934e-07
-2.94268e-06
-5.12967e-05
-6.24959e-08
-2.73661e-06
-5.48068e-05
4.55856e-07
-2.96075e-06
-5.56098e-05
8.70877e-07
-3.84182e-06
-5.53635e-05
1.19302e-06
-5.45237e-06
-5.44301e-05
1.45385e-06
-7.53432e-06
-5.3034e-05
1.68468e-06
-8.94335e-06
-5.13713e-05
1.91986e-06
-8.1031e-06
-4.92724e-05
2.2003e-06
-4.2379e-06
-4.61784e-05
2.50621e-06
2.42701e-06
-4.18637e-05
2.74596e-06
1.07246e-05
-3.61914e-05
2.87364e-06
1.91087e-05
-2.93866e-05
2.87938e-06
2.62892e-05
-2.2127e-05
2.77221e-06
3.14665e-05
-1.50828e-05
2.57964e-06
3.43195e-05
-8.6932e-06
2.3431e-06
3.49891e-05
-3.21538e-06
2.10424e-06
3.40615e-05
1.05164e-06
1.89281e-06
3.24306e-05
4.11885e-06
1.72019e-06
3.06229e-05
6.41135e-06
1.58434e-06
2.8844e-05
8.23626e-06
1.47839e-06
2.71623e-05
9.72332e-06
1.39528e-06
2.56313e-05
1.09248e-05
1.32883e-06
2.43272e-05
1.19019e-05
1.27435e-06
2.33573e-05
1.27538e-05
1.22917e-06
2.28669e-05
1.36537e-05
1.19254e-06
2.29734e-05
1.50097e-05
1.16087e-06
2.32364e-05
1.79609e-05
1.0805e-06
2.18437e-05
2.38481e-05
8.19145e-07
1.76571e-05
3.08074e-05
4.60161e-07
1.23757e-05
3.67361e-05
2.86401e-07
8.0061e-06
4.45208e-05
3.93112e-07
4.64684e-06
5.1553e-05
3.94157e-07
1.96613e-06
5.14357e-05
2.94062e-07
4.01472e-05
3.97586e-07
3.83686e-06
-3.90715e-05
-8.64409e-07
9.62254e-06
-5.5653e-05
-1.4022e-06
1.52089e-05
-5.92938e-05
-9.94994e-07
2.00427e-05
-5.97469e-05
-5.55407e-07
2.39564e-05
-5.89337e-05
-1.8695e-07
2.67794e-05
-5.72135e-05
1.28289e-07
2.82978e-05
-5.47467e-05
3.83955e-07
2.83206e-05
-5.17426e-05
5.69906e-07
2.70809e-05
-4.85053e-05
7.05527e-07
2.55646e-05
-4.53025e-05
8.32537e-07
2.49066e-05
-4.21114e-05
1.01282e-06
2.59744e-05
-3.85212e-05
1.29456e-06
2.91204e-05
-3.41788e-05
1.64974e-06
3.40253e-05
-2.90351e-05
2.00792e-06
3.98146e-05
-2.3144e-05
2.30033e-06
4.53621e-05
-1.66486e-05
2.47462e-06
4.93583e-05
-9.61286e-06
2.5041e-06
5.04862e-05
-2.34955e-06
2.38904e-06
4.88045e-05
3.71618e-06
2.19042e-06
4.55078e-05
7.81092e-06
1.98727e-06
4.16909e-05
1.03147e-05
1.81442e-06
3.78675e-05
1.19348e-05
1.67549e-06
3.4217e-05
1.30639e-05
1.5654e-06
3.08114e-05
1.38776e-05
1.47833e-06
2.77138e-05
1.44875e-05
1.40983e-06
2.50181e-05
1.50337e-05
1.35622e-06
2.28758e-05
1.58463e-05
1.31442e-06
2.14207e-05
1.80556e-05
1.25337e-06
1.97522e-05
2.41818e-05
9.73348e-07
1.52512e-05
3.41216e-05
3.25101e-07
7.81469e-06
4.31213e-05
-2.33028e-07
1.9408e-06
4.95741e-05
-2.76964e-07
-3.49219e-07
5.34928e-05
-1.6759e-07
-1.12952e-06
5.20271e-05
-1.24939e-07
3.86505e-05
-7.16717e-08
9.40057e-06
-4.65579e-05
-1.63046e-06
1.80062e-05
-6.18405e-05
-2.05287e-06
2.55047e-05
-6.45735e-05
-1.85628e-06
3.20524e-05
-6.4386e-05
-1.55134e-06
3.76772e-05
-6.29653e-05
-1.24027e-06
4.24276e-05
-6.06754e-05
-9.46603e-07
4.63699e-05
-5.76846e-05
-6.84131e-07
4.94819e-05
-5.40946e-05
-4.63383e-07
5.15746e-05
-5.00004e-05
-3.04525e-07
5.23834e-05
-4.55638e-05
-2.32176e-07
5.17626e-05
-4.09103e-05
-2.44812e-07
4.98099e-05
-3.59411e-05
-3.04726e-07
4.70193e-05
-3.07756e-05
-3.40315e-07
4.45636e-05
-2.61362e-05
-2.46603e-07
4.37117e-05
-2.22285e-05
5.68032e-08
4.50592e-05
-1.84493e-05
5.27103e-07
4.82791e-05
-1.38789e-05
1.11181e-06
5.14815e-05
-7.15757e-06
1.6904e-06
5.19689e-05
1.32511e-06
2.00732e-06
4.91012e-05
8.75406e-06
2.02268e-06
4.44068e-05
1.31847e-05
1.90625e-06
3.9051e-05
1.55865e-05
1.7734e-06
3.35619e-05
1.69535e-05
1.65892e-06
2.81431e-05
1.77759e-05
1.57058e-06
2.29042e-05
1.82603e-05
1.5091e-06
1.79322e-05
1.85728e-05
1.47208e-06
1.33505e-05
1.90081e-05
1.45312e-06
9.62429e-06
2.03648e-05
1.43119e-06
7.69705e-06
2.48167e-05
1.27873e-06
6.40959e-06
3.43775e-05
7.16041e-07
2.7349e-06
4.57681e-05
-1.1541e-07
-1.27823e-06
5.27555e-05
-6.71484e-07
-2.36572e-06
5.43566e-05
-8.46195e-07
-2.0068e-06
5.18272e-05
-8.26819e-07
3.66591e-05
-5.12526e-07
1.08521e-05
-5.51189e-05
-1.84284e-06
1.88992e-05
-6.7466e-05
-2.01496e-06
2.52863e-05
-6.86029e-05
-2.04401e-06
3.0587e-05
-6.73992e-05
-2.01313e-06
3.48371e-05
-6.49797e-05
-1.96017e-06
3.79818e-05
-6.16276e-05
-1.89668e-06
4.00187e-05
-5.75745e-05
-1.83256e-06
4.11645e-05
-5.31623e-05
-1.77187e-06
4.18918e-05
-4.87626e-05
-1.70553e-06
4.25968e-05
-4.44525e-05
-1.62442e-06
4.3201e-05
-3.98301e-05
-1.54651e-06
4.31519e-05
-3.42349e-05
-1.53354e-06
4.18235e-05
-2.76692e-05
-1.63912e-06
3.93521e-05
-2.17477e-05
-1.77305e-06
3.66349e-05
-1.7573e-05
-1.80721e-06
3.4577e-05
-1.45449e-05
-1.72477e-06
3.37933e-05
-1.15053e-05
-1.47474e-06
3.35896e-05
-6.13404e-06
-7.28559e-07
3.16266e-05
3.06786e-06
2.93048e-07
2.79578e-05
1.15448e-05
9.45871e-07
2.36725e-05
1.63057e-05
1.2175e-06
1.92246e-05
1.87736e-05
1.29737e-06
1.46731e-05
2.02142e-05
1.31819e-06
1.00119e-05
2.11302e-05
1.32762e-06
5.24624e-06
2.16939e-05
1.34475e-06
4.11417e-07
2.20387e-05
1.3789e-06
-4.36284e-06
2.23833e-05
1.43029e-06
-8.57551e-06
2.32102e-05
1.48649e-06
-1.06267e-05
2.57654e-05
1.49627e-06
-8.9279e-06
3.21994e-05
1.28822e-06
-5.62179e-06
4.24563e-05
6.81603e-07
-4.24723e-06
5.11921e-05
-3.64631e-08
-2.9485e-06
5.31833e-05
-6.2363e-07
-1.3616e-06
5.0639e-05
-8.6946e-07
3.54537e-05
-4.23242e-07
5.57112e-06
-5.95272e-05
-1.00195e-06
8.55715e-06
-6.94205e-05
-9.16994e-07
1.03969e-05
-6.92735e-05
-1.08786e-06
1.17107e-05
-6.73498e-05
-1.27831e-06
1.24593e-05
-6.41317e-05
-1.48134e-06
1.2341e-05
-5.96462e-05
-1.71432e-06
1.10251e-05
-5.41001e-05
-2.00336e-06
8.44688e-06
-4.81124e-05
-2.35945e-06
4.97097e-06
-4.25129e-05
-2.73667e-06
1.2244e-06
-3.76956e-05
-3.04367e-06
-2.07887e-06
-3.33842e-05
-3.22711e-06
-4.11264e-06
-2.90233e-05
-3.30108e-06
-4.54474e-06
-2.4056e-05
-3.32154e-06
-4.54534e-06
-1.85678e-05
-3.30283e-06
-6.06184e-06
-1.29416e-05
-3.20799e-06
-1.00089e-05
-7.63212e-06
-3.03298e-06
-1.55751e-05
-3.28844e-06
-2.69708e-06
-2.11074e-05
1.29064e-06
-1.92124e-06
-2.46183e-05
7.39138e-06
-8.44387e-07
-2.56397e-05
1.27094e-05
-1.75063e-07
-2.5384e-05
1.59139e-05
1.124e-07
-2.48896e-05
1.79803e-05
2.80222e-07
-2.46195e-05
1.94958e-05
4.30208e-07
-2.47433e-05
2.06638e-05
5.71181e-07