/*--------------------------------*- C++ -*----------------------------------*\
| =========                 |                                                 |
| \\      /  F ield         | OpenFOAM: The Open Source CFD Toolbox           |
|  \\    /   O peration     | Version:  v2006                                 |
|   \\  /    A nd           | Website:  www.openfoam.com                      |
|    \\/     M anipulation  |                                                 |
\*---------------------------------------------------------------------------*/
FoamFile
{
    version     2.0;
    format      ascii;
    class       volScalarField;
    location    "78";
    object      T;
}
// * * * * * * * * * * * * * * * * * * * * * * * * * * * * * * * * * * * * * //

dimensions      [0 0 0 1 0 0 0];


internalField   nonuniform List<scalar> 
78750
(
135.798
141.292
132.051
125.178
123.869
123.312
120.651
116.91
116.099
116.956
116.773
117.331
120.113
124.856
130.556
136.796
142.961
148.761
154.32
158.406
162.213
163.853
165.47
165.32
166.381
164.833
166.792
161.814
163.419
148.595
143.297
108.76
91.0801
57.5027
91.7822
126.818
94.0916
66.5762
91.3459
124.216
119.19
98.3087
83.6755
89.897
126.085
195.59
276.623
332.872
355.528
359.561
358.041
355.147
352.726
349.417
346.761
342.126
337.967
330.829
325.388
316.304
308.788
297.45
286.748
273.596
254.038
235.727
198.148
162.429
119.703
160.636
197.491
173.315
150.791
307.23
447.498
356.144
292.187
260.566
251.193
260.423
279.433
296.13
305.432
310.134
313.535
316.953
320.658
324.362
328.077
331.76
335.101
337.63
338.953
339.175
338.022
335.586
330.647
323.616
312.79
298.047
278.498
248.729
213.774
184.115
243.922
224.83
314.729
296.024
279.701
301.702
336.827
350.876
353.245
350.118
347.496
347.077
348.131
349.862
351.746
353.326
354.323
354.459
353.435
351.322
348.804
346.439
344.271
342.11
339.776
337.089
333.833
329.649
324.197
316.995
307.908
296.722
284.147
274.203
277.452
330.201
245.813
253.755
272.872
298.502
312.995
322.473
331.986
338.122
340.64
340.894
340.41
339.901
339.6
339.578
339.734
339.865
339.78
339.636
339.632
339.845
340.284
340.92
341.651
342.261
342.467
342.074
341.123
339.788
338.105
335.863
332.551
328.734
328.572
339.387
377.456
153.537
161.18
208.137
254.248
289.643
314.114
328.898
337.417
342.323
345.222
347.053
348.316
349.228
349.849
350.181
350.118
349.461
348.079
346.229
344.4
342.93
341.904
341.356
341.252
341.45
341.741
341.937
341.96
341.874
342.007
343.227
346.83
353.06
363.818
392.079
270.216
335.285
347.416
337.479
333.072
334.189
336.295
337.703
338.616
339.365
340.069
340.72
341.28
341.63
341.915
342.447
343.023
343.352
343.35
343.056
342.569
341.989
341.403
340.899
340.577
340.534
340.811
341.372
342.094
342.554
341.817
340.767
347.074
361.267
390.1
460.224
482.909
432.556
383.386
360.598
352.465
349.759
349.001
349.086
349.541
350.014
349.965
349.329
348.447
347.437
346.387
345.469
344.742
344.106
343.461
342.75
341.954
341.085
340.198
339.389
338.784
338.508
338.722
339.777
342.323
346.535
350.969
356.724
369.623
399.395
274.405
258.84
268.018
287.31
306.59
319.642
328.391
334.822
339.381
342.274
344.072
345.396
346.48
347.193
347.456
347.341
346.984
346.496
345.937
345.323
344.642
343.879
343.022
342.071
341.043
339.955
338.794
337.496
336.045
334.634
334.188
338.377
351.931
368.467
397.868
314.318
343.313
357.828
363.501
363.181
359.404
355.077
351.615
349.39
348.245
347.844
347.879
348.156
348.54
348.8
348.736
348.368
347.833
347.234
346.589
345.866
345.017
344.025
342.958
341.97
341.205
340.725
340.503
340.412
339.898
337.475
336.22
348.408
366.45
395.747
323.441
327.8
328.654
330.081
332.629
336.12
340.006
343.539
346.126
347.644
348.375
348.685
348.834
348.972
349.164
349.305
349.22
348.883
348.38
347.77
347.05
346.18
345.158
344.099
343.244
342.84
343.051
344.022
346.03
349.06
351.061
351.86
359.069
373.684
403.119
316.356
332
338.55
342.545
345.831
348.437
350.083
350.862
351.165
351.271
351.271
351.178
351.008
350.776
350.502
350.232
349.984
349.685
349.288
348.798
348.211
347.48
346.548
345.408
344.165
343.024
342.217
342.02
342.915
345.887
351.752
359.284
368.332
381.758
409.325
319.381
331.261
335.541
338.379
341.422
344.869
347.874
349.841
350.913
351.425
351.625
351.654
351.586
351.453
351.258
350.996
350.693
350.364
349.994
349.569
349.071
348.467
347.705
346.752
345.633
344.455
343.347
342.42
341.846
342.214
345.407
354.547
368.662
384.124
410.296
316.626
329.512
334.833
338.36
342.008
346.187
349.776
351.847
352.704
352.923
352.864
352.688
352.455
352.181
351.863
351.505
351.131
350.767
350.404
350.016
349.575
349.051
348.428
347.742
347.102
346.645
346.444
346.449
346.426
346.027
346.158
352.37
368.325
385.567
411.079
315.107
327.283
332.728
336.392
340.2
344.852
349.312
352.048
353.188
353.469
353.398
353.202
352.956
352.675
352.355
351.993
351.61
351.231
350.856
350.462
350.014
349.472
348.822
348.125
347.576
347.463
348.061
349.69
352.736
356.726
360.008
365.194
376.835
392.264
417.716
315.028
328.409
334.491
338.458
342.2
346.311
350.444
353.222
354.41
354.637
354.44
354.097
353.717
353.328
352.932
352.529
352.13
351.752
351.399
351.051
350.676
350.231
349.676
348.995
348.245
347.633
347.556
348.681
352.197
359.52
369.808
379.453
388.356
400.675
424.077
316.129
330.208
336.35
340.269
343.596
346.795
350.12
353.015
354.737
355.427
355.475
355.198
354.792
354.35
353.897
353.435
352.971
352.521
352.104
351.727
351.372
351.011
350.611
350.139
349.571
348.91
348.219
347.751
348.394
352.22
362.02
377.249
390.315
403.679
425.192
317.089
331.063
336.75
340.225
342.982
345.377
347.79
350.519
353.05
354.804
355.756
356.059
355.914
355.519
355.021
354.498
353.977
353.473
352.994
352.553
352.15
351.776
351.411
351.037
350.645
350.25
349.908
349.577
348.902
348.573
351.904
365.293
385.049
401.611
422.695
315.495
328.619
334.426
338.029
340.958
343.54
345.816
347.914
350.128
352.407
354.329
355.709
356.509
356.769
356.595
356.132
355.531
354.896
354.275
353.69
353.154
352.672
352.237
351.836
351.472
351.184
351.139
351.814
352.859
352.157
351.498
360.406
381.585
399.863
421.174
313.482
327.301
334.222
338.419
341.703
344.6
347.166
349.29
350.904
352.183
353.403
354.663
355.805
356.68
357.219
357.369
357.107
356.521
355.8
355.078
354.395
353.758
353.171
352.629
352.132
351.735
351.652
352.817
356.749
360.865
361.886
367.712
383.566
400.962
423.66
314.785
329.744
337.321
341.894
345.387
348.378
351.023
353.371
355.346
356.778
357.593
357.919
357.971
357.956
358.019
358.156
358.225
358.038
357.487
356.695
355.883
355.121
354.395
353.7
353.05
352.499
352.284
353.28
357.93
367.25
376.154
382.771
392.36
405.646
428.195
319.213
334.956
342.038
346.395
349.96
353.08
355.716
357.779
359.287
360.381
361.201
361.723
361.749
361.272
360.635
360.063
359.507
358.913
358.344
357.668
356.865
356.069
355.332
354.615
353.907
353.27
352.905
353.406
356.536
365.41
380.091
394.222
402.713
413.125
432.078
323.359
338.512
344.694
348.842
352.673
356.226
359.228
361.295
362.262
362.411
362.229
362.054
361.914
361.609
361.162
360.655
359.985
359.022
358.055
357.189
356.485
355.967
355.513
355.053
354.586
354.166
353.919
354.139
355.629
360.401
371.216
388.031
401.948
414.2
431.286
323.344
338.607
344.87
349.384
353.71
357.625
360.469
361.66
361.41
360.583
359.832
359.308
358.912
358.49
357.964
357.474
357.198
357.021
356.793
356.486
356.146
355.808
355.461
355.092
354.696
354.278
353.861
353.512
353.431
354.178
357.354
367.572
389.131
404.962
423.226
323.003
337.899
343.66
347.943
352.178
355.966
358.504
359.504
359.604
359.48
359.224
358.825
358.418
358.086
357.798
357.522
357.255
357.022
356.821
356.632
356.448
356.271
356.101
355.938
355.781
355.624
355.44
355.145
354.557
353.443
352.327
358.113
381.175
398.623
417.897
320.333
333.685
338.686
341.945
345.089
348.469
352.091
355.713
358.936
361.408
362.978
363.63
363.399
362.445
361.124
359.875
358.947
358.319
357.875
357.55
357.313
357.156
357.079
357.091
357.212
357.484
357.981
358.874
360.556
362.562
361.966
366.125
382.973
400.351
422.411
317.51
331.129
337.073
340.636
343.513
346.192
348.922
351.842
354.938
358.059
360.995
363.54
365.461
366.437
366.157
364.681
362.768
361.192
360.091
359.33
358.786
358.398
358.144
358.03
358.095
358.426
359.211
361.027
365.562
374.056
381.327
386.492
396.006
409.193
430.921
317.239
332.353
338.951
342.968
346.351
349.553
352.622
355.479
358.052
360.291
362.112
363.487
364.554
365.507
366.395
366.62
365.448
363.589
362.074
361.065
360.368
359.841
359.432
359.137
358.991
359.089
359.644
361.211
365.351
374.78
388.914
400.849
408.097
417.333
434.284
317.767
333.66
340.392
344.491
348.047
351.448
354.564
357.259
359.556
361.545
363.267
364.654
365.621
366.21
366.569
366.822
366.746
365.631
364.026
362.763
361.93
361.35
360.901
360.536
360.25
360.071
360.092
360.541
362.015
366.045
375.122
389.428
402.136
413.249
429.457
317.419
334.497
341.958
346.541
350.609
354.259
357.077
359.141
360.76
362.149
363.404
364.563
365.606
366.453
367.041
367.384
367.5
367.139
365.911
364.491
363.474
362.827
362.387
362.056
361.791
361.583
361.444
361.428
361.691
362.638
365.417
373.143
389.35
403.933
422.153
320.296
338.551
346.118
351.312
356.538
360.606
363.009
364.304
365.072
365.651
366.171
366.646
367.066
367.424
367.712
367.914
368.007
367.876
367.173
365.893
364.81
364.141
363.734
363.466
363.278
363.136
363.008
362.848
362.624
362.411
362.67
366.738
383.037
398.464
417.328
323.963
341.758
349.528
355.747
362.039
365.338
366.573
367.055
367.316
367.527
367.743
367.971
368.196
368.393
368.545
368.639
368.664
368.57
368.183
367.217
366.051
365.306
364.937
364.779
364.761
364.865
365.086
365.406
365.723
365.762
366.247
371.73
386.446
401.211
420.14
327.679
344.151
352.465
360.14
366.809
368.955
369.207
369.102
368.986
368.925
368.925
368.976
369.059
369.156
369.242
369.3
369.313
369.259
369.069
368.552
367.532
366.53
366.003
365.833
365.912
366.248
366.954
368.331
370.751
373.337
376.136
382.761
393.28
405.998
426.456
327.507
342.909
350.693
358.445
365.936
369.356
370.325
370.48
370.414
370.3
370.198
370.126
370.084
370.065
370.057
370.045
370.016
369.948
369.804
369.487
368.81
367.775
367.003
366.762
366.884
367.356
368.4
370.609
374.818
379.975
384.356
390.713
398.714
409.81
430.676
323.634
338.866
345.096
350.565
358.481
365.835
369.548
370.815
371.14
371.163
371.096
371.009
370.93
370.867
370.817
370.773
370.724
370.659
370.556
370.379
370.037
369.371
368.39
367.61
367.445
367.918
369.268
372.306
378.369
387.424
395.709
401.699
407.874
417.131
434.731
320.162
335.861
342.555
346.812
351.981
360.422
367.376
370.618
371.697
371.967
371.977
371.905
371.81
371.715
371.627
371.549
371.476
371.402
371.315
371.199
371.023
370.721
370.183
369.375
368.636
368.392
368.841
370.475
374.663
383.308
395.598
405.554
411.809
419.376
434.414
320.303
338.113
346.351
351.128
354.812
359.38
365.915
370.354
372.172
372.699
372.783
372.729
372.632
372.526
372.419
372.316
372.215
372.118
372.019
371.913
371.786
371.614
371.349
370.907
370.22
369.492
369.113
369.265
370.347
373.717
381.867
394.507
405.046
414.794
430.075
322.767
341.345
349.126
353.866
357.513
360.485
364.403
369.326
372.308
373.367
373.6
373.576
373.479
373.363
373.245
373.127
373.008
372.889
372.77
372.647
372.515
372.358
372.143
371.82
371.318
370.645
370.138
370.27
371.174
373.163
378.093
389.013
401.359
412.78
428.669
323.972
341.311
348.281
352.666
356.374
359.562
362.466
366.58
371.12
373.45
374.16
374.274
374.217
374.115
374.001
373.885
373.768
373.649
373.529
373.409
373.283
373.143
372.973
372.755
372.468
372.113
371.797
371.844
372.83
375.593
381.218
390.956
401.603
412.544
429.101
322.909
340.217
347.802
352.613
356.73
360.427
363.508
366.246
370.123
373.395
374.644
374.925
374.907
374.816
374.708
374.595
374.479
374.36
374.243
374.129
374.016
373.902
373.783
373.653
373.51
373.364
373.261
373.339
373.984
376.283
382.393
392.625
402.407
412.606
429.205
323.76
342.056
349.94
354.883
359.085
362.929
366.333
369.116
371.48
374.113
375.294
375.547
375.514
375.417
375.308
375.194
375.075
374.951
374.825
374.699
374.576
374.455
374.337
374.22
374.103
373.993
373.913
373.934
374.276
375.709
380.643
391.118
401.546
411.897
428.351
325.902
343.934
351.269
355.949
360.061
363.943
367.62
370.887
373.476
375.379
376.189
376.225
376.108
375.979
375.851
375.721
375.586
375.444
375.3
375.159
375.026
374.903
374.791
374.689
374.6
374.528
374.496
374.56
374.893
376.086
380.177
390.092
401.055
411.825
428.215
326.152
343.746
350.952
355.644
359.829
363.792
367.563
371.081
374.111
376.182
377.055
376.92
376.715
376.547
376.397
376.247
376.09
375.923
375.75
375.581
375.422
375.273
375.136
375.01
374.896
374.801
374.747
374.789
375.093
376.212
380.066
389.682
400.681
411.596
428.085
325.785
343.65
351.115
356.025
360.419
364.498
368.194
371.479
374.348
376.61
377.795
377.646
377.351
377.146
376.985
376.837
376.686
376.528
376.367
376.213
376.071
375.946
375.839
375.751
375.691
375.675
375.744
375.986
376.637
378.383
383.081
392.644
402.472
412.759
429.399
326.408
344.225
351.533
356.358
360.754
364.918
368.685
371.878
374.525
376.716
378.2
378.429
378.018
377.735
377.549
377.402
377.266
377.131
377
376.88
376.779
376.699
376.645
376.62
376.637
376.717
376.91
377.331
378.277
380.573
386.019
395.334
403.894
413.305
430.161
326.96
344.274
351.407
356.17
360.532
364.725
368.678
372.184
375.044
377.21
378.684
379.177
378.703
378.327
378.114
377.973
377.86
377.762
377.679
377.62
377.59
377.592
377.634
377.724
377.886
378.159
378.626
379.464
381.077
384.342
390.483
398.885
406.208
414.89
431.678
327.087
344.115
351.179
355.989
360.426
364.651
368.609
372.231
375.434
378.02
379.604
379.892
379.3
378.847
378.632
378.51
378.428
378.375
378.353
378.37
378.43
378.538
378.701
378.934
379.263
379.736
380.446
381.597
383.641
387.433
393.729
401.217
407.719
415.86
432.497
326.964
343.867
350.82
355.607
360.072
364.345
368.345
371.998
375.286
378.116
380.068
380.541
379.88
379.324
379.121
379.014
378.948
378.92
378.937
379.007
379.136
379.33
379.599
379.967
380.473
381.191
382.261
383.948
386.722
391.194
397.419
403.923
409.794
417.653
433.81
326.602
343.429
350.341
355.114
359.568
363.823
367.786
371.358
374.545
377.41
379.757
380.892
380.563
379.935
379.759
379.693
379.678
379.713
379.803
379.956
380.179
380.482
380.881
381.406
382.106
383.063
384.429
386.481
389.662
394.391
400.338
406.185
411.641
419.216
434.815
326.793
343.308
349.986
354.567
358.816
362.886
366.723
370.22
373.302
375.996
378.409
380.393
381.199
380.795
380.318
380.133
380.069
380.085
380.18
380.359
380.626
380.993
381.478
382.12
382.985
384.19
385.928
388.499
392.26
397.327
403.053
408.406
413.528
420.818
435.649
326.558
342.848
349.343
353.72
357.723
361.539
365.16
368.525
371.57
374.26
376.619
378.751
380.617
381.565
381.462
381.167
381.034
381.061
381.213
381.475
381.841
382.307
382.893
383.647
384.649
386.027
387.992
390.855
394.906
400.057
405.531
410.555
415.459
422.502
436.501
325.985
342.257
348.791
353.108
356.972
360.603
364.019
367.187
370.077
372.67
374.96
376.959
378.757
380.472
381.668
381.798
381.506
381.193
381.087
381.224
381.532
382.011
382.674
383.535
384.662
386.195
388.357
391.462
395.791
401.168
406.695
411.634
416.35
423.011
436.402
325.872
342.394
349.02
353.364
357.223
360.823
364.164
367.199
369.907
372.321
374.492
376.451
378.168
379.603
380.867
381.982
382.446
382.302
381.986
381.9
382.348
383.064
383.844
384.766
385.944
387.527
389.758
392.957
397.348
402.65
407.992
412.774
417.384
423.876
436.708
325.691
342.283
349.097
353.553
357.479
361.135
364.53
367.592
370.244
372.466
374.308
375.873
377.295
378.692
380.063
381.259
382.202
382.788
382.75
382.121
381.576
381.821
382.801
383.946
385.233
386.854
389.07
392.232
396.634
402.054
407.559
412.439
416.974
423.171
435.883
326.169
342.979
349.903
354.451
358.451
362.153
365.571
368.647
371.334
373.625
375.545
377.122
378.391
379.42
380.337
381.294
382.326
383.217
383.76
383.817
382.912
381.967
382.269
383.648
385.322
387.186
389.493
392.605
396.841
402.063
407.452
412.311
416.86
423.058
435.747
326.632
343.552
350.613
355.286
359.412
363.242
366.768
369.895
372.542
374.697
376.423
377.815
378.961
379.915
380.701
381.348
381.923
382.526
383.186
383.71
383.833
382.894
382.201
382.957
384.634
386.589
388.947
392.097
396.338
401.506
406.849
411.729
416.307
422.527
435.402
327.772
344.791
351.816
356.512
360.711
364.632
368.234
371.404
374.076
376.258
378.004
379.386
380.482
381.367
382.103
382.731
383.268
383.719
384.097
384.397
384.49
384.011
382.853
382.975
384.831
387.3
389.947
393.087
397.192
402.209
407.38
412.114
416.648
422.937
435.832
328.308
345.315
352.343
357.105
361.447
365.563
369.339
372.591
375.233
377.31
378.929
380.197
381.197
381.989
382.619
383.122
383.531
383.876
384.182
384.472
384.738
384.82
384.095
383.182
384.092
386.694
389.9
393.507
397.61
402.363
407.407
412.159
416.749
423.145
436.216
328.751
345.846
352.918
357.765
362.268
366.593
370.549
373.894
376.556
378.617
380.209
381.451
382.434
383.22
383.851
384.357
384.755
385.06
385.285
385.443
385.529
385.48
385.022
383.899
384.04
386.577
390.363
394.505
399.297
404.282
408.97
413.329
417.76
424.147
436.88
328.627
345.819
352.949
357.903
362.628
367.262
371.491
374.975
377.648
379.644
381.142
382.289
383.184
383.895
384.464
384.919
385.279
385.561
385.776
385.928
386.02
386.034
385.823
384.958
384.306
385.649
389.819
394.845
399.55
404.657
409.788
414.375
418.786
425.012
437.352
328.346
345.672
352.893
357.939
362.849
367.746
372.2
375.816
378.555
380.59
382.116
383.284
384.198
384.922
385.5
385.961
386.323
386.599
386.801
386.932
386.993
386.961
386.738
386.077
385.16
385.852
388.601
394.464
401.378
406.866
411.471
415.744
420.107
426.302
437.998
327.706
345.358
352.779
358.008
363.217
368.458
373.104
376.718
379.357
381.275
382.706
383.81
384.688
385.399
385.983
386.463
386.855
387.167
387.408
387.58
387.68
387.701
387.602
387.24
386.355
386.282
388.68
392.176
398.321
405.802
411.859
416.485
420.745
426.63
437.835
327.663
345.608
353.278
358.764
364.379
370.047
374.872
378.433
380.918
382.666
383.944
384.92
385.695
386.328
386.857
387.303
387.68
387.997
388.256
388.456
388.591
388.644
388.587
388.354
387.786
386.977
388.578
394.086
399.735
405.896
412.08
417.19
421.672
427.598
438.59
327.996
346.131
353.97
359.774
366
372.235
377.196
380.572
382.777
384.263
385.323
386.124
386.759
387.282
387.725
388.109
388.444
388.739
388.998
389.218
389.393
389.51
389.544
389.467
389.233
388.75
388.21
390.204
397.939
405.801
412.162
417.302
421.92
427.994
438.973
327.992
346.337
354.42
360.581
367.454
374.25
379.351
382.609
384.633
385.952
386.87
387.552
388.085
388.521
388.889
389.209
389.494
389.751
389.983
390.188
390.359
390.488
390.565
390.576
390.494
390.268
389.802
389.274
392.785
402.153
410.812
416.882
421.667
427.628
438.465
328.401
347.007
355.249
361.74
369.244
376.525
381.658
384.709
386.501
387.628
388.398
388.963
389.402
389.76
390.066
390.337
390.584
390.811
391.016
391.202
391.37
391.514
391.611
391.622
391.507
391.241
390.794
390.16
390.728
398.005
408.019
415.559
420.901
426.883
437.673
328.334
347.213
355.556
362.171
369.924
377.512
382.828
385.931
387.721
388.829
389.575
390.112
390.521
390.851
391.133
391.393
391.645
391.893
392.129
392.325
392.457
392.527
392.539
392.487
392.355
392.116
391.734
391.189
391.128
396.126
406.141
414.619
420.305
426.44
437.575
328.812
347.933
356.255
362.795
370.44
378.143
383.669
386.873
388.68
389.778
390.507
391.028
391.426
391.761
392.076
392.382
392.624
392.764
392.856
392.936
393.013
393.082
393.138
393.168
393.159
393.098
392.977
392.87
393.511
398.224
407.669
415.651
421.08
427.279
438.574
329.088
348.335
356.614
362.952
370.207
377.846
383.72
387.25
389.239
390.428
391.209
391.764
392.193
392.56
392.905
393.204
393.359
393.379
393.392
393.434
393.5
393.584
393.681
393.79
393.91
394.062
394.315
394.932
396.851
402.247
410.777
417.389
422.29
428.441
439.538
329.792
349.193
357.442
363.601
370.407
377.678
383.661
387.456
389.624
390.91
391.745
392.339
392.798
393.194
393.579
393.95
394.161
394.122
394.053
394.047
394.092
394.182
394.32
394.513
394.783
395.189
395.898
397.367
400.598
406.687
414.111
419.428
423.833
429.861
440.353
330.4
349.967
358.215
364.222
370.61
377.426
383.386
387.445
389.842
391.259
392.169
392.81
393.305
393.732
394.16
394.636
395.052
395.096
394.918
394.821
394.803
394.85
394.972
395.197
395.572
396.198
397.302
399.43
403.589
410.142
416.622
421.102
425.133
430.936
440.846
331.351
351.108
359.387
365.351
371.483
377.801
383.425
387.51
390.05
391.573
392.543
393.219
393.739
394.185
394.632
395.171
395.845
396.321
396.188
395.982
395.888
395.87
395.936
396.128
396.538
397.375
399.045
402.137
407.136
413.437
418.732
422.597
426.449
432.212
441.706
332.158
352.121
360.571
366.703
372.88
378.86
383.961
387.774
390.289
391.857
392.865
393.565
394.098
394.548
394.984
395.503
396.251
397.253
397.863
397.673
397.503
397.475
397.576
397.861
398.422
399.484
401.585
405.422
410.863
416.363
420.569
423.966
427.749
433.616
442.75
333.349
353.379
362.115
368.721
375.366
381.228
385.649
388.786
390.928
392.342
393.288
393.957
394.465
394.888
395.281
395.715
396.318
397.31
398.729
399.716
399.675
399.544
399.639
400.06
401.015
402.646
405.087
408.729
413.47
418.013
421.638
424.878
428.777
434.953
443.709
334.161
354.202
363.308
370.581
377.958
383.952
387.885
390.346
391.966
393.079
393.868
394.45
394.901
395.273
395.608
395.95
396.372
397.03
398.217
400.058
401.722
402.217
402.183
402.417
403.297
405.297
408.48
412.284
416.189
419.772
422.94
426.043
429.891
435.95
444.068
334.513
354.465
363.788
371.542
379.494
385.812
389.705
391.893
393.189
394.039
394.647
395.108
395.473
395.775
396.041
396.297
396.581
396.963
397.607
398.853
400.976
403.423
405.011
405.469
405.851
407.016
409.63
413.488
417.373
420.65
423.557
426.521
430.262
436.176
444.056
333.428
353.326
362.52
370.099
378.064
384.985
389.671
392.395
393.929
394.839
395.427
395.84
396.15
396.397
396.603
396.79
396.978
397.2
397.518
398.084
399.239
401.423
404.505
407.492
409.359
410.284
411.573
414.071
417.532
421.026
424.156
427.166
430.78
436.418
443.974
331.514
351.272
360.081
366.903
374.131
381.37
387.31
391.311
393.71
395.107
395.944
396.472
396.826
397.076
397.263
397.413
397.542
397.672
397.83
398.065
398.498
399.421
401.353
404.618
408.712
412.511
414.817
416.295
418.262
420.806
423.665
426.693
430.212
435.478
443.13
329.658
349.641
358.547
364.98
371.315
377.782
383.943
388.972
392.464
394.653
395.983
396.807
397.334
397.686
397.927
398.098
398.224
398.324
398.414
398.518
398.673
398.965
399.603
401.05
403.919
408.387
413.737
418.037
420.379
422.693
425.256
428.012
431.182
435.805
442.744
329.883
350.593
360.247
367.24
373.575
378.99
383.713
388.004
391.58
394.167
395.871
396.967
397.686
398.17
398.506
398.743
398.913
399.035
399.125
399.196
399.265
399.36
399.535
399.921
400.846
402.953
407.006
413.146
418.487
421.107
423.519
426.259
429.358
433.726
441.43
332.486
353.854
364.45
372.723
379.986
385.011
388.236
390.723
392.992
394.95
396.435
397.481
398.207
398.717
399.087
399.369
399.592
399.763
399.892
399.988
400.063
400.132
400.217
400.359
400.654
401.356
403.122
407.293
414.796
420.096
423.075
425.769
428.924
433.703
442.208
336.374
357.722
369.194
379.015
386.975
391.496
393.726
394.997
396.013
396.978
397.839
398.533
399.066
399.473
399.803
400.082
400.315
400.503
400.65
400.761
400.842
400.903
400.959
401.031
401.165
401.469
402.271
404.628
410.969
420.387
424.686
427.584
430.678
435.469
443.449
339.521
360.741
373.061
384.264
391.989
395.641
397.24
398.045
398.574
399.023
399.443
399.826
400.163
400.455
400.716
400.954
401.168
401.354
401.51
401.636
401.734
401.808
401.865
401.923
402.008
402.184
402.631
403.969
408.167
418.07
427.681
431.493
434.231
438.105
444.351
340.929
362.213
374.863
386.585
393.953
397.276
398.783
399.571
400.058
400.414
400.711
400.977
401.221
401.446
401.655
401.853
402.038
402.209
402.362
402.494
402.605
402.696
402.771
402.837
402.909
403.02
403.253
403.86
405.754
411.586
423.054
431.05
435.135
438.962
444.426
340.923
362.266
374.736
386.456
394.197
397.853
399.569
400.483
401.042
401.427
401.722
401.968
402.185
402.385
402.572
402.751
402.921
403.082
403.231
403.365
403.483
403.582
403.661
403.722
403.767
403.807
403.868
404.036
404.614
406.882
414.745
426.24
433.19
438.379
444.153
340.619
362.02
374.343
386.026
394.203
398.198
400.099
401.125
401.758
402.194
402.522
402.786
403.012
403.214
403.404
403.588
403.768
403.942
404.109
404.27
404.423
404.569
404.709
404.844
404.977
405.112
405.262
405.464
405.852
407.087
412.44
424.39
432.643
438.784
444.989
340.757
362.029
374.505
386.609
394.988
398.973
400.834
401.836
402.464
402.905
403.24
403.51
403.74
403.946
404.14
404.329
404.512
404.69
404.861
405.024
405.181
405.333
405.482
405.632
405.787
405.953
406.148
406.415
406.923
408.449
414.106
425.885
433.35
439.204
445.682
339.518
360.333
372.922
385.867
395.278
399.647
401.563
402.544
403.148
403.576
403.908
404.181
404.417
404.634
404.845
405.052
405.256
405.457
405.657
405.854
406.051
406.252
406.465
406.697
406.957
407.265
407.668
408.285
409.473
412.33
419.193
429.384
435.454
440.624
446.459
335.022
355.265
367.303
380.242
392.316
398.93
401.799
403.089
403.776
404.217
404.545
404.811
405.041
405.252
405.458
405.662
405.865
406.068
406.272
406.478
406.689
406.913
407.163
407.452
407.804
408.266
408.948
410.111
412.309
416.545
423.943
431.849
436.868
441.548
446.429
329.732
349.781
360.362
370.795
384.204
394.853
400.405
402.88
404.042
404.675
405.083
405.386
405.633
405.855
406.069
406.281
406.493
406.706
406.923
407.144
407.378
407.632
407.919
408.256
408.683
409.279
410.229
411.953
415.171
420.46
427.481
433.292
437.443
441.81
446.108
328.754
350.069
359.952
367.451
377.067
388.822
397.405
401.78
403.819
404.847
405.441
405.83
406.118
406.361
406.587
406.804
407.019
407.234
407.453
407.682
407.931
408.206
408.52
408.896
409.379
410.065
411.174
413.204
416.994
422.912
429.389
433.898
437.354
441.333
445.489
334.618
358.387
369.396
376.441
381.316
388.079
395.982
401.06
403.637
404.968
405.728
406.211
406.567
406.865
407.126
407.365
407.591
407.81
408.03
408.262
408.51
408.78
409.087
409.455
409.931
410.604
411.674
413.597
417.211
423.041
429.288
433.401
436.525
440.218
444.724
344.526
368.628
381.468
390.54
393.55
395.201
399.121
402.445
404.371
405.481
406.177
406.657
407.035
407.361
407.648
407.908
408.149
408.379
408.613
408.857
409.113
409.385
409.682
410.028
410.464
411.067
412.002
413.642
416.722
421.93
427.969
432.187
435.281
438.876
444.025
350.181
373.792
388.625
400.782
402.832
402.745
403.722
404.896
405.793
406.452
406.954
407.356
407.695
407.995
408.268
408.524
408.771
409.016
409.267
409.528
409.8
410.088
410.399
410.751
411.177
411.741
412.579
413.991
416.592
421.102
426.733
431.033
434.209
437.918
443.772
344.961
369.724
386.279
401.014
404.985
405.787
406.175
406.604
407.047
407.457
407.821
408.146
408.439
408.711
408.969
409.22
409.472
409.73
409.998
410.28
410.575
410.885
411.216
411.585
412.028
412.608
413.453
414.833
417.274
421.344
426.39
430.441
433.603
437.467
443.896
335.804
357.365
371.662
387.871
399.386
404.7
406.693
407.494
407.936
408.272
408.572
408.854
409.123
409.385
409.643
409.904
410.176
410.464
410.776
411.114
411.479
411.868
412.281
412.732
413.259
413.941
414.925
416.489
419.069
422.934
427.311
430.891
433.965
437.99
444.514
329.732
350.232
360.532
370.01
384.233
396.866
403.702
406.663
407.962
408.634
409.065
409.397
409.687
409.958
410.225
410.5
410.794
411.116
411.479
411.89
412.354
412.869
413.426
414.028
414.71
415.559
416.736
418.505
421.166
424.706
428.384
431.507
434.479
438.612
445.042
337.642
363.223
374.982
380.12
384.724
394.46
402.226
406.11
407.918
408.858
409.421
409.821
410.153
410.458
410.754
411.05
411.361
411.715
412.132
412.628
413.214
413.897
414.666
415.503
416.43
417.533
418.974
420.959
423.621
426.763
429.855
432.631
435.516
439.678
445.682
351.671
383.273
399.505
404.131
401.788
403.705
406.398
408.032
409.03
409.681
410.136
410.482
410.777
411.054
411.332
411.618
411.928
412.291
412.734
413.287
413.979
414.834
415.849
416.982
418.203
419.565
421.214
423.299
425.836
428.6
431.285
433.825
436.611
440.671
446.101
351.081
390.517
410.052
413.898
411.488
410.42
410.155
410.294
410.563
410.846
411.111
411.355
411.586
411.814
412.05
412.307
412.599
412.95
413.386
413.944
414.674
415.633
416.858
418.319
419.921
421.611
423.453
425.54
427.87
430.3
432.688
435.035
437.677
441.518
446.421
340.527
369.611
389.297
405.011
409.903
411.026
411.245
411.345
411.488
411.67
411.868
412.071
412.275
412.483
412.702
412.943
413.22
413.55
413.96
414.487
415.185
416.132
417.41
419.048
420.952
422.971
425.039
427.184
429.405
431.648
433.866
436.092
438.62
442.264
446.714
334.526
354.305
368.665
389.996
404.746
410.262
411.879
412.326
412.442
412.509
412.612
412.757
412.931
413.123
413.33
413.56
413.822
414.133
414.515
415.002
415.647
416.538
417.79
419.507
421.669
424.06
426.445
428.742
430.965
433.131
435.257
437.389
439.783
443.144
447.014
340.406
366.673
381.853
393.398
403.936
409.855
411.882
412.607
412.926
413.104
413.241
413.382
413.542
413.721
413.916
414.133
414.379
414.667
415.013
415.443
415.999
416.753
417.824
419.367
421.489
424.074
426.771
429.302
431.627
433.807
435.909
437.996
440.301
443.484
447.116
351.283
381.573
402.111
415.912
414.444
414.051
413.98
413.98
414.008
414.056
414.126
414.223
414.348
414.497
414.669
414.866
415.095
415.367
415.696
416.104
416.623
417.31
418.262
419.635
421.6
424.2
427.152
430.007
432.548
434.822
436.945
439.011
441.25
444.263
447.468
347.991
376.466
396.462
417.839
417.924
416.406
415.669
415.282
415.087
415.008
415.009
415.066
415.164
415.294
415.448
415.627
415.834
416.077
416.371
416.731
417.188
417.787
418.61
419.792
421.518
423.929
426.896
429.963
432.745
435.184
437.386
439.466
441.662
444.552
447.532
346.235
374.34
392.308
412.924
419.707
418.541
417.386
416.694
416.28
416.047
415.941
415.927
415.983
416.093
416.243
416.425
416.638
416.887
417.181
417.534
417.971
418.534
419.292