/*--------------------------------*- C++ -*----------------------------------*\
| =========                 |                                                 |
| \\      /  F ield         | OpenFOAM: The Open Source CFD Toolbox           |
|  \\    /   O peration     | Version:  v2012                                 |
|   \\  /    A nd           | Website:  www.openfoam.com                      |
|    \\/     M anipulation  |                                                 |
\*---------------------------------------------------------------------------*/
FoamFile
{
    version     2.0;
    format      ascii;
    class       volScalarField;
    location    "600/heater";
    object      T;
}
// * * * * * * * * * * * * * * * * * * * * * * * * * * * * * * * * * * * * * //

dimensions      [0 0 0 1 0 0 0];


internalField   nonuniform List<scalar> 
80
(
430.7839
431.2244
431.2915
430.9851
431.8567
432.3961
432.4634
432.0594
434.2253
435.0258
435.0924
434.4258
438.3234
439.6934
439.757
438.5176
494.981
494.9945
494.995
494.981
485.0445
485.0613
485.063
485.0461
475.2128
475.2409
475.2456
475.2209
465.4712
465.5763
465.5876
465.4955
455.7199
456.2024
456.2281
455.7839
445.4233
447.6713
447.7224
445.588
494.9799
494.9938
494.9944
494.9806
485.0417
485.0597
485.0619
485.0455
475.2091
475.2392
475.2446
475.2209
465.4675
465.5751
465.5873
465.4964
455.718
456.2032
456.2295
455.7866
445.4296
447.6777
447.7287
445.5937
438.3405
439.7101
439.7726
438.5314
434.2504
435.0502
435.1156
434.4478
431.8895
432.4281
432.4947
432.0894
430.8176
431.2591
431.3274
431.0224
)
;

boundaryField
{
    minY
    {
        type            fixedValue;
        value           uniform 500;
    }
    minZ
    {
        type            zeroGradient;
    }
    maxZ
    {
        type            zeroGradient;
    }
    heater_to_topAir
    {
        type            compressible::turbulentTemperatureRadCoupledMixed;
        refValue        nonuniform List<scalar> 
40
(
351.4202
353.7752
355.885
357.707
347.3003
348.9542
350.2369
351.0989
347.7849
349.5969
351.0388
352.0268
349.7472
352.3283
354.7347
356.8998
350.6974
353.6469
356.4216
358.945
350.6992
353.6488
356.4237
358.9472
349.7528
352.3341
354.7407
356.9059
347.7933
349.6051
351.0464
352.0334
347.3126
348.9666
350.2491
351.1106
351.4367
353.7923
355.9027
357.7251
)
;
        refGradient     nonuniform List<scalar> 
40
(
-1.738909
-1.738909
-1.718827
-1.718827
-1.83199
-1.83199
-1.821222
-1.821222
-1.913816
-1.913816
-1.906915
-1.906915
-2.026868
-2.026868
-2.021813
-2.021813
-2.21599
-2.21599
-2.211358
-2.211358
-2.216134
-2.216134
-2.21148
-2.21148
-2.027231
-2.027231
-2.022079
-2.022079
-1.914321
-1.914321
-1.907303
-1.907303
-1.832634
-1.832634
-1.821737
-1.821737
-1.739553
-1.739553
-1.719431
-1.719431
)
;
        valueFraction   nonuniform List<scalar> 
40
(
0.0003213253
0.0003213253
0.0003213253
0.0003213253
0.0003213253
0.0003213253
0.0003213253
0.0003213253
0.0003213253
0.0003213253
0.0003213253
0.0003213253
0.0003213253
0.0003213253
0.0003213253
0.0003213253
0.0003213253
0.0003213253
0.0003213253
0.0003213253
0.0003213253
0.0003213253
0.0003213253
0.0003213253
0.0003213253
0.0003213253
0.0003213253
0.0003213253
0.0003213253
0.0003213253
0.0003213253
0.0003213253
0.0003213253
0.0003213253
0.0003213253
0.0003213253
0.0003213253
0.0003213253
0.0003213253
0.0003213253
)
;
        value           nonuniform List<scalar> 
40
(
430.6521
431.0936
431.1614
430.8551
431.7243
432.2647
432.3324
431.9281
434.0953
434.8972
434.9641
434.297
438.1981
439.5703
439.6346
438.3944
445.3054
447.5566
447.6086
445.4725
445.3116
447.563
447.6149
445.4783
438.2153
439.5871
439.6503
438.4083
434.1204
434.9216
434.9875
434.3191
431.7571
432.2967
432.3638
431.9581
430.6858
431.1285
431.1974
430.8925
)
;
        Tnbr            T;
        qrNbr           qr;
        qr              none;
        thermalInertia  false;
        thicknessLayers List<scalar> 0();
        kappaLayers     List<scalar> 0();
        kappaMethod     solidThermo;
        kappa           none;
        alphaAni        none;
        alpha           none;
    }
    heater_to_rightSolid
    {
        type            compressible::turbulentTemperatureCoupledBaffleMixed;
        refValue        nonuniform List<scalar> 10(430.3377 431.2348 433.1438 436.0995 439.6742 439.6792 436.1133 433.1659 431.2641 430.3675);
        refGradient     uniform 0;
        valueFraction   nonuniform List<scalar> 10(0.4999997 0.4999997 0.4999997 0.4999997 0.4999997 0.4999997 0.4999997 0.4999997 0.4999997 0.4999997);
        value           nonuniform List<scalar> 10(430.6116 431.5981 433.7374 437.2641 442.5917 442.5971 437.2779 433.7595 431.6277 430.6452);
        Tnbr            T;
        thicknessLayers List<scalar> 0();
        kappaLayers     List<scalar> 0();
        kappaMethod     solidThermo;
        kappa           none;
        alphaAni        none;
        alpha           none;
        field           T;
    }
    heater_to_leftSolid
    {
        type            compressible::turbulentTemperatureCoupledBaffleMixed;
        refValue        nonuniform List<scalar> 10(429.9937 430.8979 432.8097 435.7687 439.3546 439.3602 435.7844 432.8346 430.9321 430.0361);
        refGradient     uniform 0;
        valueFraction   nonuniform List<scalar> 10(0.4999997 0.4999997 0.4999997 0.4999997 0.4999997 0.4999997 0.4999997 0.4999997 0.4999997 0.4999997);
        value           nonuniform List<scalar> 10(430.3391 431.3283 433.4702 437.0017 442.3496 442.3555 437.0181 433.4952 431.3619 430.3772);
        Tnbr            T;
        thicknessLayers List<scalar> 0();
        kappaLayers     List<scalar> 0();
        kappaMethod     solidThermo;
        kappa           none;
        alphaAni        none;
        alpha           none;
        field           T;
    }
    heater_to_bottomAir
    {
        type            compressible::turbulentTemperatureRadCoupledMixed;
        refValue        nonuniform List<scalar> 
92
(
433.6974
433.8359
433.8448
433.7258
434.9564
435.0025
434.9749
434.9481
436.2838
436.5007
436.53
436.2822
431.814
435.4144
436.453
432.9795
432.5993
436.3905
437.4184
433.7382
434.4952
437.8179
438.6555
435.3511
437.1342
439.1557
439.7231
437.5644
439.2678
439.2678
440.1551
440.1551
440.4712
440.4712
439.4266
439.4266
438.3701
438.8665
439.6318
440.0241
441.0576
441.4212
442.9375
443.2477
443.6981
443.974
438.3826
431.803
435.4029
436.4879
438.92
433.0281
439.6372
432.5851
436.3706
437.4409
440.0768
433.7757
441.062
434.4865
437.8013
438.6712
441.4582
435.3776
442.9405
437.1306
439.1444
439.7334
443.2732
437.575
443.7011
439.2706
440.1524
440.4788
443.9915
439.4303
439.2706
440.1524
440.4788
439.4303
436.2884
436.5097
436.5424
436.2957
434.9603
435.0157
434.9916
434.9701
433.7039
433.8519
433.8678
433.7583
)
;
        refGradient     nonuniform List<scalar> 
92
(
-0.05663974
-0.05663974
-0.05996228
-0.05996228
-0.05663974
-0.05663974
-0.05996228
-0.05996228
-0.185634
-0.185634
-0.1843209
-0.1843209
-1.707968
-1.707968
-1.710092
-1.710092
-1.707968
-1.707968
-1.710092
-1.710092
-1.080616
-1.080616
-1.080196
-1.080196
-1.080616
-1.080616
-1.080196
-1.080196
-0.185634
-0.6614515
-0.185634
-0.6614515
-0.1843209
-0.6614515
-0.1843209
-0.6614515
-1.739448
-1.722473
-1.739448
-1.722473
-0.9760614
-0.9612691
-0.9760614
-0.9612691
-0.9760614
-0.9612691
-1.739448
-1.705974
-1.705974
-1.704776
-1.722473
-1.704776
-1.739448
-1.705974
-1.705974
-1.704776
-1.722473
-1.704776
-0.9760614
-1.07824
-1.07824
-1.078377
-0.9612691
-1.078377
-0.9760614
-1.07824
-1.07824
-1.078377
-0.9612691
-1.078377
-0.9760614
-0.6591714
-0.6591714
-0.6591714
-0.9612691
-0.6591714
-0.1825933
-0.1825933
-0.1838078
-0.1838078
-0.1825933
-0.1825933
-0.1838078
-0.1838078
-0.05642511
-0.05642511
-0.05945523
-0.05945523
-0.05642511
-0.05642511
-0.05945523
-0.05945523
)
;
        valueFraction   nonuniform List<scalar> 
92
(
0.0003213253
0.0003213253
0.0003213253
0.0003213253
0.0003213253
0.0003213253
0.0003213253
0.0003213253
0.0003213253
0.0003213253
0.0003213253
0.0003213253
0.0003213253
0.0003213253
0.0003213253
0.0003213253
0.0003213253
0.0003213253
0.0003213253
0.0003213253
0.0003213253
0.0003213253
0.0003213253
0.0003213253
0.0003213253
0.0003213253
0.0003213253
0.0003213253
0.0003213253
0.0003213253
0.0003213253
0.0003213253
0.0003213253
0.0003213253
0.0003213253
0.0003213253
0.000321325
0.000321325
0.000321325
0.000321325
0.000321325
0.000321325
0.000321325
0.000321325
0.000321325
0.000321325
0.000321325
0.0003213253
0.0003213253
0.0003213253
0.000321325
0.0003213253
0.000321325
0.0003213253
0.0003213253
0.0003213253
0.000321325
0.0003213253
0.000321325
0.0003213253
0.0003213253
0.0003213253
0.000321325
0.0003213253
0.000321325
0.0003213253
0.0003213253
0.0003213253
0.000321325
0.0003213253
0.000321325
0.0003213253
0.0003213253
0.0003213253
0.000321325
0.0003213253
0.0003213253
0.0003213253
0.0003213253
0.0003213253
0.0003213253
0.0003213253
0.0003213253
0.0003213253
0.0003213253
0.0003213253
0.0003213253
0.0003213253
0.0003213253
0.0003213253
0.0003213253
0.0003213253
)
;
        value           nonuniform List<scalar> 
92
(
430.6852
431.1261
431.1931
430.8862
431.7596
432.2994
432.3667
431.9621
434.1307
434.932
434.9985
434.3309
494.9448
494.9595
494.9603
494.9452
484.9973
485.0154
485.0174
484.9993
475.1582
475.1874
475.1924
475.1666
465.4065
465.5124
465.5239
465.4309
438.2342
455.6472
439.6059
456.1305
439.6695
456.1562
438.4283
455.7112
494.9497
494.9499
485.0023
485.0041
475.1625
475.1707
465.4106
465.4349
455.6487
455.7127
494.9486
494.9437
494.9588
494.9597
494.9495
494.9448
484.9995
484.9945
485.0138
485.0163
485.0035
484.9987
475.1588
475.1546
475.1857
475.1914
475.1707
475.1666
465.4068
465.4028
465.5112
465.5235
465.4359
465.4319
455.6468
455.6453
456.1312
456.1577
455.7154
455.7139
438.2514
439.6227
439.6852
438.4422
434.1558
434.9564
435.0218
434.353
431.7924
432.3315
432.398
431.9921
430.719
431.1609
431.2291
430.9236
)
;
        Tnbr            T;
        qrNbr           qr;
        qr              none;
        thermalInertia  false;
        thicknessLayers List<scalar> 0();
        kappaLayers     List<scalar> 0();
        kappaMethod     solidThermo;
        kappa           none;
        alphaAni        none;
        alpha           none;
    }
}


// ************************************************************************* //
