/*--------------------------------*- C++ -*----------------------------------*\
| =========                 |                                                 |
| \\      /  F ield         | OpenFOAM: The Open Source CFD Toolbox           |
|  \\    /   O peration     | Version:  v2012                                 |
|   \\  /    A nd           | Website:  www.openfoam.com                      |
|    \\/     M anipulation  |                                                 |
\*---------------------------------------------------------------------------*/
FoamFile
{
    version     2.0;
    format      ascii;
    class       surfaceScalarField;
    location    "69";
    object      phi;
}
// * * * * * * * * * * * * * * * * * * * * * * * * * * * * * * * * * * * * * //

dimensions      [1 0 -1 0 0 0 0];
oriented        oriented;


internalField   nonuniform List<scalar> 
228225
(
-1.81076e-09
9.47186e-10
6.09437e-10
-5.41964e-09
5.9863e-09
-2.38152e-09
-1.16928e-08
9.34191e-09
-3.06443e-09
-2.07096e-08
1.22828e-08
-3.26658e-09
-3.21189e-08
1.4844e-08
-3.43568e-09
-4.54079e-08
1.69775e-08
-3.68528e-09
-6.00736e-08
1.86883e-08
-4.02505e-09
-7.55801e-08
1.99662e-08
-4.45585e-09
-9.14771e-08
2.08463e-08
-4.95494e-09
-1.07294e-07
2.13368e-08
-5.51592e-09
-1.2266e-07
2.14847e-08
-6.11753e-09
-1.3721e-07
2.13061e-08
-6.75649e-09
-1.50642e-07
2.08452e-08
-7.41526e-09
-1.62671e-07
2.01219e-08
-8.09245e-09
-1.7308e-07
1.91845e-08
-8.77406e-09
-1.81674e-07
1.8047e-08
-9.45327e-09
-1.88309e-07
1.67539e-08
-1.01216e-08
-1.9285e-07
1.53209e-08
-1.07765e-08
-1.95225e-07
1.37773e-08
-1.14047e-08
-1.95365e-07
1.21389e-08
-1.1996e-08
-1.93264e-07
1.04402e-08
-1.25426e-08
-1.8892e-07
8.69421e-09
-1.3041e-08
-1.82365e-07
6.92976e-09
-1.34774e-08
-1.7368e-07
5.15885e-09
-1.38479e-08
-1.6295e-07
3.40791e-09
-1.41418e-08
-1.50279e-07
1.69125e-09
-1.43568e-08
-1.35843e-07
4.76829e-11
-1.44855e-08
-1.19776e-07
-1.5383e-09
-1.45282e-08
-1.02301e-07
-2.99659e-09
-1.44795e-08
-8.36593e-08
-4.30429e-09
-1.43372e-08
-6.41719e-08
-5.40784e-09
-1.40792e-08
-4.42979e-08
-6.2364e-09
-1.36369e-08
-2.48825e-08
-6.64862e-09
-1.2769e-08
-7.77563e-09
-6.42032e-09
-1.0685e-08
-4.25917e-09
-3.51644e-09
-5.01905e-09
1.95658e-08
-1.36011e-08
-1.90926e-08
3.52427e-08
-1.5181e-08
-3.63793e-08
4.26015e-08
-1.59731e-08
-5.53267e-08
4.80453e-08
-1.68154e-08
-7.47968e-08
5.18769e-08
-1.75617e-08
-9.40103e-08
5.43937e-08
-1.82046e-08
-1.12358e-07
5.58256e-08
-1.87885e-08
-1.29432e-07
5.63675e-08
-1.93285e-08
-1.44915e-07
5.6169e-08
-1.98382e-08
-1.58618e-07
5.53556e-08
-2.03164e-08
-1.70391e-07
5.40285e-08
-2.07707e-08
-1.80165e-07
5.22768e-08
-2.11965e-08
-1.8789e-07
5.01694e-08
-2.15993e-08
-1.93571e-07
4.77743e-08
-2.1973e-08
-1.97213e-07
4.51496e-08
-2.23214e-08
-1.98876e-07
4.2347e-08
-2.26384e-08
-1.98609e-07
3.94144e-08
-2.29268e-08
-1.96502e-07
3.6393e-08
-2.31808e-08
-1.92633e-07
3.33136e-08
-2.34041e-08
-1.87119e-07
3.02164e-08
-2.35911e-08
-1.80069e-07
2.7134e-08
-2.37429e-08
-1.71619e-07
2.40953e-08
-2.38543e-08
-1.61887e-07
2.11255e-08
-2.3926e-08
-1.51024e-07
1.82478e-08
-2.39531e-08
-1.39161e-07
1.54819e-08
-2.39364e-08
-1.26448e-07
1.28463e-08
-2.38671e-08
-1.13017e-07
1.03569e-08
-2.37411e-08
-9.90373e-08
8.02862e-09
-2.35463e-08
-8.46405e-08
5.87536e-09
-2.32697e-08
-6.99679e-08
3.91177e-09
-2.28864e-08
-5.51643e-08
2.15498e-09
-2.23698e-08
-4.03596e-08
6.34005e-10
-2.16736e-08
-2.57522e-08
-5.97699e-10
-2.06575e-08
-1.18745e-08
-1.37136e-09
-1.89278e-08
-1.09569e-09
-1.50379e-08
-2.9008e-09
3.19065e-08
-9.43871e-09
-9.69816e-09
5.33084e-08
-1.1271e-08
-1.77393e-08
6.27151e-08
-1.20699e-08
-2.63233e-08
6.93298e-08
-1.27018e-08
-3.49711e-08
7.37552e-08
-1.323e-08
-4.33515e-08
7.64821e-08
-1.3709e-08
-5.12299e-08
7.78626e-08
-1.41565e-08
-5.84456e-08
7.81774e-08
-1.45951e-08
-6.48864e-08
7.76352e-08
-1.50252e-08
-7.04794e-08
7.64046e-08
-1.54572e-08
-7.51818e-08
7.46158e-08
-1.58836e-08
-7.8975e-08
7.23779e-08
-1.63097e-08
-8.1857e-08
6.97783e-08
-1.67257e-08
-8.38432e-08
6.68938e-08
-1.71346e-08
-8.49545e-08
6.37878e-08
-1.75264e-08
-8.52205e-08
6.05177e-08
-1.79032e-08
-8.46835e-08
5.7132e-08
-1.82556e-08
-8.33804e-08
5.36748e-08
-1.85862e-08
-8.13738e-08
5.0194e-08
-1.88875e-08
-7.87269e-08
4.67309e-08
-1.91594e-08
-7.55143e-08
4.3314e-08
-1.93949e-08
-7.17919e-08
3.997e-08
-1.95955e-08
-6.76327e-08
3.67217e-08
-1.9755e-08
-6.31008e-08
3.35888e-08
-1.98744e-08
-5.82502e-08
3.0581e-08
-1.99479e-08
-5.31396e-08
2.77094e-08
-1.99747e-08
-4.78176e-08
2.49811e-08
-1.99473e-08
-4.23239e-08
2.23975e-08
-1.98609e-08
-3.67016e-08
1.99542e-08
-1.97018e-08
-3.09761e-08
1.76398e-08
-1.94553e-08
-2.51578e-08
1.54329e-08
-1.90942e-08
-1.92536e-08
1.33023e-08
-1.85738e-08
-1.32574e-08
1.11968e-08
-1.77914e-08
-7.14855e-09
9.04138e-09
-1.65206e-08
5.29929e-09
-1.35433e-08
-2.47555e-09
3.65473e-08
-2.16437e-09
-4.85878e-09
5.94572e-08
-3.76591e-09
-7.10154e-09
6.96386e-08
-4.68121e-09
-9.33825e-09
7.68688e-08
-5.30189e-09
-1.16034e-08
8.18188e-08
-5.79852e-09
-1.38504e-08
8.49925e-08
-6.26407e-09
-1.60177e-08
8.67693e-08
-6.74031e-09
-1.80501e-08
8.744e-08
-7.22826e-09
-1.99082e-08
8.72319e-08
-7.74013e-09
-2.15523e-08
8.63195e-08
-8.26908e-09
-2.29618e-08
8.48447e-08
-8.82096e-09
-2.41175e-08
8.2918e-08
-9.38454e-09
-2.50111e-08
8.06343e-08
-9.96182e-09
-2.56464e-08
7.80689e-08
-1.05402e-08
-2.60282e-08
7.52886e-08
-1.11201e-08
-2.61676e-08
7.23479e-08
-1.16892e-08
-2.60828e-08
6.9295e-08
-1.22479e-08
-2.57969e-08
6.61723e-08
-1.27844e-08
-2.53345e-08
6.30285e-08
-1.32961e-08
-2.47275e-08
5.98966e-08
-1.3773e-08
-2.40016e-08
5.68029e-08
-1.42157e-08
-2.31836e-08
5.37684e-08
-1.46158e-08
-2.23003e-08
5.08107e-08
-1.49732e-08
-2.13725e-08
4.7942e-08
-1.52805e-08
-2.04151e-08
4.51627e-08
-1.5539e-08
-1.94381e-08
4.24728e-08
-1.57417e-08
-1.84328e-08
3.98637e-08
-1.58874e-08
-1.73836e-08
3.73165e-08
-1.59686e-08
-1.62471e-08
3.47985e-08
-1.59806e-08
-1.49576e-08
3.22616e-08
-1.59107e-08
-1.34142e-08
2.96328e-08
-1.57444e-08
-1.14551e-08
2.68084e-08
-1.54642e-08
-8.8314e-09
2.364e-08
-1.50674e-08
-5.27596e-09
1.99533e-08
-1.44674e-08
1.2617e-08
-1.25938e-08
-3.38814e-09
3.74939e-08
2.44142e-09
-4.23592e-09
5.90699e-08
1.23443e-09
-3.82128e-09
6.88335e-08
3.91331e-10
-2.73819e-09
7.59473e-08
-1.61759e-10
-1.32564e-09
8.09892e-08
-5.84233e-10
2.56492e-10
8.44158e-08
-1.00471e-09
1.90112e-09
8.65712e-08
-1.44579e-09
3.53519e-09
8.77241e-08
-1.91959e-09
5.11019e-09
8.80773e-08
-2.41979e-09
6.58769e-09
8.77948e-08
-2.95324e-09
7.94402e-09
8.70004e-08
-3.51096e-09
9.1551e-09
8.57994e-08
-4.09523e-09
1.02109e-08
8.42732e-08
-4.69275e-09
1.10897e-08
8.24928e-08
-5.30331e-09
1.17798e-08
8.0513e-08
-5.91494e-09
1.22713e-08
7.83847e-08
-6.5265e-09
1.25437e-08
7.61472e-08
-7.12632e-09
1.25905e-08
7.38382e-08
-7.71305e-09
1.24077e-08
7.1488e-08
-8.27579e-09
1.19932e-08
6.91234e-08
-8.81336e-09
1.13498e-08
6.67638e-08
-9.31659e-09
1.0477e-08
6.44255e-08
-9.78482e-09
9.38074e-09
6.21174e-08
-1.02104e-08
8.07383e-09
5.98426e-08
-1.0593e-08
6.56642e-09
5.75958e-08
-1.09265e-08
4.88762e-09
5.53629e-08
-1.12108e-08
3.07343e-09
5.31178e-08
-1.14406e-08
1.18651e-09
5.08198e-08
-1.16158e-08
-6.92818e-10
4.84082e-08
-1.17307e-08
-2.44688e-09
4.57971e-08
-1.17816e-08
-3.9215e-09
4.28645e-08
-1.17572e-08
-4.88882e-09
3.94405e-08
-1.16644e-08
-4.99074e-09
3.5292e-08
-1.1551e-08
-3.74328e-09
3.01166e-08
-1.14091e-08
1.92223e-08
-1.03497e-08
-2.7913e-09
3.61765e-08
4.10797e-09
-2.95055e-09
5.60584e-08
3.17159e-09
-1.73155e-09
6.51792e-08
2.43554e-09
2.76041e-10
7.19645e-08
1.97516e-09
2.70326e-09
7.69432e-08
1.61793e-09
5.34607e-09
8.05103e-08
1.26371e-09
8.05835e-09
8.29784e-08
8.79358e-10
1.07377e-08
8.45767e-08
4.68594e-10
1.33027e-08
8.54892e-08
2.3726e-11
1.56836e-08
8.58522e-08
-4.40193e-10
1.78398e-08
8.57786e-08
-9.32531e-10
1.97282e-08
8.53531e-08
-1.44367e-09
2.13286e-08
8.46483e-08
-1.97506e-09
2.26177e-08
8.37185e-08
-2.51602e-09
2.35831e-08
8.26128e-08
-3.06476e-09
2.42113e-08
8.1368e-08
-3.61095e-09
2.44926e-08
8.00179e-08
-4.15308e-09
2.44252e-08
7.85878e-08
-4.6816e-09
2.40078e-08
7.71007e-08
-5.19514e-09
2.3243e-08
7.55719e-08
-5.68522e-09
2.2144e-08
7.4015e-08
-6.15076e-09
2.0717e-08
7.24362e-08
-6.58453e-09
1.89824e-08
7.08374e-08
-6.98594e-09
1.69636e-08
6.92112e-08
-7.34921e-09
1.46921e-08
6.75421e-08
-7.67433e-09
1.22082e-08
6.5803e-08
-7.95675e-09
9.56979e-09
6.39527e-08
-8.19698e-09
6.85076e-09
6.19315e-08
-8.39175e-09
4.14548e-09
5.96538e-08
-8.54162e-09
1.58187e-09
5.70031e-08
-8.64155e-09
-6.82343e-10
5.38161e-08
-8.68817e-09
-2.42758e-09
4.98754e-08
-8.69105e-09
-3.29264e-09
4.48777e-08
-8.71734e-09
-2.82931e-09
3.84373e-08
-8.78651e-09
2.45816e-08
-8.18835e-09
-1.66326e-09
3.40856e-08
3.75431e-09
-1.3596e-09
5.27709e-08
2.98363e-09
1.87837e-11
6.14242e-08
2.3764e-09
2.01082e-09
6.7971e-08
2.0022e-09
4.33256e-09
7.28995e-08
1.72177e-09
6.82065e-09
7.65793e-08
1.4423e-09
9.36316e-09
7.92912e-08
1.14599e-09
1.18628e-08
8.12484e-08
8.27045e-10
1.42524e-08
8.2611e-08
4.89751e-10
1.64716e-08
8.35045e-08
1.28036e-10
1.8474e-08
8.40229e-08
-2.4647e-10
2.02209e-08
8.42425e-08
-6.36484e-10
2.16877e-08
8.4219e-08
-1.03805e-09
2.28557e-08
8.40015e-08
-1.44897e-09
2.37024e-08
8.36261e-08
-1.86223e-09
2.42236e-08
8.31242e-08
-2.27675e-09
2.44089e-08
8.25179e-08
-2.68499e-09
2.42554e-08
8.18271e-08
-3.08611e-09
2.37661e-08
8.10645e-08
-3.47323e-09
2.29429e-08
8.02401e-08
-3.84575e-09
2.17978e-08
7.93577e-08
-4.19767e-09
2.03454e-08
7.84167e-08
-4.52874e-09
1.86088e-08
7.74094e-08
-4.83392e-09
1.66118e-08
7.63208e-08
-5.11341e-09
1.43911e-08
7.51259e-08
-5.3632e-09
1.19906e-08
7.37873e-08
-5.58398e-09
9.46589e-09
7.2251e-08
-5.77274e-09
6.88604e-09
7.04419e-08
-5.93089e-09
4.34031e-09
6.82559e-08
-6.05608e-09
1.94057e-09
6.55517e-08
-6.14817e-09
-1.78562e-10
6.21359e-08
-6.20234e-09
-1.82097e-09
5.77504e-08
-6.23173e-09
-2.69024e-09
5.20409e-08
-6.29424e-09
-2.38309e-09
4.45448e-08
-6.41441e-09
2.82396e-08
-6.04046e-09
-7.53264e-10
3.20964e-08
2.74381e-09
-4.46114e-10
5.03196e-08
2.14312e-09
4.95578e-10
5.87961e-08
1.68596e-09
1.79253e-09
6.52638e-08
1.41104e-09
3.27909e-09
7.02087e-08
1.20353e-09
4.86697e-09
7.39889e-08
1.00314e-09
6.4891e-09
7.68779e-08
7.90597e-10
8.09451e-09
7.90769e-08
5.67863e-10
9.63e-09
8.0741e-08
3.31563e-10
1.10679e-08
8.19845e-08
8.35766e-11
1.2368e-08
8.28969e-08
-1.74099e-10
1.35028e-08
8.3544e-08
-4.36413e-10
1.44518e-08
8.3979e-08
-7.08775e-10
1.51962e-08
8.42403e-08
-9.8397e-10
1.57243e-08
8.43603e-08
-1.26182e-09
1.60252e-08
8.43609e-08
-1.53688e-09
1.60914e-08
8.42606e-08
-1.80916e-09
1.592e-08
8.4071e-08
-2.07347e-09
1.55144e-08
8.38007e-08
-2.32991e-09
1.48757e-08
8.34523e-08
-2.57389e-09
1.40144e-08
8.3025e-08
-2.80577e-09
1.29397e-08
8.25112e-08
-3.02158e-09
1.16754e-08
8.18977e-08
-3.22202e-09
1.02367e-08
8.11627e-08
-3.40378e-09
8.65541e-09
8.02744e-08
-3.5679e-09
6.96726e-09
7.91876e-08
-3.71169e-09
5.21537e-09
7.78393e-08
-3.83662e-09
3.45237e-09
7.6144e-08
-3.94073e-09
1.751e-09
7.39844e-08
-4.02566e-09
1.87261e-10
7.12035e-08
-4.08851e-09
-1.13543e-09
6.75873e-08
-4.12889e-09
-2.08342e-09
6.28522e-08
-4.1536e-09
-2.44558e-09
5.66095e-08
-4.20738e-09
-1.9512e-09
4.83506e-08
-4.30038e-09
3.03251e-08
-4.03607e-09
-4.86156e-10
3.05272e-08
2.05437e-09
-4.85689e-10
4.86446e-08
1.67525e-09
-1.60961e-10
5.70792e-08
1.39299e-09
3.40868e-10
6.35379e-08
1.22347e-09
9.47742e-10
6.85071e-08
1.09464e-09
1.62022e-09
7.23498e-08
9.66435e-10
2.33174e-09
7.53344e-08
8.32669e-10
3.05341e-09
7.76634e-08
6.90639e-10
3.76497e-09
7.94867e-08
5.43356e-10
4.4427e-09
8.09182e-08
3.88541e-10
5.06903e-09
8.2042e-08
2.29171e-10
5.62549e-09
8.29228e-08
6.3652e-11
6.0985e-09
8.36076e-08
-1.01627e-10
6.47294e-09
8.41333e-08
-2.67322e-10
6.74074e-09
8.45256e-08
-4.32567e-10
6.89506e-09
8.48049e-08
-5.97509e-10
6.92779e-09
8.49851e-08
-7.57997e-10
6.83706e-09
8.50759e-08
-9.14332e-10
6.62045e-09
8.50802e-08
-1.06292e-09
6.28019e-09
8.49978e-08
-1.20485e-09
5.81894e-09
8.48228e-08
-1.33705e-09
5.24648e-09
8.45446e-08
-1.46082e-09
4.57251e-09
8.41452e-08
-1.57348e-09
3.81347e-09
8.35994e-08
-1.67662e-09
2.98446e-09
8.28706e-08
-1.76797e-09
2.1128e-09
8.19094e-08
-1.84936e-09
1.22196e-09
8.06474e-08
-1.91897e-09
3.53293e-10
7.89937e-08
-1.97896e-09
-4.6016e-10
7.68243e-08
-2.02781e-09
-1.16264e-09
7.39745e-08
-2.06704e-09
-1.7023e-09
7.02205e-08
-2.09405e-09
-1.99972e-09
6.52668e-08
-2.11672e-09
-1.93887e-09
5.87094e-08
-2.16132e-09
-1.3703e-09
5.00149e-08
-2.2323e-09
3.1036e-08
-2.08115e-09
-6.87152e-10
2.93248e-08
1.88912e-09
-1.12547e-09
4.73164e-08
1.76754e-09
-1.39092e-09
5.56897e-08
1.65417e-09
-1.54747e-09
6.21053e-08
1.59023e-09
-1.62507e-09
6.70509e-08
1.53319e-09
-1.63436e-09
7.08881e-08
1.47074e-09
-1.58405e-09
7.38862e-08
1.39891e-09
-1.48785e-09
7.62453e-08
1.32141e-09
-1.35561e-09
7.81156e-08
1.23757e-09
-1.19506e-09
7.96084e-08
1.15055e-09
-1.02069e-09
8.08078e-08
1.05928e-09
-8.38784e-10
8.17753e-08
9.67002e-10
-6.6235e-10
8.25581e-08
8.72736e-10
-4.99211e-10
8.31896e-08
7.79562e-10
-3.54389e-10
8.36951e-08
6.87314e-10
-2.40147e-10
8.40913e-08
5.98985e-10
-1.58826e-10
8.43906e-08
5.13372e-10
-1.13626e-10
8.4599e-08
4.32275e-10
-1.07811e-10
8.4719e-08
3.54538e-10
-1.40074e-10
8.47474e-08
2.82779e-10
-2.08998e-10
8.46773e-08
2.15312e-10
-3.14245e-10
8.44951e-08
1.54288e-10
-4.49008e-10
8.4182e-08
9.74497e-11
-6.06637e-10
8.37098e-08
4.81677e-11
-7.79505e-10
8.30412e-08
3.20074e-12
-9.61131e-10
8.21241e-08
-3.58876e-11
-1.13013e-09
8.08899e-08
-7.15966e-11
-1.28046e-09
7.92455e-08
-1.02821e-10
-1.38975e-09
7.70669e-08
-1.32006e-10
-1.44518e-09
7.41879e-08
-1.58453e-10
-1.42441e-09
7.0386e-08
-1.85157e-10
-1.3076e-09
6.53647e-08
-2.15545e-10
-1.05114e-09
5.87232e-08
-2.70211e-10
-6.16928e-10
4.99283e-08
-3.47837e-10
3.07667e-08
-3.47517e-10
-1.00678e-09
2.83196e-08
2.01166e-09
-1.79902e-09
4.59902e-08
2.1183e-09
-2.46041e-09
5.42086e-08
2.14267e-09
-3.02133e-09
6.05047e-08
2.16117e-09
-3.48934e-09
6.53568e-08
2.16293e-09
-3.87344e-09
6.91224e-08
2.14826e-09
-4.17347e-09
7.20651e-08
2.12269e-09
-4.39949e-09
7.43838e-08
2.08758e-09
-4.55748e-09
7.62247e-08
2.04734e-09
-4.64945e-09
7.76992e-08
2.00189e-09
-4.68467e-09
7.8888e-08
1.95464e-09
-4.6683e-09
7.98534e-08
1.90493e-09
-4.60456e-09
8.06396e-08
1.8558e-09
-4.50266e-09
8.12808e-08
1.80626e-09
-4.36781e-09
8.18003e-08
1.75904e-09
-4.20404e-09
8.22156e-08
1.7128e-09
-4.01912e-09
8.25357e-08
1.67041e-09
-3.81825e-09
8.27668e-08
1.63056e-09
-3.60385e-09
8.29091e-08
1.5953e-09
-3.37789e-09
8.29601e-08
1.56283e-09
-3.14703e-09
8.29105e-08
1.535e-09
-2.90984e-09
8.27478e-08
1.5097e-09
-2.66761e-09
8.24511e-08
1.4885e-09
-2.41971e-09
8.19934e-08
1.46902e-09
-2.16794e-09
8.1336e-08
1.45252e-09
-1.90839e-09
8.04289e-08
1.43632e-09
-1.64336e-09
7.92031e-08
1.42131e-09
-1.37095e-09
7.7569e-08
1.40431e-09
-1.09455e-09
7.54045e-08
1.38559e-09
-8.16095e-10
7.25493e-08
1.36132e-09
-5.49032e-10
6.87866e-08
1.3308e-09
-2.99462e-10
6.38303e-08
1.28615e-09
-8.28152e-11
5.72922e-08
1.21398e-09
7.94761e-11
4.86573e-08
1.1084e-09
2.98877e-08
9.58718e-10
-1.17428e-09
2.74636e-08
2.02925e-09
-2.12257e-09
4.46617e-08
2.27861e-09
-2.95467e-09
5.26574e-08
2.38257e-09
-3.6818e-09
5.87802e-08
2.45007e-09
-4.30374e-09
6.34956e-08
2.48414e-09
-4.82883e-09
6.71491e-08
2.49801e-09
-5.25813e-09
6.99997e-08
2.49668e-09
-5.60229e-09
7.22394e-08
2.48605e-09
-5.85714e-09
7.40131e-08
2.46762e-09
-6.03217e-09
7.54276e-08
2.44538e-09
-6.12646e-09
7.65641e-08
2.41949e-09
-6.14883e-09
7.74816e-08
2.39308e-09
-6.09769e-09
7.82255e-08
2.36567e-09
-5.98676e-09
7.88273e-08
2.33993e-09
-5.81294e-09
7.93118e-08
2.31499e-09
-5.58331e-09
7.96942e-08
2.2932e-09
-5.30761e-09
7.99857e-08
2.27332e-09
-4.98967e-09
8.01909e-08
2.2574e-09
-4.63387e-09
8.03113e-08
2.24382e-09
-4.25189e-09
8.03421e-08
2.23428e-09
-3.84305e-09
8.02761e-08
2.22683e-09
-3.41607e-09
8.00987e-08
2.22279e-09
-2.97595e-09
7.9791e-08
2.21991e-09
-2.5276e-09
7.93248e-08
2.21919e-09
-2.07332e-09
7.86641e-08
2.21802e-09
-1.62064e-09
7.77587e-08
2.21705e-09
-1.17404e-09
7.65439e-08
2.21327e-09
-7.42688e-10
7.49314e-08
2.20674e-09
-3.37815e-10
7.28063e-08
2.19365e-09
2.45788e-11
7.00132e-08
2.17303e-09
3.25519e-10
6.63472e-08
2.13952e-09
5.3358e-10
6.15329e-08
2.08828e-09
6.19322e-10
5.52036e-08
2.00377e-09
5.29885e-10
4.68673e-08
1.87922e-09
2.87888e-08
1.62927e-09
-1.04951e-09
2.68053e-08
1.70896e-09
-1.93625e-09
4.3562e-08
1.98343e-09
-2.73214e-09
5.13491e-08
2.10663e-09
-3.44268e-09
5.73084e-08
2.18174e-09
-4.06134e-09
6.18913e-08
2.2223e-09
-4.58784e-09
6.5435e-08
2.241e-09
-5.02414e-09
6.81904e-08
2.2463e-09
-5.37249e-09
7.03468e-08
2.24104e-09
-5.63425e-09
7.20441e-08
2.22971e-09
-5.80729e-09
7.33891e-08
2.21334e-09
-5.90022e-09
7.44597e-08
2.19523e-09
-5.90971e-09
7.53162e-08
2.17549e-09
-5.84253e-09
7.60015e-08
2.1568e-09
-5.70332e-09
7.65494e-08
2.13877e-09
-5.49644e-09
7.69823e-08
2.12369e-09
-5.23091e-09
7.73176e-08
2.11076e-09
-4.91185e-09
7.75649e-08
2.1019e-09
-4.54856e-09
7.77308e-08
2.09593e-09
-4.14669e-09
7.7815e-08
2.09438e-09
-3.71503e-09
7.78152e-08
2.09568e-09
-3.26071e-09
7.77219e-08
2.10097e-09
-2.79373e-09
7.7523e-08
2.10828e-09
-2.31922e-09
7.7198e-08
2.1184e-09
-1.84483e-09
7.67216e-08
2.12901e-09
-1.37861e-09
7.60564e-08
2.14054e-09
-9.24776e-10
7.5156e-08
2.1503e-09
-4.95632e-10
7.39556e-08
2.15833e-09
-9.73322e-11
7.23725e-08
2.1614e-09
2.5404e-10
7.0294e-08
2.15877e-09
5.49979e-10
6.75732e-08
2.14622e-09
7.63078e-10
6.4012e-08
2.12145e-09
8.72241e-10
5.93488e-08
2.07691e-09
8.39167e-10
5.32322e-08
2.00227e-09
6.26984e-10
4.51939e-08
1.88584e-09
2.77885e-08
1.62796e-09
-6.9221e-10
2.64723e-08
1.02474e-09
-1.3512e-09
4.29989e-08
1.2222e-09
-1.98852e-09
5.06752e-08
1.31177e-09
-2.58509e-09
5.65425e-08
1.36284e-09
-3.12729e-09
6.10468e-08
1.38549e-09
-3.60257e-09
6.45186e-08
1.39236e-09
-4.00807e-09
6.7208e-08
1.38777e-09
-4.33728e-09
6.93002e-08
1.37605e-09
-4.58736e-09
7.09361e-08
1.35857e-09
-4.75939e-09
7.222e-08
1.33853e-09
-4.84674e-09
7.32318e-08
1.31654e-09
-4.85668e-09
7.403e-08
1.29518e-09
-4.78842e-09
7.466e-08
1.27458e-09
-4.65102e-09
7.51539e-08
1.25694e-09
-4.44571e-09
7.55368e-08
1.24202e-09
-4.18725e-09
7.58246e-08
1.23165e-09
-3.87549e-09
7.60295e-08
1.22519e-09
-3.52381e-09
7.61563e-08
1.22407e-09
-3.14453e-09
7.62072e-08
1.22719e-09
-2.74371e-09
7.6178e-08
1.23559e-09
-2.33169e-09
7.60617e-08
1.24772e-09
-1.91591e-09
7.5844e-08
1.26418e-09
-1.50765e-09
7.55069e-08
1.28305e-09
-1.11496e-09
7.5023e-08
1.30454e-09
-7.42553e-10
7.43576e-08
1.32641e-09
-3.97459e-10
7.34628e-08
1.34855e-09
-8.69858e-11
7.22771e-08
1.36839e-09
1.8241e-10
7.07171e-08
1.38544e-09
4.04839e-10
6.8675e-08
1.39666e-09
5.71045e-10
6.60053e-08
1.40091e-09
6.73591e-10
6.25171e-08
1.39417e-09
6.93525e-10
5.79536e-08
1.37323e-09
6.2321e-10
5.19757e-08
1.32891e-09
4.3416e-10
4.41265e-08
1.25475e-09
2.71461e-08
1.07678e-09
-2.32534e-10
2.65589e-08
1.47322e-10
-6.07152e-10
4.31652e-08
2.05367e-10
-1.03563e-09
5.0872e-08
2.33158e-10
-1.4861e-09
5.67534e-08
2.40277e-10
-1.92977e-09
6.12563e-08
2.32931e-10
-2.34309e-09
6.47158e-08
2.16492e-10
-2.71122e-09
6.73821e-08
1.94514e-10
-3.02402e-09
6.94443e-08
1.6782e-10
-3.26821e-09
7.10433e-08
1.38777e-10
-3.44374e-09
7.22867e-08
1.08016e-10
-3.54349e-09
7.32543e-08
7.78002e-11
-3.57039e-09
7.40077e-08
4.85599e-11
-3.52305e-09
7.45919e-08
2.2226e-11
-3.41223e-09
7.5042e-08
-5.40285e-13
-3.23881e-09
7.53823e-08
-1.82413e-11
-3.01519e-09
7.56316e-08
-3.10682e-11
-2.74816e-09
7.58006e-08
-3.75415e-11
-2.45037e-09
7.58968e-08
-3.82367e-11
-2.13266e-09
7.59209e-08
-3.21921e-11
-1.80282e-09
7.58706e-08
-2.04561e-11
-1.47795e-09
7.57371e-08
-2.58415e-12
-1.16023e-09
7.5508e-08
1.99325e-11
-8.63563e-10
7.51629e-08
4.75317e-11
-5.95674e-10
7.46762e-08
7.78837e-11
-3.59315e-10
7.40108e-08
1.10896e-10
-1.60702e-10
7.31202e-08
1.44484e-10
-2.75049e-12
7.19407e-08
1.78228e-10
1.14037e-10
7.03903e-08
2.09921e-10
1.90206e-10
6.83592e-08
2.39041e-10
2.30023e-10
6.57036e-08
2.6335e-10
2.34525e-10
6.22311e-08
2.8222e-10
2.0629e-10
5.76873e-08
2.93023e-10
1.56989e-10
5.17323e-08
2.93586e-10
8.88856e-11
4.39126e-08
2.812e-10
2.69957e-08
2.39674e-10
1.78838e-10
2.70749e-08
-6.9452e-10
6.77219e-11
4.40565e-08
-7.8072e-10
-1.71837e-10
5.19301e-08
-8.18429e-10
-4.88544e-10
5.79266e-08
-8.55658e-10
-8.44103e-10
6.25052e-08
-8.94699e-10
-1.20219e-09
6.60094e-08
-9.34389e-10
-1.54216e-09
6.86973e-08
-9.75463e-10
-1.84302e-09
7.07625e-08
-1.01715e-09
-2.09198e-09
7.23517e-08
-1.05955e-09
-2.27822e-09
7.35748e-08
-1.10111e-09
-2.40014e-09
7.45159e-08
-1.14138e-09
-2.44979e-09
7.52379e-08
-1.17858e-09
-2.43535e-09
7.57893e-08
-1.21221e-09
-2.36007e-09
7.62056e-08
-1.24053e-09
-2.22669e-09
7.65141e-08
-1.26324e-09
-2.04867e-09
7.67329e-08
-1.27896e-09
-1.8368e-09
7.68755e-08
-1.28773e-09
-1.59933e-09
7.69483e-08
-1.28858e-09
-1.35028e-09
7.6954e-08
-1.28204e-09
-1.10023e-09
7.68888e-08
-1.26763e-09
-8.62395e-10
7.67452e-08
-1.24639e-09
-6.45809e-10
7.65091e-08
-1.21833e-09
-4.56846e-10
7.61609e-08
-1.1849e-09
-3.08497e-10
7.56722e-08
-1.14648e-09
-1.9904e-10
7.50068e-08
-1.10481e-09
-1.32118e-10
7.41147e-08
-1.06044e-09
-1.08971e-10
7.2932e-08
-1.01514e-09
-1.22109e-10
7.13732e-08
-9.69334e-10
-1.64828e-10
6.93268e-08
-9.24489e-10
-2.2504e-10
6.66446e-08
-8.80461e-10
-2.87986e-10
6.31313e-08
-8.37909e-10
-3.30359e-10
5.85261e-08
-7.95431e-10
-3.29817e-10
5.24829e-08
-7.51667e-10
-2.55456e-10
4.45387e-08
-7.0154e-10
2.7345e-08
-6.03045e-10
4.43363e-10
2.79323e-08
-1.30085e-09
5.09158e-10
4.5489e-08
-1.49788e-09
4.02572e-10
5.36217e-08
-1.58574e-09
1.82645e-10
5.98045e-08
-1.65789e-09
-1.01988e-10
6.45123e-08
-1.72121e-09
-4.16879e-10
6.81035e-08
-1.77991e-09
-7.3025e-10
7.08451e-08
-1.83578e-09
-1.01641e-09
7.29398e-08
-1.89024e-09
-1.26029e-09
7.45392e-08
-1.94307e-09
-1.45334e-09
7.57596e-08
-1.9942e-09
-1.58126e-09
7.6688e-08
-2.0424e-09
-1.64889e-09
7.73915e-08
-2.08704e-09
-1.65306e-09
7.79203e-08
-2.12662e-09
-1.59918e-09
7.83131e-08
-2.16048e-09
-1.49651e-09
7.85976e-08
-2.18723e-09
-1.35095e-09
7.8795e-08
-2.20645e-09
-1.17744e-09
7.8918e-08
-2.21713e-09
-9.83805e-10
7.89752e-08
-2.21933e-09
-7.86236e-10
7.89681e-08
-2.2125e-09
-5.95677e-10
7.88945e-08
-2.19724e-09
-4.2072e-10
7.87452e-08
-2.17353e-09
-2.76418e-10
7.85066e-08
-2.14245e-09
-1.69849e-10
7.8157e-08
-2.10442e-09
-1.02378e-10
7.76681e-08
-2.06086e-09
-8.46209e-11
7.70002e-08
-2.01248e-09
-1.10906e-10
7.61027e-08
-1.9608e-09
-1.81368e-10
7.49076e-08
-1.90645e-09
-2.84451e-10
7.3327e-08
-1.85062e-09
-4.08569e-10
7.12439e-08
-1.79336e-09
-5.35229e-10
6.85059e-08
-1.73485e-09
-6.38205e-10
6.4909e-08
-1.67362e-09
-6.89025e-10
6.01849e-08
-1.60741e-09
-6.53371e-10
5.3974e-08
-1.53024e-09
-4.77577e-10
4.57991e-08
-1.43321e-09
2.80939e-08
-1.22739e-09
5.22898e-10
2.89865e-08
-1.5767e-09
6.54494e-10
4.71805e-08
-1.82391e-09
6.09564e-10
5.5603e-08
-1.93567e-09
4.42264e-10
6.19961e-08
-2.02433e-09
1.99158e-10
6.68535e-08
-2.09972e-09
-7.54741e-11
7.05477e-08
-2.16751e-09
-3.57376e-10
7.33573e-08
-2.23119e-09
-6.19699e-10
7.54928e-08
-2.29197e-09
-8.41239e-10
7.71136e-08
-2.35062e-09
-1.01462e-09
7.83401e-08
-2.40661e-09
-1.1329e-09
7.92648e-08
-2.45948e-09
-1.19142e-09
7.99573e-08
-2.50797e-09
-1.19071e-09
8.04715e-08
-2.55127e-09
-1.13724e-09
8.08473e-08
-2.58802e-09
-1.03586e-09
8.11153e-08
-2.6175e-09
-8.99891e-10
8.12968e-08
-2.63861e-09
-7.37927e-10
8.14067e-08
-2.65098e-09
-5.61248e-10
8.1453e-08
-2.65397e-09
-3.84725e-10
8.14387e-08
-2.64772e-09
-2.17987e-10
8.13604e-08
-2.63212e-09
-7.42066e-11
8.12097e-08
-2.60784e-09
3.66106e-11
8.09711e-08
-2.57526e-09
1.05466e-10
8.06228e-08
-2.53553e-09
1.28997e-10
8.0134e-08
-2.48937e-09
1.03788e-10
7.94641e-08
-2.43816e-09
2.99772e-11
7.85591e-08
-2.38274e-09
-8.73079e-11
7.73485e-08
-2.32436e-09
-2.35862e-10
7.57398e-08
-2.26346e-09
-4.03338e-10
7.36118e-08
-2.20057e-09
-5.66609e-10
7.08048e-08
-2.13489e-09
-7.01608e-10
6.71075e-08
-2.06518e-09
-7.6848e-10
6.22408e-08
-1.98765e-09
-7.29641e-10
5.58313e-08
-1.89542e-09
-5.40409e-10
4.73841e-08
-1.77727e-09
2.90793e-08
-1.52385e-09
4.49307e-10
3.00617e-08
-1.52359e-09
5.52976e-10
4.88347e-08
-1.75878e-09
5.01083e-10
5.75212e-08
-1.86656e-09
3.4333e-10
6.41071e-08
-1.95334e-09
1.23115e-10
6.9102e-08
-2.0274e-09
-1.27318e-10
7.28919e-08
-2.09468e-09
-3.78187e-10
7.57647e-08
-2.15804e-09
-6.04132e-10
7.79395e-08
-2.219e-09
-7.93232e-10
7.9581e-08
-2.27785e-09
-9.34718e-10
8.08153e-08
-2.33439e-09
-1.02025e-09
8.1738e-08
-2.3877e-09
-1.04834e-09
8.24227e-08
-2.43692e-09
-1.02143e-09
8.29251e-08
-2.48078e-09
-9.42998e-10
8.32879e-08
-2.51834e-09
-8.21412e-10
8.35424e-08
-2.54842e-09
-6.66807e-10
8.37121e-08
-2.57033e-09
-4.8871e-10
8.3812e-08
-2.58328e-09
-3.01996e-10
8.38513e-08
-2.58703e-09
-1.12029e-10
8.38328e-08
-2.58128e-09
6.04389e-11
8.37533e-08
-2.56635e-09
2.09609e-10
8.36036e-08
-2.54249e-09
3.22312e-10
8.3368e-08
-2.5105e-09
3.93651e-10
8.30232e-08
-2.47108e-09
4.16269e-10
8.25372e-08
-2.42542e-09
3.86524e-10
8.18673e-08
-2.37447e-09
3.08283e-10
8.09574e-08
-2.3195e-09
1.83716e-10
7.97335e-08
-2.26139e-09
2.69028e-11
7.81001e-08
-2.20102e-09
-1.55285e-10
7.59306e-08
-2.13858e-09
-3.33833e-10
7.30599e-08
-2.0738e-09
-4.92167e-10
6.92688e-08
-2.00513e-09
-5.89757e-10
6.42691e-08
-1.92948e-09
-5.93198e-10
5.76741e-08
-1.84013e-09
-4.5459e-10
4.8974e-08
-1.72783e-09
3.01128e-08
-1.48805e-09
2.68519e-10
3.10127e-08
-1.22077e-09
2.81257e-10
5.02175e-08
-1.39465e-09
1.77512e-10
5.91016e-08
-1.47693e-09
5.84522e-13
6.58318e-08
-1.5471e-09
-2.17508e-10
7.09291e-08
-1.60966e-09
-4.46706e-10
7.47892e-08
-1.66836e-09
-6.6344e-10
7.77075e-08
-1.72527e-09
-8.52321e-10
7.99088e-08
-1.7811e-09
-9.98281e-10
8.15629e-08
-1.8359e-09
-1.09334e-09
8.27994e-08
-1.88904e-09
-1.1332e-09
8.37174e-08
-1.93966e-09
-1.11702e-09
8.43925e-08
-1.98659e-09
-1.04641e-09
8.48831e-08
-2.02873e-09
-9.27031e-10
8.52331e-08
-2.06488e-09
-7.6525e-10
8.54757e-08
-2.09408e-09
-5.72625e-10
8.56349e-08
-2.11542e-09
-3.61454e-10
8.5727e-08
-2.12831e-09
-1.37351e-10
8.57612e-08
-2.13228e-09
8.09457e-11
8.57407e-08
-2.12728e-09
2.86323e-10
8.56623e-08
-2.11337e-09
4.64632e-10
8.55163e-08
-2.09102e-09
6.05053e-10
8.52863e-08
-2.06082e-09
7.05416e-10
8.49482e-08
-2.02367e-09
7.55366e-10
8.44686e-08
-1.98056e-09
7.50873e-10
8.38033e-08
-1.93268e-09
6.94826e-10
8.28941e-08
-1.88112e-09
5.91207e-10
8.16648e-08
-1.82705e-09
4.46867e-10
8.00163e-08
-1.77132e-09
2.72183e-10
7.78189e-08
-1.71457e-09
8.66534e-11
7.49027e-08
-1.6567e-09
-9.07802e-11
7.10426e-08
-1.59701e-09
-2.30653e-10
6.59432e-08
-1.53329e-09
-3.05695e-10
5.92085e-08
-1.46121e-09
-2.71524e-10
5.03175e-08
-1.37562e-09
3.1038e-08
-1.19811e-09
5.27048e-11
3.174e-08
-7.79808e-10
-5.72153e-11
5.11907e-08
-8.64482e-10
-2.32321e-10
6.01873e-08
-9.0879e-10
-4.458e-10
6.69987e-08
-9.53992e-10
-6.69714e-10
7.21519e-08
-9.98874e-10
-8.85442e-10
7.6048e-08
-1.04434e-09
-1.07214e-09
7.89867e-08
-1.09086e-09
-1.22207e-09
8.11965e-08
-1.13834e-09
-1.32159e-09
8.28501e-08
-1.18621e-09
-1.36859e-09
8.40796e-08
-1.23355e-09
-1.35945e-09
8.49863e-08
-1.27923e-09
-1.29107e-09
8.56479e-08
-1.32202e-09
-1.17238e-09
8.61238e-08
-1.36069e-09
-1.00415e-09
8.64598e-08
-1.3941e-09
-7.96723e-10
8.66898e-08
-1.42121e-09
-5.60407e-10
8.68387e-08
-1.44116e-09
-3.03132e-10
8.69235e-08
-1.45331e-09
-3.96571e-11
8.69537e-08
-1.45729e-09
2.22637e-10
8.69328e-08
-1.45293e-09
4.67815e-10
8.68572e-08
-1.44039e-09
6.87224e-10
8.67172e-08
-1.42004e-09
8.69996e-10
8.64957e-08
-1.39255e-09
1.00986e-09
8.61679e-08
-1.35873e-09
1.10004e-09
8.56994e-08
-1.31964e-09
1.13444e-09
8.50446e-08
-1.27643e-09
1.11419e-09
8.41439e-08
-1.2303e-09
1.04218e-09
8.29194e-08
-1.18249e-09
9.23205e-10
8.12701e-08
-1.1341e-09
7.64851e-10
7.90634e-08
-1.08606e-09
5.79057e-10
7.61267e-08
-1.03892e-09
3.84124e-10
7.22315e-08
-9.9276e-10
1.94935e-10
6.7078e-08
-9.47002e-10
4.01206e-11
6.02652e-08
-9.0032e-10
-5.53055e-11
5.12658e-08
-8.53436e-10
3.17492e-08
-7.65804e-10
-1.54122e-10
3.22053e-08
-3.11312e-10
-3.80152e-10
5.17175e-08
-3.00794e-10
-6.30119e-10
6.07422e-08
-3.04259e-10
-8.80665e-10
6.75716e-08
-3.2234e-10
-1.115e-09
7.27336e-08
-3.47855e-10
-1.31914e-09
7.66306e-08
-3.78588e-10
-1.48187e-09
7.95635e-08
-4.13396e-10
-1.59651e-09
8.17624e-08
-4.51287e-10
-1.65691e-09
8.34011e-08
-4.91093e-10
-1.65812e-09
8.46133e-08
-5.31543e-10
-1.60169e-09
8.55011e-08
-5.71282e-10
-1.48909e-09
8.61436e-08
-6.09e-10
-1.32213e-09
8.66012e-08
-6.43399e-10
-1.11075e-09
8.69205e-08
-6.7333e-10
-8.5888e-10
8.71364e-08
-6.97742e-10
-5.7838e-10
8.72744e-08
-7.15819e-10
-2.80686e-10
8.73517e-08
-7.26912e-10
2.59257e-11
8.73785e-08
-7.30657e-10
3.27892e-10
8.7358e-08
-7.269e-10
6.1518e-10
8.72869e-08
-7.1579e-10
8.7295e-10
8.71549e-08
-6.97692e-10
1.09875e-09
8.69449e-08
-6.73235e-10
1.27889e-09
8.6631e-08
-6.43246e-10
1.40871e-09
8.61785e-08
-6.08765e-10
1.48213e-09
8.55407e-08
-5.70932e-10
1.50173e-09
8.46572e-08
-5.31039e-10
1.46199e-09
8.34486e-08
-4.90393e-10
1.36865e-09
8.18131e-08
-4.50334e-10
1.22856e-09
7.96168e-08
-4.12127e-10
1.04578e-09
7.66858e-08
-3.76917e-10
8.34559e-10
7.27903e-08
-3.45687e-10
6.01392e-10
6.76291e-08
-3.19504e-10
3.66269e-10
6.08002e-08
-3.00234e-10
1.49969e-10
5.17756e-08
-2.94707e-10
3.22036e-08
-3.02837e-10
-3.08578e-10
3.24125e-08
1.00935e-10
-6.21231e-10
5.1837e-08
1.94303e-10
-9.27767e-10
6.08211e-08
2.27226e-10
-1.20522e-09
6.76165e-08
2.33552e-10
-1.44668e-09
7.27483e-08
2.25704e-10
-1.64181e-09
7.66167e-08
2.08661e-10
-1.78625e-09
7.95221e-08
1.84893e-10
-1.8714e-09
8.16935e-08
1.56242e-10
-1.90101e-09
8.33051e-08
1.24316e-10
-1.86892e-09
8.44906e-08
9.07649e-11
-1.777e-09
8.53529e-08
5.71371e-11
-1.63051e-09
8.59712e-08
2.48867e-11
-1.43111e-09
8.64071e-08
-5.14128e-12
-1.1875e-09
8.67074e-08
-3.17334e-11
-9.03512e-10
8.69076e-08
-5.34668e-11
-5.94268e-10
8.70336e-08
-6.95706e-11
-2.67739e-10
8.71033e-08
-7.9517e-11
6.90239e-11
8.71268e-08
-8.29194e-11
3.98206e-10
8.71075e-08
-7.9691e-11
7.1197e-10
8.70419e-08
-6.99103e-11
1.00257e-09
8.69199e-08
-5.39644e-11
1.25637e-09
8.67235e-08
-3.23698e-11
1.46554e-09
8.64269e-08
-5.89028e-12
1.6242e-09