/*--------------------------------*- C++ -*----------------------------------*\
| =========                 |                                                 |
| \\      /  F ield         | OpenFOAM: The Open Source CFD Toolbox           |
|  \\    /   O peration     | Version:  v2012                                 |
|   \\  /    A nd           | Website:  www.openfoam.com                      |
|    \\/     M anipulation  |                                                 |
\*---------------------------------------------------------------------------*/
FoamFile
{
    version     2.0;
    format      ascii;
    class       volVectorField;
    location    "69";
    object      U;
}
// * * * * * * * * * * * * * * * * * * * * * * * * * * * * * * * * * * * * * //

dimensions      [0 1 -1 0 0 0 0];


internalField   nonuniform List<vector> 
78750
(
(-1.65548e-06 -7.11496e-05 0.000125624)
(-4.55727e-06 -9.88216e-05 0.000219403)
(-1.3143e-05 -0.000100843 0.000267565)
(-2.60741e-05 -9.27159e-05 0.000300907)
(-4.32818e-05 -7.89588e-05 0.000322704)
(-6.40723e-05 -6.22481e-05 0.000335583)
(-8.76172e-05 -4.45644e-05 0.000341433)
(-0.000113 -2.71538e-05 0.000341746)
(-0.000139404 -1.09814e-05 0.000337588)
(-0.000166043 3.4855e-06 0.000329855)
(-0.000192227 1.58437e-05 0.000319169)
(-0.000217333 2.6018e-05 0.000306092)
(-0.000240806 3.38873e-05 0.000291019)
(-0.000262156 3.9569e-05 0.00027435)
(-0.00028101 4.30792e-05 0.000256387)
(-0.000296881 4.45897e-05 0.000237634)
(-0.000309678 4.41896e-05 0.000218076)
(-0.000319048 4.20707e-05 0.000198215)
(-0.000324845 3.83213e-05 0.000178364)
(-0.00032696 3.31585e-05 0.000158897)
(-0.000325323 2.66919e-05 0.000140158)
(-0.000319932 1.91265e-05 0.000122533)
(-0.000310812 1.05808e-05 0.000106371)
(-0.000298057 1.26419e-06 9.20331e-05)
(-0.000281805 -8.66634e-06 7.98191e-05)
(-0.000262218 -1.89503e-05 6.99986e-05)
(-0.000239523 -2.93354e-05 6.27324e-05)
(-0.000213983 -3.94318e-05 5.80862e-05)
(-0.000185909 -4.88037e-05 5.59794e-05)
(-0.000155683 -5.68172e-05 5.61103e-05)
(-0.000123621 -6.26792e-05 5.78571e-05)
(-8.99461e-05 -6.52676e-05 6.01354e-05)
(-5.57717e-05 -6.30667e-05 6.12646e-05)
(-2.78126e-05 -5.40909e-05 5.85091e-05)
(-7.74606e-06 -3.07383e-05 4.23468e-05)
(-4.24696e-06 0.000125818 -0.000214149)
(-2.29711e-05 0.000258094 -0.000315097)
(-4.44428e-05 0.000327961 -0.000351065)
(-7.55628e-05 0.000383319 -0.000381988)
(-0.000108507 0.000425123 -0.000407331)
(-0.0001412 0.000454615 -0.000426967)
(-0.000172721 0.00047385 -0.000442065)
(-0.000202435 0.00048384 -0.00045419)
(-0.000229696 0.000486327 -0.000463763)
(-0.000254147 0.000481929 -0.000471551)
(-0.000275462 0.000472086 -0.000477587)
(-0.000293457 0.000457218 -0.00048238)
(-0.000308076 0.000438428 -0.00048587)
(-0.000319276 0.000416023 -0.000488447)
(-0.000327031 0.000391045 -0.000489969)
(-0.000331452 0.000363671 -0.000490755)
(-0.000332589 0.000334798 -0.000490651)
(-0.00033055 0.000304557 -0.000489907)
(-0.000325524 0.000273538 -0.000488447)
(-0.000317657 0.000241859 -0.000486451)
(-0.000307112 0.000210188 -0.00048374)
(-0.000294125 0.000178607 -0.000480436)
(-0.000278887 0.000147651 -0.000476355)
(-0.000261642 0.000117381 -0.000471575)
(-0.00024261 8.82355e-05 -0.000465874)
(-0.000222037 6.02725e-05 -0.000459111)
(-0.000200149 3.38665e-05 -0.000450838)
(-0.000177209 9.08792e-06 -0.000440612)
(-0.000153476 -1.3711e-05 -0.000427546)
(-0.000129206 -3.44016e-05 -0.000410491)
(-0.000104507 -5.2535e-05 -0.000387614)
(-7.91353e-05 -6.75954e-05 -0.000355591)
(-5.31797e-05 -7.80887e-05 -0.000306471)
(-3.22317e-05 -8.04013e-05 -0.00023058)
(-1.72186e-05 -5.36957e-05 -7.80387e-05)
(-1.86603e-06 0.000308775 -0.00015164)
(-1.2542e-05 0.000529835 -0.000244258)
(-2.20041e-05 0.000626119 -0.000281901)
(-3.63218e-05 0.000693523 -0.000307146)
(-5.11834e-05 0.000738123 -0.000325033)
(-6.55784e-05 0.000765481 -0.00033808)
(-7.92295e-05 0.000778693 -0.000348241)
(-9.18615e-05 0.000781114 -0.00035623)
(-0.000103312 0.00077436 -0.000362989)
(-0.000113373 0.000760632 -0.000368596)
(-0.00012199 0.00074077 -0.000373552)
(-0.000129075 0.000716357 -0.000377703)
(-0.000134654 0.000687844 -0.000381375)
(-0.000138701 0.000656459 -0.000384343)
(-0.000141282 0.000622466 -0.000386849)
(-0.00014241 0.000586858 -0.000388672)
(-0.000142164 0.000549818 -0.000390001)
(-0.000140615 0.000512126 -0.000390673)
(-0.000137818 0.000473898 -0.000390908)
(-0.000133901 0.000435924 -0.00039043)
(-0.000128988 0.000398272 -0.000389381)
(-0.000123163 0.000361505 -0.00038759)
(-0.000116563 0.000325657 -0.000385168)
(-0.000109274 0.000291186 -0.000381933)
(-0.000101424 0.000258098 -0.000377923)
(-9.30791e-05 0.000226746 -0.000372883)
(-8.43548e-05 0.000197111 -0.000366678)
(-7.53008e-05 0.000169457 -0.000358827)
(-6.60179e-05 0.000143737 -0.0003488)
(-5.65539e-05 0.000120143 -0.000335564)
(-4.69345e-05 9.85889e-05 -0.000317635)
(-3.69391e-05 7.92011e-05 -0.000292155)
(-2.63258e-05 6.17755e-05 -0.000254166)
(-1.66664e-05 4.64483e-05 -0.000197886)
(-1.06475e-05 2.53048e-05 -7.39616e-05)
(-2.31342e-06 0.000399614 1.02975e-05)
(-7.61758e-06 0.000658592 -4.3678e-05)
(-9.69089e-06 0.000772941 -7.85018e-05)
(-1.35754e-05 0.000853231 -0.000103636)
(-1.74767e-05 0.000907418 -0.000120503)
(-2.13073e-05 0.000940937 -0.000133569)
(-2.49987e-05 0.000958562 -0.000144767)
(-2.85303e-05 0.000963208 -0.000155256)
(-3.1786e-05 0.000957919 -0.000165243)
(-3.47316e-05 0.000944262 -0.000175241)
(-3.72815e-05 0.000924299 -0.000185123)
(-3.9435e-05 0.000898887 -0.000195164)
(-4.11402e-05 0.000869523 -0.000205087)
(-4.24201e-05 0.000836687 -0.00021505)
(-4.32583e-05 0.000801528 -0.000224749)
(-4.36869e-05 0.000764333 -0.000234288)
(-4.37179e-05 0.000725996 -0.000243396)
(-4.3414e-05 0.000686718 -0.000252135)
(-4.27632e-05 0.000647455 -0.000260106)
(-4.18595e-05 0.000608331 -0.000267382)
(-4.0729e-05 0.00056992 -0.00027375)
(-3.94322e-05 0.000532249 -0.000279279)
(-3.79914e-05 0.00049579 -0.000283747)
(-3.64842e-05 0.000460523 -0.000287186)
(-3.48943e-05 0.000426653 -0.000289449)
(-3.32825e-05 0.000394079 -0.000290516)
(-3.16236e-05 0.000362977 -0.000290107)
(-2.99241e-05 0.000333111 -0.000288085)
(-2.81154e-05 0.000304431 -0.000283987)
(-2.61481e-05 0.00027649 -0.000277335)
(-2.38545e-05 0.000248898 -0.000267227)
(-2.08921e-05 0.000220841 -0.000252857)
(-1.65998e-05 0.000191323 -0.000232883)
(-1.14107e-05 0.000158955 -0.000202249)
(-8.27961e-06 9.80898e-05 -0.00010954)
(-4.12787e-06 0.000419331 0.000101452)
(-7.68029e-06 0.000671369 7.87664e-05)
(-6.80306e-06 0.000784317 5.06083e-05)
(-5.60491e-06 0.000865654 2.89911e-05)
(-3.51034e-06 0.00092214 1.44923e-05)
(-9.67869e-07 0.000959584 3.0952e-06)
(1.76952e-06 0.00098169 -7.51683e-06)
(4.53065e-06 0.000992041 -1.78345e-05)
(7.22488e-06 0.000992671 -2.83692e-05)
(9.78706e-06 0.000985911 -3.90775e-05)
(1.21603e-05 0.000972872 -5.02626e-05)
(1.43087e-05 0.000955168 -6.17118e-05)
(1.62047e-05 0.000933417 -7.3463e-05)
(1.78321e-05 0.000908827 -8.52247e-05)
(1.91431e-05 0.000881742 -9.70831e-05)
(2.01406e-05 0.000853098 -0.000108728)
(2.0779e-05 0.000823081 -0.000120203)
(2.10569e-05 0.000792446 -0.000131217)
(2.09424e-05 0.000761322 -0.000141783)
(2.04504e-05 0.000730323 -0.000151639)
(1.95641e-05 0.00069946 -0.000160813)
(1.83035e-05 0.00066918 -0.000169085)
(1.66547e-05 0.000639407 -0.000176483)
(1.46504e-05 0.000610432 -0.000182819)
(1.22896e-05 0.000582064 -0.000188117)
(9.62369e-06 0.000554403 -0.000192204)
(6.68414e-06 0.000527079 -0.000195085)
(3.57349e-06 0.000499911 -0.000196573)
(3.87838e-07 0.000472217 -0.000196582)
(-2.70531e-06 0.000443371 -0.000194767)
(-5.51876e-06 0.000412128 -0.000190909)
(-7.64622e-06 0.00037699 -0.000185307)
(-8.31787e-06 0.000335651 -0.000178937)
(-6.8203e-06 0.000285382 -0.000167314)
(-6.00027e-06 0.000181439 -0.000104056)
(-3.80248e-06 0.000413906 0.000133474)
(-5.74823e-06 0.000645835 0.000125555)
(-4.09128e-06 0.000751546 0.000103033)
(-1.42113e-06 0.000829161 8.47715e-05)
(2.33631e-06 0.00088535 7.25722e-05)
(6.6391e-06 0.000924499 6.26058e-05)
(1.11672e-05 0.000950592 5.31896e-05)
(1.5703e-05 0.00096605 4.3663e-05)
(2.01121e-05 0.000973369 3.39827e-05)
(2.42573e-05 0.000973882 2.38996e-05)
(2.80628e-05 0.000969249 1.35472e-05)
(3.14537e-05 0.000960205 2.82854e-06)
(3.43783e-05 0.000947955 -8.16063e-06)
(3.67918e-05 0.000932876 -1.94524e-05)
(3.86852e-05 0.000915839 -3.07455e-05)
(4.00155e-05 0.000897048 -4.20514e-05)
(4.07838e-05 0.000877193 -5.31247e-05)
(4.09594e-05 0.000856357 -6.39621e-05)
(4.05605e-05 0.000835085 -7.43403e-05)
(3.95677e-05 0.000813365 -8.42596e-05)
(3.80159e-05 0.000791616 -9.35191e-05)
(3.5898e-05 0.000769753 -0.000102126)
(3.32567e-05 0.000748056 -0.000109904)
(3.01092e-05 0.000726297 -0.000116882)
(2.65185e-05 0.000704547 -0.000122915)
(2.25262e-05 0.000682391 -0.000128043)
(1.82291e-05 0.000659619 -0.000132146)
(1.37201e-05 0.0006355 -0.000135273)
(9.1541e-06 0.000609357 -0.000137288)
(4.68723e-06 0.000579896 -0.000138156)
(5.52383e-07 0.000545638 -0.000137765)
(-2.91135e-06 0.000504284 -0.000136933)
(-4.95509e-06 0.000452913 -0.000137263)
(-4.76528e-06 0.00038743 -0.00013508)
(-4.57466e-06 0.000247634 -9.0964e-05)
(-2.51842e-06 0.000391231 0.00012373)
(-3.07629e-06 0.000604948 0.000119135)
(-1.32143e-06 0.000703407 0.000100798)
(1.50598e-06 0.0007774 8.58675e-05)
(5.17541e-06 0.000832452 7.58471e-05)
(9.25296e-06 0.00087301 6.7785e-05)
(1.34972e-05 0.000902072 6.01093e-05)
(1.77378e-05 0.000922337 5.24944e-05)
(2.18452e-05 0.000935421 4.47005e-05)
(2.57134e-05 0.000943038 3.6731e-05)
(2.9253e-05 0.00094605 2.84434e-05)
(3.23968e-05 0.000945609 1.99492e-05)
(3.50875e-05 0.000942131 1.12297e-05)
(3.72976e-05 0.000936456 2.46209e-06)
(3.89827e-05 0.000928808 -6.39728e-06)
(4.01317e-05 0.000919807 -1.51667e-05)
(4.07219e-05 0.000909519 -2.38432e-05)
(4.07524e-05 0.000898423 -3.22536e-05)
(4.02129e-05 0.000886487 -4.03984e-05)
(3.91186e-05 0.00087407 -4.81191e-05)
(3.74679e-05 0.000861048 -5.54267e-05)
(3.52977e-05 0.000847651 -6.21802e-05)
(3.26229e-05 0.000833639 -6.84042e-05)
(2.94988e-05 0.000819075 -7.39779e-05)
(2.59595e-05 0.000803541 -7.89416e-05)
(2.20852e-05 0.000786849 -8.31971e-05)
(1.79468e-05 0.000768285 -8.68033e-05)
(1.36565e-05 0.000747247 -8.96872e-05)
(9.33775e-06 0.0007225 -9.19028e-05)
(5.15477e-06 0.000692734 -9.33336e-05)
(1.28864e-06 0.000655779 -9.40866e-05)
(-1.95067e-06 0.000609078 -9.48487e-05)
(-3.9546e-06 0.000548771 -9.72986e-05)
(-4.01679e-06 0.000470067 -9.8435e-05)
(-3.74197e-06 0.000299235 -6.74957e-05)
(-1.37703e-06 0.000368196 9.77811e-05)
(-1.26962e-06 0.00057295 9.35387e-05)
(-9.38265e-08 0.0006681 7.98299e-05)
(1.79616e-06 0.000740391 6.85961e-05)
(4.16008e-06 0.000795468 6.10428e-05)
(6.76692e-06 0.000837141 5.49151e-05)
(9.46909e-06 0.000868686 4.92142e-05)
(1.21843e-05 0.000892167 4.35655e-05)
(1.48223e-05 0.000909546 3.79337e-05)
(1.7319e-05 0.000921916 3.21763e-05)
(1.96166e-05 0.000930512 2.63281e-05)
(2.1659e-05 0.00093589 2.03209e-05)
(2.34077e-05 0.000938875 1.42652e-05)
(2.4827e-05 0.000939724 8.13441e-06)
(2.58957e-05 0.000939022 2.05556e-06)
(2.65902e-05 0.000936846 -3.99475e-06)
(2.6901e-05 0.000933626 -9.88492e-06)
(2.68125e-05 0.000929325 -1.56343e-05)
(2.63329e-05 0.000924261 -2.11186e-05)
(2.54573e-05 0.000918298 -2.63655e-05)
(2.42038e-05 0.000911642 -3.12606e-05)
(2.25806e-05 0.000904052 -3.5843e-05)
(2.06224e-05 0.000895592 -4.00104e-05)
(1.83545e-05 0.000885867 -4.38144e-05)
(1.5823e-05 0.000874732 -4.71653e-05)
(1.3076e-05 0.000861541 -5.01281e-05)
(1.01868e-05 0.000845803 -5.26288e-05)
(7.22689e-06 0.000826436 -5.47471e-05)
(4.3072e-06 0.000802353 -5.6408e-05)
(1.53763e-06 0.000771704 -5.76557e-05)
(-9.35498e-07 0.000732338 -5.84576e-05)
(-2.89013e-06 0.000681044 -5.9432e-05)
(-3.89372e-06 0.000613758 -6.16843e-05)
(-3.58915e-06 0.000524814 -6.31342e-05)
(-2.96088e-06 0.000330819 -4.18453e-05)
(-9.97911e-07 0.0003489 7.37957e-05)
(-9.69261e-07 0.000551446 7.27002e-05)
(-5.84285e-07 0.000645733 6.47101e-05)
(9.63699e-08 0.00071797 5.79546e-05)
(1.03342e-06 0.000773393 5.32261e-05)
(2.1176e-06 0.000816191 4.93167e-05)
(3.28493e-06 0.000849201 4.55716e-05)
(4.49093e-06 0.000874855 4.18939e-05)
(5.6964e-06 0.000894658 3.81798e-05)
(6.86419e-06 0.000910068 3.44642e-05)
(7.95977e-06 0.000921854 3.06743e-05)
(8.95555e-06 0.000930932 2.68827e-05)
(9.82082e-06 0.000937659 2.30436e-05)
(1.05308e-05 0.000942643 1.92579e-05)
(1.10707e-05 0.000946015 1.54633e-05)
(1.1426e-05 0.000948197 1.17641e-05)
(1.15883e-05 0.000949167 8.11739e-06)
(1.15406e-05 0.000949224 4.66093e-06)
(1.12833e-05 0.000948242 1.34492e-06)
(1.08188e-05 0.000946415 -1.74131e-06)
(1.01471e-05 0.000943514 -4.65269e-06)
(9.28183e-06 0.000939616 -7.30453e-06)
(8.2356e-06 0.000934359 -9.76103e-06)
(7.03399e-06 0.000927653 -1.19456e-05)
(5.69905e-06 0.000918932 -1.3932e-05)
(4.26998e-06 0.000907831 -1.56529e-05)
(2.78512e-06 0.000893434 -1.71934e-05)
(1.30236e-06 0.000874909 -1.84987e-05)
(-1.20903e-07 0.000850726 -1.9656e-05)
(-1.41157e-06 0.000819225 -2.05964e-05)
(-2.48547e-06 0.000777774 -2.14404e-05)
(-3.2095e-06 0.000723247 -2.25041e-05)
(-3.33443e-06 0.00065102 -2.46438e-05)
(-2.73592e-06 0.00055533 -2.65236e-05)
(-1.99824e-06 0.000346247 -1.53233e-05)
(-1.22906e-06 0.000334238 5.77903e-05)
(-1.66051e-06 0.000536186 6.28604e-05)
(-2.06551e-06 0.00063029 6.1016e-05)
(-2.46819e-06 0.000702392 5.88022e-05)
(-2.68516e-06 0.000758024 5.70341e-05)
(-2.75059e-06 0.000801101 5.52562e-05)
(-2.71245e-06 0.000834788 5.33643e-05)
(-2.58314e-06 0.00086118 5.13093e-05)
(-2.39026e-06 0.000882117 4.91875e-05)
(-2.13999e-06 0.000898693 4.69643e-05)
(-1.8573e-06 0.000912013 4.47241e-05)
(-1.55555e-06 0.000922611 4.24288e-05)
(-1.25439e-06 0.000931179 4.01661e-05)
(-9.62349e-07 0.000937935 3.78941e-05)
(-7.02457e-07 0.000943323 3.57374e-05)
(-4.83036e-07 0.000947377 3.36572e-05)
(-3.22214e-07 0.000950423 3.1727e-05)
(-2.12496e-07 0.000952381 2.98501e-05)
(-1.68411e-07 0.000953444 2.8117e-05)
(-1.90011e-07 0.000953417 2.64737e-05)
(-2.74728e-07 0.000952394 2.49955e-05)
(-4.2161e-07 0.000950062 2.36156e-05)
(-6.23192e-07 0.000946382 2.23974e-05)
(-8.70594e-07 0.000940879 2.1262e-05)
(-1.15004e-06 0.000933302 2.02637e-05)
(-1.45081e-06 0.00092291 1.93148e-05)
(-1.74871e-06 0.000909095 1.84566e-05)
(-2.02196e-06 0.000890653 1.75837e-05)
(-2.24549e-06 0.000866346 1.67199e-05)
(-2.39268e-06 0.000834149 1.57475e-05)
(-2.43496e-06 0.000791701 1.46333e-05)
(-2.32505e-06 0.000735513 1.29883e-05)
(-1.97409e-06 0.00066119 1.02527e-05)
(-1.36567e-06 0.000562617 6.82462e-06)
(-8.3719e-07 0.000347728 7.50867e-06)
(-1.61941e-06 0.000322191 4.82203e-05)
(-2.51797e-06 0.000521866 5.99308e-05)
(-3.46578e-06 0.000614768 6.32123e-05)
(-4.57826e-06 0.000686045 6.47804e-05)
(-5.47456e-06 0.00074094 6.54254e-05)
(-6.18786e-06 0.000783618 6.54385e-05)
(-6.75095e-06 0.00081693 6.49521e-05)
(-7.18953e-06 0.000843255 6.41636e-05)
(-7.50549e-06 0.00086411 6.31335e-05)
(-7.71395e-06 0.000880887 6.19904e-05)
(-7.8159e-06 0.000894362 6.07373e-05)
(-7.83051e-06 0.000905376 5.94713e-05)
(-7.75915e-06 0.000914289 5.81714e-05)
(-7.6197e-06 0.000921631 5.69205e-05)
(-7.4183e-06 0.000927522 5.56815e-05)
(-7.16589e-06 0.000932307 5.45259e-05)
(-6.87123e-06 0.000935935 5.34265e-05)
(-6.54816e-06 0.000938621 5.246e-05)
(-6.19853e-06 0.000940227 5.15667e-05)
(-5.83017e-06 0.000940875 5.08048e-05)
(-5.44679e-06 0.000940318 5.01093e-05)
(-5.05538e-06 0.000938564 4.95296e-05)
(-4.65489e-06 0.000935233 4.89929e-05)
(-4.24511e-06 0.00093017 4.85387e-05)
(-3.8287e-06 0.00092279 4.80829e-05)
(-3.40178e-06 0.000912676 4.76525e-05)
(-2.96453e-06 0.000898896 4.71456e-05)
(-2.5154e-06 0.000880578 4.65634e-05)
(-2.05704e-06 0.000856185 4.57719e-05)
(-1.59034e-06 0.000824034 4.47255e-05)
(-1.13375e-06 0.000781508 4.32024e-05)
(-7.02059e-07 0.000725475 4.09089e-05)
(-3.14919e-07 0.000651368 3.71736e-05)
(5.73227e-08 0.000553453 3.18355e-05)
(2.02119e-07 0.000340344 2.34213e-05)
(-1.80449e-06 0.000311522 4.01147e-05)
(-2.93421e-06 0.000506405 5.56425e-05)
(-4.13011e-06 0.000597075 6.18901e-05)
(-5.53627e-06 0.000666505 6.56142e-05)
(-6.71281e-06 0.000720046 6.77033e-05)
(-7.66826e-06 0.000761521 6.87299e-05)
(-8.46252e-06 0.000793971 6.90987e-05)
(-9.1025e-06 0.000819461 6.89977e-05)
(-9.60414e-06 0.000839745 6.8621e-05)
(-9.95916e-06 0.000855913 6.80344e-05)
(-1.01845e-05 0.000869002 6.73573e-05)
(-1.02779e-05 0.000879555 6.66034e-05)
(-1.02537e-05 0.000888205 6.58595e-05)
(-1.01137e-05 0.000895187 6.51147e-05)
(-9.87551e-06 0.000900897 6.44393e-05)
(-9.53385e-06 0.000905385 6.38077e-05)
(-9.11035e-06 0.000908902 6.32787e-05)
(-8.61032e-06 0.00091137 6.28154e-05)
(-8.04563e-06 0.000912934 6.24658e-05)
(-7.42599e-06 0.000913414 6.21815e-05)
(-6.76376e-06 0.000912853 6.19998e-05)
(-6.06292e-06 0.00091096 6.18618e-05)
(-5.33703e-06 0.00090765 6.17938e-05)
(-4.59333e-06 0.000902476 6.17253e-05)
(-3.83747e-06 0.000895155 6.16695e-05)
(-3.07842e-06 0.00088499 6.15399e-05)
(-2.32438e-06 0.00087137 6.13278e-05)
(-1.58919e-06 0.000853163 6.09166e-05)
(-8.84511e-07 0.000829178 6.02517e-05)
(-2.36792e-07 0.000797518 5.91538e-05)
(3.27756e-07 0.000755953 5.74549e-05)
(7.48114e-07 0.000701219 5.47418e-05)
(9.62713e-07 0.000629215 5.04095e-05)
(1.0429e-06 0.000534217 4.38368e-05)
(8.57774e-07 0.000328086 3.01107e-05)
(-1.57622e-06 0.000302543 3.01042e-05)
(-2.65652e-06 0.000491869 4.49687e-05)
(-3.79182e-06 0.00057985 5.15291e-05)
(-5.15154e-06 0.000647247 5.56059e-05)
(-6.30374e-06 0.000699082 5.79087e-05)
(-7.26548e-06 0.000739251 5.91431e-05)
(-8.06243e-06 0.000770501 5.96779e-05)
(-8.71898e-06 0.000795058 5.97744e-05)
(-9.22517e-06 0.000814408 5.95565e-05)
(-9.5904e-06 0.000829846 5.91646e-05)
(-9.80875e-06 0.00084215 5.86482e-05)
(-9.89492e-06 0.000852094 5.80982e-05)
(-9.84252e-06 0.000860061 5.75294e-05)
(-9.66962e-06 0.000866524 5.70083e-05)
(-9.37573e-06 0.000871634 5.65313e-05)
(-8.97947e-06 0.000875684 5.61502e-05)
(-8.4864e-06 0.000878677 5.58479e-05)
(-7.91412e-06 0.000880787 5.56636e-05)
(-7.27019e-06 0.000881908 5.55679e-05)
(-6.57153e-06 0.000882113 5.55882e-05)
(-5.82746e-06 0.000881194 5.5683e-05)
(-5.055e-06 0.000879117 5.58679e-05)
(-4.26574e-06 0.000875547 5.60897e-05)
(-3.47037e-06 0.0008703 5.63514e-05)
(-2.68211e-06 0.000862854 5.65866e-05)
(-1.91091e-06 0.000852782 5.67821e-05)
(-1.1708e-06 0.000839253 5.68509e-05)
(-4.75577e-07 0.000821424 5.67499e-05)
(1.54666e-07 0.000797917 5.63498e-05)
(7.05199e-07 0.000767159 5.55436e-05)
(1.13743e-06 0.000726799 5.40979e-05)
(1.40131e-06 0.000673948 5.16997e-05)
(1.42014e-06 0.000604512 4.77428e-05)
(1.31039e-06 0.000513233 4.15999e-05)
(9.80202e-07 0.000315416 2.76531e-05)
(-1.01409e-06 0.000296515 1.72463e-05)
(-1.82599e-06 0.000481655 2.71493e-05)
(-2.70762e-06 0.00056769 3.17941e-05)
(-3.80591e-06 0.000633465 3.46462e-05)
(-4.7975e-06 0.000684042 3.61656e-05)
(-5.64999e-06 0.00072306 3.6859e-05)
(-6.38882e-06 0.000753382 3.70441e-05)
(-7.00003e-06 0.000777009 3.68773e-05)
(-7.48783e-06 0.000795586 3.64925e-05)
(-7.83849e-06 0.000810201 3.59595e-05)
(-8.05642e-06 0.000821817 3.53648e-05)
(-8.13509e-06 0.000831009 3.47426e-05)
(-8.08541e-06 0.000838355 3.41551e-05)
(-7.90964e-06 0.000844131 3.36175e-05)
(-7.62174e-06 0.000848692 3.31773e-05)
(-7.22852e-06 0.000852134 3.28361e-05)
(-6.74995e-06 0.000854665 3.26284e-05)
(-6.19015e-06 0.00085626 3.25433e-05)
(-5.57561e-06 0.00085702 3.26019e-05)
(-4.91968e-06 0.000856817 3.27811e-05)
(-4.23647e-06 0.000855651 3.30889e-05)
(-3.54126e-06 0.000853284 3.34895e-05)
(-2.84951e-06 0.000849593 3.39789e-05)
(-2.17766e-06 0.000844193 3.45097e-05)
(-1.53557e-06 0.000836776 3.50654e-05)
(-9.3462e-07 0.000826727 3.55863e-05)
(-3.84134e-07 0.000813435 3.60399e-05)
(1.00733e-07 0.000795888 3.6347e-05)
(5.16194e-07 0.000772949 3.64459e-05)
(8.42921e-07 0.000742908 3.62171e-05)
(1.07312e-06 0.000703692 3.55288e-05)
(1.16457e-06 0.000652338 3.41313e-05)
(1.09158e-06 0.00058509 3.1644e-05)
(9.49366e-07 0.000496735 2.76034e-05)
(6.64882e-07 0.000305577 1.81007e-05)
(-2.96208e-07 0.000294997 3.3035e-06)
(-7.82472e-07 0.000479219 5.80901e-06)
(-1.31632e-06 0.000564737 7.262e-06)
(-2.08708e-06 0.000630078 8.02366e-06)
(-2.85893e-06 0.000680154 8.15327e-06)
(-3.58834e-06 0.000718719 7.90292e-06)
(-4.24304e-06 0.000748492 7.40199e-06)
(-4.81827e-06 0.000771617 6.73954e-06)
(-5.28412e-06 0.000789595 5.96381e-06)
(-5.63832e-06 0.000803668 5.13619e-06)
(-5.86715e-06 0.000814658 4.29268e-06)
(-5.97322e-06 0.0008233 3.48411e-06)
(-5.95306e-06 0.00083003 2.73658e-06)
(-5.81922e-06 0.000835288 2.09123e-06)
(-5.57689e-06 0.000839281 1.56531e-06)
(-5.24171e-06 0.000842271 1.19032e-06)
(-4.82657e-06 0.000844316 9.71876e-07)
(-4.35012e-06 0.000845554 9.28478e-07)
(-3.83026e-06 0.000845932 1.05286e-06)
(-3.285e-06 0.000845483 1.35026e-06)
(-2.733e-06 0.000844051 1.80023e-06)
(-2.19207e-06 0.000841555 2.39487e-06)
(-1.67569e-06 0.000837715 3.10186e-06)
(-1.20009e-06 0.000832302 3.90281e-06)
(-7.78429e-07 0.000824853 4.75736e-06)
(-4.12185e-07 0.000814908 5.63857e-06)
(-1.15605e-07 0.000801706 6.49912e-06)
(1.14723e-07 0.000784397 7.30623e-06)
(2.73864e-07 0.000761704 8.00619e-06)
(3.70155e-07 0.000732087 8.55878e-06)
(4.02709e-07 0.000693357 8.89563e-06)
(3.75505e-07 0.000642736 8.94304e-06)
(2.98925e-07 0.000576398 8.56261e-06)
(2.521e-07 0.000489339 7.65534e-06)
(1.11874e-07 0.000300991 5.26766e-06)
(3.49864e-07 0.00029853 -9.173e-06)
(1.51862e-07 0.000485424 -1.40434e-05)
(-5.81114e-08 0.000572129 -1.58237e-05)
(-5.21734e-07 0.000638216 -1.72016e-05)
(-1.10494e-06 0.000688765 -1.8476e-05)
(-1.71409e-06 0.000727506 -1.96983e-05)
(-2.30878e-06 0.000757313 -2.08945e-05)
(-2.84856e-06 0.00078027 -2.20832e-05)
(-3.31439e-06 0.000798022 -2.32617e-05)
(-3.67909e-06 0.000811733 -2.44178e-05)
(-3.93894e-06 0.000822362 -2.55244e-05)
(-4.08043e-06 0.000830554 -2.65564e-05)
(-4.10929e-06 0.000836878 -2.74811e-05)
(-4.02995e-06 0.000841677 -2.82735e-05)
(-3.85279e-06 0.000845289 -2.89046e-05)
(-3.58739e-06 0.000847868 -2.93569e-05)
(-3.2565e-06 0.0008496 -2.96113e-05)
(-2.87559e-06 0.000850512 -2.96615e-05)
(-2.46349e-06 0.000850671 -2.95017e-05)
(-2.04113e-06 0.000849997 -2.91393e-05)
(-1.62842e-06 0.000848447 -2.85817e-05)
(-1.24476e-06 0.000845824 -2.78493e-05)
(-9.01493e-07 0.000841956 -2.69612e-05)
(-6.18324e-07 0.000836493 -2.59468e-05)
(-4.00108e-07 0.000829077 -2.48318e-05)
(-2.53968e-07 0.000819123 -2.36483e-05)
(-1.7892e-07 0.000805968 -2.24205e-05)
(-1.74517e-07 0.000788636 -2.11718e-05)
(-2.2439e-07 0.000765942 -1.99113e-05)
(-3.1886e-07 0.000736218 -1.86345e-05)
(-4.30278e-07 0.000697351 -1.73114e-05)
(-5.27243e-07 0.000646436 -1.58717e-05)
(-5.46371e-07 0.000579701 -1.41812e-05)
(-4.55162e-07 0.000492013 -1.19836e-05)
(-4.41377e-07 0.000302313 -7.12854e-06)
(7.82261e-07 0.000306649 -1.80236e-05)
(7.45131e-07 0.000499208 -2.84018e-05)
(7.72916e-07 0.000588445 -3.26542e-05)
(5.22244e-07 0.000656363 -3.56883e-05)
(8.87213e-08 0.000708134 -3.80676e-05)
(-4.32303e-07 0.000747701 -4.00607e-05)
(-9.67603e-07 0.000777961 -4.18222e-05)
(-1.47825e-06 0.000801156 -4.34394e-05)
(-1.92567e-06 0.000818916 -4.49564e-05)
(-2.29493e-06 0.000832536 -4.63855e-05)
(-2.56382e-06 0.000842938 -4.77198e-05)
(-2.72796e-06 0.00085088 -4.89409e-05)
(-2.78511e-06 0.000856878 -5.0025e-05)
(-2.74152e-06 0.000861381 -5.09464e-05)
(-2.60581e-06 0.000864662 -5.16807e-05)
(-2.39381e-06 0.000866974 -5.2207e-05)
(-2.12129e-06 0.000868429 -5.25092e-05)
(-1.80883e-06 0.000869145 -5.2578e-05)
(-1.47626e-06 0.000869112 -5.241e-05)
(-1.14576e-06 0.00086833 -5.20097e-05)
(-8.35914e-07 0.000866674 -5.13872e-05)
(-5.64035e-07 0.00086402 -5.05599e-05)
(-3.51631e-07 0.000860108 -4.95489e-05)
(-2.02995e-07 0.000854652 -4.83796e-05)
(-1.31873e-07 0.000847199 -4.70775e-05)
(-1.38625e-07 0.000837219 -4.56669e-05)
(-2.22923e-07 0.000823945 -4.41648e-05)
(-3.71376e-07 0.000806442 -4.25766e-05)
(-5.69182e-07 0.000783408 -4.08871e-05)
(-7.87999e-07 0.000753194 -3.90492e-05)
(-9.96259e-07 0.000713548 -3.69667e-05)
(-1.1294e-06 0.000661549 -3.44564e-05)
(-1.11195e-06 0.000593237 -3.11899e-05)
(-9.06602e-07 0.000503407 -2.66431e-05)
(-8.18564e-07 0.000308925 -1.63139e-05)
(9.33954e-07 0.00031783 -2.22998e-05)
(9.23086e-07 0.000517519 -3.51892e-05)
(1.05719e-06 0.000610002 -4.06014e-05)
(9.14026e-07 0.000680254 -4.44218e-05)
(5.58529e-07 0.000733692 -4.7329e-05)
(1.08528e-07 0.000774381 -4.96943e-05)
(-3.7087e-07 0.00080539 -5.17351e-05)
(-8.32677e-07 0.000829007 -5.35684e-05)
(-1.24409e-06 0.00084699 -5.52602e-05)
(-1.57672e-06 0.000860643 -5.68335e-05)
(-1.82251e-06 0.000870987 -5.8291e-05)
(-1.96991e-06 0.000878768 -5.96166e-05)
(-2.01638e-06 0.000884586 -6.07908e-05)
(-1.96778e-06 0.000888862 -6.17872e-05)
(-1.8347e-06 0.000891941 -6.25836e-05)
(-1.63064e-06 0.000894039 -6.31572e-05)
(-1.37666e-06 0.000895333 -6.34938e-05)
(-1.08735e-06 0.000895895 -6.35815e-05)
(-7.86334e-07 0.00089577 -6.34192e-05)
(-4.94036e-07 0.000894906 -6.30085e-05)
(-2.28782e-07 0.000893227 -6.23622e-05)
(-1.23861e-08 0.000890549 -6.14946e-05)
(1.42019e-07 0.000886649 -6.04294e-05)
(2.2059e-07 0.000881177 -5.91887e-05)
(2.20384e-07 0.000873705 -5.77992e-05)
(1.36354e-07 0.000863629 -5.62805e-05)
(-2.58565e-08 0.000850194 -5.46482e-05)
(-2.53978e-07 0.000832374 -5.28978e-05)
(-5.24383e-07 0.000808858 -5.10055e-05)
(-8.13977e-07 0.000777881 -4.89029e-05)
(-1.07888e-06 0.000737145 -4.64679e-05)
(-1.25527e-06 0.000683573 -4.34636e-05)
(-1.24038e-06 0.000613085 -3.94794e-05)
(-1.00731e-06 0.000520252 -3.38659e-05)
(-9.4799e-07 0.000319168 -2.10165e-05)
(8.4371e-07 0.000330195 -2.22177e-05)
(7.59929e-07 0.000537002 -3.45834e-05)
(8.82057e-07 0.000632719 -3.9817e-05)
(7.36261e-07 0.000705339 -4.35355e-05)
(4.09836e-07 0.000760455 -4.63783e-05)
(-2.06007e-09 0.000802325 -4.87087e-05)
(-4.31611e-07 0.000834106 -5.07302e-05)
(-8.38939e-07 0.000858215 -5.25582e-05)
(-1.19006e-06 0.000876452 -5.42504e-05)
(-1.47008e-06 0.000890213 -5.58313e-05)
(-1.661e-06 0.000900534 -5.72975e-05)
(-1.75551e-06 0.000908232 -5.86364e-05)
(-1.75452e-06 0.000913905 -5.9823e-05)
(-1.66363e-06 0.000918029 -6.08347e-05)
(-1.49182e-06 0.00092094 -6.16445e-05)
(-1.25644e-06 0.000922898 -6.22338e-05)
(-9.7259e-07 0.000924059 -6.25834e-05)
(-6.61837e-07 0.000924534 -6.26859e-05)
(-3.41395e-07 0.000924339 -6.25351e-05)
(-3.27988e-08 0.000923454 -6.21374e-05)
(2.41145e-07 0.000921764 -6.15007e-05)
(4.64458e-07 0.00091911 -6.06441e-05)
(6.21274e-07 0.000915226 -5.95865e-05)
(7.025e-07 0.000909774 -5.83551e-05)
(6.963e-07 0.000902275 -5.69726e-05)
(6.06224e-07 0.000892125 -5.54637e-05)
(4.32712e-07 0.000878506 -5.38405e-05)
(1.94121e-07 0.000860374 -5.21056e-05)
(-9.73685e-08 0.000836333 -5.02337e-05)
(-4.09315e-07 0.000804578 -4.81658e-05)
(-7.0756e-07 0.000762686 -4.5783e-05)
(-9.30129e-07 0.000707496 -4.28688e-05)
(-9.82108e-07 0.000634743 -3.90335e-05)
(-8.00946e-07 0.000538828 -3.36592e-05)
(-8.44822e-07 0.000330944 -2.13092e-05)
(5.79865e-07 0.000341826 -1.89855e-05)
(3.67862e-07 0.000554471 -2.84833e-05)
(3.89898e-07 0.000652856 -3.25038e-05)
(1.73405e-07 0.00072742 -3.54258e-05)
(-1.70287e-07 0.000783929 -3.77438e-05)
(-5.5846e-07 0.000826759 -3.97131e-05)
(-9.40944e-07 0.000859182 -4.14805e-05)
(-1.28582e-06 0.000883677 -4.31218e-05)
(-1.57007e-06 0.000902125 -4.46756e-05)
(-1.77388e-06 0.000915951 -4.61482e-05)
(-1.8876e-06 0.000926252 -4.75316e-05)
(-1.90646e-06 0.000933858 -4.88034e-05)
(-1.83224e-06 0.000939413 -4.99397e-05)
(-1.66999e-06 0.000943396 -5.09117e-05)
(-1.4309e-06 0.000946176 -5.16957e-05)
(-1.13008e-06 0.00094801 -5.2268e-05)
(-7.8676e-07 0.000949081 -5.26138e-05)
(-4.17884e-07 0.000949487 -5.27206e-05)
(-4.20971e-08 0.000949266 -5.25871e-05)
(3.1723e-07 0.000948376 -5.22148e-05)
(6.43113e-07 0.000946719 -5.16159e-05)
(9.13349e-07 0.000944107 -5.08057e-05)
(1.1181e-06 0.000940283 -4.98073e-05)
(1.24585e-06 0.000934875 -4.86449e-05)
(1.28474e-06 0.000927401 -4.73469e-05)
(1.23354e-06 0.000917214 -4.59372e-05)
(1.09801e-06 0.000903483 -4.44373e-05)
(8.86722e-07 0.000885108 -4.28553e-05)
(6.14404e-07 0.000860663 -4.11838e-05)
(3.04278e-07 0.000828264 -3.93831e-05)
(-1.2837e-08 0.000785429 -3.7375e-05)
(-2.9009e-07 0.000728883 -3.50037e-05)
(-4.4988e-07 0.00065425 -3.19951e-05)
(-3.91912e-07 0.000555758 -2.78692e-05)
(-5.7978e-07 0.000342223 -1.8363e-05)
(2.4827e-07 0.000351343 -1.40938e-05)
(-1.01899e-07 0.000567843 -1.94167e-05)
(-2.25737e-07 0.000667987 -2.16382e-05)
(-5.50347e-07 0.000743831 -2.33694e-05)
(-9.31245e-07 0.000801238 -2.4893e-05)
(-1.31053e-06 0.000844675 -2.63116e-05)
(-1.65294e-06 0.000877473 -2.76805e-05)
(-1.93877e-06 0.000902176 -2.90255e-05)
(-2.15032e-06 0.000920694 -3.03503e-05)
(-2.27438e-06 0.000934504 -3.16428e-05)
(-2.30619e-06 0.000944717 -3.28797e-05)
(-2.24054e-06 0.000952202 -3.40333e-05)
(-2.08187e-06 0.00095761 -3.50733e-05)
(-1.8391e-06 0.000961451 -3.59703e-05)
(-1.52072e-06 0.000964093 -3.66974e-05)
(-1.14546e-06 0.000965818 -3.72324e-05)
(-7.27537e-07 0.000966804 -3.75579e-05)
(-2.86953e-07 0.000967164 -3.76639e-05)
(1.57691e-07 0.000966928 -3.75463e-05)
(5.87279e-07 0.000966064 -3.72092e-05)
(9.80048e-07 0.000964458 -3.66626e-05)
(1.32056e-06 0.000961929 -3.59236e-05)
(1.59334e-06 0.000958196 -3.50142e-05)
(1.78799e-06 0.000952887 -3.39614e-05)
(1.89334e-06 0.000945492 -3.27943e-05)
(1.90499e-06 0.000935357 -3.15429e-05)
(1.82628e-06 0.000921614 -3.02348e-05)
(1.66408e-06 0.000903148 -2.88922e-05)
(1.42799e-06 0.000878484 -2.75271e-05)
(1.13463e-06 0.000845709 -2.61345e-05)
(8.05086e-07 0.000802277 -2.46867e-05)
(4.69689e-07 0.00074486 -2.31216e-05)
(1.83037e-07 0.000668986 -2.13226e-05)
(8.54655e-08 0.000568793 -1.90162e-05)
(-2.49779e-07 0.000351517 -1.36703e-05)
(-7.92038e-08 0.000357993 -8.96208e-06)
(-5.44117e-07 0.000576169 -9.8433e-06)
(-8.20961e-07 0.00067708 -1.01387e-05)
(-1.25432e-06 0.000753458 -1.05855e-05)
(-1.6768e-06 0.000811216 -1.12464e-05)
(-2.05194e-06 0.00085485 -1.20597e-05)
(-2.36156e-06 0.000887728 -1.29856e-05)
(-2.59652e-06 0.000912412 -1.39949e-05)
(-2.74423e-06 0.000930848 -1.50567e-05)
(-2.79684e-06 0.000944519 -1.61374e-05)
(-2.75051e-06 0.000954569 -1.72003e-05)
(-2.60765e-06 0.00096187 -1.82103e-05)