/*--------------------------------*- C++ -*----------------------------------*\
| =========                 |                                                 |
| \\      /  F ield         | OpenFOAM: The Open Source CFD Toolbox           |
|  \\    /   O peration     | Version:  v2012                                 |
|   \\  /    A nd           | Website:  www.openfoam.com                      |
|    \\/     M anipulation  |                                                 |
\*---------------------------------------------------------------------------*/
FoamFile
{
    version     2.0;
    format      ascii;
    class       volVectorField;
    location    "55";
    object      U;
}
// * * * * * * * * * * * * * * * * * * * * * * * * * * * * * * * * * * * * * //

dimensions      [0 1 -1 0 0 0 0];


internalField   nonuniform List<vector> 
78750
(
(-2.37741e-06 -8.20044e-05 0.000115582)
(-8.1351e-06 -0.000108153 0.000200782)
(-2.26563e-05 -0.000105336 0.000245137)
(-4.34691e-05 -9.07407e-05 0.000276613)
(-6.9859e-05 -7.00005e-05 0.000298198)
(-0.000100788 -4.63583e-05 0.000312228)
(-0.00013513 -2.22366e-05 0.000320222)
(-0.000171629 8.82284e-07 0.000323299)
(-0.000209159 2.18348e-05 0.000322101)
(-0.000246646 4.00984e-05 0.000317139)
(-0.000283146 5.52072e-05 0.000308636)
(-0.000317799 6.71478e-05 0.000296845)
(-0.000349856 7.58246e-05 0.000281858)
(-0.000378649 8.14543e-05 0.000263906)
(-0.000403648 8.40925e-05 0.000243124)
(-0.000424453 8.40447e-05 0.00021986)
(-0.000440495 8.14875e-05 0.000194695)
(-0.000451749 7.67161e-05 0.000167535)
(-0.000457857 6.99626e-05 0.000139132)
(-0.000458742 6.15567e-05 0.000110147)
(-0.000454388 5.16889e-05 8.11676e-05)
(-0.000444829 4.06558e-05 5.29525e-05)
(-0.000430191 2.86489e-05 2.61889e-05)
(-0.000410646 1.59509e-05 1.64898e-06)
(-0.000386443 2.78241e-06 -1.9968e-05)
(-0.000357882 -1.05417e-05 -3.796e-05)
(-0.000325324 -2.37109e-05 -5.17237e-05)
(-0.000289191 -3.62935e-05 -6.0727e-05)
(-0.000249994 -4.7789e-05 -6.4569e-05)
(-0.000208305 -5.75097e-05 -6.30627e-05)
(-0.000164616 -6.45903e-05 -5.63052e-05)
(-0.000119304 -6.78309e-05 -4.486e-05)
(-7.38583e-05 -6.55996e-05 -2.98428e-05)
(-3.70219e-05 -5.58336e-05 -1.35047e-05)
(-1.08189e-05 -3.09232e-05 4.84112e-06)
(-7.87693e-06 0.000184272 -0.000268264)
(-3.41779e-05 0.000371309 -0.000378655)
(-6.51246e-05 0.000466837 -0.000415072)
(-0.000109121 0.000540384 -0.000447802)
(-0.00015522 0.000594015 -0.0004751)
(-0.000200623 0.000629739 -0.000495912)
(-0.000244146 0.000650698 -0.000511323)
(-0.000284868 0.000658423 -0.000523183)
(-0.000322037 0.00065554 -0.00053198)
(-0.000354951 0.000643135 -0.000538638)
(-0.000383333 0.000623343 -0.000543265)
(-0.000406994 0.000596796 -0.000546577)
(-0.000425785 0.000565397 -0.000548515)
(-0.000439708 0.000529681 -0.000549613)
(-0.000448845 0.000491184 -0.000549744)
(-0.000453257 0.000450282 -0.000549312)
(-0.000453242 0.000407972 -0.000548321)
(-0.000448959 0.000364557 -0.000547064)
(-0.000440623 0.000321064 -0.000545336)
(-0.000428533 0.000277714 -0.000543321)
(-0.000412965 0.00023529 -0.000540805)
(-0.000394246 0.00019391 -0.00053793)
(-0.000372667 0.000154149 -0.000534483)
(-0.000348566 0.000116072 -0.00053041)
(-0.000322256 8.01005e-05 -0.000525385)
(-0.000294064 4.62849e-05 -0.000519193)
(-0.000264304 1.49523e-05 -0.000511321)
(-0.000233301 -1.38229e-05 -0.000501159)
(-0.000201388 -3.97372e-05 -0.000487653)
(-0.000168904 -6.26235e-05 -0.000469376)
(-0.000135998 -8.20369e-05 -0.000444208)
(-0.000102392 -9.73151e-05 -0.00040819)
(-6.83376e-05 -0.000106735 -0.000351701)
(-4.12354e-05 -0.000105912 -0.000262741)
(-2.14088e-05 -6.74164e-05 -8.46867e-05)
(-5.45029e-06 0.000405244 -0.000155907)
(-2.11662e-05 0.000699017 -0.000245425)
(-3.57084e-05 0.000825669 -0.000282039)
(-5.67285e-05 0.000912672 -0.000307062)
(-7.80195e-05 0.000967963 -0.000325476)
(-9.83739e-05 0.00099928 -0.000339495)
(-0.000117482 0.00101077 -0.000351082)
(-0.000135013 0.00100724 -0.000360734)
(-0.000150748 0.000990934 -0.000369436)
(-0.000164441 0.000965134 -0.000377072)
(-0.000176001 0.000931118 -0.000384174)
(-0.00018536 0.00089127 -0.000390437)
(-0.000192531 0.000846364 -0.000396201)
(-0.000197525 0.000798222 -0.000401135)
(-0.000200407 0.000747359 -0.000405476)
(-0.00020126 0.000695209 -0.000408931)
(-0.000200166 0.000642099 -0.00041183)
(-0.000197281 0.000589119 -0.000413911)
(-0.000192742 0.000536444 -0.000415355)
(-0.000186723 0.000485108 -0.000415824)
(-0.00017938 0.000435192 -0.000415498)
(-0.000170836 0.000387326 -0.000414207)
(-0.000161278 0.00034153 -0.000412082)
(-0.000150818 0.00029825 -0.000408953)
(-0.000139614 0.000257463 -0.000404861)
(-0.000127764 0.000219474 -0.000399558)
(-0.000115406 0.000184247 -0.000392892)
(-0.000102621 0.000151998 -0.000384364)
(-8.95337e-05 0.000122708 -0.000373373)
(-7.62309e-05 9.65674e-05 -0.000358802)
(-6.27665e-05 7.36088e-05 -0.000338983)
(-4.88983e-05 5.40729e-05 -0.000310722)
(-3.44062e-05 3.80299e-05 -0.00026839)
(-2.16454e-05 2.59915e-05 -0.000205586)
(-1.31669e-05 1.46263e-05 -6.81031e-05)
(-6.93685e-06 0.000506105 7.18095e-05)
(-1.61737e-05 0.000834641 3.69925e-05)
(-2.11735e-05 0.000978382 4.0496e-06)
(-2.85108e-05 0.00107741 -2.15043e-05)
(-3.51829e-05 0.00114195 -3.94482e-05)
(-4.12765e-05 0.00117898 -5.47938e-05)
(-4.68542e-05 0.00119481 -6.94092e-05)
(-5.19585e-05 0.00119327 -8.44168e-05)
(-5.6481e-05 0.00117851 -9.96793e-05)
(-6.03767e-05 0.00115269 -0.000115649)
(-6.35872e-05 0.0011187 -0.000131975)
(-6.61373e-05 0.00107777 -0.00014889)
(-6.79412e-05 0.00103208 -0.000165622)
(-6.90493e-05 0.000982422 -0.000182286)
(-6.94954e-05 0.000930407 -0.000198496)
(-6.9355e-05 0.000876525 -0.000214316)
(-6.85888e-05 0.000822356 -0.000229071)
(-6.73222e-05 0.000768212 -0.000242852)
(-6.56228e-05 0.00071502 -0.00025537)
(-6.3569e-05 0.000662923 -0.000266716)
(-6.1207e-05 0.000612632 -0.000276622)
(-5.86267e-05 0.00056419 -0.000285175)
(-5.58876e-05 0.000518112 -0.000292142)
(-5.30386e-05 0.000474165 -0.0002977)
(-5.01183e-05 0.000432661 -0.000301649)
(-4.71846e-05 0.000393463 -0.000304019)
(-4.42198e-05 0.000356676 -0.000304597)
(-4.12327e-05 0.000322071 -0.000303288)
(-3.81687e-05 0.000289653 -0.000299628)
(-3.49646e-05 0.000259037 -0.000293166)
(-3.14229e-05 0.000229838 -0.000283111)
(-2.71272e-05 0.00020137 -0.000268964)
(-2.13061e-05 0.000172771 -0.000250007)
(-1.46794e-05 0.000142983 -0.00022062)
(-1.01766e-05 8.98325e-05 -0.000122188)
(-8.8616e-06 0.000510855 0.000191173)
(-1.51668e-05 0.000811431 0.000191886)
(-1.54635e-05 0.000945157 0.000164104)
(-1.49848e-05 0.00104 0.00014065)
(-1.26065e-05 0.00110396 0.00012418)
(-9.22e-06 0.00114409 0.000109936)
(-5.28703e-06 0.00116484 9.52636e-05)
(-1.15976e-06 0.00117074 7.99233e-05)
(3.02184e-06 0.00116431 6.3586e-05)
(7.07456e-06 0.00114863 4.65701e-05)
(1.09275e-05 0.00112517 2.87852e-05)
(1.45258e-05 0.00109614 1.0704e-05)
(1.77133e-05 0.00106248 -8.02841e-06)
(2.04957e-05 0.0010258 -2.68921e-05)
(2.28256e-05 0.000986593 -4.57855e-05)
(2.46876e-05 0.000946104 -6.41598e-05)
(2.60393e-05 0.000904667 -8.19541e-05)
(2.6865e-05 0.000863287 -9.87938e-05)
(2.71552e-05 0.000822123 -0.000114665)
(2.6916e-05 0.000781885 -0.000129274)
(2.61272e-05 0.000742598 -0.000142646)
(2.48063e-05 0.000704749 -0.000154558)
(2.29401e-05 0.000668242 -0.000165067)
(2.05666e-05 0.000633354 -0.000174013)
(1.76843e-05 0.000599862 -0.00018147)
(1.43503e-05 0.000567825 -0.000187322)
(1.06146e-05 0.000536841 -0.000191645)
(6.58882e-06 0.000506685 -0.000194346)
(2.40098e-06 0.000476657 -0.000195443)
(-1.72862e-06 0.000445949 -0.000194816)
(-5.55627e-06 0.000413306 -0.000192494)
(-8.59789e-06 0.000377321 -0.000189425)
(-9.85805e-06 0.00033568 -0.000187958)
(-8.4242e-06 0.000285695 -0.000183099)
(-7.23291e-06 0.000183333 -0.000120874)
(-6.56722e-06 0.000481673 0.00021708)
(-9.18859e-06 0.000740504 0.00022683)
(-7.36317e-06 0.000857996 0.000202383)
(-3.65345e-06 0.000943408 0.000181064)
(1.89926e-06 0.00100431 0.00016655)
(8.37701e-06 0.00104539 0.000153949)
(1.52423e-05 0.00107127 0.000141163)
(2.21522e-05 0.0010846 0.00012758)
(2.88641e-05 0.00108838 0.000113289)
(3.51768e-05 0.00108414 9.81695e-05)
(4.09593e-05 0.00107396 8.24102e-05)
(4.60817e-05 0.00105871 6.60318e-05)
(5.0512e-05 0.00103983 4.94284e-05)
(5.41619e-05 0.00101786 3.26755e-05)
(5.70217e-05 0.000993956 1.61187e-05)
(5.90165e-05 0.000968428 -2.58513e-07)
(6.01711e-05 0.000942137 -1.61276e-05)
(6.0462e-05 0.000915215 -3.14132e-05)
(5.99168e-05 0.000888307 -4.58608e-05)
(5.85285e-05 0.000861436 -5.94357e-05)
(5.63364e-05 0.000835083 -7.19293e-05)
(5.33506e-05 0.000809135 -8.33556e-05)
(4.96336e-05 0.000783858 -9.35665e-05)
(4.52148e-05 0.000758993 -0.000102617)
(4.01778e-05 0.000734583 -0.000110407)
(3.45852e-05 0.000710167 -0.000117032)
(2.85668e-05 0.000685484 -0.000122448)
(2.22413e-05 0.000659737 -0.000126806)
(1.58134e-05 0.000632178 -0.000130093)
(9.48433e-06 0.000601429 -0.000132431)
(3.53508e-06 0.000565909 -0.000133979)
(-1.60353e-06 0.000523205 -0.000136314)
(-4.97871e-06 0.00047023 -0.000142468)
(-5.43889e-06 0.000402714 -0.000148308)
(-5.32629e-06 0.000258419 -0.000107589)
(-3.51374e-06 0.000433127 0.000182613)
(-3.51369e-06 0.000661576 0.000186679)
(-1.12641e-06 0.00076688 0.000164877)
(3.10007e-06 0.000845897 0.000146429)
(8.5465e-06 0.000904433 0.000134046)
(1.45631e-05 0.000947153 0.000123804)
(2.07866e-05 0.000977215 0.000113714)
(2.69843e-05 0.000997545 0.000103413)
(3.29603e-05 0.00100987 9.27183e-05)
(3.85588e-05 0.00101611 8.16762e-05)
(4.36569e-05 0.00101722 7.0216e-05)
(4.81624e-05 0.00101454 5.85043e-05)
(5.20011e-05 0.00100857 4.65475e-05)
(5.512e-05 0.0010003 3.45601e-05)
(5.74528e-05 0.000990006 2.2599e-05)
(5.9022e-05 0.000978413 1.09126e-05)
(5.97721e-05 0.000965643 -4.78511e-07)
(5.97222e-05 0.00095226 -1.13732e-05)
(5.88664e-05 0.000938241 -2.17531e-05)
(5.72351e-05 0.000923994 -3.14493e-05)
(5.48376e-05 0.00090938 -4.04754e-05)
(5.17256e-05 0.000894647 -4.86978e-05)
(4.79298e-05 0.000879517 -5.6164e-05)
(4.35214e-05 0.000864043 -6.27769e-05)
(3.85539e-05 0.000847748 -6.86193e-05)
(3.31302e-05 0.000830405 -7.36347e-05)
(2.73473e-05 0.000811224 -7.79487e-05)
(2.13502e-05 0.00078954 -8.15584e-05)
(1.52997e-05 0.000764001 -8.46234e-05)
(9.40251e-06 0.000733179 -8.71366e-05)
(3.89959e-06 0.000694716 -8.94244e-05)
(-8.26718e-07 0.000645847 -9.2739e-05)
(-3.99564e-06 0.000582393 -9.9861e-05)
(-4.64083e-06 0.00049918 -0.000107396)
(-4.38946e-06 0.000317727 -7.94412e-05)
(-1.62852e-06 0.000392053 0.000132377)
(-8.62483e-07 0.000607865 0.000131215)
(6.89231e-07 0.000708408 0.000114547)
(3.40209e-06 0.000784947 0.000100604)
(6.72715e-06 0.000843368 9.12241e-05)
(1.03549e-05 0.00088757 8.35276e-05)
(1.40878e-05 0.000921004 7.62333e-05)
(1.78266e-05 0.000945795 6.89246e-05)
(2.14523e-05 0.000964046 6.15807e-05)
(2.48758e-05 0.000976897 5.4077e-05)
(2.80127e-05 0.000985701 4.64797e-05)
(3.08027e-05 0.000991051 3.87426e-05)
(3.31861e-05 0.000993874 3.09981e-05)
(3.51175e-05 0.000994452 2.32483e-05)
(3.65767e-05 0.000993456 1.56635e-05)
(3.7501e-05 0.000990984 8.2207e-06)
(3.79132e-05 0.00098753 1.09614e-06)
(3.77863e-05 0.000983051 -5.72848e-06)
(3.71256e-05 0.000977911 -1.21118e-05)
(3.59331e-05 0.000971953 -1.80949e-05)
(3.42313e-05 0.00096541 -2.35583e-05)
(3.20345e-05 0.000957999 -2.8569e-05)
(2.93867e-05 0.000949789 -3.30307e-05)
(2.63243e-05 0.000940322 -3.70371e-05)
(2.29051e-05 0.000929434 -4.05152e-05)
(1.91959e-05 0.000916391 -4.35857e-05)
(1.52865e-05 0.000900649 -4.62054e-05)
(1.12773e-05 0.000881002 -4.85301e-05)
(7.29991e-06 0.000856256 -5.05355e-05)
(3.50531e-06 0.000824371 -5.23632e-05)
(7.71079e-08 0.000783001 -5.40955e-05)
(-2.70547e-06 0.000728626 -5.67217e-05)
(-4.30653e-06 0.000656816 -6.19913e-05)
(-4.25803e-06 0.00056139 -6.75619e-05)
(-3.48624e-06 0.000352355 -4.82837e-05)
(-1.17451e-06 0.000362961 9.26207e-05)
(-8.60772e-07 0.000576667 9.31722e-05)
(-5.03845e-07 0.00067634 8.3857e-05)
(3.07991e-07 0.000752897 7.57947e-05)
(1.43791e-06 0.000811773 7.00911e-05)
(2.75002e-06 0.000857368 6.52847e-05)
(4.17021e-06 0.000892625 6.06009e-05)
(5.6596e-06 0.000920118 5.59472e-05)
(7.16792e-06 0.000941408 5.1228e-05)
(8.64859e-06 0.000958059 4.65095e-05)
(1.00587e-05 0.000970871 4.17278e-05)
(1.13585e-05 0.000980845 3.6994e-05)
(1.25157e-05 0.000988354 3.22698e-05)
(1.34974e-05 0.000994077 2.76867e-05)
(1.42634e-05 0.000998136 2.32156e-05)
(1.48072e-05 0.00100103 1.89617e-05)
(1.51032e-05 0.00100271 1.48802e-05)
(1.51507e-05 0.00100353 1.10922e-05)
(1.49231e-05 0.00100333 7.57507e-06)
(1.44284e-05 0.00100233 4.43203e-06)
(1.36663e-05 0.00100026 1.57051e-06)
(1.26439e-05 0.000997214 -9.18728e-07)
(1.13824e-05 0.000992757 -3.14606e-06)
(9.90605e-06 0.000986798 -5.03889e-06)
(8.24371e-06 0.000978676 -6.72506e-06)
(6.44364e-06 0.000968002 -8.15035e-06)
(4.55874e-06 0.000953731 -9.46346e-06)
(2.65156e-06 0.000934966 -1.06341e-05)
(8.01876e-07 0.00090999 -1.18247e-05)
(-8.98458e-07 0.000877011 -1.30022e-05)
(-2.34267e-06 0.000833114 -1.43986e-05)
(-3.37619e-06 0.000774911 -1.65152e-05)
(-3.69989e-06 0.000697321 -2.06066e-05)
(-3.1653e-06 0.000594086 -2.51938e-05)
(-2.26638e-06 0.000367715 -1.62477e-05)
(-1.60267e-06 0.000343965 6.82517e-05)
(-2.15515e-06 0.000557476 7.5847e-05)
(-2.9074e-06 0.000657057 7.44424e-05)
(-3.66386e-06 0.000733458 7.22749e-05)
(-4.18315e-06 0.000792501 7.03733e-05)
(-4.4948e-06 0.000838294 6.82863e-05)
(-4.65288e-06 0.000874186 6.59508e-05)
(-4.66157e-06 0.00090237 6.33427e-05)
(-4.54421e-06 0.000924811 6.06118e-05)
(-4.31333e-06 0.000942647 5.77407e-05)
(-3.99441e-06 0.000957079 5.48613e-05)
(-3.60519e-06 0.000968658 5.19464e-05)
(-3.17045e-06 0.000978154 4.91278e-05)
(-2.71025e-06 0.000985783 4.63691e-05)
(-2.24323e-06 0.000992064 4.3794e-05)
(-1.80052e-06 0.000996994 4.13931e-05)
(-1.3978e-06 0.00100094 3.92883e-05)
(-1.06169e-06 0.00100377 3.74129e-05)
(-7.89022e-07 0.00100578 3.5798e-05)
(-5.97395e-07 0.0010067 3.43671e-05)
(-4.93899e-07 0.00100665 3.32101e-05)
(-4.76581e-07 0.00100526 3.22208e-05)
(-5.48449e-07 0.00100248 3.14651e-05)
(-6.98716e-07 0.000997762 3.08166e-05)
(-9.15803e-07 0.000990837 3.03208e-05)
(-1.1818e-06 0.00098085 2.98326e-05)
(-1.47446e-06 0.000967153 2.93748e-05)
(-1.76505e-06 0.000948389 2.87779e-05)
(-2.02488e-06 0.00092323 2.80368e-05)
(-2.21829e-06 0.000889434 2.69583e-05)
(-2.31068e-06 0.000844461 2.54516e-05)
(-2.25188e-06 0.000784491 2.29628e-05)
(-1.94697e-06 0.000704781 1.8698e-05)
(-1.37462e-06 0.000598679 1.30061e-05)
(-7.92679e-07 0.000366789 1.03234e-05)
(-2.15161e-06 0.000330167 5.43954e-05)
(-3.41633e-06 0.000540932 6.98548e-05)
(-4.8841e-06 0.000638975 7.47962e-05)
(-6.59368e-06 0.000714224 7.73275e-05)
(-8.01696e-06 0.000772176 7.83927e-05)
(-9.18499e-06 0.000817241 7.84785e-05)
(-1.01307e-05 0.000852406 7.78144e-05)
(-1.08756e-05 0.000880207 7.66845e-05)
(-1.14151e-05 0.000902229 7.51911e-05)
(-1.17637e-05 0.000919977 7.35245e-05)
(-1.19224e-05 0.000934256 7.17147e-05)
(-1.19113e-05 0.000945997 6.99104e-05)
(-1.17367e-05 0.000955566 6.81083e-05)
(-1.14251e-05 0.000963566 6.64345e-05)
(-1.09841e-05 0.000970106 6.48627e-05)
(-1.04452e-05 0.000975592 6.34974e-05)
(-9.81968e-06 0.000979965 6.22881e-05)
(-9.13635e-06 0.000983482 6.13272e-05)
(-8.41244e-06 0.000985932 6.05717e-05)
(-7.66612e-06 0.000987473 6.00818e-05)
(-6.91115e-06 0.000987801 5.97632e-05)
(-6.16272e-06 0.00098694 5.96611e-05)
(-5.4274e-06 0.000984433 5.96613e-05)
(-4.71559e-06 0.000980125 5.97909e-05)
(-4.03347e-06 0.000973333 5.99158e-05)
(-3.3774e-06 0.000963615 6.00417e-05)
(-2.74919e-06 0.000949918 6.0009e-05)
(-2.15241e-06 0.000931312 5.97892e-05)
(-1.58344e-06 0.000906094 5.91803e-05)
(-1.04544e-06 0.000872473 5.80937e-05)
(-5.56057e-07 0.000827594 5.62128e-05)
(-1.4205e-07 0.000768119 5.31302e-05)
(1.62675e-07 0.000689114 4.7943e-05)
(4.15629e-07 0.000584454 4.03832e-05)
(4.78377e-07 0.000356194 2.76866e-05)
(-2.35226e-06 0.000318785 4.29841e-05)
(-3.92638e-06 0.000523584 6.25106e-05)
(-5.69065e-06 0.000618789 7.08341e-05)
(-7.75785e-06 0.000691628 7.58293e-05)
(-9.52901e-06 0.000747737 7.85211e-05)
(-1.09975e-05 0.000791111 7.97128e-05)
(-1.22274e-05 0.000824969 7.99564e-05)
(-1.32165e-05 0.000851473 7.95161e-05)
(-1.39749e-05 0.000872501 7.86581e-05)
(-1.44895e-05 0.000889196 7.74942e-05)
(-1.47771e-05 0.000902689 7.62017e-05)
(-1.48306e-05 0.000913554 7.48283e-05)
(-1.46768e-05 0.000922499 7.35084e-05)
(-1.43192e-05 0.000929768 7.22552e-05)
(-1.37844e-05 0.00093582 7.11763e-05)
(-1.30816e-05 0.000940696 7.02588e-05)
(-1.22466e-05 0.000944694 6.95861e-05)
(-1.1294e-05 0.000947711 6.91211e-05)
(-1.02541e-05 0.000949925 6.89225e-05)
(-9.15009e-06 0.00095111 6.89271e-05)
(-8.00943e-06 0.000951324 6.91688e-05)
(-6.85093e-06 0.000950215 6.95593e-05)
(-5.70276e-06 0.000947695 7.01087e-05)
(-4.5774e-06 0.000943237 7.07057e-05)
(-3.48966e-06 0.00093654 7.13363e-05)
(-2.45699e-06 0.000926805 7.18643e-05)
(-1.48918e-06 0.00091338 7.22451e-05)
(-6.03149e-07 0.000895009 7.23042e-05)
(1.8979e-07 0.000870425 7.19412e-05)
(8.66683e-07 0.000837567 7.09064e-05)
(1.39852e-06 0.000794077 6.89598e-05)
(1.71436e-06 0.000736447 6.55572e-05)
(1.73657e-06 0.000660353 5.98942e-05)
(1.59086e-06 0.000559693 5.12093e-05)
(1.22417e-06 0.0003409 3.31832e-05)
(-1.99603e-06 0.00030994 2.92776e-05)
(-3.48088e-06 0.000508196 4.71182e-05)
(-5.14957e-06 0.00060018 5.54271e-05)
(-7.15479e-06 0.000670517 6.05698e-05)
(-8.89701e-06 0.000724455 6.33014e-05)
(-1.03796e-05 0.000766088 6.45526e-05)
(-1.16232e-05 0.000798291 6.48124e-05)
(-1.26399e-05 0.000823428 6.44256e-05)
(-1.34018e-05 0.00084306 6.357e-05)
(-1.39199e-05 0.000858589 6.24472e-05)
(-1.41783e-05 0.000870846 6.11532e-05)
(-1.41942e-05 0.00088069 5.98317e-05)
(-1.39666e-05 0.000888533 5.85361e-05)
(-1.35214e-05 0.000894922 5.73768e-05)
(-1.28665e-05 0.000900018 5.63782e-05)
(-1.2039e-05 0.000904169 5.56234e-05)
(-1.10568e-05 0.000907373 5.511e-05)
(-9.95885e-06 0.00090984 5.48931e-05)
(-8.76794e-06 0.000911436 5.49419e-05)
(-7.52304e-06 0.000912253 5.52824e-05)
(-6.25361e-06 0.000912036 5.58556e-05)
(-4.99039e-06 0.000910748 5.66594e-05)
(-3.75889e-06 0.000907989 5.7608e-05)
(-2.58435e-06 0.000903553 5.86734e-05)
(-1.4895e-06 0.000896835 5.97454e-05)
(-4.92079e-07 0.000887367 6.07701e-05)
(3.91552e-07 0.000874213 6.16086e-05)
(1.14863e-06 0.00085647 6.21705e-05)
(1.76222e-06 0.000832633 6.22676e-05)
(2.22038e-06 0.000801031 6.17405e-05)
(2.48881e-06 0.000759149 6.02795e-05)
(2.51808e-06 0.000703942 5.74695e-05)
(2.2369e-06 0.000631078 5.25215e-05)
(1.83372e-06 0.000535027 4.47409e-05)
(1.2862e-06 0.000326447 2.76347e-05)
(-1.23028e-06 0.000305221 1.23538e-05)
(-2.36875e-06 0.000499214 2.33065e-05)
(-3.71977e-06 0.000589156 2.89133e-05)
(-5.40916e-06 0.000657695 3.22925e-05)
(-6.97605e-06 0.00071015 3.38622e-05)
(-8.35536e-06 0.000750328 3.42895e-05)
(-9.55785e-06 0.000781266 3.39527e-05)
(-1.05444e-05 0.000805078 3.30621e-05)
(-1.13051e-05 0.000823535 3.18142e-05)
(-1.18107e-05 0.000837802 3.03269e-05)
(-1.20659e-05 0.000848948 2.87427e-05)
(-1.20592e-05 0.000857603 2.71462e-05)
(-1.18094e-05 0.000864431 2.56484e-05)
(-1.1323e-05 0.000869747 2.43078e-05)
(-1.06307e-05 0.000873971 2.3211e-05)
(-9.75362e-06 0.000877216 2.23894e-05)
(-8.73129e-06 0.000879739 2.19014e-05)
(-7.59526e-06 0.000881506 2.17485e-05)
(-6.38964e-06 0.000882643 2.19572e-05)
(-5.14728e-06 0.000882991 2.24976e-05)
(-3.90784e-06 0.00088255 2.33638e-05)
(-2.71078e-06 0.000881028 2.44953e-05)
(-1.58562e-06 0.00087828 2.58569e-05)
(-5.61283e-07 0.000873844 2.73617e-05)
(3.39289e-07 0.000867369 2.89498e-05)
(1.09656e-06 0.000858143 3.05125e-05)
(1.70114e-06 0.000845493 3.19676e-05)
(2.13994e-06 0.000828292 3.31835e-05)
(2.41747e-06 0.000805314 3.40473e-05)
(2.52551e-06 0.000774707 3.43912e-05)
(2.47131e-06 0.000734275 3.40291e-05)
(2.22185e-06 0.00068086 3.26364e-05)
(1.77847e-06 0.000610519 2.97089e-05)
(1.31664e-06 0.000517747 2.48194e-05)
(8.25098e-07 0.000316542 1.41137e-05)
(-3.36867e-07 0.000306461 -4.98997e-06)
(-1.09207e-06 0.000500663 -3.40302e-06)
(-2.03848e-06 0.000590534 -1.82928e-06)
(-3.37071e-06 0.000658889 -1.13553e-06)
(-4.72079e-06 0.000710912 -1.44006e-06)
(-5.99206e-06 0.00075058 -2.39979e-06)
(-7.12834e-06 0.000780783 -3.79531e-06)
(-8.09752e-06 0.00080383 -5.49712e-06)
(-8.84942e-06 0.000821344 -7.42876e-06)
(-9.36817e-06 0.000834701 -9.47715e-06)
(-9.63112e-06 0.000844814 -1.15561e-05)
(-9.64043e-06 0.000852526 -1.35632e-05)
(-9.39718e-06 0.000858342 -1.54201e-05)
(-8.9245e-06 0.000862791 -1.70393e-05)
(-8.24225e-06 0.000866124 -1.83618e-05)
(-7.38588e-06 0.000868665 -1.9323e-05)
(-6.3895e-06 0.000870494 -1.98911e-05)
(-5.29672e-06 0.000871779 -2.00327e-05)
(-4.15029e-06 0.000872462 -1.97494e-05)
(-2.99599e-06 0.000872577 -1.90428e-05)
(-1.87377e-06 0.000871932 -1.79485e-05)
(-8.25529e-07 0.00087042 -1.65021e-05)
(1.10725e-07 0.000867697 -1.47693e-05)
(9.10011e-07 0.000863482 -1.28129e-05)
(1.5453e-06 0.00085722 -1.07207e-05)
(2.00576e-06 0.000848378 -8.57241e-06)
(2.2807e-06 0.000836081 -6.4678e-06)
(2.37666e-06 0.000819379 -4.49226e-06)
(2.30051e-06 0.000796858 -2.74608e-06)
(2.08087e-06 0.000766849 -1.30806e-06)
(1.73308e-06 0.000726985 -2.80019e-07)
(1.29353e-06 0.000674306 2.24049e-07)
(8.09357e-07 0.000604742 4.97411e-09)
(4.48297e-07 0.000513002 -8.88332e-07)
(1.18809e-07 0.000313886 -2.38095e-06)
(4.35283e-07 0.000314244 -1.99155e-05)
(6.02078e-10 0.000513262 -2.73272e-05)
(-5.74546e-07 0.000605217 -2.96927e-05)
(-1.56455e-06 0.000674864 -3.16167e-05)
(-2.71469e-06 0.000727639 -3.3646e-05)
(-3.87027e-06 0.000767548 -3.58068e-05)
(-4.95844e-06 0.000797705 -3.81054e-05)
(-5.9052e-06 0.000820379 -4.05356e-05)
(-6.66905e-06 0.000837391 -4.30634e-05)
(-7.20595e-06 0.000850044 -4.56294e-05)
(-7.5038e-06 0.000859437 -4.81547e-05)
(-7.54557e-06 0.000866324 -5.05571e-05)
(-7.3434e-06 0.000871384 -5.27501e-05)
(-6.90878e-06 0.000875041 -5.46556e-05)
(-6.27176e-06 0.000877713 -5.62001e-05)
(-5.46304e-06 0.000879607 -5.73267e-05)
(-4.52738e-06 0.000880959 -5.79897e-05)
(-3.50581e-06 0.000881812 -5.81642e-05)
(-2.44906e-06 0.00088225 -5.78402e-05)
(-1.40199e-06 0.000882171 -5.70294e-05)
(-4.10661e-07 0.000881516 -5.57591e-05)
(4.7837e-07 0.000880033 -5.40759e-05)
(1.23215e-06 0.000877496 -5.20393e-05)
(1.8175e-06 0.00087347 -4.97221e-05)
(2.2182e-06 0.000867512 -4.72041e-05)
(2.41452e-06 0.000858924 -4.457e-05)
(2.41573e-06 0.000846932 -4.19017e-05)
(2.22666e-06 0.000830415 -3.92727e-05)
(1.87832e-06 0.000808046 -3.67392e-05)
(1.39889e-06 0.000777976 -3.43259e-05)
(8.49206e-07 0.000737901 -3.20243e-05)
(2.91422e-07 0.000684673 -2.97755e-05)
(-1.57843e-07 0.00061424 -2.74589e-05)
(-3.6701e-07 0.000521108 -2.45853e-05)
(-5.39454e-07 0.000318822 -1.7249e-05)
(9.14425e-07 0.000327521 -2.95191e-05)
(6.38846e-07 0.000534847 -4.31938e-05)
(3.35976e-07 0.00063048 -4.84025e-05)
(-4.18627e-07 0.000702728 -5.22671e-05)
(-1.40421e-06 0.00075719 -5.56271e-05)
(-2.46086e-06 0.000798155 -5.8751e-05)
(-3.48162e-06 0.000828804 -6.1785e-05)
(-4.39351e-06 0.00085162 -6.48015e-05)
(-5.13343e-06 0.000868437 -6.78157e-05)
(-5.66795e-06 0.000880732 -7.07953e-05)
(-5.96383e-06 0.000889584 -7.36788e-05)
(-6.01936e-06 0.000895895 -7.63918e-05)
(-5.83372e-06 0.000900305 -7.88516e-05)
(-5.42293e-06 0.00090337 -8.09803e-05)
(-4.81416e-06 0.000905451 -8.27041e-05)
(-4.0447e-06 0.000906874 -8.39643e-05)
(-3.15384e-06 0.000907801 -8.47134e-05)
(-2.18927e-06 0.000908383 -8.49255e-05)
(-1.20175e-06 0.000908615 -8.45895e-05)
(-2.38976e-07 0.000908491 -8.37177e-05)
(6.52223e-07 0.000907848 -8.23369e-05)
(1.42591e-06 0.000906515 -8.04964e-05)
(2.04297e-06 0.000904152 -7.82546e-05)
(2.4782e-06 0.000900389 -7.56874e-05)
(2.7079e-06 0.000894656 -7.28718e-05)
(2.72884e-06 0.000886304 -6.98915e-05)
(2.5391e-06 0.000874417 -6.68188e-05)
(2.16215e-06 0.000857904 -6.37146e-05)
(1.62943e-06 0.000835273 -6.06064e-05)
(9.92086e-07 0.000804675 -5.74768e-05)
(3.10022e-07 0.000763609 -5.42421e-05)
(-3.14232e-07 0.000708872 -5.07212e-05)
(-7.44155e-07 0.000636151 -4.65738e-05)
(-8.35382e-07 0.000539811 -4.10087e-05)
(-9.5762e-07 0.000330267 -2.74048e-05)
(1.04012e-06 0.000344265 -3.32697e-05)
(7.64758e-07 0.000561386 -4.94337e-05)
(5.71407e-07 0.000661429 -5.58338e-05)
(-7.32873e-08 0.000736794 -6.05267e-05)
(-9.73397e-07 0.000793407 -6.44614e-05)
(-1.9491e-06 0.000835745 -6.8008e-05)
(-2.89829e-06 0.000867213 -7.13774e-05)
(-3.74494e-06 0.000890383 -7.46686e-05)
(-4.4316e-06 0.000907255 -7.79184e-05)
(-4.91432e-06 0.000919346 -8.11015e-05)
(-5.17402e-06 0.000927863 -8.41671e-05)
(-5.19306e-06 0.000933719 -8.70387e-05)
(-4.98109e-06 0.00093766 -8.964e-05)
(-4.55136e-06 0.00094023 -9.18876e-05)
(-3.93285e-06 0.000941881 -9.37124e-05)
(-3.16034e-06 0.000942909 -9.5049e-05)
(-2.27409e-06 0.000943554 -9.5855e-05)
(-1.32355e-06 0.000943921 -9.6098e-05)
(-3.58466e-07 0.000944069 -9.57721e-05)
(5.70772e-07 0.000943932 -9.48836e-05)
(1.41815e-06 0.000943397 -9.34656e-05)
(2.1404e-06 0.000942217 -9.1561e-05)
(2.69967e-06 0.00094009 -8.92357e-05)
(3.06534e-06 0.000936556 -8.65588e-05)
(3.2222e-06 0.000931063 -8.36142e-05)
(3.16009e-06 0.000922859 -8.04778e-05)
(2.88822e-06 0.000911023 -7.72258e-05)
(2.4232e-06 0.00089434 -7.39069e-05)
(1.80791e-06 0.000871286 -7.05453e-05)
(1.08839e-06 0.000839852 -6.71013e-05)
(3.37786e-07 0.000797455 -6.347e-05)
(-3.45735e-07 0.00074068 -5.94164e-05)
(-7.99135e-07 0.000665034 -5.45238e-05)
(-8.6971e-07 0.000564576 -4.78772e-05)
(-1.05716e-06 0.000345863 -3.17496e-05)
(8.97139e-07 0.000362094 -3.18537e-05)
(5.16157e-07 0.000588732 -4.69346e-05)
(3.05327e-07 0.000693057 -5.2948e-05)
(-3.48422e-07 0.000771498 -5.74152e-05)
(-1.21425e-06 0.000830227 -6.12082e-05)
(-2.13777e-06 0.000873972 -6.46733e-05)
(-3.01875e-06 0.000906273 -6.79937e-05)
(-3.79257e-06 0.00092987 -7.12619e-05)
(-4.40112e-06 0.00094684 -7.44997e-05)
(-4.80942e-06 0.000958818 -7.76826e-05)
(-4.99464e-06 0.000967056 -8.07503e-05)
(-4.94763e-06 0.000972557 -8.36311e-05)
(-4.67294e-06 0.000976086 -8.62406e-05)
(-4.18799e-06 0.000978262 -8.8502e-05)
(-3.52269e-06 0.000979535 -9.03386e-05)
(-2.70937e-06 0.000980263 -9.16921e-05)
(-1.78856e-06 0.00098067 -9.25126e-05)
(-8.10611e-07 0.000980905 -9.27749e-05)
(1.76663e-07 0.000981 -9.24655e-05)
(1.12534e-06 0.000980919 -9.1598e-05)
(1.98738e-06 0.000980508 -9.01977e-05)
(2.71874e-06 0.000979537 -8.83148e-05)
(3.28324e-06 0.000977646 -8.60074e-05)
(3.65475e-06 0.000974378 -8.33523e-05)
(3.81046e-06 0.00096911 -8.04262e-05)
(3.74717e-06 0.000961074 -7.73133e-05)
(3.47004e-06 0.00094926 -7.40845e-05)
(2.99814e-06 0.000932414 -7.07995e-05)
(2.3664e-06 0.000908896 -6.74812e-05)
(1.62636e-06 0.000876622 -6.41063e-05)
(8.39564e-07 0.000832849 -6.05783e-05)
(1.03947e-07 0.000774029 -5.66979e-05)
(-4.36029e-07 0.000695428 -5.20874e-05)
(-5.73851e-07 0.000590864 -4.58988e-05)
(-9.03382e-07 0.000362998 -3.08138e-05)
(5.71848e-07 0.000378703 -2.69375e-05)
(3.70407e-08 0.000613174 -3.83199e-05)
(-2.9141e-07 0.000721037 -4.27857e-05)
(-1.02993e-06 0.000802002 -4.62388e-05)
(-1.90937e-06 0.000862474 -4.93602e-05)
(-2.79762e-06 0.000907344 -5.23572e-05)
(-3.61853e-06 0.000940308 -5.53411e-05)
(-4.31073e-06 0.000964201 -5.83533e-05)
(-4.83303e-06 0.00098121 -6.13925e-05)
(-5.14876e-06 0.000993028 -6.44118e-05)
(-5.23911e-06 0.00100099 -6.73463e-05)
(-5.10186e-06 0.00100613 -7.01134e-05)
(-4.7409e-06 0.00100928 -7.26317e-05)
(-4.17499e-06 0.00101108 -7.48179e-05)
(-3.43432e-06 0.00101202 -7.66007e-05)
(-2.55079e-06 0.00101247 -7.7917e-05)
(-1.56524e-06 0.00101269 -7.87226e-05)
(-5.25998e-07 0.00101281 -7.89871e-05)
(5.18492e-07 0.00101291 -7.87028e-05)
(1.52205e-06 0.0010129 -7.78771e-05)
(2.43715e-06 0.00101266 -7.65407e-05)
(3.22149e-06 0.00101192 -7.47371e-05)
(3.83899e-06 0.00101031 -7.25299e-05)
(4.26324e-06 0.00100733 -6.99895e-05)
(4.474e-06 0.00100235 -6.71994e-05)
(4.45972e-06 0.000994524 -6.42406e-05)
(4.22998e-06 0.000982817 -6.1195e-05)
(3.79816e-06 0.000965895 -5.81267e-05)
(3.19676e-06 0.000942059 -5.50816e-05)
(2.46799e-06 0.000909122 -5.20596e-05)
(1.66808e-06 0.000864243 -4.9016e-05)
(8.7213e-07 0.000803726 -4.58281e-05)
(2.09879e-07 0.000722674 -4.22663e-05)
(-7.14143e-08 0.000614679 -3.7665e-05)
(-5.76758e-07 0.000379189 -2.62451e-05)
(1.82596e-07 0.000392563 -2.03808e-05)
(-5.17166e-07 0.000632467 -2.67263e-05)
(-1.00729e-06 0.000742769 -2.90352e-05)
(-1.85949e-06 0.000825456 -3.10586e-05)
(-2.77406e-06 0.000887073 -3.32165e-05)
(-3.64235e-06 0.000932643 -3.55337e-05)
(-4.40987e-06 0.000965951 -3.80118e-05)
(-5.02894e-06 0.000989924 -4.06328e-05)
(-5.46065e-06 0.00100681 -4.33553e-05)
(-5.68152e-06 0.00101836 -4.61121e-05)
(-5.67671e-06 0.00102597 -4.88221e-05)
(-5.44354e-06 0.00103071 -5.1399e-05)
(-4.98864e-06 0.00103345 -5.37557e-05)
(-4.33516e-06 0.00103486 -5.58109e-05)
(-3.5098e-06 0.00103547 -5.7491e-05)
(-2.54575e-06 0.00103566 -5.87364e-05)
(-1.48523e-06 0.00103569 -5.95015e-05)
(-3.73765e-07 0.00103574 -5.9759e-05)
(7.41899e-07 0.00103584 -5.94988e-05)
(1.81527e-06 0.00103595 -5.87306e-05)
(2.80101e-06 0.0010359 -5.74816e-05)
(3.65779e-06 0.00103544 -5.57972e-05)
(4.34663e-06 0.00103415 -5.3737e-05)
(4.84456e-06 0.00103153 -5.13735e-05)
(5.1305e-06 0.00102689 -4.87883e-05)
(5.19187e-06 0.00101938 -4.60679e-05)
(5.03192e-06 0.0010079 -4.32982e-05)
(4.6608e-06 0.000991084 -4.05594e-05)
(4.10649e-06 0.000967156 -3.79173e-05)
(3.40661e-06 0.000933874 -3.54127e-05)
(2.59941e-06 0.000888309 -3.30604e-05)
(1.74438e-06 0.000826674 -3.08501e-05)
(9.4683e-07 0.000743946 -2.87394e-05)
(4.90806e-07 0.000633578 -2.63186e-05)
(-1.88594e-07 0.000392787 -1.9918e-05)
(-1.88783e-07 0.000402907 -1.38836e-05)
(-1.01314e-06 0.000645706 -1.50832e-05)
(-1.66425e-06 0.000757292 -1.51697e-05)
(-2.63049e-06 0.000840833 -1.57057e-05)
(-3.58271e-06 0.000902959 -1.68503e-05)
(-4.44014e-06 0.000948747 -1.84401e-05)
(-5.16392e-06 0.000982049 -2.03666e-05)
(-5.71892e-06 0.00100584 -2.25507e-05)
(-6.07644e-06 0.00102241 -2.49118e-05)
(-6.21562e-06 0.00103356 -2.73618e-05)
(-6.12318e-06 0.00104071 -2.98062e-05)
(-5.8051e-06 0.00104497 -3.21537e-05)
(-5.26962e-06 0.00104726 -3.43137e-05)
(-4.53578e-06 0.00104825 -3.62062e-05)
(-3.63332e-06 0.0010485 -3.7758e-05)