/*--------------------------------*- C++ -*----------------------------------*\
| =========                 |                                                 |
| \\      /  F ield         | OpenFOAM: The Open Source CFD Toolbox           |
|  \\    /   O peration     | Version:  v2012                                 |
|   \\  /    A nd           | Website:  www.openfoam.com                      |
|    \\/     M anipulation  |                                                 |
\*---------------------------------------------------------------------------*/
FoamFile
{
    version     2.0;
    format      ascii;
    class       volVectorField;
    location    "10";
    object      U;
}
// * * * * * * * * * * * * * * * * * * * * * * * * * * * * * * * * * * * * * //

dimensions      [0 1 -1 0 0 0 0];


internalField   nonuniform List<vector> 
78750
(
(-4.37189e-06 -8.73271e-05 0.000117993)
(-1.82175e-05 -7.98107e-05 0.000267567)
(-5.34756e-05 -4.56829e-05 0.000378743)
(-0.000103686 -5.61458e-07 0.000488087)
(-0.000164072 4.70306e-05 0.000591332)
(-0.000231831 9.32525e-05 0.000684664)
(-0.000303672 0.000135892 0.00076357)
(-0.000377196 0.000174537 0.000824257)
(-0.000450766 0.000209518 0.000863864)
(-0.000523252 0.000241693 0.000880902)
(-0.000594196 0.000271549 0.000875037)
(-0.000662495 0.000298284 0.00084755)
(-0.000726263 0.000319734 0.000800664)
(-0.000784922 0.000334025 0.00073582)
(-0.000835952 0.000339275 0.000656955)
(-0.000878057 0.000335049 0.000567063)
(-0.000910436 0.000322027 0.000468336)
(-0.000932326 0.000301494 0.000362855)
(-0.000943471 0.00027517 0.00025276)
(-0.000943801 0.000244868 0.000139891)
(-0.000933234 0.000212321 2.61116e-05)
(-0.000911721 0.000179093 -8.62231e-05)
(-0.000879397 0.000146507 -0.000194174)
(-0.000836671 0.000115532 -0.000294513)
(-0.000784267 8.67468e-05 -0.000384054)
(-0.000723245 6.02233e-05 -0.000459941)
(-0.000654697 3.58337e-05 -0.000520028)
(-0.000579765 1.33796e-05 -0.00056258)
(-0.000499633 -7.11823e-06 -0.00058592)
(-0.000415437 -2.54081e-05 -0.000588475)
(-0.000328084 -4.07552e-05 -0.000568511)
(-0.00023822 -5.18642e-05 -0.000524377)
(-0.00014859 -5.64341e-05 -0.000454196)
(-7.60503e-05 -5.14394e-05 -0.000356683)
(-2.4029e-05 -3.00577e-05 -0.000181209)
(-3.72661e-05 0.000387625 -0.000105262)
(-0.000102643 0.000736514 -3.51592e-05)
(-0.000192054 0.00091847 3.83768e-05)
(-0.000314496 0.00105262 8.89503e-05)
(-0.000441151 0.0011398 0.000114503)
(-0.000563169 0.0011819 0.000120957)
(-0.000676924 0.00119311 0.000104007)
(-0.000778659 0.00118679 5.73806e-05)
(-0.000865305 0.00117471 -2.40073e-05)
(-0.000934573 0.00116138 -0.000139772)
(-0.00098602 0.00114679 -0.000282562)
(-0.00101977 0.00112326 -0.000428897)
(-0.00103374 0.00108044 -0.000540041)
(-0.00103171 0.0010175 -0.000604302)
(-0.00101787 0.000942795 -0.00063225)
(-0.000993874 0.000861111 -0.00063219)
(-0.000962089 0.000776678 -0.000614021)
(-0.000923779 0.000692671 -0.000583252)
(-0.000881456 0.000611661 -0.000544289)
(-0.00083664 0.000533662 -0.00051381)
(-0.000789798 0.000457419 -0.000504943)
(-0.000740813 0.000382706 -0.00051828)
(-0.00068959 0.000310263 -0.000546194)
(-0.000636126 0.00024186 -0.00057808)
(-0.000580726 0.000179361 -0.00060476)
(-0.000523747 0.000123782 -0.000622377)
(-0.000465594 7.42534e-05 -0.000632469)
(-0.000406807 3.02425e-05 -0.000635259)
(-0.000347732 -9.12203e-06 -0.000630462)
(-0.000288783 -4.39991e-05 -0.000616226)
(-0.000230194 -7.48482e-05 -0.000590418)
(-0.000171274 -0.000100554 -0.000546833)
(-0.000112642 -0.000119017 -0.000470433)
(-6.69918e-05 -0.000122183 -0.000339347)
(-3.30989e-05 -6.448e-05 -7.58335e-05)
(-7.77888e-05 0.000894874 0.00054987)
(-0.000173721 0.00152527 0.000898485)
(-0.000302529 0.00180344 0.00107751)
(-0.000470716 0.00197987 0.00119243)
(-0.000633418 0.00206992 0.0012368)
(-0.000779001 0.00208765 0.00121755)
(-0.000906617 0.00205065 0.00113611)
(-0.00101189 0.00197553 0.000999766)
(-0.00109235 0.00187648 0.000814898)
(-0.0011463 0.00176354 0.000592442)
(-0.00117323 0.00164248 0.000346109)
(-0.00117465 0.00151689 9.5226e-05)
(-0.00115356 0.00139002 -0.000141468)
(-0.00111411 0.00126374 -0.000345634)
(-0.00106015 0.00113939 -0.000503388)
(-0.000995582 0.00101888 -0.000606298)
(-0.000924315 0.000904551 -0.000657458)
(-0.000850471 0.000799248 -0.000673014)
(-0.000776203 0.000703514 -0.000668383)
(-0.00070313 0.000616949 -0.000653596)
(-0.000632484 0.000539546 -0.000634786)
(-0.000565094 0.000470737 -0.000614844)
(-0.000501558 0.000410161 -0.000594527)
(-0.000442168 0.000356777 -0.000573999)
(-0.000387026 0.000309758 -0.000553306)
(-0.000335988 0.000267915 -0.000532547)
(-0.000288815 0.000230568 -0.000511766)
(-0.000245199 0.000196941 -0.000490593)
(-0.000204883 0.000166751 -0.000468269)
(-0.000167604 0.0001396 -0.000443399)
(-0.00013297 0.000115739 -0.000413744)
(-0.000100221 9.53931e-05 -0.000375268)
(-6.86169e-05 7.96037e-05 -0.000320718)
(-4.28035e-05 6.99038e-05 -0.00024073)
(-2.43932e-05 7.16974e-05 -6.06219e-05)
(-0.000109206 0.0012487 0.000901244)
(-0.00021004 0.00207398 0.001397)
(-0.000329367 0.00240397 0.00160186)
(-0.000479213 0.00254669 0.00172556)
(-0.000621493 0.00254867 0.00178556)
(-0.0007528 0.00245212 0.00178071)
(-0.00086999 0.00230497 0.00171496)
(-0.000967446 0.00212958 0.00158897)
(-0.00103892 0.00194337 0.00141063)
(-0.00108143 0.00175382 0.00118809)
(-0.00109458 0.00156819 0.000934109)
(-0.00108183 0.00138973 0.000662664)
(-0.00104686 0.00121904 0.000396286)
(-0.000995074 0.0010573 0.000159904)
(-0.0009309 0.000908606 -1.46625e-05)
(-0.000861371 0.000780064 -0.000131142)
(-0.000788475 0.000673027 -0.000206226)
(-0.0007144 0.000586838 -0.000254495)
(-0.000641222 0.000518814 -0.00028462)
(-0.000570674 0.00046625 -0.000302846)
(-0.000503624 0.000425554 -0.000312884)
(-0.000440934 0.000394274 -0.000317053)
(-0.00038304 0.000370081 -0.000316689)
(-0.000330302 0.000351591 -0.0003126)
(-0.000282744 0.00033724 -0.000305337)
(-0.000240421 0.000326077 -0.00029549)
(-0.000203091 0.000316856 -0.000283623)
(-0.000170523 0.000308715 -0.000270412)
(-0.000142246 0.00030048 -0.000256625)
(-0.000117767 0.000291324 -0.000242725)
(-9.62058e-05 0.000280157 -0.000229172)
(-7.62136e-05 0.000266136 -0.000218708)
(-5.57562e-05 0.000248017 -0.000216828)
(-3.76381e-05 0.000224736 -0.000216963)
(-2.24189e-05 0.000178226 -0.000135018)
(-7.24701e-05 0.000970658 0.000751393)
(-0.000118999 0.00150371 0.00112169)
(-0.000165737 0.00173295 0.00125273)
(-0.000217617 0.0018694 0.00133542)
(-0.000266486 0.00192143 0.00138713)
(-0.00031579 0.00190062 0.00140269)
(-0.000365918 0.00182173 0.00138597)
(-0.000412774 0.00169883 0.00133675)
(-0.000451879 0.00154542 0.00125891)
(-0.000478893 0.00137363 0.00115547)
(-0.000491832 0.00119439 0.00103409)
(-0.000490558 0.00101694 0.00090292)
(-0.000478407 0.000849924 0.000771068)
(-0.000458215 0.000699423 0.000647182)
(-0.000433223 0.000570097 0.000538473)
(-0.000405991 0.00046435 0.000448591)
(-0.000377792 0.000382512 0.000376903)
(-0.000349136 0.000323214 0.000321208)
(-0.000320483 0.000284279 0.000278999)
(-0.000292327 0.000262816 0.00024835)
(-0.00026504 0.000255888 0.000227275)
(-0.000239122 0.0002604 0.000214231)
(-0.000214886 0.000273587 0.000207633)
(-0.000192469 0.000292777 0.000206179)
(-0.000172045 0.000315512 0.000208376)
(-0.000153639 0.000339459 0.000212909)
(-0.000137112 0.000362581 0.000218072)
(-0.000122314 0.000382901 0.00022227)
(-0.000108838 0.000398611 0.000223931)
(-9.63355e-05 0.000407817 0.000221386)
(-8.41836e-05 0.00040848 0.000212623)
(-7.14468e-05 0.000398013 0.000192752)
(-5.62145e-05 0.000373187 0.00014995)
(-4.08892e-05 0.00033111 8.72422e-05)
(-2.28267e-05 0.000229358 4.38579e-05)
(-1.55674e-05 0.000633363 0.000521552)
(-1.04165e-05 0.000922895 0.000735227)
(1.10388e-06 0.00105078 0.000795387)
(2.46961e-05 0.00112911 0.000832372)
(5.36258e-05 0.00115937 0.000853417)
(8.3981e-05 0.00114676 0.000855086)
(0.000113389 0.00109984 0.000839202)
(0.000140582 0.00102674 0.000808782)
(0.000164393 0.000936979 0.000767524)
(0.0001841 0.00083877 0.000718566)
(0.000198953 0.000739501 0.000665298)
(0.0002085 0.00064425 0.000610528)
(0.00021235 0.00055695 0.000557154)
(0.000210513 0.000480337 0.000507466)
(0.000203271 0.000416679 0.000463697)
(0.000191265 0.000367096 0.000427272)
(0.000175343 0.000331668 0.000398918)
(0.000156544 0.00030941 0.000378288)
(0.000135895 0.000298775 0.000364961)
(0.000114318 0.000297793 0.000358072)
(9.26259e-05 0.000304509 0.000356854)
(7.15507e-05 0.000317081 0.000360106)
(5.16422e-05 0.000333666 0.000366759)
(3.33122e-05 0.000352426 0.000375441)
(1.69033e-05 0.000371808 0.000384944)
(2.63257e-06 0.000390277 0.000393785)
(-9.35001e-06 0.000406476 0.000400665)
(-1.89522e-05 0.000418947 0.000403955)
(-2.6122e-05 0.000426289 0.000401906)
(-3.08046e-05 0.000426812 0.000392689)
(-3.29022e-05 0.000418682 0.000374584)
(-3.21973e-05 0.000399687 0.000342622)
(-2.777e-05 0.000367485 0.000285728)
(-2.14741e-05 0.000317741 0.00020496)
(-1.12942e-05 0.000196982 0.000117436)
(8.77624e-06 0.000231965 0.000379128)
(2.9598e-05 0.000328602 0.000472661)
(5.29102e-05 0.000380131 0.000476879)
(8.752e-05 0.000421142 0.000477356)
(0.000123916 0.000450789 0.000477882)
(0.000159326 0.000470855 0.000473827)
(0.000192076 0.000484236 0.00046464)
(0.000221018 0.000493192 0.000451075)
(0.000245154 0.000499502 0.000433382)
(0.00026392 0.000504376 0.000411416)
(0.000276957 0.000508597 0.000385238)
(0.000283937 0.000513241 0.000356157)
(0.000284766 0.000519232 0.000326414)
(0.000279682 0.000527248 0.000298743)
(0.000269171 0.000537033 0.000275063)
(0.000254211 0.000547992 0.000256588)
(0.00023574 0.000559107 0.000243325)
(0.000214616 0.000569695 0.000234768)
(0.00019181 0.000578896 0.000230299)
(0.000168141 0.000586331 0.000229483)
(0.000144223 0.000591514 0.000231543)
(0.000120665 0.000594212 0.000236011)
(9.79095e-05 0.000594165 0.000242079)
(7.63543e-05 0.000591554 0.000249166)
(5.63096e-05 0.000586243 0.000256384)
(3.80089e-05 0.000578359 0.000263091)
(2.16685e-05 0.000567619 0.000268221)
(7.44134e-06 0.000553847 0.000270882)
(-4.46921e-06 0.000536231 0.000269592)
(-1.39538e-05 0.000513842 0.00026323)
(-2.07795e-05 0.000484922 0.000250101)
(-2.47795e-05 0.000447715 0.000226002)
(-2.48294e-05 0.000399708 0.000180474)
(-2.17534e-05 0.000334454 0.000115143)
(-1.27521e-05 0.000180113 5.43422e-05)
(-1.46495e-06 0.000100136 0.000329754)
(2.36106e-06 0.000221705 0.0003457)
(1.15291e-07 0.000278829 0.00031327)
(-6.24024e-07 0.000323897 0.000283311)
(-8.61648e-07 0.000360086 0.000261067)
(-8.15787e-07 0.000389003 0.000240343)
(-4.9851e-07 0.000412475 0.000218706)
(-2.2036e-08 0.000430777 0.000197176)
(9.55927e-07 0.000444806 0.000177899)
(2.43975e-06 0.000460294 0.000156684)
(4.66336e-06 0.000482635 0.000129812)
(7.8297e-06 0.000512743 9.71701e-05)
(1.20378e-05 0.000548548 6.25021e-05)
(1.71095e-05 0.000584919 3.07471e-05)
(2.26249e-05 0.00061737 5.73234e-06)
(2.83784e-05 0.000645735 -1.40789e-05)
(3.42657e-05 0.000670293 -2.91271e-05)
(4.01126e-05 0.000690738 -3.95204e-05)
(4.55979e-05 0.000707399 -4.52226e-05)
(5.03576e-05 0.000719964 -4.66187e-05)
(5.41792e-05 0.000728744 -4.38156e-05)
(5.67652e-05 0.000733384 -3.74053e-05)
(5.79188e-05 0.000734188 -2.77385e-05)
(5.74545e-05 0.000730763 -1.56849e-05)
(5.53109e-05 0.000723367 -1.84914e-06)
(5.14535e-05 0.000711478 1.25751e-05)
(4.59839e-05 0.000695242 2.67728e-05)
(3.90857e-05 0.000673817 3.93023e-05)
(3.10561e-05 0.000646953 4.91282e-05)
(2.23262e-05 0.000613137 5.46324e-05)
(1.32859e-05 0.000570952 5.45866e-05)
(4.58707e-06 0.000518699 4.41953e-05)
(-2.05754e-06 0.000454306 1.45949e-05)
(-5.25518e-06 0.000367578 -3.18758e-05)
(-5.10802e-06 0.000168963 -6.2138e-05)
(-8.26953e-06 5.46171e-05 0.000201768)
(-1.4209e-05 0.000207534 0.000231971)
(-2.38887e-05 0.000276539 0.000226191)
(-3.55827e-05 0.000329731 0.000214108)
(-4.68416e-05 0.000370865 0.000198564)
(-5.72806e-05 0.000403639 0.000178097)
(-6.67589e-05 0.000430097 0.000151723)
(-7.49849e-05 0.000452566 0.000120356)
(-8.1915e-05 0.000472327 8.63144e-05)
(-8.73029e-05 0.000491176 5.31479e-05)
(-9.08133e-05 0.000509644 2.30508e-05)
(-9.18623e-05 0.000528559 -3.12489e-06)
(-9.00752e-05 0.000547679 -2.60314e-05)
(-8.53357e-05 0.000567372 -4.59026e-05)
(-7.80067e-05 0.000587089 -6.27654e-05)
(-6.8556e-05 0.000606999 -7.6027e-05)
(-5.75517e-05 0.000626395 -8.56495e-05)
(-4.55317e-05 0.000645345 -9.13143e-05)
(-3.30428e-05 0.000663111 -9.32239e-05)
(-2.05471e-05 0.00067982 -9.11711e-05)
(-8.55554e-06 0.0006947 -8.55109e-05)
(2.50932e-06 0.000707874 -7.62094e-05)
(1.22421e-05 0.000718509 -6.38163e-05)
(2.02837e-05 0.000726678 -4.85337e-05)
(2.6341e-05 0.000731411 -3.13594e-05)
(3.02669e-05 0.000732696 -1.32116e-05)
(3.20009e-05 0.000729285 4.20402e-06)
(3.15645e-05 0.00072074 1.97121e-05)
(2.91596e-05 0.000705219 3.18596e-05)
(2.50066e-05 0.000681426 3.99187e-05)
(1.94749e-05 0.000646232 4.23395e-05)
(1.30107e-05 0.000596511 3.63154e-05)
(6.70025e-06 0.000526637 1.60868e-05)
(2.72685e-06 0.000429716 -1.6771e-05)
(-1.48597e-07 0.000205369 -4.59396e-05)
(-1.00402e-05 6.45822e-05 0.000145579)
(-1.89732e-05 0.000226598 0.000199923)
(-3.00542e-05 0.000298639 0.000216911)
(-4.40769e-05 0.000352808 0.00022132)
(-5.72953e-05 0.000394189 0.000216227)
(-6.93868e-05 0.000425989 0.000203064)
(-8.02168e-05 0.000451151 0.000182654)
(-8.95519e-05 0.000471224 0.00015557)
(-9.70305e-05 0.000488047 0.000123828)
(-0.000102409 0.000502389 9.03439e-05)
(-0.00010552 0.000515589 5.84414e-05)
(-0.000106348 0.000527948 3.00551e-05)
(-0.000104955 0.000540404 6.15848e-06)
(-0.000101502 0.000552795 -1.33928e-05)
(-9.62055e-05 0.000565743 -2.87456e-05)
(-8.93389e-05 0.000578855 -4.03156e-05)
(-8.11598e-05 0.000592565 -4.80057e-05)
(-7.19717e-05 0.000606276 -5.20458e-05)
(-6.21011e-05 0.000620304 -5.22511e-05)
(-5.18814e-05 0.000633904 -4.884e-05)
(-4.16553e-05 0.000647305 -4.16204e-05)
(-3.17696e-05 0.000659609 -3.08146e-05)
(-2.2579e-05 0.00067093 -1.62895e-05)
(-1.43659e-05 0.000680174 1.36987e-06)
(-7.35827e-06 0.000687307 2.15715e-05)
(-1.73658e-06 0.000690943 4.27599e-05)
(2.42837e-06 0.000690798 6.33182e-05)
(5.18146e-06 0.00068513 8.10232e-05)
(6.62461e-06 0.000673096 9.45457e-05)
(6.95923e-06 0.000652119 0.000102674)
(6.36728e-06 0.000620173 0.000104816)
(5.03537e-06 0.000572987 9.89949e-05)
(3.21846e-06 0.000506166 8.20258e-05)
(1.8482e-06 0.000412097 5.37417e-05)
(8.304e-07 0.000194314 1.08544e-05)
(-9.95567e-06 6.80415e-05 0.000107137)
(-1.88727e-05 0.000222486 0.000176152)
(-2.95966e-05 0.00029046 0.000205768)
(-4.30208e-05 0.000341142 0.000220048)
(-5.55294e-05 0.000378983 0.000221663)
(-6.68265e-05 0.000407539 0.000213728)
(-7.67823e-05 0.00042902 0.000197597)
(-8.51835e-05 0.00044552 0.000174277)
(-9.16927e-05 0.000458139 0.00014541)
(-9.61237e-05 0.000468256 0.000113894)
(-9.83399e-05 0.000476445 8.2744e-05)
(-9.83935e-05 0.000483731 5.43718e-05)
(-9.63584e-05 0.000490384 2.99286e-05)
(-9.2445e-05 0.000497235 9.81458e-06)
(-8.68296e-05 0.000504311 -6.09579e-06)
(-7.97955e-05 0.000512207 -1.79109e-05)
(-7.15846e-05 0.000520708 -2.58365e-05)
(-6.25196e-05 0.000530206 -2.98748e-05)
(-5.28545e-05 0.000540255 -3.00967e-05)
(-4.29405e-05 0.00055107 -2.63853e-05)
(-3.30722e-05 0.000561981 -1.87234e-05)
(-2.35934e-05 0.000573023 -6.95393e-06)
(-1.4775e-05 0.000583302 8.83083e-06)
(-6.91907e-06 0.000592673 2.84233e-05)
(-2.33402e-07 0.000600005 5.09514e-05)
(5.08722e-06 0.00060493 7.50305e-05)
(8.98055e-06 0.000606009 9.84521e-05)
(1.14534e-05 0.00060252 0.000118943)
(1.26242e-05 0.000592525 0.000134402)
(1.26565e-05 0.0005746 0.000143711)
(1.17234e-05 0.00054583 0.000145948)
(9.9174e-06 0.000503336 0.000139698)
(7.33497e-06 0.000442316 0.000121729)
(4.89249e-06 0.000357012 9.10407e-05)
(3.00152e-06 0.000160005 3.36946e-05)
(-8.40331e-06 6.7859e-05 6.63104e-05)
(-1.64879e-05 0.000210534 0.000137263)
(-2.69117e-05 0.000272796 0.000172244)
(-4.00245e-05 0.000318252 0.000191005)
(-5.24005e-05 0.000351404 0.000195689)
(-6.35305e-05 0.00037508 0.000189943)
(-7.32246e-05 0.000391811 0.00017557)
(-8.1123e-05 0.000403133 0.00015358)
(-8.69236e-05 0.000410655 0.000125691)
(-9.03659e-05 0.000415268 9.45903e-05)
(-9.1368e-05 0.00041813 6.33283e-05)
(-8.9941e-05 0.000419835 3.4284e-05)
(-8.62656e-05 0.000421317 8.9929e-06)
(-8.05351e-05 0.000422936 -1.20304e-05)
(-7.30624e-05 0.000425398 -2.85851e-05)
(-6.4121e-05 0.000428815 -4.07812e-05)
(-5.40814e-05 0.000433678 -4.86806e-05)
(-4.32544e-05 0.000439842 -5.23742e-05)
(-3.20447e-05 0.000447556 -5.18251e-05)
(-2.07811e-05 0.000456415 -4.70004e-05)
(-9.87866e-06 0.00046642 -3.77603e-05)
(3.45963e-07 0.00047691 -2.40265e-05)
(9.49832e-06 0.000487644 -5.79275e-06)
(1.73021e-05 0.000497711 1.66018e-05)
(2.34554e-05 0.000506627 4.23215e-05)
(2.78044e-05 0.000513232 6.97654e-05)
(3.02409e-05 0.000516767 9.66459e-05)
(3.08271e-05 0.000515753 0.00012033)
(2.96929e-05 0.000509026 0.000138516)
(2.70818e-05 0.000494544 0.000149715)
(2.32281e-05 0.000470341 0.000152918)
(1.83012e-05 0.000433217 0.000146422)
(1.25834e-05 0.00037962 0.000126695)
(7.70545e-06 0.000304037 9.2466e-05)
(4.19449e-06 0.000129462 2.84926e-05)
(-6.98566e-06 7.48637e-05 1.65579e-05)
(-1.51493e-05 0.000214126 7.93325e-05)
(-2.63975e-05 0.000273996 0.000115148)
(-4.09194e-05 0.000316342 0.000134653)
(-5.49767e-05 0.000345172 0.000138744)
(-6.77233e-05 0.000363653 0.000131581)
(-7.87249e-05 0.000374007 0.0001151)
(-8.75068e-05 0.000378353 9.05571e-05)
(-9.36404e-05 0.000378054 5.9726e-05)
(-9.6827e-05 0.000374698 2.54267e-05)
(-9.69381e-05 0.00036927 -9.37123e-06)
(-9.40151e-05 0.000363076 -4.20174e-05)
(-8.82465e-05 0.000356833 -7.08587e-05)
(-7.99369e-05 0.000351615 -9.48883e-05)
(-6.94426e-05 0.000347864 -0.000113834)
(-5.71998e-05 0.000346338 -0.000127568)
(-4.36609e-05 0.000347169 -0.000136173)
(-2.93301e-05 0.000350803 -0.000139623)
(-1.46874e-05 0.000357047 -0.000137967)
(-2.62567e-07 0.000366003 -0.000131085)
(1.34623e-05 0.00037714 -0.000118926)
(2.5973e-05 0.00039022 -0.000101363)
(3.68314e-05 0.000404386 -7.85241e-05)
(4.56069e-05 0.000419027 -5.08802e-05)
(5.19853e-05 0.000432975 -1.95099e-05)
(5.57085e-05 0.000445342 1.38162e-05)
(5.67127e-05 0.000454678 4.65243e-05)
(5.50498e-05 0.000459756 7.57584e-05)
(5.09699e-05 0.000458779 9.8932e-05)
(4.47996e-05 0.000450042 0.000114274)
(3.69603e-05 0.000431111 0.000120571)
(2.78109e-05 0.000399278 0.000115954)
(1.80317e-05 0.000350829 9.65518e-05)
(1.02634e-05 0.000281055 6.1707e-05)
(4.77153e-06 0.000118002 1.76607e-06)
(-5.99141e-06 0.000104193 -3.16875e-05)
(-1.50961e-05 0.000255157 1.66152e-05)
(-2.77796e-05 0.000318686 4.93085e-05)
(-4.46425e-05 0.000361001 6.5943e-05)
(-6.12897e-05 0.000386802 6.62465e-05)
(-7.64772e-05 0.000399394 5.43594e-05)
(-8.95367e-05 0.000401851 3.24128e-05)
(-9.98436e-05 0.000396394 1.65409e-06)
(-0.000106858 0.000385322 -3.5817e-05)
(-0.000110197 0.000370317 -7.70969e-05)
(-0.000109722 0.000353289 -0.000118811)
(-0.000105501 0.000335585 -0.00015806)
(-9.778e-05 0.000318741 -0.00019281)
(-8.69471e-05 0.000303741 -0.000221864)
(-7.34852e-05 0.0002918 -0.000244635)
(-5.79354e-05 0.000283499 -0.000261021)
(-4.08829e-05 0.000279619 -0.000271017)
(-2.29438e-05 0.000280294 -0.000274697)
(-4.74097e-06 0.000285834 -0.00027204)
(1.30927e-05 0.0002959 -0.000263016)
(2.99259e-05 0.00031031 -0.000247513)
(4.51435e-05 0.000328255 -0.000225492)
(5.81732e-05 0.000349081 -0.000197035)
(6.84751e-05 0.000371561 -0.000162656)
(7.56136e-05 0.000394579 -0.000123615)
(7.92904e-05 0.000416475 -8.20899e-05)
(7.93789e-05 0.00043573 -4.10104e-05)
(7.59689e-05 0.000450315 -3.67345e-06)
(6.938e-05 0.000458282 2.70188e-05)
(6.00802e-05 0.000457141 4.90553e-05)
(4.86493e-05 0.000444365 6.11307e-05)
(3.56801e-05 0.00041665 6.12672e-05)
(2.22621e-05 0.0003703 4.56552e-05)
(1.20372e-05 0.000300211 1.46569e-05)
(4.73875e-06 0.000133182 -3.24964e-05)
(-5.21782e-06 0.000158981 -6.00346e-05)
(-1.50548e-05 0.000337278 -2.80702e-05)
(-2.84083e-05 0.000410808 -2.62736e-06)
(-4.65193e-05 0.000457237 7.8057e-06)
(-6.45151e-05 0.000481952 1.99931e-06)
(-8.09255e-05 0.000489478 -1.64254e-05)
(-9.49349e-05 0.000483453 -4.56941e-05)
(-0.000105809 0.000467249 -8.45029e-05)
(-0.000112932 0.000443636 -0.000130612)
(-0.00011591 0.000415419 -0.000180638)
(-0.000114633 0.000384915 -0.000230696)
(-0.000109242 0.000354333 -0.000277534)
(-0.000100102 0.000325438 -0.000318674)
(-8.77087e-05 0.000299962 -0.000352764)
(-7.26369e-05 0.000279061 -0.000379296)
(-5.54882e-05 0.000263876 -0.000398243)
(-3.68821e-05 0.000254995 -0.000409731)
(-1.74373e-05 0.000252996 -0.000413884)
(2.23072e-06 0.000257906 -0.000410713)
(2.14953e-05 0.000269737 -0.000400123)
(3.97188e-05 0.000287956 -0.000381896)
(5.62628e-05 0.000311987 -0.000355846)
(7.04831e-05 0.000340703 -0.000321963)
(8.17623e-05 0.000372886 -0.000280784)
(8.95333e-05 0.000406763 -0.000233684)
(9.33847e-05 0.000440521 -0.0001831)
(9.30972e-05 0.000471743 -0.000132504)
(8.87418e-05 0.000497933 -8.5836e-05)
(8.0666e-05 0.000516179 -4.64694e-05)
(6.94435e-05 0.000523481 -1.67023e-05)
(5.57697e-05 0.000516324 2.20182e-06)
(4.04157e-05 0.00049081 8.65725e-06)
(2.47354e-05 0.000442199 -5.55092e-07)
(1.30849e-05 0.000364825 -2.42576e-05)
(4.49478e-06 0.000176702 -5.57313e-05)
(-4.92279e-06 0.000228173 -6.16327e-05)
(-1.49542e-05 0.000440578 -4.23225e-05)
(-2.7888e-05 0.00052721 -2.54384e-05)
(-4.55932e-05 0.000579793 -2.20356e-05)
(-6.31467e-05 0.000605095 -3.37357e-05)
(-7.90291e-05 0.000608595 -5.79713e-05)
(-9.23699e-05 0.000595148 -9.36658e-05)
(-0.000102383 0.000568964 -0.00013972)
(-0.000108424 0.000534031 -0.000193676)
(-0.00011013 0.000493894 -0.000251562)
(-0.000107504 0.000451941 -0.000308785)
(-0.000100916 0.000410879 -0.000361482)
(-9.09416e-05 0.000373092 -0.000406909)
(-7.8232e-05 0.00034022 -0.000443777)
(-6.33709e-05 0.000313589 -0.000471982)
(-4.69199e-05 0.000294018 -0.00049186)
(-2.93762e-05 0.000282181 -0.000503879)
(-1.12463e-05 0.000278333 -0.000508307)
(7.01912e-06 0.000282702 -0.00050526)
(2.49435e-05 0.000295115 -0.000494547)
(4.20475e-05 0.000315398 -0.000475811)
(5.78223e-05 0.000342948 -0.000448475)
(7.17266e-05 0.000377048 -0.00041205)
(8.31599e-05 0.00041643 -0.00036652)
(9.14387e-05 0.000459483 -0.000313126)
(9.58863e-05 0.000503788 -0.000254763)
(9.60168e-05 0.000546338 -0.000195714)
(9.17613e-05 0.000583507 -0.000140825)
(8.35095e-05 0.000611603 -9.40403e-05)
(7.19092e-05 0.000626472 -5.77742e-05)
(5.77307e-05 0.000623726 -3.3058e-05)
(4.18324e-05 0.000598401 -2.07858e-05)
(2.56553e-05 0.000544883 -2.32307e-05)
(1.37787e-05 0.000456297 -3.88043e-05)
(4.51657e-06 0.000238232 -5.77561e-05)
(-4.86578e-06 0.000301889 -4.70913e-05)
(-1.46121e-05 0.000548267 -3.41928e-05)
(-2.66614e-05 0.000648218 -2.32437e-05)
(-4.32416e-05 0.00070767 -2.44239e-05)
(-5.96398e-05 0.00073444 -3.92953e-05)
(-7.44752e-05 0.000735068 -6.64447e-05)
(-8.68362e-05 0.000715162 -0.000105565)
(-9.57752e-05 0.000680097 -0.000156161)
(-0.000100732 0.000634892 -0.000215986)
(-0.000101172 0.000584313 -0.000280605)
(-9.70636e-05 0.000533627 -0.000343756)
(-8.94934e-05 0.00048728 -0.000399651)
(-7.90656e-05 0.000446502 -0.000445646)
(-6.6694e-05 0.000412229 -0.00048135)
(-5.28026e-05 0.000385003 -0.000507643)
(-3.77694e-05 0.000365258 -0.000525694)
(-2.20117e-05 0.000353347 -0.000536348)
(-5.8628e-06 0.000349396 -0.000540202)
(1.03188e-05 0.000353452 -0.000537395)
(2.61833e-05 0.000365422 -0.000527783)
(4.14011e-05 0.000385122 -0.000510739)
(5.5554e-05 0.000412153 -0.00048537)
(6.83839e-05 0.000446086 -0.000450398)
(7.93876e-05 0.000486274 -0.000404955)
(8.75636e-05 0.000532501 -0.000349215)
(9.24697e-05 0.000584576 -0.000285551)
(9.31334e-05 0.000637914 -0.000219961)
(8.9051e-05 0.000685515 -0.000159318)
(8.10766e-05 0.000722341 -0.000108146)
(6.97874e-05 0.000743619 -6.85847e-05)
(5.59712e-05 0.000743827 -4.10701e-05)
(4.06395e-05 0.000717343 -2.5779e-05)
(2.50562e-05 0.000657618 -2.39021e-05)
(1.37105e-05 0.000556776 -3.38729e-05)
(4.51147e-06 0.000307132 -4.6086e-05)
(-4.68547e-06 0.000372104 -3.02587e-05)
(-1.37664e-05 0.000649672 -1.82708e-05)
(-2.49306e-05 0.000762151 -9.60352e-06)
(-4.02369e-05 0.000828564 -1.22965e-05)
(-5.55766e-05 0.000857662 -2.78707e-05)
(-6.94169e-05 0.000856351 -5.56737e-05)
(-8.10421e-05 0.00083122 -9.60842e-05)
(-8.98426e-05 0.000787392 -0.000149362)
(-9.40795e-05 0.000730379 -0.000213237)
(-9.40052e-05 0.00067048 -0.000281117)
(-9.0064e-05 0.000615867 -0.000345133)
(-8.28106e-05 0.00056922 -0.000399629)
(-7.28742e-05 0.000529691 -0.000442762)
(-6.08471e-05 0.000495958 -0.000475383)
(-4.75649e-05 0.000468993 -0.000498661)
(-3.31545e-05 0.000449306 -0.000514217)
(-1.80181e-05 0.000437367 -0.000523194)
(-2.50562e-06 0.000433393 -0.000526235)
(1.30212e-05 0.000437494 -0.000523527)
(2.81899e-05 0.000449538 -0.000514902)
(4.2648e-05 0.000469282 -0.000499733)
(5.59909e-05 0.00049623 -0.000476905)
(6.80876e-05 0.000529835 -0.000444837)
(7.80683e-05 0.000569089 -0.000402457)
(8.53906e-05 0.000615516 -0.000348842)
(8.94127e-05 0.000670199 -0.000285584)
(8.97591e-05 0.000730847 -0.000217977)
(8.60209e-05 0.000789213 -0.000153882)
(7.76742e-05 0.000834333 -0.000100274)
(6.65429e-05 0.000860355 -5.96088e-05)
(5.33384e-05 0.000862313 -3.15211e-05)
(3.86083e-05 0.000833514 -1.55808e-05)
(2.39008e-05 0.000767042 -1.23116e-05)
(1.31855e-05 0.000654162 -2.01729e-05)
(4.43293e-06 0.00037445 -3.12112e-05)
(-4.63931e-06 0.000435691 -1.31495e-05)
(-1.31562e-05 0.000741836 2.27338e-06)
(-2.36298e-05 0.000866136 1.1486e-05)
(-3.80811e-05 0.000939724 9.35213e-06)
(-5.25947e-05 0.000971845 -5.4813e-06)
(-6.58277e-05 0.000970128 -3.26092e-05)
(-7.7472e-05 0.000941126 -7.28756e-05)
(-8.60811e-05 0.000890028 -0.000126661)
(-9.08316e-05 0.000826843 -0.000190024)
(-9.1812e-05 0.000762606 -0.00025569)
(-8.90478e-05 0.000704277 -0.00031656)
(-8.26241e-05 0.000654167 -0.000368263)
(-7.32399e-05 0.000611776 -0.000409146)
(-6.11762e-05 0.000575599 -0.000440166)
(-4.76525e-05 0.00054659 -0.000462049)
(-3.28865e-05 0.00052542 -0.000476446)
(-1.72931e-05 0.000512544 -0.000484646)
(-1.29694e-06 0.000508243 -0.000487353)
(1.47079e-05 0.000512598 -0.000484777)
(3.03224e-05 0.00052552 -0.00047672)
(4.51156e-05 0.000546719 -0.000462495)
(5.86817e-05 0.000575736 -0.000440828)
(7.07895e-05 0.000611886 -0.000410114)
(8.02106e-05 0.000654216 -0.000369683)
(8.66706e-05 0.000704291 -0.000318581)
(8.9481e-05 0.000762707 -0.000258399)
(8.8577e-05 0.000827233 -0.000193307)
(8.39699e-05 0.000891006 -0.000130233)
(7.56177e-05 0.000942905 -7.64841e-05)
(6.42382e-05 0.000972515 -3.61833e-05)
(5.13213e-05 0.000974621 -8.9589e-06)
(3.71541e-05 0.000942706 6.10799e-06)
(2.30415e-05 0.000869114 8.67446e-06)
(1.28294e-05 0.000744598 1.17395e-07)
(4.48875e-06 0.000436766 -1.4387e-05)
(-4.91879e-06 0.000490794 5.20591e-06)
(-1.30869e-05 0.000821697 2.72669e-05)
(-2.31425e-05 0.000956483 3.88796e-05)
(-3.70462e-05 0.0010367 3.86702e-05)
(-5.0983e-05 0.0010721 2.56351e-05)
(-6.38971e-05 0.00107101 3.0985e-07)
(-7.56071e-05 0.00103983 -3.82571e-05)
(-8.43149e-05 0.000984391 -9.01287e-05)
(-8.99176e-05 0.000916862 -0.000150699)
(-9.19154e-05 0.000847787 -0.000213006)
(-9.00087e-05 0.000783239 -0.000270986)
(-8.42211e-05 0.000726193 -0.000320905)
(-7.50527e-05 0.000677344 -0.000360847)
(-6.29742e-05 0.000636479 -0.000390972)
(-4.89694e-05 0.000603935 -0.000412163)
(-3.36701e-05 0.000580309 -0.000425854)
(-1.74664e-05 0.00056598 -0.000433536)
(-8.25509e-07 0.000561192 -0.000436035)
(1.58161e-05 0.000566024 -0.000433606)
(3.2027e-05 0.000580393 -0.000426002)
(4.73432e-05 0.000604055 -0.000412413)
(6.13661e-05 0.00063663 -0.000391356)
(7.34659e-05 0.000677517 -0.000361425)
(8.26614e-05 0.000726389 -0.000321767)
(8.84786e-05 0.000783476 -0.00027224)
(9.04286e-05 0.000848122 -0.000214729)
(8.84888e-05 0.000917383 -0.000152892)
(8.2981e-05 0.000985252 -9.26617e-05)
(7.44281e-05 0.00104114 -4.09561e-05)
(6.28879e-05 0.0010727 -2.44761e-06)
(5.01733e-05 0.00107403 2.29085e-05)
(3.64578e-05 0.00103878 3.60895e-05)
(2.27705e-05 0.000958568 3.66174e-05)
(1.28861e-05 0.00082366 2.55148e-05)
(4.82306e-06 0.000491295 4.18706e-06)
(-5.28083e-06 0.000537144 2.29097e-05)
(-1.31633e-05 0.000888097 5.28897e-05)
(-2.29204e-05 0.00103162 6.77134e-05)
(-3.63558e-05 0.00111754 7.00186e-05)
(-4.97652e-05 0.00115607 5.92541e-05)
(-6.24295e-05 0.00115599 3.60378e-05)
(-7.40448e-05 0.00112364 -5.37342e-07)
(-8.27638e-05 0.00106577 -5.00239e-05)
(-8.88599e-05 0.000994674 -0.000107484)
(-9.15837e-05 0.00092022 -0.000166406)
(-9.03372e-05 0.000848055 -0.000221645)
(-8.51337e-05 0.000782022 -0.000269833)
(-7.62914e-05 0.000724307 -0.000308853)
(-6.43903e-05 0.000676229 -0.000338211)
(-5.01107e-05 0.000638361 -0.000359023)
(-3.44269e-05 0.000611078 -0.000372396)
(-1.77602e-05 0.000594641 -0.000379802)
(-6.15908e-07 0.000589157 -0.000382181)
(1.65294e-05 0.00059467 -0.000379843)
(3.32028e-05 0.000611137 -0.000372483)
(4.8898e-05 0.000638451 -0.000359169)
(6.31916e-05 0.000676352 -0.000338437)
(7.5109e-05 0.000724469 -0.000309198)
(8.39729e-05 0.000782234 -0.000270353)
(8.9207e-05 0.000848337 -0.000222409)
(9.04946e-05 0.000920601 -0.000167478)
(8.78255e-05 0.000995197 -0.000108893)
(8.18057e-05 0.00106649 -5.17225e-05)
(7.31913e-05 0.00112462 -2.41659e-06)
(6.17118e-05 0.00115723 3.40794e-05)
(4.91909e-05 0.0011575 5.72962e-05)
(3.59385e-05 0.00111906 6.81513e-05)
(2.26574e-05 0.00103316 6.6073e-05)
(1.30261e-05 0.000889582 5.16296e-05)
(5.2174e-06 0.00053732 2.21693e-05)
(-5.54007e-06 0.000574412 3.67063e-05)
(-1.31235e-05 0.000940575 7.35921e-05)
(-2.26317e-05 0.00109089 9.13325e-05)
(-3.56304e-05 0.00118144 9.59428e-05)
(-4.86195e-05 0.00122273 8.71916e-05)
(-6.09905e-05 0.00122359 6.57227e-05)
(-7.22752e-05 0.00119052 3.08414e-05)
(-8.1066e-05 0.00113152 -1.63763e-05)
(-8.7405e-05 0.00105754 -7.09009e-05)
(-9.04991e-05 0.000977483 -0.000126754)
(-8.97189e-05 0.000897065 -0.000179428)
(-8.50002e-05 0.000820973 -0.000225861)
(-7.65559e-05 0.000752787 -0.000263959)
(-6.49716e-05 0.000695416 -0.000292909)
(-5.07024e-05 0.00065071 -0.000313527)
(-3.48274e-05 0.00061884 -0.000326738)
(-1.79094e-05 0.000599745 -0.000333974)
(-4.72201e-07 0.000593386 -0.000336299)