/*--------------------------------*- C++ -*----------------------------------*\
| =========                 |                                                 |
| \\      /  F ield         | OpenFOAM: The Open Source CFD Toolbox           |
|  \\    /   O peration     | Version:  v2006                                 |
|   \\  /    A nd           | Website:  www.openfoam.com                      |
|    \\/     M anipulation  |                                                 |
\*---------------------------------------------------------------------------*/
FoamFile
{
    version     2.0;
    format      ascii;
    class       volScalarField;
    location    "25";
    object      k;
}
// * * * * * * * * * * * * * * * * * * * * * * * * * * * * * * * * * * * * * //

dimensions      [0 2 -2 0 0 0 0];


internalField   nonuniform List<scalar> 
78750
(
0.000147688
0.000108066
0.000115634
0.000114313
0.000110772
0.000106329
0.000101821
9.7613e-05
9.37836e-05
9.03e-05
8.71092e-05
8.42004e-05
8.15607e-05
7.91624e-05
7.69714e-05
7.49504e-05
7.30645e-05
7.12772e-05
6.95535e-05
6.78562e-05
6.61409e-05
6.43601e-05
6.2449e-05
6.03372e-05
5.79487e-05
5.51926e-05
5.19599e-05
4.81214e-05
4.35261e-05
3.80404e-05
3.15843e-05
2.4202e-05
1.62941e-05
9.12359e-06
3.86416e-06
2.13521e-05
0.000144548
0.000203879
0.000223588
0.000224746
0.000219007
0.000211671
0.000205175
0.000200094
0.000196166
0.000192961
0.000190278
0.000187973
0.000185931
0.000184098
0.000182362
0.000180655
0.000178915
0.000177111
0.000175147
0.000172933
0.000170303
0.000167152
0.000163397
0.000158955
0.000153709
0.000147489
0.000140019
0.000130808
0.000119086
0.000103955
8.50927e-05
6.38445e-05
4.12034e-05
1.56996e-05
3.15539e-05
8.68514e-05
0.000115009
0.000123681
0.000122213
0.000118034
0.000114833
0.000113274
0.000112769
0.00011283
0.000113324
0.000114166
0.00011529
0.000116637
0.000118149
0.000119753
0.00012141
0.000123081
0.000124722
0.00012628
0.000127688
0.000128869
0.000129729
0.000130157
0.000130016
0.000129139
0.000127317
0.000124211
0.000119194
0.000111433
0.000100175
8.5351e-05
6.8242e-05
4.72354e-05
1.9084e-05
2.36003e-05
6.58943e-05
8.87391e-05
0.000100446
0.000105696
0.000106724
0.000105649
0.000103894
0.00010193
9.9868e-05
9.79458e-05
9.63077e-05
9.50368e-05
9.41736e-05
9.37305e-05
9.37031e-05
9.40783e-05
9.48375e-05
9.59571e-05
9.74055e-05
9.91374e-05
0.000101085
0.00010315
0.000105191
0.000107018
0.000108386
0.000109004
0.000108509
0.000106312
0.000101539
9.33789e-05
8.16679e-05
6.75528e-05
4.85422e-05
1.96686e-05
2.06388e-05
5.3563e-05
7.27807e-05
8.379e-05
9.01574e-05
9.23309e-05
9.10022e-05
8.72996e-05
8.24676e-05
7.75386e-05
7.29596e-05
6.89461e-05
6.56897e-05
6.32281e-05
6.15081e-05
6.04407e-05
5.99539e-05
6.00001e-05
6.05616e-05
6.16577e-05
6.334e-05
6.56788e-05
6.87333e-05
7.24946e-05
7.68455e-05
8.14725e-05
8.59554e-05
8.96559e-05
9.15232e-05
9.03837e-05
8.54177e-05
7.66848e-05
6.48788e-05
4.74512e-05
2.05535e-05
1.60646e-05
4.59169e-05
6.33203e-05
7.2841e-05
7.8012e-05
7.92027e-05
7.68717e-05
7.23013e-05
6.69276e-05
6.18556e-05
5.75804e-05
5.41225e-05
5.14498e-05
4.95169e-05
4.81946e-05
4.73188e-05
4.67216e-05
4.62553e-05
4.58074e-05
4.53143e-05
4.47757e-05
4.42725e-05
4.39845e-05
4.42003e-05
4.53224e-05
4.78732e-05
5.22199e-05
5.82086e-05
6.4744e-05
6.98199e-05
7.12353e-05
6.7676e-05
5.93899e-05
4.46787e-05
2.01625e-05
1.51461e-05
4.14063e-05
5.73453e-05
6.61193e-05
7.06908e-05
7.15686e-05
6.91992e-05
6.46905e-05
5.9404e-05
5.44694e-05
5.05994e-05
4.80698e-05
4.6808e-05
4.66207e-05
4.72313e-05
4.82912e-05
4.94564e-05
5.04361e-05
5.0998e-05
5.09657e-05
5.02179e-05
4.8699e-05
4.64441e-05
4.35588e-05
4.03083e-05
3.7395e-05
3.60474e-05
3.76173e-05
4.26879e-05
4.99563e-05
5.61656e-05
5.78376e-05
5.34871e-05
4.19242e-05
2.1952e-05
1.41543e-05
3.84619e-05
5.33724e-05
6.12457e-05
6.48881e-05
6.49782e-05
6.21017e-05
5.75407e-05
5.27847e-05
4.90014e-05
4.68517e-05
4.65052e-05
4.77804e-05
5.0277e-05
5.34693e-05
5.68078e-05
5.99077e-05
6.25431e-05
6.45177e-05
6.566e-05
6.58188e-05
6.4861e-05
6.26867e-05
5.92179e-05
5.42969e-05
4.79945e-05
4.12457e-05
3.58123e-05
3.38774e-05
3.66704e-05
4.25775e-05
4.71277e-05
4.62712e-05
3.83145e-05
2.28859e-05
1.36757e-05
3.60527e-05
5.04032e-05
5.78107e-05
6.08916e-05
6.06041e-05
5.76281e-05
5.32822e-05
4.90826e-05
4.62076e-05
4.52977e-05
4.64837e-05
4.94806e-05
5.3691e-05
5.83608e-05
6.28183e-05
6.6752e-05
7.00799e-05
7.26935e-05
7.44706e-05
7.52856e-05
7.49988e-05
7.34612e-05
7.05414e-05
6.59866e-05
5.94392e-05
5.11192e-05
4.23712e-05
3.55138e-05
3.31191e-05
3.58511e-05
4.02555e-05
4.10395e-05
3.57065e-05
2.41385e-05
1.30123e-05
3.40065e-05
4.77372e-05
5.46436e-05
5.72288e-05
5.65907e-05
5.35289e-05
4.94842e-05
4.60344e-05
4.43602e-05
4.50455e-05
4.81e-05
5.29825e-05
5.87453e-05
6.44715e-05
6.95578e-05
7.39025e-05
7.75777e-05
8.05452e-05
8.27332e-05
8.40552e-05
8.43799e-05
8.3548e-05
8.13865e-05
7.76189e-05
7.17682e-05
6.35223e-05
5.35385e-05
4.379e-05
3.69358e-05
3.51289e-05
3.70704e-05
3.77574e-05
3.37889e-05
2.45108e-05
1.20478e-05
3.16983e-05
4.50258e-05
5.18029e-05
5.42922e-05
5.37185e-05
5.08525e-05
4.70849e-05
4.40361e-05
4.29944e-05
4.46043e-05
4.88104e-05
5.47991e-05
6.13278e-05
6.74207e-05
7.25988e-05
7.69671e-05
8.06914e-05
8.37611e-05
8.61544e-05
8.78088e-05
8.86101e-05
8.83936e-05
8.69585e-05
8.39813e-05
7.89851e-05
7.15337e-05
6.18967e-05
5.15936e-05
4.28367e-05
3.80964e-05
3.75484e-05
3.73179e-05
3.37368e-05
2.56598e-05
1.08866e-05
2.93538e-05
4.21174e-05
4.86407e-05
5.09828e-05
5.04049e-05
4.77078e-05
4.43627e-05
4.21332e-05
4.2397e-05
4.56989e-05
5.16137e-05
5.87224e-05
6.56766e-05
7.17012e-05
7.66306e-05
8.0735e-05
8.42324e-05
8.7178e-05
8.95923e-05
9.14343e-05
9.25947e-05
9.28992e-05
9.21242e-05
8.99465e-05
8.58495e-05
7.92997e-05
7.0246e-05
5.98313e-05
4.99804e-05
4.30834e-05
4.022e-05
3.87489e-05
3.49847e-05
2.73916e-05
9.83452e-06
2.71733e-05
3.93095e-05
4.55145e-05
4.76295e-05
4.69089e-05
4.42757e-05
4.14704e-05
4.04499e-05
4.24224e-05
4.74457e-05
5.44229e-05
6.16744e-05
6.81299e-05
7.33955e-05
7.76084e-05
8.11199e-05
8.4164e-05
8.68356e-05
8.91724e-05
9.11348e-05
9.26032e-05
9.33819e-05
9.32121e-05
9.17401e-05
8.84434e-05
8.28011e-05
7.46781e-05
6.50259e-05
5.53452e-05
4.78117e-05
4.37934e-05
4.14488e-05
3.73939e-05
3.00319e-05
9.09432e-06
2.52273e-05
3.64346e-05
4.19557e-05
4.35513e-05
4.25675e-05
4.0478e-05
3.94378e-05
4.10469e-05
4.56023e-05
5.23375e-05
5.94967e-05
6.58452e-05
7.09796e-05
7.49885e-05
7.8184e-05
8.09207e-05
8.34272e-05
8.57911e-05
8.8034e-05
9.00996e-05
9.18524e-05
9.3082e-05
9.35216e-05
9.28027e-05
9.03981e-05
8.57534e-05
7.86432e-05
6.97753e-05
6.02849e-05
5.22146e-05
4.72237e-05
4.41286e-05
3.97883e-05
3.25924e-05
8.87156e-06
2.35973e-05
3.37098e-05
3.85765e-05
4.00198e-05
3.96603e-05
3.93721e-05
4.08308e-05
4.4496e-05
4.98599e-05
5.59186e-05
6.1365e-05
6.57742e-05
6.9252e-05
7.20544e-05
7.44204e-05
7.65991e-05
7.87694e-05
8.0977e-05
8.32173e-05
8.54207e-05
8.74425e-05
8.90974e-05
9.01496e-05
9.02481e-05
8.88829e-05
8.55521e-05
8.01242e-05
7.29706e-05
6.4627e-05
5.68119e-05
5.1257e-05
4.73779e-05
4.23596e-05
3.45208e-05
8.77249e-06
2.2467e-05
3.1924e-05
3.67593e-05
3.88283e-05
3.97595e-05
4.10498e-05
4.34962e-05
4.69913e-05
5.12445e-05
5.55572e-05
5.92959e-05
6.24089e-05
6.50317e-05
6.73106e-05
6.93613e-05
7.13243e-05
7.33297e-05
7.54216e-05
7.76022e-05
7.98184e-05
8.19511e-05
8.39049e-05
8.54993e-05
8.63898e-05
8.60943e-05
8.41551e-05
8.05226e-05
7.51939e-05
6.81937e-05
6.0886e-05
5.49566e-05
5.02925e-05
4.43026e-05
3.51128e-05
7.97225e-06
2.09617e-05
3.03688e-05
3.57248e-05
3.86091e-05
4.03191e-05
4.17156e-05
4.3229e-05
4.49862e-05
4.7308e-05
5.0211e-05
5.3178e-05
5.60036e-05
5.86061e-05
6.09553e-05
6.30564e-05
6.49827e-05
6.68498e-05
6.87287e-05
7.06538e-05
7.26101e-05
7.45922e-05
7.66009e-05
7.85169e-05
8.01134e-05
8.10014e-05
8.08176e-05
7.96057e-05
7.67123e-05
7.16304e-05
6.52391e-05
5.90632e-05
5.34414e-05
4.60649e-05
3.49333e-05
6.59393e-06
1.89265e-05
2.82909e-05
3.40955e-05
3.75027e-05
3.95338e-05
4.06894e-05
4.13387e-05
4.19391e-05
4.32131e-05
4.56258e-05
4.86131e-05
5.17611e-05
5.47963e-05
5.75637e-05
5.99917e-05
6.20761e-05
6.38964e-05
6.55271e-05
6.70089e-05
6.83613e-05
6.96612e-05
7.10265e-05
7.25099e-05
7.41068e-05
7.56093e-05
7.67733e-05
7.76897e-05
7.71552e-05
7.41319e-05
6.89317e-05
6.28099e-05
5.64309e-05
4.78142e-05
3.50609e-05
5.54975e-06
1.71898e-05
2.62429e-05
3.2125e-05
3.56527e-05
3.76842e-05
3.86222e-05
3.88863e-05
3.91622e-05
4.03595e-05
4.2986e-05
4.64357e-05
5.01873e-05
5.39011e-05
5.73822e-05
6.04996e-05
6.31436e-05
6.52939e-05
6.6961e-05
6.81385e-05
6.88272e-05
6.91041e-05
6.91268e-05
6.92048e-05
6.97136e-05
7.08385e-05
7.26466e-05
7.52958e-05
7.70375e-05
7.62333e-05
7.24735e-05
6.66289e-05
5.96661e-05
5.0044e-05
3.61643e-05
5.08007e-06
1.61352e-05
2.47297e-05
3.0387e-05
3.37845e-05
3.56836e-05
3.65524e-05
3.69714e-05
3.77851e-05
3.99475e-05
4.35689e-05
4.79679e-05
5.26428e-05
5.73037e-05
6.1766e-05
6.58525e-05
6.93653e-05
7.21728e-05
7.42264e-05
7.54681e-05
7.58169e-05
7.52382e-05
7.37792e-05
7.18388e-05
7.01337e-05
6.9398e-05
7.02664e-05
7.31826e-05
7.62209e-05
7.7267e-05
7.51456e-05
7.00904e-05
6.30584e-05
5.29064e-05
3.84333e-05
4.95886e-06
1.56097e-05
2.38236e-05
2.92458e-05
3.25452e-05
3.44629e-05
3.55744e-05
3.6571e-05
3.83065e-05
4.16447e-05
4.62672e-05
5.1498e-05
5.69328e-05
6.23463e-05
6.75629e-05
7.23722e-05
7.65377e-05
7.98963e-05
8.24145e-05
8.40174e-05
8.45613e-05
8.38861e-05
8.18223e-05
7.85943e-05
7.49551e-05
7.20272e-05
7.11257e-05
7.31735e-05
7.6364e-05
7.83443e-05
7.73194e-05
7.29276e-05
6.6019e-05
5.57766e-05
4.14017e-05
4.93095e-06
1.53413e-05
2.33171e-05
2.86391e-05
3.20424e-05
3.42685e-05
3.59518e-05
3.777e-05
4.04638e-05
4.47751e-05
5.00092e-05
5.55748e-05
6.11624e-05
6.6633e-05
7.18807e-05
7.67531e-05
8.10504e-05
8.46238e-05
8.74612e-05
8.94813e-05
9.05101e-05
9.03455e-05
8.86717e-05
8.5468e-05
8.12537e-05
7.71271e-05
7.47563e-05
7.54875e-05
7.79483e-05
8.00365e-05
7.96857e-05
7.59448e-05
6.93298e-05
5.91224e-05
4.47278e-05
4.87051e-06
1.52208e-05
2.31734e-05
2.86152e-05
3.23319e-05
3.50638e-05
3.73801e-05
3.97829e-05
4.28197e-05
4.70661e-05
5.18758e-05
5.68034e-05
6.17081e-05
6.66006e-05
7.14852e-05
7.62561e-05
8.06829e-05
8.45222e-05
8.7721e-05
9.01845e-05
9.17082e-05
9.21048e-05
9.10489e-05
8.84476e-05
8.47301e-05
8.09314e-05
7.87594e-05
7.92939e-05
8.11676e-05
8.26487e-05
8.19755e-05
7.82176e-05
7.16938e-05
6.16066e-05
4.73622e-05
4.60899e-06
1.49188e-05
2.2965e-05
2.8663e-05
3.27412e-05
3.59294e-05
3.86618e-05
4.11731e-05
4.38397e-05
4.7183e-05
5.09926e-05
5.50272e-05
5.93053e-05
6.39279e-05
6.89104e-05
7.40798e-05
7.90778e-05
8.35054e-05
8.72327e-05
9.01613e-05
9.20722e-05
9.2777e-05
9.19334e-05
8.94098e-05
8.57188e-05
8.2151e-05
8.07106e-05
8.21326e-05
8.45079e-05
8.60081e-05
8.51208e-05
8.11605e-05
7.44132e-05
6.38787e-05
4.87344e-05
4.16648e-06
1.43356e-05
2.24778e-05
2.84348e-05
3.28385e-05
3.63204e-05
3.91704e-05
4.14637e-05
4.34589e-05
4.57107e-05
4.85924e-05
5.20531e-05
5.61609e-05
6.09768e-05
6.64285e-05
7.22395e-05
7.79428e-05
8.30358e-05
8.73311e-05
9.07748e-05
9.31579e-05
9.42806e-05
9.37201e-05
9.11215e-05
8.6837e-05
8.24079e-05
8.06343e-05
8.26513e-05
8.59954e-05
8.80177e-05
8.70475e-05
8.28229e-05
7.573e-05
6.45841e-05
4.86667e-05
3.71378e-06
1.35219e-05
2.15769e-05
2.7654e-05
3.22729e-05
3.59115e-05
3.87854e-05
4.09417e-05
4.2577e-05
4.42409e-05
4.66461e-05
4.99116e-05
5.40528e-05
5.90389e-05
6.4747e-05
7.09029e-05
7.70429e-05
8.26196e-05
8.7394e-05
9.1373e-05
9.44034e-05
9.63438e-05
9.6804e-05
9.51392e-05
9.10334e-05
8.5365e-05
8.11339e-05
8.1367e-05
8.47798e-05
8.81418e-05
8.8334e-05
8.44947e-05
7.71814e-05
6.54026e-05
4.88879e-05
3.44891e-06
1.2858e-05
2.07245e-05
2.67957e-05
3.15017e-05
3.5169e-05
3.80073e-05
4.01114e-05
4.16451e-05
4.31172e-05
4.52796e-05
4.83711e-05
5.23386e-05
5.71446e-05
6.27506e-05
6.89892e-05
7.54227e-05
8.14075e-05
8.65807e-05
9.09577e-05
9.44553e-05
9.70682e-05
9.86551e-05
9.869e-05
9.64719e-05
9.17228e-05
8.60616e-05
8.28435e-05
8.30739e-05
8.56139e-05
8.69611e-05
8.45383e-05
7.80739e-05
6.6674e-05
5.04094e-05
3.26264e-06
1.22776e-05
1.98988e-05
2.58606e-05
3.05356e-05
3.41987e-05
3.70294e-05
3.91424e-05
4.06792e-05
4.20444e-05
4.38664e-05
4.64797e-05
4.99171e-05
5.43092e-05
5.98167e-05
6.63742e-05
7.34491e-05
8.01549e-05
8.59392e-05
9.07625e-05
9.45386e-05
9.73512e-05
9.93145e-05
0.000100359
0.000100167
9.80749e-05
9.41806e-05
9.01132e-05
8.69553e-05
8.62057e-05
8.64492e-05
8.45655e-05
7.89636e-05
6.82878e-05
5.22287e-05
2.85668e-06
1.13249e-05
1.85701e-05
2.43317e-05
2.89168e-05
3.25643e-05
3.53853e-05
3.74756e-05
3.89328e-05
4.003e-05
4.12773e-05
4.31946e-05
4.60956e-05
5.03594e-05
5.6294e-05
6.3781e-05
7.20131e-05
7.97643e-05
8.64211e-05
9.19117e-05
9.60515e-05
9.89138e-05
0.000100663
0.000101567
0.000102058
0.000102027
0.000101049
9.87162e-05
9.4513e-05
9.04055e-05
8.78852e-05
8.53389e-05
8.02304e-05
7.02471e-05
5.457e-05
2.32541e-06
1.01581e-05
1.68904e-05
2.23199e-05
2.66881e-05
3.01673e-05
3.28172e-05
3.47242e-05
3.59892e-05
3.68798e-05
3.79787e-05
3.99885e-05
4.34728e-05
4.89057e-05
5.64125e-05
6.54564e-05
7.47961e-05
8.31229e-05
9.01557e-05
9.58937e-05
0.000100123
0.000102904
0.000104338
0.000104786
0.000105112
0.000105942
0.000107332
0.000107789
0.000105134
9.98429e-05
9.41897e-05
8.91633e-05
8.31739e-05
7.3509e-05
5.91305e-05
1.91566e-06
9.24234e-06
1.5466e-05
2.04938e-05
2.45228e-05
2.7623e-05
2.98625e-05
3.13585e-05
3.23419e-05
3.33764e-05
3.53997e-05
3.91832e-05
4.52154e-05
5.35262e-05
6.34866e-05
7.3846e-05
8.32028e-05
9.10793e-05
9.75326e-05
0.000102451
0.000105783
0.000107587
0.000108014
0.000107804
0.000108423
0.000110831
0.000114673
0.000117254
0.000115961
0.000110523
0.000103075
9.59009e-05
8.88332e-05
7.91895e-05
6.53097e-05
1.65909e-06
8.61593e-06
1.4456e-05
1.90952e-05
2.26513e-05
2.51576e-05
2.68096e-05
2.79967e-05
2.95007e-05
3.25508e-05
3.79249e-05
4.58121e-05
5.57687e-05
6.67697e-05
7.74885e-05
8.67971e-05
9.4454e-05
0.000100733
0.000105673
0.000109109
0.000110984
0.000111196
0.000109818
0.000108078
0.00010886
0.000114671
0.000123715
0.000130667
0.000131497
0.000125471
0.000115229
0.000104777
9.53522e-05
8.41921e-05
6.90199e-05
1.60033e-06
8.52156e-06
1.42094e-05
1.85049e-05
2.15098e-05
2.35569e-05
2.53858e-05
2.82229e-05
3.34609e-05
4.1425e-05
5.15885e-05
6.28302e-05
7.38541e-05
8.36342e-05
9.17461e-05
9.84223e-05
0.000104088
0.000108852
0.000112545
0.000114937
0.000115856
0.000115021
0.000112326
0.000108978
0.000108429
0.000114638
0.000126074
0.000136828
0.00014143
0.000137628
0.000127167
0.000114728
0.000102711
8.90192e-05
7.18238e-05
1.7892e-06
8.91463e-06
1.45851e-05
1.87281e-05
2.19005e-05
2.51505e-05
2.99556e-05
3.74619e-05
4.73583e-05
5.83653e-05
6.90008e-05
7.82564e-05
8.59075e-05
9.22863e-05
9.79397e-05
0.000103238
0.000108165
0.000112444
0.000115699
0.000117571
0.000117786
0.00011592
0.000111985
0.00010793
0.000108382
0.000117047
0.000130892
0.000143551
0.000149621
0.000146856
0.000136609
0.000123354
0.00010934
9.29171e-05
7.33057e-05
2.06147e-06
9.76661e-06
1.59523e-05
2.08084e-05
2.53475e-05
3.08219e-05
3.81907e-05
4.71349e-05
5.63525e-05
6.47277e-05
7.19334e-05
7.82889e-05
8.4256e-05
9.01466e-05
9.61615e-05
0.000102264
0.000108123
0.000113302
0.0001173
0.000119662
0.000120026
0.000117768
0.000112691
0.000106846
0.000105981
0.000114844
0.000130755
0.000146091
0.00015423
0.000152725
0.000143028
0.00012947
0.000113953
9.51514e-05
7.3422e-05
2.13689e-06
1.03186e-05
1.6898e-05
2.21944e-05
2.71411e-05
3.26663e-05
3.93503e-05
4.6748e-05
5.41358e-05
6.11577e-05
6.78236e-05
7.42635e-05
8.06085e-05
8.70168e-05
9.36378e-05
0.000100401
0.000106989
0.000112964
0.000117828
0.000121133
0.000122429
0.000120969
0.000116219
0.000109442
0.000105836
0.000111312
0.000126027
0.000143108
0.000154083
0.000155043
0.000147019
0.000134051
0.000117889
9.74951e-05
7.41717e-05
2.00041e-06
1.04006e-05
1.71016e-05
2.23339e-05
2.69173e-05
3.16291e-05
3.70847e-05
4.31376e-05
4.93498e-05
5.54781e-05
6.14889e-05
6.74936e-05
7.36403e-05
8.01055e-05
8.70303e-05
9.43145e-05
0.000101614
0.000108451
0.000114303
0.000118713
0.000121218
0.000121069
0.00011751
0.000111028
0.000105441
0.000106605
0.000117607
0.000134835
0.000148993
0.000153485
0.000148057
0.000136449
0.000120506
9.95666e-05
7.55132e-05
1.62044e-06
9.48242e-06
1.57602e-05
2.04875e-05
2.42304e-05
2.76049e-05
3.13402e-05
3.58064e-05
4.08704e-05
4.63542e-05
5.21388e-05
5.81925e-05
6.45369e-05
7.12325e-05
7.84599e-05
8.62568e-05
9.43287e-05
0.000102245
0.000109479
0.000115578
0.000120059
0.000122133
0.000120788
0.000115596
0.000108567
0.000104724
0.00010893
0.000122555
0.000138738
0.000148057
0.000146996
0.000138193
0.000123691
0.000102898
7.8075e-05
1.18695e-06
8.09958e-06
1.37012e-05
1.79559e-05
2.11836e-05
2.39161e-05
2.68499e-05
3.05143e-05
3.49144e-05
3.98629e-05
4.51542e-05
5.06909e-05
5.64934e-05
6.26276e-05
6.93081e-05
7.67161e-05
8.47191e-05
9.3012e-05
0.000101136
0.000108648
0.00011515
0.000119962
0.00012195
0.000120022
0.000114488
0.000108476
0.000106021
0.000112103
0.000125689
0.000138087
0.000141775
0.000136759
0.000124724
0.000105243
8.08677e-05
8.96441e-07
6.90342e-06
1.18747e-05
1.57753e-05
1.87835e-05
2.13702e-05
2.41484e-05
2.7527e-05
3.14859e-05
3.58211e-05
4.03335e-05
4.4951e-05
4.97313e-05
5.47917e-05
6.03555e-05
6.66925e-05
7.38793e-05
8.17954e-05
9.01325e-05
9.84767e-05
0.000106623
0.000114085
0.000119671
0.000121952
0.000120156
0.000115629
0.000110057
0.000108828
0.000116035
0.00012783
0.000135307
0.000134476
0.000125597
0.000107997
8.42242e-05
6.51517e-07
5.82057e-06
1.01924e-05
1.37337e-05
1.65678e-05
1.90469e-05
2.16622e-05
2.46936e-05
2.80866e-05
3.16515e-05
3.52031e-05
3.86485e-05
4.20119e-05
4.5419e-05
4.9114e-05
5.34864e-05
5.88942e-05
6.55068e-05
7.3271e-05
8.18599e-05
9.12857e-05
0.000101322
0.000110793
0.000118107
0.000121867
0.000122
0.000117952
0.000112926
0.000112909
0.000119853
0.000127714
0.000129797
0.000123953
0.000108585
8.57617e-05
4.47473e-07
4.80614e-06
8.58347e-06
1.17581e-05
1.44588e-05
1.69698e-05
1.9587e-05
2.23873e-05
2.5237e-05
2.79387e-05
3.03048e-05
3.21923e-05
3.35441e-05
3.44642e-05
3.52919e-05
3.66141e-05
3.90574e-05
4.31878e-05
4.92977e-05
5.73611e-05
6.75676e-05
7.99334e-05
9.32483e-05
0.00010575
0.000115709
0.000122395
0.00012369
0.000120336
0.0001171
0.000118949
0.00012444
0.000127209
0.00012301
0.000108912
8.60995e-05
3.80559e-07
4.00572e-06
7.28502e-06
1.02153e-05
1.29068e-05
1.54491e-05
1.7858e-05
2.00595e-05
2.1915e-05
2.32704e-05
2.39165e-05
2.36073e-05
2.21734e-05
1.97108e-05
1.68221e-05
1.46601e-05
1.38921e-05
1.48508e-05
1.84371e-05
2.4812e-05
3.49314e-05
4.95598e-05
6.71344e-05
8.54167e-05
0.000102164
0.000115858
0.000123637
0.000124633
0.000121749
0.000120432
0.000122803
0.000124719
0.00012099
0.000107442
8.41455e-05
4.90763e-07
3.62148e-06
6.57436e-06
9.29522e-06
1.17581e-05
1.38784e-05
1.55612e-05
1.67542e-05
1.73952e-05
1.73357e-05
1.62816e-05
1.38767e-05
9.91368e-06
4.7137e-06
4.87226e-06
4.72107e-06
1.63844e-06
6.83204e-06
3.43252e-06
5.53821e-07
1.32937e-06
1.34058e-05
3.22894e-05
5.61219e-05
8.06897e-05
0.000102755
0.000118756
0.000126621
0.00012751
0.000125876
0.000125587
0.000125371
0.000120539
0.000106163
8.16317e-05
7.37593e-07
3.62554e-06
6.38016e-06
8.87472e-06
1.10302e-05
1.28122e-05
1.42698e-05
1.54833e-05
1.64576e-05
1.70583e-05
1.69647e-05
1.57528e-05
1.31938e-05
9.62529e-06
6.1075e-06
3.15264e-06
3.12844e-06
3.29819e-06
4.14578e-06
6.08919e-07
5.61999e-06
2.19942e-06
7.52124e-08
1.90471e-05
4.80657e-05
7.87696e-05
0.000104257
0.000120414
0.000127231
0.000128133
0.000127347
0.000125674
0.000119719
0.000104536
7.96472e-05
9.79551e-07
4.11386e-06
7.26385e-06
1.0529e-05
1.42424e-05
1.88652e-05
2.47284e-05
3.18019e-05
3.96731e-05
4.77067e-05
5.51589e-05
6.12495e-05
6.52841e-05
6.65673e-05
6.43235e-05
5.8095e-05
4.75226e-05
3.34556e-05
1.85467e-05
8.9936e-06
3.58877e-06
2.61638e-06
7.51121e-06
1.41439e-05
1.01005e-05
4.26068e-05
8.02714e-05
0.000109445
0.000125636
0.000131311
0.000131371
0.000128575
0.000121187
0.000104886
8.1329e-05
1.46751e-06
5.9922e-06
1.20421e-05
2.09007e-05
3.36936e-05
5.03685e-05
6.9403e-05
8.87009e-05
0.00010658
0.000122092
0.000134831
0.00014467
0.000151613
0.000155713
0.000156942
0.000154957
0.000149048
0.000137923
0.000119472
9.10595e-05
5.50272e-05
2.07002e-05
3.35244e-06
3.06746e-06
6.96296e-06
7.20916e-07
3.29178e-05
7.61061e-05
0.000109287
0.000126511
0.000131742
0.000130283
0.000123029
0.000107527
8.94711e-05
2.6281e-06
1.12896e-05
2.4286e-05
4.36619e-05
6.85829e-05
9.5276e-05
0.000119506
0.000138807
0.000152768
0.000162155
0.000168069
0.000171494
0.000173159
0.000173529
0.000172849
0.000171186
0.000168397
0.000164069
0.000157337
0.0001465
0.000127407
9.45063e-05
4.87528e-05
1.21424e-05
3.78651e-06
5.77312e-06
3.89974e-06
3.83138e-05
8.24053e-05
0.000114905
0.000130441
0.0001333
0.00012738
0.000113678
0.000102719
2.94656e-06
1.83849e-05
3.8104e-05
6.30906e-05
8.90176e-05
0.000110067
0.000123542
0.000130479
0.000133527
0.000134976
0.000136063
0.000137164
0.000138168
0.000138709
0.0001383
0.000136397
0.000132442
0.000125995
0.000117051
0.000106365
9.48588e-05
8.10649e-05
5.99434e-05
2.96425e-05
3.40336e-06
9.68861e-06
4.63125e-06
2.26387e-05
6.16969e-05
0.000100151
0.000124313
0.00013315
0.000130608
0.00012017
0.000111485
2.77186e-06
2.50488e-05
4.85258e-05
7.14168e-05
8.81693e-05
9.6781e-05
0.000100589
0.000104134
0.000109739
0.000117362
0.000125842
0.000133959
0.00014082
0.0001458
0.000148358
0.00014787
0.000143459
0.000134033
0.000118878
9.88914e-05
7.70896e-05
5.71886e-05
4.02548e-05
2.41807e-05
9.4832e-06
6.6155e-07
5.22898e-07
2.01607e-05
5.6861e-05
9.50343e-05
0.000121851
0.000133674
0.000133501
0.000123973
0.000107645
1.96748e-06
2.39444e-05
4.30749e-05
5.76487e-05
6.69113e-05
7.41086e-05
8.31076e-05
9.50804e-05
0.000108787
0.000122398
0.000134723
0.000145398
0.000154462
0.000161936
0.000167598
0.000170897
0.000170847
0.000165914
0.000154144
0.000134167
0.000107277
7.85953e-05
5.42929e-05
3.66289e-05
2.37997e-05
1.57671e-05
1.56545e-05
3.03917e-05
6.00978e-05
9.44977e-05
0.000121338
0.000134438
0.000135045
0.000123216
9.69083e-05
1.27867e-06
1.50311e-05
2.67797e-05
3.67157e-05
4.61839e-05
5.67725e-05
6.88749e-05
8.18622e-05
9.49526e-05
0.000107532
0.000119179
0.000129732
0.000139258
0.000147896
0.000155709
0.000162565
0.00016797
0.000170788
0.000169011
0.000159668
0.00013995
0.000110701
7.93593e-05
5.53399e-05
4.24026e-05
3.85158e-05
4.08416e-05
5.1247e-05
7.20934e-05
9.90757e-05
0.000122539
0.000134921
0.000135104
0.000120842
8.98202e-05
1.41947e-06
1.05487e-05
1.96902e-05
2.92196e-05
3.95246e-05
5.07981e-05
6.32232e-05
7.69897e-05
9.18424e-05
0.000106848
0.000120868
0.000133204
0.000143727
0.000152612
0.000160065
0.000166213
0.00017111
0.000174507
0.000175598
0.000172618
0.000162545
0.000141939
0.000111039
7.87431e-05
5.74527e-05
5.17989e-05
5.65358e-05
6.71241e-05
8.38714e-05
0.000105438
0.000125465
0.000136672
0.000136229
0.000120454
8.77768e-05
1.73088e-06
1.02514e-05
1.897e-05
2.81074e-05
3.81017e-05
4.96063e-05
6.31271e-05
7.84614e-05
9.4543e-05
0.000109981
0.000123812
0.000135843
0.000146408
0.000155987
0.000164946
0.000173425
0.00018137
0.00018836
0.000193429
0.000194995
0.000190667
0.000177315
0.00015199
0.000116554
8.32423e-05
6.77302e-05
7.08633e-05
8.23237e-05
9.68593e-05
0.000113583
0.0001293
0.000138213
0.000136655
0.000120162
8.81183e-05
1.82801e-06
9.04101e-06
1.69909e-05
2.65055e-05
3.84828e-05
5.32341e-05
7.00123e-05
8.72395e-05
0.000103231
0.000116878
0.000127899
0.000136687
0.000143939
0.000150405
0.000156791
0.000163765
0.000172031
0.000182016
0.000193219
0.000203794
0.000210275
0.000208428
0.000194032
0.000163866
0.000122325
8.81606e-05
7.92874e-05
9.02135e-05
0.000107161
0.000123448
0.000136831
0.000143913
0.000141288
0.00012426
9.31359e-05
1.94838e-06
1.19778e-05
2.41991e-05
3.95259e-05
5.76224e-05
7.70238e-05
9.57431e-05
0.000112134
0.000125449
0.000135826
0.000143907
0.000150452
0.00015611
0.000161369
0.000166619
0.000172282
0.000179064
0.000187873
0.000199276
0.000212475
0.000224351
0.000230246
0.000225608
0.000206509
0.000171058
0.000128158
0.000100144
9.88056e-05
0.000113785
0.00013071
0.000143113
0.000148465
0.000144638
0.000127631
9.80903e-05
2.145e-06
1.62374e-05
3.15671e-05
4.80273e-05
6.44786e-05
7.96485e-05
9.27732e-05
0.000103802
0.000113117
0.00012115
0.000128268
0.000134819
0.000141124
0.000147492
0.000154255
0.000161843
0.000170977
0.000182622
0.000197579
0.000215546
0.000233818
0.000247498
0.00025136
0.000241138
0.000213919
0.000172687
0.00013346
0.000116778
0.000124342
0.000140579
0.000153137
0.000157481
0.000152416
0.000134479
0.000103705
2.28719e-06
1.6977e-05
3.14461e-05
4.56988e-05
5.96208e-05
7.31731e-05
8.62182e-05
9.84022e-05
0.000109261
0.000118464
0.000125999
0.000132116
0.000137188
0.000141613
0.000145796
0.000150232
0.000155682
0.000163497
0.000175495
0.000193243
0.000216088
0.000239772
0.000257755
0.000263604
0.000252273
0.000221531
0.000178582
0.000144813
0.000136876
0.000147254
0.00015922
0.000163428
0.000158029
0.00013998
0.000109343
2.29165e-06
1.70654e-05
3.19952e-05
4.74951e-05
6.33855e-05
7.89182e-05
9.3017e-05
0.000104848
0.000114201
0.000121458
0.000127247
0.000132101
0.000136343
0.000140147
0.000143634
0.000147021
0.000150857
0.000156266
0.000165049
0.000179053
0.000198999
0.000223277
0.000247351
0.000264941
0.000269606
0.000256032
0.000223626
0.000184817
0.000161508
0.000160577
0.000169092
0.000172849
0.000167396
0.000149174
0.000119702
2.55789e-06
1.89426e-05
3.49431e-05
5.05002e-05
6.49308e-05
7.72978e-05
8.70775e-05
9.46741e-05
0.000101091
0.000107271
0.000113564
0.000119759
0.000125451
0.000130277
0.000133969
0.000136453
0.000138284
0.000141411
0.000149207
0.000164567
0.000187529
0.000215405
0.000244003
0.000268234
0.000282259
0.000280202
0.000258567
0.000222667
0.000190565
0.00017743
0.00017909
0.00018062
0.000174897
0.000157632
0.000131063
2.67088e-06
1.87104e-05
3.30224e-05
4.58225e-05
5.71456e-05
6.69663e-05
7.59283e-05
8.51787e-05
9.54375e-05
0.000106458
0.000117339
0.000127242
0.00013571
0.000142453
0.000147016
0.000148723
0.00014712
0.000143313
0.000141745
0.000149129
0.000168958
0.000198839
0.000232827
0.000264417
0.00028768
0.000296806
0.000286818
0.000258473
0.0002245
0.000202477
0.00019583
0.000193038
0.000185714
0.000168302
0.000142276
2.30887e-06
1.47685e-05
2.59548e-05
3.66045e-05
4.7199e-05
5.82709e-05
7.0567e-05
8.42884e-05
9.85889e-05
0.0001121
0.000123892
0.000133868
0.000142436
0.000149917
0.000156093
0.000160003
0.000160154
0.000155551
0.000148408
0.000146576
0.000158214
0.00018439
0.000219334
0.000254831
0.000284227
0.000301992
0.000302865
0.0002847
0.000254777
0.000229069
0.000215158
0.000206863
0.000196397
0.000177505
0.000151719
2.45783e-06
1.39827e-05
2.49987e-05
3.6542e-05
4.94438e-05
6.42967e-05
8.08897e-05
9.78666e-05
0.000113389
0.000126267
0.000136416
0.000144537
0.000151599
0.000158309
0.000164619
0.00016942
0.000170733
0.000166397
0.000156606
0.000148493
0.000153781
0.000177574
0.000213533
0.000251293
0.000283721
0.00030602
0.000313699
0.000303903
0.000280494
0.000255447
0.000236794
0.000223144
0.000208698
0.000187376
0.000160807
2.9131e-06
1.45677e-05
2.67767e-05
4.08965e-05
5.75005e-05
7.60164e-05
9.46742e-05
0.000111314
0.000124573
0.000134367
0.000141508
0.000147237
0.000152901
0.000159504
0.000167095
0.000174364
0.000178813
0.000177279
0.000167833
0.000155407
0.000153713
0.000173479
0.000209643
0.000249703
0.000284853
0.000310286
0.00032236
0.000318608
0.000301871
0.000279568
0.000258692
0.000240623
0.000221434
0.00019536
0.00016471
4.31728e-06
1.80471e-05
3.32055e-05
5.08282e-05
7.03029e-05
8.97518e-05
0.000106933
0.000120372
0.000129892
0.000136229
0.000140446
0.000143702
0.000147224
0.000152093
0.000158681
0.000166092
0.000172072
0.000173381
0.000167338
0.000157075
0.000155452
0.000175048
0.000211238
0.0002516
0.000287348
0.000314008
0.000328733
0.000330033
0.000319163
0.000300224
0.000278576
0.000256718
0.000232023
0.000199294
0.000161945
5.57408e-06
2.13109e-05
3.92091e-05
5.95119e-05
8.04111e-05
9.9591e-05
0.000115462
0.000127586
0.000136356
0.000142511
0.000146823
0.000150042
0.000152998
0.000156584
0.000161335
0.000166798
0.000171133
0.000171351
0.000165097
0.00015573
0.000157017
0.00018108
0.000220389
0.000261165
0.000295326
0.000320081
0.000334387
0.00033797
0.000330394
0.000313794
0.000292066
0.000267348
0.000237128
0.000196464
0.000149753
5.95469e-06
2.47226e-05
4.49607e-05
6.56064e-05
8.4561e-05
0.000100663
0.00011397
0.000124843
0.000133383
0.000139695
0.000144052
0.000146883
0.000148916
0.000151293
0.000155098
0.000160422
0.000165647
0.000167667
0.0001637
0.000156358
0.000158707
0.00018376
0.000224589
0.00026653
0.000300935
0.000325353
0.000340055
0.000344531
0.000338425
0.000322928
0.00030072
0.000272639
0.000235802
0.000187185
0.000132994
5.33097e-06
2.26556e-05
3.91229e-05
5.41218e-05
6.79267e-05
8.17932e-05
9.65491e-05
0.000111229
0.00012394
0.000133639
0.000140246
0.000143952
0.000145218
0.0001453
0.000146188
0.000149405
0.00015441
0.000158304
0.00015789
0.000154577
0.000159778
0.00018626
0.000228339
0.000269835
0.000302142
0.000324713
0.000338441
0.000342453
0.000336516
0.000321609
0.000299539
0.000269766
0.000228903
0.000175705
0.000117103
4.1076e-06
1.35511e-05
2.32838e-05
3.41206e-05
4.7535e-05
6.43592e-05
8.36081e-05
0.00010244
0.000118104
0.00012981
0.000138011
0.000142931
0.000144514
0.000143297
0.000141185
0.000141129
0.000145132
0.000151841
0.000156744
0.000156564
0.00015713
0.000173912
0.000212909
0.000260977
0.000299893
0.000324634
0.000337523
0.000340118
0.000333413
0.000318673
0.000296951
0.000266362
0.000222868
0.000166966
0.000106548
4.79854e-06
1.42069e-05
2.69827e-05
4.36671e-05
6.37897e-05
8.54744e-05
0.000105855
0.000122136
0.000133402
0.000140663
0.000144879
0.000146565
0.000146247
0.000144358
0.000141309
0.000138374
0.000138337
0.000143653
0.000153064
0.000161367
0.000164595
0.000168558
0.000186597
0.000225172
0.000271932
0.000309521
0.000331136
0.000337777
0.000332768
0.000319133
0.000298517
0.000268721
0.00022466
0.000166733
0.000105525