/*--------------------------------*- C++ -*----------------------------------*\
| =========                 |                                                 |
| \\      /  F ield         | OpenFOAM: The Open Source CFD Toolbox           |
|  \\    /   O peration     | Version:  v2006                                 |
|   \\  /    A nd           | Website:  www.openfoam.com                      |
|    \\/     M anipulation  |                                                 |
\*---------------------------------------------------------------------------*/
FoamFile
{
    version     2.0;
    format      ascii;
    class       surfaceScalarField;
    location    "25";
    object      phi;
}
// * * * * * * * * * * * * * * * * * * * * * * * * * * * * * * * * * * * * * //

dimensions      [1 0 -1 0 0 0 0];
oriented        oriented;


internalField   nonuniform List<scalar> 
228225
(
-1.49318e-05
-1.49194e-07
1.36315e-07
-1.38233e-05
-1.18611e-06
7.72882e-08
-1.20995e-05
-1.70575e-06
-1.81262e-08
-1.00724e-05
-1.90589e-06
-1.21317e-07
-7.97376e-06
-1.88339e-06
-2.15246e-07
-5.93319e-06
-1.75431e-06
-2.86274e-07
-4.00014e-06
-1.59346e-06
-3.39601e-07
-2.18572e-06
-1.43406e-06
-3.80364e-07
-4.9316e-07
-1.2824e-06
-4.10171e-07
1.07374e-06
-1.14038e-06
-4.26528e-07
2.51009e-06
-1.00818e-06
-4.28175e-07
3.82063e-06
-8.85924e-07
-4.24625e-07
5.0148e-06
-7.73027e-07
-4.21153e-07
6.10172e-06
-6.68363e-07
-4.18559e-07
7.08899e-06
-5.70709e-07
-4.16572e-07
7.98268e-06
-4.78936e-07
-4.14764e-07
8.78737e-06
-3.92028e-07
-4.12682e-07
9.50596e-06
-3.08816e-07
-4.09784e-07
1.01394e-05
-2.2792e-07
-4.05587e-07
1.06867e-05
-1.47697e-07
-3.99546e-07
1.11438e-05
-6.6146e-08
-3.91008e-07
1.15052e-05
1.76653e-08
-3.7908e-07
1.17613e-05
1.06721e-07
-3.62822e-07
1.18982e-05
2.04322e-07
-3.41252e-07
1.18998e-05
3.11643e-07
-3.13311e-07
1.17464e-05
4.31246e-07
-2.779e-07
1.14148e-05
5.65449e-07
-2.33892e-07
1.08787e-05
7.16271e-07
-1.80254e-07
1.01076e-05
8.8563e-07
-1.14545e-07
9.06806e-06
1.07604e-06
-3.6589e-08
7.70338e-06
1.29266e-06
7.19628e-08
5.95506e-06
1.54256e-06
2.05733e-07
3.81947e-06
1.80206e-06
3.33716e-07
1.53382e-06
1.90885e-06
3.77482e-07
1.30688e-06
2.28426e-07
-1.96279e-06
1.77561e-06
3.75245e-08
-4.36564e-06
1.58283e-06
-3.66237e-07
-6.32451e-06
1.06033e-06
-8.07447e-07
-7.79242e-06
6.5873e-07
-1.09678e-06
-8.78994e-06
3.76119e-07
-1.26208e-06
-9.3473e-06
1.67947e-07
-1.36497e-06
-9.50832e-06
2.37957e-09
-1.43486e-06
-9.38233e-06
-7.60834e-08
-1.48399e-06
-9.04562e-06
-1.0701e-07
-1.51211e-06
-8.56517e-06
-1.02624e-07
-1.51823e-06
-7.98709e-06
-7.99824e-08
-1.5063e-06
-7.33783e-06
-5.18125e-08
-1.48339e-06
-6.62975e-06
-2.24218e-08
-1.45869e-06
-5.87708e-06
1.50612e-08
-1.43612e-06
-5.09916e-06
6.70911e-08
-1.41573e-06
-4.29671e-06
1.1543e-07
-1.39683e-06
-3.47229e-06
1.6211e-07
-1.37858e-06
-2.63081e-06
2.09751e-07
-1.36006e-06
-1.77869e-06
2.60227e-07
-1.34028e-06
-9.23688e-07
3.15468e-07
-1.31819e-06
-7.49394e-08
3.77661e-07
-1.29257e-06
7.55509e-07
4.49339e-07
-1.26214e-06
1.55427e-06
5.33418e-07
-1.22548e-06
2.30638e-06
6.33272e-07
-1.18108e-06
2.9923e-06
7.52811e-07
-1.12711e-06
3.58817e-06
8.96572e-07
-1.06121e-06
4.06352e-06
1.07038e-06
-9.8031e-07
4.37754e-06
1.28238e-06
-8.80158e-07
4.47771e-06
1.53999e-06
-7.5454e-07
4.30368e-06
1.84586e-06
-5.95767e-07
3.79736e-06
2.19569e-06
-3.96651e-07
2.94006e-06
2.56212e-06
-1.62075e-07
1.81844e-06
2.85402e-06
7.0117e-08
6.62083e-07
2.84863e-06
2.17517e-07
1.80201e-06
1.68638e-07
-2.92679e-07
1.98954e-06
7.81443e-08
-1.617e-06
2.9753e-06
-6.83784e-08
-3.31137e-06
2.95351e-06
-1.99177e-07
-4.95754e-06
2.59264e-06
-2.8804e-07
-6.32455e-06
2.08881e-06
-3.45867e-07
-7.31663e-06
1.55307e-06
-3.93176e-07
-7.94593e-06
1.06924e-06
-4.37665e-07
-8.24316e-06
7.00455e-07
-4.79408e-07
-8.29599e-06
4.59543e-07
-5.1382e-07
-8.18137e-06
3.19941e-07
-5.37268e-07
-7.95496e-06
2.44053e-07
-5.50525e-07
-7.65284e-06
2.05721e-07
-5.59737e-07
-7.29869e-06
1.915e-07
-5.6816e-07
-6.90087e-06
1.93653e-07
-5.76499e-07
-6.45649e-06
2.07466e-07
-5.84838e-07
-5.97813e-06
2.30054e-07
-5.93057e-07
-5.47444e-06
2.59451e-07
-6.01106e-07
-4.95051e-06
2.94632e-07
-6.0889e-07
-4.40952e-06
3.35441e-07
-6.16269e-07
-3.85372e-06
3.82548e-07
-6.22943e-07
-3.28515e-06
4.37471e-07
-6.28431e-07
-2.70652e-06
5.02635e-07
-6.31977e-07
-2.12196e-06
5.81465e-07
-6.3265e-07
-1.53787e-06
6.78491e-07
-6.29345e-07
-9.63803e-07
7.99457e-07
-6.2074e-07
-4.13381e-07
9.51342e-07
-6.05213e-07
9.45182e-08
1.14298e-06
-5.80504e-07
5.31312e-07
1.38861e-06
-5.43023e-07
8.5447e-07
1.70431e-06
-4.87463e-07
1.01658e-06
2.09126e-06
-4.07457e-07
9.86352e-07
2.52293e-06
-2.9687e-07
7.76727e-07
2.92824e-06
-1.56184e-07
4.67949e-07
3.17743e-06
-1.40186e-08
1.45003e-07
3.07319e-06
9.94603e-08
1.84837e-06
1.00389e-07
-1.46967e-07
2.03794e-06
9.79766e-08
-4.46604e-07
3.23226e-06
4.25067e-08
-7.05548e-07
3.26761e-06
-5.55023e-08
-9.42606e-07
2.98727e-06
-1.57871e-07
-1.17235e-06
2.5619e-06
-2.43538e-07
-1.38025e-06
2.06686e-06
-3.06027e-07
-1.54108e-06
1.58263e-06
-3.52688e-07
-1.63478e-06
1.1807e-06
-3.86668e-07
-1.65078e-06
8.82228e-07
-4.06791e-07
-1.59309e-06
6.78059e-07
-4.15917e-07
-1.47818e-06
5.47825e-07
-4.18797e-07
-1.32491e-06
4.70166e-07
-4.17834e-07
-1.14767e-06
4.28385e-07
-4.1427e-07
-9.56365e-07
4.11132e-07
-4.08939e-07
-7.57252e-07
4.1062e-07
-4.02433e-07
-5.54136e-07
4.21974e-07
-3.95209e-07
-3.49484e-07
4.42271e-07
-3.87652e-07
-1.45139e-07
4.70203e-07
-3.80104e-07
5.72885e-08
5.05677e-07
-3.72857e-07
2.56339e-07
5.49441e-07
-3.66139e-07
4.50725e-07
6.02961e-07
-3.60071e-07
6.393e-07
6.68475e-07
-3.54603e-07
8.20815e-07
7.49215e-07
-3.4944e-07
9.93259e-07
8.49839e-07
-3.43951e-07
1.15313e-06
9.76519e-07
-3.37076e-07
1.29392e-06
1.13768e-06
-3.27237e-07
1.40252e-06
1.34636e-06
-3.12077e-07
1.46045e-06
1.61889e-06
-2.88251e-07
1.44977e-06
1.96669e-06
-2.51695e-07
1.35548e-06
2.38368e-06
-1.98054e-07
1.17151e-06
2.83127e-06
-1.24184e-07
9.1149e-07
3.22285e-06
-3.42098e-08
5.85237e-07
3.44168e-06
6.26685e-08
2.2733e-07
3.30707e-06
1.25145e-07
1.9759e-06
1.01571e-07
2.66081e-07
1.70316e-06
6.82167e-08
4.15148e-07
3.02993e-06
5.29697e-08
4.2608e-07
3.25265e-06
3.91455e-09
3.33261e-07
3.11787e-06
-3.78936e-08
1.44943e-07
2.82321e-06
-7.30787e-08
-1.23167e-07
2.42834e-06
-9.34129e-08
-4.39413e-07
1.99896e-06
-1.00093e-07
-7.50487e-07
1.58889e-06
-9.71326e-08
-1.01582e-06
1.23515e-06
-8.76339e-08
-1.22172e-06
9.57968e-07
-7.40998e-08
-1.37105e-06
7.55343e-07
-5.83156e-08
-1.4678e-06
6.08744e-07
-4.20033e-08
-1.51294e-06
5.00375e-07
-2.70679e-08
-1.50595e-06
4.18409e-07
-1.45221e-08
-1.44644e-06
3.55722e-07
-4.90499e-09
-1.33746e-06
3.09047e-07
3.62665e-09
-1.18428e-06
2.77583e-07
1.11523e-08
-9.92419e-07
2.62352e-07
1.56105e-08
-7.70171e-07
2.65423e-07
1.76107e-08
-5.27723e-07
2.89425e-07
1.71625e-08
-2.76548e-07
3.3736e-07
1.40197e-08
-2.8678e-08
4.12547e-07
7.66281e-09
2.04223e-07
5.18676e-07
-2.73578e-09
4.05933e-07
6.60259e-07
-1.24681e-08
5.64575e-07
8.43055e-07
-2.54672e-08
6.6945e-07
1.0722e-06
-3.96199e-08
7.15914e-07
1.35246e-06
-5.27192e-08
7.0712e-07
1.68963e-06
-6.20248e-08
6.53272e-07
2.08398e-06
-6.34489e-08
5.65206e-07
2.52427e-06
-5.2425e-08
4.49856e-07
2.97283e-06
-2.59799e-08
3.10218e-07
3.34584e-06
1.70825e-08
1.53268e-07
3.53065e-06
6.86823e-08
2.9291e-08
3.33234e-06
9.97846e-08
1.93146e-06
7.54032e-08
-3.49943e-08
1.66339e-06
7.43078e-08
-1.57311e-07
3.0549e-06
9.71672e-08
-3.30646e-07
3.3429e-06
8.31039e-08
-5.27271e-07
3.26058e-06
5.39305e-08
-7.41506e-07
3.01266e-06
2.48069e-08
-9.64123e-07
2.64297e-06
8.03961e-09
-1.18118e-06
2.20957e-06
6.51342e-09
-1.38183e-06
1.77316e-06
1.6415e-08
-1.55271e-06
1.37447e-06
3.15321e-08
-1.6772e-06
1.0345e-06
4.78638e-08
-1.74239e-06
7.56503e-07
6.38947e-08
-1.74365e-06
5.30179e-07
7.96375e-08
-1.67795e-06
3.39953e-07
9.44958e-08
-1.54052e-06
1.73068e-07
1.07652e-07
-1.32389e-06
1.97605e-08
1.19033e-07
-1.0492e-06
-9.49912e-08
1.29015e-07
-7.21667e-07
-1.88579e-07
1.38258e-07
-3.50506e-07
-2.56654e-07
1.47441e-07
5.16761e-08
-2.94315e-07
1.57122e-07
4.7046e-07
-2.97462e-07
1.67641e-07
8.90352e-07
-2.62062e-07
1.79044e-07
1.29526e-06
-1.83881e-07
1.91012e-07
1.66988e-06
-5.92635e-08
2.02796e-07
1.98483e-06
1.3153e-07
2.13248e-07
2.21343e-06
3.93254e-07
2.20682e-07
2.33704e-06
7.25506e-07
2.22623e-07
2.34534e-06
1.12688e-06
2.16881e-07
2.23928e-06
1.59286e-06
2.02526e-07
2.02916e-06
2.11226e-06
1.81698e-07
1.73274e-06
2.66012e-06
1.60566e-07
1.37344e-06
3.18549e-06
1.46799e-07
9.77765e-07
3.59762e-06
1.44252e-07
5.72497e-07
3.78842e-06
1.48097e-07
2.06063e-07
3.55982e-06
1.3987e-07
2.05377e-06
8.52083e-08
1.16873e-08
1.57987e-06
7.1432e-08
-9.18619e-08
3.04447e-06
1.13716e-07
-3.01235e-07
3.43211e-06
1.20053e-07
-5.54522e-07
3.40475e-06
1.09099e-07
-8.26053e-07
3.18863e-06
9.55703e-08
-1.11399e-06
2.83947e-06
9.14455e-08
-1.41316e-06
2.41002e-06
9.87059e-08
-1.7143e-06
1.96098e-06
1.1329e-07
-2.00378e-06
1.53308e-06
1.30822e-07
-2.26068e-06
1.1439e-06
1.47448e-07
-2.45984e-06
7.95323e-07
1.60252e-07
-2.58087e-06
4.83091e-07
1.68018e-07
-2.61251e-06
2.00435e-07
1.71039e-07
-2.55258e-06
-5.6955e-08
1.69957e-07
-2.39724e-06
-3.01617e-07
1.65881e-07
-2.14547e-06
-5.0747e-07
1.6052e-07
-1.81725e-06
-6.72697e-07
1.55687e-07
-1.43114e-06
-7.95919e-07
1.52913e-07
-1.00317e-06
-8.75928e-07
1.53381e-07
-5.47697e-07
-9.11194e-07
1.57965e-07
-7.79159e-08
-8.99431e-07
1.67263e-07
3.93193e-07
-8.36957e-07
1.81608e-07
8.49967e-07
-7.17515e-07
2.01085e-07
1.28523e-06
-5.2978e-07
2.25622e-07
1.67885e-06
-2.55364e-07
2.54537e-07
1.9971e-06
1.2128e-07
2.85489e-07
2.21435e-06
5.95778e-07
3.13381e-07
2.29353e-06
1.18241e-06
3.30843e-07
2.21e-06
1.86382e-06
3.3162e-07
1.95983e-06
2.59484e-06
3.15212e-07
1.56596e-06
3.29088e-06
2.88386e-07
1.07816e-06
3.82645e-06
2.59054e-07
5.75502e-07
4.06304e-06
2.28293e-07
1.72151e-07
3.78025e-06
1.8347e-07
2.13216e-06
9.48895e-08
-6.95406e-08
1.57683e-06
7.21753e-08
-2.62811e-07
3.10723e-06
1.30171e-07
-5.43853e-07
3.56214e-06
1.50837e-07
-8.55833e-07
3.56521e-06
1.51452e-07
-1.17792e-06
3.36452e-06
1.46149e-07
-1.50164e-06
3.01647e-06
1.46654e-07
-1.8149e-06
2.568e-06
1.55203e-07
-2.10351e-06
2.08169e-06
1.67848e-07
-2.35208e-06
1.60163e-06
1.79974e-07
-2.54336e-06
1.14741e-06
1.87746e-07
-2.65904e-06
7.22131e-07
1.8887e-07
-2.68174e-06
3.22827e-07
1.8296e-07
-2.59833e-06
-5.40395e-08
1.71058e-07
-2.41821e-06
-3.92237e-07
1.55136e-07
-2.16358e-06
-6.93965e-07
1.37678e-07
-1.84924e-06
-9.43184e-07
1.21302e-07
-1.49447e-06
-1.13546e-06
1.07904e-07
-1.11435e-06
-1.27461e-06
9.84824e-08
-7.20247e-07
-1.3639e-06
9.37519e-08
-3.20794e-07
-1.40506e-06
9.42803e-08
7.75463e-08
-1.39845e-06
1.0052e-07
4.70215e-07
-1.34266e-06
1.12853e-07
8.54544e-07
-1.23368e-06
1.31631e-07
1.22971e-06
-1.0625e-06
1.57324e-07
1.5922e-06
-8.09125e-07
1.91001e-07
1.92684e-06
-4.4705e-07
2.3339e-07
2.2014e-06
3.86778e-08
2.82204e-07
2.3622e-06
6.90177e-07
3.31074e-07
2.36941e-06
1.48643e-06
3.69846e-07
2.18349e-06
2.3926e-06
3.87856e-07
1.79802e-06
3.29526e-06
3.80878e-07
1.26575e-06
4.00604e-06
3.52592e-07
6.97803e-07
4.32402e-06
3.07078e-07
2.22117e-07
4.02152e-06
2.34886e-07
2.24494e-06
1.1046e-07
-3.36426e-08
1.53991e-06
7.00676e-08
-1.83342e-07
3.11976e-06
1.36888e-07
-4.39136e-07
3.65031e-06
1.67419e-07
-7.37565e-07
3.68723e-06
1.76253e-07
-1.0494e-06
3.50039e-06
1.75835e-07
-1.36142e-06
3.15058e-06
1.77814e-07
-1.65807e-06
2.67944e-06
1.85135e-07
-1.92086e-06
2.15047e-06
1.93966e-07
-2.12962e-06
1.61075e-06
1.99632e-07
-2.26472e-06
1.08373e-06
1.98792e-07
-2.31104e-06
5.78674e-07
1.89814e-07
-2.26349e-06
1.02326e-07
1.73e-07
-2.12753e-06
-3.40394e-07
1.50437e-07
-1.91022e-06
-7.34715e-07
1.25185e-07
-1.63651e-06
-1.06809e-06
1.00413e-07
-1.32854e-06
-1.32999e-06
7.88014e-08
-1.00213e-06
-1.52357e-06
6.16602e-08
-6.67655e-07
-1.65845e-06
4.92957e-08
-3.33229e-07
-1.74045e-06
4.20412e-08
-5.55484e-09
-1.77309e-06
4.02673e-08
3.09943e-07
-1.75835e-06
4.4303e-08
6.09063e-07
-1.69635e-06
5.44591e-08
8.89131e-07
-1.58496e-06
7.10803e-08
1.15011e-06
-1.41828e-06
9.46623e-08
1.39374e-06
-1.17952e-06
1.26606e-07
1.61523e-06
-8.37796e-07
1.69073e-07
1.79074e-06
-3.59591e-07
2.22558e-07
1.91128e-06
2.85135e-07
2.84296e-07
1.9335e-06
1.11735e-06
3.46676e-07
1.80783e-06
2.1218e-06
3.96338e-07
1.50338e-06
3.18062e-06
4.19058e-07
1.04744e-06
4.05519e-06
4.0689e-07
5.52832e-07
4.45971e-06
3.59273e-07
1.58691e-07
4.14639e-06
2.7006e-07
2.28494e-06
1.20219e-07
-3.17315e-08
1.50417e-06
6.69758e-08
-1.58287e-07
3.10652e-06
1.39484e-07
-3.80125e-07
3.69465e-06
1.77239e-07
-6.48654e-07
3.76378e-06
1.91755e-07
-9.3734e-07
3.59439e-06
1.94495e-07
-1.2329e-06
3.24934e-06
1.96646e-07
-1.51408e-06
2.75928e-06
2.01233e-07
-1.75426e-06
2.18588e-06
2.04712e-07
-1.92675e-06
1.58036e-06
2.02858e-07
-2.01022e-06
9.74009e-07
1.93193e-07
-1.99373e-06
3.87117e-07
1.75098e-07
-1.87864e-06
-1.62658e-07
1.49919e-07
-1.68462e-06
-6.5503e-07
1.20645e-07
-1.43161e-06
-1.07848e-06
9.07482e-08
-1.1415e-06
-1.42145e-06
6.32375e-08
-8.33071e-07
-1.67864e-06
4.01838e-08
-5.17296e-07
-1.86145e-06
2.20427e-08
-2.00881e-07
-1.9834e-06
8.46833e-09
1.10608e-07
-2.05131e-06
-6.99101e-10
4.10024e-07
-2.06938e-06
-3.20096e-09
6.93098e-07
-2.04021e-06
-1.28827e-09
9.54046e-07
-1.96474e-06
7.36018e-09
1.18903e-06
-1.84192e-06
2.18925e-08
1.39544e-06
-1.66743e-06
4.26439e-08
1.57111e-06
-1.42643e-06
7.11254e-08
1.7131e-06
-1.08948e-06
1.09579e-07
1.81628e-06
-6.22387e-07
1.5949e-07
1.87276e-06
7.82181e-09
2.20741e-07
1.85223e-06
8.47733e-07
2.90127e-07
1.72381e-06
1.89246e-06
3.57878e-07
1.45116e-06
3.04628e-06
4.07299e-07
1.0365e-06
4.05033e-06
4.2007e-07
5.70989e-07
4.54198e-06
3.84112e-07
1.77268e-07
4.2507e-06
2.90752e-07
2.33833e-06
1.25912e-07
1.53083e-08
1.42603e-06
6.2312e-08
-2.24131e-08
3.00816e-06
1.35705e-07
-1.47428e-07
3.64176e-06
1.77645e-07
-3.26296e-07
3.74594e-06
1.96493e-07
-5.33058e-07
3.59963e-06
2.01308e-07
-7.54382e-07
3.26807e-06
2.02394e-07
-9.67676e-07
2.76851e-06
2.03899e-07
-1.14254e-06
2.15744e-06
2.03193e-07
-1.24917e-06
1.49052e-06
1.96421e-07
-1.26794e-06
8.11353e-07
1.81395e-07
-1.19597e-06
1.57192e-07
1.57931e-07
-1.04348e-06
-4.43103e-07
1.2793e-07
-8.28791e-07
-9.64644e-07
9.48912e-08
-5.74995e-07
-1.39483e-06
6.25094e-08
-3.01571e-07
-1.72856e-06
3.36213e-08
-2.01769e-08
-1.9697e-06
9.58884e-09
2.63182e-07
-2.13592e-06
-8.9602e-09
5.43466e-07
-2.24123e-06
-2.25266e-08
8.15816e-07
-2.2921e-06
-3.16395e-08
1.07506e-06
-2.29269e-06
-3.60099e-08
1.31591e-06
-2.24569e-06
-3.54477e-08
1.5331e-06
-2.1523e-06
-2.97216e-08
1.72182e-06
-2.01213e-06
-1.85819e-08
1.8788e-06
-1.82221e-06
-2.29522e-09
1.99637e-06
-1.56808e-06
2.39894e-08
2.06931e-06
-1.22178e-06
5.92587e-08
2.09399e-06
-7.52572e-07
1.05404e-07
2.06116e-06
-1.22822e-07
1.63379e-07
1.96567e-06
7.10896e-07
2.32288e-07
1.78318e-06
1.76909e-06
3.05975e-07
1.48578e-06
2.97399e-06
3.70052e-07
1.06635e-06
4.06819e-06
4.02241e-07
5.94124e-07
4.63496e-06
3.80241e-07
1.87959e-07
4.36733e-06
2.90929e-07
2.40411e-06
1.2412e-07
1.42451e-08
1.35052e-06
6.07369e-08
1.16081e-09
2.88435e-06
1.3652e-07
-7.23897e-08
3.53299e-06
1.82073e-07
-1.90383e-07
3.65977e-06
2.03947e-07
-3.30964e-07
3.53e-06
2.10003e-07
-4.7785e-07
3.20456e-06
2.10202e-07
-6.07019e-07
2.68835e-06
2.0918e-07
-6.88944e-07
2.03459e-06
2.0465e-07
-6.99359e-07
1.30804e-06
1.92798e-07
-6.293e-07
5.69548e-07
1.71661e-07
-4.86257e-07
-1.28017e-07
1.42077e-07
-2.90401e-07
-7.46259e-07
1.07203e-07
-6.08345e-08
-1.26555e-06
7.12341e-08
1.8718e-07
-1.68079e-06
3.78374e-08
4.43604e-07
-1.99409e-06
8.99725e-09
7.04241e-07
-2.21678e-06
-1.36658e-08
9.67068e-07
-2.36739e-06
-3.14647e-08
1.22885e-06
-2.45799e-06
-4.51226e-08
1.48538e-06
-2.4941e-06
-5.46259e-08
1.73162e-06
-2.47907e-06
-5.99632e-08
1.96186e-06
-2.415e-06
-6.10241e-08
2.16991e-06
-2.30287e-06
-5.75659e-08
2.34939e-06
-2.14249e-06
-4.92044e-08
2.49327e-06
-1.93084e-06
-3.53384e-08
2.59218e-06
-1.6522e-06
-1.48874e-08
2.63608e-06
-1.28047e-06
1.46924e-08
2.61793e-06
-7.90345e-07
5.57997e-08
2.53202e-06
-1.45279e-07
1.08226e-07
2.36461e-06
7.05561e-07
1.72575e-07
2.10051e-06
1.78787e-06
2.45197e-07
1.72264e-06
3.03703e-06
3.14816e-07
1.233e-06
4.19816e-06
3.59878e-07
6.96556e-07
4.81978e-06
3.52078e-07
2.27922e-07
4.56386e-06
2.72827e-07
2.51801e-06
1.15133e-07
7.6695e-09
1.28063e-06
6.17443e-08
-5.38493e-09
2.75605e-06
1.41002e-07
-6.22861e-08
3.39986e-06
1.8978e-07
-1.51534e-07
3.53493e-06
2.13899e-07
-2.48044e-07
3.40578e-06
2.20586e-07
-3.24687e-07
3.0613e-06
2.19785e-07
-3.55558e-07
2.50279e-06
2.16322e-07
-3.21538e-07
1.79296e-06
2.07503e-07
-2.17929e-07
1.01521e-06
1.89105e-07
-5.74389e-08
2.48853e-07
1.60077e-07
1.41025e-07
-4.50186e-07
1.23567e-07
3.5856e-07
-1.04849e-06
8.45615e-08
5.83982e-07
-1.53862e-06
4.7505e-08
8.13683e-07
-1.9257e-06
1.50757e-08
1.04737e-06
-2.2169e-06
-1.10055e-08
1.2862e-06
-2.4245e-06
-3.12307e-08
1.53017e-06
-2.56408e-06
-4.73819e-08
1.77674e-06
-2.64476e-06
-5.99198e-08
2.02163e-06
-2.66998e-06
-6.91125e-08
2.2592e-06
-2.64168e-06
-7.50582e-08
2.48274e-06
-2.56098e-06
-7.76555e-08
2.68477e-06
-2.42839e-06
-7.65975e-08
2.85706e-06
-2.24352e-06
-7.13616e-08
2.98795e-06
-2.00072e-06
-6.10975e-08
3.06349e-06
-1.6834e-06
-4.44319e-08
3.07365e-06
-1.271e-06
-1.97245e-08
3.01018e-06
-7.42235e-07
1.52207e-08
2.86198e-06
-6.05551e-08
6.32817e-08
2.62119e-06
8.22841e-07
1.232e-07
2.27511e-06
1.94114e-06
1.92354e-07
1.8175e-06
3.23313e-06
2.60948e-07
1.26742e-06
4.43826e-06
3.09376e-07
6.98055e-07
5.07932e-06
3.09321e-07
2.20055e-07
4.80054e-06
2.40992e-07
2.63785e-06
1.00277e-07
-3.8082e-08
1.25342e-06
6.48256e-08
-1.27483e-07
2.69565e-06
1.4944e-07
-2.51363e-07
3.32161e-06
2.01898e-07
-3.86635e-07
3.44202e-06
2.28028e-07
-4.98555e-07
3.28252e-06
2.35062e-07
-5.46672e-07
2.87662e-06
2.32707e-07
-5.11387e-07
2.24336e-06
2.24063e-07
-3.97896e-07
1.47401e-06
2.05367e-07
-2.28855e-07
6.71791e-07
1.74254e-07
-3.11931e-08
-8.28913e-08
1.33942e-07
1.73341e-07
-7.4609e-07
9.12222e-08
3.7771e-07
-1.30479e-06
5.1788e-08
5.85011e-07
-1.76437e-06
1.83118e-08
8.00968e-07
-2.13376e-06
-8.0256e-09
1.0303e-06
-2.4189e-06
-2.74603e-08
1.27394e-06
-2.62547e-06
-4.28045e-08
1.52928e-06
-2.76456e-06
-5.49856e-08
1.79249e-06
-2.84331e-06
-6.47861e-08
2.05819e-06
-2.8632e-06
-7.26078e-08
2.31964e-06
-2.82469e-06
-7.85648e-08
2.569e-06
-2.72796e-06
-8.24988e-08
2.79734e-06
-2.57286e-06
-8.39927e-08
2.99322e-06
-2.35717e-06
-8.23457e-08
3.13941e-06
-2.07052e-06
-7.6497e-08
3.21803e-06
-1.69719e-06
-6.49245e-08
3.21812e-06
-1.22554e-06
-4.56529e-08
3.13044e-06
-6.37891e-07
-1.6788e-08
2.94668e-06
9.80116e-08
2.50051e-08
2.65667e-06
1.03166e-06
8.08451e-08
2.25815e-06
2.19169e-06
1.47388e-07
1.75837e-06
3.51683e-06
2.15198e-07
1.19304e-06
4.73733e-06
2.65138e-07
6.40103e-07
5.36134e-06
2.69789e-07
1.93519e-07
5.03558e-06
2.10665e-07
2.74484e-06
8.62005e-08
-7.42161e-08
1.25928e-06
6.78696e-08
-2.38896e-07
2.70024e-06
1.59774e-07
-4.40612e-07
3.30656e-06
2.16567e-07
-6.36292e-07
3.39508e-06
2.42472e-07
-7.81126e-07
3.18239e-06
2.44851e-07
-8.35618e-07
2.69802e-06
2.33022e-07
-8.01066e-07
1.99916e-06
2.0957e-07
-7.05076e-07
1.20383e-06
1.741e-07
-5.77885e-07
4.14333e-07
1.30155e-07
-4.38819e-07
-3.07227e-07
8.51472e-08
-2.92854e-07
-9.3789e-07
4.57062e-08
-1.32442e-07
-1.47971e-06
1.43696e-08
4.99886e-08
-1.93869e-06
-8.24179e-09
2.58729e-07
-2.31892e-06
-2.37181e-08
4.95351e-07
-2.62047e-06
-3.51834e-08
7.56114e-07
-2.84235e-06
-4.40169e-08
1.03496e-06
-2.9922e-06
-5.13406e-08
1.32575e-06
-3.07638e-06
-5.7862e-08
1.62182e-06
-3.09546e-06
-6.395e-08
1.91571e-06
-3.04906e-06
-6.96629e-08
2.19906e-06
-2.93667e-06
-7.47837e-08
2.46208e-06
-2.7572e-06
-7.88184e-08
2.68894e-06
-2.50323e-06
-8.09478e-08
2.8585e-06
-2.16e-06
-8.02062e-08
2.95398e-06
-1.7179e-06
-7.48984e-08
2.96148e-06
-1.17044e-06
-6.27217e-08
2.86807e-06
-5.037e-07
-4.08931e-08
2.66353e-06
3.09203e-07
-6.8045e-09
2.34603e-06
1.30565e-06
4.32549e-08
1.92466e-06
2.50648e-06
1.06095e-07
1.42853e-06
3.83946e-06
1.72727e-07
9.14193e-07
5.02655e-06
2.24097e-07
4.55213e-07
5.58643e-06
2.32927e-07
1.1873e-07
5.18932e-06
1.82191e-07
2.79113e-06
7.27075e-08
-3.92692e-08
1.23614e-06
6.1903e-08
-1.60226e-07
2.6687e-06
1.52157e-07
-3.37901e-07
3.27651e-06
2.07483e-07
-5.28267e-07
3.35802e-06
2.2724e-07
-6.92812e-07
3.12777e-06
2.19022e-07
-8.11616e-07
2.62343e-06
1.93272e-07
-8.87859e-07
1.91902e-06
1.56283e-07
-9.33055e-07
1.13569e-06
1.13231e-07
-9.51326e-07
3.61625e-07
7.08706e-08
-9.38592e-07
-3.55377e-07
3.53005e-08
-8.85843e-07
-9.99745e-07
8.98296e-09
-7.86432e-07
-1.57136e-06
-7.88816e-09
-6.39088e-07
-2.06811e-06
-1.80508e-08
-4.47295e-07
-2.48664e-06
-2.42073e-08
-2.17507e-07
-2.82228e-06
-2.81146e-08
4.26495e-08
-3.07152e-06
-3.11251e-08
3.24526e-07
-3.24013e-06
-3.40892e-08
6.20234e-07
-3.3348e-06
-3.74274e-08
9.22804e-07
-3.35674e-06
-4.14483e-08
1.2251e-06
-3.30528e-06
-4.62368e-08
1.51931e-06
-3.17939e-06
-5.16455e-08
1.79415e-06
-2.97496e-06
-5.72486e-08
2.0321e-06
-2.67881e-06
-6.25143e-08
2.21505e-06
-2.27646e-06
-6.66428e-08
2.32844e-06
-1.76349e-06
-6.7929e-08
2.35681e-06
-1.13511e-06
-6.38162e-08
2.28515e-06
-3.81173e-07
-5.09674e-08
2.1035e-06
5.16419e-07
-2.56348e-08
1.81294e-06
1.58091e-06
1.52169e-08
1.43293e-06
2.81511e-06
7.12089e-08
1.00762e-06
4.13038e-06
1.34097e-07
6.02938e-07
5.24516e-06
1.8571e-07
2.7111e-07
5.7193e-06
1.98831e-07
5.48543e-08
5.24965e-06
1.56357e-07
2.78655e-06
6.07849e-08
6.27574e-08
1.12827e-06
4.45923e-08
1.259e-07
2.48859e-06
1.16565e-07
1.30423e-07
3.10945e-06
1.62229e-07
8.86054e-08
3.224e-06
1.75586e-07
1.66862e-08
3.03617e-06
1.63307e-07
-9.11765e-08
2.59474e-06
1.36378e-07
-2.27566e-07
1.95235e-06
1.02895e-07
-3.72633e-07
1.21156e-06
6.90475e-08
-5.01941e-07
4.50819e-07
3.9976e-08
-5.90786e-07
-2.85217e-07
1.85526e-08
-6.22901e-07
-9.72608e-07
4.84871e-09
-5.96906e-07
-1.59462e-06
-2.86189e-09
-5.17259e-07
-2.14134e-06
-6.54647e-09
-3.91363e-07
-2.60478e-06
-7.88692e-09
-2.26977e-07
-2.97866e-06
-8.13444e-09
-3.13253e-08
-3.25909e-06
-8.21065e-09
1.86493e-07
-3.44939e-06
-8.68371e-09
4.18599e-07
-3.5573e-06
-9.74842e-09
6.58746e-07
-3.5853e-06
-1.17311e-08
9.0089e-07
-3.53268e-06
-1.48912e-08
1.13872e-06
-3.39807e-06
-1.93071e-08
1.3612e-06
-3.17275e-06
-2.48569e-08
1.55264e-06
-2.83885e-06
-3.1568e-08
1.70105e-06
-2.3862e-06
-3.88328e-08
1.79324e-06
-1.8106e-06
-4.52433e-08
1.81452e-06
-1.10816e-06
-4.83523e-08
1.75007e-06
-2.72127e-07
-4.4683e-08
1.59263e-06
7.03921e-07
-3.00725e-08
1.3459e-06
1.82856e-06
-8.57273e-10
1.03337e-06
3.08379e-06
4.40015e-08
7.01092e-07
4.36462e-06
9.82816e-08
4.06002e-07
5.39427e-06
1.46398e-07
1.73036e-07
5.79007e-06
1.6296e-07
3.07062e-08
5.26344e-06
1.29875e-07
2.76942e-06
5.00161e-08
9.05647e-08
1.00635e-06
3.08393e-08
2.48533e-07
2.24752e-06
8.26717e-08
3.93634e-07
2.84687e-06
1.17148e-07
5.01435e-07
2.98761e-06
1.28307e-07
5.65083e-07
2.85092e-06
1.21355e-07
5.64318e-07
2.49034e-06
1.04946e-07
5.036e-07
1.92802e-06
8.48487e-08
4.08981e-07
1.24098e-06
6.5024e-08
3.11695e-07
4.99787e-07
4.81566e-08
2.36054e-07
-2.45026e-07
3.53039e-08
1.96665e-07
-9.59556e-07
2.62054e-08
1.95174e-07
-1.6133e-06
2.0048e-08
2.28396e-07
-2.19076e-06
1.60882e-08
2.92268e-07
-2.68257e-06
1.38202e-08
3.83775e-07
-3.08306e-06
1.27939e-08
5.00306e-07
-3.38817e-06
1.24663e-08
6.3577e-07
-3.59725e-06
1.23096e-08
7.83535e-07
-3.71732e-06
1.21724e-08
9.38588e-07
-3.75222e-06
1.17806e-08
1.09617e-06
-3.70102e-06
1.06732e-08
1.25053e-06
-3.56103e-06
8.48636e-09
1.39278e-06
-3.32e-06
4.8791e-09
1.51203e-06
-2.95764e-06
-5.9989e-10
1.59835e-06
-2.465e-06
-7.67846e-09
1.64167e-06
-1.8382e-06
-1.58749e-08
1.63131e-06
-1.07479e-06
-2.31618e-08
1.55714e-06
-1.71717e-07
-2.63444e-08
1.41198e-06
8.70341e-07
-2.12813e-08
1.19952e-06
2.04508e-06
-3.93137e-09
9.39189e-07
3.31637e-06
2.80515e-08
6.6678e-07
4.56687e-06
7.06799e-08
4.2082e-07
5.52924e-06
1.11812e-07
2.09432e-07
5.87294e-06
1.29717e-07
5.79544e-08
5.31083e-06
1.05789e-07
2.78828e-06
4.14689e-08
4.75449e-08
9.31241e-07
2.7048e-08
1.56961e-07
2.06927e-06
6.84208e-08
2.87772e-07
2.61968e-06
9.60428e-08
4.10045e-07
2.757e-06
1.08051e-07
5.11062e-07
2.6413e-06
1.08347e-07
5.76275e-07
2.32281e-06
1.02091e-07
6.05538e-07
1.80643e-06
9.21396e-08
6.14222e-07
1.15173e-06
8.04001e-08
6.20996e-07
4.24749e-07
6.81222e-08
6.38337e-07
-3.184e-07
5.59077e-08
6.6801e-07
-1.0336e-06
4.4265e-08
7.10436e-07
-1.6896e-06
3.37895e-08
7.64359e-07
-2.26978e-06
2.50288e-08
8.29832e-07
-2.76648e-06
1.83849e-08
9.08107e-07
-3.17528e-06
1.39245e-08
1.00026e-06
-3.49164e-06
1.13217e-08
1.10484e-06
-3.71184e-06
1.00354e-08
1.21713e-06
-3.83931e-06
9.73768e-09
1.33299e-06
-3.87835e-06
1.03076e-08
1.44879e-06
-3.82808e-06
1.12874e-08
1.5594e-06
-3.68385e-06
1.22249e-08
1.65731e-06
-3.43043e-06
1.25106e-08
1.73464e-06
-3.04645e-06
1.1424e-08
1.78187e-06
-2.52053e-06
8.18781e-09
1.79012e-06
-1.84907e-06
2.47455e-09
1.75152e-06
-1.03208e-06
-4.26801e-09
1.65953e-06
-6.99364e-08
-9.94833e-09
1.5107e-06
1.03002e-06
-1.09444e-08
1.30686e-06
2.25211e-06
-3.18569e-09
1.06069e-06
3.54606e-06
1.66821e-08
7.96575e-07
4.78451e-06
4.69288e-08
5.39764e-07
5.70774e-06
7.90871e-08
2.95583e-07
6.02204e-06
9.62046e-08
9.55093e-08
5.43159e-06
8.08351e-08
2.85321e-06
3.2664e-08
-4.26476e-09
9.06746e-07
2.82508e-08
7.48763e-09
1.98906e-06
6.80435e-08
3.91797e-08
2.49359e-06
9.40728e-08
7.96758e-08
2.60862e-06
1.0761e-07
1.26261e-07
2.48285e-06
1.11638e-07
1.79624e-07
2.16034e-06
1.08912e-07
2.41776e-07
1.64331e-06
1.00808e-07
3.15933e-07
9.8903e-07
8.84129e-08
4.0297e-07
2.64884e-07
7.27169e-08
4.99107e-07
-4.69546e-07
5.49169e-08
5.98683e-07
-1.17002e-06
3.67705e-08
6.99024e-07
-1.80998e-06
1.99988e-08
8.01114e-07
-2.37754e-06
5.66284e-09
9.07773e-07
-2.86774e-06
-5.35849e-09
1.0215e-06
-3.27605e-06
-1.28766e-08
1.14358e-06
-3.5959e-06
-1.77107e-08
1.27319e-06
-3.82103e-06
-2.02788e-08
1.40623e-06
-3.95117e-06
-2.10251e-08
1.53886e-06
-3.99075e-06
-2.00495e-08
1.66786e-06
-3.93925e-06
-1.76505e-08
1.78927e-06
-3.79098e-06
-1.41217e-08
1.89682e-06
-3.52803e-06
-9.82064e-09
1.98156e-06
-3.12567e-06
-5.4376e-09
2.03213e-06
-2.56897e-06
-2.12264e-09
2.03806e-06
-1.85409e-06
-9.74938e-10
1.99221e-06
-9.84133e-07
-2.22465e-09
1.89191e-06
3.50779e-08
-4.89592e-09
1.73477e-06
1.19328e-06
-6.30596e-09
1.52346e-06
2.4661e-06
-2.80584e-09
1.26582e-06
3.79479e-06
8.91974e-09
9.77951e-07
5.04352e-06
2.90705e-08
6.79386e-07
5.9544e-06
5.23987e-08
3.81536e-07
6.25387e-06
6.68155e-08
1.26276e-07
5.63033e-06
5.76422e-08
2.95741e-06
2.37002e-08
-2.53904e-08
9.03122e-07
2.8503e-08
-7.1129e-08
1.9657e-06
6.8704e-08
-1.13575e-07
2.44109e-06
9.46427e-08
-1.45354e-07
2.53219e-06
1.07957e-07
-1.56169e-07
2.38272e-06
1.10734e-07
-1.34337e-07
2.0335e-06
1.0484e-07
-7.74061e-08
1.49464e-06
9.15999e-08
8.61079e-09
8.30429e-07
7.24783e-08
1.1377e-07
1.10462e-07
4.9184e-08
2.28055e-07
-6.07878e-07
2.39958e-08
3.46194e-07
-1.28723e-06
-9.43089e-10
4.65893e-07
-1.90865e-06
-2.10152e-08
5.91176e-07
-2.46498e-06
-3.77798e-08
7.26047e-07
-2.9522e-06
-5.03085e-08
8.72748e-07
-3.36385e-06
-5.87649e-08
1.03086e-06
-3.69011e-06
-6.37331e-08
1.19747e-06
-3.92146e-06
-6.59882e-08
1.36798e-06
-4.05527e-06
-6.62068e-08
1.53835e-06
-4.09624e-06
-6.46609e-08
1.70483e-06
-4.04392e-06
-6.15885e-08
1.86347e-06
-3.89228e-06
-5.71311e-08
2.00819e-06
-3.62139e-06
-5.11651e-08
2.12733e-06
-3.20079e-06
-4.3853e-08
2.20603e-06
-2.61162e-06
-3.59504e-08
2.23054e-06
-1.84983e-06
-2.87587e-08
2.19196e-06
-9.22223e-07
-2.34135e-08
2.08791e-06
1.59043e-07
-2.01052e-08
1.91921e-06
1.37931e-06
-1.75972e-08
1.69077e-06
2.70761e-06
-1.33334e-08
1.41018e-06
4.07954e-06
-4.39267e-09
1.09164e-06
5.35176e-06
1.02093e-08
7.55618e-07
6.26297e-06
2.75731e-08
4.2026e-07
6.55001e-06
3.95733e-08
1.35688e-07
5.8805e-06
3.50402e-08
3.08056e-06
1.36779e-08
-2.39141e-08
9.01565e-07
2.49602e-08
-8.13855e-08
1.96052e-06
6.2261e-08
-1.49895e-07
2.42312e-06
8.6175e-08
-2.13589e-07
2.49922e-06
9.6427e-08
-2.56239e-07
2.33107e-06
9.40956e-08
-2.64653e-07
1.96061e-06
8.11468e-08
-2.38323e-07
1.40833e-06
5.98628e-08
-1.85576e-07
7.44732e-07
3.28688e-08
-1.15235e-07
3.72705e-08
2.80164e-09
-3.66778e-08
-6.6025e-07
-2.61997e-08
4.93806e-08
-1.32136e-06
-5.19126e-08
1.45506e-07
-1.93236e-06
-7.23566e-08
2.56096e-07
-2.48847e-06
-8.70163e-08
3.85139e-07
-2.98498e-06
-9.61594e-08
5.34797e-07
-3.41277e-06
-1.00605e-07
7.0463e-07
-3.75822e-06
-1.01577e-07
8.91261e-07
-4.0075e-06
-1.00443e-07
1.089e-06
-4.15458e-06
-9.82702e-08
1.29287e-06
-4.20454e-06
-9.54013e-08
1.49819e-06
-4.15705e-06
-9.20185e-08
1.70013e-06
-4.00584e-06
-8.82011e-08
1.8916e-06
-3.72914e-06
-8.35487e-08
2.05766e-06
-3.28891e-06
-7.77993e-08
2.17918e-06
-2.66201e-06
-7.10318e-08
2.23757e-06
-1.84445e-06
-6.3748e-08
2.21954e-06
-8.47703e-07
-5.65537e-08
2.1203e-06
3.07865e-07
-4.97784e-08
1.94351e-06
1.59894e-06
-4.31588e-08
1.69884e-06
2.98757e-06
-3.56955e-08
1.39909e-06
4.40475e-06
-2.58903e-08
1.06284e-06
5.70021e-06
-1.25875e-08
7.15478e-07
6.60686e-06
3.25138e-09
3.80796e-07
6.87124e-06
1.34256e-08
1.13479e-07
6.13516e-06
1.28953e-08
3.19138e-06
3.42081e-09
2.63448e-09
8.81915e-07
1.65063e-08
-1.54325e-08
1.93327e-06
4.49249e-08
-5.34244e-08
2.3976e-06
6.32108e-08
-9.75302e-08
2.47545e-06
6.76369e-08
-1.34485e-07
2.30952e-06
5.83189e-08
-1.59097e-07
1.94705e-06
3.80308e-08
-1.71774e-07
1.41034e-06
1.05645e-08
-1.7615e-07
7.69766e-07
-2.07215e-08
-1.75595e-07
8.85676e-08
-5.18864e-08
-1.68457e-07
-5.88065e-07
-7.93263e-08
-1.51635e-07
-1.23758e-06
-1.00579e-07
-1.19608e-07
-1.84961e-06
-1.14737e-07
-6.6492e-08
-2.41944e-06
-1.22088e-07
1.26879e-08
-2.94048e-06
-1.23604e-07
1.21092e-07
-3.40031e-06
-1.20788e-07
2.591e-07
-3.78066e-06
-1.15484e-07
4.23608e-07
-4.06239e-06
-1.09523e-07
6.08117e-07
-4.2348e-06
-1.04188e-07
8.06774e-07
-4.30347e-06
-9.96283e-08
1.01473e-06
-4.26911e-06
-9.57859e-08
1.22714e-06
-4.12542e-06
-9.27087e-08
1.4375e-06
-3.84941e-06
-8.99746e-08
1.63127e-06
-3.39523e-06
-8.73568e-08
1.78825e-06
-2.73407e-06
-8.48524e-08
1.88561e-06
-1.85928e-06
-8.25291e-08
1.90237e-06
-7.8436e-07
-8.02034e-08
1.82687e-06
4.6029e-07
-7.71499e-08