/*--------------------------------*- C++ -*----------------------------------*\
| =========                 |                                                 |
| \\      /  F ield         | OpenFOAM: The Open Source CFD Toolbox           |
|  \\    /   O peration     | Version:  v2006                                 |
|   \\  /    A nd           | Website:  www.openfoam.com                      |
|    \\/     M anipulation  |                                                 |
\*---------------------------------------------------------------------------*/
FoamFile
{
    version     2.0;
    format      ascii;
    class       volScalarField;
    location    "25";
    object      T;
}
// * * * * * * * * * * * * * * * * * * * * * * * * * * * * * * * * * * * * * //

dimensions      [0 0 0 1 0 0 0];


internalField   nonuniform List<scalar> 
78750
(
299.108
298.359
298.342
298.319
298.302
298.29
298.28
298.272
298.266
298.259
298.253
298.247
298.241
298.235
298.229
298.223
298.217
298.211
298.205
298.199
298.193
298.186
298.18
298.173
298.167
298.16
298.152
298.144
298.136
298.129
298.134
298.191
298.408
298.935
299.809
299.622
299.038
298.697
298.53
298.449
298.406
298.383
298.368
298.357
298.347
298.338
298.329
298.32
298.311
298.302
298.293
298.283
298.273
298.263
298.253
298.242
298.231
298.219
298.207
298.195
298.182
298.169
298.157
298.147
298.148
298.177
298.28
298.53
299.01
299.816
299.699
299.185
298.828
298.603
298.482
298.429
298.409
298.402
298.398
298.394
298.389
298.384
298.378
298.371
298.364
298.356
298.348
298.339
298.33
298.321
298.311
298.301
298.291
298.283
298.275
298.27
298.269
298.276
298.297
298.344
298.44
298.616
298.905
299.386
300.202
299.734
299.283
298.985
298.783
298.643
298.559
298.512
298.488
298.475
298.466
298.459
298.454
298.449
298.445
298.439
298.433
298.427
298.419
298.411
298.401
298.391
298.381
298.37
298.359
298.35
298.343
298.342
298.349
298.373
298.429
298.543
298.743
299.039
299.513
300.332
299.795
299.42
299.162
298.979
298.831
298.716
298.63
298.569
298.528
298.501
298.483
298.472
298.465
298.462
298.46
298.459
298.457
298.455
298.451
298.446
298.44
298.433
298.425
298.419
298.417
298.42
298.434
298.464
298.52
298.616
298.769
298.996
299.311
299.809
300.648
299.808
299.455
299.205
299.026
298.875
298.747
298.65
298.58
298.536
298.51
298.497
298.494
298.497
298.504
298.515
298.526
298.536
298.545
298.552
298.555
298.555
298.551
298.543
298.532
298.52
298.51
298.509
298.526
298.575
298.675
298.843
299.094
299.433
299.949
300.803
299.824
299.492
299.249
299.069
298.916
298.786
298.683
298.608
298.561
298.537
298.532
298.541
298.558
298.581
298.606
298.63
298.653
298.672
298.687
298.698
298.704
298.704
298.7
298.69
298.676
298.66
298.647
298.65
298.687
298.783
298.96
299.232
299.608
300.171
301.048
299.83
299.507
299.263
299.081
298.928
298.796
298.692
298.62
298.579
298.565
298.571
298.592
298.621
298.655
298.688
298.719
298.746
298.769
298.788
298.802
298.812
298.818
298.819
298.816
298.808
298.796
298.784
298.78
298.803
298.881
299.049
299.333
299.735
300.325
301.214
299.839
299.53
299.285
299.102
298.95
298.82
298.716
298.646
298.61
298.602
298.617
298.647
298.685
298.725
298.763
298.796
298.824
298.847
298.866
298.881
298.892
298.9
298.904
298.905
298.903
298.899
298.895
298.899
298.928
299.009
299.182
299.479
299.899
300.506
301.395
299.845
299.545
299.302
299.119
298.969
298.842
298.742
298.678
298.65
298.652
298.676
298.713
298.755
298.797
298.834
298.865
298.89
298.911
298.929
298.943
298.954
298.962
298.967
298.97
298.972
298.972
298.974
298.984
299.017
299.099
299.271
299.57
299.998
300.606
301.49
299.855
299.571
299.334
299.154
299.01
298.888
298.793
298.733
298.708
298.713
298.739
298.777
298.819
298.859
298.893
298.921
298.944
298.964
298.98
298.994
299.004
299.013
299.02
299.025
299.029
299.034
299.041
299.058
299.096
299.181
299.352
299.652
300.081
300.691
301.577
299.863
299.594
299.366
299.192
299.055
298.94
298.851
298.796
298.776
298.785
298.812
298.849
298.887
298.921
298.951
298.975
298.994
299.011
299.026
299.038
299.048
299.057
299.064
299.071
299.077
299.085
299.097
299.12
299.165
299.253
299.423
299.72
300.154
300.776
301.678
299.871
299.617
299.399
299.233
299.103
298.995
298.913
298.864
298.849
298.858
298.884
298.915
298.947
298.975
298.999
299.019
299.035
299.05
299.063
299.075
299.085
299.094
299.103
299.111
299.12
299.132
299.151
299.183
299.243
299.35
299.538
299.852
300.301
300.942
301.866
299.877
299.634
299.426
299.267
299.142
299.041
298.967
298.928
298.918
298.929
298.951
298.977
299.001
299.023
299.042
299.057
299.071
299.084
299.096
299.107
299.118
299.128
299.138
299.148
299.159
299.175
299.2
299.242
299.316
299.446
299.664
300.01
300.485
301.145
302.085
299.881
299.645
299.444
299.292
299.172
299.077
299.013
298.982
298.976
298.986
299.003
299.022
299.04
299.057
299.071
299.084
299.096
299.108
299.119
299.131
299.143
299.155
299.168
299.181
299.198
299.22
299.252
299.305
299.396
299.551
299.804
300.185
300.679
301.344
302.28
299.885
299.656
299.461
299.314
299.198
299.109
299.052
299.025
299.02
299.027
299.04
299.055
299.069
299.081
299.093
299.103
299.113
299.124
299.136
299.148
299.161
299.176
299.192
299.212
299.235
299.265
299.307
299.372
299.477
299.651
299.928
300.33
300.827
301.48
302.398
299.895
299.685
299.502
299.361
299.252
299.165
299.108
299.077
299.066
299.067
299.074
299.082
299.091
299.099
299.108
299.116
299.125
299.134
299.145
299.157
299.172
299.188
299.209
299.234
299.266
299.306
299.36
299.438
299.559
299.748
300.036
300.441
300.927
301.562
302.461
299.908
299.722
299.556
299.426
299.324
299.243
299.183
299.145
299.124
299.115
299.113
299.113
299.116
299.12
299.125
299.131
299.138
299.146
299.156
299.168
299.182
299.199
299.221
299.249
299.287
299.335
299.399
299.488
299.619
299.816
300.106
300.503
300.976
301.599
302.492
299.919
299.753
299.605
299.486
299.393
299.316
299.254
299.21
299.181
299.161
299.15
299.143
299.141
299.142
299.145
299.151
299.158
299.166
299.176
299.187
299.2
299.216
299.237
299.266
299.305
299.358
299.43
299.529
299.67
299.873
300.164
300.554
301.021
301.643
302.539
299.925
299.774
299.638
299.528
299.439
299.364
299.3
299.251
299.216
299.191
299.175
299.166
299.164
299.166
299.171
299.179
299.188
299.198
299.208
299.219
299.232
299.246
299.265
299.292
299.328
299.381
299.454
299.558
299.706
299.915
300.21
300.598
301.065
301.694
302.6
299.93
299.787
299.659
299.553
299.466
299.391
299.326
299.275
299.237
299.212
299.198
299.192
299.192
299.197
299.205
299.216
299.227
299.238
299.249
299.261
299.274
299.289
299.308
299.332
299.367
299.416
299.489
299.594
299.746
299.962
300.262
300.655
301.129
301.77
302.687
299.933
299.795
299.672
299.569
299.483
299.407
299.342
299.292
299.257
299.235
299.224
299.221
299.224
299.232
299.241
299.252
299.264
299.275
299.288
299.301
299.315
299.333
299.354
299.381
299.417
299.466
299.536
299.64
299.793
300.014
300.322
300.722
301.206
301.859
302.787
299.935
299.803
299.684
299.584
299.499
299.424
299.362
299.315
299.283
299.264
299.256
299.254
299.257
299.263
299.271
299.281
299.291
299.303
299.316
299.33
299.347
299.368
299.395
299.43
299.474
299.531
299.606
299.713
299.868
300.093
300.407
300.813
301.305
301.971
302.906
299.939
299.814
299.7
299.604
299.524
299.454
299.394
299.35
299.319
299.301
299.291
299.287
299.287
299.29
299.295
299.302
299.312
299.323
299.335
299.35
299.369
299.392
299.424
299.468
299.525
299.597
299.687
299.805
299.967
300.197
300.517
300.925
301.423
302.1
303.039
299.945
299.83
299.725
299.635
299.56
299.495
299.439
299.396
299.365
299.343
299.329
299.321
299.317
299.316
299.318
299.324
299.332
299.343
299.355
299.37
299.387
299.411
299.444
299.493
299.561
299.652
299.769
299.913
300.096
300.338
300.662
301.068
301.568
302.252
303.19
299.951
299.848
299.752
299.67
299.6
299.54
299.488
299.446
299.413
299.387
299.368
299.355
299.346
299.341
299.341
299.345
299.353
299.363
299.375
299.389
299.406
299.427
299.457
299.5
299.564
299.659
299.791
299.965
300.182
300.453
300.791
301.199
301.698
302.382
303.314
299.957
299.865
299.778
299.702
299.637
299.581
299.532
299.489
299.452
299.423
299.399
299.382
299.37
299.364
299.363
299.366
299.373
299.382
299.394
299.409
299.426
299.449
299.479
299.519
299.575
299.659
299.783
299.961
300.2
300.5
300.865
301.289
301.793
302.474
303.395
299.962
299.878
299.798
299.728
299.666
299.612
299.563
299.52
299.482
299.451
299.427
299.409
299.397
299.39
299.387
299.387
299.391
299.398
299.408
299.421
299.439
299.462
299.494
299.536
299.592
299.668
299.78
299.946
300.182
300.495
300.882
301.327
301.841
302.518
303.429
299.966
299.891
299.818
299.753
299.695
299.643
299.597
299.556
299.52
299.49
299.466
299.447
299.433
299.423
299.415
299.411
299.41
299.412
299.42
299.431
299.447
299.47
299.502
299.544
299.599
299.672
299.773
299.924
300.147
300.459
300.86
301.326
301.852
302.528
303.436
299.97
299.903
299.837
299.778
299.725
299.677
299.634
299.596
299.562
299.532
299.507
299.485
299.467
299.451
299.439
299.43
299.426
299.428
299.434
299.445
299.462
299.485
299.517
299.56
299.612
299.678
299.768
299.9
300.1
300.395
300.793
301.273
301.812
302.492
303.405
299.972
299.911
299.851
299.796
299.746
299.701
299.66
299.623
299.588
299.557
299.528
299.503
299.48
299.461
299.447
299.44
299.438
299.442
299.451
299.465
299.485
299.513
299.551
299.601
299.658
299.721
299.797
299.905
300.076
300.342
300.724
301.205
301.749
302.437
303.365
299.974
299.916
299.859
299.807
299.758
299.713
299.672
299.632
299.594
299.557
299.524
299.495
299.473
299.457
299.45
299.449
299.454
299.463
299.476
299.493
299.517
299.549
299.596
299.66
299.737
299.819
299.905
300.011
300.167
300.41
300.768
301.229
301.769
302.47
303.417
299.974
299.916
299.858
299.804
299.753
299.704
299.655
299.606
299.56
299.521
299.489
299.468
299.458
299.456
299.46
299.469
299.48
299.494
299.511
299.531
299.555
299.588
299.636
299.703
299.788
299.886
299.991
300.113
300.276
300.515
300.859
301.296
301.829
302.548
303.516
299.971
299.908
299.844
299.782
299.72
299.657
299.596
299.543
299.503
299.477
299.466
299.465
299.471
299.481
299.493
299.506
299.521
299.538
299.557
299.58
299.609
299.65
299.709
299.79
299.891
300.002
300.121
300.257
300.432
300.676
301.014
301.431
301.957
302.696
303.68
299.965
299.89
299.815
299.743
299.673
299.606
299.552
299.515
299.495
299.489
299.491
299.497
299.506
299.515
299.526
299.537
299.55
299.565
299.583
299.606
299.636
299.681
299.749
299.846
299.97
300.112
300.26
300.419
300.611
300.864
301.196
301.599
302.121
302.875
303.864
299.962
299.88
299.801
299.727
299.658
299.598
299.555
299.528
299.515
299.512
299.514
299.519
299.526
299.535
299.545
299.557
299.571
299.587
299.606
299.628
299.659
299.704
299.771
299.872
300.009
300.177
300.362
300.557
300.776
301.042
301.374
301.77
302.29
303.047
304.031
299.961
299.878
299.8
299.73
299.666
299.613
299.576
299.554
299.542
299.539
299.54
299.544
299.55
299.557
299.567
299.578
299.591
299.607
299.626
299.649
299.679
299.722
299.786
299.882
300.02
300.202
300.416
300.65
300.901
301.188
301.524
301.917
302.436
303.189
304.161
299.965
299.889
299.818
299.754
299.698
299.651
299.616
299.591
299.576
299.568
299.564
299.564
299.566
299.571
299.579
299.589
299.601
299.617
299.635
299.657
299.685
299.725
299.782
299.868
299.996
300.176
300.408
300.676
300.968
301.286
301.639
302.038
302.555
303.3
304.259
299.97
299.905
299.842
299.785
299.736
299.693
299.659
299.633
299.614
299.601
299.593
299.589
299.589
299.592
299.597
299.606
299.617
299.632
299.649
299.67
299.697
299.732
299.782
299.854
299.964
300.126
300.351
300.636
300.964
301.322
301.705
302.118
302.638
303.374
304.319
299.974
299.918
299.862
299.811
299.765
299.726
299.693
299.666
299.646
299.631
299.62
299.614
299.611
299.611
299.615
299.621
299.631
299.645
299.662
299.682
299.708
299.742
299.787
299.851
299.943
300.082
300.285
300.563
300.91
301.306
301.729
302.167
302.694
303.421
304.35
299.979
299.93
299.881
299.835
299.794
299.758
299.727
299.702
299.681
299.665
299.652
299.643
299.638
299.635
299.636
299.641
299.649
299.661
299.677
299.697
299.722
299.756
299.8
299.86
299.943
300.062
300.239
300.493
300.834
301.249
301.708
302.176
302.714
303.432
304.343
299.983
299.943
299.901
299.862
299.825
299.793
299.765
299.741
299.72
299.702
299.688
299.676
299.668
299.663
299.661
299.664
299.67
299.681
299.695
299.714
299.74
299.773
299.818
299.878
299.958
300.069
300.23
300.461
300.784
301.197
301.675
302.165
302.711
303.421
304.32
299.988
299.956
299.922
299.888
299.856
299.827
299.801
299.778
299.757
299.739
299.723
299.71
299.7
299.693
299.69
299.691
299.696
299.706
299.72
299.739
299.765
299.799
299.845
299.905
299.983
300.09
300.239
300.452
300.754
301.153
301.632
302.132
302.683
303.387
304.28
299.991
299.967
299.939
299.91
299.883
299.858
299.834
299.813
299.794
299.776
299.76
299.746
299.734
299.725
299.718
299.715
299.717
299.723
299.736
299.756
299.785
299.825
299.877
299.943
300.028
300.138
300.286
300.49
300.775
301.154
301.617
302.108
302.656
303.36
304.257
299.994
299.975
299.953
299.928
299.905
299.882
299.859
299.837
299.816
299.795
299.774
299.753
299.733
299.715
299.699
299.686
299.678
299.677
299.686
299.707
299.743
299.795
299.865
299.949
300.048
300.168
300.319
300.52
300.793
301.155
301.602
302.083
302.627
303.335
304.243
299.996
299.98
299.957
299.93
299.898
299.862
299.822
299.779
299.736
299.694
299.655
299.619
299.586
299.558
299.534
299.514
299.501
299.495
299.499
299.519
299.56
299.629
299.728
299.854
300.003
300.165
300.345
300.559
300.829
301.178
301.606
302.072
302.609
303.323
304.246
299.994
299.968
299.926
299.865
299.786
299.698
299.612
299.536
299.473
299.424
299.387
299.359
299.338
299.321
299.309
299.299
299.291
299.285
299.282
299.285
299.3
299.341
299.422
299.556
299.744
299.972
300.222
300.486
300.781
301.136
301.562
302.03
302.573
303.296
304.237
299.979
299.919
299.83
299.714
299.591
299.486
299.413
299.372
299.356
299.355
299.361
299.369
299.377
299.382
299.384
299.383
299.377
299.367
299.352
299.332
299.31
299.291
299.292
299.341
299.468
299.684
299.977
300.313
300.671
301.063
301.504
301.982
302.532
303.266
304.221
299.956
299.853
299.733
299.615
299.529
299.49
299.493
299.518
299.548
299.573
299.59
299.599
299.602
299.601
299.597
299.592
299.586
299.58
299.571
299.558
299.537
299.505
299.47
299.449
299.48
299.602
299.833
300.16
300.551
300.987
301.465
301.967
302.533
303.272
304.224
299.937
299.81
299.699
299.625
299.6
299.609
299.627
299.635
299.63
299.615
299.596
299.577
299.56
299.547
299.539
299.535
299.538
299.547
299.566
299.592
299.621
299.644
299.654
299.657
299.675
299.747
299.911
300.183
300.549
300.986
301.478
301.993
302.566
303.303
304.242
299.941
299.829
299.744
299.692
299.663
299.643
299.622
299.6
299.58
299.565
299.553
299.544
299.537
299.531
299.525
299.52
299.516
299.517
299.525
299.548
299.59
299.648
299.714
299.775
299.834
299.914
300.051
300.28
300.613
301.039
301.534
302.05
302.623
303.357
304.285
299.958
299.876
299.808
299.756
299.719
299.696
299.683
299.677
299.672
299.665
299.656
299.646
299.637
299.63
299.623
299.617
299.61
299.601
299.593
299.589
299.599
299.634
299.7
299.789
299.892
300.009
300.159
300.375
300.685
301.093
301.577
302.084
302.65
303.378
304.299
299.971
299.911
299.858
299.816
299.785
299.763
299.741
299.716
299.687
299.656
299.628
299.606
299.591
299.582
299.58
299.583
299.589
299.599
299.609
299.62
299.633
299.657
299.704
299.785
299.898
300.035
300.201
300.42
300.721
301.116
301.592
302.091
302.65
303.376
304.297
299.977
299.926
299.881
299.841
299.807
299.774
299.742
299.71
299.68
299.655
299.637
299.624
299.615
299.609
299.606
299.604
299.603
299.604
299.607
299.613
299.625
299.647
299.689
299.766
299.886
300.045
300.233
300.461
300.755
301.137
301.599
302.089
302.644
303.372
304.302
299.983
299.944
299.906
299.87
299.835
299.8
299.766
299.733
299.706
299.683
299.667
299.656
299.65
299.649
299.653
299.659
299.667
299.675
299.679
299.679
299.675
299.673
299.684
299.723
299.815
299.972
300.183
300.436
300.741
301.119
301.575
302.062
302.618
303.356
304.306
299.986
299.948
299.906
299.859
299.809
299.76
299.714
299.674
299.643
299.619
299.603
299.593
299.59
299.592
299.6
299.614
299.633
299.656
299.681
299.703
299.72
299.733
299.747
299.773
299.832
299.953
300.152
300.417
300.737
301.121
301.573
302.058
302.619
303.371
304.337
299.981
299.934
299.883
299.83
299.781
299.739
299.706
299.682
299.666
299.654
299.646
299.641
299.64
299.642
299.647
299.656
299.67
299.687
299.707
299.726
299.744
299.76
299.778
299.805
299.857
299.959
300.139
300.404
300.74
301.137
301.594
302.079
302.643
303.405
304.381
299.979
299.932
299.885
299.841
299.803
299.77
299.741
299.715
299.692
299.672
299.656
299.644
299.637
299.635
299.64
299.651
299.67
299.696
299.727
299.759
299.789
299.815
299.839
299.867
299.91
299.99
300.141
300.387
300.727
301.141
301.611
302.104
302.674
303.442
304.425
299.982
299.938
299.892
299.846
299.801
299.76
299.724
299.694
299.669
299.651
299.638
299.629
299.625
299.625
299.63
299.64
299.657
299.68
299.711
299.748
299.787
299.825
299.862
299.901
299.95
300.024
300.152
300.37
300.697
301.121
301.61
302.118
302.698
303.475
304.467
299.979
299.931
299.882
299.836
299.796
299.764
299.739
299.721
299.707
299.696
299.688
299.681
299.679
299.68
299.686
299.699
299.719
299.747
299.778
299.812
299.845
299.878
299.913
299.953
300.003
300.076
300.193
300.387
300.69
301.106
301.604
302.127
302.721
303.511
304.515
299.979
299.933
299.889
299.851
299.819
299.793
299.77
299.749
299.729
299.71
299.692
299.679
299.67
299.666
299.67
299.684
299.709
299.746
299.794
299.846
299.894
299.936
299.975
300.017
300.068
300.142
300.256
300.441
300.729
301.134
301.633
302.162
302.767
303.571
304.584
299.984
299.946
299.909
299.875
299.845
299.817
299.792
299.769
299.749
299.732
299.72
299.712
299.707
299.706
299.71
299.72
299.74
299.772
299.82
299.878
299.938
299.993
300.042
300.089
300.145
300.22
300.334
300.513
300.789
301.183
301.675
302.205
302.817
303.639
304.669
299.986
299.952
299.916
299.882
299.851
299.822
299.797
299.777
299.761
299.75
299.742
299.737
299.735
299.738
299.745
299.76
299.783
299.817
299.867
299.93
299.999
300.064
300.12
300.172
300.232
300.312
300.431
300.613
300.887
301.272
301.754
302.278
302.896
303.737
304.784
299.987
299.954
299.919
299.884
299.851
299.824
299.803
299.789
299.779
299.773
299.769
299.766
299.765
299.769
299.778
299.795
299.822
299.862
299.918
299.989
300.071
300.15
300.22
300.282
300.346
300.429
300.552
300.738
301.016
301.399
301.87
302.382
303.004
303.865
304.93
299.987
299.952
299.915
299.881
299.853
299.835
299.825
299.822
299.822
299.823
299.823
299.821
299.821
299.824
299.833
299.853
299.885
299.933
299.997
300.077
300.167
300.256
300.335
300.408
300.485
300.581
300.716
300.916
301.202
301.584
302.04
302.541
303.172
304.054
305.125
299.986
299.951
299.915
299.885
299.865
299.857
299.857
299.863
299.868
299.871
299.871
299.869
299.867
299.869
299.879
299.902
299.943
300.005
300.09
300.194
300.306
300.412
300.503
300.584
300.669
300.777
300.93
301.149
301.449
301.829
302.263
302.751
303.388
304.268
305.315
299.985
299.949
299.915
299.891
299.882
299.884
299.894
299.905
299.915
299.921
299.924
299.923
299.921
299.92
299.927
299.949
299.994
300.067
300.169
300.295
300.432
300.563
300.679
300.785
300.894
301.027
301.203
301.441
301.747
302.112
302.518
302.995
303.635
304.489
305.489
299.985
299.952
299.926
299.911
299.908
299.913
299.921
299.929
299.937
299.944
299.951
299.955
299.957
299.957
299.962
299.984
300.034
300.122
300.25
300.411
300.583
300.742
300.88
301.004
301.132
301.284
301.478
301.727
302.031
302.376
302.757
303.216
303.835
304.633
305.57
299.994
299.977
299.961
299.95
299.941
299.934
299.93
299.929
299.934
299.943
299.956
299.968
299.976
299.977
299.972
299.971
299.996
300.065
300.193
300.381
300.609
300.839
301.038
301.204
301.359
301.531
301.736
301.983
302.269
302.584
302.933
303.366
303.954
304.702
305.595
299.998
299.986
299.971
299.955
299.94
299.929
299.923
299.925
299.932
299.945
299.96
299.976
299.991
299.999
299.999
299.989
299.982
300
300.07
300.216
300.444
300.729
301.023
301.28
301.494
301.689
301.898
302.139
302.411
302.705
303.029
303.431
303.981
304.688
305.548
299.997
299.983
299.964
299.945
299.932
299.929
299.936
299.952
299.974
299.999
300.021
300.035
300.037
300.03
300.018
300.005
299.996
300
300.031
300.112
300.266
300.507
300.821
301.161
301.479
301.758
302.01
302.26
302.519
302.792
303.09
303.459
303.967
304.632
305.467
299.991
299.964
299.937
299.92
299.917
299.929
299.951
299.983
300.02
300.052
300.069
300.069
300.055
300.034
300.013
299.998
299.993
300.001
300.028
300.085
300.188
300.357
300.604
300.921
301.271
301.615
301.932
302.226
302.504
302.776
303.061
303.406
303.882
304.528
305.363
299.984
299.949
299.927
299.927
299.942
299.965
299.995
300.03
300.06
300.077
300.08
300.071
300.056
300.038
300.021
300.011
300.011
300.024
300.054
300.108
300.195
300.329
300.526
300.794
301.12
301.476
301.829
302.158
302.463
302.748
303.034
303.37
303.831
304.467
305.301
299.986
299.96
299.947
299.942
299.941
299.941
299.945
299.955
299.976
300.009
300.051
300.09
300.117
300.124
300.115
300.097
300.08
300.073
300.081
300.111
300.17
300.27
300.425
300.648
300.944
301.294
301.668
302.031
302.367
302.674
302.973
303.31
303.767
304.408
305.251
299.996
299.985
299.977
299.973
299.974
299.979
299.987
299.998
300.012
300.03
300.056
300.091
300.133
300.171
300.192
300.192
300.177
300.161
300.152
300.157
300.186
300.246
300.353
300.523
300.768
301.088
301.461
301.85
302.222
302.559
302.872
303.215
303.677
304.33
305.178
300.001
299.998
299.996
299.999
300.008
300.022
300.042
300.07
300.106
300.142
300.172
300.194
300.211
300.225
300.234
300.235
300.227
300.218
300.212
300.215
300.232
300.273
300.348
300.472
300.661
300.928
301.268
301.658
302.056
302.426
302.763
303.114
303.574
304.225
305.072
300
299.993
299.985
299.979
299.978
299.983
299.997
300.024
300.068
300.127
300.191
300.245
300.281
300.3
300.307
300.304
300.295
300.284
300.275
300.273
300.281
300.307
300.36
300.451
300.596
300.808
301.097
301.458
301.861
302.261
302.629
302.997
303.464
304.139
305.028
300.003
300.003
300.003
300.004
300.009
300.018
300.035
300.065
300.117
300.189
300.269
300.339
300.384
300.403
300.402
300.391
300.375
300.361
300.353
300.352
300.361
300.387
300.437
300.522
300.652
300.836
301.082
301.394
301.764
302.162
302.546
302.935
303.433
304.156
305.073
300.004
300.004
300
299.998
299.999
300.003
300.013
300.036
300.08
300.154
300.254
300.359
300.444
300.492
300.506
300.495
300.472
300.447
300.426
300.416
300.418
300.44
300.488
300.577
300.718
300.917
301.172
301.477
301.821
302.188
302.553
302.936
303.437
304.147
305.008
300.003
300.003
300.003
300.009
300.018
300.026
300.032
300.037
300.045
300.073
300.135
300.234
300.351
300.455
300.526
300.561
300.568
300.557
300.538
300.519
300.506
300.507
300.531
300.591
300.706
300.89
301.148
301.471
301.832
302.201
302.554
302.916
303.379
304.024
304.841
300.005
300.011
300.021
300.037
300.057
300.078
300.103
300.131
300.16
300.189
300.226
300.281
300.355
300.438
300.511
300.563
300.591
300.602
300.601
300.591
300.578
300.567
300.566
300.588
300.648
300.769
300.969
301.257
301.617
302.01
302.39
302.754
303.195
303.843
304.743
300.007
300.013
300.021
300.032
300.046
300.064
300.088
300.123
300.168
300.226
300.293
300.367
300.443
300.516
300.578
300.624
300.653
300.67
300.678
300.679
300.675
300.669
300.663
300.665
300.689
300.757
300.895
301.126
301.453
301.85
302.257
302.653
303.144
303.899
304.9
300.006
300.012
300.022
300.039
300.058
300.079
300.106
300.142
300.191
300.256
300.335
300.417
300.494
300.56
300.613
300.653
300.682
300.703
300.72
300.736
300.751
300.768
300.788
300.817
300.862
300.942
301.076
301.284
301.576
301.934
302.321
302.738
303.289
304.078
305.01
300.008
300.02
300.036
300.055
300.074
300.093
300.115
300.145
300.193
300.267
300.369
300.484
300.588
300.665
300.709
300.731
300.742
300.75
300.759
300.771
300.791
300.819
300.86
300.92
301.006
301.131
301.307
301.541
301.827
302.146
302.482
302.861
303.364
304.033
304.81
300.011
300.027
300.045
300.064
300.083
300.103
300.125
300.149
300.181
300.233
300.317
300.433
300.564
300.678
300.756
300.794
300.807
300.807
300.804
300.803
300.809
300.825
300.856
300.908
300.988
301.108
301.281
301.515
301.807
302.131
302.461
302.805
303.225
303.784
304.542
300.009
300.022
300.039
300.059
300.078
300.099
300.123
300.156
300.199
300.259
300.342
300.455
300.591
300.724
300.826
300.88
300.896
300.891
300.876
300.859
300.845
300.838
300.844
300.867
300.915
300.997
301.126
301.317
301.578
301.896
302.232
302.566
302.974
303.607
304.591
300.013
300.038
300.064
300.086
300.101
300.108
300.113
300.121
300.139
300.177
300.247
300.359
300.516
300.698
300.869
300.987
301.037
301.035
301.01
300.976
300.94
300.908
300.888
300.886
300.91
300.969
301.08
301.257
301.507
301.818
302.155
302.523
303.039
303.91
305.134
300.019
300.05
300.08
300.108
300.132
300.151
300.162
300.165
300.164
300.164
300.178
300.225
300.327
300.494
300.713
300.942
301.123
301.216
301.229
301.197
301.148
301.097
301.057
301.042
301.065
301.134
301.258
301.448
301.707
302.022
302.374
302.81
303.468
304.476
305.709
300.017
300.044
300.068
300.093
300.119
300.142
300.162
300.178
300.187
300.188
300.183
300.178
300.189
300.242
300.366
300.573
300.839
301.111
301.325
301.44
301.464
301.436
301.394
301.364
301.377
301.45
301.59
301.795
302.057
302.365
302.724
303.197
303.907
304.889
306
300.022
300.057
300.09
300.123
300.155
300.183
300.204
300.221
300.231
300.234
300.23
300.223
300.213
300.205
300.212
300.261
300.386
300.601
300.889
301.195
301.457
301.633
301.72
301.756
301.785
301.848
301.973
302.166
302.414
302.7
303.029
303.464
304.116
304.999
306.004
300.019
300.053
300.09
300.131
300.171
300.205
300.233
300.255
300.271
300.281
300.284
300.281
300.274
300.266
300.257
300.251
300.262
300.314
300.441
300.659
300.955
301.282
301.581
301.811
301.97
302.092
302.22
302.388
302.603
302.86
303.155
303.534
304.102
304.921
305.9
300.028
300.079
300.129
300.176
300.215
300.245
300.268
300.285
300.297
300.303
300.307
300.309
300.31
300.311
300.31
300.307
300.303
300.303
300.322
300.387
300.529
300.768
301.09
301.45
301.791
302.078
302.311
302.521
302.738
302.979
303.257
303.605
304.118
304.889
305.846
300.03
300.08
300.125
300.166
300.204
300.239
300.27
300.297
300.32
300.337
300.345
300.346
300.345
300.344
300.344
300.345
300.346
300.346
300.347
300.357
300.392
300.481
300.658
300.938
301.301
301.694
302.061
302.379
302.66
302.932
303.221
303.56
304.038
304.769
305.717
300.028
300.076
300.122
300.169
300.216
300.258
300.294
300.325
300.352
300.373
300.387
300.392
300.392
300.389
300.387
300.387
300.388
300.39
300.393
300.397
300.408
300.44
300.518
300.675
300.939
301.303
301.72
302.131
302.503
302.84
303.168
303.528
304.011
304.745
305.708
300.032
300.088
300.143
300.196
300.246
300.29
300.327
300.362
300.393
300.419
300.436
300.444
300.444
300.44
300.436
300.433
300.433
300.436
300.439
300.444
300.453
300.471
300.514
300.606
300.781
301.067
301.454
301.894
302.332
302.739
303.115
303.496
303.985
304.724
305.686
300.034
300.096
300.154
300.21
300.259
300.302
300.341
300.376
300.409
300.438
300.463
300.48
300.487
300.487
300.483
300.479
300.478
300.48
300.485
300.494
300.507
300.529
300.567
300.64
300.774
301.002
301.337
301.758
302.214
302.662
303.078
303.483
303.991
304.746
305.701
300.038
300.106
300.167
300.221
300.27
300.312
300.35
300.387
300.423
300.458
300.492
300.521
300.539
300.547
300.547
300.542
300.538
300.535
300.536
300.541
300.553
300.574
300.613
300.683
300.807
301.015
301.329
301.741
302.206
302.667
303.089
303.494
304
304.741
305.672
300.036
300.098
300.156
300.211
300.259
300.302
300.341
300.378
300.414
300.452
300.49
300.528
300.559
300.58
300.59
300.594
300.595
300.597
300.6
300.606
300.617
300.635
300.668
300.727
300.832
301.013
301.299
301.693
302.16
302.636
303.068
303.473
303.976
304.718
305.663
300.041
300.117
300.186
300.248
300.301
300.344
300.381
300.414
300.446
300.479
300.515
300.554
300.592
300.621
300.638
300.645
300.648
300.651
300.659
300.67
300.687
300.712
300.747
300.801
300.891
301.044
301.291
301.653
302.109
302.597
303.045
303.463
303.98
304.741
305.704
300.044
300.122
300.19
300.251
300.303
300.349
300.389
300.425
300.457
300.49
300.525
300.565
300.609
300.652
300.685
300.703
300.71
300.715
300.726
300.744
300.771
300.81
300.863
300.936
301.041
301.198
301.436
301.777
302.208
302.67
303.096
303.515
304.055
304.834
305.783
300.043
300.12
300.19
300.256
300.317
300.371
300.417
300.455
300.486
300.514
300.541
300.572
300.61
300.656
300.702
300.738
300.758
300.769
300.78
300.803
300.841
300.899
300.981
301.093
301.24
301.43
301.679
302.002
302.393
302.807
303.198
303.61
304.157
304.897
305.762
300.043
300.121
300.194
300.263
300.327
300.382
300.428
300.466
300.499
300.526
300.55
300.574
300.602
300.64
300.69
300.744
300.791
300.817
300.828
300.838
300.863
300.914
301
301.131
301.313
301.545
301.825
302.151
302.515
302.888
303.245
303.627
304.124
304.781
305.598
300.043
300.124
300.204
300.281
300.351
300.41
300.459
300.498
300.53
300.556
300.577
300.595
300.613
300.635
300.667
300.715
300.777
300.84
300.887
300.911
300.925
300.948
300.999
301.096
301.259
301.495
301.798
302.149
302.518
302.875
303.206
303.556
304.018
304.689
305.602
300.053
300.151
300.242
300.324
300.395
300.453
300.498
300.535
300.564
300.587
300.607
300.625
300.641
300.658
300.677
300.704
300.745
300.805
300.878
300.948
301.002
301.041
301.082
301.15
301.271
301.466
301.745
302.091
302.469
302.836
303.177
303.545
304.052
304.799
305.77
300.053
300.149
300.24
300.326
300.403
300.468
300.519
300.559
300.59
300.613
300.63
300.643
300.657
300.674
300.696
300.725
300.762
300.808
300.868
300.944
301.03
301.116
301.197
301.287
301.413
301.602
301.866
302.191
302.546
302.897
303.239
303.629
304.166
304.909
305.829
300.055
300.159
300.26
300.359
300.448
300.521
300.578
300.62
300.653
300.675
300.689
300.696
300.696
300.696
300.7
300.714
300.741
300.785
300.844
300.918
301.008