/*--------------------------------*- C++ -*----------------------------------*\
| =========                 |                                                 |
| \\      /  F ield         | OpenFOAM: The Open Source CFD Toolbox           |
|  \\    /   O peration     | Version:  v2006                                 |
|   \\  /    A nd           | Website:  www.openfoam.com                      |
|    \\/     M anipulation  |                                                 |
\*---------------------------------------------------------------------------*/
FoamFile
{
    version     2.0;
    format      ascii;
    class       volVectorField;
    location    "25";
    object      U;
}
// * * * * * * * * * * * * * * * * * * * * * * * * * * * * * * * * * * * * * //

dimensions      [0 1 -1 0 0 0 0];


internalField   nonuniform List<vector> 
78750
(
(-0.0279235 -0.0148598 -0.0102239)
(-0.0259818 -0.0227733 -0.017092)
(-0.0214324 -0.0221735 -0.0175704)
(-0.0182933 -0.0211549 -0.017866)
(-0.0148426 -0.0196263 -0.0177171)
(-0.0114484 -0.0179533 -0.0173704)
(-0.00816568 -0.016302 -0.0169563)
(-0.00506324 -0.0147362 -0.0165292)
(-0.00216044 -0.0132666 -0.0160984)
(0.000535747 -0.0118899 -0.0156617)
(0.00301972 -0.0105993 -0.0152181)
(0.00529147 -0.00939063 -0.0147741)
(0.00736178 -0.00825917 -0.0143338)
(0.00924609 -0.00719817 -0.0138968)
(0.0109589 -0.00620097 -0.0134592)
(0.012512 -0.00526326 -0.013016)
(0.0139143 -0.00437986 -0.0125615)
(0.0151721 -0.00354353 -0.0120897)
(0.0162888 -0.00274519 -0.0115935)
(0.0172643 -0.00197411 -0.011065)
(0.0180952 -0.0012179 -0.0104948)
(0.0187728 -0.000462555 -0.00987279)
(0.0192857 0.000306716 -0.00918524)
(0.0196153 0.00110522 -0.0084167)
(0.0197367 0.00194897 -0.00754927)
(0.0196206 0.00285341 -0.00656075)
(0.0192322 0.00383119 -0.00542303)
(0.0185316 0.00488795 -0.00409993)
(0.0174726 0.0060165 -0.00254426)
(0.0160045 0.00719419 -0.000700143)
(0.0140582 0.00841313 0.00150834)
(0.0115226 0.00977864 0.0041201)
(0.00824516 0.0114122 0.00668286)
(0.0044077 0.0122148 0.00744559)
(0.00103284 0.00817076 0.00423305)
(-0.00162924 0.009846 -0.00537974)
(-0.0051213 -0.00670186 -0.0216543)
(-0.00908409 -0.0178698 -0.0319673)
(-0.0120276 -0.0223077 -0.0368217)
(-0.0140231 -0.0225647 -0.0386873)
(-0.0152384 -0.0208061 -0.0391437)
(-0.0157751 -0.0185361 -0.0389816)
(-0.0157684 -0.0163841 -0.0385728)
(-0.0153518 -0.0144068 -0.0380375)
(-0.0146395 -0.0126071 -0.0374341)
(-0.0137399 -0.0109737 -0.0367835)
(-0.0127124 -0.00950133 -0.0361061)
(-0.0115802 -0.00817378 -0.0354267)
(-0.0103649 -0.00696928 -0.0347568)
(-0.00909385 -0.00586502 -0.0340937)
(-0.00778212 -0.00483449 -0.0334231)
(-0.00643289 -0.00385844 -0.0327351)
(-0.00505142 -0.00291884 -0.0320193)
(-0.00364707 -0.00199592 -0.0312631)
(-0.00223154 -0.00106665 -0.0304515)
(-0.000818787 -0.000104704 -0.029567)
(0.000573825 0.000919479 -0.0285895)
(0.00192605 0.00203742 -0.0274958)
(0.00321418 0.00328265 -0.0262615)
(0.00440954 0.00469104 -0.0248585)
(0.00547624 0.00630038 -0.023252)
(0.00637048 0.00815003 -0.0213931)
(0.00703711 0.0102814 -0.0192064)
(0.00740893 0.0127491 -0.0165644)
(0.00739922 0.0156432 -0.0132759)
(0.00688952 0.0190936 -0.00915272)
(0.00574478 0.0231166 -0.00430126)
(0.00403649 0.0269314 0.000323049)
(0.00208668 0.0279126 0.00321048)
(0.000299341 0.0185047 0.00278145)
(0.000154369 0.025823 -0.00266706)
(-0.00133833 0.0374052 -0.0110882)
(-0.00409207 0.0374788 -0.0161638)
(-0.00696558 0.0336162 -0.0182626)
(-0.00953869 0.0282606 -0.0186485)
(-0.0114723 0.022656 -0.0185214)
(-0.0127664 0.0175643 -0.0184788)
(-0.0135142 0.0134531 -0.0185875)
(-0.013784 0.0106694 -0.0186707)
(-0.0137031 0.00904519 -0.0186689)
(-0.013393 0.00809488 -0.0186568)
(-0.0129454 0.00745828 -0.0186721)
(-0.0123971 0.00700801 -0.018715)
(-0.0117704 0.00668788 -0.0187773)
(-0.0110696 0.00647396 -0.0188493)
(-0.010303 0.00636084 -0.0189179)
(-0.00948754 0.00634461 -0.0189773)
(-0.00863508 0.00642663 -0.0190217)
(-0.00775238 0.00661408 -0.0190435)
(-0.00684358 0.00691984 -0.0190336)
(-0.00591194 0.00736282 -0.01898)
(-0.00496114 0.00796833 -0.0188678)
(-0.00399658 0.00876879 -0.0186779)
(-0.00302658 0.00980442 -0.0183863)
(-0.00206337 0.0111243 -0.017962)
(-0.00112657 0.0127871 -0.0173656)
(-0.000248484 0.0148711 -0.0165429)
(0.000540791 0.0174979 -0.0154016)
(0.00119579 0.0207697 -0.0138012)
(0.00162891 0.0246524 -0.0116068)
(0.00175077 0.0289227 -0.0087688)
(0.00151818 0.0329835 -0.00549247)
(0.00107355 0.0356089 -0.00241043)
(0.000524308 0.0344763 8.67146e-05)
(1.52507e-05 0.0209016 0.00112461)
(-6.85052e-05 0.0220523 -0.00130895)
(-0.00044739 0.0330669 -0.00650695)
(-0.000981777 0.0321366 -0.00973546)
(-0.00141243 0.0277367 -0.0113391)
(-0.00179331 0.021622 -0.0118962)
(-0.00213338 0.0149093 -0.0118704)
(-0.00244129 0.00873855 -0.0116244)
(-0.00266775 0.00415943 -0.0112658)
(-0.00275591 0.00121266 -0.0107678)
(-0.00271188 -0.000525053 -0.0101767)
(-0.00256209 -0.0014429 -0.00958857)
(-0.00233456 -0.00178345 -0.00904369)
(-0.00205671 -0.00172828 -0.00856119)
(-0.00174847 -0.00140838 -0.0081484)
(-0.00142309 -0.000918626 -0.00780722)
(-0.00108857 -0.000327314 -0.00753789)
(-0.000749834 0.000319514 -0.00734095)
(-0.000410266 0.000994124 -0.00721787)
(-7.26851e-05 0.00168426 -0.00717061)
(0.000260364 0.00239145 -0.00720023)
(0.00058664 0.00313054 -0.0073049)
(0.000904171 0.00393037 -0.00747742)
(0.00121112 0.00483527 -0.00770234)
(0.00150518 0.00590682 -0.00795312)
(0.00178246 0.00722493 -0.0081895)
(0.00203279 0.0088878 -0.00835552)
(0.0022355 0.0110234 -0.00837424)
(0.00238064 0.0138458 -0.00814273)
(0.00244229 0.0176129 -0.00753901)
(0.00237374 0.0223693 -0.00644951)
(0.00214347 0.0277287 -0.00484902)
(0.00173365 0.0326911 -0.00292468)
(0.00125155 0.0356944 -0.00112587)
(0.000708694 0.0348157 0.000455663)
(0.000129615 0.021155 0.00113259)
(0.000251741 0.0213814 -0.000886235)
(0.000638804 0.0364627 -0.00450127)
(0.000730212 0.0384073 -0.00688603)
(0.000654423 0.0366251 -0.00812861)
(0.000429006 0.033279 -0.00854804)
(4.30354e-05 0.0290701 -0.00822945)
(-0.000454175 0.0246505 -0.0073237)
(-0.000988509 0.0204935 -0.00603652)
(-0.0014916 0.0169645 -0.0045886)
(-0.00188397 0.0142792 -0.00314262)
(-0.00217207 0.0123832 -0.00174078)
(-0.00237415 0.0110551 -0.000426457)
(-0.00249147 0.0101128 0.000729885)
(-0.00252248 0.00943816 0.00169768)
(-0.00246637 0.0089578 0.00247128)
(-0.00232509 0.00863571 0.00305902)
(-0.00210535 0.00845553 0.00347301)
(-0.00181631 0.00841808 0.00372356)
(-0.0014694 0.00853466 0.00381554)
(-0.00108 0.00882094 0.00374675)
(-0.000666365 0.00929462 0.0035085)
(-0.000247983 0.00997618 0.00308853)
(0.000155966 0.0108921 0.00247708)
(0.000522048 0.0120823 0.00167735)
(0.000822373 0.0136018 0.000719069)
(0.00103838 0.0155323 -0.000322312)
(0.00116354 0.018024 -0.00135592)
(0.00119758 0.0212189 -0.00227036)
(0.00114709 0.0251217 -0.00289327)
(0.00102768 0.0295772 -0.00304644)
(0.00084995 0.03415 -0.00265098)
(0.000620566 0.0379521 -0.00182749)
(0.000385322 0.0398703 -0.000838863)
(0.000153085 0.0377075 0.000202878)
(-3.04578e-05 0.0220219 0.000736178)
(-1.67109e-05 0.018338 -0.000445959)
(-0.000125653 0.0330563 -0.00282283)
(-0.000392851 0.0356337 -0.00438029)
(-0.000693447 0.0342582 -0.00498389)
(-0.00103655 0.0310791 -0.0048161)
(-0.0014114 0.0265385 -0.003909)
(-0.00178479 0.0213878 -0.00243725)
(-0.00213716 0.016352 -0.000669526)
(-0.00245001 0.0119082 0.00113919)
(-0.00269766 0.00832772 0.0028144)
(-0.00285829 0.00564403 0.00430589)
(-0.00291621 0.00365389 0.00563521)
(-0.00286319 0.00212779 0.00678935)
(-0.00269376 0.000918949 0.00773847)
(-0.00239907 -5.57048e-05 0.00848591)
(-0.00198947 -0.000831041 0.00905569)
(-0.00148623 -0.00140253 0.00948367)
(-0.000903199 -0.00174306 0.00980617)
(-0.000257938 -0.00181434 0.0100537)
(0.000427108 -0.00157352 0.0102469)
(0.00112732 -0.000976082 0.0103933)
(0.00181814 2.38764e-05 0.0104841)
(0.00247349 0.00147407 0.0104918)
(0.00304919 0.00343 0.0103698)
(0.00350768 0.00596508 0.0100445)
(0.00381189 0.00911498 0.00939885)
(0.00392789 0.0128398 0.00832748)
(0.00384731 0.0171219 0.00681206)
(0.00358065 0.0219562 0.00500578)
(0.00315216 0.0272529 0.00323919)
(0.00258619 0.0326204 0.00188928)
(0.00191654 0.0371003 0.00117466)
(0.00128732 0.0393978 0.00103399)
(0.000664297 0.0374629 0.00118852)
(0.000104888 0.021931 0.000994248)
(5.74698e-05 0.0181185 -3.35356e-05)
(-2.86483e-05 0.034166 -0.00139371)
(-0.000312547 0.0380481 -0.00233622)
(-0.000685214 0.037566 -0.00258721)
(-0.00112518 0.0351489 -0.00219108)
(-0.00159827 0.0313991 -0.00116073)
(-0.0020928 0.0268886 0.00037749)
(-0.00259594 0.0222383 0.00217701)
(-0.00309258 0.017862 0.00398573)
(-0.00355303 0.0139413 0.00560606)
(-0.00393927 0.0105033 0.00691714)
(-0.00420909 0.00751967 0.0078766)
(-0.00433863 0.00488387 0.00850822)
(-0.0043173 0.00248281 0.00884827)
(-0.00413665 0.000298964 0.00895113)
(-0.00379497 -0.00162023 0.00889741)
(-0.00330811 -0.00320798 0.00877175)
(-0.00270976 -0.00440928 0.00864327)
(-0.00202981 -0.00518035 0.00856407)
(-0.00129316 -0.00548121 0.00857205)
(-0.000521485 -0.00526807 0.00869319)
(0.000264242 -0.00448533 0.00894293)
(0.00103358 -0.00305047 0.00932666)
(0.00177244 -0.000831868 0.0098451)
(0.00247024 0.0023235 0.0104708)
(0.00307823 0.0064868 0.0110851)
(0.00353902 0.011634 0.0114552)
(0.00380028 0.0176724 0.0112817)
(0.00380844 0.0243561 0.0103301)
(0.00352873 0.0312282 0.00864897)
(0.00295905 0.0375693 0.00666382)
(0.00216968 0.0423442 0.00495056)
(0.00137414 0.0443957 0.00379656)
(0.000611797 0.0413128 0.00290179)
(4.54866e-05 0.0235144 0.00151525)
(-1.32435e-05 0.0175388 0.000191468)
(-0.000245796 0.0341284 -0.000523893)
(-0.000667949 0.0386901 -0.00103792)
(-0.00114076 0.0384815 -0.00101307)
(-0.0016675 0.0360863 -0.000435361)
(-0.00221811 0.0320969 0.000706115)
(-0.0027587 0.0270874 0.00227687)
(-0.0032638 0.0217754 0.00400206)
(-0.00371544 0.0166504 0.00560668)
(-0.00408714 0.0119199 0.00688716)
(-0.00434787 0.00759624 0.00773642)
(-0.00446456 0.00361123 0.00813803)
(-0.00441306 -9.91699e-05 0.00814339)
(-0.00418929 -0.00353974 0.00784898)
(-0.00381842 -0.00664001 0.00737543)
(-0.00334037 -0.00926461 0.00684846)
(-0.00278292 -0.0113438 0.00635593)
(-0.00216894 -0.012885 0.00593996)
(-0.00152302 -0.0138999 0.00562913)
(-0.000862808 -0.0143921 0.00544518)
(-0.000199678 -0.0143535 0.0054051)
(0.000458799 -0.0137573 0.00552398)
(0.00110274 -0.0125457 0.00581689)
(0.00172629 -0.0106013 0.00630603)
(0.00233844 -0.00769418 0.00704239)
(0.00292887 -0.00356306 0.00805363)
(0.00344805 0.00195052 0.00924872)
(0.00383022 0.00897601 0.0103865)
(0.00399702 0.0174341 0.0110446)
(0.00386907 0.0267949 0.0107918)
(0.00337608 0.0359186 0.00955547)
(0.00253665 0.0430749 0.00780537)
(0.00163154 0.0463769 0.00616493)
(0.000747863 0.0433472 0.00448959)
(9.44005e-05 0.0244457 0.00203111)
(1.46172e-05 0.0173943 0.000401323)
(-0.000139311 0.034763 0.000221038)
(-0.000511532 0.0402937 4.33611e-05)
(-0.000961176 0.0405349 0.000253106)
(-0.00146314 0.0384226 0.00091034)
(-0.0019966 0.0346356 0.0020421)
(-0.00251743 0.0296578 0.00351792)
(-0.00298888 0.0241631 0.0050534)
(-0.00338616 0.018635 0.00636826)
(-0.00367679 0.0132943 0.0072651)
(-0.0038302 0.00819397 0.00765812)
(-0.00382919 0.00334051 0.0075679)
(-0.00367205 -0.00122037 0.00709792)
(-0.0033697 -0.00538067 0.00639849)
(-0.00295009 -0.00899286 0.00562464)
(-0.00246269 -0.0119031 0.00490497)
(-0.00193692 -0.0140948 0.00429601)
(-0.00138575 -0.0156484 0.00380322)
(-0.000827325 -0.0166218 0.00343362)
(-0.000276272 -0.0170491 0.00319541)
(0.00025841 -0.0169467 0.00309547)
(0.000769597 -0.0163101 0.00314177)
(0.00125215 -0.0151083 0.00334548)
(0.00169737 -0.0132625 0.00372337)
(0.00211248 -0.0105618 0.00432636)
(0.00250165 -0.00665836 0.00524507)
(0.00283996 -0.00122866 0.00653129)
(0.00309702 0.00600874 0.00811864)
(0.00323616 0.0152021 0.00971538)
(0.00317985 0.0259724 0.0107703)
(0.00282223 0.0369429 0.0107428)
(0.00212007 0.0456795 0.00961496)
(0.00132721 0.0495758 0.00795365)
(0.000562921 0.0459926 0.00578448)
(5.29014e-05 0.0254789 0.00246003)
(1.25389e-06 0.0170119 0.000494287)
(-0.000117171 0.0347814 0.000666334)
(-0.000440169 0.0409648 0.000741889)
(-0.000840162 0.0414845 0.00106815)
(-0.00129604 0.0394154 0.00173456)
(-0.00179755 0.0354229 0.00277548)
(-0.00229542 0.0299399 0.00406021)
(-0.00273799 0.0236983 0.00530871)
(-0.00308779 0.0172559 0.00625956)
(-0.00330482 0.0109078 0.00674575)
(-0.00335924 0.00480101 0.00672239)
(-0.00324422 -0.000945547 0.00625836)
(-0.00297918 -0.00618746 0.00550012)
(-0.00259741 -0.0107713 0.00461785)
(-0.00213472 -0.0145644 0.00375867)
(-0.00163674 -0.017475 0.00302176)
(-0.00112171 -0.0195841 0.00242363)
(-0.000594659 -0.0210247 0.00194493)
(-7.06065e-05 -0.0218707 0.00158465)
(0.000438132 -0.022167 0.00134456)
(0.000922914 -0.0219406 0.00122622)
(0.00137603 -0.0211987 0.00123288)
(0.00179041 -0.0199253 0.00137101)
(0.00215537 -0.0180656 0.00165249)
(0.00246897 -0.0154528 0.00211341)
(0.00273561 -0.0117504 0.00283633)
(0.00294607 -0.00655872 0.00391906)
(0.00308394 0.000517264 0.00541187)
(0.00312557 0.00986143 0.00723123)
(0.00302461 0.0214244 0.00900026)
(0.00269994 0.0340017 0.0100546)
(0.00206781 0.044752 0.00987728)
(0.00133329 0.0499629 0.00863262)
(0.000599484 0.0467615 0.00640484)
(8.40754e-05 0.0258298 0.00266191)
(2.1564e-05 0.0163671 0.000537939)
(3.44994e-05 0.0341842 0.000924104)
(-0.000123801 0.0410467 0.00115516)
(-0.00038025 0.0420285 0.00152627)
(-0.000695937 0.0402944 0.00213781)
(-0.00106312 0.0365854 0.00303822)
(-0.00144456 0.0311617 0.00413771)
(-0.0017796 0.0246635 0.00518425)
(-0.00202109 0.0176645 0.00592678)
(-0.00212734 0.010559 0.00619624)
(-0.00207833 0.00365172 0.00595305)
(-0.00188281 -0.00277803 0.00528947)
(-0.00156843 -0.00848501 0.00438051)
(-0.00116977 -0.0132956 0.00341037)
(-0.000722935 -0.0171055 0.00252192)
(-0.000265376 -0.0198947 0.00179155)
(0.000199482 -0.0218393 0.00120358)
(0.000671435 -0.0231039 0.000731122)
(0.00113239 -0.0237633 0.000373332)
(0.00157503 -0.0238654 0.000128211)
(0.00199159 -0.0234413 -5.75462e-06)
(0.00237378 -0.0225042 -2.77972e-05)
(0.00271396 -0.0210471 6.62092e-05)
(0.00300112 -0.0190301 0.000285178)
(0.00322676 -0.016293 0.000661402)
(0.00339082 -0.0125188 0.0012659)
(0.00347838 -0.00734267 0.00219213)
(0.00347595 -0.000361027 0.00352123)
(0.00337528 0.00888784 0.00526777)
(0.00315758 0.0205468 0.00722337)
(0.00276562 0.0336511 0.00882376)
(0.00211284 0.0453158 0.00934902)
(0.00137521 0.0511939 0.00856493)
(0.000632934 0.04811 0.00649287)
(8.86539e-05 0.026527 0.0026769)
(8.20992e-06 0.0154726 0.000576982)
(4.27661e-05 0.0328496 0.00111161)
(-4.18078e-05 0.0400044 0.00145283)
(-0.000207682 0.0412812 0.00185567)
(-0.000419584 0.0397314 0.00243058)
(-0.000669373 0.0360627 0.00323718)
(-0.000919627 0.0303943 0.00419912)
(-0.00110827 0.0233345 0.00506821)
(-0.00119005 0.0155396 0.00558636)
(-0.00113679 0.00757518 0.00558578)
(-0.000950128 -5.56518e-05 0.00506219)
(-0.000658827 -0.00693899 0.00416722)
(-0.000299511 -0.0128115 0.00311869)
(0.000103891 -0.0175616 0.00210475)
(0.00052794 -0.0211741 0.00124024)
(0.000953096 -0.0237492 0.000555086)
(0.00138357 -0.025501 1.17444e-05)
(0.00182238 -0.0265786 -0.00041726)
(0.00225487 -0.0270526 -0.00074128)
(0.0026739 -0.0269672 -0.000968242)
(0.00307136 -0.0263506 -0.00110317)
(0.00343806 -0.0252165 -0.00114696)
(0.00376433 -0.0235635 -0.00109605)
(0.00403293 -0.0213641 -0.000941785)
(0.0042335 -0.0184559 -0.000652288)
(0.00436025 -0.0145363 -0.000161676)
(0.00438976 -0.00928929 0.000614155)
(0.00430873 -0.00228926 0.0017691)
(0.00410397 0.00699794 0.00336423)
(0.00375565 0.0188751 0.00529819)
(0.00322573 0.0326053 0.00713751)
(0.00244392 0.0453726 0.00814543)
(0.00159532 0.0522644 0.00780824)
(0.000752665 0.049612 0.00604444)
(0.000111811 0.0274838 0.0024849)
(1.8036e-06 0.0146151 0.000672013)
(2.07415e-05 0.0313378 0.0013793)
(-4.48707e-05 0.0385538 0.00183305)
(-0.000171889 0.0400484 0.00228351)
(-0.000324647 0.0386796 0.00286014)
(-0.000481837 0.0350963 0.00363673)
(-0.000591754 0.0292924 0.00452629)
(-0.000597628 0.0218384 0.0052398)
(-0.000479765 0.0135075 0.00548598)
(-0.000249809 0.00507864 0.0051334)
(5.88179e-05 -0.00277973 0.00428128)
(0.000410746 -0.00962833 0.00317574)
(0.000781255 -0.0152928 0.00205957)
(0.00116203 -0.0197706 0.0010855)
(0.00154656 -0.0231215 0.000312107)
(0.00193349 -0.0254982 -0.000279286)
(0.00233223 -0.0270982 -0.000737846)
(0.00274245 -0.0280396 -0.00109504)
(0.00315274 -0.0283741 -0.001368)
(0.00355535 -0.0281319 -0.00156889)
(0.00394084 -0.0273312 -0.00170405)
(0.00429846 -0.0259803 -0.00177351)
(0.00461458 -0.0240766 -0.00177106)
(0.00486478 -0.0215818 -0.0016819)
(0.00503962 -0.0183126 -0.00147238)
(0.0051206 -0.0139908 -0.00107414)
(0.00508347 -0.00836783 -0.00040655)
(0.00491308 -0.00103507 0.000629338)
(0.00459523 0.00854966 0.00210694)
(0.00411628 0.0207282 0.00395304)
(0.00345005 0.0348224 0.00579125)
(0.00254562 0.0480092 0.00693728)
(0.00161885 0.0551354 0.00682612)
(0.000741665 0.0522919 0.00534266)
(9.41841e-05 0.0288968 0.00218224)
(-2.26494e-05 0.0140219 0.000814637)
(-0.000122867 0.0301353 0.00174783)
(-0.000315153 0.0371654 0.00235925)
(-0.000533395 0.0386195 0.00291982)
(-0.000735901 0.0370937 0.00357654)
(-0.000888722 0.0330257 0.0043752)
(-0.000914767 0.0264391 0.00510458)
(-0.000786107 0.0181436 0.00539513)
(-0.000537654 0.00920921 0.00503573)
(-0.000221747 0.000597114 0.00410792)
(0.000116399 -0.00705786 0.00289951)
(0.000455332 -0.0134983 0.00170592)
(0.000794925 -0.0187351 0.000700479)
(0.00114688 -0.0228741 -6.87484e-05)
(0.00151753 -0.0260102 -0.000626598)
(0.00190503 -0.02826 -0.00103024)
(0.00231822 -0.0297726 -0.00133216)
(0.0027526 -0.030634 -0.00156814)
(0.0031945 -0.0308702 -0.00175914)
(0.00363474 -0.0304935 -0.00191778)
(0.00406274 -0.0295106 -0.00204874)
(0.00446608 -0.0279241 -0.00214902)
(0.00482107 -0.0257279 -0.00220789)
(0.00510387 -0.0228349 -0.00220397)
(0.0052997 -0.0190597 -0.00210062)
(0.00537476 -0.014224 -0.00183106)
(0.00530854 -0.0081044 -0.00130286)
(0.00508772 -0.000301318 -0.000397696)
(0.00469818 0.00974655 0.000984196)
(0.00413243 0.0224352 0.00279581)
(0.00338542 0.0371178 0.00467199)
(0.00243235 0.0508584 0.0059262)
(0.00150362 0.0581808 0.00597268)
(0.000664467 0.055017 0.00471368)
(7.49989e-05 0.0302285 0.00190682)
(-3.69473e-05 0.0139637 0.00103031)
(-0.000240776 0.0299334 0.00235376)
(-0.000574327 0.0367599 0.00322143)
(-0.000907373 0.0379311 0.00389743)
(-0.00118789 0.0358818 0.00453465)
(-0.00137435 0.0309166 0.00508197)
(-0.00139082 0.0234292 0.00522545)
(-0.00126548 0.014634 0.00473763)
(-0.00106788 0.00574951 0.00370708)
(-0.000844827 -0.00240514 0.00244839)
(-0.000612027 -0.00948076 0.00127578)
(-0.00036214 -0.0154549 0.000356209)
(-8.05576e-05 -0.0204328 -0.000288088)
(0.000245082 -0.0245071 -0.000709506)
(0.000619676 -0.0277133 -0.000978809)
(0.00102972 -0.030061 -0.00115877)
(0.00147559 -0.031648 -0.0012935)
(0.00195345 -0.0325468 -0.00141115)
(0.00244399 -0.0327631 -0.00153006)
(0.00293701 -0.0322949 -0.00165967)
(0.00342214 -0.031139 -0.00180152)
(0.00388208 -0.0292892 -0.00194907)
(0.00428605 -0.0267045 -0.00208679)
(0.00461989 -0.0232426 -0.00219897)
(0.00485255 -0.0187381 -0.00224307)
(0.0049468 -0.0131084 -0.00214786)
(0.00488181 -0.00618168 -0.00180871)
(0.00463946 0.00237815 -0.0010909)
(0.00420837 0.0130503 0.00012814)
(0.00359545 0.0261557 0.00183184)
(0.00282487 0.0409912 0.00367952)
(0.00191791 0.0545378 0.00498479)
(0.00110887 0.0613018 0.00514798)
(0.000439979 0.0573944 0.00409741)
(2.62863e-05 0.031163 0.00162757)
(-1.42589e-05 0.0140025 0.00109002)
(-0.000135505 0.0300517 0.00268058)
(-0.000416961 0.0366804 0.00370442)
(-0.000725364 0.0374386 0.00432667)
(-0.00102249 0.0347161 0.00468633)
(-0.00127357 0.0288725 0.00468139)
(-0.00142897 0.0208017 0.00413771)
(-0.00151785 0.0119198 0.0031268)
(-0.00156865 0.00328799 0.00193951)
(-0.00157826 -0.00456523 0.000877958)
(-0.00152918 -0.0114985 0.000101199)
(-0.00140565 -0.0175398 -0.000380478)
(-0.00120108 -0.022735 -0.000632557)
(-0.000916682 -0.0270861 -0.000735625)
(-0.000560343 -0.0305608 -0.000758854)
(-0.000152749 -0.0331285 -0.000753025)
(0.000294613 -0.0348616 -0.000749773)
(0.000777644 -0.0358274 -0.000765313)
(0.00127805 -0.0360318 -0.000816415)
(0.00178465 -0.0354673 -0.000913058)
(0.00228783 -0.0341259 -0.0010575)
(0.00275764 -0.0319908 -0.00124262)
(0.00318109 -0.0289378 -0.00146399)
(0.0035432 -0.0247778 -0.00170896)
(0.00379887 -0.0194608 -0.00192884)
(0.00392345 -0.0129254 -0.00204198)
(0.00389424 -0.00503321 -0.00193126)
(0.00368981 0.00447894 -0.00144849)
(0.00329966 0.0159673 -0.000454943)
(0.00273923 0.0295862 0.00105934)
(0.00205403 0.0444606 0.00279116)
(0.00130427 0.0574635 0.00407822)
(0.000690345 0.0633641 0.00432026)
(0.000230688 0.0586269 0.00346803)
(-3.2963e-06 0.0313903 0.00134611)
(3.3657e-05 0.0133051 0.000883582)
(0.000181828 0.0290601 0.00235212)
(0.000227156 0.0359589 0.00334482)
(0.00019293 0.0369995 0.00386329)
(9.66827e-05 0.0345673 0.00401507)
(-5.44289e-05 0.0291583 0.00374876)
(-0.000261109 0.0215494 0.0030504)
(-0.00049962 0.013025 0.00211383)
(-0.00073492 0.00449918 0.00120736)
(-0.00092267 -0.00356212 0.000516374)
(-0.00102624 -0.0109589 9.28913e-05)
(-0.0010311 -0.0175977 -0.000101696)
(-0.000941388 -0.0234102 -0.0001347)
(-0.000767616 -0.028325 -6.87908e-05)
(-0.000521661 -0.032274 4.46099e-05)
(-0.000220378 -0.0352142 0.000164291)
(0.000120551 -0.0372043 0.000263211)
(0.000496119 -0.0383239 0.000331023)
(0.000892292 -0.0385913 0.000348629)
(0.00129814 -0.0379994 0.000299821)
(0.00169874 -0.0365344 0.000176611)
(0.00207614 -0.0341206 -2.19013e-05)
(0.00242547 -0.0305861 -0.000311017)
(0.00271629 -0.0257971 -0.000676858)
(0.00292243 -0.0197069 -0.00107192)
(0.00302264 -0.0122688 -0.00141091)
(0.00299338 -0.00339586 -0.0015692)
(0.00281463 0.00705759 -0.00139021)
(0.00248006 0.0192574 -0.000725265)
(0.00200914 0.033124 0.000460614)
(0.00145275 0.0475896 0.00192133)
(0.000884918 0.0595483 0.00306865)
(0.000446924 0.0644176 0.00335256)
(0.000137046 0.0589166 0.0027242)
(-5.01957e-06 0.0311964 0.001045)
(3.04231e-05 0.011875 0.000678619)
(0.000284178 0.0264084 0.00186574)
(0.000551556 0.0332893 0.00271176)
(0.000762388 0.0347699 0.0031499)
(0.000897226 0.0330173 0.00326262)
(0.000953657 0.0286206 0.00305917)
(0.000901408 0.0219607 0.0025726)
(0.000762387 0.0140254 0.00196231)
(0.000592258 0.00563863 0.00140231)
(0.000442284 -0.00266398 0.000990614)
(0.000345418 -0.0105304 0.000743968)
(0.000312829 -0.017716 0.000637859)
(0.00034097 -0.0240565 0.000642038)
(0.000423038 -0.0294443 0.000729422)
(0.00055441 -0.0338081 0.000870249)
(0.000730196 -0.0371028 0.00102899)
(0.000937556 -0.0393427 0.00117344)
(0.00117263 -0.0406202 0.00129328)
(0.00142811 -0.0409742 0.00137374)
(0.00169273 -0.0403967 0.00139247)
(0.0019507 -0.0388695 0.0013332)
(0.00219536 -0.0362713 0.00117969)
(0.00241925 -0.0323788 0.000906287)
(0.00259547 -0.0271032 0.000508052)
(0.00270709 -0.0203976 1.6806e-05)
(0.00273877 -0.0122217 -0.000489373)
(0.00267362 -0.00252347 -0.000885503)
(0.00249598 0.0087471 -0.00100975)
(0.0022 0.0215834 -0.000702221)
(0.00180113 0.0356856 0.000101435)
(0.00133844 0.049816 0.00122191)
(0.000871518 0.0609412 0.00216793)
(0.000499876 0.0651069 0.00246134)
(0.000207295 0.0591216 0.00203925)
(2.11358e-05 0.0311532 0.000791102)
(2.94814e-07 0.0106851 0.000621936)
(0.000155455 0.0238088 0.00163793)
(0.000376039 0.0302087 0.00235158)
(0.000593013 0.0318173 0.00273917)
(0.000774448 0.0305155 0.00287959)
(0.000914575 0.0269035 0.0028157)
(0.000993928 0.0210798 0.00257704)
(0.00101636 0.0137558 0.00224881)
(0.00102062 0.00566416 0.00191582)
(0.00103699 -0.00260341 0.001622)
(0.00107653 -0.0105789 0.00138392)
(0.0011381 -0.0179209 0.00121443)
(0.00121881 -0.0244226 0.00112735)
(0.00131782 -0.029979 0.00112724)
(0.00143769 -0.0345336 0.00120111)
(0.00158137 -0.0380387 0.00131975)
(0.00174446 -0.0404613 0.00144854)
(0.00192337 -0.041864 0.0015698)
(0.00211637 -0.0422955 0.00168065)
(0.00231237 -0.0417446 0.0017629)
(0.00249931 -0.0401675 0.00179991)
(0.00267469 -0.0374124 0.00176574)
(0.00282623 -0.0332551 0.00162572)
(0.00293451 -0.0275882 0.00134251)
(0.00298386 -0.0203713 0.000909531)
(0.00296131 -0.0115881 0.000374059)
(0.00285563 -0.00122596 -0.000156128)
(0.00265822 0.0106847 -0.000523004)
(0.00236618 0.0239955 -0.000555837)
(0.00198819 0.0382305 -0.000152644)
(0.00154662 0.0520439 0.000590671)
(0.00108208 0.0625309 0.00130294)
(0.000681989 0.0662515 0.00158761)
(0.000322701 0.0599513 0.0013633)
(3.91651e-05 0.0315929 0.000545017)
(-1.58448e-05 0.010146 0.000650044)
(-5.38408e-06 0.0223568 0.00163712)
(3.4652e-05 0.0281558 0.00229528)
(9.89968e-05 0.0295608 0.00266373)
(0.000172361 0.0282633 0.00283174)
(0.000254674 0.0247815 0.00284735)
(0.000349684 0.019125 0.00271715)
(0.000459148 0.011904 0.00246604)
(0.000590993 0.00384815 0.00213)
(0.000743571 -0.00438818 0.00174757)
(0.000907305 -0.0122871 0.00136725)
(0.00107366 -0.0195123 0.00104133)
(0.00124095 -0.0258989 0.000807929)
(0.00141315 -0.031381 0.00067983)
(0.00159612 -0.0359167 0.000646372)
(0.00179407 -0.0394511 0.000682157)
(0.00200498 -0.0419318 0.00075722)
(0.00222187 -0.0433702 0.000849831)
(0.00244485 -0.0438129 0.000960128)
(0.00266488 -0.0432524 0.00107894)
(0.00287231 -0.041628 0.00119806)
(0.00306571 -0.0387532 0.00130564)
(0.00323252 -0.0343794 0.0013685)
(0.00335123 -0.0283631 0.00132813)
(0.00340236 -0.0206645 0.00113339)
(0.00337145 -0.0112984 0.000777282)
(0.00325085 -0.000294206 0.000321324)
(0.00303752 0.0122687 -0.000103632)
(0.00273219 0.0261603 -0.000329709)
(0.00234071 0.0407744 -0.000225927)
(0.00187188 0.0546481 0.000188294)
(0.00135293 0.0649125 0.000664543)
(0.00087851 0.0684271 0.000900365)
(0.000424859 0.0618023 0.000811918)
(4.7261e-05 0.0325824 0.000334094)
(-1.95156e-05 0.0100443 0.000652017)
(-7.99709e-05 0.0219066 0.00163815)
(-0.000157731 0.027305 0.00227782)
(-0.00022132 0.0284328 0.0026301)
(-0.000256108 0.0269089 0.00278332)
(-0.000250198 0.0231979 0.00277134)
(-0.000186141 0.0173463 0.00257363)
(-6.59765e-05 0.0100223 0.00219461)
(9.59517e-05 0.001993 0.00167622)
(0.000280971 -0.00608182 0.00109045)
(0.000474082 -0.0137367 0.000523141)
(0.000670054 -0.0207212 4.65517e-05)
(0.000871525 -0.0269381 -0.000298627)
(0.00108592 -0.0323436 -0.000503798)
(0.00131974 -0.0368786 -0.000583983)
(0.0015755 -0.0404519 -0.000569038)
(0.00184839 -0.0429756 -0.000495065)
(0.00212731 -0.0444321 -0.000391121)
(0.00241195 -0.0448722 -0.000265027)
(0.00269433 -0.044292 -0.000124277)
(0.00296371 -0.0426254 2.78671e-05)
(0.00321857 -0.0396607 0.000200864)
(0.00344631 -0.0350961 0.000382405)
(0.00361933 -0.0287428 0.00052634)
(0.00371162 -0.0205555 0.000571719)
(0.00370342 -0.0105878 0.000472716)
(0.00358523 0.00106567 0.000231791)
(0.00335751 0.0142605 -7.9011e-05)
(0.00302749 0.0287065 -0.00032683)
(0.00260399 0.0437248 -0.0003724)
(0.00209122 0.0577814 -0.000171893)
(0.00151513 0.0680083 0.000133476)
(0.00097882 0.071406 0.000324514)
(0.000462782 0.0643589 0.000330993)
(4.18089e-05 0.0338901 0.000125296)
(-1.28668e-05 0.0100459 0.000571323)
(-8.02893e-05 0.0218162 0.00147996)
(-0.000194461 0.0269784 0.00206712)
(-0.000308644 0.0278589 0.0023645)
(-0.000397601 0.0260409 0.00243856)
(-0.000443652 0.0219712 0.00229595)
(-0.000428939 0.0158338 0.00190526)
(-0.000358571 0.00839274 0.00129418)
(-0.00025241 0.000427247 0.000546427)
(-0.000127799 -0.00745946 -0.000222482)
(7.52094e-06 -0.0148971 -0.000901319)
(0.000156355 -0.0217187 -0.0014133)
(0.000325483 -0.027864 -0.00172457)
(0.000522393 -0.033287 -0.00183858)
(0.000753294 -0.0379024 -0.00178812)
(0.00102121 -0.0415826 -0.00162756)
(0.00132113 -0.0442036 -0.00141991)
(0.00163881 -0.0457256 -0.00121352)
(0.00197359 -0.0462025 -0.00102093)
(0.00231736 -0.0456285 -0.000849776)
(0.00265397 -0.0439363 -0.000703424)
(0.00298142 -0.0408962 -0.000561409)
(0.00328848 -0.03613 -0.000419049)
(0.00353848 -0.029402 -0.000296207)
(0.00369738 -0.0206646 -0.000222471)
(0.00373736 -0.0100123 -0.000225256)
(0.00364194 0.00238938 -0.000313758)
(0.00341117 0.016327 -0.000463621)
(0.00305983 0.0314597 -0.000610637)
(0.00260661 0.0470463 -0.00066597)
(0.00206185 0.0614574 -0.000574157)
(0.00146177 0.0717461 -0.000391603)
(0.000912093 0.0749947 -0.000245779)
(0.000402103 0.0673363 -0.00016373)
(1.92231e-05 0.0352841 -0.000109978)
(4.80272e-06 0.00997198 0.000395459)
(9.63767e-07 0.0217474 0.00110581)
(-5.50102e-05 0.0268714 0.00157276)
(-0.000127381 0.0276705 0.00176379)
(-0.00019698 0.0257326 0.00170595)
(-0.000249757 0.0215475 0.00138242)
(-0.000279874 0.015394 0.000775914)
(-0.00029026 0.00807921 -3.59338e-05)
(-0.000291426 0.000343106 -0.000919669)
(-0.000285813 -0.00729664 -0.00172862)
(-0.000268464 -0.0145533 -0.00234572)
(-0.000230837 -0.0213111 -0.00270603)
(-0.00016316 -0.0275251 -0.00279637)
(-5.6105e-05 -0.0331366 -0.00264663)
(9.80846e-05 -0.0380282 -0.00232104)
(0.000304414 -0.0420238 -0.00190686)
(0.000560375 -0.0449407 -0.00149457)
(0.000848775 -0.0466882 -0.00114713)
(0.00116726 -0.0473273 -0.000869527)
(0.00151032 -0.0468555 -0.000659139)
(0.00185641 -0.0452022 -0.000518504)
(0.00220462 -0.0421176 -0.000425378)
(0.0025497 -0.0371299 -0.00037683)
(0.00285241 -0.0299499 -0.000389893)
(0.00307533 -0.0205282 -0.000477367)
(0.00318117 -0.00901517 -0.000635747)
(0.00313885 0.00430448 -0.000832413)
(0.00294035 0.019081 -0.00101118)
(0.00260594 0.0348866 -0.0011199)
(0.00216863 0.050933 -0.00112566)
(0.00165534 0.0655318 -0.0010226)
(0.0011198 0.0756803 -0.000862029)
(0.000648415 0.078589 -0.000723015)
(0.000240599 0.070058 -0.000578876)
(-1.30938e-05 0.036363 -0.000318625)
(2.28721e-05 0.00960709 0.000136971)
(0.000123295 0.0212145 0.000506476)
(0.000197836 0.0264218 0.000768042)
(0.000243336 0.0273452 0.00081423)
(0.000263874 0.0255787 0.000628037)
(0.000260596 0.021688 0.000185964)
(0.000228297 0.0158958 -0.000515871)
(0.000159995 0.00896237 -0.00136008)
(6.15591e-05 0.00156325 -0.00218966)
(-5.17453e-05 -0.00585107 -0.00285933)
(-0.000162461 -0.0130354 -0.00327144)
(-0.000254841 -0.0198821 -0.00338758)
(-0.000315279 -0.0263329 -0.00322071)