/*--------------------------------*- C++ -*----------------------------------*\
| =========                 |                                                 |
| \\      /  F ield         | OpenFOAM: The Open Source CFD Toolbox           |
|  \\    /   O peration     | Version:  v2006                                 |
|   \\  /    A nd           | Website:  www.openfoam.com                      |
|    \\/     M anipulation  |                                                 |
\*---------------------------------------------------------------------------*/
FoamFile
{
    version     2.0;
    format      ascii;
    class       volScalarField;
    location    "54";
    object      T;
}
// * * * * * * * * * * * * * * * * * * * * * * * * * * * * * * * * * * * * * //

dimensions      [0 0 0 1 0 0 0];


internalField   nonuniform List<scalar> 
78750
(
300.04
300.117
300.188
300.251
300.305
300.352
300.392
300.426
300.454
300.477
300.496
300.51
300.521
300.528
300.53
300.529
300.523
300.513
300.499
300.48
300.456
300.428
300.397
300.363
300.33
300.298
300.271
300.254
300.255
300.286
300.378
300.579
300.962
301.585
302.411
300.051
300.148
300.235
300.312
300.381
300.443
300.498
300.547
300.59
300.626
300.658
300.683
300.703
300.717
300.726
300.727
300.723
300.711
300.692
300.667
300.634
300.595
300.552
300.505
300.457
300.412
300.374
300.351
300.354
300.403
300.532
300.789
301.227
301.868
302.684
300.056
300.161
300.255
300.338
300.411
300.477
300.537
300.59
300.638
300.681
300.719
300.753
300.782
300.806
300.825
300.839
300.848
300.85
300.845
300.833
300.812
300.783
300.746
300.702
300.652
300.601
300.554
300.522
300.52
300.575
300.726
301.019
301.491
302.149
302.97
300.063
300.183
300.292
300.388
300.47
300.541
300.604
300.66
300.71
300.755
300.794
300.829
300.859
300.885
300.907
300.924
300.937
300.946
300.95
300.947
300.938
300.922
300.897
300.865
300.826
300.783
300.739
300.705
300.697
300.745
300.895
301.198
301.683
302.352
303.183
300.072
300.211
300.336
300.446
300.538
300.616
300.682
300.742
300.794
300.841
300.883
300.919
300.95
300.977
301
301.018
301.033
301.043
301.049
301.049
301.044
301.032
301.013
300.986
300.953
300.916
300.879
300.851
300.849
300.903
301.061
301.377
301.869
302.542
303.382
300.077
300.225
300.36
300.479
300.579
300.661
300.73
300.79
300.845
300.893
300.935
300.973
301.006
301.034
301.058
301.079
301.095
301.108
301.115
301.118
301.116
301.108
301.093
301.072
301.045
301.014
300.984
300.963
300.968
301.031
301.2
301.526
302.022
302.697
303.545
300.085
300.247
300.395
300.525
300.632
300.719
300.791
300.854
300.91
300.959
301.003
301.041
301.074
301.104
301.129
301.15
301.166
301.178
301.185
301.187
301.184
301.175
301.161
301.141
301.117
301.09
301.066
301.054
301.071
301.15
301.337
301.678
302.178
302.852
303.704
300.09
300.263
300.42
300.557
300.669
300.759
300.832
300.896
300.953
301.004
301.048
301.088
301.122
301.153
301.18
301.202
301.219
301.232
301.239
301.241
301.238
301.229
301.215
301.197
301.175
301.152
301.134
301.131
301.16
301.255
301.459
301.814
302.318
302.994
303.85
300.095
300.279
300.445
300.589
300.706
300.8
300.876
300.942
301
301.052
301.098
301.139
301.175
301.208
301.236
301.258
301.276
301.288
301.294
301.295
301.29
301.28
301.265
301.247
301.227
301.207
301.195
301.2
301.243
301.355
301.578
301.945
302.455
303.133
303.991
300.1
300.292
300.466
300.615
300.737
300.833
300.912
300.979
301.038
301.091
301.139
301.182
301.22
301.254
301.283
301.307
301.325
301.337
301.343
301.343
301.338
301.327
301.312
301.294
301.275
301.258
301.25
301.264
301.319
301.446
301.686
302.065
302.58
303.262
304.123
300.104
300.304
300.485
300.641
300.767
300.866
300.947
301.016
301.077
301.131
301.181
301.226
301.266
301.302
301.332
301.356
301.375
301.386
301.392
301.391
301.385
301.373
301.357
301.339
301.32
301.306
301.303
301.325
301.391
301.533
301.788
302.179
302.7
303.386
304.248
300.108
300.316
300.503
300.664
300.794
300.896
300.979
301.05
301.112
301.169
301.22
301.267
301.309
301.346
301.377
301.402
301.421
301.433
301.438
301.437
301.43
301.418
301.401
301.383
301.365
301.353
301.354
301.383
301.459
301.615
301.885
302.285
302.812
303.503
304.366
300.112
300.327
300.521
300.687
300.82
300.925
301.01
301.083
301.148
301.206
301.259
301.308
301.351
301.389
301.421
301.447
301.466
301.478
301.483
301.482
301.474
301.461
301.444
301.426
301.409
301.399
301.404
301.439
301.526
301.695
301.977
302.386
302.918
303.614
304.479
300.116
300.338
300.538
300.709
300.846
300.953
301.04
301.115
301.181
301.241
301.296
301.346
301.391
301.43
301.463
301.49
301.509
301.522
301.527
301.525
301.517
301.504
301.487
301.468
301.452
301.444
301.453
301.495
301.591
301.771
302.065
302.482
303.019
303.719
304.585
300.12
300.348
300.555
300.731
300.871
300.98
301.069
301.145
301.214
301.276
301.333
301.384
301.43
301.471
301.505
301.532
301.551
301.564
301.569
301.567
301.559
301.545
301.528
301.51
301.495
301.488
301.502
301.549
301.654
301.846
302.151
302.575
303.116
303.82
304.686
300.123
300.359
300.572
300.752
300.895
301.006
301.097
301.175
301.245
301.309
301.368
301.421
301.468
301.51
301.544
301.572
301.592
301.605
301.61
301.609
301.6
301.587
301.569
301.551
301.537
301.533
301.55
301.603
301.717
301.918
302.234
302.663
303.208
303.916
304.782
300.127
300.369
300.587
300.772
300.918
301.031
301.124
301.204
301.276
301.341
301.401
301.456
301.505
301.547
301.583
301.611
301.632
301.645
301.651
301.649
301.641
301.627
301.61
301.592
301.579
301.577
301.597
301.657
301.779
301.99
302.315
302.749
303.297
304.008
304.874
300.13
300.38
300.603
300.792
300.941
301.056
301.15
301.232
301.306
301.373
301.434
301.49
301.54
301.584
301.62
301.649
301.671
301.684
301.69
301.688
301.68
301.667
301.65
301.633
301.621
301.621
301.645
301.71
301.84
302.06
302.393
302.832
303.382
304.095
304.961
300.134
300.389
300.618
300.811
300.962
301.079
301.175
301.259
301.334
301.403
301.466
301.523
301.574
301.619
301.656
301.686
301.708
301.722
301.728
301.727
301.719
301.706
301.69
301.673
301.662
301.665
301.693
301.763
301.9
302.129
302.469
302.911
303.463
304.179
305.045
300.137
300.399
300.633
300.83
300.984
301.102
301.2
301.285
301.362
301.432
301.496
301.555
301.607
301.653
301.691
301.722
301.745
301.759
301.766
301.765
301.758
301.745
301.729
301.714
301.704
301.709
301.74
301.816
301.96
302.196
302.543
302.988
303.541
304.259
305.124
300.14
300.408
300.647
300.848
301.004
301.124
301.223
301.31
301.388
301.46
301.526
301.586
301.639
301.686
301.725
301.757
301.78
301.795
301.803
301.803
301.796
301.784
301.769
301.754
301.746
301.753
301.787
301.868
302.018
302.262
302.615
303.062
303.616
304.336
305.2
300.144
300.417
300.661
300.866
301.024
301.146
301.246
301.335
301.414
301.487
301.555
301.616
301.671
301.718
301.759
301.791
301.815
301.831
301.839
301.84
301.834
301.823
301.808
301.794
301.787
301.796
301.835
301.92
302.076
302.327
302.685
303.133
303.688
304.409
305.274
300.147
300.426
300.675
300.882
301.043
301.166
301.269
301.358
301.439
301.514
301.583
301.645
301.701
301.75
301.791
301.824
301.849
301.866
301.875
301.876
301.871
301.861
301.847
301.834
301.829
301.84
301.882
301.972
302.134
302.39
302.753
303.203
303.758
304.48
305.344
300.15
300.435
300.688
300.899
301.062
301.187
301.29
301.382
301.464
301.54
301.61
301.674
301.731
301.781
301.823
301.856
301.882
301.9
301.91
301.912
301.908
301.899
301.886
301.874
301.87
301.884
301.928
302.023
302.19
302.452
302.819
303.27
303.825
304.548
305.412
300.153
300.443
300.701
300.915
301.08
301.207
301.312
301.404
301.489
301.566
301.637
301.702
301.76
301.811
301.854
301.888
301.915
301.933
301.944
301.947
301.944
301.936
301.925
301.914
301.912
301.927
301.975
302.074
302.246
302.513
302.883
303.335
303.89
304.614
305.478
300.156
300.451
300.714
300.932
301.098
301.227
301.333
301.427
301.513
301.591
301.664
301.73
301.789
301.841
301.884
301.92
301.947
301.966
301.978
301.982
301.98
301.973
301.963
301.954
301.953
301.971
302.021
302.124
302.301
302.572
302.946
303.398
303.954
304.678
305.541
300.158
300.46
300.727
300.948
301.116
301.246
301.354
301.449
301.536
301.616
301.69
301.757
301.817
301.87
301.914
301.951
301.979
301.999
302.011
302.017
302.016
302.01
302.001
301.993
301.994
302.014
302.068
302.174
302.355
302.631
303.008
303.46
304.015
304.74
305.603
300.161
300.468
300.74
300.963
301.134
301.265
301.375
301.472
301.56
301.641
301.716
301.785
301.846
301.899
301.944
301.981
302.01
302.031
302.044
302.051
302.051
302.046
302.039
302.033
302.035
302.057
302.114
302.223
302.409
302.689
303.068
303.521
304.075
304.801
305.663
300.164
300.476
300.752
300.979
301.152
301.285
301.395
301.494
301.584
301.666
301.742
301.812
301.874
301.928
301.974
302.011
302.041
302.063
302.077
302.084
302.086
302.082
302.076
302.072
302.076
302.1
302.159
302.273
302.462
302.746
303.128
303.58
304.134
304.86
305.722
300.167
300.484
300.765
300.995
301.17
301.304
301.416
301.516
301.607
301.691
301.769
301.839
301.902
301.957
302.003
302.042
302.072
302.094
302.109
302.118
302.12
302.118
302.113
302.111
302.117
302.143
302.205
302.322
302.515
302.802
303.186
303.638
304.191
304.917
305.779
300.17
300.492
300.778
301.011
301.187
301.323
301.437
301.538
301.631
301.716
301.795
301.866
301.93
301.985
302.033
302.072
302.102
302.125
302.141
302.15
302.154
302.153
302.15
302.149
302.157
302.186
302.25
302.37
302.567
302.858
303.243
303.695
304.248
304.974
305.835
300.173
300.501
300.79
301.027
301.205
301.343
301.458
301.56
301.654
301.741
301.821
301.893
301.958
302.014
302.062
302.101
302.133
302.157
302.173
302.183
302.188
302.188
302.187
302.187
302.198
302.228
302.295
302.418
302.618
302.912
303.299
303.75
304.302
305.028
305.889
300.176
300.509
300.803
301.043
301.223
301.362
301.479
301.583
301.678
301.766
301.847
301.92
301.986
302.043
302.091
302.131
302.163
302.187
302.205
302.216
302.221
302.223
302.223
302.225
302.238
302.27
302.34
302.466
302.669
302.966
303.355
303.805
304.356
305.082
305.943
300.179
300.517
300.816
301.058
301.24
301.381
301.499
301.605
301.702
301.791
301.873
301.947
302.013
302.071
302.12
302.161
302.193
302.218
302.236
302.248
302.255
302.258
302.259
302.263
302.277
302.312
302.384
302.513
302.719
303.019
303.409
303.859
304.409
305.135
305.995
300.181
300.525
300.829
301.074
301.258
301.4
301.52
301.627
301.725
301.816
301.899
301.974
302.041
302.1
302.149
302.191
302.224
302.249
302.268
302.28
302.288
302.292
302.295
302.301
302.317
302.354
302.429
302.56
302.769
303.072
303.463
303.912
304.461
305.187
306.047
300.184
300.534
300.841
301.09
301.276
301.419
301.541
301.649
301.749
301.841
301.925
302.001
302.069
302.128
302.179
302.22
302.254
302.28
302.299
302.313
302.321
302.326
302.331
302.338
302.356
302.396
302.473
302.607
302.819
303.123
303.516
303.964
304.512
305.238
306.098
300.187
300.542
300.854
301.105
301.293
301.438
301.561
301.671
301.772
301.865
301.951
302.028
302.097
302.157
302.208
302.25
302.284
302.31
302.33
302.345
302.354
302.361
302.366
302.376
302.395
302.437
302.516
302.653
302.868
303.175
303.568
304.016
304.563
305.288
306.148
300.19
300.55
300.867
301.121
301.311
301.457
301.581
301.693
301.796
301.89
301.977
302.055
302.125
302.185
302.237
302.28
302.314
302.341
302.362
302.377
302.387
302.395
302.402
302.413
302.435
302.478
302.56
302.699
302.916
303.225
303.619
304.066
304.613
305.338
306.198
300.193
300.558
300.879
301.137
301.328
301.476
301.602
301.715
301.819
301.915
302.003
302.082
302.153
302.214
302.266
302.309
302.344
302.372
302.393
302.408
302.42
302.429
302.437
302.45
302.474
302.52
302.604
302.745
302.965
303.276
303.67
304.117
304.662
305.387
306.247
300.196
300.567
300.892
301.152
301.345
301.495
301.622
301.737
301.842
301.94
302.029
302.109
302.181
302.242
302.295
302.339
302.374
302.402
302.424
302.44
302.453
302.462
302.472
302.487
302.513
302.561
302.647
302.791
303.013
303.326
303.721
304.167
304.711
305.436
306.296
300.199
300.575
300.904
301.167
301.362
301.513
301.642
301.759
301.866
301.964
302.055
302.136
302.208
302.271
302.324
302.368
302.404
302.433
302.455
302.472
302.485
302.496
302.508
302.524
302.552
302.602
302.691
302.838
303.062
303.376
303.772
304.216
304.76
305.485
306.345
300.202
300.583
300.917
301.183
301.379
301.532
301.663
301.78
301.889
301.989
302.081
302.163
302.236
302.299
302.353
302.398
302.434
302.463
302.486
302.504
302.518
302.53
302.543
302.561
302.591
302.643
302.735
302.884
303.11
303.426
303.822
304.266
304.808
305.533
306.394
300.205
300.591
300.929
301.198
301.396
301.551
301.683
301.802
301.912
302.014
302.107
302.19
302.264
302.328
302.382
302.427
302.464
302.493
302.517
302.535
302.551
302.564
302.578
302.598
302.63
302.685
302.779
302.93
303.159
303.477
303.873
304.315
304.856
305.582
306.443
300.207
300.599
300.941
301.213
301.413
301.569
301.703
301.824
301.936
302.039
302.133
302.217
302.292
302.356
302.411
302.456
302.494
302.524
302.548
302.567
302.583
302.598
302.613
302.635
302.669
302.726
302.823
302.977
303.208
303.527
303.923
304.364
304.905
305.63
306.492
300.21
300.607
300.954
301.228
301.43
301.588
301.723
301.846
301.959
302.063
302.159
302.244
302.319
302.385
302.44
302.486
302.523
302.554
302.579
302.599
302.616
302.631
302.648
302.672
302.708
302.768
302.867
303.024
303.257
303.578
303.974
304.414
304.953
305.679
306.541
300.213
300.615
300.966
301.243
301.447
301.606
301.743
301.868
301.982
302.088
302.185
302.271
302.347
302.413
302.469
302.515
302.553
302.584
302.609
302.63
302.648
302.665
302.684
302.709
302.747
302.81
302.911
303.071
303.307
303.629
304.025
304.464
305.002
305.728
306.591
300.216
300.623
300.978
301.258
301.464
301.625
301.763
301.889
302.006
302.113
302.211
302.298
302.375
302.441
302.497
302.544
302.583
302.614
302.64
302.662
302.68
302.698
302.719
302.746
302.786
302.852
302.956
303.118
303.357
303.681
304.076
304.514
305.051
305.777
306.641
300.219
300.631
300.99
301.273
301.481
301.643
301.783
301.911
302.029
302.138
302.237
302.325
302.403
302.47
302.526
302.573
302.612
302.644
302.671
302.693
302.713
302.732
302.754
302.783
302.826
302.894
303.001
303.166
303.407
303.732
304.128
304.564
305.1
305.827
306.691
300.221
300.639
301.002
301.288
301.497
301.661
301.804
301.933
302.053
302.163
302.263
302.353
302.431
302.498
302.555
302.603
302.642
302.674
302.701
302.724
302.745
302.766
302.789
302.82
302.865
302.936
303.047
303.215
303.458
303.785
304.18
304.614
305.15
305.877
306.741
300.224
300.647
301.014
301.303
301.514
301.68
301.824
301.955
302.076
302.188
302.289
302.38
302.459
302.527
302.584
302.632
302.671
302.704
302.732
302.756
302.777
302.799
302.824
302.857
302.905
302.979
303.093
303.264
303.51
303.838
304.232
304.665
305.199
305.927
306.791
300.227
300.655
301.027
301.318
301.531
301.698
301.844
301.977
302.1
302.213
302.316
302.407
302.487
302.555
302.613
302.661
302.701
302.734
302.762
302.787
302.809
302.832
302.859
302.894
302.945
303.022
303.139
303.313
303.561
303.891
304.285
304.716
305.25
305.977
306.842
300.23
300.663
301.039
301.332
301.548
301.717
301.864
301.999
302.124
302.238
302.342
302.434
302.515
302.584
302.642
302.69
302.73
302.764
302.793
302.818
302.841
302.866
302.894
302.932
302.985
303.065
303.185
303.363
303.614
303.945
304.338
304.767
305.3
306.027
306.893
300.233
300.671
301.051
301.347
301.564
301.735
301.884
302.021
302.147
302.264
302.369
302.462
302.543
302.612
302.67
302.719
302.76
302.794
302.823
302.849
302.873
302.899
302.929
302.969
303.025
303.108
303.232
303.413
303.667
303.999
304.391
304.819
305.35
306.078
306.944
300.235
300.679
301.063
301.362
301.581
301.754
301.905
302.043
302.171
302.289
302.395
302.489
302.571
302.64
302.699
302.748
302.789
302.823
302.853
302.879
302.905
302.932
302.964
303.006
303.065
303.151
303.279
303.463
303.72
304.053
304.444
304.87
305.401
306.128
306.994
300.238
300.687
301.075
301.377
301.598
301.772
301.925
302.065
302.195
302.314
302.422
302.517
302.599
302.669
302.728
302.777
302.818
302.853
302.883
302.91
302.937
302.965
302.999
303.043
303.105
303.194
303.325
303.513
303.773
304.108
304.498
304.922
305.451
306.179
307.045
300.241
300.695
301.087
301.392
301.615
301.791
301.946
302.088
302.219
302.34
302.449
302.544
302.627
302.697
302.756
302.806
302.847
302.882
302.913
302.941
302.968
302.998
303.034
303.08
303.145
303.238
303.372
303.564
303.826
304.162
304.551
304.973
305.501
306.229
307.095
300.244
300.703
301.1
301.407
301.632
301.81
301.966
302.11
302.244
302.366
302.476
302.572
302.655
302.726
302.785
302.834
302.876
302.911
302.943
302.971
303
303.031
303.069
303.117
303.185
303.281
303.419
303.614
303.879
304.216
304.603
305.024
305.551
306.278
307.145
300.247
300.711
301.112
301.422
301.649
301.829
301.987
302.133
302.268
302.392
302.503
302.6
302.684
302.754
302.814
302.863
302.905
302.941
302.972
303.002
303.031
303.064
303.103
303.154
303.224
303.324
303.465
303.664
303.932
304.27
304.656
305.075
305.601
306.328
307.194
300.249
300.719
301.124
301.437
301.666
301.848
302.008
302.156
302.293
302.418
302.53
302.628
302.712
302.783
302.842
302.892
302.934
302.97
303.002
303.032
303.063
303.097
303.138
303.191
303.264
303.367
303.512
303.714
303.985
304.323
304.708
305.125
305.65
306.376
307.243
300.252
300.727
301.137
301.453
301.684
301.867
302.03
302.18
302.318
302.445
302.558
302.656
302.74
302.811
302.871
302.921
302.963
302.999
303.031
303.062
303.094
303.129
303.172
303.227
303.303
303.409
303.558
303.764
304.037
304.376
304.759
305.174
305.699
306.425
307.291
300.255
300.735
301.149
301.469
301.701
301.887
302.052
302.204
302.344
302.472
302.586
302.685
302.769
302.84
302.9
302.949
302.991
303.028
303.061
303.092
303.125
303.162
303.206
303.264
303.343
303.452
303.604
303.813
304.089
304.429
304.81
305.224
305.747
306.473
307.338
300.258
300.743
301.162
301.484
301.719
301.907
302.074
302.228
302.37
302.499
302.614
302.714
302.798
302.869
302.928
302.978
303.02
303.057
303.09
303.122
303.156
303.194
303.24
303.3
303.382
303.494
303.65
303.863
304.14
304.481
304.861
305.272
305.795
306.52
307.386
300.261
300.752
301.175
301.501
301.738
301.928
302.096
302.252
302.396
302.527
302.643
302.743
302.827
302.898
302.957
303.007
303.049
303.086
303.119
303.152
303.187
303.226
303.274
303.337
303.421
303.537
303.696
303.912
304.192
304.533
304.911
305.321
305.842
306.567
307.432
300.264
300.761
301.189
301.517
301.756
301.948
302.119
302.277
302.423
302.555
302.672
302.772
302.857
302.927
302.986
303.036
303.078
303.115
303.149
303.182
303.218
303.258
303.308
303.373
303.46
303.579
303.742
303.96
304.243
304.584
304.96
305.368
305.889
306.613
307.478
300.267
300.77
301.202
301.534
301.775
301.969
302.143
302.303
302.451
302.584
302.701
302.802
302.886
302.957
303.015
303.064
303.106
303.143
303.178
303.212
303.248
303.29
303.342
303.409
303.499
303.621
303.787
304.009
304.293
304.635
305.009
305.415
305.935
306.659
307.523
300.27
300.779
301.216
301.551
301.795
301.991
302.166
302.329
302.478
302.613
302.731
302.832
302.916
302.986
303.045
303.093
303.135
303.172
303.207
303.242
303.279
303.322
303.376
303.445
303.537
303.663
303.832
304.057
304.344
304.685
305.058
305.462
305.981
306.704
307.568
300.273
300.788
301.231
301.568
301.815
302.013
302.191
302.355
302.507
302.643
302.761
302.862
302.946
303.016
303.074
303.123
303.164
303.201
303.236
303.271
303.309
303.354
303.409
303.481
303.576
303.704
303.877
304.105
304.393
304.734
305.105
305.508
306.026
306.748
307.611
300.277
300.797
301.245
301.586
301.835
302.035
302.216
302.382
302.536
302.673
302.792
302.893
302.977
303.046
303.104
303.152
303.193
303.23
303.265
303.301
303.34
303.386
303.442
303.516
303.614
303.746
303.922
304.152
304.442
304.783
305.152
305.553
306.07
306.792
307.654
300.28
300.807
301.26
301.604
301.855
302.058
302.241
302.41
302.565
302.704
302.823
302.924
303.008
303.077
303.133
303.181
303.222
303.259
303.294
303.33
303.37
303.417
303.475
303.551
303.652
303.786
303.966
304.199
304.491
304.831
305.198
305.597
306.114
306.834
307.695
300.284
300.817
301.275
301.623
301.876
302.082
302.267
302.438
302.595
302.735
302.855
302.956
303.039
303.107
303.163
303.211
303.251
303.288
303.323
303.36
303.4
303.448
303.508
303.586
303.689
303.827
304.009
304.245
304.538
304.878
305.243
305.64
306.156
306.875
307.735
300.287
300.827
301.29
301.641
301.897
302.105
302.293
302.467
302.626
302.766
302.887
302.988
303.07
303.138
303.194
303.24
303.28
303.317
303.352
303.389
303.43
303.479
303.541
303.621
303.726
303.867
304.052
304.29
304.585
304.924
305.287
305.683
306.197
306.915
307.774
300.291
300.837
301.306
301.66
301.919
302.129
302.32
302.496
302.657
302.799
302.919
303.02
303.102
303.169
303.224
303.27
303.31
303.346
303.382
303.419
303.46
303.511
303.573
303.655
303.763
303.906
304.094
304.335
304.63
304.969
305.33
305.724
306.238
306.955
307.812
300.294
300.847
301.322
301.68
301.941
302.154
302.347
302.526
302.688
302.831
302.952
303.053
303.134
303.2
303.254
303.3
303.339
303.375
303.411
303.448
303.49
303.541
303.606
303.689
303.799
303.945
304.135
304.378
304.675
305.013
305.371
305.764
306.277
306.992
307.849
300.298
300.858
301.338
301.699
301.963
302.179
302.375
302.556
302.721
302.864
302.986
303.086
303.166
303.232
303.285
303.33
303.369
303.405
303.44
303.478
303.521
303.572
303.638
303.723
303.835
303.983
304.176
304.421
304.718
305.056
305.412
305.803
306.315
307.029
307.885
300.302
300.868
301.354
301.719
301.986
302.204
302.403
302.587
302.753
302.898
303.02
303.119
303.199
303.264
303.316
303.36
303.399
303.434
303.469
303.507
303.55
303.603
303.67
303.756
303.87
304.021
304.216
304.463
304.76
305.097
305.451
305.84
306.351
307.064
307.919
300.305
300.879
301.37
301.74
302.009
302.23
302.432
302.619
302.787
302.932
303.054
303.153
303.232
303.296
303.347
303.391
303.429
303.464
303.499
303.537
303.581
303.634
303.702
303.79
303.906
304.058
304.255
304.504
304.802
305.137
305.489
305.877
306.387
307.099
307.952
300.309
300.89
301.387
301.76
302.033
302.257
302.462
302.651
302.821
302.967
303.089
303.187
303.265
303.328
303.379
303.421
303.459
303.493
303.528
303.566
303.611
303.665
303.733
303.823
303.94
304.095
304.294
304.543
304.842
305.176
305.526
305.912
306.421
307.131
307.984
300.313
300.901
301.404
301.782
302.057
302.284
302.492
302.684
302.856
303.003
303.124
303.222
303.299
303.361
303.411
303.452
303.489
303.523
303.558
303.596
303.641
303.695
303.765
303.856
303.975
304.131
304.332
304.583
304.882
305.214
305.562
305.947
306.454
307.164
308.015
300.317
300.913
301.422
301.803
302.082
302.312
302.524
302.718
302.892
303.039
303.16
303.257
303.333
303.394
303.443
303.483
303.519
303.553
303.588
303.626
303.671
303.726
303.796
303.888
304.009
304.167
304.369
304.621
304.92
305.251
305.597
305.979
306.486
307.194
308.045
300.321
300.925
301.44
301.826
302.108
302.342
302.556
302.754
302.929
303.077
303.197
303.293
303.368
303.427
303.475
303.515
303.55
303.584
303.618
303.656
303.701
303.757
303.828
303.921
304.043
304.202
304.406
304.659
304.957
305.287
305.631
306.012
306.517
307.225
308.075
300.325
300.937
301.459
301.849
302.134
302.372
302.59
302.791
302.967
303.115
303.235
303.329
303.403
303.461
303.508
303.546
303.581
303.614
303.648
303.686
303.732
303.788
303.86
303.954
304.077
304.237
304.442
304.696
304.994
305.321
305.663
306.043
306.548
307.254
308.103
300.33
300.949
301.478
301.873
302.162
302.403
302.625
302.829
303.007
303.155
303.274
303.367
303.439
303.495
303.541
303.579
303.612
303.645
303.679
303.717
303.762
303.819
303.892
303.987
304.111
304.273
304.479
304.733
305.03
305.356
305.696
306.074
306.578
307.283
308.132
300.334
300.963
301.499
301.898
302.191
302.436
302.661
302.868
303.047
303.196
303.314
303.405
303.476
303.53
303.574
303.611
303.644
303.676
303.709
303.747
303.793
303.85
303.923
304.019
304.145
304.308
304.514
304.768
305.065
305.389
305.727
306.103
306.606
307.311
308.16
300.339
300.976
301.52
301.924
302.221
302.469
302.699
302.908
303.089
303.238
303.354
303.444
303.513
303.566
303.608
303.644
303.676
303.707
303.74
303.778
303.824
303.882
303.956
304.052
304.179
304.343
304.55
304.805
305.1
305.422
305.758
306.133
306.636
307.34
308.188
300.344
300.991
301.542
301.951
302.251
302.504
302.738
302.95
303.132
303.28
303.395
303.483
303.55
303.602
303.642
303.677
303.708
303.739
303.772
303.809
303.855
303.913
303.988
304.085
304.213
304.378
304.586
304.84
305.134
305.455
305.788
306.162
306.664
307.368
308.216
300.349
301.005
301.564
301.978
302.283
302.54
302.777
302.992
303.175
303.323
303.437
303.523
303.588
303.638
303.677
303.71
303.741
303.771
303.803
303.841
303.887
303.945
304.021
304.119
304.247
304.413
304.622
304.876
305.169
305.487
305.819
306.192
306.693
307.396
308.244
300.354
301.02
301.587
302.006
302.315
302.576
302.818
303.035
303.22
303.367
303.479
303.564
303.627
303.674
303.712
303.744
303.773
303.803
303.835
303.872
303.919
303.977
304.053
304.152
304.282
304.448
304.657
304.911
305.203
305.519
305.848
306.22
306.72
307.423
308.271
300.36
301.036
301.611
302.035
302.348
302.614
302.86
303.08
303.265
303.411
303.522
303.604
303.665
303.711
303.748
303.778
303.807
303.835
303.867
303.905
303.951
304.01
304.086
304.186
304.316
304.484
304.693
304.947
305.237
305.551
305.879
306.249
306.749
307.452
308.3
300.365
301.052
301.635
302.065
302.382
302.653
302.903
303.125
303.311
303.456
303.565
303.646
303.704
303.749
303.783
303.813
303.84
303.868
303.899
303.937
303.983
304.042
304.119
304.22
304.351
304.519
304.729
304.981
305.271
305.582
305.908
306.277
306.776
307.479
308.327
300.371
301.068
301.659
302.096
302.418
302.693
302.947
303.172
303.358
303.502
303.61
303.687
303.744
303.786
303.819
303.847
303.874
303.901
303.932
303.969
304.016
304.076
304.153
304.255
304.386
304.555
304.765
305.017
305.305
305.615
305.938
306.306
306.806
307.508
308.356
300.377
301.084
301.685
302.127
302.454
302.735
302.994
303.221
303.407
303.55
303.655
303.73
303.784
303.824
303.856
303.882
303.908
303.935
303.965
304.002
304.049
304.109
304.187
304.289
304.421
304.59
304.801
305.052
305.339
305.646
305.968
306.335
306.833
307.536
308.384
300.383
301.102
301.712
302.16
302.493
302.779
303.042
303.272
303.458
303.599
303.701
303.773
303.825
303.863
303.892
303.918
303.942
303.968
303.999
304.035
304.082
304.143
304.221
304.324
304.458
304.627
304.838
305.089
305.374
305.679
305.999
306.365
306.863
307.565
308.414
300.389
301.119
301.739
302.194
302.532
302.824
303.092
303.324
303.51
303.649
303.748
303.818
303.866
303.902
303.93
303.954
303.977
304.002
304.032
304.069
304.116
304.176
304.256
304.359
304.493
304.663
304.874
305.124
305.407
305.71
306.028
306.393
306.891
307.593
308.442
300.395
301.138
301.768
302.229
302.573
302.871
303.144
303.379
303.564
303.701
303.797
303.863
303.909
303.942
303.967
303.99
304.012
304.037
304.066
304.103
304.15
304.211
304.291
304.396
304.53
304.701
304.912
305.161
305.443
305.744
306.06
306.424
306.922
307.624
308.473
300.402
301.157
301.797
302.266
302.616
302.92
303.198
303.435
303.62
303.754
303.846
303.909
303.952
303.982
304.006
304.027
304.048
304.072
304.101
304.137
304.184
304.246
304.327
304.432
304.567
304.738
304.949
305.197
305.477
305.776
306.09
306.453
306.951
307.653
308.503
300.409
301.177
301.828
302.304
302.66
302.971
303.255
303.494
303.677
303.808
303.897
303.956
303.995
304.023
304.045
304.064
304.084
304.107
304.136
304.172
304.22
304.282
304.363
304.469
304.605
304.777
304.988
305.235
305.513
305.81
306.123
306.485
306.982
307.685
308.535
300.416
301.198
301.859
302.343
302.706
303.024
303.312
303.553
303.736
303.864
303.949
304.004
304.04
304.065
304.084
304.101
304.12
304.143
304.171
304.207
304.255
304.317
304.399
304.506
304.643
304.815
305.025
305.272
305.548
305.843
306.153
306.515
307.012
307.715
308.565
300.423
301.219
301.892
302.383
302.753
303.077
303.372
303.614
303.796
303.92
304.002
304.053
304.085
304.107
304.124
304.14
304.157
304.179
304.207
304.243
304.291
304.354
304.437
304.545
304.683
304.855
305.066
305.312
305.586
305.878
306.187
306.548
307.045
307.748
308.599
300.431
301.241
301.925
302.423
302.8
303.132
303.432
303.676
303.856
303.978
304.055
304.102
304.13
304.149
304.164
304.178
304.194
304.215
304.242
304.279
304.327
304.391
304.474
304.583
304.721
304.894
305.104
305.349
305.622
305.912
306.219
306.579
307.076
307.779
308.63
300.439
301.263
301.958
302.465
302.849
303.189
303.493
303.74
303.918
304.036
304.109
304.152
304.177
304.192
304.205
304.217
304.232
304.252
304.279
304.315
304.364
304.429
304.513
304.623
304.762
304.936
305.146
305.39
305.66
305.948
306.254
306.613
307.111
307.813
308.664
300.447
301.286
301.993
302.508
302.899
303.246
303.556
303.804
303.981
304.095
304.164
304.202
304.223
304.236
304.246
304.257
304.27
304.289
304.316
304.352
304.401
304.466
304.551
304.661
304.802
304.976
305.185
305.428
305.696
305.982
306.286
306.645
307.142
307.845
308.696
300.455
301.309
302.028
302.551
302.95
303.305
303.62
303.869
304.044
304.155
304.219
304.253
304.271
304.28
304.288
304.297
304.309
304.327
304.353
304.39
304.439
304.505
304.591
304.702
304.843
305.018
305.227
305.469
305.736
306.02
306.322
306.68
307.178
307.881
308.732
300.463
301.332
302.064
302.595
303.003
303.365
303.685
303.936
304.11
304.217
304.276
304.305
304.319
304.325
304.33
304.337
304.348
304.365
304.391
304.427
304.476
304.542
304.629
304.742
304.883
305.058
305.267
305.508
305.773
306.054
306.355
306.713
307.21
307.912
308.764
300.472
301.357
302.1
302.641
303.056
303.426
303.753
304.005
304.176
304.279
304.334
304.358
304.367
304.37
304.373
304.378
304.388
304.404
304.429
304.465
304.515
304.582
304.67
304.783
304.926
305.102
305.31
305.55
305.813
306.093
306.393
306.749
307.246
307.949
308.8
300.48
301.381
302.138
302.688
303.111
303.49
303.821
304.075
304.245
304.344
304.393
304.412
304.417
304.416
304.416
304.419
304.427
304.443
304.467
304.503
304.553
304.621
304.709
304.823
304.967
305.142
305.351
305.589
305.85
306.127
306.426
306.782
307.279
307.981
308.832
300.489
301.407
302.177
302.735
303.167
303.554
303.891
304.147
304.315
304.409
304.453
304.467
304.467
304.463
304.46
304.461