/*--------------------------------*- C++ -*----------------------------------*\
| =========                 |                                                 |
| \\      /  F ield         | OpenFOAM: The Open Source CFD Toolbox           |
|  \\    /   O peration     | Version:  v2006                                 |
|   \\  /    A nd           | Website:  www.openfoam.com                      |
|    \\/     M anipulation  |                                                 |
\*---------------------------------------------------------------------------*/
FoamFile
{
    version     2.0;
    format      ascii;
    class       volScalarField;
    location    "63";
    object      omega;
}
// * * * * * * * * * * * * * * * * * * * * * * * * * * * * * * * * * * * * * //

dimensions      [0 0 -1 0 0 0 0];


internalField   nonuniform List<scalar> 
78750
(
352.704
13.5932
13.6404
13.6829
13.7213
13.7562
13.7877
13.8155
13.8397
13.8602
13.8773
13.891
13.9016
13.909
13.9135
13.9152
13.9142
13.9106
13.9046
13.8964
13.886
13.8737
13.8596
13.8438
13.8266
13.8079
13.7879
13.7667
13.7442
13.7205
13.6963
13.674
13.6588
13.6571
356.38
517.546
4.161
4.25469
4.34316
4.42557
4.49946
4.56325
4.61671
4.66038
4.69532
4.72232
4.74182
4.75422
4.75995
4.75942
4.75305
4.74124
4.7244
4.70294
4.67733
4.64809
4.61576
4.58086
4.54396
4.5057
4.46663
4.42723
4.38795
4.3492
4.31081
4.27216
4.23383
4.20031
4.18007
523.62
517.551
4.17528
4.28178
4.38242
4.47496
4.55655
4.62544
4.68151
4.72592
4.76065
4.787
4.80556
4.81687
4.82145
4.81975
4.81224
4.79942
4.7816
4.75894
4.73182
4.70082
4.66668
4.63014
4.59187
4.55239
4.51221
4.47176
4.43142
4.3913
4.35118
4.31096
4.27264
4.24261
4.22838
524.228
517.566
4.23942
4.38966
4.52366
4.63704
4.72795
4.79796
4.85054
4.88922
4.91677
4.93471
4.94397
4.94545
4.93999
4.92824
4.91056
4.8874
4.85933
4.82707
4.79148
4.75357
4.71446
4.67513
4.63607
4.59718
4.55813
4.51863
4.47851
4.43758
4.39564
4.35334
4.31419
4.28613
4.27517
524.71
517.579
4.28717
4.46446
4.61476
4.73348
4.82196
4.886
4.93232
4.96548
4.98755
4.99972
5.00301
4.99835
4.98637
4.96737
4.94176
4.91019
4.87359
4.83312
4.79022
4.74662
4.70431
4.66497
4.6291
4.59604
4.56448
4.53299
4.50032
4.46549
4.42802
4.38896
4.35279
4.32787
4.31851
525.166
517.596
4.33705
4.5398
4.70568
4.83089
4.92037
4.98344
5.02822
5.05925
5.07854
5.08743
5.08703
5.07783
5.06006
5.03408
5.00053
4.96036
4.91483
4.86542
4.81385
4.76222
4.71311
4.66892
4.63065
4.59781
4.569
4.54231
4.51567
4.48721
4.45571
4.42183
4.38988
4.36765
4.35823
525.532
517.61
4.37594
4.59707
4.77327
4.90181
4.9909
5.05246
5.09557
5.12458
5.14133
5.1473
5.14321
5.12927
5.10567
5.07292
5.0319
4.9839
4.9305
4.87355
4.81517
4.75801
4.70525
4.65944
4.62125
4.59009
4.56461
4.54286
4.5225
4.50116
4.47701
4.45002
4.42372
4.40459
4.39491
525.883
517.626
4.41623
4.65541
4.84211
4.9751
5.06548
5.12727
5.16971
5.19739
5.21267
5.21666
5.2097
5.19189
5.16346
5.12502
5.07765
5.02285
4.9624
4.89838
4.83318
4.76978
4.71185
4.6622
4.62141
4.58894
4.56369
4.54398
4.52759
4.51196
4.49472
4.47486
4.45453
4.43852
4.42846
526.187
517.638
4.4471
4.70007
4.89508
5.03184
5.12356
5.18572
5.22802
5.25514
5.26926
5.27129
5.26145
5.2398
5.20663
5.16273
5.1094
5.04837
4.98169
4.91171
4.8412
4.77365
4.71327
4.6624
4.62101
4.58845
4.56379
4.54573
4.53244
4.52159
4.51053
4.49737
4.48277
4.46977
4.45953
526.474
517.653
4.48149
4.74923
4.95291
5.09357
5.1867
5.24926
5.29138
5.3178
5.33065
5.33073
5.31819
5.29304
5.25563
5.20686
5.14818
5.0815
5.00905
4.93339
4.85759
4.78559
4.72208
4.66916
4.62638
4.5929
4.56785
4.55022
4.53869
4.53126
4.52527
4.51804
4.50867
4.49855
4.48838
526.733
517.665
4.50955
4.78921
5.00015
5.1444
5.23912
5.30235
5.34457
5.37058
5.38242
5.38078
5.36572
5.33726
5.2958
5.24239
5.17868
5.10675
5.02908
4.94847
4.86836
4.79329
4.72839
4.67504
4.63226
4.59894
4.57416
4.55716
4.54703
4.54226
4.54031
4.53799
4.53305
4.52545
4.51544
526.976
517.679
4.5407
4.83305
5.05136
5.19893
5.29494
5.35859
5.40071
5.42612
5.4368
5.43337
5.41582
5.38416
5.33888
5.28113
5.21268
5.13577
5.05306
4.96756
4.88305
4.80454
4.7377
4.6835
4.64049
4.60725
4.58272
4.56622
4.55714
4.55438
4.55563
4.55734
4.55612
4.55073
4.54088
527.198
517.692
4.56804
4.87119
5.09586
5.24649
5.34384
5.40808
5.4503
5.47531
5.48504
5.48
5.46015
5.4255
5.37662
5.31477
5.24186
5.16031
5.07294
4.98301
4.89466
4.81345
4.74554
4.6913
4.6488
4.61632
4.59263
4.57702
4.56909
4.56806
4.57187
4.57676
4.57848
4.57484
4.565
527.405
517.706
4.5973
4.91157
5.1425
5.29587
5.39432
5.45897
5.50114
5.52566
5.53437
5.52774
5.50565
5.46816
5.41588
5.35019
5.27308
5.18708
5.09517
5.00078
4.90838
4.82405
4.75455
4.6999
4.65777
4.6261
4.6034
4.58889
4.58222
4.5828
4.58875
4.59621
4.60025
4.59797
4.58793
527.598
517.719
4.62421
4.94831
5.18482
5.34075
5.44034
5.50552
5.54781
5.572
5.57989
5.57184
5.54773
5.50762
5.45222
5.38298
5.30198
5.21188
5.11576
5.01723
4.92108
4.83388
4.76301
4.70816
4.66665
4.63608
4.61473
4.60166
4.59648
4.5987
4.60653
4.61604
4.62182
4.62047
4.60995
527.779
517.733
4.65214
4.9861
5.22799
5.38623
5.48678
5.55239
5.59474
5.61859
5.62566
5.61625
5.59024
5.5477
5.48941
5.41688
5.33226
5.23826
5.13805
5.03538
4.9353
4.84483
4.77207
4.71664
4.67554
4.64605
4.62618
4.61477
4.61133
4.61529
4.62489
4.6361
4.6432
4.64241
4.63112
527.95
517.747
4.67849
5.02141
5.26823
5.42867
5.53025
5.59642
5.63898
5.66264
5.66906
5.65849
5.63079
5.58609
5.5252
5.44969
5.36178
5.26422
5.16022
5.05365
4.94977
4.856
4.78119
4.72504
4.68428
4.65592
4.63769
4.62819
4.62673
4.6326
4.64394
4.6566
4.66464
4.66406
4.65169
528.112
517.762
4.70537
5.05713
5.30866
5.47111
5.57362
5.6403
5.68305
5.70654
5.71235
5.7007
5.67144
5.62475
5.5615
5.48328
5.39235
5.29144
5.1838
5.07339
4.96562
4.86822
4.79086
4.73356
4.69286
4.66551
4.64895
4.64153
4.64227
4.65024
4.66337
4.67735
4.68606
4.68541
4.67169
528.267
517.776
4.73109
5.09105
5.347
5.51143
5.61494
5.68226
5.72533
5.74878
5.75412
5.74157
5.71096
5.66254
5.5972
5.5166
5.42297
5.31902
5.20803
5.09397
4.98239
4.88123
4.80094
4.74215
4.70127
4.67482
4.65998
4.65479
4.65796
4.66824
4.68326
4.69847
4.70764
4.70665
4.69128
528.416
517.791
4.75704
5.12503
5.38522
5.5515
5.65599
5.72393
5.76733
5.79075
5.79568
5.78228
5.75045
5.70046
5.63327
5.55053
5.45448
5.34778
5.23365
5.11609
5.00069
4.89553
4.81178
4.75098
4.70953
4.68375
4.67056
4.66768
4.67346
4.68625
4.70329
4.71975
4.72926
4.72773
4.71047
528.56
517.805
4.78208
5.15761
5.42185
5.59003
5.6956
5.76428
5.80811
5.83159
5.83619
5.82207
5.78919
5.73786
5.66909
5.58454
5.48639
5.37726
5.26031
5.13943
5.02025
4.91099
4.82334
4.76009
4.71768
4.69234
4.68073
4.68024
4.68881
4.7043
4.7235
4.74119
4.75093
4.7487
4.72932
528.699
517.82
4.80712
5.19
5.45822
5.6283
5.735
5.80446
5.8487
5.8722
5.87645
5.86166
5.82782
5.77532
5.70519
5.61911
5.51917
5.40793
5.28843
5.16446
5.04159
4.92808
4.836
4.76973
4.72587
4.7006
4.69039
4.69228
4.70375
4.72214
4.74367
4.76271
4.77265
4.76957
4.74783
528.834
517.835
4.83135
5.22118
5.4933
5.66544
5.77349
5.84385
5.88849
5.91198
5.91587
5.90046
5.8658
5.81234
5.74114
5.65382
5.55244
5.43944
5.31772
5.19091
5.06446
4.94662
4.84975
4.77998
4.7342
4.70865
4.69964
4.70388
4.71835
4.73978
4.76378
4.78418
4.79432
4.79029
4.76604
528.965
517.85
4.85538
5.25194
5.52794
5.70235
5.81217
5.88353
5.92829
5.95152
5.95495
5.93893
5.90357
5.84934
5.77731
5.68906
5.58657
5.47217
5.34858
5.21921
5.08936
4.96714
4.86507
4.79121
4.74294
4.71662
4.70849
4.71494
4.73242
4.757
4.78359
4.80553
4.8162
4.81086
4.78383
529.092
517.865
4.8786
5.28147
5.56123
5.73811
5.84968
5.9221
5.96732
5.99013
5.99307
5.97653
5.94062
5.88584
5.81325
5.72438
5.62113
5.50569
5.38059
5.24901
5.116
4.98948
4.88197
4.80359
4.7523
4.72474
4.71716
4.72564
4.74612
4.77396
4.80334
4.82702
4.83842
4.83186
4.80151
529.215
517.88
4.9015
5.3104
5.59377
5.77317
5.88611
5.95952
6.00535
6.02825
6.03067
6.01367
5.97735
5.92222
5.84931
5.76011
5.65644
5.54032
5.4141
5.28069
5.14482
5.01411
4.90096
4.81757
4.76265
4.73325
4.72573
4.73596
4.75932
4.79043
4.82266
4.84825
4.86058
4.85292
4.81902
529.336
517.895
4.92366
5.33821
5.62496
5.80665
5.92099
5.99545
6.042
6.06516
6.06717
6.04984
6.01327
5.95798
5.88499
5.79574
5.69196
5.57553
5.44859
5.31375
5.17542
5.04083
4.92211
4.83337
4.7743
4.74248
4.73452
4.74616
4.77224
4.80661
4.84187
4.86983
4.88287
4.87401
4.83637
529.453
517.91
4.94551
5.36553
5.65572
5.8393
5.95484
6.03032
6.07764
6.10122
6.10316
6.08552
6.04878
5.99348
5.92062
5.83159
5.72801
5.61163
5.48437
5.34853
5.20816
5.07005
4.94593
4.85148
4.7877
4.75279
4.74377
4.75633
4.78488
4.82247
4.8609
4.89148
4.9052
4.89508
4.85355
529.568
517.925
4.9665
5.39161
5.68522
5.87036
5.98705
6.06357
6.11176
6.13593
6.13807
6.12011
6.0833
6.02816
5.95565
5.86708
5.76398
5.64799
5.52079
5.38443
5.24253
5.1014
4.97232
4.87203
4.80314
4.76456
4.75384
4.76681
4.79748
4.83816
4.8798
4.91309
4.92751
4.91609
4.87054
529.68
517.94
4.98703
5.41687
5.71366
5.90033
6.01818
6.09576
6.14482
6.16961
6.17202
6.1539
6.11722
6.06242
5.99044
5.90255
5.8002
5.68488
5.55813
5.42166
5.27873
5.13512
5.00155
4.89536
4.82099
4.77813
4.76503
4.7778
4.81017
4.85374
4.89857
4.93462
4.94976
4.93701
4.88737
529.79
517.954
5.00687
5.44106
5.74078
5.92884
6.04778
6.12641
6.1764
6.20189
6.2047
6.18658
6.15012
6.09576
6.02445
5.93741
5.83603
5.72167
5.59569
5.45954
5.31609
5.17059
5.03317
4.92128
4.84134
4.7938
4.77771
4.78963
4.82319
4.86933
4.91721
4.95599
4.97187
4.95779
4.904
529.899
517.969
5.02626
5.4645
5.76694
5.95629
6.07629
6.15597
6.2069
6.23315
6.23647
6.21852
6.18233
6.12851
6.05799
5.97197
5.87175
5.75859
5.63368
5.49822
5.35471
5.20787
5.06718
4.94987
4.86433
4.81177
4.79211
4.80255
4.83676
4.88514
4.93591
4.97733
4.99388
4.97845
4.92047
530.005
517.984
5.04502
5.48693
5.79184
5.98232
6.10332
6.18401
6.23589
6.26293
6.26688
6.24939
6.21341
6.16016
6.09053
6.00567
5.90679
5.79505
5.67147
5.53705
5.39392
5.2463
5.10298
4.98079
4.88987
4.83217
4.80851
4.81685
4.85111
4.90122
4.95457
4.99851
5.01573
4.99895
4.93674
530.111
517.998
5.06343
5.50875
5.81586
6.00736
6.12928
6.21095
6.26374
6.29157
6.29614
6.27912
6.24348
6.19095
6.12237
6.03881
5.94142
5.83126
5.70924
5.57612
5.43375
5.28584
5.1405
5.01395
4.91797
4.85511
4.82708
4.83274
4.86644
4.91786
4.97373
5.01972
5.03744
5.01928
4.95282
530.216
518.013
5.08127
5.52968
5.83868
6.031
6.15376
6.23637
6.29007
6.31871
6.32396
6.30749
6.27229
6.22056
6.15311
6.07096
5.97517
5.86674
5.74645
5.61489
5.47361
5.32588
5.17914
5.04894
4.94841
4.88056
4.84798
4.85049
4.88305
4.93532
4.9934
5.04107
5.05909
5.03944
4.96869
530.32
518.027
5.09878
5.5502
5.86069
6.05366
6.17715
6.26064
6.31523
6.34466
6.35061
6.33473
6.30004
6.24922
6.183
6.10235
6.00827
5.90169
5.78326
5.65343
5.51352
5.36635
5.21876
5.08556
4.98101
4.90848
4.87127
4.87024
4.90112
4.95369
5.01358
5.06258
5.08069
5.05945
4.98434
530.424
518.042
5.1157
5.57
5.88146
6.07487
6.19904
6.2834
6.33887
6.36911
6.37574
6.36048
6.3264
6.27659
6.21169
6.13263
6.04036
5.93572
5.81929
5.69137
5.55304
5.4068
5.25887
5.12338
5.01546
4.93866
4.89694
4.89213
4.92084
4.97319
5.03438
5.08433
5.10228
5.0793
4.99977
530.528
518.056
5.13198
5.58883
5.90115
6.09499
6.21982
6.30502
6.36136
6.3924
6.39975
6.38515
6.3517
6.30288
6.23936
6.16199
6.07159
5.96897
5.85463
5.72874
5.59221
5.44718
5.29937
5.16222
5.05153
4.97094
4.9249
4.91616
4.94229
4.99388
5.05587
5.10634
5.12385
5.099
5.01495
530.631
518.07
5.14771
5.60671
5.91962
6.11372
6.23913
6.32514
6.38232
6.41414
6.42222
6.40832
6.3756
6.32788
6.26576
6.19007
6.10166
6.00112
5.88895
5.76521
5.63064
5.48709
5.33984
5.2017
5.08889
5.00505
4.955
4.94231
4.96554
5.01587
5.07814
5.12868
5.14546
5.11854
5.02988
530.735
518.084
5.16281
5.62369
5.93705
6.13137
6.25732
6.3441
6.4021
6.4347
6.4435
6.4303
6.39837
6.35179
6.29112
6.21714
6.13065
6.03231
5.92237
5.80086
5.66838
5.52654
5.38021
5.24165
5.12732
5.04077
4.98707
4.9705
4.99056
5.03917
5.10119
5.15134
5.1671
5.13792
5.04454
530.839
518.098
5.17722
5.63964
5.95324
6.14765
6.27408
6.36159
6.42036
6.45371
6.46322
6.45077
6.41967
6.37429
6.31514
6.24294
6.15843
6.06222
5.95462
5.83542
5.70514
5.56521
5.42016
5.28175
5.16651
5.07781
5.02089
5.00061
5.01738
5.06385
5.12509
5.17437
5.18877
5.15714
5.05891
530.943
518.112
5.19108
5.65476
5.96845
6.16288
6.28974
6.37793
6.43745
6.47152
6.48173
6.47001
6.43979
6.39564
6.33801
6.26761
6.18511
6.09107
5.98574
5.86896
5.74098
5.60313
5.45965
5.32191
5.2063
5.11596
5.05621
5.03242
5.04582
5.08984
5.14983
5.19779
5.2105
5.17619
5.07301
531.047
518.126
5.20416
5.66881
5.9824
6.17677
6.304
6.39282
6.45304
6.48781
6.4987
6.48774
6.45844
6.41555
6.35949
6.29091
6.21044
6.11859
6.01557
5.90114
5.77561
5.64001
5.49842
5.36189
5.24649
5.15505
5.09288
5.06578
5.07576
5.11705
5.17534
5.22155
5.23227
5.19507
5.0868
531.151
518.139
5.21666
5.68204
5.99541
6.18964
6.31718
6.40659
6.46747
6.50289
6.51445
6.50423
6.47589
6.43427
6.37978
6.31301
6.23457
6.14492
6.04421
5.93216
5.80903
5.67584
5.53642
5.40159
5.28693
5.19493
5.13079
5.10061
5.10713
5.1454
5.20159
5.24564
5.25407
5.21377
5.1003
531.255
518.152
5.22839
5.69423
6.00721
6.20122
6.32902
6.41896
6.48046
6.51651
6.52871
6.51924
6.49189
6.45158
6.39866
6.33371
6.2573
6.16984
6.07145
5.96182
5.84116
5.71045
5.57345
5.44078
5.3274
5.23538
5.16976
5.1368
5.13987
5.17486
5.22851
5.27
5.27585
5.23225
5.11345
531.358
518.164
5.23954
5.70563
6.01811
6.21182
6.33982
6.43025
6.49232
6.52895
6.54176
6.53304
6.5067
6.46769
6.41635
6.35321
6.27879
6.19349
6.09741
5.99018
5.87201
5.74386
5.60948
5.4794
5.36773
5.2762
5.20957
5.17418
5.17391
5.20542
5.25615
5.29467
5.29764
5.25055
5.12633
531.461
518.177
5.24992
5.71602
6.02786
6.2212
6.34935
6.44022
6.50282
6.54
6.55341
6.54543
6.52013
6.48246
6.4327
6.37135
6.29891
6.21575
6.12194
6.0171
5.90144
5.77592
5.64431
5.51721
5.4077
5.31711
5.24994
5.21248
5.20899
5.23689
5.28435
5.31955
5.31938
5.26861
5.13888
531.563
518.189
5.25974
5.72566
6.03674
6.22965
6.35789
6.44915
6.51223
6.54992
6.5639
6.55666
6.53242
6.49608
6.44788
6.38831
6.31782
6.23677
6.14518
6.0427
5.92954
5.80669
5.678
5.55416
5.44714
5.35789
5.29062
5.2515
5.24504
5.26931
5.31322
5.34473
5.34114
5.28652
5.15125
531.664
518.2
5.26882
5.73433
6.04454
6.23695
6.36523
6.45683
6.52037
6.55853
6.57306
6.56657
6.54343
6.50844
6.46181
6.404
6.33545
6.25646
6.16708
6.06693
5.95624
5.8361
5.71046
5.59017
5.48593
5.39837
5.33136
5.2909
5.28165
5.30224
5.34247
5.37008
5.3629
5.3043
5.16353
531.765
518.211
5.27734
5.74229
6.05151
6.24335
6.37163
6.46353
6.52747
6.56608
6.58113
6.57537
6.55336
6.51971
6.47465
6.41858
6.35193
6.27497
6.18774
6.08988
5.98167
5.86425
5.74175
5.62522
5.52399
5.43837
5.37196
5.33052
5.31879
5.33597
5.37219
5.39564
5.38469
5.322
5.1757
531.864
518.222
5.28515
5.74932
6.05746
6.24868
6.3769
6.46906
6.53337
6.5724
6.58797
6.58296
6.5621
6.52983
6.48633
6.43199
6.36722
6.29227
6.20717
6.11157
6.00581
5.89113
5.77186
5.65931
5.56127
5.47781
5.41224
5.37012
5.35622
5.37019
5.40225
5.42136
5.40648
5.33961
5.18775
531.962
518.233
5.29244
5.75568
6.06263
6.25316
6.38128
6.47366
6.5383
6.57771
6.59377
6.5895
6.56981
6.53892
6.49698
6.44436
6.38143
6.30845
6.22544
6.13208
6.02874
5.91683
5.80088
5.69247
5.59778
5.51667
5.45218
5.40964
5.39381
5.40474
5.43258
5.44723
5.42832
5.35718
5.19972
532.059
518.243
5.29905
5.76117
6.06683
6.25664
6.38462
6.47718
6.54212
6.58189
6.59843
6.59491
6.57644
6.54695
6.50656
6.45565
6.39455
6.32353
6.24258
6.15142
6.05051
5.94138
5.82883
5.72471
5.63351
5.55487
5.4916
5.44885
5.43133
5.43937
5.46303
5.47315
5.45014
5.37467
5.21161
532.155
518.252
5.30515
5.766
6.0703
6.25932
6.38712
6.47982
6.54502
6.58511
6.60212
6.59935
6.58212
6.55402
6.51519
6.46596
6.40667
6.33756
6.25865
6.16967
6.07117
5.96485
5.85578
5.75608
5.66848
5.59246
5.5306
5.48783
5.46878
5.47406
5.49355
5.49913
5.47199
5.39215
5.22345
532.25
518.262
5.31062
5.77005
6.07289
6.26108
6.38867
6.48147
6.54691
6.58731
6.60477
6.60277
6.5868
6.56012
6.52284
6.47529
6.41779
6.35058
6.27368
6.18688
6.09079
5.98733
5.88186
5.78665
5.70272
5.62938
5.56902
5.5263
5.50591
5.50859
5.524
5.52506
5.49379
5.40955
5.23521
532.343
518.27
5.3156
5.77348
6.07479
6.26211
6.38943
6.48231
6.54795
6.58863
6.60653
6.6053
6.59062
6.56535
6.52961
6.48371
6.42798
6.36264
6.28774
6.2031
6.10947
6.00893
5.90722
5.81652
5.73628
5.6657
5.60697
5.56452
5.54289
5.54306
5.55441
5.55099
5.51558
5.42692
5.24692
532.435
518.279
5.32
5.77618
6.0759
6.26229
6.38933
6.48225
6.54808
6.58902
6.60736
6.60692
6.59356
6.56972
6.53551
6.49124
6.43726
6.37379
6.30088
6.21843
6.12731
6.02983
5.93212
5.84586
5.76927
5.70143
5.64435
5.60223
5.57939
5.5772
5.58462
5.57679
5.53728
5.44421
5.25856
532.525
518.287
5.32395
5.77832
6.07637
6.2618
6.3885
6.48144
6.54742
6.58861
6.60739
6.60774
6.59572
6.57331
6.54061
6.49797
6.4457
6.38406
6.31314
6.2329
6.14436
6.05011
5.95672
5.8748
5.80177
5.73665
5.68126
5.63957
5.61577
5.61125
5.61475
5.60253
5.55895
5.46147
5.27016
532.615
518.295
5.32739
5.77983
6.07613
6.26056
6.3869
6.47983
6.54594
6.58738
6.6066
6.60778
6.59714
6.57616
6.54497
6.50392
6.45334
6.39351
6.32456
6.24653
6.16063
6.06976
5.98096
5.9033
5.83377
5.77133
5.71763
5.67642
5.6517
5.64492
5.64464
5.62815
5.58053
5.47866
5.28172
532.702
518.302
5.33041
5.78082
6.07531
6.25869
6.38464
6.47752
6.54375
6.58542
6.6051
6.60712
6.59788
6.57834
6.54864
6.50916
6.46025
6.40219
6.33518
6.25937
6.17613
6.08873
6.00468
5.93127
5.86522
5.80546
5.75348
5.71281
5.68729
5.67843
5.67438
5.65368
5.60208
5.49584
5.29328
532.789
518.31
5.33299
5.78124
6.07386
6.25615
6.38167
6.47448
6.54081
6.58272
6.60289
6.6058
6.59799
6.57988
6.55167
6.51374
6.46647
6.41018
6.34509
6.27148
6.19092
6.10704
6.02783
5.95863
5.89604
5.83895
5.78871
5.74865
5.72242
5.7116
5.70393
5.67911
5.6236
5.51302
5.30486
532.873
518.316
5.3352
5.7812
6.07188
6.25303
6.37808
6.47079
6.53721
6.57936
6.60006
6.60393
6.59754
6.58084
6.55408
6.51769
6.47206
6.41751
6.35433
6.28292
6.20506
6.12475
6.05043
5.98541
5.92628
5.87186
5.82338
5.78396
5.7571
5.74443
5.73326
5.70442
5.64509
5.53021
5.31648
532.956
518.323
5.33702
5.78065
6.06932
6.2493
6.37385
6.46643
6.5329
6.5753
6.59661
6.60164
6.59655
6.58121
6.5559
6.52104
6.47704
6.42423
6.36297
6.29376
6.21862
6.14193
6.07249
6.01162
5.95589
5.90413
5.85744
5.81872
5.7913
5.77686
5.76234
5.72964
5.66655
5.54743
5.32816
533.038
518.329
5.3385
5.77967
6.06627
6.24503
6.36905
6.46147
6.52796
6.57058
6.59248
6.59874
6.59494
6.58097
6.55714
6.52384
6.48148
6.43042
6.37109
6.3041
6.23173
6.15874
6.09413
6.03732
5.98495
5.93584
5.89096
5.85299
5.82508
5.80896
5.79121
5.75477
5.68801
5.5647
5.33991
533.118
518.335
5.33963
5.77823
6.06269
6.2402
6.36366
6.4559
6.5224
6.56523
6.58776
6.59528
6.5928
6.58023
6.55787
6.52614
6.48543
6.43614
6.37876
6.31405
6.24452
6.17534
6.11541
6.06253
6.01343
5.96692
5.92387
5.88672
5.85842
5.84075
5.8199
5.77986
5.70952
5.58206
5.35178
533.196
518.341
5.34044
5.77638
6.05865
6.23486
6.35773
6.44976
6.51624
6.55927
6.58243
6.59125
6.59012
6.57897
6.55811
6.52796
6.48894
6.44146
6.38609
6.32374
6.2572
6.19208
6.1366
6.08744
6.04145
5.99745
5.9562
5.91991
5.89132
5.87223
5.84843
5.80491
5.73108
5.59951
5.36375
533.273
518.347
5.34094
5.7741
6.05413
6.22902
6.35128
6.44307
6.50951
6.55275
6.57657
6.58673
6.58699
6.57728
6.55793
6.52937
6.49204
6.4464
6.39309
6.33319
6.26981
6.209
6.15772
6.11206
6.069
6.0274
5.98788
5.95248
5.9237
5.90334
5.87677
5.82993
5.75272
5.61708
5.37584
533.348
518.352
5.34118
5.77149
6.0492
6.22273
6.34433
6.43586
6.50224
6.54568
6.57018
6.58174
6.58342
6.57518
6.55737
6.53042
6.4948
6.45102
6.39981
6.34245
6.28236
6.22605
6.17881
6.13649
6.0962
6.05687
6.01903
5.9845
5.95558
5.9341
5.9049
5.85489
5.7744
5.63475
5.38803
533.422
518.358
5.34117
5.76853
6.04386
6.21598
6.3369
6.42813
6.49444
6.53808
6.56329
6.5763
6.57945
6.57271
6.55645
6.53113
6.49723
6.45532
6.40625
6.35148
6.29476
6.24302
6.19971
6.1606
6.12299
6.08581
6.04957
6.01593
5.98705
5.96448
5.93284
5.87983
5.79615
5.65255
5.40036
533.494
518.363
5.34098
5.76529
6.03818
6.20883
6.32902
6.41993
6.48613
6.52998
6.55595
6.57047
6.57513
6.56993
6.55525
6.53158
6.49943
6.45942
6.41251
6.36037
6.3071
6.25996
6.22047
6.18448
6.14942
6.11432
6.07962
6.04688
6.01827
5.99452
5.96051
5.90465
5.81792
5.67043
5.41279
533.566
518.368
5.3406
5.76176
6.03211
6.20124
6.32067
6.41121
6.4773
6.52137
6.54814
6.56423
6.57044
6.56682
6.55377
6.53178
6.50141
6.46333
6.41863
6.36918
6.31943
6.27683
6.24105
6.20808
6.1755
6.14241
6.10924
6.07748
6.04923
6.02434
5.98804
5.92945
5.83975
5.68844
5.42534
533.636
518.373
5.34008
5.75801
6.02573
6.19327
6.31187
6.40201
6.46796
6.51229
6.53993
6.55764
6.56544
6.56344
6.55205
6.5318
6.50326
6.46718
6.42476
6.3781
6.33199
6.29381
6.2616
6.23151
6.20128
6.1701
6.13841
6.10761
6.07981
6.05383
6.01536
5.95416
5.86159
5.70651
5.43799
533.706
518.378
5.33944
5.75402
6.01903
6.1849
6.30261
6.39229
6.45808
6.50272
6.53134
6.55068
6.56009
6.55973
6.55006
6.53159
6.50495
6.47095
6.43091
6.3872
6.34494
6.311
6.28218
6.25483
6.22686
6.19752
6.16726
6.13744
6.11011
6.08311
6.04255
5.97885
5.8835
5.7247
5.45075
533.774
518.383
5.33872
5.74984
6.01203
6.17616
6.2929
6.38204
6.44764
6.49268
6.52259
6.54341
6.5544
6.55574
6.54784
6.53124
6.50658
6.47475
6.43724
6.39665
6.35849
6.32854
6.30289
6.27811
6.25223
6.22462
6.19571
6.16684
6.14002
6.11207
6.06953
6.00346
5.90542
5.74296
5.4636
533.843
518.388
5.3379
5.74546
6.00472
6.16701
6.28271
6.37123
6.43654
6.48192
6.51315
6.5355
6.5482
6.55134
6.54533
6.53068
6.50807
6.47851
6.44365
6.40637
6.37253
6.3464
6.32378
6.30144
6.27756
6.25158
6.22396
6.196
6.16969
6.14083
6.09639
6.02804
5.92739
5.76131
5.47654
533.91
518.393
5.33704
5.74092
5.99712
6.15749
6.27207
6.35988
6.42486
6.47058
6.50322
6.52718
6.54164
6.54667
6.5426
6.52997
6.5095
6.48229
6.45017
6.41632
6.3869
6.36446
6.34473
6.32471
6.30273
6.27829
6.2519
6.22482
6.19903
6.16931
6.12307
6.05255
5.94936
5.7797
5.48954
533.978
518.398
5.33607
5.73613
5.98916
6.14751
6.26088
6.34789
6.41244
6.45848
6.49255
6.51819
6.53452
6.54154
6.53954
6.52904
6.5108
6.48605
6.4568
6.42651
6.40158
6.38274
6.36583
6.34805
6.32789
6.30494
6.2797
6.25345
6.22817
6.19761
6.14964
6.07702
5.97136
5.79817
5.5026
534.044
518.403
5.33502
5.73113
5.98087
6.13711
6.24919
6.3353
6.39938
6.44573
6.48129
6.50867
6.52695
6.53604
6.53619
6.5279
6.512
6.48981
6.46353
6.43693
6.41643
6.40109
6.38691
6.37131
6.3529
6.33137
6.30726
6.28182
6.25706
6.2257
6.17607
6.10144
5.99335
5.81666
5.5157
534.111
518.408
5.33384
5.72584
5.97215
6.12619
6.23688
6.32202
6.38553
6.43219
6.46928
6.49847
6.51878
6.53005
6.53248
6.52654
6.51312
6.49364
6.47052
6.44781
6.43165
6.41968
6.40814
6.39462
6.37791
6.35775
6.3347
6.31004
6.28577
6.25364
6.20239
6.12581
6.01536
5.83519
5.52883
534.176
518.413
5.33253
5.72026
5.96302
6.11476
6.22399
6.30805
6.37096
6.41794
6.45662
6.48766
6.51007
6.5236
6.52838
6.52491
6.51409
6.49749
6.47773
6.45915
6.44715
6.4384
6.42937
6.41786
6.40279
6.38395
6.36195
6.33805
6.3143
6.28141
6.22861
6.15013
6.03734
5.85371
5.54196
534.243
518.418
5.33105
5.71433
5.95339
6.10271
6.21037
6.29328
6.35554
6.40286
6.44319
6.47617
6.50075
6.51663
6.52389
6.52302
6.51497
6.50145
6.48529
6.47112
6.4631
6.4574
6.45075
6.44115
6.42762
6.41005
6.38906
6.36592
6.34266
6.30903
6.25472
6.17441
6.05933
5.87225
5.5551
534.308
518.423
5.32939
5.70804
5.94323
6.09003
6.196
6.27768
6.33928
6.387
6.42903
6.46398
6.49078
6.50907
6.51889
6.52071
6.51558
6.5053
6.49297
6.48342
6.47927
6.47652
6.47217
6.46441
6.45238
6.43603
6.41598
6.39353
6.37082
6.3365
6.28073
6.19862
6.08126
5.89075
5.56819
534.376
518.428
5.32758
5.70138
5.93251
6.07662
6.18078
6.26112
6.32209
6.37036
6.41412
6.45109
6.4802
6.501
6.51346
6.51808
6.51597
6.50909
6.50076
6.49595
6.49557
6.4957
6.49358
6.48758
6.47699
6.46181
6.44275
6.42122
6.39881
6.36379
6.30662
6.22278
6.10318
5.90924
5.58128
534.441
518.433
5.32555
5.69429
5.92116
6.06242
6.1646
6.24346
6.30383
6.35301
6.3983
6.4373
6.46882
6.49224
6.50748
6.51503
6.51607
6.51275
6.50861
6.50856
6.5119
6.51487
6.51496
6.51072
6.50155
6.48756
6.46954
6.44905
6.42678
6.39095
6.33238
6.24683
6.125
5.92764
5.59428
534.508
518.438
5.32338
5.68679
5.90919
6.04741
6.14741
6.22458
6.28423
6.33436
6.38129
6.42251
6.45661
6.48282
6.50098
6.51159
6.51594
6.51635
6.51659
6.52122
6.52817
6.53391
6.53617
6.53366
6.52592
6.51314
6.4962
6.4768
6.45462
6.41798
6.35803
6.2708
6.14678
5.94601
5.60725
534.574
518.443
5.32097
5.67879
5.89651
6.0315
6.12912
6.20444
6.26327
6.3144
6.36305
6.40661
6.44345
6.47263
6.49388
6.50773
6.5156
6.51998
6.52486
6.53404
6.54447
6.55291
6.55729
6.55651
6.55019
6.53864
6.52281
6.50451
6.48235
6.44485
6.38351
6.29462
6.16841
5.96423
5.62009
534.642
518.448
5.31836
5.6703
5.88312
6.01469
6.10972
6.18294
6.24084
6.29295
6.3434
6.38943
6.42918
6.46148
6.486
6.50329
6.51489
6.5235
6.53329
6.54685
6.56065
6.5717
6.57817
6.5791
6.57421
6.56389
6.5492
6.532
6.50988
6.47155
6.40885
6.31834
6.18997
5.98239
5.63286
534.708
518.453
5.31548
5.66127
5.86899
5.99696
6.08917
6.1601
6.21696
6.27007
6.32238
6.371
6.41378
6.44937
6.47732
6.49824
6.51378
6.52685
6.54177
6.55959
6.57667
6.59031
6.59886
6.6015
6.59806
6.58901
6.57546
6.55937
6.53725
6.49804
6.43399
6.34186
6.21132
6.00034
5.64546
534.776
518.458
5.31226
5.65167
5.8541
5.97827
6.06741
6.13579
6.19149
6.24559
6.29983
6.35113
6.39709
6.4361
6.46765
6.49237
6.51204
6.5298
6.54997
6.57198
6.5923
6.6085
6.61913
6.62349
6.62151
6.61374
6.60136
6.5864
6.56432
6.52429
6.45895
6.36524
6.23257
6.01821
5.65796
534.842
518.463
5.30883
5.64164
5.83857
5.95868
6.04447
6.11006
6.16449
6.21962
6.27585
6.32995
6.3792
6.42176
6.45704
6.48571
6.50971
6.53236
6.55779
6.58393
6.60749
6.62628
6.63903
6.64517
6.64471
6.63825
6.62706
6.61322
6.59114
6.55026
6.48362
6.38835
6.25353
6.0358
5.67023
534.911
518.468
5.30519
5.63115
5.82235
5.93814
6.02024
6.08275
6.13577
6.19192
6.25026
6.3073
6.35997
6.40623
6.44539
6.47819
6.50672
6.5345
6.56509
6.59526
6.62201
6.64339
6.6583
6.66625
6.66735
6.66225
6.65228
6.63962
6.61759
6.57594
6.50805
6.41127
6.27435
6.05326
5.68238
534.977
518.473
5.30151
5.6204
5.80558
5.91673
5.99478
6.05391
6.10541
6.16257
6.22316
6.28328
6.3395
6.38957
6.43275
6.46986
6.50315
6.53632
6.57189
6.60599
6.63589
6.65989
6.67701
6.68685
6.68958
6.6859
6.6772
6.66569
6.64368
6.60123
6.53212
6.43383
6.29483
6.07039
5.69424
535.046
518.478
5.29782
5.6094
5.78829
5.89442
5.96797
6.02336
6.07325
6.13141
6.19433
6.25768
6.31762
6.37165
6.41899
6.46058
6.49884
6.53761
6.57798
6.61589
6.64891
6.67554
6.69491
6.70671
6.71113
6.70893
6.70152
6.69125
6.66934
6.62615
6.55588
6.45613
6.31507
6.08731
5.70592
535.112
518.484
5.2943
5.59835
5.7706
5.8713
5.93982
5.99111
6.03941
6.09836
6.16367
6.23042
6.29425
6.35239
6.40404
6.45026
6.49367
6.53815
6.5832
6.62487
6.66101
6.6903
6.71199
6.72581
6.73202
6.73141
6.7255
6.71635
6.69451
6.65062
6.57922
6.47805
6.33494
6.10388
5.71729
535.182
518.49
5.29097
5.58728
5.75259
5.84736
5.91022
5.95687
6.0035
6.06303
6.13086
6.20126
6.26921
6.33167
6.38781
6.4388
6.48752
6.53768
6.5873
6.63266
6.67193
6.70394
6.72803
6.744
6.75214
6.75331
6.7492
6.74098
6.71915
6.67457
6.6021
6.49956
6.35444
6.12011
5.72835
535.247
518.496
5.28797
5.57637
5.73442
5.82278
5.87925
5.92053
5.96505
6.02515
6.0957
6.17002
6.24238
6.30937
6.37019
6.42617
6.48038
6.53611
6.59017
6.6392
6.68162
6.71642
6.74303
6.76129
6.77152
6.77465
6.77247
6.76518
6.74333
6.69807
6.62455
6.52067
6.37357
6.13599
5.7391
535.317
518.503
5.28532
5.56565
5.71619
5.79763
5.84699
5.88223
5.92423
5.98476
6.05813
6.1366
6.21361
6.28541
6.35114
6.41232
6.47225
6.5333
6.59165
6.64428
6.68986
6.72751
6.75673
6.77739
6.78985
6.79509
6.79495
6.78862
6.76677
6.72086
6.64637
6.54119
6.39215
6.15137
5.74942
535.382
518.51
5.2831
5.55531
5.69807
5.77205
5.81343
5.84179
5.88076
5.94156
6.01787
6.10073
6.18266
6.2595
6.3304
6.39705
6.46292
6.52912
6.59164
6.64786
6.69664
6.73723
6.76918
6.79239
6.80724
6.81474
6.81676
6.81146
6.78967
6.74317
6.66774
6.56132
6.41038
6.16643
5.75943
535.452
518.517
5.28148
5.5455
5.6802
5.7462
5.77877
5.79937
5.83472
5.89565
5.97498
6.0624
6.14944
6.23152
6.30777
6.38007
6.452
6.5232
6.58983
6.64962
6.70164
6.74524
6.78002
6.8059
6.82327
6.83314
6.83741
6.83323
6.81155
6.76454
6.68826
6.58067
6.42789
6.18083
5.76889
535.515
518.526
5.28049
5.53628
5.66266
5.72009
5.74297
5.75485
5.7859
5.84681
5.92928
6.02144
6.11378
6.20129
6.28307
6.36119
6.43925
6.51539
6.58615
6.64957
6.70493
6.75165
6.7894
6.8181
6.83814
6.85055
6.8572
6.85424
6.83278
6.78535
6.70831
6.59962
6.44506
6.19493
5.77805
535.585
518.534
5.28031
5.52786
5.64566
5.69393
5.70618
5.70852
5.73452
5.79508
5.88067
5.97773
6.07557
6.16868
6.25615
6.34023
6.42432
6.50533
6.58022
6.64734
6.70611
6.75607
6.79688
6.82852
6.85135
6.86639
6.87552
6.87385
6.8527
6.80495
6.72725
6.61755
6.46129
6.20817
5.78649
535.647
518.544
5.28101
5.5203
5.62927
5.66777
5.66829
5.65992
5.68022
5.74017
5.82898
5.93118
6.03476
6.1337
6.22706
6.31731
6.40727
6.49307
6.57211
6.64299
6.7053
6.75863
6.80268
6.83742
6.86321
6.88105
6.89279
6.89255
6.87185
6.82392
6.74567
6.63506
6.47717
6.22113
5.79463
535.716
518.554
5.28258
5.51369
5.61369
5.6419
5.6297
5.60947
5.62311
5.68196
5.77399
5.88152
5.99109
6.09609
6.19557
6.29215
6.38777
6.47828
6.56146
6.63617
6.70212
6.75892
6.80632
6.84428
6.87315
6.89388
6.90828
6.90954
6.88937
6.84138
6.76272
6.6513
6.4919
6.23304
5.80187
535.776
518.565
5.28508
5.50813
5.59909
5.61653
5.59055
5.55713
5.56301
5.62029
5.71541
5.82846
5.9443
6.05563
6.16145
6.26456
6.36574
6.46094
6.54834
6.62701
6.69672
6.75717
6.80808
6.84942
6.8815
6.90526
6.92253
6.92547
6.90601
6.85811
6.77916
6.66706
6.50623
6.24462
5.80878
535.844
518.576
5.28838
5.50361
5.58566
5.59203
5.55139
5.5034
5.50013
5.55494
5.65287
5.77157
5.8939
6.01179
6.12414
6.23389
6.34062
6.44058
6.53231
6.61504
6.68864
6.75285
6.80739
6.85224
6.88774
6.91486
6.93476
6.93937
6.92073
6.87306
6.79399
6.68135
6.51922
6.25498
5.81464
535.902
518.588
5.29248
5.50023
5.5736
5.5688
5.51274
5.44872
5.43474
5.48599
5.58635
5.71058
5.83955
5.96423
6.08332
6.19986
6.31225
6.41717
6.51344
6.60046
6.6782
6.7464
6.80482
6.85344