/*--------------------------------*- C++ -*----------------------------------*\
| =========                 |                                                 |
| \\      /  F ield         | OpenFOAM: The Open Source CFD Toolbox           |
|  \\    /   O peration     | Version:  v2006                                 |
|   \\  /    A nd           | Website:  www.openfoam.com                      |
|    \\/     M anipulation  |                                                 |
\*---------------------------------------------------------------------------*/
FoamFile
{
    version     2.0;
    format      ascii;
    class       surfaceScalarField;
    location    "63";
    object      phi;
}
// * * * * * * * * * * * * * * * * * * * * * * * * * * * * * * * * * * * * * //

dimensions      [1 0 -1 0 0 0 0];
oriented        oriented;


internalField   nonuniform List<scalar> 
228225
(
2.82046e-08
-1.08707e-07
6.68401e-08
1.13253e-07
-2.58535e-07
1.73267e-07
2.94271e-07
-4.22157e-07
2.40813e-07
6.2458e-07
-6.07415e-07
2.76772e-07
1.12842e-06
-7.96739e-07
2.92619e-07
1.80098e-06
-9.70431e-07
2.97678e-07
2.61911e-06
-1.11572e-06
2.97468e-07
3.55127e-06
-1.22695e-06
2.9473e-07
4.56354e-06
-1.30293e-06
2.90651e-07
5.6228e-06
-1.34491e-06
2.85677e-07
6.69823e-06
-1.35524e-06
2.79874e-07
7.76151e-06
-1.33635e-06
2.73176e-07
8.78686e-06
-1.29069e-06
2.65485e-07
9.75103e-06
-1.22071e-06
2.56712e-07
1.06333e-05
-1.12889e-06
2.46793e-07
1.14156e-05
-1.01767e-06
2.35708e-07
1.20819e-05
-8.89523e-07
2.23479e-07
1.26189e-05
-7.46869e-07
2.10177e-07
1.30158e-05
-5.92425e-07
1.95921e-07
1.32647e-05
-4.294e-07
1.80869e-07
1.33617e-05
-2.61693e-07
1.65226e-07
1.33079e-05
-9.50383e-08
1.49227e-07
1.30987e-05
7.65966e-08
1.33155e-07
1.27295e-05
2.52352e-07
1.17333e-07
1.22113e-05
4.16613e-07
1.02084e-07
1.15536e-05
5.70566e-07
8.76778e-08
1.07661e-05
7.13624e-07
7.43077e-08
9.85861e-06
8.45867e-07
6.21134e-08
8.83845e-06
9.69434e-07
5.11258e-08
7.70515e-06
1.09235e-06
4.12769e-08
6.43604e-06
1.23675e-06
3.25945e-08
4.96641e-06
1.44412e-06
2.55777e-08
3.21959e-06
1.72573e-06
2.08466e-08
1.3094e-06
1.89257e-06
1.66798e-08
1.299e-06
8.4339e-09
9.54657e-08
-2.56418e-07
5.22157e-08
3.29786e-07
-6.25382e-07
1.32324e-07
6.8213e-07
-9.59219e-07
1.84536e-07
1.14511e-06
-1.28646e-06
2.15823e-07
1.70607e-06
-1.59107e-06
2.33033e-07
2.3449e-06
-1.85145e-06
2.41807e-07
3.03817e-06
-2.05523e-06
2.45835e-07
3.76356e-06
-2.19992e-06
2.47182e-07
4.50218e-06
-2.28885e-06
2.46915e-07
5.23861e-06
-2.32729e-06
2.45595e-07
5.95865e-06
-2.31908e-06
2.43452e-07
6.64887e-06
-2.26741e-06
2.40525e-07
7.2967e-06
-2.17555e-06
2.36762e-07
7.89038e-06
-2.04669e-06
2.32054e-07
8.41893e-06
-1.88388e-06
2.26266e-07
8.87226e-06
-1.69039e-06
2.19257e-07
9.24174e-06
-1.46996e-06
2.10892e-07
9.51899e-06
-1.22516e-06
2.01048e-07
9.69514e-06
-9.58105e-07
1.89607e-07
9.76239e-06
-6.72981e-07
1.7649e-07
9.71447e-06
-3.7523e-07
1.61684e-07
9.54394e-06
-6.9481e-08
1.45267e-07
9.2634e-06
2.29998e-07
1.27501e-07
8.88563e-06
5.2181e-07
1.0873e-07
8.41468e-06
7.98648e-07
8.93564e-08
7.86045e-06
1.05537e-06
6.98769e-08
7.23358e-06
1.29015e-06
5.07742e-08
6.54198e-06
1.50549e-06
3.23754e-08
5.7859e-06
1.71111e-06
1.47233e-08
4.95027e-06
1.93044e-06
-2.22811e-09
3.99729e-06
2.2061e-06
-1.62777e-08
2.8891e-06
2.57888e-06
-2.66798e-08
1.67118e-06
2.97306e-06
-2.9928e-08
5.60016e-07
3.02691e-06
-2.43601e-08
1.86776e-06
-1.08472e-08
1.32119e-07
-4.36416e-07
4.7895e-08
5.14548e-07
-1.12392e-06
1.15988e-07
1.08636e-06
-1.69124e-06
1.60122e-07
1.77987e-06
-2.16767e-06
1.87608e-07
2.53422e-06
-2.54976e-06
2.04245e-07
3.30229e-06
-2.83395e-06
2.14296e-07
4.0525e-06
-3.0261e-06
2.20502e-07
4.76611e-06
-3.13818e-06
2.2447e-07
5.43301e-06
-3.18304e-06
2.27121e-07
6.04721e-06
-3.17079e-06
2.29114e-07
6.60416e-06
-3.107e-06
2.30792e-07
7.10053e-06
-2.99621e-06
2.3227e-07
7.53396e-06
-2.84274e-06
2.33589e-07
7.90285e-06
-2.65045e-06
2.34713e-07
8.20491e-06
-2.42163e-06
2.35537e-07
8.43659e-06
-2.15803e-06
2.35828e-07
8.59421e-06
-1.86297e-06
2.35281e-07
8.67435e-06
-1.5391e-06
2.33702e-07
8.67405e-06
-1.18875e-06
2.30861e-07
8.59124e-06
-8.16474e-07
2.2627e-07
8.42533e-06
-4.28647e-07
2.19342e-07
8.18441e-06
-3.79772e-08
2.09487e-07
7.8527e-06
3.65646e-07
1.96201e-07
7.44175e-06
7.53687e-07
1.79268e-07
6.96118e-06
1.12066e-06
1.588e-07
6.42226e-06
1.45929e-06
1.35273e-07
5.83603e-06
1.7672e-06
1.09461e-07
5.20896e-06
2.05055e-06
8.22448e-08
4.5377e-06
2.32818e-06
5.43752e-08
3.80531e-06
2.63656e-06
2.6346e-08
2.98662e-06
3.02617e-06
-1.45688e-09
2.07524e-06
3.51099e-06
-2.10648e-08
1.15233e-06
3.92636e-06
-3.11535e-08
3.69367e-07
3.83546e-06
-2.69656e-08
2.24518e-06
-1.02996e-08
1.4864e-07
-6.33774e-07
4.87395e-08
5.51864e-07
-1.6384e-06
1.11292e-07
1.1409e-06
-2.42759e-06
1.47317e-07
1.83682e-06
-3.03019e-06
1.66611e-07
2.569e-06
-3.45808e-06
1.76154e-07
3.28909e-06
-3.73454e-06
1.80528e-07
3.97217e-06
-3.8915e-06
1.82347e-07
4.60888e-06
-3.9578e-06
1.82929e-07
5.1957e-06
-3.95267e-06
1.82829e-07
5.7297e-06
-3.88714e-06
1.82379e-07
6.20853e-06
-3.76771e-06
1.81901e-07
6.63053e-06
-3.5998e-06
1.8162e-07
6.99471e-06
-3.3886e-06
1.8174e-07
7.29927e-06
-3.13739e-06
1.82434e-07
7.54082e-06
-2.84705e-06
1.83921e-07
7.71559e-06
-2.51915e-06
1.86396e-07
7.81986e-06
-2.15704e-06
1.89849e-07
7.85182e-06
-1.76512e-06
1.94115e-07
7.81242e-06
-1.3482e-06
1.98903e-07
7.70347e-06
-9.1116e-07
2.03691e-07
7.52614e-06
-4.58989e-07
2.07742e-07
7.27659e-06
1.57271e-09
2.10077e-07
6.96601e-06
4.66778e-07
2.09546e-07
6.59152e-06
9.2337e-07
2.04923e-07
6.15566e-06
1.36143e-06
1.95218e-07
5.66377e-06
1.77136e-06
1.79958e-07
5.12216e-06
2.14963e-06
1.59318e-07
4.5346e-06
2.50423e-06
1.34003e-07
3.89835e-06
2.85961e-06
1.04888e-07
3.2033e-06
3.2588e-06
7.27776e-08
2.44185e-06
3.74826e-06
3.91715e-08
1.63893e-06
4.30523e-06
8.23761e-09
8.76888e-07
4.69746e-06
-9.91775e-09
2.65971e-07
4.45723e-06
-1.23006e-08
2.51237e-06
-3.49323e-09
1.47007e-07
-8.19713e-07
3.89201e-08
5.17116e-07
-2.09232e-06
8.38378e-08
1.02677e-06
-3.04476e-06
1.07541e-07
1.59961e-06
-3.72271e-06
1.19689e-07
2.17766e-06
-4.16191e-06
1.25765e-07
2.73142e-06
-4.41683e-06
1.285e-07
3.25312e-06
-4.54228e-06
1.29035e-07
3.74365e-06
-4.57632e-06
1.27954e-07
4.20333e-06
-4.53804e-06
1.25673e-07
4.63055e-06
-4.437e-06
1.22611e-07
5.02404e-06
-4.2805e-06
1.19282e-07
5.38124e-06
-4.07321e-06
1.16189e-07
5.69662e-06
-3.8177e-06
1.13696e-07
5.96302e-06
-3.51604e-06
1.12247e-07
6.17374e-06
-3.17004e-06
1.12263e-07
6.32466e-06
-2.78414e-06
1.14059e-07
6.41406e-06
-2.36431e-06
1.17867e-07
6.44245e-06
-1.91729e-06
1.23786e-07
6.41216e-06
-1.44963e-06
1.31745e-07
6.3265e-06
-9.66953e-07
1.41482e-07
6.18887e-06
-4.73785e-07
1.52474e-07
5.99957e-06
2.70485e-08
1.63874e-07
5.7647e-06
5.27276e-07
1.74446e-07
5.48154e-06
1.02404e-06
1.82568e-07
5.14884e-06
1.50779e-06
1.86428e-07
4.76549e-06
1.97038e-06
1.84409e-07
4.33058e-06
2.40913e-06
1.75482e-07
3.84197e-06
2.83354e-06
1.59342e-07
3.29459e-06
3.27088e-06
1.36108e-07
2.6823e-06
3.76485e-06
1.06167e-07
2.00991e-06
4.34903e-06
7.13733e-08
1.3172e-06
4.96001e-06
3.74308e-08
6.83783e-07
5.31682e-06
1.31623e-08
1.97535e-07
4.93899e-06
3.03184e-09
2.70446e-06
3.18676e-09
1.3123e-07
-9.82779e-07
3.17963e-08
4.56254e-07
-2.48625e-06
6.89148e-08
8.96972e-07
-3.57552e-06
9.00754e-08
1.38567e-06
-4.31384e-06
1.02479e-07
1.87727e-06
-4.76293e-06
1.09446e-07
2.35295e-06
-5.00488e-06
1.12387e-07
2.80917e-06
-5.11044e-06
1.11927e-07
3.24576e-06
-5.12154e-06
1.08629e-07
3.66138e-06
-5.05678e-06
1.03131e-07
4.05455e-06
-4.92631e-06
9.61669e-08
4.42279e-06
-4.73714e-06
8.84271e-08
4.76059e-06
-4.4915e-06
8.05257e-08
5.05959e-06
-4.18971e-06
7.30503e-08
5.31137e-06
-3.83432e-06
6.65256e-08
5.51003e-06
-3.4302e-06
6.15257e-08
5.65201e-06
-2.98469e-06
5.85903e-08
5.73629e-06
-2.50673e-06
5.81705e-08
5.76406e-06
-2.00564e-06
6.06063e-08
5.73826e-06
-1.48989e-06
6.61005e-08
5.6629e-06
-9.66258e-07
7.46895e-08
5.54249e-06
-4.39543e-07
8.62002e-08
5.38269e-06
8.66871e-08
1.00193e-07
5.18281e-06
6.11373e-07
1.15822e-07
4.94514e-06
1.13001e-06
1.31738e-07
4.66773e-06
1.63917e-06
1.4606e-07
4.34607e-06
2.13547e-06
1.56605e-07
3.97364e-06
2.62029e-06
1.61297e-07
3.5425e-06
3.10627e-06
1.58409e-07
3.04447e-06
3.62234e-06
1.46535e-07
2.47571e-06
4.20856e-06
1.24919e-07
1.84937e-06
4.8802e-06
9.48923e-08
1.21326e-06
5.53358e-06
6.19858e-08
6.355e-07
5.85838e-06
3.52782e-08
1.8914e-07
5.36478e-06
1.91216e-08
2.88279e-06
8.56851e-09
1.20908e-07
-1.12784e-06
2.41278e-08
4.04011e-07
-2.82236e-06
5.30189e-08
7.75987e-07
-4.01807e-06
7.0582e-08
1.18209e-06
-4.80153e-06
8.16024e-08
1.58886e-06
-5.25763e-06
8.79497e-08
1.98441e-06
-5.49086e-06
9.0438e-08
2.36744e-06
-5.58308e-06
8.96166e-08
2.73789e-06
-5.5781e-06
8.61005e-08
3.09502e-06
-5.49447e-06
8.05635e-08
3.43698e-06
-5.34182e-06
7.35577e-08
3.75907e-06
-5.12474e-06
6.55211e-08
4.05464e-06
-4.8439e-06
5.68442e-08
4.31724e-06
-4.50031e-06
4.80163e-08
4.54073e-06
-4.09735e-06
3.95698e-08
4.72022e-06
-3.64171e-06
3.20449e-08
4.8526e-06
-3.14303e-06
2.59816e-08
4.93663e-06
-2.61263e-06
2.19055e-08
4.97267e-06
-2.06197e-06
2.03172e-08
4.96246e-06
-1.50131e-06
2.16572e-08
4.90876e-06
-9.38781e-07
2.62613e-08
4.81479e-06
-3.79873e-07
3.43341e-08
4.68338e-06
1.7221e-07
4.59168e-08
4.51918e-06
7.14856e-07
6.07416e-08
4.32258e-06
1.24863e-06
7.80029e-08
4.09201e-06
1.77352e-06
9.62507e-08
3.82238e-06
2.29169e-06
1.13423e-07
3.50517e-06
2.81043e-06
1.27077e-07
3.12961e-06
3.34717e-06
1.34643e-07
2.68576e-06
3.93255e-06
1.33566e-07
2.17147e-06
4.60087e-06
1.21828e-07
1.60524e-06
5.34656e-06
9.95622e-08
1.03829e-06
6.02878e-06
7.12044e-08
5.31216e-07
6.31959e-06
4.4962e-08
1.52215e-07
5.71702e-06
2.53581e-08
3.02346e-06
9.35695e-09
9.60699e-08
-1.24413e-06
2.02183e-08
3.29842e-07
-3.10291e-06
4.67654e-08
6.44598e-07
-4.39777e-06
6.49529e-08
9.95152e-07
-5.22966e-06
7.75815e-08
1.35359e-06
-5.70152e-06
8.54392e-08
1.70894e-06
-5.93517e-06
8.8945e-08
2.05836e-06
-6.02113e-06
8.86296e-08
2.40028e-06
-6.00521e-06
8.52057e-08
2.7334e-06
-5.9071e-06
7.95225e-08
3.05451e-06
-5.73514e-06
7.22216e-08
3.35802e-06
-5.49197e-06
6.37318e-08
3.63789e-06
-5.17817e-06
5.44112e-08
3.88802e-06
-4.79506e-06
4.46253e-08
4.10292e-06
-4.34708e-06
3.48462e-08
4.27828e-06
-3.84265e-06
2.56019e-08
4.41127e-06
-3.2934e-06
1.74039e-08
4.50057e-06
-2.7126e-06
1.07016e-08
4.54631e-06
-2.1136e-06
5.91912e-09
4.5498e-06
-1.50832e-06
3.5445e-09
4.51323e-06
-9.06297e-07
4.11074e-09
4.43964e-06
-3.14242e-07
7.98074e-09
4.3324e-06
2.64023e-07
1.5446e-08
4.19339e-06
8.27201e-07
2.66827e-08
4.0242e-06
1.37633e-06
4.149e-08
3.82322e-06
1.91544e-06
5.9077e-08
3.58487e-06
2.4521e-06
7.79468e-08
3.29955e-06
2.99985e-06
9.5896e-08
2.95499e-06
3.58158e-06
1.10111e-07
2.54048e-06
4.22969e-06
1.17301e-07
2.05515e-06
4.97174e-06
1.14281e-07
1.52044e-06
5.78123e-06
9.97286e-08
9.87663e-07
6.48448e-06
7.65068e-08
5.10166e-07
6.7446e-06
5.15871e-08
1.50537e-07
6.04547e-06
2.97975e-08
3.16178e-06
1.00775e-08
9.31757e-08
-1.35405e-06
1.6753e-08
3.09955e-07
-3.36045e-06
4.07435e-08
5.96632e-07
-4.74275e-06
5.83134e-08
9.13902e-07
-5.61786e-06
7.09362e-08
1.23767e-06
-6.10427e-06
7.89867e-08
1.55873e-06
-6.33911e-06
8.28744e-08
1.87472e-06
-6.42032e-06
8.31917e-08
2.18421e-06
-6.39535e-06
8.06436e-08
2.48511e-06
-6.28391e-06
7.59086e-08
2.77413e-06
-6.09364e-06
6.9496e-08
3.04692e-06
-5.82655e-06
6.1802e-08
3.29846e-06
-5.48277e-06
5.30758e-08
3.52368e-06
-5.06383e-06
4.35678e-08
3.71809e-06
-4.57513e-06
3.36646e-08
3.8781e-06
-4.02644e-06
2.38069e-08
4.00116e-06
-3.43089e-06
1.44624e-08
4.08574e-06
-2.80327e-06
6.1141e-09
4.13138e-06
-2.15841e-06
-7.91817e-10
4.1387e-06
-1.50975e-06
-5.86344e-09
4.10924e-06
-8.68195e-07
-8.61123e-09
4.0452e-06
-2.4166e-07
-8.51257e-09
3.94953e-06
3.64755e-07
-5.05092e-09
3.82511e-06
9.49461e-07
2.18107e-09
3.67349e-06
1.51482e-06
1.31436e-08
3.49323e-06
2.06775e-06
2.79458e-08
3.27896e-06
2.62069e-06
4.56771e-08
3.02091e-06
3.1932e-06
6.4693e-08
2.70642e-06
3.81361e-06
8.24247e-08
2.32459e-06
4.51608e-06
9.53478e-08
1.87537e-06
5.32131e-06
9.94934e-08
1.38123e-06
6.18284e-06
9.221e-08
8.91701e-07
6.89879e-06
7.46652e-08
4.55237e-07
7.1279e-06
5.22922e-08
1.32103e-07
6.33716e-06
3.01168e-08
3.28253e-06
9.28467e-09
7.87203e-08
-1.44887e-06
1.60886e-08
2.70639e-07
-3.59283e-06
4.04572e-08
5.30626e-07
-5.0617e-06
5.89563e-08
8.22654e-07
-5.98239e-06
7.25057e-08
1.12402e-06
-6.48697e-06
8.13367e-08
1.42521e-06
-6.72621e-06
8.58983e-08
1.72299e-06
-6.805e-06
8.68865e-08
2.01527e-06
-6.77274e-06
8.51043e-08
2.29945e-06
-6.64934e-06
8.12592e-08
2.57206e-06
-6.4421e-06
7.58608e-08
2.82887e-06
-6.15257e-06
6.92235e-08
3.06533e-06
-5.78073e-06
6.15216e-08
3.27713e-06
-5.32854e-06
5.29228e-08
3.46063e-06
-4.80229e-06
4.36831e-08
3.61301e-06
-4.2129e-06
3.41054e-08
3.73225e-06
-3.57464e-06
2.45498e-08
3.81697e-06
-2.9034e-06
1.54369e-08
3.86643e-06
-2.21507e-06
7.21899e-09
3.8804e-06
-1.5242e-06
5.04075e-10
3.86022e-06
-8.42882e-07
-5.11388e-09
3.8073e-06
-1.80403e-07
-8.30908e-09
3.7236e-06
4.5717e-07
-8.69881e-09
3.61142e-06
1.06737e-06
-5.71281e-09
3.47194e-06
1.65311e-06
1.21728e-09
3.30454e-06
2.22359e-06
1.15712e-08
3.10403e-06
2.79523e-06
2.59693e-08
2.86113e-06
3.39282e-06
4.3264e-08
2.56374e-06
4.04956e-06
6.14171e-08
2.20164e-06
4.801e-06
7.70909e-08
1.7756e-06
5.66123e-06
8.59477e-08
1.30816e-06
6.56569e-06
8.42944e-08
8.46058e-07
7.28865e-06
7.17138e-08
4.33381e-07
7.48767e-06
5.20772e-08
1.27196e-07
6.6118e-06
3.02733e-08
3.39873e-06
8.9863e-09
7.95283e-08
-1.54349e-06
1.50725e-08
2.65897e-07
-3.81803e-06
3.88396e-08
5.13843e-07
-5.36686e-06
5.72174e-08
7.896e-07
-6.32891e-06
7.07675e-08
1.07231e-06
-6.84937e-06
7.96869e-08
1.35366e-06
-7.09203e-06
8.44664e-08
1.63092e-06
-7.1681e-06
8.5845e-08
1.90218e-06
-7.12864e-06
8.46417e-08
2.16496e-06
-6.99366e-06
8.15443e-08
2.41601e-06
-6.77016e-06
7.70298e-08
2.65146e-06
-6.45939e-06
7.13789e-08
2.86733e-06
-6.06132e-06
6.47371e-08
3.05998e-06
-5.57839e-06
5.72334e-08
3.22645e-06
-5.01778e-06
4.90541e-08
3.36454e-06
-4.39138e-06
4.04179e-08
3.47271e-06
-3.71436e-06
3.15756e-08
3.54988e-06
-3.00337e-06
2.28231e-08
3.5954e-06
-2.27506e-06
1.44989e-08
3.60906e-06
-1.54478e-06
6.95451e-09
3.59097e-06
-8.25554e-07
7.8297e-10
3.54273e-06
-1.27643e-07
-4.49439e-09
3.4659e-06
5.41465e-07
-7.443e-09
3.36224e-06
1.17868e-06
-7.62378e-09
3.23269e-06
1.78709e-06
-4.41259e-09
3.07613e-06
2.3776e-06
2.55382e-09
2.88842e-06
2.96987e-06
1.30826e-08
2.66077e-06
3.59296e-06
2.7502e-08
2.38186e-06
4.2841e-06
4.43366e-08
2.04235e-06
5.07971e-06
6.07374e-08
1.64358e-06
5.98744e-06
7.24145e-08
1.20754e-06
6.92644e-06
7.50188e-08
7.77838e-07
7.65106e-06
6.67989e-08
3.9517e-07
7.81944e-06
5.01252e-08
1.14449e-07
6.86179e-06
2.95192e-08
3.50263e-06
8.60743e-09
7.21339e-08
-1.6312e-06
1.55499e-08
2.46314e-07
-4.03245e-06
4.02347e-08
4.80874e-07
-5.66067e-06
5.92609e-08
7.42833e-07
-6.66407e-06
7.32074e-08
1.01189e-06
-7.20084e-06
8.24107e-08
1.2798e-06
-7.44744e-06
8.74943e-08
1.54363e-06
-7.52121e-06
8.9275e-08
1.80124e-06
-7.47485e-06
8.86001e-08
2.05005e-06
-7.32862e-06
8.61523e-08
2.28688e-06
-7.08937e-06
8.2393e-08
2.50813e-06
-6.7582e-06
7.75849e-08
2.71026e-06
-6.33529e-06
7.18561e-08
2.89023e-06
-5.82366e-06
6.53099e-08
3.04572e-06
-5.23134e-06
5.80807e-08
3.17507e-06
-4.57102e-06
5.03132e-08
3.27712e-06
-3.85855e-06
4.21756e-08
3.35099e-06
-3.11109e-06
3.38752e-08
3.39602e-06
-2.34572e-06
2.56622e-08
3.41179e-06
-1.57831e-06
1.77986e-08
3.39821e-06
-8.22561e-07
1.06146e-08
3.35576e-06
-8.97404e-08
4.57452e-09
3.28504e-06
6.11832e-07
3.72018e-10
3.18818e-06
1.27803e-06
-2.46992e-09
3.06556e-06
1.912e-06
-2.27345e-09
2.91599e-06
2.52588e-06
1.29685e-09
2.73587e-06
3.14184e-06
8.16107e-09
2.51732e-06
3.79235e-06
1.91553e-08
2.25028e-06
4.51768e-06
3.34533e-08
1.92663e-06
5.35443e-06
4.88685e-08
1.54843e-06
6.30402e-06
6.15029e-08
1.13687e-06
7.27101e-06
6.6763e-08
7.32248e-07
7.99334e-06
6.19031e-08
3.71899e-07
8.13113e-06
4.79471e-08
1.07907e-07
7.09583e-06
2.88088e-08
3.60018e-06
8.49425e-09
7.30988e-08
-1.71986e-06
1.55533e-08
2.4407e-07
-4.24366e-06
4.02187e-08
4.70509e-07
-5.94621e-06
5.9095e-08
7.20672e-07
-6.98708e-06
7.28454e-08
9.75654e-07
-7.53775e-06
8.19292e-08
1.22828e-06
-7.78711e-06
8.70448e-08
1.47608e-06
-7.85806e-06
8.9044e-08
1.71714e-06
-7.80468e-06
8.87753e-08
1.94901e-06
-7.64738e-06
8.68975e-08
2.16869e-06
-7.39288e-06
8.38471e-08
2.37288e-06
-7.04225e-06
7.9872e-08
2.55847e-06
-6.59595e-06
7.50936e-08
2.72295e-06
-6.05772e-06
6.96013e-08
2.86455e-06
-5.4364e-06
6.34907e-08
2.98211e-06
-4.74541e-06
5.68497e-08
3.07489e-06
-4.00108e-06
4.97725e-08
3.14232e-06
-3.22086e-06
4.23794e-08
3.18385e-06
-2.42205e-06
3.48296e-08
3.19898e-06
-1.62072e-06
2.73064e-08
3.18738e-06
-8.30989e-07
2.00599e-08
3.14894e-06
-6.47294e-08
1.34487e-08
3.08428e-06
6.68592e-07
7.91874e-09
2.99411e-06
1.36422e-06
3.99067e-09
2.87873e-06
2.0252e-06
2.19213e-09
2.73707e-06
2.66457e-06
2.98225e-09
2.56547e-06
3.30644e-06
7.02498e-09
2.35705e-06
3.98591e-06
1.48739e-08
2.10298e-06
4.7454e-06
2.63477e-08
1.79648e-06
5.62096e-06
3.99377e-08
1.44029e-06
6.60779e-06
5.23327e-08
1.05477e-06
7.59729e-06
5.90448e-08
6.77117e-07
8.31392e-06
5.66989e-08
3.41688e-07
8.42073e-06
4.51772e-08
9.80795e-08
7.3107e-06
2.76631e-08
3.68821e-06
8.25242e-09
6.83748e-08
-1.80452e-06
1.62781e-08
2.31075e-07
-4.44806e-06
4.16928e-08
4.47573e-07
-6.22356e-06
6.08452e-08
6.8664e-07
-7.30078e-06
7.46228e-08
9.29956e-07
-7.86475e-06
8.36783e-08
1.17065e-06
-8.11665e-06
8.88358e-08
1.40629e-06
-8.1847e-06
9.10001e-08
1.6349e-06
-8.12431e-06
9.10275e-08
1.85404e-06
-7.95609e-06
8.9566e-08
2.06085e-06
-7.68671e-06
8.70403e-08
2.2523e-06
-7.31738e-06
8.36931e-08
2.42573e-06
-6.849e-06
7.9644e-08
2.57911e-06
-6.28605e-06
7.49729e-08
2.71114e-06
-5.63815e-06
6.97521e-08
2.82107e-06
-4.91934e-06
6.40346e-08
2.90843e-06
-4.14627e-06
5.78664e-08
2.97278e-06
-3.33649e-06
5.13072e-08
3.01357e-06
-2.50725e-06
4.44466e-08
3.03012e-06
-1.67465e-06
3.74015e-08
3.02177e-06
-8.52968e-07
3.03511e-08
2.98809e-06
-5.45992e-08
2.35742e-08
2.92893e-06
7.10329e-07
1.74384e-08
2.84461e-06
1.43617e-06
1.2397e-08
2.73505e-06
2.1258e-06
8.97984e-09
2.59899e-06
2.79288e-06
7.77234e-09
2.43302e-06
3.46304e-06
9.39359e-09
2.23123e-06
4.1733e-06
1.44195e-08
1.98619e-06
4.96744e-06
2.30183e-08
1.69261e-06
5.88028e-06
3.42667e-08
1.35404e-06
6.9008e-06
4.55097e-08
9.90094e-07
7.90847e-06
5.26193e-08
6.3491e-07
8.61686e-06
5.19265e-08
3.19862e-07
8.69278e-06
4.24148e-08
9.17108e-08
7.51135e-06
2.64849e-08
3.77011e-06
8.06514e-09
6.84274e-08
-1.88958e-06
1.66168e-08
2.27663e-07
-4.64941e-06
4.21002e-08
4.36828e-07
-6.4937e-06
6.09723e-08
6.6564e-07
-7.60397e-06
7.43824e-08
8.96936e-07
-8.17922e-06
8.31716e-08
1.12469e-06
-8.43266e-06
8.82514e-08
1.34684e-06
-8.49738e-06
9.05396e-08
1.56156e-06
-8.42989e-06
9.08691e-08
1.76655e-06
-8.25093e-06
8.98544e-08
1.95913e-06
-7.96718e-06
8.78966e-08
2.13659e-06
-7.58005e-06
8.52295e-08
2.29665e-06
-7.09101e-06
8.19724e-08
2.43773e-06
-6.5053e-06
7.81959e-08
2.55898e-06
-5.83333e-06
7.39501e-08
2.66007e-06
-5.08966e-06
6.92567e-08
2.74084e-06
-4.29113e-06
6.41179e-08
2.80106e-06
-3.45522e-06
5.85375e-08
2.84025e-06
-2.59896e-06
5.25412e-08
2.85764e-06
-1.73819e-06
4.61837e-08
2.85227e-06
-8.87161e-07
3.9582e-08
2.8232e-06
-5.84569e-08
3.29496e-08
2.76987e-06
7.37081e-07
2.6596e-08
2.69194e-06
1.49319e-06
2.09251e-08
2.58889e-06
2.21244e-06
1.64291e-08
2.45923e-06
2.90888e-06
1.368e-08
2.29976e-06
3.60922e-06
1.33111e-08
2.10527e-06
4.35188e-06
1.59416e-08
1.86959e-06
5.18123e-06
2.19179e-08
1.58886e-06
6.13029e-06
3.07408e-08
1.26753e-06
7.18175e-06
4.0368e-08
9.24604e-07
8.20413e-06
4.71709e-08
5.91451e-07
8.90229e-06
4.74594e-08
2.96731e-07
8.9474e-06
3.95652e-08
8.45445e-08
7.69744e-06
2.51378e-08
3.84517e-06
7.80722e-09
6.48433e-08
-1.97172e-06
1.72756e-08
2.17255e-07
-4.845e-06
4.31693e-08
4.17743e-07
-6.75616e-06
6.19677e-08
6.36604e-07
-7.89796e-06
7.51252e-08
8.57318e-07
-8.48362e-06
8.36805e-08
1.07423e-06
-8.73822e-06
8.86461e-08
1.28534e-06
-8.79947e-06
9.09702e-08
1.48885e-06
-8.72487e-06
9.14801e-08
1.6825e-06
-8.53534e-06
9.07722e-08
1.86378e-06
-8.23767e-06
8.9234e-08
2.03024e-06
-7.83359e-06
8.70951e-08
2.17998e-06
-7.3252e-06
8.44751e-08
2.31181e-06
-6.71856e-06
8.14405e-08
2.42526e-06
-6.02479e-06
7.80275e-08
2.52029e-06
-5.2589e-06
7.42362e-08
2.59698e-06
-4.43782e-06
7.00395e-08
2.6552e-06
-3.57882e-06
6.53989e-08
2.69449e-06
-2.6985e-06
6.02853e-08
2.71393e-06
-1.81229e-06
5.46923e-08
2.71227e-06
-9.34146e-07
4.8669e-08
2.68816e-06
-7.66807e-08
4.23574e-08
2.64041e-06
7.48844e-07
3.60028e-08
2.56818e-06
1.53548e-06
2.99593e-08
2.47053e-06
2.28541e-06
2.46822e-08
2.34584e-06
3.01288e-06
2.07154e-08
2.19113e-06
3.74529e-06
1.86791e-08
2.0019e-06
4.52192e-06
1.92154e-08
1.77319e-06
5.38721e-06
2.27838e-08
1.50254e-06
6.3718e-06
2.91867e-08
1.19535e-06
7.45205e-06
3.69064e-08
8.70203e-07
8.48636e-06
4.28642e-08
5.55898e-07
9.17283e-06
4.35479e-08
2.78454e-07
9.18749e-06
3.68698e-08
7.92594e-08
7.87193e-06
2.38008e-08
3.91521e-06
7.56705e-09
6.41889e-08
-2.05354e-06
1.76224e-08
2.12825e-07
-5.03708e-06
4.34412e-08
4.06514e-07
-7.01164e-06
6.17904e-08
6.16372e-07
-8.18225e-06
7.44378e-08
8.26822e-07
-8.77669e-06
8.26215e-08
1.03284e-06
-9.03167e-06
8.74291e-08
1.23269e-06
-9.08912e-06
8.98019e-08
1.42466e-06
-9.00737e-06
9.05295e-08
1.60665e-06
-8.80749e-06
9.01725e-08
1.77631e-06
-8.49641e-06
8.90967e-08
1.93148e-06
-8.07627e-06
8.75252e-08
2.07058e-06
-7.54986e-06
8.55776e-08
2.1928e-06
-6.92407e-06
8.3315e-08
2.29801e-06
-6.21072e-06
8.07613e-08
2.38647e-06
-5.42522e-06
7.78981e-08
2.45852e-06
-4.58452e-06
7.46725e-08
2.51426e-06
-3.70554e-06
7.10116e-08
2.55327e-06
-2.80433e-06
6.68425e-08
2.57456e-06
-1.89567e-06
6.21066e-08
2.57663e-06
-9.92986e-07
5.6792e-08
2.55767e-06
-1.08676e-07
5.09718e-08
2.51594e-06
7.45762e-07
4.48266e-08
2.44997e-06
1.56281e-06
3.86586e-08
2.35833e-06
2.34418e-06
3.28853e-08
2.23916e-06
3.10405e-06
2.80216e-08
2.08961e-06
3.87021e-06
2.46624e-08
1.90581e-06
4.68233e-06
2.34451e-08
1.68384e-06
5.58436e-06
2.48933e-08
1.42257e-06
6.60411e-06
2.90253e-08
1.12838e-06
7.71154e-06
3.47538e-08
8.19545e-07
8.75564e-06
3.9541e-08
5.22607e-07
9.42941e-06
4.01813e-08
2.61201e-07
9.41409e-06
3.4369e-08
7.41694e-08
8.03558e-06
2.24999e-08
3.98043e-06
7.33513e-09
6.14553e-08
-2.1331e-06
1.8088e-08
2.04504e-07
-5.22409e-06
4.3947e-08
3.90798e-07
-7.25986e-06
6.192e-08
5.92029e-07
-8.45758e-06
7.40972e-08
7.93261e-07
-9.05983e-06
8.19051e-08
9.89832e-07
-9.31474e-06
8.65039e-08
1.1801e-06
-9.36822e-06
8.88405e-08
1.36239e-06
-9.27934e-06
8.96833e-08
1.53466e-06
-9.06931e-06
8.95686e-08
1.69473e-06
-8.74531e-06
8.88464e-08
1.84068e-06
-8.30994e-06
8.77356e-08
1.97123e-06
-7.76673e-06
8.63557e-08
2.08584e-06
-7.12342e-06
8.47647e-08
2.18466e-06
-6.39249e-06
8.2978e-08
2.26819e-06
-5.58969e-06
8.09653e-08
2.33697e-06
-4.73193e-06
7.86558e-08
2.39124e-06
-3.83573e-06
7.59496e-08
2.43066e-06
-2.91645e-06
7.27348e-08
2.45418e-06
-1.98806e-06
6.89038e-08
2.46008e-06
-1.06325e-06
6.43835e-08
2.44616e-06
-1.5392e-07
5.91753e-08
2.41013e-06
7.28427e-07
5.33881e-08
2.3499e-06
1.57579e-06
4.72655e-08
2.2636e-06
2.38931e-06
4.11858e-08
2.14915e-06
3.1829e-06
3.56375e-08
2.00382e-06
3.98438e-06
3.11941e-08
1.8243e-06
4.83343e-06
2.84783e-08
1.60767e-06
5.77302e-06
2.80445e-08
1.35406e-06
6.82774e-06
3.0063e-08
1.07078e-06
7.96109e-06
3.37938e-08
7.75955e-07
9.01327e-06
3.71993e-08
4.94108e-07
9.67365e-06
3.74505e-08
2.46664e-07
9.62893e-06
3.21871e-08
7.00269e-08
8.19002e-06
2.13405e-08
4.0417e-06
7.16209e-09
6.04607e-08
-2.21188e-06
1.83021e-08
1.99856e-07
-5.40734e-06
4.38361e-08
3.80153e-07
-7.50132e-06
6.11653e-08
5.73714e-07
-8.72384e-06
7.26992e-08
7.66369e-07
-9.33254e-06
8.00526e-08
9.53937e-07
-9.58675e-06
8.44353e-08
1.13495e-06
-9.636e-06
8.67639e-08
1.30782e-06
-9.53996e-06
8.77592e-08
1.47062e-06
-9.32002e-06
8.79204e-08
1.62133e-06
-8.98358e-06
8.75776e-08
1.75827e-06
-8.5338e-06
8.69442e-08
1.8804e-06
-7.97497e-06
8.61394e-08
1.98743e-06
-7.31565e-06
8.52178e-08
2.07977e-06
-6.56898e-06
8.41874e-08
2.15816e-06
-5.75106e-06
8.30087e-08
2.22338e-06
-4.87871e-06
8.15979e-08
2.27585e-06
-3.96801e-06
7.9837e-08
2.31537e-06
-3.03353e-06
7.75864e-08
2.3409e-06
-2.08827e-06
7.46995e-08
2.35056e-06
-1.14394e-06
7.10501e-08
2.34178e-06
-2.11694e-07
6.65714e-08
2.31168e-06
6.9725e-07
6.12966e-08
2.25753e-06
1.57455e-06
5.54015e-08
2.17691e-06
2.42073e-06
4.92156e-08
2.06745e-06
3.24919e-06
4.31979e-08
1.92648e-06
4.08749e-06
3.79036e-08
1.75116e-06
4.97486e-06
3.39441e-08
1.53949e-06
5.95288e-06
3.18877e-08
1.29275e-06
7.04257e-06
3.20043e-08
1.01918e-06
8.20093e-06
3.38222e-08
7.36842e-07
9.25989e-06
3.57528e-08
4.68507e-07
9.90649e-06
3.53738e-08
2.33619e-07
9.83303e-06
3.03949e-08
6.63076e-08
8.3361e-06
2.0396e-08
4.09935e-06
7.08283e-09
5.84436e-08
-2.28887e-06
1.8534e-08
1.93453e-07
-5.5861e-06
4.3743e-08
3.6773e-07
-7.73603e-06
6.04279e-08
5.54136e-07
-8.98157e-06
7.13158e-08
7.39079e-07
-9.59568e-06
7.81951e-08
9.18712e-07
-9.8487e-06
8.23157e-08
1.09166e-06
-9.89352e-06
8.45702e-08
1.2564e-06
-9.79033e-06
8.56423e-08
1.41107e-06
-9.56068e-06
8.60015e-08
1.55382e-06
-9.21227e-06
8.59608e-08
1.68312e-06
-8.74881e-06
8.57287e-08
1.79813e-06
-8.17539e-06
8.54244e-08
1.8988e-06
-7.50138e-06
8.51002e-08
1.98569e-06
-6.7406e-06
8.47595e-08
2.05974e-06
-5.90944e-06
8.43563e-08
2.12192e-06
-5.02466e-06
8.37979e-08
2.17285e-06
-4.10186e-06
8.29518e-08
2.21246e-06
-3.15477e-06
8.16559e-08
2.23978e-06
-2.19529e-06
7.97301e-08
2.25283e-06
-1.23397e-06
7.69997e-08
2.24876e-06
-2.80935e-07
7.33323e-08
2.22416e-06
6.53174e-07
6.8684e-08
2.1757e-06
1.55988e-06
6.31555e-08
2.1004e-06
2.43903e-06
5.70184e-08
1.99556e-06
3.30336e-06
5.06966e-08
1.85856e-06
4.17981e-06
4.47268e-08
1.68697e-06
5.1068e-06
3.97118e-08
1.47961e-06
6.12409e-06
3.62336e-08
1.23881e-06
7.24883e-06
3.46431e-08
9.73687e-07
8.43148e-06
3.46844e-08
7.02299e-07
9.49618e-06
3.51381e-08
4.45883e-07
1.01288e-05
3.39724e-08
2.22141e-07
1.00273e-05
2.90617e-08
6.3074e-08
8.47461e-06
1.97428e-08
4.15372e-06
7.13354e-09
5.73973e-08
-2.36484e-06
1.85603e-08
1.89176e-07
-5.76104e-06
4.31481e-08
3.58415e-07
-7.96426e-06
5.8979e-08
5.38505e-07
-9.23075e-06
6.90962e-08
7.16444e-07
-9.84909e-06
7.5458e-08
8.88751e-07
-1.01003e-05
7.93289e-08
1.05419e-06
-1.01405e-05
8.15439e-08
1.21129e-06
-1.00302e-05
8.27283e-08
1.35832e-06
-9.79101e-06
8.33131e-08
1.49355e-06
-9.43106e-06
8.35911e-08
1.61561e-06
-8.95461e-06
8.37651e-08
1.72383e-06
-8.36754e-06
8.39541e-08
1.81832e-06
-7.68005e-06
8.42089e-08
1.89983e-06
-6.90661e-06
8.45295e-08
1.9695e-06
-6.06395e-06
8.48668e-08
2.0285e-06
-5.16875e-06
8.51239e-08
2.07764e-06
-4.23613e-06
8.5161e-08
2.11704e-06
-3.27895e-06
8.48027e-08
2.14583e-06
-2.3079e-06
8.38453e-08
2.162e-06
-1.33219e-06
8.20739e-08
2.16245e-06
-3.60661e-07
7.9296e-08
2.14329e-06
5.96959e-07
7.53897e-08
2.10053e-06
1.53227e-06
7.03732e-08
2.03062e-06
2.44451e-06
6.44494e-08
1.93047e-06
3.34554e-06
5.79977e-08
1.79742e-06
4.26137e-06
5.15319e-08
1.62942e-06
5.22922e-06
4.56473e-08
1.42603e-06
6.28663e-06
4.09378e-08
1.19057e-06
7.44659e-06
3.78193e-08
9.32961e-07
8.65298e-06
3.62148e-08
6.71319e-07
9.72265e-06
3.52297e-08
4.2554e-07
1.03413e-05
3.31907e-08
2.11798e-07
1.02126e-05
2.81625e-08
6.01434e-08
8.60614e-06
1.93138e-08
4.20509e-06
7.22082e-09
5.59502e-08
-2.43935e-06
1.85422e-08
1.84398e-07
-5.93193e-06
4.24387e-08
3.48944e-07
-8.18618e-06
5.73745e-08
5.23353e-07
-9.47186e-06
6.66974e-08
6.95086e-07
-1.00933e-05
7.25163e-08
8.60937e-07
-1.03423e-05
7.60982e-08
1.01978e-06
-1.03776e-05
7.8224e-08
1.17023e-06
-1.02601e-05
7.94674e-08
1.31062e-06
-1.00116e-05
8.02242e-08
1.43931e-06
-9.64049e-06
8.07681e-08
1.55505e-06
-9.15162e-06
8.12958e-08
1.65728e-06
-8.55167e-06
8.19256e-08
1.74626e-06
-7.85171e-06
8.27075e-08
1.82288e-06
-7.06684e-06
8.36391e-08
1.88844e-06
-6.21414e-06
8.46693e-08
1.94428e-06
-5.31026e-06
8.56984e-08
1.99143e-06
-4.36984e-06
8.65825e-08
2.03021e-06
-3.40484e-06
8.71374e-08
2.05991e-06
-2.42472e-06
8.71417e-08
2.07854e-06
-1.43716e-06
8.63483e-08
2.08287e-06
-4.49489e-07
8.45111e-08
2.06862e-06
5.29793e-07
8.14341e-08
2.03119e-06
1.49267e-06
7.70491e-08
1.96643e-06
2.43781e-06
7.14813e-08
1.87084e-06
3.3761e-06
6.50555e-08
1.74166e-06
4.33234e-06
5.82568e-08
1.57712e-06
5.34216e-06
5.16721e-08
1.37747e-06
6.44048e-06
4.59081e-08
1.14688e-06
7.63586e-06
4.14367e-08
8.96056e-07
8.8656e-06
3.8329e-08
6.43176e-07
9.93962e-06
3.59654e-08
4.06985e-07
1.05444e-05
3.29917e-08
2.02322e-07
1.03892e-05
2.76809e-08
5.74474e-08
8.7311e-06
1.91038e-08
4.25362e-06
7.36402e-09
5.50113e-08
-2.51272e-06
1.83449e-08
1.80788e-07
-6.09902e-06
4.12957e-08
3.41325e-07
-8.40189e-06
5.51669e-08
5.10776e-07
-9.70492e-06
6.36044e-08
6.77007e-07
-1.03284e-05
6.88565e-08
8.37034e-07
-1.05745e-05
7.21643e-08
9.89874e-07
-1.06046e-05
7.42269e-08
1.13428e-06
-1.048e-05
7.55516e-08
1.26863e-06
-1.02224e-05
7.64943e-08
1.39136e-06
-9.84051e-06
7.73074e-08
1.50128e-06
-9.33969e-06
7.81808e-08
1.59795e-06
-8.72754e-06
7.92332e-08
1.68172e-06
-8.01596e-06
8.05141e-08
1.75363e-06
-7.22074e-06
8.20204e-08
1.81513e-06
-6.35932e-06
8.37012e-08
1.86776e-06
-5.44831e-06
8.54577e-08
1.91272e-06
-4.50192e-06
8.71465e-08
1.95055e-06
-3.53122e-06
8.85804e-08
1.98071e-06
-2.54438e-06
8.95282e-08
2.00133e-06
-1.54748e-06
8.97192e-08
2.00909e-06
-5.46095e-07
8.88628e-08
1.99936e-06
4.52841e-07
8.6694e-08
1.967e-06
1.44198e-06
8.30569e-08
1.90726e-06
2.41958e-06
7.79892e-08
1.81617e-06
3.39546e-06
7.17493e-08
1.69082e-06
4.39296e-06
6.47844e-08
1.52966e-06
5.44572e-06
5.76703e-08
1.33354e-06
6.58568e-06
5.10269e-08
1.10744e-06
7.81671e-06
4.53771e-08
8.62753e-07
9.06949e-06
4.09188e-08
6.17729e-07
1.01475e-05
3.72636e-08
3.90207e-07
1.07385e-05
3.3335e-08
1.93736e-07
1.05577e-05
2.76148e-08
5.4992e-08
8.84991e-06
1.91384e-08
4.29948e-06
7.57993e-09
5.40029e-08
-2.5848e-06
1.80625e-08
1.773e-07
-6.26229e-06
3.99622e-08
3.3428e-07
-8.6116e-06
5.2716e-08
4.99432e-07
-9.93032e-06
6.02438e-08