/*--------------------------------*- C++ -*----------------------------------*\
| =========                 |                                                 |
| \\      /  F ield         | OpenFOAM: The Open Source CFD Toolbox           |
|  \\    /   O peration     | Version:  v2006                                 |
|   \\  /    A nd           | Website:  www.openfoam.com                      |
|    \\/     M anipulation  |                                                 |
\*---------------------------------------------------------------------------*/
FoamFile
{
    version     2.0;
    format      ascii;
    class       volScalarField;
    location    "63";
    object      T;
}
// * * * * * * * * * * * * * * * * * * * * * * * * * * * * * * * * * * * * * //

dimensions      [0 0 0 1 0 0 0];


internalField   nonuniform List<scalar> 
78750
(
300.064
300.183
300.287
300.371
300.438
300.493
300.538
300.576
300.609
300.637
300.662
300.684
300.703
300.718
300.732
300.742
300.75
300.755
300.758
300.758
300.756
300.75
300.743
300.733
300.721
300.707
300.691
300.674
300.658
300.648
300.664
300.771
301.086
301.727
302.648
300.065
300.185
300.29
300.386
300.472
300.55
300.618
300.679
300.733
300.781
300.824
300.862
300.896
300.925
300.949
300.969
300.984
300.994
301
301
300.994
300.982
300.965
300.942
300.914
300.883
300.849
300.817
300.792
300.79
300.845
301.024
301.419
302.086
302.993
300.063
300.183
300.293
300.394
300.487
300.571
300.645
300.711
300.768
300.819
300.866
300.907
300.945
300.978
301.007
301.032
301.053
301.07
301.082
301.09
301.092
301.088
301.076
301.057
301.031
300.999
300.964
300.933
300.916
300.934
301.029
301.268
301.712
302.4
303.315
300.075
300.221
300.355
300.477
300.586
300.679
300.759
300.826
300.885
300.936
300.981
301.021
301.056
301.086
301.112
301.134
301.152
301.166
301.176
301.181
301.181
301.177
301.166
301.148
301.124
301.094
301.063
301.036
301.027
301.063
301.188
301.468
301.941
302.641
303.567
300.087
300.253
300.406
300.543
300.659
300.755
300.835
300.902
300.961
301.013
301.059
301.1
301.135
301.166
301.192
301.215
301.233
301.246
301.255
301.259
301.257
301.251
301.239
301.221
301.198
301.171
301.144
301.127
301.134
301.194
301.355
301.673
302.168
302.874
303.808
300.095
300.278
300.446
300.592
300.714
300.813
300.893
300.961
301.021
301.073
301.119
301.16
301.196
301.228
301.255
301.277
301.294
301.305
301.313
301.315
301.313
301.306
301.294
301.278
301.257
301.235
301.214
301.205
301.226
301.306
301.493
301.837
302.347
303.06
304
300.103
300.301
300.481
300.637
300.764
300.866
300.947
301.017
301.079
301.133
301.181
301.224
301.262
301.295
301.323
301.344
301.36
301.37
301.374
301.373
301.367
301.357
301.343
301.326
301.307
301.288
301.275
301.277
301.314
301.417
301.632
302
302.523
303.242
304.184
300.109
300.319
300.509
300.672
300.803
300.907
300.99
301.061
301.124
301.179
301.229
301.274
301.314
301.348
301.377
301.398
301.414
301.422
301.425
301.422
301.415
301.403
301.388
301.371
301.352
301.336
301.329
301.34
301.392
301.514
301.752
302.138
302.672
303.399
304.343
300.115
300.334
300.533
300.702
300.838
300.944
301.03
301.104
301.169
301.227
301.279
301.327
301.369
301.404
301.433
301.455
301.469
301.476
301.477
301.472
301.462
301.447
301.43
301.411
301.394
301.381
301.379
301.401
301.467
301.609
301.868
302.27
302.815
303.549
304.494
300.12
300.349
300.555
300.731
300.87
300.979
301.067
301.142
301.209
301.269
301.323
301.373
301.416
301.453
301.483
301.506
301.52
301.527
301.527
301.52
301.508
301.491
301.472
301.452
301.434
301.423
301.426
301.456
301.535
301.694
301.971
302.388
302.941
303.682
304.628
300.124
300.361
300.575
300.756
300.899
301.01
301.101
301.178
301.247
301.31
301.367
301.418
301.463
301.502
301.533
301.556
301.57
301.576
301.575
301.567
301.553
301.534
301.513
301.492
301.474
301.465
301.472
301.51
301.601
301.776
302.07
302.498
303.06
303.808
304.754
300.128
300.374
300.595
300.781
300.928
301.041
301.134
301.213
301.284
301.349
301.407
301.461
301.508
301.547
301.579
301.603
301.618
301.624
301.622
301.612
301.597
301.577
301.555
301.533
301.515
301.507
301.518
301.563
301.664
301.852
302.16
302.599
303.168
303.922
304.869
300.132
300.385
300.612
300.804
300.954
301.07
301.164
301.246
301.319
301.386
301.447
301.502
301.55
301.592
301.625
301.649
301.664
301.67
301.667
301.657
301.641
301.619
301.596
301.573
301.555
301.549
301.563
301.614
301.725
301.926
302.247
302.694
303.27
304.029
304.976
300.136
300.397
300.63
300.827
300.98
301.098
301.195
301.278
301.353
301.422
301.484
301.541
301.591
301.634
301.668
301.693
301.708
301.714
301.712
301.701
301.683
301.661
301.636
301.613
301.595
301.59
301.608
301.665
301.785
301.997
302.328
302.783
303.364
304.128
305.075
300.14
300.408
300.647
300.848
301.004
301.125
301.223
301.309
301.386
301.456
301.521
301.579
301.631
301.675
301.71
301.736
301.751
301.758
301.755
301.744
301.726
301.702
301.677
301.653
301.636
301.632
301.653
301.716
301.843
302.065
302.406
302.867
303.452
304.221
305.168
300.144
300.419
300.664
300.869
301.028
301.151
301.251
301.339
301.417
301.49
301.556
301.616
301.669
301.714
301.75
301.777
301.793
301.8
301.797
301.786
301.767
301.744
301.718
301.693
301.676
301.674
301.698
301.766
301.9
302.131
302.481
302.946
303.536
304.309
305.256
300.148
300.429
300.68
300.889
301.051
301.176
301.278
301.367
301.448
301.522
301.59
301.652
301.706
301.753
301.79
301.817
301.834
301.841
301.839
301.827
301.809
301.784
301.758
301.734
301.717
301.716
301.743
301.816
301.957
302.195
302.552
303.022
303.615
304.392
305.339
300.151
300.439
300.696
300.909
301.074
301.2
301.304
301.395
301.478
301.553
301.623
301.686
301.742
301.79
301.828
301.856
301.874
301.882
301.88
301.868
301.849
301.825
301.799
301.774
301.758
301.759
301.788
301.865
302.013
302.258
302.622
303.095
303.691
304.471
305.418
300.155
300.449
300.711
300.928
301.095
301.224
301.329
301.422
301.506
301.584
301.655
301.72
301.777
301.826
301.865
301.894
301.913
301.921
301.92
301.909
301.89
301.866
301.839
301.815
301.799
301.801
301.834
301.915
302.068
302.32
302.69
303.166
303.764
304.547
305.495
300.158
300.459
300.726
300.947
301.117
301.247
301.354
301.449
301.535
301.614
301.687
301.753
301.811
301.861
301.901
301.931
301.951
301.96
301.959
301.949
301.93
301.906
301.88
301.855
301.841
301.844
301.879
301.964
302.123
302.381
302.756
303.234
303.834
304.62
305.568
300.161
300.468
300.741
300.965
301.137
301.269
301.378
301.475
301.562
301.643
301.717
301.785
301.845
301.896
301.937
301.968
301.988
301.998
301.998
301.988
301.97
301.947
301.92
301.896
301.882
301.887
301.925
302.014
302.177
302.441
302.821
303.301
303.902
304.691
305.64
300.165
300.478
300.755
300.984
301.158
301.292
301.402
301.5
301.589
301.671
301.747
301.816
301.877
301.929
301.971
302.003
302.025
302.036
302.036
302.028
302.01
301.987
301.961
301.938
301.924
301.93
301.971
302.063
302.232
302.501
302.885
303.366
303.969
304.76
305.709
300.168
300.487
300.769
301.001
301.178
301.313
301.426
301.525
301.616
301.699
301.777
301.847
301.909
301.962
302.005
302.038
302.061
302.073
302.074
302.066
302.05
302.027
302.002
301.979
301.966
301.974
302.016
302.113
302.286
302.56
302.947
303.43
304.034
304.827
305.776
300.171
300.496
300.784
301.019
301.198
301.335
301.448
301.549
301.642
301.727
301.806
301.877
301.941
301.995
302.039
302.073
302.096
302.109
302.112
302.105
302.089
302.067
302.042
302.02
302.009
302.018
302.062
302.162
302.339
302.618
303.009
303.493
304.097
304.892
305.841
300.174
300.505
300.798
301.036
301.217
301.356
301.471
301.574
301.667
301.754
301.834
301.907
301.971
302.027
302.072
302.107
302.131
302.145
302.149
302.143
302.128
302.107
302.083
302.062
302.051
302.062
302.109
302.211
302.393
302.676
303.07
303.554
304.159
304.955
305.905
300.178
300.514
300.811
301.054
301.236
301.376
301.493
301.598
301.693
301.781
301.863
301.937
302.002
302.058
302.104
302.14
302.165
302.18
302.185
302.18
302.167
302.147
302.124
302.104
302.094
302.106
302.155
302.261
302.446
302.733
303.13
303.614
304.219
305.017
305.967
300.181
300.523
300.825
301.071
301.255
301.397
301.516
301.621
301.718
301.808
301.891
301.966
302.032
302.089
302.136
302.173
302.199
302.215
302.221
302.217
302.205
302.187
302.165
302.145
302.136
302.15
302.201
302.31
302.499
302.79
303.189
303.674
304.279
305.078
306.028
300.184
300.532
300.839
301.087
301.274
301.417
301.538
301.645
301.743
301.834
301.918
301.995
302.062
302.12
302.168
302.206
302.233
302.249
302.256
302.254
302.243
302.226
302.205
302.187
302.179
302.194
302.247
302.359
302.551
302.846
303.247
303.732
304.337
305.137
306.087
300.187
300.541
300.852
301.104
301.293
301.438
301.559
301.668
301.768
301.861
301.946
302.024
302.092
302.151
302.2
302.238
302.266
302.283
302.292
302.29
302.281
302.265
302.246
302.229
302.222
302.238
302.293
302.408
302.604
302.901
303.304
303.789
304.394
305.195
306.145
300.19
300.55
300.866
301.121
301.311
301.458
301.581
301.692
301.793
301.887
301.974
302.052
302.122
302.182
302.231
302.27
302.299
302.317
302.326
302.327
302.318
302.304
302.286
302.27
302.265
302.283
302.34
302.456
302.655
302.956
303.361
303.845
304.45
305.252
306.202
300.193
300.559
300.879
301.137
301.33
301.478
301.603
301.715
301.818
301.913
302.001
302.081
302.151
302.212
302.262
302.302
302.331
302.351
302.361
302.362
302.356
302.343
302.326
302.312
302.308
302.327
302.386
302.505
302.707
303.01
303.417
303.901
304.505
305.307
306.258
300.196
300.567
300.893
301.154
301.348
301.498
301.625
301.738
301.843
301.939
302.029
302.11
302.181
302.242
302.293
302.333
302.364
302.384
302.395
302.398
302.392
302.381
302.366
302.353
302.351
302.371
302.432
302.554
302.758
303.064
303.472
303.956
304.559
305.362
306.314
300.199
300.576
300.906
301.17
301.367
301.518
301.646
301.761
301.867
301.966
302.056
302.138
302.21
302.272
302.324
302.365
302.396
302.417
302.429
302.433
302.429
302.419
302.406
302.394
302.394
302.416
302.479
302.602
302.809
303.118
303.527
304.01
304.613
305.417
306.369
300.202
300.585
300.919
301.187
301.385
301.538
301.668
301.784
301.892
301.992
302.084
302.167
302.24
302.303
302.355
302.396
302.428
302.45
302.463
302.468
302.465
302.457
302.445
302.436
302.437
302.461
302.525
302.651
302.86
303.171
303.581
304.064
304.666
305.471
306.423
300.205
300.593
300.933
301.203
301.403
301.558
301.689
301.808
301.917
302.018
302.111
302.195
302.269
302.333
302.386
302.428
302.46
302.483
302.496
302.502
302.501
302.494
302.484
302.477
302.479
302.505
302.572
302.699
302.911
303.224
303.635
304.117
304.719
305.524
306.477
300.208
300.602
300.946
301.219
301.421
301.578
301.711
301.831
301.942
302.044
302.139
302.224
302.299
302.363
302.416
302.459
302.492
302.515
302.53
302.537
302.537
302.532
302.524
302.518
302.522
302.55
302.618
302.748
302.963
303.278
303.69
304.171
304.772
305.578
306.532
300.212
300.611
300.959
301.236
301.44
301.598
301.732
301.854
301.967
302.071
302.166
302.252
302.328
302.393
302.447
302.49
302.524
302.548
302.563
302.571
302.573
302.569
302.562
302.558
302.565
302.595
302.665
302.798
303.014
303.331
303.744
304.225
304.826
305.632
306.586
300.215
300.62
300.972
301.252
301.458
301.618
301.754
301.877
301.991
302.097
302.194
302.281
302.358
302.423
302.478
302.522
302.555
302.58
302.596
302.605
302.608
302.606
302.601
302.599
302.608
302.64
302.713
302.847
303.067
303.385
303.799
304.279
304.879
305.686
306.64
300.218
300.628
300.986
301.268
301.476
301.637
301.775
301.901
302.016
302.124
302.222
302.31
302.387
302.454
302.509
302.553
302.587
302.612
302.629
302.639
302.643
302.642
302.64
302.64
302.651
302.685
302.76
302.898
303.119
303.44
303.854
304.333
304.933
305.74
306.695
300.221
300.637
300.999
301.285
301.494
301.657
301.797
301.924
302.041
302.15
302.25
302.339
302.417
302.484
302.539
302.584
302.619
302.645
302.662
302.673
302.678
302.679
302.678
302.68
302.694
302.731
302.808
302.948
303.172
303.495
303.909
304.388
304.987
305.794
306.75
300.224
300.646
301.013
301.301
301.513
301.677
301.819
301.947
302.067
302.177
302.277
302.368
302.447
302.514
302.57
302.615
302.65
302.677
302.695
302.707
302.713
302.715
302.716
302.721
302.737
302.776
302.856
302.999
303.226
303.551
303.965
304.443
305.041
305.849
306.806
300.227
300.655
301.026
301.317
301.531
301.697
301.84
301.971
302.092
302.203
302.306
302.397
302.477
302.545
302.601
302.646
302.682
302.709
302.728
302.741
302.748
302.752
302.755
302.761
302.779
302.822
302.905
303.05
303.28
303.607
304.022
304.498
305.096
305.904
306.861
300.23
300.664
301.039
301.334
301.549
301.717
301.862
301.994
302.117
302.23
302.334
302.426
302.506
302.575
302.632
302.678
302.714
302.741
302.761
302.774
302.783
302.788
302.793
302.801
302.822
302.867
302.954
303.102
303.334
303.663
304.079
304.554
305.151
305.96
306.917
300.233
300.672
301.053
301.35
301.567
301.737
301.884
302.018
302.142
302.257
302.362
302.455
302.536
302.605
302.662
302.709
302.745
302.773
302.793
302.807
302.817
302.824
302.83
302.842
302.865
302.913
303.003
303.155
303.39
303.72
304.136
304.61
305.206
306.015
306.972
300.236
300.681
301.066
301.366
301.585
301.757
301.906
302.042
302.168
302.284
302.39
302.484
302.566
302.636
302.693
302.74
302.776
302.805
302.826
302.841
302.852
302.86
302.868
302.882
302.908
302.959
303.052
303.207
303.445
303.778
304.194
304.667
305.262
306.071
307.028
300.239
300.69
301.08
301.383
301.604
301.777
301.928
302.065
302.193
302.311
302.418
302.514
302.596
302.666
302.724
302.771
302.808
302.836
302.858
302.874
302.886
302.895
302.906
302.922
302.951
303.006
303.102
303.26
303.501
303.836
304.252
304.724
305.318
306.126
307.084
300.243
300.699
301.093
301.399
301.622
301.797
301.949
302.089
302.219
302.338
302.447
302.543
302.626
302.697
302.755
302.802
302.839
302.868
302.89
302.907
302.92
302.931
302.943
302.962
302.994
303.052
303.152
303.313
303.557
303.894
304.31
304.78
305.373
306.182
307.139
300.246
300.708
301.106
301.415
301.64
301.817
301.971
302.113
302.245
302.366
302.476
302.573
302.657
302.727
302.786
302.833
302.871
302.9
302.923
302.94
302.954
302.967
302.981
303.001
303.036
303.098
303.201
303.367
303.614
303.952
304.368
304.837
305.429
306.237
307.194
300.249
300.716
301.12
301.431
301.658
301.837
301.993
302.137
302.27
302.393
302.504
302.602
302.687
302.758
302.817
302.864
302.902
302.931
302.955
302.973
302.988
303.002
303.018
303.041
303.079
303.144
303.251
303.42
303.67
304.01
304.426
304.894
305.484
306.292
307.249
300.252
300.725
301.133
301.448
301.676
301.857
302.015
302.161
302.296
302.421
302.533
302.632
302.717
302.789
302.847
302.895
302.933
302.963
302.987
303.006
303.022
303.037
303.055
303.08
303.121
303.189
303.3
303.473
303.726
304.068
304.483
304.95
305.539
306.346
307.303
300.255
300.734
301.147
301.464
301.695
301.877
302.038
302.185
302.323
302.449
302.562
302.662
302.748
302.819
302.878
302.926
302.964
302.995
303.019
303.038
303.055
303.072
303.092
303.12
303.164
303.235
303.35
303.526
303.782
304.126
304.54
305.005
305.593
306.4
307.356
300.258
300.743
301.16
301.48
301.713
301.897
302.06
302.21
302.349
302.477
302.591
302.692
302.778
302.85
302.909
302.957
302.995
303.026
303.051
303.071
303.089
303.107
303.129
303.159
303.206
303.28
303.399
303.579
303.838
304.183
304.597
305.061
305.647
306.453
307.409
300.261
300.752
301.174
301.497
301.731
301.918
302.082
302.234
302.375
302.505
302.621
302.722
302.809
302.881
302.94
302.988
303.026
303.057
303.082
303.103
303.123
303.142
303.165
303.198
303.247
303.326
303.448
303.631
303.893
304.24
304.653
305.115
305.701
306.506
307.461
300.264
300.761
301.187
301.513
301.75
301.938
302.105
302.259
302.402
302.533
302.65
302.752
302.839
302.912
302.971
303.019
303.057
303.089
303.114
303.136
303.156
303.177
303.202
303.237
303.289
303.371
303.496
303.683
303.948
304.296
304.709
305.169
305.753
306.558
307.513
300.267
300.77
301.2
301.529
301.768
301.958
302.127
302.283
302.429
302.561
302.68
302.783
302.87
302.942
303.002
303.05
303.088
303.12
303.146
303.168
303.189
303.211
303.238
303.275
303.331
303.415
303.545
303.735
304.003
304.352
304.764
305.222
305.805
306.609
307.563
300.271
300.778
301.214
301.546
301.787
301.979
302.15
302.308
302.456
302.59
302.709
302.813
302.901
302.973
303.033
303.081
303.119
303.151
303.177
303.2
303.222
303.246
303.274
303.314
303.372
303.46
303.593
303.787
304.057
304.408
304.818
305.275
305.857
306.66
307.614
300.274
300.787
301.228
301.562
301.805
302
302.173
302.333
302.483
302.619
302.739
302.844
302.931
303.004
303.063
303.111
303.15
303.182
303.209
303.233
303.255
303.28
303.31
303.352
303.413
303.504
303.64
303.838
304.111
304.462
304.872
305.327
305.907
306.71
307.663
300.277
300.796
301.241
301.579
301.824
302.02
302.196
302.359
302.51
302.648
302.769
302.874
302.962
303.035
303.094
303.142
303.181
303.213
303.24
303.265
303.288
303.314
303.346
303.39
303.454
303.548
303.688
303.889
304.164
304.516
304.925
305.378
305.957
306.759
307.711
300.28
300.805
301.255
301.596
301.843
302.041
302.219
302.384
302.538
302.677
302.8
302.905
302.993
303.066
303.125
303.173
303.212
303.244
303.272
303.296
303.321
303.348
303.382
303.428
303.494
303.592
303.735
303.939
304.217
304.57
304.977
305.429
306.006
306.807
307.759
300.283
300.814
301.269
301.612
301.862
302.062
302.243
302.41
302.566
302.706
302.83
302.936
303.024
303.097
303.156
303.204
303.243
303.275
303.303
303.328
303.354
303.382
303.418
303.466
303.535
303.635
303.782
303.989
304.269
304.623
305.029
305.479
306.055
306.854
307.806
300.286
300.823
301.282
301.629
301.881
302.084
302.266
302.436
302.594
302.736
302.861
302.967
303.056
303.128
303.187
303.235
303.274
303.306
303.334
303.36
303.386
303.416
303.453
303.503
303.575
303.678
303.828
304.038
304.32
304.674
305.079
305.527
306.102
306.901
307.851
300.29
300.833
301.296
301.646
301.9
302.105
302.29
302.463
302.623
302.767
302.892
302.999
303.087
303.159
303.218
303.265
303.304
303.337
303.365
303.392
303.419
303.45
303.488
303.541
303.615
303.721
303.874
304.087
304.371
304.726
305.129
305.575
306.149
306.947
307.896
300.293
300.842
301.31
301.663
301.92
302.127
302.315
302.49
302.652
302.797
302.924
303.03
303.119
303.191
303.249
303.296
303.335
303.368
303.396
303.423
303.451
303.483
303.523
303.578
303.654
303.763
303.919
304.135
304.421
304.776
305.178
305.622
306.194
306.991
307.94
300.296
300.851
301.325
301.681
301.939
302.149
302.34
302.517
302.681
302.828
302.955
303.062
303.151
303.222
303.28
303.327
303.366
303.399
303.427
303.455
303.484
303.517
303.558
303.614
303.693
303.805
303.964
304.182
304.47
304.825
305.226
305.668
306.239
307.035
307.983
300.299
300.86
301.339
301.698
301.959
302.172
302.365
302.545
302.711
302.859
302.987
303.095
303.183
303.254
303.312
303.358
303.397
303.429
303.459
303.486
303.516
303.55
303.593
303.651
303.732
303.847
304.008
304.229
304.518
304.874
305.273
305.713
306.283
307.077
308.025
300.303
300.87
301.353
301.716
301.979
302.194
302.39
302.573
302.741
302.891
303.02
303.127
303.215
303.286
303.343
303.389
303.428
303.46
303.49
303.518
303.548
303.583
303.628
303.687
303.77
303.888
304.051
304.275
304.566
304.921
305.319
305.758
306.326
307.119
308.066
300.306
300.879
301.368
301.734
302
302.218
302.416
302.602
302.772
302.923
303.052
303.16
303.247
303.318
303.375
303.421
303.459
303.491
303.521
303.55
303.58
303.616
303.662
303.724
303.809
303.928
304.095
304.32
304.613
304.968
305.363
305.8
306.367
307.16
308.106
300.309
300.889
301.383
301.752
302.021
302.241
302.443
302.631
302.804
302.956
303.086
303.193
303.28
303.35
303.406
303.452
303.49
303.522
303.552
303.581
303.613
303.65
303.697
303.76
303.847
303.969
304.137
304.365
304.659
305.014
305.407
305.843
306.408
307.2
308.145
300.313
300.899
301.398
301.771
302.042
302.265
302.47
302.661
302.836
302.989
303.119
303.226
303.313
303.383
303.438
303.483
303.521
303.553
303.583
303.613
303.645
303.683
303.731
303.796
303.885
304.009
304.18
304.409
304.704
305.058
305.45
305.884
306.448
307.239
308.184
300.316
300.909
301.413
301.79
302.064
302.29
302.497
302.691
302.868
303.023
303.153
303.26
303.346
303.415
303.47
303.515
303.552
303.584
303.614
303.644
303.677
303.716
303.765
303.831
303.922
304.049
304.222
304.453
304.749
305.103
305.493
305.924
306.487
307.277
308.222
300.32
300.919
301.429
301.809
302.086
302.315
302.526
302.723
302.902
303.057
303.188
303.295
303.38
303.448
303.502
303.547
303.583
303.616
303.646
303.676
303.709
303.749
303.799
303.867
303.96
304.088
304.263
304.496
304.793
305.146
305.534
305.964
306.526
307.315
308.259
300.323
300.93
301.445
301.829
302.108
302.341
302.555
302.755
302.936
303.093
303.223
303.329
303.414
303.481
303.535
303.578
303.615
303.647
303.677
303.708
303.741
303.782
303.834
303.903
303.997
304.128
304.305
304.539
304.836
305.189
305.575
306.003
306.564
307.352
308.296
300.327
300.941
301.462
301.849
302.132
302.367
302.585
302.788
302.971
303.128
303.259
303.365
303.448
303.515
303.568
303.61
303.647
303.678
303.708
303.739
303.774
303.815
303.868
303.938
304.035
304.167
304.346
304.582
304.879
305.23
305.615
306.041
306.601
307.388
308.331
300.331
300.952
301.479
301.87
302.156
302.394
302.616
302.822
303.007
303.165
303.295
303.4
303.483
303.548
303.6
303.643
303.678
303.71
303.74
303.771
303.806
303.848
303.902
303.974
304.072
304.206
304.386
304.624
304.922
305.272
305.654
306.079
306.638
307.424
308.367
300.335
300.963
301.496
301.892
302.18
302.423
302.647
302.856
303.043
303.202
303.332
303.436
303.518
303.583
303.634
303.675
303.71
303.742
303.772
303.803
303.839
303.881
303.936
304.01
304.109
304.245
304.427
304.665
304.964
305.313
305.693
306.116
306.673
307.459
308.402
300.339
300.975
301.514
301.914
302.206
302.452
302.68
302.892
303.081
303.24
303.37
303.473
303.554
303.617
303.667
303.708
303.743
303.774
303.804
303.835
303.871
303.915
303.971
304.045
304.146
304.284
304.467
304.707
305.005
305.353
305.731
306.153
306.709
307.495
308.438
300.343
300.987
301.533
301.937
302.232
302.482
302.714
302.929
303.119
303.279
303.409
303.51
303.59
303.652
303.701
303.741
303.775
303.806
303.836
303.868
303.904
303.948
304.005
304.081
304.184
304.322
304.508
304.748
305.047
305.393
305.769
306.189
306.745
307.53
308.472
300.348
300.999
301.552
301.96
302.259
302.513
302.749
302.967
303.159
303.319
303.448
303.548
303.626
303.687
303.735
303.774
303.808
303.838
303.868
303.9
303.937
303.982
304.04
304.117
304.221
304.361
304.548
304.79
305.088
305.433
305.807
306.225
306.78
307.565
308.507
300.352
301.012
301.572
301.984
302.287
302.545
302.785
303.006
303.199
303.36
303.487
303.586
303.663
303.722
303.769
303.808
303.84
303.871
303.9
303.933
303.97
304.015
304.074
304.153
304.258
304.4
304.588
304.83
305.128
305.472
305.844
306.26
306.815
307.599
308.541
300.357
301.026
301.593
302.01
302.316
302.578
302.822
303.046
303.241
303.401
303.527
303.625
303.7
303.758
303.804
303.841
303.874
303.903
303.933
303.965
304.003
304.049
304.109
304.189
304.296
304.439
304.629
304.872
305.169
305.512
305.881
306.296
306.85
307.634
308.576
300.362
301.04
301.614
302.035
302.346
302.612
302.86
303.087
303.283
303.443
303.568
303.665
303.738
303.794
303.839
303.875
303.907
303.936
303.966
303.998
304.036
304.083
304.144
304.225
304.333
304.478
304.669
304.912
305.21
305.55
305.918
306.331
306.884
307.668
308.611
300.367
301.054
301.636
302.062
302.377
302.647
302.9
303.13
303.327
303.486
303.61
303.704
303.776
303.831
303.874
303.91
303.94
303.969
303.999
304.032
304.07
304.118
304.18
304.262
304.371
304.518
304.709
304.954
305.251
305.59
305.955
306.367
306.92
307.703
308.646
300.372
301.069
301.658
302.09
302.409
302.684
302.941
303.174
303.371
303.53
303.652
303.745
303.815
303.868
303.91
303.944
303.974
304.003
304.032
304.065
304.104
304.152
304.215
304.298
304.409
304.557
304.75
304.994
305.291
305.628
305.991
306.402
306.954
307.737
308.68
300.377
301.084
301.681
302.118
302.442
302.721
302.983
303.219
303.417
303.575
303.695
303.786
303.853
303.905
303.945
303.979
304.008
304.036
304.066
304.098
304.138
304.187
304.251
304.335
304.448
304.597
304.791
305.036
305.332
305.667
306.029
306.438
306.989
307.772
308.715
300.383
301.1
301.706
302.147
302.476
302.761
303.027
303.265
303.464
303.62
303.739
303.827
303.893
303.943
303.982
304.014
304.043
304.07
304.099
304.132
304.172
304.222
304.286
304.372
304.486
304.636
304.831
305.077
305.372
305.706
306.065
306.473
307.024
307.806
308.75
300.388
301.116
301.73
302.178
302.51
302.801
303.072
303.313
303.512
303.667
303.783
303.869
303.933
303.981
304.018
304.049
304.077
304.104
304.133
304.166
304.206
304.257
304.323
304.41
304.525
304.677
304.873
305.119
305.413
305.745
306.102
306.509
307.06
307.842
308.786
300.394
301.133
301.756
302.209
302.546
302.842
303.118
303.361
303.56
303.714
303.828
303.912
303.973
304.019
304.055
304.085
304.112
304.139
304.168
304.201
304.241
304.292
304.359
304.447
304.563
304.716
304.914
305.16
305.454
305.784
306.139
306.544
307.094
307.877
308.82
300.4
301.15
301.781
302.24
302.583
302.885
303.166
303.411
303.61
303.762
303.874
303.955
304.014
304.058
304.092
304.121
304.147
304.174
304.202
304.235
304.276
304.328
304.396
304.485
304.603
304.758
304.956
305.202
305.495
305.823
306.177
306.581
307.131
307.913
308.857
300.406
301.167
301.808
302.273
302.621
302.929
303.214
303.462
303.661
303.811
303.92
303.999
304.055
304.097
304.13
304.157
304.183
304.209
304.237
304.27
304.311
304.364
304.433
304.523
304.642
304.798
304.997
305.244
305.536
305.862
306.213
306.616
307.165
307.948
308.892
300.412
301.185
301.835
302.306
302.661
302.974
303.265
303.514
303.712
303.86
303.967
304.043
304.097
304.137
304.168
304.194
304.219
304.244
304.272
304.305
304.347
304.4
304.47
304.562
304.683
304.84
305.04
305.287
305.578
305.902
306.251
306.654
307.202
307.984
308.928
300.419
301.204
301.863
302.341
302.701
303.021
303.316
303.568
303.765
303.911
304.015
304.087
304.139
304.176
304.206
304.231
304.255
304.279
304.307
304.341
304.383
304.437
304.507
304.6
304.722
304.88
305.081
305.328
305.618
305.94
306.288
306.689
307.237
308.019
308.963
300.425
301.222
301.892
302.376
302.743
303.07
303.37
303.623
303.819
303.962
304.063
304.132
304.181
304.217
304.245
304.268
304.291
304.315
304.343
304.377
304.419
304.474
304.546
304.64
304.763
304.923
305.125
305.372
305.66
305.981
306.327
306.727
307.275
308.057
309.001
300.432
301.242
301.921
302.412
302.786
303.12
303.425
303.68
303.874
304.015
304.112
304.178
304.224
304.258
304.284
304.306
304.328
304.352
304.379
304.413
304.455
304.511
304.584
304.679
304.804
304.964
305.167
305.413
305.701
306.019
306.363
306.762
307.31
308.092
309.036
300.439
301.261
301.951
302.45
302.83
303.172
303.482
303.738
303.931
304.068
304.162
304.225
304.268
304.299
304.323
304.344
304.365
304.388
304.415
304.449
304.492
304.549
304.623
304.719
304.845
305.007
305.21
305.457
305.744
306.06
306.402
306.801
307.348
308.13
309.074
300.446
301.282
301.983
302.489
302.876
303.225
303.54
303.797
303.989
304.123
304.212
304.272
304.312
304.34
304.363
304.383
304.403
304.425
304.452
304.486
304.529
304.586
304.661
304.759
304.886
305.049
305.253
305.499
305.784
306.099
306.439
306.836
307.383
308.165
309.109
300.453
301.303
302.015
302.529
302.924
303.281
303.6
303.858
304.048
304.178
304.264
304.32
304.357
304.383
304.403
304.422
304.441
304.462
304.489
304.523
304.567
304.625
304.701
304.8
304.929
305.093
305.297
305.544
305.828
306.14
306.479
306.875
307.422
308.203
309.148
300.461
301.325
302.048
302.57
302.973
303.338
303.662
303.921
304.108
304.234
304.316
304.368
304.402
304.425
304.444
304.461
304.479
304.5
304.526
304.56
304.605
304.663
304.74
304.84
304.97
305.135
305.34
305.586
305.868
306.179
306.516
306.911
307.458
308.239
309.183
300.469
301.347
302.082
302.613
303.024
303.397
303.726
303.985
304.17
304.292
304.369
304.417
304.448
304.469
304.485
304.501
304.518
304.538
304.564
304.598
304.643
304.703
304.78
304.882
305.013
305.18
305.385
305.631
305.912
306.221
306.556
306.951
307.497
308.278
309.222
300.477
301.37
302.118
302.657
303.077
303.458
303.792
304.051
304.232
304.351
304.423
304.467
304.494
304.513
304.527
304.541
304.557
304.577
304.602
304.636
304.681
304.741
304.82
304.923
305.055
305.222
305.428
305.673
305.953
306.26
306.593
306.987
307.533
308.313
309.257
300.485
301.394
302.154
302.703
303.132
303.521
303.86
304.119
304.297
304.41
304.478
304.518
304.542
304.557
304.569
304.582
304.597
304.616
304.641
304.675
304.721
304.782
304.861
304.966
305.099
305.267
305.474
305.718
305.997
306.302
306.634
307.026
307.572
308.353
309.296
300.494
301.419
302.192
302.75
303.188
303.587
303.93
304.188
304.363
304.471
304.534
304.569
304.589
304.602
304.612
304.623
304.637
304.655
304.68
304.714
304.76
304.821
304.902
305.007
305.141
305.31
305.516
305.76
306.037
306.34
306.671
307.062
307.608
308.388
309.331
300.503
301.445
302.232
302.8
303.247
303.655
304.002
304.259
304.43
304.533
304.591
304.622
304.638
304.648
304.656
304.665
304.677
304.695
304.72
304.754
304.8
304.862
304.944
305.05
305.186
305.356
305.562
305.806
306.082
306.383
306.711
307.103
307.648
308.428
309.37
300.512
301.472
302.273
302.851
303.308
303.725
304.076
304.332
304.499
304.597
304.649
304.675
304.687
304.694
304.699
304.707
304.718
304.735
304.759
304.793
304.839
304.902
304.984
305.092
305.228
305.399
305.605
305.848
306.122
306.421
306.748
307.139
307.684
308.463
309.405
300.522
301.5
302.315
302.903
303.371
303.797
304.152
304.407
304.57
304.662
304.708
304.729
304.737
304.741
304.744
304.75
304.76
304.776
304.8
304.834
304.881
304.944
305.027
305.136
305.274
305.445
305.652
305.894
306.166
306.464
306.79
307.179
307.724
308.503
309.445
300.532
301.529
302.358
302.957
303.435
303.87
304.229
304.484
304.642
304.728
304.768
304.784
304.788
304.788
304.789
304.793
304.802
304.817
304.84
304.874
304.921
304.984
305.068
305.178
305.316
305.488
305.694
305.935
306.206
306.502
306.826
307.215
307.76
308.538
309.479
300.543
301.559
302.403
303.013
303.501
303.945
304.308
304.562
304.715
304.795
304.83
304.84
304.84
304.837
304.836
304.838
304.845
304.859
304.882
304.916
304.963