/*--------------------------------*- C++ -*----------------------------------*\
| =========                 |                                                 |
| \\      /  F ield         | OpenFOAM: The Open Source CFD Toolbox           |
|  \\    /   O peration     | Version:  v2006                                 |
|   \\  /    A nd           | Website:  www.openfoam.com                      |
|    \\/     M anipulation  |                                                 |
\*---------------------------------------------------------------------------*/
FoamFile
{
    version     2.0;
    format      ascii;
    class       volVectorField;
    location    "63";
    object      U;
}
// * * * * * * * * * * * * * * * * * * * * * * * * * * * * * * * * * * * * * //

dimensions      [0 1 -1 0 0 0 0];


internalField   nonuniform List<vector> 
78750
(
(-3.3089e-06 -0.000603731 0.00188451)
(8.7972e-05 -0.00152089 0.00481791)
(0.00028347 -0.00260277 0.00651854)
(0.000694863 -0.0038431 0.00723183)
(0.00138537 -0.0051097 0.00735781)
(0.00236504 -0.00628554 0.00720749)
(0.00360581 -0.00729365 0.00695658)
(0.00506033 -0.00809181 0.0066864)
(0.0066738 -0.00866303 0.00642867)
(0.00839145 -0.00900641 0.00619305)
(0.0101606 -0.00913645 0.00597794)
(0.0119328 -0.00907135 0.0057789)
(0.0136637 -0.00882972 0.00559121)
(0.015313 -0.0084298 0.00541071)
(0.0168444 -0.00788933 0.00523411)
(0.0182258 -0.00722566 0.00505904)
(0.019429 -0.00645557 0.00488412)
(0.0204299 -0.00559516 0.00470885)
(0.0212081 -0.00466044 0.00453352)
(0.021748 -0.00366816 0.00435903)
(0.0220394 -0.00263597 0.00418685)
(0.0220775 -0.00158187 0.00401838)
(0.021863 -0.000525924 0.00385648)
(0.0213911 0.000512154 0.00370423)
(0.020661 0.00151921 0.00356385)
(0.0196876 0.00248467 0.00343749)
(0.0184902 0.0034003 0.00332615)
(0.0170866 0.00426087 0.00322948)
(0.0154926 0.00506411 0.00314523)
(0.0137186 0.0058145 0.00306768)
(0.0117566 0.00658457 0.00298466)
(0.00952855 0.00764378 0.00286183)
(0.00684962 0.00933821 0.00259495)
(0.0037425 0.0107766 0.0019679)
(0.000907537 0.00767034 0.000809403)
(1.7002e-05 -0.00183669 0.00125171)
(0.000311634 -0.00442742 0.0030075)
(0.000789685 -0.0071102 0.00393618)
(0.00146428 -0.0100851 0.00432078)
(0.00231986 -0.0130913 0.00438736)
(0.0033218 -0.0158131 0.00429531)
(0.00443063 -0.0180542 0.00413764)
(0.00560926 -0.0197408 0.00395913)
(0.00682069 -0.0208697 0.00377857)
(0.00804166 -0.0214721 0.00360532)
(0.00925134 -0.0215844 0.00344225)
(0.0104217 -0.02124 0.00328798)
(0.0115316 -0.020475 0.00313966)
(0.0125617 -0.0193259 0.00299405)
(0.0134934 -0.0178295 0.00284798)
(0.0143093 -0.0160227 0.00269851)
(0.0149939 -0.0139426 0.00254324)
(0.0155323 -0.0116262 0.00238051)
(0.015911 -0.00911585 0.00220831)
(0.0161163 -0.00646025 0.00202496)
(0.0161354 -0.00371304 0.00182991)
(0.0159569 -0.000930665 0.00162492)
(0.0155837 0.00182921 0.00141654)
(0.0150361 0.00450898 0.00121354)
(0.0143309 0.00706124 0.00102534)
(0.0134806 0.00945121 0.00086219)
(0.0124998 0.0116597 0.000732489)
(0.0114045 0.0136891 0.000639469)
(0.0102128 0.0155872 0.000581197)
(0.00891609 0.0175236 0.000561954)
(0.00746133 0.0198941 0.000594413)
(0.00576115 0.0232624 0.000674301)
(0.00380341 0.027353 0.00072756)
(0.00179892 0.0287898 0.000597399)
(0.000175353 0.0185841 0.000221689)
(7.60458e-06 -0.00363048 0.00116651)
(0.000467932 -0.00906921 0.00280755)
(0.00126926 -0.0137387 0.00380334)
(0.00233018 -0.0179959 0.00437979)
(0.00354471 -0.0217436 0.00470038)
(0.00481897 -0.0248121 0.00486817)
(0.0060853 -0.0271134 0.00494353)
(0.0073004 -0.0286589 0.00495932)
(0.00843619 -0.0295226 0.00493393)
(0.00949339 -0.02979 0.0048861)
(0.0104675 -0.0295115 0.00482738)
(0.0113411 -0.0287245 0.00476042)
(0.0121112 -0.0274649 0.00468679)
(0.0127762 -0.0257667 0.00460769)
(0.0133324 -0.0236608 0.00452394)
(0.0137757 -0.0211842 0.00443269)
(0.0140985 -0.0183832 0.00432876)
(0.014297 -0.0152772 0.00421485)
(0.0143665 -0.0118711 0.00409476)
(0.0143001 -0.008211 0.00396035)
(0.0140965 -0.00436969 0.00379764)
(0.0137602 -0.000439189 0.00359038)
(0.0132874 0.00347796 0.00332415)
(0.0126732 0.00727674 0.00299141)
(0.0119317 0.010859 0.00259576)
(0.0110832 0.0141552 0.00215302)
(0.0101481 0.0171459 0.00168861)
(0.00914371 0.0198861 0.00123214)
(0.008077 0.0225442 0.000813751)
(0.00693314 0.0254665 0.000465591)
(0.00566421 0.0291947 0.00022398)
(0.00420556 0.0340628 0.000117562)
(0.00266032 0.038707 0.000116465)
(0.00119673 0.0385771 0.000115334)
(0.000123413 0.023155 6.33467e-05)
(2.16679e-05 -0.00609483 0.00114254)
(0.000511094 -0.0158259 0.00261214)
(0.0013504 -0.0236835 0.00337979)
(0.00243472 -0.0299616 0.00371245)
(0.00363466 -0.0346761 0.00380684)
(0.00484754 -0.0379132 0.00378604)
(0.0060123 -0.0398853 0.00371837)
(0.0071035 -0.0408431 0.00363702)
(0.00811119 -0.0409979 0.00355176)
(0.00903835 -0.0404879 0.0034676)
(0.00988085 -0.0393848 0.00339108)
(0.0106291 -0.0377492 0.00332254)
(0.0112817 -0.0356394 0.00326121)
(0.0118339 -0.0331088 0.00320684)
(0.0122862 -0.0301783 0.00316516)
(0.0126339 -0.0268482 0.00314633)
(0.012867 -0.0231443 0.00315466)
(0.0129817 -0.0191054 0.0031918)
(0.0129767 -0.0147766 0.00325792)
(0.0128548 -0.0102082 0.00334864)
(0.0126185 -0.00545827 0.00345213)
(0.0122663 -0.000598731 0.00354654)
(0.0118034 0.00427417 0.00359971)
(0.0112356 0.00904283 0.00357274)
(0.0105636 0.0135815 0.00343101)
(0.00979306 0.0177859 0.00315662)
(0.00893518 0.0216181 0.002756)
(0.00800167 0.0251567 0.00225827)
(0.00699642 0.0286495 0.00170755)
(0.00590707 0.032561 0.00115863)
(0.00470455 0.0374762 0.000680174)
(0.00336249 0.0433959 0.000347939)
(0.00205166 0.0480685 0.000190621)
(0.000889714 0.0463627 0.00013074)
(7.27843e-05 0.0266692 9.29781e-05)
(3.26645e-05 -0.00795576 0.000925034)
(0.000496085 -0.0204411 0.00201139)
(0.00124313 -0.0300129 0.00253563)
(0.00215993 -0.0370542 0.00276303)
(0.00312715 -0.0418032 0.00285264)
(0.00406917 -0.0446844 0.00288143)
(0.00495301 -0.0461903 0.00288128)
(0.00578329 -0.0467078 0.0028681)
(0.00657087 -0.0464485 0.00284795)
(0.00730908 -0.0455152 0.00281978)
(0.00799132 -0.0439796 0.00278323)
(0.00861469 -0.0419022 0.00273873)
(0.00917073 -0.039342 0.00268245)
(0.00965287 -0.0363184 0.0026186)
(0.0100524 -0.0328286 0.0025558)
(0.0103551 -0.0289059 0.00250218)
(0.0105556 -0.0245994 0.00246782)
(0.0106537 -0.0199685 0.00246389)
(0.0106522 -0.0150749 0.00250145)
(0.0105562 -0.00997646 0.00258981)
(0.0103711 -0.00472515 0.00273293)
(0.0101009 0.000627115 0.00292422)
(0.00975008 0.0060129 0.00314047)
(0.00932137 0.0113363 0.00333838)
(0.008812 0.0164795 0.00346012)
(0.00821903 0.0213336 0.00344919)
(0.00754192 0.025858 0.00326959)
(0.00678072 0.0301512 0.0029165)
(0.00593086 0.0345082 0.00241437)
(0.00497967 0.0394229 0.00181503)
(0.00391005 0.0453545 0.00120694)
(0.00272437 0.0518344 0.000712911)
(0.00162043 0.0559975 0.000420921)
(0.000681258 0.0525702 0.000269461)
(4.29661e-05 0.0292231 0.000155356)
(2.91841e-05 -0.0100832 0.000750365)
(0.000440725 -0.0256749 0.00161883)
(0.0010898 -0.0371687 0.00205121)
(0.00187847 -0.0451437 0.00225759)
(0.00270302 -0.0501374 0.00234873)
(0.00350531 -0.0529213 0.002378)
(0.00426901 -0.0542123 0.00237124)
(0.00500262 -0.0544653 0.00234155)
(0.00571155 -0.0538931 0.00229344)
(0.00638714 -0.0526044 0.00223059)
(0.00701674 -0.0506895 0.00215531)
(0.00759983 -0.0481909 0.00206936)
(0.00813048 -0.0451053 0.00197648)
(0.00859096 -0.0414567 0.00187825)
(0.00896719 -0.0372889 0.00178077)
(0.00925136 -0.0326684 0.00169189)
(0.00943987 -0.0276793 0.00162091)
(0.00953295 -0.0224114 0.00157873)
(0.00953419 -0.0169481 0.00157789)
(0.0094496 -0.011357 0.0016319)
(0.00928671 -0.00568759 0.00175346)
(0.00905385 2.40141e-05 0.00195037)
(0.00875588 0.0057428 0.00221825)
(0.00839425 0.0114201 0.00253264)
(0.00796853 0.0169868 0.00284448)
(0.00747374 0.0223726 0.00308635)
(0.00690152 0.0275599 0.00319032)
(0.00624143 0.032664 0.00310786)
(0.00548045 0.0379984 0.0028203)
(0.00460441 0.0440447 0.00234558)
(0.00360434 0.0511035 0.00175726)
(0.00250248 0.0582664 0.00119523)
(0.00149654 0.0622068 0.00079242)
(0.000642914 0.0575151 0.000512538)
(5.32859e-05 0.0312698 0.000236538)
(3.51114e-05 -0.0116232 0.000558067)
(0.000397639 -0.0292402 0.00120814)
(0.00095182 -0.0418234 0.00155275)
(0.00161352 -0.0501909 0.00173892)
(0.0022975 -0.055154 0.00183531)
(0.00296084 -0.0577485 0.00187597)
(0.0035962 -0.0588194 0.00187991)
(0.00421709 -0.0588385 0.00185838)
(0.00482623 -0.0580019 0.00181934)
(0.00540606 -0.0564249 0.00176413)
(0.00595378 -0.0541734 0.00169157)
(0.00646793 -0.0512528 0.00160116)
(0.00693366 -0.0476732 0.00149599)
(0.00733922 -0.0434672 0.0013802)
(0.00767543 -0.0386994 0.00125882)
(0.00793554 -0.0334654 0.00113824)
(0.00811587 -0.0278794 0.00102672)
(0.00821575 -0.0220582 0.000934899)
(0.00823706 -0.0161066 0.000876043)
(0.00818364 -0.0101075 0.000865883)
(0.00806052 -0.0041176 0.000921559)
(0.00787307 0.00182903 0.00105868)
(0.00762762 0.00771069 0.0012855)
(0.00732871 0.0135098 0.00159468)
(0.00697593 0.0192095 0.00195587)
(0.00656378 0.0248053 0.00231392)
(0.00608151 0.0303456 0.00259758)
(0.00551391 0.0359969 0.00273621)
(0.00484338 0.042091 0.00267539)
(0.00405489 0.0490466 0.0023932)
(0.00314481 0.0569276 0.00192982)
(0.00215597 0.064385 0.00141037)
(0.00126923 0.0678718 0.00097567)
(0.000529339 0.0618654 0.000616763)
(3.41883e-05 0.0330478 0.000242957)
(2.31743e-05 -0.0131715 0.000458191)
(0.000318347 -0.0329418 0.00103328)
(0.000781389 -0.0468164 0.00138076)
(0.00134916 -0.0558203 0.00159561)
(0.00194679 -0.0609956 0.00171955)
(0.00253553 -0.0636042 0.00178051)
(0.00311343 -0.0646081 0.001799)
(0.0036852 -0.0645063 0.00178546)
(0.00424566 -0.0635164 0.00174963)
(0.00478789 -0.0617358 0.00169484)
(0.00530702 -0.0591982 0.00161997)
(0.00579265 -0.0559132 0.00152727)
(0.00623444 -0.0518937 0.00141951)
(0.00662234 -0.0471825 0.00129933)
(0.00694781 -0.0418627 0.00116962)
(0.00720478 -0.0360529 0.00103427)
(0.00738985 -0.0298902 0.000898801)
(0.00750209 -0.0235124 0.000771344)
(0.00754271 -0.0170429 0.000663393)
(0.00751477 -0.0105799 0.000590124)
(0.00742276 -0.00419139 0.000569832)
(0.00727208 0.00208373 0.000621861)
(0.00706747 0.00823003 0.000762205)
(0.0068122 0.0142515 0.00099687)
(0.00650658 0.0201722 0.00131394)
(0.00614517 0.026046 0.0016779)
(0.00571582 0.0319877 0.00203038)
(0.0052007 0.0382211 0.00229859)
(0.00457982 0.0451002 0.00240815)
(0.00383813 0.0529795 0.00230317)
(0.00297512 0.061698 0.00198376)
(0.00204572 0.069518 0.00154253)
(0.00121429 0.0727262 0.00111008)
(0.000514279 0.065646 0.000700017)
(4.23928e-05 0.0346167 0.000252524)
(2.79891e-05 -0.014299 0.000359917)
(0.000302052 -0.0355827 0.000849907)
(0.000727164 -0.050341 0.00117477)
(0.00124417 -0.0597648 0.0013883)
(0.00178479 -0.0650645 0.00151489)
(0.00231576 -0.0676621 0.00157849)
(0.00283811 -0.0685951 0.00159967)
(0.00335516 -0.0683769 0.00158986)
(0.0038617 -0.0672245 0.00155531)
(0.0043516 -0.065225 0.00149885)
(0.0048185 -0.0624031 0.0014237)
(0.00525501 -0.0587617 0.00133249)
(0.00565244 -0.0543164 0.00122724)
(0.00600237 -0.0491223 0.0011097)
(0.00629781 -0.0432823 0.000981642)
(0.00653366 -0.0369356 0.000845346)
(0.00670659 -0.0302398 0.000704399)
(0.00681495 -0.023353 0.00056473)
(0.00685889 -0.0164172 0.000435611)
(0.00684015 -0.00954603 0.000330198)
(0.00676193 -0.00282013 0.000265487)
(0.00662869 0.00371278 0.000260984)
(0.00644554 0.0100376 0.000335433)
(0.00621665 0.0161764 0.000501647)
(0.00594274 0.0221929 0.000759887)
(0.00561863 0.0282017 0.00109144)
(0.00523211 0.0343895 0.00145502)
(0.00476453 0.0410431 0.00178763)
(0.00419507 0.0485352 0.00201092)
(0.00350887 0.0571403 0.0020492)
(0.00270703 0.0664641 0.00186944)
(0.00185421 0.0744292 0.00152717)
(0.00109381 0.077266 0.00112983)
(0.000455084 0.0691147 0.000707029)
(3.35711e-05 0.0360686 0.000235432)
(1.92212e-05 -0.0155073 0.000336279)
(0.000258215 -0.0385098 0.000830187)
(0.000639895 -0.0543401 0.00117894)
(0.00111396 -0.0643258 0.0014143)
(0.00161521 -0.0698459 0.0015545)
(0.0021111 -0.0724962 0.00162569)
(0.00260213 -0.0734033 0.00165147)
(0.0030902 -0.0731053 0.00164525)
(0.00356889 -0.0718218 0.00161396)
(0.00403146 -0.0696358 0.00156189)
(0.00447168 -0.0665666 0.00149211)
(0.00488248 -0.0626139 0.00140686)
(0.00525613 -0.0577958 0.00130763)
(0.0055856 -0.0521761 0.00119521)
(0.00586538 -0.0458688 0.00107002)
(0.00609151 -0.0390259 0.000932731)
(0.00626129 -0.0318182 0.000785234)
(0.00637293 -0.0244172 0.000631631)
(0.00642573 -0.01698 0.000479297)
(0.00642039 -0.00963558 0.000339601)
(0.00635924 -0.00248106 0.000228206)
(0.00624528 0.00442136 0.000164241)
(0.00608222 0.0110492 0.000167841)
(0.00587348 0.0174314 0.000256039)
(0.00562014 0.0236586 0.000437386)
(0.00531798 0.0298928 0.000705976)
(0.00495535 0.0363831 0.00103607)
(0.00451427 0.0434753 0.001378)
(0.00397478 0.0515635 0.00165799)
(0.00332306 0.0608521 0.00179137)
(0.00256109 0.0707397 0.00172076)
(0.00175866 0.0788582 0.00146756)
(0.0010417 0.0813956 0.00111444)
(0.000434565 0.0722929 0.000698758)
(3.53079e-05 0.0374115 0.00022349)
(2.30444e-05 -0.0164755 0.000305704)
(0.000256525 -0.0408268 0.000777114)
(0.000623895 -0.0574888 0.00111943)
(0.00107443 -0.06791 0.00135185)
(0.00154603 -0.0736025 0.00148982)
(0.00200965 -0.0762922 0.00155961)
(0.00246736 -0.0771705 0.00158485)
(0.00292114 -0.0767926 0.001579)
(0.00336475 -0.0753789 0.00154925)
(0.0037918 -0.0730078 0.00150017)
(0.00419652 -0.0696938 0.00143526)
(0.00457252 -0.0654362 0.00135716)
(0.00491304 -0.0602592 0.00126749)
(0.00521227 -0.054238 0.00116678)
(0.00546584 -0.0475002 0.00105468)
(0.00567077 -0.0402103 0.000930564)
(0.00582501 -0.03255 0.000794519)
(0.00592713 -0.024701 0.000648386)
(0.00597641 -0.0168301 0.000496861)
(0.00597272 -0.00907732 0.000348532)
(0.00591732 -0.00155115 0.000216603)
(0.00581296 0.00567251 0.000118479)
(0.00566272 0.0125633 7.39795e-05)
(0.0054693 0.0191561 0.000102189)
(0.00523317 0.0255646 0.000217102)
(0.00495052 0.0319919 0.000422412)
(0.00461091 0.0387404 0.000705434)
(0.00419743 0.0462055 0.00103005)
(0.00369139 0.0547936 0.00133157)
(0.00308005 0.0646357 0.00152435)
(0.00236584 0.0749382 0.00153584)
(0.00162186 0.0830908 0.00135983)
(0.000956748 0.085283 0.00105551)
(0.00039296 0.0752423 0.000663018)
(2.95767e-05 0.0386535 0.000205155)
(1.79701e-05 -0.0175338 0.000312935)
(0.000234854 -0.043403 0.000806585)
(0.000580977 -0.0610181 0.00116749)
(0.00100897 -0.0719384 0.00140977)
(0.00145762 -0.0778273 0.00155078)
(0.00189867 -0.0805654 0.00162087)
(0.00233432 -0.0814198 0.00164597)
(0.00276591 -0.0809664 0.00164049)
(0.00318676 -0.0794287 0.0016121)
(0.00359055 -0.0768832 0.00156575)
(0.00397176 -0.0733426 0.00150516)
(0.00432453 -0.0688067 0.001433)
(0.00464299 -0.0633047 0.00135067)
(0.00492241 -0.0569198 0.00125818)
(0.00515945 -0.0497878 0.00115442)
(0.00535193 -0.0420809 0.00103785)
(0.00549829 -0.0339876 0.000907465)
(0.00559727 -0.0256962 0.000763824)
(0.00564799 -0.0173816 0.000610119)
(0.00564992 -0.00919389 0.000453154)
(0.00560325 -0.00125374 0.000304091)
(0.00550898 0.00635019 0.000178393)
(0.00536948 0.0135774 9.46074e-05)
(0.00518735 0.0204622 7.19067e-05)
(0.0049627 0.0271332 0.000126856)
(0.00469196 0.0338244 0.000269251)
(0.00436587 0.0408809 0.000496233)
(0.00396929 0.0487386 0.000783825)
(0.00348563 0.057812 0.00107825)
(0.00290377 0.0681652 0.00129821)
(0.00222645 0.0788356 0.00136338)
(0.00152808 0.087009 0.00124677)
(0.000902343 0.0888825 0.000987646)
(0.000369052 0.07797 0.000624554)
(2.8837e-05 0.0397974 0.000191204)
(2.04428e-05 -0.0184627 0.000313288)
(0.000235345 -0.0456324 0.00080922)
(0.00057233 -0.0640459 0.00116809)
(0.000983443 -0.0753779 0.0014048)
(0.0014099 -0.0814276 0.00154006)
(0.00182639 -0.0842032 0.00160616)
(0.00223626 -0.085031 0.00162916)
(0.002641 -0.0845026 0.00162343)
(0.00303416 -0.0828428 0.00159681)
(0.00340975 -0.0801262 0.00155453)
(0.00376263 -0.076364 0.00150066)
(0.00408746 -0.0715592 0.00143813)
(0.00437921 -0.065749 0.00136838)
(0.00463406 -0.059027 0.00129104)
(0.00484963 -0.0515388 0.00120421)
(0.00502453 -0.0434635 0.00110511)
(0.00515778 -0.0349943 0.000991062)
(0.0052485 -0.0263227 0.000860698)
(0.00529584 -0.017627 0.000715202)
(0.00529897 -0.00906242 0.000559465)
(0.00525746 -0.000758067 0.000402914)
(0.00517169 0.00718641 0.000259575)
(0.0050429 0.0147222 0.000147087)
(0.00487244 0.0218845 8.47304e-05)
(0.00466028 0.0288141 9.06936e-05)
(0.00440299 0.0357701 0.000178649)
(0.00409203 0.0431308 0.000352581)
(0.00371407 0.0513604 0.000598077)
(0.00325475 0.0608713 0.00087172)
(0.00270466 0.0716585 0.00109914)
(0.00206708 0.0826058 0.00119777)
(0.00141678 0.0907327 0.00112635)
(0.000833793 0.0922641 0.000908086)
(0.000336348 0.0805003 0.000578047)
(2.48973e-05 0.040848 0.00017584)
(1.72145e-05 -0.0194506 0.000329301)
(0.000221568 -0.0480172 0.000845694)
(0.000543468 -0.0672886 0.00121334)
(0.000936915 -0.0790531 0.00145021)
(0.00134414 -0.0852629 0.00158188)
(0.00174099 -0.0880711 0.00164439)
(0.00213113 -0.0888689 0.001665)
(0.00251566 -0.0882637 0.00165841)
(0.00288803 -0.0864829 0.00163265)
(0.00324245 -0.0836005 0.00159326)
(0.00357409 -0.0796284 0.00154456)
(0.00387819 -0.0745734 0.00148968)
(0.00415048 -0.0684798 0.00143004)
(0.00438804 -0.0614493 0.00136507)
(0.00458923 -0.0536342 0.0012924)
(0.00475324 -0.0452176 0.00120846)
(0.00487943 -0.0363948 0.00110944)
(0.004967 -0.0273587 0.000992504)
(0.00501495 -0.0182892 0.000857012)
(0.00502209 -0.00934561 0.000705857)
(0.00498737 -0.000663841 0.000546437)
(0.00491026 0.00764629 0.00039097)
(0.00479103 0.0155266 0.00025586)
(0.0046303 0.0230101 0.000160047)
(0.00442754 0.0302458 0.00012264)
(0.00417937 0.0375118 0.000160013)
(0.00387821 0.045212 0.000281208)
(0.00351267 0.0538309 0.000479519)
(0.00307089 0.0637722 0.000721035)
(0.00254548 0.0749634 0.000939561)
(0.00194045 0.0861503 0.00105398)
(0.00133012 0.0942143 0.00101393)
(0.000782503 0.0954144 0.000830166)
(0.000313679 0.0828446 0.000532957)
(2.36184e-05 0.0418131 0.000163108)
(1.84173e-05 -0.0203618 0.000340281)
(0.000220174 -0.050189 0.000865341)
(0.000533289 -0.0702162 0.0012301)
(0.000911712 -0.0823529 0.00145853)
(0.00129979 -0.0886973 0.00158193)
(0.00167581 -0.0915301 0.0016387)
(0.00204427 -0.0922959 0.00165612)
(0.00240624 -0.0916149 0.00164871)
(0.00275542 -0.089716 0.00162459)
(0.00308634 -0.0866728 0.00158956)
(0.00339457 -0.082499 0.00154826)
(0.00367587 -0.0772071 0.001504)
(0.00392671 -0.0708505 0.00145825)
(0.00414497 -0.0635402 0.00141013)
(0.00432976 -0.0554353 0.00135665)
(0.00448088 -0.046722 0.00129321)
(0.00459813 -0.0375956 0.00121462)
(0.00468096 -0.0282474 0.00111631)
(0.00472834 -0.0188556 0.00099571)
(0.00473877 -0.00957982 0.000853748)
(0.00471052 -0.000559558 0.000696005)
(0.00464226 0.00808779 0.000533256)
(0.00453333 0.0162963 0.000381037)
(0.00438339 0.0240966 0.00025811)
(0.00419133 0.0316439 0.000184231)
(0.0039537 0.0392303 0.000177561)
(0.00366362 0.047278 0.000250638)
(0.00331135 0.0562825 0.000402599)
(0.00288735 0.0666305 0.000607676)
(0.00238626 0.078181 0.000808023)
(0.00181315 0.0895526 0.000926415)
(0.00124153 0.0975169 0.000907538)
(0.000728808 0.0983774 0.000752718)
(0.000289211 0.0850282 0.000487257)
(2.1213e-05 0.0427039 0.000150574)
(1.61349e-05 -0.0213029 0.000356604)
(0.000209528 -0.0524339 0.000894942)
(0.000509796 -0.0732371 0.00125895)
(0.000872443 -0.0857451 0.00147984)
(0.00124308 -0.0922148 0.00159503)
(0.0016013 -0.0950644 0.00164575)
(0.00195186 -0.0957934 0.00165951)
(0.00229556 -0.0950342 0.00165065)
(0.0026261 -0.0930176 0.00162739)
(0.00293827 -0.089818 0.00159574)
(0.00322797 -0.085452 0.0015606)
(0.00349148 -0.0799386 0.00152556)
(0.00372596 -0.0733395 0.00149221)
(0.00392995 -0.0657737 0.00145967)
(0.00410316 -0.057405 0.00142467)
(0.0042458 -0.0484215 0.00138204)
(0.00435798 -0.0390166 0.00132554)
(0.00443926 -0.0293784 0.001249)
(0.00448849 -0.0196819 0.00114774)
(0.00450381 -0.0100851 0.00102022)
(0.00448292 -0.000729416 0.000869541)
(0.00442359 0.00826149 0.000704466)
(0.00432418 0.0168139 0.000539385)
(0.00418354 0.0249546 0.000392936)
(0.00400005 0.0328419 0.000285668)
(0.0037703 0.0407783 0.000237429)
(0.00348817 0.0491988 0.000263653)
(0.0031455 0.0586031 0.000368256)
(0.00273499 0.0693556 0.000532543)
(0.00225338 0.081246 0.000706791)
(0.00170701 0.0927758 0.000819117)
(0.00116833 0.100628 0.00081232)
(0.000685427 0.101157 0.000680708)
(0.000270435 0.0870643 0.000444625)
(2.00716e-05 0.0435284 0.000139885)
(1.65066e-05 -0.0221925 0.000368678)
(0.000206449 -0.0545345 0.000912621)
(0.000498076 -0.0760437 0.00126924)
(0.000847214 -0.0888814 0.00147806)
(0.0012013 -0.0954589 0.00158271)
(0.0015419 -0.0983198 0.00162635)
(0.00187432 -0.0990113 0.00163608)
(0.00219925 -0.0981757 0.00162588)
(0.0025106 -0.0960455 0.00160393)
(0.00280347 -0.0926963 0.00157645)
(0.00307413 -0.0881488 0.0015486)
(0.00331935 -0.0824294 0.00152414)
(0.0035369 -0.0756094 0.00150471)
(0.00372595 -0.0678158 0.00148934)
(0.00388676 -0.0592175 0.00147448)
(0.00402004 -0.0500028 0.00145441)
(0.00412626 -0.0403623 0.00142204)
(0.00420523 -0.0304781 0.00136985)
(0.00425581 -0.0205193 0.0012913)
(0.00427589 -0.010639 0.00118251)
(0.00426256 -0.000977516 0.001044)
(0.00421272 0.00833773 0.000882175)
(0.0041237 0.0172262 0.00070988)
(0.00399336 0.0257099 0.000545307)
(0.00381944 0.0339478 0.00040959)
(0.0035984 0.0422485 0.000324036)
(0.00332471 0.0510541 0.000306529)
(0.00299162 0.0608619 0.000365013)
(0.00259387 0.0720079 0.000487009)
(0.00213022 0.0842118 0.000630539)
(0.00160846 0.0958668 0.000729949)
(0.00109993 0.103588 0.00072844)
(0.000644598 0.103785 0.000615134)
(0.00025264 0.0889768 0.000405679)
(1.86867e-05 0.044298 0.000130749)
(1.49093e-05 -0.023094 0.000381336)
(0.000198153 -0.05666 0.000929334)
(0.000479039 -0.0788743 0.00127663)
(0.000814552 -0.09203 0.00147191)
(0.00115342 -0.0987024 0.00156507)
(0.00147854 -0.101566 0.00160098)
(0.00179542 -0.102215 0.00160615)
(0.00210451 -0.101301 0.00159406)
(0.00239981 -0.0990573 0.00157282)
(0.00267667 -0.0955621 0.00154882)
(0.00293169 -0.090841 0.00152743)
(0.00316207 -0.0849283 0.00151267)
(0.00336612 -0.0779042 0.00150633)
(0.00354346 -0.0699032 0.0015075)
(0.00369481 -0.0610982 0.00151259)
(0.00382122 -0.0516773 0.00151563)
(0.00392346 -0.0418271 0.00150887)
(0.00400154 -0.031723 0.00148365)
(0.00405434 -0.021526 0.00143161)
(0.00407954 -0.0113827 0.00134639)
(0.00407375 -0.00142949 0.00122556)
(0.00403303 0.00820467 0.00107266)
(0.0039537 0.0174332 0.000898442)
(0.0038327 0.0262724 0.00072028)
(0.00366713 0.0348796 0.000559756)
(0.00345335 0.0435661 0.000439607)
(0.00318639 0.0527766 0.000380054)
(0.0028608 0.0630008 0.000392711)
(0.00247322 0.0745418 0.000470751)
(0.00202438 0.0870481 0.000579588)
(0.00152362 0.0988113 0.000660317)
(0.00104114 0.106396 0.000658205)
(0.000609814 0.106268 0.000558492)
(0.000237881 0.0907757 0.000372328)
(1.7813e-05 0.045018 0.000123923)
(1.48397e-05 -0.0239582 0.000390111)
(0.000194379 -0.0586805 0.000936284)
(0.00046737 -0.0815484 0.00127011)
(0.000791201 -0.0949911 0.00144948)
(0.00111611 -0.101745 0.00153012)
(0.00142661 -0.104608 0.00155791)
(0.00172857 -0.105215 0.00155837)
(0.0020223 -0.104224 0.00154439)
(0.00230196 -0.101871 0.00152399)
(0.00256321 -0.0982375 0.00150364)
(0.00280294 -0.093354 0.00148891)
(0.00301878 -0.0872633 0.00148393)
(0.00320944 -0.080055 0.00149062)
(0.00337504 -0.071871 0.0015081)
(0.00351667 -0.0628878 0.00153277)
(0.00363578 -0.0532932 0.00155854)
(0.00373351 -0.0432686 0.00157733)
(0.00381014 -0.0329811 0.00157973)
(0.00386471 -0.0225817 0.00155601)
(0.0038948 -0.0122074 0.00149762)
(0.00389656 -0.0019878 0.00139927)
(0.00386525 0.00794959 0.00126123)
(0.00379614 0.0175133 0.00109152)
(0.00368506 0.0267129 0.000905953)
(0.00352838 0.0357014 0.00072604)
(0.00332223 0.0447887 0.000575659)
(0.00306207 0.0544175 0.000477208)
(0.00274363 0.0650647 0.000445754)
(0.00236528 0.0769963 0.000479767)
(0.00192961 0.0897892 0.000551777)
(0.00144759 0.10164 0.000609937)
(0.000988351 0.109079 0.000602756)
(0.000578551 0.108631 0.000512489)
(0.000224659 0.0924788 0.000345915)
(1.70073e-05 0.0456962 0.000119754)
(1.37852e-05 -0.0248245 0.000397254)
(0.000188139 -0.0606999 0.000937617)
(0.000452552 -0.0842098 0.00125471)
(0.000765158 -0.0979231 0.00141611)
(0.00107735 -0.104746 0.00148312)
(0.00137487 -0.107599 0.00150214)
(0.00166378 -0.108158 0.00149742)
(0.00194419 -0.107088 0.0014811)
(0.0022104 -0.104627 0.00146104)
(0.00245829 -0.100858 0.00144378)
(0.00268504 -0.0958187 0.00143505)
(0.00288857 -0.08956 0.00143915)
(0.00306798 -0.0821807 0.00145816)
(0.0032237 -0.07383 0.00149136)
(0.00335714 -0.0646882 0.00153523)
(0.00347007 -0.0549421 0.00158371)
(0.00356394 -0.0447682 0.00162852)
(0.00363931 -0.0343245 0.00165967)
(0.00369543 -0.0237507 0.00166626)
(0.00372986 -0.0131719 0.00163781)
(0.00373849 -0.00270786 0.00156618)
(0.00371588 0.00751869 0.00144825)
(0.0036563 0.0174135 0.00128879)
(0.00355454 0.0269791 0.00110149)
(0.00340617 0.036362 0.000907225)
(0.00320704 0.0458675 0.000730684)
(0.00295299 0.0559317 0.000596282)
(0.0026408 0.067014 0.000522394)
(0.00227041 0.0793399 0.000512569)
(0.00184612 0.0924139 0.000546235)
(0.00138052 0.104343 0.000578789)
(0.000941688 0.111634 0.000562806)
(0.000550934 0.110877 0.000478119)
(0.000213091 0.0940913 0.000327174)
(1.64028e-05 0.0463353 0.000118439)
(1.35615e-05 -0.0256625 0.00040075)
(0.000184431 -0.0626384 0.000930299)
(0.000442087 -0.0867497 0.00122786)
(0.000745002 -0.100708 0.00137015)
(0.00104574 -0.107587 0.00142325)
(0.00133135 -0.110427 0.00143345)
(0.00160815 -0.110938 0.0014235)
(0.00187611 -0.109791 0.00140476)
(0.00212968 -0.107226 0.00138489)
(0.00236499 -0.103329 0.00137044)
(0.00257946 -0.0981434 0.00136722)
(0.00277128 -0.0917299 0.00137967)
(0.00293986 -0.0841959 0.00140998)
(0.00308593 -0.0756981 0.0014576)
(0.00321121 -0.0664201 0.0015192)
(0.00331779 -0.056548 0.00158891)
(0.00340745 -0.0462528 0.0016585)
(0.00348112 -0.035683 0.00171779)
(0.00353825 -0.0249654 0.00175513)
(0.00357653 -0.0142111 0.00175845)
(0.00359164 -0.00352718 0.00171702)
(0.00357749 0.00697165 0.00162421)
(0.00352742 0.0171905 0.00148107)
(0.00343508 0.0271245 0.00129844)
(0.00329515 0.0369115 0.00109584)
(0.00310312 0.0468484 0.000898301)
(0.00285507 0.0573604 0.00073199)
(0.00254875 0.0688851 0.000618456)
(0.00218556 0.0816039 0.000566152)
(0.0017714 0.0949488 0.000561237)
(0.00132046 0.106942 0.00056642)
(0.000899795 0.114083 0.000538869)
(0.000526057 0.113021 0.000456322)
(0.000202652 0.0956244 0.000316876)
(1.58546e-05 0.0469396 0.000120222)
(1.29209e-05 -0.0264972 0.000401616)
(0.000179859 -0.0645618 0.000915815)
(0.000430938 -0.089258 0.00119078)
(0.000725025 -0.103443 0.00131229)
(0.00101555 -0.110365 0.0013507)
(0.00129065 -0.113184 0.00135164)
(0.00155682 -0.113644 0.00133612)
(0.00181389 -0.112418 0.0013146)
(0.00205646 -0.109749 0.00129446)
(0.00228085 -0.105726 0.00128224)
(0.00248462 -0.1004 0.00128383)
(0.00266619 -0.0938386 0.0013038)
(0.00282518 -0.0861603 0.00134451)
(0.00296256 -0.0775282 0.00140564)
(0.00308031 -0.06813 0.0014841)
(0.00318079 -0.0581512 0.00157421)
(0.00326612 -0.0477576 0.00166794)
(0.00333754 -0.0370878 0.00175507)
(0.00339486 -0.0262549 0.0018235)
(0.00343593 -0.0153541 0.00185993)
(0.0034564 -0.00447684 0.00185137)
(0.00344973 0.00627414 0.00178781)
(0.00340841 0.0168066 0.00166632)
(0.003325 0.0271088 0.00149423)
(0.00319326 0.0373084 0.00128906)
(0.00300816 0.0476907 0.00107561)
(0.00276597 0.0586654 0.000881486)
(0.00246525 0.0706441 0.000731269)
(0.00210871 0.0837608 0.000638204)
(0.00170371 0.0973748 0.000595044)
(0.001266 0.109428 0.000571803)
(0.00086166 0.11642 0.000530527)
(0.000503293 0.115064 0.000447008)
(0.000193073 0.0970806 0.00031488)
(1.53572e-05 0.0475108 0.000124875)
(1.27039e-05 -0.0273092 0.000399106)
(0.00017662 -0.0664193 0.000893692)
(0.000422254 -0.091666 0.00114416)
(0.000708717 -0.106055 0.00124453)
(0.000990221 -0.113009 0.00126842)
(0.0012559 -0.115802 0.00126024)
(0.00151245 -0.116208 0.00123913)
(0.00175962 -0.114905 0.00121465)
(0.0019922 -0.112136 0.00119387)
(0.00220664 -0.107993 0.00118325)
(0.00240063 -0.102533 0.00118872)
(0.00257271 -0.0958344 0.00121494)
(0.0027227 -0.0880235 0.00126449)
(0.0028518 -0.0792714 0.00133728)
(0.00296223 -0.0697696 0.00143053)
(0.00305661 -0.0597031 0.00153894)
(0.00313738 -0.0492326 0.00165482)
(0.00320612 -0.0384871 0.0017682)
(0.00326297 -0.0275653 0.00186685)
(0.00330607 -0.0165453 0.00193669)
(0.00333109 -0.00550019 0.00196286)
(0.00333119 0.00548246 0.00193216)
(0.00329808 0.016316 0.00183747)
(0.00322329 0.026983 0.00168205)
(0.00309958 0.0375998 0.00148063)
(0.00292137 0.0484368 0.00125708)
(0.00268496 0.0598843 0.00104003)
(0.00238964 0.0723233 0.000856876)
(0.0020393 0.0858376 0.000725512)
(0.00164261 0.0997134 0.000645166)
(0.00121686 0.111818 0.000593159)
(0.000827181 0.118661 0.000536606)
(0.000482645 0.117016 0.000449374)
(0.000184379 0.0984667 0.000320589)
(1.49305e-05 0.0480513 0.000132083)
(1.23875e-05 -0.0281148 0.000393685)
(0.000173337 -0.0682536 0.000864518)
(0.000414034 -0.0940327 0.00108818)
(0.000693829 -0.10861 0.00116647)
(0.000967553 -0.115582 0.0011756)
(0.00122524 -0.118341 0.00115821)
(0.00147372 -0.11869 0.00113132)
(0.00171254 -0.11731 0.00110353)
(0.00193656 -0.114441 0.00108158)
(0.00214242 -0.11018 0.00107187)
(0.00232784 -0.10459 0.00108036)
(0.00249147 -0.0977584 0.00111184)
(0.00263328 -0.0898222 0.00116907)
(0.00275465 -0.0809598 0.00125222)
(0.002858 -0.0713669 0.00135882)
(0.00294618 -0.0612285 0.00148397)
(0.00302191 -0.0507004 0.00162041)
(0.00308715 -0.0399021 0.00175854)
(0.00314241 -0.0289178 0.00188631)
(0.00318621 -0.017807 0.00198926)
(0.00321443 -0.00662235 0.00205111)
(0.00322008 0.00456784 0.00205586)
(0.00319426 0.0156862 0.00199222)
(0.00312753 0.0267118 0.00185895)
(0.00301164 0.0377487 0.00166725)
(0.00284032 0.0490499 0.00143936)
(0.0026098 0.0609821 0.00120442)
(0.00231991 0.0738915 0.00099235)
(0.00197557 0.0878088 0.000825566)
(0.00158666 0.101947 0.000709637)
(0.00117192 0.114101 0.000629105)
(0.000795697 0.120798 0.000556177)
(0.000463881 0.118878 0.000462759)