/*--------------------------------*- C++ -*----------------------------------*\
| =========                 |                                                 |
| \\      /  F ield         | OpenFOAM: The Open Source CFD Toolbox           |
|  \\    /   O peration     | Version:  v2006                                 |
|   \\  /    A nd           | Website:  www.openfoam.com                      |
|    \\/     M anipulation  |                                                 |
\*---------------------------------------------------------------------------*/
FoamFile
{
    version     2.0;
    format      ascii;
    class       volScalarField;
    location    "10";
    object      nut;
}
// * * * * * * * * * * * * * * * * * * * * * * * * * * * * * * * * * * * * * //

dimensions      [0 2 -1 0 0 0 0];


internalField   nonuniform List<scalar> 
78750
(
0.000610197
0.00128179
0.000837796
0.000156346
3.75419e-05
5.11294e-05
2.19309e-05
4.56301e-05
3.17569e-05
4.53272e-05
4.08252e-05
4.74462e-05
4.83765e-05
5.13789e-05
5.39483e-05
5.64279e-05
5.89443e-05
6.14137e-05
6.38445e-05
6.62191e-05
6.84907e-05
7.06694e-05
7.26954e-05
7.43508e-05
7.55376e-05
7.6196e-05
7.62231e-05
7.55728e-05
7.42369e-05
7.20996e-05
6.87322e-05
6.33689e-05
5.27288e-05
1.68199e-05
6.01634e-07
1.87414e-05
1.96857e-05
9.16024e-06
1.48887e-05
5.87668e-05
5.4284e-05
6.82825e-05
7.90793e-05
9.61615e-05
0.00010643
0.000118292
0.000126846
0.000134234
0.00013983
0.000143982
0.000147097
0.000149421
0.000151212
0.000152672
0.000153954
0.00015516
0.000156348
0.000157511
0.000158584
0.000159396
0.000159897
0.000159805
0.000158233
0.000154118
0.000145674
0.000128745
9.61484e-05
5.10679e-05
2.14371e-05
1.7107e-06
2.37069e-06
3.67448e-05
4.99413e-05
7.42188e-05
0.000122656
0.000177782
0.000145495
0.000143552
0.000154959
0.000158388
0.000158291
0.000159099
0.000159798
0.000160088
0.000160185
0.000160132
0.000159909
0.00015945
0.000158828
0.000158166
0.000157562
0.000157071
0.000156704
0.000156375
0.000155921
0.000154775
0.000152328
0.000148408
0.000142303
0.000131809
0.000112198
7.61191e-05
3.37763e-05
1.51278e-05
2.39403e-06
4.19238e-07
1.91009e-05
3.73107e-05
7.9328e-05
0.000164931
0.000136957
9.39256e-05
8.55081e-05
9.42641e-05
0.000108085
0.000124202
0.00014419
0.000167274
0.000188077
0.00019173
0.000192897
0.000193681
0.000194049
0.000194058
0.000193808
0.000193399
0.000192913
0.000188783
0.000176286
0.000164731
0.000153234
0.000140493
0.000125858
0.000108483
8.82712e-05
6.65206e-05
4.50592e-05
2.66992e-05
1.8435e-05
3.24934e-06
6.34504e-07
2.72288e-05
6.47003e-05
9.08285e-05
0.000111111
0.000144364
0.000171817
0.000172114
0.000172313
0.000147527
0.000127513
0.000123584
0.000128706
0.000137693
0.000148561
0.000160465
0.000172286
0.000182709
0.00018794
0.000189466
0.000190622
0.000191385
0.000191751
0.000191738
0.000191379
0.000190728
0.000189865
0.00017372
0.00013183
9.28879e-05
5.93635e-05
3.36232e-05
2.00159e-05
1.73223e-05
3.91398e-06
6.62131e-07
4.65696e-05
6.81956e-05
7.74549e-05
8.76676e-05
0.000104405
0.000127944
0.000146735
0.000145414
0.000127891
0.000107513
9.19959e-05
8.25176e-05
7.78873e-05
7.69702e-05
7.92501e-05
8.42821e-05
9.07523e-05
9.63852e-05
9.96239e-05
0.000100849
0.000101116
0.00010129
0.000102266
0.000105881
0.000114937
0.000129858
0.000141523
0.000131585
9.18282e-05
4.76134e-05
2.26625e-05
1.41758e-05
1.91842e-05
4.90894e-06
6.87402e-07
5.67871e-05
6.3197e-05
5.85847e-05
5.7376e-05
6.40413e-05
7.59082e-05
8.48489e-05
8.49611e-05
7.83017e-05
6.969e-05
6.18897e-05
5.56051e-05
5.07165e-05
4.6954e-05
4.41475e-05
4.24017e-05
4.22804e-05
4.47697e-05
5.08164e-05
6.02228e-05
7.03151e-05
7.70658e-05
7.82389e-05
7.46168e-05
6.92506e-05
6.3738e-05
5.76881e-05
5.32788e-05
5.60487e-05
6.00604e-05
3.6296e-05
1.98134e-05
2.60162e-05
5.37475e-06
3.25098e-07
1.97674e-05
2.07837e-05
2.31101e-05
2.90055e-05
3.88493e-05
5.22659e-05
6.65685e-05
7.72964e-05
8.21092e-05
8.19976e-05
7.91617e-05
7.52674e-05
7.10801e-05
6.68405e-05
6.2576e-05
5.82905e-05
5.4142e-05
5.07891e-05
4.97029e-05
5.27672e-05
5.93046e-05
6.23358e-05
5.88238e-05
5.63571e-05
5.3572e-05
4.69779e-05
4.14402e-05
3.80972e-05
3.75671e-05
3.87546e-05
3.21815e-05
1.72969e-05
1.7891e-05
5.44794e-06
4.79279e-07
8.9036e-06
1.73295e-05
2.7549e-05
4.07152e-05
5.76187e-05
7.81009e-05
9.78916e-05
0.000108773
0.000108161
0.000101353
9.40025e-05
8.85398e-05
8.4885e-05
8.2332e-05
8.04745e-05
7.88532e-05
7.65357e-05
7.23331e-05
6.5992e-05
5.89438e-05
5.25687e-05
4.79807e-05
4.51128e-05
4.2608e-05
4.48577e-05
6.36855e-05
9.30287e-05
6.24888e-05
3.06011e-05
2.13093e-05
2.03018e-05
2.15974e-05
3.57743e-05
6.88809e-06
2.60044e-06
1.4979e-05
4.05225e-05
8.56696e-05
0.000125583
0.00011753
8.62495e-05
6.27654e-05
5.17554e-05
4.92368e-05
5.2135e-05
5.91823e-05
7.01722e-05
8.50242e-05
0.000104208
0.000129502
0.000161989
0.000197519
0.000199139
0.000198709
0.000179986
0.000146958
0.000125782
0.000113764
0.000103471
9.23799e-05
8.4763e-05
7.82668e-05
5.64282e-05
2.77149e-05
1.54447e-05
1.28013e-05
1.84273e-05
5.61465e-05
7.91909e-06
5.32348e-06
3.71687e-05
0.000112008
9.68468e-05
7.30325e-05
4.74994e-05
3.162e-05
2.75437e-05
3.64628e-05
6.66007e-05
0.000116985
0.000169084
0.000200694
0.000191524
0.000163886
0.000140849
0.000125636
0.000114479
0.000104542
9.55282e-05
8.87914e-05
8.67107e-05
9.16292e-05
0.00010283
0.000109098
9.3987e-05
6.7539e-05
4.73902e-05
3.29694e-05
2.04469e-05
1.42584e-05
1.64587e-05
3.42219e-05
6.52392e-05
8.24553e-06
4.87802e-06
2.9478e-05
9.08741e-05
0.000125811
0.00010427
6.55378e-05
4.33829e-05
3.54039e-05
3.85739e-05
5.64609e-05
9.17158e-05
0.000127094
0.000146995
0.000157709
0.000166256
0.000174416
0.000181056
0.000183395
0.000177601
0.000160565
0.000133733
0.00010459
8.151e-05
6.80306e-05
6.33125e-05
6.44456e-05
6.53378e-05
5.83976e-05
4.4041e-05
2.80107e-05
1.72036e-05
1.54836e-05
2.88874e-05
6.15746e-05
7.3923e-06
4.79583e-06
3.01884e-05
0.000111077
0.000120375
8.26207e-05
5.61591e-05
4.39498e-05
3.79916e-05
3.58496e-05
4.03935e-05
5.77897e-05
9.41129e-05
0.000141531
0.000180593
0.000207156
0.000224323
0.00022421
0.000222989
0.000220568
0.000216916
0.000212147
0.000190578
0.000144356
0.000100712
7.15037e-05
5.53873e-05
4.82321e-05
4.64882e-05
4.5839e-05
3.98856e-05
2.64931e-05
1.63385e-05
2.07354e-05
7.28459e-05
6.76383e-06
5.04012e-06
3.06648e-05
0.000114585
0.000100946
6.12969e-05
4.34196e-05
3.67616e-05
3.29724e-05
3.26825e-05
4.3741e-05
7.93565e-05
0.000138727
0.000203998
0.000221788
0.00022454
0.000226597
0.000227743
0.000227799
0.00022661
0.000224057
0.00022008
0.000214747
0.000208386
0.000165176
0.000113094
7.38421e-05
4.82282e-05
3.27426e-05
2.41874e-05
1.98765e-05
1.70565e-05
1.4786e-05
2.21768e-05
7.1876e-05
7.41286e-06
5.88525e-06
3.59042e-05
0.000138236
7.59428e-05
4.41079e-05
3.74059e-05
4.14346e-05
4.70443e-05
3.99018e-05
3.26818e-05
4.08854e-05
8.44516e-05
0.00017653
0.000213618
0.00021786
0.000221766
0.000225037
0.00022743
0.000228742
0.000228808
0.000227481
0.00022465
0.000220289
0.000214542
0.00020784
0.000167995
0.000105876
5.82144e-05
2.99385e-05
1.7071e-05
1.23799e-05
1.2027e-05
2.1651e-05
6.98781e-05
7.77627e-06
7.14331e-06
8.2052e-05
6.02591e-05
2.52252e-05
1.73448e-05
1.83132e-05
2.81827e-05
6.04373e-05
0.000101487
0.000160422
0.00021241
0.00019888
0.000190948
0.00020126
0.000219209
0.000228006
0.000230638
0.000232792
0.000234284
0.000234934
0.000234554
0.000232961
0.000230006
0.000225623
0.00021993
0.000210685
0.000151454
8.95007e-05
4.17428e-05
1.85819e-05
1.13753e-05
1.17894e-05
2.28744e-05
6.98969e-05
7.78479e-06
6.94578e-06
9.21571e-05
3.21299e-05
1.80904e-05
2.27408e-05
4.14325e-05
5.29855e-05
7.11502e-05
0.000107368
0.00014257
0.000164917
0.000183639
0.00020308
0.000216941
0.000220595
0.000224213
0.000227682
0.000230882
0.000233669
0.000235882
0.00023732
0.000237747
0.00023692
0.000234629
0.00023076
0.000225421
0.000204382
0.00012978
5.80437e-05
2.10016e-05
1.02129e-05
1.08171e-05
2.48581e-05
6.51677e-05
7.81728e-06
6.89733e-06
8.79152e-05
4.32204e-05
2.27956e-05
2.27294e-05
3.62516e-05
5.67244e-05
7.7658e-05
0.000104547
0.000141434
0.000180077
0.000203868
0.00020678
0.000209893
0.000213165
0.000216568
0.000220061
0.000223579
0.000227027
0.000230265
0.000233111
0.000235322
0.000236594
0.000236596
0.000235026
0.000231711
0.000217761
0.000143851
6.84927e-05
2.4932e-05
1.09762e-05
1.04638e-05
2.62291e-05
5.18285e-05
7.47619e-06
6.25025e-06
5.38897e-05
7.6267e-05
3.79078e-05
2.38557e-05
2.18585e-05
2.69474e-05
4.11424e-05
6.93678e-05
0.000104733
0.000128555
0.00014834
0.000173206
0.000198254
0.000205336
0.000208213
0.000211212
0.000214353
0.000217634
0.000221007
0.000224364
0.000227532
0.000230273
0.000232267
0.000233147
0.000214621
0.000174074
0.000130183
8.23013e-05
3.88991e-05
1.6833e-05
1.19535e-05
2.2221e-05
5.5209e-05
6.48218e-06
5.03229e-06
3.1678e-05
7.96422e-05
9.82722e-05
6.72871e-05
3.63994e-05
2.44827e-05
2.04527e-05
2.14169e-05
3.02894e-05
5.55221e-05
9.65687e-05
0.000123385
0.000141944
0.000164188
0.000186969
0.000204148
0.000206555
0.000209038
0.000211654
0.000214423
0.000217296
0.000220139
0.000220782
0.000200789
0.000176247
0.000150006
0.000121234
8.91928e-05
5.52189e-05
2.81175e-05
1.65457e-05
2.04034e-05
6.51068e-05
5.76805e-06
4.82731e-06
2.70113e-05
7.69244e-05
0.00010499
0.0001085
9.37364e-05
6.04707e-05
3.62647e-05
2.38578e-05
1.78622e-05
1.71709e-05
2.4777e-05
4.71959e-05
7.43087e-05
9.70177e-05
0.000125714
0.000162002
0.000196503
0.000206055
0.000208206
0.000210309
0.000212408
0.000214501
0.000216526
0.000195648
0.000172339
0.000149529
0.000125333
9.78297e-05
6.6765e-05
3.78999e-05
2.15194e-05
2.11795e-05
5.2222e-05
5.50509e-06
4.66885e-06
2.62642e-05
8.05199e-05
0.000125284
0.000135269
0.00013409
0.000129394
0.000107041
6.47039e-05
3.52165e-05
2.07721e-05
1.48316e-05
1.57549e-05
2.83918e-05
5.40581e-05
6.62403e-05
8.48813e-05
0.000123781
0.000177796
0.000209126
0.000211649
0.000213923
0.000215982
0.000217855
0.000195822
0.000169579
0.000147869
0.000128193
0.00010674
8.00048e-05
4.89363e-05
2.63436e-05
2.20615e-05
4.49664e-05
5.4742e-06
5.18589e-06
2.44858e-05
7.09498e-05
0.000107251
0.000109279
9.39415e-05
7.67571e-05
7.00853e-05
7.57751e-05
8.03192e-05
5.31182e-05
2.64712e-05
1.61571e-05
1.49365e-05
2.329e-05
4.68022e-05
6.36296e-05
6.86578e-05
8.68829e-05
0.000130923
0.000197017
0.00021531
0.00021868
0.000221699
0.000224346
0.000190976
0.000158012
0.000133688
0.000114084
9.29514e-05
6.41444e-05
3.41555e-05
2.35433e-05
4.07928e-05
5.76949e-06
5.25026e-06
2.36074e-05
6.76254e-05
0.000111015
0.00012155
0.000109782
8.29756e-05
5.81674e-05
4.61867e-05
4.56636e-05
5.07691e-05
4.17823e-05
2.36184e-05
1.58728e-05
1.80316e-05
3.68244e-05
7.72157e-05
8.03894e-05
7.52083e-05
8.62458e-05
0.000120048
0.000177124
0.000219798
0.000223873
0.000227517
0.000197955
0.00016069
0.000130664
0.000108611
8.96677e-05
6.55363e-05
3.67873e-05
2.52325e-05
4.45722e-05
6.48923e-06
5.28052e-06
2.14427e-05
6.20195e-05
0.00010773
0.000113323
9.30888e-05
6.88738e-05
5.43613e-05
4.76981e-05
4.52406e-05
4.5632e-05
4.35494e-05
3.12928e-05
1.98769e-05
1.67945e-05
2.52131e-05
6.49675e-05
0.000134738
0.000121284
0.000103042
0.000104049
0.000123685
0.000161319
0.000203422
0.000222855
0.000209618
0.000175471
0.00013637
0.000102057
7.4624e-05
5.12655e-05
3.19636e-05
2.72856e-05
5.75689e-05
7.23887e-06
5.97685e-06
2.40028e-05
7.24041e-05
0.000115023
0.000105281
7.04919e-05
4.57105e-05
3.61911e-05
3.56322e-05
4.0227e-05
4.62805e-05
4.76086e-05
3.82368e-05
2.5903e-05
2.03029e-05
2.55355e-05
6.08128e-05
0.000180001
0.000184758
0.00019025
0.000167752
0.000153236
0.000158025
0.000178139
0.000200868
0.000205207
0.000182449
0.00014251
9.93465e-05
6.3224e-05
3.93009e-05
2.73665e-05
3.03791e-05
7.03358e-05
7.66864e-06
6.69767e-06
2.76606e-05
9.12847e-05
0.000120568
8.08381e-05
4.43765e-05
3.14397e-05
3.07167e-05
3.5158e-05
3.99921e-05
4.12223e-05
3.76863e-05
3.18872e-05
2.72741e-05
2.80303e-05
4.3244e-05
0.000101567
0.000181783
0.00018493
0.000188796
0.000193182
0.000197969
0.000203068
0.000208377
0.000213725
0.000210862
0.000186424
0.000145421
9.88706e-05
5.89241e-05
3.44875e-05
2.57675e-05
3.41439e-05
7.03531e-05
7.77338e-06
7.25452e-06
3.52746e-05
0.000117562
9.87418e-05
4.72369e-05
2.5401e-05
2.12297e-05
2.73461e-05
3.9574e-05
4.55948e-05
4.00262e-05
3.22973e-05
2.92362e-05
3.28518e-05
4.40316e-05
6.37008e-05
9.30047e-05
0.00013131
0.000174839
0.000188595
0.000193609
0.000198927
0.000204423
0.000210011
0.00021556
0.000212177
0.000185805
0.000146545
0.00010139
6.1233e-05
3.56073e-05
2.69436e-05
3.77731e-05
6.60301e-05
7.72573e-06
7.37733e-06
4.10326e-05
0.000110001
7.29486e-05
3.55563e-05
2.10317e-05
1.88079e-05
2.39234e-05
3.05678e-05
3.33948e-05
3.41123e-05
3.56973e-05
4.00596e-05
4.6965e-05
5.48261e-05
6.42648e-05
7.83503e-05
0.000101133
0.0001346
0.000172715
0.000202267
0.000208013
0.000212851
0.000215816
0.000207283
0.000194144
0.000172576
0.000140124
0.000100954
6.441e-05
3.95627e-05
3.08134e-05
4.31004e-05
6.46947e-05
7.67173e-06
6.95203e-06
4.00533e-05
0.00010661
8.84662e-05
4.91691e-05
2.57884e-05
1.78576e-05
1.92291e-05
2.42667e-05
2.61849e-05
2.75948e-05
3.22705e-05
3.89409e-05
4.28498e-05
4.54343e-05
5.31553e-05
7.01464e-05
9.52972e-05
0.000123726
0.000151449
0.000174031
0.000187812
0.000192638
0.000190838
0.000184558
0.00017382
0.000156409
0.000130272
9.75999e-05
6.61074e-05
4.42541e-05
3.71471e-05
5.17724e-05
6.38802e-05
7.63208e-06
6.82753e-06
3.78307e-05
0.000106625
0.000111234
7.70321e-05
3.69663e-05
1.83734e-05
1.30567e-05
1.54491e-05
2.24297e-05
2.84602e-05
3.27417e-05
3.62176e-05
3.50474e-05
3.14149e-05
3.28159e-05
4.55437e-05
7.74513e-05
0.000124344
0.0001539
0.00016441
0.000168024
0.00016842
0.000165773
0.000160258
0.000151525
0.000138024
0.00011809
9.27332e-05
6.74868e-05
4.96971e-05
4.53761e-05
6.24258e-05
6.17967e-05
7.63644e-06
6.53976e-06
3.53208e-05
0.000104458
0.000124475
0.000116943
8.59369e-05
4.12415e-05
1.93134e-05
1.2553e-05
1.31748e-05
1.92637e-05
2.90995e-05
3.76521e-05
3.92747e-05
3.26825e-05
2.45328e-05
2.26713e-05
3.05657e-05
5.30582e-05
9.5437e-05
0.000136781
0.000152797
0.000152972
0.000147226
0.00013937
0.00013038
0.00011958
0.000105422
8.75681e-05
6.91219e-05
5.58852e-05
5.43522e-05
7.17059e-05
5.99416e-05
7.80551e-06
6.48128e-06
3.38095e-05
0.000108644
0.000131798
0.000120137
0.000104394
8.36611e-05
4.52875e-05
2.09666e-05
1.25219e-05
1.2095e-05
1.8178e-05
3.12631e-05
4.53431e-05
4.90356e-05
4.03189e-05
2.69496e-05
1.93587e-05
2.09406e-05
3.27461e-05
5.78004e-05
9.40735e-05
0.0001233
0.000133144
0.000129437
0.000119528
0.000107558
9.50154e-05
8.18276e-05
6.89549e-05
6.0159e-05
6.12704e-05
7.78318e-05
6.02671e-05
8.16384e-06
6.49395e-06
3.2166e-05
0.000101478
0.000130814
0.000120874
9.90141e-05
8.1379e-05
6.89263e-05
4.34435e-05
2.07124e-05
1.19939e-05
1.17892e-05
1.93668e-05
3.81481e-05
6.19163e-05
6.87598e-05
5.59906e-05
3.58489e-05
2.12816e-05
1.65857e-05
2.13978e-05
3.62849e-05
6.15964e-05
9.15958e-05
0.000111466
0.000113378
0.000103113
8.88909e-05
7.60053e-05
6.63015e-05
6.13535e-05
6.52004e-05
8.19247e-05
6.1591e-05
8.4697e-06
6.55544e-06
3.14031e-05
9.77782e-05
0.000128463
0.000118964
9.44312e-05
7.11058e-05
5.83358e-05
5.24242e-05
3.60667e-05
1.83285e-05
1.18433e-05
1.40722e-05
2.65018e-05
5.50777e-05
8.85325e-05
9.38576e-05
7.23263e-05
4.43301e-05
2.40822e-05
1.48992e-05
1.55274e-05
2.55882e-05
4.47579e-05
7.09218e-05
9.40007e-05
9.85463e-05
8.64311e-05
7.15387e-05
6.23362e-05
6.04347e-05
6.75004e-05
8.54658e-05
5.97655e-05
8.70856e-06
6.746e-06
3.23808e-05
0.000102214
0.00012884
0.000115884
8.94196e-05
6.54008e-05
4.97635e-05
4.08004e-05
3.39924e-05
2.28233e-05
1.42748e-05
1.41025e-05
2.56845e-05
6.11919e-05
0.00012091
0.000144744
0.000120407
8.16364e-05
4.72429e-05
2.45739e-05
1.37442e-05
1.26403e-05
2.03758e-05
3.62493e-05
5.87701e-05
8.00448e-05
8.2687e-05
7.02558e-05
6.07006e-05
6.04566e-05
7.03186e-05
8.84954e-05
5.1255e-05
8.64219e-06
6.79505e-06
3.29655e-05
0.000105102
0.00012699
0.000105256
7.47687e-05
5.59098e-05
4.68374e-05
4.00802e-05
3.21713e-05
2.35012e-05
1.66085e-05
1.59782e-05
2.74043e-05
6.56562e-05
0.000136989
0.000170704
0.000162168
0.00012283
7.9941e-05
4.54188e-05
2.35367e-05
1.3076e-05
1.16168e-05
1.79188e-05
3.1188e-05
5.02199e-05
6.83619e-05
7.10068e-05
6.42241e-05
6.35827e-05
7.31514e-05
8.71462e-05
4.03601e-05
8.24047e-06
6.88283e-06
3.38839e-05
0.000109457
0.000121401
8.94522e-05
5.81346e-05
4.32299e-05
3.81436e-05
3.53912e-05
3.03506e-05
2.38168e-05
1.9274e-05
2.06454e-05
3.58449e-05
8.35431e-05
0.000161871
0.000181384
0.000180122
0.00015989
0.000116962
7.57826e-05
4.40399e-05
2.37166e-05
1.35933e-05
1.14757e-05
1.5941e-05
2.62968e-05
4.21177e-05
5.9543e-05
6.82743e-05
7.06715e-05
7.69333e-05
8.12575e-05
3.27863e-05
7.76155e-06
6.92206e-06
3.45514e-05
0.00011125
0.000114366
7.59696e-05
4.85033e-05
3.83881e-05
3.66681e-05
3.59798e-05
3.19582e-05
2.59004e-05
2.20569e-05
2.44278e-05
4.01101e-05
8.35485e-05
0.000152994
0.000190815
0.000190834
0.0001733
0.000142316
0.000108711
7.58285e-05
4.75441e-05
2.74328e-05
1.61272e-05
1.2131e-05
1.39309e-05
2.09872e-05
3.40599e-05
5.24863e-05
6.83192e-05
7.6587e-05
7.46633e-05
2.97249e-05
7.512e-06
7.04895e-06
3.56941e-05
0.000112578
0.000103431
6.21039e-05
3.87173e-05
3.15275e-05
3.19352e-05
3.38209e-05
3.29515e-05
2.96009e-05
2.74905e-05
3.11919e-05
4.75651e-05
8.66231e-05
0.000143231
0.000181614
0.000185899
0.000171686
0.000151916
0.000130089
0.00010621
8.06535e-05
5.57511e-05
3.51628e-05
2.13329e-05
1.42513e-05
1.28119e-05
1.66444e-05
2.75209e-05
4.69003e-05
6.56916e-05
6.94887e-05
2.98795e-05
7.55222e-06
7.12823e-06
3.70457e-05
0.000111642
9.52693e-05
5.55018e-05
3.49842e-05
2.9503e-05
3.16569e-05
3.52953e-05
3.52844e-05
3.25003e-05
3.12852e-05
3.58139e-05
5.14251e-05
8.42021e-05
0.000129347
0.000163662
0.000173473
0.000166836
0.000154214
0.000139857
0.00012423
0.000106757
8.70905e-05
6.58799e-05
4.53661e-05
2.86804e-05
1.7812e-05
1.29208e-05
1.41954e-05
2.44166e-05
4.6225e-05
6.53652e-05
3.19427e-05
7.72782e-06
7.15173e-06
3.8096e-05
0.000108759
8.97991e-05
5.21255e-05
3.16992e-05
2.52844e-05
2.6981e-05
3.25887e-05
3.6803e-05
3.76408e-05
3.83781e-05
4.37795e-05
5.86295e-05
8.62001e-05
0.000121757
0.000150666
0.000163075
0.000161979
0.000154395
0.000144498
0.000133571
0.000121535
0.000107868
9.19751e-05
7.35603e-05
5.34e-05
3.42035e-05
1.97834e-05
1.25447e-05
1.40707e-05
2.89384e-05
5.96266e-05
3.43905e-05
7.85314e-06
7.06282e-06
3.82e-05
0.000106646
9.46476e-05
6.00511e-05
3.58204e-05
2.56118e-05
2.46133e-05
2.93003e-05
3.49721e-05
3.83515e-05
4.12943e-05
4.78051e-05
6.17007e-05
8.49335e-05
0.000114218
0.000140082
0.000154576
0.000157664
0.000153783
0.000146724
0.000138304
0.00012901
0.000118663
0.000106709
9.23173e-05
7.45652e-05
5.34049e-05
3.20313e-05
1.69454e-05
1.21652e-05
2.08474e-05
5.31842e-05
3.60394e-05
7.84492e-06
6.9382e-06
3.71176e-05
0.000105236
0.000103733
7.43718e-05
4.43512e-05
2.73565e-05
2.13325e-05
2.29552e-05
2.977e-05
3.77582e-05
4.44195e-05
5.21216e-05
6.49406e-05
8.50014e-05
0.00011035
0.000134265
0.000149813
0.00015533
0.000153593
0.000147932
0.000140418
0.000131952
0.000122737
0.000112506
0.000100525
8.55507e-05
6.61871e-05
4.32059e-05
2.33091e-05
1.40733e-05
1.87262e-05
4.9055e-05
3.711e-05
7.74961e-06
6.8307e-06
3.61538e-05
0.000105993
0.000113455
9.3478e-05
6.41503e-05
3.88376e-05
2.46995e-05
2.003e-05
2.23443e-05
2.97008e-05
3.94016e-05
5.0039e-05
6.34913e-05
8.20918e-05
0.000105318
0.0001284
0.000145036
0.00015246
0.000152284
0.000147446
0.000140144
0.000131565
0.000122246
0.000112288
0.000101319
8.83051e-05
7.15675e-05
5.03705e-05
2.94336e-05
1.76588e-05
1.98026e-05
4.7747e-05
3.84798e-05
7.65871e-06
6.77648e-06
3.53033e-05
0.000106859
0.000118936
0.000101987
7.81021e-05
5.41195e-05
3.41733e-05
2.25746e-05
1.90996e-05
2.23595e-05
3.12802e-05
4.40188e-05
5.94452e-05
7.83483e-05
0.000100825
0.000123521
0.000140821
0.000149453
0.000150311
0.000146034
0.000138809
0.000129907
0.000120018
0.000109519
9.84595e-05
8.62988e-05
7.16849e-05
5.33718e-05
3.40723e-05
2.18152e-05
2.29266e-05
4.93576e-05
4.03038e-05
7.62835e-06
6.79333e-06
3.51219e-05
0.000108114
0.000122669
0.000106123
8.45355e-05
6.62956e-05
4.87379e-05
3.1889e-05
2.16071e-05
1.90281e-05
2.3288e-05
3.38827e-05
4.99362e-05
7.03478e-05
9.37903e-05
0.000117058
0.000135126
0.000144765
0.000146595
0.000143086
0.000136347
0.000127574
0.000117413
0.000106308
9.45921e-05
8.22741e-05
6.87087e-05
5.29784e-05
3.65992e-05
2.57177e-05
2.72864e-05
5.36274e-05
4.20106e-05
7.65584e-06
6.84198e-06
3.49766e-05
0.000108177
0.000123826
0.000105486
8.1652e-05
6.50699e-05
5.44503e-05
4.25551e-05
2.91016e-05
2.10217e-05
2.03139e-05
2.67808e-05
4.0472e-05
6.08159e-05
8.54819e-05
0.000109981
0.00012881
0.000138946
0.000141329
0.000138548
0.000132622
0.000124533
0.000114694
0.000103411
9.10779e-05
7.80926e-05
6.46077e-05
5.05743e-05
3.72103e-05
2.88531e-05
3.21597e-05
5.95981e-05
4.29165e-05
7.70933e-06
6.91573e-06
3.53254e-05
0.000109582
0.000124246
0.000104287
7.9628e-05
6.35327e-05
5.50706e-05
4.80286e-05
3.71749e-05
2.61564e-05
2.10923e-05
2.34341e-05
3.35157e-05
5.17308e-05
7.63001e-05
0.000101778
0.000121326
0.000131654
0.000134249
0.000132095
0.00012719
0.000120266
0.000111421
0.000100633
8.81519e-05
7.45547e-05
6.06888e-05
4.75542e-05
3.66619e-05
3.11241e-05
3.69829e-05
6.60483e-05
4.27331e-05
7.75734e-06
6.97197e-06
3.54717e-05
0.000110229
0.000122162
9.85242e-05
7.30502e-05
5.88896e-05
5.32058e-05
4.96674e-05
4.27477e-05
3.22266e-05
2.44512e-05
2.34458e-05
3.02591e-05
4.563e-05
6.85479e-05
9.36469e-05
0.000113172
0.000123272
0.000125729
0.000123972
0.000120133
0.000114671
0.000107291
9.76169e-05
8.56153e-05
7.18466e-05
5.76299e-05
4.4892e-05
3.57074e-05
3.26497e-05
4.12377e-05
7.17719e-05
4.1502e-05
7.77537e-06
7.01615e-06
3.57225e-05
0.000110678
0.000118714
9.16008e-05
6.63824e-05
5.46603e-05
5.17511e-05
5.08463e-05
4.63291e-05
3.72121e-05
2.84695e-05
2.51788e-05
2.93992e-05
4.21853e-05
6.30463e-05
8.69815e-05
0.000105824
0.000115204
0.000117091
0.000115317
0.000112163
0.00010805
0.000102337
9.42022e-05
8.3235e-05
6.98431e-05
5.5593e-05
4.30757e-05
3.49403e-05
3.37502e-05
4.47924e-05
7.60924e-05
3.95073e-05
7.74944e-06
7.03248e-06
3.57049e-05
0.000110123
0.000114464
8.42266e-05
5.94619e-05
4.97153e-05
4.92772e-05
5.13918e-05
4.96727e-05
4.20127e-05
3.28903e-05
2.79784e-05
3.01044e-05
4.05575e-05
5.91442e-05
8.13172e-05
9.90125e-05
0.000107555
0.000108732
0.000106599
0.000103741
0.000100679
9.65921e-05
9.02507e-05
8.08041e-05
6.83786e-05
5.45654e-05
4.23226e-05
3.4771e-05
3.47749e-05
4.76732e-05
7.87648e-05
3.72472e-05
7.68145e-06
7.04655e-06
3.59174e-05
0.000110098
0.000110945
7.85439e-05
5.46296e-05
4.63562e-05
4.75022e-05
5.16955e-05
5.23626e-05
4.63466e-05
3.73278e-05
3.12991e-05
3.17074e-05
4.01387e-05
5.66681e-05
7.71601e-05
9.37204e-05
0.000101309
0.000101509
9.85666e-05
9.54302e-05
9.28986e-05
9.01598e-05
8.56795e-05
7.81417e-05
6.72716e-05
5.44624e-05
4.2751e-05
3.55958e-05
3.6301e-05
5.03755e-05
8.02415e-05
3.5329e-05
7.59548e-06
7.0487e-06
3.60384e-05
0.000110083
0.000108309
7.40824e-05
5.07311e-05
4.33961e-05
4.5685e-05
5.18287e-05
5.51099e-05
5.10295e-05
4.22367e-05
3.51293e-05
3.38697e-05
4.0255e-05
5.46381e-05
7.34435e-05
8.91001e-05
9.60972e-05
9.54825e-05
9.15476e-05
8.76492e-05
8.50359e-05
8.31585e-05
8.03956e-05
7.50206e-05
6.62472e-05
5.50535e-05
4.4295e-05
3.7633e-05
3.88599e-05
5.3601e-05
8.14271e-05
3.41638e-05
7.51808e-06
7.06726e-06
3.65062e-05
0.000111193
0.000106493
7.06009e-05
4.80077e-05
4.14185e-05
4.43534e-05
5.17761e-05
5.7353e-05
5.5579e-05
4.75462e-05
3.95851e-05
3.67222e-05
4.11583e-05
5.34876e-05
7.07228e-05
8.56912e-05
9.23631e-05
9.10797e-05
8.60432e-05
8.09844e-05
7.76631e-05
7.59769e-05
7.44897e-05
7.12557e-05
6.49548e-05
5.59594e-05
4.67022e-05
4.08899e-05
4.27744e-05
5.79475e-05
8.31824e-05
3.38089e-05
7.46658e-06
7.09031e-06
3.69817e-05
0.000112928
0.000104136
6.64779e-05
4.54256e-05
4.00037e-05
4.36949e-05
5.2286e-05
6.00097e-05
6.06065e-05
5.35477e-05
4.47721e-05
4.01678e-05
4.24951e-05
5.26108e-05
6.8216e-05
8.27537e-05
8.96565e-05
8.82165e-05
8.2286e-05
7.59013e-05
7.13539e-05
6.91008e-05
6.81553e-05
6.66741e-05
6.29479e-05
5.66302e-05
4.94877e-05
4.50501e-05
4.78853e-05
6.33036e-05
8.5537e-05
3.39798e-05
7.43937e-06
7.16065e-06
3.80403e-05
0.000115776
9.89924e-05
6.0341e-05
4.25663e-05
3.93086e-05
4.41846e-05
5.37978e-05
6.31625e-05
6.59032e-05
6.01235e-05
5.08693e-05
4.46146e-05
4.48528e-05
5.27638e-05
6.66572e-05
8.07028e-05
8.80401e-05
8.68438e-05
8.03522e-05
7.27316e-05
6.67195e-05
6.33036e-05
6.2047e-05
6.15151e-05
5.99603e-05
5.64409e-05
5.19024e-05
4.93943e-05
5.34831e-05
6.8883e-05
8.77977e-05
3.42322e-05
7.42544e-06
7.26752e-06
3.95993e-05
0.000118323
8.86868e-05
5.19621e-05
3.92775e-05
3.94446e-05
4.65669e-05
5.76884e-05
6.8293e-05
7.2348e-05
6.74228e-05
5.77104e-05
4.9827e-05
4.78987e-05
5.34462e-05
6.53596e-05
7.87097e-05
8.66735e-05
8.62624e-05
7.97721e-05
7.12746e-05
6.38672e-05
5.90095e-05
5.67693e-05
5.62424e-05
5.6014e-05
5.49233e-05
5.31581e-05
5.30003e-05
5.85721e-05
7.36779e-05
8.9102e-05
3.41554e-05
7.4092e-06
7.43759e-06
4.24391e-05
0.000118842
7.37002e-05
4.31717e-05
3.64587e-05
4.0993e-05
5.14573e-05
6.44604e-05
7.55576e-05
7.9699e-05
7.496e-05
6.49241e-05
5.57719e-05
5.19117e-05
5.51678e-05
6.48982e-05
7.70825e-05
8.53852e-05
8.59892e-05
8.00397e-05
7.11803e-05
6.26953e-05
5.64469e-05
5.29157e-05
5.1644e-05
5.16917e-05
5.21051e-05
5.26836e-05
5.48983e-05
6.20484e-05
7.6825e-05
8.90533e-05
3.35931e-05
7.38097e-06
7.59872e-06
4.62357e-05
0.00011301
5.8014e-05
3.58478e-05
3.48983e-05
4.45916e-05
5.95192e-05
7.45452e-05
8.51677e-05
8.80859e-05
8.26235e-05
7.20608e-05
6.18433e-05
5.62459e-05
5.72465e-05
6.45853e-05
7.51517e-05
8.34476e-05
8.52203e-05
8.03769e-05
7.17953e-05
6.27273e-05
5.5378e-05
5.0601e-05
4.82575e-05
4.77845e-05
4.86293e-05
5.06616e-05
5.48346e-05
6.35378e-05
7.82661e-05
8.78636e-05
3.25862e-05
7.3311e-06
7.70865e-06
5.0439e-05
0.000101248
4.68063e-05
3.13521e-05
3.50257e-05
4.99955e-05
6.9209e-05
8.51334e-05
9.42443e-05
9.55017e-05
8.93503e-05
7.86285e-05
6.78393e-05
6.0881e-05
5.98066e-05
6.46841e-05
7.32358e-05
8.10091e-05
8.37917e-05
8.03967e-05
7.26656e-05
6.35358e-05
5.54533e-05
4.96559e-05
4.62689e-05
4.49254e-05
4.53748e-05
4.78088e-05
5.31471e-05
6.31856e-05
7.83229e-05
8.61031e-05
3.13704e-05
7.26126e-06
7.68131e-06
5.24432e-05
9.11519e-05
4.12891e-05
2.88751e-05
3.47558e-05
5.34614e-05
7.63251e-05
9.34014e-05
0.000101837
0.000102214
9.57591e-05
8.50205e-05
7.37879e-05
6.55996e-05
6.25377e-05
6.49451e-05
7.12543e-05
7.80724e-05
8.15886e-05
7.98209e-05
7.3453e-05
6.48017e-05
5.63732e-05
4.98071e-05
4.55549e-05
4.33654e-05
4.30837e-05
4.51665e-05
5.08177e-05
6.17719e-05
7.76823e-05
8.445e-05
3.02504e-05
7.18412e-06
7.56156e-06
5.11194e-05
9.10079e-05
4.27557e-05
2.82652e-05
3.21381e-05
4.98276e-05
7.43822e-05
9.43293e-05
0.000104909
0.000106724
0.000101416
9.14093e-05
8.00815e-05
7.08051e-05
6.58007e-05
6.57165e-05
6.95743e-05
7.49417e-05
7.86615e-05
7.83761e-05
7.36946e-05
6.60526e-05
5.77279e-05
5.06824e-05
4.57888e-05
4.29642e-05
4.20129e-05
4.34511e-05
4.87859e-05
6.0096e-05
7.68955e-05
8.36142e-05
2.95475e-05
7.12561e-06
7.37391e-06
4.74414e-05
9.7645e-05
5.18889e-05
2.97651e-05
2.76803e-05
3.94392e-05
6.24559e-05
8.71598e-05
0.000103711
0.000109752
0.000106982
9.82205e-05
8.69484e-05
7.66366e-05
6.97414e-05
6.72262e-05
6.85724e-05
7.21186e-05
7.54421e-05
7.62189e-05
7.32696e-05
6.7039e-05
5.92569e-05
5.20039e-05
4.6631e-05
4.33791e-05
4.2017e-05
4.29164e-05
4.76997e-05
5.88889e-05
7.64294e-05
8.4019e-05
2.94434e-05
7.10797e-06
7.21759e-06
4.46832e-05
0.000103943
7.20685e-05
3.79512e-05
2.63432e-05
2.92673e-05
4.44311e-05
6.88311e-05
9.25984e-05
0.000106862
0.000109989
0.000104475
9.42124e-05
8.32304e-05
7.45574e-05
6.96455e-05
6.84097e-05
6.97926e-05
7.20641e-05
7.32298e-05
7.17213e-05
6.71077e-05
6.03347e-05
5.32699e-05
4.76252e-05
4.41075e-05
4.26097e-05
4.32991e-05
4.768e-05
5.85646e-05
7.65858e-05
8.56327e-05
2.99118e-05
7.13805e-06
7.08102e-06
4.36541e-05
0.000107822
9.53506e-05
5.75275e-05
3.22562e-05
2.51483e-05
3.04042e-05
4.70793e-05
7.21408e-05
9.52966e-05
0.000107709
0.000108317
0.000100794
9.00396e-05
8.00539e-05
7.30075e-05
6.93071e-05
6.83957e-05
6.91332e-05
6.99847e-05
6.93457e-05
6.619e-05
6.06518e-05
5.41054e-05
4.83873e-05
4.46889e-05
4.32109e-05
4.40117e-05
4.83336e-05
5.90164e-05
7.72593e-05
8.77024e-05
3.06257e-05
7.19514e-06
7.00666e-06
4.42821e-05
0.000113187
0.000113157
8.76787e-05
5.09599e-05
2.99508e-05
2.48396e-05
3.11088e-05
4.84486e-05
7.35487e-05
9.57099e-05
0.000106191
0.000104749
9.61811e-05
8.5793e-05
7.69959e-05
7.09892e-05
6.77363e-05
6.66027e-05
6.65351e-05
6.6126e-05
6.40506e-05
5.9749e-05
5.39853e-05
4.84868e-05
4.47652e-05
4.34223e-05
4.45892e-05
4.92576e-05
6.00683e-05
7.8391e-05
8.95111e-05
3.11713e-05
7.24881e-06
6.93927e-06
4.52464e-05
0.000118663
0.000122488
0.000107849
8.05565e-05
4.73251e-05
2.89887e-05
2.50524e-05
3.22267e-05
5.05036e-05
7.56866e-05
9.61943e-05
0.000103998
0.000100448
9.13147e-05
8.15523e-05
7.35812e-05
6.80675e-05
6.48714e-05
6.34082e-05
6.26146e-05
6.1155e-05
5.79763e-05
5.31125e-05
4.79238e-05
4.42006e-05
4.29788e-05
4.4616e-05
4.99413e-05
6.12362e-05
7.95808e-05
9.03012e-05
3.11544e-05
7.268e-06
6.91894e-06
4.6023e-05
0.000122289
0.000125623
0.000113114
9.77943e-05
7.40599e-05
4.48975e-05
2.86305e-05
2.58158e-05
3.42809e-05
5.38951e-05
7.88029e-05
9.6732e-05
0.000101361
9.58984e-05
8.63887e-05
7.69393e-05
6.93051e-05
6.39532e-05
6.07557e-05
5.90501e-05
5.7697e-05
5.53984e-05
5.15648e-05
4.69691e-05
4.33148e-05
4.20857e-05
4.4058e-05
5.01181e-05
6.21561e-05
8.05131e-05
8.97309e-05
3.04913e-05
7.24026e-06
6.90024e-06
4.62457e-05
0.000123258
0.000124166
0.000109144
9.68847e-05
8.72365e-05
6.84842e-05
4.28454e-05
2.86552e-05
2.75309e-05
3.82365e-05
5.98015e-05
8.38234e-05
9.79559e-05
9.87852e-05
9.12973e-05
8.1203e-05
7.17611e-05
6.42839e-05
5.91323e-05
5.605e-05
5.42351e-05
5.24194e-05
4.95634e-05
4.57898e-05
4.24522e-05
4.11969e-05
4.32608e-05
4.98102e-05
6.25124e-05
8.08156e-05
8.79613e-05
2.94148e-05
7.17362e-06
6.91316e-06