/*--------------------------------*- C++ -*----------------------------------*\
| =========                 |                                                 |
| \\      /  F ield         | OpenFOAM: The Open Source CFD Toolbox           |
|  \\    /   O peration     | Version:  v2006                                 |
|   \\  /    A nd           | Website:  www.openfoam.com                      |
|    \\/     M anipulation  |                                                 |
\*---------------------------------------------------------------------------*/
FoamFile
{
    version     2.0;
    format      ascii;
    class       surfaceScalarField;
    location    "10";
    object      phi;
}
// * * * * * * * * * * * * * * * * * * * * * * * * * * * * * * * * * * * * * //

dimensions      [1 0 -1 0 0 0 0];
oriented        oriented;


internalField   nonuniform List<scalar> 
228225
(
-0.000318996
-2.99845e-05
-6.25409e-06
-0.000286963
-2.62522e-05
-5.8086e-06
-0.000255958
-2.52419e-05
-5.78807e-06
-0.000225952
-2.44783e-05
-5.55253e-06
-0.000199186
-2.19729e-05
-4.8166e-06
-0.000175478
-1.95708e-05
-4.15871e-06
-0.000154984
-1.70518e-05
-3.46369e-06
-0.000136842
-1.51697e-05
-2.99292e-06
-0.000120738
-1.3491e-05
-2.63155e-06
-0.000106153
-1.21603e-05
-2.44334e-06
-9.2917e-05
-1.09389e-05
-2.31451e-06
-8.07767e-05
-9.91785e-06
-2.23879e-06
-6.96252e-05
-8.99267e-06
-2.17433e-06
-5.93337e-05
-8.18808e-06
-2.11796e-06
-4.982e-05
-7.46868e-06
-2.0587e-06
-4.10129e-05
-6.82753e-06
-1.99233e-06
-3.2857e-05
-6.2524e-06
-1.91542e-06
-2.53094e-05
-5.73326e-06
-1.82547e-06
-1.83382e-05
-5.26101e-06
-1.72052e-06
-1.19213e-05
-4.82735e-06
-1.59911e-06
-6.04516e-06
-4.42479e-06
-1.46024e-06
-7.03563e-07
-4.0463e-06
-1.3036e-06
4.10424e-06
-3.68546e-06
-1.13017e-06
8.37652e-06
-3.33515e-06
-9.44652e-07
1.2109e-05
-2.98861e-06
-7.51296e-07
1.52932e-05
-2.63705e-06
-5.54588e-07
1.79144e-05
-2.26916e-06
-3.59793e-07
1.9952e-05
-1.8725e-06
-1.72889e-07
2.13792e-05
-1.43016e-06
-4.10729e-09
2.20581e-05
-9.18364e-07
2.35117e-07
2.1888e-05
-2.92913e-07
4.65591e-07
2.06698e-05
5.00761e-07
7.32277e-07
1.78964e-05
1.74866e-06
1.05578e-06
1.19964e-05
4.49642e-06
1.44903e-06
1.04982e-05
1.67527e-06
-1.47887e-05
-1.53876e-05
2.23178e-07
-2.65879e-05
-1.2699e-05
-1.84266e-06
-3.4664e-05
-1.37231e-05
-3.4863e-06
-4.08794e-05
-1.39056e-05
-4.39543e-06
-4.50654e-05
-1.29298e-05
-4.89078e-06
-4.76854e-05
-1.17843e-05
-5.19888e-06
-4.90562e-05
-1.02539e-05
-5.45854e-06
-4.96489e-05
-8.92634e-06
-5.68091e-06
-4.93594e-05
-7.92196e-06
-5.88779e-06
-4.83963e-05
-7.07595e-06
-6.07566e-06
-4.67914e-05
-6.32614e-06
-6.24474e-06
-4.46871e-05
-5.65945e-06
-6.3888e-06
-4.21331e-05
-5.06643e-06
-6.50536e-06
-3.92206e-05
-4.53202e-06
-6.59261e-06
-3.60172e-05
-4.04472e-06
-6.65047e-06
-3.259e-05
-3.5971e-06
-6.67968e-06
-2.90001e-05
-3.18196e-06
-6.68148e-06
-2.53032e-05
-2.79254e-06
-6.65761e-06
-2.15505e-05
-2.4227e-06
-6.61004e-06
-1.7788e-05
-2.06683e-06
-6.54095e-06
-1.4057e-05
-1.71959e-06
-6.45284e-06
-1.03949e-05
-1.37578e-06
-6.34788e-06
-6.83519e-06
-1.03049e-06
-6.22829e-06
-3.40504e-06
-6.80022e-07
-6.09706e-06
-1.22569e-07
-3.22722e-07
-5.95798e-06
2.99904e-06
4.62545e-08
-5.81195e-06
5.84321e-06
5.39542e-07
-5.657e-06
8.41193e-06
1.04524e-06
-5.48738e-06
1.0658e-05
1.61952e-06
-5.2934e-06
1.24959e-05
2.30806e-06
-5.05922e-06
1.37734e-05
3.19287e-06
-4.75684e-06
1.41317e-05
4.47551e-06
-4.32813e-06
1.27059e-05
6.80405e-06
-3.63176e-06
7.39994e-06
1.20817e-05
-2.2876e-06
1.80158e-05
-1.06015e-08
-2.05181e-05
3.90888e-06
1.2526e-06
-3.29952e-05
-1.75222e-06
1.55781e-06
-4.2032e-05
-5.58977e-06
9.10172e-07
-4.78139e-05
-8.24672e-06
1.23963e-07
-5.07234e-05
-9.5693e-06
-4.51001e-07
-5.17727e-05
-9.80408e-06
-9.30364e-07
-5.14557e-05
-9.22816e-06
-1.34107e-06
-5.04467e-05
-8.2143e-06
-1.71866e-06
-4.89877e-05
-7.3001e-06
-2.07869e-06
-4.71345e-05
-6.51818e-06
-2.40937e-06
-4.49516e-05
-5.80305e-06
-2.70542e-06
-4.2503e-05
-5.14159e-06
-2.96675e-06
-3.98468e-05
-4.5297e-06
-3.19422e-06
-3.70375e-05
-3.95394e-06
-3.38955e-06
-3.41309e-05
-3.39794e-06
-3.5563e-06
-3.11648e-05
-2.86806e-06
-3.69909e-06
-2.81507e-05
-2.37914e-06
-3.82173e-06
-2.50945e-05
-1.92848e-06
-3.92607e-06
-2.20045e-05
-1.50632e-06
-4.0132e-06
-1.88946e-05
-1.10083e-06
-4.08352e-06
-1.57865e-05
-6.99242e-07
-4.13711e-06
-1.27114e-05
-2.85467e-07
-4.1749e-06
-9.6953e-06
1.41716e-07
-4.19878e-06
-6.77274e-06
5.98517e-07
-4.21232e-06
-4.00054e-06
1.11227e-06
-4.21884e-06
-1.4299e-06
1.68434e-06
-4.21998e-06
9.83318e-07
2.332e-06
-4.2152e-06
3.14435e-06
3.08009e-06
-4.20132e-06
4.97057e-06
3.96695e-06
-4.17138e-06
6.34996e-06
5.05585e-06
-4.11217e-06
7.1163e-06
6.4604e-06
-3.9993e-06
7.02435e-06
8.41784e-06
-3.78479e-06
5.75176e-06
1.1552e-05
-3.35428e-06
3.11e-06
1.72622e-05
-2.35939e-06
2.15757e-05
-3.03046e-07
2.54185e-06
-5.91323e-07
1.91544e-06
1.87472e-06
-3.87957e-06
2.73605e-06
1.05654e-07
-6.76861e-06
2.89843e-06
-2.28241e-06
-8.79702e-06
2.90366e-06
-4.88101e-06
-9.85754e-06
2.86234e-06
-7.31652e-06
-1.01904e-05
2.8053e-06
-9.44591e-06
-9.88263e-06
2.77526e-06
-1.12366e-05
-9.19303e-06
2.76733e-06
-1.28089e-05
-8.43951e-06
2.71364e-06
-1.42375e-05
-7.65827e-06
2.5727e-06
-1.55314e-05
-6.82695e-06
2.32293e-06
-1.66197e-05
-5.99595e-06
1.94804e-06
-1.7387e-05
-5.20628e-06
1.44929e-06
-1.77387e-05
-4.45034e-06
8.53201e-07
-1.76104e-05
-3.70999e-06
1.88288e-07
-1.70711e-05
-2.99625e-06
-4.06934e-07
-1.61546e-05
-2.32774e-06
-9.6423e-07
-1.49226e-05
-1.70394e-06
-1.45359e-06
-1.34497e-05
-1.11595e-06
-1.86098e-06
-1.17933e-05
-5.58962e-07
-2.19686e-06
-9.98742e-06
-3.36826e-08
-2.47114e-06
-8.05313e-06
4.68415e-07
-2.68938e-06
-6.01018e-06
9.5223e-07
-2.85669e-06
-3.87866e-06
1.43895e-06
-2.97783e-06
-1.66621e-06
1.94803e-06
-3.05763e-06
6.00342e-07
2.50399e-06
-3.10039e-06
2.874e-06
3.14752e-06
-3.10986e-06
5.07452e-06
3.93967e-06
-3.08954e-06
7.06398e-06
4.97804e-06
-3.04179e-06
8.61658e-06
6.41192e-06
-2.96491e-06
9.38707e-06
8.46783e-06
-2.84996e-06
8.8226e-06
1.157e-05
-2.66078e-06
6.29189e-06
1.63378e-05
-2.25029e-06
2.50733e-06
2.25055e-05
-1.23368e-06
2.41681e-05
2.19572e-07
2.36052e-07
-2.43745e-06
1.57992e-06
-1.52164e-06
-4.75266e-06
2.61599e-06
-4.73959e-06
-6.27348e-06
2.72946e-06
-8.65092e-06
-7.48315e-06
2.63044e-06
-1.24738e-05
-8.52562e-06
2.55201e-06
-1.57236e-05
-9.35153e-06
2.49451e-06
-1.80481e-05
-9.90735e-06
2.44204e-06
-1.93526e-05
-1.01821e-05
2.38672e-06
-1.98379e-05
-1.01839e-05
2.31999e-06
-1.97312e-05
-9.91556e-06
2.23632e-06
-1.92233e-05
-9.38769e-06
2.13154e-06
-1.84751e-05
-8.66721e-06
1.99157e-06
-1.75986e-05
-7.83123e-06
1.80526e-06
-1.66482e-05
-6.92588e-06
1.5699e-06
-1.56256e-05
-5.98214e-06
1.28343e-06
-1.45228e-05
-5.02257e-06
9.47942e-07
-1.33419e-05
-4.06519e-06
5.73437e-07
-1.20831e-05
-3.12085e-06
1.69539e-07
-1.0779e-05
-2.19065e-06
-2.21268e-07
-9.45796e-06
-1.27724e-06
-5.9573e-07
-8.12867e-06
-4.02747e-07
-9.51955e-07
-6.86446e-06
4.92414e-07
-1.27592e-06
-5.68815e-06
1.35994e-06
-1.56499e-06
-4.5717e-06
2.16848e-06
-1.81756e-06
-3.48211e-06
2.92585e-06
-2.02764e-06
-2.36465e-06
3.62876e-06
-2.19089e-06
-1.13318e-06
4.28232e-06
-2.30586e-06
3.02892e-07
4.94165e-06
-2.37152e-06
1.99414e-06
5.74145e-06
-2.38269e-06
3.91271e-06
6.90466e-06
-2.33837e-06
5.84803e-06
8.85124e-06
-2.26036e-06
7.02924e-06
1.26059e-05
-2.21946e-06
5.87702e-06
1.96933e-05
-2.33085e-06
2.72892e-06
2.75975e-05
-2.02677e-06
2.73923e-05
-3.55174e-07
-1.21357e-06
-2.48136e-06
1.27733e-06
-4.21622e-06
-3.84566e-06
2.16328e-06
-7.98563e-06
-5.02683e-06
2.62724e-06
-1.1642e-05
-6.50578e-06
2.82185e-06
-1.46377e-05
-8.26502e-06
2.91455e-06
-1.67334e-05
-1.00218e-05
2.97412e-06
-1.79433e-05
-1.14845e-05
3.0132e-06
-1.8383e-05
-1.25383e-05
3.03128e-06
-1.8169e-05
-1.31839e-05
3.02524e-06
-1.73965e-05
-1.344e-05
2.99073e-06
-1.61587e-05
-1.33159e-05
2.92313e-06
-1.45952e-05
-1.28328e-05
2.82119e-06
-1.28813e-05
-1.20347e-05
2.68699e-06
-1.11783e-05
-1.09804e-05
2.52099e-06
-9.6047e-06
-9.72976e-06
2.31124e-06
-8.22526e-06
-8.33796e-06
2.03883e-06
-7.05932e-06
-6.8612e-06
1.69924e-06
-6.08423e-06
-5.36184e-06
1.30412e-06
-5.23219e-06
-3.90652e-06
8.75137e-07
-4.40896e-06
-2.54592e-06
4.34094e-07
-3.54239e-06
-1.27995e-06
-1.99228e-08
-2.72398e-06
1.47108e-08
-3.88236e-07
-1.59943e-06
9.33316e-07
-7.61683e-07
-3.62736e-07
1.98192e-06
-1.12964e-06
8.30241e-07
3.13462e-06
-1.49388e-06
1.83612e-06
4.36991e-06
-1.8397e-06
2.5401e-06
5.64193e-06
-2.13381e-06
2.8634e-06
6.92948e-06
-2.33845e-06
2.7787e-06
8.27184e-06
-2.42144e-06
2.37911e-06
9.72368e-06
-2.33783e-06
1.89117e-06
1.14916e-05
-2.0013e-06
1.36266e-06
1.46772e-05
-1.32732e-06
4.53338e-07
2.13368e-05
-6.35848e-07
-5.03615e-07
2.89505e-05
-5.34744e-07
2.70092e-05
-6.13575e-08
-2.73451e-06
-1.43082e-06
1.65871e-06
-6.26357e-06
-3.17757e-06
2.86082e-06
-8.73979e-06
-5.58088e-06
3.05321e-06
-9.56438e-06
-8.70236e-06
3.07073e-06
-8.82813e-06
-1.20327e-05
3.10713e-06
-6.92324e-06
-1.50018e-05
3.17181e-06
-4.28815e-06
-1.72562e-05
3.25071e-06
-1.30436e-06
-1.8722e-05
3.33097e-06
1.74044e-06
-1.94785e-05
3.40017e-06
4.64784e-06
-1.96205e-05
3.4469e-06
7.29307e-06
-1.92236e-05
3.46353e-06
9.60752e-06
-1.83555e-05
3.43857e-06
1.15554e-05
-1.7086e-05
3.36233e-06
1.31042e-05
-1.54826e-05
3.23688e-06
1.42141e-05
-1.36117e-05
3.07188e-06
1.48396e-05
-1.15413e-05
2.88067e-06
1.49251e-05
-9.33823e-06
2.67918e-06
1.44129e-05
-7.07801e-06
2.47931e-06
1.3276e-05
-4.85684e-06
2.28181e-06
1.15893e-05
-2.80251e-06
2.0721e-06
9.61702e-06
-1.07275e-06
1.8342e-06
7.89504e-06
1.93714e-07
1.56829e-06
6.39266e-06
1.14027e-06
1.2903e-06
5.51462e-06
1.82486e-06
1.00684e-06
5.34641e-06
2.54298e-06
7.08081e-07
5.66103e-06
3.60734e-06
3.68343e-07
6.04427e-06
5.20056e-06
-5.28713e-08
6.00557e-06
7.31721e-06
-4.92841e-07
5.329e-06
9.84543e-06
-1.06556e-06
4.05013e-06
1.25844e-05
-1.7107e-06
2.67253e-06
1.50927e-05
-2.18551e-06
2.24516e-06
1.76616e-05
-2.21823e-06
3.14395e-06
2.28034e-05
-1.51546e-06
2.41881e-06
3.0947e-05
-3.85215e-07
2.9387e-05
4.22904e-07
7.51063e-07
-3.6479e-06
1.28459e-06
5.52345e-06
-1.02228e-05
2.06784e-06
1.35899e-05
-1.58153e-05
1.97681e-06
2.34002e-05
-2.05858e-05
1.90009e-06
3.35298e-05
-2.42224e-05
1.90691e-06
4.30232e-05
-2.66124e-05
1.98032e-06
5.13649e-05
-2.78269e-05
2.10466e-06
5.82979e-05
-2.80344e-05
2.2638e-06
6.37386e-05
-2.74732e-05
2.4426e-06
6.77312e-05
-2.63531e-05
2.6285e-06
7.04024e-05
-2.48225e-05
2.81345e-06
7.19261e-05
-2.29913e-05
2.99457e-06
7.25105e-05
-2.0947e-05
3.15837e-06
7.2385e-05
-1.87476e-05
3.27716e-06
7.17678e-05
-1.64191e-05
3.32433e-06
7.08282e-05
-1.39637e-05
3.28515e-06
6.96606e-05
-1.13715e-05
3.16018e-06
6.82642e-05
-8.63233e-06
2.96318e-06
6.65358e-05
-5.75592e-06
2.71707e-06
6.42933e-05
-2.81806e-06
2.44909e-06
6.14604e-05
-1.20253e-07
2.17715e-06
5.7298e-05
2.83188e-06
1.90269e-06
5.21417e-05
5.10644e-06
1.61848e-06
4.63422e-05
6.72958e-06
1.3339e-06
4.04983e-05
7.70426e-06
1.07428e-06
3.52997e-05
8.23666e-06
8.71459e-07
3.106e-05
8.88504e-06
7.4504e-07
2.76756e-05
1.01137e-05
6.65026e-07
2.49013e-05
1.20536e-05
5.50184e-07
2.19862e-05
1.50882e-05
3.06897e-07
1.76127e-05
1.9458e-05
-1.53023e-07
1.21776e-05
2.38321e-05
-6.83574e-07
7.50613e-06
2.89173e-05
-8.94457e-07
3.74518e-06
3.58208e-05
-1.97534e-07
3.30978e-05
5.86743e-07
6.99431e-06
-1.09653e-05
2.51988e-07
2.09838e-05
-2.42219e-05
-4.13029e-09
3.66595e-05
-3.10539e-05
-3.69389e-07
5.13753e-05
-3.45416e-05
-6.32051e-07
6.40767e-05
-3.59247e-05
-8.3577e-07
7.44524e-05
-3.583e-05
-9.76264e-07
8.2364e-05
-3.45064e-05
-1.04139e-06
8.77092e-05
-3.21607e-05
-1.02673e-06
9.05599e-05
-2.92054e-05
-9.31137e-07
9.11916e-05
-2.6054e-05
-7.52373e-07
8.99508e-05
-2.29281e-05
-4.88266e-07
8.7154e-05
-1.99409e-05
-1.0414e-07
8.31998e-05
-1.7162e-05
2.98699e-07
7.83581e-05
-1.46194e-05
8.21274e-07
7.29708e-05
-1.22911e-05
1.3412e-06
6.74383e-05
-1.01193e-05
1.73689e-06
6.21483e-05
-8.02486e-06
1.94977e-06
5.73998e-05
-5.91716e-06
1.9914e-06
5.33621e-05
-3.70976e-06
1.90177e-06
5.00761e-05
-1.36982e-06
1.71438e-06
4.71876e-05
1.18305e-06
1.4581e-06
4.47873e-05
3.96591e-06
1.18212e-06
4.23257e-05
6.64274e-06
9.43031e-07
3.95282e-05
8.90005e-06
7.93372e-07
3.63582e-05
1.04124e-05
7.68556e-07
3.30405e-05
1.10473e-05
8.37786e-07
3.00572e-05
1.12279e-05
8.51901e-07
2.78939e-05
1.16148e-05
7.51013e-07
2.66428e-05
1.2677e-05
6.01755e-07
2.56066e-05
1.54241e-05
4.29799e-07
2.25198e-05
2.17732e-05
1.07883e-07
1.58553e-05
3.03901e-05
-7.73981e-07
7.74162e-06
3.77214e-05
-1.51901e-06
2.6098e-06
4.15822e-05
-1.06358e-06
3.60954e-05
-8.69591e-08
1.18215e-05
-2.26593e-05
5.13004e-09
2.35095e-05
-3.55808e-05
-8.40556e-08
3.15983e-05
-3.87196e-05
-1.59743e-07
3.6573e-05
-3.89542e-05
-3.36155e-07
3.90936e-05
-3.7643e-05
-6.25311e-07
3.94796e-05
-3.50551e-05
-1.00366e-06
3.74887e-05
-3.08912e-05
-1.4618e-06
3.29429e-05
-2.54392e-05
-2.00891e-06
2.68589e-05
-2.0332e-05
-2.64154e-06
2.1018e-05
-1.68125e-05
-3.29788e-06
1.64249e-05
-1.44075e-05
-3.88286e-06
1.32515e-05
-1.24609e-05
-4.31795e-06
1.13471e-05
-1.07672e-05
-4.5442e-06
1.03936e-05
-9.24974e-06
-4.49437e-06
9.97582e-06
-7.83919e-06
-4.11897e-06
9.75807e-06
-6.47554e-06
-3.50363e-06
9.58534e-06
-5.11749e-06
-2.79726e-06
9.42585e-06
-3.72949e-06
-2.07398e-06
9.24401e-06
-2.24909e-06
-1.31177e-06
8.96737e-06
-5.74424e-07
-5.43764e-07
9.00248e-06
1.09142e-06
3.707e-08
9.81042e-06
2.85932e-06
2.8175e-07
1.13251e-05
4.69278e-06
4.20626e-07
1.33481e-05
6.36465e-06
4.97774e-07
1.54909e-05
7.72172e-06
5.25591e-07
1.72487e-05
8.76205e-06
4.8915e-07
1.84025e-05
9.62931e-06
3.91749e-07
1.9048e-05
1.06132e-05
2.81433e-07
1.90798e-05
1.22786e-05
2.08267e-07
1.79009e-05
1.59686e-05
1.9333e-07
1.44527e-05
2.39926e-05
8.24801e-08
8.20845e-06
3.52976e-05
-8.37097e-07
2.47011e-06
4.31237e-05
-2.0646e-06
4.65097e-08
4.44246e-05
-2.16139e-06
3.67367e-05
-1.11644e-06
2.65642e-06
-2.56981e-05
5.35669e-07
2.03231e-06
-3.56554e-05
7.11241e-07
-6.09949e-07
-3.68586e-05
6.91631e-07
-3.90525e-06
-3.63874e-05
6.00202e-07
-7.22468e-06
-3.49231e-05
4.71193e-07
-1.06001e-05
-3.20818e-05
2.92834e-07
-1.43949e-05
-2.71772e-05
-2.32126e-08
-1.8766e-05
-2.06613e-05
-5.58239e-07
-2.31825e-05
-1.47779e-05
-1.36355e-06
-2.67192e-05
-1.13988e-05
-2.11692e-06
-2.87921e-05
-9.9056e-06
-2.62296e-06
-2.93479e-05
-9.08808e-06
-2.96923e-06
-2.85884e-05
-8.41619e-06
-3.23739e-06
-2.67856e-05
-7.71122e-06
-3.45344e-06
-2.42045e-05
-6.91279e-06
-3.61079e-06
-2.10822e-05
-6.0052e-06
-3.68986e-06
-1.76184e-05
-4.99855e-06
-3.676e-06
-1.39708e-05
-3.90011e-06
-3.56776e-06
-1.02562e-05
-2.69237e-06
-3.36135e-06
-6.56055e-06
-1.32844e-06
-3.03215e-06
-3.25343e-06
2.58603e-07
-2.56722e-06
-4.11234e-07
1.90898e-06
-1.98893e-06
1.79445e-06
3.77034e-06
-1.3857e-06
3.21221e-06
5.72871e-06
-8.8791e-07
3.70678e-06
7.66397e-06
-5.4015e-07
3.19114e-06
9.47657e-06
-2.90098e-07
1.69019e-06
1.11166e-05
-5.17282e-08
-5.85572e-07
1.2678e-05
2.00087e-07
-3.35784e-06
1.46205e-05
5.21889e-07
-6.10954e-06
1.81186e-05
8.1611e-07
-7.83287e-06
2.49964e-05
7.85083e-07
-8.49818e-06
3.50473e-05
-1.24496e-08
-7.84133e-06
4.20334e-05
-1.4056e-06
-4.64985e-06
4.17184e-05
-1.99634e-06
3.26657e-05
-1.19264e-06
-2.52114e-06
-2.35741e-05
3.27705e-07
-3.66302e-06
-3.4483e-05
-4.03991e-08
-3.72886e-06
-3.65171e-05
-2.37279e-07
-3.31936e-06
-3.64487e-05
-2.89639e-07
-2.80983e-06
-3.50563e-05
-3.08415e-07
-2.48403e-06
-3.19953e-05
-3.43536e-07
-1.98399e-06
-2.72119e-05
-4.10395e-07
-7.06199e-07
-2.1361e-05
-5.36803e-07
8.57796e-07
-1.55307e-05
-7.7346e-07
1.59076e-06
-1.10253e-05
-1.07663e-06
1.28221e-06
-8.23495e-06
-1.34758e-06
3.78862e-07
-6.62112e-06
-1.56314e-06
-7.21444e-07
-5.59305e-06
-1.73311e-06
-1.78973e-06
-4.79802e-06
-1.8632e-06
-2.69064e-06
-4.08398e-06
-1.95206e-06
-3.338e-06
-3.39111e-06
-1.99527e-06
-3.69461e-06
-2.68666e-06
-1.98738e-06
-3.75835e-06
-1.94838e-06
-1.92313e-06
-3.53567e-06
-1.15965e-06
-1.79325e-06
-3.0096e-06
-3.13535e-07
-1.5813e-06
-2.24718e-06
7.30133e-07
-1.27671e-06
-1.45581e-06
1.97604e-06
-9.04346e-07
-6.97746e-07
3.49693e-06
-5.36816e-07
-1.72663e-07
5.39225e-06
-2.5437e-07
-1.78287e-07
7.65649e-06
-7.71298e-08
-1.04978e-06
1.01628e-05
6.39375e-08
-2.99029e-06
1.2715e-05
2.00915e-07
-5.93549e-06
1.51591e-05
3.486e-07
-9.34676e-06
1.7532e-05
5.31681e-07
-1.18113e-05
2.02982e-05
7.69132e-07
-1.10439e-05
2.46334e-05
1.03245e-06
-6.61704e-06
3.18475e-05
1.05599e-06
-3.0235e-06
3.95689e-05
4.94424e-07
-5.73316e-07
4.04593e-05
-1.86675e-07
3.26789e-05
9.02112e-08
1.52297e-06
-2.52582e-05
1.32692e-07
3.41118e-06
-3.6338e-05
-5.41028e-08
4.56449e-06
-3.76335e-05
-8.00368e-08
5.18017e-06
-3.70652e-05
-4.62046e-08
5.21827e-06
-3.50783e-05
-5.3929e-08
4.628e-06
-3.13177e-05
-1.22108e-07
3.82235e-06
-2.62158e-05
-2.35872e-07
3.14035e-06
-2.03243e-05
-4.09806e-07
2.22955e-06
-1.39327e-05
-7.43766e-07
6.227e-07
-8.20027e-06
-1.27414e-06
-1.21601e-06
-4.65379e-06
-1.79884e-06
-2.79374e-06
-2.93886e-06
-2.15405e-06
-3.9875e-06
-2.07992e-06
-2.35812e-06
-4.81188e-06
-1.53924e-06
-2.46516e-06
-5.3232e-06
-1.09654e-06
-2.50216e-06
-5.59942e-06
-6.59705e-07
-2.47846e-06
-5.73719e-06
-1.74138e-07
-2.39703e-06
-5.77807e-06
3.29379e-07
-2.25859e-06
-5.78063e-06
8.83266e-07
-2.06141e-06
-5.83285e-06
1.51198e-06
-1.79399e-06
-5.88907e-06
2.20892e-06
-1.4434e-06
-5.89425e-06
2.98599e-06
-1.02483e-06
-5.71211e-06
3.89402e-06
-5.96473e-07
-5.13238e-06
5.04143e-06
-2.43614e-07
-4.04357e-06
6.57196e-06
-2.2852e-08
-2.67772e-06
8.60278e-06
1.58653e-07
-1.467e-06
1.11619e-05
2.72451e-07
-9.69397e-07
1.41783e-05
3.65565e-07
-1.54464e-06
1.75116e-05
4.4411e-07
-2.90165e-06
2.10729e-05
5.03662e-07
-3.68262e-06
2.5212e-05
5.7287e-07
-2.16296e-06
3.12004e-05
7.35334e-07
1.71115e-07
3.89427e-05
9.49044e-07
1.0242e-06
4.09044e-05
7.93379e-07
3.39106e-05
7.48798e-07
8.65908e-07
-2.61399e-05
3.47376e-08
2.11476e-06
-3.71729e-05
-3.21444e-07
3.47986e-06
-3.84269e-05
-4.70944e-07
4.15057e-06
-3.7169e-05
-4.50924e-07
3.31663e-06
-3.36584e-05
-4.51238e-07
1.22602e-06
-2.86086e-05
-5.06672e-07
-9.44814e-07
-2.34722e-05
-5.17765e-07
-2.25086e-06
-1.86153e-05
-4.07913e-07
-2.69282e-06
-1.32591e-05
-2.82275e-07
-3.16011e-06
-7.40417e-06
-4.0238e-07
-4.25879e-06
-2.8595e-06
-7.6592e-07
-5.37002e-06
-7.66993e-07
-1.1143e-06
-6.02946e-06
-9.04758e-08
-1.36845e-06
-6.36169e-06
3.17588e-07
-1.55447e-06
-6.40841e-06
6.171e-07
-1.69183e-06
-6.19724e-06
8.88443e-07
-1.77947e-06
-5.748e-06
1.17191e-06
-1.81131e-06
-5.1383e-06
1.48998e-06
-1.78295e-06
-4.42869e-06
1.85445e-06
-1.69085e-06
-3.66888e-06
2.27094e-06
-1.52682e-06
-2.9294e-06
2.74189e-06
-1.2791e-06
-2.27301e-06
3.26962e-06
-9.45708e-07
-1.69524e-06
3.85945e-06
-5.48399e-07
-1.05212e-06
4.54684e-06
-1.51241e-07
-8.6709e-08
5.41462e-06
1.94837e-07
1.49955e-06
6.59562e-06
4.28948e-07
3.85011e-06
8.27574e-06
5.43105e-07
6.72076e-06
1.07116e-05
5.89253e-07
9.32793e-06
1.41959e-05
6.61169e-07
1.04129e-05
1.8987e-05
8.63849e-07
9.06778e-06
2.51514e-05
1.11836e-06
5.84673e-06
3.3095e-05
1.05835e-06
3.18108e-06
4.11561e-05
7.62518e-07
1.27491e-06
4.26675e-05
5.82261e-07
3.49339e-05
4.57807e-07
7.38012e-06
-3.30361e-05
-1.5002e-07
1.09393e-05
-4.03865e-05
-2.84882e-08
1.26564e-05
-3.96105e-05
-2.82117e-07
1.18559e-05
-3.54359e-05
-6.70648e-07
7.54691e-06
-2.79115e-05
-1.15807e-06
7.61684e-07
-1.99382e-05
-1.67138e-06
-6.90801e-06
-1.36124e-05
-2.07086e-06
-1.31613e-05
-1.01292e-05
-2.19505e-06
-1.63877e-05
-8.07465e-06
-1.98125e-06
-1.68708e-05
-5.41609e-06
-1.58735e-06
-1.59896e-05
-2.44713e-06
-1.42307e-06
-1.4636e-05
-7.02011e-07
-1.53254e-06
-1.32281e-05
4.95994e-08
-1.62194e-06
-1.18127e-05
5.19642e-07
-1.67293e-06
-1.04101e-05
8.81737e-07
-1.71388e-06
-9.01335e-06
1.19911e-06
-1.74469e-06
-7.61965e-06
1.50446e-06
-1.75475e-06
-6.23395e-06
1.81821e-06
-1.73454e-06
-4.87303e-06
2.15434e-06
-1.67444e-06
-3.56632e-06
2.52147e-06
-1.5649e-06
-2.35483e-06
2.92462e-06
-1.39687e-06
-1.29054e-06
3.36754e-06
-1.16074e-06
-4.31565e-07
3.85513e-06
-8.49958e-07
1.9727e-07
4.39636e-06
-4.7124e-07
6.78863e-07
5.00546e-06
-6.37906e-08
1.22477e-06
5.71994e-06
3.41047e-07
2.19297e-06
6.68159e-06
6.42834e-07
3.91145e-06
8.22163e-06
7.93603e-07
6.33423e-06
1.09677e-05
8.24623e-07
8.36988e-06
1.59877e-05
9.49848e-07
8.1242e-06
2.39661e-05
1.30915e-06
5.49138e-06
3.39759e-05
1.39736e-06
2.73909e-06
4.2575e-05
9.10013e-07
9.32492e-07
4.35989e-05
5.69021e-07
3.53751e-05
3.37325e-07
1.9522e-06
-3.58773e-05
1.2863e-06
-8.06852e-07
-3.95285e-05
2.0412e-06
-5.3308e-06
-3.68004e-05
1.9161e-06
-1.27227e-05
-2.8938e-05
1.17903e-06
-2.12565e-05
-1.94313e-05
1.67909e-07
-2.84203e-05
-1.22243e-05
-6.21004e-07
-3.43651e-05
-6.63718e-06
-1.2501e-06
-3.93587e-05
-3.6221e-06
-1.79734e-06
-4.26611e-05
-2.86667e-06
-2.13352e-06
-4.33092e-05
-2.65888e-06
-2.2678e-06
-4.12452e-05
-2.34663e-06
-2.28462e-06
-3.7849e-05
-1.93494e-06
-2.26479e-06
-3.41475e-05
-1.50183e-06
-2.23921e-06
-3.04194e-05
-1.07396e-06
-2.21104e-06
-2.67708e-05
-6.52723e-07
-2.1785e-06
-2.32568e-05
-2.25619e-07
-2.14166e-06
-1.98671e-05
1.71464e-07
-2.09752e-06
-1.66218e-05
5.81505e-07
-2.0395e-06
-1.35467e-05
1.01782e-06
-1.9607e-06
-1.06636e-05
1.47752e-06
-1.85336e-06
-7.99848e-06
1.96145e-06
-1.70922e-06
-5.58383e-06
2.47086e-06
-1.51913e-06
-3.45965e-06
3.00817e-06
-1.27323e-06
-1.67096e-06
3.57836e-06
-9.62742e-07
-2.58574e-07
4.1897e-06
-5.86315e-07
7.7901e-07
4.85536e-06
-1.62636e-07
1.54308e-06
5.64383e-06
2.83765e-07
2.32218e-06
6.78433e-06
6.69543e-07
3.51926e-06
8.87288e-06
9.01624e-07
5.03185e-06
1.34103e-05
1.02702e-06
5.0125e-06
2.25129e-05
1.3441e-06
2.7794e-06
3.45727e-05
1.51597e-06
1.02555e-06
4.32537e-05
1.06342e-06
1.40584e-07
4.38642e-05
6.35018e-07
3.51777e-05
3.90581e-07
-5.96854e-06
-3.20089e-05
2.28144e-06
-1.31356e-05
-3.54096e-05
3.154e-06
-2.04733e-05
-3.23173e-05
2.93225e-06
-2.77087e-05
-2.346e-05
1.77024e-06
-3.30057e-05
-1.48125e-05
5.05149e-07
-3.48503e-05
-1.04667e-05
-6.68293e-08
-3.3573e-05
-7.67537e-06
-3.41803e-07
-3.10453e-05
-5.5874e-06
-6.46623e-07
-2.8744e-05
-4.31241e-06
-9.2513e-07
-2.67885e-05
-3.53225e-06
-1.14291e-06
-2.4913e-05
-2.96735e-06
-1.31071e-06
-2.29725e-05
-2.48662e-06
-1.44042e-06
-2.09457e-05
-2.03683e-06
-1.53867e-06
-1.88488e-05
-1.60019e-06
-1.6118e-06
-1.66993e-05
-1.17101e-06
-1.6662e-06
-1.45033e-05
-7.45087e-07
-1.70566e-06
-1.2303e-05
-3.21282e-07
-1.73105e-06
-1.01201e-05
1.21723e-07
-1.74126e-06
-7.96681e-06
5.83201e-07
-1.73177e-06
-5.86105e-06
1.05943e-06
-1.69577e-06
-3.83456e-06
1.55812e-06
-1.62625e-06
-1.92736e-06
2.0813e-06
-1.51558e-06
-1.86254e-07
2.62976e-06
-1.35528e-06
1.33621e-06
3.20506e-06
-1.13635e-06
2.58241e-06
3.81205e-06
-8.5094e-07
3.49325e-06
4.46198e-06
-4.9725e-07
4.06138e-06
5.19112e-06
-9.53097e-08
4.32776e-06
6.16694e-06
3.6849e-07
4.51104e-06
7.90461e-06
7.86433e-07
4.87215e-06
1.18831e-05
1.08954e-06
4.54598e-06
2.10475e-05
1.44874e-06
1.91233e-06
3.47044e-05
1.79335e-06
-1.76986e-07
4.34801e-05
1.36317e-06
-7.91639e-07
4.3432e-05
7.78339e-07
3.37956e-05
4.82973e-07
-5.29563e-06
-2.99747e-05
3.16917e-06
-1.06801e-05
-3.46092e-05
4.46517e-06
-1.48555e-05
-3.28817e-05
4.55864e-06
-1.53963e-05
-2.71211e-05
3.98985e-06
-1.40598e-05
-1.92294e-05
2.93671e-06
-1.348e-05
-1.30885e-05
1.95404e-06
-1.35406e-05
-8.88357e-06
1.20528e-06
-1.36475e-05
-6.1386e-06
6.09415e-07
-1.36163e-05
-4.4745e-06
9.38201e-08
-1.34728e-05
-3.4946e-06
-2.11231e-07
-1.31463e-05
-2.84795e-06
-4.73021e-07
-1.26352e-05
-2.33399e-06
-6.89356e-07
-1.1956e-05
-1.87484e-06
-8.65537e-07
-1.1127e-05
-1.44342e-06
-1.00817e-06
-1.01799e-05
-1.01731e-06
-1.12118e-06
-9.15735e-06
-5.77258e-07
-1.20869e-06
-8.11239e-06
-1.08181e-07
-1.27448e-06
-7.00458e-06
3.20484e-07
-1.32121e-06
-5.8738e-06
7.89151e-07
-1.34973e-06
-4.75528e-06
1.28705e-06
-1.35752e-06
-3.68367e-06
1.81523e-06
-1.33826e-06
-2.70111e-06
2.37543e-06
-1.28376e-06
-1.85824e-06
2.96794e-06
-1.18451e-06
-1.21309e-06
3.5918e-06
-1.02992e-06
-8.28199e-07
4.24647e-06
-8.0937e-07
-7.81212e-07
4.95079e-06
-5.14932e-07
-1.16079e-06
5.75726e-06
-1.52104e-07
-2.04478e-06
6.79434e-06
3.09574e-07
-3.28749e-06
8.41846e-06
8.2027e-07
-4.23427e-06
1.16945e-05
1.31907e-06
-3.82937e-06
1.90829e-05
1.80808e-06
-2.95546e-06
3.15317e-05
2.21667e-06
-2.77625e-06
4.08408e-05
1.97063e-06
-1.6901e-06
4.0705e-05
1.34106e-06
3.131e-05
8.36601e-07
-8.52116e-06
-2.51375e-05
3.39781e-06
-1.38418e-05
-3.40594e-05
4.48107e-06
-1.63439e-05
-3.53517e-05
4.5953e-06
-1.42727e-05
-3.413e-05
4.48648e-06
-7.81036e-06
-3.02719e-05
4.21266e-06
-4.68053e-07
-2.4327e-05
3.69841e-06
5.23174e-06
-1.76849e-05
3.04433e-06
8.40135e-06
-1.16596e-05
2.36387e-06
9.04145e-06
-6.83416e-06
1.74468e-06
7.89969e-06
-3.5519e-06
1.2172e-06
6.08544e-06
-1.7941e-06
7.70703e-07
4.35422e-06
-9.869e-07
3.87261e-07
2.99128e-06
-5.59159e-07
4.46109e-08
1.93859e-06
-2.3612e-07
-1.6033e-07
1.17019e-06
8.71523e-08
-3.42587e-07
6.45896e-07
4.37273e-07
-4.96759e-07
3.22474e-07
8.30141e-07
-6.21639e-07
9.31658e-08
1.26215e-06
-7.19349e-07
-6.60822e-08
1.7335e-06
-7.92485e-07
-1.87947e-07
2.24371e-06
-8.42722e-07
-3.06075e-07
2.79431e-06
-8.6954e-07
-4.58614e-07
3.38688e-06
-8.68168e-07
-6.92039e-07
4.02146e-06
-8.29738e-07
-1.06376e-06
4.69763e-06
-7.43277e-07
-1.65884e-06
5.43073e-06
-5.96064e-07
-2.59333e-06
6.26233e-06
-3.7821e-07
-3.97239e-06
7.24458e-06
-9.68384e-08
-5.9101e-06
8.45366e-06
3.19068e-07
-8.2697e-06
1.0076e-05
8.16062e-07
-1.02789e-05
1.26802e-05
1.34001e-06
-9.98991e-06
1.77286e-05
1.85298e-06
-6.35157e-06
2.69083e-05
2.23171e-06
-3.12998e-06
3.62714e-05
2.23613e-06
-9.31265e-07
3.73025e-05
1.7917e-06
2.96071e-05
1.2169e-06
-5.69287e-06
-2.24929e-05
2.73485e-06
-8.751e-06
-3.45782e-05
3.23045e-06
-1.00065e-05
-3.77926e-05
3.39941e-06
-9.2188e-06
-3.87825e-05
3.55718e-06
-5.17352e-06
-3.84482e-05
3.73983e-06
2.17197e-06
-3.60205e-05
3.90913e-06
1.15414e-05
-3.13306e-05
3.93293e-06
2.07947e-05
-2.48234e-05
3.73516e-06
2.80014e-05
-1.73198e-05
3.284e-06
3.18566e-05
-9.93447e-06
2.64198e-06
3.20106e-05
-3.80748e-06
1.97936e-06
2.95312e-05
1.60261e-07
1.41889e-06
2.60856e-05
1.97863e-06
9.6669e-07
2.27226e-05
2.56999e-06
5.95935e-07
1.9782e-05
2.76694e-06
2.86396e-07
1.73101e-05
2.90702e-06
1.95335e-08
1.51926e-05
3.09619e-06
-1.34408e-07
1.33746e-05
3.35912e-06
-2.66055e-07
1.17895e-05
3.69847e-06
-3.68608e-07
1.03728e-05
4.11161e-06
-4.4143e-07
9.06948e-06
4.59201e-06
-4.86064e-07
7.83058e-06
5.13625e-06
-5.03139e-07
6.60709e-06
5.74077e-06
-4.89204e-07
5.34427e-06
6.40235e-06
-4.35662e-07
3.96366e-06
7.15172e-06
-3.34205e-07
2.37724e-06
8.03517e-06
-1.7936e-07
5.34915e-07
9.07277e-06
2.50948e-08
-1.695e-06
1.03024e-05
4.04828e-07
-4.22631e-06
1.18328e-05
8.36733e-07
-6.64371e-06
1.3971e-05
1.30582e-06
-7.66189e-06
1.75299e-05
1.73513e-06
-5.51823e-06
2.39829e-05
1.98215e-06
-1.91833e-06
3.24327e-05
1.8672e-06
-5.09382e-08
3.50655e-05
1.51879e-06
2.87822e-05
1.20113e-06
-1.00646e-06
-2.31948e-05
1.57725e-06
-1.27266e-06
-3.57894e-05
1.39383e-06
-1.50308e-06
-3.89837e-05
1.3898e-06
-1.88821e-06
-3.98647e-05
1.456e-06
-1.96661e-06
-3.99643e-05
1.57127e-06
-3.18327e-07
-3.95507e-05
1.78231e-06
4.23693e-06
-3.82429e-05
2.12615e-06
1.19262e-05
-3.53802e-05
2.56118e-06
2.18988e-05
-3.05441e-05
2.96691e-06
3.20106e-05
-2.34177e-05
3.205e-06
3.95811e-05
-1.44643e-05
3.10848e-06
4.26289e-05
-5.34598e-06
2.61829e-06
4.11641e-05
1.67738e-06
1.94064e-06
3.72053e-05
5.3537e-06
1.31091e-06
3.27063e-05
6.55331e-06
8.06237e-07
2.86382e-05
6.6152e-06
4.19866e-07
2.53174e-05
6.3421e-06
1.14051e-07
2.26343e-05
6.15907e-06
-8.69426e-08
2.04191e-05
6.17492e-06
-2.33876e-07
1.85484e-05
6.35598e-06
-3.47678e-07
1.69123e-05
6.67623e-06
-4.23969e-07
1.54139e-05
7.11959e-06
-4.62494e-07
1.39693e-05
7.66996e-06
-4.6274e-07
1.25053e-05
8.30925e-06
-4.20403e-07
1.09514e-05
9.06019e-06
-3.30187e-07
9.2395e-06
9.96508e-06
-1.90182e-07
7.33201e-06
1.10275e-05
-1.36241e-08
5.10938e-06
1.22485e-05
3.20078e-07
2.61463e-06
1.36764e-05
7.16588e-07
5.8926e-08
1.54874e-05
1.16292e-06
-1.91378e-06
1.82107e-05
1.5851e-06
-2.10723e-06
2.30773e-05
1.80998e-06
-5.0857e-07
3.0461e-05
1.59044e-06
4.12819e-07
3.40945e-05
1.06938e-06
2.86427e-05
9.64995e-07
1.01578e-06
-2.49037e-05
6.3183e-07
3.28834e-06
-3.85999e-05
4.49114e-07
5.84457e-06
-4.21376e-05
4.97732e-07
8.27077e-06
-4.2951e-05
5.58065e-07
1.03173e-05
-4.26837e-05
5.82747e-07
1.17692e-05
-4.16319e-05
5.70262e-07
1.28335e-05
-3.98866e-05
5.46783e-07
1.437e-05
-3.75491e-05
5.76869e-07
1.75659e-05
-3.46566e-05
7.71527e-07
2.34595e-05
-3.07547e-05
1.21929e-06
3.18896e-05
-2.49512e-05
1.84344e-06
4.02749e-05
-1.62103e-05
2.39936e-06
4.51378e-05
-5.60511e-06
2.52155e-06
4.51637e-05
3.36038e-06
2.14507e-06
4.20302e-05
8.31096e-06
1.54872e-06
3.77722e-05
1.00981e-05
9.23627e-07
3.3533e-05
1.03102e-05
3.73769e-07
2.98559e-05
9.9291e-06
-3.22622e-08
2.68787e-05
9.46015e-06
-2.70223e-07
2.45116e-05
9.20013e-06
-4.47602e-07
2.25799e-05
9.20985e-06
-5.75618e-07
2.09525e-05
9.42913e-06
-6.58944e-07
1.95112e-05
9.8279e-06
-6.96338e-07
1.81365e-05
1.03849e-05
-6.82931e-07
1.67296e-05
1.10977e-05
-6.13089e-07
1.51995e-05
1.19972e-05
-4.82515e-07
1.34285e-05
1.31121e-05
-2.88146e-07
1.13315e-05
1.44245e-05
-4.14087e-08
8.82795e-06
1.5915e-05
3.25834e-07
6.02424e-06
1.76372e-05
7.62567e-07
3.34793e-06
1.99e-05
1.21563e-06
1.73209e-06
2.36758e-05
1.55208e-06
1.48527e-06
3.01426e-05
1.5369e-06
1.09712e-06
3.43591e-05
1.03923e-06
2.93707e-05
7.98788e-07
1.68001e-06
-2.69785e-05
2.97568e-07
5.08767e-06
-4.2395e-05
2.08614e-07
9.1611e-06
-4.66834e-05
2.92725e-07
1.34678e-05
-4.77965e-05
3.57426e-07
1.7807e-05
-4.76166e-05
3.98337e-07
2.1957e-05
-4.64074e-05
4.12566e-07
2.54897e-05
-4.40017e-05
3.77059e-07
2.7786e-05
-4.02556e-05
2.62341e-07
2.85668e-05
-3.55897e-05
7.93084e-08
2.87722e-05
-3.09402e-05
-7.03619e-08
3.03794e-05
-2.66183e-05
-4.73662e-08
3.46672e-05
-2.11233e-05
4.57233e-07
4.00314e-05
-1.23315e-05
1.25173e-06
4.3056e-05
-1.41809e-06
1.77326e-06
4.23442e-05
7.37744e-06
1.73691e-06
3.93552e-05
1.18175e-05
1.36605e-06
3.54895e-05
1.33907e-05
8.80975e-07
3.15923e-05
1.35787e-05
3.45359e-07
2.82192e-05
1.3067e-05
-1.51812e-07
2.55981e-05
1.23989e-05
-5.17945e-07