/*--------------------------------*- C++ -*----------------------------------*\
| =========                 |                                                 |
| \\      /  F ield         | OpenFOAM: The Open Source CFD Toolbox           |
|  \\    /   O peration     | Version:  v2006                                 |
|   \\  /    A nd           | Website:  www.openfoam.com                      |
|    \\/     M anipulation  |                                                 |
\*---------------------------------------------------------------------------*/
FoamFile
{
    version     2.0;
    format      ascii;
    class       volVectorField;
    location    "10";
    object      U;
}
// * * * * * * * * * * * * * * * * * * * * * * * * * * * * * * * * * * * * * //

dimensions      [0 1 -1 0 0 0 0];


internalField   nonuniform List<vector> 
78750
(
(-0.472301 -0.259703 -0.141807)
(-0.407438 -0.241015 -0.137831)
(-0.398588 -0.208626 -0.126002)
(-0.329317 -0.17762 -0.110554)
(-0.258188 -0.155011 -0.0973069)
(-0.263571 -0.142876 -0.0942158)
(-0.219602 -0.129261 -0.0890309)
(-0.206773 -0.120644 -0.0874376)
(-0.175784 -0.11022 -0.0841791)
(-0.158725 -0.102764 -0.0826618)
(-0.137337 -0.0946058 -0.0804043)
(-0.120246 -0.0881208 -0.0790052)
(-0.104052 -0.0817231 -0.0774777)
(-0.0890353 -0.0761713 -0.0762859)
(-0.0753691 -0.0710731 -0.075259)
(-0.0626608 -0.0664658 -0.0744291)
(-0.050921 -0.0622853 -0.0738003)
(-0.04006 -0.0584807 -0.0733837)
(-0.0300223 -0.0550048 -0.0731966)
(-0.0207698 -0.0518128 -0.0732623)
(-0.0122734 -0.0488653 -0.0736095)
(-0.00450658 -0.0461235 -0.0742655)
(0.00249544 -0.0435506 -0.0752506)
(0.00873808 -0.0411003 -0.0765672)
(0.014259 -0.0387309 -0.0781988)
(0.0190342 -0.0363951 -0.0800941)
(0.0230458 -0.0340442 -0.0821575)
(0.0262726 -0.031646 -0.0842423)
(0.028684 -0.0291731 -0.0861636)
(0.0301694 -0.0266055 -0.0876763)
(0.0305389 -0.0239188 -0.0884506)
(0.029526 -0.0210346 -0.0883286)
(0.0272399 -0.0175354 -0.0873574)
(0.0247694 -0.00949464 -0.0847896)
(0.0108306 0.0417534 -0.0481272)
(0.0661561 -0.306716 -0.00148913)
(-0.0798782 -0.241937 -0.0390973)
(-0.0224379 -0.243969 -0.070292)
(-0.0558709 -0.237052 -0.0914783)
(-0.061979 -0.202982 -0.100755)
(-0.0637639 -0.175506 -0.105528)
(-0.0681076 -0.14878 -0.109934)
(-0.0684464 -0.128692 -0.112985)
(-0.0690135 -0.113269 -0.11528)
(-0.0678381 -0.100392 -0.116681)
(-0.0660256 -0.0894903 -0.117492)
(-0.0633924 -0.0800191 -0.117692)
(-0.0601128 -0.0717418 -0.11739)
(-0.0563024 -0.0644212 -0.116626)
(-0.0520436 -0.0578875 -0.11545)
(-0.0474379 -0.0520177 -0.113907)
(-0.0425705 -0.0467036 -0.112038)
(-0.0375203 -0.0418502 -0.109887)
(-0.0323601 -0.0373709 -0.107498)
(-0.0271563 -0.0331853 -0.104917)
(-0.0219693 -0.0292185 -0.102194)
(-0.0168539 -0.0254004 -0.0993775)
(-0.0118593 -0.0216626 -0.0965176)
(-0.00702426 -0.017943 -0.0936656)
(-0.00237792 -0.0141681 -0.0908553)
(0.00205264 -0.0102427 -0.0880934)
(0.00618352 -0.00603355 -0.0853498)
(0.00994078 -0.00133592 -0.0825387)
(0.0132936 0.00412804 -0.0795379)
(0.0161503 0.010769 -0.076171)
(0.0183462 0.0192923 -0.0721502)
(0.0196718 0.031296 -0.0668608)
(0.0196635 0.0517274 -0.0587513)
(0.0176588 0.0971014 -0.0443515)
(0.00698475 0.185709 -0.0162842)
(-0.0262741 0.0609587 -0.043254)
(-0.035236 0.00445777 -0.061974)
(-0.0548686 -0.0287285 -0.0630904)
(-0.0628047 -0.0498823 -0.0653656)
(-0.0689659 -0.0634395 -0.0671938)
(-0.0712405 -0.0661409 -0.0671733)
(-0.0717391 -0.0619367 -0.0661891)
(-0.0708367 -0.0548409 -0.0655638)
(-0.0690986 -0.0492127 -0.065623)
(-0.0667976 -0.044321 -0.0659691)
(-0.0639695 -0.0395995 -0.0664783)
(-0.0607336 -0.0352019 -0.0670943)
(-0.0571845 -0.0311855 -0.0677286)
(-0.0533874 -0.0274805 -0.0683046)
(-0.0494285 -0.0240285 -0.0687644)
(-0.0453571 -0.0207897 -0.0690487)
(-0.0412097 -0.0177119 -0.06911)
(-0.0369972 -0.0147402 -0.06892)
(-0.0327277 -0.0118257 -0.0684733)
(-0.0284173 -0.00892802 -0.0677859)
(-0.0240919 -0.00600823 -0.0668915)
(-0.0197859 -0.00302494 -0.0658408)
(-0.0155403 6.3868e-05 -0.0646983)
(-0.0114046 0.00329892 -0.0635402)
(-0.00744019 0.0067279 -0.0624368)
(-0.00371627 0.010414 -0.0614501)
(-0.000238089 0.0144399 -0.060623)
(0.00296167 0.0189307 -0.0599597)
(0.00576 0.0240675 -0.059413)
(0.00799976 0.0301887 -0.0588315)
(0.00950027 0.0380634 -0.0578862)
(0.0101377 0.0498863 -0.0558928)
(0.0095975 0.0737122 -0.0510915)
(0.00790039 0.137975 -0.0386808)
(0.00264318 0.246333 -0.0103389)
(0.00162439 0.000910527 -0.00685107)
(0.00413051 -0.0356075 -0.0485314)
(0.00183309 -0.0720757 -0.0771784)
(-0.00162637 -0.0974703 -0.0907454)
(-0.00510419 -0.10835 -0.0942895)
(-0.00826592 -0.109784 -0.0935751)
(-0.0115242 -0.102696 -0.0888671)
(-0.0144928 -0.0909039 -0.0806633)
(-0.016849 -0.0801341 -0.0718717)
(-0.0189154 -0.0712233 -0.0639713)
(-0.0208397 -0.0633804 -0.0572937)
(-0.0225457 -0.0562141 -0.051993)
(-0.0238743 -0.0495379 -0.0480959)
(-0.0246547 -0.043101 -0.0454456)
(-0.0247913 -0.0366416 -0.0438167)
(-0.0243109 -0.0303678 -0.0431154)
(-0.0232767 -0.0246408 -0.0431317)
(-0.0217634 -0.0194829 -0.0435618)
(-0.0198635 -0.0147759 -0.0441086)
(-0.0176679 -0.0103524 -0.0445293)
(-0.015241 -0.00602847 -0.0446479)
(-0.0126311 -0.00160809 -0.0443501)
(-0.00987294 0.00314717 -0.0435719)
(-0.00695413 0.00849135 -0.0422942)
(-0.0038963 0.0145545 -0.0405585)
(-0.000755707 0.0214292 -0.0384565)
(0.00243836 0.0293684 -0.0360969)
(0.00561053 0.0387576 -0.0336202)
(0.00859766 0.0501903 -0.0312045)
(0.0111788 0.064611 -0.0290397)
(0.0130008 0.083602 -0.0273163)
(0.0135033 0.110056 -0.0257565)
(0.0117214 0.150317 -0.0211677)
(0.00731397 0.217328 -0.00604788)
(0.0014162 0.291807 0.0128323)
(0.00123793 -0.0131909 -0.0294243)
(-0.000453725 -0.0388668 -0.0717673)
(-0.00415294 -0.0564501 -0.0841358)
(-0.00916084 -0.0684521 -0.0861494)
(-0.0147973 -0.0769743 -0.0844311)
(-0.0199289 -0.0820506 -0.0813072)
(-0.0237134 -0.0840547 -0.0776553)
(-0.0262599 -0.0834166 -0.0735509)
(-0.0275438 -0.0802389 -0.0689813)
(-0.0278023 -0.0745467 -0.0639164)
(-0.0273429 -0.0667252 -0.0582397)
(-0.0264226 -0.0580691 -0.0523906)
(-0.0252796 -0.0496213 -0.0469769)
(-0.0240125 -0.0416011 -0.0423206)
(-0.0226301 -0.0339606 -0.0385621)
(-0.0211384 -0.0266608 -0.0357625)
(-0.0195313 -0.0196753 -0.033915)
(-0.0178198 -0.0129695 -0.0329328)
(-0.0160186 -0.00649583 -0.0326733)
(-0.0141566 -0.000325171 -0.0329548)
(-0.0122819 0.00534997 -0.0335543)
(-0.0104585 0.0104013 -0.0342115)
(-0.00874388 0.0148052 -0.0346328)
(-0.00714492 0.0186699 -0.0345521)
(-0.00561913 0.0222227 -0.0337607)
(-0.00408782 0.0258356 -0.0321457)
(-0.00245326 0.0300437 -0.0297342)
(-0.000639273 0.0356215 -0.0266129)
(0.0015049 0.0438033 -0.0226627)
(0.00407412 0.0564324 -0.0179099)
(0.0068554 0.0763445 -0.0134605)
(0.0094106 0.110064 -0.0129181)
(0.0104327 0.169383 -0.0239299)
(0.00811999 0.257572 -0.0326732)
(0.00160504 0.324475 -0.00930892)
(-0.00013976 -0.0281883 0.00195009)
(-0.00369245 -0.0450333 -0.00642363)
(-0.00836704 -0.0563155 -0.0121396)
(-0.0137686 -0.06752 -0.0157109)
(-0.0187242 -0.079273 -0.0172779)
(-0.0224291 -0.0904937 -0.0174664)
(-0.0247524 -0.0996986 -0.0169385)
(-0.0258775 -0.106196 -0.0160866)
(-0.0260522 -0.109959 -0.0150609)
(-0.0253804 -0.11102 -0.0138738)
(-0.0239399 -0.109285 -0.0124908)
(-0.0219039 -0.104817 -0.0107767)
(-0.0195226 -0.0980317 -0.00856454)
(-0.0170579 -0.0895426 -0.00580538)
(-0.0147071 -0.0799169 -0.00261799)
(-0.0126064 -0.0695828 0.00070293)
(-0.0108145 -0.0588836 0.0036785)
(-0.00932273 -0.0480379 0.00580246)
(-0.00804622 -0.0370778 0.00668382)
(-0.00686722 -0.0259068 0.00608315)
(-0.00568779 -0.0144956 0.00390699)
(-0.00449801 -0.0029559 0.00019178)
(-0.00309372 0.00852755 -0.00484279)
(-0.00139067 0.0196989 -0.0110876)
(0.000392211 0.0302594 -0.0182376)
(0.00200287 0.0397228 -0.0255127)
(0.00319495 0.0476055 -0.0315408)
(0.00382691 0.0540842 -0.0349436)
(0.00395918 0.0603612 -0.0348067)
(0.00370229 0.0687636 -0.0298295)
(0.00315354 0.0846376 -0.0169313)
(0.00237255 0.122539 0.00734183)
(0.00125474 0.209382 0.0294208)
(0.000186908 0.320212 0.0170294)
(-0.00181516 0.358354 0.0061451)
(-0.00217491 -0.0166664 0.0168045)
(-0.00674197 -0.0265226 0.0166602)
(-0.0109114 -0.0382613 0.0158131)
(-0.0137351 -0.0556055 0.0161005)
(-0.0138653 -0.0777974 0.017195)
(-0.011661 -0.100409 0.0182905)
(-0.00811868 -0.119263 0.0188029)
(-0.0039716 -0.132833 0.0185562)
(0.000402068 -0.141084 0.0175063)
(0.00478472 -0.144183 0.0156081)
(0.00892693 -0.142358 0.0128677)
(0.0125988 -0.136064 0.00949281)
(0.015712 -0.125944 0.00586882)
(0.0182262 -0.112725 0.00253354)
(0.0200981 -0.0971522 0.000159825)
(0.0212736 -0.079994 -0.000480767)
(0.0216845 -0.0620959 0.00135086)
(0.0212481 -0.0445017 0.00603323)
(0.0199013 -0.0284652 0.0131483)
(0.0176964 -0.0150148 0.0213149)
(0.0149655 -0.00423426 0.0288175)
(0.0122944 0.00489565 0.034592)
(0.0100062 0.0138527 0.0385234)
(0.00834374 0.023945 0.0405745)
(0.00764819 0.0361301 0.0405596)
(0.00785194 0.0507798 0.0379683)
(0.00846834 0.0676439 0.0319898)
(0.00885357 0.0863358 0.0215771)
(0.00841711 0.106587 0.00544776)
(0.00679599 0.127121 -0.0148095)
(0.00470722 0.146962 -0.0294906)
(0.0034576 0.175196 -0.0289533)
(0.00405733 0.237335 -0.0046176)
(0.00497954 0.3395 0.0235633)
(0.00277373 0.367776 0.0252292)
(-0.000737533 -0.0120087 0.00506261)
(0.00326523 -0.0359966 0.00753748)
(0.0122677 -0.0702591 0.0117035)
(0.0255743 -0.113102 0.0168059)
(0.0407064 -0.155133 0.0214541)
(0.0555912 -0.189847 0.0251029)
(0.0689944 -0.214839 0.0276864)
(0.0803733 -0.230261 0.0292068)
(0.0896246 -0.237513 0.0297053)
(0.0968148 -0.238115 0.0292912)
(0.102046 -0.233216 0.0280726)
(0.105465 -0.223657 0.0260792)
(0.107315 -0.210137 0.0232722)
(0.107904 -0.193223 0.0195887)
(0.10756 -0.173363 0.0150122)
(0.106579 -0.1509 0.00966409)
(0.105167 -0.126124 0.00389112)
(0.103387 -0.0993475 -0.00167582)
(0.101133 -0.0711683 -0.00612466)
(0.0980876 -0.043193 -0.00842201)
(0.0938976 -0.0187645 -0.00808384)
(0.0881884 -0.00164529 -0.00555125)
(0.0807378 0.00733334 -0.00194713)
(0.0718087 0.0101875 0.00217905)
(0.0623142 0.0112969 0.00690688)
(0.0536665 0.0163023 0.0127996)
(0.0465585 0.0290784 0.0203756)
(0.0412591 0.0499944 0.0285054)
(0.0372883 0.0773922 0.0340901)
(0.0336445 0.109344 0.0334679)
(0.028654 0.138615 0.0226371)
(0.0216746 0.16204 0.00495371)
(0.0141983 0.212897 -0.00319084)
(0.00864584 0.327772 0.0162518)
(0.003467 0.381929 0.0282353)
(0.00183733 -0.0503451 0.00643651)
(0.0192594 -0.147053 0.0190901)
(0.0403374 -0.219654 0.0258328)
(0.0622671 -0.270843 0.0291635)
(0.082801 -0.303505 0.0302345)
(0.100562 -0.320806 0.0299469)
(0.114777 -0.325415 0.0286938)
(0.125043 -0.319734 0.0262882)
(0.131452 -0.306595 0.0224269)
(0.134428 -0.288509 0.0171918)
(0.134403 -0.267113 0.0110035)
(0.131723 -0.243533 0.00433676)
(0.126861 -0.218703 -0.00248645)
(0.120346 -0.193261 -0.00943954)
(0.112643 -0.167407 -0.0167213)
(0.10433 -0.141003 -0.024493)
(0.0960898 -0.113709 -0.0326388)
(0.0885456 -0.0850499 -0.0406723)
(0.0820807 -0.0544568 -0.0477249)
(0.0768314 -0.0213389 -0.0526045)
(0.0725243 0.0142909 -0.0538545)
(0.0689166 0.0511687 -0.0497009)
(0.0654084 0.0864651 -0.0390189)
(0.0612185 0.115304 -0.0217416)
(0.0560003 0.132523 0.000740473)
(0.0498158 0.136422 0.0241005)
(0.0443909 0.134672 0.0407168)
(0.0409913 0.136137 0.0494178)
(0.0386774 0.144575 0.0549768)
(0.0367963 0.169585 0.0597157)
(0.0354833 0.224999 0.057563)
(0.0299418 0.28853 0.0302319)
(0.0170673 0.346782 -0.000742567)
(0.00770834 0.421559 -0.00129404)
(0.00157458 0.438718 0.00723775)
(0.00750716 -0.158703 0.0144666)
(0.0267123 -0.318832 0.0259078)
(0.0410681 -0.387554 0.0281885)
(0.0509631 -0.411955 0.0277911)
(0.0563992 -0.412167 0.0260505)
(0.0586698 -0.398272 0.023236)
(0.0580193 -0.372362 0.0187025)
(0.0538759 -0.334823 0.0106945)
(0.0462416 -0.290173 -0.0023168)
(0.0368133 -0.244652 -0.0188484)
(0.0282334 -0.202135 -0.0353892)
(0.022037 -0.164585 -0.0491943)
(0.0182365 -0.132761 -0.0589436)
(0.0162373 -0.106513 -0.0646031)
(0.0153135 -0.0850636 -0.0673527)
(0.0148737 -0.0673312 -0.0689828)
(0.0145744 -0.0520858 -0.0708245)
(0.0143137 -0.0381117 -0.0732793)
(0.0139956 -0.0241999 -0.0761406)
(0.0135911 -0.00958915 -0.0788467)
(0.0133788 0.00603294 -0.0804266)
(0.0139358 0.022788 -0.0797362)
(0.0156503 0.0397007 -0.0758299)
(0.0183383 0.0544688 -0.0684886)
(0.0214182 0.0652869 -0.0581948)
(0.0242347 0.0717615 -0.0453591)
(0.0262617 0.0756897 -0.0304959)
(0.0273064 0.0808109 -0.0147841)
(0.0275408 0.0919308 0.00129806)
(0.0265289 0.120368 0.018695)
(0.0240642 0.192835 0.0309783)
(0.0191565 0.307046 0.0109979)
(0.00742568 0.416109 -0.026341)
(0.000888974 0.482961 -0.0326655)
(-0.000659976 0.473524 -0.0244007)
(0.00420566 -0.248977 0.0203719)
(0.00394915 -0.355154 0.0257355)
(0.000970616 -0.361388 0.0254408)
(-0.00304864 -0.35028 0.0250744)
(-0.00818239 -0.329143 0.0251673)
(-0.0134073 -0.294149 0.0242623)
(-0.0188802 -0.237715 0.0184226)
(-0.0249667 -0.165853 0.00125402)
(-0.0319584 -0.108155 -0.0273018)
(-0.0383578 -0.0839142 -0.0526465)
(-0.0422678 -0.0789709 -0.0659589)
(-0.0438008 -0.0776146 -0.0720612)
(-0.0434804 -0.0750948 -0.0752837)
(-0.0416294 -0.0704136 -0.0773787)
(-0.0384031 -0.0633129 -0.0789363)
(-0.0340595 -0.0538745 -0.0801236)
(-0.02903 -0.0424949 -0.0811027)
(-0.0236599 -0.0294829 -0.0821582)
(-0.018116 -0.0147956 -0.0835903)
(-0.0125436 0.00178888 -0.0855781)
(-0.00726027 0.0204121 -0.0880883)
(-0.00254726 0.040508 -0.0905833)
(0.00132405 0.0605172 -0.091928)
(0.00405183 0.0784303 -0.0907098)
(0.00544625 0.0933056 -0.0860639)
(0.00550176 0.105846 -0.0770436)
(0.0040611 0.117366 -0.0614435)
(0.00107866 0.130153 -0.0371165)
(-0.00315066 0.151064 -0.0054229)
(-0.0082793 0.197064 0.0276633)
(-0.0120299 0.293782 0.0475015)
(-0.0123788 0.431203 0.0281348)
(-0.0137277 0.520045 -0.0156161)
(-0.0125351 0.539923 -0.0292636)
(-0.00623584 0.471126 -0.0236497)
(-0.00265585 -0.225478 0.0161454)
(-0.00510191 -0.330419 0.0209091)
(-0.00555785 -0.356324 0.0220258)
(-0.00514209 -0.361885 0.022086)
(-0.00450345 -0.356123 0.0215777)
(-0.00387965 -0.335453 0.0201612)
(-0.0032929 -0.293769 0.0175907)
(-0.00204231 -0.234781 0.0126536)
(0.000230471 -0.175142 0.00302985)
(0.00215256 -0.133441 -0.00900054)
(0.00239472 -0.110737 -0.0189072)
(0.00134172 -0.0977296 -0.026134)
(-0.000232443 -0.0882069 -0.0316266)
(-0.00190313 -0.0796674 -0.035989)
(-0.00340982 -0.0713561 -0.0394858)
(-0.00458545 -0.0630483 -0.0422973)
(-0.00534489 -0.054618 -0.0446027)
(-0.00565899 -0.0458828 -0.0466117)
(-0.00553525 -0.0365325 -0.0485602)
(-0.0049781 -0.026053 -0.0507256)
(-0.00402155 -0.0137016 -0.0534468)
(-0.00282205 0.00147691 -0.0570949)
(-0.0015983 0.0204013 -0.0618337)
(-0.000535907 0.0431635 -0.0669332)
(-4.31468e-06 0.0683104 -0.0706205)
(-0.000548241 0.0932348 -0.0708622)
(-0.00261619 0.11566 -0.0660849)
(-0.00630611 0.135383 -0.0553618)
(-0.0112322 0.155813 -0.0379504)
(-0.016249 0.186649 -0.0134234)
(-0.0186657 0.248463 0.0161777)
(-0.0150703 0.361893 0.0392206)
(-0.00772404 0.478756 0.0383387)
(-0.00290177 0.504915 0.0308457)
(0.00029797 0.430535 0.02456)
(0.000414142 -0.224671 0.0114089)
(0.00405677 -0.343695 0.024642)
(0.00609736 -0.36476 0.0283436)
(0.00737383 -0.363928 0.0292627)
(0.00798003 -0.349269 0.0283086)
(0.00759079 -0.317423 0.0252698)
(0.00638404 -0.270635 0.0209765)
(0.00524292 -0.215205 0.0145305)
(0.00422789 -0.156135 0.000768714)
(0.00238088 -0.103284 -0.0222228)
(-0.000463264 -0.0659152 -0.0446403)
(-0.00321622 -0.043577 -0.0588587)
(-0.00525734 -0.0305662 -0.0663367)
(-0.00669213 -0.0219403 -0.0701913)
(-0.00765095 -0.0151189 -0.0721191)
(-0.00821349 -0.00896449 -0.0729122)
(-0.00850049 -0.00285265 -0.0730163)
(-0.00861159 0.00357773 -0.0727133)
(-0.00863223 0.0104751 -0.0722477)
(-0.00867995 0.0179151 -0.0718358)
(-0.00877869 0.0259365 -0.0716323)
(-0.00885233 0.0348517 -0.0717265)
(-0.00876853 0.0457219 -0.0721245)
(-0.00828377 0.0601843 -0.0727174)
(-0.00708531 0.0795774 -0.0730248)
(-0.005146 0.104003 -0.0719052)
(-0.00298786 0.131736 -0.0678001)
(-0.0015021 0.159667 -0.0598313)
(-0.00153859 0.185142 -0.0485813)
(-0.00313639 0.209023 -0.0352379)
(-0.00521209 0.239657 -0.0193961)
(-0.0052463 0.299034 0.00214693)
(-0.00171423 0.406215 0.0289824)
(0.00187539 0.46063 0.0398302)
(0.00204526 0.419997 0.0359219)
(-0.000593575 -0.230254 0.0194191)
(0.00273248 -0.34672 0.0364771)
(0.00438915 -0.365155 0.0388813)
(0.00575512 -0.361184 0.0373449)
(0.00601405 -0.33956 0.0316965)
(0.00385035 -0.298013 0.0229459)
(4.11988e-05 -0.243887 0.0169855)
(-0.00301607 -0.182559 0.0181551)
(-0.00407404 -0.114813 0.0215175)
(-0.00413521 -0.054091 0.0139431)
(-0.00546684 -0.0219283 -0.00432281)
(-0.00733919 -0.0112604 -0.0208515)
(-0.00863434 -0.00794068 -0.0324483)
(-0.00936913 -0.0062489 -0.0408909)
(-0.0096587 -0.00456872 -0.0475544)
(-0.00951887 -0.00235761 -0.0528351)
(-0.00899412 0.000583612 -0.0569168)
(-0.00817298 0.0042965 -0.060037)
(-0.00715725 0.00875337 -0.0624604)
(-0.00603594 0.0139178 -0.0644551)
(-0.00490584 0.0197689 -0.0662531)
(-0.00386283 0.0262979 -0.0680093)
(-0.00296072 0.0335157 -0.069754)
(-0.00210341 0.0419798 -0.0714722)
(-0.000986268 0.0531977 -0.0730411)
(0.000848706 0.069295 -0.0737981)
(0.00374032 0.0923175 -0.0720152)
(0.00774499 0.123843 -0.064457)
(0.0121645 0.163835 -0.0474664)
(0.0153709 0.210039 -0.0204873)
(0.0155551 0.262837 0.00843655)
(0.0121113 0.333709 0.0202503)
(0.00617771 0.42923 0.0188265)
(0.00347895 0.48065 0.0206761)
(0.00163746 0.445686 0.01782)
(0.00546755 -0.274676 0.0226235)
(0.0152311 -0.389279 0.0454409)
(0.0184122 -0.40297 0.0486445)
(0.0185291 -0.389732 0.0430668)
(0.01546 -0.350077 0.026654)
(0.00716851 -0.295811 0.00312424)
(-0.00454094 -0.247459 -0.0191749)
(-0.0157859 -0.209236 -0.0304581)
(-0.02364 -0.166335 -0.026185)
(-0.0265818 -0.105385 -0.0132983)
(-0.0252679 -0.0418045 -0.0113399)
(-0.0229094 -0.00719561 -0.0221336)
(-0.0208417 0.00503802 -0.0312117)
(-0.0188469 0.0110439 -0.0377207)
(-0.0167219 0.0151198 -0.0432851)
(-0.0145585 0.0182528 -0.0482432)
(-0.0124385 0.0209554 -0.0524964)
(-0.0103415 0.0236065 -0.0560586)
(-0.0082727 0.0264545 -0.0590219)
(-0.00626245 0.0296437 -0.061528)
(-0.0043629 0.0332547 -0.0637447)
(-0.00264783 0.0373466 -0.0658375)
(-0.0012128 0.0419925 -0.0679265)
(-0.000120465 0.0473087 -0.0700259)
(0.000676744 0.0534675 -0.0720066)
(0.00140818 0.0610775 -0.0736413)
(0.00243724 0.0720046 -0.0744219)
(0.00427152 0.0901618 -0.072376)
(0.00732436 0.121714 -0.0621106)
(0.0112133 0.174239 -0.0349757)
(0.0132933 0.249919 0.00765347)
(0.0114929 0.351939 0.035877)
(0.00636603 0.46395 0.0298554)
(0.00269627 0.509415 0.022157)
(0.00126122 0.45889 0.01443)
(0.00284735 -0.347561 0.0672375)
(0.00120803 -0.40393 0.0911304)
(-0.00368809 -0.389822 0.0919877)
(-0.0130084 -0.328962 0.0748436)
(-0.026521 -0.222616 0.0430933)
(-0.0383066 -0.117416 0.0182718)
(-0.0477838 -0.0369042 -0.00311255)
(-0.0573927 -0.00329211 -0.0241562)
(-0.0639258 -0.00314842 -0.0379174)
(-0.0656511 -0.00804918 -0.0444692)
(-0.063878 -0.0092296 -0.0473082)
(-0.0599214 -0.00735536 -0.0495373)
(-0.0543656 -0.00418744 -0.0520587)
(-0.0484302 -0.000774229 -0.0546799)
(-0.0428072 0.00255622 -0.0571259)
(-0.037427 0.00590447 -0.0593592)
(-0.032197 0.00938558 -0.0613984)
(-0.0271877 0.0130461 -0.0632115)
(-0.0224359 0.0169291 -0.0647967)
(-0.0179668 0.0210721 -0.0661931)
(-0.0138113 0.0255018 -0.0674709)
(-0.0100096 0.0302439 -0.0687204)
(-0.00661328 0.0353374 -0.0700349)
(-0.00368445 0.0408513 -0.0714833)
(-0.00129218 0.0468863 -0.0730634)
(0.000471648 0.0535888 -0.0746303)
(0.00178116 0.0619451 -0.0759821)
(0.00289637 0.0746747 -0.0764793)
(0.00421143 0.098126 -0.0730831)
(0.00627721 0.147019 -0.056166)
(0.00834225 0.23684 -0.0154748)
(0.00647804 0.356292 0.0232464)
(0.00283153 0.474028 0.030426)
(0.000521806 0.515332 0.0258063)
(0.000174234 0.459189 0.0179684)
(-0.00668278 -0.32636 0.0782294)
(-0.0136755 -0.370553 0.0896787)
(-0.0239548 -0.343346 0.0792196)
(-0.0381434 -0.249745 0.0398233)
(-0.0485854 -0.16112 -0.000931279)
(-0.05303 -0.119019 -0.0115145)
(-0.0522309 -0.0873843 -0.0141765)
(-0.0488091 -0.0622424 -0.0195952)
(-0.0449871 -0.0485842 -0.0254753)
(-0.0418464 -0.0406003 -0.0302553)
(-0.0389896 -0.0342545 -0.034441)
(-0.0360464 -0.0286325 -0.0383567)
(-0.0330051 -0.0235946 -0.0420037)
(-0.0298867 -0.0188809 -0.0454113)
(-0.0266631 -0.0142514 -0.0486466)
(-0.0233552 -0.00965537 -0.0517042)
(-0.020031 -0.00508379 -0.0545375)
(-0.0167282 -0.000470769 -0.0571335)
(-0.0134706 0.00425064 -0.0594955)
(-0.010276 0.00912578 -0.0616354)
(-0.00717849 0.014179 -0.0635817)
(-0.00423068 0.0194233 -0.065383)
(-0.00149599 0.0248754 -0.0671036)
(0.000953782 0.0305737 -0.068808)
(0.00303301 0.0365977 -0.0705309)
(0.004629 0.0430808 -0.0722276)
(0.00569444 0.0503793 -0.0737283)
(0.00633806 0.0602659 -0.0748355)
(0.00670248 0.0784614 -0.074015)
(0.00681808 0.121741 -0.0637901)
(0.00754435 0.222633 -0.0268958)
(0.0059083 0.37261 0.0197735)
(0.000867069 0.490553 0.0302591)
(-0.00143426 0.525911 0.0279524)
(-0.000884048 0.459355 0.0214861)
(-0.0062074 -0.295869 0.0916414)
(-0.0119471 -0.337683 0.111213)
(-0.018704 -0.316012 0.113062)
(-0.0241221 -0.239105 0.0997422)
(-0.0226891 -0.149772 0.0671054)
(-0.0212487 -0.0998686 0.0378149)
(-0.0209139 -0.0731907 0.0188902)
(-0.0209227 -0.0552059 0.00601608)
(-0.0208268 -0.0422621 -0.00332445)
(-0.0205621 -0.0336363 -0.0102772)
(-0.0201405 -0.0278105 -0.0156922)
(-0.0194959 -0.0231998 -0.0202942)
(-0.0185757 -0.0188439 -0.024584)
(-0.0173913 -0.0145166 -0.0287216)
(-0.0160217 -0.0102955 -0.0326622)
(-0.0145186 -0.00613685 -0.0363891)
(-0.0129451 -0.0019644 -0.0398958)
(-0.0113122 0.00230473 -0.0431857)
(-0.00962037 0.00674292 -0.0462761)
(-0.00792012 0.0114123 -0.0491884)
(-0.00626602 0.0163527 -0.0519383)
(-0.00471311 0.0215798 -0.0545397)
(-0.00332801 0.0270925 -0.0570232)
(-0.00219 0.0328888 -0.0594332)
(-0.00139799 0.0389933 -0.0618032)
(-0.00109447 0.045502 -0.0641082)
(-0.00135354 0.0528121 -0.0661851)
(-0.00218356 0.0626509 -0.0677873)
(-0.00377399 0.0801495 -0.0677277)
(-0.00617556 0.120026 -0.0598297)
(-0.00741258 0.216356 -0.0265288)
(-0.00491183 0.380621 0.031856)
(-0.00454815 0.504771 0.0534827)
(-0.00462398 0.527494 0.0497353)
(-0.00169245 0.439767 0.0363664)
(-0.00956247 -0.265556 0.0735499)
(-0.0179476 -0.338738 0.0833975)
(-0.0233312 -0.337027 0.0832208)
(-0.0241272 -0.304121 0.0842673)
(-0.0172778 -0.236008 0.0823414)
(-0.00574487 -0.161352 0.0713738)
(0.00453312 -0.102193 0.0548262)
(0.0113026 -0.0645443 0.0375871)
(0.0137506 -0.0444859 0.023194)
(0.0130063 -0.0341608 0.0122794)
(0.0106351 -0.0275458 0.00384522)
(0.00783656 -0.022101 -0.00299232)
(0.00543309 -0.0173719 -0.0086635)
(0.00361973 -0.0131535 -0.0134656)
(0.00226449 -0.00893117 -0.0177491)
(0.00130037 -0.0044273 -0.021721)
(0.000680762 0.000266969 -0.0254143)
(0.000283111 0.00513261 -0.0288589)
(6.64615e-06 0.0102072 -0.0320912)
(-0.000192615 0.0155401 -0.0351491)
(-0.000359273 0.0211816 -0.0380724)
(-0.000545851 0.027172 -0.0408907)
(-0.000812371 0.0335298 -0.0436208)
(-0.00124194 0.0402467 -0.0462907)
(-0.00194471 0.047314 -0.0489403)
(-0.00304722 0.0550816 -0.0516717)
(-0.0047533 0.0643291 -0.0546144)
(-0.0072175 0.07614 -0.0576597)
(-0.010453 0.0930484 -0.0601348)
(-0.0141949 0.123336 -0.0588295)
(-0.0169133 0.189749 -0.0419278)
(-0.014219 0.32041 0.00720914)
(-0.0074161 0.456631 0.054764)
(-0.00352585 0.483185 0.0606114)
(-0.000462084 0.406967 0.0473357)
(-0.00611521 -0.2121 0.0522091)
(-0.0116268 -0.330475 0.0581038)
(-0.0142384 -0.365156 0.0608516)
(-0.014263 -0.378187 0.0660604)
(-0.0118278 -0.37297 0.0747871)
(-0.00346922 -0.331734 0.0857616)
(0.010084 -0.258486 0.0926314)
(0.0250909 -0.17348 0.09096)
(0.038493 -0.0939497 0.0786442)
(0.0470801 -0.0364708 0.0582605)
(0.0493133 -0.00730223 0.0374276)
(0.0469297 0.00320641 0.0213194)
(0.0422311 0.00676838 0.00960159)
(0.036804 0.00884885 0.000718518)
(0.0318689 0.0110233 -0.00623166)
(0.0277629 0.0136475 -0.0118197)
(0.0243287 0.0168356 -0.0164733)
(0.0213692 0.0206348 -0.0204676)
(0.0188006 0.0249873 -0.0239393)
(0.0165546 0.029835 -0.0269744)
(0.0145266 0.0351729 -0.0296691)
(0.0126315 0.0409996 -0.0321154)
(0.0107948 0.0473057 -0.0343801)
(0.00896884 0.0541103 -0.0365038)
(0.00702044 0.0617466 -0.0385912)
(0.00482328 0.0707019 -0.0407757)
(0.00228459 0.0812649 -0.0432233)
(-0.000745491 0.0939659 -0.046183)
(-0.00431542 0.11026 -0.0497582)
(-0.00817717 0.134325 -0.0532192)
(-0.0115014 0.177847 -0.0520117)
(-0.0117858 0.263875 -0.0316476)
(-0.00618123 0.385871 0.0132239)
(-0.000996638 0.434685 0.0349401)
(0.000734795 0.385275 0.0357081)
(-0.00185488 -0.216965 0.0260534)
(-0.00139474 -0.346052 0.015308)
(-0.00196012 -0.38192 0.00922445)
(-0.0025224 -0.394492 0.00697876)
(-0.00292643 -0.399812 0.00830099)
(-0.00230219 -0.399957 0.0152425)
(0.00167389 -0.385086 0.029936)
(0.0111336 -0.342059 0.051073)
(0.0251148 -0.269375 0.0731668)
(0.0415891 -0.173913 0.0894283)
(0.0566161 -0.0742835 0.0912021)
(0.0648971 -0.00106788 0.0746442)
(0.0649576 0.0327598 0.049447)
(0.0599303 0.0426277 0.0267972)
(0.052867 0.0442381 0.00989416)
(0.0459913 0.0442595 -0.00189264)
(0.0403367 0.0447683 -0.0101596)
(0.035882 0.0462234 -0.0163544)
(0.0322184 0.0487009 -0.0213872)
(0.0291132 0.0521448 -0.025616)
(0.0264846 0.0564132 -0.0291229)
(0.0241486 0.0614566 -0.0320057)
(0.0219442 0.0672205 -0.0343829)
(0.0198016 0.073618 -0.0363547)
(0.0175879 0.0809274 -0.038051)
(0.0151548 0.0896019 -0.0396056)
(0.0124632 0.0997873 -0.0411661)
(0.00939947 0.111777 -0.0429696)
(0.00591303 0.126479 -0.0453338)
(0.00212351 0.146505 -0.0485236)
(-0.00161705 0.179216 -0.051887)
(-0.00401394 0.241814 -0.0495329)
(-0.00255639 0.343751 -0.0276107)
(0.000504117 0.408726 -0.00305443)
(0.000786188 0.377385 0.011609)
(-0.000188819 -0.216121 0.0114459)
(0.00319718 -0.345856 0.00741463)
(0.00697146 -0.383332 0.00497672)
(0.0105665 -0.394907 0.00246706)
(0.0139883 -0.396591 -0.000892917)
(0.0168541 -0.39274 -0.00532031)
(0.0188438 -0.386291 -0.00967306)
(0.0204321 -0.376951 -0.0109337)
(0.023315 -0.356551 -0.00368437)
(0.0299763 -0.309826 0.0169516)
(0.041549 -0.226256 0.0479658)
(0.0563256 -0.110108 0.07743)
(0.0678536 0.00218264 0.0868596)
(0.0708435 0.068424 0.0726454)
(0.0674021 0.0908036 0.0483067)
(0.0608804 0.091213 0.0230138)
(0.0535028 0.0842908 0.00166525)
(0.0471787 0.078322 -0.0128706)
(0.0423197 0.075582 -0.0219851)
(0.0384262 0.0754729 -0.0283263)
(0.0351563 0.0774707 -0.033281)
(0.0324627 0.0811726 -0.0372622)
(0.0301712 0.0862926 -0.0403966)
(0.0281041 0.0925801 -0.0427974)
(0.0260948 0.100223 -0.0446321)
(0.0239109 0.109622 -0.0460644)
(0.0214564 0.120725 -0.0472034)
(0.0185873 0.133344 -0.0482116)
(0.0151811 0.1477 -0.0493354)
(0.011313 0.165207 -0.0508987)
(0.00727459 0.190759 -0.0531519)
(0.00375799 0.23837 -0.0549297)
(0.00186862 0.325645 -0.0483986)
(0.00241692 0.396406 -0.0312485)
(0.00114984 0.377208 -0.0098788)
(0.00020037 -0.246129 0.00760392)
(0.00485727 -0.39878 0.00699099)
(0.0107743 -0.443991 0.00800319)
(0.0167204 -0.456843 0.00879719)
(0.0230888 -0.456144 0.00910704)
(0.0298376 -0.444402 0.00847729)
(0.0362547 -0.420625 0.00572047)
(0.0411641 -0.387124 -0.000574308)
(0.0436308 -0.353005 -0.00969272)
(0.0440621 -0.324455 -0.0175554)
(0.0443539 -0.292768 -0.0161639)
(0.0484683 -0.230318 0.00721053)
(0.0580566 -0.121477 0.0472796)
(0.066391 -0.00300524 0.0747008)
(0.0675632 0.0770395 0.0749264)
(0.0635377 0.113338 0.0591255)
(0.0576019 0.124426 0.0381158)
(0.0509082 0.122329 0.0149653)
(0.0447138 0.115002 -0.00644316)
(0.0399594 0.109241 -0.0219755)
(0.0367091 0.106995 -0.0318377)
(0.0342775 0.107452 -0.0387602)
(0.0323145 0.110179 -0.04415)
(0.0308031 0.114914 -0.048326)
(0.0296135 0.121403 -0.0514501)
(0.0285179 0.129887 -0.0538347)
(0.0272887 0.141025 -0.0556379)
(0.0257036 0.154697 -0.056923)
(0.023462 0.170403 -0.0578374)
(0.0204362 0.188117 -0.0586002)
(0.0168116 0.210237 -0.0594155)
(0.0128512 0.247067 -0.0600782)
(0.00825561 0.32245 -0.0572701)
(0.00558027 0.399163 -0.0457136)
(0.00181156 0.388878 -0.0221952)
(-0.000493597 -0.25428 -0.00825524)
(0.00435995 -0.419061 -0.0116251)
(0.0108078 -0.472701 -0.00979866)
(0.017141 -0.490592 -0.00841838)
(0.0235499 -0.494197 -0.00764457)
(0.0300219 -0.487561 -0.00734536)
(0.0362971 -0.468664 -0.00755647)
(0.042163 -0.43184 -0.00850469)
(0.046852 -0.375457 -0.0107783)
(0.0493572 -0.311899 -0.0150256)
(0.0494109 -0.25686 -0.0204915)
(0.0477951 -0.208037 -0.0208331)
(0.048314 -0.13626 -9.40695e-05)
(0.0529482 -0.0268833 0.0382362)
(0.0553883 0.0746376 0.062262)
(0.0531769 0.129289 0.061873)
(0.0493682 0.149096 0.0500798)
(0.0448866 0.153561 0.0338982)
(0.0397451 0.149243 0.0140294)
(0.034916 0.140554 -0.00627985)
(0.0310595 0.133033 -0.0228073)
(0.0284154 0.129506 -0.0340885)
(0.026738 0.129427 -0.041709)
(0.0257013 0.132013 -0.0473701)
(0.0251918 0.136983 -0.0517523)
(0.0250916 0.144446 -0.0552181)
(0.0252228 0.155153 -0.0580554)
(0.025391 0.169713 -0.0603362)
(0.0252266 0.188158 -0.0620871)
(0.0242516 0.210056 -0.0633313)
(0.0221435 0.236316 -0.063973)
(0.0185235 0.27539 -0.0632893)
(0.0118762 0.351204 -0.0583112)
(0.00642051 0.426905 -0.0471755)
(0.00161622 0.413414 -0.0251589)
(0.00177381 -0.269862 -0.0122344)
(0.0119298 -0.457362 -0.00606462)
(0.0218971 -0.519197 -0.00110918)
(0.0303885 -0.53693 0.000684988)
(0.0380255 -0.537023 0.000535374)
(0.0449055 -0.52379 -0.00173618)
(0.0499337 -0.494807 -0.00741605)
(0.052033 -0.450041 -0.0169322)
(0.0515991 -0.394678 -0.0273757)
(0.0501641 -0.332957 -0.0346989)
(0.0484454 -0.270446 -0.0378187)
(0.0461185 -0.211572 -0.037351)
(0.0433769 -0.147703 -0.0280444)
(0.0434162 -0.0572344 -0.00067517)
(0.046147 0.050603 0.0318445)
(0.0459626 0.131497 0.0467996)
(0.0431046 0.167031 0.0444751)
(0.0402696 0.178289 0.0363092)
(0.0373363 0.1805 0.0256437)
(0.0338491 0.176988 0.0120611)
(0.0303091 0.169662 -0.00285525)
(0.0272183 0.16172 -0.0166345)
(0.024916 0.156016 -0.0276242)
(0.0234949 0.153614 -0.0356729)
(0.0227682 0.154276 -0.0416416)
(0.0225618 0.157867 -0.0463451)
(0.0227492 0.164856 -0.0503195)
(0.0232089 0.176366 -0.0538607)
(0.02372 0.194103 -0.0571008)
(0.023822 0.220205 -0.0599788)