/*--------------------------------*- C++ -*----------------------------------*\
| =========                 |                                                 |
| \\      /  F ield         | OpenFOAM: The Open Source CFD Toolbox           |
|  \\    /   O peration     | Version:  v2006                                 |
|   \\  /    A nd           | Website:  www.openfoam.com                      |
|    \\/     M anipulation  |                                                 |
\*---------------------------------------------------------------------------*/
FoamFile
{
    version     2.0;
    format      ascii;
    class       volScalarField;
    location    "67";
    object      T;
}
// * * * * * * * * * * * * * * * * * * * * * * * * * * * * * * * * * * * * * //

dimensions      [0 0 0 1 0 0 0];


internalField   nonuniform List<scalar> 
78750
(
300.081
300.213
300.301
300.365
300.416
300.459
300.495
300.527
300.555
300.579
300.6
300.618
300.634
300.647
300.658
300.667
300.673
300.678
300.681
300.682
300.682
300.681
300.679
300.677
300.674
300.671
300.67
300.671
300.674
300.687
300.733
300.879
301.26
302.016
303.119
300.067
300.192
300.307
300.41
300.503
300.584
300.653
300.712
300.764
300.81
300.849
300.883
300.911
300.933
300.951
300.964
300.972
300.975
300.975
300.97
300.961
300.949
300.933
300.914
300.894
300.873
300.853
300.837
300.831
300.847
300.921
301.127
301.574
302.337
303.404
300.07
300.203
300.325
300.437
300.539
300.629
300.708
300.774
300.832
300.883
300.928
300.968
301.003
301.033
301.059
301.081
301.098
301.111
301.119
301.122
301.119
301.11
301.097
301.077
301.054
301.028
301.002
300.981
300.975
301.004
301.113
301.372
301.857
302.622
303.681
300.08
300.233
300.373
300.5
300.612
300.708
300.789
300.857
300.915
300.966
301.011
301.051
301.086
301.117
301.143
301.166
301.184
301.198
301.208
301.213
301.214
301.209
301.2
301.184
301.164
301.14
301.115
301.096
301.096
301.14
301.276
301.572
302.076
302.84
303.904
300.092
300.267
300.428
300.571
300.693
300.794
300.876
300.944
301.003
301.055
301.101
301.141
301.177
301.207
301.233
301.255
301.271
301.283
301.29
301.293
301.291
301.285
301.275
301.26
301.241
301.22
301.2
301.188
301.202
301.268
301.436
301.766
302.282
303.042
304.109
300.101
300.295
300.47
300.622
300.749
300.85
300.932
301.001
301.061
301.113
301.16
301.202
301.239
301.271
301.298
301.319
301.335
301.345
301.351
301.352
301.349
301.341
301.33
301.315
301.298
301.28
301.265
301.264
301.291
301.379
301.575
301.93
302.455
303.216
304.286
300.109
300.316
300.504
300.666
300.798
300.902
300.986
301.056
301.118
301.173
301.222
301.266
301.305
301.338
301.365
301.385
301.399
301.407
301.409
301.407
301.4
301.389
301.375
301.359
301.343
301.328
301.32
301.329
301.373
301.484
301.707
302.082
302.617
303.383
304.454
300.116
300.336
300.534
300.703
300.838
300.944
301.029
301.101
301.164
301.221
301.272
301.319
301.36
301.394
301.422
301.442
301.456
301.462
301.462
301.457
301.447
301.433
301.417
301.399
301.382
301.37
301.367
301.386
301.446
301.577
301.822
302.214
302.76
303.534
304.607
300.121
300.351
300.557
300.732
300.872
300.981
301.068
301.142
301.208
301.268
301.322
301.37
301.413
301.449
301.477
301.498
301.511
301.516
301.514
301.506
301.493
301.476
301.457
301.437
301.42
301.409
301.412
301.439
301.513
301.663
301.928
302.334
302.891
303.675
304.75
300.126
300.365
300.579
300.761
300.904
301.015
301.105
301.181
301.249
301.311
301.367
301.418
301.462
301.5
301.529
301.551
301.563
301.568
301.565
301.555
301.539
301.519
301.498
301.476
301.458
301.448
301.455
301.49
301.575
301.74
302.021
302.441
303.008
303.802
304.879
300.13
300.378
300.599
300.785
300.933
301.047
301.138
301.217
301.287
301.351
301.41
301.463
301.509
301.548
301.579
301.601
301.614
301.618
301.614
301.602
301.585
301.563
301.539
301.516
301.497
301.488
301.497
301.539
301.634
301.812
302.108
302.538
303.116
303.919
304.998
300.135
300.39
300.618
300.81
300.961
301.077
301.171
301.252
301.325
301.391
301.452
301.506
301.555
301.595
301.627
301.65
301.663
301.667
301.662
301.649
301.63
301.607
301.581
301.556
301.537
301.528
301.54
301.587
301.69
301.88
302.187
302.628
303.214
304.026
305.106
300.139
300.402
300.636
300.833
300.988
301.106
301.203
301.286
301.36
301.429
301.491
301.548
301.598
301.64
301.673
301.696
301.71
301.714
301.708
301.695
301.675
301.65
301.623
301.597
301.577
301.569
301.583
301.634
301.745
301.944
302.263
302.712
303.306
304.126
305.207
300.143
300.413
300.654
300.856
301.014
301.135
301.233
301.318
301.395
301.465
301.53
301.589
301.64
301.683
301.717
301.741
301.755
301.759
301.754
301.74
301.719
301.693
301.664
301.637
301.617
301.61
301.626
301.681
301.799
302.007
302.335
302.791
303.392
304.218
305.3
300.146
300.424
300.671
300.878
301.039
301.162
301.262
301.349
301.428
301.5
301.567
301.627
301.68
301.725
301.76
301.785
301.799
301.803
301.798
301.783
301.762
301.735
301.705
301.678
301.657
301.651
301.669
301.729
301.852
302.068
302.404
302.866
303.473
304.306
305.389
300.15
300.435
300.688
300.899
301.063
301.188
301.291
301.38
301.46
301.535
301.603
301.665
301.72
301.766
301.802
301.827
301.842
301.847
301.841
301.826
301.804
301.776
301.746
301.718
301.698
301.692
301.713
301.776
301.905
302.129
302.472
302.939
303.551
304.389
305.473
300.154
300.446
300.704
300.92
301.086
301.214
301.318
301.409
301.492
301.568
301.638
301.702
301.758
301.805
301.842
301.868
301.884
301.889
301.883
301.869
301.846
301.818
301.787
301.759
301.739
301.734
301.757
301.824
301.959
302.189
302.539
303.01
303.626
304.469
305.554
300.158
300.456
300.721
300.94
301.109
301.239
301.345
301.438
301.522
301.6
301.672
301.737
301.795
301.843
301.881
301.908
301.925
301.93
301.925
301.91
301.887
301.859
301.828
301.8
301.779
301.776
301.801
301.872
302.012
302.248
302.604
303.079
303.698
304.545
305.632
300.161
300.466
300.736
300.96
301.131
301.263
301.371
301.465
301.552
301.631
301.705
301.772
301.83
301.88
301.919
301.947
301.965
301.971
301.966
301.952
301.929
301.9
301.869
301.84
301.821
301.818
301.846
301.92
302.065
302.307
302.669
303.146
303.768
304.619
305.707
300.165
300.476
300.752
300.979
301.153
301.287
301.396
301.492
301.581
301.662
301.737
301.806
301.866
301.916
301.956
301.986
302.004
302.011
302.007
301.992
301.97
301.941
301.91
301.881
301.862
301.861
301.89
301.968
302.118
302.366
302.732
303.212
303.836
304.691
305.78
300.168
300.486
300.767
300.998
301.174
301.309
301.421
301.519
301.609
301.692
301.769
301.838
301.9
301.951
301.993
302.023
302.042
302.05
302.046
302.033
302.011
301.982
301.951
301.923
301.904
301.904
301.935
302.017
302.171
302.424
302.794
303.276
303.903
304.761
305.85
300.172
300.496
300.782
301.017
301.195
301.332
301.445
301.545
301.636
301.721
301.799
301.871
301.933
301.986
302.028
302.06
302.08
302.088
302.086
302.073
302.052
302.023
301.993
301.964
301.946
301.947
301.98
302.065
302.223
302.481
302.856
303.34
303.968
304.829
305.919
300.175
300.505
300.796
301.035
301.216
301.354
301.469
301.57
301.663
301.75
301.83
301.902
301.966
302.02
302.063
302.095
302.116
302.126
302.125
302.113
302.092
302.064
302.034
302.006
301.988
301.99
302.026
302.114
302.276
302.539
302.917
303.402
304.032
304.895
305.987
300.178
300.515
300.811
301.053
301.236
301.376
301.492
301.595
301.69
301.778
301.859
301.933
301.998
302.053
302.098
302.131
302.153
302.163
302.163
302.152
302.132
302.106
302.076
302.048
302.031
302.034
302.072
302.162
302.329
302.595
302.977
303.463
304.094
304.96
306.052
300.181
300.524
300.825
301.071
301.256
301.397
301.515
301.62
301.716
301.806
301.888
301.964
302.03
302.086
302.131
302.166
302.188
302.2
302.201
302.191
302.173
302.147
302.117
302.091
302.074
302.078
302.117
302.211
302.381
302.652
303.037
303.524
304.156
305.024
306.117
300.185
300.533
300.839
301.088
301.275
301.418
301.538
301.644
301.742
301.833
301.917
301.994
302.061
302.118
302.165
302.2
302.224
302.237
302.238
302.23
302.212
302.188
302.159
302.133
302.117
302.122
302.164
302.26
302.433
302.708
303.095
303.583
304.216
305.087
306.18
300.188
300.542
300.853
301.105
301.294
301.439
301.56
301.668
301.768
301.86
301.946
302.024
302.092
302.15
302.197
302.234
302.258
302.272
302.275
302.268
302.252
302.228
302.201
302.176
302.161
302.167
302.21
302.309
302.486
302.764
303.154
303.643
304.276
305.148
306.243
300.191
300.551
300.867
301.122
301.314
301.46
301.583
301.692
301.793
301.888
301.975
302.053
302.123
302.182
302.23
302.267
302.293
302.308
302.312
302.306
302.291
302.269
302.243
302.219
302.204
302.212
302.257
302.358
302.538
302.819
303.212
303.701
304.335
305.209
306.305
300.194
300.56
300.881
301.139
301.332
301.481
301.605
301.716
301.819
301.914
302.003
302.083
302.153
302.213
302.262
302.3
302.327
302.343
302.348
302.344
302.33
302.309
302.285
302.261
302.248
302.257
302.304
302.407
302.59
302.875
303.27
303.759
304.394
305.27
306.367
300.197
300.569
300.894
301.156
301.351
301.501
301.627
301.74
301.844
301.941
302.031
302.112
302.184
302.244
302.294
302.333
302.36
302.377
302.384
302.381
302.369
302.349
302.326
302.304
302.293
302.303
302.351
302.457
302.643
302.931
303.328
303.818
304.452
305.33
306.428
300.201
300.578
300.908
301.173
301.37
301.521
301.649
301.764
301.87
301.968
302.059
302.141
302.214
302.276
302.326
302.365
302.394
302.412
302.419
302.418
302.407
302.389
302.368
302.347
302.337
302.349
302.399
302.507
302.696
302.987
303.386
303.876
304.511
305.391
306.489
300.204
300.587
300.922
301.19
301.389
301.542
301.671
301.787
301.895
301.995
302.087
302.171
302.244
302.307
302.358
302.398
302.427
302.446
302.455
302.454
302.445
302.429
302.409
302.39
302.381
302.395
302.447
302.557
302.75
303.044
303.444
303.934
304.57
305.451
306.55
300.207
300.596
300.935
301.207
301.408
301.562
301.693
301.811
301.92
302.022
302.116
302.2
302.274
302.338
302.389
302.43
302.46
302.48
302.489
302.49
302.482
302.468
302.45
302.433
302.426
302.441
302.495
302.609
302.804
303.101
303.503
303.993
304.629
305.511
306.612
300.21
300.605
300.949
301.224
301.427
301.583
301.715
301.835
301.946
302.049
302.144
302.229
302.305
302.369
302.421
302.462
302.493
302.513
302.524
302.526
302.52
302.507
302.491
302.476
302.471
302.488
302.544
302.66
302.859
303.159
303.562
304.053
304.688
305.571
306.672
300.213
300.614
300.963
301.24
301.445
301.603
301.738
301.859
301.971
302.076
302.172
302.259
302.335
302.399
302.453
302.494
302.526
302.547
302.558
302.561
302.557
302.546
302.531
302.518
302.515
302.535
302.594
302.713
302.914
303.217
303.622
304.112
304.747
305.632
306.733
300.216
300.623
300.977
301.257
301.464
301.624
301.76
301.883
301.997
302.103
302.201
302.288
302.365
302.43
302.484
302.527
302.558
302.58
302.593
302.597
302.594
302.584
302.572
302.561
302.56
302.582
302.644
302.765
302.97
303.276
303.682
304.172
304.807
305.692
306.794
300.219
300.632
300.99
301.274
301.483
301.644
301.782
301.907
302.023
302.13
302.229
302.318
302.395
302.461
302.516
302.559
302.591
302.613
302.627
302.632
302.63
302.622
302.612
302.603
302.605
302.629
302.694
302.819
303.027
303.335
303.743
304.232
304.867
305.752
306.854
300.223
300.641
301.004
301.291
301.502
301.665
301.804
301.931
302.049
302.158
302.258
302.347
302.426
302.492
302.547
302.59
302.623
302.646
302.66
302.667
302.666
302.66
302.652
302.646
302.65
302.677
302.744
302.872
303.084
303.395
303.803
304.292
304.926
305.812
306.914
300.226
300.65
301.018
301.308
301.521
301.686
301.827
301.955
302.075
302.185
302.286
302.377
302.456
302.523
302.579
302.622
302.656
302.679
302.694
302.702
302.702
302.698
302.692
302.688
302.694
302.724
302.795
302.926
303.141
303.454
303.864
304.352
304.986
305.872
306.973
300.229
300.659
301.032
301.325
301.54
301.706
301.849
301.98
302.1
302.213
302.315
302.407
302.487
302.554
302.61
302.654
302.688
302.712
302.728
302.736
302.738
302.736
302.731
302.729
302.739
302.772
302.845
302.98
303.198
303.514
303.925
304.412
305.045
305.931
307.032
300.232
300.669
301.046
301.343
301.559
301.727
301.872
302.004
302.127
302.24
302.344
302.437
302.517
302.586
302.642
302.686
302.72
302.745
302.761
302.771
302.774
302.773
302.77
302.771
302.783
302.819
302.896
303.035
303.256
303.574
303.985
304.472
305.104
305.989
307.09
300.236
300.678
301.061
301.36
301.578
301.748
301.894
302.028
302.153
302.268
302.373
302.467
302.548
302.617
302.673
302.718
302.752
302.778
302.795
302.805
302.809
302.81
302.81
302.813
302.828
302.867
302.947
303.089
303.313
303.634
304.046
304.531
305.162
306.047
307.147
300.239
300.687
301.075
301.377
301.597
301.768
301.917
302.053
302.179
302.296
302.402
302.497
302.579
302.648
302.705
302.75
302.785
302.81
302.828
302.839
302.845
302.847
302.848
302.854
302.872
302.914
302.998
303.143
303.37
303.694
304.105
304.59
305.22
306.104
307.204
300.242
300.697
301.089
301.394
301.616
301.789
301.94
302.077
302.205
302.324
302.431
302.527
302.609
302.679
302.736
302.782
302.817
302.843
302.861
302.873
302.88
302.884
302.887
302.895
302.916
302.961
303.048
303.197
303.427
303.753
304.165
304.648
305.277
306.16
307.26
300.246
300.706
301.103
301.411
301.635
301.81
301.962
302.102
302.232
302.352
302.46
302.557
302.64
302.71
302.768
302.813
302.849
302.875
302.894
302.907
302.915
302.92
302.926
302.936
302.96
303.008
303.098
303.25
303.484
303.811
304.223
304.706
305.333
306.216
307.315
300.249
300.715
301.117
301.428
301.653
301.83
301.985
302.126
302.258
302.38
302.49
302.587
302.671
302.741
302.799
302.845
302.881
302.908
302.927
302.941
302.95
302.957
302.964
302.977
303.003
303.055
303.149
303.304
303.54
303.87
304.282
304.763
305.389
306.271
307.369
300.252
300.724
301.131
301.444
301.672
301.851
302.007
302.151
302.284
302.408
302.519
302.618
302.702
302.773
302.831
302.877
302.913
302.94
302.96
302.974
302.985
302.993
303.002
303.017
303.046
303.101
303.199
303.357
303.597
303.927
304.339
304.819
305.444
306.325
307.423
300.255
300.733
301.144
301.461
301.691
301.872
302.03
302.175
302.311
302.436
302.549
302.648
302.733
302.804
302.862
302.908
302.945
302.972
302.993
303.008
303.019
303.029
303.04
303.058
303.09
303.148
303.248
303.41
303.652
303.985
304.397
304.875
305.498
306.378
307.476
300.258
300.743
301.158
301.478
301.71
301.892
302.052
302.2
302.338
302.464
302.578
302.678
302.764
302.835
302.894
302.94
302.977
303.004
303.026
303.041
303.054
303.065
303.078
303.098
303.132
303.194
303.298
303.463
303.708
304.042
304.453
304.93
305.552
306.431
307.528
300.262
300.752
301.172
301.495
301.728
301.913
302.075
302.225
302.364
302.493
302.608
302.709
302.795
302.867
302.925
302.972
303.008
303.037
303.058
303.075
303.088
303.101
303.115
303.138
303.175
303.24
303.347
303.515
303.763
304.098
304.509
304.984
305.605
306.484
307.58
300.265
300.761
301.186
301.511
301.747
301.933
302.098
302.25
302.391
302.521
302.638
302.74
302.826
302.898
302.957
303.003
303.04
303.069
303.091
303.108
303.122
303.136
303.153
303.177
303.217
303.285
303.396
303.567
303.817
304.154
304.564
305.038
305.657
306.535
307.63
300.268
300.77
301.2
301.528
301.766
301.954
302.121
302.275
302.418
302.55
302.668
302.77
302.858
302.93
302.988
303.035
303.072
303.101
303.123
303.141
303.157
303.172
303.19
303.217
303.26
303.33
303.444
303.619
303.872
304.209
304.619
305.091
305.709
306.586
307.68
300.271
300.779
301.213
301.545
301.784
301.975
302.143
302.3
302.445
302.579
302.698
302.801
302.889
302.961
303.02
303.067
303.104
303.133
303.156
303.174
303.191
303.207
303.227
303.256
303.301
303.375
303.492
303.67
303.925
304.264
304.673
305.143
305.759
306.635
307.73
300.274
300.788
301.227
301.561
301.803
301.995
302.166
302.325
302.473
302.608
302.728
302.832
302.92
302.993
303.051
303.098
303.135
303.165
303.188
303.207
303.224
303.242
303.264
303.295
303.343
303.42
303.54
303.721
303.978
304.318
304.726
305.195
305.809
306.685
307.778
300.278
300.797
301.241
301.578
301.822
302.016
302.189
302.35
302.5
302.637
302.759
302.863
302.952
303.024
303.083
303.13
303.167
303.197
303.22
303.24
303.258
303.277
303.3
303.333
303.384
303.464
303.587
303.771
304.03
304.371
304.778
305.245
305.859
306.733
307.825
300.281
300.806
301.254
301.594
301.84
302.037
302.213
302.376
302.528
302.666
302.789
302.895
302.983
303.056
303.115
303.161
303.199
303.228
303.253
303.273
303.292
303.312
303.337
303.372
303.425
303.507
303.634
303.82
304.082
304.424
304.83
305.295
305.907
306.78
307.872
300.284
300.815
301.268
301.611
301.859
302.058
302.236
302.402
302.556
302.696
302.82
302.926
303.015
303.088
303.146
303.193
303.23
303.26
303.285
303.306
303.325
303.347
303.373
303.41
303.465
303.551
303.68
303.869
304.133
304.475
304.88
305.344
305.954
306.826
307.917
300.287
300.824
301.282
301.628
301.878
302.079
302.259
302.428
302.584
302.726
302.851
302.958
303.047
303.119
303.178
303.225
303.262
303.292
303.317
303.338
303.359
303.381
303.409
303.448
303.506
303.594
303.726
303.918
304.183
304.526
304.93
305.392
306.001
306.871
307.962
300.29
300.833
301.296
301.645
301.897
302.101
302.283
302.454
302.613
302.756
302.882
302.989
303.079
303.151
303.21
303.256
303.294
303.324
303.349
303.371
303.392
303.416
303.445
303.486
303.546
303.636
303.771
303.965
304.233
304.576
304.979
305.439
306.046
306.915
308.006
300.293
300.842
301.31
301.662
301.917
302.122
302.307
302.481
302.641
302.787
302.914
303.021
303.111
303.183
303.241
303.288
303.325
303.356
303.381
303.404
303.426
303.45
303.481
303.523
303.585
303.678
303.815
304.012
304.281
304.625
305.027
305.485
306.09
306.959
308.049
300.297
300.851
301.324
301.679
301.936
302.144
302.332
302.508
302.671
302.818
302.945
303.054
303.143
303.215
303.273
303.32
303.357
303.387
303.413
303.436
303.459
303.485
303.516
303.561
303.625
303.72
303.86
304.059
304.329
304.673
305.073
305.53
306.134
307.001
308.09
300.3
300.861
301.338
301.696
301.956
302.166
302.357
302.535
302.7
302.849
302.978
303.086
303.175
303.247
303.305
303.351
303.389
303.419
303.445
303.469
303.492
303.519
303.552
303.598
303.664
303.762
303.904
304.105
304.377
304.72
305.12
305.574
306.177
307.043
308.132
300.303
300.87
301.352
301.714
301.976
302.189
302.382
302.563
302.731
302.881
303.01
303.119
303.208
303.28
303.337
303.383
303.42
303.451
303.477
303.501
303.526
303.553
303.588
303.635
303.703
303.803
303.947
304.15
304.423
304.767
305.165
305.618
306.218
307.084
308.173
300.307
300.88
301.367
301.732
301.996
302.211
302.408
302.591
302.761
302.913
303.043
303.152
303.241
303.312
303.369
303.415
303.452
303.483
303.509
303.534
303.559
303.587
303.623
303.672
303.742
303.844
303.99
304.195
304.47
304.813
305.209
305.661
306.26
307.125
308.213
300.31
300.889
301.382
301.75
302.017
302.235
302.434
302.62
302.792
302.945
303.076
303.185
303.274
303.345
303.402
303.447
303.484
303.515
303.541
303.566
303.592
303.622
303.659
303.709
303.781
303.885
304.033
304.24
304.515
304.858
305.253
305.702
306.3
307.165
308.253
300.313
300.899
301.397
301.768
302.037
302.258
302.46
302.65
302.824
302.978
303.11
303.218
303.307
303.377
303.434
303.479
303.516
303.547
303.574
303.599
303.625
303.656
303.694
303.746
303.82
303.926
304.076
304.285
304.561
304.904
305.296
305.744
306.341
307.204
308.292
300.317
300.909
301.412
301.787
302.059
302.282
302.487
302.68
302.856
303.012
303.143
303.252
303.34
303.41
303.466
303.511
303.548
303.578
303.606
303.632
303.659
303.69
303.73
303.783
303.859
303.966
304.119
304.329
304.606
304.948
305.339
305.785
306.381
307.244
308.332
300.32
300.919
301.427
301.806
302.08
302.307
302.515
302.71
302.889
303.045
303.178
303.286
303.374
303.444
303.499
303.543
303.58
303.611
303.638
303.664
303.692
303.724
303.765
303.82
303.898
304.007
304.162
304.373
304.651
304.992
305.382
305.826
306.42
307.283
308.371
300.324
300.929
301.443
301.825
302.102
302.332
302.543
302.741
302.922
303.08
303.213
303.321
303.408
303.477
303.532
303.576
303.612
303.643
303.67
303.697
303.726
303.759
303.801
303.858
303.937
304.048
304.204
304.417
304.695
305.036
305.424
305.866
306.46
307.322
308.41
300.328
300.94
301.459
301.844
302.124
302.357
302.572
302.773
302.956
303.115
303.248
303.356
303.442
303.51
303.565
303.608
303.644
303.675
303.703
303.73
303.759
303.793
303.837
303.895
303.976
304.089
304.247
304.461
304.74
305.08
305.466
305.907
306.499
307.361
308.45
300.331
300.95
301.475
301.864
302.147
302.383
302.601
302.806
302.991
303.15
303.283
303.391
303.476
303.544
303.598
303.641
303.676
303.707
303.735
303.763
303.792
303.828
303.872
303.932
304.014
304.13
304.29
304.505
304.785
305.124
305.508
305.947
306.538
307.4
308.489
300.335
300.961
301.491
301.884
302.17
302.409
302.631
302.839
303.026
303.187
303.32
303.427
303.511
303.578
303.631
303.674
303.709
303.739
303.767
303.796
303.826
303.862
303.908
303.969
304.054
304.171
304.332
304.55
304.83
305.168
305.55
305.987
306.578
307.44
308.529
300.339
300.972
301.508
301.905
302.194
302.437
302.662
302.873
303.062
303.223
303.356
303.463
303.546
303.612
303.664
303.706
303.741
303.772
303.8
303.828
303.86
303.897
303.944
304.006
304.093
304.212
304.375
304.594
304.874
305.212
305.592
306.028
306.617
307.479
308.568
300.343
300.983
301.525
301.926
302.218
302.465
302.694
302.908
303.099
303.261
303.393
303.499
303.582
303.647
303.698
303.739
303.774
303.804
303.833
303.862
303.893
303.931
303.98
304.044
304.132
304.253
304.418
304.638
304.919
305.255
305.634
306.068
306.657
307.518
308.608
300.347
300.995
301.543
301.948
302.243
302.493
302.727
302.944
303.137
303.299
303.431
303.536
303.618
303.681
303.732
303.773
303.807
303.837
303.865
303.895
303.927
303.966
304.015
304.081
304.171
304.294
304.461
304.682
304.963
305.299
305.675
306.108
306.696
307.558
308.648
300.351
301.006
301.561
301.97
302.269
302.523
302.76
302.981
303.175
303.338
303.47
303.573
303.654
303.717
303.766
303.806
303.84
303.87
303.898
303.928
303.961
304.001
304.052
304.119
304.211
304.336
304.504
304.727
305.008
305.343
305.717
306.149
306.737
307.598
308.688
300.355
301.018
301.579
301.992
302.295
302.553
302.795
303.018
303.215
303.378
303.509
303.611
303.69
303.752
303.8
303.84
303.873
303.903
303.931
303.961
303.995
304.036
304.088
304.157
304.25
304.377
304.548
304.771
305.053
305.386
305.759
306.189
306.776
307.637
308.728
300.359
301.031
301.599
302.016
302.323
302.585
302.83
303.057
303.255
303.418
303.548
303.649
303.727
303.787
303.835
303.873
303.906
303.936
303.964
303.995
304.029
304.071
304.124
304.195
304.29
304.419
304.591
304.816
305.098
305.43
305.801
306.23
306.816
307.677
308.768
300.364
301.043
301.618
302.04
302.351
302.617
302.867
303.097
303.296
303.46
303.589
303.688
303.765
303.823
303.87
303.907
303.94
303.969
303.998
304.028
304.063
304.106
304.16
304.232
304.329
304.46
304.634
304.861
305.142
305.474
305.843
306.27
306.856
307.717
308.808
300.368
301.057
301.639
302.065
302.38
302.651
302.905
303.139
303.339
303.502
303.63
303.728
303.802
303.86
303.905
303.942
303.973
304.002
304.031
304.062
304.097
304.141
304.197
304.271
304.369
304.502
304.678
304.906
305.188
305.518
305.885
306.311
306.897
307.757
308.848
300.373
301.07
301.66
302.091
302.41
302.685
302.945
303.181
303.383
303.545
303.671
303.768
303.841
303.896
303.94
303.976
304.007
304.036
304.064
304.096
304.132
304.176
304.233
304.309
304.409
304.544
304.721
304.95
305.232
305.561
305.926
306.351
306.936
307.797
308.888
300.378
301.085
301.681
302.118
302.441
302.722
302.986
303.225
303.427
303.589
303.714
303.808
303.879
303.933
303.976
304.011
304.041
304.069
304.098
304.13
304.166
304.212
304.27
304.347
304.449
304.586
304.765
304.995
305.277
305.605
305.969
306.392
306.977
307.837
308.929
300.383
301.099
301.704
302.145
302.473
302.759
303.028
303.27
303.473
303.634
303.757
303.849
303.918
303.971
304.012
304.046
304.075
304.103
304.132
304.164
304.201
304.247
304.307
304.385
304.489
304.628
304.809
305.04
305.322
305.648
306.01
306.432
307.016
307.877
308.968
300.388
301.115
301.727
302.174
302.507
302.798
303.072
303.317
303.52
303.68
303.801
303.891
303.958
304.009
304.048
304.081
304.11
304.138
304.166
304.198
304.236
304.283
304.344
304.424
304.53
304.67
304.853
305.085
305.367
305.692
306.052
306.473
307.057
307.917
309.008
300.394
301.131
301.752
302.204
302.541
302.838
303.116
303.364
303.568
303.727
303.845
303.933
303.998
304.047
304.085
304.117
304.145
304.172
304.2
304.232
304.271
304.319
304.381
304.462
304.57
304.712
304.896
305.129
305.411
305.734
306.093
306.513
307.096
307.956
309.047
300.4
301.147
301.777
302.234
302.577
302.879
303.163
303.413
303.617
303.774
303.891
303.976
304.039
304.086
304.122
304.153
304.18
304.207
304.235
304.267
304.306
304.355
304.418
304.501
304.611
304.755
304.941
305.174
305.456
305.778
306.135
306.554
307.137
307.997
309.088
300.405
301.164
301.803
302.266
302.614
302.922
303.21
303.463
303.667
303.822
303.936
304.019
304.079
304.124
304.16
304.189
304.215
304.242
304.27
304.302
304.341
304.391
304.455
304.54
304.651
304.797
304.984
305.218
305.499
305.82
306.175
306.593
307.176
308.035
309.126
300.412
301.182
301.829
302.299
302.652
302.966
303.26
303.514
303.718
303.871
303.983
304.063
304.121
304.164
304.197
304.225
304.251
304.277
304.305
304.337
304.377
304.428
304.493
304.579
304.692
304.84
305.029
305.263
305.544
305.864
306.217
306.634
307.217
308.076
309.166
300.418
301.2
301.857
302.333
302.692
303.012
303.311
303.567
303.77
303.921
304.03
304.107
304.162
304.203
304.235
304.262
304.287
304.312
304.34
304.372
304.413
304.464
304.531
304.618
304.733
304.882
305.072
305.307
305.588
305.905
306.257
306.673
307.256
308.114
309.205
300.424
301.219
301.886
302.368
302.733
303.06
303.363
303.621
303.823
303.972
304.078
304.152
304.205
304.243
304.274
304.299
304.323
304.348
304.375
304.408
304.449
304.501
304.569
304.658
304.775
304.925
305.117
305.353
305.632
305.949
306.299
306.714
307.296
308.154
309.245
300.431
301.238
301.915
302.404
302.776
303.109
303.417
303.676
303.877
304.023
304.126
304.197
304.247
304.284
304.312
304.337
304.36
304.384
304.411
304.444
304.485
304.538
304.607
304.697
304.815
304.967
305.16
305.396
305.675
305.99
306.339
306.753
307.334
308.192
309.282
300.438
301.258
301.946
302.442
302.82
303.16
303.473
303.733
303.933
304.076
304.175
304.243
304.291
304.325
304.352
304.375
304.397
304.42
304.447
304.48
304.522
304.576
304.646
304.738
304.857
305.011
305.204
305.441
305.719
306.033
306.38
306.793
307.375
308.232
309.322
300.446
301.279
301.977
302.48
302.865
303.212
303.529
303.791
303.989
304.129
304.225
304.29
304.334
304.366
304.391
304.413
304.434
304.457
304.483
304.516
304.558
304.613
304.684
304.777
304.898
305.053
305.248
305.484
305.762
306.074
306.419
306.831
307.412
308.269
309.358
300.453
301.3
302.009
302.519
302.911
303.266
303.587
303.85
304.046
304.183
304.276
304.337
304.379
304.408
304.431
304.452
304.472
304.494
304.52
304.553
304.596
304.651
304.723
304.818
304.94
305.097
305.292
305.529
305.806
306.116
306.46
306.872
307.452
308.309
309.397
300.461
301.322
302.041
302.559
302.959
303.321
303.647
303.91
304.104
304.238
304.327
304.385
304.423
304.451
304.472
304.491
304.51
304.531
304.557
304.59
304.633
304.689
304.762
304.857
304.981
305.139
305.335
305.572
305.848
306.156
306.498
306.909
307.489
308.345
309.433
300.468
301.343
302.075
302.601
303.008
303.377
303.708
303.972
304.163
304.294
304.379
304.433
304.469
304.493
304.513
304.53
304.548
304.569
304.595
304.628
304.671
304.727
304.801
304.898
305.023
305.182
305.379
305.616
305.891
306.198
306.539
306.949
307.529
308.384
309.472
300.476
301.366
302.109
302.643
303.058
303.436
303.771
304.035
304.224
304.35
304.431
304.482
304.514
304.537
304.554
304.57
304.587
304.607
304.632
304.665
304.708
304.765
304.84
304.938
305.064
305.224
305.422
305.659
305.932
306.238
306.577
306.985
307.565
308.42
309.507
300.484
301.389
302.144
302.688
303.111
303.497
303.836
304.1
304.286
304.408
304.485
304.532
304.561
304.581
304.596
304.611
304.627
304.646
304.671
304.704
304.747
304.805
304.881
304.98
305.107
305.268
305.466
305.703
305.975
306.279
306.617
307.025
307.604
308.459
309.545
300.493
301.413
302.181
302.733
303.166
303.56
303.903
304.167
304.35
304.468
304.539
304.582
304.608
304.625
304.638
304.651
304.666
304.685
304.709
304.742
304.785
304.843
304.92
305.02
305.148
305.31
305.508
305.744
306.016
306.318
306.654
307.061
307.64
308.493
309.579
300.501
301.438
302.219
302.781
303.222
303.625
303.973
304.236
304.416
304.528
304.595
304.633
304.656
304.67
304.682
304.693
304.707
304.724
304.748
304.781
304.825
304.883
304.961
305.062
305.191
305.354
305.552
305.788
306.059
306.359
306.694
307.1
307.679
308.532
309.617
300.51
301.464
302.258
302.829
303.281
303.693
304.045
304.307
304.483
304.59
304.652
304.686
304.704
304.716
304.725
304.735
304.747
304.764
304.788
304.82
304.864
304.923
305.001
305.102
305.232
305.395
305.594
305.829
306.098
306.397
306.73
307.135
307.713
308.566
309.651
300.52
301.49
302.298
302.88
303.341
303.763
304.118
304.38
304.551
304.654
304.71
304.739
304.754
304.762
304.769
304.778
304.789
304.805
304.828
304.86
304.904
304.964
305.042
305.145
305.276
305.439
305.638
305.873
306.141
306.438
306.77
307.175
307.753
308.605
309.689
300.529
301.518
302.339
302.932
303.403
303.834
304.194
304.454
304.622
304.718
304.769
304.793
304.804
304.81
304.814
304.821
304.831
304.846
304.868
304.9
304.944
305.003
305.083
305.186
305.317
305.481
305.68
305.914
306.18
306.475
306.805
307.209
307.787
308.638
309.722
300.539
301.546
302.382
302.985
303.467
303.908
304.271
304.531
304.693
304.784
304.829
304.848
304.855
304.858
304.86
304.865
304.873
304.888
304.909
304.941
304.985
305.045
305.125
305.229
305.361
305.526
305.725
305.958
306.223
306.517
306.845
307.249
307.826
308.677
309.76
300.549
301.575
302.426
303.04
303.533
303.983
304.351
304.609
304.767
304.851
304.89
304.904
304.907
304.906
304.906
304.909
304.916
304.929
304.951
304.982
305.026
305.086
305.166
305.27
305.403
305.567
305.766
305.998
306.261
306.553
306.881
307.283
307.86
308.711
309.793
300.56
301.605
302.471
303.097
303.601
304.061
304.432
304.689
304.842
304.92
304.953
304.961
304.96
304.956
304.954
304.954
304.96
304.973
304.993
305.024
305.068
305.129
305.21