/*--------------------------------*- C++ -*----------------------------------*\
| =========                 |                                                 |
| \\      /  F ield         | OpenFOAM: The Open Source CFD Toolbox           |
|  \\    /   O peration     | Version:  v2006                                 |
|   \\  /    A nd           | Website:  www.openfoam.com                      |
|    \\/     M anipulation  |                                                 |
\*---------------------------------------------------------------------------*/
FoamFile
{
    version     2.0;
    format      ascii;
    class       volVectorField;
    location    "67";
    object      U;
}
// * * * * * * * * * * * * * * * * * * * * * * * * * * * * * * * * * * * * * //

dimensions      [0 1 -1 0 0 0 0];


internalField   nonuniform List<vector> 
78750
(
(-0.00431345 -0.000315103 0.00377445)
(-0.00479073 -0.00385578 0.00651239)
(-0.00448814 -0.00610541 0.00735455)
(-0.00316672 -0.00780719 0.00749093)
(-0.00191485 -0.00915144 0.00737902)
(-0.000287148 -0.0101517 0.00719374)
(0.00166489 -0.010813 0.00699495)
(0.00382226 -0.0111477 0.00680639)
(0.00608006 -0.0111912 0.00663426)
(0.00836327 -0.0109927 0.00647523)
(0.010611 -0.0105991 0.00632331)
(0.0127732 -0.010048 0.00617285)
(0.0148088 -0.00936845 0.00601939)
(0.0166837 -0.00858279 0.00585975)
(0.0183703 -0.00770923 0.00569162)
(0.0198457 -0.00676156 0.00551437)
(0.0210907 -0.00574989 0.0053296)
(0.022091 -0.00468908 0.00513795)
(0.0228354 -0.00359449 0.00494042)
(0.0233174 -0.00248096 0.00473818)
(0.0235357 -0.00136255 0.00453265)
(0.023493 -0.000253411 0.00432465)
(0.0231938 0.000831405 0.00411716)
(0.0226296 0.00187827 0.00391135)
(0.0218051 0.00287689 0.00370881)
(0.0207383 0.00381711 0.00351095)
(0.019448 0.00468809 0.00331843)
(0.0179511 0.00547877 0.0031311)
(0.0162646 0.00617711 0.00294814)
(0.0144021 0.00677223 0.00276547)
(0.0123615 0.00733657 0.00257602)
(0.0100683 0.00818677 0.00236159)
(0.00732162 0.00979017 0.00207161)
(0.00409096 0.0113662 0.00159524)
(0.00100695 0.00834409 0.000793301)
(-0.000153158 0.00130767 0.00246531)
(-2.73659e-05 -0.00437123 0.0043062)
(2.42786e-05 -0.0100116 0.00495127)
(0.000373689 -0.0152857 0.00493729)
(0.00094776 -0.0197872 0.00460498)
(0.00173683 -0.0232711 0.00417561)
(0.00272111 -0.0256725 0.0037731)
(0.00387341 -0.0270777 0.003447)
(0.00515053 -0.0276324 0.0032055)
(0.00649504 -0.0274911 0.00303233)
(0.00785919 -0.0267831 0.00290776)
(0.00920645 -0.0256094 0.00281514)
(0.010505 -0.0240496 0.00274135)
(0.011724 -0.0221681 0.00267668)
(0.0128338 -0.0200257 0.00261134)
(0.0138112 -0.0176763 0.00253935)
(0.0146463 -0.0151521 0.00246465)
(0.0153228 -0.0124861 0.00239015)
(0.0158232 -0.009725 0.0023128)
(0.0161406 -0.00691065 0.00223141)
(0.0162692 -0.00408252 0.00214547)
(0.0162022 -0.00127739 0.0020557)
(0.01595 0.00146962 0.00196554)
(0.0155285 0.00412476 0.00187664)
(0.0149451 0.00666016 0.00179019)
(0.0142041 0.00905332 0.0017069)
(0.013311 0.011289 0.00162612)
(0.012268 0.0133663 0.00154565)
(0.0110912 0.0153234 0.0014647)
(0.00976649 0.0173266 0.00139715)
(0.00822928 0.0197802 0.00135809)
(0.00639592 0.023331 0.00133233)
(0.00425575 0.0279224 0.00125438)
(0.00205744 0.0301762 0.00100839)
(0.000223451 0.0203083 0.000510812)
(5.30885e-05 -0.00106208 0.00164824)
(0.000647126 -0.00676504 0.00313681)
(0.00136563 -0.0124789 0.00387097)
(0.00227899 -0.0179395 0.00417706)
(0.00330494 -0.0228504 0.00423344)
(0.00437737 -0.0269715 0.004144)
(0.0054501 -0.0301384 0.00397605)
(0.00648967 -0.0322676 0.00378344)
(0.00751299 -0.0334304 0.00360884)
(0.00852151 -0.0337496 0.00346773)
(0.00948411 -0.033332 0.00335408)
(0.0103894 -0.0322618 0.00326437)
(0.011225 -0.0306164 0.00319392)
(0.0119833 -0.0284551 0.00314335)
(0.0126525 -0.0258302 0.00311359)
(0.0132121 -0.0228192 0.00309626)
(0.0136496 -0.0195053 0.00308063)
(0.0139577 -0.0159611 0.00305855)
(0.0141314 -0.012252 0.00302347)
(0.0141671 -0.00843934 0.00296959)
(0.014063 -0.00458201 0.00289177)
(0.0138202 -0.000737451 0.00278589)
(0.0134393 0.00303893 0.00264937)
(0.0129226 0.00669301 0.00248275)
(0.0122782 0.0101782 0.00229043)
(0.0115162 0.0134657 0.00208077)
(0.0106467 0.0165565 0.00186504)
(0.00967646 0.0195019 0.00165573)
(0.00860398 0.0224454 0.00146574)
(0.00741081 0.0256941 0.0013077)
(0.0060475 0.0297523 0.00118475)
(0.00445797 0.0349826 0.00107937)
(0.00278695 0.04014 0.000951516)
(0.00123943 0.0406782 0.000731803)
(0.000114592 0.0252671 0.000380188)
(1.99535e-05 -0.00498106 0.00148688)
(0.000605976 -0.0153931 0.00292653)
(0.00149992 -0.024274 0.00357213)
(0.00264147 -0.0315944 0.00376748)
(0.00389021 -0.0372397 0.00372711)
(0.00513696 -0.0412265 0.00358221)
(0.00631495 -0.0437262 0.00340937)
(0.0073995 -0.0449897 0.00324713)
(0.00838688 -0.0452502 0.00310656)
(0.00929063 -0.0446767 0.00299037)
(0.0101093 -0.0433863 0.00289761)
(0.0108387 -0.0414664 0.00282777)
(0.011482 -0.0389712 0.00278447)
(0.0120342 -0.0359588 0.00276432)
(0.0124881 -0.0324929 0.00276437)
(0.0128392 -0.0286384 0.00278368)
(0.0130846 -0.024462 0.00282211)
(0.0132218 -0.0200301 0.00287912)
(0.0132491 -0.0154063 0.00295263)
(0.0131656 -0.0106504 0.00303798)
(0.0129708 -0.00582035 0.00312633)
(0.0126645 -0.00097664 0.00320358)
(0.0122457 0.00381351 0.00325098)
(0.0117125 0.00847902 0.00324761)
(0.0110674 0.0129486 0.00317596)
(0.010315 0.0171687 0.00302804)
(0.00946192 0.0211339 0.00280955)
(0.00851325 0.0249265 0.00253885)
(0.00746765 0.0287667 0.00224107)
(0.00631034 0.03306 0.00193985)
(0.00501198 0.0383185 0.0016498)
(0.00355214 0.0445205 0.00137461)
(0.00214712 0.0495134 0.00111907)
(0.000926494 0.0483321 0.000829788)
(7.60669e-05 0.028601 0.000433408)
(5.14754e-05 -0.00733186 0.0010694)
(0.000604399 -0.0205719 0.00203896)
(0.00142553 -0.0310767 0.00240376)
(0.00240359 -0.0390276 0.00246492)
(0.00341341 -0.0445825 0.00239224)
(0.00437911 -0.048088 0.00227442)
(0.00527021 -0.0499871 0.00215464)
(0.00609074 -0.0506736 0.00205077)
(0.00686402 -0.0504133 0.00196478)
(0.00759325 -0.0493574 0.00188878)
(0.00826451 -0.0476107 0.00181741)
(0.00887517 -0.0452454 0.00174605)
(0.00942451 -0.0422922 0.00167775)
(0.00990291 -0.0387805 0.00161729)
(0.010296 -0.0347815 0.00156719)
(0.0105967 -0.0303785 0.00153277)
(0.0108015 -0.0256585 0.00152189)
(0.0109092 -0.0207036 0.00154429)
(0.0109212 -0.0155845 0.00161026)
(0.0108402 -0.0103588 0.00172874)
(0.010669 -0.00507162 0.00190437)
(0.0104068 0.000237475 0.00213373)
(0.0100591 0.00552252 0.00240129)
(0.00963102 0.0107267 0.00267629)
(0.00911868 0.0157872 0.00291696)
(0.00851829 0.0206523 0.00308001)
(0.00782713 0.025319 0.00313335)
(0.0070415 0.0298865 0.00306458)
(0.00615328 0.0346093 0.00287979)
(0.00514819 0.0399023 0.0025958)
(0.00401109 0.0461308 0.0022366)
(0.00275402 0.0527864 0.00184014)
(0.00161197 0.057139 0.00146556)
(0.000663931 0.0542133 0.00106571)
(3.45267e-05 0.0309257 0.000516634)
(3.49535e-05 -0.00986633 0.000789637)
(0.000491027 -0.0262984 0.00152979)
(0.00117382 -0.0386114 0.00184872)
(0.00198605 -0.0473055 0.00195713)
(0.0028217 -0.0528874 0.0019603)
(0.00362218 -0.0560752 0.00191467)
(0.00437221 -0.0575737 0.00185128)
(0.00508672 -0.0578725 0.00178273)
(0.00577908 -0.057226 0.00170751)
(0.00643645 -0.0557673 0.00162653)
(0.00705196 -0.0535733 0.00154077)
(0.00762491 -0.0506671 0.00144858)
(0.00814007 -0.0470887 0.00134619)
(0.00858269 -0.042905 0.00123388)
(0.00894403 -0.0382063 0.00111439)
(0.00921834 -0.0330986 0.000993109)
(0.00940243 -0.0276924 0.000878468)
(0.00949572 -0.0220911 0.000782259)
(0.00950014 -0.0163826 0.000719441)
(0.00941982 -0.0106349 0.000707369)
(0.00926049 -0.00489638 0.000764097)
(0.00902886 0.000800462 0.000904593)
(0.0087283 0.00643099 0.00113497)
(0.00836016 0.0119696 0.00144645)
(0.00792494 0.0173905 0.00181028)
(0.00741888 0.0226811 0.00217945)
(0.00683418 0.027877 0.00249854)
(0.00615958 0.0331134 0.0027174)
(0.00538087 0.0386697 0.00279924)
(0.00448393 0.0449287 0.00272138)
(0.00346349 0.0520524 0.00248079)
(0.00235529 0.0590686 0.00211339)
(0.00137471 0.0629127 0.00170043)
(0.000568423 0.0585985 0.00121687)
(3.65974e-05 0.0325769 0.000534303)
(4.47269e-05 -0.0116486 0.000555172)
(0.000438926 -0.0301721 0.00110288)
(0.00101177 -0.0435385 0.0013692)
(0.00167882 -0.0525633 0.0014843)
(0.00235673 -0.0580493 0.00151242)
(0.00300464 -0.0609877 0.00149449)
(0.00361849 -0.0622249 0.00145532)
(0.00421549 -0.0622687 0.00140494)
(0.00479885 -0.0613503 0.00134797)
(0.0053558 -0.0595875 0.00128401)
(0.00588483 -0.0570279 0.0012092)
(0.00637894 -0.0536869 0.00112303)
(0.00682477 -0.0496078 0.00102528)
(0.00721178 -0.0448674 0.000916211)
(0.0075311 -0.0395763 0.000796964)
(0.00777571 -0.0338667 0.00067046)
(0.00794135 -0.0278738 0.000542092)
(0.00802727 -0.0217249 0.00042044)
(0.00803542 -0.0155277 0.000317569)
(0.0079699 -0.00936396 0.000248976)
(0.00783622 -0.00328747 0.000232844)
(0.00764088 0.00267171 0.000287809)
(0.00739025 0.00850006 0.000429238)
(0.00708809 0.0141983 0.000663633)
(0.00673411 0.0197813 0.000982534)
(0.00632267 0.025288 0.00135871)
(0.00584256 0.0308084 0.00174801)
(0.00527795 0.036524 0.00209643)
(0.00461133 0.0427284 0.00234722)
(0.0038296 0.0497342 0.00244614)
(0.00293417 0.0574665 0.00235511)
(0.00197945 0.0645573 0.00208307)
(0.00114534 0.0678414 0.00169785)
(0.00046368 0.0622411 0.001194)
(2.57105e-05 0.0339463 0.000479575)
(2.73079e-05 -0.0132933 0.000422321)
(0.000331914 -0.0338715 0.000896362)
(0.000792947 -0.0483838 0.00118008)
(0.00134828 -0.0579011 0.00134211)
(0.00192631 -0.0634689 0.00141727)
(0.00249025 -0.0663147 0.00143786)
(0.00303955 -0.0674103 0.00142768)
(0.00358086 -0.0672833 0.00139655)
(0.0041127 -0.0661643 0.00135155)
(0.00462911 -0.0641428 0.00129305)
(0.00512283 -0.0612473 0.00121924)
(0.00558399 -0.0574962 0.00113027)
(0.00600249 -0.0529335 0.00102577)
(0.00636872 -0.0476465 0.000905164)
(0.00667462 -0.0417632 0.000768542)
(0.00691373 -0.0354363 0.000617473)
(0.00708162 -0.0288254 0.000455967)
(0.00717626 -0.022083 0.000291448)
(0.00719805 -0.015341 0.000135452)
(0.00714989 -0.00870277 3.9159e-06)
(0.00703704 -0.00223908 -8.34901e-05)
(0.00686612 0.00401233 -0.000105416)
(0.00664387 0.0100455 -4.22504e-05)
(0.00637577 0.0158874 0.000119046)
(0.00606342 0.0215983 0.000379653)
(0.00570221 0.0272762 0.000724669)
(0.00528037 0.0330741 0.00112174)
(0.00478053 0.0392231 0.00152275)
(0.00418402 0.0460252 0.00186642)
(0.0034783 0.0537117 0.00208283)
(0.00266686 0.0619826 0.00210982)
(0.00181177 0.0691524 0.00193021)
(0.00106159 0.0720244 0.00159212)
(0.000437892 0.0653583 0.0011033)
(3.22012e-05 0.0351625 0.000414014)
(2.99507e-05 -0.0145045 0.000339845)
(0.000300739 -0.0366089 0.000778027)
(0.0007108 -0.0519989 0.00107276)
(0.00120494 -0.0619259 0.001255)
(0.00171927 -0.0676033 0.00134776)
(0.00222176 -0.0704245 0.00138211)
(0.00271329 -0.0714436 0.00138279)
(0.00319951 -0.0712021 0.0013616)
(0.00367735 -0.0699247 0.00132327)
(0.00414087 -0.0676905 0.0012705)
(0.00458349 -0.064518 0.00120514)
(0.00499744 -0.0604207 0.00112785)
(0.00537403 -0.0554452 0.00103814)
(0.0057054 -0.0496886 0.00093472)
(0.00598488 -0.0432921 0.000816101)
(0.00620696 -0.0364231 0.000681254)
(0.00636754 -0.0292576 0.000530487)
(0.00646416 -0.0219668 0.000366659)
(0.00649589 -0.0147033 0.000196568)
(0.00646372 -0.00759054 3.20667e-05)
(0.00637075 -0.000719707 -0.000109381)
(0.00622268 0.00585321 -0.000205592)
(0.00602644 0.0121154 -0.00023268)
(0.00578748 0.0181071 -0.000169741)
(0.00550776 0.0239238 -4.45162e-06)
(0.00518349 0.0297175 0.00026183)
(0.00480444 0.0357039 0.000610381)
(0.0043545 0.0421668 0.00100275)
(0.00381558 0.0494194 0.00137954)
(0.00317564 0.0576165 0.00166322)
(0.00243777 0.0662625 0.00177521)
(0.00166626 0.0734276 0.00167649)
(0.000983389 0.0759207 0.00139668)
(0.000406799 0.0682826 0.000952665)
(3.03859e-05 0.0363606 0.000336164)
(2.0785e-05 -0.0156775 0.000309331)
(0.0002543 -0.0393536 0.000746593)
(0.00062199 -0.0557017 0.00105898)
(0.00107627 -0.066111 0.00126078)
(0.00155523 -0.0719507 0.00136957)
(0.0020268 -0.0747824 0.00141582)
(0.00249113 -0.0757468 0.00142487)
(0.00295202 -0.0754056 0.0014095)
(0.00340469 -0.0739813 0.00137565)
(0.00384256 -0.0715465 0.00132668)
(0.00425911 -0.0681134 0.00126468)
(0.00464706 -0.0636929 0.00119062)
(0.00499886 -0.0583347 0.0011044)
(0.00530803 -0.0521436 0.00100508)
(0.00556931 -0.0452703 0.000891384)
(0.00577839 -0.0378938 0.000762268)
(0.00593164 -0.030203 0.000617596)
(0.00602657 -0.0223828 0.000458956)
(0.00606212 -0.0146024 0.000290689)
(0.00603834 -0.00700422 0.000121003)
(0.00595753 0.000300397 -3.69716e-05)
(0.00582358 0.0072376 -0.000165113)
(0.00564193 0.0137861 -0.000241805)
(0.00541841 0.0199933 -0.000245277)
(0.00515578 0.0259799 -0.000158153)
(0.00485138 0.03194 2.76887e-05)
(0.00449616 0.0381411 0.000306119)
(0.00407587 0.0449126 0.000651226)
(0.00357443 0.0525786 0.00101196)
(0.00298009 0.0612306 0.00131214)
(0.00229422 0.0702104 0.00146645)
(0.00158008 0.0773925 0.00142196)
(0.000940605 0.0795784 0.00119436)
(0.00039149 0.0710689 0.000804868)
(3.08683e-05 0.0375344 0.000272151)
(2.1942e-05 -0.0166754 0.000296378)
(0.000244708 -0.0417173 0.000743765)
(0.000594568 -0.0589175 0.00107073)
(0.00102421 -0.0697741 0.00128323)
(0.00147452 -0.0757845 0.00139884)
(0.00191633 -0.0786493 0.00144982)
(0.00235102 -0.0795811 0.00146254)
(0.002782 -0.0791588 0.00145053)
(0.00320413 -0.077605 0.00142045)
(0.00361101 -0.0749879 0.00137633)
(0.00399657 -0.0713161 0.0013209)
(0.00435425 -0.0666009 0.00125563)
(0.00467756 -0.060897 0.00118052)
(0.0049612 -0.0543164 0.00109426)
(0.00520117 -0.0470183 0.000994701)
(0.00539427 -0.039189 0.000879473)
(0.00553783 -0.0310253 0.000746776)
(0.00562943 -0.0227209 0.000596316)
(0.0056674 -0.0144553 0.000430448)
(0.0056512 -0.00638486 0.000255269)
(0.00558192 0.00135913 8.17771e-05)
(0.00546198 0.00868157 -7.38022e-05)
(0.00529553 0.0155473 -0.000191078)
(0.00508726 0.0220039 -0.000248183)
(0.00483997 0.0281892 -0.000225491)
(0.00455208 0.0343307 -0.000109701)
(0.00421612 0.0407394 0.000101279)
(0.00381986 0.0477835 0.000391454)
(0.00334957 0.0557974 0.000718709)
(0.00279427 0.0648198 0.00101193)
(0.00215362 0.0740575 0.00118506)
(0.00148937 0.0812266 0.00117788)
(0.000888861 0.0831147 0.000996489)
(0.000367867 0.0737663 0.0006644)
(2.79517e-05 0.0386778 0.000216429)
(1.84341e-05 -0.0176797 0.000300057)
(0.000229084 -0.044124 0.000760674)
(0.000563974 -0.0622017 0.00109533)
(0.000976965 -0.0735119 0.00131095)
(0.00140937 -0.0796895 0.00142772)
(0.00183286 -0.0825831 0.0014795)
(0.00224917 -0.0834786 0.00149295)
(0.002661 -0.0829729 0.00148182)
(0.00306262 -0.0812895 0.00145304)
(0.00344759 -0.0784937 0.00141104)
(0.00381011 -0.0745925 0.00135898)
(0.00414419 -0.0695988 0.00129871)
(0.00444421 -0.0635726 0.00123055)
(0.00470595 -0.0566336 0.00115337)
(0.00492644 -0.0489482 0.00106505)
(0.00510349 -0.0407093 0.000963)
(0.00523526 -0.0321187 0.000844873)
(0.00532006 -0.0233755 0.000709313)
(0.00535649 -0.0146657 0.000556896)
(0.00534338 -0.0061552 0.000391274)
(0.00528086 0.00201284 0.000220397)
(0.00517066 0.00972734 5.71707e-05)
(0.00501579 0.0169396 -8.08423e-05)
(0.00481962 0.0236932 -0.000173207)
(0.0045843 0.0301352 -0.000199588)
(0.00430871 0.0365154 -0.000143325)
(0.00398678 0.0431764 3.85892e-06)
(0.00360801 0.0505168 0.00023449)
(0.00316071 0.0588772 0.000515745)
(0.00263539 0.06825 0.000784057)
(0.00203091 0.077726 0.000956822)
(0.00140775 0.0848844 0.000971209)
(0.000840646 0.086492 0.000826661)
(0.000345438 0.0763404 0.000546878)
(2.56334e-05 0.0397631 0.000173355)
(1.89229e-05 -0.0186249 0.000308723)
(0.000225303 -0.0463904 0.000786645)
(0.000550431 -0.0652891 0.00112986)
(0.00094802 -0.0770206 0.00134771)
(0.00136097 -0.0833541 0.00146422)
(0.00176332 -0.0862761 0.0015157)
(0.0021579 -0.0871376 0.00152952)
(0.00254729 -0.0865514 0.00151969)
(0.00292566 -0.0847417 0.00149351)
(0.00328678 -0.0817721 0.00145577)
(0.00362515 -0.0776494 0.00140999)
(0.00393532 -0.0723902 0.0013582)
(0.0042125 -0.0660615 0.00130062)
(0.00445337 -0.0587907 0.00123564)
(0.00465587 -0.0507508 0.0011603)
(0.0048186 -0.0421389 0.00107094)
(0.00494035 -0.03316 0.000964089)
(0.00501987 -0.0240156 0.000837428)
(0.00505587 -0.0148954 0.00069075)
(0.00504708 -0.00597201 0.000526985)
(0.00499272 0.00260025 0.000353096)
(0.00489294 0.0106966 0.000180667)
(0.00474981 0.018257 2.56733e-05)
(0.00456617 0.0253208 -9.30192e-05)
(0.00434332 0.0320403 -0.000155863)
(0.00408002 0.038682 -0.000145337)
(0.0037711 0.0456123 -4.99867e-05)
(0.00340754 0.0532517 0.000128477)
(0.00297979 0.0619412 0.000364956)
(0.00248011 0.0716286 0.000603873)
(0.00190764 0.0813006 0.000768248)
(0.00132227 0.08842 0.000795681)
(0.000787853 0.0897363 0.000681083)
(0.00032012 0.0787928 0.000447518)
(2.26587e-05 0.0407849 0.0001382)
(1.73818e-05 -0.0195735 0.000319831)
(0.000217322 -0.0486614 0.000808879)
(0.000532083 -0.0683698 0.00115163)
(0.000915846 -0.0805037 0.00136386)
(0.00131225 -0.0869772 0.00147464)
(0.00169684 -0.0899182 0.00152227)
(0.00207311 -0.0907411 0.00153396)
(0.00244334 -0.0900725 0.00152351)
(0.00280155 -0.0881373 0.00149833)
(0.00314172 -0.0849982 0.00146356)
(0.00345869 -0.0806632 0.00142312)
(0.00374757 -0.0751543 0.00137948)
(0.00400434 -0.0685461 0.00133312)
(0.00422653 -0.0609738 0.00128244)
(0.00441286 -0.0526162 0.00122409)
(0.00456263 -0.0436737 0.00115359)
(0.00467519 -0.034352 0.0010662)
(0.00474965 -0.0248523 0.000957905)
(0.00478488 -0.0153649 0.000826642)
(0.00477947 -0.00606501 0.000673489)
(0.00473223 0.00288615 0.000503736)
(0.00464274 0.0113529 0.000327559)
(0.00451155 0.0192655 0.000159841)
(0.00433961 0.0266585 1.88714e-05)
(0.00412801 0.0336874 -7.57266e-05)
(0.00387588 0.0406296 -0.000105597)
(0.00357836 0.0478679 -5.7036e-05)
(0.00322783 0.055836 7.2482e-05)
(0.00281652 0.0648693 0.000264251)
(0.00233832 0.0748686 0.000470308)
(0.00179352 0.0847227 0.000620161)
(0.00124198 0.0917918 0.000653513)
(0.000738117 0.0928152 0.000562048)
(0.000296895 0.0811021 0.000367409)
(2.04342e-05 0.0417354 0.000111232)
(1.7231e-05 -0.0204936 0.000332672)
(0.000213109 -0.0508552 0.000835171)
(0.000518651 -0.0713322 0.00117943)
(0.000888556 -0.0838397 0.00138743)
(0.00126796 -0.0904385 0.00149332)
(0.00163438 -0.0933931 0.00153765)
(0.00199204 -0.0941753 0.00154778)
(0.00234298 -0.0934237 0.00153748)
(0.00268123 -0.091364 0.00151432)
(0.00300098 -0.0880587 0.00148371)
(0.00329746 -0.0835185 0.00144987)
(0.00356632 -0.0777716 0.00141547)
(0.00380432 -0.0709012 0.00138095)
(0.00400976 -0.0630501 0.00134441)
(0.00418206 -0.0544021 0.00130191)
(0.00432109 -0.0451594 0.00124813)
(0.00442662 -0.0355268 0.00117724)
(0.004498 -0.0257041 0.00108399)
(0.00453406 -0.0158798 0.000964992)
(0.00453314 -0.00623022 0.000820001)
(0.00449349 0.00307854 0.000653081)
(0.00441392 0.0119019 0.000473363)
(0.00429411 0.0201608 0.000294918)
(0.00413436 0.0278856 0.000135451)
(0.00393459 0.0352338 1.43142e-05)
(0.00369309 0.0424916 -4.96846e-05)
(0.00340574 0.0500537 -4.13747e-05)
(0.00306653 0.0583606 4.4831e-05)
(0.00266925 0.0677352 0.000195367)
(0.00220927 0.0780284 0.000369175)
(0.0016887 0.0880349 0.000502391)
(0.00116762 0.0950285 0.000537713)
(0.000692108 0.0957491 0.000464535)
(0.000275838 0.0832831 0.000302729)
(1.86024e-05 0.0426237 9.05107e-05)
(1.63223e-05 -0.0214089 0.000343852)
(0.000206617 -0.0530275 0.000851925)
(0.00050194 -0.0742495 0.00118922)
(0.000857905 -0.0871071 0.00138622)
(0.00122095 -0.093815 0.00148282)
(0.00157024 -0.0967751 0.00152113)
(0.00191049 -0.0975131 0.00152789)
(0.00224344 -0.0966778 0.00151643)
(0.00256313 -0.0944955 0.00149437)
(0.00286403 -0.0910292 0.00146742)
(0.00314176 -0.0862938 0.00144025)
(0.00339252 -0.0803252 0.00141591)
(0.00361376 -0.0732154 0.00139517)
(0.00380445 -0.065115 0.00137614)
(0.00396462 -0.0562119 0.00135451)
(0.00409463 -0.0467084 0.00132413)
(0.00419465 -0.0368072 0.00127776)
(0.00426424 -0.0267033 0.00120826)
(0.00430222 -0.0165812 0.00110999)
(0.00430669 -0.006615 0.000980418)
(0.00427531 0.00302731 0.000821653)
(0.00420608 0.0121945 0.000641551)
(0.00409772 0.0207992 0.000453768)
(0.0039496 0.0288664 0.000276274)
(0.00376102 0.0365538 0.000129092)
(0.00353002 0.0441531 3.19949e-05)
(0.00325269 0.0520667 1.63227e-06)
(0.00292372 0.0607366 4.62045e-05)
(0.00253832 0.0704672 0.00015656)
(0.00209383 0.0810552 0.000297775)
(0.00159446 0.0912036 0.000412284)
(0.00110054 0.0981121 0.000446059)
(0.000650814 0.09853 0.000386707)
(0.000257381 0.0853367 0.000251988)
(1.71902e-05 0.0434538 7.54285e-05)
(1.57435e-05 -0.0222997 0.00035495)
(0.000201485 -0.0551313 0.000869044)
(0.00048803 -0.0770619 0.00120082)
(0.000831466 -0.0902445 0.00138846)
(0.00117957 -0.0970489 0.00147696)
(0.00151318 -0.10001 0.00150996)
(0.0018375 -0.100702 0.0015138)
(0.00215402 -0.0997832 0.00150149)
(0.00245681 -0.0974805 0.00148069)
(0.00274063 -0.0938585 0.00145737)
(0.00300143 -0.0889368 0.00143644)
(0.00323598 -0.0827595 0.0014212)
(0.00344232 -0.0754279 0.00141255)
(0.00362004 -0.0670998 0.00140861)
(0.0037697 -0.0579666 0.00140493)
(0.00389214 -0.0482305 0.00139496)
(0.00398787 -0.0380903 0.00137074)
(0.00405666 -0.0277352 0.00132386)
(0.00409731 -0.0173437 0.00124691)
(0.00410765 -0.0070857 0.0011351)
(0.00408473 0.00287119 0.000988146)
(0.0040257 0.0123705 0.000811893)
(0.00392827 0.0213172 0.000618859)
(0.00379095 0.0297305 0.000426884)
(0.00361235 0.0377668 0.000256645)
(0.00339028 0.0457213 0.000129075)
(0.0031211 0.0540004 6.2473e-05)
(0.00280031 0.0630427 6.75825e-05)
(0.00242454 0.0731288 0.000139304)
(0.00199297 0.0839982 0.000248378)
(0.00151189 0.0942651 0.000343225)
(0.0010418 0.10107 0.000373176)
(0.000614953 0.101181 0.000324354)
(0.000241691 0.0872821 0.00021218)
(1.61508e-05 0.0442357 6.46911e-05)
(1.50042e-05 -0.0231832 0.00036364)
(0.000195732 -0.0572086 0.000877043)
(0.000473201 -0.0798244 0.0011967)
(0.000804095 -0.0933099 0.0013699)
(0.00113753 -0.100196 0.00144718)
(0.00145598 -0.10315 0.00147307)
(0.00176504 -0.103794 0.00147286)
(0.00206597 -0.102791 0.00145897)
(0.00235288 -0.10037 0.00143905)
(0.00262082 -0.096597 0.00141929)
(0.00286608 -0.0914985 0.00140497)
(0.00308588 -0.0851274 0.00139973)
(0.0032788 -0.0775945 0.00140476)
(0.00344491 -0.0690646 0.0014183)
(0.00358526 -0.0597324 0.0014358)
(0.0037011 -0.0497988 0.00145026)
(0.00379331 -0.0394575 0.00145283)
(0.0038619 -0.0288896 0.00143369)
(0.00390572 -0.0182653 0.0013834)
(0.00392236 -0.00774701 0.00129467)
(0.00390832 0.00250126 0.00116449)
(0.00385985 0.0123204 0.000996296)
(0.00377364 0.0216079 0.000801195)
(0.00364723 0.0303762 0.00059684)
(0.00347855 0.0387783 0.000404745)
(0.00326514 0.0471097 0.000247325)
(0.00300357 0.0557772 0.00014482)
(0.0026902 0.0652118 0.000110634)
(0.00232302 0.0756655 0.000143588)
(0.00190291 0.0868179 0.000219784)
(0.00143818 0.0971963 0.000293376)
(0.000989356 0.103893 0.000317066)
(0.000583037 0.103703 0.000275599)
(0.000227868 0.0891249 0.000181822)
(1.52502e-05 0.0449735 5.76337e-05)
(1.43651e-05 -0.0240422 0.000370947)
(0.000190665 -0.0592174 0.000882222)
(0.000460198 -0.0824835 0.00119006)
(0.000780237 -0.0962485 0.00134989)
(0.00110099 -0.103206 0.00141689)
(0.00140631 -0.106149 0.00143617)
(0.0017021 -0.106743 0.00143209)
(0.00198938 -0.105657 0.00141656)
(0.00226233 -0.103121 0.00139716)
(0.00251628 -0.0992033 0.00138025)
(0.00274786 -0.0939372 0.0013713)
(0.00295469 -0.0873848 0.00137422)
(0.0031358 -0.0796662 0.0013904)
(0.00329171 -0.0709534 0.00141833)
(0.00342385 -0.061444 0.00145369)
(0.00353387 -0.0513375 0.00148952)
(0.003623 -0.0408219 0.00151672)
(0.00369151 -0.0300696 0.00152466)
(0.00373836 -0.0192402 0.00150236)
(0.00376097 -0.00848667 0.0014401)
(0.00375531 0.00203335 0.00133182)
(0.00371678 0.0121603 0.00117778)
(0.00364101 0.0217849 0.000986682)
(0.00352456 0.0309119 0.000775187)
(0.00336468 0.0396892 0.000565224)
(0.00315865 0.0484099 0.000380666)
(0.00290331 0.0574779 0.000243919)
(0.00259583 0.0673125 0.000171298)
(0.00223555 0.0781332 0.000165676)
(0.00182499 0.0895573 0.000208488)
(0.00137436 0.100029 0.000259548)
(0.000944081 0.106607 0.000274994)
(0.000555689 0.106116 0.000238239)
(0.000216221 0.0908803 0.000159359)
(1.46153e-05 0.0456738 5.3624e-05)
(1.38068e-05 -0.0248944 0.000375927)
(0.000185893 -0.0612028 0.000880041)
(0.000447879 -0.0850992 0.00117152)
(0.00075751 -0.0991245 0.00131467)
(0.00106608 -0.10614 0.00136942)
(0.00135883 -0.109066 0.00138101)
(0.00164199 -0.109607 0.00137244)
(0.00191633 -0.108437 0.00135491)
(0.00217616 -0.105788 0.00133591)
(0.00241706 -0.10173 0.00132193)
(0.00263597 -0.0963049 0.0013187)
(0.00283082 -0.0895836 0.00133035)
(0.00300101 -0.0816964 0.00135855)
(0.00314742 -0.0728219 0.001402)
(0.00327182 -0.063161 0.00145649)
(0.00337624 -0.0529112 0.00151509)
(0.0034623 -0.0422542 0.00156842)
(0.00353059 -0.031352 0.00160518)
(0.00358025 -0.0203519 0.00161302)
(0.00360864 -0.00939405 0.00158011)
(0.00361133 0.00137385 0.00149743)
(0.00358289 0.011795 0.00136188)
(0.00351788 0.0217544 0.0011793)
(0.00341175 0.0312481 0.000964773)
(0.00326097 0.0404163 0.000740201)
(0.00306248 0.0495462 0.000530732)
(0.00281336 0.0590351 0.000360975)
(0.00251156 0.0692865 0.000250316)
(0.00215768 0.0804844 0.000205813)
(0.00175577 0.0921823 0.000214288)
(0.00131784 0.102744 0.000241246)
(0.000904079 0.109204 0.000246343)
(0.000531625 0.108422 0.000211614)
(0.000206056 0.092554 0.000144168)
(1.40879e-05 0.0463402 5.22958e-05)
(1.32086e-05 -0.0257225 0.000378648)
(0.000181367 -0.063121 0.000872724)
(0.000436711 -0.0876134 0.00114703)
(0.000737386 -0.101876 0.00127384)
(0.00103554 -0.108938 0.00131685)
(0.00131758 -0.111843 0.00132101)
(0.00158994 -0.11233 0.00130791)
(0.00185319 -0.111078 0.0012881)
(0.00210173 -0.108318 0.0012689)
(0.00233137 -0.104127 0.00125689)
(0.00253927 -0.0985499 0.00125792)
(0.00272367 -0.09167 0.00127633)
(0.00288426 -0.0836264 0.00131407)
(0.0030222 -0.0746051 0.0013702)
(0.00313959 -0.06481 0.00144091)
(0.00323881 -0.0544375 0.00151962)
(0.00332183 -0.0436625 0.00159714)
(0.00338958 -0.0326367 0.00166193)
(0.00344142 -0.0214932 0.00170071)
(0.00347476 -0.0103577 0.00169976)
(0.00348488 0.000635213 0.00164707)
(0.00346561 0.0113344 0.00153578)
(0.00341048 0.0216213 0.00136808)
(0.00331387 0.0314829 0.00115662)
(0.00317139 0.0410496 0.000922583)
(0.00297963 0.0505997 0.000692038)
(0.00273588 0.0605201 0.00049176)
(0.00243887 0.0711949 0.000344353)
(0.00209036 0.082769 0.000261264)
(0.00169582 0.0947314 0.000234864)
(0.00126894 0.10537 0.000236488)
(0.000869569 0.111705 0.000229469)
(0.00051096 0.110635 0.000194414)
(0.000197429 0.094156 0.000135311)
(1.37316e-05 0.0469764 5.32677e-05)
(1.28064e-05 -0.0265445 0.00037915)
(0.000177599 -0.0650191 0.000859489)
(0.000427098 -0.0900913 0.00111381)
(0.000719661 -0.104576 0.00122242)
(0.00100823 -0.111673 0.00125269)
(0.00128034 -0.114551 0.00124889)
(0.0015427 -0.114981 0.00123098)
(0.00179568 -0.113647 0.00120874)
(0.00203383 -0.110779 0.00118931)
(0.00225313 -0.106457 0.00117928)
(0.00245091 -0.100736 0.00118466)
(0.00262561 -0.093707 0.00120994)
(0.00277715 -0.0855203 0.00125732)
(0.00290697 -0.0763689 0.00132612)
(0.00301746 -0.0664602 0.00141284)
(0.00311135 -0.0559887 0.00151122)
(0.00319097 -0.0451232 0.00161231)
(0.00325765 -0.0340036 0.00170458)
(0.00331108 -0.0227479 0.00177425)
(0.0033488 -0.0114645 0.00180617)
(0.00336595 -0.000271571 0.00178575)
(0.0033557 0.0106894 0.00170242)
(0.00331059 0.0212984 0.00155435)
(0.00322378 0.0315331 0.00135104)
(0.00308996 0.0415118 0.00111222)
(0.00290524 0.0515003 0.000864346)
(0.00266705 0.0618708 0.000636137)
(0.00237484 0.0729843 0.000453425)
(0.00203148 0.0849442 0.000332148)
(0.00164371 0.0971743 0.000270375)
(0.00122675 0.107889 0.000245441)
(0.000840054 0.114106 0.000224523)
(0.000493481 0.112759 0.000186723)
(0.000190265 0.0956921 0.000132773)
(1.35374e-05 0.0475857 5.64895e-05)
(1.23489e-05 -0.0273435 0.000376939)
(0.000174009 -0.066853 0.000839906)
(0.000418482 -0.0924723 0.00107266)
(0.0007043 -0.107155 0.00116283)
(0.000984907 -0.114277 0.00118051)
(0.00124875 -0.117122 0.00116877)
(0.00150273 -0.117494 0.00114587)
(0.00174709 -0.116078 0.00112078)
(0.00197648 -0.113105 0.00110039)
(0.00218708 -0.108657 0.00109131)
(0.00237628 -0.102796 0.00109961)
(0.00254265 -0.0956258 0.00113)
(0.00268634 -0.0873044 0.00118492)
(0.00280896 -0.0780335 0.00126407)
(0.00291317 -0.0680241 0.00136438)
(0.00300195 -0.0574698 0.00148013)
(0.00307799 -0.0465334 0.00160287)
(0.00314301 -0.0353436 0.00172139)
(0.00319705 -0.0240024 0.00182174)
(0.00323793 -0.0125992 0.00188776)
(0.0032608 -0.00123317 0.00190256)
(0.00325836 0.00996808 0.00185186)
(0.00322224 0.0208863 0.00172933)
(0.00314444 0.0314907 0.00154051)
(0.00301862 0.0418859 0.00130283)
(0.00284036 0.0523218 0.00104253)
(0.00260715 0.0631521 0.000789993)
(0.00231911 0.0747102 0.000574267)
(0.00198016 0.0870554 0.00041592)
(0.00159822 0.0995459 0.00031888)
(0.00118991 0.110328 0.000266665)
(0.000814259 0.116423 0.000230464)
(0.000478149 0.114805 0.000187815)
(0.000183953 0.0971691 0.000136065)
(1.33655e-05 0.0481708 6.17482e-05)
(1.20918e-05 -0.0281376 0.00037262)
(0.000171197 -0.0686704 0.00081539)
(0.000411422 -0.0948233 0.00102483)
(0.000691358 -0.109693 0.00109568)
(0.000964971 -0.116828 0.00110052)
(0.00122172 -0.119635 0.00108081)
(0.0014687 -0.119947 0.00105285)
(0.00170577 -0.118449 0.00102474)
(0.00192756 -0.115372 0.0010032)
(0.00213038 -0.110802 0.000994847)
(0.00231181 -0.104807 0.00100586)
(0.00247054 -0.0975015 0.00104106)
(0.00260686 -0.0890554 0.00110309)
(0.00272261 -0.0796774 0.00119186)
(0.00282061 -0.0695824 0.00130468)
(0.00290412 -0.0589634 0.00143626)
(0.00297618 -0.0479772 0.00157876)
(0.00303891 -0.0367413 0.00172149)
(0.00309278 -0.0253413 0.0018508)
(0.00313597 -0.0138462 0.00195008)
(0.00316379 -0.00233307 0.00200077)
(0.0031686 0.00908841 0.00198526)
(0.00314122 0.0203055 0.0018926)
(0.00307245 0.0312801 0.00172373)
(0.00295485 0.0421015 0.00149288)
(0.00278327 0.0530003 0.00122523)
(0.00255517 0.0643073 0.000952328)
(0.00227124 0.0763248 0.000706265)
(0.00193637 0.089065 0.000512269)
(0.00155957 0.101821 0.00038027)
(0.0011588 0.112673 0.000300175)
(0.000792711 0.118654 0.00024737)