/*--------------------------------*- C++ -*----------------------------------*\
| =========                 |                                                 |
| \\      /  F ield         | OpenFOAM: The Open Source CFD Toolbox           |
|  \\    /   O peration     | Version:  v2006                                 |
|   \\  /    A nd           | Website:  www.openfoam.com                      |
|    \\/     M anipulation  |                                                 |
\*---------------------------------------------------------------------------*/
FoamFile
{
    version     2.0;
    format      ascii;
    class       volScalarField;
    location    "92";
    object      alphat;
}
// * * * * * * * * * * * * * * * * * * * * * * * * * * * * * * * * * * * * * //

dimensions      [1 -1 -1 0 0 0 0];


internalField   nonuniform List<scalar> 
78750
(
0.000695173
0.00154837
0.00105926
0.000388477
2.34876e-05
1.72943e-05
3.90938e-05
3.01384e-05
3.40595e-05
3.46318e-05
3.79598e-05
3.74825e-05
4.14595e-05
4.05859e-05
4.2575e-05
4.21523e-05
4.1567e-05
3.86288e-05
3.50844e-05
3.26047e-05
3.17292e-05
3.24879e-05
3.50699e-05
3.93577e-05
4.42116e-05
4.81699e-05
5.05539e-05
5.12968e-05
5.07442e-05
4.92868e-05
4.70738e-05
4.44043e-05
3.75775e-05
9.16681e-06
2.0702e-07
2.75007e-05
0.000126235
1.21725e-05
4.5434e-06
2.59267e-05
2.69056e-05
3.90715e-05
4.89249e-05
5.95935e-05
7.14778e-05
8.00295e-05
8.73076e-05
9.38099e-05
0.000100447
0.000105094
0.000106535
0.000106295
0.000106328
0.000108668
0.000112782
0.000116691
0.000118967
0.000119572
0.000119525
0.000119724
0.000120413
0.000121433
0.000122221
0.000122082
0.000120928
0.000115944
9.13282e-05
3.36257e-05
7.27273e-06
1.48608e-06
1.28654e-06
1.99493e-05
3.64927e-05
8.7962e-05
5.95959e-05
2.71021e-05
2.69379e-05
3.84299e-05
5.37244e-05
8.44791e-05
0.000149396
0.000139774
9.66681e-05
8.59505e-05
9.15938e-05
9.87091e-05
0.000104111
0.000110733
0.000119587
0.000128811
0.000135678
0.000138284
0.000136819
0.000133253
0.000129468
0.000126252
0.000123259
0.000119619
0.000113819
0.000102114
7.83687e-05
4.35588e-05
1.76487e-05
9.14939e-06
3.03304e-06
2.82603e-06
3.85431e-05
9.97746e-05
7.86525e-05
6.07663e-05
4.89681e-05
3.83688e-05
3.19861e-05
3.01765e-05
3.37811e-05
4.59585e-05
6.7653e-05
9.06193e-05
0.000108191
0.000114434
0.000104183
8.77163e-05
7.57587e-05
7.05201e-05
7.0543e-05
7.38692e-05
7.90479e-05
8.52738e-05
9.19276e-05
9.82941e-05
0.000103891
0.000108072
0.000109253
0.000105337
9.31837e-05
6.82652e-05
3.46058e-05
1.32634e-05
8.5284e-06
3.99541e-06
2.67206e-06
0.000174711
0.00013618
0.00011028
9.50541e-05
8.90341e-05
8.78541e-05
8.58552e-05
7.98097e-05
7.13696e-05
6.36858e-05
5.81577e-05
5.48682e-05
5.35357e-05
5.38105e-05
5.56714e-05
5.96215e-05
6.63701e-05
7.60796e-05
8.71526e-05
9.39678e-05
8.8974e-05
7.46597e-05
6.40205e-05
6.06019e-05
6.1155e-05
6.35506e-05
6.6105e-05
6.60174e-05
5.93302e-05
4.37909e-05
2.5058e-05
1.35371e-05
1.26592e-05
5.13021e-06
1.60553e-06
1.63822e-05
3.79279e-05
5.72642e-05
6.81735e-05
7.52463e-05
8.11081e-05
8.62238e-05
9.12305e-05
9.70892e-05
0.000104234
0.000112114
0.000119442
0.000125118
0.000128673
0.000130072
0.000129362
0.000125816
0.00011787
0.000105987
8.95683e-05
7.0239e-05
5.60867e-05
4.88671e-05
4.6084e-05
4.94155e-05
5.59886e-05
5.72516e-05
5.67871e-05
5.46059e-05
4.23098e-05
2.24739e-05
1.2099e-05
1.26587e-05
5.92106e-06
4.00698e-06
2.81445e-05
7.75816e-05
0.000115221
0.000118412
0.000110538
0.000105955
0.000107687
0.000114805
0.00012565
0.000138368
0.000151142
0.000162474
0.000170869
0.000174148
0.000168297
0.000147928
0.000114426
8.09412e-05
5.88156e-05
4.86026e-05
4.91945e-05
6.36552e-05
8.1988e-05
2.91513e-05
2.20678e-05
3.98849e-05
8.03746e-05
8.12621e-05
6.05626e-05
3.84502e-05
1.94286e-05
1.21105e-05
1.80336e-05
7.11927e-06
7.89345e-06
4.52177e-05
0.00013703
0.000161511
0.00012741
9.97374e-05
8.83413e-05
8.67722e-05
8.98385e-05
9.50003e-05
0.000101373
0.00010912
0.00011927
0.000132603
0.000146969
0.000155614
0.000150454
0.000129872
0.000102415
7.88561e-05
6.36036e-05
5.58662e-05
5.38374e-05
5.67592e-05
6.13335e-05
5.50656e-05
4.60273e-05
3.66878e-05
2.88794e-05
2.96232e-05
2.37026e-05
1.57821e-05
1.23806e-05
2.24117e-05
7.78284e-06
9.16663e-06
7.53543e-05
0.000143577
0.000110323
7.93037e-05
6.88313e-05
6.98401e-05
7.45694e-05
7.9581e-05
8.4586e-05
9.04082e-05
9.76537e-05
0.000106229
0.00011525
0.000123119
0.000127963
0.000128545
0.00012463
0.000116342
0.000104481
9.13305e-05
7.95461e-05
7.02804e-05
6.32077e-05
5.87699e-05
6.18634e-05
8.56319e-05
0.000142342
0.000113905
4.72541e-05
2.03699e-05
1.24935e-05
1.19428e-05
2.7601e-05
8.35383e-06
7.51692e-06
3.7999e-05
9.74357e-05
0.000124867
0.000114255
8.89519e-05
6.85522e-05
5.70934e-05
5.12611e-05
4.88105e-05
4.91996e-05
5.28971e-05
6.0604e-05
7.16303e-05
8.32033e-05
9.23587e-05
9.77086e-05
9.92216e-05
9.74542e-05
9.30103e-05
8.6286e-05
7.83812e-05
7.08647e-05
6.47514e-05
6.09714e-05
6.1491e-05
6.85296e-05
7.90507e-05
7.79373e-05
4.69189e-05
1.86202e-05
1.13707e-05
1.27316e-05
3.54128e-05
8.85705e-06
8.27464e-06
3.7919e-05
9.45696e-05
0.000148908
0.000159604
0.000141112
0.000110984
8.49739e-05
6.75459e-05
5.61562e-05
4.81235e-05
4.27765e-05
4.22958e-05
4.96761e-05
6.523e-05
8.37355e-05
0.000100247
0.000113831
0.000122502
0.000123584
0.000115986
0.000101148
8.47959e-05
7.18442e-05
6.35703e-05
6.00309e-05
6.13022e-05
6.56951e-05
6.55937e-05
4.38714e-05
1.6341e-05
9.80522e-06
1.26607e-05
4.21012e-05
8.9872e-06
7.26617e-06
2.92915e-05
7.41395e-05
0.000138978
0.000172849
0.000172479
0.000151723
0.000122705
9.70837e-05
7.79353e-05
6.16012e-05
4.49007e-05
3.23437e-05
2.84937e-05
3.48674e-05
5.53349e-05
8.92864e-05
0.000117965
0.000134411
0.000143034
0.000140331
0.000121105
9.16985e-05
6.79666e-05
5.61272e-05
5.39838e-05
5.76628e-05
6.16361e-05
5.64618e-05
3.00336e-05
1.2315e-05
9.1352e-06
1.42309e-05
5.57768e-05
9.09178e-06
5.39218e-06
2.11584e-05
5.74021e-05
0.000129559
0.000180604
0.000181418
0.000159917
0.00013529
0.000118322
0.000109971
0.000100456
7.13606e-05
3.94449e-05
2.54366e-05
2.43017e-05
3.44859e-05
6.43989e-05
0.000129182
0.000202494
0.000234667
0.000231121
0.000226609
0.000183599
0.000118295
7.82264e-05
6.11692e-05
5.67207e-05
5.70694e-05
5.28019e-05
2.69312e-05
9.8698e-06
7.92691e-06
1.4477e-05
6.60795e-05
9.23937e-06
7.00812e-06
2.61574e-05
7.41536e-05
0.000153606
0.000183003
0.000157652
0.00011803
8.89367e-05
7.48922e-05
7.26557e-05
7.27903e-05
5.61126e-05
3.11468e-05
1.99345e-05
2.09209e-05
3.88655e-05
0.000111239
0.000237722
0.000237619
0.000236369
0.000233865
0.000230028
0.000224796
0.000161726
0.000100832
6.97741e-05
5.68173e-05
5.24863e-05
4.76563e-05
2.06089e-05
7.77137e-06
7.75422e-06
1.64356e-05
8.34691e-05
9.43866e-06
9.33363e-06
4.37905e-05
0.000144803
0.000197147
0.000168437
0.000118232
8.5259e-05
6.80943e-05
5.69958e-05
4.73076e-05
3.56014e-05
2.32198e-05
1.82052e-05
2.69881e-05
5.75314e-05
0.000107696
0.000133213
0.0001436
0.000152674
0.00016154
0.00016628
0.000163877
0.00015115
0.000127459
9.97088e-05
7.69942e-05
6.23979e-05
5.3791e-05
4.34958e-05
1.69594e-05
6.52332e-06
7.56941e-06
1.85479e-05
9.9377e-05
9.63095e-06
1.03208e-05
5.1997e-05
0.000174741
0.000172442
0.00010247
6.5614e-05
5.82298e-05
6.53721e-05
6.95296e-05
5.99769e-05
4.58408e-05
3.49243e-05
3.03985e-05
3.71035e-05
5.83792e-05
8.64725e-05
0.000108759
0.000124968
0.000136777
0.000144011
0.000146279
0.000143054
0.000133612
0.00011837
0.000100123
8.27575e-05
6.84158e-05
5.6242e-05
3.96571e-05
1.35304e-05
5.80941e-06
8.27722e-06
2.20743e-05
0.000107806
9.78937e-06
1.09254e-05
5.55943e-05
0.000185068
0.00013375
6.98838e-05
4.60823e-05
4.43152e-05
6.14252e-05
0.000101577
0.000142345
0.000130957
8.54535e-05
5.02597e-05
3.26772e-05
2.93621e-05
4.43508e-05
9.04391e-05
0.00014575
0.000178693
0.000195036
0.000198473
0.000189329
0.000170138
0.000145156
0.000119046
9.56728e-05
7.67556e-05
6.072e-05
4.01576e-05
1.27835e-05
5.46999e-06
8.34008e-06
2.42619e-05
0.000107045
9.87203e-06
1.21641e-05
9.2005e-05
0.000155164
9.12559e-05
6.1919e-05
5.32389e-05
5.08925e-05
5.31411e-05
6.65083e-05
9.81677e-05
0.000146765
0.000182213
0.00015267
8.30755e-05
4.50109e-05
3.33833e-05
4.31324e-05
9.75792e-05
0.000221455
0.000232651
0.0002342
0.000234453
0.000232827
0.000221147
0.000174335
0.00012986
9.45259e-05
6.74045e-05
4.0662e-05
1.07065e-05
5.04841e-06
9.02411e-06
2.69125e-05
0.000104851
9.95445e-06
1.05433e-05
7.68959e-05
0.000121259
9.12535e-05
8.11434e-05
7.62383e-05
7.06412e-05
6.97879e-05
7.47205e-05
8.52118e-05
9.99611e-05
0.000110834
0.000105831
8.24164e-05
5.49998e-05
4.16288e-05
5.15855e-05
0.000110418
0.000212244
0.00023369
0.000234694
0.00023493
0.000233828
0.000219848
0.000184999
0.000147427
0.000111661
7.92765e-05
4.54082e-05
1.10442e-05
4.36139e-06
9.04706e-06
2.86867e-05
9.99936e-05
1.00473e-05
8.46689e-06
4.45561e-05
0.000128819
0.000149326
0.000124579
7.85396e-05
5.02248e-05
4.13277e-05
4.42528e-05
5.30334e-05
6.30091e-05
6.94664e-05
6.77056e-05
5.8917e-05
5.08795e-05
5.17626e-05
7.23404e-05
0.000124098
0.000179366
0.000207325
0.000215841
0.000215222
0.000207874
0.000193588
0.000172679
0.000146764
0.00011773
8.59291e-05
4.75397e-05
1.24592e-05
5.18468e-06
9.83331e-06
3.12051e-05
9.72322e-05
1.01718e-05
9.15443e-06
4.52683e-05
0.00013095
0.000164429
0.0001395
9.31837e-05
5.5021e-05
3.60248e-05
2.98641e-05
3.08224e-05
3.55711e-05
4.14995e-05
4.63016e-05
4.99577e-05
5.58136e-05
6.84391e-05
8.92217e-05
0.000112624
0.000132301
0.000147224
0.000157473
0.000162703
0.000162513
0.000156707
0.000145308
0.000128815
0.000107849
8.18902e-05
4.6632e-05
1.21703e-05
5.00283e-06
1.03101e-05
3.38263e-05
9.27903e-05
1.02385e-05
9.1808e-06
4.76738e-05
0.000142311
0.000182184
0.00018481
0.000166891
0.000122974
7.88981e-05
5.29214e-05
3.97371e-05
3.31167e-05
3.04273e-05
3.0782e-05
3.37605e-05
3.89358e-05
4.63764e-05
5.68228e-05
6.95928e-05
8.1698e-05
9.20064e-05
0.000101343
0.000109395
0.000114543
0.000115347
0.000111174
0.000102032
8.82338e-05
6.99508e-05
4.5203e-05
1.4494e-05
4.40717e-06
9.38022e-06
3.09686e-05
9.66517e-05
1.02199e-05
8.70185e-06
3.98893e-05
0.000116242
0.000190259
0.000208252
0.000197474
0.000177987
0.000155332
0.000125296
9.48504e-05
7.34214e-05
5.99647e-05
5.1041e-05
4.44563e-05
3.90615e-05
3.45972e-05
3.18449e-05
3.27572e-05
3.97701e-05
5.20132e-05
6.19894e-05
6.82982e-05
7.4056e-05
7.89524e-05
8.06182e-05
7.7438e-05
6.94209e-05
5.70061e-05
3.69587e-05
1.1972e-05
4.23984e-06
7.76598e-06
2.77189e-05
0.000101765
1.04352e-05
9.22914e-06
3.73373e-05
9.97389e-05
0.000171269
0.000192417
0.000179373
0.000149787
0.000119989
0.000101108
9.35724e-05
9.42779e-05
0.000100764
0.000108368
0.00010844
9.78147e-05
8.1844e-05
6.51963e-05
5.00219e-05
3.7413e-05
2.89548e-05
2.8083e-05
4.06023e-05
5.08185e-05
5.55474e-05
6.00382e-05
5.85369e-05
5.06354e-05
3.89522e-05
2.14278e-05
4.70093e-06
4.22212e-06
8.05217e-06
2.63897e-05
0.000107256
1.06237e-05
1.06233e-05
4.79197e-05
0.000144918
0.000204929
0.00021207
0.000198324
0.000168981
0.000130482
9.62409e-05
7.38855e-05
6.24103e-05
6.02741e-05
6.95669e-05
9.56763e-05
0.000141716
0.000185428
0.00017569
0.000126177
8.1845e-05
5.10399e-05
3.26097e-05
2.34031e-05
2.24568e-05
3.23133e-05
3.66067e-05
3.69716e-05
3.46753e-05
2.5963e-05
7.34975e-06
4.07906e-07
3.59871e-06
1.01007e-05
3.45994e-05
0.000101395
1.09837e-05
1.05741e-05
4.80045e-05
0.000148408
0.000206291
0.000208408
0.000184227
0.000147061
0.000115657
9.98377e-05
9.64456e-05
9.56086e-05
8.94984e-05
8.11816e-05
7.74894e-05
8.30294e-05
0.000100316
0.000126628
0.000144098
0.000124628
7.72573e-05
4.31911e-05
2.6829e-05
1.97485e-05
1.93792e-05
2.41059e-05
1.97796e-05
1.40343e-05
5.41969e-06
2.60894e-06
3.19234e-06
4.31846e-06
1.25514e-05
4.27917e-05
8.91723e-05
1.09363e-05
1.04066e-05
4.41838e-05
0.000129224
0.000193483
0.000202128
0.000185203
0.000148666
0.000105651
7.67711e-05
6.70093e-05
7.45035e-05
9.76761e-05
0.000125105
0.000133435
0.000123133
0.000113356
0.00011205
0.000113648
0.000101653
7.00906e-05
4.13056e-05
2.48127e-05
1.5913e-05
1.06268e-05
5.19832e-06
1.15041e-05
4.6322e-06
8.72894e-06
2.54418e-06
6.08806e-07
6.99096e-06
2.13462e-05
7.58518e-05
6.53691e-05
1.07215e-05
1.0946e-05
4.87245e-05
0.000145835
0.000201059
0.000204063
0.000184402
0.000149355
0.000111483
8.30733e-05
6.65322e-05
6.08311e-05
6.6979e-05
8.83068e-05
0.000125402
0.000163741
0.000177991
0.000160429
0.000122876
7.77329e-05
4.1023e-05
2.14555e-05
1.25908e-05
7.50062e-06
2.89205e-06
1.06824e-05
4.69031e-06
2.94154e-07
7.08918e-06
2.49558e-06
2.92976e-06
7.22996e-06
2.52085e-05
0.000104319
5.14264e-05
1.0477e-05
1.09696e-05
4.84222e-05
0.000142136
0.000196359
0.000202165
0.000182843
0.000143632
0.000102492
7.68009e-05
6.68526e-05
6.67374e-05
7.14194e-05
7.9524e-05
9.25301e-05
0.000109752
0.000123711
0.000122079
9.81723e-05
6.04968e-05
2.88937e-05
1.22501e-05
5.55598e-06
2.02279e-06
6.43171e-06
9.16263e-06
5.76786e-06
5.23781e-07
3.90026e-07
4.06875e-06
2.13012e-06
4.40722e-06
1.04674e-05
4.19997e-05
5.96151e-05
1.07203e-05
1.07407e-05
4.5235e-05
0.000130424
0.000192194
0.000202628
0.000191084
0.000163819
0.000123355
8.46688e-05
6.20483e-05
5.50678e-05
5.94152e-05
7.11621e-05
8.56734e-05
9.86644e-05
0.000107153
0.000107864
9.72205e-05
7.34411e-05
4.11187e-05
1.92357e-05
1.00382e-05
6.76798e-06
3.30766e-06
3.76682e-06
2.66866e-06
4.93564e-06
6.49095e-06
7.75186e-06
7.41445e-06
2.69041e-06
4.58957e-06
6.56518e-06
2.03667e-05
9.04596e-06
1.08171e-05
4.55707e-05
0.000133737
0.000194433
0.000200689
0.000183441
0.000153317
0.000121289
9.44829e-05
7.36082e-05
6.05579e-05
5.75373e-05
6.49289e-05
8.17022e-05
0.000103443
0.000120982
0.000125282
0.000114243
9.14446e-05
5.90782e-05
3.19181e-05
1.73158e-05
8.74485e-06
7.04661e-06
4.74071e-06
6.80788e-06
1.04988e-05
9.04106e-06
9.82539e-06
2.67746e-06
2.71566e-06
1.9966e-06
1.92209e-06
1.71439e-05
1.22621e-05
1.06702e-05
4.51909e-05
0.000132711
0.000193672
0.000200688
0.000181429
0.000145792
0.000110965
8.87828e-05
7.70074e-05
6.97915e-05
6.65705e-05
7.14377e-05
8.86413e-05
0.000120343
0.000159266
0.000181134
0.000166408
0.00012409
7.17836e-05
2.72005e-05
7.98594e-06
5.10742e-06
6.77208e-06
4.58733e-06
7.22627e-06
5.11179e-07
5.77573e-06
1.21834e-05
7.63243e-06
6.42697e-06
1.53253e-05
4.06296e-05
0.000171147
1.40922e-05
1.10471e-05
4.86201e-05
0.000142318
0.000199569
0.000197938
0.000167866
0.000128414
9.95996e-05
8.50893e-05
7.97315e-05
7.8416e-05
7.94777e-05
8.67154e-05
0.000109
0.000161801
0.000262713
0.000301436
0.000280487
0.000143938
5.19262e-05
1.24634e-05
8.05276e-06
5.63616e-06
3.17102e-06
9.53644e-06
2.09322e-05
4.28916e-05
7.4487e-05
7.24724e-05
4.97242e-05
4.63976e-05
7.59237e-05
0.000131207
5.43132e-05
1.16741e-05
1.16375e-05
5.5224e-05
0.000160254
0.000195875
0.00017534
0.000132426
9.58282e-05
7.80657e-05
7.59211e-05
8.26535e-05
9.00039e-05
9.42674e-05
9.98713e-05
0.000113638
0.000139506
0.000170101
0.000180257
0.000154545
0.00010678
5.69241e-05
1.9752e-05
1.58488e-06
4.08238e-06
7.84183e-06
1.60446e-05
3.14047e-05
6.13696e-05
9.74276e-05
0.000106555
0.000111455
0.000114873
0.000114191
9.25965e-05
3.45236e-05
8.96992e-06
1.21843e-05
6.11796e-05
0.000170791
0.000189014
0.000156156
0.000112777
8.34907e-05
7.07862e-05
7.08755e-05
8.07096e-05
9.47154e-05
0.000104707
0.000108832
0.000112166
0.000118038
0.000124216
0.0001253
0.000117894
0.000103565
8.58672e-05
6.62346e-05
4.53194e-05
2.58015e-05
1.07544e-05
4.99029e-06
9.781e-06
2.14198e-05
3.99937e-05
4.89876e-05
4.78835e-05
5.82322e-05
8.69875e-05
7.05104e-05
3.19097e-05
4.53706e-06
1.2259e-05
6.23077e-05
0.000174414
0.000181696
0.000137805
9.68558e-05
7.5923e-05
7.07206e-05
7.61058e-05
8.75518e-05
0.000100093
0.000110016
0.000116036
0.00011907
0.000120177
0.000118884
0.000114189
0.00010631
9.645e-05
8.6254e-05
7.62647e-05
6.70625e-05
6.09767e-05
5.35537e-05
4.12565e-05
3.08694e-05
3.08651e-05
3.32371e-05
9.54885e-06
3.54703e-06
8.23894e-06
2.05233e-05
3.66267e-05
2.39209e-05
2.41188e-07
1.20634e-05
6.01041e-05
0.000171691
0.000176241
0.000128487
9.07918e-05
7.37273e-05
6.97011e-05
7.67669e-05
9.55824e-05
0.000122205
0.000147596
0.000165957
0.000177497
0.000182711
0.000180015
0.000168972
0.000152339
0.000134483
0.00011745
0.000101578
9.67231e-05
0.000121671
0.000179746
0.000114181
4.87125e-05
1.48333e-05
2.07516e-05
4.48095e-05
6.56515e-05
5.58328e-06
4.17674e-06
2.20783e-06
7.6938e-06
1.27509e-05
1.18776e-05
5.87135e-05
0.000173172
0.000165252
0.000106481
7.76942e-05
7.22867e-05
7.57842e-05
8.57465e-05
0.000108176
0.000146732
0.000197766
0.000259565
0.000339422
0.000390135
0.000376086
0.000358164
0.000335798
0.000308451
0.000279729
0.000100313
2.69299e-05
2.96676e-05
5.75618e-05
0.000120414
0.000146813
0.000127696
0.000103273
8.63109e-05
8.04602e-05
6.50113e-05
5.79012e-05
6.56539e-05
0.000134561
1.45736e-05
1.21287e-05
5.77905e-05
0.000173342
0.000139955
7.76256e-05
6.0066e-05
6.46652e-05
7.55704e-05
8.64318e-05
0.000102397
0.000129435
0.000164628
0.000196881
0.000216551
0.000221483
0.000215389
0.000202678
0.000185157
0.000161987
0.000134152
0.000102084
5.84888e-05
3.59788e-05
3.78033e-05
5.30571e-05
7.87164e-05
0.000111722
0.000134766
0.000129167
0.000112514
0.000100145
8.59689e-05
9.9054e-05
7.9509e-05
1.07874e-05
1.26089e-05
6.11602e-05
0.000172599
9.95008e-05
5.16335e-05
4.69142e-05
6.21483e-05
8.55199e-05
0.000108956
0.000132055
0.000158115
0.000187426
0.000216078
0.000239198
0.000253568
0.000258315
0.000254803
0.000246004
0.000234382
0.000219653
0.000199185
0.000168471
0.000125572
8.82519e-05
7.87117e-05
0.000102956
0.000134898
9.32768e-05
3.27307e-05
2.23043e-05
2.74984e-05
2.36266e-05
3.36558e-05
9.09371e-05
1.12381e-05
1.31231e-05
6.60428e-05
0.000157954
6.39477e-05
3.38452e-05
3.93846e-05
6.68172e-05
0.000102929
0.000136301
0.000169566
0.000206622
0.000246775
0.000287376
0.000326952
0.000366516
0.000408606
0.000445044
0.000435289
0.000421882
0.00040446
0.00032745
0.000185505
7.92713e-05
2.19223e-05
2.18105e-06
4.89137e-06
2.42878e-05
6.39888e-05
9.60299e-05
9.79889e-05
8.72492e-05
8.42372e-05
0.000109538
5.87637e-05
1.03776e-05
1.35774e-05
6.84164e-05
0.000138566
5.09664e-05
2.6154e-05
3.20422e-05
5.88372e-05
9.69561e-05
0.000134108
0.000165812
0.000193354
0.000219102
0.000244101
0.000267768
0.000288579
0.000304716
0.000314458
0.000316379
0.000308138
0.000285915
0.000247448
0.000196903
0.000142378
8.98983e-05
4.62009e-05
2.2548e-05
2.04224e-05
3.16863e-05
4.81796e-05
7.03382e-05
9.69904e-05
0.000107578
7.97201e-05
3.17736e-05
4.61128e-06
1.37117e-05
6.60315e-05
0.000132363
5.49534e-05
2.51402e-05
2.37233e-05
3.93224e-05
6.81205e-05
0.000103823
0.00013984
0.000172677
0.000201055
0.000224513
0.000242968
0.000256517
0.000265305
0.000269329
0.000268198
0.00026112
0.000247726
0.00022862
0.000205466
0.000179677
0.000150977
0.000119366
9.01891e-05
6.75078e-05
5.09475e-05
3.97182e-05
4.07721e-05
6.86235e-05
0.000115638
7.19691e-05
3.4617e-05
3.2549e-06
1.36887e-05
5.99625e-05
0.000136211
9.26763e-05
3.85289e-05
1.92305e-05
1.73521e-05
2.71594e-05
4.97982e-05
8.35542e-05
0.000121788
0.000158382
0.000190142
0.000215778
0.00023506
0.000249062
0.000259932
0.000269416
0.000277169
0.000280233
0.000274414
0.000258921
0.000239543
0.000218671
0.000178712
0.000115526
7.47681e-05
6.13898e-05
6.3705e-05
8.25112e-05
0.000139125
0.00016855
9.92483e-05
4.01926e-05
1.00876e-05
1.34927e-05
5.63832e-05
0.000134367
0.000134107
8.02348e-05
3.23638e-05
1.29972e-05
7.92615e-06
1.41015e-05
3.29261e-05
6.55713e-05
0.000107543
0.000151382
0.000191164
0.000223456
0.00024949
0.00027668
0.000313101
0.000360371
0.000411232
0.000453135
0.000473239
0.000453191
0.00035947
0.000182862
7.93657e-05
5.61071e-05
7.04076e-05
0.000107811
0.000146946
0.000136316
8.06936e-05
5.48512e-05
7.68479e-05
1.37109e-05
1.32081e-05
5.56292e-05
0.000138214
0.000156127
0.000129366
6.66664e-05
2.27446e-05
4.5099e-06
1.51054e-06
7.50405e-06
2.5704e-05
5.92023e-05
0.000104408
0.000153427
0.000192191
0.000209213
0.000216877
0.00024462
0.000311557
0.000404894
0.000459941
0.0004168
0.000286386
0.00015204
7.51952e-05
5.27211e-05
7.86178e-05
0.000145406
0.00019356
0.000157715
0.000102065
7.56429e-05
8.87964e-05
0.000116058
1.25422e-05
1.297e-05
5.67226e-05
0.000144482
0.000170347
0.000162435
0.000123998
5.35441e-05
1.33078e-05
3.11965e-06
3.17688e-06
1.04614e-06
1.52081e-05
4.23363e-05
8.15697e-05
0.000129715
0.000172627
0.000196573
0.000216889
0.000264094
0.000351686
0.000430129
0.000404941
0.000282356
0.000152312
7.49086e-05
4.68084e-05
5.85493e-05
0.000102819
0.000149619
0.000149332
0.000123288
0.000112789
0.000118595
5.06902e-05
9.14627e-06
1.25279e-05
5.80408e-05
0.000149903
0.000174746
0.000173328
0.000161101
0.000119354
4.79315e-05
8.06691e-06
2.16405e-06
3.07917e-06
7.01985e-07
1.32926e-05
4.05215e-05
7.73186e-05
0.000121943
0.000161854
0.000183894
0.00019574
0.000215998
0.000250937
0.000279806
0.000263329
0.00019635
0.000121112
7.33433e-05
5.68243e-05
6.34589e-05
8.41875e-05
0.000105535
0.000115385
0.000117498
9.5733e-05
3.33187e-05
6.97101e-06
1.20823e-05
5.71733e-05
0.000145223
0.000172346
0.000174259
0.000165303
0.000143255
9.5178e-05
3.8026e-05
6.06811e-06
2.83019e-06
3.57846e-07
1.6789e-05
4.47419e-05
8.49638e-05
0.00013278
0.000174001
0.000200529
0.000217456
0.000235586
0.000258271
0.000276844
0.000275218
0.000242537
0.00018631
0.000129785
9.07125e-05
7.16323e-05
6.96356e-05
8.26725e-05
0.000101884
0.000109359
8.84049e-05
3.29704e-05
7.29028e-06
1.19796e-05
5.72232e-05
0.000148922
0.000180243
0.000185207
0.000185038
0.000181229
0.000163488
0.000109162
4.6182e-05
1.24693e-05
3.15982e-06
6.81767e-06
2.19595e-05
5.11433e-05
0.000104557
0.000152072
0.00015746
0.000150147
0.00015771
0.000191877
0.000249262
0.000297133
0.000301211
0.000265572
0.000211027
0.000156949
0.000115651
9.17206e-05
8.61521e-05
9.81313e-05
0.000115663
0.00010767
4.40806e-05
8.68375e-06
1.21628e-05
5.64781e-05
0.000149651
0.000189552
0.000188476
0.000177873
0.00017425
0.000185126
0.000202867
0.000192676
0.000103759
3.64317e-05
9.45493e-06
7.30232e-08
1.47673e-06
9.10531e-06
4.07981e-05
9.92484e-05
0.000155715
0.000160453
0.000151087
0.000163719
0.000206426
0.000263987
0.000297666
0.000288187
0.000247341
0.000195173
0.000148968
0.000118959
0.000108877
0.000117198
0.000123814
5.73136e-05
9.41795e-06
1.24728e-05
5.84695e-05
0.000152931
0.00019893
0.000205245
0.000192846
0.000166637
0.000141204
0.000133412
0.000151259
0.000187988
0.000205357
0.000119596
3.90633e-05
8.58214e-06
3.71361e-08
4.43969e-06
7.28769e-06
2.69374e-05
8.00991e-05
0.00014627
0.000182681
0.000200464
0.000223965
0.000253338
0.000272384
0.000268512
0.000242005
0.000202133
0.000162566
0.000136245
0.000129639
0.000134169
7.16077e-05
9.90365e-06
1.27225e-05
5.84817e-05
0.000152938
0.000202739
0.000214423
0.000215406
0.000210067
0.000192852
0.000159315
0.000127357
0.000118972
0.000144416
0.000196589
0.000210386
0.000110066
2.49327e-05
2.40299e-06
3.52769e-06
3.02877e-06
5.68641e-06
2.66237e-05
7.77598e-05
0.000149132
0.000220707
0.000266733
0.000281924
0.000274511
0.000251017
0.000217064
0.000181081
0.000154027
0.000144279
0.000146777
8.38566e-05
1.03116e-05
1.29292e-05
5.93693e-05
0.00015352
0.000197354
0.000203476
0.000198591
0.000191939
0.000189923
0.000192189
0.000185807
0.000157195
0.000125488
0.000117797
0.000147778
0.000216212
0.000165598
2.87339e-05
4.66802e-06
2.10827e-06
1.37623e-06
5.82965e-06
5.85469e-06
4.08327e-05
9.86632e-05
0.000190416
0.000281774
0.00030734
0.000285829
0.00024592
0.000203756
0.000172192
0.000159099
0.000158206
8.51379e-05
1.02912e-05
1.29125e-05
5.95932e-05
0.000153615
0.000199056
0.00020795
0.000202771
0.000187839
0.00016946
0.000159002
0.000165344
0.00018647
0.000199774
0.000175443
0.000130439
9.72629e-05
7.64143e-05
4.01316e-05
6.63687e-06
2.2677e-06
4.63543e-06
2.63768e-06
5.37897e-07
2.84279e-06
2.52016e-05
6.36746e-05
0.0001283
0.000216124
0.000264361
0.000258005
0.000229463
0.000200071
0.000181542
0.000169129
7.93332e-05
1.00347e-05
1.27089e-05
5.9024e-05
0.00015687
0.000204986
0.000212697
0.000205384
0.000190034
0.000171857
0.000154845
0.000143858
0.000145736
0.000164678
0.000193127
0.000198249
0.000139034
5.82217e-05
1.70931e-05
2.5886e-06
1.91598e-06
2.691e-06
5.791e-06
1.04923e-06
3.10941e-06
8.71821e-06
1.36519e-05
4.09344e-05
8.82488e-05
0.000155072
0.000205194
0.000216612
0.000206845
0.000191397
0.000171072
7.52245e-05
1.00379e-05
1.25194e-05
5.70708e-05
0.000154423
0.000202511
0.000203402
0.000184466
0.000160324
0.000145033
0.000142671
0.000148446
0.00015487
0.000158606
0.000159825
0.000152437
0.000120103
6.2119e-05
1.84433e-05
4.44298e-06
8.03167e-06
2.29875e-06
5.66163e-06
1.88509e-06
2.15224e-06
8.2236e-06
5.89981e-06
8.61808e-06
3.42828e-05
7.95156e-05
0.000138352
0.000176529
0.000186194
0.000181107
0.00016403
7.14418e-05
1.03083e-05
1.25605e-05
5.59072e-05
0.000151388
0.000197699
0.000190287
0.000160192
0.000130358
0.000115237
0.00011521
0.000127365
0.000148356
0.000171681
0.000186912
0.000182402
0.000148653
9.21275e-05
3.96716e-05
7.97898e-06
8.73119e-06
7.64604e-06
1.24586e-05
2.32826e-05
3.02249e-05
2.66396e-05
1.50777e-05
7.01054e-06
1.24939e-05
3.47268e-05
7.93122e-05
0.000133433
0.000160727
0.000166475
0.000153185
6.26097e-05
1.03095e-05
1.28504e-05
5.66306e-05
0.000155353
0.000193797
0.000169368
0.000128429
0.000104045
0.000100611
0.000110716
0.000127783
0.000148474
0.000172239
0.000197575
0.000217001
0.000213274
0.000164371
8.71475e-05
3.32596e-05
6.93745e-06
2.29932e-06
5.8184e-06
2.12312e-05
3.84304e-05
5.41181e-05
5.04072e-05
2.94539e-05
1.54909e-05
1.64577e-05
3.49183e-05
7.78101e-05
0.000128189
0.00014799
0.000136557
5.31782e-05
1.00627e-05
1.33224e-05
5.94595e-05
0.000162668
0.000180707
0.000133491
9.04467e-05
7.72364e-05
8.71482e-05
0.000112474
0.000145396
0.000177786
0.000204903
0.000226943
0.000245299
0.000255978
0.000243287
0.000184307
9.79346e-05
4.05655e-05
1.04747e-05
1.26858e-05
6.1333e-06
1.97135e-05
3.71883e-05
5.66421e-05
6.06346e-05
4.12946e-05
2.38907e-05
2.11636e-05
3.6119e-05
7.60606e-05
0.000119724
0.00012138
4.82877e-05
9.95527e-06
1.36777e-05
6.47825e-05
0.000167482
0.000151773
9.35455e-05
6.19555e-05
6.14548e-05
8.5698e-05
0.000129471
0.000178749
0.000220461
0.000251563
0.000273786
0.000289346
0.000298513
0.0002955
0.000264967
0.000193876
0.000109322
5.48522e-05
2.60165e-05
1.28101e-05
1.15938e-05
1.8617e-05
3.09969e-05
4.69634e-05
5.61058e-05
4.59036e-05
3.03702e-05
2.62565e-05
4.07212e-05
8.15482e-05
0.000113576
4.81626e-05
1.00711e-05
1.36076e-05
6.89216e-05
0.000159295
0.000125127
7.12507e-05
4.85385e-05
5.47761e-05
9.01129e-05
0.000151812
0.000214691
0.000260146
0.000289729
0.000309246
0.000321887
0.000328001
0.000324716
0.000304416
0.000256951
0.000184057
0.000113174
6.83213e-05
4.49284e-05
3.27576e-05
2.44531e-05
2.26561e-05
2.81345e-05
3.84695e-05
4.59302e-05
4.03905e-05
3.00297e-05
3.14124e-05
5.85347e-05
0.000108805
4.845e-05
1.00461e-05
1.32087e-05
6.7854e-05
0.00015319
0.000127268
7.57102e-05
4.79314e-05
4.69011e-05
7.23208e-05
0.000126419
0.000194819
0.000254548
0.000298007
0.00032821
0.00034876
0.000360991
0.00036313
0.000349626
0.000312867
0.000251282
0.000179447
0.00012158
8.77352e-05
7.07066e-05
5.72646e-05
4.12569e-05
3.0921e-05
2.96137e-05
3.38066e-05
3.56561e-05
3.06034e-05
3.00889e-05
5.13932e-05
0.000105141
4.74269e-05
9.82641e-06
1.28053e-05
6.15703e-05
0.000148245
0.000150256
0.000107496
6.00733e-05
3.83788e-05
4.04521e-05
6.64613e-05
0.000119574
0.000191449
0.000260942
0.000315492
0.000354197
0.000378672
0.000388758
0.000381478
0.000352566
0.000301886
0.000239211
0.000181195
0.000140371
0.000117475
0.000101277
7.84994e-05
5.32661e-05
3.75928e-05
3.27824e-05
3.2839e-05
3.00512e-05
2.9031e-05
4.64771e-05
0.000100217
4.7486e-05
9.74958e-06
1.26748e-05
5.5865e-05
0.000138851
0.000157402
0.000132304
8.40063e-05
4.49862e-05
2.79568e-05
3.00602e-05
5.37191e-05
0.000106352
0.000185537
0.000267629
0.000333079
0.000376665
0.000397995
0.000397063
0.000374928
0.00033602
0.00028911
0.000244451
0.000209164
0.000183585
0.000159648
0.000125757
8.3444e-05
4.94491e-05
3.26112e-05
2.88487e-05
3.03462e-05
3.33809e-05
5.1654e-05
0.000103714
4.71621e-05
9.63923e-06
1.2928e-05
5.45732e-05
0.000138558
0.000158882
0.000131233
9.15751e-05
5.93213e-05
3.63124e-05
2.28268e-05
2.45916e-05
4.8993e-05
0.00010536
0.000190852
0.000278672
0.000347393
0.000392545
0.000415774
0.000419435
0.000405972
0.000379257
0.000345391
0.00031073
0.000277587
0.000241432
0.000194169
0.000134919
7.69558e-05
3.85365e-05
2.30393e-05
2.2943e-05
3.42305e-05
6.45046e-05
0.00010911
4.35314e-05
9.19001e-06
1.33367e-05
5.72108e-05
0.000143182
0.000157288
0.000121719
7.59623e-05
4.98606e-05
4.09587e-05
3.18499e-05
2.15627e-05
2.88441e-05
6.364e-05
0.000135512
0.000233158
0.000324162
0.000388833
0.000425987
0.000441378
0.000440957
0.000429323
0.000409882
0.000384861
0.000354547
0.000316838
0.000268582
0.000208287
0.000139615
7.62312e-05
3.61337e-05
2.15639e-05
2.64556e-05
5.68603e-05
0.00010406
4.24702e-05
8.89956e-06
1.34306e-05
6.02946e-05
0.000147098
0.000153899
0.000116548
6.8542e-05
3.79381e-05
2.71665e-05
2.9874e-05
3.0409e-05
3.28692e-05
5.84029e-05
0.000117994
0.000202958
0.00028576
0.000349716
0.000394665
0.000424923
0.000442663
0.000448394
0.000442781
0.000427098
0.000402492
0.000369316
0.000327282
0.000276025
0.000215415
0.00014732
8.31328e-05
4.21421e-05
2.94042e-05
4.2579e-05
9.19909e-05
4.88793e-05
9.26064e-06
1.31586e-05
6.0233e-05
0.000148901
0.000151393
0.000110622
6.62427e-05
3.6345e-05
2.03683e-05
1.81233e-05
3.03775e-05
5.00029e-05
8.37292e-05
0.000143025
0.000211379
0.000268508
0.000313883
0.000355136
0.000395043
0.000429598
0.000452409
0.000459626
0.00045156
0.000430968
0.000400754
0.000362839
0.000318001
0.000265864
0.000205078
0.000137036
7.63155e-05
4.36771e-05
4.27992e-05
8.42205e-05
6.07643e-05
9.97484e-06
1.31278e-05
5.93791e-05
0.000150748
0.000152982
0.000108562
6.60191e-05
3.91756e-05
2.12831e-05
1.27738e-05
2.16279e-05
5.19051e-05
0.000107343
0.000175738
0.000232126
0.000269175
0.000298755
0.000333895
0.0003776
0.000422827
0.000458207
0.000475283
0.000472235
0.000452232
0.000419802
0.000378509
0.000330312
0.000275738
0.000214735
0.000149742
9.17605e-05
5.7662e-05
5.64455e-05
0.000102332