/*--------------------------------*- C++ -*----------------------------------*\
| =========                 |                                                 |
| \\      /  F ield         | OpenFOAM: The Open Source CFD Toolbox           |
|  \\    /   O peration     | Version:  v2006                                 |
|   \\  /    A nd           | Website:  www.openfoam.com                      |
|    \\/     M anipulation  |                                                 |
\*---------------------------------------------------------------------------*/
FoamFile
{
    version     2.0;
    format      ascii;
    class       volScalarField;
    location    "92";
    object      nut;
}
// * * * * * * * * * * * * * * * * * * * * * * * * * * * * * * * * * * * * * //

dimensions      [0 2 -1 0 0 0 0];


internalField   nonuniform List<scalar> 
78750
(
0.000463712
0.00103375
0.000706408
0.000258304
1.55488e-05
1.14318e-05
2.5803e-05
1.98742e-05
2.24296e-05
2.27822e-05
2.49378e-05
2.45908e-05
2.71576e-05
2.65392e-05
2.77834e-05
2.74429e-05
2.69874e-05
2.49878e-05
2.25806e-05
2.08751e-05
2.02289e-05
2.06572e-05
2.22736e-05
2.49967e-05
2.80957e-05
3.0633e-05
3.21682e-05
3.26526e-05
3.23028e-05
3.13663e-05
2.99385e-05
2.82129e-05
2.38566e-05
5.85192e-06
1.82761e-07
1.86523e-05
8.78883e-05
8.48409e-06
3.14249e-06
1.7735e-05
1.82746e-05
2.63868e-05
3.29456e-05
4.00508e-05
4.79738e-05
5.36509e-05
5.84638e-05
6.27465e-05
6.71133e-05
7.01468e-05
7.10393e-05
7.08116e-05
7.07678e-05
7.22628e-05
7.49397e-05
7.74829e-05
7.89464e-05
7.93048e-05
7.92337e-05
7.93259e-05
7.97418e-05
8.03732e-05
8.08482e-05
8.07109e-05
7.9912e-05
7.66102e-05
6.03987e-05
2.23577e-05
5.07353e-06
1.38258e-06
8.42103e-07
1.35447e-05
2.51147e-05
6.09711e-05
4.14806e-05
1.88817e-05
1.86818e-05
2.64603e-05
3.67662e-05
5.75972e-05
0.000101689
9.50655e-05
6.57162e-05
5.84129e-05
6.22359e-05
6.70572e-05
7.07103e-05
7.5187e-05
8.11754e-05
8.74113e-05
9.20438e-05
9.37843e-05
9.27624e-05
9.03161e-05
8.77219e-05
8.55158e-05
8.34654e-05
8.09876e-05
7.70654e-05
6.91784e-05
5.31809e-05
2.97068e-05
1.22623e-05
6.89018e-06
2.93666e-06
1.85806e-06
2.59317e-05
6.76424e-05
5.35512e-05
4.15849e-05
3.37438e-05
2.66283e-05
2.22965e-05
2.10469e-05
2.34996e-05
3.18464e-05
4.67323e-05
6.24727e-05
7.44992e-05
7.87453e-05
7.1664e-05
6.03213e-05
5.20855e-05
4.84688e-05
4.84654e-05
5.07279e-05
5.42586e-05
5.85043e-05
6.304e-05
6.73749e-05
7.11792e-05
7.40104e-05
7.47886e-05
7.2086e-05
6.37644e-05
4.67436e-05
2.37813e-05
9.29672e-06
6.56097e-06
3.93744e-06
1.79613e-06
0.000120076
9.4293e-05
7.66472e-05
6.61928e-05
6.20736e-05
6.13088e-05
5.99813e-05
5.58392e-05
5.00171e-05
4.47005e-05
4.08633e-05
3.85674e-05
3.76225e-05
3.77889e-05
3.90554e-05
4.17745e-05
4.64385e-05
5.31521e-05
6.07894e-05
6.54297e-05
6.18347e-05
5.17815e-05
4.43236e-05
4.19066e-05
4.22631e-05
4.39106e-05
4.56858e-05
4.56626e-05
4.11159e-05
3.04831e-05
1.76524e-05
9.89815e-06
1.02718e-05
5.17312e-06
1.0345e-06
1.08066e-05
2.54998e-05
3.90339e-05
4.6956e-05
5.2259e-05
5.6711e-05
6.0619e-05
6.44214e-05
6.87967e-05
7.40605e-05
7.98298e-05
8.5194e-05
8.93654e-05
9.20048e-05
9.30794e-05
9.26196e-05
9.01024e-05
8.44114e-05
7.58839e-05
6.41069e-05
5.02582e-05
4.01002e-05
3.48458e-05
3.26944e-05
3.484e-05
3.92622e-05
3.99937e-05
3.9569e-05
3.79998e-05
2.94631e-05
1.57588e-05
8.77089e-06
1.02086e-05
5.95573e-06
2.63371e-06
1.93071e-05
5.44863e-05
8.19994e-05
8.5006e-05
7.98543e-05
7.68925e-05
7.83958e-05
8.37431e-05
9.17475e-05
0.000101059
0.000110346
0.000118514
0.000124479
0.000126672
0.000122201
0.000107201
8.27339e-05
5.8358e-05
4.22536e-05
3.47645e-05
3.50198e-05
4.51162e-05
5.78878e-05
2.04956e-05
1.54645e-05
2.79333e-05
5.63118e-05
5.69589e-05
4.24845e-05
2.70499e-05
1.38305e-05
9.02538e-06
1.50621e-05
7.26364e-06
5.29463e-06
3.16912e-05
9.76621e-05
0.000116076
9.21143e-05
7.24522e-05
6.44114e-05
6.345e-05
6.58459e-05
6.97609e-05
7.45448e-05
8.03063e-05
8.77887e-05
9.75528e-05
0.00010801
0.000114201
0.000110222
9.49439e-05
7.4675e-05
5.73093e-05
4.60462e-05
4.02724e-05
3.86404e-05
4.05626e-05
4.3644e-05
3.89986e-05
3.24138e-05
2.56978e-05
2.01873e-05
2.07647e-05
1.67477e-05
1.13666e-05
9.40206e-06
1.90538e-05
7.97225e-06
6.29287e-06
5.36389e-05
0.000103265
7.98236e-05
5.76502e-05
5.01879e-05
5.1007e-05
5.45137e-05
5.82206e-05
6.19265e-05
6.62372e-05
7.15924e-05
7.79138e-05
8.45416e-05
9.02948e-05
9.37951e-05
9.41394e-05
9.11606e-05
8.49623e-05
7.61425e-05
6.63844e-05
5.76343e-05
5.07326e-05
4.54375e-05
4.20501e-05
4.40363e-05
6.06709e-05
0.000100561
8.03556e-05
3.3338e-05
1.44437e-05
9.04877e-06
9.19618e-06
2.38284e-05
8.59096e-06
5.06514e-06
2.65524e-05
6.88063e-05
8.86967e-05
8.15795e-05
6.38504e-05
4.94548e-05
4.13545e-05
3.72352e-05
3.55197e-05
3.58448e-05
3.85724e-05
4.42282e-05
5.23176e-05
6.08144e-05
6.75411e-05
7.14684e-05
7.25634e-05
7.12297e-05
6.79108e-05
6.29019e-05
5.70144e-05
5.13993e-05
4.67989e-05
4.38847e-05
4.406e-05
4.88942e-05
5.62143e-05
5.53083e-05
3.32825e-05
1.32773e-05
8.31869e-06
9.9909e-06
3.10786e-05
9.12963e-06
5.55873e-06
2.62008e-05
6.6091e-05
0.000104875
0.000113154
0.000100692
7.97115e-05
6.14141e-05
4.90815e-05
4.09702e-05
3.51999e-05
3.13268e-05
3.09798e-05
3.63704e-05
4.77331e-05
6.12521e-05
7.33146e-05
8.32327e-05
8.95442e-05
9.02834e-05
8.46505e-05
7.37082e-05
6.16505e-05
5.20703e-05
4.58944e-05
4.31499e-05
4.38731e-05
4.68472e-05
4.66595e-05
3.11808e-05
1.16655e-05
7.19038e-06
1.00262e-05
3.72637e-05
9.26323e-06
4.82968e-06
1.989e-05
5.10984e-05
9.68498e-05
0.000121463
0.000122072
0.000108098
8.7991e-05
7.00523e-05
5.65479e-05
4.48983e-05
3.28355e-05
2.37039e-05
2.09094e-05
2.55983e-05
4.0614e-05
6.54936e-05
8.64697e-05
9.84515e-05
0.000104677
0.000102585
8.83927e-05
6.67698e-05
4.93097e-05
4.0524e-05
3.87766e-05
4.1236e-05
4.39348e-05
4.01686e-05
2.1367e-05
8.82536e-06
6.76942e-06
1.14896e-05
5.00384e-05
9.36767e-06
3.52726e-06
1.4258e-05
3.97105e-05
9.11456e-05
0.000128443
0.000130089
0.000115473
9.82807e-05
8.63876e-05
8.05918e-05
7.37844e-05
5.24503e-05
2.89657e-05
1.86631e-05
1.78346e-05
2.53188e-05
4.7279e-05
9.48038e-05
0.000148521
0.000171995
0.000169245
0.000165748
0.000134072
8.61646e-05
5.67537e-05
4.41525e-05
4.0733e-05
4.08156e-05
3.76612e-05
1.91932e-05
7.07909e-06
5.887e-06
1.17945e-05
5.96558e-05
9.50053e-06
4.5777e-06
1.78071e-05
5.18343e-05
0.000109002
0.000131161
0.000113931
8.59683e-05
6.52699e-05
5.53472e-05
5.39881e-05
5.42371e-05
4.17783e-05
2.30824e-05
1.46998e-05
1.53945e-05
2.8578e-05
8.17439e-05
0.000174595
0.000174418
0.000173372
0.000171376
0.000168372
0.000164312
0.000117985
7.33358e-05
5.05208e-05
4.09306e-05
3.76398e-05
3.40692e-05
1.4721e-05
5.59904e-06
5.8195e-06
1.36088e-05
7.60759e-05
9.68887e-06
6.1978e-06
3.05274e-05
0.000103007
0.000141726
0.000122101
8.6405e-05
6.27625e-05
5.03988e-05
4.23571e-05
3.52751e-05
2.65848e-05
1.72962e-05
1.34835e-05
1.99088e-05
4.2379e-05
7.92679e-05
9.79857e-05
0.000105557
0.000112144
0.000118558
0.000121921
0.000120027
0.000110556
9.30601e-05
7.26129e-05
5.58733e-05
4.50905e-05
3.87113e-05
3.1205e-05
1.21578e-05
4.72447e-06
5.74167e-06
1.56007e-05
9.13159e-05
9.86003e-06
6.92339e-06
3.65175e-05
0.000125072
0.000124903
7.50816e-05
4.86445e-05
4.35197e-05
4.89651e-05
5.20191e-05
4.48046e-05
3.42047e-05
2.60135e-05
2.25701e-05
2.74513e-05
4.3098e-05
6.37588e-05
8.01199e-05
9.19847e-05
0.000100592
0.000105814
0.00010737
0.000104877
9.78144e-05
8.64991e-05
7.29919e-05
6.01506e-05
4.95523e-05
4.05927e-05
2.85458e-05
9.74074e-06
4.24227e-06
6.38194e-06
1.88969e-05
9.99992e-05
1.00203e-05
7.34579e-06
3.91966e-05
0.000133072
9.73884e-05
5.1534e-05
3.44081e-05
3.33786e-05
4.6393e-05
7.65894e-05
0.000107038
9.82579e-05
6.40257e-05
3.76143e-05
2.4401e-05
2.18471e-05
3.28804e-05
6.68794e-05
0.000107608
0.000131766
0.00014365
0.000146007
0.000139097
0.000124805
0.000106277
8.69528e-05
6.96754e-05
5.57128e-05
4.39308e-05
2.89854e-05
9.23428e-06
4.01613e-06
6.49608e-06
2.10087e-05
9.99672e-05
1.01189e-05
8.36379e-06
6.58577e-05
0.000112721
6.70154e-05
4.59634e-05
3.98562e-05
3.83476e-05
4.02176e-05
5.03853e-05
7.42408e-05
0.000110718
0.000137156
0.000114698
6.23051e-05
3.36923e-05
2.49162e-05
3.20723e-05
7.23386e-05
0.000163877
0.00017192
0.000172816
0.000172743
0.000171269
0.00016239
0.000127745
9.48989e-05
6.88498e-05
4.8922e-05
2.94265e-05
7.75213e-06
3.72685e-06
7.107e-06
2.35254e-05
9.85208e-05
1.02321e-05
7.25974e-06
5.48102e-05
8.76045e-05
6.6621e-05
5.97624e-05
5.65272e-05
5.26662e-05
5.22568e-05
5.61234e-05
6.41127e-05
7.52421e-05
8.33886e-05
7.95412e-05
6.18435e-05
4.11782e-05
3.1078e-05
3.83867e-05
8.1965e-05
0.000157313
0.00017299
0.000173504
0.000173431
0.000172355
0.000161784
0.000135882
0.000108034
8.15962e-05
5.77496e-05
3.2984e-05
8.02372e-06
3.23168e-06
7.18527e-06
2.52796e-05
9.45437e-05
1.03717e-05
5.69888e-06
3.1148e-05
9.12146e-05
0.000106592
8.96594e-05
5.70756e-05
3.6885e-05
3.06175e-05
3.29729e-05
3.96538e-05
4.72085e-05
5.20947e-05
5.07742e-05
4.41442e-05
3.80542e-05
3.8621e-05
5.38443e-05
9.2201e-05
0.000133083
0.000153643
0.000159758
0.000159094
0.000153446
0.000142679
0.000127047
0.000107763
8.62492e-05
6.28033e-05
3.46824e-05
9.10723e-06
3.87588e-06
7.88329e-06
2.76817e-05
9.23698e-05
1.05318e-05
6.10492e-06
3.13592e-05
9.23274e-05
0.000117186
0.000100341
6.76729e-05
4.03775e-05
2.66866e-05
2.22601e-05
2.30479e-05
2.66327e-05
3.10756e-05
3.46514e-05
3.73459e-05
4.16616e-05
5.1004e-05
6.63955e-05
8.37055e-05
9.82171e-05
0.000109172
0.000116636
0.000120361
0.000120059
0.000115599
0.000107013
9.46884e-05
7.91116e-05
5.99393e-05
3.40746e-05
8.91154e-06
3.75685e-06
8.35649e-06
3.02657e-05
8.87485e-05
1.06551e-05
6.1403e-06
3.33737e-05
0.000101536
0.000131373
0.000134315
0.000122041
9.03977e-05
5.83028e-05
3.93102e-05
2.964e-05
2.4765e-05
2.27757e-05
2.30351e-05
2.52385e-05
2.90674e-05
3.457e-05
4.22941e-05
5.17282e-05
6.06507e-05
6.82226e-05
7.50569e-05
8.09213e-05
8.46213e-05
8.51009e-05
8.19041e-05
7.5054e-05
6.48007e-05
5.12926e-05
3.31031e-05
1.06175e-05
3.28092e-06
7.52761e-06
2.75605e-05
9.21392e-05
1.06119e-05
5.81678e-06
2.78066e-05
8.24251e-05
0.000136124
0.000149971
0.000143046
0.000129671
0.00011383
9.23944e-05
7.0401e-05
5.48205e-05
4.49767e-05
3.8391e-05
3.34757e-05
2.94032e-05
2.6002e-05
2.38731e-05
2.44806e-05
2.96277e-05
3.86384e-05
4.59448e-05
5.05265e-05
5.4693e-05
5.82124e-05
5.93422e-05
5.69087e-05
5.09404e-05
4.17818e-05
2.70787e-05
8.79724e-06
3.15969e-06
6.17295e-06
2.45908e-05
9.69726e-05
1.0829e-05
6.11578e-06
2.5706e-05
7.00878e-05
0.000121803
0.000138038
0.000129665
0.000109088
8.8053e-05
7.47606e-05
6.96778e-05
7.06421e-05
7.58963e-05
8.19547e-05
8.22451e-05
7.4317e-05
6.22257e-05
4.95473e-05
3.79522e-05
2.82995e-05
2.17989e-05
2.10193e-05
3.02279e-05
3.76821e-05
4.10639e-05
4.42708e-05
4.30599e-05
3.71593e-05
2.85238e-05
1.56655e-05
3.45028e-06
3.17226e-06
6.37682e-06
2.31765e-05
0.000101428
1.09711e-05
7.11662e-06
3.35785e-05
0.000103467
0.000147803
0.00015413
0.000145134
0.000124491
9.67999e-05
7.19303e-05
5.56352e-05
4.73037e-05
4.59095e-05
5.31482e-05
7.3202e-05
0.000108482
0.000141952
0.000134471
9.65235e-05
6.25378e-05
3.8909e-05
2.47487e-05
1.76409e-05
1.67999e-05
2.40216e-05
2.7084e-05
2.72536e-05
2.54837e-05
1.90311e-05
5.3768e-06
3.00384e-07
2.75093e-06
8.25563e-06
3.10459e-05
9.73531e-05
1.14658e-05
7.1142e-06
3.36448e-05
0.00010564
0.00014813
0.000150717
0.000134152
0.000107872
8.55138e-05
7.44274e-05
7.24545e-05
7.23116e-05
6.80821e-05
6.20471e-05
5.94268e-05
6.38022e-05
7.71482e-05
9.73878e-05
0.000110778
9.57319e-05
5.92534e-05
3.30201e-05
2.03916e-05
1.48894e-05
1.44945e-05
1.79143e-05
1.46247e-05
1.03337e-05
3.97793e-06
1.91358e-06
2.37047e-06
3.35103e-06
1.03972e-05
3.87435e-05
8.62201e-05
1.1499e-05
6.95161e-06
3.07297e-05
9.15621e-05
0.000138541
0.000145885
0.000134631
0.00010885
7.79666e-05
5.71478e-05
5.02975e-05
5.62916e-05
7.4147e-05
9.531e-05
0.000101981
9.43867e-05
8.71035e-05
8.62328e-05
8.75153e-05
7.82606e-05
5.38955e-05
3.16717e-05
1.89264e-05
1.20436e-05
7.97215e-06
3.86957e-06
8.51065e-06
3.41007e-06
6.40687e-06
1.87536e-06
4.61981e-07
5.70487e-06
1.88022e-05
7.00374e-05
6.38943e-05
1.14777e-05
7.33779e-06
3.41036e-05
0.000103902
0.00014468
0.000148
0.000134729
0.00010995
8.2756e-05
6.2235e-05
5.03041e-05
4.6349e-05
5.12947e-05
6.78108e-05
9.64161e-05
0.000125973
0.000137
0.000123529
9.46247e-05
5.98291e-05
3.15124e-05
1.64118e-05
9.57147e-06
5.66027e-06
2.16648e-06
7.95198e-06
3.47347e-06
2.16842e-07
5.20974e-06
1.84177e-06
2.22619e-06
5.94707e-06
2.34088e-05
0.00010171
5.2213e-05
1.14125e-05
7.37283e-06
3.38927e-05
0.000101155
0.00014108
0.000146339
0.000133254
0.000105394
7.57788e-05
5.72808e-05
5.03299e-05
5.06896e-05
5.46365e-05
6.11391e-05
7.13423e-05
8.47314e-05
9.55399e-05
9.42529e-05
7.57338e-05
4.6592e-05
2.21762e-05
9.34717e-06
4.21215e-06
1.52472e-06
4.82391e-06
6.84345e-06
4.29223e-06
3.88335e-07
2.88177e-07
2.99901e-06
1.58169e-06
3.39146e-06
8.76039e-06
4.06177e-05
6.0783e-05
1.14568e-05
7.18012e-06
3.15304e-05
9.27454e-05
0.000138249
0.000147002
0.000139624
0.00012046
9.12413e-05
6.30098e-05
4.6498e-05
4.15848e-05
4.51987e-05
5.44627e-05
6.58582e-05
7.6066e-05
8.27511e-05
8.33621e-05
7.51316e-05
5.67006e-05
3.16665e-05
1.47312e-05
7.63351e-06
5.11708e-06
2.49025e-06
2.82733e-06
1.99686e-06
3.68852e-06
4.8449e-06
5.75064e-06
5.46583e-06
2.01788e-06
3.36074e-06
5.08288e-06
1.78438e-05
9.31006e-06
7.23857e-06
3.18868e-05
9.55649e-05
0.000140623
0.00014648
0.000134966
0.000113639
9.05212e-05
7.09521e-05
5.55821e-05
4.59803e-05
4.39329e-05
4.98211e-05
6.29174e-05
7.98442e-05
9.35077e-05
9.6894e-05
8.83606e-05
7.06841e-05
4.55893e-05
2.45214e-05
1.32039e-05
6.61744e-06
5.30262e-06
3.55251e-06
5.0977e-06
7.83852e-06
6.6824e-06
7.31314e-06
2.01759e-06
2.03348e-06
1.44926e-06
1.44168e-06
1.43946e-05
1.21641e-05
7.13352e-06
3.16411e-05
9.50295e-05
0.000140481
0.000146981
0.000133989
0.000108498
8.31633e-05
6.6938e-05
5.83383e-05
5.3108e-05
5.09088e-05
5.49037e-05
6.83924e-05
9.30745e-05
0.000123316
0.00014029
0.000128843
9.59741e-05
5.53811e-05
2.0858e-05
6.05571e-06
3.836e-06
5.07008e-06
3.43931e-06
5.46509e-06
3.95028e-07
4.48607e-06
9.16722e-06
5.56327e-06
4.75251e-06
1.1998e-05
3.4294e-05
0.00015561
1.41952e-05
7.39346e-06
3.42303e-05
0.000102626
0.000145891
0.000146219
0.000125173
9.6603e-05
7.55097e-05
6.48619e-05
6.09487e-05
6.00377e-05
6.09832e-05
6.67554e-05
8.41966e-05
0.000125288
0.000203671
0.000233754
0.000217396
0.000111365
3.99897e-05
9.50669e-06
6.07889e-06
4.27731e-06
2.49794e-06
7.99245e-06
1.83144e-05
3.72614e-05
6.22114e-05
5.83085e-05
3.93481e-05
3.74262e-05
6.41289e-05
0.000117102
5.22246e-05
1.2598e-05
7.8416e-06
3.91949e-05
0.000116259
0.000143913
0.00013017
9.92963e-05
7.25718e-05
5.96571e-05
5.84027e-05
6.37959e-05
6.9531e-05
7.28305e-05
7.72056e-05
8.79639e-05
0.000108148
0.000132017
0.000139984
0.000120014
8.28417e-05
4.40516e-05
1.52172e-05
1.21722e-06
3.17355e-06
6.37509e-06
1.40168e-05
2.92083e-05
5.85984e-05
9.32992e-05
0.000102279
0.00010782
0.000112573
0.000114503
9.59919e-05
3.73327e-05
1.02457e-05
8.26228e-06
4.37029e-05
0.00012458
0.000139589
0.00011654
8.50122e-05
6.35211e-05
5.42632e-05
5.46302e-05
6.24401e-05
7.34366e-05
8.12705e-05
8.45102e-05
8.71236e-05
9.17172e-05
9.65548e-05
9.74296e-05
9.16885e-05
8.05423e-05
6.67526e-05
5.14401e-05
3.51359e-05
1.99715e-05
8.34828e-06
3.93752e-06
7.98709e-06
1.81723e-05
3.47853e-05
4.34965e-05
4.36127e-05
5.55373e-05
8.59887e-05
7.15231e-05
3.38608e-05
5.02342e-06
8.34785e-06
4.46955e-05
0.000127718
0.00013472
0.000103316
7.34153e-05
5.81245e-05
5.45483e-05
5.89608e-05
6.79711e-05
7.77892e-05
8.5561e-05
9.02923e-05
9.26918e-05
9.35829e-05
9.25953e-05
8.89499e-05
8.28164e-05
7.51326e-05
6.71817e-05
5.9386e-05
5.21969e-05
4.7431e-05
4.16227e-05
3.20819e-05
2.40674e-05
2.41265e-05
2.6011e-05
7.40892e-06
2.78291e-06
6.61292e-06
1.75258e-05
3.32874e-05
2.13923e-05
2.37809e-07
8.22737e-06
4.3182e-05
0.000125886
0.000130834
9.64583e-05
6.89051e-05
5.64809e-05
5.37933e-05
5.95726e-05
7.44261e-05
9.5317e-05
0.000115203
0.000129566
0.000138585
0.000142654
0.000140542
0.000131912
0.000118919
0.000104974
9.16803e-05
7.93026e-05
7.55442e-05
9.49251e-05
0.000139659
8.80766e-05
3.73406e-05
1.14008e-05
1.60208e-05
3.42986e-05
4.97487e-05
4.01725e-06
2.74479e-06
1.43406e-06
5.25323e-06
1.13472e-05
8.10147e-06
4.23014e-05
0.000127497
0.000123331
8.04991e-05
5.94392e-05
5.576e-05
5.87525e-05
6.67066e-05
8.43668e-05
0.000114616
0.000154612
0.000203008
0.000265505
0.000305186
0.000294204
0.000280228
0.000262876
0.000241841
0.000220075
7.95605e-05
2.18683e-05
2.50591e-05
5.0072e-05
0.000105546
0.000127847
0.000109739
8.73035e-05
7.15697e-05
6.52486e-05
5.11631e-05
4.44651e-05
5.10645e-05
0.000111892
1.42816e-05
8.27574e-06
4.17141e-05
0.000127969
0.000104849
5.90243e-05
4.62594e-05
5.0176e-05
5.88626e-05
6.74732e-05
8.00671e-05
0.000101328
0.000128972
0.000154296
0.000169732
0.000173591
0.000168783
0.000158776
0.000145
0.000126833
0.000105116
8.02662e-05
4.64519e-05
2.92086e-05
3.16646e-05
4.56554e-05
6.88039e-05
9.82063e-05
0.000118236
0.00011263
9.7388e-05
8.63616e-05
7.49205e-05
8.92366e-05
7.52319e-05
1.12678e-05
8.64661e-06
4.44183e-05
0.000128247
7.51573e-05
3.9718e-05
3.65414e-05
4.86479e-05
6.70515e-05
8.54836e-05
0.000103651
0.00012415
0.000147204
0.000169734
0.000187906
0.000199188
0.000202895
0.000200098
0.000193136
0.000183948
0.000172317
0.00015619
0.00013206
9.84529e-05
6.93038e-05
6.19527e-05
8.08255e-05
0.000104891
7.17889e-05
2.51099e-05
1.71363e-05
2.09138e-05
1.77399e-05
2.64583e-05
7.73773e-05
1.09314e-05
9.05502e-06
4.81755e-05
0.000117887
4.86324e-05
2.63243e-05
3.09863e-05
5.26921e-05
8.11619e-05
0.000107444
0.000133641
0.000162832
0.000194462
0.000226435
0.000257583
0.000288701
0.000321784
0.000350392
0.000342622
0.000331987
0.000318231
0.00025767
0.000146102
6.26463e-05
1.75245e-05
1.7973e-06
4.23403e-06
2.18251e-05
5.76326e-05
8.50834e-05
8.54174e-05
7.56829e-05
7.42893e-05
0.000100727
5.75251e-05
1.1212e-05
9.40275e-06
4.98648e-05
0.000103275
3.8757e-05
2.03964e-05
2.53084e-05
4.66063e-05
7.68096e-05
0.000106197
0.000131246
0.000152995
0.000173325
0.00019306
0.000211736
0.000228143
0.000240841
0.000248469
0.000249901
0.000243287
0.00022561
0.000195098
0.000155073
0.000111999
7.07503e-05
3.66382e-05
1.8311e-05
1.72526e-05
2.78182e-05
4.36637e-05
6.56168e-05
9.2702e-05
0.000105415
8.07381e-05
3.36982e-05
5.12274e-06
9.48649e-06
4.78907e-05
9.80073e-05
4.14845e-05
1.94783e-05
1.87046e-05
3.11991e-05
5.41385e-05
8.25349e-05
0.000111156
0.000137236
0.000159767
0.000178384
0.00019302
0.000203753
0.000210698
0.000213857
0.000212923
0.000207276
0.00019663
0.000181463
0.000163092
0.00014263
0.000119856
9.47903e-05
7.16961e-05
5.38358e-05
4.09885e-05
3.2533e-05
3.44355e-05
6.00844e-05
0.000104081
6.59343e-05
3.17022e-05
3.26851e-06
9.41415e-06
4.31043e-05
9.97193e-05
6.88777e-05
2.92429e-05
1.49478e-05
1.37e-05
2.16009e-05
3.97143e-05
6.66923e-05
9.72373e-05
0.000126473
0.000151853
0.000172344
0.000187757
0.000198936
0.000207593
0.000215121
0.000221256
0.000223657
0.000218998
0.000206669
0.000191304
0.000174815
0.000143123
9.29662e-05
6.07176e-05
5.02367e-05
5.23497e-05
6.82076e-05
0.000116021
0.00014125
8.2043e-05
3.24065e-05
9.44611e-06
9.2326e-06
4.03285e-05
9.78346e-05
9.88076e-05
5.98913e-05
2.46328e-05
1.0108e-05
6.263e-06
1.124e-05
2.63474e-05
5.25607e-05
8.62867e-05
0.000121552
0.000153608
0.000179695
0.000200781
0.000222792
0.000252184
0.000290225
0.000331061
0.000364612
0.000380597
0.000364329
0.000288953
0.000147132
6.46809e-05
4.6644e-05
5.87463e-05
8.91944e-05
0.000120195
0.000109995
6.39298e-05
4.29501e-05
6.1722e-05
1.26862e-05
9.01034e-06
3.98015e-05
0.000100853
0.000115277
9.6495e-05
5.03269e-05
1.74755e-05
3.53217e-06
1.19989e-06
6.00796e-06
2.06634e-05
4.77038e-05
8.42709e-05
0.000124041
0.000155698
0.000169939
0.000176742
0.000199999
0.000255284
0.000332098
0.000377426
0.00034222
0.000235513
0.00012567
6.31065e-05
4.53829e-05
6.78322e-05
0.000122905
0.000160196
0.000128172
8.18606e-05
6.0813e-05
7.3455e-05
0.000102008
1.25649e-05
8.84144e-06
4.07221e-05
0.000106013
0.000126589
0.000121877
9.38173e-05
4.09351e-05
1.03373e-05
2.46424e-06
2.53955e-06
8.42489e-07
1.23009e-05
3.43042e-05
6.61091e-05
0.000105157
0.000140136
0.000160031
0.000177321
0.000216935
0.00029003
0.000355815
0.000336002
0.000235315
0.000128012
6.40854e-05
4.11855e-05
5.23499e-05
9.10388e-05
0.000130145
0.000128111
0.000105489
9.81436e-05
0.000107272
4.90592e-05
9.94042e-06
8.55392e-06
4.17951e-05
0.000110366
0.00013043
0.000130794
0.000122628
9.15052e-05
3.70714e-05
6.32539e-06
1.72175e-06
2.48041e-06
5.71663e-07
1.09026e-05
3.32939e-05
6.34271e-05
9.98064e-05
0.000132277
0.000150278
0.000160219
0.000177374
0.000206949
0.000231889
0.000219533
0.000165089
0.000103262
6.39458e-05
5.08522e-05
5.78294e-05
7.73733e-05
9.74432e-05
0.000107446
0.000111451
9.36938e-05
3.43196e-05
7.74717e-06
8.24579e-06
4.10666e-05
0.000106558
0.00012822
0.000131199
0.000125778
0.000109992
7.36639e-05
2.97025e-05
4.80154e-06
2.27375e-06
2.9232e-07
1.39046e-05
3.7243e-05
7.06331e-05
0.000110043
0.0001438
0.000165375
0.000179109
0.000193999
0.000212885
0.000228705
0.0002282
0.000202256
0.000156783
0.000110803
7.90946e-05
6.40946e-05
6.40038e-05
7.78573e-05
9.79307e-05
0.000107112
8.84042e-05
3.39334e-05
7.92232e-06
8.14063e-06
4.08626e-05
0.000108674
0.000133372
0.000138679
0.000140023
0.000138394
0.000125794
8.45548e-05
3.6042e-05
9.83371e-06
2.52804e-06
5.55441e-06
1.81775e-05
4.26653e-05
8.72809e-05
0.000126716
0.000130927
0.000124614
0.000130714
0.000158901
0.000206355
0.000246072
0.000249796
0.000220917
0.000176572
0.000132666
9.93358e-05
8.05574e-05
7.76981e-05
9.08223e-05
0.000109376
0.000103716
4.34963e-05
9.13659e-06
8.22607e-06
4.02061e-05
0.000109058
0.000140122
0.000140972
0.000134494
0.000133079
0.000142582
0.000157202
0.000149861
8.08652e-05
2.84388e-05
7.41667e-06
5.80756e-08
1.20183e-06
7.57467e-06
3.43076e-05
8.3511e-05
0.000130568
0.000134005
0.000125757
0.000135979
0.000171313
0.00021911
0.000247265
0.0002398
0.000206488
0.000163909
0.000126373
0.000102473
9.56662e-05
0.000105222
0.000113632
5.42896e-05
9.70623e-06
8.45862e-06
4.18247e-05
0.000111986
0.000147658
0.000153931
0.000145948
0.000127232
0.000108821
0.000103802
0.000118705
0.000148503
0.000162891
9.49658e-05
3.09048e-05
6.76214e-06
2.94003e-08
3.57778e-06
6.04075e-06
2.27794e-05
6.80365e-05
0.000123711
0.000153476
0.000167365
0.000186167
0.000210123
0.000225829
0.000222847
0.000201353
0.000168949
0.000136932
0.000116183
0.000112528
0.000119208
6.60672e-05
1.00748e-05
8.64275e-06
4.18626e-05
0.000112055
0.000150611
0.000161009
0.000163228
0.000160436
0.000148315
0.000123353
9.93152e-05
9.34446e-05
0.000114152
0.000156227
0.000168009
8.82533e-05
1.99828e-05
1.91713e-06
2.8199e-06
2.45472e-06
4.71712e-06
2.25534e-05
6.63763e-05
0.000126837
0.000186187
0.000223267
0.000234635
0.000227685
0.000207989
0.00018018
0.000151136
0.000129938
0.000123886
0.000129304
7.70514e-05
1.04977e-05
8.80187e-06
4.25423e-05
0.000112519
0.000146634
0.000152861
0.0001507
0.000147035
0.000146766
0.000149667
0.000145672
0.00012402
9.96196e-05
9.39976e-05
0.000118284
0.000173314
0.000132895
2.3073e-05
3.73842e-06
1.68827e-06
1.11106e-06
4.78617e-06
4.91465e-06
3.49141e-05
8.48947e-05
0.000163144
0.0002395
0.000259373
0.00024
0.000206073
0.000171199
0.000146083
0.000137527
0.000140674
7.92664e-05
1.0638e-05
8.80131e-06
4.27599e-05
0.000112745
0.000148085
0.000156359
0.000153914
0.000143863
0.000130942
0.000123932
0.000129883
0.000147389
0.000158668
0.000139959
0.000104541
7.82881e-05
6.16809e-05
3.24039e-05
5.34128e-06
1.81952e-06
3.72156e-06
2.12941e-06
4.39347e-07
2.36372e-06
2.13794e-05
5.48878e-05
0.00011129
0.000187112
0.000227977
0.000221934
0.000197599
0.000173574
0.000160094
0.000153145
7.51706e-05
1.0548e-05
8.66212e-06
4.24335e-05
0.000115484
0.000153072
0.000160637
0.000156679
0.000146316
0.00013347
0.000121246
0.000113526
0.000115828
0.000131623
0.000154949
0.000159442
0.000112022
4.69922e-05
1.38064e-05
2.08707e-06
1.54148e-06
2.16358e-06
4.6601e-06
8.46982e-07
2.52763e-06
7.17635e-06
1.14547e-05
3.5117e-05
7.69373e-05
0.000136105
0.000180607
0.000191356
0.000184117
0.000172824
0.000158119
7.25038e-05
1.06776e-05
8.53117e-06
4.10634e-05
0.000113825
0.000151451
0.000153915
0.000141118
0.000123948
0.000113234
0.000112327
0.000117653
0.000123403
0.000126964
0.000128453
0.000122911
9.70675e-05
5.02691e-05
1.49163e-05
3.58524e-06
6.47582e-06
1.85515e-06
4.57752e-06
1.52726e-06
1.74767e-06
6.70781e-06
4.86114e-06
7.2385e-06
2.9561e-05
7.00683e-05
0.000123372
0.000158779
0.000169253
0.000167218
0.000154991
7.02735e-05
1.11091e-05
8.55327e-06
4.0224e-05
0.000111684
0.000148069
0.000144285
0.0001229
0.000101175
9.04062e-05
9.12073e-05
0.000101534
0.000118861
0.000138031
0.000150661
0.00014732
0.000120257
7.46151e-05
3.21334e-05
6.45078e-06
7.05168e-06
6.18825e-06
1.01246e-05
1.8993e-05
2.47058e-05
2.18053e-05
1.23902e-05
5.82515e-06
1.06255e-05
3.05202e-05
7.16866e-05
0.000122629
0.000149794
0.00015783
0.000148621
6.31203e-05
1.12789e-05
8.75931e-06
4.08765e-05
0.000115122
0.000145929
0.000129273
9.93507e-05
8.15293e-05
7.96674e-05
8.83249e-05
0.000102468
0.000119505
0.000139018
0.000159795
0.000175769
0.000172935
0.000133378
7.07318e-05
2.69653e-05
5.61004e-06
1.859e-06
4.72272e-06
1.73471e-05
3.15776e-05
4.4588e-05
4.15951e-05
2.4411e-05
1.30086e-05
1.42214e-05
3.14437e-05
7.26434e-05
0.000122427
0.000144045
0.000135837
5.47298e-05
1.10965e-05
9.1177e-06
4.31865e-05
0.000121312
0.000137009
0.000102759
7.07565e-05
6.13217e-05
6.98986e-05
9.0732e-05
0.000117652
0.000144115
0.000166288
0.000184334
0.000199382
0.00020817
0.000197917
0.000149953
7.96508e-05
3.29368e-05
8.47982e-06
1.02611e-05
4.97891e-06
1.61227e-05
3.06571e-05
4.69448e-05
5.04215e-05
3.45201e-05
2.0252e-05
1.84985e-05
3.30384e-05
7.25004e-05
0.000117316
0.00012168
4.98807e-05
1.0923e-05
9.43493e-06
4.74287e-05
0.000125717
0.000115844
7.26552e-05
4.90562e-05
4.94243e-05
6.94964e-05
0.000105359
0.00014567
0.00017979
0.000205236
0.000223419
0.000236148
0.000243641
0.000241169
0.000216211
0.000158135
8.90846e-05
4.4607e-05
2.10977e-05
1.03752e-05
9.41179e-06
1.52105e-05
2.55521e-05
3.90352e-05
4.6926e-05
3.86552e-05
2.59307e-05
2.30888e-05
3.74235e-05
7.79472e-05
0.000111691
4.88933e-05
1.09141e-05
9.44673e-06
5.06745e-05
0.000119905
9.58111e-05
5.56317e-05
3.8718e-05
4.43781e-05
7.34942e-05
0.000124073
0.000175586
0.000212831
0.000237087
0.000253101
0.000263479
0.000268494
0.000265789
0.000249122
0.000210193
0.000150448
9.23779e-05
5.56373e-05
3.64951e-05
2.65792e-05
1.98712e-05
1.85074e-05
2.31897e-05
3.20425e-05
3.863e-05
3.43179e-05
2.59459e-05
2.80248e-05
5.44056e-05
0.000104533
4.83314e-05
1.08279e-05
9.1807e-06
4.98311e-05
0.00011502
9.7128e-05
5.88529e-05
3.80392e-05
3.78673e-05
5.89177e-05
0.000103352
0.000159493
0.000208532
0.000244238
0.000269076
0.000285992
0.00029607
0.000297841
0.000286743
0.000256528
0.000205919
0.000146903
9.93609e-05
7.15371e-05
5.75363e-05
4.65617e-05
3.35899e-05
2.52947e-05
2.44488e-05
2.82603e-05
3.0225e-05
2.63958e-05
2.66748e-05
4.73143e-05
0.000100086
4.70096e-05
1.05949e-05
8.85458e-06
4.4903e-05
0.000110453
0.000113568
8.24341e-05
4.68797e-05
3.05481e-05
3.26996e-05
5.41644e-05
9.78011e-05
0.000156847
0.000213973
0.00025886
0.000290747
0.000310941
0.000319292
0.000313335
0.000289557
0.000247844
0.000196243
0.000148462
0.000114811
9.59059e-05
8.25737e-05
6.39902e-05
4.35012e-05
3.0872e-05
2.72063e-05
2.76535e-05
2.57753e-05
2.55996e-05
4.26021e-05
9.51239e-05
4.70179e-05
1.05224e-05
8.70181e-06
4.04502e-05
0.000102876
0.000118318
0.000100735
6.48643e-05
3.53402e-05
2.2365e-05
2.4369e-05
4.38595e-05
8.7117e-05
0.000152218
0.000219763
0.000273671
0.000309617
0.000327249
0.000326535
0.000308329
0.000276265
0.000237568
0.000200689
0.000171508
0.00015033
0.000130582
0.000102811
6.82778e-05
4.06179e-05
2.70469e-05
2.43384e-05
2.61761e-05
2.9593e-05
4.75187e-05
9.88489e-05
4.69675e-05
1.04638e-05
8.8437e-06
3.94577e-05
0.00010277
0.000119765
0.000100342
7.10446e-05
4.67112e-05
2.90003e-05
1.84522e-05
2.00468e-05
4.01266e-05
8.64979e-05
0.000156882
0.000229251
0.000285942
0.000323236
0.000342453
0.000345507
0.000334396
0.000312304
0.000284268
0.000255544
0.00022807
0.000198173
0.000159265
0.000110674
6.32665e-05
3.19274e-05
1.94551e-05
2.00207e-05
3.10379e-05
6.05881e-05
0.000105748
4.3944e-05
1.00539e-05
9.14285e-06
4.15249e-05
0.000106637
0.000119083
9.35559e-05
5.93656e-05
3.96647e-05
3.30434e-05
2.59078e-05
1.76271e-05
2.36599e-05
5.23257e-05
0.000111586
0.000192172
0.000267353
0.000320849
0.000351637
0.000364435
0.000364136
0.000354523
0.000338403
0.000317622
0.000292433
0.000261137
0.000221194
0.000171449
0.000114977
6.30031e-05
3.02266e-05
1.85819e-05
2.39202e-05
5.37704e-05
0.00010152
4.29789e-05
9.70818e-06
9.24862e-06
4.39713e-05
0.000109967
0.000116907
8.98771e-05
5.3755e-05
3.03319e-05
2.20993e-05
2.45233e-05
2.50191e-05
2.70552e-05
4.81284e-05
9.7369e-05
0.000167663
0.000236257
0.000289317
0.000326665
0.000351844
0.000366632
0.000371438
0.000366801
0.000353773
0.000333305
0.000305703
0.000270755
0.00022821
0.000178034
0.00012185
6.90689e-05
3.55448e-05
2.57153e-05
3.9177e-05
8.80548e-05
4.87233e-05
9.96615e-06
9.07574e-06
4.40159e-05
0.000111546
0.000115279
8.55607e-05
5.21066e-05
2.90999e-05
1.6588e-05
1.49303e-05
2.51029e-05
4.13066e-05
6.91867e-05
0.000118304
0.000175034
0.000222556
0.000260386
0.000294812
0.00032812
0.000356971
0.000376041
0.000382124
0.000375467
0.000358358
0.000333212
0.000301628
0.000264273
0.000220871
0.000170366
0.000113996
6.38914e-05
3.73553e-05
3.82768e-05
7.8852e-05
5.96095e-05
1.06085e-05
9.03828e-06
4.33774e-05
0.000113007
0.000116635
8.41099e-05
5.20231e-05
3.13777e-05
1.72943e-05
1.05047e-05
1.78832e-05
4.29639e-05
8.89201e-05
0.000145725
0.000192691
0.000223685
0.000248511
0.000277978
0.000314582
0.000352457
0.000382126
0.000396534
0.00039415
0.000377608
0.000350678
0.000316329
0.000276194
0.000230718
0.00017987
0.000125723
7.7529e-05
4.95973e-05
5.04282e-05
9.53909e-05
6.43375e-05
1.09541e-05
9.25214e-06