/*--------------------------------*- C++ -*----------------------------------*\
| =========                 |                                                 |
| \\      /  F ield         | OpenFOAM: The Open Source CFD Toolbox           |
|  \\    /   O peration     | Version:  v2006                                 |
|   \\  /    A nd           | Website:  www.openfoam.com                      |
|    \\/     M anipulation  |                                                 |
\*---------------------------------------------------------------------------*/
FoamFile
{
    version     2.0;
    format      ascii;
    class       volVectorField;
    location    "92";
    object      U;
}
// * * * * * * * * * * * * * * * * * * * * * * * * * * * * * * * * * * * * * //

dimensions      [0 1 -1 0 0 0 0];


internalField   nonuniform List<vector> 
78750
(
(-0.354471 -0.186803 -0.113671)
(-0.307522 -0.171112 -0.113548)
(-0.298977 -0.143131 -0.108902)
(-0.253246 -0.112041 -0.105259)
(-0.205773 -0.0813509 -0.104047)
(-0.192889 -0.0702764 -0.103567)
(-0.176733 -0.056714 -0.104194)
(-0.162538 -0.0489196 -0.103826)
(-0.145147 -0.03839 -0.104001)
(-0.131551 -0.0315366 -0.103544)
(-0.118026 -0.0233983 -0.103462)
(-0.106126 -0.0170759 -0.103045)
(-0.0951843 -0.0106397 -0.102739)
(-0.0853825 -0.00487494 -0.102139)
(-0.0761426 0.000398293 -0.10132)
(-0.0678381 0.0052835 -0.100151)
(-0.0595433 0.00953387 -0.0987198)
(-0.0513636 0.0129401 -0.0961618)
(-0.0430059 0.0147142 -0.0906037)
(-0.0345783 0.0151173 -0.0826783)
(-0.0266155 0.0150144 -0.0737368)
(-0.0194967 0.0149199 -0.0650108)
(-0.0134417 0.0149314 -0.0574983)
(-0.00846016 0.0148942 -0.0518706)
(-0.00437163 0.0146926 -0.0481983)
(-0.000899712 0.0143399 -0.0460318)
(0.00215014 0.0139007 -0.0448305)
(0.00495355 0.0134462 -0.0441893)
(0.00764982 0.0130346 -0.0438389)
(0.0102553 0.0127537 -0.0435759)
(0.0127371 0.0127247 -0.0432278)
(0.015 0.0130626 -0.0426483)
(0.0162892 0.0139725 -0.0417644)
(0.0201316 0.0173376 -0.0413729)
(0.0137156 0.0820907 -0.0165551)
(0.045913 -0.233314 0.0849092)
(-0.0677939 -0.208307 0.0727769)
(-0.0309756 -0.234841 0.0540422)
(-0.0566556 -0.226028 0.0280912)
(-0.0630322 -0.17266 -0.00542416)
(-0.0693678 -0.139686 -0.0255629)
(-0.0770874 -0.112568 -0.0424997)
(-0.0820135 -0.0954485 -0.0502621)
(-0.0860633 -0.0803926 -0.0555886)
(-0.0872946 -0.0683852 -0.0584544)
(-0.0868319 -0.0577083 -0.0602151)
(-0.0846864 -0.0480629 -0.0612293)
(-0.0816039 -0.0394297 -0.0619513)
(-0.0777655 -0.0318735 -0.0626028)
(-0.0733373 -0.0254822 -0.0631918)
(-0.0683161 -0.0201637 -0.0637012)
(-0.0627614 -0.0158487 -0.0641147)
(-0.0568032 -0.0125087 -0.0643958)
(-0.0507168 -0.0100481 -0.0644998)
(-0.0447508 -0.00815742 -0.0644815)
(-0.0389875 -0.0065543 -0.0644295)
(-0.0334191 -0.00509991 -0.0644192)
(-0.0280026 -0.00376155 -0.0644999)
(-0.0227086 -0.0025416 -0.0646946)
(-0.0175341 -0.00140836 -0.0649965)
(-0.0124891 -0.000278928 -0.0653763)
(-0.00758884 0.000955987 -0.0657962)
(-0.0028596 0.00244233 -0.0661981)
(0.00168107 0.00437078 -0.0664927)
(0.00597241 0.00699891 -0.0665437)
(0.00975568 0.0106975 -0.0661546)
(0.0126738 0.0162523 -0.0649897)
(0.0145999 0.0271353 -0.0619096)
(0.0138312 0.070313 -0.0502158)
(0.00492975 0.218368 -0.0121041)
(-0.0127159 0.0432712 -0.0169988)
(-0.00741499 -0.0187684 0.0107352)
(-0.0211661 -0.0631053 0.0290435)
(-0.0234342 -0.0841808 0.0393935)
(-0.0277954 -0.08692 0.0429385)
(-0.0296386 -0.0627842 0.0346059)
(-0.0306191 -0.0290998 0.00841489)
(-0.0306826 -0.019421 -0.021327)
(-0.0315779 -0.0259537 -0.0448699)
(-0.0340593 -0.0379916 -0.0596285)
(-0.036984 -0.0471085 -0.0660346)
(-0.0392008 -0.0508959 -0.0684342)
(-0.0410877 -0.0492471 -0.0688404)
(-0.0426638 -0.0437971 -0.0678182)
(-0.0434112 -0.0384762 -0.0663445)
(-0.0432846 -0.0340345 -0.0650803)
(-0.0423888 -0.0299443 -0.0642438)
(-0.0408474 -0.0260476 -0.0638858)
(-0.0388047 -0.0224438 -0.0639758)
(-0.0363478 -0.0191724 -0.0644542)
(-0.0335127 -0.0161786 -0.0652383)
(-0.03029 -0.0134051 -0.0662606)
(-0.0266648 -0.0108233 -0.0674729)
(-0.0226792 -0.00839897 -0.0688045)
(-0.0184286 -0.00603525 -0.0701752)
(-0.0140307 -0.00355272 -0.0715212)
(-0.00959056 -0.000705556 -0.0728047)
(-0.00518441 0.00281078 -0.0739891)
(-0.000918717 0.00739956 -0.0750219)
(0.00305141 0.0136839 -0.0758141)
(0.0065791 0.022915 -0.076238)
(0.00953166 0.0386305 -0.07598)
(0.0113343 0.0735904 -0.0735251)
(0.0101044 0.16614 -0.0600235)
(0.00217451 0.299202 -0.0191972)
(0.00354474 -0.128293 0.0369002)
(0.00515014 -0.180835 0.0507225)
(0.00166597 -0.189505 0.0507369)
(-0.00269519 -0.186029 0.0492468)
(-0.00778657 -0.17398 0.0503861)
(-0.0105444 -0.158159 0.0563122)
(-0.00948861 -0.137571 0.064326)
(-0.00557095 -0.109786 0.0687267)
(-0.00076038 -0.0784745 0.0663688)
(0.00351839 -0.0505838 0.0568844)
(0.00676765 -0.0342896 0.0431189)
(0.00890258 -0.0305117 0.030327)
(0.0101502 -0.0333665 0.0200723)
(0.0105569 -0.0386997 0.011768)
(0.0101834 -0.0441281 0.00508822)
(0.00906168 -0.0482452 -0.00033707)
(0.00721459 -0.0501512 -0.0049674)
(0.00483374 -0.0495266 -0.00923167)
(0.00229721 -0.0469003 -0.0134461)
(-2.05453e-05 -0.0432694 -0.0177265)
(-0.00188455 -0.0393716 -0.0220312)
(-0.00314245 -0.0354663 -0.0262934)
(-0.00366694 -0.0315268 -0.0304756)
(-0.00341994 -0.0274412 -0.034561)
(-0.00247957 -0.0231037 -0.0385472)
(-0.00102797 -0.0184217 -0.0424178)
(0.000702433 -0.0132716 -0.0461259)
(0.00252413 -0.00744006 -0.0495939)
(0.00437905 -0.000583272 -0.0527356)
(0.00617271 0.00790941 -0.0554515)
(0.00769672 0.0195767 -0.0576249)
(0.00867793 0.0393447 -0.0590389)
(0.00815653 0.0865459 -0.0586192)
(0.0060338 0.21028 -0.0495384)
(0.000263292 0.34173 -0.0159505)
(-0.00749043 -0.0631329 0.0505402)
(-0.0104792 -0.0639257 0.0580288)
(-0.00974156 -0.0628699 0.0554285)
(-0.00610905 -0.0650677 0.0505048)
(0.000178742 -0.0728654 0.0458309)
(0.00811639 -0.0845601 0.0414322)
(0.0169007 -0.0974851 0.0375764)
(0.0260632 -0.108084 0.0350681)
(0.035602 -0.113812 0.0342869)
(0.0454509 -0.113218 0.0350734)
(0.0550859 -0.105582 0.0367927)
(0.0636988 -0.0916131 0.0385133)
(0.0706175 -0.0734386 0.0395559)
(0.0756043 -0.0535459 0.0396839)
(0.0787264 -0.0339836 0.0389553)
(0.0801682 -0.0162295 0.0375534)
(0.0801634 -0.00145425 0.0356466)
(0.078975 0.00940631 0.0333204)
(0.0768384 0.0159818 0.0305719)
(0.0739015 0.0186108 0.027298)
(0.0702959 0.0181229 0.0233261)
(0.0659315 0.0154948 0.0182932)
(0.0604858 0.0114582 0.0116996)
(0.0538978 0.00707363 0.00359755)
(0.0466997 0.00403139 -0.00521211)
(0.0395496 0.00367135 -0.0140111)
(0.0329297 0.00644848 -0.022525)
(0.0272224 0.0121486 -0.0307396)
(0.0225457 0.020781 -0.0387142)
(0.0188069 0.0332729 -0.0465481)
(0.0158925 0.052664 -0.0542836)
(0.0136038 0.0876705 -0.0611604)
(0.0107885 0.161327 -0.0621721)
(0.00663662 0.293343 -0.0478406)
(0.000358277 0.386412 -0.0149306)
(-8.87455e-05 -0.0808158 0.0376363)
(0.0107667 -0.203299 0.0487615)
(0.0254101 -0.262773 0.0473433)
(0.0403317 -0.289999 0.0444785)
(0.055412 -0.300779 0.041037)
(0.0700588 -0.300934 0.0370805)
(0.0832811 -0.293367 0.0327466)
(0.0945262 -0.280248 0.0282285)
(0.10376 -0.263514 0.0239102)
(0.111173 -0.244818 0.0202534)
(0.117028 -0.22551 0.0176319)
(0.121637 -0.206484 0.0162211)
(0.125306 -0.18808 0.0159176)
(0.128189 -0.17012 0.0163939)
(0.130406 -0.152281 0.0173264)
(0.132002 -0.134251 0.0185138)
(0.132878 -0.115781 0.019927)
(0.132796 -0.0966727 0.021695)
(0.131357 -0.0766248 0.0240819)
(0.127962 -0.0554064 0.0272862)
(0.122255 -0.0336532 0.0313177)
(0.113351 -0.0111442 0.0362882)
(0.101291 0.0132656 0.0425944)
(0.0876225 0.0363653 0.0480799)
(0.0739333 0.0535092 0.0497071)
(0.0617483 0.064129 0.0478426)
(0.0525722 0.0680419 0.042734)
(0.0454571 0.0679274 0.0348409)
(0.0389282 0.0672275 0.0247126)
(0.0326201 0.0691178 0.0127263)
(0.0265968 0.0773352 -0.001395)
(0.0206635 0.101807 -0.0194009)
(0.0151329 0.176315 -0.0393895)
(0.00988813 0.328147 -0.0412224)
(0.00188697 0.420314 -0.0138059)
(0.00480259 -0.154454 0.0225677)
(0.0202352 -0.2577 0.022005)
(0.0293737 -0.287627 0.0168403)
(0.0364293 -0.29133 0.01116)
(0.0422717 -0.282675 0.00480483)
(0.0470124 -0.265844 -0.0029867)
(0.0504975 -0.24392 -0.012156)
(0.0528954 -0.219863 -0.0217836)
(0.0545486 -0.195754 -0.0306762)
(0.0556705 -0.172635 -0.0378581)
(0.0562961 -0.150851 -0.042781)
(0.0563517 -0.130428 -0.0453527)
(0.0557579 -0.111313 -0.0458249)
(0.0545227 -0.0933532 -0.0446075)
(0.0527763 -0.0761583 -0.0420799)
(0.0507357 -0.0590038 -0.0384199)
(0.0485707 -0.0407906 -0.0334396)
(0.0463084 -0.0199306 -0.0263389)
(0.0439241 0.00568087 -0.0154977)
(0.0411056 0.0373676 0.0009574)
(0.0377092 0.0717939 0.022583)
(0.0332403 0.101178 0.0441875)
(0.0284067 0.118967 0.0588605)
(0.0243757 0.126136 0.0654726)
(0.0199958 0.120261 0.0632425)
(0.0153265 0.0940118 0.0434516)
(0.0123033 0.0747218 0.0200397)
(0.0104045 0.0727549 0.00531707)
(0.00922672 0.0812166 -0.00322656)
(0.0086287 0.0967156 -0.00963448)
(0.00842205 0.119889 -0.0162266)
(0.00734656 0.161287 -0.0246515)
(0.00390873 0.255136 -0.0349726)
(0.0014069 0.403236 -0.0346899)
(-0.0017549 0.460236 -0.0129818)
(0.00479071 -0.258156 0.0262558)
(0.0105833 -0.366238 0.0345314)
(0.0134389 -0.38739 0.0354873)
(0.0149523 -0.384591 0.0338853)
(0.0163177 -0.369591 0.029416)
(0.0175053 -0.344615 0.0211114)
(0.0181996 -0.314232 0.00966359)
(0.0186107 -0.282899 -0.00294569)
(0.0190844 -0.252719 -0.014973)
(0.0197156 -0.224246 -0.0253418)
(0.0204215 -0.19755 -0.033465)
(0.0210865 -0.172717 -0.0391668)
(0.021598 -0.15002 -0.0426887)
(0.0218961 -0.129776 -0.0445607)
(0.0219889 -0.111938 -0.0453257)
(0.0219614 -0.0958268 -0.0452919)
(0.0219501 -0.0802819 -0.044453)
(0.0221563 -0.0638646 -0.0424533)
(0.0229063 -0.0449682 -0.0384787)
(0.0246603 -0.0222954 -0.031333)
(0.0274902 0.00396889 -0.020238)
(0.0308129 0.0315411 -0.0059045)
(0.0338936 0.0571366 0.0093501)
(0.0361356 0.0785383 0.0234153)
(0.0366999 0.0943887 0.035027)
(0.0348601 0.10625 0.0454376)
(0.030009 0.114845 0.0573215)
(0.0230556 0.111893 0.064107)
(0.0171726 0.100031 0.0541992)
(0.0139268 0.0985555 0.0317201)
(0.0123845 0.119222 0.00596322)
(0.0113646 0.174673 -0.0182185)
(0.00816988 0.289356 -0.0334766)
(0.00443262 0.439835 -0.0325039)
(2.93414e-05 0.475293 -0.0133655)
(-0.00293188 -0.278386 0.0411821)
(-0.0090936 -0.341921 0.0406326)
(-0.0122192 -0.346086 0.037888)
(-0.0138341 -0.33407 0.035245)
(-0.0134328 -0.3076 0.0306997)
(-0.0103077 -0.273295 0.0240919)
(-0.00565519 -0.23983 0.0163145)
(-0.000690835 -0.210109 0.00765264)
(0.00386225 -0.183765 -0.00188293)
(0.00756641 -0.16009 -0.0119386)
(0.0102407 -0.138755 -0.0217028)
(0.0119364 -0.119632 -0.0302094)
(0.0128479 -0.102594 -0.0367965)
(0.0132291 -0.0874049 -0.041354)
(0.0132896 -0.0736596 -0.0442026)
(0.0131507 -0.0608225 -0.0457786)
(0.01289 -0.0482968 -0.0463806)
(0.0125948 -0.0355079 -0.0460708)
(0.0123853 -0.0218957 -0.0446439)
(0.0124017 -0.00686396 -0.0416189)
(0.0128485 0.0100567 -0.0362869)
(0.0139729 0.0287956 -0.0280235)
(0.0156707 0.0485544 -0.0166913)
(0.0174494 0.0681348 -0.00258877)
(0.0187668 0.0859372 0.0138014)
(0.0192813 0.0992453 0.0309947)
(0.0186313 0.104717 0.0441907)
(0.017241 0.104259 0.0494991)
(0.0154549 0.102939 0.0493091)
(0.0127934 0.105293 0.0438111)
(0.00931394 0.124206 0.0279536)
(0.00722331 0.188106 -0.000326845)
(0.0047832 0.3249 -0.0244749)
(0.00240256 0.476255 -0.0269187)
(-0.000398565 0.491111 -0.0113048)
(-0.0069668 -0.229392 0.0357447)
(-0.0134697 -0.368818 0.0208596)
(-0.0153845 -0.409595 0.0164855)
(-0.0140532 -0.423274 0.018956)
(-0.0101607 -0.423783 0.0255278)
(-0.00351674 -0.410422 0.0347523)
(0.00555949 -0.382037 0.0440531)
(0.0157994 -0.342461 0.0506975)
(0.0259136 -0.29705 0.0529789)
(0.0349973 -0.250087 0.0500181)
(0.0423572 -0.205081 0.0417484)
(0.0474581 -0.165053 0.02926)
(0.049967 -0.1322 0.0147412)
(0.0500787 -0.106836 0.000782504)
(0.0485219 -0.0870957 -0.010807)
(0.0461601 -0.0706092 -0.0195302)
(0.043649 -0.0556647 -0.0256966)
(0.0413319 -0.0412293 -0.0298061)
(0.0393987 -0.0266329 -0.0322418)
(0.0380262 -0.0113789 -0.0331435)
(0.0371345 0.00494906 -0.0323668)
(0.0364964 0.0227504 -0.0294049)
(0.0359625 0.0419962 -0.0235427)
(0.0354062 0.0619262 -0.0141757)
(0.0346464 0.0809841 -0.00128711)
(0.0334161 0.0969216 0.0138584)
(0.0313498 0.107611 0.0280532)
(0.0284347 0.11365 0.0382228)
(0.0249727 0.118195 0.0440821)
(0.0209828 0.125781 0.0457978)
(0.0162258 0.148763 0.0382953)
(0.0118 0.221343 0.0122092)
(0.00719066 0.370377 -0.0163955)
(0.00385051 0.511557 -0.0218428)
(0.000479423 0.508606 -0.00970477)
(-0.00343935 -0.226137 0.0150332)
(-0.007843 -0.376018 -0.0118485)
(-0.00892829 -0.431781 -0.0224831)
(-0.0081044 -0.452637 -0.0256304)
(-0.0058554 -0.458511 -0.0256544)
(-0.00195556 -0.453978 -0.022831)
(0.00412942 -0.438446 -0.0163213)
(0.0127297 -0.410527 -0.00599228)
(0.0234175 -0.371017 0.00703287)
(0.0353104 -0.322426 0.0209987)
(0.0474535 -0.267124 0.0337561)
(0.0587846 -0.20681 0.0428399)
(0.0676467 -0.145388 0.0451604)
(0.0719167 -0.0930158 0.0385738)
(0.0712383 -0.056684 0.0259289)
(0.0673935 -0.0338206 0.0122712)
(0.0622333 -0.0187537 0.000598744)
(0.0569733 -0.0073999 -0.00823283)
(0.0522081 0.00261954 -0.0143485)
(0.0479858 0.0127693 -0.0180905)
(0.0444117 0.0240117 -0.0196498)
(0.0415678 0.037133 -0.0188584)
(0.0392809 0.0525687 -0.0151877)
(0.0373001 0.0699139 -0.00803839)
(0.035334 0.0877197 0.00273989)
(0.0331399 0.103837 0.0163095)
(0.0305588 0.116184 0.0302148)
(0.0276325 0.124564 0.0414909)
(0.0245715 0.13111 0.0488505)
(0.0213425 0.139882 0.0523433)
(0.0175621 0.163137 0.0482033)
(0.0132662 0.242525 0.0248349)
(0.00786823 0.408639 -0.00630555)
(0.00424398 0.545967 -0.0150048)
(0.00107578 0.529508 -0.00715568)
(-0.00745938 -0.199636 0.00489196)
(-0.0108764 -0.382008 -0.0215776)
(-0.0101649 -0.462387 -0.0327897)
(-0.00740938 -0.495514 -0.0375349)
(-0.0036357 -0.509246 -0.0405755)
(0.000836707 -0.511963 -0.0431707)
(0.00596965 -0.505046 -0.0454889)
(0.0119539 -0.487403 -0.0467584)
(0.0190897 -0.45792 -0.0455607)
(0.0275567 -0.417698 -0.0404322)
(0.0374157 -0.368413 -0.0303801)
(0.0485737 -0.307928 -0.0144334)
(0.0606199 -0.227824 0.00720212)
(0.0708594 -0.13388 0.0249024)
(0.0750961 -0.0541394 0.0291247)
(0.0735038 -0.00434751 0.0226135)
(0.0690299 0.0217871 0.0126885)
(0.0635067 0.0359045 0.00341273)
(0.0577925 0.0450841 -0.00399155)
(0.0524536 0.0527136 -0.00917362)
(0.0476855 0.0606466 -0.0119755)
(0.043472 0.0702152 -0.0120517)
(0.0397329 0.0826102 -0.00838927)
(0.0364269 0.0981617 0.000599819)
(0.0333774 0.114391 0.0147563)
(0.0302593 0.127151 0.0304062)
(0.0270321 0.13494 0.0434539)
(0.0238591 0.139597 0.0523372)
(0.0208923 0.14424 0.0574222)
(0.0179389 0.153869 0.0589038)
(0.0148705 0.185506 0.0522091)
(0.011557 0.281074 0.0284066)
(0.00657291 0.459265 -0.00186243)
(0.00348218 0.579472 -0.0107373)
(0.00109599 0.549803 -0.00627054)
(0.000453978 -0.18399 -0.0120927)
(0.013272 -0.404818 -0.0326494)
(0.0232297 -0.50932 -0.0381125)
(0.0310352 -0.549308 -0.0395711)
(0.0371402 -0.562428 -0.0406583)
(0.0422288 -0.562265 -0.0424518)
(0.0461584 -0.551794 -0.0456845)
(0.048596 -0.53157 -0.0508356)
(0.0495415 -0.502579 -0.0574148)
(0.0495102 -0.467792 -0.0634411)
(0.0493602 -0.430149 -0.0659023)
(0.0496402 -0.386925 -0.0606623)
(0.0511871 -0.320461 -0.039347)
(0.0553604 -0.213548 -0.00720905)
(0.0577553 -0.096214 0.0147588)
(0.0551977 -0.00863501 0.0196096)
(0.0503764 0.0408072 0.0141955)
(0.0462157 0.064465 0.00640684)
(0.0429754 0.0761719 -0.000311136)
(0.0400852 0.083364 -0.00536288)
(0.0373753 0.0891202 -0.00862313)
(0.0349954 0.0949511 -0.00985804)
(0.0329837 0.101976 -0.00862057)
(0.0312157 0.111309 -0.00357141)
(0.0296558 0.123079 0.0072409)
(0.0280037 0.134432 0.0227555)
(0.0258072 0.142179 0.0381466)
(0.0231281 0.146529 0.0497202)
(0.0203932 0.15022 0.0569097)
(0.0175417 0.158247 0.0602548)
(0.0143847 0.190353 0.0555837)
(0.0111389 0.297672 0.0333149)
(0.00631535 0.494674 0.0031932)
(0.00350375 0.606781 -0.00641999)
(0.00151347 0.567604 -0.00508403)
(0.00766129 -0.281409 -0.0214597)
(0.0265026 -0.491674 -0.0234506)
(0.0393204 -0.568527 -0.0204506)
(0.0464087 -0.591408 -0.0192447)
(0.0505994 -0.592949 -0.0199982)
(0.0533208 -0.581754 -0.0229153)
(0.0543371 -0.557806 -0.0284215)
(0.0531804 -0.520103 -0.0363242)
(0.0497436 -0.47099 -0.0458953)
(0.0440939 -0.41858 -0.0558174)
(0.0365961 -0.370741 -0.0629906)
(0.0268542 -0.324691 -0.062314)
(0.014321 -0.261396 -0.0444382)
(0.00377129 -0.158191 -0.0147167)
(-0.00420906 -0.0416275 0.00359579)
(-0.0085568 0.0390364 0.00338793)
(-0.00782341 0.0729034 -0.00309716)
(-0.00582369 0.0866261 -0.00756221)
(-0.00347994 0.0953135 -0.0109461)
(-0.000936571 0.10179 -0.0137089)
(0.00144253 0.107177 -0.0152857)
(0.00362532 0.112499 -0.015297)
(0.00555741 0.118476 -0.0135038)
(0.00733653 0.125802 -0.00928931)
(0.00909772 0.13511 -0.000679015)
(0.0106154 0.145065 0.0134624)
(0.011466 0.152468 0.0298551)
(0.0115291 0.156449 0.0438568)
(0.011157 0.159437 0.0532714)
(0.0103195 0.167268 0.0583289)
(0.00879591 0.206009 0.0541893)
(0.00672652 0.330078 0.032276)
(0.00283261 0.536029 0.0043288)
(0.00110018 0.63105 -0.00428479)
(0.000718726 0.583011 -0.0050378)
(0.00643687 -0.377982 -0.0132886)
(0.0129992 -0.561985 -0.00848754)
(0.0156888 -0.600608 -0.00707679)
(0.0166121 -0.604923 -0.00771962)
(0.0159908 -0.595214 -0.0105647)
(0.013483 -0.57077 -0.0171892)
(0.00856123 -0.529584 -0.0271279)
(0.00172987 -0.474933 -0.0355485)
(-0.00553219 -0.411395 -0.0383757)
(-0.012397 -0.342922 -0.0362125)
(-0.0194871 -0.272064 -0.0296662)
(-0.0285374 -0.194515 -0.0164756)
(-0.0398171 -0.107001 -0.00167149)
(-0.0491729 -0.0293268 -0.000930361)
(-0.0522024 0.0157442 -0.00825413)
(-0.0498407 0.0372008 -0.0124012)
(-0.0453162 0.0509875 -0.0148425)
(-0.0396233 0.0618711 -0.0167517)
(-0.0335655 0.0711994 -0.0182005)
(-0.0277425 0.0795012 -0.0190119)
(-0.0222875 0.0872537 -0.0189845)
(-0.01724 0.0949316 -0.0179252)
(-0.0126249 0.102986 -0.0155204)
(-0.00838055 0.111856 -0.0111023)
(-0.00444742 0.121754 -0.00363207)
(-0.000891755 0.131909 0.00766141)
(0.00206458 0.140472 0.0216245)
(0.00422322 0.146443 0.0351793)
(0.00566034 0.151465 0.0458152)
(0.00641457 0.161906 0.0530744)
(0.00609408 0.209426 0.0512816)
(0.00437431 0.354917 0.0305213)
(0.000940599 0.570418 0.00458549)
(-0.000113223 0.647213 -0.00298754)
(0.000363931 0.591431 -0.00491475)
(0.00116918 -0.392972 -0.00656434)
(0.00241506 -0.549734 -0.00185231)
(0.000841179 -0.576117 -0.00290012)
(-0.00128163 -0.574998 -0.00637713)
(-0.00486493 -0.555331 -0.0148717)
(-0.011007 -0.510651 -0.0326747)
(-0.019577 -0.448419 -0.0560167)
(-0.0285859 -0.388125 -0.071013)
(-0.0359871 -0.335919 -0.070094)
(-0.0409069 -0.28398 -0.0565203)
(-0.0429667 -0.225265 -0.0362643)
(-0.0416064 -0.159971 -0.0153856)
(-0.0370649 -0.0949283 -0.00018106)
(-0.0314177 -0.0419613 0.00398182)
(-0.0266217 -0.00974315 6.17148e-05)
(-0.0233582 0.00922764 -0.00461333)
(-0.0212199 0.0231876 -0.00814536)
(-0.0193011 0.0350485 -0.0106841)
(-0.0171571 0.0457247 -0.0124489)
(-0.0146952 0.0557017 -0.0134743)
(-0.0119862 0.065327 -0.0136837)
(-0.00914033 0.074887 -0.0129072)
(-0.006262 0.0846695 -0.0108485)
(-0.00343088 0.0949426 -0.00702799)
(-0.000718721 0.105745 -0.000818412)
(0.00177426 0.116513 0.00819152)
(0.00389866 0.126104 0.0194583)
(0.00550277 0.13389 0.0312147)
(0.0065672 0.141408 0.0416498)
(0.00707893 0.156481 0.0500027)
(0.0065148 0.218167 0.049517)
(0.00443747 0.386235 0.0288195)
(0.00121526 0.600093 0.00449327)
(0.000112031 0.660451 -0.00235339)
(0.000419468 0.597043 -0.00444284)
(0.00414235 -0.408047 0.00988645)
(0.0112457 -0.549871 0.0237121)
(0.0130699 -0.569944 0.0267004)
(0.0124252 -0.56154 0.0251838)
(0.00996289 -0.528999 0.0166528)
(0.00492285 -0.470718 -0.00434366)
(-0.000862823 -0.403214 -0.0369784)
(-0.00562901 -0.346677 -0.0700984)
(-0.00907789 -0.309877 -0.0911747)
(-0.0109722 -0.286253 -0.0989369)
(-0.0111129 -0.265065 -0.0965762)
(-0.00880426 -0.235986 -0.0837535)
(-0.00327784 -0.18842 -0.0582486)
(0.00462226 -0.118252 -0.0240563)
(0.0125291 -0.0423924 0.00329063)
(0.0170789 0.00999213 0.0125848)
(0.0171545 0.0341864 0.0104757)
(0.015358 0.0454519 0.00622859)
(0.0133345 0.0530108 0.00254731)
(0.0115962 0.0596433 -0.000262009)
(0.0104057 0.0662681 -0.00203457)
(0.00970419 0.0733369 -0.00264476)
(0.00942929 0.0811555 -0.00189458)
(0.00952448 0.089912 0.000559159)
(0.00988495 0.0995622 0.0051769)
(0.0103697 0.109605 0.0123535)
(0.0107646 0.119029 0.0217759)
(0.0108737 0.127133 0.0320406)
(0.0106406 0.135358 0.0415607)
(0.0100496 0.152453 0.0494639)
(0.00868066 0.223044 0.049591)
(0.00585418 0.409473 0.03023)
(0.0025657 0.625323 0.00696214)
(0.0011487 0.67627 0.000155762)
(0.000842333 0.604342 -0.00219766)
(0.00288876 -0.491554 0.0334907)
(0.000956837 -0.588978 0.0391966)
(-0.00152265 -0.58725 0.0376858)
(-0.00555569 -0.559236 0.0323468)
(-0.0101725 -0.505812 0.020269)
(-0.0129042 -0.443983 0.00262237)
(-0.0130858 -0.384737 -0.0189789)
(-0.0113151 -0.328819 -0.0445463)
(-0.00901349 -0.27964 -0.0698414)
(-0.00737713 -0.242376 -0.0881837)
(-0.0065168 -0.216902 -0.0980677)
(-0.00589337 -0.198401 -0.101539)
(-0.00478854 -0.180399 -0.0991315)
(-0.00200885 -0.153218 -0.0865376)
(0.00335046 -0.101766 -0.0564621)
(0.00922022 -0.0289056 -0.0191794)
(0.0119611 0.032097 0.00297716)
(0.0117595 0.0618212 0.00831639)
(0.0113093 0.0733386 0.00810527)
(0.0108877 0.0800841 0.00687762)
(0.0104068 0.0854859 0.00549304)
(0.0100075 0.0902727 0.00460111)
(0.009767 0.0949996 0.00465429)
(0.00972565 0.100073 0.00592361)
(0.00987937 0.105973 0.00877583)
(0.0102004 0.112996 0.0139066)
(0.0105599 0.120664 0.0216862)
(0.0107367 0.12822 0.0315334)
(0.0105804 0.136309 0.0419994)
(0.00987029 0.15347 0.0516758)
(0.00851529 0.233197 0.0517188)
(0.00601671 0.435019 0.0312024)
(0.00276993 0.646623 0.00869221)
(0.00134655 0.692131 0.00194785)
(0.000890901 0.613318 -0.000482695)
(-0.0113887 -0.423344 0.0349958)
(-0.0243513 -0.511272 0.0266198)
(-0.0324713 -0.506938 0.0230647)
(-0.0381353 -0.477909 0.0186518)
(-0.0386549 -0.437565 0.0131262)
(-0.0337981 -0.397096 0.00768714)
(-0.0274668 -0.353937 0.000265016)
(-0.0214683 -0.309925 -0.0114591)
(-0.0162478 -0.26916 -0.0262079)
(-0.0117643 -0.232855 -0.0406274)
(-0.00828195 -0.201299 -0.0518541)
(-0.00611941 -0.173177 -0.0588797)
(-0.00538334 -0.145534 -0.0615492)
(-0.00606814 -0.114227 -0.0585994)
(-0.00773658 -0.0730348 -0.0460338)
(-0.00844998 -0.0173072 -0.0219686)
(-0.00742481 0.0339185 -0.00195866)
(-0.00578043 0.0589945 0.00467204)
(-0.0042303 0.0701358 0.00619785)
(-0.00270523 0.077675 0.00650729)
(-0.00115654 0.0842472 0.0064376)
(0.000259551 0.0902108 0.00644416)
(0.00151416 0.0957567 0.00691511)
(0.00262281 0.10117 0.00816569)
(0.00364562 0.106854 0.0105695)
(0.00462259 0.113073 0.0146154)
(0.00553219 0.119754 0.0207253)
(0.00629699 0.126783 0.0289545)
(0.00679996 0.135185 0.0388456)
(0.00673884 0.153975 0.0499236)
(0.00551407 0.240561 0.0537007)
(0.00388797 0.460324 0.0344298)
(0.00159223 0.671055 0.011964)
(0.000527597 0.711694 0.00495804)
(0.000367524 0.623726 0.00212559)
(-0.00966283 -0.327241 0.0136349)
(-0.0170182 -0.494762 0.0043512)
(-0.0198465 -0.530851 0.0118325)
(-0.01898 -0.544274 0.0239401)
(-0.0163621 -0.543044 0.0401637)
(-0.0119427 -0.518144 0.0584773)
(-0.00643241 -0.46289 0.0725454)
(-0.00153032 -0.390559 0.0724395)
(0.00134302 -0.324271 0.0571588)
(0.00233859 -0.271019 0.0351291)
(0.00219556 -0.226853 0.0137856)
(0.00114895 -0.186824 -0.00300456)
(-0.000810161 -0.146741 -0.0135958)
(-0.00363862 -0.103048 -0.0169243)
(-0.0068495 -0.054845 -0.0123143)
(-0.00867619 -0.0074437 -0.0020783)
(-0.00804502 0.0280169 0.00658505)
(-0.00643705 0.047375 0.0101084)
(-0.00469055 0.0586877 0.0112068)
(-0.00291397 0.0670579 0.0114928)
(-0.00119744 0.0743447 0.011505)
(0.000398899 0.0811042 0.0115488)
(0.0018497 0.0875568 0.0119023)
(0.00314729 0.0938806 0.0128559)
(0.00429112 0.100256 0.0147277)
(0.00527353 0.10684 0.0178373)
(0.00608674 0.113759 0.0224957)
(0.00667199 0.121344 0.0289054)
(0.0069737 0.131507 0.0372396)
(0.00691763 0.155555 0.0477843)
(0.00583668 0.253434 0.0529001)
(0.00336134 0.479705 0.036102)
(0.00118244 0.684874 0.0153733)
(0.000127415 0.721479 0.00857346)
(-3.7119e-05 0.627487 0.00558531)
(-0.000671292 -0.338419 0.00740852)
(-0.00366537 -0.51824 -0.00534471)
(-0.00930864 -0.563194 -0.00772901)
(-0.0148721 -0.573582 -0.00485518)
(-0.0211301 -0.56889 0.00334021)
(-0.0273455 -0.548471 0.0205344)
(-0.0313535 -0.503033 0.0486198)
(-0.0309222 -0.430216 0.0763463)
(-0.0276154 -0.348905 0.087512)
(-0.0241255 -0.275931 0.0814628)
(-0.0215124 -0.215023 0.0662535)
(-0.0200183 -0.163597 0.0492298)
(-0.0194251 -0.117684 0.0350973)
(-0.0191382 -0.0748152 0.0261843)
(-0.0182799 -0.0360749 0.0225873)
(-0.0163439 -0.00499163 0.0222719)
(-0.0136056 0.0170676 0.0227442)
(-0.0104868 0.032503 0.0229569)
(-0.00736585 0.0443417 0.0227947)
(-0.00456099 0.0543206 0.0224549)
(-0.00215508 0.063239 0.0221116)
(-0.000115496 0.0714924 0.0219251)
(0.00159966 0.0793296 0.0220633)
(0.00301911 0.0869433 0.0227137)
(0.00415664 0.0944968 0.0240923)
(0.00499944 0.102136 0.0264278)
(0.00550951 0.110008 0.0299579)
(0.00562993 0.118493 0.0348944)
(0.00534707 0.129527 0.0415958)
(0.00466634 0.154667 0.0510203)
(0.00440762 0.260047 0.0580079)
(0.00373799 0.505987 0.0417906)
(0.00238105 0.705915 0.0225861)
(0.0017384 0.738445 0.0158475)
(0.00105176 0.634318 0.0118493)
(-0.00381811 -0.3255 0.00943547)
(-0.0139702 -0.472088 -0.013214)
(-0.0229915 -0.500864 -0.0261214)
(-0.0305115 -0.50579 -0.0332535)
(-0.0374724 -0.501863 -0.0364141)
(-0.0429563 -0.492322 -0.034184)
(-0.0460245 -0.476376 -0.0237886)
(-0.0451674 -0.446838 -0.00264723)
(-0.0395588 -0.397491 0.0244372)
(-0.0309311 -0.333969 0.0488305)
(-0.0212302 -0.266095 0.0661627)
(-0.0118298 -0.201669 0.0754151)
(-0.00346172 -0.14557 0.077593)
(0.00373431 -0.0996853 0.0747852)
(0.0097433 -0.0630916 0.0693462)
(0.0145037 -0.0337876 0.063085)
(0.0179156 -0.0104527 0.0569494)
(0.0194863 0.00796244 0.0515063)
(0.0196543 0.0229057 0.0472219)
(0.0191663 0.0357778 0.0439425)
(0.0184957 0.0473084 0.0414858)
(0.0178484 0.0578141 0.0397022)
(0.0172516 0.06756 0.0385404)
(0.0166684 0.0768193 0.0380354)
(0.0160744 0.0858435 0.0382686)
(0.0154445 0.0948992 0.0393284)
(0.014729 0.10432 0.0413148)
(0.0138463 0.114705 0.0443268)
(0.0127755 0.127754 0.0485169)
(0.0119611 0.151309 0.0545654)
(0.0103197 0.239116 0.0609281)
(0.00976693 0.487704 0.0491177)
(0.00820665 0.701793 0.0287346)
(0.00626345 0.741685 0.0215192)
(0.00350635 0.641305 0.0170287)
(-0.00428916 -0.287284 0.00178941)
(-0.00396736 -0.458534 -0.0081759)
(-0.0017497 -0.514861 -0.0106719)
(0.00146119 -0.536856 -0.012839)
(0.00541435 -0.545957 -0.016269)
(0.00967144 -0.546757 -0.022062)
(0.0137107 -0.540148 -0.0305806)
(0.0172761 -0.526195 -0.0402895)
(0.0207172 -0.502315 -0.0465781)
(0.0249829 -0.463983 -0.0442332)
(0.0305633 -0.411297 -0.0320963)
(0.0373806 -0.349256 -0.0126831)
(0.0449721 -0.283585 0.0108617)
(0.0526415 -0.218826 0.0355187)
(0.0597169 -0.157712 0.0584268)
(0.0656781 -0.101581 0.0771093)
(0.0701401 -0.051593 0.0895489)
(0.0726702 -0.00999623 0.0943307)
(0.0732587 0.0207161 0.0920492)
(0.0710121 0.0408081 0.0849089)
(0.0660643 0.0534881 0.0762196)
(0.0596486 0.063162 0.0689437)
(0.0531796 0.0720173 0.0639829)
(0.0475077 0.0804183 0.0608636)
(0.042735 0.0884579 0.0589525)
(0.0387137 0.0964272 0.0579451)
(0.0352766 0.104789 0.0577979)
(0.0322927 0.114236 0.0585427)
(0.0295331 0.126625 0.0603349)
(0.0277311 0.152617 0.064072)
(0.0234342 0.25011 0.0639116)
(0.0176316 0.493224 0.056905)
(0.0138823 0.731903 0.0398493)
(0.0101099 0.781481 0.0320238)
(0.00545203 0.681354 0.0250878)
(0.00413148 -0.320797 -0.00475059)
(0.0178572 -0.519169 -0.00682855)
(0.0285316 -0.588441 -0.00673179)
(0.0359965 -0.611393 -0.00638635)
(0.0418665 -0.615817 -0.00606614)
(0.0467616 -0.608653 -0.00581661)
(0.0505669 -0.590526 -0.0061493)
(0.0531562 -0.560541 -0.00879503)
(0.0542904 -0.520038 -0.0166958)
(0.0539331 -0.473689 -0.0313875)
(0.0526723 -0.425498 -0.0506505)
(0.0514165 -0.377023 -0.0691485)
(0.0509872 -0.328897 -0.0805626)
(0.0519939 -0.281443 -0.0805714)
(0.0547952 -0.234436 -0.0684637)
(0.0594084 -0.187227 -0.0462001)
(0.0654604 -0.13869 -0.0166398)
(0.0722021 -0.0875427 0.0171813)
(0.0783801 -0.033385 0.0517055)
(0.0827657 0.0215156 0.0818493)
(0.0841532 0.0671516 0.0999248)
(0.0814357 0.0931111 0.101906)
(0.0756805 0.102929 0.0942807)
(0.0684881 0.105641 0.085167)
(0.0615146 0.107248 0.0787485)
(0.0554236 0.11003 0.075391)
(0.0502205 0.114431 0.0740559)
(0.0458816 0.120788 0.0738175)
(0.0422634 0.130157 0.0742209)
(0.0384364 0.156509 0.0755196)
(0.0342039 0.281285 0.0660176)
(0.023791 0.508629 0.0526561)
(0.0150028 0.74683 0.0387227)
(0.00932692 0.804086 0.0314387)
(0.00479044 0.712493 0.0234673)
(0.00517918 -0.402876 -0.00991063)
(0.0116787 -0.583425 -0.0162951)
(0.0166538 -0.624212 -0.0201222)
(0.0200115 -0.632466 -0.0228355)
(0.0226875 -0.629189 -0.0252883)
(0.0249122 -0.617785 -0.0275454)
(0.0267508 -0.59809 -0.0291104)
(0.0282786 -0.567819 -0.0288849)
(0.0294132 -0.523626 -0.0254712)
(0.0299098 -0.46523 -0.0195693)
(0.0296764 -0.398314 -0.0163574)
(0.029069 -0.331332 -0.022278)
(0.0285266 -0.272403 -0.0376491)
(0.0282749 -0.226858 -0.0551114)
(0.0284723 -0.194272 -0.0676207)
(0.0293208 -0.169494 -0.0734002)
(0.0312007 -0.146587 -0.072597)
(0.0348293 -0.12068 -0.0636332)
(0.0406684 -0.0882999 -0.0441773)
(0.0481779 -0.0462888 -0.013271)
(0.0563082 0.00803888 0.0283725)
(0.0618138 0.0652201 0.0687698)
(0.0621939 0.106969 0.0921031)
(0.0587698 0.127295 0.0969577)
(0.0538203 0.133552 0.0925618)
(0.0487785 0.133525 0.0865741)
(0.0444243 0.132283 0.0827063)
(0.0408234 0.132483 0.0814278)
(0.0378973 0.136159 0.0822639)
(0.0325186 0.172515 0.0830476)
(0.0289949 0.342923 0.0699046)
(0.0182925 0.608064 0.0478462)
(0.0097298 0.822362 0.0327309)
(0.00385599 0.86602 0.0248113)
(0.00141026 0.75196 0.0162138)
(-0.00102742 -0.410328 -0.00677274)
(-0.000772587 -0.591738 -0.00572329)
(0.00189674 -0.632746 -0.00535566)
(0.00516636 -0.642771 -0.00631114)
(0.00895035 -0.640757 -0.00845892)
(0.0129398 -0.629084 -0.0121948)
(0.0168209 -0.606491 -0.0181908)