/*--------------------------------*- C++ -*----------------------------------*\
| =========                 |                                                 |
| \\      /  F ield         | OpenFOAM: The Open Source CFD Toolbox           |
|  \\    /   O peration     | Version:  v2006                                 |
|   \\  /    A nd           | Website:  www.openfoam.com                      |
|    \\/     M anipulation  |                                                 |
\*---------------------------------------------------------------------------*/
FoamFile
{
    version     2.0;
    format      ascii;
    class       volScalarField;
    location    "80";
    object      k;
}
// * * * * * * * * * * * * * * * * * * * * * * * * * * * * * * * * * * * * * //

dimensions      [0 2 -2 0 0 0 0];


internalField   nonuniform List<scalar> 
78750
(
0.67972
0.171513
0.0616351
0.00263778
0.000119503
0.0024307
0.00133141
0.00196893
0.00149759
0.00163575
0.00157444
0.00149349
0.00147505
0.0014085
0.00136022
0.00130677
0.00125817
0.00121668
0.00118547
0.00116528
0.00115397
0.00114802
0.00114564
0.00114173
0.00113613
0.0011287
0.00111883
0.0011054
0.00108683
0.00106195
0.00102638
0.000969244
0.000871654
0.000664846
0.000224443
0.00808116
0.0037424
0.00357209
0.00405039
0.00442357
0.00416567
0.00417527
0.00408041
0.00404877
0.00399067
0.00392158
0.00383879
0.00373709
0.00362187
0.00349289
0.00335232
0.00320365
0.00305358
0.00291105
0.00278421
0.00267688
0.00258731
0.00251427
0.00245084
0.00239337
0.00233921
0.00228624
0.00223304
0.00217738
0.00210902
0.00200963
0.00187453
0.00169668
0.00148593
0.00143719
5.59567e-05
0.00148018
0.00206347
0.00228245
0.00251041
0.00270935
0.00286778
0.00302808
0.00322386
0.00346139
0.00370319
0.00391423
0.00407791
0.00418838
0.00424477
0.00425457
0.00422668
0.00417003
0.00409348
0.00400551
0.00391359
0.003823
0.00373998
0.00366689
0.00360367
0.00354757
0.00349028
0.00340769
0.00323179
0.00287464
0.00245757
0.00205632
0.00156835
0.00121564
0.00174748
0.000713274
0.00124736
0.00139513
0.00140357
0.00134649
0.00126714
0.00120011
0.00115418
0.00113837
0.00117646
0.00129374
0.00150156
0.00177763
0.00208122
0.00237404
0.00264349
0.00288642
0.00310071
0.00328659
0.00344548
0.00357958
0.00369169
0.00378516
0.00386375
0.00393175
0.00399457
0.00405919
0.00413159
0.00421938
0.00432743
0.00431358
0.0039825
0.00342154
0.00251194
0.00144046
0.000413583
0.00186032
0.00241348
0.00264099
0.00271525
0.00268959
0.00257713
0.00238732
0.0021337
0.00182743
0.00149978
0.0012583
0.00115221
0.00115409
0.00121891
0.0013175
0.00143386
0.00155773
0.00168397
0.00181016
0.00193538
0.0020596
0.00218334
0.00230824
0.00243789
0.0025718
0.00269947
0.00286437
0.00313753
0.00331071
0.00252699
0.00165288
0.00157351
0.00194588
0.00244118
0.000716645
0.00245286
0.00311824
0.00332541
0.00336186
0.00332065
0.00321875
0.00304565
0.0027858
0.00241195
0.00194074
0.0016828
0.00169393
0.00177998
0.00187349
0.00196351
0.0020444
0.00211261
0.00216769
0.00221148
0.00224653
0.00227554
0.00230098
0.00232556
0.00235249
0.00238379
0.00241281
0.00246155
0.00265255
0.00282583
0.0025896
0.00192102
0.00142964
0.00177766
0.00328559
0.0011329
0.00258306
0.00304564
0.00312058
0.00306168
0.00292239
0.00268894
0.00234059
0.00188859
0.00131518
0.000574741
0.000216316
0.000534763
0.000870001
0.00113546
0.00136433
0.00155162
0.00170495
0.00183067
0.00193445
0.00202034
0.00209157
0.00215104
0.00220112
0.00224321
0.00227828
0.00230974
0.00235333
0.00240752
0.00237025
0.00215284
0.00181714
0.0016073
0.00193438
0.00348429
0.00161511
0.00299805
0.0034047
0.00344981
0.0033643
0.00317271
0.0028439
0.00239696
0.00193225
0.00151603
0.00118459
0.00099607
0.00101505
0.00112893
0.00126834
0.00140974
0.00154497
0.00166818
0.00177506
0.00186433
0.00193748
0.00199889
0.00205424
0.00210797
0.00216248
0.00221885
0.00227631
0.00232318
0.00232171
0.00223552
0.00208461
0.00190843
0.0017758
0.0019484
0.0030816
0.00195376
0.00326255
0.00357143
0.00360888
0.00353206
0.00334518
0.00302788
0.00261336
0.00220337
0.00186921
0.00159362
0.00130931
0.0010555
0.000951666
0.000989847
0.001104
0.00125043
0.00140459
0.00154852
0.00167092
0.00176792
0.00184226
0.00190098
0.00195017
0.00199643
0.00204686
0.00210765
0.00217353
0.00221978
0.0022183
0.00216763
0.00208505
0.00202585
0.00220316
0.00314625
0.00198209
0.00340928
0.00389823
0.00404935
0.00407931
0.00403909
0.0039479
0.00383047
0.00369436
0.00349339
0.00313428
0.00255785
0.00186179
0.00128552
0.000979551
0.000897457
0.000936092
0.00104327
0.00119188
0.00135549
0.0015112
0.00164445
0.00175043
0.00183265
0.00189516
0.00194573
0.00199438
0.00205168
0.00211556
0.00216446
0.00217448
0.00213441
0.00208635
0.0023008
0.00332398
0.00245672
0.00345785
0.00369785
0.00366634
0.00349319
0.00315541
0.00266095
0.00216357
0.00188234
0.00185277
0.00188278
0.00175141
0.00143263
0.00113741
0.000970091
0.000899102
0.000899898
0.000942507
0.00101265
0.0011097
0.00122681
0.00135551
0.00148833
0.00161566
0.00172244
0.00180445
0.00186798
0.00192702
0.00199686
0.0020839
0.00216668
0.00221889
0.00230747
0.00266834
0.00389014
0.00345325
0.00423423
0.00433907
0.00428959
0.00411231
0.00379105
0.00335353
0.00287083
0.00240894
0.00201192
0.0016968
0.00145182
0.00126297
0.00113363
0.00106296
0.00103611
0.0010392
0.00106014
0.00108849
0.00112103
0.00116071
0.00121119
0.00127699
0.00136275
0.0014714
0.00159078
0.00169754
0.00178501
0.0018669
0.00196498
0.00208307
0.00220284
0.00246085
0.00297842
0.00439961
0.00267162
0.00373531
0.00402483
0.00416203
0.00424956
0.00429584
0.0042764
0.0041471
0.00386725
0.00343295
0.00290061
0.00236857
0.00192214
0.00159903
0.00139488
0.00127956
0.00122207
0.00120239
0.00120556
0.00122048
0.00124043
0.0012608
0.0012774
0.0012932
0.001322
0.0013829
0.00148714
0.00161573
0.00175279
0.00190534
0.00210281
0.00234348
0.0027495
0.00340936
0.00508365
0.00198614
0.00344994
0.00405471
0.00436545
0.00457396
0.00473263
0.00485241
0.00493171
0.00495543
0.00488774
0.00467411
0.00426908
0.00368883
0.00304145
0.00247326
0.00206339
0.00179533
0.00162461
0.00152108
0.00146537
0.00144043
0.0014317
0.00142754
0.00141925
0.0013976
0.00136769
0.00135436
0.00140071
0.00152324
0.00172226
0.00201459
0.00240707
0.00293351
0.00367174
0.00543205
0.00212527
0.00352814
0.00407675
0.00429449
0.00439574
0.00443993
0.00444539
0.00442539
0.00439271
0.00435512
0.00430437
0.00420025
0.00397307
0.00358872
0.00312211
0.00269327
0.00235295
0.00209274
0.00189774
0.00175847
0.00166614
0.00161142
0.00158351
0.00156984
0.00155914
0.0015383
0.00148958
0.00142504
0.00141695
0.00154743
0.00188219
0.00246967
0.00314782
0.00391741
0.00565237
0.00285284
0.00394748
0.0043781
0.00459511
0.00473031
0.00481386
0.00484873
0.00483154
0.00475818
0.00462933
0.00445201
0.00423199
0.00395858
0.0036074
0.00319918
0.00282068
0.00252856
0.00230965
0.00213627
0.00199608
0.00188757
0.00180836
0.00175277
0.00171509
0.00169109
0.00167624
0.00165928
0.00161107
0.00151831
0.0014696
0.00163168
0.0021688
0.00304184
0.00389924
0.00562051
0.00295785
0.00394557
0.00435491
0.00456662
0.00470094
0.00478731
0.00482923
0.0048213
0.00475379
0.00461979
0.00442028
0.00416275
0.00385535
0.00350605
0.0031393
0.00280899
0.002554
0.00236668
0.0022209
0.00209875
0.00199565
0.00191266
0.00184887
0.00180122
0.00176784
0.00174907
0.00174387
0.00173903
0.00169596
0.00159202
0.00156231
0.00187306
0.00276527
0.00374681
0.00572977
0.00282298
0.00395129
0.00445971
0.00471771
0.00487639
0.00498476
0.00505778
0.00510071
0.00511336
0.0050891
0.00501473
0.00487486
0.00465721
0.00435392
0.00396349
0.00351071
0.00306421
0.0026987
0.00243607
0.00224979
0.00210906
0.00199824
0.00191117
0.0018449
0.00179726
0.00176746
0.00175675
0.00176463
0.00177259
0.00172214
0.00161325
0.00168431
0.00249467
0.0036507
0.00605046
0.00289363
0.00408114
0.00457042
0.00479031
0.0049065
0.00496638
0.00498259
0.00496297
0.00491867
0.00486442
0.00481241
0.0047642
0.00470847
0.00462449
0.00448316
0.00424589
0.00388692
0.00345082
0.0030482
0.00273798
0.00249625
0.0022934
0.00212318
0.0019887
0.00188892
0.00181766
0.00177245
0.00175558
0.00176006
0.00174465
0.00168239
0.00180524
0.00268955
0.00396956
0.00657131
0.00329302
0.00438292
0.00482597
0.00500535
0.00508269
0.00510834
0.00510056
0.00507262
0.0050331
0.00498774
0.00494217
0.00489972
0.00485743
0.00480462
0.00472189
0.00457532
0.00431142
0.00389427
0.00340264
0.00299696
0.00270784
0.00247588
0.00227507
0.00211066
0.0019845
0.00188912
0.0018174
0.00177448
0.00176214
0.00175379
0.00173288
0.00196902
0.00293924
0.00426504
0.00682767
0.00468302
0.0051515
0.00515321
0.00509211
0.00499642
0.00486602
0.00472655
0.0045921
0.00445754
0.00432173
0.00419401
0.00408628
0.00400192
0.00393403
0.00386958
0.00378845
0.00365822
0.00344747
0.00318587
0.00295258
0.00275433
0.00257083
0.00240035
0.00224923
0.00212135
0.00201123
0.00190987
0.00183346
0.00179884
0.00179304
0.0018366
0.00220419
0.00317326
0.00441148
0.00668657
0.00540424
0.005152
0.00502152
0.00492657
0.00480997
0.00469774
0.00464285
0.00462574
0.00460574
0.00456423
0.00449332
0.00438907
0.00425326
0.00409345
0.00391626
0.00372137
0.0035042
0.00326785
0.00303715
0.00284527
0.00269669
0.00256986
0.0024517
0.00234227
0.00224407
0.00214818
0.00204578
0.0019531
0.00189321
0.00186757
0.00190783
0.00226999
0.00323235
0.00435029
0.00630708
0.00511146
0.00496909
0.00488184
0.00478004
0.00461881
0.00443778
0.00429595
0.00419375
0.00411308
0.00403971
0.00396406
0.00387949
0.00378069
0.00366333
0.00352592
0.00337245
0.00321363
0.00306293
0.00292814
0.00280953
0.00270384
0.00260581
0.00251404
0.00243053
0.00235622
0.00227953
0.00219142
0.00210537
0.00203795
0.00199357
0.00200521
0.00229434
0.0032366
0.00427287
0.00608866
0.00454494
0.00490984
0.00499782
0.00501739
0.00498762
0.00490072
0.00477337
0.00463441
0.0045031
0.00438328
0.00426732
0.0041435
0.00400159
0.00383557
0.00364492
0.00343561
0.00322146
0.00302289
0.0028573
0.00272771
0.0026259
0.0025409
0.00246688
0.0024035
0.00234926
0.00229785
0.00224465
0.00219592
0.00215858
0.00212469
0.00211639
0.00232592
0.00321164
0.00420621
0.00597025
0.00391163
0.00477174
0.00499895
0.00507611
0.00508608
0.00502581
0.00488125
0.00466484
0.00442027
0.00419259
0.00400331
0.00384803
0.0037103
0.00357424
0.00343019
0.00327631
0.00311823
0.00296589
0.00282849
0.00270753
0.00260037
0.00250653
0.0024271
0.00236261
0.00231247
0.00226981
0.00223243
0.0022093
0.002202
0.00219833
0.00222877
0.00245346
0.00327199
0.00423229
0.00598732
0.00378188
0.0048569
0.00520779
0.00536511
0.00545132
0.00548089
0.00543834
0.00529552
0.00505178
0.00475654
0.00447144
0.00423095
0.00403366
0.00385916
0.00368688
0.00350437
0.00330956
0.00311175
0.00292748
0.00276894
0.00263306
0.00251464
0.00241454
0.00233473
0.00227377
0.00222632
0.00219575
0.00219599
0.00221716
0.00222913
0.0022822
0.0025504
0.00331873
0.00423043
0.00592612
0.00378884
0.00471202
0.00502044
0.00515988
0.00524152
0.00528398
0.00528459
0.00522744
0.00508081
0.00482667
0.00449799
0.0041633
0.00388101
0.0036678
0.00350579
0.00336989
0.00324304
0.00311519
0.00297892
0.00283407
0.00268817
0.00254914
0.00242448
0.00232081
0.00223841
0.00217262
0.0021343
0.00215436
0.00222331
0.00227899
0.00235768
0.00267254
0.00337793
0.004217
0.0058768
0.00388567
0.00484652
0.00519087
0.00534262
0.00542898
0.00547965
0.00550036
0.00549025
0.00543984
0.0053185
0.00508711
0.00474784
0.00436621
0.00402638
0.00376289
0.00355841
0.00338502
0.00322375
0.003066
0.00290972
0.00275156
0.00259273
0.00244259
0.00231076
0.00220016
0.00210663
0.00204383
0.00205848
0.00215938
0.00225973
0.00233657
0.00263766
0.00332591
0.00413274
0.00579431
0.00412091
0.00500163
0.00526735
0.00535787
0.00538375
0.00536568
0.0053058
0.00520957
0.0051002
0.00499895
0.00488278
0.00469212
0.00438992
0.00403561
0.00372916
0.0035005
0.00333047
0.00319616
0.00306815
0.00292693
0.00277102
0.0026065
0.00244242
0.00228979
0.00215622
0.00203441
0.00194402
0.00197222
0.00214648
0.00234242
0.00245728
0.00268362
0.00328238
0.00405419
0.00574674
0.00475894
0.0052982
0.00547634
0.00554571
0.00556767
0.0055472
0.00547334
0.00533488
0.00514763
0.00496237
0.00480534
0.0046427
0.00441453
0.00410568
0.00380139
0.00356691
0.00339462
0.00326403
0.00314575
0.00301629
0.00286818
0.00270504
0.00253346
0.00236324
0.00220728
0.00205989
0.00191995
0.00187476
0.00203932
0.00230771
0.00249872
0.00269874
0.00320521
0.0039499
0.00564735
0.00511957
0.00532568
0.0053928
0.00541122
0.00539591
0.00533532
0.00520909
0.00501037
0.00476829
0.00453792
0.0043574
0.00420833
0.00404018
0.00382115
0.00359265
0.00341954
0.00330261
0.00321067
0.00311444
0.00299955
0.00286651
0.0027178
0.00255829
0.00239564
0.00224032
0.0020715
0.00187055
0.00175098
0.00190859
0.00229556
0.00261968
0.00285941
0.00326618
0.0039331
0.00553057
0.00556028
0.00556801
0.00560419
0.00561086
0.0055814
0.00549364
0.00531928
0.00505612
0.00474786
0.00445219
0.00421317
0.00403648
0.00389249
0.00375108
0.00360976
0.00348676
0.00338532
0.00329582
0.0032063
0.00310511
0.00298679
0.00285369
0.00270961
0.00256022
0.00241314
0.00225439
0.00205744
0.00184963
0.00179894
0.00209472
0.00252827
0.00286199
0.00324589
0.0038587
0.005418
0.00508331
0.0053328
0.00546753
0.0055162
0.00550652
0.00542272
0.00523759
0.00495327
0.00462165
0.0042991
0.0040252
0.00382288
0.00368978
0.00360353
0.00353819
0.00347603
0.00341071
0.00333862
0.00325667
0.00316241
0.00305427
0.00293362
0.00280535
0.00267328
0.00253199
0.00236659
0.00216195
0.00192739
0.0017701
0.00191295
0.00238812
0.00284382
0.00325229
0.00384752
0.00545492
0.00525937
0.00564857
0.00577475
0.00580937
0.00578896
0.00569757
0.00550395
0.00520072
0.0048395
0.0044845
0.0041763
0.00393911
0.00377642
0.0036705
0.00359721
0.00353599
0.00347619
0.00341194
0.00333881
0.00325226
0.00315066
0.0030367
0.0029151
0.0027885
0.00265343
0.00249959
0.00231122
0.00208148
0.00186326
0.00181113
0.00213597
0.00268095
0.00318734
0.0038507
0.00566775
0.00524538
0.00551883
0.00563901
0.00568501
0.00567746
0.00559485
0.00540142
0.00509246
0.00472917
0.00437903
0.00407651
0.00384699
0.00370539
0.00363384
0.00359379
0.00356034
0.00352285
0.00347385
0.00340869
0.00332689
0.00322907
0.00311733
0.00299565
0.00287043
0.00273852
0.0025833
0.00238224
0.00213335
0.00192748
0.00186097
0.00203851
0.00255961
0.00315613
0.00393592
0.0059849
0.00558925
0.00574928
0.00583686
0.00586705
0.0058453
0.00574184
0.00551351
0.00516075
0.00476608
0.00440771
0.00410514
0.00386283
0.00369897
0.00361718
0.00358352
0.00356253
0.00353751
0.00350056
0.00344712
0.00337579
0.00328642
0.00318036
0.00306076
0.00293307
0.00280166
0.00264678
0.00242418
0.00212842
0.00190938
0.00191617
0.00207722
0.00254536
0.00319843
0.00405885
0.0061091
0.00564881
0.00563266
0.00568925
0.00571318
0.00568623
0.00556634
0.00530239
0.00490485
0.00448088
0.0041323
0.00388317
0.00371558
0.00361691
0.00357729
0.0035663
0.0035584
0.00354256
0.00351396
0.00346949
0.00340725
0.00332649
0.00322781
0.00311346
0.00298751
0.0028549
0.00269048
0.00243674
0.00209755
0.00186294
0.00196819
0.0022402
0.00266241
0.00325842
0.00404961
0.00576929
0.00578077
0.00573367
0.00578359
0.00580462
0.005776
0.00565375
0.00538538
0.00497469
0.0045133
0.00410319
0.00379963
0.00361566
0.0035367
0.00352697
0.00353826
0.00354443
0.00353954
0.00352143
0.0034875
0.00343591
0.00336569
0.0032769
0.00317086
0.00305058
0.00291952
0.00275135
0.0024877
0.00212724
0.00183189
0.00190813
0.00230799
0.00274179
0.00321565
0.0038355
0.00515084
0.00561983
0.00554167
0.00558802
0.00561147
0.00558512
0.00546089
0.00518959
0.00479276
0.00437196
0.00400411
0.00371658
0.00353162
0.00346041
0.00346919
0.00349851
0.00351867
0.00352613
0.0035206
0.00349973
0.00346173
0.0034055
0.00333083
0.0032386
0.0031312
0.00300965
0.00285222
0.0026135
0.00227666
0.0019264
0.00182576
0.00216651
0.0026359
0.0030205
0.00350857
0.00462992
0.00567302
0.00560723
0.00566384
0.00569714
0.00568006
0.00556116
0.0052821
0.00484901
0.00437512
0.00397186
0.00366849
0.00347081
0.00339148
0.00340558
0.00344844
0.00348245
0.00350295
0.00351098
0.00350489
0.00348264
0.00344293
0.00338536
0.00331057
0.00322048
0.00311506
0.00297998
0.0027864
0.00250891
0.00216371
0.00189778
0.00199058
0.00241899
0.00280206
0.00325856
0.00437535
0.00523439
0.00531862
0.00543211
0.00550294
0.00552696
0.00546295
0.00525466
0.00488469
0.00443091
0.00401011
0.00367628
0.00344079
0.00332265
0.00331873
0.00336866
0.00341766
0.00345285
0.00347594
0.0034866
0.00348218
0.00346102
0.00342252
0.00336718
0.00329657
0.0032099
0.00309804
0.00294387
0.00272709
0.00243432
0.00211278
0.00196772
0.00221946
0.00262735
0.00310779
0.00424517
0.00523853
0.00539248
0.00551281
0.00558954
0.00562501
0.0055812
0.00540148
0.00505254
0.00458796
0.00412982
0.0037544
0.00347109
0.00328905
0.00322778
0.00325995
0.00331805
0.00336764
0.00340619
0.00343448
0.00344919
0.003448
0.00342983
0.0033948
0.00334404
0.00327718
0.00318852
0.00306712
0.00289848
0.00266546
0.00236718
0.00210544
0.00213885
0.00249953
0.00298323
0.00408494
0.00488967
0.00512942
0.00529156
0.00540089
0.00547669
0.00549011
0.00539132
0.00513794
0.00473837
0.00428199
0.00387338
0.00354973
0.00331264
0.00317837
0.00315837
0.00320547
0.00326173
0.00331011
0.00335069
0.00338099
0.00339762
0.00339865
0.00338339
0.00335223
0.00330492
0.00323747
0.0031421
0.00300864
0.00282148
0.00256478
0.00227599
0.00215617
0.0024034
0.00285319
0.003883
0.00499744
0.00521727
0.00535379
0.00544825
0.00551655
0.00552893
0.00543781
0.00521068
0.00485259
0.00441865
0.0039972
0.0036442
0.00336892
0.00317544
0.0030865
0.0030984
0.00315204
0.00320492
0.00325168
0.00329197
0.00332124
0.00333661
0.00333665
0.00332112
0.00328954
0.00323891
0.00316401
0.00305757
0.00290712
0.00269609
0.00243173
0.00223909
0.00235359
0.00273075
0.00368757
0.00486418
0.00502971
0.00516487
0.00527058
0.00536183
0.00540687
0.00535651
0.00518298
0.00489022
0.00451493
0.00412289
0.00376996
0.00347502
0.00323986
0.00308296
0.00303075
0.00305829
0.00310678
0.00315483
0.00320036
0.00323893
0.00326636
0.00328007
0.00327878
0.00326185
0.00322717
0.00317025
0.00308479
0.00295947
0.002779
0.00254193
0.00232941
0.00235498
0.00266291
0.00355913
0.00497002
0.00504766
0.00514151
0.00522598
0.00530654
0.00534363
0.00528638
0.00511854
0.0048529
0.0045196
0.00416648
0.00383915
0.00355572
0.00331298
0.00311758
0.00300012
0.00297925
0.00301311
0.0030581
0.00310295
0.00314574
0.00318103
0.00320514
0.00321592
0.00321232
0.00319247
0.0031529
0.00308769
0.00298681
0.00283597
0.00262952
0.00242566
0.00240442
0.00265701
0.00349407
0.00492055
0.00490683
0.00498062
0.005067
0.00516641
0.00522715
0.00519171
0.00505167
0.00482537
0.00453777
0.0042231
0.00391858
0.00364535
0.00340342
0.00319179
0.00302669
0.00294042
0.00293483
0.00296886
0.0030108
0.00305267
0.00309133
0.0031218
0.00314071
0.0031465
0.00313756
0.00311058
0.00305989
0.00297676
0.00284934
0.00267293
0.002493
0.00245745
0.00266945
0.00344788
0.00485938
0.00478448
0.00482884
0.00490175
0.0050031
0.00507312
0.00505061
0.00493367
0.00474555
0.00450901
0.0042465
0.0039803
0.00372673
0.0034896
0.00326935
0.00307403
0.0029288
0.00286106
0.00286336
0.00289975
0.00294431
0.00298761
0.00302606
0.0030568
0.0030769
0.0030834
0.0030722
0.00303759
0.0029711
0.00286165
0.00270566
0.00254433
0.00250501
0.00269007
0.00342787
0.00472882
0.00464422
0.00467367
0.00474246
0.00485863
0.00496128
0.00497874
0.00490381
0.00475667
0.00455728
0.0043259
0.00408281
0.00384344
0.00361203
0.00338804
0.00317284
0.00297988
0.00284
0.00277921
0.00278778
0.00282906
0.00287783
0.00292489
0.00296665
0.00300009
0.00302162
0.00302668
0.00300958
0.00296205
0.00287294
0.00273759
0.00259363
0.00255735
0.00272935
0.00344814
0.00456912
0.0044813
0.00448919
0.00453621
0.00464281
0.00476975
0.00483733
0.00482208
0.00473761
0.00459921
0.00441973
0.00421318
0.00399408
0.00377157
0.00354949
0.00332798
0.00310947
0.00290852
0.00275475
0.00267921
0.00268133
0.00272674
0.00278503
0.00284275
0.00289427
0.00293509
0.00296071
0.0029657
0.00294227
0.0028795
0.00277106
0.0026491
0.00261993
0.0027854
0.00350662
0.00447596
0.00439293
0.00438141
0.00440174
0.00448023
0.00461018
0.00471526
0.00474991
0.00471694
0.00463001
0.00450057
0.00433887
0.00415404
0.00395359
0.00374285
0.00352418
0.00329818
0.00306862
0.00284952
0.00267082
0.00257167
0.00256337
0.00261351
0.00268374
0.00275366
0.00281468
0.00286177
0.00289003
0.00289282
0.00286058
0.00278637
0.00269547
0.00268183
0.00285224
0.00361005
0.00440942
0.00431149
0.00427685
0.00426564
0.0043007
0.00441768
0.00456068
0.00465436
0.00467932
0.00464374
0.00455897
0.00443631
0.00428513
0.00411355
0.00392703
0.00372787
0.00351565
0.00328926
0.00305073
0.00281085
0.0026011
0.00247011
0.00244626
0.00250313
0.00259
0.00267574
0.00274796
0.00280072
0.00282854
0.0028244
0.00278387
0.00272919
0.00274154
0.00293134
0.00375443
0.00441668
0.00430142
0.00424713
0.00420533
0.00417947
0.00422789
0.00435912
0.00449311
0.00457812
0.00460611
0.00458254
0.00451443
0.00440788
0.00427058
0.00411004
0.00393161
0.00373739
0.0035266
0.00329688
0.00304666
0.00278334
0.00253966
0.00237485
0.00233703
0.00240354
0.00251028
0.00261329
0.00269578
0.00275115
0.00277486
0.00276693
0.00275048
0.00279432
0.00300967
0.00389785
0.00448905
0.00434487
0.00428202
0.00422754
0.00416679
0.00414616
0.00422663
0.00435774
0.00446825
0.00453226
0.00455081
0.00452815
0.00446825
0.0043756
0.00425492
0.00411037
0.00394469
0.0037585
0.00354986
0.00331448
0.00304895
0.00276072
0.00248268
0.00228502
0.00223654
0.00232129
0.00245496
0.00257704
0.00266622
0.00271887
0.00274134
0.00275948
0.00282934
0.00306072
0.00398172
0.00449564
0.00437673
0.00432984
0.00427348
0.00418279
0.00408227
0.00408519
0.00420208
0.00434086
0.0044446
0.00450271
0.0045186
0.0044966
0.00444121
0.00435661
0.00424635
0.00411275
0.00395644
0.00377575
0.00356692
0.00332431
0.00304457
0.00273302
0.00242367
0.00219898
0.00214517
0.00225079
0.00241367
0.00255328
0.00264593
0.00269986
0.00274529
0.00283022
0.00306517
0.00399848
0.00454598
0.0045276
0.00453132
0.00449605
0.00439793
0.00421648
0.00406511
0.00407599
0.00419395
0.00432204
0.00441726
0.00447132
0.00448737
0.00446951
0.00442145
0.00434635
0.00424636
0.00412196
0.00397178
0.00379305
0.00358164
0.00333192
0.00303933
0.00270805
0.00237495
0.00213215
0.00208028
0.00220626
0.00238965
0.00253882
0.0026338
0.00270432
0.00280064
0.00304033
0.0040011
0.00445875
0.00464566
0.00474031
0.00475031
0.00467785
0.00447928
0.00419954
0.00404749
0.00408196
0.00420031
0.00431813
0.00440233
0.00444989
0.00446405
0.00444845
0.004406
0.00433834
0.00424557
0.0041265
0.00397903
0.0038002
0.0035859
0.00332997
0.00302692
0.00268099
0.00233227
0.00208335
0.00204285
0.00218659
0.00238083
0.00253409
0.00264284
0.00275903
0.00301663
0.00403742
0.00457988
0.00494227
0.00509817
0.00513941
0.00508652
0.00488864
0.00452869
0.00419449
0.00407726
0.00413411
0.00424716
0.00434723
0.00441546
0.00445205
0.00446061
0.00444402
0.00440265
0.00433582
0.00424391
0.00412559
0.00397735
0.00379606
0.00357778
0.00331639
0.00300571
0.00265073
0.00229859
0.00206451
0.00205038
0.00220732
0.00240074
0.00256109
0.00271462
0.00301128
0.00412862
0.0047661
0.00519076
0.00534978
0.00539783
0.00536309
0.00520079
0.00486876
0.00445912
0.00419924
0.00415941
0.00423837
0.00433486
0.00440983
0.00445693
0.00447857
0.00447694
0.00445193
0.00440266
0.00432909
0.00423194
0.00410956
0.00395655
0.00376863
0.00354264
0.00327256
0.00295171
0.00259046
0.00225393
0.00206957
0.00210503
0.00227769
0.00247546
0.00267676
0.00303224
0.00425886
0.00549214
0.00564377
0.00564036
0.00559725
0.00551205
0.00534769
0.00506719
0.00470369
0.00440757
0.00429684
0.00432644
0.00439712
0.00445866
0.00449849
0.00451831
0.00451973
0.00450084
0.00446018
0.00439715
0.00431193
0.00420557
0.00407432
0.00391063
0.00371076
0.00347113
0.00318413
0.00284617
0.00248608
0.00220297
0.00211517
0.0022214
0.00242452
0.0026659
0.00308089
0.00437997
0.00649071
0.00600576
0.0057136
0.00549372
0.00534186
0.00520813
0.00502135
0.00479477
0.00460464
0.00452099
0.0045257
0.00455748
0.00458528
0.0046013
0.00460458
0.00459445
0.00456858
0.00452525
0.00446332
0.00438244
0.00428316
0.00416222
0.00401255
0.00382945
0.00360899
0.00334405
0.00302688
0.00266926
0.00234555
0.00218642
0.00223852
0.0024316
0.00269344
0.00314039
0.00442013
0.00722621
0.00614551
0.00554584
0.0051446
0.00507313
0.00505012
0.00497091
0.00486622
0.00478382
0.00474633
0.00473819
0.00473791
0.00473562
0.00472745
0.00471123
0.00468508
0.00464734
0.00459669
0.00453219
0.00445295
0.00435672
0.00423933
0.00409612
0.00392347
0.00371677
0.003468
0.00316675
0.00281511
0.00246974
0.00226592
0.00228839
0.002474
0.00273687
0.00317679
0.00434868
0.00681314
0.00554179
0.00486297
0.00458454
0.00480947
0.00493503
0.00497512
0.00497147
0.00495099
0.00492949
0.00490943
0.0048886
0.00486506
0.00483732
0.00480414
0.00476436
0.00471682
0.00466032
0.00459333
0.00451379
0.00441897
0.00430561
0.00417039
0.00401007
0.00381947
0.00358996
0.00330939
0.00297142
0.00261148
0.0023542
0.00233316
0.00250742
0.00276164
0.00317473
0.00421895
0.00582641
0.00471933
0.00416207
0.00418173
0.00451813
0.00471566
0.0048451
0.00492201
0.00495811
0.00496821
0.00496172
0.00494363
0.00491692
0.00488326
0.0048436
0.00479829
0.00474709
0.00468913
0.00462304
0.00454692
0.0044584
0.00435481
0.00423341
0.00409127
0.00392331
0.0037213
0.00347292
0.00316549
0.00281003
0.00249633
0.00238467
0.00251426
0.00275412
0.00314636
0.00411847
0.00527101
0.00450409
0.00392875
0.00357183
0.00375248
0.00406555
0.00435117
0.00456944
0.00471649
0.00480495
0.00484958
0.00486447
0.00485822
0.00483661
0.00480383
0.00476297
0.00471559
0.0046617
0.00460077
0.0045318
0.00445331
0.00436348
0.00426024
0.00414123
0.00400178
0.00383461
0.00362864
0.00336893
0.00304821
0.00271122
0.00249908
0.00253885
0.00274894
0.00313126
0.00410392
0.0054015
0.00484599
0.00423591
0.00342934
0.00289637
0.00298173
0.00337033
0.00378789
0.00412612
0.00436938
0.00452986
0.00462634
0.00467581
0.00469128
0.0046825
0.00465661
0.00461884
0.00457167
0.00451623
0.00445312
0.00438254
0.00430435
0.00421787
0.00412173
0.00401112
0.00387918
0.00371622
0.00350862
0.00324261
0.00293157
0.00267505
0.00262994
0.00279587
0.00316272
0.00416043
0.00540065
0.00522392
0.00490224
0.00431917
0.00326067
0.002509
0.00240641
0.00274158
0.00321708
0.00364675
0.00397226
0.00419885
0.00434644
0.00443386
0.0044764
0.00448579
0.00447044
0.00443612
0.00438675
0.00432519
0.00425369
0.0041754
0.00409451
0.00401337
0.00392834
0.00383027
0.00370728
0.00354638
0.00333572
0.00308041
0.00284788
0.00277435
0.00290008
0.00323467
0.00422908
0.00510696
0.00544155
0.00549453
0.00531946
0.0047472
0.00367401
0.00271077
0.00224208
0.00229751
0.00268721
0.0031598
0.00356013
0.00385344
0.00405414
0.00418188
0.00425287
0.00427969
0.00427183
0.00423624
0.00417815
0.0041021
0.00401353
0.00392077
0.00383487
0.00376019
0.00369193
0.00361025
0.00349347
0.00332863
0.00312672
0.00294856
0.00289735
0.00300239
0.00329551
0.0042405
0.00473518
0.0054218
0.00572319
0.00587889
0.00591066
0.00561813
0.00474435
0.00359707
0.00263577
0.00216383
0.0022383
0.00265191
0.00311875
0.00349297
0.00375895
0.00393556
0.00404037
0.00408723
0.00408681
0.00404707
0.00397418
0.00387408
0.00375555
0.00363387
0.00353228
0.00347048
0.00343785
0.00338967
0.00329067
0.00314302
0.00300843
0.00297434
0.00305817
0.00330088
0.00416506
0.00458158
0.00526393
0.00559381
0.00583257
0.00606655
0.00627902
0.00632903
0.00589744
0.00486209
0.00359131
0.00254031
0.00207642
0.00223826
0.00270212
0.00314869
0.00348235
0.00371155
0.00385433
0.00392546
0.00393637
0.0038956
0.00381004
0.00368632
0.00353389
0.00337349
0.00324358
0.00318156
0.00317903
0.00317766
0.00312907
0.00305548
0.00303052
0.00308523
0.00327061
0.00405216
0.0047975
0.00536045
0.00561431
0.00575196
0.00586808
0.00601337
0.00621735
0.00642462
0.00640844
0.00583922
0.00466165
0.003286
0.00227983
0.00205774
0.00241781
0.00288825
0.00326256
0.00352798
0.00370273
0.00379961
0.00382867
0.00379724
0.00371078
0.00357416
0.00339583
0.00319838
0.00302982
0.00294408
0.00294795
0.00298504
0.00300411
0.00301894
0.00306636
0.0032195
0.00398229
0.00526891
0.00571836
0.00597089
0.00609949
0.00615445
0.00614247
0.00608831
0.00607815
0.00617072
0.00624642
0.00605677
0.00528412
0.00391266
0.00259438
0.002092
0.00233527
0.0027727
0.00313951
0.00340917
0.00359716
0.00371242
0.00376056
0.00374568
0.00367041
0.00353683
0.00335015
0.00313085
0.00292751
0.00280399
0.00278795
0.00284025
0.00290783
0.00298696
0.00316542
0.00402469
0.00571264
0.00590087
0.00613472
0.0063141
0.00645445
0.00653155
0.00649426
0.00631067
0.0060812
0.00594568
0.00587781
0.00573588
0.00522583
0.0039934
0.00268243
0.00222019
0.00244176
0.0028158
0.00313083
0.00336987
0.00354572
0.00366308
0.0037226
0.00372393
0.00366594
0.00354695
0.00336837
0.00314529
0.00292116
0.00276402
0.0027198
0.00276903
0.00287493
0.00312048
0.00418006
0.00595677
0.00585038
0.00599752
0.0061516
0.00631056
0.00645686
0.00654591
0.00651248
0.00631775
0.00603276
0.00576983
0.00554626
0.0052785
0.00470085
0.00351664
0.00256126
0.00240514
0.00265707
0.00295099
0.00319237
0.00338433
0.00353428
0.00364193
0.00370387
0.00371583
0.0036731
0.0035707
0.0034059
0.00318823
0.00295812
0.00279143
0.00275364
0.00285249
0.00316793
0.0044193
0.0060724
0.00587732
0.00598516
0.00611112
0.00623647
0.00633829
0.00638818
0.00637091
0.0062724
0.00608036
0.0058163
0.00551562
0.00517317
0.00469868
0.00386317
0.00290864
0.00254165
0.00265294
0.00288138
0.00308912
0.0032641
0.00341315
0.00353662
0.00363017
0.00368861
0.00370456
0.00367011
0.0035766
0.00341744
0.00320301
0.00298874
0.00288237
0.00296198
0.00331765
0.00465806
0.00608627
0.00586701
0.00597145
0.00610907
0.00625798
0.00636824
0.00638214
0.00630102
0.00616078
0.0059782
0.00574856
0.00545898
0.00508348
0.00456321
0.00382246
0.00303142
0.00267472
0.00272117
0.00288463
0.00304459
0.00318698
0.00331658
0.00343444
0.00353737
0.00361937
0.00367207
0.0036856
0.00364907
0.00355134
0.00338965
0.00320021
0.00309254
0.00317248
0.00353667
0.00483292
0.00605618
0.00572556
0.00577581
0.00589741
0.00607436
0.00624178
0.00630358
0.00623921
0.00608657
0.0058809
0.00563196
0.00532341
0.00491308
0.00434404