/*--------------------------------*- C++ -*----------------------------------*\
| =========                 |                                                 |
| \\      /  F ield         | OpenFOAM: The Open Source CFD Toolbox           |
|  \\    /   O peration     | Version:  v2006                                 |
|   \\  /    A nd           | Website:  www.openfoam.com                      |
|    \\/     M anipulation  |                                                 |
\*---------------------------------------------------------------------------*/
FoamFile
{
    version     2.0;
    format      ascii;
    class       volScalarField;
    location    "80";
    object      nut;
}
// * * * * * * * * * * * * * * * * * * * * * * * * * * * * * * * * * * * * * //

dimensions      [0 2 -1 0 0 0 0];


internalField   nonuniform List<scalar> 
78750
(
0.000488517
0.000957599
0.000545682
1.73061e-05
1.61153e-06
3.83196e-05
1.82761e-05
3.36876e-05
2.43216e-05
3.02342e-05
3.02939e-05
3.04444e-05
3.16281e-05
3.15746e-05
3.16395e-05
3.14651e-05
3.13295e-05
3.15737e-05
3.24535e-05
3.39362e-05
3.56565e-05
3.72357e-05
3.85846e-05
3.9658e-05
4.05392e-05
4.1275e-05
4.18295e-05
4.20338e-05
4.17779e-05
4.11249e-05
3.93164e-05
3.48366e-05
2.73566e-05
1.08955e-05
4.76029e-07
1.53401e-05
2.37805e-05
0.000103098
4.78424e-05
5.14559e-05
6.29809e-05
8.34737e-05
8.95818e-05
9.96755e-05
0.000106365
0.000111566
0.000113986
0.000114089
0.000112748
0.000110692
0.000108332
0.000106098
0.000104708
0.000105257
0.000108712
0.000115334
0.000124143
0.000133445
0.000141439
0.000147211
0.000150351
0.000149002
0.000139691
0.000120166
9.65787e-05
8.08951e-05
5.22877e-05
2.49207e-05
1.2746e-05
2.04608e-06
1.34378e-07
1.64152e-05
3.65281e-05
4.48551e-05
5.31859e-05
7.47241e-05
0.000109999
0.000119121
0.00010581
0.000102495
0.000109044
0.000117327
0.000122954
0.000126252
0.000128995
0.000132098
0.000134892
0.000136653
0.00013708
0.00013631
0.0001349
0.000133107
0.000130812
0.000127566
0.000122205
0.000112087
9.28209e-05
6.41856e-05
4.15621e-05
3.7585e-05
6.47168e-05
6.95139e-05
1.09894e-05
6.31733e-06
2.48282e-06
1.69339e-06
2.1906e-05
2.70376e-05
2.6166e-05
2.53027e-05
2.4288e-05
2.31106e-05
2.19066e-05
2.10629e-05
2.14085e-05
2.40252e-05
2.99093e-05
3.93367e-05
5.17896e-05
6.57219e-05
7.93883e-05
9.19947e-05
0.00010327
0.000113253
0.000121996
0.00012958
0.0001363
0.000142531
0.000148531
0.0001545
0.000160176
0.000163347
0.000155366
0.00012263
8.37311e-05
7.12309e-05
7.09798e-05
6.33335e-05
3.21632e-05
2.05068e-06
9.8711e-07
1.4631e-05
3.17891e-05
5.03571e-05
6.00965e-05
5.93636e-05
5.25408e-05
4.38967e-05
3.56049e-05
2.81632e-05
2.28758e-05
2.15278e-05
2.42822e-05
3.02003e-05
3.76761e-05
4.54136e-05
5.29992e-05
6.03383e-05
6.72884e-05
7.34871e-05
7.84031e-05
8.14801e-05
8.22893e-05
8.08658e-05
7.84337e-05
7.58452e-05
6.76272e-05
5.72737e-05
5.71507e-05
5.51252e-05
2.34423e-05
3.45611e-05
1.3443e-05
1.30364e-05
3.45294e-06
1.70128e-06
1.71676e-05
4.28009e-05
8.05869e-05
0.000108057
0.00010938
9.28436e-05
7.19506e-05
5.34637e-05
3.7352e-05
2.79203e-05
3.23882e-05
6.19078e-05
0.000108105
0.000123506
0.000120583
0.000115358
0.000111133
0.000107891
0.000105301
0.000103012
0.000100353
9.64026e-05
9.12746e-05
8.73329e-05
8.53992e-05
7.47563e-05
4.97977e-05
4.25495e-05
5.95241e-05
4.63193e-05
2.93686e-05
1.57988e-05
1.49196e-05
4.62533e-06
2.67134e-06
1.64717e-05
4.61048e-05
9.5088e-05
0.000119755
0.000101455
6.68757e-05
4.25868e-05
2.82322e-05
1.63753e-05
6.26386e-06
3.24977e-06
2.22561e-05
7.57653e-05
0.000103254
0.000123872
0.0001353
0.00013649
0.000130504
0.000121684
0.000112965
0.000104779
9.62658e-05
8.66191e-05
7.49993e-05
6.00552e-05
4.35151e-05
3.43189e-05
3.7519e-05
5.39221e-05
5.99716e-05
5.45002e-05
2.4563e-05
2.31808e-05
4.90093e-06
3.77998e-06
2.18484e-05
6.64849e-05
0.000118421
0.000121892
8.61816e-05
5.14299e-05
3.37695e-05
2.66454e-05
2.41105e-05
2.32711e-05
2.55439e-05
3.64363e-05
5.35988e-05
6.91261e-05
7.87463e-05
8.31443e-05
8.43336e-05
8.36892e-05
8.17948e-05
7.88452e-05
7.50783e-05
7.07743e-05
6.57751e-05
5.92106e-05
5.04947e-05
4.17115e-05
3.80225e-05
4.41285e-05
6.31932e-05
8.15101e-05
6.71215e-05
3.15181e-05
2.82261e-05
4.34434e-06
4.54864e-06
2.46883e-05
7.24625e-05
0.000111168
0.00010752
8.00597e-05
5.34087e-05
3.70266e-05
2.86391e-05
2.54322e-05
2.53757e-05
2.63511e-05
2.92623e-05
3.84151e-05
5.20184e-05
6.13558e-05
6.34318e-05
6.30138e-05
6.33014e-05
6.41892e-05
6.42022e-05
6.21923e-05
5.82429e-05
5.33061e-05
4.8297e-05
4.37643e-05
4.04351e-05
3.99719e-05
4.44916e-05
5.42769e-05
6.26834e-05
5.54557e-05
3.83843e-05
4.26832e-05
4.433e-06
4.59682e-06
2.28305e-05
6.96677e-05
0.000127277
0.000140412
0.000125739
0.00010385
8.41858e-05
6.73424e-05
5.24412e-05
4.05586e-05
3.28564e-05
3.02878e-05
3.54923e-05
5.07732e-05
6.22834e-05
6.0297e-05
5.06943e-05
4.42905e-05
4.32496e-05
4.6268e-05
5.14204e-05
5.55793e-05
5.56474e-05
5.13743e-05
4.52346e-05
3.99796e-05
3.78438e-05
4.08697e-05
4.91602e-05
5.32843e-05
4.04903e-05
2.92092e-05
4.12826e-05
4.67807e-06
4.94559e-06
2.46253e-05
8.39762e-05
0.000124049
9.83488e-05
6.37866e-05
4.02756e-05
2.82523e-05
2.4592e-05
2.6844e-05
3.20423e-05
3.81967e-05
4.99007e-05
6.93382e-05
6.36746e-05
5.59586e-05
5.37339e-05
4.80035e-05
3.80131e-05
3.05954e-05
2.74781e-05
2.78349e-05
3.12393e-05
3.71546e-05
4.28789e-05
4.40757e-05
3.98349e-05
3.39311e-05
3.04226e-05
3.13625e-05
3.47066e-05
3.2473e-05
3.11881e-05
5.69247e-05
5.457e-06
6.52876e-06
4.83176e-05
0.000110804
0.000107615
9.19921e-05
7.69441e-05
6.58735e-05
5.62308e-05
4.60613e-05
3.80684e-05
3.50602e-05
3.83807e-05
4.89596e-05
6.30416e-05
7.11409e-05
7.2509e-05
7.03399e-05
6.41491e-05
5.2943e-05
3.95909e-05
2.90461e-05
2.28798e-05
2.02016e-05
2.02664e-05
2.32058e-05
2.88401e-05
3.37366e-05
3.26648e-05
2.72376e-05
2.3522e-05
2.2958e-05
2.25135e-05
2.81224e-05
6.64004e-05
6.15418e-06
6.05852e-06
3.69412e-05
9.87997e-05
0.000129391
0.000129089
0.000115362
9.81935e-05
8.18307e-05
6.72161e-05
5.4974e-05
4.60814e-05
4.16774e-05
4.32121e-05
5.25823e-05
6.80983e-05
7.84424e-05
8.10856e-05
8.35487e-05
8.71317e-05
8.3904e-05
6.45216e-05
4.12095e-05
2.67309e-05
1.94881e-05
1.64441e-05
1.64219e-05
1.91335e-05
2.24578e-05
2.16204e-05
1.795e-05
1.69229e-05
2.0084e-05
3.31811e-05
7.25372e-05
7.08506e-06
4.62027e-06
2.2925e-05
6.67883e-05
0.000108923
0.000126277
0.000129048
0.000122317
0.000109277
9.39938e-05
7.9594e-05
6.73336e-05
5.78746e-05
5.23479e-05
5.23505e-05
5.95441e-05
7.20928e-05
7.98216e-05
7.928e-05
7.84562e-05
8.26552e-05
9.42593e-05
0.00010696
8.37748e-05
4.27696e-05
2.35537e-05
1.5954e-05
1.32726e-05
1.36479e-05
1.51537e-05
1.42902e-05
1.32949e-05
1.66743e-05
3.28417e-05
6.81104e-05
7.55751e-06
4.57704e-06
2.23191e-05
7.26065e-05
0.000131939
0.000145315
0.000137572
0.000124447
0.000111545
9.94187e-05
8.68294e-05
7.37765e-05
6.26974e-05
5.69067e-05
5.90477e-05
7.17546e-05
9.4164e-05
0.000111017
0.000111132
0.00010495
0.000101858
0.000104739
0.000114611
0.00012964
0.000121489
6.50768e-05
2.97859e-05
1.65784e-05
1.15761e-05
1.02074e-05
1.02187e-05
1.05036e-05
1.50287e-05
3.46465e-05
5.48344e-05
7.60244e-06
5.49246e-06
2.79959e-05
8.42308e-05
0.00013099
0.000149211
0.000153683
0.000148521
0.000135669
0.000118442
0.000100055
8.17745e-05
6.49006e-05
5.2896e-05
4.90115e-05
5.57081e-05
7.69176e-05
0.000109806
0.000131925
0.000133958
0.000128881
0.000127231
0.000130007
0.000130628
0.000120402
9.51403e-05
6.01084e-05
3.17671e-05
1.71055e-05
1.0875e-05
8.74675e-06
8.34954e-06
1.09203e-05
2.54083e-05
5.56354e-05
7.54147e-06
5.68764e-06
2.97261e-05
9.03461e-05
0.000137195
0.00014974
0.00014418
0.000128754
0.000110779
9.54972e-05
8.44173e-05
7.6124e-05
6.81322e-05
5.99391e-05
5.48475e-05
5.74556e-05
7.23653e-05
0.000102179
0.000134684
0.000148189
0.000143852
0.000134577
0.000126542
0.000117642
0.000103097
8.2693e-05
6.09349e-05
4.11802e-05
2.51728e-05
1.47072e-05
9.64771e-06
7.80208e-06
8.69902e-06
1.90439e-05
6.10672e-05
7.58091e-06
5.45402e-06
2.59896e-05
7.61979e-05
0.000125997
0.000142296
0.000138172
0.000124834
0.00011094
0.000100897
9.48107e-05
9.08912e-05
8.67252e-05
7.99005e-05
7.02587e-05
6.17982e-05
5.94104e-05
6.6688e-05
8.64712e-05
0.000114302
0.000133454
0.000136972
0.000131314
0.000121784
0.000109148
9.18574e-05
7.0578e-05
4.92553e-05
3.14044e-05
1.8683e-05
1.14777e-05
8.11278e-06
7.10617e-06
1.40918e-05
6.94914e-05
7.82098e-06
5.34213e-06
2.45196e-05
7.769e-05
0.000128202
0.000133217
0.00011721
9.81817e-05
8.50521e-05
7.88369e-05
7.82672e-05
8.23227e-05
8.97486e-05
9.76938e-05
0.00010131
9.67061e-05
8.72333e-05
8.2993e-05
9.37425e-05
0.000127945
0.000175749
0.000187249
0.000178838
0.000160778
0.000142261
0.000119749
8.73797e-05
5.55235e-05
3.26025e-05
1.8367e-05
1.0782e-05
7.77568e-06
7.6374e-06
1.6434e-05
7.74256e-05
8.20086e-06
5.6091e-06
2.49813e-05
7.97733e-05
0.000144932
0.000142487
0.00011239
9.18306e-05
8.49628e-05
8.68528e-05
9.3457e-05
0.000102164
0.000110648
0.000116003
0.000115314
0.0001068
9.20374e-05
7.8459e-05
7.54518e-05
9.27668e-05
0.000145003
0.000195227
0.00018612
0.00017785
0.000170778
0.00016516
0.000130595
7.47484e-05
3.80729e-05
1.9184e-05
1.02355e-05
7.02155e-06
7.90752e-06
1.98003e-05
7.37789e-05
8.39982e-06
6.88983e-06
3.82459e-05
0.000134639
0.000130303
8.68633e-05
6.20192e-05
5.56496e-05
5.9627e-05
6.87093e-05
8.04058e-05
9.55175e-05
0.000115235
0.000135935
0.000149365
0.00014893
0.000134694
0.000117554
0.000113693
0.000134472
0.000180839
0.000196653
0.000189628
0.000182848
0.000176607
0.000171134
0.000142292
7.05008e-05
3.53852e-05
1.854e-05
1.01e-05
6.93311e-06
8.75915e-06
2.41487e-05
5.544e-05
8.296e-06
7.7056e-06
5.36509e-05
0.000136994
9.8266e-05
6.26895e-05
5.42105e-05
6.68868e-05
9.82732e-05
0.000132236
0.000148622
0.000146386
0.000133501
0.000118945
0.000107069
9.77008e-05
9.0238e-05
8.66249e-05
9.14263e-05
0.000110295
0.000145385
0.00018408
0.000189549
0.00018489
0.000180455
0.000176364
0.000129535
6.90943e-05
3.7216e-05
2.07048e-05
1.14501e-05
7.28667e-06
8.46588e-06
2.30028e-05
4.97903e-05
8.03091e-06
7.61492e-06
5.7563e-05
0.000126502
8.39112e-05
5.66121e-05
5.17384e-05
6.07218e-05
7.71532e-05
9.48283e-05
0.000109624
0.000119868
0.000125093
0.000125204
0.000121445
0.000117244
0.000117047
0.000124236
0.000139442
0.00015997
0.000181633
0.000194699
0.000190938
0.000187353
0.000184025
0.000181003
0.000118738
6.70103e-05
3.85031e-05
2.30728e-05
1.36845e-05
8.47683e-06
8.48997e-06
2.09602e-05
5.36338e-05
7.88447e-06
7.21121e-06
4.81106e-05
0.000127616
0.000124072
9.97182e-05
8.02502e-05
7.20695e-05
7.30873e-05
8.11307e-05
9.35171e-05
0.000105274
0.000111355
0.000110587
0.00010523
9.86854e-05
9.46243e-05
9.68092e-05
0.000108594
0.000131083
0.00015956
0.000183814
0.000188331
0.000185394
0.000182844
0.000167194
0.000115183
6.79111e-05
3.99116e-05
2.47638e-05
1.55874e-05
9.85919e-06
8.83205e-06
1.955e-05
6.29488e-05
7.8443e-06
6.56217e-06
3.67053e-05
0.000102711
0.000119824
0.000109014
8.50475e-05
6.36474e-05
5.19427e-05
4.84895e-05
5.17081e-05
6.14867e-05
7.79288e-05
9.92481e-05
0.000121265
0.000140415
0.000156202
0.000170231
0.000184182
0.000197255
0.000194892
0.000190711
0.000186982
0.000183775
0.000181133
0.000177231
0.000118923
6.72918e-05
3.85546e-05
2.37696e-05
1.55448e-05
1.07965e-05
1.00657e-05
2.11152e-05
6.52419e-05
7.86416e-06
6.28009e-06
3.18731e-05
9.34235e-05
0.000124883
0.000127349
0.000117089
9.55603e-05
7.17129e-05
5.61268e-05
4.95878e-05
5.01399e-05
5.69493e-05
6.92886e-05
8.468e-05
9.95698e-05
0.000112616
0.000126124
0.000144174
0.000168267
0.000192026
0.000191994
0.0001873
0.00018324
0.00017994
0.000170923
0.000116347
6.77764e-05
3.95473e-05
2.41e-05
1.53591e-05
1.1002e-05
1.10926e-05
2.32933e-05
6.23995e-05
7.81759e-06
6.21699e-06
3.17887e-05
0.000101928
0.000134831
0.000131271
0.000118816
0.000103836
8.54402e-05
6.59073e-05
5.1172e-05
4.33093e-05
4.20676e-05
4.83454e-05
6.53506e-05
9.72066e-05
0.000141723
0.000185075
0.000209783
0.000204899
0.000199563
0.000194028
0.000188591
0.000183571
0.000179285
0.000161957
0.000105555
6.03921e-05
3.6096e-05
2.31322e-05
1.52894e-05
1.14469e-05
1.26324e-05
2.68656e-05
5.48342e-05
7.71247e-06
6.2027e-06
2.98736e-05
9.41255e-05
0.000138731
0.000142423
0.000129656
0.000112342
9.87861e-05
8.85967e-05
7.5484e-05
5.93343e-05
4.69786e-05
4.18376e-05
4.46294e-05
5.65914e-05
7.92148e-05
0.000111438
0.000148148
0.000182031
0.000202282
0.00019637
0.000190236
0.00018424
0.000178802
0.000160011
0.000107111
6.10295e-05
3.61211e-05
2.35602e-05
1.564e-05
1.1365e-05
1.25655e-05
2.71779e-05
5.07287e-05
7.60094e-06
6.30853e-06
2.90193e-05
9.02248e-05
0.000130256
0.000127533
0.000107526
8.36199e-05
6.72931e-05
6.20982e-05
6.5837e-05
6.98784e-05
6.16072e-05
4.82582e-05
4.30888e-05
4.99991e-05
7.45719e-05
0.000126278
0.000194752
0.000207938
0.000202809
0.000196996
0.00019067
0.00018414
0.000177846
0.000166057
9.57068e-05
4.93169e-05
2.95134e-05
2.16834e-05
1.66312e-05
1.28912e-05
1.40261e-05
2.94187e-05
4.55936e-05
7.50293e-06
6.72185e-06
3.05028e-05
9.37854e-05
0.000133039
0.00013168
0.000113584
8.85759e-05
6.75243e-05
5.62252e-05
5.47981e-05
6.02757e-05
6.37887e-05
5.59964e-05
4.67048e-05
4.75316e-05
6.41615e-05
0.000106728
0.000178075
0.000210588
0.000205944
0.000200506
0.000194347
0.000187656
0.000180781
0.000174252
0.00011702
5.55872e-05
2.89358e-05
2.00903e-05
1.62522e-05
1.33813e-05
1.44948e-05
2.95437e-05
4.39339e-05
7.43995e-06
6.98236e-06
3.35062e-05
0.000107508
0.000137631
0.000123346
9.42806e-05
6.89316e-05
5.43294e-05
4.80639e-05
4.78368e-05
5.24148e-05
5.75289e-05
5.6326e-05
5.21584e-05
5.7349e-05
8.48654e-05
0.000147306
0.000212871
0.000209446
0.000205291
0.000200384
0.000194763
0.000188556
0.000182018
0.000175557
9.25862e-05
4.26813e-05
2.25368e-05
1.65974e-05
1.59006e-05
1.55762e-05
1.80326e-05
3.5123e-05
4.13476e-05
7.40126e-06
7.24421e-06
3.56422e-05
0.000111918
0.000133626
0.000117564
8.7405e-05
6.24815e-05
4.95133e-05
4.49496e-05
4.50197e-05
4.7832e-05
5.19752e-05
5.55977e-05
5.94336e-05
6.91572e-05
9.26114e-05
0.000133241
0.000179605
0.000212673
0.000209096
0.000204809
0.000199887
0.000194426
0.000188607
0.000180179
0.000112846
5.64869e-05
2.66732e-05
1.54324e-05
1.33483e-05
1.45713e-05
1.87692e-05
3.65537e-05
4.13502e-05
7.3566e-06
6.91415e-06
3.35907e-05
0.000106368
0.000128397
0.000111406
8.12674e-05
5.69555e-05
4.42154e-05
3.97367e-05
3.98887e-05
4.2466e-05
4.71838e-05
5.59991e-05
7.25443e-05
9.95154e-05
0.000133738
0.000166562
0.000191265
0.000206029
0.000211174
0.000207301
0.0002029
0.000198123
0.000182487
0.000142403
9.38432e-05
5.3371e-05
2.79814e-05
1.57904e-05
1.2222e-05
1.37372e-05
1.97278e-05
3.94379e-05
4.25214e-05
7.39476e-06
7.03283e-06
3.36454e-05
0.000107545
0.00013235
0.000116988
8.78237e-05
6.17084e-05
4.63854e-05
3.98789e-05
3.88831e-05
4.13174e-05
4.62901e-05
5.42038e-05
6.75202e-05
9.05986e-05
0.000126015
0.000167845
0.000202312
0.000217356
0.000214347
0.000210766
0.000206683
0.000201313
0.000181322
0.000146709
0.000102727
6.15943e-05
3.32064e-05
1.80127e-05
1.17575e-05
1.15866e-05
1.71175e-05
3.65159e-05
4.46357e-05
7.49872e-06
7.05207e-06
3.40629e-05
0.00010867
0.000130952
0.000112943
8.30583e-05
5.84751e-05
4.45866e-05
3.85983e-05
3.73086e-05
3.91773e-05
4.48189e-05
5.71897e-05
8.17609e-05
0.000125171
0.000184504
0.000223601
0.00022195
0.000219738
0.000216931
0.000213529
0.00020958
0.000205198
0.000199823
0.000155719
0.000101872
5.71848e-05
3.07457e-05
1.83145e-05
1.25008e-05
1.10978e-05
1.5657e-05
3.47169e-05
4.34365e-05
7.64063e-06
7.2682e-06
3.5906e-05
0.000113785
0.000135609
0.000116358
8.45816e-05
5.90918e-05
4.54032e-05
4.01176e-05
3.93769e-05
4.05942e-05
4.35163e-05
5.11674e-05
7.052e-05
0.000113669
0.000184681
0.000224068
0.000222822
0.000221012
0.000218577
0.000215492
0.000211777
0.000207513
0.000202871
0.000180456
0.000108017
5.30392e-05
2.59774e-05
1.5837e-05
1.23591e-05
1.14048e-05
1.59979e-05
3.73156e-05
3.96134e-05
7.66513e-06
7.35456e-06
3.88734e-05
0.000119717
0.000131569
0.000106891
7.4547e-05
5.19568e-05
4.08418e-05
3.7461e-05
3.88759e-05
4.29714e-05
4.91221e-05
6.07279e-05
8.73127e-05
0.000143009
0.00021934
0.000224228
0.000223255
0.000221743
0.000219616
0.000216831
0.000213385
0.000209326
0.000204773
0.000189152
0.000101634
4.58242e-05
2.14954e-05
1.32266e-05
1.21502e-05
1.33811e-05
1.97391e-05
4.58342e-05
3.51903e-05
7.42739e-06
7.46729e-06
4.12892e-05
0.000124682
0.000134425
0.000109068
7.67464e-05
5.41654e-05
4.26346e-05
3.82303e-05
3.78705e-05
4.00299e-05
4.52288e-05
5.70795e-05
8.43556e-05
0.000140528
0.000217408
0.00022411
0.000223488
0.000222328
0.000220561
0.000218139
0.000215044
0.000211294
0.000206967
0.000191788
0.000101044
4.54158e-05
2.08321e-05
1.18566e-05
1.09416e-05
1.49218e-05
2.5362e-05
5.51007e-05
3.11313e-05
7.00273e-06
7.45141e-06
4.3566e-05
0.000126136
0.000129376
0.000101108
7.00055e-05
5.016e-05
4.11022e-05
3.90151e-05
4.05067e-05
4.32208e-05
4.81048e-05
6.02942e-05
8.92584e-05
0.000146365
0.000218476
0.00022365
0.000223449
0.000222728
0.00022142
0.00021948
0.000216884
0.000213639
0.000209804
0.000189365
0.000108973
5.3456e-05
2.52355e-05
1.31418e-05
9.96365e-06
1.34707e-05
2.65634e-05
5.57128e-05
2.76079e-05
6.47019e-06
7.54569e-06
4.61638e-05
0.0001289
0.0001305
0.00010438
7.4186e-05
5.29815e-05
4.19577e-05
3.82893e-05
3.90462e-05
4.15688e-05
4.58654e-05
5.66497e-05
8.29403e-05
0.000134814
0.00020151
0.000222859
0.000223119
0.000222898
0.000222128
0.000220758
0.000218764
0.000216152
0.000212968
0.000190417
0.000125573
7.07124e-05
3.61002e-05
1.82035e-05
1.10741e-05
1.12704e-05
2.08244e-05
4.84948e-05
2.67735e-05
6.12235e-06
7.34368e-06
4.62982e-05
0.000128614
0.000130622
0.00010507
7.61454e-05
5.57349e-05
4.47473e-05
4.08418e-05
4.15286e-05
4.3867e-05
4.67214e-05
5.40802e-05
7.43979e-05
0.000117981
0.000181253
0.000221149
0.000221927
0.00022228
0.000222119
0.000221386
0.000220056
0.000218135
0.000215661
0.000190312
0.000139302
8.97378e-05
5.14225e-05
2.70988e-05
1.48434e-05
1.11831e-05
1.60036e-05
3.8615e-05
2.83335e-05
5.9444e-06
7.38358e-06
4.6918e-05
0.00013115
0.000133721
0.000109786
8.16014e-05
5.9989e-05
4.68625e-05
4.10483e-05
4.09138e-05
4.38741e-05
4.70214e-05
5.16286e-05
6.48861e-05
9.74552e-05
0.000155232
0.000214416
0.000219546
0.000220511
0.000221007
0.000220959
0.000220329
0.000219116
0.000217348
0.000195229
0.000152361
0.000107283
6.77479e-05
3.83961e-05
2.08488e-05
1.32551e-05
1.43959e-05
3.11696e-05
3.18784e-05
5.72529e-06
7.20673e-06
4.67565e-05
0.000131304
0.00013344
0.000108744
8.31872e-05
6.50708e-05
5.31382e-05
4.61448e-05
4.41854e-05
4.63237e-05
4.95691e-05
5.23239e-05
5.93036e-05
8.0678e-05
0.000128211
0.000193678
0.000216229
0.000217637
0.00021868
0.000219248
0.000219277
0.000218743
0.000217656
0.000198432
0.000159738
0.00011822
7.96947e-05
4.82847e-05
2.71599e-05
1.63913e-05
1.49748e-05
2.82608e-05
3.57175e-05
5.44845e-06
7.28751e-06
4.76837e-05
0.000134976
0.000133335
0.000105204
7.96995e-05
6.38487e-05
5.42513e-05
4.83462e-05
4.62559e-05
4.83144e-05
5.27497e-05
5.63142e-05
5.98286e-05
7.13317e-05
0.000103302
0.000163501
0.000212543
0.00021419
0.000215598
0.000216614
0.000217142
0.000217136
0.000216587
0.000196219
0.000159524
0.000121215
8.54086e-05
5.48599e-05
3.25999e-05
1.99533e-05
1.68387e-05
2.808e-05
3.92957e-05
5.17982e-06
7.25079e-06
4.93826e-05
0.000135481
0.000126631
9.55683e-05
7.41155e-05
6.40873e-05
5.89616e-05
5.48753e-05
5.24062e-05
5.33007e-05
5.71558e-05
6.10598e-05
6.34061e-05
6.89731e-05
8.84793e-05
0.000134429
0.000198676
0.00021077
0.000212384
0.00021374
0.000214696
0.000215167
0.000215111
0.000198749
0.000163581
0.000126071
9.05412e-05
5.96555e-05
3.65404e-05
2.28658e-05
1.88444e-05
2.91176e-05
4.3086e-05
5.00286e-06
7.32098e-06
5.13622e-05
0.000137672
0.000117583
8.32215e-05
6.503e-05
5.92148e-05
5.82814e-05
5.79642e-05
5.80219e-05
6.02656e-05
6.50862e-05
6.97786e-05
7.11813e-05
7.15375e-05
7.94751e-05
0.000106444
0.000159287
0.0002073
0.000208913
0.000210438
0.000211686
0.00021253
0.000212898
0.00018573
0.000153247
0.000120602
8.93173e-05
6.12154e-05
3.91982e-05
2.55496e-05
2.13854e-05
3.1858e-05
4.56382e-05
4.91308e-06
7.33249e-06
5.46117e-05
0.000134598
0.000102354
7.05478e-05
5.91909e-05
5.94191e-05
6.30274e-05
6.52651e-05
6.61491e-05
6.8285e-05
7.30467e-05
7.86094e-05
8.10681e-05
7.94782e-05
7.94051e-05
9.03285e-05
0.000121733
0.000172635
0.000205577
0.000207092
0.000208477
0.000209559
0.000206778
0.000180669
0.000149365
0.000117719
8.7356e-05
6.04436e-05
3.97091e-05
2.69722e-05
2.34201e-05
3.46721e-05
4.68573e-05
4.84929e-06
7.28939e-06
5.63736e-05
0.000129905
8.70748e-05
5.89795e-05
5.26609e-05
5.73717e-05
6.56624e-05
7.27215e-05
7.74627e-05
8.13778e-05
8.57568e-05
8.9859e-05
9.10964e-05
8.79455e-05
8.31387e-05
8.31793e-05
9.50881e-05
0.000122987
0.000160514
0.000189332
0.000199597
0.000195308
0.000182111
0.000163051
0.000139809
0.000113622
8.62208e-05
6.06386e-05
4.05438e-05
2.82988e-05
2.53491e-05
3.75899e-05
4.6958e-05
4.82156e-06
7.20375e-06
5.66345e-05
0.000122435
7.59009e-05
5.23556e-05
5.01988e-05
5.8766e-05
7.01816e-05
7.91858e-05
8.54348e-05
9.10171e-05
9.70878e-05
0.000102619
0.000104775
0.00010116
9.2796e-05
8.47711e-05
8.36433e-05
9.47935e-05
0.000119889
0.000150152
0.000169263
0.000171903
0.000163253
0.000148298
0.000129309
0.000107267
8.33374e-05
6.00357e-05
4.10581e-05
2.93531e-05
2.69687e-05
4.01941e-05
4.72924e-05
4.84937e-06
7.05654e-06
5.37652e-05
0.000116188
6.84134e-05
4.62836e-05
4.5381e-05
5.62027e-05
7.20905e-05
8.64936e-05
9.66039e-05
0.000103562
0.000109407
0.000114821
0.000118338
0.000117164
0.000109568
9.74405e-05
8.6133e-05
8.13889e-05
8.71672e-05
0.000103985
0.000124924
0.000138148
0.000139178
0.000131012
0.000117052
9.92719e-05
7.91414e-05
5.88158e-05
4.15655e-05
3.06431e-05
2.88929e-05
4.31591e-05
4.73117e-05
4.92988e-06
6.92637e-06
4.93137e-05
0.000112236
6.60956e-05
4.28148e-05
4.07874e-05
5.09283e-05
6.80403e-05
8.63205e-05
0.000101883
0.000114095
0.000123675
0.000131037
0.000135631
0.000135894
0.000129974
0.000117522
0.000101301
8.64447e-05
7.78853e-05
7.87337e-05
8.91707e-05
0.000103865
0.000113375
0.000113036
0.000104419
9.03932e-05
7.34035e-05
5.59546e-05
4.09647e-05
3.14093e-05
3.05696e-05
4.57727e-05
4.68162e-05
5.07225e-06
6.78914e-06
4.40631e-05
0.000108352
6.64578e-05
4.03506e-05
3.61228e-05
4.46121e-05
6.18531e-05
8.26064e-05
0.000101597
0.000117294
0.000130756
0.000142664
0.000152178
0.000157184
0.000155148
0.000144544
0.00012648
0.00010507
8.56821e-05
7.27487e-05
6.86741e-05
7.34832e-05
8.32934e-05
9.04528e-05
8.97262e-05
8.12681e-05
6.78015e-05
5.2777e-05
3.97158e-05
3.16546e-05
3.20183e-05
4.83696e-05
4.53644e-05
5.27081e-06
6.6891e-06
3.97602e-05
0.000104534
6.87159e-05
3.90402e-05
3.16548e-05
3.71087e-05
5.2734e-05
7.62e-05
0.000101747
0.00012376
0.000140923
0.000154661
0.000166055
0.0001744
0.000177304
0.000171924
0.000156958
0.000134194
0.000108233
8.46315e-05
6.78066e-05
5.98812e-05
6.06257e-05
6.65673e-05
7.10778e-05
6.90301e-05
6.04246e-05
4.86508e-05
3.7866e-05
3.1541e-05
3.34528e-05
5.13801e-05
4.288e-05
5.46789e-06
6.65405e-06
3.68921e-05
0.000101493
7.45938e-05
4.13001e-05
3.0128e-05
3.20758e-05
4.35586e-05
6.35485e-05
8.938e-05
0.00011658
0.00014154
0.000162791
0.000180031
0.000192715
0.000199346
0.000197761
0.00018637
0.000165501
0.000137855
0.000108003
8.12187e-05
6.16672e-05
5.12251e-05
4.93613e-05
5.26952e-05
5.50578e-05
5.18495e-05
4.40334e-05
3.59175e-05
3.15943e-05
3.53834e-05
5.50931e-05
3.93608e-05
5.58312e-06
6.57875e-06
3.44963e-05
9.79051e-05
8.03545e-05
4.46281e-05
2.93446e-05
2.81739e-05
3.67501e-05
5.45804e-05
8.00756e-05
0.000108897
0.000136882
0.000162173
0.000184194
0.000202031
0.000213788
0.000217056
0.00021013
0.000193005
0.000167434
0.000136456
0.000104263
7.56692e-05
5.47095e-05
4.30268e-05
3.96471e-05
4.11406e-05
4.20447e-05
3.89746e-05
3.40215e-05
3.17373e-05
3.72752e-05
5.79547e-05
3.56955e-05
5.60622e-06
6.57098e-06
3.32969e-05
9.58675e-05
9.02748e-05
5.44507e-05
3.20773e-05
2.58578e-05
2.97774e-05
4.28887e-05
6.57021e-05
9.60126e-05
0.000128621
0.000159242
0.000186043
0.000207979
0.000223342
0.000229941
0.000226293
0.000212584
0.00019045
0.000162084
0.000129947
9.73607e-05
6.86825e-05
4.78185e-05
3.61264e-05
3.22587e-05
3.2762e-05
3.31435e-05
3.16944e-05
3.14799e-05
3.82688e-05
5.88665e-05
3.29078e-05
5.60981e-06
6.4833e-06
3.22029e-05
9.48289e-05
9.92173e-05
6.81073e-05
3.90863e-05
2.6912e-05
2.60967e-05
3.40962e-05
5.18217e-05
7.99101e-05
0.000115189
0.000151947
0.00018573
0.000213901
0.000234094
0.000243866
0.000242208
0.000230247
0.000210155
0.000184078
0.000153825
0.000121172
8.88866e-05
6.10497e-05
4.12696e-05
3.0421e-05
2.67662e-05
2.70346e-05
2.81079e-05
3.02233e-05
3.82004e-05
5.84747e-05
3.12238e-05
5.65949e-06
6.584e-06
3.32126e-05
0.000100535
0.000107614
7.85927e-05
4.79988e-05
3.1007e-05
2.57397e-05
2.93236e-05
4.22168e-05
6.67094e-05
0.000103006
0.000146432
0.000190222
0.000228857
0.000252177
0.000250944
0.00024893
0.000246132
0.000231673
0.000205205
0.000175586
0.000143791
0.000110888
7.93998e-05
5.32152e-05
3.53988e-05
2.60941e-05
2.31914e-05
2.39632e-05
2.73092e-05
3.63661e-05
5.70053e-05
3.04057e-05
5.78429e-06
6.75789e-06
3.56208e-05
0.000111637
0.000110247
7.76192e-05
5.26499e-05
3.67562e-05
2.88081e-05
2.90224e-05
3.84572e-05
6.02942e-05
9.78891e-05
0.000150406
0.000210784
0.000253266
0.00025321
0.000252459
0.000250978
0.000248752
0.000245784
0.000229674
0.000196471
0.000162953
0.000129839
9.71513e-05
6.73539e-05
4.41567e-05
2.95597e-05
2.26711e-05
2.12784e-05
2.40586e-05
3.33172e-05
5.50072e-05
3.0041e-05
5.96237e-06
7.394e-06
4.36734e-05
0.000129405
9.50099e-05
6.23998e-05
4.82069e-05
4.0092e-05
3.41269e-05
3.33343e-05
4.13815e-05
6.29438e-05
0.000104644
0.000170239
0.000242596
0.000254549
0.000254562
0.000253978
0.000252749
0.000250846
0.000248258
0.000244997
0.000216673
0.000179435
0.00014451
0.000111149
7.95838e-05
5.29411e-05
3.43576e-05
2.41312e-05
2.04461e-05
2.19593e-05
3.08226e-05
5.38615e-05
2.98166e-05
6.12785e-06
8.229e-06
6.43978e-05
0.000114377
5.92038e-05
4.37218e-05
4.19796e-05
4.22961e-05
4.20804e-05
4.50615e-05
5.72897e-05
8.59703e-05
0.000136285
0.000200272
0.000252217
0.000257184
0.000256842
0.000256043
0.000254732
0.000252866
0.000250421
0.000247399
0.000219508
0.000185016
0.000151343
0.000118698
8.69145e-05
5.86463e-05
3.77159e-05
2.54693e-05
2.04724e-05
2.13407e-05
3.035e-05
5.50786e-05
2.92948e-05
6.18272e-06
8.77756e-06
0.000110433
6.00514e-05
3.48898e-05
3.67278e-05
4.58856e-05
5.20817e-05
5.68076e-05
6.67097e-05
8.74519e-05
0.000120627
0.000159548
0.000194804
0.000221332
0.000238095
0.000246977
0.000250873
0.000251644
0.000249226
0.000241483
0.000225868
0.000203189
0.000176961
0.000149422
0.000120546
9.05067e-05
6.20951e-05
3.98606e-05
2.62881e-05
2.05832e-05
2.14993e-05
3.14166e-05
5.76567e-05
2.84583e-05
6.08513e-06
8.59861e-06
0.00011081
3.15265e-05
2.59092e-05
4.53643e-05
6.78661e-05
7.76463e-05
8.52457e-05
9.72963e-05
0.000114587
0.000134927
0.000155568
0.000174629
0.000190835
0.000203244
0.000211679
0.000216703
0.00021843
0.000216193
0.000209221
0.000197439
0.000181793
0.000163504
0.000142922
0.000119441
9.29799e-05
6.58775e-05
4.2895e-05
2.78041e-05
2.09563e-05
2.16183e-05
3.2308e-05
5.92176e-05
2.7722e-05
5.90769e-06
8.00671e-06
9.48435e-05
2.54901e-05
2.64817e-05
5.89083e-05
8.09694e-05
8.7854e-05
9.51548e-05
0.00010617
0.000119589
0.000134119
0.000148791
0.000162615
0.000174664
0.000184298
0.000191257
0.000195321
0.000196052
0.000192994
0.000186105
0.000176048
0.000163903
0.000150384
0.000135209
0.000117253
9.56401e-05
7.13657e-05
4.83313e-05
3.13257e-05
2.24052e-05
2.16182e-05
3.16692e-05
5.86463e-05
2.75401e-05
5.77004e-06
7.41968e-06
6.93577e-05
3.18163e-05
2.07111e-05
3.12593e-05
5.28042e-05
7.34283e-05
8.91664e-05
0.000103901
0.000119342
0.000134793
0.000149285
0.000162112
0.000172821
0.000181087
0.000186609
0.000188987
0.000187724
0.000182588
0.000174065
0.00016335
0.000151798
0.000140167
0.00012814
0.000114443
9.76283e-05
7.72768e-05
5.54999e-05
3.69438e-05
2.54763e-05
2.23888e-05
3.04674e-05
5.71752e-05
2.82139e-05
5.75004e-06
7.19317e-06
3.82842e-05
5.75877e-05
2.07943e-05
1.47326e-05
2.06466e-05
3.68506e-05
6.20079e-05
8.91243e-05
0.000113336
0.00013446
0.000152793
0.000168046
0.000179961
0.000188451
0.000193313
0.000194123
0.000190389
0.000182102
0.000170218
0.000156544
0.000143066
0.000131008
0.000120195
0.000109162
9.60294e-05
7.95991e-05
6.05561e-05
4.22913e-05
2.93087e-05
2.43954e-05
3.08225e-05
5.72167e-05
2.9462e-05
5.8275e-06
7.10908e-06
3.47384e-05
8.49e-05
4.54328e-05
1.84544e-05
1.27796e-05
1.54685e-05
2.58987e-05
4.67921e-05
7.73512e-05
0.000109924
0.000137933
0.000160231
0.000177321
0.000189509
0.000196784
0.000198689
0.000194673
0.000184692
0.000169764
0.000152096
0.000134578
0.000119712
0.000108368
9.92057e-05
8.93904e-05
7.65328e-05
6.06346e-05
4.45091e-05
3.2256e-05
2.72454e-05
3.36e-05
6.00975e-05
3.04062e-05
5.92166e-06
7.06578e-06
3.84552e-05
9.75855e-05
0.000102535
5.57808e-05
2.44427e-05
1.50344e-05
1.35124e-05
1.78252e-05
3.04205e-05
5.47806e-05
8.85934e-05
0.000121633
0.00014789
0.000167637
0.000181444
0.000188872
0.000189233
0.000182191
0.00016827
0.000149262
0.000128225
0.000108877
9.41411e-05
8.45426e-05
7.76504e-05
6.91883e-05
5.69852e-05
4.35584e-05
3.34172e-05
3.00771e-05
3.8133e-05
6.47732e-05
2.99646e-05
5.9376e-06
6.91139e-06
3.92886e-05
0.000107117
0.000133037
0.00013326
8.8073e-05
4.02505e-05
2.19278e-05
1.49048e-05
1.36642e-05
1.87521e-05
3.39403e-05
6.29352e-05
9.9128e-05
0.000129996
0.000152557
0.000167762
0.000175206
0.000174336
0.000165301
0.000149044
0.000127657
0.000104713
8.46235e-05
7.06469e-05
6.30338e-05
5.85165e-05
5.213e-05
4.27909e-05
3.48854e-05
3.33448e-05
4.34197e-05
6.88007e-05
2.85526e-05
5.83462e-06
6.74083e-06
3.68169e-05
0.000113113
0.000143402
0.000146944
0.000147016
0.000126128
7.15749e-05
3.70427e-05
2.14817e-05
1.4499e-05
1.38091e-05
2.14065e-05
4.28534e-05
7.889e-05
0.000114524
0.000139801
0.000155571
0.000162471
0.000160432
0.000150107
0.000132698
0.000110277
8.66277e-05
6.66233e-05
5.34569e-05
4.69475e-05
4.40823e-05
4.09416e-05
3.72857e-05
3.79061e-05
4.92619e-05
7.15287e-05
2.73574e-05
5.68005e-06
6.83732e-06
3.59866e-05