/*--------------------------------*- C++ -*----------------------------------*\
| =========                 |                                                 |
| \\      /  F ield         | OpenFOAM: The Open Source CFD Toolbox           |
|  \\    /   O peration     | Version:  v2006                                 |
|   \\  /    A nd           | Website:  www.openfoam.com                      |
|    \\/     M anipulation  |                                                 |
\*---------------------------------------------------------------------------*/
FoamFile
{
    version     2.0;
    format      ascii;
    class       volScalarField;
    location    "21";
    object      alphat;
}
// * * * * * * * * * * * * * * * * * * * * * * * * * * * * * * * * * * * * * //

dimensions      [1 -1 -1 0 0 0 0];


internalField   nonuniform List<scalar> 
78750
(
0.00123654
0.00268838
0.00182965
0.000647287
0.000177104
1.62391e-05
4.49323e-05
2.98275e-05
4.41665e-05
3.25808e-05
4.88516e-05
4.34132e-05
5.18567e-05
5.24702e-05
5.74161e-05
6.0021e-05
6.34674e-05
6.65625e-05
6.94489e-05
7.21624e-05
7.46533e-05
7.70023e-05
7.93106e-05
8.1655e-05
8.39366e-05
8.57126e-05
8.64116e-05
8.56225e-05
8.30919e-05
7.87098e-05
7.23902e-05
6.35725e-05
4.87355e-05
1.66179e-05
5.9465e-07
0.000142844
0.000137529
0.000119574
2.44602e-06
5.14151e-05
4.77312e-05
5.99802e-05
7.00503e-05
7.79583e-05
9.26112e-05
0.000103885
0.000121108
0.000138311
0.000157083
0.00017466
0.000189721
0.000201554
0.000209914
0.00021525
0.000217928
0.000218334
0.000216879
0.000214095
0.000210444
0.000206226
0.000201402
0.000195347
0.000187422
0.000177258
0.000163521
0.000142031
0.000103841
4.83382e-05
1.48772e-05
1.7237e-06
1.06457e-05
1.26514e-05
3.86933e-05
3.87064e-05
7.42432e-05
0.000171124
9.63613e-05
7.12839e-05
6.40067e-05
5.81754e-05
5.6981e-05
5.9533e-05
6.64137e-05
7.83507e-05
9.63143e-05
0.000120292
0.000148663
0.000178097
0.000204749
0.000226118
0.00024014
0.000245878
0.000244656
0.000239106
0.000231489
0.000222597
0.000212308
0.000200375
0.000185887
0.000166646
0.000138066
9.43537e-05
4.52525e-05
1.88576e-05
2.94185e-06
1.22917e-06
1.14723e-05
2.06246e-05
3.63808e-05
6.22068e-05
9.00978e-05
0.000110787
0.000109941
9.25294e-05
7.25571e-05
5.67805e-05
4.61111e-05
3.98289e-05
3.7531e-05
3.88413e-05
4.31771e-05
5.15832e-05
6.6795e-05
8.96825e-05
0.000118283
0.000153993
0.000196674
0.000233215
0.000249172
0.000248303
0.000240053
0.000228187
0.000212767
0.000192721
0.00016588
0.000128186
7.93758e-05
3.72158e-05
1.94422e-05
4.05525e-06
3.09571e-06
2.3014e-05
4.16655e-05
7.27317e-05
0.000111963
0.000118413
0.000101397
8.67713e-05
8.10061e-05
8.36474e-05
9.21692e-05
9.76863e-05
8.67795e-05
6.44951e-05
4.66581e-05
3.73505e-05
3.71872e-05
5.04792e-05
7.62139e-05
7.62858e-05
7.30715e-05
9.23888e-05
0.000134576
0.000183675
0.000211542
0.00021699
0.000210621
0.000195999
0.000173348
0.000142966
0.000105694
6.63639e-05
3.69759e-05
2.68201e-05
5.19409e-06
1.91892e-06
1.30398e-05
3.22887e-05
6.37796e-05
0.000103473
0.000136557
0.000138532
0.000116194
9.34688e-05
7.81855e-05
6.83551e-05
6.11337e-05
5.5853e-05
5.56936e-05
6.66872e-05
9.18068e-05
0.000112338
0.000111018
7.09749e-05
4.08058e-05
4.0204e-05
8.07389e-05
7.31127e-05
8.21649e-05
0.000131034
0.000207207
0.000261718
0.000263804
0.000229911
0.000180058
0.00012262
6.80615e-05
3.48426e-05
2.75629e-05
6.08549e-06
6.69635e-06
3.20262e-05
0.000127642
0.000190136
0.000137868
9.04376e-05
6.00321e-05
4.36139e-05
3.77373e-05
4.07267e-05
4.99042e-05
5.97033e-05
6.80946e-05
7.79139e-05
8.97109e-05
9.01631e-05
6.85344e-05
6.04496e-05
0.00010224
0.000204285
0.000207512
0.000175662
0.000201241
0.000268491
0.000313581
0.000304505
0.000265245
0.000220167
0.00017731
0.000135478
9.36137e-05
5.71563e-05
3.62224e-05
3.99748e-05
7.2762e-06
8.55533e-06
5.46146e-05
0.000121233
0.000127151
0.000105984
7.06168e-05
4.49792e-05
3.16265e-05
2.76611e-05
3.48728e-05
5.31571e-05
6.858e-05
7.09611e-05
6.16422e-05
4.9453e-05
4.59099e-05
6.52681e-05
0.000141666
0.000194857
0.000157561
0.000148534
0.000180275
0.000232894
0.000261712
0.00025508
0.000230557
0.000201561
0.000173342
0.000145663
0.000115508
8.17405e-05
5.09293e-05
3.51409e-05
4.73237e-05
7.88463e-06
6.85289e-06
3.50375e-05
0.000122476
0.000173217
0.000148844
0.000106093
7.20359e-05
4.99369e-05
3.57306e-05
2.72933e-05
2.63995e-05
3.24371e-05
4.18832e-05
6.76526e-05
0.000124271
0.000194877
0.00025216
0.000259181
0.000242199
0.000215241
0.000206426
0.000214887
0.000227307
0.000229844
0.000219789
0.000201462
0.000179086
0.000154714
0.00012841
9.95092e-05
6.95861e-05
4.53385e-05
3.65589e-05
6.25371e-05
8.52737e-06
7.74752e-06
4.45601e-05
0.000135765
0.000153665
0.000130778
0.000100268
7.2335e-05
5.11432e-05
3.74533e-05
2.63565e-05
1.96499e-05
2.49728e-05
3.8659e-05
4.53253e-05
6.10137e-05
0.000130018
0.000249993
0.000257856
0.000266694
0.000276052
0.000267134
0.000253463
0.000246813
0.000236013
0.00021659
0.000191633
0.000165067
0.000138684
0.000112498
8.61667e-05
6.11554e-05
4.2837e-05
4.09156e-05
8.42815e-05
8.99434e-06
7.91252e-06
4.82558e-05
0.000130166
0.000146913
0.000123461
8.79311e-05
6.17567e-05
4.53204e-05
3.37066e-05
2.47833e-05
1.89416e-05
2.23487e-05
4.56701e-05
9.23288e-05
0.000126815
0.000147188
0.00016544
0.000180265
0.000190456
0.000198292
0.000203526
0.000205026
0.000202296
0.000195006
0.000183379
0.000167922
0.000148792
0.000126268
0.000101544
7.6807e-05
5.50136e-05
4.09631e-05
4.49445e-05
0.000102252
9.09194e-06
5.83622e-06
3.50646e-05
0.000108825
0.000164563
0.000173123
0.000152004
0.000115632
8.29776e-05
6.10532e-05
4.62089e-05
3.46334e-05
2.51856e-05
1.87454e-05
1.63424e-05
2.16262e-05
4.90899e-05
0.000108134
0.000141352
0.000140524
0.000133552
0.000135725
0.000144114
0.000151911
0.000155387
0.00015421
0.00014912
0.000139464
0.000123063
9.8999e-05
7.16073e-05
4.92223e-05
3.82853e-05
4.76979e-05
0.00011179
9.2147e-06
6.26896e-06
3.06143e-05
9.16345e-05
0.000137584
0.00013924
0.000123929
0.00010856
9.98276e-05
9.67162e-05
9.47722e-05
8.9135e-05
7.71113e-05
6.14724e-05
4.73273e-05
3.70181e-05
3.01334e-05
2.36237e-05
2.13489e-05
3.48703e-05
6.86481e-05
0.000107712
0.000134685
0.000147992
0.000146412
0.000133667
0.000119894
0.000110264
0.000103002
9.201e-05
7.1871e-05
4.91092e-05
3.7957e-05
5.03605e-05
0.000117462
9.41718e-06
7.55236e-06
3.94364e-05
0.000125207
0.000169094
0.000163972
0.00013569
0.000102095
7.72682e-05
6.26992e-05
5.54053e-05
5.32901e-05
5.45178e-05
5.44706e-05
4.7085e-05
3.51582e-05
2.6855e-05
2.86238e-05
7.52927e-05
0.000101914
0.000124455
0.000189345
0.000177956
0.000131857
0.000114883
0.000111312
0.000105164
9.36951e-05
8.12656e-05
7.04875e-05
5.9149e-05
4.61774e-05
4.08429e-05
6.01691e-05
0.000117544
9.65123e-06
7.92355e-06
3.93529e-05
0.000114452
0.00015743
0.000153934
0.0001299
0.000104827
9.04743e-05
8.53819e-05
8.38225e-05
8.2861e-05
8.28107e-05
8.0922e-05
6.97791e-05
5.04912e-05
3.41651e-05
2.44719e-05
2.10249e-05
2.97966e-05
5.43245e-05
7.2658e-05
0.000124507
0.000159067
0.000152769
0.000141843
0.000130405
0.000110594
8.49038e-05
6.37633e-05
5.10759e-05
4.50019e-05
4.80706e-05
7.67581e-05
0.000106701
9.72749e-06
8.07599e-06
4.16182e-05
0.000129508
0.000168409
0.000149593
0.000105436
7.17603e-05
5.63255e-05
5.16774e-05
5.12029e-05
5.1001e-05
5.16271e-05
5.71002e-05
7.00666e-05
8.47695e-05
8.33669e-05
5.72984e-05
3.22009e-05
2.10037e-05
2.78587e-05
5.66864e-05
7.52589e-05
0.000104479
0.000124972
0.000124942
0.000120717
0.000113789
9.3773e-05
6.68311e-05
4.77393e-05
4.03878e-05
4.65584e-05
8.0544e-05
9.98658e-05
9.75209e-06
7.74216e-06
3.8324e-05
0.000115358
0.000161414
0.000145886
0.000100414
6.84504e-05
5.72425e-05
5.89516e-05
6.81968e-05
7.87381e-05
8.04468e-05
6.94973e-05
5.25589e-05
3.48759e-05
2.04565e-05
1.50235e-05
2.55786e-05
4.82771e-05
5.80518e-05
7.56845e-05
8.85718e-05
8.30557e-05
7.654e-05
6.61013e-05
5.94818e-05
6.31075e-05
7.09028e-05
6.64457e-05
4.95808e-05
3.83655e-05
4.19241e-05
7.42362e-05
0.000101557
9.91021e-06
8.35731e-06
4.03219e-05
0.000118752
0.00015455
0.000126176
7.75688e-05
5.06566e-05
4.20921e-05
4.18112e-05
4.44338e-05
5.12295e-05
6.92136e-05
0.000100135
0.000116529
8.96961e-05
4.70386e-05
2.35755e-05
1.52916e-05
2.02406e-05
4.6497e-05
6.27496e-05
0.000119173
0.000115641
6.96503e-05
4.32552e-05
3.4104e-05
3.47852e-05
4.30067e-05
5.24383e-05
4.75949e-05
3.65418e-05
3.88785e-05
7.18286e-05
0.000108166
1.03274e-05
8.3396e-06
3.88536e-05
0.000116232
0.000148666
0.000111118
6.33245e-05
4.22399e-05
3.90565e-05
4.64167e-05
5.81857e-05
6.43292e-05
6.2257e-05
5.98036e-05
6.27329e-05
6.99988e-05
7.00199e-05
5.3325e-05
3.46483e-05
2.29414e-05
1.55775e-05
2.18525e-06
2.4159e-05
6.65547e-05
9.51654e-05
7.74362e-05
5.4989e-05
4.06133e-05
3.74952e-05
4.34602e-05
4.66542e-05
4.07925e-05
4.60255e-05
8.72402e-05
0.000102804
1.06238e-05
9.23648e-06
4.26295e-05
0.00012214
0.000140999
9.21055e-05
4.94583e-05
3.37833e-05
3.24543e-05
3.88834e-05
5.11165e-05
6.86683e-05
8.79078e-05
0.00010164
0.000106794
0.000105792
9.9749e-05
8.71522e-05
6.98799e-05
5.42818e-05
4.78243e-05
6.90577e-05
0.000126134
8.19624e-05
7.94038e-05
8.21899e-05
6.8801e-05
4.89341e-05
3.657e-05
3.47719e-05
3.93782e-05
4.42227e-05
5.85548e-05
0.000108241
8.81619e-05
1.05565e-05
9.76184e-06
4.80199e-05
0.000133865
0.00012565
6.97314e-05
3.60315e-05
2.56722e-05
2.88867e-05
4.29082e-05
6.00344e-05
7.00001e-05
7.40529e-05
7.8619e-05
8.71423e-05
9.93183e-05
0.000111911
0.000119999
0.000118741
0.000107864
9.5569e-05
9.21628e-05
0.000100701
0.000104032
8.1907e-05
6.70493e-05
6.2629e-05
5.4273e-05
4.11546e-05
3.35756e-05
3.5215e-05
4.68496e-05
7.67998e-05
0.000131671
7.50266e-05
1.03336e-05
9.54301e-06
4.60665e-05
0.000129042
0.000132937
8.18561e-05
4.28952e-05
2.74674e-05
2.55505e-05
3.40328e-05
5.10122e-05
7.02578e-05
8.34601e-05
8.84267e-05
8.9324e-05
9.02571e-05
9.16537e-05
9.13413e-05
8.84976e-05
8.47469e-05
8.08833e-05
7.50775e-05
6.44225e-05
4.94965e-05
3.82455e-05
3.94338e-05
5.1392e-05
6.00256e-05
5.19335e-05
3.92145e-05
3.50341e-05
4.38961e-05
7.61521e-05
0.000132884
7.3191e-05
1.01673e-05
9.81596e-06
4.80105e-05
0.000137333
0.000129105
7.46686e-05
4.06722e-05
2.66011e-05
2.37297e-05
3.00978e-05
4.42694e-05
6.15758e-05
7.64091e-05
8.48171e-05
8.54768e-05
8.17115e-05
7.88464e-05
7.81153e-05
7.66797e-05
7.09974e-05
6.06804e-05
4.86403e-05
3.70064e-05
2.62764e-05
1.88288e-05
2.49205e-05
4.63543e-05
7.0705e-05
7.41698e-05
5.54505e-05
3.97141e-05
3.73007e-05
5.08206e-05
9.455e-05
7.9685e-05
1.03073e-05
9.69443e-06
4.58327e-05
0.000138063
0.000120125
6.42456e-05
3.79632e-05
2.61458e-05
2.20557e-05
2.69423e-05
4.24968e-05
6.1838e-05
7.2213e-05
7.07626e-05
6.18962e-05
5.31998e-05
5.49676e-05
7.52951e-05
0.000105194
0.000106769
8.12625e-05
5.51773e-05
3.75864e-05
2.68105e-05
2.14026e-05
2.52406e-05
4.33272e-05
7.70326e-05
0.000106221
8.70826e-05
4.8008e-05
3.25929e-05
3.90515e-05
7.94295e-05
9.63745e-05
1.12267e-05
1.05834e-05
5.09776e-05
0.000149954
9.00332e-05
4.18303e-05
2.86086e-05
2.54276e-05
2.33212e-05
2.52818e-05
3.63793e-05
5.52703e-05
7.00499e-05
7.1885e-05
6.39034e-05
5.40852e-05
5.2882e-05
7.52966e-05
0.000133845
0.000165814
0.000133341
9.40464e-05
6.66648e-05
4.92749e-05
3.82601e-05
3.47285e-05
4.36962e-05
7.16935e-05
0.000111876
0.000101351
5.11314e-05
3.27747e-05
4.43599e-05
0.000105143
0.00010489
1.20527e-05
1.11412e-05
6.02069e-05
0.000131996
4.68679e-05
2.06463e-05
1.55305e-05
1.82873e-05
2.49238e-05
3.29751e-05
4.25399e-05
5.1786e-05
5.7409e-05
5.94988e-05
6.06609e-05
6.18973e-05
5.87004e-05
5.01567e-05
5.27417e-05
8.71977e-05
0.000152086
0.000168144
0.000133175
9.03646e-05
5.97739e-05
4.46968e-05
4.42963e-05
5.91042e-05
8.69154e-05
9.36025e-05
6.22922e-05
4.7583e-05
6.994e-05
0.000153527
8.26377e-05
1.16274e-05
1.11902e-05
7.07012e-05
9.52407e-05
3.19723e-05
1.55579e-05
1.37453e-05
1.7611e-05
2.2784e-05
2.86839e-05
3.26854e-05
3.42966e-05
3.53083e-05
3.46089e-05
2.77605e-05
1.76757e-05
1.24993e-05
1.70811e-05
4.2899e-05
0.000110151
0.000197573
0.000226414
0.000196163
0.00013738
8.74339e-05
5.88479e-05
4.7722e-05
4.93594e-05
6.06251e-05
7.48463e-05
7.94914e-05
8.37211e-05
0.000117957
0.000164741
6.19306e-05
1.0477e-05
1.06e-05
6.61126e-05
9.26217e-05
3.43358e-05
1.53285e-05
9.8985e-06
1.1462e-05
1.55411e-05
1.60426e-05
1.28331e-05
9.24818e-06
7.3373e-06
7.96485e-06
1.06498e-05
1.61999e-05
2.70489e-05
5.06111e-05
9.96157e-05
0.000168236
0.000211858
0.000210997
0.000185018
0.000149726
0.000114217
8.47793e-05
6.48693e-05
5.48767e-05
5.32153e-05
5.84102e-05
7.19437e-05
9.92685e-05
0.000139139
0.000157798
6.26803e-05
1.01695e-05
1.0128e-05
5.23979e-05
0.000137092
8.7094e-05
3.48604e-05
1.6309e-05
9.52354e-06
6.28745e-06
2.84314e-06
2.42785e-06
2.1829e-06
3.20228e-07
5.51707e-06
2.10641e-05
4.84291e-05
8.39606e-05
0.000120443
0.000148808
0.000164116
0.000166113
0.000157548
0.000143362
0.000128733
0.000116736
0.000107313
9.79715e-05
8.6508e-05
7.39223e-05
6.3646e-05
5.95591e-05
6.6892e-05
9.26872e-05
0.000132931
7.0929e-05
1.07846e-05
1.01114e-05
4.56016e-05
0.000133545
0.000111444
5.68889e-05
2.8393e-05
1.55591e-05
8.5701e-06
2.66332e-06
1.53794e-06
1.67767e-06
6.82503e-07
1.48223e-06
1.51236e-05
6.95537e-05
0.000221007
0.000282215
0.000273333
0.000237947
0.000200002
0.000167029
0.000140984
0.000122326
0.000110882
0.000106164
0.000106603
0.000107805
0.000101906
8.37433e-05
6.24711e-05
5.47842e-05
7.29061e-05
0.000125363
7.61613e-05
1.15697e-05
1.04938e-05
4.34274e-05
0.000128238
9.26654e-05
5.30265e-05
3.7071e-05
2.418e-05
1.37047e-05
6.55047e-06
2.1221e-06
2.52017e-06
8.47517e-07
4.93641e-07
2.24482e-06
2.29823e-05
0.000104163
0.000215687
0.0002578
0.000271264
0.00025568
0.000217255
0.000177227
0.000146295
0.000124221
0.00010854
9.77743e-05
9.0671e-05
8.5379e-05
7.97944e-05
7.43401e-05
7.74859e-05
0.000105051
0.000149704
6.97301e-05
1.15219e-05
1.16412e-05
4.93141e-05
0.000124898
6.38473e-05
3.23292e-05
2.66368e-05
2.61714e-05
1.7439e-05
8.82934e-06
2.01801e-06
1.41818e-06
7.26601e-07
1.51956e-06
9.50433e-07
6.05978e-06
3.27441e-05
0.000110764
0.000180548
0.000212028
0.000228353
0.000225897
0.000205316
0.000179136
0.000154456
0.000131167
0.00010883
8.90505e-05
7.43084e-05
6.65636e-05
6.853e-05
8.66091e-05
0.000126179
0.000155405
6.40769e-05
1.07526e-05
1.2291e-05
6.21742e-05
0.000106508
4.8716e-05
2.60023e-05
2.01789e-05
1.84885e-05
1.30417e-05
6.14966e-06
4.25406e-07
1.20191e-06
2.32394e-06
7.45993e-07
2.81998e-07
1.3422e-06
1.08504e-05
5.24012e-05
0.000172061
0.000271798
0.000286471
0.000266367
0.000236852
0.00021224
0.000194432
0.000173695
0.000143651
0.000113337
9.00236e-05
7.30884e-05
6.33544e-05
6.66328e-05
9.19817e-05
0.000134798
6.36374e-05
1.03938e-05
1.1838e-05
7.06409e-05
9.24656e-05
5.20008e-05
3.12781e-05
2.04618e-05
1.29722e-05
6.38988e-06
8.56326e-07
9.69127e-07
2.1721e-06
1.33254e-07
8.47916e-07
3.89698e-07
6.80643e-07
8.39433e-06
4.02643e-05
0.000144363
0.000273741
0.000296448
0.000276809
0.000252161
0.000229439
0.000201215
0.000161016
0.000130373
0.000116477
0.000103674
8.38607e-05
6.59108e-05
6.19574e-05
8.17971e-05
0.000126838
7.84092e-05
1.17827e-05
1.04252e-05
5.72532e-05
0.000115092
9.34812e-05
5.6335e-05
3.11733e-05
1.80653e-05
9.4968e-06
2.51904e-06
7.10539e-08
1.46e-06
2.13737e-06
9.36711e-07
9.20608e-07
2.72797e-06
1.45102e-05
5.19591e-05
0.00017572
0.000351577
0.000355108
0.000356
0.00028439
0.000164576
9.06353e-05
6.73298e-05
7.61073e-05
9.76429e-05
0.000107503
9.9856e-05
9.0317e-05
9.5661e-05
0.00012742
0.000169381
8.5882e-05
1.25998e-05
9.61414e-06
4.89196e-05
0.000117623
0.000130672
0.000104948
6.81109e-05
4.31033e-05
2.77267e-05
1.6134e-05
6.43671e-06
7.44427e-07
1.31827e-06
1.78355e-06
4.49246e-07
3.79184e-07
7.71443e-06
2.62408e-05
6.64927e-05
0.000166196
0.000400086
0.000417847
0.000243218
0.00012564
7.07235e-05
5.17301e-05
5.66113e-05
7.46136e-05
9.30601e-05
0.000107402
0.000122009
0.000141696
0.000156785
0.000127522
4.71868e-05
1.00349e-05
8.69575e-06
4.20208e-05
0.000108232
0.000140507
0.000151297
0.000144241
0.000107492
6.98718e-05
4.60392e-05
2.98883e-05
1.71953e-05
7.30365e-06
2.78316e-06
9.85398e-07
4.25381e-07
4.42523e-07
2.7943e-06
1.39268e-05
3.0981e-05
5.94968e-05
0.000105888
0.000166976
0.000179432
0.000140873
0.000113191
0.000105493
0.000109125
0.000116041
0.000125732
0.000135379
0.00013877
0.000129401
8.17712e-05
2.65479e-05
6.2297e-06
7.8975e-06
3.49787e-05
0.000103491
0.00015786
0.000167376
0.0001652
0.000164861
0.000155762
0.000122805
8.50748e-05
5.76424e-05
3.83001e-05
2.35733e-05
1.17869e-05
2.74993e-06
5.96815e-07
2.33603e-06
4.38631e-07
9.9768e-07
8.386e-06
1.84431e-05
3.36216e-05
5.23819e-05
7.59545e-05
0.000102384
0.000132114
0.00016389
0.000193093
0.000214198
0.000222931
0.000202225
0.000138292
6.5159e-05
2.16377e-05
3.86432e-06
7.94687e-06
3.3671e-05
9.65087e-05
0.000154397
0.000162232
0.000144373
0.000121365
0.000107949
0.000107302
0.000116086
0.000125591
0.000118145
8.94138e-05
5.98754e-05
3.79733e-05
2.1922e-05
9.77424e-06
3.54495e-07
1.56949e-06
6.07115e-07
5.96726e-07
2.44882e-06
9.20058e-06
1.68488e-05
2.75504e-05
4.01412e-05
5.61771e-05
7.74832e-05
0.00010816
0.000135815
0.000136783
9.18938e-05
3.89168e-05
1.50985e-05
3.24188e-06
9.45236e-06
4.09099e-05
0.0001122
0.000164759
0.000172561
0.000162195
0.000141812
0.000115583
9.14054e-05
7.53358e-05
6.92386e-05
7.5535e-05
9.86327e-05
0.000135992
0.000149441
0.000104219
5.81565e-05
3.12792e-05
1.55364e-05
5.30115e-06
2.93882e-06
1.24689e-08
2.79509e-06
2.96828e-06
2.86622e-06
6.56837e-06
1.20146e-05
1.685e-05
2.32111e-05
3.60157e-05
4.31019e-05
5.22748e-05
1.82802e-05
6.73952e-06
3.61412e-06
1.1048e-05
5.28477e-05
0.000147984
0.000180895
0.000173063
0.000156504
0.000141343
0.000132246
0.000127333
0.00011869
0.000102082
8.51599e-05
7.76802e-05
8.48022e-05
0.000109878
0.000149378
0.000168834
0.000115594
5.42399e-05
2.54157e-05
1.1708e-05
3.19201e-06
1.30538e-06
1.52135e-06
1.17751e-06
3.65432e-06
1.1271e-06
4.19141e-06
2.44774e-06
2.62609e-06
5.61133e-06
7.50121e-06
3.14984e-06
7.00691e-06
5.26451e-06
1.16213e-05
5.8302e-05
0.000155373
0.000175515
0.000162107
0.000138007
0.000112665
9.51548e-05
9.09553e-05
0.000101247
0.000121348
0.000135702
0.00013197
0.000120292
0.000114435
0.000117001
0.000121822
0.000114131
8.08044e-05
4.38185e-05
2.26305e-05
1.12739e-05
3.48846e-06
6.42359e-07
1.66642e-06
3.53316e-06
6.4031e-06
6.8187e-07
3.92226e-06
5.35694e-06
3.2515e-06
3.30626e-07
8.45046e-07
1.17367e-05
8.74791e-06
1.13226e-05
5.64765e-05
0.00014971
0.000168898
0.00015728
0.000136526
0.00011417
9.56507e-05
8.52505e-05
8.58915e-05
9.88465e-05
0.000121945
0.000145754
0.000157035
0.000151868
0.000137659
0.000119881
9.71439e-05
6.9714e-05
4.50481e-05
2.83411e-05
1.8119e-05
1.12329e-05
5.73038e-06
1.51725e-07
2.06865e-06
4.81106e-06
8.88211e-06
2.60073e-06
3.33275e-06
4.62794e-07
3.65623e-06
9.4368e-07
2.06438e-06
1.19139e-05
1.10716e-05
5.44343e-05
0.000151071
0.000170453
0.000154653
0.000131774
0.00011227
9.89241e-05
9.09308e-05
8.87211e-05
9.41355e-05
0.000107782
0.000126625
0.000143431
0.000149729
0.000140838
0.000119395
9.31751e-05
6.90672e-05
5.04923e-05
3.81913e-05
3.12548e-05
2.78756e-05
2.58925e-05
2.3009e-05
1.87241e-05
1.28732e-05
5.8898e-06
6.97907e-06
4.66523e-06
6.76634e-06
1.59017e-06
1.4691e-06
2.21994e-05
1.27682e-05
1.09875e-05
5.31047e-05
0.000150282
0.000169047
0.00014683
0.00011801
9.79119e-05
8.88375e-05
8.69578e-05
8.88032e-05
9.39756e-05
0.000103637
0.000117096
0.000130091
0.000136269
0.000131143
0.000115829
9.64956e-05
7.90287e-05
6.62129e-05
5.87913e-05
5.67801e-05
5.91081e-05
6.2756e-05
6.36723e-05
5.95444e-05
5.04029e-05
3.77795e-05
2.21802e-05
5.37869e-06
3.16928e-06
2.27274e-06
1.03841e-05
8.56572e-05
1.21932e-05
1.09438e-05
5.16887e-05
0.000144419
0.000162239
0.000137573
0.000105508
8.39584e-05
7.50107e-05
7.50991e-05
8.08907e-05
8.98421e-05
0.000100433
0.000111498
0.00012077
0.000125101
0.000122789
0.000115173
0.000105458
9.65567e-05
9.05144e-05
8.89624e-05
9.2984e-05
0.000101767
0.000110877
0.000113171
0.000103915
8.505e-05
6.1037e-05
3.45005e-05
1.05626e-05
7.49387e-07
7.72601e-07
1.93244e-05
9.01761e-05
1.11475e-05
1.09693e-05
5.15967e-05
0.000142484
0.000156448
0.000127316
9.45965e-05
7.53346e-05
6.77894e-05
6.76162e-05
7.29109e-05
8.25167e-05
9.42994e-05
0.000105392
0.000113404
0.000117226
0.000117468
0.000116066
0.000114916
0.000114959
0.000116612
0.000120772
0.0001283
0.000137789
0.000143446
0.000137596
0.000119
9.41063e-05
6.73866e-05
3.87887e-05
1.41284e-05
3.0735e-06
2.79799e-06
2.6311e-05
5.7659e-05
1.00979e-05
1.09629e-05
5.02526e-05
0.000141432
0.000153123
0.000116631
8.25875e-05
6.68581e-05
6.28253e-05
6.38369e-05
6.77946e-05
7.50477e-05
8.51525e-05
9.57859e-05
0.000104162
0.000109163
0.000111877
0.000114375
0.000118171
0.000123485
0.000129834
0.00013679
0.000143734
0.000148351
0.000146243
0.000134521
0.000115622
9.44056e-05
7.18428e-05
4.51989e-05
1.94684e-05
6.43938e-06
5.83061e-06
3.05835e-05
4.82673e-05
9.40179e-06
1.09871e-05
4.7907e-05
0.000135605
0.000147157
0.000105858
7.09822e-05
5.74611e-05
5.64802e-05
6.01993e-05
6.484e-05
7.04833e-05
7.81655e-05
8.73891e-05
9.62088e-05
0.000102978
0.000107672
0.000111492
0.000115519
0.000120006
0.000124882
0.000130226
0.000135688
0.000138952
0.000135683
0.000123483
0.00010627
9.02265e-05
7.55174e-05
5.55042e-05
2.88352e-05
1.11879e-05
8.91807e-06
3.14728e-05
4.91412e-05
9.08471e-06
1.11305e-05
4.61077e-05
0.000128758
0.000139372
9.6445e-05
6.2077e-05
4.96628e-05
4.98567e-05
5.53809e-05
6.18569e-05
6.7967e-05
7.45456e-05
8.22198e-05
9.03222e-05
9.75313e-05
0.000102987
0.00010671
0.000109064
0.000110401
0.000111516
0.000113773
0.000117079
0.000117637
0.000111148
0.000100484
9.23678e-05
8.84871e-05
8.46498e-05
7.23861e-05
4.54658e-05
1.95165e-05
1.26414e-05
3.07381e-05
5.76813e-05
9.09317e-06
1.13552e-05
4.55336e-05
0.000125841
0.000133409
8.84581e-05
5.48906e-05
4.35914e-05
4.47102e-05
5.13411e-05
5.9121e-05
6.63082e-05
7.32254e-05
8.04205e-05
8.75973e-05
9.37717e-05
9.79269e-05
9.95381e-05
9.86462e-05
9.59241e-05
9.26223e-05
8.91525e-05
8.48115e-05
8.13423e-05
8.2475e-05
8.91968e-05
9.89532e-05
0.000107257
0.000108909
9.76622e-05
6.78975e-05
3.24732e-05
1.86029e-05
3.29707e-05
7.33324e-05
9.41727e-06
1.151e-05
4.53488e-05
0.000124522
0.000130094
8.49219e-05
5.03753e-05
3.83502e-05
3.93388e-05
4.66768e-05
5.5446e-05
6.33535e-05
7.07484e-05
7.81943e-05
8.51091e-05
9.0046e-05
9.14603e-05
8.83094e-05
8.04762e-05
6.94923e-05
5.89743e-05
5.40044e-05
5.7925e-05
7.17057e-05
9.36139e-05
0.000117809
0.000136313
0.000143518
0.000137271
0.000116273
8.0517e-05
4.3364e-05
2.74142e-05
4.30657e-05
8.44974e-05
9.87458e-06
1.16057e-05
4.55157e-05
0.000123057
0.000129871
8.85031e-05
5.09308e-05
3.537e-05
3.41916e-05
4.11204e-05
5.08968e-05
5.9848e-05
6.76647e-05
7.49966e-05
8.09518e-05
8.29561e-05
7.77298e-05
6.3756e-05
4.62116e-05
3.52388e-05
3.53803e-05
4.64165e-05
6.99886e-05
0.00010508
0.000141745
0.000167372
0.000176409
0.000168992
0.000146475
0.000112268
7.5093e-05
4.71569e-05
3.86719e-05
6.50472e-05
7.68691e-05
1.0046e-05
1.16103e-05
4.57258e-05
0.000122602
0.000132337
9.66348e-05
5.53793e-05
3.43483e-05
2.94327e-05
3.43872e-05
4.44801e-05
5.50484e-05
6.40878e-05
7.13421e-05
7.47296e-05
6.95291e-05
5.27445e-05
3.25296e-05
2.21627e-05
2.40416e-05
3.73531e-05
6.63316e-05
0.000113176
0.000160702
0.000187314
0.000192748
0.000185954
0.00017064
0.000144786
0.000108943
7.39526e-05
5.27398e-05
5.36742e-05
9.54221e-05
6.82108e-05
9.97159e-06
1.14924e-05
4.55457e-05
0.000123404
0.000137714
0.000108103
6.43317e-05
3.62479e-05
2.65287e-05
2.84582e-05
3.75812e-05
4.9092e-05
5.9113e-05
6.5469e-05
6.41492e-05
5.02368e-05
2.90678e-05
1.60252e-05
1.55304e-05
2.58447e-05
5.1005e-05
0.000101612
0.000171178
0.000217274
0.000222781
0.000203528
0.000176885
0.000152508
0.000131737
0.000109984
8.57677e-05
6.96502e-05
7.69515e-05
0.000122481
6.84676e-05
9.99475e-06
1.13748e-05
4.5315e-05
0.000124439
0.000141145
0.000114127
7.2143e-05
3.99412e-05
2.56972e-05
2.42169e-05
3.16551e-05
4.37358e-05
5.48749e-05
6.0235e-05
5.43983e-05
3.58739e-05
1.71931e-05
1.03155e-05
1.49409e-05
3.207e-05
7.0648e-05
0.000132464
0.000193583
0.000235663
0.000251726
0.000236785
0.000197377
0.000151515
0.000115674
9.43337e-05
8.38264e-05
8.25294e-05
9.86041e-05
0.000134216
6.42522e-05
9.91262e-06
1.13811e-05
4.63245e-05
0.000128054
0.00014106
0.000110286
7.11642e-05
4.20908e-05
2.64779e-05
2.23748e-05
2.79911e-05
4.02389e-05
5.2538e-05
5.76989e-05
4.97543e-05
3.00168e-05
1.30655e-05
8.15368e-06
1.43153e-05
3.70216e-05
0.000100996
0.000185564
0.000203718
0.000196225
0.000196556
0.000209413
0.000213429
0.000184116
0.000133855
9.44124e-05
7.72893e-05
8.06374e-05
0.000104794
0.000135147
6.13974e-05
9.98006e-06
1.15177e-05
4.91891e-05
0.000133174
0.000137893
0.000101429
6.35872e-05
4.00291e-05
2.70952e-05
2.23788e-05
2.66738e-05
3.91307e-05
5.29946e-05
5.95673e-05
5.2446e-05
3.2646e-05
1.42141e-05
7.52241e-06
1.14996e-05
2.9621e-05
9.22181e-05
0.000269239
0.000306786
0.000242052
0.000178361
0.0001444
0.000138915
0.000149093
0.000147409
0.000122644
0.000100628
9.99103e-05
0.000123123
0.000148735
6.95208e-05
1.05681e-05
1.16666e-05
5.35453e-05
0.000137374
0.000132407
9.32559e-05
5.68086e-05
3.64747e-05
2.70481e-05
2.38871e-05
2.76794e-05
3.9871e-05
5.49015e-05
6.40746e-05
6.10297e-05
4.38093e-05
2.21935e-05
1.01219e-05
9.54614e-06
1.92346e-05
4.64378e-05
0.0001203
0.000267315
0.000331675
0.000266492
0.000172259
0.000113451
9.2724e-05
9.53774e-05
0.000108546
0.000121305
0.000134811
0.00015201
0.000151108
5.81369e-05
9.99455e-06
1.16775e-05
5.72321e-05
0.000138158
0.000128155
9.0991e-05
5.57952e-05
3.52708e-05
2.6628e-05
2.52362e-05
2.91519e-05
3.9355e-05
5.33591e-05
6.44606e-05
6.72974e-05
5.86617e-05
4.02579e-05
2.14416e-05
1.21834e-05
1.34859e-05
2.40022e-05
4.49193e-05
7.84988e-05
0.000126967
0.00017984
0.000197643
0.000170384
0.00013067
0.000103107
9.44253e-05
0.000103332
0.000123402
0.000138218
0.000111748
3.6739e-05
7.95052e-06
1.1561e-05
5.75838e-05
0.000138962
0.000132656
0.00010076
6.58209e-05
4.10267e-05
2.83059e-05
2.48659e-05
2.78628e-05
3.51325e-05
4.51235e-05
5.48783e-05
6.13888e-05
6.26748e-05
5.76592e-05
4.65741e-05
3.20865e-05
2.0742e-05
1.73374e-05
2.12708e-05
3.05008e-05
4.36841e-05
6.007e-05
7.94087e-05
0.000102087
0.000129128
0.000155772
0.000164343
0.000153808
0.00014459
0.000136479
9.68288e-05
3.20253e-05
6.82215e-06
1.14366e-05
5.45938e-05
0.000141758
0.000145072
0.000118266
8.54641e-05
5.69565e-05
3.69484e-05
2.65275e-05
2.43673e-05
2.84994e-05
3.6626e-05
4.59527e-05
5.39626e-05
5.91386e-05
6.096e-05
5.91993e-05
5.42636e-05
4.67933e-05
3.79622e-05
3.0436e-05
2.63884e-05
2.61141e-05
2.87537e-05
3.31611e-05
3.88503e-05
4.64834e-05
5.8095e-05
8.13804e-05
0.00012833
0.000160984
0.000149515
0.000113714
4.34783e-05
7.62799e-06
1.13785e-05
5.04323e-05
0.000139171
0.000153689
0.000129625
0.000100132
7.60306e-05
5.51299e-05
3.75028e-05
2.71743e-05
2.46569e-05
2.87576e-05
3.7877e-05
4.92246e-05
5.93687e-05
6.59408e-05
6.82278e-05
6.66698e-05
6.25248e-05
5.74287e-05
5.28689e-05
4.93247e-05
4.51624e-05
3.84626e-05
3.09054e-05
2.55747e-05
2.32506e-05
2.42495e-05
2.90091e-05
4.35743e-05
7.71284e-05
0.000101827
0.000104584
6.22396e-05
9.092e-06
1.14314e-05
4.76354e-05
0.000132873
0.00015381
0.000128302
9.67672e-05
7.72388e-05
6.68184e-05
5.3809e-05
3.7982e-05
2.82593e-05
2.67936e-05
3.29467e-05
4.59246e-05
6.29811e-05
7.84903e-05
8.70362e-05
8.71019e-05
8.14898e-05
7.38762e-05
6.55723e-05
5.53247e-05
4.61742e-05
4.2649e-05
4.34939e-05
4.41344e-05
4.02932e-05
3.21133e-05
2.16642e-05
1.03488e-05
2.05174e-05
5.21286e-05
9.06883e-05
5.88106e-05
9.6829e-06
1.15972e-05
4.74633e-05
0.000131568
0.000151572
0.000122075
8.61265e-05
6.64536e-05
6.16325e-05
6.00958e-05
4.90626e-05
3.52119e-05
2.9157e-05
3.27108e-05
4.6329e-05
6.92567e-05
9.44228e-05
0.00010997
0.000108118
8.69309e-05
5.57713e-05
3.7606e-05
3.63353e-05
4.65973e-05
6.49119e-05
8.37453e-05
9.22171e-05
8.60165e-05
6.67727e-05
3.79268e-05
1.26849e-05
1.10283e-05
3.92857e-05
9.34481e-05
4.9215e-05
9.5379e-06
1.18248e-05
5.01404e-05
0.000137474
0.000147339
0.000110956
7.452e-05
5.68847e-05
5.4187e-05
5.7614e-05
5.38987e-05
4.10787e-05
3.26833e-05
3.4977e-05
4.96975e-05
7.55675e-05
0.000101487
0.000110348
9.09682e-05
5.47303e-05
3.11161e-05
2.68155e-05
3.763e-05
6.6529e-05
0.000111264
0.00014186
0.000143586
0.000132605
0.00011732
8.6061e-05
3.94163e-05
1.75288e-05
2.18566e-05
5.58199e-05
5.54226e-05
1.02816e-05
1.19303e-05
5.45537e-05
0.000144728
0.000137401
9.46498e-05
6.26421e-05
4.98895e-05
4.98115e-05
5.51012e-05
5.50027e-05
4.54087e-05
3.73852e-05
3.98862e-05
5.6493e-05
8.34363e-05
0.000104515
0.000102383
7.41685e-05
4.17095e-05
2.50781e-05
2.39015e-05
3.71702e-05
7.75118e-05
0.000157453
0.000199171
0.000180404
0.000145413
0.000117292
9.22929e-05
5.45157e-05
2.47852e-05
2.08692e-05
5.34998e-05
6.26695e-05
1.13424e-05
1.18028e-05
5.85002e-05
0.000146533
0.000126219
8.232e-05
5.48402e-05
4.55224e-05
4.73452e-05
5.35346e-05
5.55454e-05
5.01015e-05
4.45228e-05
4.78374e-05
6.52378e-05
9.21204e-05
0.000110955
0.000105225
7.47202e-05
4.19558e-05
2.46288e-05
2.17917e-05
3.09578e-05
6.11973e-05
0.000145408
0.000240028
0.000201665
0.00012314
7.2755e-05
5.14953e-05
4.14866e-05
3.41105e-05
4.4166e-05
0.000105808
4.71067e-05
1.06024e-05
1.15269e-05
5.98647e-05
0.000144996
0.000123489
8.06226e-05
5.29076e-05
4.26981e-05
4.38857e-05
5.05891e-05
5.54963e-05
5.51952e-05
5.34097e-05
5.70633e-05
7.14789e-05
9.42263e-05
0.000111517
0.000109837
8.65638e-05
5.37665e-05
2.99282e-05
2.08688e-05
2.30773e-05
3.57021e-05
6.61403e-05
0.0001303
0.000173864
0.000120931
6.69302e-05
4.20477e-05
3.72918e-05
4.71586e-05
8.19366e-05
0.000102847
3.47942e-05
8.68483e-06
1.13342e-05
5.93993e-05
0.000145043
0.000129613
8.80181e-05
5.61051e-05
4.14589e-05
3.92776e-05
4.52489e-05
5.35279e-05
5.87232e-05
6.12198e-05
6.5371e-05
7.52512e-05
9.06267e-05
0.000104196
0.000107292
9.70977e-05
7.58633e-05
4.97046e-05
2.93608e-05
2.08347e-05
2.19684e-05
3.02704e-05
4.60503e-05
7.18042e-05
0.000101456
0.000102058
7.89375e-05
6.51692e-05
7.26327e-05
0.000104049
9.42532e-05
3.01115e-05
7.18165e-06
1.1316e-05
5.84921e-05
0.000146269
0.000136031