/*--------------------------------*- C++ -*----------------------------------*\
| =========                 |                                                 |
| \\      /  F ield         | OpenFOAM: The Open Source CFD Toolbox           |
|  \\    /   O peration     | Version:  v2006                                 |
|   \\  /    A nd           | Website:  www.openfoam.com                      |
|    \\/     M anipulation  |                                                 |
\*---------------------------------------------------------------------------*/
FoamFile
{
    version     2.0;
    format      ascii;
    class       volScalarField;
    location    "21";
    object      k;
}
// * * * * * * * * * * * * * * * * * * * * * * * * * * * * * * * * * * * * * //

dimensions      [0 2 -2 0 0 0 0];


internalField   nonuniform List<scalar> 
78750
(
2.0821
0.671328
0.312131
0.0946047
0.019903
0.00120096
0.00315842
0.00202216
0.00273935
0.00187848
0.00250534
0.00205084
0.00222659
0.00207544
0.00208912
0.00202299
0.00199022
0.00194606
0.00190408
0.00186123
0.00181781
0.00177374
0.00172909
0.00168371
0.00163742
0.00158966
0.00153935
0.00148496
0.0014244
0.00135435
0.00126989
0.0011637
0.00102445
0.000790571
0.000311073
0.0642711
0.0219385
0.00578716
0.000200893
0.00440432
0.00343785
0.00375272
0.00369636
0.00363468
0.00374839
0.00370668
0.00377
0.00378567
0.00382244
0.00384648
0.00386786
0.00387994
0.00388201
0.00387179
0.00384775
0.00380917
0.0037556
0.00368717
0.00360448
0.00350841
0.00339981
0.0032792
0.00314664
0.00300071
0.00283883
0.00265522
0.0024318
0.00210677
0.00154012
0.00140627
0.00310964
0.00173151
0.00277061
0.00207582
0.00203949
0.00242307
0.00247774
0.00257915
0.00262109
0.00263671
0.00267359
0.00272529
0.00282578
0.00297101
0.00315089
0.00334189
0.00352594
0.00369375
0.00384214
0.00396844
0.00406909
0.00414046
0.00418007
0.00418759
0.00416524
0.0041165
0.00404535
0.00395408
0.00384199
0.00370521
0.00353425
0.00330231
0.00292941
0.00228405
0.00245356
0.000334143
0.000985074
0.00146111
0.00213626
0.00269493
0.00298662
0.00317305
0.00326163
0.00328238
0.00323381
0.00310181
0.00289125
0.00262995
0.00238885
0.00226435
0.0023246
0.00256046
0.00289263
0.00323831
0.00355171
0.00381885
0.00403954
0.00421883
0.00435641
0.0044481
0.00449003
0.00448347
0.00443333
0.00434322
0.0042106
0.00402053
0.00372698
0.00322329
0.00255716
0.00346347
0.000863323
0.0023029
0.00285025
0.00301724
0.00304699
0.00305605
0.00304974
0.00303555
0.00301645
0.00299997
0.0029893
0.0029725
0.00292535
0.00281182
0.00260216
0.00231608
0.00205142
0.00193924
0.00202306
0.00228831
0.00273915
0.00323885
0.00363841
0.0039257
0.00414462
0.00431648
0.00444212
0.00451945
0.0045464
0.00451752
0.00441558
0.00419275
0.00375533
0.00325772
0.00453053
0.000518632
0.00161495
0.00230005
0.00275521
0.00305562
0.00321446
0.00325583
0.00320005
0.00307283
0.00291085
0.0027428
0.00258973
0.00247976
0.00244798
0.00249786
0.00257393
0.00262134
0.00262917
0.0026123
0.00247858
0.00219341
0.0021387
0.00249164
0.0031121
0.00361815
0.00393411
0.00413423
0.0042709
0.00436273
0.00440793
0.00438837
0.00425064
0.00387774
0.00346882
0.00531218
0.00224369
0.0035524
0.00398363
0.00402158
0.00392669
0.00372619
0.0034111
0.00300246
0.00261966
0.00238758
0.00228606
0.00223607
0.00220855
0.00221364
0.00225808
0.00232685
0.00240716
0.00250337
0.00267364
0.00289882
0.00315433
0.0034839
0.00379175
0.0040154
0.00418163
0.00431938
0.00444164
0.00454685
0.00462426
0.00465756
0.00462126
0.00446922
0.00417453
0.00413857
0.00645315
0.00274986
0.0030084
0.00295924
0.00291806
0.00284945
0.00269599
0.00238038
0.00192021
0.00154189
0.00148672
0.00167107
0.00188131
0.00203449
0.00211248
0.00211368
0.0020709
0.00208624
0.00223163
0.00243191
0.00269677
0.00304985
0.00338442
0.00362825
0.0038109
0.0039688
0.00412074
0.00427228
0.00441951
0.004551
0.00464903
0.00468543
0.00460935
0.00440336
0.004549
0.00701398
0.00206493
0.00311715
0.00356316
0.00375518
0.00385493
0.00388084
0.0037907
0.00350023
0.00294886
0.00229158
0.00188901
0.00181639
0.0018725
0.00198288
0.00212759
0.00225487
0.00236186
0.00247606
0.00261926
0.00280459
0.00302724
0.00325386
0.00345879
0.00364204
0.00381316
0.00397961
0.00414404
0.00430436
0.00445369
0.00457932
0.00465851
0.00465626
0.00461962
0.00504627
0.00761234
0.00248554
0.00320586
0.00334611
0.00335223
0.00329805
0.00318715
0.00301779
0.00277912
0.00242167
0.0019274
0.00153918
0.00157751
0.00178249
0.00192824
0.00205401
0.00220452
0.00233711
0.00246804
0.00262219
0.00279364
0.00298007
0.00317666
0.00337024
0.0035549
0.00373501
0.00391623
0.00410085
0.00428655
0.00446588
0.00462515
0.00474362
0.00481082
0.00495236
0.00557506
0.00808329
0.00251355
0.00311625
0.00333215
0.003422
0.00343929
0.00335861
0.003134
0.00275254
0.00225756
0.00173578
0.00134118
0.00135008
0.00168103
0.00193567
0.00210619
0.0022378
0.00235976
0.00249095
0.00263619
0.00279294
0.00295583
0.00312102
0.00328631
0.00345189
0.00361999
0.00379346
0.00397529
0.00416858
0.00437496
0.00458925
0.00479121
0.0049627
0.00525704
0.00599786
0.00844102
0.00164983
0.00289237
0.00332619
0.00353979
0.00368612
0.00380081
0.00387871
0.00387754
0.00373272
0.00339629
0.00285547
0.00218682
0.00159142
0.00120086
0.00110468
0.00132574
0.00167644
0.00201712
0.00233417
0.00264907
0.00295787
0.00323951
0.00348309
0.00369025
0.00386514
0.00401247
0.00413816
0.00425132
0.00436691
0.00450775
0.00470219
0.00498244
0.00549105
0.00637012
0.00890734
0.0017589
0.00274416
0.0031181
0.00329586
0.00339258
0.00344287
0.00346572
0.00348802
0.00353809
0.00362276
0.00371539
0.00375177
0.00364263
0.00333159
0.00284327
0.00220938
0.00147222
0.00107882
0.00124958
0.00161146
0.00195984
0.00227858
0.0025876
0.00290622
0.00324837
0.00360777
0.00395496
0.00425323
0.00447943
0.0046408
0.00479274
0.00507348
0.00573606
0.00674666
0.00952337
0.00236749
0.00338816
0.00369501
0.00381182
0.00385874
0.00385256
0.0037856
0.00364747
0.00344551
0.00320984
0.00298223
0.00279961
0.00266775
0.00254441
0.00234988
0.00197876
0.00142003
0.00117539
0.00128597
0.00153584
0.00173521
0.00190103
0.00210859
0.00238505
0.00270759
0.00306853
0.00347236
0.0039096
0.00433847
0.00469397
0.00496192
0.0053224
0.00611618
0.00724521
0.0102198
0.0025809
0.00344746
0.00373224
0.00384821
0.00389767
0.00390097
0.00386203
0.0037936
0.00371354
0.00362449
0.00352082
0.00340599
0.00328566
0.00314193
0.00292638
0.00257888
0.00206375
0.00148917
0.00109335
0.00123578
0.00176574
0.0023455
0.00278025
0.00309869
0.00334336
0.00353956
0.00373674
0.00400107
0.00438122
0.00486094
0.0053476
0.00585069
0.00661566
0.00770387
0.0106881
0.00281213
0.00368175
0.0039622
0.00405571
0.00406619
0.00400083
0.00384587
0.00362466
0.00339275
0.00317619
0.00296434
0.00274753
0.00255301
0.00241668
0.00234734
0.00232532
0.00228795
0.00200255
0.0013754
0.00101154
0.00128614
0.0018071
0.00235667
0.00285445
0.00328901
0.00364406
0.00388418
0.00404697
0.00425632
0.00463761
0.00522881
0.00595067
0.00679316
0.00788881
0.0109095
0.00266742
0.00388534
0.00426478
0.00437603
0.00437903
0.00429017
0.0041003
0.00386415
0.00365461
0.0034974
0.00337883
0.00325269
0.00305754
0.00274604
0.00229291
0.00170226
0.00116064
0.00117495
0.00128118
0.00120153
0.00108242
0.00105423
0.00113834
0.00135829
0.00176681
0.00240566
0.00317318
0.00380293
0.00418604
0.00449779
0.00498111
0.00576721
0.0067758
0.00801229
0.0113497
0.0030785
0.00418206
0.00447333
0.00452828
0.00447428
0.00430157
0.00400047
0.00368225
0.00341941
0.00319694
0.003023
0.00293681
0.00291544
0.00288557
0.00276724
0.00241862
0.0017032
0.000954441
0.000533457
0.00057611
0.000938755
0.00113705
0.00120105
0.00122737
0.00126058
0.00147422
0.00209409
0.00300702
0.00381375
0.00433864
0.00483418
0.00568834
0.00695409
0.00846637
0.012366
0.0031713
0.00438802
0.00468735
0.00472166
0.00462695
0.00437229
0.00397259
0.00363019
0.00343486
0.00332043
0.003204
0.00305209
0.00288058
0.00272392
0.00258662
0.00241744
0.00211741
0.00160551
0.000931853
0.000296553
2.83082e-05
0.000596547
0.00136266
0.00188693
0.00216932
0.00230631
0.0025426
0.00315807
0.00404684
0.00473269
0.0052465
0.00611443
0.00745081
0.00912173
0.0133058
0.00379961
0.00466881
0.00479829
0.0047437
0.00456744
0.00419933
0.00370585
0.00334966
0.00316755
0.00309743
0.00309141
0.00310693
0.00311171
0.0030918
0.00304331
0.00295911
0.00281573
0.00256601
0.00215388
0.00160013
0.00114342
0.00107583
0.0013086
0.00179273
0.00235174
0.00278698
0.00308713
0.00349716
0.00427292
0.00518329
0.00590575
0.00679613
0.00798332
0.00953655
0.0134691
0.00426415
0.00467991
0.00469364
0.00459853
0.00436055
0.0038692
0.00325949
0.00293454
0.00286349
0.00285076
0.00283431
0.00281581
0.00280998
0.00282536
0.00285797
0.00289466
0.00291837
0.00290516
0.00282112
0.00263074
0.00234479
0.00206395
0.00189136
0.00192178
0.00224299
0.00275295
0.00324101
0.00372271
0.00444199
0.00550336
0.00656418
0.00752674
0.00849652
0.00977818
0.0131883
0.00402637
0.00459054
0.00467298
0.00461922
0.00443794
0.00403371
0.00339269
0.00286994
0.00266441
0.0026266
0.00262975
0.00262929
0.00261887
0.0026054
0.00259741
0.00259782
0.00260311
0.00260925
0.002608
0.00257789
0.00248223
0.00227812
0.00193442
0.00151705
0.00154575
0.00223362
0.002975
0.00358984
0.00425983
0.00523966
0.00648181
0.00756379
0.00841482
0.00953232
0.0129379
0.0042434
0.00471445
0.0047142
0.00460459
0.00437576
0.0039716
0.00338844
0.00282485
0.00252371
0.00240288
0.00234616
0.00230701
0.00227409
0.00225
0.0022444
0.00226454
0.002296
0.00231189
0.00228523
0.0021849
0.00198034
0.00165131
0.00119649
0.00075248
0.000921496
0.00184055
0.00270754
0.00333304
0.00386516
0.00452406
0.00553608
0.00667082
0.00767712
0.00905043
0.013512
0.00416298
0.00472046
0.00468887
0.00451849
0.00419913
0.0037646
0.00325965
0.00270427
0.00236839
0.00223776
0.00215978
0.00207679
0.00198198
0.00189197
0.00185803
0.00197308
0.00222383
0.0023958
0.00243403
0.00234853
0.00210725
0.00171462
0.00127619
0.000990977
0.00123559
0.00213836
0.00307988
0.00368077
0.00404959
0.00436318
0.00499855
0.00629768
0.00784569
0.00984888
0.0155424
0.00495338
0.00513328
0.00486591
0.00447909
0.00387296
0.00332208
0.00297525
0.00261169
0.00228502
0.00213387
0.00206857
0.00201373
0.00194317
0.00185677
0.00178915
0.00184541
0.00213074
0.00244626
0.00257936
0.0025881
0.00249876
0.00231635
0.00210423
0.00201421
0.00230129
0.00313538
0.00417717
0.00482339
0.00502761
0.00500638
0.00534847
0.00692215
0.00889153
0.0113237
0.0174334
0.00573583
0.00513663
0.00458855
0.00389977
0.0028825
0.00220426
0.00198811
0.00194795
0.00189301
0.00183429
0.00179021
0.00175385
0.0017177
0.00168044
0.00164297
0.00160059
0.00157705
0.00172756
0.00216137
0.0025088
0.00269185
0.00278484
0.00284392
0.00296441
0.00334157
0.00419657
0.00541916
0.00639816
0.00674252
0.00666601
0.00690302
0.00830611
0.00999129
0.01208
0.01684
0.00600634
0.00508185
0.00440301
0.00348725
0.00230681
0.00166879
0.00147555
0.00140182
0.0013649
0.00132373
0.00127739
0.00122846
0.00116294
0.00103871
0.000846791
0.000718908
0.000910802
0.00154016
0.00221726
0.0026594
0.00295145
0.00317421
0.00337471
0.00360423
0.00397294
0.00467423
0.00582635
0.00716777
0.00818303
0.00865965
0.00897452
0.009723
0.0106554
0.0118786
0.014533
0.00548898
0.00480514
0.00428534
0.0034662
0.0022296
0.00123203
0.000847315
0.000713201
0.000623941
0.000539797
0.00046998
0.000449753
0.000542779
0.000720464
0.000973339
0.00129683
0.00172382
0.00223576
0.00269329
0.00304759
0.0033427
0.0036121
0.00387348
0.00413987
0.00443892
0.00484917
0.00550766
0.00649942
0.00772387
0.00894615
0.00992513
0.0105793
0.0110201
0.0115635
0.0137914
0.00497339
0.00514578
0.00502347
0.00468991
0.00385595
0.00246621
0.00122491
0.000516048
0.000156178
0.000129504
0.000153483
2.97855e-05
0.000524735
0.00144017
0.00199287
0.00236772
0.00270707
0.00303107
0.00333729
0.00362259
0.00389454
0.0041649
0.00444522
0.0047418
0.00504981
0.00535618
0.00566632
0.00602851
0.00652272
0.00724067
0.008216
0.00920603
0.00994851
0.0109626
0.0153279
0.00499292
0.00542953
0.00531023
0.00506312
0.00464151
0.00379867
0.0024484
0.00110571
0.000221037
9.134e-05
0.000111193
6.57039e-05
0.00017845
0.00140299
0.00265222
0.00311543
0.00340806
0.00367594
0.00395375
0.00424672
0.0045498
0.00485261
0.00514757
0.00544161
0.00575565
0.00609928
0.00644193
0.00671825
0.00687317
0.00695498
0.00726922
0.00815797
0.00933214
0.0112258
0.0172734
0.00554331
0.00578456
0.00546106
0.0050036
0.00443159
0.00398089
0.00331829
0.00211359
0.000818473
0.000165933
0.000144098
6.08629e-05
5.55628e-05
0.000292332
0.00189547
0.00308933
0.0035774
0.00393064
0.00427333
0.00462896
0.00500271
0.00538666
0.00575465
0.00608385
0.00638669
0.00671278
0.00711461
0.00760784
0.00813804
0.00860862
0.00907548
0.00983588
0.0108955
0.0126252
0.0170637
0.00706095
0.00636788
0.00564717
0.00482686
0.00379074
0.00313196
0.00283223
0.00223452
0.00116924
0.000193881
8.65926e-05
4.22865e-05
0.000135342
0.000125454
0.000780775
0.0023406
0.00329778
0.00378078
0.00415657
0.00452116
0.00490749
0.00532991
0.00577573
0.00620297
0.00656846
0.00686267
0.00712078
0.00744324
0.00797909
0.00883197
0.00992455
0.0109693
0.0118254
0.012855
0.0151158
0.00841255
0.00652402
0.00550771
0.00445219
0.00325105
0.00243916
0.00197991
0.00148528
0.000724247
3.76209e-05
6.75794e-05
0.000127049
6.13791e-05
3.60753e-05
0.000205965
0.00126995
0.00280837
0.00359143
0.00400304
0.00432009
0.00463715
0.00498729
0.00539054
0.00584448
0.00631438
0.00673091
0.00704389
0.00725953
0.0074319
0.00769618
0.00822689
0.00897429
0.00966364
0.0106077
0.0144486
0.0081957
0.00607749
0.00526236
0.0043264
0.00323073
0.00223688
0.00142312
0.000702138
8.52814e-05
6.72272e-05
0.000108212
8.19782e-06
8.14787e-05
5.5242e-05
0.000115021
0.00115839
0.00280233
0.00370656
0.0041251
0.00439587
0.00462781
0.00485351
0.00510876
0.00543817
0.00586948
0.0064823
0.00726246
0.00795569
0.00835499
0.00844649
0.00851368
0.00892273
0.00968746
0.0113149
0.0176355
0.00652878
0.00591254
0.00583875
0.0054423
0.00460142
0.00336516
0.00210728
0.00104719
0.000241086
5.07047e-06
8.09922e-05
0.000145904
9.99441e-05
0.000144495
0.000507944
0.00225577
0.00435054
0.0052627
0.00542598
0.00541878
0.00533174
0.00517537
0.00492947
0.0046165
0.00476687
0.00596934
0.00765291
0.00904731
0.00991792
0.0103673
0.0107491
0.0114303
0.0124643
0.0143047
0.0192736
0.0053653
0.00633181
0.00666245
0.00664736
0.00631988
0.00555922
0.00443182
0.00316461
0.00186447
0.000672687
6.13456e-05
9.14528e-05
0.000147505
5.65762e-05
6.7237e-05
0.00147925
0.00403511
0.00636936
0.00772297
0.00811018
0.00799207
0.00755435
0.00670045
0.00554707
0.00486015
0.00544616
0.00684802
0.00825594
0.00939196
0.0102198
0.0108438
0.0114036
0.0120484
0.0130234
0.0138963
0.00420674
0.00552878
0.00606576
0.00641571
0.00670266
0.00683838
0.00664427
0.00600371
0.00499666
0.00370745
0.00219671
0.000839988
0.00026031
7.9725e-05
4.03107e-05
6.0321e-05
0.000483071
0.00250024
0.00494201
0.00743892
0.00930096
0.0103579
0.0106079
0.0101751
0.00947587
0.00900284
0.00893677
0.00913874
0.00951321
0.00995414
0.0103734
0.0107139
0.0108863
0.0105408
0.00700649
0.00348309
0.00469474
0.00527583
0.00559364
0.00586273
0.00616474
0.0064979
0.0067699
0.00682199
0.00651741
0.00581152
0.00470072
0.00322695
0.00163393
0.00034348
6.02719e-05
0.000202577
4.35709e-05
0.000131914
0.00137229
0.00325947
0.00571174
0.00791669
0.00980999
0.0111705
0.0121915
0.0128763
0.0132346
0.0133291
0.0132717
0.0130267
0.0124935
0.0114499
0.00915171
0.00375576
0.00342778
0.00477719
0.00539041
0.0056366
0.00571632
0.00570274
0.00565503
0.00566317
0.00580259
0.00605224
0.0062954
0.00638317
0.00616052
0.00550336
0.0044138
0.00299146
0.00144666
5.0714e-05
0.000185879
5.6629e-05
5.54916e-05
0.000277882
0.00128396
0.0026626
0.00450168
0.00629819
0.00799396
0.00953478
0.010839
0.0115898
0.0119507
0.0116373
0.00990128
0.00594529
0.00292035
0.00441453
0.00572698
0.00619621
0.0064113
0.00652303
0.00655575
0.00649018
0.00629241
0.00595861
0.00556735
0.00527193
0.00520393
0.00535015
0.00554737
0.00562631
0.00544339
0.00482653
0.00373463
0.00229591
0.000815637
0.000388882
1.23556e-06
0.000223163
0.000240789
0.000266214
0.00070918
0.001384
0.00206255
0.00280944
0.0037561
0.00423876
0.00480186
0.00409519
0.0019573
0.00302176
0.00562973
0.0060692
0.00611805
0.00614407
0.00617915
0.00622826
0.00629028
0.00635143
0.00636929
0.00627329
0.00600873
0.0056088
0.00521954
0.00498098
0.0049064
0.00491557
0.00491729
0.00479074
0.00427463
0.00317444
0.00173804
0.000439166
0.000138732
0.000117208
7.10884e-05
0.000213705
6.93029e-05
0.000277082
0.000195261
0.000215608
0.00048207
0.000537009
0.000431385
0.000890944
0.00419435
0.00625858
0.00600166
0.00591476
0.00589302
0.00587864
0.00584794
0.00579347
0.00573078
0.00569774
0.00571234
0.00573401
0.00569792
0.00556454
0.00534947
0.00511214
0.00489772
0.00470867
0.00451279
0.00422257
0.00361882
0.00260546
0.00141329
0.000382378
5.32664e-05
9.89064e-05
0.000166299
0.000281056
2.68001e-05
0.000206512
0.000331064
0.000158415
1.9412e-05
3.6107e-05
0.000901671
0.00689905
0.00604459
0.00589708
0.00594191
0.00600242
0.00604095
0.00603369
0.00596179
0.00582057
0.00564111
0.0054877
0.00539943
0.0053597
0.00532683
0.00526387
0.00514805
0.00497366
0.00474334
0.00444536
0.0040282
0.00341109
0.00259227
0.00170591
0.000923425
0.000370197
7.58549e-06
8.57315e-05
0.000186006
0.000305049
0.000115935
0.000140445
1.71623e-05
0.000187691
0.000155127
0.00034269
0.01105
0.00587894
0.00590179
0.0059666
0.00601998
0.00605514
0.00606056
0.00602142
0.00592333
0.00576422
0.00557296
0.00539983
0.00527222
0.00517964
0.00509603
0.00499458
0.00484979
0.00463605
0.00432699
0.0038957
0.00332817
0.00267495
0.00204922
0.00153231
0.00114227
0.000846376
0.000618276
0.000410982
0.000182058
0.000253981
0.000142525
0.000381842
0.000299477
0.000384285
0.00331184
0.0146473
0.0058954
0.00584078
0.00582978
0.00582383
0.00580853
0.00577711
0.00572669
0.00565685
0.00556195
0.00543562
0.00528937
0.00514794
0.00502422
0.00491073
0.00479016
0.00464161
0.00444227
0.00417219
0.00382306
0.00340773
0.00296128
0.00254328
0.0021964
0.00192022
0.00168999
0.00147482
0.00124968
0.000995244
0.000703131
0.000256227
0.00049983
0.000680069
0.00263987
0.00692965
0.015568
0.00599302
0.00591283
0.00587572
0.00583673
0.00577681
0.00568331
0.00555585
0.0054146
0.00528323
0.00516571
0.00505202
0.00493646
0.0048201
0.00470206
0.00457544
0.00443176
0.004263
0.00406428
0.00383507
0.00358029
0.00331406
0.00306025
0.00283512
0.00263379
0.00244144
0.00224136
0.00202098
0.00175723
0.0014163
0.000902846
0.000173835
0.000264756
0.00420969
0.00866039
0.0149241
0.00609187
0.00597848
0.00591405
0.00585256
0.00576956
0.00564718
0.00547971
0.00528223
0.00508635
0.00492037
0.00478881
0.00467797
0.00457281
0.00446419
0.00434767
0.00422386
0.00409739
0.00397388
0.0038552
0.00373677
0.00361532
0.00349167
0.00336716
0.00323778
0.00309414
0.0029236
0.00271494
0.00245364
0.00210328
0.00156798
0.000796299
0.000971394
0.0050246
0.00899595
0.0135046
0.0061544
0.00598242
0.00586965
0.00577016
0.00565312
0.00550496
0.00533419
0.00514698
0.00494455
0.00474667
0.00457687
0.00443977
0.0043239
0.00421607
0.00410994
0.00400799
0.00391972
0.00385554
0.00381713
0.00379854
0.00378929
0.00377836
0.00375618
0.00371435
0.00364454
0.00353659
0.00337689
0.00314485
0.0028047
0.0022902
0.00162461
0.00191992
0.00535279
0.00866859
0.0122439
0.00624894
0.0060758
0.00591467
0.00576424
0.00558798
0.0053739
0.00516418
0.00498389
0.00480761
0.00461963
0.00443243
0.0042645
0.00412148
0.00399818
0.00388889
0.00379413
0.00372171
0.00368154
0.00367932
0.003715
0.00378121
0.00386407
0.0039464
0.00401226
0.00404892
0.00404636
0.00398974
0.00384736
0.00356999
0.00309649
0.00246562
0.00265508
0.00536821
0.00813424
0.0114777
0.00649448
0.00626031
0.00603657
0.00583304
0.00559485
0.00529911
0.00501667
0.0048029
0.00462865
0.00445687
0.00427745
0.00409997
0.00393634
0.0037916
0.00366612
0.00356128
0.00348291
0.00343874
0.00343746
0.00348701
0.00359039
0.00373961
0.00391697
0.00410803
0.00431071
0.0045118
0.00465921
0.00467949
0.00451325
0.00410716
0.00344165
0.00324362
0.00523734
0.00762928
0.0112513
0.00686059
0.00640928
0.00610518
0.00585277
0.00555988
0.00518973
0.00484327
0.00460084
0.00441918
0.00424932
0.0040739
0.00389496
0.00372082
0.00355859
0.0034128
0.0032876
0.00318939
0.00312626
0.00311006
0.00315716
0.00328533
0.00350797
0.00384181
0.00428992
0.0047936
0.00525154
0.00557757
0.00572023
0.00564807
0.00531773
0.00465254
0.00406218
0.0053658
0.00752373
0.0115942
0.00719576
0.00652199
0.00617067
0.0058881
0.00554661
0.00508656
0.00463809
0.00434757
0.00415576
0.00398054
0.00379453
0.00360021
0.00340711
0.00322302
0.00305322
0.0029026
0.00277864
0.00269385
0.00267435
0.00276997
0.00306742
0.00361487
0.00434183
0.00509374
0.00575249
0.00626932
0.00662648
0.00680818
0.00678771
0.00650928
0.00588123
0.00521577
0.00607215
0.00806812
0.0123369
0.00745956
0.00665084
0.00630382
0.00602495
0.00566827
0.00514252
0.00454636
0.00414348
0.0039175
0.00373463
0.00353481
0.00331447
0.00308665
0.00286302
0.00265027
0.0024528
0.00228055
0.00217249
0.00225754
0.00273234
0.00355512
0.00452052
0.00541777
0.0061662
0.00677794
0.00726062
0.00760077
0.00777022
0.00772733
0.00741517
0.00682874
0.00637708
0.00706949
0.00878193
0.0128201
0.00759681
0.00670616
0.00640185
0.00615799
0.00582553
0.00528972
0.00455729
0.00396316
0.00364974
0.00345124
0.0032464
0.00301222
0.00275931
0.00250025
0.0022401
0.00198158
0.00176336
0.0017796
0.00235866
0.00343518
0.00461425
0.00559748
0.00635962
0.00699661
0.00756811
0.00807135
0.00845697
0.00865329
0.00858561
0.00820424
0.0076172
0.007327
0.00787016
0.00918627
0.0127151
0.00758449
0.00674889
0.00651655
0.0063218
0.00603704
0.00554484
0.00474782
0.00392586
0.00346072
0.00321587
0.00299747
0.00274751
0.0024687
0.00217016
0.0018518
0.00152941
0.00135955
0.00178401
0.0029501
0.00436005
0.00557
0.00642154
0.00702852
0.00753594
0.00801953
0.00850135
0.00895318
0.00929602
0.00941198
0.00919832
0.00872981
0.00844319
0.00871126
0.00959837
0.0125848
0.00756385
0.00680871
0.00660393
0.0064269
0.00616963
0.00572821
0.00496431
0.00398325
0.00332762
0.00302978
0.00281251
0.00256178
0.00226639
0.00192948
0.001555
0.00119552
0.00116911
0.00206745
0.00364869
0.00501554
0.00603936
0.00683409
0.00748401
0.00801293
0.00843258
0.00877543
0.00907741
0.00935244
0.00957322
0.00965141
0.00951474
0.00934495
0.00941803
0.00996866
0.0126024
0.0076893
0.00687608
0.00662965
0.00642782
0.00615488
0.00571702
0.0050091
0.00403466
0.00323974
0.00288684
0.00268352
0.00245178
0.00216162
0.00181061
0.00140453
0.00101976
0.00105933
0.00226418
0.00429702
0.0055962
0.00622831
0.00677328
0.0073856
0.00809389
0.00880468
0.00935179
0.00964986
0.00973042
0.00967545
0.00958853
0.0095195
0.00948527
0.00958192
0.0100914
0.0127753
0.00794091
0.00693095
0.00660329
0.00635183
0.00602773
0.00553271
0.00481938
0.00394863
0.00316111
0.00278246
0.00260646
0.00241354
0.00215775
0.00183087
0.00143262
0.00102157
0.000932039
0.00194196
0.00425031
0.00615903
0.00672904
0.00696427
0.00720606
0.0075877
0.0082188
0.00910712
0.0100104
0.0105704
0.010668
0.010461
0.0102176
0.0101127
0.010225
0.0108208
0.0135085
0.00814635
0.00691986
0.00653514
0.00625266
0.00588493
0.00531811
0.00454745
0.00375719
0.00310772
0.00275377
0.00260737
0.00246094
0.00225792
0.00198621
0.00163645
0.00123327
0.000962768
0.00139197
0.00312708
0.0055298
0.00720541
0.00791343
0.00809885
0.00809561
0.00807438
0.0082385
0.00880761
0.00970729
0.010493
0.0108463
0.0108761
0.0108345
0.0108875
0.011273
0.0126925
0.00803756
0.00678702
0.00642978
0.00617159
0.00581797
0.00524213
0.00442481
0.00361807
0.00307873
0.00278677
0.00266628
0.0025757
0.0024491
0.00226622
0.00201068
0.00167372
0.00131056
0.00117723
0.0018009
0.00345049
0.00557668
0.00753962
0.00909415
0.0100684
0.0104288
0.0103048
0.00992718
0.00962077
0.00962603
0.00988983
0.0101426
0.0102637
0.0102697
0.0101268
0.00918387
0.00756821
0.00660234
0.0063562
0.00618161
0.00592957
0.0054828
0.00474822
0.0038533
0.00318687
0.00287139
0.00275386
0.00270707
0.00266203
0.00259195
0.00248165
0.00231463
0.00207524
0.00178425
0.00157624
0.00174877
0.00254871
0.00393011
0.00569558
0.00760655
0.00944413
0.010991
0.0120213
0.01238
0.012108
0.0114944
0.0109805
0.0105848
0.010138
0.00928677
0.00675685
0.00702671
0.00649165
0.00636178
0.00627251
0.00614276
0.00589815
0.00542461
0.00462748
0.00369407
0.00304921
0.00278244
0.00271869
0.00271834
0.00272453
0.00271737
0.00269115
0.00264008
0.00255513
0.00242763
0.00227584
0.0021701
0.00221812
0.00251284
0.00308807
0.00393037
0.00504258
0.00643084
0.0080414
0.00970487
0.0110046
0.0111462
0.0106858
0.00989119
0.0087004
0.00725402
0.00672975
0.00649405
0.00641951
0.00636467
0.00629252
0.00617315
0.00595256
0.00551081
0.0047131
0.00373669
0.0030233
0.00270688
0.00262933
0.00263915
0.00266643
0.00268944
0.00270413
0.0027112
0.00271086
0.00270216
0.00268296
0.00264583
0.00256846
0.00244065
0.00231675
0.00229171
0.00244752
0.00288587
0.00377393
0.00522785
0.00711948
0.00803228
0.00826528
0.00824967
0.0101983
0.00680784
0.0065736
0.00646822
0.00638741
0.00629247
0.0061658
0.00600423
0.00578018
0.00535669
0.00456219
0.00359812
0.00291356
0.00260983
0.00252481
0.0025194
0.00253128
0.00254208
0.00254998
0.0025591
0.00257736
0.00261014
0.00265604
0.00275374
0.00294252
0.00313425
0.00318959
0.00303407
0.00268742
0.00230343
0.00167678
0.00364672
0.00661881
0.00839912
0.00963183
0.0131416
0.00719955
0.00670942
0.0065147
0.0063822
0.00623561
0.00604216
0.0058163
0.00559848
0.00533019
0.00482642
0.0039809
0.00313975
0.00265484
0.00246721
0.00240654
0.00237909
0.00235375
0.00232423
0.00229474
0.00229324
0.00247961
0.00304966
0.00380911
0.00445212
0.00484221
0.00497982
0.0048528
0.00440949
0.00359609
0.00226064
0.00252209
0.00605513
0.0084038
0.00987046
0.0138471
0.00774202
0.00684024
0.00653811
0.00635439
0.00615649
0.00589042
0.0055806
0.00530942
0.00505188
0.00466758
0.00400378
0.00320193
0.00266722
0.0024393
0.00234659
0.00228449
0.00221895
0.00214301
0.00207592
0.0021621
0.00279586
0.00403163
0.00519588
0.005878
0.00625718
0.00647317
0.00654432
0.00640246
0.00591032
0.00484456
0.00359979
0.00458618
0.00666905
0.00899195
0.0154483
0.00814013
0.00683554
0.00645914
0.0062393
0.00599293
0.0056568
0.00528316
0.00497403
0.00470575
0.0043615
0.00383365
0.00316708
0.00267825
0.00245882
0.00235453
0.00226841
0.00216968
0.00205402
0.00196341
0.00211162
0.00294319
0.00454945
0.00606428
0.00676152
0.00707107
0.00725186
0.00736564
0.00739906
0.00724989
0.00657934
0.0051361
0.00481486
0.00689361
0.0102657
0.0178126
0.00814329
0.00669718
0.00632512
0.00609425
0.00580704
0.00540686
0.00498563
0.00466251
0.00439979
0.00409741
0.00368867
0.00319121
0.00278433
0.00257297
0.0024545
0.0023463
0.00221837
0.00206472
0.00192511
0.00199182
0.00268496
0.00426377
0.0061383
0.00724468
0.00755379
0.00755975
0.00739341
0.00711021
0.00696703
0.0069863
0.00678687
0.00736303
0.00927027
0.0119443
0.0159412
0.00776348
0.00653729
0.00623275
0.00601737
0.00572016
0.00528304
0.00480273
0.00444545
0.00419624
0.00395246
0.00366051
0.0033222
0.00300838
0.00279985
0.00266679
0.00254576
0.00240156
0.0022191
0.00201152
0.00188392
0.00213891
0.00317553
0.0049559
0.00676536
0.00788855
0.00817601
0.00786682
0.00714802
0.00649321
0.00657754
0.00730811
0.0084483
0.00984011
0.0112134
0.0112401
0.00731867
0.00644816
0.00621032
0.00602674
0.00576559
0.00535022
0.004817
0.00436846
0.00409561
0.00390246
0.0037089
0.00349574
0.00328263
0.00310723
0.00297939
0.00286975
0.00274547
0.00258184
0.00236547
0.00211505
0.00193977
0.00211858
0.00297742
0.00450596
0.00628344
0.00781023
0.00867605
0.00871779
0.00816219
0.00760876
0.00758969
0.00802682
0.00856494
0.00892959
0.00788834
0.00702737
0.00638619
0.00617616
0.00601923
0.00581132
0.00547383
0.00497225
0.00444278
0.00408214
0.003885
0.00375006
0.00362381
0.00349954
0.0033889
0.00329972
0.00322663
0.00315401
0.0030624
0.0029317
0.00274552
0.00250359
0.00225941
0.00216916
0.00247244
0.00332006
0.00464464
0.00620859
0.00771173
0.0088578
0.00941981
0.00945384
0.00928204
0.0090281
0.00853094
0.00686089
0.00694057
0.00633211
0.00611009
0.00595574
0.00576959
0.00548777
0.00506959
0.00456446
0.00413575
0.00388134
0.00375017
0.0036697
0.00360673
0.00355548
0.00351534
0.00348682
0.00346599
0.00344416
0.00340991
0.00335112
0.00325443
0.00310878
0.00291589
0.0027135
0.00259366
0.00268251
0.00309183
0.00388731
0.00509052
0.00663798
0.00819461
0.00915571
0.00951323
0.00932093
0.00715627
0.00694776
0.0062706
0.00602897
0.00587169
0.00568996
0.00542386
0.00504766
0.00460134
0.00418406
0.00389389
0.00373772
0.00366301
0.00362687
0.00360985
0.00360367
0.00360673
0.00361872
0.00363702
0.0036562
0.00367208
0.00368006
0.00367432
0.00364699
0.0035863
0.0034811
0.00332282
0.00311092
0.00288488
0.00278567
0.00307489
0.00408038
0.00566611
0.00705297
0.00766535
0.00736273
0.0069431
0.00620352
0.00596015
0.0058094
0.00563696
0.00538214
0.00501876
0.00458871
0.0041808
0.00387808
0.00370307
0.00362074
0.00358905
0.00358366
0.00359154
0.00360776
0.00363067
0.00365953
0.00369294
0.00373027
0.00377172
0.00381781
0.0038688
0.00391983
0.00394684
0.0039075
0.00379585
0.00365142
0.00347966
0.00326979
0.00325311
0.00370037
0.00410287
0.00477679
0.00845765
0.00692303
0.00614207
0.0059036
0.005759
0.00559418
0.00535339
0.00501075
0.00459233
0.00417533
0.00384741
0.00364699
0.00355058
0.00351478
0.00350892
0.0035172
0.00353176
0.00354953
0.00356945
0.00359152
0.00361692
0.00364829
0.00368923
0.00374333
0.00380606
0.00389109
0.00410925
0.00450999
0.00492608
0.00515857
0.00510472
0.00477349
0.00406035
0.00360784
0.00524461
0.0118107
0.00695795
0.00612091
0.0058728
0.00571974
0.00554478
0.00530016
0.00497365
0.00458071
0.00416902
0.00381894
0.00358762
0.00346938
0.00342234
0.00340941
0.0034101
0.00341366
0.00341558
0.0034143
0.0034096
0.00340262
0.00339653
0.00339959
0.00344128
0.00366634
0.00435117
0.00528566
0.00606165
0.00655714
0.00676673
0.00663349
0.00608878
0.00531871
0.00572698
0.00821088
0.0144442
0.00703128
0.00610708
0.00583812
0.0056687
0.00547168
0.00520557
0.00488253
0.00452348
0.00414443
0.00379742
0.00354603
0.00340678
0.00334656
0.00332498
0.00331657
0.00330784