/*--------------------------------*- C++ -*----------------------------------*\
| =========                 |                                                 |
| \\      /  F ield         | OpenFOAM: The Open Source CFD Toolbox           |
|  \\    /   O peration     | Version:  v2006                                 |
|   \\  /    A nd           | Website:  www.openfoam.com                      |
|    \\/     M anipulation  |                                                 |
\*---------------------------------------------------------------------------*/
FoamFile
{
    version     2.0;
    format      ascii;
    class       volScalarField;
    location    "60";
    object      nut;
}
// * * * * * * * * * * * * * * * * * * * * * * * * * * * * * * * * * * * * * //

dimensions      [0 2 -1 0 0 0 0];


internalField   nonuniform List<scalar> 
78750
(
0.000523671
0.00106564
0.000660075
3.24972e-05
1.29074e-05
6.51876e-05
2.35677e-05
4.85224e-05
4.1696e-05
4.65419e-05
4.89541e-05
5.09836e-05
5.35392e-05
5.56132e-05
5.77824e-05
5.98898e-05
6.20308e-05
6.42636e-05
6.66652e-05
6.9413e-05
7.2757e-05
7.69496e-05
8.20044e-05
8.72918e-05
9.15248e-05
9.40677e-05
9.59318e-05
9.81322e-05
9.94509e-05
9.77626e-05
9.53807e-05
9.16297e-05
6.7565e-05
2.78812e-05
6.14467e-07
1.54656e-05
7.03507e-05
6.57105e-05
4.23249e-05
5.05411e-05
5.74886e-05
8.48013e-05
0.000102495
0.000122137
0.000139472
0.000156163
0.000169594
0.000180154
0.000187384
0.000191395
0.000192192
0.000189947
0.000184677
0.000175972
0.000162969
0.000145086
0.000124076
0.000104899
9.39114e-05
9.75148e-05
0.000123073
0.000163976
0.000159339
0.0001161
7.9466e-05
4.36759e-05
2.63977e-05
2.29632e-05
3.10379e-05
3.19452e-06
3.94624e-06
4.13107e-05
5.27538e-05
5.29019e-05
7.04112e-05
0.00010404
0.00013673
0.00016414
0.00018671
0.000203985
0.000215511
0.000221644
0.000223048
0.00022071
0.000215786
0.000209418
0.000202543
0.000195829
0.000189727
0.00018438
0.00017986
0.000175719
0.000169193
0.000153642
0.000122108
8.01091e-05
4.74557e-05
3.34173e-05
4.06362e-05
0.000105252
7.06297e-05
2.53201e-05
1.34236e-05
1.0793e-05
2.9353e-06
3.01353e-06
3.9547e-05
8.70505e-05
0.000134836
0.000159675
0.000156235
0.000146862
0.000143008
0.000145642
0.000152627
0.000161879
0.000171868
0.000181367
0.000189254
0.000194323
0.000195564
0.000192852
0.000187642
0.000182201
0.000178431
0.000177835
0.000180121
0.000180392
0.000169748
0.000143212
0.000104799
7.58847e-05
7.19667e-05
8.81229e-05
0.000110118
0.000126026
8.62445e-05
2.99022e-05
1.24929e-05
1.53513e-06
2.50757e-06
3.50615e-05
7.4483e-05
0.000106651
0.000126884
0.000137814
0.000145443
0.000150492
0.000153525
0.00015547
0.000156998
0.000158518
0.000160445
0.000163248
0.000167412
0.000173489
0.000181511
0.000189402
0.000192339
0.000185941
0.000170237
0.000147257
0.000115136
7.2493e-05
3.60196e-05
1.97695e-05
1.86729e-05
3.19307e-05
4.2713e-05
3.87005e-05
1.94938e-05
1.2182e-05
1.26464e-05
1.55288e-05
5.35962e-06
2.5405e-06
3.80445e-05
9.0091e-05
0.000129597
0.00014832
0.000157371
0.000162704
0.000166406
0.00016983
0.000173081
0.000174135
0.000171896
0.000168509
0.000168122
0.000173417
0.000182868
0.00019032
0.000188581
0.000176003
0.000157844
0.00014021
0.000123104
9.76645e-05
5.69073e-05
2.59165e-05
1.65341e-05
2.1543e-05
5.08281e-05
7.90999e-05
2.10436e-05
8.55924e-06
8.73642e-06
2.21104e-05
6.25043e-05
6.29327e-06
1.97337e-06
3.19624e-05
0.000100567
0.000147077
0.000156379
0.000163075
0.000167887
0.000167886
0.000165157
0.000163381
0.000165195
0.000170909
0.000178357
0.000184182
0.000187261
0.000190936
0.000200315
0.000214536
0.000216078
0.000217778
0.000219447
0.000192073
0.000165244
0.000147596
0.000134018
9.43021e-05
5.28165e-05
2.8926e-05
2.65411e-05
5.6515e-05
3.43334e-05
1.09262e-05
1.05558e-05
2.92527e-05
6.58012e-06
3.16835e-07
1.00613e-05
3.66205e-05
8.69634e-05
0.000126838
0.000155422
0.000179207
0.000198193
0.000205753
0.000207922
0.000209681
0.00021105
0.000212062
0.000212756
0.000213202
0.000213508
0.000213804
0.000214206
0.000214791
0.000215582
0.000216553
0.000217638
0.000218746
0.000201216
0.000153803
0.000116136
8.75165e-05
3.61521e-05
1.7446e-05
1.80638e-05
1.14093e-05
7.21993e-06
8.76081e-06
2.50855e-05
8.59685e-06
1.69259e-06
1.00157e-05
2.12137e-05
7.61753e-05
0.000118406
0.000126953
0.000134351
0.000144174
0.000156747
0.00017422
0.00019822
0.000215409
0.000217177
0.000218665
0.00021986
0.000220759
0.000221377
0.000221741
0.000221886
0.00020369
0.000182519
0.000173666
0.000170471
0.000158365
0.000131787
0.000104047
8.6952e-05
7.78023e-05
3.42722e-05
1.78558e-05
8.67503e-06
8.09106e-06
2.19882e-05
7.00408e-05
8.51106e-06
3.121e-06
1.99578e-05
1.63003e-05
2.11992e-05
4.33978e-05
0.000115432
0.000188397
0.000190002
0.000163429
0.000134286
0.000120183
0.000116666
0.000118851
0.000122956
0.000126286
0.000127781
0.000127519
0.000125216
0.000120932
0.000115218
0.000108708
0.000101654
9.30975e-05
8.14746e-05
6.6978e-05
5.03376e-05
3.18558e-05
1.79308e-05
1.32501e-05
2.15372e-05
5.38798e-06
5.86434e-06
2.07742e-05
4.33577e-05
7.91391e-06
2.73758e-06
2.40096e-05
2.79304e-05
3.00243e-05
3.38018e-05
3.92384e-05
4.61581e-05
5.38804e-05
6.2339e-05
7.32201e-05
8.94754e-05
0.000113937
0.000143976
0.000167982
0.000177052
0.00017346
0.00016312
0.000150021
0.000136531
0.000124061
0.000113176
0.000103869
9.54755e-05
8.66325e-05
7.50967e-05
5.79479e-05
3.73588e-05
2.3269e-05
2.05233e-05
4.46718e-05
1.08962e-05
6.50536e-06
1.32552e-05
4.49302e-05
8.54793e-06
2.64217e-06
2.67416e-05
3.40098e-05
3.12123e-05
3.03709e-05
3.13289e-05
3.35407e-05
3.68714e-05
4.12194e-05
4.63909e-05
5.24473e-05
5.94324e-05
6.70331e-05
7.49853e-05
8.29439e-05
9.06499e-05
9.80366e-05
0.000105277
0.00011311
0.000122743
0.000134964
0.000148639
0.000159526
0.000162814
0.000156417
0.000139279
0.000112094
8.21278e-05
5.69584e-05
4.08301e-05
3.74994e-05
4.25181e-05
1.76998e-05
1.43993e-05
3.93621e-06
3.2504e-06
4.23364e-05
5.5461e-05
5.59322e-05
5.15022e-05
4.37802e-05
3.80182e-05
3.53528e-05
3.51298e-05
3.67734e-05
4.03033e-05
4.58153e-05
5.28973e-05
6.1097e-05
7.00265e-05
7.93363e-05
8.85963e-05
9.73781e-05
0.000105476
0.000113069
0.00012055
0.000128208
0.000136015
0.000143753
0.000151216
0.000157112
0.000157311
0.000145957
0.000119525
8.2958e-05
5.21343e-05
4.02835e-05
5.55612e-05
2.16547e-05
1.44985e-06
2.45238e-06
2.47701e-05
4.90208e-05
5.1229e-05
4.93813e-05
4.7895e-05
4.53697e-05
4.12996e-05
3.7017e-05
3.38576e-05
3.26991e-05
3.42908e-05
3.9199e-05
4.69054e-05
5.50319e-05
6.12974e-05
6.55711e-05
6.86079e-05
7.07745e-05
7.21263e-05
7.26528e-05
7.23738e-05
7.13336e-05
6.95743e-05
6.71193e-05
6.39712e-05
6.01326e-05
5.55965e-05
4.98801e-05
4.2987e-05
3.2183e-05
1.79583e-05
2.21011e-05
1.83454e-05
1.4668e-06
2.88226e-06
2.85635e-05
7.19542e-05
7.57188e-05
7.24486e-05
7.43627e-05
7.45098e-05
6.83059e-05
5.79065e-05
4.72491e-05
3.89496e-05
3.40735e-05
3.3061e-05
3.6509e-05
4.47424e-05
5.54485e-05
6.39368e-05
6.79941e-05
6.82607e-05
6.59494e-05
6.19973e-05
5.71321e-05
5.19577e-05
4.68912e-05
4.20368e-05
3.71317e-05
3.15028e-05
2.42927e-05
1.60552e-05
3.12263e-06
4.25554e-06
3.91019e-06
2.63537e-06
6.01884e-06
2.10788e-06
4.84891e-06
7.45203e-05
9.35884e-05
6.03174e-05
5.33283e-05
6.60005e-05
8.95465e-05
0.000107338
0.00010833
9.40994e-05
7.4598e-05
5.96558e-05
5.23162e-05
5.17835e-05
5.66456e-05
6.47565e-05
7.34591e-05
8.10118e-05
8.67122e-05
9.04004e-05
9.23298e-05
9.32845e-05
9.44995e-05
9.70192e-05
0.000100697
0.000103819
0.000103587
9.66703e-05
7.98917e-05
5.2695e-05
1.97311e-05
4.77893e-07
2.08195e-06
3.97065e-06
2.75207e-06
5.05764e-06
5.56886e-05
9.10286e-05
7.85568e-05
6.85035e-05
6.32815e-05
6.06384e-05
5.96174e-05
5.95506e-05
5.99978e-05
6.05934e-05
6.07058e-05
5.98734e-05
5.87026e-05
5.84972e-05
6.00413e-05
6.34013e-05
6.84247e-05
7.50461e-05
8.33544e-05
9.35307e-05
0.000105806
0.000120224
0.000135862
0.000150277
0.000160267
0.000163886
0.000160277
0.00014493
0.000108161
5.07664e-05
1.02907e-05
7.67938e-09
3.61579e-06
3.73786e-06
4.0347e-06
2.91964e-05
6.53433e-05
7.70555e-05
7.08293e-05
5.87101e-05
4.97246e-05
4.5123e-05
4.37853e-05
4.49609e-05
4.82777e-05
5.33673e-05
5.96144e-05
6.61598e-05
7.22168e-05
7.74214e-05
8.18851e-05
8.5987e-05
9.01469e-05
9.47589e-05
0.00010024
0.000107041
0.000115421
0.000125027
0.000134515
0.000141345
0.000142334
0.000135587
0.000122111
0.00010294
7.01725e-05
1.9686e-05
3.55676e-06
4.7264e-06
4.43635e-06
4.09215e-06
2.24268e-05
5.11078e-05
7.37727e-05
8.2642e-05
8.00957e-05
6.96799e-05
5.76343e-05
4.81232e-05
4.17865e-05
3.81985e-05
3.71139e-05
3.87267e-05
4.37057e-05
5.30215e-05
6.71239e-05
8.44242e-05
0.000101621
0.000116903
0.000130079
0.00014015
0.000145638
0.000146384
0.000143573
0.000138323
0.000131124
0.000121952
0.000110581
9.68135e-05
7.89376e-05
5.15529e-05
1.79373e-05
5.28041e-06
8.27129e-06
5.12286e-06
4.12041e-06
1.95544e-05
4.5285e-05
7.47686e-05
9.43427e-05
0.00010267
0.000102231
9.43872e-05
8.18384e-05
6.89243e-05
5.82035e-05
4.98296e-05
4.339e-05
3.88406e-05
3.65419e-05
3.73222e-05
4.28325e-05
5.5701e-05
7.68847e-05
9.88568e-05
0.000113408
0.000123981
0.000133585
0.000139612
0.00013778
0.000126812
0.000110371
9.38396e-05
8.00802e-05
6.72863e-05
4.75541e-05
1.90961e-05
7.00467e-06
1.13762e-05
5.51087e-06
3.98593e-06
1.57179e-05
4.12421e-05
7.52541e-05
9.34838e-05
9.72527e-05
9.34151e-05
8.65659e-05
8.027e-05
7.68068e-05
7.6842e-05
7.83559e-05
7.658e-05
6.84532e-05
5.68697e-05
4.64115e-05
3.93942e-05
3.69109e-05
4.06442e-05
5.39987e-05
7.9995e-05
0.000110168
0.000128559
0.000135234
0.00013403
0.000123019
0.00010222
7.87581e-05
6.02062e-05
4.75429e-05
3.47628e-05
1.73937e-05
8.82482e-06
1.68879e-05
5.93904e-06
4.49267e-06
1.82287e-05
5.62562e-05
9.86601e-05
0.000104607
9.58411e-05
8.29503e-05
7.06247e-05
6.209e-05
5.94677e-05
6.38939e-05
7.54226e-05
9.17197e-05
0.000105443
0.000104919
8.6699e-05
6.39796e-05
4.79677e-05
4.05561e-05
4.14852e-05
5.2317e-05
7.58765e-05
0.000108897
0.000137025
0.000148952
0.000142713
0.0001204
8.85748e-05
5.86713e-05
3.94768e-05
2.86327e-05
1.61787e-05
9.05964e-06
1.78445e-05
6.45095e-06
6.02159e-06
2.95774e-05
9.60976e-05
0.000118673
0.000108751
9.34246e-05
7.92867e-05
6.8595e-05
6.1977e-05
6.0218e-05
6.45205e-05
7.54504e-05
9.12763e-05
0.000106926
0.000115081
0.000108341
8.60572e-05
6.19819e-05
4.79489e-05
4.51472e-05
5.29245e-05
7.09373e-05
9.44705e-05
0.000114338
0.000124676
0.000123797
0.000111086
8.75408e-05
5.83593e-05
3.36862e-05
2.00692e-05
1.2163e-05
8.82434e-06
2.30189e-05
7.31554e-06
6.93956e-06
3.51668e-05
9.63542e-05
0.000107775
9.96705e-05
8.75117e-05
7.66059e-05
6.92058e-05
6.53446e-05
6.41848e-05
6.54444e-05
6.97809e-05
7.76517e-05
8.78994e-05
9.69189e-05
9.88477e-05
8.85146e-05
6.95554e-05
5.47657e-05
5.11487e-05
5.95466e-05
7.77395e-05
9.76226e-05
0.000110988
0.000115989
0.000113172
0.000101751
8.04138e-05
5.23151e-05
2.79364e-05
1.45389e-05
8.9849e-06
1.00273e-05
4.11799e-05
8.09749e-06
6.46196e-06
3.06949e-05
9.47633e-05
0.00011884
0.000113092
9.80914e-05
8.20955e-05
6.9708e-05
6.20891e-05
5.86002e-05
5.82415e-05
6.03097e-05
6.46638e-05
7.12889e-05
7.91493e-05
8.53645e-05
8.60999e-05
8.02685e-05
7.3395e-05
7.33887e-05
8.3424e-05
9.98132e-05
0.000114928
0.000124213
0.000126449
0.000119949
0.000101105
6.96321e-05
3.76631e-05
1.83755e-05
1.03047e-05
8.29021e-06
1.5011e-05
8.70428e-05
8.21332e-06
5.90103e-06
2.77424e-05
9.41679e-05
0.00012964
0.000124241
0.000105455
8.56243e-05
7.09331e-05
6.15666e-05
5.5734e-05
5.24189e-05
5.16111e-05
5.35035e-05
5.79872e-05
6.47806e-05
7.38366e-05
8.53673e-05
9.89427e-05
0.000111438
0.00011852
0.000121697
0.000125542
0.000130931
0.000135701
0.000136331
0.000127091
0.000100975
6.20837e-05
3.01317e-05
1.40336e-05
8.36362e-06
8.61511e-06
2.03434e-05
8.89518e-05
8.18004e-06
5.82169e-06
2.65402e-05
8.54232e-05
0.000122684
0.000117328
9.83281e-05
7.94893e-05
6.70715e-05
6.06271e-05
5.69221e-05
5.30446e-05
4.90437e-05
4.72148e-05
4.97964e-05
5.84047e-05
7.37627e-05
9.43529e-05
0.00011517
0.000130772
0.000139933
0.000144826
0.000147857
0.000150081
0.000150507
0.000145602
0.000128994
9.62953e-05
5.68361e-05
2.75822e-05
1.29398e-05
7.74603e-06
8.83889e-06
2.34615e-05
6.54204e-05
7.96947e-06
6.35921e-06
2.97217e-05
9.11813e-05
0.000122307
0.000115475
9.67648e-05
7.77539e-05
6.48273e-05
5.91409e-05
5.8935e-05
5.98356e-05
5.66185e-05
5.04073e-05
4.73409e-05
5.15009e-05
6.44371e-05
8.4508e-05
0.000106543
0.000126366
0.000143108
0.000156905
0.000167228
0.000173066
0.0001732
0.000164793
0.000142211
0.000103069
5.94077e-05
2.84502e-05
1.32706e-05
7.81271e-06
8.77214e-06
2.35222e-05
5.78018e-05
7.76944e-06
6.88093e-06
3.37794e-05
9.79352e-05
0.000121443
0.000116217
0.000100286
8.04256e-05
6.36566e-05
5.39243e-05
5.15292e-05
5.48609e-05
5.92782e-05
5.75555e-05
5.06451e-05
4.78523e-05
5.41635e-05
7.07266e-05
9.5664e-05
0.000124058
0.000151226
0.000174309
0.000190483
0.000194165
0.000192432
0.000186656
0.000156619
0.000109037
6.09315e-05
2.8601e-05
1.32585e-05
7.96268e-06
9.24289e-06
2.52015e-05
5.40674e-05
7.68265e-06
6.80817e-06
3.33163e-05
9.84696e-05
0.000123672
0.000120027
0.000104366
8.3702e-05
6.52207e-05
5.28995e-05
4.72221e-05
4.72432e-05
5.09604e-05
5.4949e-05
5.63545e-05
5.65608e-05
6.03714e-05
7.05066e-05
8.62697e-05
0.000105541
0.000126246
0.000146367
0.000163744
0.000176286
0.000181483
0.000174329
0.0001482
0.000104627
5.95383e-05
2.85956e-05
1.34533e-05
8.17675e-06
9.86938e-06
2.80828e-05
4.9489e-05
7.56069e-06
6.27891e-06
2.94596e-05
9.15668e-05
0.000123263
0.00012214
0.000107389
8.74728e-05
6.93228e-05
5.62036e-05
4.87369e-05
4.67331e-05
4.99517e-05
5.75267e-05
6.65181e-05
7.27807e-05
7.51176e-05
7.67143e-05
8.11146e-05
8.93801e-05
0.00010086
0.000114265
0.000127924
0.000139517
0.000145591
0.000141432
0.000122744
9.04411e-05
5.46469e-05
2.79346e-05
1.37827e-05
8.53393e-06
1.05263e-05
3.14907e-05
4.26183e-05
7.26904e-06
6.04518e-06
2.67842e-05
8.12021e-05
0.000119755
0.000124502
0.000116613
0.000101252
8.13364e-05
6.31485e-05
5.20831e-05
4.86982e-05
5.14538e-05
5.88428e-05
6.90459e-05
7.87222e-05
8.39288e-05
8.38327e-05
8.19823e-05
8.24123e-05
8.66066e-05
9.40442e-05
0.000103259
0.00011209
0.000117858
0.000117717
0.000108911
8.92959e-05
6.07947e-05
3.35339e-05
1.65934e-05
9.43976e-06
1.00367e-05
2.77224e-05
3.96061e-05
6.63835e-06
6.5714e-06
3.02716e-05
8.91734e-05
0.000125094
0.000126783
0.000117478
0.000103074
8.52554e-05
6.61721e-05
5.12806e-05
4.50396e-05
4.76075e-05
5.67928e-05
6.89415e-05
8.03247e-05
8.92866e-05
9.53512e-05
9.72211e-05
9.44063e-05
9.01745e-05
8.85908e-05
9.08308e-05
9.55341e-05
0.000100129
0.000101694
9.76974e-05
8.63443e-05
6.70124e-05
4.30268e-05
2.29911e-05
1.22095e-05
1.00993e-05
2.2005e-05
4.46797e-05
6.03713e-06
7.07807e-06
3.61097e-05
0.000107007
0.000131324
0.000130516
0.000121027
0.000105916
8.73389e-05
6.83673e-05
5.26928e-05
4.34065e-05
4.2235e-05
4.97643e-05
6.4837e-05
8.21718e-05
9.46405e-05
9.99532e-05
9.96594e-05
9.50092e-05
8.75064e-05
8.02811e-05
7.61179e-05
7.55238e-05
7.72644e-05
7.93022e-05
7.93403e-05
7.52493e-05
6.52672e-05
4.90179e-05
3.03689e-05
1.65781e-05
1.13399e-05
1.88347e-05
6.23466e-05
5.64227e-06
6.88595e-06
3.51992e-05
0.000107381
0.000136882
0.000137215
0.000128107
0.000114542
9.81866e-05
8.00986e-05
6.27588e-05
4.95182e-05
4.26463e-05
4.32125e-05
5.22092e-05
6.95962e-05
9.03504e-05
0.000105519
0.000110529
0.000106451
9.63406e-05
8.41551e-05
7.38386e-05
6.74095e-05
6.4622e-05
6.40685e-05
6.39148e-05
6.22102e-05
5.7068e-05
4.71716e-05
3.33147e-05
2.00889e-05
1.32236e-05
1.87554e-05
7.80712e-05
5.47112e-06
6.8923e-06
3.52215e-05
0.000109603
0.000143052
0.000141742
0.000131566
0.000119232
0.000106224
9.16446e-05
7.54918e-05
6.07228e-05
5.08647e-05
4.75069e-05
5.14843e-05
6.40623e-05
8.49525e-05
0.00010823
0.000125063
0.000131025
0.000125537
0.000110321
9.11385e-05
7.49262e-05
6.45054e-05
5.89806e-05
5.62462e-05
5.40797e-05
5.02446e-05
4.29091e-05
3.2001e-05
2.07176e-05
1.43775e-05
2.00271e-05
8.16605e-05
5.45688e-06
7.32457e-06
4.05105e-05
0.000120312
0.000142545
0.000137415
0.000125682
0.000112161
9.78178e-05
8.26917e-05
6.80655e-05
5.66764e-05
5.08106e-05
5.11249e-05
5.79255e-05
7.25832e-05
9.5652e-05
0.000122288
0.000143845
0.000155299
0.000155087
0.00014197
0.000117774
9.1165e-05
7.07593e-05
5.82659e-05
5.13179e-05
4.70078e-05
4.27581e-05
3.65465e-05
2.80566e-05
1.95818e-05
1.52717e-05
2.28038e-05
7.86967e-05
5.56752e-06
7.42605e-06
4.33899e-05
0.000125945
0.000144871
0.000139901
0.000128929
0.000116791
0.000104136
8.97524e-05
7.37537e-05
5.94082e-05
5.07812e-05
5.00117e-05
5.76138e-05
7.33314e-05
9.55154e-05
0.000119804
0.000140506
0.000153901
0.000158306
0.000151888
0.000133014
0.000105216
7.83459e-05
5.92873e-05
4.78842e-05
4.11614e-05
3.6178e-05
3.0622e-05
2.39032e-05
1.77952e-05
1.56715e-05
2.55531e-05
7.09782e-05
5.69358e-06
7.18847e-06
4.04684e-05
0.000121072
0.000141992
0.000135864
0.00012358
0.000111637
0.000101539
9.17453e-05
7.9929e-05
6.60781e-05
5.41127e-05
4.85914e-05
5.21407e-05
6.66695e-05
9.29097e-05
0.000125911
0.000155473
0.000175175
0.000183981
0.000181062
0.000163626
0.000131533
9.46857e-05
6.57412e-05
4.78416e-05
3.76738e-05
3.13814e-05
2.61227e-05
2.07907e-05
1.64594e-05
1.61192e-05
2.8365e-05
6.06638e-05
5.81263e-06
7.25392e-06
4.14806e-05
0.000121812
0.00014056
0.000133337
0.00012079
0.00010914
9.97853e-05
9.15908e-05
8.28107e-05
7.25579e-05
6.20078e-05
5.45283e-05
5.37747e-05
6.26181e-05
8.3586e-05
0.000116346
0.00015295
0.000182469
0.000199533
0.00019978
0.000191685
0.000161566
0.000117959
7.79489e-05
5.15753e-05
3.67646e-05
2.84921e-05
2.29954e-05
1.84901e-05
1.53615e-05
1.63059e-05
3.04206e-05
5.32686e-05
5.87632e-06
7.26222e-06
4.24582e-05
0.000122501
0.000137418
0.000128818
0.000115605
0.000103936
9.50058e-05
8.72961e-05
7.89735e-05
6.98504e-05
6.16623e-05
5.67484e-05
5.73262e-05
6.58763e-05
8.52703e-05
0.000116479
0.000153886
0.000186558
0.000204303
0.000201757
0.00019895
0.000180556
0.000136339
8.98388e-05
5.65833e-05
3.72935e-05
2.68971e-05
2.0914e-05
1.68867e-05
1.45821e-05
1.64753e-05
3.21322e-05
4.75351e-05
5.94497e-06
7.1865e-06
4.18798e-05
0.000120548
0.00013692
0.000128976
0.000115728
0.000104086
9.60617e-05
9.02858e-05
8.40068e-05
7.55098e-05
6.60878e-05
5.91304e-05
5.75518e-05
6.32549e-05
7.81199e-05
0.000103726
0.000138132
0.000173514
0.000199627
0.000203334
0.000200807
0.000192821
0.000152907
0.000103328
6.38604e-05
3.96266e-05
2.65388e-05
1.96417e-05
1.57651e-05
1.39413e-05
1.63722e-05
3.31063e-05
4.42785e-05
6.00101e-06
7.1194e-06
4.19278e-05
0.000120873
0.000135242
0.000124738
0.000109474
9.70482e-05
8.93958e-05
8.50512e-05
8.1212e-05
7.55941e-05
6.84037e-05
6.25957e-05
6.17156e-05
6.83011e-05
8.40114e-05
0.000109581
0.000142936
0.000177469
0.000203442
0.000205627
0.000203301
0.000200679
0.000163667
0.000113255
7.04736e-05
4.25271e-05
2.6791e-05
1.86271e-05
1.46978e-05
1.35294e-05
1.68695e-05
3.52765e-05
4.10878e-05
6.01945e-06
7.16595e-06
4.26824e-05
0.000121673
0.000135602
0.000124549
0.000108623
9.59031e-05
8.86606e-05
8.56038e-05
8.37937e-05
8.00603e-05
7.32856e-05
6.60446e-05
6.27675e-05
6.69432e-05
8.06101e-05
0.000104487
0.000136798
0.00017181
0.00020034
0.000208322
0.000206183
0.000203701
0.000173521
0.00012491
7.98797e-05
4.82485e-05
2.93236e-05
1.91011e-05
1.41805e-05
1.28485e-05
1.64548e-05
3.55131e-05
3.93865e-05
6.02294e-06
7.18002e-06
4.36296e-05
0.000122253
0.000132221
0.000118583
0.000101333
8.83944e-05
8.13273e-05
7.86897e-05
7.81e-05
7.69965e-05
7.38778e-05
6.99201e-05
6.87648e-05
7.445e-05
8.98268e-05
0.000115436
0.000148215
0.000181609
0.000206985
0.000211463
0.000209512
0.000206836
0.000171918
0.000124279
8.11533e-05
5.00094e-05
3.05099e-05
1.95065e-05
1.4089e-05
1.27113e-05
1.6828e-05
3.74688e-05
3.70077e-05
5.97345e-06
7.17154e-06
4.37045e-05
0.000122573
0.000131923
0.000117436
9.99128e-05
8.73913e-05
8.10255e-05
7.91386e-05
7.93927e-05
7.91269e-05
7.62491e-05
7.14315e-05
6.85659e-05
7.22424e-05
8.57874e-05
0.00011021
0.000142757
0.000176886
0.000204254
0.000214356
0.000212828
0.00020809
0.00017682
0.000133626
9.13015e-05
5.75456e-05
3.46755e-05
2.11976e-05
1.43828e-05
1.23383e-05
1.61383e-05
3.64889e-05
3.56826e-05
5.89585e-06
7.19086e-06
4.44731e-05
0.000123143
0.000127278
0.000109733
9.15062e-05
7.98299e-05
7.45361e-05
7.33891e-05
7.443e-05
7.59612e-05
7.62105e-05
7.45432e-05
7.34039e-05
7.75979e-05
9.15043e-05
0.000116529
0.000148996
0.000181174
0.000205246
0.000215134
0.000214252
0.000195764
0.000164059
0.000126466
9.01894e-05
6.00404e-05
3.79127e-05
2.35228e-05
1.55256e-05
1.26557e-05
1.60356e-05
3.62722e-05
3.4461e-05
5.78994e-06
7.11448e-06
4.36079e-05
0.000121828
0.000125926
0.000107793
8.93168e-05
7.82201e-05
7.40136e-05
7.38236e-05
7.51261e-05
7.62536e-05
7.59985e-05
7.38434e-05
7.14655e-05
7.30337e-05
8.30747e-05
0.000104009
0.000133593
0.000164582
0.000188796
0.000200858
0.000198669
0.000183008
0.000157149
0.000125778
9.3772e-05
6.52162e-05
4.26896e-05
2.6962e-05
1.74828e-05
1.33833e-05
1.56255e-05
3.36447e-05
3.50449e-05
5.73144e-06
7.02303e-06
4.24038e-05
0.000119077
0.000121317
0.000101287
8.18482e-05
7.08409e-05
6.72381e-05
6.7884e-05
7.01689e-05
7.26173e-05
7.45429e-05
7.55094e-05
7.59381e-05
7.84448e-05
8.71854e-05
0.000104932
0.000129858
0.000155144
0.000173243
0.000179843
0.000174342
0.000158777
0.000136528
0.000111176
8.58214e-05
6.28401e-05
4.37896e-05
2.93795e-05
1.9734e-05
1.4916e-05
1.64717e-05
3.36973e-05
3.6383e-05
5.73165e-06
6.89237e-06
3.98753e-05
0.000115972
0.000121505
0.000101238
8.05226e-05
6.90822e-05
6.60238e-05
6.7618e-05
7.04445e-05
7.24391e-05
7.31653e-05
7.31649e-05
7.3365e-05
7.54544e-05
8.22405e-05
9.63421e-05
0.000117421
0.000140315
0.000157342
0.000163106
0.000156942
0.00014183
0.00012176
9.98719e-05
7.83189e-05
5.87369e-05
4.23886e-05
2.98937e-05
2.12518e-05
1.66728e-05
1.82905e-05
3.58525e-05
3.73505e-05
5.70826e-06
6.83697e-06
3.77029e-05
0.000111536
0.000118003
9.63323e-05
7.38824e-05
6.18346e-05
5.93089e-05
6.26034e-05
6.81846e-05
7.33335e-05
7.68876e-05
7.93362e-05
8.19213e-05
8.57347e-05
9.17794e-05
0.000101372
0.000115158
0.000131168
0.000144307
0.000148801
0.000142214
0.000127009
0.00010793
8.86073e-05
7.05696e-05
5.43049e-05
4.03644e-05
2.94483e-05
2.1903e-05
1.812e-05
2.055e-05
3.96441e-05
3.68898e-05
5.66795e-06
6.84862e-06
3.61303e-05
0.000107306
0.000115907
9.52569e-05
7.18394e-05
5.86917e-05
5.59542e-05
6.013e-05
6.7496e-05
7.44983e-05
7.87609e-05
7.9999e-05
7.99679e-05
8.16083e-05
8.80559e-05
0.000101602
0.000121553
0.000142218
0.000155417
0.000155872
0.000143423
0.000122408
9.9096e-05
7.8202e-05
6.13037e-05
4.78857e-05
3.70378e-05
2.84308e-05
2.23611e-05
1.97108e-05
2.35683e-05
4.50084e-05
3.49745e-05
5.55346e-06
6.83757e-06
3.51758e-05
0.000103854
0.000112931
9.2607e-05
6.8222e-05
5.38936e-05
5.0542e-05
5.52119e-05
6.48963e-05
7.63164e-05
8.65493e-05
9.37627e-05
9.70169e-05
9.6487e-05
9.43989e-05
9.47146e-05
0.000100951
0.000113825
0.000129431
0.000140054
0.000138921
0.000124677
0.000102107
7.85858e-05
5.91427e-05
4.48682e-05
3.46791e-05
2.73115e-05
2.23441e-05
2.06181e-05
2.55448e-05
4.77447e-05
3.33565e-05
5.43416e-06
6.89388e-06
3.56386e-05
0.000104418
0.000113128
9.39472e-05
6.89377e-05
5.27033e-05
4.77367e-05
5.15576e-05
6.11661e-05
7.23599e-05
8.09789e-05
8.58518e-05
8.86547e-05
9.14204e-05
9.52921e-05
0.000100925
0.000109033
0.000119491
0.000129729
0.000135077
0.000131681
0.000118718
9.8655e-05
7.64479e-05
5.6949e-05
4.24012e-05
3.25265e-05
2.60686e-05
2.21733e-05
2.14132e-05
2.74393e-05
5.0407e-05
3.14524e-05
5.30692e-06
6.90646e-06
3.64498e-05
0.000105609
0.000115078
9.73805e-05
7.2157e-05
5.33669e-05
4.56269e-05
4.76048e-05
5.76899e-05
7.33628e-05
8.93462e-05
9.98189e-05
0.000102927
0.000101216
9.84983e-05
9.75458e-05
9.98121e-05
0.000105294
0.000111895
0.000116115
0.000115517
0.000109191
9.65963e-05
7.87859e-05
5.96888e-05
4.36071e-05
3.22863e-05
2.52319e-05
2.15067e-05
2.12257e-05
2.76704e-05
5.03941e-05
3.011e-05
5.1864e-06
7.02703e-06
3.90558e-05
0.000112497
0.000120707
0.000102908
7.78303e-05
5.7444e-05
4.69525e-05
4.59166e-05
5.29302e-05
6.63502e-05
8.30472e-05
9.84825e-05
0.000108889
0.000113051
0.000112227
0.000108984
0.000106105
0.000105495
0.000106806
0.000107199
0.000104112
9.77829e-05
8.91006e-05
7.73392e-05
6.24421e-05
4.71035e-05
3.45749e-05
2.60988e-05
2.14696e-05
2.0777e-05
2.6841e-05
4.88683e-05
2.99389e-05
5.1557e-06
7.05925e-06
4.14923e-05
0.000119652
0.000126028
0.000105853
8.05619e-05
6.0333e-05
4.87675e-05
4.62291e-05
5.22014e-05
6.55861e-05
8.32996e-05
0.000100396
0.000112917
0.000119708
0.00012152
0.000119689
0.000115838
0.000111758
0.000108305
0.000104185
9.71228e-05
8.74062e-05
7.75788e-05
6.83732e-05
5.83381e-05
4.69747e-05
3.60205e-05
2.74535e-05
2.21716e-05
2.08761e-05
2.65564e-05
4.85392e-05
2.99942e-05
5.11979e-06
7.27149e-06
4.55085e-05
0.000129333
0.000129439
0.000104054
8.02545e-05
6.364e-05
5.29507e-05
4.88587e-05
5.27155e-05
6.49282e-05
8.37971e-05
0.000104546
0.000121532
0.000131739
0.000135244
0.000133616
0.000128651
0.000121964
0.000114627
0.000106341
9.562e-05
8.24488e-05
6.98228e-05
6.00507e-05
5.20547e-05
4.37042e-05
3.50051e-05
2.76196e-05
2.27642e-05
2.14374e-05
2.69516e-05
4.8987e-05
3.02536e-05
4.99661e-06
7.38828e-06
4.95385e-05
0.00013646
0.000121888
8.95413e-05
6.96973e-05
6.02082e-05
5.51628e-05
5.35578e-05
5.76083e-05
6.92118e-05
8.80581e-05
0.000110734
0.000132032
0.00014781
0.000156311
0.00015765
0.000153076
0.000144491
0.000133666
0.000120903
0.000104708
8.48048e-05
6.54553e-05
5.18224e-05
4.43618e-05
3.9362e-05
3.33179e-05
2.68546e-05
2.24412e-05
2.16715e-05
2.77706e-05
4.99649e-05
2.98916e-05
4.83212e-06
7.58577e-06
5.352e-05
0.000140107
0.000108148
7.46443e-05
6.17415e-05
5.90616e-05
5.88569e-05
5.99265e-05
6.5081e-05
7.67893e-05
9.49898e-05
0.000116714
0.000137728
0.000154759
0.000166241
0.000171709
0.000171184
0.000165153
0.000154732
0.000141012
0.000123598
0.000100898
7.44133e-05
5.13856e-05
3.77065e-05
3.23363e-05
3.01577e-05
2.64349e-05
2.20414e-05
2.06202e-05
2.60278e-05
4.69573e-05
2.97186e-05
4.70539e-06
7.71222e-06
5.81952e-05
0.000132182
8.144e-05
5.57658e-05
5.19612e-05
5.68661e-05
6.31745e-05
6.93721e-05
7.80632e-05
9.19926e-05
0.000111468
0.000133942
0.000155698
0.000173881
0.000187097
0.000194846
0.000196854
0.000192909
0.000183149
0.000168262
0.000148902
0.000124762
9.53065e-05
6.3918e-05
3.94557e-05
2.70934e-05
2.3972e-05
2.42442e-05
2.26867e-05
2.0849e-05
2.47537e-05
4.38171e-05
3.07174e-05
4.64313e-06
7.79763e-06
6.17551e-05
0.000113954
6.07957e-05
4.53479e-05
4.93442e-05
6.05449e-05
7.09961e-05
7.99004e-05
9.05922e-05
0.000105304
0.000123791
0.000144062
0.000163759
0.000181133
0.000195227
0.000205528
0.000211566
0.00021265
0.000207845
0.000196273
0.000177628
0.000152329
0.000121202
8.59362e-05
5.21494e-05
2.90682e-05
1.94078e-05
1.84876e-05
2.07664e-05
2.20131e-05
2.61051e-05
4.44384e-05
3.26776e-05
4.60819e-06
7.75748e-06
6.35037e-05
9.06366e-05
4.65244e-05
3.83414e-05
4.74511e-05
6.39626e-05
7.91659e-05
9.15414e-05
0.000104287
0.000119609
0.000137374
0.000156149
0.000174389
0.00019102
0.000205337
0.000216636
0.000224065
0.000226962
0.000225161
0.000218242
0.000204473
0.000181643
0.000149644
0.000111301
7.1642e-05
3.88701e-05
2.03242e-05
1.43405e-05
1.55516e-05
2.0423e-05
2.85826e-05
4.84798e-05
3.21681e-05
4.54036e-06
7.55361e-06
5.8466e-05
8.26379e-05
4.44507e-05
3.67876e-05
4.46888e-05
6.01574e-05
7.66849e-05
9.17256e-05
0.000106259
0.000121697
0.000138353
0.000155663
0.000172706
0.000188619
0.000202731
0.000214503
0.00022346
0.000229114
0.000230769
0.000227306
0.000216966
0.00019798
0.000169946
0.000134357
9.4344e-05
5.59428e-05
2.81796e-05
1.48744e-05
1.17701e-05
1.49916e-05
2.52412e-05
4.81709e-05
2.8799e-05
4.38354e-06
7.19564e-06
4.74365e-05
9.46601e-05
5.78101e-05
3.94386e-05
3.71273e-05
4.37768e-05
5.67155e-05
7.41991e-05
9.38023e-05
0.000113595
0.000132917
0.000151638
0.000169421
0.000185686
0.000199861
0.000211432
0.000219983
0.000225225
0.000226761
0.000223858
0.000215514
0.000200795
0.000179222
0.000150965
0.000116908
7.93665e-05
4.49547e-05
2.23023e-05
1.25421e-05
1.14036e-05
1.78914e-05
3.88659e-05
2.64405e-05
4.15606e-06
6.87699e-06
3.90622e-05
0.000100788
9.06805e-05
5.72631e-05
3.80645e-05
3.24163e-05
3.49269e-05
4.50838e-05
6.39164e-05
8.97134e-05
0.000117431
0.000143239
0.000166147
0.000186016
0.000202471
0.000215122
0.000223768
0.000228345
0.000228827
0.000225039
0.000216638
0.000203458
0.000185548
0.000162993
0.000135791
0.000104023
6.94134e-05
3.87538e-05
1.97919e-05
1.24445e-05
1.39918e-05
2.86185e-05
2.72134e-05
3.91773e-06
6.7612e-06
3.68471e-05
0.000105402
0.000120145
9.93097e-05
6.32289e-05
3.95823e-05
2.95601e-05
2.84675e-05
3.62002e-05
5.54252e-05
8.73965e-05
0.000126729
0.000164722
0.000196948
0.000222459
0.00024039
0.000250475
0.000253709
0.000251316
0.00024421
0.000233034
0.000218162
0.000199746
0.000178068
0.000153415
0.000125565
9.41572e-05
6.11414e-05
3.38159e-05
1.8575e-05
1.48539e-05
2.40696e-05
3.19995e-05
3.72629e-06
7.03813e-06
4.00117e-05
0.000124378
0.000138352
0.000118394
9.64344e-05
6.9196e-05
4.29033e-05
2.90289e-05
2.67786e-05
3.55265e-05
5.87187e-05
0.000100486
0.000158075
0.000220542
0.000257933
0.000258241
0.000257694
0.00025636
0.000254305
0.000251581
0.000248222
0.000244256
0.000221703
0.00019575
0.000169721
0.000142479
0.000112973
8.08578e-05
4.97893e-05
2.78334e-05
1.90487e-05
2.47821e-05
4.027e-05
3.62575e-06
7.54851e-06
4.4914e-05
0.000133168
0.00012182
8.47965e-05
6.97172e-05
7.00828e-05
6.23694e-05
4.08792e-05
2.94395e-05
3.17639e-05
4.90155e-05
8.87564e-05
0.000160722
0.00024839
0.000255665
0.000256548
0.00025661
0.000255873
0.00025439
0.000252219
0.000249411
0.000246013
0.000238384
0.000208001
0.000177999
0.000149997
0.000121709
9.14868e-05
6.07204e-05
3.60327e-05
2.41156e-05
2.82015e-05
4.79335e-05
3.62626e-06
7.94564e-06
5.00459e-05
0.000129738
9.94307e-05
6.13401e-05
4.81985e-05
5.05472e-05
5.5814e-05
4.8408e-05
3.72136e-05
3.75896e-05
5.5252e-05
9.80145e-05
0.000168655
0.000239295
0.000254619
0.000255442
0.000255597
0.000255056
0.000253835
0.000251974
0.00024952
0.000246536
0.000229744
0.000201043
0.000172545
0.000145985
0.00011977
9.2226e-05
6.39915e-05
4.03419e-05
2.81446e-05
3.23384e-05
5.14041e-05