/*--------------------------------*- C++ -*----------------------------------*\
| =========                 |                                                 |
| \\      /  F ield         | OpenFOAM: The Open Source CFD Toolbox           |
|  \\    /   O peration     | Version:  v2012                                 |
|   \\  /    A nd           | Website:  www.openfoam.com                      |
|    \\/     M anipulation  |                                                 |
\*---------------------------------------------------------------------------*/
FoamFile
{
    version     2.0;
    format      ascii;
    class       surfaceScalarField;
    location    "60";
    object      phi;
}
// * * * * * * * * * * * * * * * * * * * * * * * * * * * * * * * * * * * * * //

dimensions      [1 0 -1 0 0 0 0];
oriented        oriented;


internalField   nonuniform List<scalar> 
228225
(
-4.21016e-09
6.50483e-09
-1.90111e-09
-1.68554e-08
1.96891e-08
-7.0448e-09
-3.56112e-08
2.73889e-08
-8.63569e-09
-5.97859e-08
3.35959e-08
-9.41893e-09
-8.83555e-08
3.85213e-08
-9.94648e-09
-1.20106e-07
4.2153e-08
-1.04073e-08
-1.53896e-07
4.46347e-08
-1.08467e-08
-1.88568e-07
4.59854e-08
-1.13102e-08
-2.23155e-07
4.6392e-08
-1.18028e-08
-2.56699e-07
4.58945e-08
-1.23577e-08
-2.88412e-07
4.46958e-08
-1.29782e-08
-3.17584e-07
4.28618e-08
-1.36924e-08
-3.43648e-07
4.05638e-08
-1.44968e-08
-3.661e-07
3.78576e-08
-1.54058e-08
-3.84554e-07
3.48576e-08
-1.64039e-08
-3.98674e-07
3.16247e-08
-1.75059e-08
-4.08312e-07
2.82773e-08
-1.86364e-08
-4.13337e-07
2.48402e-08
-1.98172e-08
-4.13696e-07
2.13912e-08
-2.10309e-08
-4.09406e-07
1.79597e-08
-2.22486e-08
-4.00578e-07
1.46011e-08
-2.34303e-08
-3.87353e-07
1.13304e-08
-2.45554e-08
-3.69944e-07
8.18349e-09
-2.55939e-08
-3.48594e-07
5.17383e-09
-2.65218e-08
-3.23608e-07
2.32747e-09
-2.73124e-08
-2.95331e-07
-3.37615e-10
-2.79429e-08
-2.64134e-07
-2.80417e-09
-2.83901e-08
-2.30462e-07
-5.03928e-09
-2.86318e-08
-1.94812e-07
-7.01042e-09
-2.86441e-08
-1.57742e-07
-8.67167e-09
-2.83958e-08
-1.19949e-07
-9.96257e-09
-2.78298e-08
-8.23594e-08
-1.07833e-08
-2.68073e-08
-4.64714e-08
-1.09484e-08
-2.49393e-08
-1.52622e-08
-1.01418e-08
-2.1069e-08
-6.30149e-09
-8.95946e-09
-1.4056e-08
3.97111e-08
-1.91504e-08
-4.63894e-08
7.24998e-08
-2.04759e-08
-8.49433e-08
8.71867e-08
-2.12455e-08
-1.26313e-07
9.73344e-08
-2.23682e-08
-1.68035e-07
1.03681e-07
-2.34382e-08
-2.08427e-07
1.06928e-07
-2.43844e-08
-2.46135e-07
1.07611e-07
-2.52665e-08
-2.80263e-07
1.06211e-07
-2.60974e-08
-3.10108e-07
1.03132e-07
-2.68949e-08
-3.35294e-07
9.87325e-08
-2.7651e-08
-3.55598e-07
9.33714e-08
-2.8374e-08
-3.71049e-07
8.73669e-08
-2.90538e-08
-3.81765e-07
8.09777e-08
-2.96965e-08
-3.88008e-07
7.43926e-08
-3.02922e-08
-3.90031e-07
6.77322e-08
-3.08524e-08
-3.88157e-07
6.1114e-08
-3.13641e-08
-3.82671e-07
5.46231e-08
-3.18312e-08
-3.73909e-07
4.83239e-08
-3.22451e-08
-3.62174e-07
4.22641e-08
-3.26089e-08
-3.47787e-07
3.64935e-08
-3.29195e-08
-3.31045e-07
3.10356e-08
-3.3177e-08
-3.12247e-07
2.5909e-08
-3.33769e-08
-2.91671e-07
2.11274e-08
-3.35191e-08
-2.69594e-07
1.66958e-08
-3.35996e-08
-2.46264e-07
1.2614e-08
-3.36158e-08
-2.21925e-07
8.88366e-09
-3.35611e-08
-1.96807e-07
5.50538e-09
-3.3428e-08
-1.71128e-07
2.48388e-09
-3.32028e-08
-1.45095e-07
-1.77592e-10
-3.28646e-08
-1.18936e-07
-2.44962e-09
-3.23811e-08
-9.28688e-08
-4.31541e-09
-3.17141e-08
-6.71362e-08
-5.70968e-09
-3.08063e-08
-4.21031e-08
-6.53107e-09
-2.9451e-08
-1.87528e-08
-6.45831e-09
-2.70327e-08
-3.57683e-09
-2.14782e-08
-1.30141e-08
5.88322e-08
-6.10774e-09
-3.24264e-08
9.9342e-08
-7.42867e-09
-5.37142e-08
1.16595e-07
-8.12165e-09
-7.54683e-08
1.27988e-07
-8.89821e-09
-9.67077e-08
1.34666e-07
-9.74661e-09
-1.16683e-07
1.37617e-07
-1.07132e-08
-1.34846e-07
1.37553e-07
-1.17788e-08
-1.50754e-07
1.35088e-07
-1.29697e-08
-1.64075e-07
1.30713e-07
-1.42601e-08
-1.74637e-07
1.2494e-07
-1.5646e-08
-1.82439e-07
1.18219e-07
-1.7046e-08
-1.87605e-07
1.10937e-07
-1.8402e-08
-1.90362e-07
1.03382e-07
-1.96477e-08
-1.90939e-07
9.57527e-08
-2.07852e-08
-1.89596e-07
8.82002e-08
-2.18097e-08
-1.86567e-07
8.08196e-08
-2.27337e-08
-1.82072e-07
7.36739e-08
-2.35473e-08
-1.76298e-07
6.68124e-08
-2.42622e-08
-1.69427e-07
6.02677e-08
-2.48748e-08
-1.61617e-07
5.40771e-08
-2.53927e-08
-1.53023e-07
4.82563e-08
-2.58163e-08
-1.43762e-07
4.28036e-08
-2.61546e-08
-1.33943e-07
3.77151e-08
-2.64072e-08
-1.23654e-07
3.29872e-08
-2.6581e-08
-1.12994e-07
2.86314e-08
-2.66773e-08
-1.02049e-07
2.46377e-08
-2.66994e-08
-9.08941e-08
2.09964e-08
-2.66448e-08
-7.95965e-08
1.76949e-08
-2.65094e-08
-6.82158e-08
1.47235e-08
-2.62822e-08
-5.67921e-08
1.20728e-08
-2.5945e-08
-4.53768e-08
9.73648e-09
-2.54685e-08
-3.40079e-08
7.71499e-09
-2.47933e-08
-2.27578e-08
6.00532e-09
-2.37856e-08
-1.17081e-08
4.60762e-09
-2.21143e-08
2.91723e-09
-1.82044e-08
-1.35702e-08
6.17137e-08
1.06891e-08
-2.35896e-08
9.94654e-08
9.89506e-09
-3.17941e-08
1.15861e-07
8.93956e-09
-3.89294e-08
1.26966e-07
8.15604e-09
-4.54567e-08
1.33897e-07
7.29859e-09
-5.15534e-08
1.37457e-07
6.25562e-09
-5.72614e-08
1.38291e-07
4.96995e-09
-6.25344e-08
1.36844e-07
3.51487e-09
-6.72218e-08
1.33594e-07
1.80799e-09
-7.10332e-08
1.28982e-07
-2.32192e-10
-7.37003e-08
1.23413e-07
-2.52463e-09
-7.51246e-08
1.17173e-07
-4.81317e-09
-7.53835e-08
1.10559e-07
-6.91712e-09
-7.46745e-08
1.03821e-07
-8.77814e-09
-7.31927e-08
9.71799e-08
-1.04618e-08
-7.10963e-08
9.06997e-08
-1.1976e-08
-6.85181e-08
8.44411e-08
-1.33453e-08
-6.55808e-08
7.84466e-08
-1.4572e-08
-6.23887e-08
7.2747e-08
-1.56708e-08
-5.90286e-08
6.73577e-08
-1.66409e-08
-5.55743e-08
6.2296e-08
-1.74935e-08
-5.20996e-08
5.7559e-08
-1.8231e-08
-4.86472e-08
5.3131e-08
-1.88665e-08
-4.52644e-08
4.90017e-08
-1.93994e-08
-4.19739e-08
4.51739e-08
-1.98321e-08
-3.88001e-08
4.16289e-08
-2.01653e-08
-3.57281e-08
3.83301e-08
-2.04043e-08
-3.27322e-08
3.52467e-08
-2.05492e-08
-2.97391e-08
3.23323e-08
-2.06009e-08
-2.66535e-08
2.95391e-08
-2.0553e-08
-2.33119e-08
2.67905e-08
-2.03943e-08
-1.94806e-08
2.40077e-08
-2.01246e-08
-1.47356e-08
2.10535e-08
-1.97938e-08
-8.60076e-09
1.78209e-08
-1.93461e-08
1.1734e-08
-1.74193e-08
-1.20096e-08
5.60724e-08
1.76509e-08
-1.51041e-08
8.55415e-08
1.70177e-08
-1.41129e-08
9.8927e-08
1.59442e-08
-1.0979e-08
1.08608e-07
1.52235e-08
-6.84877e-09
1.15175e-07
1.45919e-08
-2.40772e-09
1.19212e-07
1.38031e-08
1.93081e-09
1.21187e-07
1.27645e-08
5.92288e-09
1.21444e-07
1.14106e-08
9.46979e-09
1.20272e-07
9.77354e-09
1.25917e-08
1.17952e-07
7.90787e-09
1.53683e-08
1.14718e-07
5.91742e-09
1.78668e-08
1.10803e-07
3.87131e-09
2.01311e-08
1.06422e-07
1.87264e-09
2.21196e-08
1.01831e-07
6.8589e-13
2.37644e-08
9.72306e-08
-1.69379e-09
2.50282e-08
9.27062e-08
-3.27109e-09
2.59012e-08
8.82972e-08
-4.72953e-09
2.63633e-08
8.40546e-08
-6.07097e-09
2.64035e-08
8.00025e-08
-7.29405e-09
2.60054e-08
7.61605e-08
-8.40479e-09
2.51652e-08
7.25359e-08
-9.40028e-09
2.38753e-08
6.91332e-08
-1.0285e-08
2.21211e-08
6.59458e-08
-1.10578e-08
1.98922e-08
6.29556e-08
-1.17274e-08
1.72202e-08
6.01418e-08
-1.22945e-08
1.41461e-08
5.74681e-08
-1.27673e-08
1.07415e-08
5.48865e-08
-1.31501e-08
7.10506e-09
5.23359e-08
-1.34518e-08
3.3692e-09
4.97424e-08
-1.36771e-08
-2.61225e-10
4.70033e-08
-1.38318e-08
-3.53629e-09
4.3982e-08
-1.39169e-08
-6.05527e-09
4.0501e-08
-1.39735e-08
-7.14731e-09
3.63074e-08
-1.41627e-08
-5.82656e-09
3.10818e-08
-1.45824e-08
2.00474e-08
-1.4139e-08
-6.46445e-09
4.70623e-08
1.5474e-08
-5.91145e-09
7.02874e-08
1.47021e-08
-1.80661e-09
8.11121e-08
1.37098e-08
4.37702e-09
8.92426e-08
1.31825e-08
1.17437e-08
9.51517e-08
1.26554e-08
1.97809e-08
9.92209e-08
1.19555e-08
2.80464e-08
1.01847e-07
1.10748e-08
3.61673e-08
1.03258e-07
1.00645e-08
4.38073e-08
1.03694e-07
8.93836e-09
5.07085e-08
1.03316e-07
7.73569e-09
5.66587e-08
1.023e-07
6.46767e-09
6.15279e-08
1.00768e-07
5.16601e-09
6.52418e-08
9.88617e-08
3.84705e-09
6.78207e-08
9.67033e-08
2.54877e-09
6.93513e-08
9.44114e-08
1.28907e-09
6.99261e-08
9.20505e-08
8.06736e-11
6.96029e-08
8.96814e-08
-1.06212e-09
6.84527e-08
8.73422e-08
-2.1365e-09
6.65281e-08
8.50658e-08
-3.13874e-09
6.38789e-08
8.28693e-08
-4.05995e-09
6.0553e-08
8.07633e-08
-4.90056e-09
5.65936e-08
7.87473e-08
-5.65669e-09
5.20608e-08
7.68115e-08
-6.3314e-09
4.70024e-08
7.49377e-08
-6.92419e-09
4.14903e-08
7.30939e-08
-7.43993e-09
3.56015e-08
7.12395e-08
-7.8814e-09
2.94285e-08
6.93129e-08
-8.25535e-09
2.30973e-08
6.72381e-08
-8.56885e-09
1.67649e-08
6.49052e-08
-8.83106e-09
1.06404e-08
6.21768e-08
-9.04973e-09
4.99694e-09
5.88561e-08
-9.2321e-09
2.33116e-10
5.46955e-08
-9.42878e-09
-2.97384e-09
4.93375e-08
-9.82255e-09
-3.6946e-09
4.23552e-08
-1.05514e-08
2.71277e-08
-1.07764e-08
-2.64838e-09
3.93862e-08
1.03255e-08
-1.44431e-09
5.98711e-08
9.21202e-09
2.15424e-09
6.93943e-08
8.11687e-09
7.29315e-09
7.66344e-08
7.47032e-09
1.33368e-08
8.21041e-08
7.00432e-09
1.98471e-08
8.61851e-08
6.52479e-09
2.65268e-08
8.91675e-08
5.99867e-09
3.30846e-08
9.12792e-08
5.42162e-09
3.9289e-08
9.26848e-08
4.80452e-09
4.49366e-08
9.35265e-08
4.14186e-09
4.98834e-08
9.39073e-08
3.44479e-09
5.40146e-08
9.39242e-08
2.71321e-09
5.72643e-08
9.36501e-08
1.96171e-09
5.96142e-08
9.31568e-08
1.19651e-09
6.10905e-08
9.24999e-08
4.35355e-10
6.17189e-08
9.1731e-08
-3.10923e-10
6.15394e-08
9.08859e-08
-1.0224e-09
6.05852e-08
8.99963e-08
-1.70206e-09
5.89061e-08
8.90826e-08
-2.3373e-09
5.65444e-08
8.8157e-08
-2.926e-09
5.35458e-08
8.72241e-08
-3.46229e-09
4.99638e-08
8.62776e-08
-3.9469e-09
4.5846e-08
8.53054e-08
-4.37738e-09
4.1259e-08
8.42805e-08
-4.75681e-09
3.62713e-08
8.31688e-08
-5.08568e-09
3.09652e-08
8.19156e-08
-5.369e-09
2.54319e-08
8.04532e-08
-5.61006e-09
1.98057e-08
7.86829e-08
-5.81652e-09
1.42264e-08
7.64784e-08
-5.9948e-09
8.89023e-09
7.36649e-08
-6.15231e-09
4.03173e-09
7.00107e-08
-6.2947e-09
-1.66229e-11
6.52056e-08
-6.46264e-09
-2.704e-09
5.88254e-08
-6.80014e-09
-3.25244e-09
5.03171e-08
-7.41231e-09
3.15345e-08
-7.66091e-09
-4.96321e-10
3.40351e-08
5.84749e-09
3.26091e-10
5.40939e-08
4.9556e-09
2.0949e-09
6.34348e-08
4.1884e-09
4.41433e-09
7.0578e-08
3.73804e-09
7.05214e-09
7.60659e-08
3.40159e-09
9.89178e-09
8.02767e-08
3.06734e-09
1.28507e-08
8.35052e-08
2.70365e-09
1.58471e-08
8.5966e-08
2.31769e-09
1.87931e-08
8.78296e-08
1.90847e-09
2.16136e-08
8.92218e-08
1.48399e-09
2.42313e-08
9.02455e-08
1.04466e-09
2.6577e-08
9.09776e-08
6.001e-10
2.85938e-08
9.14828e-08
1.51518e-10
3.02262e-08
9.181e-08
-2.86382e-10
3.14391e-08
9.19997e-08
-7.12088e-10
3.22075e-08
9.20827e-08
-1.12013e-09
3.2517e-08
9.20838e-08
-1.50617e-09
3.23558e-08
9.20199e-08
-1.8641e-09
3.17336e-08
9.18991e-08
-2.1931e-09
3.06547e-08
9.17249e-08
-2.48877e-09
2.91396e-08
9.14916e-08
-2.75242e-09
2.72112e-08
9.11886e-08
-2.98192e-09
2.49025e-08
9.0793e-08
-3.1804e-09
2.22558e-08
9.02762e-08
-3.34769e-09
1.93197e-08
8.95917e-08
-3.48847e-09
1.61579e-08
8.86826e-08
-3.60434e-09
1.28472e-08
8.7465e-08
-3.70134e-09
9.47845e-09
8.58344e-08
-3.78304e-09
6.17269e-09
8.36424e-08
-3.85677e-09
3.06041e-09
8.07011e-08
-3.92568e-09
3.21773e-10
7.67465e-08
-3.99558e-09
-1.82416e-09
7.14416e-08
-4.0904e-09
-3.00494e-09
6.43119e-08
-4.30543e-09
-2.74197e-09
5.47478e-08
-4.69576e-09
3.3608e-08
-4.81366e-09
-6.60004e-10
3.1074e-08
3.62133e-09
-7.88686e-10
5.10806e-08
3.14083e-09
-4.85359e-10
6.03911e-08
2.74046e-09
5.83105e-11
6.7536e-08
2.49755e-09
7.73945e-10
7.30468e-08
2.30455e-09
1.62685e-09
7.73226e-08
2.1021e-09
2.59377e-09
8.06542e-08
1.88304e-09
3.647e-09
8.32656e-08
1.64681e-09
4.7549e-09
8.53211e-08
1.40064e-09
5.88337e-09
8.69494e-08
1.1446e-09
6.99645e-09
8.82455e-08
8.86053e-10
8.06349e-09
8.92847e-08
6.26297e-10
9.04934e-09
9.0123e-08
3.7299e-10
9.92645e-09
9.0805e-08
1.2715e-10
1.06661e-08
9.13629e-08
-1.01624e-10
1.12403e-08
9.18216e-08
-3.13169e-10
1.16302e-08
9.21974e-08
-5.02966e-10
1.1821e-08
9.25009e-08
-6.72153e-10
1.17988e-08
9.27356e-08
-8.16056e-10
1.15636e-08
9.28988e-08
-9.36957e-10
1.11067e-08
9.29814e-08
-1.03277e-09
1.04341e-08
9.29683e-08
-1.10734e-09
9.5515e-09
9.28344e-08
-1.15969e-09
8.48105e-09
9.25432e-08
-1.19514e-09
7.24128e-09
9.20461e-08
-1.21469e-09
5.87079e-09
9.12779e-08
-1.22484e-09
4.40964e-09
9.01525e-08
-1.22758e-09
2.91893e-09
8.85562e-08
-1.23047e-09
1.46153e-09
8.63372e-08
-1.23633e-09
1.17939e-10
8.32964e-08
-1.25232e-09
-1.02089e-09
7.91648e-08
-1.28027e-09
-1.82918e-09
7.35902e-08
-1.33988e-09
-2.1214e-09
6.60897e-08
-1.48542e-09
-1.65309e-09
5.60277e-08
-1.74834e-09
3.38375e-08
-1.88243e-09
-1.385e-09
2.93382e-08
3.11992e-09
-2.61656e-09
4.92012e-08
3.11052e-09
-3.6698e-09
5.8417e-08
3.02952e-09
-4.58102e-09
6.547e-08
2.97677e-09
-5.34036e-09
7.09e-08
2.90541e-09
-5.93273e-09
7.51072e-08
2.80806e-09
-6.35046e-09
7.83872e-08
2.68412e-09
-6.59086e-09
8.09625e-08
2.54279e-09
-6.65645e-09
8.30012e-08
2.38663e-09
-6.56023e-09
8.46291e-08
2.2239e-09
-6.31383e-09
8.59435e-08
2.05651e-09
-5.93997e-09
8.70163e-08
1.89249e-09
-5.45409e-09
8.79047e-08
1.73336e-09
-4.88416e-09
8.8649e-08
1.5865e-09
-4.25623e-09
8.92822e-08
1.45239e-09
-3.59861e-09
8.98252e-08
1.33706e-09
-2.93384e-09
9.02933e-08
1.24046e-09
-2.29255e-09
9.06923e-08
1.16708e-09
-1.69637e-09
9.10254e-08
1.11431e-09
-1.16746e-09
9.12858e-08
1.08513e-09
-7.27027e-10
9.14632e-08
1.07518e-09
-3.79771e-10
9.15367e-08
1.0856e-09
-1.33967e-10
9.14804e-08
1.10909e-09
7.74834e-12
9.12548e-08
1.14565e-09
5.45207e-11
9.08112e-08
1.18815e-09
1.59677e-11
9.00815e-08
1.23527e-09
-9.09577e-11
8.89805e-08
1.27872e-09
-2.45079e-10
8.7393e-08
1.31635e-09
-4.16131e-10
8.51705e-08
1.33897e-09
-5.78988e-10
8.21151e-08
1.34431e-09
-7.03174e-10
7.79653e-08
1.32278e-09
-7.51923e-10
7.23752e-08
1.2644e-09
-6.68726e-10
6.4878e-08
1.12743e-09
-3.88652e-10
5.48538e-08
8.96175e-10
3.28341e-08
6.13469e-10
-2.11458e-09
2.81711e-08
3.28047e-09
-4.02031e-09
4.74568e-08
3.65227e-09
-5.78938e-09
5.63836e-08
3.80098e-09
-7.40021e-09
6.32001e-08
3.88032e-09
-8.82219e-09
6.84261e-08
3.89753e-09
-1.00386e-08
7.24548e-08
3.86674e-09
-1.10269e-08
7.55742e-08
3.80255e-09
-1.17819e-08
7.8006e-08
3.71088e-09
-1.22968e-08
7.99129e-08
3.60255e-09
-1.25711e-08
8.14229e-08
3.48139e-09
-1.26119e-08
8.26287e-08
3.35684e-09
-1.24358e-08
8.36059e-08
3.23156e-09
-1.20511e-08
8.44075e-08
3.11404e-09
-1.14874e-08
8.5078e-08
3.0057e-09
-1.07641e-08
8.56461e-08
2.91383e-09
-9.91325e-09
8.61365e-08
2.83831e-09
-8.9654e-09
8.65608e-08
2.78479e-09
-7.95524e-09
8.69292e-08
2.75123e-09
-6.90847e-09
8.72394e-08
2.74134e-09
-5.86279e-09
8.74888e-08
2.75094e-09
-4.843e-09
8.7661e-08
2.78187e-09
-3.87316e-09
8.77376e-08
2.82859e-09
-2.96912e-09
8.76864e-08
2.89123e-09
-2.1499e-09
8.74725e-08
2.962e-09
-1.42076e-09
8.70421e-08
3.03961e-09
-7.87144e-10
8.63335e-08
3.11514e-09
-2.50588e-10
8.52583e-08
3.18632e-09
1.87206e-10
8.37101e-08
3.2432e-09
5.34965e-10
8.15419e-08
3.28251e-09
7.85559e-10
7.85696e-08
3.2934e-09
9.38565e-10
7.45417e-08
3.27125e-09
9.81304e-10
6.91348e-08
3.1984e-09
9.01934e-10
6.19078e-08
3.04733e-09
6.88085e-10
5.22807e-08
2.78925e-09
3.12004e-08
2.32044e-09
-2.30174e-09
2.72887e-08
3.18416e-09
-4.44735e-09
4.58363e-08
3.76499e-09
-6.4921e-09
5.44019e-08
4.02898e-09
-8.38506e-09
6.0918e-08
4.17382e-09
-1.00767e-08
6.58889e-08
4.22802e-09
-1.15354e-08
6.96881e-08
4.22546e-09
-1.2741e-08
7.25999e-08
4.17938e-09
-1.36719e-08
7.48355e-08
4.10322e-09
-1.43224e-08
7.65592e-08
4.00333e-09
-1.46823e-08
7.78924e-08
3.89079e-09
-1.47575e-08
7.89329e-08
3.77029e-09
-1.45544e-08
7.97514e-08
3.65148e-09
-1.40915e-08
8.0407e-08
3.53762e-09
-1.3392e-08
8.09404e-08
3.43707e-09
-1.24819e-08
8.13866e-08
3.35149e-09
-1.14e-08
8.17661e-08
3.28757e-09
-1.01815e-08
8.2097e-08
3.24497e-09
-8.86539e-09
8.23842e-08
3.22833e-09
-7.49196e-09
8.26315e-08
3.23494e-09
-6.09944e-09
8.28298e-08
3.26722e-09
-4.72774e-09
8.29689e-08
3.32012e-09
-3.40947e-09
8.30248e-08
3.39392e-09
-2.17487e-09
8.29717e-08
3.48144e-09
-1.05286e-09
8.27673e-08
3.58114e-09
-5.83903e-11
8.23648e-08
3.68421e-09
7.91676e-10
8.16962e-08
3.78776e-09
1.48472e-09
8.06826e-08
3.88172e-09
2.0185e-09
7.92144e-08
3.9621e-09
2.38409e-09
7.71588e-08
4.0176e-09
2.57497e-09
7.43344e-08
4.04306e-09
2.57886e-09
7.05121e-08
4.02526e-09
2.38123e-09
6.53817e-08
3.95271e-09
1.95621e-09
5.854e-08
3.79157e-09
1.2811e-09
4.94421e-08
3.51214e-09
2.95586e-08
2.92463e-09
-1.9926e-09
2.68218e-08
2.45734e-09
-4.00694e-09
4.48067e-08
3.04674e-09
-6.02006e-09
5.30891e-08
3.32496e-09
-7.92952e-09
5.93628e-08
3.46532e-09
-9.66487e-09
6.41127e-08
3.51175e-09
-1.11791e-08
6.77049e-08
3.49636e-09
-1.24323e-08
7.04146e-08
3.43781e-09
-1.33933e-08
7.24535e-08
3.34472e-09
-1.40444e-08
7.39808e-08
3.22884e-09
-1.43704e-08
7.51232e-08
3.09694e-09
-1.43744e-08
7.59753e-08
2.95967e-09
-1.406e-08
7.6615e-08
2.82243e-09
-1.34476e-08
7.70992e-08
2.69464e-09
-1.25633e-08
7.74764e-08
2.58021e-09
-1.14422e-08
7.77791e-08
2.48693e-09
-1.01287e-08
7.80355e-08
2.41669e-09
-8.66701e-09
7.826e-08
2.37513e-09
-7.10817e-09
7.84646e-08
2.36161e-09
-5.50427e-09
7.8648e-08
2.37924e-09
-3.90626e-09
7.88073e-08
2.42464e-09
-2.36276e-09
7.89259e-08
2.49826e-09
-9.17949e-10
7.89852e-08
2.59411e-09
3.92469e-10
7.8952e-08
2.71028e-09
1.53086e-09
7.87894e-08
2.83858e-09
2.47709e-09
7.84429e-08
2.97528e-09
3.21319e-09
7.78507e-08
3.11062e-09
3.7281e-09
7.69274e-08
3.23961e-09
4.02011e-09
7.55719e-08
3.35142e-09
4.09082e-09
7.36483e-08
3.43996e-09
3.94352e-09
7.0988e-08
3.49354e-09
3.58425e-09
6.73656e-08
3.50467e-09
3.01931e-09
6.24913e-08
3.45616e-09
2.25863e-09
5.59784e-08
3.3218e-09
1.32248e-09
4.7317e-08
3.06192e-09
2.83842e-08
2.49639e-09
-1.34088e-09
2.6982e-08
1.1809e-09
-3.03317e-09
4.48734e-08
1.62469e-09
-4.86884e-09
5.30861e-08
1.83843e-09
-6.69957e-09
5.92682e-08
1.92647e-09
-8.42197e-09
6.39075e-08
1.92676e-09
-9.95527e-09
6.73671e-08
1.87165e-09
-1.1243e-08
6.99281e-08
1.77365e-09
-1.22361e-08
7.18018e-08
1.64429e-09
-1.29017e-08
7.31555e-08
1.49098e-09
-1.32187e-08
7.4116e-08
1.32518e-09
-1.31847e-08
7.47864e-08
1.15408e-09
-1.28013e-08
7.52448e-08
9.87138e-10
-1.20907e-08
7.55574e-08
8.30273e-10
-1.108e-08
7.57732e-08
6.92982e-10
-9.81302e-09
7.59335e-08
5.79465e-10
-8.33988e-09
7.60653e-08
4.96817e-10
-6.71694e-09
7.61909e-08
4.46826e-10
-5.0075e-09
7.63191e-08
4.33692e-10
-3.26756e-09
7.6455e-08
4.56173e-10
-1.56807e-09
7.65902e-08
5.1537e-10
3.79394e-11
7.67131e-08
6.06895e-10
1.49704e-09
7.67979e-08
7.28863e-10
2.75985e-09
7.68147e-08
8.74055e-10
3.79351e-09
7.67182e-08
1.03812e-09
4.56798e-09
7.64566e-08
1.21172e-09
5.06929e-09
7.59593e-08
1.38885e-09
5.29509e-09
7.51439e-08
1.55891e-09
5.25155e-09
7.39011e-08
1.71508e-09
4.95287e-09
7.20993e-08
1.84637e-09
4.43137e-09
6.95642e-08
1.94598e-09
3.71714e-09
6.60776e-08
2.00265e-09
2.85368e-09
6.13483e-08
2.00605e-09
1.89925e-09
5.50018e-08
1.92958e-09
9.42743e-10
4.65343e-08
1.74179e-09
2.79995e-08
1.32593e-09
-6.47094e-10
2.78976e-08
-2.69373e-10
-1.97365e-09
4.62519e-08
-5.04286e-11
-3.59806e-09
5.46459e-08
6.29941e-11
-5.32695e-09
6.09244e-08
7.44624e-11
-7.02456e-09
6.55874e-08
1.53286e-11
-8.57892e-09
6.90158e-08
-9.33986e-11
-9.90922e-09
7.14981e-08
-2.39118e-10
-1.09522e-08
7.32595e-08
-4.15731e-10
-1.16548e-08
7.44726e-08
-6.13808e-10
-1.19887e-08
7.52767e-08
-8.25926e-10
-1.19413e-08
7.57797e-08
-1.04091e-09
-1.15201e-08
7.60716e-08
-1.24934e-09
-1.07427e-08
7.62216e-08
-1.44095e-09
-9.64695e-09
7.62883e-08
-1.60952e-09
-8.2836e-09
7.63145e-08
-1.7465e-09
-6.70563e-09
7.63358e-08
-1.84774e-09
-4.98031e-09
7.63733e-08
-1.90761e-09
-3.17787e-09
7.64426e-08
-1.92503e-09
-1.37151e-09
7.65452e-08
-1.89775e-09
3.69213e-10
7.66773e-08
-1.82819e-09
1.97924e-09
7.68214e-08
-1.71757e-09
3.39376e-09
7.69538e-08
-1.57171e-09
4.56575e-09
7.70369e-08
-1.39497e-09
5.4544e-09
7.70256e-08
-1.19598e-09
6.0356e-09
7.68587e-08
-9.81439e-10
6.29135e-09
7.64647e-08
-7.61771e-10
6.22804e-09
7.57504e-08
-5.44881e-10
5.86721e-09
7.46054e-08
-3.41595e-10
5.23861e-09
7.28867e-08
-1.59621e-10
4.39304e-09
7.04179e-08
-8.16839e-12
3.39627e-09
6.69691e-08
1.05497e-10
2.32646e-09
6.22465e-08
1.71988e-10
1.29058e-09
5.58623e-08
1.74438e-10
4.31811e-10
4.73078e-08
8.72387e-11
2.85324e-08
-1.02902e-10
-9.5398e-11
2.95143e-08
-1.51956e-09
-1.11275e-09
4.8784e-08
-1.51746e-09
-2.53067e-09
5.75707e-08
-1.50534e-09
-4.14147e-09
6.41022e-08
-1.56828e-09
-5.77616e-09
6.89098e-08
-1.68728e-09
-7.31115e-09
7.23958e-08
-1.84582e-09
-8.64411e-09
7.48697e-08
-2.03799e-09
-9.69686e-09
7.65697e-08
-2.25664e-09
-1.04155e-08
7.76847e-08
-2.49521e-09
-1.07576e-08
7.83628e-08
-2.74342e-09
-1.07118e-08
7.87262e-08
-2.99287e-09
-1.02774e-08
7.88714e-08
-3.23287e-09
-9.4813e-09
7.88792e-08
-3.45464e-09
-8.35648e-09
7.88118e-08
-3.64816e-09
-6.95648e-09
7.87214e-08
-3.80679e-09
-5.34373e-09
7.86448e-08
-3.92318e-09
-3.58555e-09
7.86107e-08
-3.99373e-09
-1.76327e-09
7.86331e-08
-4.01454e-09
5.02775e-11
7.87184e-08
-3.98573e-09
1.77623e-09
7.88586e-08
-3.90722e-09
3.34189e-09
7.90383e-08
-3.78297e-09
4.68511e-09
7.92273e-08
-3.61661e-09
5.74982e-09
7.93873e-08
-3.41553e-09
6.49734e-09
7.94644e-08
-3.18642e-09
6.90198e-09
7.93947e-08
-2.93925e-09
6.95092e-09
7.90958e-08
-2.68267e-09
6.66052e-09
7.84702e-08
-2.42787e-09
6.05516e-09
7.73944e-08
-2.18363e-09
5.18358e-09
7.57185e-08
-1.96006e-09
4.11381e-09
7.32512e-08
-1.76352e-09
2.93159e-09
6.9752e-08
-1.6009e-09
1.74711e-09
6.49079e-08
-1.47702e-09
7.01024e-10
5.83131e-08
-1.40447e-09
-2.56182e-11
4.94316e-08
-1.39802e-09
2.98892e-08
-1.38229e-09
1.92057e-10
3.16241e-08
-2.3026e-09
-6.24437e-10
5.20565e-08
-2.4549e-09
-1.89049e-09
6.13518e-08
-2.51565e-09
-3.3863e-09
6.82299e-08
-2.63204e-09
-4.93741e-09
7.32543e-08
-2.79189e-09
-6.41638e-09
7.68585e-08
-2.98619e-09
-7.70756e-09
7.93719e-08
-3.21007e-09
-8.73255e-09
8.1054e-08
-3.4594e-09
-9.4266e-09
8.21064e-08
-3.72665e-09
-9.75366e-09
8.26932e-08
-4.00347e-09
-9.69431e-09
8.29446e-08
-4.27912e-09
-9.2481e-09
8.29698e-08
-4.54377e-09
-8.43742e-09
8.28553e-08
-4.78664e-09
-7.30109e-09
8.26742e-08
-4.99915e-09
-5.88943e-09
8.24824e-08
-5.17251e-09
-4.26762e-09
8.23247e-08
-5.3008e-09
-2.51034e-09
8.22307e-08
-5.37842e-09
-6.9355e-10
8.22199e-08
-5.40306e-09
1.10175e-09
8.22968e-08
-5.373e-09
2.7928e-09
8.24559e-08
-5.28996e-09
4.31125e-09
8.26769e-08
-5.15627e-09
5.58684e-09
8.29292e-08
-4.97757e-09
6.56701e-09
8.31671e-08
-4.75978e-09
7.20912e-09
8.33337e-08
-4.51173e-09
7.49049e-09
8.33551e-08
-4.2421e-09
7.40594e-09
8.31436e-08
-3.96171e-09
6.96696e-09
8.25892e-08
-3.68043e-09
6.20883e-09
8.15608e-08
-3.40902e-09
5.18898e-09
7.98931e-08
-3.15583e-09
3.98604e-09
7.73835e-08
-2.92832e-09
2.69847e-09
7.37707e-08
-2.73059e-09
1.44953e-09
6.87242e-08
-2.56685e-09
3.96125e-10
6.18082e-08
-2.44358e-09
-2.56715e-10
5.24568e-08
-2.37008e-09
3.18368e-08
-2.20553e-09
2.29719e-10
3.39599e-08
-2.56539e-09
-5.31743e-10
5.55972e-08
-2.77976e-09
-1.73302e-09
6.54261e-08
-2.87273e-09
-3.16357e-09
7.26726e-08
-3.012e-09
-4.65601e-09
7.79364e-08
-3.19028e-09
-6.07573e-09
8.16786e-08
-3.40022e-09
-7.31712e-09
8.42522e-08
-3.63912e-09
-8.29433e-09
8.59338e-08
-3.90216e-09
-8.94809e-09
8.69422e-08
-4.18314e-09
-9.23582e-09
8.74528e-08
-4.47258e-09
-9.13698e-09
8.76092e-08
-4.76071e-09
-8.66134e-09
8.75283e-08
-5.0364e-09
-7.82337e-09
8.73076e-08
-5.2898e-09
-6.66356e-09
8.70256e-08
-5.51094e-09
-5.23612e-09
8.67467e-08
-5.69203e-09
-3.60514e-09
8.65185e-08
-5.82581e-09
-1.84113e-09
8.63766e-08
-5.90776e-09
-2.89033e-11
8.63406e-08
-5.93428e-09
1.7542e-09
8.6418e-08
-5.90481e-09
3.42887e-09
8.66008e-08
-5.81989e-09
4.92179e-09
8.68686e-08
-5.68309e-09
6.16346e-09
8.71856e-08
-5.49895e-09
7.10283e-09
8.75032e-08
-5.27472e-09
7.69663e-09
8.77565e-08
-5.01821e-09
7.92535e-09
8.78666e-08
-4.73943e-09
7.78077e-09
8.77354e-08
-4.4483e-09
7.28264e-09
8.72453e-08
-4.15596e-09
6.46152e-09
8.6252e-08
-3.8722e-09
5.38386e-09
8.45797e-08
-3.6065e-09
4.12116e-09
8.20086e-08
-3.36506e-09
2.78358e-09
7.8262e-08
-3.15264e-09
1.4931e-09
7.29854e-08
-2.97156e-09
4.12197e-10
6.5717e-08
-2.82763e-09
-2.574e-10
5.58559e-08
-2.72639e-09
3.40805e-08
-2.50395e-09
8.74654e-11
3.625e-08
-2.37567e-09
-7.29223e-10
5.8977e-08
-2.56556e-09
-1.94016e-09
6.92888e-08
-2.65085e-09
-3.3537e-09
7.687e-08
-2.78545e-09
-4.80688e-09
8.23504e-08
-2.96037e-09
-6.17736e-09
8.62174e-08
-3.1685e-09
-7.36278e-09
8.88433e-08
-3.40608e-09
-8.28228e-09
9.05223e-08
-3.66873e-09
-8.87677e-09
9.14864e-08
-3.94939e-09
-9.10855e-09
9.19241e-08
-4.23912e-09
-8.96016e-09
9.19887e-08
-4.52738e-09
-8.43724e-09
9.18078e-08
-4.80371e-09
-7.55873e-09
9.14859e-08
-5.05747e-09
-6.36238e-09
9.11101e-08
-5.27936e-09
-4.90386e-09
9.07494e-08
-5.46088e-09
-3.25001e-09
9.04577e-08
-5.59551e-09
-1.4657e-09
9.02728e-08
-5.67801e-09
3.62496e-10
9.02178e-08
-5.70555e-09
2.15627e-09
9.02997e-08
-5.67681e-09
3.83905e-09
9.05113e-08
-5.59306e-09
5.33567e-09
9.08288e-08
-5.45711e-09
6.58229e-09
9.12143e-08
-5.27417e-09
7.52079e-09
9.16135e-08
-5.05077e-09
8.11739e-09
9.19568e-08
-4.79542e-09
8.34395e-09
9.2157e-08
-4.51744e-09
8.19728e-09
9.21091e-08
-4.2275e-09
7.69451e-09
9.1685e-08
-3.93611e-09
6.86769e-09
9.07314e-08
-3.6538e-09
5.77755e-09
8.9059e-08
-3.38951e-09
4.50096e-09
8.64358e-08
-3.15029e-09
3.13715e-09
8.25668e-08
-2.9405e-09
1.80551e-09
7.70797e-08
-2.76363e-09
6.62408e-10
6.94861e-08
-2.6258e-09
-1.0303e-10
5.91557e-08
-2.53492e-09
3.63171e-08
-2.33923e-09
-1.73324e-10
3.82948e-08
-1.87083e-09
-1.11684e-09
6.18914e-08
-1.97139e-09
-2.39597e-09
7.2587e-08
-2.01968e-09
-3.82633e-09
8.04301e-08
-2.12854e-09
-5.26775e-09
8.60745e-08
-2.28443e-09
-6.59999e-09
9.00278e-08
-2.4772e-09
-7.73393e-09
9.26785e-08
-2.70194e-09
-8.59237e-09
9.43349e-08
-2.95324e-09
-9.1256e-09
9.5241e-08
-3.22391e-09
-9.2902e-09
9.55959e-08
-3.5045e-09
-9.08012e-09
9.55626e-08
-3.78472e-09
-8.49643e-09
9.52772e-08
-4.05374e-09
-7.56089e-09
9.48524e-08
-4.30127e-09
-6.315e-09
9.43814e-08
-4.51776e-09
-4.8095e-09
9.39397e-08
-4.69512e-09
-3.1109e-09
9.35854e-08
-4.82666e-09
-1.28915e-09
9.33598e-08
-4.90758e-09
5.74167e-10
9.3288e-08
-4.93484e-09
2.40471e-09
9.3378e-08
-4.90749e-09
4.12051e-09
9.36216e-08
-4.82642e-09
5.64876e-09
9.39935e-08
-4.69467e-09
6.93082e-09
9.44522e-08
-4.51697e-09
7.90308e-09
9.4939e-08
-4.30004e-09
8.53452e-09
9.53786e-08
-4.05194e-09
8.79559e-09
9.56774e-08
-3.78226e-09
8.68263e-09
9.57222e-08
-3.50132e-09
8.21373e-09
9.53771e-08
-3.21997e-09
7.41194e-09
9.44784e-08
-2.94848e-09
6.34245e-09
9.28273e-08
-2.69631e-09
5.06789e-09
9.01791e-08
-2.47062e-09
3.68691e-09
8.62257e-08
-2.27677e-09
2.30656e-09
8.0578e-08
-2.11949e-09
1.0733e-09
7.27284e-08
-2.00823e-09
1.61553e-10
6.20226e-08
-1.95575e-09
3.83299e-08
-1.85042e-09
-4.71756e-10
3.99801e-08
-1.21447e-09
-1.57356e-09
6.41855e-08
-1.1922e-09
-2.9435e-09
7.51456e-08
-1.18764e-09
-4.41667e-09
8.31612e-08
-1.25959e-09
-5.85555e-09
8.8903e-08
-1.38749e-09
-7.16456e-09
9.28921e-08
-1.55736e-09
-8.25169e-09
9.55295e-08
-1.76224e-09
-9.05631e-09
9.7134e-08
-1.99585e-09
-9.52285e-09
9.79596e-08
-2.25044e-09
-9.62684e-09
9.82141e-08
-2.51641e-09
-9.34865e-09
9.80693e-08
-2.78339e-09
-8.69958e-09
9.76687e-08
-3.04055e-09
-7.70296e-09
9.71325e-08
-3.27758e-09
-6.39636e-09
9.65605e-08
-3.4851e-09
-4.83554e-09
9.60335e-08
-3.65514e-09
-3.08313e-09
9.56141e-08
-3.78129e-09
-1.21127e-09
9.53472e-08
-3.85896e-09
7.0145e-10
9.52594e-08
-3.88532e-09
2.58083e-09
9.53599e-08
-3.85945e-09
4.34418e-09
9.56393e-08
-3.78223e-09
5.92325e-09
9.6071e-08
-3.65644e-09
7.25343e-09
9.66098e-08
-3.48666e-09
8.27699e-09
9.71931e-08
-3.27928e-09
8.95826e-09
9.77397e-08
-3.04227e-09
9.27136e-09
9.81499e-08
-2.78502e-09
9.20848e-09
9.8303e-08
-2.51788e-09
8.78122e-09
9.80556e-08
-2.25169e-09
8.02002e-09
9.72357e-08
-1.99681e-09
6.97657e-09
9.56355e-08
-1.76281e-09
5.71277e-09
9.30006e-08
-1.55743e-09
4.31092e-09
8.90124e-08
-1.3869e-09
2.87885e-09
8.32697e-08
-1.25798e-09
1.5398e-09
7.52511e-08
-1.18416e-09
4.60415e-10
6.42862e-08
-1.18538e-09
3.99948e-08
-1.20365e-09
-7.3903e-10
4.12822e-08
-5.63583e-10
-1.99107e-09
6.58537e-08
-4.16292e-10
-3.45424e-09
7.69659e-08
-3.56972e-10
-4.97319e-09
8.50693e-08
-3.90214e-10
-6.4229e-09
9.0843e-08
-4.88227e-10
-7.7171e-09
9.48174e-08
-6.33056e-10
-8.77193e-09
9.74014e-08
-8.15704e-10
-9.53171e-09
9.89223e-08
-1.02916e-09
-9.94909e-09
9.9641e-08
-1.26515e-09
-9.99255e-09
9.9774e-08
-1.51408e-09
-9.65837e-09
9.94993e-08
-1.76547e-09
-8.95069e-09
9.89688e-08
-2.00863e-09
-7.89224e-09
9.83086e-08
-2.23313e-09
-6.52791e-09
9.76256e-08
-2.42985e-09
-4.90925e-09
9.70055e-08
-2.59092e-09
-3.10092e-09
9.65161e-08
-2.71039e-09
-1.17434e-09
9.62048e-08
-2.78388e-09
7.92388e-10
9.61011e-08
-2.80893e-09
2.72444e-09
9.62138e-08
-2.78461e-09
4.53943e-09
9.6534e-08
-2.71182e-09
6.17252e-09
9.7032e-08
-2.593e-09
7.55461e-09
9.76606e-08
-2.43247e-09
8.63084e-09
9.83517e-08
-2.23619e-09
9.3647e-09
9.90195e-08
-2.01201e-09
9.72582e-09
9.9557e-08
-1.76907e-09
9.70854e-09
9.98378e-08
-1.51782e-09
9.32245e-09
9.97102e-08
-1.26897e-09
8.59591e-09
9.8996e-08
-1.03299e-09
7.57205e-09
9.74787e-08
-8.19455e-10
6.31205e-09
9.48972e-08
-6.36583e-10
4.89139e-09
9.09244e-08
-4.91342e-10
3.40162e-09
8.51514e-08
-3.92587e-10
1.96432e-09
7.70476e-08
-3.57854e-10
7.29749e-10
6.59342e-08
-4.14523e-10
4.12841e-08
-5.58605e-10
-9.27591e-10
4.2243e-08
-3.17e-11
-2.29232e-09
6.69993e-08
2.16719e-10
-3.82665e-09
7.8179e-08
3.22187e-10
-5.38389e-09
8.63035e-08
3.22231e-10
-6.848e-09
9.2057e-08
2.50621e-10
-8.13484e-09
9.59738e-08
1.28846e-10
-9.16886e-09
9.84697e-08
-3.23941e-11
-9.89676e-09
9.98769e-08
-2.26666e-10
-1.0278e-08
1.00464e-07
-4.44228e-10
-1.02793e-08
1.00453e-07
-6.75832e-10
-9.89875e-09
1.0003e-07
-9.11262e-10
-9.14356e-09
9.93531e-08
-1.13949e-09
-8.04006e-09
9.8556e-08
-1.35082e-09
-6.6294e-09
9.77509e-08
-1.53588e-09
-4.96723e-09
9.70302e-08
-1.68736e-09
-3.11564e-09
9.64648e-08
-1.79947e-09
-1.14847e-09
9.61065e-08
-1.86849e-09
8.56785e-10
9.59857e-08
-1.89196e-09
2.82805e-09
9.6113e-08
-1.86926e-09
4.68507e-09
9.64776e-08
-1.80101e-09
6.35854e-09
9.70493e-08
-1.68961e-09
7.77991e-09
9.77762e-08
-1.53879e-09
8.89855e-09
9.85873e-08
-1.35429e-09
9.6724e-09
9.93899e-08
-1.14341e-09
1.00727e-08
1.00072e-07
-9.1554e-10
1.00907e-08
1.005e-07