/*--------------------------------*- C++ -*----------------------------------*\
| =========                 |                                                 |
| \\      /  F ield         | OpenFOAM: The Open Source CFD Toolbox           |
|  \\    /   O peration     | Version:  v2006                                 |
|   \\  /    A nd           | Website:  www.openfoam.com                      |
|    \\/     M anipulation  |                                                 |
\*---------------------------------------------------------------------------*/
FoamFile
{
    version     2.0;
    format      ascii;
    class       volVectorField;
    location    "60";
    object      U;
}
// * * * * * * * * * * * * * * * * * * * * * * * * * * * * * * * * * * * * * //

dimensions      [0 1 -1 0 0 0 0];


internalField   nonuniform List<vector> 
78750
(
(-0.419432 -0.219343 -0.242969)
(-0.35793 -0.205339 -0.239853)
(-0.352168 -0.174895 -0.225386)
(-0.282941 -0.137956 -0.201706)
(-0.220355 -0.112517 -0.179218)
(-0.245435 -0.104173 -0.178557)
(-0.201568 -0.0905012 -0.16518)
(-0.191989 -0.0832816 -0.158935)
(-0.169461 -0.0749591 -0.150153)
(-0.155728 -0.068514 -0.142674)
(-0.140566 -0.0628625 -0.134943)
(-0.12826 -0.057946 -0.127403)
(-0.116599 -0.0539277 -0.119948)
(-0.106273 -0.0505535 -0.112553)
(-0.0967564 -0.0479115 -0.105205)
(-0.0880883 -0.0459065 -0.0979308)
(-0.0801021 -0.0445146 -0.0907582)
(-0.0727168 -0.04368 -0.0837406)
(-0.0658144 -0.0433505 -0.0769332)
(-0.0592723 -0.0434502 -0.0704121)
(-0.0529786 -0.0438544 -0.0642849)
(-0.0467855 -0.0443748 -0.0586776)
(-0.0404849 -0.0447805 -0.0537042)
(-0.0338283 -0.0448687 -0.0494431)
(-0.0266118 -0.0445559 -0.0459929)
(-0.018772 -0.0438678 -0.0435978)
(-0.0103953 -0.0428521 -0.0426564)
(-0.00163121 -0.0414638 -0.0435802)
(0.00719955 -0.0392757 -0.0467179)
(0.0156189 -0.0358715 -0.0521948)
(0.0228607 -0.0317289 -0.0598921)
(0.0270676 -0.0289146 -0.0684998)
(0.027015 -0.0292836 -0.0748175)
(0.023734 -0.0310137 -0.0764277)
(0.00946902 0.0115609 -0.0626165)
(0.0528545 -0.242083 -0.156471)
(-0.0575642 -0.22517 -0.230254)
(-0.0193536 -0.250718 -0.257533)
(-0.0435542 -0.244751 -0.265172)
(-0.0554457 -0.196462 -0.261955)
(-0.0595139 -0.152407 -0.25561)
(-0.0645717 -0.124334 -0.2507)
(-0.0661753 -0.103136 -0.245026)
(-0.0670448 -0.0855673 -0.239066)
(-0.066533 -0.0706707 -0.232873)
(-0.0651431 -0.0579248 -0.226555)
(-0.0629743 -0.0468425 -0.2201)
(-0.0602445 -0.0371073 -0.213442)
(-0.0571189 -0.0285075 -0.206498)
(-0.0537404 -0.0208828 -0.199154)
(-0.0502274 -0.0140999 -0.191268)
(-0.0466869 -0.00805168 -0.182656)
(-0.0432426 -0.00266175 -0.173082)
(-0.0400343 0.00208942 -0.162209)
(-0.0371928 0.00611837 -0.149557)
(-0.0347965 0.00915145 -0.134435)
(-0.0328902 0.0106018 -0.115956)
(-0.0315133 0.00949693 -0.0934945)
(-0.0307651 0.00494916 -0.0679)
(-0.0307992 -0.00242779 -0.0429782)
(-0.0311754 -0.00944579 -0.024158)
(-0.0303799 -0.0127713 -0.0128696)
(-0.0274757 -0.0121266 -0.00535122)
(-0.0221181 -0.00743483 0.000700616)
(-0.0146085 0.00455211 0.00265648)
(-0.0058817 0.0308973 -0.00664574)
(0.00293022 0.0823611 -0.0388266)
(0.00969941 0.154243 -0.0902718)
(0.0112804 0.220408 -0.127342)
(0.00227881 0.249724 -0.0987716)
(-0.0175656 0.0432092 -0.157069)
(-0.0311235 0.0156146 -0.215505)
(-0.047483 -0.00413645 -0.223634)
(-0.0601228 -0.0201713 -0.228066)
(-0.0698132 -0.0367756 -0.231556)
(-0.0751864 -0.0468352 -0.23342)
(-0.0784311 -0.0517586 -0.233596)
(-0.0804863 -0.053551 -0.232444)
(-0.0816709 -0.0532634 -0.23014)
(-0.0821142 -0.051518 -0.226889)
(-0.081847 -0.0486839 -0.222891)
(-0.0808682 -0.0450383 -0.218324)
(-0.0791878 -0.0408029 -0.213317)
(-0.0768443 -0.0361431 -0.20795)
(-0.073909 -0.0311619 -0.202253)
(-0.0704799 -0.0258958 -0.196212)
(-0.0666774 -0.0203296 -0.189771)
(-0.0626387 -0.0144228 -0.182825)
(-0.0585137 -0.00815621 -0.175227)
(-0.054454 -0.00159151 -0.166786)
(-0.0505827 0.00507896 -0.157286)
(-0.0470158 0.0114807 -0.146526)
(-0.0438828 0.0170797 -0.134262)
(-0.0413165 0.0212544 -0.119976)
(-0.0393962 0.0230419 -0.10214)
(-0.0381944 0.0199784 -0.0769779)
(-0.0378877 0.00618203 -0.0378616)
(-0.0386975 -0.0247603 0.0186535)
(-0.0409964 -0.0611753 0.0747746)
(-0.0436197 -0.0732316 0.099278)
(-0.045366 -0.066645 0.107032)
(-0.0461335 -0.0352087 0.104216)
(-0.0361301 0.0441348 0.0765224)
(-0.0158704 0.158895 0.0277681)
(0.000377307 0.262222 -0.030765)
(0.00106233 0.0539795 -0.123639)
(-0.00128267 0.0338945 -0.183751)
(-0.00399414 0.0111417 -0.202225)
(-0.00603605 -0.00538694 -0.20918)
(-0.0079349 -0.0156678 -0.211609)
(-0.00976278 -0.0208868 -0.211627)
(-0.0113985 -0.0222183 -0.210122)
(-0.012753 -0.0212322 -0.207531)
(-0.0138804 -0.019502 -0.204123)
(-0.0148283 -0.0180262 -0.200078)
(-0.0155717 -0.0171624 -0.195552)
(-0.0160386 -0.0168713 -0.19068)
(-0.0161336 -0.0168876 -0.185605)
(-0.0157746 -0.0168712 -0.180428)
(-0.0149168 -0.0165108 -0.175187)
(-0.0135417 -0.015546 -0.169868)
(-0.0116373 -0.0137819 -0.164431)
(-0.00922336 -0.0111097 -0.158822)
(-0.00643245 -0.00751399 -0.15298)
(-0.00345186 -0.00305863 -0.146856)
(-0.000485992 0.0021129 -0.14044)
(0.00219734 0.00779135 -0.133801)
(0.00438523 0.0138307 -0.127022)
(0.0060537 0.0203295 -0.12)
(0.00766822 0.0275714 -0.112017)
(0.010462 0.0350376 -0.100621)
(0.0163029 0.0385521 -0.0810264)
(0.0255903 0.0362702 -0.0570989)
(0.0349566 0.0353539 -0.0376957)
(0.0405989 0.0383873 -0.0248902)
(0.0426704 0.0435722 -0.0178093)
(0.0424998 0.0475229 -0.0126988)
(0.0390101 0.00344747 0.01766)
(0.0200366 -0.0223921 0.0988398)
(0.00425525 0.192727 0.079868)
(0.00173945 0.0750087 -0.105801)
(0.00150909 0.0743619 -0.169234)
(0.00260553 0.0565539 -0.189928)
(0.00297254 0.0432849 -0.200006)
(0.00239596 0.0341489 -0.205779)
(0.00128773 0.0278078 -0.208822)
(9.12044e-05 0.0235627 -0.209739)
(-0.00102465 0.0208818 -0.208917)
(-0.00206575 0.0193001 -0.206618)
(-0.00307994 0.0183844 -0.203024)
(-0.00411627 0.0177326 -0.198254)
(-0.0051895 0.0170293 -0.192412)
(-0.00627103 0.0160809 -0.18562)
(-0.00728058 0.0148192 -0.17805)
(-0.00810899 0.0132851 -0.16994)
(-0.0086622 0.0116683 -0.161633)
(-0.0089191 0.0103662 -0.153534)
(-0.00893175 0.00996138 -0.145931)
(-0.00875103 0.0110706 -0.138805)
(-0.00847518 0.0141909 -0.131787)
(-0.0082825 0.0195788 -0.124187)
(-0.00834184 0.0271317 -0.114909)
(-0.00879919 0.0361745 -0.101936)
(-0.00994133 0.0445782 -0.0804757)
(-0.0115747 0.0438545 -0.0391286)
(-0.00942955 0.00914953 0.0344815)
(0.000485616 -0.0685065 0.106353)
(0.0148249 -0.115672 0.12846)
(0.0311754 -0.123472 0.130019)
(0.046797 -0.108315 0.123917)
(0.0561281 -0.0667348 0.111632)
(0.0651062 0.0343363 0.0687489)
(0.0537944 0.177206 0.00957798)
(0.0203995 0.310621 0.00781262)
(-0.00193982 0.389104 0.0327025)
(0.00158553 0.0760264 -0.10368)
(0.00498242 0.0785027 -0.158624)
(0.00839655 0.0675898 -0.176802)
(0.0101171 0.0586597 -0.186405)
(0.0112536 0.0517586 -0.192494)
(0.0123796 0.0470253 -0.196488)
(0.0136907 0.0446452 -0.19889)
(0.0150397 0.0443229 -0.199858)
(0.0161619 0.0453868 -0.199419)
(0.016857 0.0470494 -0.197509)
(0.0170384 0.0486014 -0.194028)
(0.0167147 0.0495151 -0.188919)
(0.0159645 0.0494345 -0.18231)
(0.0149189 0.0482647 -0.174699)
(0.0137454 0.0463404 -0.166918)
(0.0126216 0.0444015 -0.159732)
(0.0117015 0.0432921 -0.153424)
(0.0111035 0.0437144 -0.147783)
(0.0109223 0.0461896 -0.142324)
(0.011263 0.0510036 -0.136432)
(0.0122214 0.0579444 -0.129255)
(0.0137871 0.0660965 -0.119549)
(0.0158236 0.0739709 -0.105059)
(0.01811 0.0781297 -0.0795271)
(0.0198203 0.0603244 -0.0263817)
(0.0204565 -0.0283113 0.0522339)
(0.0129308 -0.151087 0.0834388)
(-0.00203795 -0.20707 0.0843943)
(-0.0103998 -0.207657 0.0885042)
(-0.0163934 -0.172188 0.090128)
(-0.0189821 -0.0284152 0.0641176)
(-0.0107488 0.196045 -0.00106976)
(-0.00552112 0.349338 -0.0523736)
(-0.00748287 0.396185 -0.0455559)
(-0.00554918 0.404246 -0.0233108)
(0.00652016 0.0712296 -0.0859328)
(0.0131775 0.0885593 -0.14791)
(0.0150576 0.0858682 -0.169682)
(0.015621 0.0802131 -0.179696)
(0.0163035 0.0742367 -0.18546)
(0.0175818 0.0689092 -0.189011)
(0.0195501 0.0650719 -0.191159)
(0.0221019 0.0630654 -0.192351)
(0.0250867 0.0628228 -0.192754)
(0.028311 0.0639768 -0.192383)
(0.0315417 0.0659116 -0.191179)
(0.0345345 0.0679095 -0.189081)
(0.0370929 0.0693351 -0.186059)
(0.0391164 0.0697619 -0.182106)
(0.0406027 0.0689927 -0.177283)
(0.0416342 0.0670747 -0.171835)
(0.0423765 0.0643835 -0.166272)
(0.0430485 0.0616249 -0.161169)
(0.0439072 0.059518 -0.156614)
(0.0451951 0.0584767 -0.152388)
(0.047048 0.0587185 -0.148255)
(0.0496463 0.0604229 -0.143588)
(0.0531546 0.063421 -0.137515)
(0.0572189 0.0668304 -0.129305)
(0.0604189 0.0692124 -0.118553)
(0.0610789 0.0706523 -0.10594)
(0.0558821 0.077147 -0.0875619)
(0.0388645 0.0630849 -0.0473175)
(0.0168623 -0.0114264 0.0212219)
(0.00733716 -0.0607155 0.0687553)
(0.00517382 -0.0606289 0.0858017)
(0.00408827 0.0515881 0.0470776)
(0.0114756 0.273936 -0.0130847)
(0.0111594 0.405989 -0.0430175)
(0.00315305 0.408241 -0.0306567)
(0.00268484 -0.00143004 0.0167552)
(0.0118826 0.0643758 -0.0699131)
(0.0146184 0.0850873 -0.119128)
(0.0176474 0.0827101 -0.141771)
(0.0209478 0.0765222 -0.154129)
(0.0244907 0.0708315 -0.162228)
(0.0279886 0.0663026 -0.168019)
(0.0312892 0.0629784 -0.172319)
(0.0344594 0.0607327 -0.175557)
(0.0375967 0.0593907 -0.177905)
(0.0407136 0.0588114 -0.17942)
(0.0437705 0.058857 -0.180132)
(0.0466721 0.0592459 -0.180024)
(0.0492894 0.0595668 -0.179047)
(0.0515011 0.0594299 -0.177156)
(0.053233 0.0585999 -0.174329)
(0.0544708 0.057056 -0.170585)
(0.0552562 0.0549764 -0.166024)
(0.0556775 0.0527089 -0.160879)
(0.0558688 0.0507108 -0.155446)
(0.0559938 0.0494237 -0.14995)
(0.0562396 0.0491452 -0.144465)
(0.05671 0.0500571 -0.138979)
(0.0574023 0.0522603 -0.132981)
(0.0583433 0.0556835 -0.124808)
(0.059625 0.059733 -0.112198)
(0.0611751 0.0645007 -0.0946966)
(0.0639115 0.0657078 -0.0689333)
(0.0639304 -0.0169203 0.0034932)
(0.0554222 -0.114753 0.112305)
(0.0421454 -0.0826456 0.190448)
(0.0216363 0.100226 0.0942478)
(0.00349178 0.304704 0.0245185)
(0.00469176 0.477098 -0.00613829)
(0.00113731 0.481076 -0.0104841)
(-0.000764888 -0.0586278 0.0885837)
(0.00434399 0.0250882 0.0180408)
(0.00597952 0.0608717 -0.0727174)
(0.00887964 0.069076 -0.100292)
(0.0120865 0.0714266 -0.110624)
(0.0162696 0.0724793 -0.117288)
(0.0215105 0.0731785 -0.122371)
(0.0271873 0.0738965 -0.126106)
(0.0329241 0.0746944 -0.128864)
(0.0385002 0.0754328 -0.130978)
(0.0436051 0.0760493 -0.132653)
(0.0481296 0.0765969 -0.133918)
(0.0521471 0.0769507 -0.134678)
(0.055622 0.076884 -0.134806)
(0.0585227 0.076258 -0.134201)
(0.0608772 0.0750111 -0.132763)
(0.0626959 0.0731557 -0.130425)
(0.0639932 0.0707982 -0.127166)
(0.0648286 0.0681131 -0.122968)
(0.065294 0.0650746 -0.11755)
(0.0653711 0.0615599 -0.110699)
(0.0650857 0.058003 -0.102921)
(0.0646163 0.0552632 -0.0949292)
(0.0641593 0.0538548 -0.0867345)
(0.0638604 0.0535666 -0.0772133)
(0.063793 0.0534352 -0.0644287)
(0.0641712 0.0524966 -0.0475644)
(0.0653226 0.0519523 -0.0292148)
(0.0678799 0.0592877 -0.0112581)
(0.0590882 0.0464855 0.0814198)
(0.0372725 0.0947046 0.189274)
(0.023291 0.332107 0.0463345)
(-0.00318797 0.425897 -0.0457512)
(-0.00753942 0.490308 -0.0609043)
(-0.00581695 0.484815 -0.0527491)
(-0.00295189 -0.0836794 0.129656)
(-0.000650152 -0.00179514 0.134248)
(0.00254551 0.0606528 0.0279417)
(0.00745132 0.0666124 -0.0790557)
(0.0115685 0.0475602 -0.133852)
(0.0139769 0.0326718 -0.149937)
(0.0153706 0.0244944 -0.153815)
(0.0163691 0.0202784 -0.153877)
(0.0172352 0.0191328 -0.151507)
(0.0181426 0.0209963 -0.146985)
(0.0192706 0.0254641 -0.140966)
(0.020678 0.0313746 -0.134553)
(0.0223256 0.0375373 -0.128416)
(0.0241061 0.0431123 -0.122619)
(0.0258971 0.0476339 -0.116913)
(0.0275839 0.0509543 -0.111017)
(0.0289875 0.0532585 -0.104805)
(0.0299174 0.0546135 -0.0980535)
(0.0302559 0.0550455 -0.0904613)
(0.0298747 0.054691 -0.0817503)
(0.028632 0.0537584 -0.0716813)
(0.026375 0.0524687 -0.0600714)
(0.0230358 0.0509343 -0.0466867)
(0.0186144 0.0490564 -0.0310206)
(0.0131246 0.0466077 -0.0120675)
(0.00673621 0.0436061 0.0120583)
(-1.16318e-06 0.0394908 0.0470608)
(-0.00599288 0.0292106 0.109828)
(-0.0102562 0.00214263 0.219563)
(-0.0166143 -0.0136806 0.318696)
(-0.0171889 0.0882385 0.293101)
(-0.00199935 0.379208 0.122928)
(-0.00108521 0.576519 -0.0246936)
(-0.00773553 0.573581 -0.0353628)
(-0.00505341 0.465027 -0.00539786)
(-0.00161133 -0.129952 0.100212)
(0.00271974 -0.112644 0.169894)
(0.011842 -0.0519397 0.182316)
(0.022709 0.00968588 0.157076)
(0.0323729 0.0569772 0.113339)
(0.039275 0.0875187 0.0635715)
(0.0435597 0.10332 0.0151332)
(0.0460615 0.108552 -0.0286694)
(0.0470825 0.107584 -0.0677031)
(0.0466598 0.102065 -0.101727)
(0.0449699 0.0933543 -0.129786)
(0.0423521 0.0832986 -0.150906)
(0.0391176 0.0736397 -0.165268)
(0.0354423 0.0653237 -0.174332)
(0.0313564 0.0585833 -0.179645)
(0.0268603 0.0533972 -0.182137)
(0.0219905 0.0497367 -0.182206)
(0.0167905 0.0476368 -0.179964)
(0.0112765 0.0472076 -0.175376)
(0.00544625 0.0486529 -0.168306)
(-0.000694023 0.0521996 -0.158497)
(-0.00711125 0.0578829 -0.145485)
(-0.0137693 0.065377 -0.128695)
(-0.020673 0.0738876 -0.10756)
(-0.0278848 0.0818757 -0.0811067)
(-0.0355095 0.0862709 -0.0467418)
(-0.0436234 0.0795522 0.00201444)
(-0.0526938 0.0437452 0.0751254)
(-0.0667163 -0.0377981 0.166442)
(-0.0872409 -0.106187 0.226725)
(-0.1011 -0.0384987 0.232447)
(-0.0889449 0.213018 0.183643)
(-0.0508299 0.501254 0.0900147)
(-0.02508 0.562493 0.0669701)
(-0.00534165 0.452886 0.0641412)
(-0.00273282 -0.159441 0.0618537)
(-0.00530413 -0.205118 0.0959896)
(-0.00380152 -0.201448 0.122115)
(0.0027951 -0.175898 0.144893)
(0.0139565 -0.137918 0.157784)
(0.0273071 -0.0961538 0.160662)
(0.0412054 -0.0546073 0.155941)
(0.0543463 -0.0150491 0.145099)
(0.065883 0.0213545 0.128959)
(0.0753065 0.0536363 0.108332)
(0.0822899 0.0814381 0.0840103)
(0.0864934 0.103997 0.0572231)
(0.0881292 0.121157 0.0293383)
(0.0875885 0.133262 0.00162937)
(0.0852493 0.141057 -0.0249129)
(0.08144 0.145454 -0.0496642)
(0.0764359 0.147351 -0.0722673)
(0.0704152 0.14759 -0.0925133)
(0.0635047 0.146872 -0.110186)
(0.0558608 0.145673 -0.124863)
(0.0476806 0.144351 -0.135909)
(0.0391883 0.143188 -0.142685)
(0.0306 0.142351 -0.144843)
(0.0220896 0.141954 -0.142465)
(0.0137696 0.141748 -0.135557)
(0.00567375 0.14102 -0.123748)
(-0.00252466 0.138615 -0.106217)
(-0.0122174 0.132303 -0.0817103)
(-0.0261771 0.118901 -0.0496506)
(-0.0467224 0.0956521 -0.00741441)
(-0.0693003 0.0596001 0.054308)
(-0.0765668 0.0399033 0.117112)
(-0.0612556 0.0930426 0.142303)
(-0.0326725 0.196791 0.132491)
(-0.00389065 0.27586 0.0889713)
(-0.00331167 -0.148271 0.0908793)
(-0.00510958 -0.189789 0.105292)
(-0.00709571 -0.20431 0.0968315)
(-0.00739883 -0.211314 0.0887666)
(-0.00537641 -0.209343 0.0873407)
(-0.000883283 -0.19697 0.0930246)
(0.00564451 -0.174909 0.10349)
(0.0135288 -0.14559 0.115364)
(0.0222646 -0.111688 0.125581)
(0.0311015 -0.0753668 0.131923)
(0.0396282 -0.0383162 0.132866)
(0.0473582 -0.00286547 0.127917)
(0.0539404 0.0294763 0.117585)
(0.0592901 0.0578694 0.103169)
(0.0635293 0.0821157 0.0861199)
(0.0667414 0.102397 0.0676623)
(0.0689878 0.119102 0.0486993)
(0.0703122 0.132712 0.0298634)
(0.0707547 0.14374 0.0116071)
(0.0703542 0.152666 -0.00569314)
(0.0691407 0.159889 -0.02165)
(0.067136 0.1657 -0.0358176)
(0.0643697 0.170273 -0.0476904)
(0.0609007 0.173652 -0.0567298)
(0.056819 0.175757 -0.0623937)
(0.0522183 0.17638 -0.0642023)
(0.0471537 0.175155 -0.0617886)
(0.0415768 0.171395 -0.0547588)
(0.0352595 0.163835 -0.0423126)
(0.0276699 0.149971 -0.0223428)
(0.0179181 0.124402 0.0102388)
(0.00585596 0.0825405 0.0583149)
(-0.00396824 0.0473354 0.0981491)
(-0.00600258 0.0546307 0.114425)
(-0.00388993 0.154587 0.0828085)
(-0.0014646 -0.163685 0.0349868)
(-0.000904625 -0.234285 0.0283906)
(-0.00154332 -0.245667 0.0209577)
(-0.00250939 -0.239593 0.0180941)
(-0.00411284 -0.224601 0.018791)
(-0.00587839 -0.206095 0.0237672)
(-0.00712995 -0.18653 0.033873)
(-0.00735171 -0.165235 0.0491677)
(-0.0063513 -0.140681 0.0687091)
(-0.00421953 -0.112074 0.0904741)
(-0.00130721 -0.0799675 0.111525)
(0.00186746 -0.0464324 0.12853)
(0.00475902 -0.0144185 0.138968)
(0.00703651 0.0138884 0.142442)
(0.00884009 0.0380908 0.14049)
(0.0105622 0.0589697 0.135195)
(0.0124696 0.0774409 0.128103)
(0.014627 0.0939994 0.12014)
(0.0170157 0.108852 0.111876)
(0.0195991 0.12208 0.103687)
(0.0223492 0.133718 0.0958448)
(0.0252463 0.143779 0.0885788)
(0.0282645 0.152269 0.0821027)
(0.0313535 0.159193 0.0766266)
(0.0344228 0.164556 0.0723599)
(0.0373348 0.168359 0.0695104)
(0.0399096 0.170594 0.0682876)
(0.0419149 0.171229 0.0689012)
(0.0430512 0.17005 0.071536)
(0.0428561 0.166785 0.0767242)
(0.0410264 0.159385 0.0834299)
(0.0349099 0.141529 0.0821587)
(0.0244742 0.118231 0.0729091)
(0.0128008 0.121178 0.06651)
(0.000748057 0.180025 0.0487634)
(0.00196069 -0.178809 0.0025767)
(0.00307536 -0.251615 -0.0209558)
(0.00131607 -0.263805 -0.0357302)
(-0.000766332 -0.259357 -0.0471035)
(-0.00305315 -0.246829 -0.057126)
(-0.00526759 -0.231882 -0.0626792)
(-0.00697803 -0.217174 -0.0620067)
(-0.0079532 -0.202248 -0.0550238)
(-0.00813219 -0.185519 -0.0415073)
(-0.0075969 -0.165067 -0.0210231)
(-0.00651514 -0.139214 0.00611627)
(-0.00513298 -0.107695 0.0376277)
(-0.00379269 -0.072949 0.0687316)
(-0.00270203 -0.0399679 0.0938644)
(-0.00181237 -0.0133348 0.11001)
(-0.00095363 0.00613067 0.118294)
(2.89191e-05 0.0203103 0.121539)
(0.00126907 0.0310335 0.121753)
(0.00292855 0.0393497 0.120107)
(0.00511326 0.0457727 0.117305)
(0.00787312 0.0505693 0.113788)
(0.0112202 0.0539311 0.109851)
(0.0151294 0.0560837 0.105723)
(0.0195235 0.0573714 0.10164)
(0.024256 0.0582752 0.0978875)
(0.0291053 0.0593638 0.0947921)
(0.0337794 0.0612078 0.0927001)
(0.0379892 0.0643465 0.0919938)
(0.0413713 0.0694621 0.0933938)
(0.0436005 0.0754207 0.0958644)
(0.0442218 0.090079 0.105491)
(0.041944 0.109069 0.126771)
(0.0324886 0.129479 0.115912)
(0.019022 0.17953 0.0808059)
(0.00445897 0.235671 0.0426332)
(0.00206466 -0.233759 0.032011)
(0.000694607 -0.272077 0.0390496)
(-0.00286654 -0.268 0.0352113)
(-0.0075018 -0.248778 0.0251318)
(-0.0123122 -0.219247 0.00937622)
(-0.0158191 -0.193991 -0.00404851)
(-0.0184119 -0.176461 -0.0120703)
(-0.020469 -0.162849 -0.0161493)
(-0.0220916 -0.149919 -0.0173369)
(-0.0231656 -0.135663 -0.0152885)
(-0.0234132 -0.118722 -0.00865733)
(-0.0225304 -0.0985164 0.00353343)
(-0.0204549 -0.0757908 0.019874)
(-0.0174536 -0.0528402 0.0366453)
(-0.0140054 -0.0325086 0.0503028)
(-0.0105537 -0.0162923 0.0594898)
(-0.00721486 -0.00402055 0.064666)
(-0.00397601 0.00501179 0.0666185)
(-0.000851143 0.0114202 0.0660387)
(0.0021715 0.0156259 0.0634568)
(0.00512257 0.0179398 0.0593001)
(0.00801631 0.0186838 0.053994)
(0.0108743 0.0183238 0.0480621)
(0.0136898 0.0175343 0.0421374)
(0.016387 0.017104 0.0368314)
(0.0188817 0.017718 0.0325653)
(0.0211042 0.0198537 0.0295498)
(0.0230107 0.0238674 0.02792)
(0.0245802 0.0302139 0.0279449)
(0.0258022 0.0397705 0.030299)
(0.0264855 0.0554441 0.0374352)
(0.0279772 0.087248 0.0690409)
(0.024569 0.131975 0.0974061)
(0.0139115 0.212207 0.0767059)
(0.0022541 0.277849 0.0390918)
(-0.00712977 -0.226518 0.0566056)
(-0.0141936 -0.274917 0.0658205)
(-0.0192483 -0.2782 0.0627397)
(-0.0224593 -0.269443 0.0571743)
(-0.0230116 -0.254751 0.0515518)
(-0.0211777 -0.238668 0.0472838)
(-0.0185526 -0.221905 0.0436522)
(-0.0160752 -0.204575 0.0401534)
(-0.0140986 -0.186934 0.0367708)
(-0.0125828 -0.169244 0.033666)
(-0.0112575 -0.151768 0.0310741)
(-0.00974843 -0.13464 0.0293492)
(-0.00769404 -0.117751 0.0289349)
(-0.00487271 -0.101011 0.0300432)
(-0.0012991 -0.0847321 0.0323144)
(0.00280204 -0.0695823 0.0349441)
(0.00713554 -0.0561515 0.0371543)
(0.0114514 -0.0447444 0.0384652)
(0.0155646 -0.0354174 0.0386705)
(0.0193364 -0.0280641 0.0377465)
(0.0226576 -0.0224543 0.0357935)
(0.0254476 -0.0182449 0.0330062)
(0.0276089 -0.0149957 0.0296452)
(0.0290748 -0.0122308 0.0259871)
(0.0298744 -0.0094934 0.0222633)
(0.0300844 -0.00639398 0.0186333)
(0.02978 -0.00264736 0.0152344)
(0.0290342 0.00188651 0.012258)
(0.0279618 0.00738316 0.00992603)
(0.0266875 0.014599 0.00853521)
(0.0251841 0.0261549 0.00926945)
(0.0238211 0.0523537 0.0214164)
(0.0221591 0.144653 0.069842)
(0.0127873 0.271273 0.0710203)
(0.00171806 0.32082 0.0361213)
(-0.00546913 -0.191051 0.0528649)
(-0.009329 -0.286407 0.0652123)
(-0.00976446 -0.316715 0.0653994)
(-0.00781172 -0.329047 0.0650624)
(-0.00400488 -0.329744 0.0648532)
(0.00150804 -0.319035 0.0641479)
(0.00813267 -0.299278 0.0626477)
(0.0150603 -0.274572 0.0602304)
(0.0216355 -0.248457 0.0567828)
(0.0273566 -0.223267 0.052311)
(0.0318995 -0.200273 0.0470139)
(0.0351768 -0.179909 0.0412432)
(0.0373146 -0.162024 0.0354449)
(0.0386026 -0.14614 0.0300882)
(0.0394116 -0.131687 0.0255685)
(0.040095 -0.118191 0.0221023)
(0.0409 -0.105368 0.0196904)
(0.0419408 -0.0931014 0.0181716)
(0.0432072 -0.0813581 0.0173168)
(0.0445984 -0.0701286 0.0168967)
(0.0459618 -0.0594069 0.0167104)
(0.0471266 -0.0492028 0.016586)
(0.0479296 -0.0395497 0.0163727)
(0.0482362 -0.0304679 0.015944)
(0.0479556 -0.021909 0.0152167)
(0.047038 -0.0137336 0.0141777)
(0.045457 -0.00569402 0.0128843)
(0.0431699 0.0025318 0.0114417)
(0.040106 0.0112861 0.00999928)
(0.0363134 0.0209786 0.00881419)
(0.0320807 0.0327652 0.00846338)
(0.0266867 0.0523646 0.0115264)
(0.0201852 0.136074 0.0458653)
(0.0117573 0.296651 0.0641457)
(0.00195152 0.345887 0.0360422)
(-0.00359754 -0.192464 0.0374502)
(-0.00511347 -0.32498 0.0463757)
(-0.00351313 -0.379575 0.0439274)
(-0.000270068 -0.405974 0.040527)
(0.00409489 -0.418393 0.0381563)
(0.00945827 -0.420245 0.037439)
(0.0159275 -0.411402 0.0385486)
(0.023551 -0.391494 0.0412915)
(0.0319829 -0.361717 0.0451732)
(0.0406531 -0.324707 0.0495684)
(0.0489087 -0.283808 0.0538382)
(0.0561007 -0.242517 0.0572914)
(0.0617062 -0.203984 0.0591685)
(0.0654079 -0.170588 0.0588265)
(0.0671164 -0.143603 0.0560348)
(0.0669843 -0.123023 0.0511233)
(0.0653838 -0.107741 0.0448358)
(0.062823 -0.0961176 0.0380135)
(0.0598377 -0.0865976 0.0313541)
(0.0568789 -0.0780285 0.0253075)
(0.0542267 -0.0696499 0.0200798)
(0.0519836 -0.0609709 0.0157129)
(0.050131 -0.051705 0.0121658)
(0.0485789 -0.0417284 0.00935337)
(0.0471873 -0.0310062 0.00715784)
(0.0457806 -0.0195046 0.00544614)
(0.0441502 -0.00717144 0.00412515)
(0.0420612 0.00609101 0.00317186)
(0.0392845 0.0204293 0.00265295)
(0.0357094 0.036212 0.00274776)
(0.0313825 0.0551399 0.00397592)
(0.0256583 0.0856969 0.0089203)
(0.017207 0.18001 0.0359995)
(0.00892988 0.339356 0.0564472)
(0.00142281 0.369593 0.0345945)
(-0.00299863 -0.191344 0.0318189)
(-0.000791484 -0.345944 0.0336859)
(0.00461769 -0.415411 0.0236014)
(0.0105983 -0.447791 0.0149642)
(0.0160297 -0.462901 0.0081854)
(0.0207052 -0.467979 0.00263703)
(0.0246075 -0.4655 -0.00194295)
(0.0279984 -0.455815 -0.00552529)
(0.0313155 -0.438149 -0.00783372)
(0.0349796 -0.41199 -0.00828566)
(0.0393056 -0.378194 -0.00601518)
(0.0444308 -0.338636 -0.000231155)
(0.0502106 -0.295342 0.00919632)
(0.0561936 -0.25028 0.0214408)
(0.0616932 -0.205648 0.0348311)
(0.0659235 -0.164095 0.0471651)
(0.0681903 -0.128512 0.0562115)
(0.0681446 -0.101067 0.0605077)
(0.0660186 -0.0818376 0.0600943)
(0.0624486 -0.0687567 0.0562139)
(0.0580993 -0.0592999 0.05028)
(0.0535761 -0.0516226 0.0434262)
(0.0493331 -0.0445177 0.0364565)
(0.0455677 -0.0371057 0.0298047)
(0.0423083 -0.0286859 0.0236051)
(0.0395128 -0.0186384 0.0178282)
(0.0370879 -0.00636085 0.0124131)
(0.0348494 0.0086342 0.00740891)
(0.0324862 0.0265183 0.00309592)
(0.0296561 0.0470789 2.1898e-05)
(0.0262151 0.0710807 -0.000950323)
(0.0216929 0.106756 0.00306169)
(0.0141245 0.202998 0.0275525)
(0.00684993 0.361797 0.0514078)
(0.00149558 0.381052 0.0347148)
(-0.00104064 -0.209328 0.0277496)
(0.00963247 -0.401549 0.0178599)
(0.0201632 -0.479942 0.0076187)
(0.0294366 -0.508105 0.00321955)
(0.0370821 -0.515029 0.00158056)
(0.0431114 -0.510041 0.000643362)
(0.0471138 -0.496194 -0.000979652)
(0.0488943 -0.475214 -0.00457484)
(0.0485817 -0.448824 -0.0112677)
(0.0466197 -0.419102 -0.0212727)
(0.0438505 -0.388198 -0.032877)
(0.0413399 -0.357408 -0.0427771)
(0.0399946 -0.326481 -0.047913)
(0.0403465 -0.294053 -0.0465602)
(0.0425154 -0.258693 -0.0382265)
(0.0461516 -0.219769 -0.0235291)
(0.0504356 -0.178062 -0.00424927)
(0.0541893 -0.136342 0.0165749)
(0.0561926 -0.0993328 0.0348091)
(0.0558431 -0.0714045 0.0468745)
(0.0535885 -0.0531022 0.052146)
(0.0502891 -0.0414284 0.0525558)
(0.0465002 -0.0331226 0.0501554)
(0.0425758 -0.0261034 0.0462024)
(0.038813 -0.0190977 0.0414239)
(0.0353676 -0.0110782 0.0361693)
(0.0322949 -0.000893284 0.0304373)
(0.0296148 0.0129344 0.023989)
(0.0272658 0.0319942 0.0166462)
(0.0249637 0.0572024 0.00885454)
(0.0223258 0.0892714 0.0022093)
(0.0190321 0.136764 0.000453619)
(0.0128093 0.241396 0.0187575)
(0.00670122 0.38482 0.0432274)
(0.00218845 0.393132 0.0335301)
(0.00398437 -0.26396 0.00386073)
(0.0173565 -0.469449 -0.0135851)
(0.0248386 -0.534853 -0.019212)
(0.0297112 -0.55021 -0.0195391)
(0.0333872 -0.547307 -0.0180154)
(0.0362494 -0.533516 -0.0155456)
(0.0379058 -0.510634 -0.0127732)
(0.0381929 -0.47948 -0.0108136)
(0.0371451 -0.441493 -0.0115282)
(0.034939 -0.400213 -0.0169329)
(0.0319538 -0.361116 -0.0272756)
(0.0288025 -0.328518 -0.0399589)
(0.0261348 -0.302923 -0.0514309)
(0.0243977 -0.281807 -0.0594473)
(0.0238466 -0.261669 -0.063038)
(0.0247241 -0.23902 -0.0612081)
(0.0272025 -0.210845 -0.0524942)
(0.030964 -0.175819 -0.0363117)
(0.034988 -0.13611 -0.0148471)
(0.037973 -0.0979233 0.0067073)
(0.0392761 -0.067745 0.0231476)
(0.0392219 -0.0473684 0.0327677)
(0.0383832 -0.0341084 0.0371523)
(0.0371016 -0.0245562 0.0384874)
(0.0355297 -0.0164342 0.0381534)
(0.0337827 -0.00835695 0.0368257)
(0.0319717 0.000816228 0.0347786)
(0.0301957 0.0125993 0.0319516)
(0.0285225 0.029565 0.0277897)
(0.0269122 0.0555512 0.0211213)
(0.0250083 0.0925517 0.011622)
(0.0222373 0.144039 0.00346123)
(0.0158688 0.253478 0.0130408)
(0.00889633 0.401717 0.0350018)
(0.00263027 0.410216 0.0300875)
(0.00585084 -0.336799 -0.0040934)
(0.0107204 -0.509664 -0.00868915)
(0.0112452 -0.543469 -0.00864183)
(0.0107475 -0.544969 -0.00799512)
(0.0101553 -0.533879 -0.00744604)
(0.00959433 -0.513166 -0.00721515)
(0.00903824 -0.484275 -0.00780697)
(0.00850567 -0.449068 -0.0100405)
(0.00818143 -0.410097 -0.0147139)
(0.00829683 -0.370524 -0.0220219)
(0.00890018 -0.334059 -0.0311201)
(0.00978305 -0.30364 -0.0403636)
(0.0106663 -0.279728 -0.0482807)
(0.011404 -0.260661 -0.0541607)
(0.0120265 -0.244088 -0.057756)
(0.0126921 -0.227533 -0.0586905)
(0.0136686 -0.208085 -0.0558162)
(0.0153081 -0.182501 -0.0469962)
(0.0176861 -0.149846 -0.0313694)
(0.0202454 -0.114883 -0.0127326)
(0.0224463 -0.0849694 0.00304157)
(0.0242573 -0.063263 0.013361)
(0.0257704 -0.0479886 0.0191598)
(0.0270279 -0.0362339 0.0221581)
(0.0280435 -0.0259461 0.0235311)
(0.028828 -0.0158781 0.0239271)
(0.0294044 -0.00504818 0.0237093)
(0.0298066 0.00782906 0.0230697)
(0.0300336 0.0252045 0.0219765)
(0.0299614 0.0526298 0.019682)
(0.0291322 0.100123 0.0128428)
(0.0264406 0.174612 0.0021307)
(0.0170615 0.306027 0.00787854)
(0.00826993 0.448775 0.0257581)
(0.00185315 0.439401 0.0228385)
(0.00140261 -0.376153 -0.00542158)
(-0.0011368 -0.52065 -0.0192413)
(-0.00220612 -0.546107 -0.0226618)
(-0.00296902 -0.547157 -0.0223503)
(-0.00305064 -0.537006 -0.0199334)
(-0.00236384 -0.517714 -0.0158905)
(-0.00101202 -0.49049 -0.0110894)
(0.000810764 -0.457408 -0.00700022)
(0.00292957 -0.421469 -0.00533888)
(0.00523308 -0.38543 -0.00729085)
(0.00762308 -0.351132 -0.0129025)
(0.00992069 -0.319891 -0.0210339)
(0.0118875 -0.29258 -0.0298933)
(0.0133539 -0.269184 -0.0378412)
(0.014279 -0.248736 -0.0438344)
(0.0147292 -0.229628 -0.0472677)
(0.0148385 -0.209715 -0.0473998)
(0.0148083 -0.186334 -0.0426636)
(0.0150103 -0.157798 -0.0314457)
(0.0157393 -0.127264 -0.016186)
(0.0169396 -0.101248 -0.00287902)
(0.0184933 -0.0822349 0.00569951)
(0.0202808 -0.0682585 0.0105103)
(0.0222057 -0.0568113 0.0130465)
(0.0242066 -0.0462732 0.0142281)
(0.0262304 -0.0356533 0.0145496)
(0.02822 -0.0240644 0.0143)
(0.030095 -0.0101085 0.0136548)
(0.0317046 0.00925 0.0126943)
(0.0325095 0.0415354 0.0113284)
(0.0312895 0.103464 0.00744074)
(0.026874 0.213275 -0.000897891)
(0.01412 0.381041 0.00394737)
(0.00540892 0.495115 0.0150297)
(0.00172904 0.46602 0.0127996)
(-0.00179631 -0.357358 -0.0193599)
(-0.00439327 -0.508932 -0.0354958)
(-0.00449673 -0.540099 -0.0373375)
(-0.00389452 -0.545519 -0.0368519)
(-0.00272346 -0.540122 -0.0351146)
(-0.000852893 -0.525762 -0.0319886)
(0.00162696 -0.502604 -0.0270408)
(0.00439493 -0.471416 -0.0199656)
(0.00704883 -0.434677 -0.0114234)
(0.00925772 -0.395726 -0.0034977)
(0.0108645 -0.357336 0.00115222)
(0.0118334 -0.321308 0.000887994)
(0.012176 -0.288835 -0.00394456)
(0.0119295 -0.260458 -0.0113771)
(0.0111878 -0.23579 -0.0190309)
(0.0101062 -0.21362 -0.0250726)
(0.00889125 -0.192341 -0.0282994)
(0.00782108 -0.170439 -0.0276863)
(0.00731083 -0.147446 -0.0224742)
(0.00778538 -0.125312 -0.0139017)
(0.00919049 -0.107067 -0.00544213)
(0.0110972 -0.0932221 0.000812793)
(0.0132054 -0.0822787 0.00491709)
(0.015407 -0.0727261 0.00748148)
(0.0176639 -0.0635315 0.00897978)
(0.0199427 -0.053869 0.00971934)
(0.0222011 -0.0426502 0.00989849)
(0.0243728 -0.0276579 0.00959777)
(0.0261975 -0.00341454 0.00866179)
(0.026834 0.0436583 0.00643145)
(0.0249512 0.136847 0.00135633)
(0.0187775 0.287085 -0.00544478)
(0.00698042 0.46272 -0.001528)
(0.00119522 0.528215 0.00344262)
(0.000541268 0.485528 0.00245116)
(-0.00212885 -0.342329 -0.0171337)
(-0.00290336 -0.518067 -0.0163393)
(-0.00272386 -0.556905 -0.0145335)
(-0.00190739 -0.565293 -0.0144329)
(-0.00079174 -0.561668 -0.0153597)
(0.0005637 -0.548016 -0.0171934)
(0.00206751 -0.524052 -0.0194165)
(0.00360959 -0.490404 -0.0205749)
(0.00510509 -0.449932 -0.0186648)
(0.00648358 -0.406414 -0.0127697)
(0.007608 -0.362773 -0.00434497)
(0.00826742 -0.320888 0.00337019)
(0.00824351 -0.282234 0.00735696)
(0.00743579 -0.248036 0.00664782)
(0.00598336 -0.218793 0.00259725)
(0.00423996 -0.194106 -0.00241958)