/*--------------------------------*- C++ -*----------------------------------*\
| =========                 |                                                 |
| \\      /  F ield         | OpenFOAM: The Open Source CFD Toolbox           |
|  \\    /   O peration     | Version:  v2006                                 |
|   \\  /    A nd           | Website:  www.openfoam.com                      |
|    \\/     M anipulation  |                                                 |
\*---------------------------------------------------------------------------*/
FoamFile
{
    version     2.0;
    format      ascii;
    class       surfaceScalarField;
    location    "77";
    object      phi;
}
// * * * * * * * * * * * * * * * * * * * * * * * * * * * * * * * * * * * * * //

dimensions      [1 0 -1 0 0 0 0];
oriented        oriented;


internalField   nonuniform List<scalar> 
228225
(
-1.97824e-06
5.28291e-08
1.61327e-07
-1.93573e-06
-2.93765e-07
2.51603e-07
-1.60276e-06
-6.19368e-07
2.86378e-07
-9.80689e-07
-9.20605e-07
2.98768e-07
-1.06884e-07
-1.17594e-06
3.02415e-07
9.64351e-07
-1.37355e-06
3.02634e-07
2.1761e-06
-1.51247e-06
3.01086e-07
3.4748e-06
-1.59675e-06
2.98447e-07
4.81357e-06
-1.63325e-06
2.94893e-07
6.15263e-06
-1.62904e-06
2.90401e-07
7.45857e-06
-1.59041e-06
2.84902e-07
8.70329e-06
-1.52261e-06
2.78338e-07
9.86309e-06
-1.43003e-06
2.70682e-07
1.09182e-05
-1.31663e-06
2.61935e-07
1.18527e-05
-1.1861e-06
2.52132e-07
1.26538e-05
-1.04205e-06
2.41333e-07
1.33114e-05
-8.86798e-07
2.29673e-07
1.38169e-05
-7.22445e-07
2.17298e-07
1.41649e-05
-5.51912e-07
2.04375e-07
1.43524e-05
-3.78227e-07
1.91091e-07
1.43799e-05
-2.04813e-07
1.77659e-07
1.42546e-05
-3.87427e-08
1.64293e-07
1.39617e-05
1.41936e-07
1.51237e-07
1.35106e-05
3.125e-07
1.38744e-07
1.29111e-05
4.72602e-07
1.27055e-07
1.21728e-05
6.21956e-07
1.16357e-07
1.13066e-05
7.59423e-07
1.06762e-07
1.0324e-05
8.84156e-07
9.82967e-08
9.23546e-06
9.97444e-07
9.08334e-08
8.04455e-06
1.10647e-06
8.40549e-08
6.73247e-06
1.23413e-06
7.73941e-08
5.2303e-06
1.43132e-06
7.00842e-08
3.43694e-06
1.73096e-06
6.14091e-08
1.43277e-06
1.95299e-06
4.99413e-08
1.40119e-06
3.00406e-08
3.49988e-09
-6.70724e-08
1.16104e-07
1.11018e-07
-6.06559e-07
2.05634e-07
3.54851e-07
-1.11371e-06
2.50125e-07
7.49268e-07
-1.58554e-06
2.70639e-07
1.28811e-06
-1.99281e-06
2.78045e-07
1.95205e-06
-2.31641e-06
2.78895e-07
2.71357e-06
-2.55075e-06
2.76804e-07
3.54336e-06
-2.69992e-06
2.73497e-07
4.41278e-06
-2.77221e-06
2.69676e-07
5.29538e-06
-2.77707e-06
2.6558e-07
6.16742e-06
-2.72348e-06
2.61211e-07
7.00767e-06
-2.61916e-06
2.56498e-07
7.79714e-06
-2.47059e-06
2.51331e-07
8.51911e-06
-2.28389e-06
2.45559e-07
9.15961e-06
-2.06531e-06
2.39e-07
9.70741e-06
-1.82101e-06
2.31484e-07
1.01538e-05
-1.55598e-06
2.23093e-07
1.04919e-05
-1.27418e-06
2.1399e-07
1.07162e-05
-9.80007e-07
2.04201e-07
1.08225e-05
-6.77904e-07
1.93762e-07
1.08076e-05
-3.72272e-07
1.82752e-07
1.06661e-05
-6.82663e-08
1.71312e-07
1.04153e-05
2.3335e-07
1.59705e-07
1.00552e-05
5.24796e-07
1.48182e-07
9.58837e-06
8.02575e-07
1.37045e-07
9.02022e-06
1.06363e-06
1.2663e-07
8.35621e-06
1.30629e-06
1.17229e-07
7.59961e-06
1.53173e-06
1.09029e-07
6.74679e-06
1.74796e-06
1.02189e-07
5.78113e-06
1.97534e-06
9.65748e-08
4.66931e-06
2.25442e-06
9.11991e-08
3.38142e-06
2.63473e-06
8.40288e-08
1.97402e-06
3.06516e-06
7.26086e-08
6.80196e-07
3.19086e-06
5.51808e-08
2.05167e-06
2.86684e-08
2.1069e-07
-3.58926e-07
8.08047e-08
6.15589e-07
-1.16227e-06
1.50915e-07
1.17908e-06
-1.86507e-06
1.87647e-07
1.84911e-06
-2.46217e-06
2.06293e-07
2.57805e-06
-2.93677e-06
2.14766e-07
3.32862e-06
-3.28493e-06
2.17729e-07
4.07554e-06
-3.51577e-06
2.17862e-07
4.80348e-06
-3.64477e-06
2.16689e-07
5.50345e-06
-3.68746e-06
2.15085e-07
6.16932e-06
-3.65668e-06
2.13554e-07
6.79522e-06
-3.56184e-06
2.12299e-07
7.37468e-06
-3.41017e-06
2.11396e-07
7.9005e-06
-3.20746e-06
2.10917e-07
8.36488e-06
-2.9592e-06
2.1082e-07
8.75987e-06
-2.67134e-06
2.10939e-07
9.07781e-06
-2.35006e-06
2.11049e-07
9.3126e-06
-2.00169e-06
2.10869e-07
9.46047e-06
-1.63218e-06
2.10111e-07
9.51896e-06
-1.24702e-06
2.08537e-07
9.48662e-06
-8.51316e-07
2.05794e-07
9.36284e-06
-4.50026e-07
2.01602e-07
9.14951e-06
-5.05956e-08
1.95746e-07
8.84407e-06
3.50772e-07
1.88105e-07
8.4505e-06
7.39741e-07
1.78727e-07
7.97264e-06
1.11266e-06
1.67858e-07
7.41553e-06
1.46481e-06
1.55982e-07
6.78395e-06
1.7941e-06
1.43786e-07
6.07937e-06
2.10422e-06
1.32043e-07
5.29673e-06
2.40908e-06
1.21407e-07
4.4216e-06
2.73834e-06
1.1196e-07
3.43579e-06
3.13741e-06
1.02593e-07
2.35311e-06
3.62616e-06
9.09425e-08
1.28244e-06
4.06022e-06
7.52451e-08
4.00415e-07
4.01747e-06
5.4939e-08
2.42399e-06
2.73934e-08
1.89548e-07
-6.18844e-07
6.98127e-08
6.63583e-07
-1.76699e-06
1.31131e-07
1.33407e-06
-2.69547e-06
1.5973e-07
2.10898e-06
-3.40916e-06
1.71734e-07
2.91185e-06
-3.91521e-06
1.75437e-07
3.69184e-06
-4.24004e-06
1.75098e-07
4.42386e-06
-4.42052e-06
1.7267e-07
5.09965e-06
-4.48966e-06
1.69002e-07
5.71847e-06
-4.47097e-06
1.64596e-07
6.28121e-06
-4.37928e-06
1.59809e-07
6.78882e-06
-4.22467e-06
1.55178e-07
7.24034e-06
-4.013e-06
1.51287e-07
7.63264e-06
-3.74836e-06
1.48566e-07
7.96213e-06
-3.43607e-06
1.47335e-07
8.22524e-06
-3.08227e-06
1.47781e-07
8.41901e-06
-2.69384e-06
1.49959e-07
8.54139e-06
-2.2779e-06
1.53793e-07
8.59142e-06
-1.8413e-06
1.59071e-07
8.5691e-06
-1.39016e-06
1.65436e-07
8.47501e-06
-9.29658e-07
1.72415e-07
8.30978e-06
-4.64213e-07
1.79398e-07
8.07721e-06
-3.68166e-09
1.85646e-07
7.77062e-06
4.67e-07
1.90358e-07
7.39378e-06
9.23823e-07
1.92759e-07
6.94708e-06
1.36712e-06
1.92236e-07
6.43176e-06
1.79159e-06
1.88516e-07
5.84911e-06
2.19491e-06
1.8181e-07
5.19825e-06
2.58222e-06
1.72794e-07
4.47355e-06
2.97138e-06
1.62288e-07
3.66511e-06
3.39606e-06
1.50573e-07
2.77147e-06
3.89417e-06
1.36667e-07
1.83479e-06
4.44385e-06
1.18751e-07
9.64204e-07
4.83379e-06
9.67612e-08
2.83583e-07
4.62729e-06
7.04843e-08
2.67273e-06
3.43134e-08
1.93462e-07
-8.59693e-07
4.72697e-08
6.38496e-07
-2.29774e-06
8.54775e-08
1.22509e-06
-3.38362e-06
1.01527e-07
1.86398e-06
-4.15559e-06
1.0746e-07
2.49386e-06
-4.65344e-06
1.08235e-07
3.08711e-06
-4.93888e-06
1.05476e-07
3.64005e-06
-5.07315e-06
9.96175e-08
4.15771e-06
-5.09859e-06
9.12116e-08
4.64428e-06
-5.03886e-06
8.12662e-08
5.09997e-06
-4.90581e-06
7.07887e-08
5.52163e-06
-4.70697e-06
6.05932e-08
5.90359e-06
-4.44644e-06
5.14235e-08
6.2388e-06
-4.12753e-06
4.39155e-08
6.52008e-06
-3.75595e-06
3.8552e-08
6.74155e-06
-3.33954e-06
3.57546e-08
6.8993e-06
-2.88748e-06
3.58493e-08
6.99172e-06
-2.4094e-06
3.9038e-08
7.01936e-06
-1.91434e-06
4.53709e-08
6.98442e-06
-1.41005e-06
5.47883e-08
6.89011e-06
-9.02463e-07
6.70741e-08
6.73966e-06
-3.95626e-07
8.18263e-08
6.52946e-06
1.08037e-07
9.84297e-08
6.27576e-06
6.04638e-07
1.16025e-07
5.97226e-06
1.09386e-06
1.33412e-07
5.61776e-06
1.57235e-06
1.49223e-07
5.20957e-06
2.03762e-06
1.62109e-07
4.74327e-06
2.49011e-06
1.71024e-07
4.21213e-06
2.93785e-06
1.75427e-07
3.6069e-06
3.40138e-06
1.75118e-07
2.92023e-06
3.91299e-06
1.69616e-07
2.16288e-06
4.4937e-06
1.57669e-07
1.39177e-06
5.07665e-06
1.38177e-07
7.02474e-07
5.41037e-06
1.12595e-07
1.90708e-07
5.05807e-06
8.08212e-08
2.82659e-06
3.64729e-08
1.57897e-07
-1.05196e-06
3.41918e-08
5.26783e-07
-2.7311e-06
6.41866e-08
1.00963e-06
-3.94623e-06
7.98651e-08
1.52985e-06
-4.76428e-06
8.84689e-08
2.04147e-06
-5.25729e-06
9.20703e-08
2.52867e-06
-5.51736e-06
9.11258e-08
2.99201e-06
-5.62264e-06
8.605e-08
3.43496e-06
-5.61919e-06
7.7613e-08
3.85844e-06
-5.52909e-06
6.67113e-08
4.26061e-06
-5.36226e-06
5.42433e-08
4.63575e-06
-5.12311e-06
4.0915e-08
4.97603e-06
-4.81411e-06
2.73095e-08
5.27383e-06
-4.43939e-06
1.39926e-08
5.5232e-06
-4.00612e-06
7.35088e-10
5.71601e-06
-3.52452e-06
-7.87474e-09
5.84999e-06
-3.00656e-06
-1.49497e-08
5.92462e-06
-2.46467e-06
-1.94053e-08
5.94133e-06
-1.91052e-06
-2.06013e-08
5.90327e-06
-1.35393e-06
-1.81268e-08
5.81475e-06
-8.02262e-07
-1.17473e-08
5.68099e-06
-2.60252e-07
-1.68133e-09
5.50546e-06
2.69675e-07
1.38313e-08
5.29071e-06
7.86863e-07
3.24669e-08
5.03892e-06
1.29177e-06
5.38116e-08
4.74893e-06
1.7856e-06
7.66733e-08
4.41623e-06
2.27077e-06
9.94828e-08
4.03274e-06
2.75299e-06
1.20519e-07
3.58737e-06
3.24503e-06
1.38092e-07
3.06846e-06
3.7697e-06
1.50488e-07
2.47128e-06
4.35433e-06
1.55722e-07
1.81487e-06
4.9985e-06
1.51498e-07
1.16015e-06
5.59504e-06
1.36235e-07
5.82169e-07
5.87684e-06
1.11459e-07
1.58964e-07
5.40324e-06
7.79408e-08
2.95321e-06
3.20363e-08
1.40875e-07
-1.21593e-06
2.30604e-08
4.5197e-07
-3.08749e-06
4.51203e-08
8.47894e-07
-4.40101e-06
5.86825e-08
1.27024e-06
-5.25407e-06
6.73558e-08
1.68611e-06
-5.74491e-06
7.17032e-08
2.08626e-06
-5.98937e-06
7.17966e-08
2.47206e-06
-6.07653e-06
6.80297e-08
2.84515e-06
-6.0535e-06
6.11482e-08
3.20476e-06
-5.9407e-06
5.19542e-08
3.54745e-06
-5.74608e-06
4.10698e-08
3.86748e-06
-5.47211e-06
2.89257e-08
4.15798e-06
-5.12054e-06
1.58883e-08
4.41223e-06
-4.69574e-06
2.05773e-09
4.62294e-06
-4.20631e-06
-1.05609e-08
4.78564e-06
-3.6646e-06
-2.26714e-08
4.89767e-06
-3.08521e-06
-3.34366e-08
4.95841e-06
-2.4833e-06
-4.21584e-08
4.96919e-06
-1.87316e-06
-4.82109e-08
4.93309e-06
-1.26689e-06
-5.09941e-08
4.85445e-06
-6.73697e-07
-4.9989e-08
4.73773e-06
-9.88346e-08
-4.47671e-08
4.58969e-06
4.52629e-07
-3.49776e-08
4.41378e-06
9.83177e-07
-2.04778e-08
4.21135e-06
1.49543e-06
-1.30579e-09
3.98097e-06
1.99485e-06
2.10575e-08
3.71616e-06
2.48939e-06
4.61162e-08
3.4064e-06
2.99076e-06
7.19117e-08
3.03821e-06
3.5168e-06
9.63333e-08
2.5992e-06
4.0918e-06
1.16827e-07
2.08715e-06
4.73601e-06
1.30266e-07
1.52497e-06
5.4274e-06
1.33212e-07
9.69926e-07
6.02686e-06
1.23187e-07
4.81582e-07
6.26407e-06
1.01109e-07
1.30515e-07
5.68558e-06
6.86741e-08
3.05762e-06
2.58438e-08
1.07369e-07
-1.34078e-06
1.75618e-08
3.55774e-07
-3.37448e-06
3.8334e-08
6.81397e-07
-4.78074e-06
5.38483e-08
1.03717e-06
-5.67495e-06
6.50291e-08
1.39559e-06
-6.17476e-06
7.14421e-08
1.7476e-06
-6.41445e-06
7.3052e-08
2.09228e-06
-6.49176e-06
7.04826e-08
2.42905e-06
-6.45506e-06
6.46935e-08
2.75558e-06
-6.32387e-06
5.65483e-08
3.06759e-06
-6.10478e-06
4.66204e-08
3.35933e-06
-5.79916e-06
3.52707e-08
3.62447e-06
-5.40838e-06
2.26715e-08
3.85701e-06
-4.93737e-06
9.06249e-09
4.0518e-06
-4.39607e-06
-5.08473e-09
4.20491e-06
-3.79859e-06
-1.91845e-08
4.31359e-06
-3.16137e-06
-3.25873e-08
4.37657e-06
-2.50168e-06
-4.46717e-08
4.3942e-06
-1.83595e-06
-5.49017e-08
4.36849e-06
-1.17856e-06
-6.2695e-08
4.30303e-06
-5.40916e-07
-6.73798e-08
4.20347e-06
6.89537e-08
-6.82931e-08
4.07395e-06
6.46887e-07
-6.48137e-08
3.92015e-06
1.19326e-06
-5.6352e-08
3.74474e-06
1.7133e-06
-4.25313e-08
3.54635e-06
2.21655e-06
-2.338e-08
3.31814e-06
2.7166e-06
9.29048e-10
3.05057e-06
3.23141e-06
2.68399e-08
2.72894e-06
3.78391e-06
5.44406e-08
2.34099e-06
4.39958e-06
8.00945e-08
1.88565e-06
5.09151e-06
9.97678e-08
1.38548e-06
5.81854e-06
1.08992e-07
8.90487e-07
6.41753e-06
1.0434e-07
4.49608e-07
6.61895e-06
8.60392e-08
1.27681e-07
5.95089e-06
5.66083e-08
3.16562e-06
1.94582e-08
9.91506e-08
-1.45469e-06
1.46085e-08
3.23219e-07
-3.63338e-06
3.47897e-08
6.15038e-07
-5.12351e-06
5.08714e-08
9.34114e-07
-6.05697e-06
6.28321e-08
1.25652e-06
-6.56754e-06
7.02766e-08
1.57414e-06
-6.80547e-06
7.33285e-08
1.88548e-06
-6.87577e-06
7.26097e-08
2.18928e-06
-6.82789e-06
6.89681e-08
2.48293e-06
-6.6807e-06
6.31339e-08
2.76236e-06
-6.43984e-06
5.55835e-08
3.02251e-06
-6.10592e-06
4.65477e-08
3.2581e-06
-5.68014e-06
3.61174e-08
3.46432e-06
-5.16807e-06
2.44229e-08
3.63721e-06
-4.58082e-06
1.18075e-08
3.77318e-06
-3.93382e-06
-7.97349e-10
3.87155e-06
-3.24487e-06
-1.49218e-08
3.93051e-06
-2.53262e-06
-2.80723e-08
3.94984e-06
-1.81509e-06
-4.02573e-08
3.93068e-06
-1.1084e-06
-5.10629e-08
3.87548e-06
-4.25889e-07
-5.98979e-08
3.7881e-06
2.22301e-07
-6.60494e-08
3.67357e-06
8.301e-07
-6.87556e-08
3.53674e-06
1.39726e-06
-6.72368e-08
3.38059e-06
1.93005e-06
-6.06708e-08
3.20444e-06
2.44103e-06
-4.83997e-08
3.00275e-06
2.94842e-06
-3.01939e-08
2.7646e-06
3.4757e-06
-6.21046e-09
2.4778e-06
4.05063e-06
2.0011e-08
2.13056e-06
4.69979e-06
4.69732e-08
1.72181e-06
5.4301e-06
7.01139e-08
1.27167e-06
6.18471e-06
8.39623e-08
8.22882e-07
6.78227e-06
8.41149e-08
4.18464e-07
6.95336e-06
7.01065e-08
1.20672e-07
6.20369e-06
4.50195e-08
3.27176e-06
1.43464e-08
8.43404e-08
-1.55279e-06
1.35624e-08
2.84003e-07
-3.86735e-06
3.43651e-08
5.49773e-07
-5.44094e-06
5.15928e-08
8.44133e-07
-6.41606e-06
6.45866e-08
1.14443e-06
-6.94079e-06
7.28131e-08
1.44227e-06
-7.17988e-06
7.6484e-08
1.73518e-06
-7.24516e-06
7.64423e-08
2.02105e-06
-7.18749e-06
7.37084e-08
2.29673e-06
-7.02547e-06
6.90635e-08
2.55798e-06
-6.76411e-06
6.29714e-08
2.79999e-06
-6.40359e-06
5.56032e-08
3.01804e-06
-5.94522e-06
4.69689e-08
3.2081e-06
-5.3953e-06
3.71023e-08
3.36706e-06
-4.76599e-06
2.61517e-08
3.49265e-06
-4.07385e-06
1.43943e-08
3.58306e-06
-3.3378e-06
2.47154e-09
3.63826e-06
-2.57742e-06
-1.04559e-08
3.65779e-06
-1.81173e-06
-2.2949e-08
3.64213e-06
-1.05814e-06
-3.46774e-08
3.59304e-06
-3.31604e-07
-4.52836e-08
3.51364e-06
3.55779e-07
-5.41542e-08
3.4081e-06
9.96141e-07
-6.05744e-08
3.28085e-06
1.58822e-06
-6.3785e-08
3.13499e-06
2.13878e-06
-6.29382e-08
2.97056e-06
2.66249e-06
-5.70904e-08
2.78321e-06
3.18113e-06
-4.54189e-08
2.56378e-06
3.72263e-06
-2.75605e-08
2.29919e-06
4.31878e-06
-3.60722e-09
1.98045e-06
4.99729e-06
2.11905e-08
1.60573e-06
5.75991e-06
4.49039e-08
1.19208e-06
6.53702e-06
6.13777e-08
7.76241e-07
7.1329e-06
6.53351e-08
3.97488e-07
7.27671e-06
5.55613e-08
1.15894e-07
6.45013e-06
3.52438e-08
3.37684e-06
1.06847e-08
8.25756e-08
-1.64902e-06
1.35184e-08
2.73527e-07
-4.09396e-06
3.55266e-08
5.25292e-07
-5.74654e-06
5.37555e-08
8.02459e-07
-6.7607e-06
6.74064e-08
1.08396e-06
-7.29855e-06
7.61921e-08
1.36231e-06
-7.53879e-06
8.04913e-08
1.63532e-06
-7.59944e-06
8.1203e-08
1.90095e-06
-7.53255e-06
7.93537e-08
2.15618e-06
-7.35648e-06
7.5724e-08
2.397e-06
-7.07576e-06
7.07823e-08
2.61895e-06
-6.69032e-06
6.47185e-08
2.81787e-06
-6.20173e-06
5.75478e-08
2.99034e-06
-5.6171e-06
4.92782e-08
3.13393e-06
-4.94961e-06
3.99703e-08
3.24709e-06
-4.2168e-06
2.97443e-08
3.32887e-06
-3.43845e-06
1.88091e-08
3.37869e-06
-2.63485e-06
7.54344e-09
3.39638e-06
-1.82564e-06
-3.85712e-09
3.38302e-06
-1.02893e-06
-1.59231e-08
3.33938e-06
-2.60831e-07
-2.72117e-08
3.26762e-06
4.64961e-07
-3.74992e-08
3.17093e-06
1.13893e-06
-4.61763e-08
3.05284e-06
1.75878e-06
-5.25487e-08
2.91606e-06
2.33133e-06
-5.58433e-08
2.76104e-06
2.87256e-06
-5.51226e-08
2.58459e-06
3.40687e-06
-4.93424e-08
2.37919e-06
3.96559e-06
-3.76195e-08
2.13401e-06
4.58366e-06
-1.97198e-08
1.83846e-06
5.28962e-06
3.20876e-09
1.49275e-06
6.08091e-06
2.4756e-08
1.11081e-06
6.87713e-06
4.19367e-08
7.24763e-07
7.47056e-06
4.85718e-08
3.71106e-07
7.58795e-06
4.26319e-08
1.07846e-07
6.68659e-06
2.69536e-08
3.47676e-06
7.85754e-09
7.66845e-08
-1.73993e-06
1.4081e-08
2.57359e-07
-4.3118e-06
3.70083e-08
4.96813e-07
-6.0417e-06
5.56725e-08
7.604e-07
-7.0938e-06
6.95082e-08
1.02783e-06
-7.64445e-06
7.84214e-08
1.29195e-06
-7.88592e-06
8.29403e-08
1.55047e-06
-7.94211e-06
8.4062e-08
1.8012e-06
-7.86619e-06
8.28318e-08
2.04107e-06
-7.67641e-06
8.00007e-08
2.26621e-06
-7.37695e-06
7.60069e-08
2.47247e-06
-6.96765e-06
7.10303e-08
2.65614e-06
-6.45053e-06
6.50878e-08
2.81437e-06
-5.83354e-06
5.81728e-08
2.94525e-06
-5.13085e-06
5.03059e-08
3.04774e-06
-4.36089e-06
4.15377e-08
3.12134e-06
-3.54409e-06
3.1971e-08
3.16591e-06
-2.70127e-06
2.17862e-08
3.18145e-06
-1.85253e-06
1.1268e-08
3.16787e-06
-1.0165e-06
1.08115e-09
3.12722e-06
-2.09957e-07
-1.03003e-08
3.06071e-06
5.52223e-07
-2.0829e-08
2.97065e-06
1.25922e-06
-3.03166e-08
2.8597e-06
1.90792e-06
-3.82622e-08
2.72998e-06
2.505e-06
-4.40309e-08
2.58192e-06
3.06734e-06
-4.67922e-08
2.41305e-06
3.6212e-06
-4.55184e-08
2.21732e-06
4.2004e-06
-3.91177e-08
1.98574e-06
4.84208e-06
-2.68533e-08
1.70928e-06
5.57511e-06
-9.01291e-09
1.38691e-06
6.39292e-06
1.04359e-08
1.03201e-06
7.2056e-06
2.65954e-08
6.72991e-07
7.79518e-06
3.4641e-08
3.43618e-07
7.88582e-06
3.17895e-08
9.91717e-08
6.91104e-06
2.02085e-08
3.57022e-06
5.71786e-09
7.51777e-08
-1.83014e-06
1.49385e-08
2.49496e-07
-4.52535e-06
3.91233e-08
4.78139e-07
-6.32885e-06
5.8393e-08
7.27862e-07
-7.41607e-06
7.24588e-08
9.79873e-07
-7.978e-06
8.14717e-08
1.22795e-06
-8.22019e-06
8.61223e-08
1.47012e-06
-8.27184e-06
8.74904e-08
1.70433e-06
-8.1871e-06
8.66446e-08
1.92761e-06
-7.98408e-06
8.43332e-08
2.13632e-06
-7.66671e-06
8.09937e-08
2.3267e-06
-7.2349e-06
7.68139e-08
2.49552e-06
-6.69122e-06
7.18224e-08
2.64044e-06
-6.04452e-06
6.60074e-08
2.76004e-06
-5.30987e-06
5.9358e-08
2.85364e-06
-4.50641e-06
5.18663e-08
2.921e-06
-3.65508e-06
4.3552e-08
2.96215e-06
-2.77697e-06
3.44929e-08
2.97717e-06
-1.89246e-06
2.48414e-08
2.96626e-06
-1.02049e-06
1.48085e-08
2.92984e-06
-1.78386e-07
4.76958e-09
2.86928e-06
6.18098e-07
-5.39761e-09
2.78658e-06
1.35718e-06
-1.53382e-08
2.68349e-06
2.03503e-06
-2.41093e-08
2.56146e-06
2.65825e-06
-3.13077e-08
2.42066e-06
3.24435e-06
-3.62728e-08
2.25898e-06
3.82095e-06
-3.81248e-08
2.0715e-06
4.42365e-06
-3.5803e-08
1.85089e-06
5.09105e-06
-2.83434e-08
1.59e-06
5.85161e-06
-1.55528e-08
1.28704e-06
6.6947e-06
1.3008e-09
9.56062e-07
7.52173e-06
1.50574e-08
6.22272e-07
8.10583e-06
2.34461e-08
3.16501e-07
8.16905e-06
2.28833e-08
9.068e-08
7.1224e-06
1.47351e-08
3.6569e-06
4.05194e-09
7.16285e-08
-1.91767e-06
1.58538e-08
2.38362e-07
-4.73297e-06
4.0763e-08
4.56663e-07
-6.60731e-06
6.00147e-08
6.94164e-07
-7.72753e-06
7.3846e-08
9.3301e-07
-8.29961e-06
8.26966e-08
1.16747e-06
-8.54209e-06
8.73956e-08
1.39567e-06
-8.58912e-06
8.90365e-08
1.61556e-06
-8.49568e-06
8.86409e-08
1.8243e-06
-8.27979e-06
8.69097e-08
2.01851e-06
-7.94524e-06
8.42579e-08
2.19484e-06
-7.49218e-06
8.08735e-08
2.35058e-06
-6.92382e-06
7.67969e-08
2.48387e-06
-6.24989e-06
7.20172e-08
2.59375e-06
-5.4863e-06
6.6509e-08
2.67981e-06
-4.65277e-06
6.02332e-08
2.74203e-06
-3.77051e-06
5.3159e-08
2.78047e-06
-2.86077e-06
4.52929e-08
2.7952e-06
-1.94397e-06
3.6702e-08
2.78632e-06
-1.0392e-06
2.75071e-08
2.7541e-06
-1.64163e-07
1.79085e-08
2.69923e-06
6.64646e-07
8.23738e-09
2.62247e-06
1.43464e-06
-7.89764e-10
2.5263e-06
2.14153e-06
-1.04189e-08
2.41116e-06
2.79182e-06
-1.84998e-08
2.27683e-06
3.40352e-06
-2.49011e-08
2.12135e-06
4.0053e-06
-2.89191e-08
1.94056e-06
4.63404e-06
-2.96236e-08
1.72856e-06
5.32908e-06
-2.60274e-08
1.47998e-06
6.11788e-06
-1.76151e-08
1.19457e-06
6.9854e-06
-5.12596e-09
8.84646e-07
7.82485e-06
7.06912e-09
5.74123e-07
8.40178e-06
1.49376e-08
2.90762e-07
8.43694e-06
1.58652e-08
8.27511e-08
7.32031e-06
1.04341e-08
3.73695e-06
2.80161e-09
6.92577e-08
-2.00379e-06
1.6739e-08
2.29362e-07
-4.9356e-06
4.24392e-08
4.37626e-07
-6.87745e-06
6.17954e-08
6.62785e-07
-8.02824e-06
7.5469e-08
8.88169e-07
-8.60922e-06
8.41465e-08
1.10876e-06
-8.85155e-06
8.8797e-08
1.3229e-06
-8.8939e-06
9.05655e-08
1.52866e-06
-8.79196e-06
9.04661e-08
1.72333e-06
-8.56369e-06
8.91746e-08
1.90379e-06
-8.21285e-06
8.709e-08
2.06713e-06
-7.73997e-06
8.44011e-08
2.21108e-06
-7.14898e-06
8.11518e-08
2.33429e-06
-6.45048e-06
7.73259e-08
2.43616e-06
-5.66111e-06
7.28765e-08
2.5166e-06
-4.80099e-06
6.77291e-08
2.5757e-06
-3.89147e-06
6.18033e-08
2.61351e-06
-2.9537e-06
5.50437e-08
2.62996e-06
-2.00794e-06
4.74494e-08
2.62485e-06
-1.07325e-06
3.90808e-08
2.59806e-06
-1.67545e-07
3.00815e-08
2.54984e-06
6.92075e-07
2.06998e-08
2.48087e-06
1.49225e-06
1.1277e-08
2.39177e-06
2.2282e-06
2.33529e-09
2.28338e-06
2.90642e-06
-6.27616e-09
2.1552e-06
3.54532e-06
-1.36906e-08
2.00529e-06
4.17439e-06
-1.92224e-08
1.83008e-06
4.83137e-06
-2.2133e-08
1.62489e-06
5.55583e-06
-2.15236e-08
1.386e-06
6.37361e-06
-1.67382e-08
1.11475e-06
7.26495e-06
-8.10296e-09
8.22675e-07
8.11516e-06
2.06347e-09
5.32534e-07
8.68351e-06
8.80806e-09
2.6898e-07
8.69037e-06
1.05573e-08
7.63374e-08
7.50614e-06
7.1773e-09
3.81152e-06
1.90578e-09
6.63702e-08
-2.0878e-06
1.74784e-08
2.19831e-07
-5.13263e-06
4.35125e-08
4.18756e-07
-7.13897e-06
6.25431e-08
6.32806e-07
-8.31812e-06
7.57508e-08
8.46233e-07
-8.90685e-06
8.41118e-08
1.05449e-06
-9.14859e-06
8.86974e-08
1.25608e-06
-9.18619e-06
9.06303e-08
1.44912e-06
-9.07593e-06
9.08662e-08
1.63108e-06
-8.83574e-06
9.0038e-08
1.79914e-06
-8.46949e-06
8.85265e-08
1.95075e-06
-7.97816e-06
8.65227e-08
2.08412e-06
-7.36649e-06
8.40818e-08
2.19832e-06
-6.64593e-06
8.11904e-08
2.29311e-06
-5.83375e-06
7.77923e-08
2.36865e-06
-4.95039e-06
7.37907e-08
2.4252e-06
-4.01715e-06
6.90662e-08
2.46281e-06
-3.05489e-06
6.35054e-08
2.48126e-06
-2.0835e-06
5.70342e-08
2.48008e-06
-1.12178e-06
4.96379e-08
2.45873e-06
-1.8767e-07
4.13922e-08
2.41693e-06
7.01298e-07
3.24899e-08
2.35482e-06
1.53104e-06
2.32292e-08
2.27277e-06
2.29619e-06
1.39858e-08
2.17078e-06
3.0031e-06
5.21598e-09
2.04814e-06
3.67054e-06
-2.6443e-09
1.90327e-06
4.32864e-06
-9.42434e-09
1.73295e-06
5.0157e-06
-1.40275e-08
1.53351e-06
5.77107e-06
-1.57517e-08
1.30269e-06
6.61847e-06
-1.39242e-08
1.04332e-06
7.53311e-06
-8.56214e-09
7.67003e-07
8.39262e-06
-8.15411e-10
4.94999e-07
8.95127e-06
4.67414e-09
2.49295e-07
8.92983e-06
6.71149e-09
7.0547e-08
7.68048e-06
4.79969e-09
3.88092e-06
1.29782e-09
6.39887e-08
-2.16999e-06
1.80825e-08
2.11281e-07
-5.32437e-06
4.43322e-08
4.01452e-07
-7.39227e-06
6.30334e-08
6.05158e-07
-8.5977e-06
7.57946e-08
8.07538e-07
-9.19313e-06
8.38248e-08
1.00449e-06
-9.43391e-06
8.82904e-08
1.19462e-06
-9.4667e-06
9.03153e-08
1.37613e-06
-9.34831e-06
9.08158e-08
1.54663e-06
-9.09669e-06
9.03885e-08
1.70358e-06
-8.7159e-06
8.93961e-08
1.84482e-06
-8.20749e-06
8.80293e-08
1.96895e-06
-7.57702e-06
8.63462e-08
2.07543e-06
-6.8368e-06
8.43302e-08
2.16437e-06
-6.00467e-06
8.19146e-08
2.2362e-06
-5.10127e-06
7.89848e-08
2.29132e-06
-4.14773e-06
7.53919e-08
2.32982e-06
-3.16445e-06
7.09788e-08
2.35133e-06
-2.17071e-06
6.5613e-08
2.35506e-06
-1.1848e-06
5.92132e-08
2.33996e-06
-2.24451e-07
5.17867e-08
2.30514e-06
6.92564e-07
4.34655e-08
2.25009e-06
1.55148e-06
3.45089e-08
2.17467e-06
2.34625e-06
2.52732e-08
2.07862e-06
3.08289e-06
1.61681e-08
1.96113e-06
3.78031e-06
7.64593e-09
1.82023e-06
4.4691e-06
3.90194e-10
1.65367e-06
5.18792e-06
-5.66119e-09
1.45853e-06
5.97551e-06
-9.24814e-09
1.23388e-06
6.85308e-06
-9.82606e-09
9.83902e-07
7.79055e-06
-7.22956e-09
7.21054e-07
8.65813e-06
-2.30777e-09
4.64294e-07
9.20628e-06
2.20684e-09
2.3358e-07
9.15689e-06
4.14403e-09
6.6143e-08
7.84512e-06
3.20957e-09
3.94628e-06
9.48791e-10
6.17741e-08
-2.25037e-06
1.85095e-08
2.03624e-07
-5.51098e-06
4.46255e-08
3.86068e-07
-7.63753e-06
6.27175e-08
5.80583e-07
-8.86713e-06
7.48451e-08
7.73082e-07
-9.46814e-06
8.24547e-08
9.59857e-07
-9.70751e-06
8.67689e-08
1.13963e-06
-9.73541e-06
8.88684e-08
1.31068e-06
-9.60904e-06
8.96097e-08
1.47081e-06
-9.34644e-06
8.955e-08
1.61772e-06
-8.95191e-06
8.90364e-08
1.74955e-06
-8.42764e-06
8.82634e-08
1.86524e-06
-7.78007e-06
8.72989e-08
1.96458e-06
-7.02232e-06
8.61295e-08
2.04796e-06
-6.1728e-06
8.46843e-08
2.1161e-06
-5.2523e-06
8.28361e-08
2.1696e-06
-4.2817e-06
8.04115e-08
2.20865e-06
-3.28079e-06
7.72126e-08
2.23285e-06
-2.26804e-06
7.30477e-08
2.24116e-06
-1.26096e-06
6.77625e-08
2.23212e-06
-2.76784e-07
6.1286e-08
2.20417e-06
6.66741e-07
5.36775e-08
2.15613e-06
1.55428e-06
4.51487e-08
2.08725e-06
2.379e-06
3.60408e-08
1.99692e-06
3.14637e-06
2.67685e-08
1.8842e-06
3.8752e-06
1.77752e-08
1.74745e-06
4.59627e-06
9.53367e-09
1.58443e-06
5.34833e-06
2.61201e-09
1.39311e-06
6.16926e-06
-2.38314e-09
1.17384e-06
7.07745e-06
-4.95349e-09
9.31973e-07
8.03735e-06
-4.68283e-09
6.80549e-07
8.91202e-06
-2.09255e-09
4.37104e-07
9.44917e-06
1.02522e-09
2.19552e-07
9.37234e-06
2.60982e-09
6.21388e-08
8.00071e-06
2.25396e-09
4.0078e-06
7.98581e-10
5.96511e-08
-2.32892e-06
1.87757e-08
1.96531e-07
-5.69254e-06
4.45758e-08
3.72055e-07
-7.87514e-06
6.19889e-08
5.58419e-07
-9.12705e-06
7.34626e-08
7.42228e-07
-9.73267e-06
8.06394e-08
9.20108e-07
-9.97025e-06
8.47844e-08
1.09086e-06
-9.99317e-06
8.69353e-08
1.25284e-06
-9.85898e-06
8.78897e-08
1.40398e-06
-9.5858e-06
8.81651e-08
1.54219e-06
-9.17828e-06
8.80898e-08
1.6659e-06
-8.63927e-06
8.78587e-08
1.77432e-06
-7.9761e-06
8.75457e-08
1.86752e-06
-7.20273e-06
8.71399e-08
1.94619e-06
-6.3381e-06
8.65699e-08
2.01129e-06
-5.40317e-06
8.57047e-08
2.06364e-06
-4.41848e-06
8.43599e-08
2.10357e-06
-3.40311e-06
8.23134e-08
2.13068e-06
-2.37456e-06
7.93305e-08
2.14374e-06
-1.3493e-06
7.51948e-08
2.14085e-06
-3.43741e-07
6.97559e-08
2.1198e-06
6.24707e-07
6.29878e-08
2.07865e-06
1.5403e-06
5.50323e-08
2.01605e-06
2.39532e-06
4.61952e-08
1.93096e-06
3.19449e-06
3.68897e-08
1.82231e-06
3.95621e-06
2.75736e-08
1.68863e-06
4.71119e-06
1.87223e-08
1.52816e-06
5.49795e-06
1.08483e-08
1.33971e-06
6.35325e-06
4.52223e-09
1.12455e-06
7.2924e-06
3.65242e-10
8.8915e-07
8.2743e-06
-1.30212e-09
6.47044e-07
9.15523e-06
-7.22495e-10
4.14767e-07
9.68111e-06
8.20625e-10
2.08203e-07
9.5775e-06
1.91498e-09
5.89958e-08
8.14851e-06
1.83206e-09
4.06614e-06
8.32454e-10
5.80498e-08
-2.40594e-06
1.88744e-08
1.90898e-07
-5.86958e-06
4.41001e-08
3.60553e-07
-8.10554e-06
6.06527e-08
5.39807e-07
-9.37775e-06
7.13576e-08
7.15877e-07
-9.98686e-06
7.80408e-08
8.8574e-07
-1.02222e-05
8.19793e-08
1.04832e-06
-1.02399e-05
8.41456e-08
1.20205e-06
-1.0098e-05
8.52726e-08
1.34501e-06
-9.81465e-06
8.58383e-08
1.47528e-06
-9.39476e-06
8.61547e-08
1.59149e-06
-8.84195e-06
8.64181e-08
1.69307e-06
-8.16446e-06
8.67108e-08
1.78033e-06
-7.37708e-06
8.70269e-08
1.8542e-06
-6.49933e-06
8.72972e-08
1.91591e-06
-5.55232e-06
8.73892e-08
1.96653e-06
-4.55628e-06
8.71102e-08
2.00662e-06
-3.52949e-06
8.62187e-08
2.03588e-06
-2.48834e-06
8.44441e-08
2.05302e-06
-1.44803e-06
8.15143e-08
2.0558e-06
-4.23813e-07
7.72028e-08
2.04141e-06
5.67604e-07
7.13937e-08
2.00716e-06
1.51031e-06
6.41462e-08
1.95096e-06
2.3957e-06
5.57139e-08
1.87131e-06
3.22756e-06
4.64959e-08
1.76691e-06
4.02358e-06
3.69638e-08
1.63642e-06
4.81403e-06
2.76124e-08
1.47849e-06
5.63692e-06
1.89588e-08
1.29268e-06
6.52757e-06
1.156e-08
1.08125e-06
7.49801e-06
5.97642e-09
8.51624e-07
8.50159e-06
2.60883e-09
6.1776e-07
9.3881e-06
1.37438e-09
3.95201e-07
9.90264e-06
1.51459e-09
1.98234e-07
9.773e-06
1.9786e-09
5.62193e-08
8.28902e-06
1.93817e-09
4.12143e-06
1.10725e-09
5.63831e-08
-2.48127e-06
1.882e-08
1.8545e-07
-6.04203e-06
4.32838e-08
3.49945e-07
-8.32901e-06
5.88804e-08
5.23109e-07
-9.61978e-06
6.87768e-08
6.92604e-07
-1.02314e-05
7.49578e-08
8.55634e-07
-1.0464e-05
7.86922e-08
1.01122e-06
-1.04765e-05
8.08745e-08
1.15792e-06
-1.0327e-05
8.21667e-08
1.29391e-06
-1.00337e-05
8.30049e-08
1.41742e-06
-9.60202e-06
8.36813e-08
1.52722e-06
-9.03621e-06
8.43913e-08
1.62293e-06
-8.34546e-06
8.52236e-08
1.70506e-06
-7.54545e-06
8.61777e-08
1.77476e-06
-6.65629e-06
8.71899e-08
1.83347e-06
-5.69924e-06
8.81335e-08
1.88254e-06
-4.69423e-06
8.8819e-08
1.92272e-06
-3.65875e-06
8.89999e-08
1.95387e-06
-2.60795e-06
8.83852e-08
1.97467e-06
-1.55558e-06
8.6661e-08
1.98265e-06
-5.15424e-07
8.35318e-08
1.97447e-06
4.96893e-07
7.87885e-08
1.9467e-06
1.46559e-06
7.23917e-08
1.89654e-06
2.38124e-06
6.45193e-08
1.82195e-06
3.24653e-06
5.55362e-08
1.72141e-06
4.07813e-06
4.59173e-08
1.59366e-06
4.90555e-06
3.61801e-08
1.43778e-06
5.76594e-06
2.68616e-08
1.25403e-06
6.69286e-06
1.85236e-08
1.04556e-06
7.69491e-06
1.17274e-08
8.20647e-07
8.71985e-06
6.91639e-09
5.93527e-07
9.61144e-06
4.17334e-09
3.78953e-07
1.01147e-05
3.01074e-09
1.8997e-07
9.9598e-06
2.69573e-09
5.39446e-08
8.42302e-06
2.45279e-09
4.17404e-06
1.50355e-09
5.53181e-08
-2.55532e-06
1.86151e-08
1.81563e-07
-6.21048e-06
4.21156e-08
3.41852e-07
-8.546e-06
5.66273e-08
5.09815e-07
-9.85344e-06
6.56386e-08
6.73532e-07
-1.04665e-05
7.12735e-08
8.30417e-07
-1.06957e-05
7.47696e-08
9.79676e-07
-1.07028e-05
7.69336e-08
1.12e-06
-1.05457e-05
7.83566e-08
1.24966e-06
-1.02429e-05
7.94336e-08
1.36695e-06
-9.7998e-06
8.04377e-08
1.47073e-06
-9.2216e-06
8.15628e-08
1.56076e-06
-8.51846e-06
8.29036e-08
1.63773e-06
-7.70694e-06
8.44641e-08
1.703e-06
-6.8078e-06
8.61845e-08
1.75825e-06
-5.84251e-06
8.79424e-08
1.80508e-06
-4.83069e-06
8.95519e-08
1.84454e-06
-3.78905e-06
9.0765e-08
1.87671e-06
-2.73148e-06
9.12789e-08
1.90038e-06
-1.67008e-06
9.07496e-08
1.91294e-06
-6.16904e-07
8.88255e-08
1.91061e-06
4.13921e-07
8.5213e-08
1.88924e-06
1.4071e-06
7.97713e-08
1.84526e-06
2.35254e-06
7.2589e-08
1.77602e-06
3.25171e-06
6.39775e-08
1.67966e-06
4.12002e-06
5.44013e-08
1.55494e-06
4.98584e-06
4.4397e-08
1.4013e-06
5.88505e-06
3.45293e-08
1.21964e-06
6.8492e-06
2.53825e-08
1.01395e-06
7.88322e-06
1.75351e-08
7.93246e-07
8.92935e-06
1.14714e-08
5.72062e-07
9.82564e-06
7.37955e-09
3.64509e-07
1.03178e-05
4.96871e-09
1.82595e-07
1.01384e-05
3.78561e-09
5.18951e-08
8.55098e-06
3.16466e-09
4.22417e-06
1.93383e-09
5.41207e-08
-2.62783e-06
1.82736e-08
1.77601e-07
-6.37471e-06
4.06313e-08
3.34103e-07
-8.75655e-06
5.39557e-08
4.9763e-07
-1.00791e-05
6.20369e-08
6.56578e-07
-1.06926e-05
6.71174e-08
8.08615e-07
-1.09182e-05
7.0378e-08
9.52888e-07
-1.09196e-05
7.25201e-08
1.08804e-06
-1.0755e-05
7.40593e-08
1.21246e-06
-1.04427e-05
7.53502e-08
1.32449e-06
-9.98854e-06
7.66469e-08
1.42312e-06
-9.39844e-06
7.81412e-08
1.50824e-06
-8.68358e-06
7.99331e-08
1.58069e-06
-7.86148e-06
8.20312e-08
1.64198e-06
-6.95354e-06
8.4381e-08
1.69399e-06
-5.98146e-06
8.68683e-08
1.73854e-06
-4.96463e-06
8.93164e-08
1.77694e-06
-3.91902e-06
9.14845e-08
1.80953e-06
-2.85722e-06
9.30681e-08
1.83527e-06
-1.78962e-06
9.37051e-08
1.85155e-06
-7.2628e-07
9.29998e-08
1.85426e-06
3.20539e-07
9.05808e-08
1.83862e-06
1.33644e-06
8.62027e-08
1.80034e-06
2.31087e-06
7.98496e-08
1.73611e-06
3.2441e-06
7.17595e-08
1.64367e-06
4.15002e-06
6.23682e-08
1.52176e-06
5.05549e-06
5.22233e-08
1.37012e-06
5.99477e-06
4.19217e-08
1.19027e-06
6.99703e-06
3.20827e-08
9.86944e-07
8.06339e-06
2.3319e-08
7.69835e-07
9.13057e-06
1.61607e-08
5.53693e-07
1.00313e-05
1.08765e-08
3.5207e-07
1.05125e-05
7.31075e-09
1.76185e-07
1.03096e-05
5.23106e-09
5.00967e-08
8.67339e-06
4.09929e-09
4.27201e-06
2.41847e-09
5.3372e-08
-2.69911e-06
1.77996e-08
1.74781e-07
-6.53507e-06
3.88482e-08