/*--------------------------------*- C++ -*----------------------------------*\
| =========                 |                                                 |
| \\      /  F ield         | OpenFOAM: The Open Source CFD Toolbox           |
|  \\    /   O peration     | Version:  v2006                                 |
|   \\  /    A nd           | Website:  www.openfoam.com                      |
|    \\/     M anipulation  |                                                 |
\*---------------------------------------------------------------------------*/
FoamFile
{
    version     2.0;
    format      ascii;
    class       volVectorField;
    location    "77";
    object      U;
}
// * * * * * * * * * * * * * * * * * * * * * * * * * * * * * * * * * * * * * //

dimensions      [0 1 -1 0 0 0 0];


internalField   nonuniform List<vector> 
78750
(
(-0.00332299 -0.000213657 0.00339244)
(-0.00373061 -0.00329016 0.00597578)
(-0.00342401 -0.00539095 0.00693593)
(-0.00216262 -0.00702825 0.0072232)
(-0.000933315 -0.00832379 0.00725005)
(0.000662491 -0.00928791 0.00718455)
(0.00256952 -0.00994268 0.00708371)
(0.00465111 -0.0103053 0.00697262)
(0.00683105 -0.0104045 0.00686069)
(0.00904351 -0.0102766 0.00674941)
(0.0112298 -0.00995643 0.00663705)
(0.013339 -0.00947444 0.00652107)
(0.0153282 -0.00885599 0.00639897)
(0.0171614 -0.00812282 0.00626858)
(0.0188089 -0.007294 0.00612814)
(0.0202471 -0.00638695 0.00597624)
(0.021456 -0.00541177 0.00581435)
(0.0224212 -0.00438205 0.00564364)
(0.0231311 -0.0033137 0.00546526)
(0.0235781 -0.00222272 0.00528059)
(0.0237598 -0.00112437 0.00509139)
(0.0236786 -3.42439e-05 0.00489917)
(0.0233381 0.00103098 0.00470695)
(0.0227305 0.00205626 0.00451664)
(0.0218636 0.00302911 0.00433086)
(0.0207565 0.00393679 0.00415215)
(0.0194287 0.00476597 0.00398241)
(0.0178992 0.00550323 0.00382291)
(0.0161865 0.00612997 0.00367238)
(0.0143085 0.00664017 0.00352625)
(0.0122651 0.00711772 0.00337106)
(0.00998266 0.00789916 0.00316652)
(0.00725862 0.00947227 0.00281399)
(0.0040557 0.0110731 0.00214391)
(0.000999705 0.00817462 0.000997136)
(-0.000118143 0.000548725 0.00235286)
(9.08914e-05 -0.004948 0.00431288)
(0.000324607 -0.0103443 0.00512132)
(0.000855697 -0.0153103 0.00529882)
(0.00163574 -0.019486 0.00516224)
(0.00263076 -0.0227003 0.00490613)
(0.00380706 -0.0249502 0.00463535)
(0.00512701 -0.0263235 0.00439531)
(0.00654182 -0.0269325 0.00420041)
(0.00800069 -0.0268839 0.0040514)
(0.00945955 -0.0262743 0.00394147)
(0.0108816 -0.0251866 0.00386238)
(0.0122345 -0.0236927 0.00380569)
(0.0134897 -0.0218589 0.00376194)
(0.0146208 -0.0197492 0.0037208)
(0.0156022 -0.0174278 0.00367101)
(0.0164252 -0.0149355 0.00361321)
(0.0170807 -0.0122976 0.00355451)
(0.017551 -0.00955406 0.00349468)
(0.0178272 -0.00674777 0.00343201)
(0.0179044 -0.0039195 0.00336564)
(0.0177762 -0.0011085 0.00329578)
(0.0174521 0.00164653 0.00322513)
(0.0169453 0.00430758 0.00315552)
(0.0162615 0.00684146 0.0030894)
(0.0154056 0.00921958 0.00302954)
(0.0143826 0.0114202 0.00297776)
(0.0132078 0.0134343 0.00293315)
(0.0118881 0.0153084 0.00290122)
(0.0104038 0.0172034 0.00289109)
(0.00871473 0.0195102 0.00289371)
(0.00673681 0.0229071 0.00285116)
(0.00446122 0.0274254 0.00261828)
(0.00215156 0.0297592 0.00200757)
(0.000248062 0.0201182 0.000902749)
(4.06967e-05 -0.00181437 0.00165815)
(0.000636184 -0.00815696 0.00323637)
(0.00143478 -0.0143273 0.00399667)
(0.00246844 -0.0200428 0.00429479)
(0.00364267 -0.0249941 0.00433525)
(0.00487816 -0.028973 0.00424014)
(0.00611976 -0.0318994 0.0040835)
(0.0073358 -0.0338013 0.00391056)
(0.0085095 -0.0347681 0.003748)
(0.00963818 -0.0349094 0.0036113)
(0.010711 -0.034323 0.00350573)
(0.0117097 -0.0330933 0.00342972)
(0.0126266 -0.0312895 0.00338289)
(0.0134501 -0.0289775 0.00336282)
(0.0141646 -0.02623 0.00336354)
(0.0147571 -0.0231195 0.00337875)
(0.0152173 -0.019719 0.00340163)
(0.0155365 -0.0160941 0.00342654)
(0.0157094 -0.012304 0.00344893)
(0.0157329 -0.00840478 0.00346378)
(0.0156057 -0.0044513 0.00346588)
(0.015328 -0.000498952 0.00344986)
(0.0148998 0.00339589 0.00341061)
(0.0143218 0.00717367 0.0033449)
(0.0135999 0.0107781 0.00325324)
(0.0127424 0.0141661 0.00314134)
(0.011758 0.0173218 0.00302023)
(0.010654 0.0202788 0.00290459)
(0.00943308 0.0231633 0.00281089)
(0.00808159 0.0262618 0.00275021)
(0.0065563 0.0300816 0.00271069)
(0.00480307 0.0350534 0.00262382)
(0.00298414 0.0400548 0.00236169)
(0.00131818 0.040606 0.00177656)
(0.000125236 0.0252731 0.00078311)
(2.3853e-05 -0.00561708 0.00146234)
(0.000641378 -0.0167527 0.00286553)
(0.00160271 -0.0261278 0.00344688)
(0.00282162 -0.0336847 0.00358964)
(0.00414708 -0.0393348 0.00352409)
(0.00546661 -0.0431782 0.00337923)
(0.00671716 -0.0454764 0.00322132)
(0.00787674 -0.0465314 0.00307903)
(0.00894393 -0.0465928 0.00296162)
(0.00992047 -0.045839 0.00286346)
(0.0108068 -0.0443862 0.00278296)
(0.0116015 -0.0423119 0.00272156)
(0.0123019 -0.0396771 0.00267769)
(0.0129016 -0.0365386 0.00265115)
(0.0133944 -0.0329562 0.00264314)
(0.0137746 -0.0289942 0.00265612)
(0.014038 -0.0247189 0.00269353)
(0.0141822 -0.0201956 0.00275886)
(0.0142064 -0.0154854 0.00285415)
(0.0141113 -0.010644 0.00297992)
(0.0138982 -0.00572316 0.00313238)
(0.0135698 -0.000775343 0.0033015)
(0.0131255 0.00414036 0.00347098)
(0.0125614 0.00895811 0.00361794)
(0.0118798 0.0136035 0.00371813)
(0.011083 0.0180082 0.00375272)
(0.0101741 0.0221398 0.00371564)
(0.00915602 0.0260452 0.00361661)
(0.00802753 0.0299067 0.00347669)
(0.00677468 0.0340964 0.00331593)
(0.00536698 0.0391205 0.00313263)
(0.00378525 0.0450126 0.00288164)
(0.00227321 0.0497402 0.00249747)
(0.000967389 0.0484482 0.00185844)
(7.61031e-05 0.0286248 0.000827963)
(5.50997e-05 -0.00811403 0.000994427)
(0.000638534 -0.0223437 0.00185133)
(0.001511 -0.0334711 0.00212921)
(0.00254602 -0.0416891 0.00214272)
(0.00360904 -0.0472329 0.00205397)
(0.00462326 -0.05058 0.00193754)
(0.00556695 -0.052282 0.00182402)
(0.00644199 -0.0527686 0.00172128)
(0.00727057 -0.0523104 0.00163032)
(0.0080574 -0.0510525 0.00154607)
(0.00878267 -0.0491007 0.00145996)
(0.00944708 -0.0465105 0.00137096)
(0.0100454 -0.0433109 0.00128189)
(0.0105602 -0.0395607 0.00119415)
(0.0109796 -0.0353347 0.00111206)
(0.0112957 -0.0307205 0.00104301)
(0.0115042 -0.0258097 0.00099733)
(0.0116042 -0.0206884 0.000987815)
(0.0115984 -0.0154307 0.00102904)
(0.0114915 -0.0100948 0.00113554)
(0.0112886 -0.0047233 0.00131933)
(0.0109905 0.000652196 0.00158627)
(0.0106067 0.0059978 0.00193184)
(0.0101454 0.0112726 0.00233402)
(0.00960224 0.016426 0.00275478)
(0.00897227 0.0214062 0.00314564)
(0.00825032 0.0261926 0.00346022)
(0.00742955 0.0308513 0.00366758)
(0.00649892 0.0355963 0.00375605)
(0.00544089 0.0408065 0.00372291)
(0.00423606 0.0468324 0.00355757)
(0.00289955 0.0531929 0.00323735)
(0.00168887 0.0572709 0.00276199)
(0.00068488 0.0542178 0.00203585)
(3.3323e-05 0.0308344 0.000874314)
(4.25528e-05 -0.0106728 0.000693284)
(0.000525412 -0.0281146 0.00130995)
(0.00124486 -0.0410041 0.00155654)
(0.0020935 -0.0498928 0.00163347)
(0.00295915 -0.0554051 0.00162845)
(0.00378478 -0.0584138 0.00158452)
(0.00456383 -0.0597172 0.00152426)
(0.00530891 -0.0598198 0.0014545)
(0.00602698 -0.0589764 0.00137396)
(0.00671161 -0.0573079 0.0012844)
(0.0073556 -0.0548754 0.00118386)
(0.00795148 -0.0517107 0.00106861)
(0.00848376 -0.0478589 0.000937916)
(0.00894014 -0.0433899 0.000792876)
(0.00930907 -0.0384038 0.000636627)
(0.0095817 -0.0330164 0.000475043)
(0.00975539 -0.0273496 0.000317243)
(0.00983119 -0.0215181 0.000176066)
(0.00981308 -0.0156194 6.78804e-05)
(0.00970752 -0.00972791 1.27179e-05)
(0.00952251 -0.00389321 3.32549e-05)
(0.00926581 0.00185594 0.000151879)
(0.00894244 0.00750625 0.000385809)
(0.00855649 0.0130473 0.000740022)
(0.00810901 0.0184699 0.0011998)
(0.00759556 0.0237722 0.00172768)
(0.00700626 0.0289862 0.0022687)
(0.00632643 0.0342264 0.002763)
(0.00553772 0.0397377 0.00315577)
(0.00462125 0.0458642 0.00339513)
(0.00356722 0.0527377 0.00342594)
(0.00241833 0.0593903 0.00320583)
(0.00140351 0.0629067 0.00275158)
(0.000569109 0.0584349 0.00200564)
(3.32495e-05 0.0323605 0.000806377)
(4.84661e-05 -0.0125202 0.000451432)
(0.000457276 -0.0321306 0.000873629)
(0.00105295 -0.046095 0.00107515)
(0.00174673 -0.0553144 0.00116581)
(0.00245043 -0.0607354 0.00118943)
(0.00312335 -0.0635112 0.0011742)
(0.00376705 -0.0645677 0.00113807)
(0.00439246 -0.0644186 0.00108718)
(0.00499931 -0.0632971 0.00102298)
(0.00558165 -0.0613008 0.000945439)
(0.00613271 -0.0584649 0.000852669)
(0.00664144 -0.0548124 0.000744129)
(0.00709591 -0.0503894 0.000619418)
(0.00748393 -0.0452837 0.000478748)
(0.00779548 -0.0396209 0.000323638)
(0.00802458 -0.0335506 0.00015747)
(0.00816848 -0.0272274 -1.38871e-05)
(0.00822778 -0.0207953 -0.000181306)
(0.00820619 -0.014375 -0.000331655)
(0.00810994 -0.00805625 -0.000447749)
(0.00794675 -0.00189464 -0.00050858)
(0.00772603 0.00408444 -0.000490682)
(0.00745672 0.00988002 -0.000371153)
(0.00714357 0.0155117 -0.000132665)
(0.00678663 0.0210156 0.000229991)
(0.00637961 0.0264474 0.000703647)
(0.0059088 0.0319027 0.00125454)
(0.00535459 0.0375522 0.0018312)
(0.00469489 0.0436613 0.00236788)
(0.00391137 0.0505021 0.00278292)
(0.00300103 0.0579577 0.00298106)
(0.00202586 0.0646579 0.00288678)
(0.00117156 0.067617 0.0025037)
(0.000469044 0.0618781 0.00180209)
(2.60501e-05 0.0336268 0.000679755)
(3.22572e-05 -0.0141545 0.000319477)
(0.000351403 -0.0358005 0.000685992)
(0.000834292 -0.0508894 0.000926238)
(0.00141502 -0.0605835 0.00107774)
(0.00201672 -0.0660777 0.00115358)
(0.00260206 -0.0687622 0.00117648)
(0.00317252 -0.0696769 0.00116671)
(0.00373455 -0.0693515 0.00113321)
(0.00428434 -0.0680059 0.00107929)
(0.00481465 -0.0657188 0.00100553)
(0.00531698 -0.0625103 0.000912116)
(0.00578122 -0.0583963 0.000798697)
(0.00619635 -0.0534273 0.000664607)
(0.00655271 -0.0477063 0.00050941)
(0.00684273 -0.0413813 0.000333476)
(0.00706092 -0.0346267 0.000138527)
(0.00720399 -0.0276249 -7.1413e-05)
(0.00727107 -0.0205486 -0.000288785)
(0.0072639 -0.0135468 -0.000501607)
(0.00718723 -0.00673484 -0.000692664)
(0.00704878 -0.000189856 -0.000839736)
(0.00685714 0.00605244 -0.000917117)
(0.00662105 0.0119995 -0.00089857)
(0.0063479 0.0177012 -0.000761716)
(0.00603946 0.0232443 -0.000493161)
(0.00568943 0.0287505 -9.34521e-05)
(0.00528418 0.0343854 0.000419043)
(0.0048036 0.0403767 0.00100524)
(0.00422408 0.0470036 0.00160188)
(0.00352777 0.0544561 0.00211612)
(0.00271378 0.0623889 0.00243012)
(0.00185068 0.0691243 0.00244346)
(0.00108807 0.0716698 0.0021448)
(0.000446764 0.0648841 0.00152397)
(3.34055e-05 0.0348064 0.000542237)
(3.32943e-05 -0.0154035 0.000254991)
(0.000318825 -0.0386358 0.000609497)
(0.000753422 -0.054635 0.00087341)
(0.0012764 -0.0647494 0.00104964)
(0.00181744 -0.0703551 0.00114353)
(0.0023439 -0.0730167 0.00117892)
(0.00285856 -0.0738527 0.00117787)
(0.00336628 -0.0734032 0.00115125)
(0.00386189 -0.0718798 0.00110382)
(0.00433813 -0.0693491 0.00103803)
(0.00478736 -0.0658213 0.000955103)
(0.00520072 -0.0613094 0.000855275)
(0.00556915 -0.0558714 0.000737975)
(0.00588501 -0.0496239 0.000602196)
(0.00614231 -0.0427312 0.0004469)
(0.00633739 -0.0353831 0.000271471)
(0.00646832 -0.027781 7.62552e-05)
(0.00653359 -0.0201172 -0.000136294)
(0.00653361 -0.0125621 -0.000359928)
(0.00647114 -0.00525417 -0.000582922)
(0.0063515 0.00170525 -0.000786872)
(0.00618233 0.00825913 -0.000946865)
(0.00597244 0.0144081 -0.00103371)
(0.00572907 0.0202176 -0.00101831)
(0.00545484 0.0258131 -0.000876979)
(0.0051449 0.0313742 -0.000596676)
(0.00478587 0.0371347 -0.000180168)
(0.00435821 0.0433789 0.000347731)
(0.00384048 0.0504004 0.000931386)
(0.00321544 0.0583161 0.00147586)
(0.00248128 0.0665892 0.0018523)
(0.00170678 0.0733129 0.00194438)
(0.00101357 0.0755021 0.00172952)
(0.000419101 0.0677746 0.00121174)
(3.18468e-05 0.0360133 0.000406355)
(2.43984e-05 -0.0165939 0.000237425)
(0.00027411 -0.0414206 0.000611118)
(0.000666864 -0.0583796 0.000907138)
(0.00114826 -0.0689625 0.00111179)
(0.00165057 -0.0747142 0.00122648)
(0.00214211 -0.0773738 0.0012765)
(0.00262537 -0.0781418 0.00128589)
(0.00310344 -0.0775738 0.0012669)
(0.00356965 -0.075877 0.00122514)
(0.00401621 -0.0731093 0.00116355)
(0.0044355 -0.0692742 0.00108368)
(0.00481921 -0.0643844 0.000986023)
(0.00515947 -0.0585049 0.000870186)
(0.00545014 -0.0517642 0.000735343)
(0.0056869 -0.0443401 0.000580713)
(0.00586663 -0.0364378 0.000406049)
(0.00598776 -0.02827 0.00021206)
(0.00604981 -0.0200443 8.13756e-07)
(0.00605298 -0.0119494 -0.00022333)
(0.00599871 -0.00414362 -0.000452298)
(0.00589096 0.00324917 -0.000672754)
(0.00573592 0.010152 -0.000865327)
(0.00554135 0.0165571 -0.0010053)
(0.00531427 0.0225387 -0.00106512)
(0.00505799 0.0282503 -0.00101828)
(0.00476941 0.0339168 -0.000843702)
(0.00443729 0.039827 -0.00053154)
(0.0040431 0.0463155 -9.18344e-05)
(0.00356689 0.053688 0.000432652)
(0.00299316 0.0620005 0.000954191)
(0.0023181 0.0705608 0.0013446)
(0.00160766 0.0772837 0.00148217)
(0.000962674 0.0791728 0.0013381)
(0.0003998 0.07058 0.0009256)
(3.09983e-05 0.0372124 0.000293688)
(2.55096e-05 -0.017638 0.00024331)
(0.000265088 -0.0438939 0.000650116)
(0.000639585 -0.0617319 0.000971768)
(0.00109517 -0.0727614 0.00119045)
(0.00156689 -0.0786738 0.0013118)
(0.00202628 -0.0813575 0.00136557)
(0.00247713 -0.0820823 0.00137784)
(0.00292226 -0.0814178 0.00136204)
(0.00335493 -0.0795688 0.00132472)
(0.00376771 -0.0765876 0.00126958)
(0.00415345 -0.0724741 0.00119876)
(0.00450455 -0.0672435 0.00111296)
(0.00481413 -0.0609692 0.00101146)
(0.00507723 -0.0537912 0.000892545)
(0.00529075 -0.0458985 0.000754065)
(0.00545282 -0.037506 0.00059414)
(0.00556222 -0.0288356 0.00041181)
(0.00561838 -0.0201026 0.00020771)
(0.00562188 -0.0115051 -1.52181e-05)
(0.00557417 -0.00321817 -0.000250597)
(0.00547761 0.00461333 -0.000487206)
(0.00533653 0.0118914 -0.000707977)
(0.00515702 0.0185959 -0.000890524)
(0.00494499 0.0248026 -0.00100911)
(0.00470377 0.0306835 -0.00103735)
(0.00443159 0.0364976 -0.000951262)
(0.00411971 0.0425777 -0.000734117)
(0.00375255 0.0492989 -0.000385547)
(0.00331117 0.0569808 6.36968e-05)
(0.00278058 0.0656284 0.000536979)
(0.00215671 0.074423 0.000913781)
(0.00150228 0.0811336 0.00107466)
(0.000901577 0.0827377 0.000988437)
(0.000371914 0.0733092 0.000674751)
(2.73002e-05 0.0383799 0.000200414)
(2.17168e-05 -0.0186802 0.000261573)
(0.000247699 -0.0463775 0.000699173)
(0.000603658 -0.0650934 0.00103815)
(0.0010377 -0.0765537 0.00126492)
(0.00148607 -0.0826087 0.00139013)
(0.00192179 -0.0853029 0.00144667)
(0.0023491 -0.0859746 0.00146161)
(0.0027702 -0.0852068 0.00144888)
(0.00317798 -0.083202 0.00141536)
(0.00356515 -0.0800077 0.00136513)
(0.0039249 -0.0756215 0.0013006)
(0.00425024 -0.0700624 0.00122263)
(0.0045352 -0.063413 0.00113043)
(0.00477579 -0.0558248 0.00102201)
(0.00496977 -0.0474977 0.000894847)
(0.00511608 -0.0386556 0.00074664)
(0.00521427 -0.0295275 0.000576)
(0.00526418 -0.0203353 0.000383034)
(0.00526582 -0.0112839 0.000169854)
(0.00522047 -0.00255616 -5.86923e-05)
(0.00513082 0.00568794 -0.000294036)
(0.00499983 0.0133349 -0.000522569)
(0.00483197 0.0203544 -0.000725559)
(0.00463179 0.0268217 -0.000880265)
(0.00440204 0.0329204 -0.000961778)
(0.00414154 0.0389336 -0.000945303)
(0.00384341 0.0452261 -0.000810149)
(0.00349496 0.052203 -0.0005484)
(0.00308006 0.0601907 -0.000180075)
(0.00258437 0.0691499 0.000230689)
(0.00200325 0.0781509 0.000575351)
(0.00139752 0.0848386 0.000741845)
(0.000837883 0.0861588 0.00069916)
(0.000342046 0.075912 0.000470666)
(2.37112e-05 0.0394791 0.000128648)
(2.18333e-05 -0.0196713 0.000284564)
(0.000241499 -0.0487406 0.000756219)
(0.000583463 -0.0682897 0.001111)
(0.000996555 -0.0801601 0.0013416)
(0.00141984 -0.0863566 0.00146614)
(0.00182927 -0.089069 0.00152191)
(0.00223006 -0.0896968 0.00153731)
(0.00262416 -0.088835 0.00152677)
(0.00300459 -0.0866849 0.00149768)
(0.00336442 -0.083291 0.00145465)
(0.00369732 -0.078651 0.00140053)
(0.00399702 -0.0727894 0.00133626)
(0.00425846 -0.0657983 0.00126058)
(0.00447853 -0.0578396 0.00117036)
(0.00465571 -0.0491217 0.00106143)
(0.00478942 -0.0398746 0.000929579)
(0.00487958 -0.030332 0.000771707)
(0.00492626 -0.0207193 0.000586844)
(0.00492971 -0.0112467 0.000376853)
(0.00489023 -0.00210457 0.000146928)
(0.00480921 0.00653619 -9.39776e-05)
(0.00468942 0.014549 -0.000332893)
(0.00453433 0.0218947 -0.000553041)
(0.00434715 0.0286471 -0.000734426)
(0.00412976 0.0349978 -0.000854721)
(0.00388097 0.0412475 -0.000890628)
(0.00359514 0.0477848 -0.000820739)
(0.00326202 0.0550352 -0.000633088)
(0.00286843 0.063326 -0.000339568)
(0.0024013 0.0725755 7.58124e-06)
(0.00185685 0.0817541 0.000313404)
(0.00129504 0.0883995 0.000475854)
(0.000774567 0.0894283 0.000465615)
(0.000312647 0.0783772 0.000308073)
(2.05675e-05 0.0405045 7.3723e-05)
(1.98407e-05 -0.020654 0.000307769)
(0.000230611 -0.0510733 0.000803346)
(0.000557762 -0.0714243 0.0011627)
(0.000951745 -0.0836717 0.00138911)
(0.0013534 -0.0899853 0.00150848)
(0.00174054 -0.0927018 0.00156112)
(0.00211877 -0.0932781 0.00157557)
(0.00248967 -0.0923187 0.00156622)
(0.00284628 -0.0900235 0.00154069)
(0.00318206 -0.0864343 0.00150403)
(0.0034912 -0.0815506 0.00145955)
(0.00376824 -0.0754033 0.00140849)
(0.00400902 -0.0680948 0.00134959)
(0.00421126 -0.0597968 0.00127928)
(0.00437405 -0.0507254 0.0011924)
(0.00449722 -0.0411154 0.00108326)
(0.00458085 -0.0312029 0.000946883)
(0.00462508 -0.0212154 0.000780244)
(0.00463003 -0.0113652 0.000583442)
(0.00459584 -0.00184757 0.000360515)
(0.00452313 0.00715803 0.000119886)
(0.00441321 0.0155163 -0.000125642)
(0.00426895 0.0231823 -0.000359575)
(0.00409324 0.0302288 -0.000562988)
(0.00388694 0.036854 -0.000715095)
(0.00364849 0.0433717 -0.000793966)
(0.00337292 0.050187 -0.000778535)
(0.00305186 0.0577376 -0.000654867)
(0.00267496 0.0663431 -0.00042912)
(0.00223194 0.0758754 -0.000143338)
(0.00172007 0.0852113 0.000120812)
(0.00119774 0.0917953 0.000272479)
(0.000714021 0.0925236 0.000284887)
(0.000285052 0.0806861 0.000184038)
(1.79379e-05 0.0414506 3.40594e-05)
(1.89844e-05 -0.0216104 0.000330982)
(0.000222633 -0.0533367 0.000850307)
(0.000536024 -0.0744573 0.00121388)
(0.000910877 -0.0870634 0.00143535)
(0.00129045 -0.0934893 0.00154871)
(0.00165487 -0.0962118 0.00159758)
(0.0020103 -0.0967405 0.00161081)
(0.00235804 -0.095689 0.00160285)
(0.00269133 -0.0932564 0.00158163)
(0.00300402 -0.0894843 0.00155267)
(0.00329088 -0.084375 0.00151973)
(0.00354719 -0.0779672 0.00148425)
(0.00376966 -0.0703727 0.00144472)
(0.00395679 -0.0617715 0.00139682)
(0.00410821 -0.0523849 0.00133409)
(0.00422412 -0.0424499 0.00124911)
(0.00430468 -0.0322028 0.00113491)
(0.00434989 -0.0218709 0.000986451)
(0.00435947 -0.0116676 0.000802187)
(0.00433303 -0.00179214 0.000585137)
(0.00427056 0.00756819 0.00034349)
(0.00417278 0.0162689 9.03402e-05)
(0.00404101 0.0242599 -0.000157583)
(0.00387691 0.0316138 -0.000381406)
(0.00368124 0.0385335 -0.000561169)
(0.00345234 0.0453435 -0.00067621)
(0.00318566 0.0524609 -0.000706375)
(0.00287429 0.0603292 -0.000637048)
(0.00251033 0.0692541 -0.00047048)
(0.00208639 0.079058 -0.000240342)
(0.00160156 0.0885289 -1.6287e-05)
(0.0011132 0.0950329 0.000121698)
(0.000662003 0.0954553 0.000149573)
(0.000262229 0.0828551 9.29378e-05)
(1.62823e-05 0.0423302 7.02621e-06)
(1.75709e-05 -0.022548 0.000350221)
(0.000213538 -0.0555417 0.000881585)
(0.000513712 -0.0773922 0.00123866)
(0.000871146 -0.0903241 0.00144776)
(0.00123102 -0.0968418 0.00155085)
(0.00157529 -0.0995602 0.00159348)
(0.00191041 -0.100037 0.00160384)
(0.0022374 -0.0988929 0.00159596)
(0.00254966 -0.096326 0.00157795)
(0.0028415 -0.0923782 0.00155576)
(0.00310823 -0.0870564 0.00153372)
(0.00334587 -0.0804081 0.00151375)
(0.00355195 -0.0725546 0.00149459)
(0.0037256 -0.0636841 0.0014717)
(0.00386702 -0.0540218 0.0014379)
(0.00397672 -0.0438052 0.00138427)
(0.00405501 -0.0332688 0.0013016)
(0.00410178 -0.0226368 0.00118206)
(0.0041164 -0.0121208 0.0010211)
(0.00409788 -0.00192107 0.000819225)
(0.00404539 0.00776937 0.000583175)
(0.00395882 0.0167981 0.000326002)
(0.00383877 0.0251095 6.53645e-05)
(0.00368592 0.0327758 -0.000178806)
(0.00350017 0.0400048 -0.000385911)
(0.00327989 0.0471285 -0.000535313)
(0.00302112 0.0545723 -0.000607275)
(0.00271804 0.0627795 -0.000586841)
(0.00236483 0.0720353 -0.000473506)
(0.00195673 0.0821081 -0.000294238)
(0.00149521 0.091699 -0.000108299)
(0.00103682 0.0981091 1.42069e-05)
(0.000614919 0.0982232 5.17474e-05)
(0.000241762 0.0848872 2.87429e-05)
(1.47832e-05 0.0431477 -9.81702e-06)
(1.65216e-05 -0.0234645 0.000367775)
(0.000205582 -0.0576902 0.000909483)
(0.000493436 -0.0802432 0.0012601)
(0.000834561 -0.0934841 0.00145753)
(0.00117615 -0.100087 0.00155095)
(0.00150189 -0.102801 0.00158769)
(0.00181845 -0.103228 0.00159537)
(0.00212655 -0.101996 0.00158773)
(0.00241978 -0.0993017 0.001573)
(0.00269288 -0.0951901 0.00155754)
(0.00294168 -0.0896734 0.00154611)
(0.00316289 -0.0828079 0.00154096)
(0.00335475 -0.074724 0.00154095)
(0.00351704 -0.0656161 0.00154142)
(0.00365045 -0.0557123 0.00153466)
(0.00375583 -0.0452487 0.00151082)
(0.00383368 -0.0344556 0.00145909)
(0.0038838 -0.0235523 0.00136944)
(0.00390517 -0.0127463 0.00123459)
(0.00389611 -0.00223767 0.00105219)
(0.00385482 0.00777626 0.00082667)
(0.00378009 0.0171348 0.000570002)
(0.00367155 0.0257751 0.000300119)
(0.00352922 0.0337668 3.80331e-05)
(0.00335265 0.0413208 -0.00019455)
(0.00313981 0.0487762 -0.000376335)
(0.00288717 0.0565635 -0.000487209)
(0.00259024 0.065122 -0.000511582)
(0.00224499 0.0747118 -0.000446603)
(0.00184913 0.0850445 -0.000313686)
(0.00140692 0.0947374 -0.000163283)
(0.000973954 0.101041 -5.69436e-05)
(0.00057681 0.100848 -1.41717e-05)
(0.000225813 0.0868043 -1.24563e-05)
(1.4018e-05 0.0439151 -1.79372e-05)
(1.55617e-05 -0.0243598 0.00038014)
(0.000198379 -0.059776 0.000921474)
(0.000475368 -0.0829942 0.00125692)
(0.000802057 -0.0965151 0.00143691)
(0.00112733 -0.103187 0.00151739)
(0.00143645 -0.105889 0.00154631)
(0.00173627 -0.106263 0.00154996)
(0.00202728 -0.104942 0.00154142)
(0.00230328 -0.102125 0.00152898)
(0.00255939 -0.0978567 0.00151937)
(0.00279195 -0.0921578 0.00151786)
(0.00299823 -0.0850935 0.00152724)
(0.00317704 -0.076804 0.00154679)
(0.00332869 -0.0674901 0.00157203)
(0.00345434 -0.057382 0.00159505)
(0.00355525 -0.0467134 0.00160522)
(0.00363218 -0.0357084 0.00159017)
(0.003685 -0.0245782 0.00153745)
(0.00371252 -0.0135231 0.00143662)
(0.00371248 -0.00273894 0.00128181)
(0.00368216 0.00757585 0.00107431)
(0.00361919 0.0172537 0.000824179)
(0.00352207 0.0262236 0.000549198)
(0.00339 0.0345506 0.000271575)
(0.00322212 0.0424458 1.47232e-05)
(0.00301656 0.050252 -0.000198593)
(0.00277003 0.0584026 -0.000347243)
(0.00247878 0.0673291 -0.000414453)
(0.00214048 0.077262 -0.000394982)
(0.00175511 0.0878531 -0.000305388)
(0.00132945 0.0976382 -0.000188616)
(0.000918416 0.10383 -9.89507e-05)
(0.000542958 0.103335 -5.46017e-05)
(0.000211536 0.0886133 -3.56327e-05)
(1.31938e-05 0.044637 -1.95784e-05)
(1.45505e-05 -0.0252361 0.000389979)
(0.000191552 -0.0618102 0.000928507)
(0.000458759 -0.0856674 0.00124888)
(0.0007726 -0.099451 0.00141251)
(0.00108347 -0.106184 0.00148099)
(0.00137802 -0.108871 0.00150261)
(0.00166325 -0.109194 0.00150239)
(0.0019394 -0.107787 0.00149284)
(0.00220045 -0.104853 0.00148223)
(0.00244187 -0.100438 0.00147755)
(0.00266038 -0.0945715 0.0014844)
(0.00285376 -0.0873271 0.00150596)
(0.00302135 -0.0788542 0.0015419)
(0.00316391 -0.0693595 0.00158811)
(0.00328303 -0.0590747 0.0016369)
(0.00338039 -0.0482304 0.00167753)
(0.00345705 -0.0370434 0.00169696)
(0.00351303 -0.0257153 0.00168111)
(0.00354699 -0.0144367 0.00161688)
(0.00355619 -0.00339647 0.0014948)
(0.00353695 0.00720832 0.00131217)
(0.00348571 0.0172041 0.0010759)
(0.00339973 0.0265105 0.00080232)
(0.0032773 0.0351853 0.000514071)
(0.00311711 0.0434373 0.000236196)
(0.00291732 0.0516105 -6.60249e-06)
(0.0026752 0.060138 -0.000191439)
(0.00238804 0.0694408 -0.00029976)
(0.00205492 0.0797176 -0.000323656)
(0.00167769 0.0905595 -0.000275086)
(0.00126542 0.100424 -0.000190375)
(0.000872588 0.106497 -0.000117681)
(0.000515302 0.105705 -7.4702e-05)
(0.000200144 0.0903315 -4.46463e-05)
(1.27751e-05 0.0453207 -1.63088e-05)
(1.39466e-05 -0.0260932 0.000394776)
(0.000186295 -0.0637886 0.00092185)
(0.000445398 -0.0882526 0.00122077)
(0.000748166 -0.102274 0.00136402)
(0.00104629 -0.109054 0.0014183)
(0.00132778 -0.11172 0.00143132)
(0.00159983 -0.111988 0.00142632)
(0.00186249 -0.110497 0.001415)
(0.00210995 -0.107448 0.00140554)
(0.00233797 -0.102894 0.00140514)
(0.0025436 -0.0968692 0.00141979)
(0.002725 -0.0894598 0.00145311)
(0.00288189 -0.0808237 0.00150526)
(0.00301544 -0.0711742 0.00157258)
(0.00312767 -0.0607444 0.00164768)
(0.00322069 -0.0497614 0.00171979)
(0.00329597 -0.0384335 0.00177535)
(0.00335383 -0.0269501 0.00179898)
(0.00339301 -0.0154889 0.00177521)
(0.00341046 -0.0042274 0.00169109)
(0.00340172 0.00664307 0.00153974)
(0.00336203 0.0169457 0.00132414)
(0.00328735 0.02659 0.00105826)
(0.00317489 0.0356243 0.00076444)
(0.00302273 0.0442509 0.000469061)
(0.00282897 0.0528114 0.000198959)
(0.00259134 0.0617349 -2.07182e-05)
(0.00230809 0.0714287 -0.000169044)
(0.0019797 0.0820566 -0.000235043)
(0.00160974 0.0931479 -0.000226127)
(0.00120938 0.103086 -0.000172619)
(0.000832513 0.10904 -0.000117449)
(0.0004911 0.10796 -7.85186e-05)
(0.000190142 0.0919635 -4.26618e-05)
(1.23943e-05 0.0459688 -9.48471e-06)
(1.31605e-05 -0.0269327 0.000396677)
(0.000180976 -0.0657183 0.000909502)
(0.00043278 -0.0907632 0.00118683)
(0.000725985 -0.105004 0.00131062)
(0.00101323 -0.111821 0.00135151)
(0.00128361 -0.114462 0.00135633)
(0.00154443 -0.114674 0.00134658)
(0.00179558 -0.1131 0.00133317)
(0.00203144 -0.109941 0.00132412)
(0.00224805 -0.105255 0.00132671)
(0.0024427 -0.0990829 0.00134716)
(0.00261384 -0.091521 0.00138946)
(0.00276151 -0.082737 0.00145427)
(0.00288727 -0.0729502 0.00153852)
(0.00299347 -0.0623958 0.00163544)
(0.00308262 -0.0512973 0.00173481)
(0.00315661 -0.0398545 0.0018232)
(0.00321607 -0.028244 0.00188465)
(0.00325987 -0.0166284 0.00190199)
(0.00328482 -0.00517114 0.00185915)
(0.00328577 0.00594614 0.00174485)
(0.00325692 0.016546 0.00155731)
(0.0031929 0.0265285 0.00130687)
(0.00308981 0.0359303 0.00101438)
(0.00294507 0.0449447 0.000706864)
(0.00275666 0.0539069 0.000413171)
(0.00252275 0.0632389 0.000161035)
(0.00224253 0.0733309 -2.57227e-05)
(0.00191779 0.08431 -0.000132585)
(0.00155364 0.0956439 -0.000162266)
(0.00116305 0.105646 -0.000139395)
(0.000799351 0.111479 -0.000102308)
(0.000471029 0.110118 -6.9696e-05)
(0.000181866 0.0935203 -3.2359e-05)
(1.21903e-05 0.0465852 -1.00377e-07)
(1.28655e-05 -0.0277564 0.000394256)
(0.000177421 -0.0676016 0.000886418)
(0.000423527 -0.0932004 0.00113784)
(0.000708721 -0.10764 0.00123969)
(0.00098648 -0.11448 0.00126595)
(0.00124696 -0.11709 0.00126186)
(0.00149767 -0.117245 0.00124685)
(0.00173841 -0.115588 0.00123091)
(0.00196376 -0.112322 0.00122183)
(0.00216994 -0.107508 0.00122696)
(0.00235438 -0.101197 0.00125274)
(0.00251575 -0.0934943 0.00130355)
(0.00265437 -0.0845779 0.0013805)
(0.00277209 -0.0746743 0.00148104)
(0.00287166 -0.0640206 0.00159896)
(0.00295598 -0.0528368 0.00172454)
(0.00302742 -0.0413136 0.00184468)
(0.00308704 -0.0296135 0.00194323)
(0.00313404 -0.0178816 0.00200188)
(0.00316526 -0.00626338 0.00200208)
(0.00317508 0.00507395 0.00192857)
(0.0031567 0.0159562 0.00177458)
(0.00310343 0.0262746 0.00154604)
(0.00301012 0.0360528 0.00126126)
(0.00287334 0.0454712 0.000947044)
(0.00269081 0.0548545 0.000633834)
(0.00246104 0.0646133 0.000352)
(0.00218407 0.0751175 0.000128587)
(0.0018629 0.086455 -1.79661e-05)
(0.00150401 0.0980321 -8.5458e-05)
(0.00112208 0.108096 -9.29457e-05)
(0.000769959 0.113811 -7.46011e-05)
(0.000453167 0.112178 -5.04205e-05)
(0.000174453 0.0950062 -1.5404e-05)
(1.19828e-05 0.0471725 1.11523e-05)
(1.23893e-05 -0.0285636 0.000389)
(0.000173566 -0.0694372 0.000857498)
(0.000414319 -0.0955634 0.00108238)
(0.000692532 -0.110182 0.00116285)
(0.000962353 -0.117035 0.00117518)
(0.00121487 -0.119607 0.00116256)
(0.00145764 -0.119702 0.00114221)
(0.0016901 -0.117964 0.00112322)
(0.00190684 -0.114594 0.00111314)
(0.0021043 -0.109657 0.00111937)
(0.00228007 -0.103212 0.00114853)
(0.00243304 -0.0953753 0.0012053)
(0.00256377 -0.0863357 0.00129124)
(0.00267438 -0.0763264 0.0014044)
(0.00276789 -0.0655873 0.00153936)
(0.00284754 -0.0543357 0.00168722)
(0.00291611 -0.0427539 0.00183561)
(0.00297511 -0.0309903 0.00196869)
(0.00302413 -0.0191714 0.00206762)
(0.00306018 -0.0074221 0.00211192)
(0.00307743 0.00410899 0.00208263)
(0.00306828 0.0152551 0.0019678)
(0.00302481 0.025901 0.00176813)
(0.00294062 0.0360569 0.00149829)
(0.00281133 0.0458879 0.00118384)
(0.0026343 0.0557042 0.000856251)
(0.00240831 0.065901 0.000548415)
(0.00213418 0.0768242 0.00029082)
(0.00181604 0.0885208 0.000106159)
(0.0014616 0.100336 1.78338e-06)
(0.00108705 0.110454 -3.57955e-05)
(0.000744759 0.11605 -3.68296e-05)
(0.000437737 0.114154 -2.29376e-05)
(0.000167977 0.0964277 6.50521e-06)
(1.18149e-05 0.0477329 2.35461e-05)
(1.22904e-05 -0.0293573 0.000380215)
(0.000170979 -0.0712326 0.000820264)
(0.000407532 -0.0978631 0.00101574)
(0.000679937 -0.112643 0.0010734)
(0.000943033 -0.1195 0.00107126)
(0.0011889 -0.122033 0.00104989)
(0.00142508 -0.122066 0.00102403)
(0.00165044 -0.120244 0.00100175)
(0.00185954 -0.116772 0.000990414)
(0.002049 -0.111714 0.000997479)
(0.00221668 -0.10514 0.0010297)
(0.00236166 -0.0971774 0.00109196)
(0.00248469 -0.0880261 0.00118615)
(0.00258807 -0.0779262 0.00131082)
(0.00267511 -0.0671204 0.00146117)
(0.00274938 -0.0558236 0.00162912)
(0.00281407 -0.0442098 0.00180314)
(0.00287121 -0.0324134 0.00196809)
(0.00292088 -0.0205409 0.00210521)
(0.00296044 -0.00869396 0.00219288)
(0.00298404 0.00300163 0.00220915)
(0.00298349 0.0143913 0.00213714)
(0.00294969 0.0253562 0.00197186)
(0.00287491 0.0358929 0.00172337)
(0.00275364 0.0461485 0.00141493)
(0.0025827 0.0564146 0.00107825)
(0.00236097 0.0670663 0.000748414)
(0.00208999 0.0784219 0.000459384)