/*--------------------------------*- C++ -*----------------------------------*\
| =========                 |                                                 |
| \\      /  F ield         | OpenFOAM: The Open Source CFD Toolbox           |
|  \\    /   O peration     | Version:  v2006                                 |
|   \\  /    A nd           | Website:  www.openfoam.com                      |
|    \\/     M anipulation  |                                                 |
\*---------------------------------------------------------------------------*/
FoamFile
{
    version     2.0;
    format      ascii;
    class       volScalarField;
    location    "58";
    object      k;
}
// * * * * * * * * * * * * * * * * * * * * * * * * * * * * * * * * * * * * * //

dimensions      [0 2 -2 0 0 0 0];


internalField   nonuniform List<scalar> 
78750
(
1.0155e-06
6.63627e-06
1.16063e-05
1.5954e-05
1.98071e-05
2.3217e-05
2.61808e-05
2.87022e-05
3.07906e-05
3.24559e-05
3.37107e-05
3.45696e-05
3.50493e-05
3.51678e-05
3.49445e-05
3.44002e-05
3.35584e-05
3.24466e-05
3.10979e-05
2.95526e-05
2.78574e-05
2.60231e-05
2.40988e-05
2.21165e-05
2.01023e-05
1.80755e-05
1.60503e-05
1.40406e-05
1.20643e-05
1.01458e-05
8.3081e-06
6.55118e-06
4.83282e-06
3.17632e-06
1.9814e-06
1.33055e-06
1.33284e-05
2.46627e-05
3.55545e-05
4.55784e-05
5.42652e-05
6.15616e-05
6.7586e-05
7.23781e-05
7.5961e-05
7.83725e-05
7.96631e-05
7.98916e-05
7.91224e-05
7.74234e-05
7.48664e-05
7.15273e-05
6.74994e-05
6.29e-05
5.78685e-05
5.25561e-05
4.7121e-05
4.1741e-05
3.65573e-05
3.16793e-05
2.71879e-05
2.31269e-05
1.95041e-05
1.63018e-05
1.35025e-05
1.10832e-05
9.1012e-06
7.87935e-06
8.0572e-06
1.04191e-05
1.77192e-06
1.45782e-05
2.69283e-05
3.88461e-05
4.99749e-05
5.98435e-05
6.81838e-05
7.51364e-05
8.0862e-05
8.53859e-05
8.87383e-05
9.09545e-05
9.20729e-05
9.21328e-05
9.11701e-05
8.9227e-05
8.63134e-05
8.24015e-05
7.75409e-05
7.18686e-05
6.55902e-05
5.89582e-05
5.22227e-05
4.56481e-05
3.93815e-05
3.34977e-05
2.81095e-05
2.33102e-05
1.91719e-05
1.5697e-05
1.29242e-05
1.1106e-05
1.06999e-05
1.22273e-05
1.61562e-05
3.00944e-06
2.04732e-05
3.72205e-05
5.2825e-05
6.66173e-05
7.8119e-05
8.72525e-05
9.43911e-05
9.99355e-05
0.000104065
0.000106879
0.000108479
0.000108967
0.00010845
0.00010701
0.000104666
0.000101437
9.73581e-05
9.24869e-05
8.69093e-05
8.07508e-05
7.41647e-05
6.72956e-05
6.02644e-05
5.32018e-05
4.62598e-05
3.95902e-05
3.33063e-05
2.749e-05
2.22775e-05
1.80055e-05
1.52663e-05
1.47269e-05
1.67777e-05
2.16087e-05
4.15568e-06
2.57658e-05
4.61423e-05
6.44769e-05
7.9874e-05
9.20001e-05
0.000101163
0.000108125
0.000113364
0.000117033
0.000119268
0.000120201
0.000119959
0.00011866
0.000116369
0.000113123
0.000108995
0.000104092
9.85521e-05
9.25431e-05
8.62647e-05
7.99274e-05
7.36589e-05
6.74411e-05
6.11924e-05
5.48675e-05
4.84765e-05
4.20467e-05
3.56262e-05
2.94233e-05
2.40234e-05
2.04049e-05
1.95286e-05
2.16772e-05
2.68163e-05
5.71925e-06
3.14735e-05
5.54139e-05
7.63656e-05
9.32888e-05
0.0001061
0.000115503
0.000122417
0.000127412
0.000130725
0.000132524
0.000132962
0.000132175
0.000130215
0.000127132
0.000123
0.000117933
0.000112082
0.000105629
9.87848e-05
9.17982e-05
8.49636e-05
7.85361e-05
7.25639e-05
6.68981e-05
6.13221e-05
5.56416e-05
4.97058e-05
4.34271e-05
3.69339e-05
3.08664e-05
2.64657e-05
2.50164e-05
2.68072e-05
3.16481e-05
7.1709e-06
3.65687e-05
6.35617e-05
8.66421e-05
0.000104664
0.000117833
0.000127235
0.000134021
0.000138785
0.00014175
0.0001431
0.000143003
0.000141539
0.000138745
0.000134681
0.000129458
0.00012324
0.000116235
0.000108682
0.000100853
9.30658e-05
8.57001e-05
7.91013e-05
7.33516e-05
6.82855e-05
6.36118e-05
5.89971e-05
5.41228e-05
4.87439e-05
4.2856e-05
3.7015e-05
3.25037e-05
3.07395e-05
3.20216e-05
3.60847e-05
8.82256e-06
4.17765e-05
7.16646e-05
9.67211e-05
0.000115797
0.000129424
0.000139023
0.000145817
0.000150449
0.000153203
0.000154291
0.000153823
0.000151833
0.000148354
0.000143463
0.000137297
0.000130055
0.000121979
0.000113346
0.000104464
9.56901e-05
8.74644e-05
8.0226e-05
7.41288e-05
6.90509e-05
6.4721e-05
6.07753e-05
5.68068e-05
5.2443e-05
4.75195e-05
4.24022e-05
3.82218e-05
3.63323e-05
3.70258e-05
4.00209e-05
1.02526e-05
4.60858e-05
7.83324e-05
0.000105014
0.000124963
0.000138976
0.000148743
0.000155561
0.000160104
0.000162707
0.000163544
0.000162677
0.000160127
0.000155936
0.000150201
0.000143095
0.000134857
0.000125771
0.000116155
0.00010636
9.67967e-05
8.79741e-05
8.03687e-05
7.40967e-05
6.90333e-05
6.49418e-05
6.14943e-05
5.82891e-05
5.49094e-05
5.10775e-05
4.69563e-05
4.3419e-05
4.15953e-05
4.17445e-05
4.36354e-05
1.18333e-05
5.06521e-05
8.53175e-05
0.000113644
0.000134482
0.000148909
0.000158872
0.000165753
0.000170261
0.000172734
0.000173322
0.000172071
0.000168999
0.000164154
0.000157654
0.000149698
0.000140554
0.000130536
0.000119991
0.000109306
9.89326e-05
8.94381e-05
8.13434e-05
7.47347e-05
6.94781e-05
6.53661e-05
6.21247e-05
5.94046e-05
5.68028e-05
5.39731e-05
5.08828e-05
4.80956e-05
4.64416e-05
4.61228e-05
4.69944e-05
1.32248e-05
5.45063e-05
9.11942e-05
0.00012093
0.000142561
0.000157387
0.000167556
0.00017453
0.000179031
0.000181389
0.000181738
0.000180114
0.00017653
0.000171045
0.000163803
0.000155034
0.000145039
0.000134167
0.0001228
0.000111363
0.000100362
9.04341e-05
8.20993e-05
7.53567e-05
7.0036e-05
6.59407e-05
6.28474e-05
6.04795e-05
5.84919e-05
5.65216e-05
5.43821e-05
5.23343e-05
5.0896e-05
5.01906e-05
5.01793e-05
1.47791e-05
5.87136e-05
9.75496e-05
0.000128732
0.000151137
0.000166332
0.00017668
0.00018372
0.000188187
0.000190405
0.000190497
0.000188491
0.000184398
0.000178293
0.000170338
0.00016079
0.000149979
0.00013828
0.000126103
0.000113912
0.000102261
9.18574e-05
8.32401e-05
7.63373e-05
7.09345e-05
6.68256e-05
6.38161e-05
6.16906e-05
6.01696e-05
5.89021e-05
5.75849e-05
5.6205e-05
5.49909e-05
5.39742e-05
5.32043e-05
1.62108e-05
6.24441e-05
0.000103147
0.000135603
0.000158714
0.000174274
0.000184818
0.000191946
0.000196402
0.000198505
0.000198365
0.000195999
0.000191425
0.000184729
0.0001761
0.000165821
0.00015425
0.00014179
0.000128881
0.000116023
0.000103826
9.30729e-05
8.42974e-05
7.73442e-05
7.19523e-05
6.7898e-05
6.50014e-05
6.30943e-05
6.19577e-05
6.12659e-05
6.06331e-05
5.98175e-05
5.88025e-05
5.75207e-05
5.60893e-05
1.77817e-05
6.64515e-05
0.000109106
0.000142847
0.000166631
0.000182518
0.000193228
0.00020042
0.000204846
0.000206815
0.000206428
0.000203698
0.000198646
0.000191374
0.00018209
0.000171102
0.00015879
0.00014558
0.000131937
0.000118399
0.000105626
9.44765e-05
8.5505e-05
7.8488e-05
7.31156e-05
6.91356e-05
6.63661e-05
6.46654e-05
6.38581e-05
6.36426e-05
6.3573e-05
6.32215e-05
6.23733e-05
6.08585e-05
5.88396e-05
1.92814e-05
7.01446e-05
0.000114549
0.000149447
0.000173855
0.000190065
0.000200955
0.000208233
0.000212652
0.000214515
0.000213913
0.000210852
0.00020536
0.000197554
0.000187664
0.000176019
0.00016302
0.000149116
0.00013479
0.000120618
0.000107312
9.58071e-05
8.66768e-05
7.96344e-05
7.43247e-05
7.04659e-05
6.78655e-05
6.63922e-05
6.58964e-05
6.60911e-05
6.64834e-05
6.64994e-05
6.57725e-05
6.40322e-05
6.14676e-05
2.08822e-05
7.40034e-05
0.000120192
0.000156241
0.000181243
0.000197752
0.000208806
0.000216159
0.000220566
0.000222321
0.000221504
0.000218121
0.000212206
0.000203889
0.00019342
0.000181145
0.000167482
0.000152895
0.000137887
0.000123066
0.000109191
9.72717e-05
8.79322e-05
8.0836e-05
7.55837e-05
7.18595e-05
6.94507e-05
6.82214e-05
6.80294e-05
6.85895e-05
6.93669e-05
6.96731e-05
6.90275e-05
6.7063e-05
6.39811e-05
2.24425e-05
7.7645e-05
0.000125472
0.000162578
0.000188141
0.000204949
0.000216183
0.000223632
0.000228052
0.000229727
0.00022873
0.000225063
0.000218767
0.000209989
0.000198992
0.000186139
0.000171864
0.000156641
0.000140987
0.00012554
0.000111103
9.87569e-05
8.91943e-05
8.20383e-05
7.68512e-05
7.32837e-05
7.1098e-05
7.0142e-05
7.02637e-05
7.11646e-05
7.22681e-05
7.27961e-05
7.21882e-05
6.99861e-05
6.63942e-05
2.40746e-05
8.13794e-05
0.000130851
0.000169001
0.000195104
0.000212197
0.000223605
0.000231151
0.000235587
0.000237189
0.000236023
0.000232089
0.000225438
0.000216227
0.000204735
0.000191337
0.000176475
0.000160631
0.000144338
0.000128252
0.000113216
0.000100377
9.05282e-05
8.32688e-05
7.81251e-05
7.47138e-05
7.27664e-05
7.21047e-05
7.25524e-05
7.37831e-05
7.51746e-05
7.58759e-05
7.52712e-05
7.28167e-05
6.87139e-05
2.56833e-05
8.49566e-05
0.000135964
0.000175093
0.000201713
0.000219098
0.000230697
0.00023836
0.000242836
0.000244393
0.00024309
0.000238927
0.000231963
0.000222369
0.000210434
0.000196543
0.000181141
0.000164716
0.000147814
0.000131101
0.000115454
0.000102079
9.1899e-05
8.45023e-05
7.9386e-05
7.61346e-05
7.44455e-05
7.41049e-05
7.48986e-05
7.64579e-05
7.8109e-05
7.89417e-05
7.83057e-05
7.55768e-05
7.09508e-05
2.73446e-05
8.85865e-05
0.000141124
0.000181218
0.000208344
0.000226015
0.000237806
0.000245591
0.000250114
0.000251635
0.000250207
0.000245835
0.000238584
0.000228639
0.000216297
0.000201949
0.000186039
0.000169061
0.00015156
0.000134218
0.000117928
0.000103947
9.33591e-05
8.57635e-05
8.06351e-05
7.75276e-05
7.6102e-05
7.61013e-05
7.72611e-05
7.9157e-05
8.10548e-05
8.19927e-05
8.13003e-05
7.82766e-05
7.31095e-05
2.89932e-05
9.20989e-05
0.000146085
0.000187098
0.000214718
0.000232686
0.000244687
0.000252612
0.000257201
0.000258707
0.000257182
0.000252631
0.000245134
0.000234882
0.000222184
0.000207431
0.000191066
0.000173578
0.00015551
0.00013755
0.000120603
0.000105967
9.49044e-05
8.70523e-05
8.18725e-05
7.8893e-05
7.77362e-05
7.80947e-05
7.9643e-05
8.18875e-05
8.40256e-05
8.50478e-05
8.42737e-05
8.09293e-05
7.51965e-05
3.06816e-05
9.56385e-05
0.000151062
0.000192985
0.000221099
0.000239369
0.000251585
0.000259655
0.000264314
0.00026581
0.000264195
0.000259483
0.000251762
0.000241237
0.000228221
0.000213104
0.000196326
0.000178368
0.00015976
0.000141189
0.000123569
0.000108221
9.65959e-05
8.84071e-05
8.31143e-05
8.02262e-05
7.93274e-05
8.00544e-05
8.20092e-05
8.46161e-05
8.69938e-05
8.80887e-05
8.72181e-05
8.35359e-05
7.72143e-05
3.23634e-05
9.90827e-05
0.000155879
0.000198685
0.000227296
0.000245887
0.000258337
0.000266564
0.0002713
0.000272794
0.000271104
0.000266254
0.000258344
0.000247587
0.000234302
0.000218873
0.000201736
0.000183357
0.00016425
0.000145093
0.000126799
0.000110707
9.84471e-05
8.98471e-05
8.43796e-05
8.15431e-05
8.08874e-05
8.19892e-05
8.43687e-05
8.73564e-05
8.9982e-05
9.11428e-05
9.0159e-05
8.61094e-05
7.91676e-05
3.40752e-05
0.000102529
0.000160682
0.000204371
0.000233498
0.000252436
0.000265136
0.000273514
0.000278313
0.000279795
0.000278031
0.000273055
0.000264979
0.000254025
0.00024051
0.000224817
0.000207369
0.000188617
0.000169052
0.000149335
0.000130371
0.000113508
0.000100527
9.14248e-05
8.57016e-05
8.2857e-05
8.24118e-05
8.38809e-05
8.66942e-05
9.00749e-05
9.29515e-05
9.41797e-05
9.30651e-05
8.86412e-05
8.10576e-05
3.57824e-05
0.000105884
0.000165333
0.00020989
0.000239564
0.000258912
0.000271894
0.000280395
0.000285231
0.000286688
0.000284854
0.000279772
0.000271564
0.000260454
0.000246757
0.000230852
0.000213147
0.000194076
0.000174103
0.000153867
0.000134255
0.000116616
0.00010285
9.31685e-05
8.71124e-05
8.4197e-05
8.39231e-05
8.57443e-05
8.89936e-05
9.27774e-05
9.5923e-05
9.72675e-05
9.59872e-05
9.11384e-05
8.28875e-05
3.75107e-05
0.000109216
0.00016993
0.000215349
0.000245599
0.000265411
0.00027868
0.000287326
0.000292143
0.000293553
0.000291651
0.000286481
0.000278169
0.000266939
0.000253105
0.000237034
0.000219124
0.000199785
0.000179455
0.000158742
0.000138508
0.00012009
0.000105475
9.51315e-05
8.86548e-05
8.55917e-05
8.54346e-05
8.75813e-05
9.12655e-05
9.54715e-05
9.89184e-05
0.000100409
9.89717e-05
9.36305e-05
8.46642e-05
3.92325e-05
0.000112455
0.000174369
0.000220622
0.000251478
0.000271649
0.000285186
0.000294016
0.000298903
0.000300272
0.000298319
0.000293088
0.000284705
0.000273395
0.000259467
0.000243281
0.000225217
0.000205665
0.000185033
0.000163896
0.000143082
0.000123905
0.00010841
9.7341e-05
9.03659e-05
8.70775e-05
8.69752e-05
8.94086e-05
9.35111e-05
9.81353e-05
0.000101885
0.000103559
0.00010198
9.61142e-05
8.6389e-05
4.09681e-05
0.000115658
0.00017873
0.00022578
0.000257214
0.000277759
0.000291578
0.000300609
0.000305595
0.000306927
0.000304934
0.000299659
0.00029123
0.000279873
0.000265891
0.000249634
0.000231465
0.000211753
0.000190874
0.000169366
0.000148015
0.000128103
0.000111697
9.98466e-05
9.22945e-05
8.86964e-05
8.85755e-05
9.12462e-05
9.57467e-05
0.000100804
0.000104928
0.000106746
0.000105012
9.85918e-05
8.80659e-05
4.26966e-05
0.000118778
0.000182955
0.000230772
0.000262735
0.000283623
0.000297716
0.000306957
0.000312076
0.000313433
0.000311407
0.000306105
0.000297658
0.000286288
0.000272293
0.000256009
0.000237786
0.000217967
0.000196897
0.000175077
0.000153245
0.00013264
0.000115329
0.000102665
9.44741e-05
9.04876e-05
9.02715e-05
9.31208e-05
9.79888e-05
0.000103481
0.000108007
0.000109957
0.000108055
0.000101056
8.96955e-05
4.44347e-05
0.000121857
0.000187116
0.000235733
0.00026814
0.000289343
0.000303705
0.000313165
0.000318437
0.000319862
0.000317793
0.000312476
0.000304034
0.000292683
0.00027871
0.00026244
0.000244206
0.00022433
0.000203124
0.00018105
0.000158795
0.000137544
0.00011934
0.00010584
9.69519e-05
9.24972e-05
9.21026e-05
9.50637e-05
0.000100262
0.000106182
0.000111119
0.000113197
0.000111114
0.00010351
9.12822e-05
4.61595e-05
0.000124823
0.000191083
0.000240452
0.000273277
0.000294793
0.000309429
0.000319116
0.000324551
0.000326061
0.000323983
0.000318685
0.00031028
0.000298979
0.000285063
0.000268845
0.000250643
0.000230757
0.000209471
0.000187204
0.000164593
0.000142758
0.000123708
0.000109374
9.97553e-05
9.47652e-05
9.41098e-05
9.71061e-05
0.00010258
0.000108904
0.000114245
0.000116445
0.000114173
0.000105948
9.28262e-05
4.78903e-05
0.000127744
0.000194962
0.000245048
0.000278273
0.000300092
0.000314999
0.000324917
0.000330526
0.000332139
0.000330073
0.000324805
0.00031645
0.000305218
0.000291384
0.000275249
0.000257117
0.000237265
0.000215947
0.000193545
0.00017064
0.000148287
0.000128441
0.000113287
0.000102914
9.73303e-05
9.63353e-05
9.92896e-05
0.000104982
0.000111675
0.000117402
0.000119713
0.000117238
0.000108371
9.43315e-05
4.96106e-05
0.000130568
0.000198674
0.000249427
0.000283025
0.000305135
0.000320308
0.000330458
0.000336253
0.000337993
0.000335981
0.000330748
0.000322457
0.000311317
0.000297593
0.000281575
0.000263549
0.000243773
0.000222473
0.000199993
0.000176861
0.000154067
0.000133502
0.000117567
0.000106439
0.00010022
9.8812e-05
0.000101641
0.000107479
0.000114492
0.00012058
0.000122986
0.000120301
0.000110775
9.57978e-05
5.13367e-05
0.000133345
0.000202292
0.000253678
0.000287625
0.000310014
0.000325447
0.000335826
0.000341808
0.000343686
0.000341762
0.000336557
0.00032834
0.000317311
0.000303722
0.000287848
0.00026996
0.000250295
0.000229052
0.000206544
0.000183247
0.000160084
0.000138879
0.00012221
0.000110341
0.000103458
0.000101576
0.000104202
0.000110114
0.000117393
0.0001238
0.000126278
0.000123363
0.000113162
9.72274e-05
5.30488e-05
0.000136034
0.000205759
0.000257727
0.000291994
0.000314645
0.000330328
0.000340931
0.000347098
0.000349116
0.000347287
0.000342134
0.000334019
0.000323127
0.0003097
0.000293998
0.000276277
0.000256757
0.000235613
0.000213125
0.000189725
0.000166271
0.00014452
0.000127182
0.000114607
0.000107052
0.000104647
0.000106993
0.000112895
0.000120371
0.000127055
0.00012958
0.000126421
0.000115528
9.86193e-05
5.47523e-05
0.000138665
0.000209127
0.00026164
0.000296204
0.000319101
0.000335021
0.000345842
0.000352193
0.000354355
0.000352631
0.000347546
0.000339543
0.000328804
0.000315556
0.000300048
0.000282519
0.000263171
0.000242158
0.00021973
0.000196278
0.000172601
0.000150393
0.000132456
0.00011922
0.000111003
0.000108041
0.000110044
0.000115869
0.000123512
0.000130376
0.000132903
0.000129476
0.000117872
9.99734e-05
5.64493e-05
0.000141235
0.000212385
0.000265385
0.000300198
0.000323315
0.000339462
0.000350496
0.000357028
0.000359334
0.000357716
0.000352705
0.000344837
0.000334279
0.000321232
0.00030594
0.000288628
0.000269482
0.000248633
0.000226306
0.000202853
0.000179022
0.000156446
0.000137989
0.000124149
0.000115296
0.000111762
0.000113372
0.000119058
0.000126809
0.000133777
0.000136255
0.000132529
0.000120193
0.000101288
5.81439e-05
0.000143766
0.000215594
0.000268991
0.000304014
0.000327336
0.000343701
0.000354943
0.000361657
0.000364111
0.00036261
0.000357686
0.000349953
0.000339568
0.000326741
0.000311686
0.000294611
0.000275689
0.000255031
0.000232838
0.000209429
0.000185504
0.000162643
0.000143747
0.00012937
0.000119918
0.000115811
0.000116991
0.000122475
0.000130265
0.000137263
0.000139639
0.000135581
0.00012249
0.000102563
5.98267e-05
0.000146222
0.000218691
0.000272396
0.000307594
0.000331104
0.00034768
0.000359125
0.000366018
0.000368621
0.000367241
0.000362421
0.000354842
0.000344652
0.000332046
0.000317239
0.000300423
0.000281746
0.000261306
0.000239281
0.000215958
0.000191998
0.000168934
0.000149685
0.000134844
0.000124842
0.000120176
0.000120901
0.000126132
0.00013389
0.000140846
0.000143064
0.000138635
0.000124762
0.000103799
6.14946e-05
0.000148577
0.000221619
0.000275611
0.000310977
0.000334669
0.000351449
0.000363092
0.00037016
0.000372911
0.000371656
0.000366946
0.000359529
0.000349541
0.000337168
0.000322611
0.000306058
0.000287649
0.000267447
0.000245617
0.000222419
0.000198477
0.000175285
0.000155771
0.000140542
0.000130043
0.000124839
0.000125091
0.000130019
0.000137681
0.000144524
0.000146531
0.000141694
0.000127012
0.000104997
6.31429e-05
0.000150846
0.000224403
0.00027863
0.00031413
0.000337986
0.000354957
0.00036679
0.000374029
0.000376928
0.000375803
0.000371216
0.000363972
0.000354198
0.000342069
0.000327777
0.000311495
0.000293355
0.000273415
0.000251804
0.000228766
0.000204893
0.000181648
0.00016196
0.000146426
0.000135496
0.000129787
0.000129562
0.000134142
0.000141641
0.0001483
0.000150041
0.000144756
0.000129238
0.000106155
6.47762e-05
0.000153021
0.000227033
0.000281462
0.00031708
0.00034109
0.000358246
0.000370262
0.000377667
0.000380711
0.000379717
0.00037526
0.000368196
0.000358642
0.000346764
0.000332743
0.000316741
0.000298879
0.000279202
0.000257836
0.000234986
0.000211226
0.000187994
0.000168218
0.000152457
0.000141162
0.000134993
0.000134297
0.0001385
0.000145774
0.000152178
0.000153598
0.000147825
0.000131441
0.000107275
6.6382e-05
0.000155093
0.000229502
0.00028409
0.0003198
0.000343948
0.000361275
0.000373466
0.000381031
0.000384217
0.000383358
0.000379042
0.000372166
0.000362839
0.000351219
0.000337477
0.000321765
0.000304191
0.000284789
0.000263676
0.000241046
0.000217443
0.000194291
0.000174513
0.000158602
0.000147005
0.000140417
0.000139266
0.000143069
0.000150065
0.000156152
0.000157198
0.000150896
0.000133619
0.000108355
6.79623e-05
0.00015707
0.000231823
0.000286535
0.000322319
0.000346591
0.00036408
0.000376436
0.000384154
0.000387479
0.000386755
0.000382586
0.000375904
0.000366809
0.00035545
0.00034199
0.000326571
0.000309292
0.000290176
0.000269328
0.000246937
0.000223532
0.000200526
0.000180829
0.000164846
0.000153011
0.000146046
0.000144451
0.000147836
0.000154507
0.00016022
0.000160844
0.000153974
0.000135773
0.000109389
6.95058e-05
0.000158939
0.000233981
0.000288778
0.000324612
0.000348992
0.000366629
0.00037914
0.000387004
0.000390465
0.000389876
0.000385862
0.000379381
0.000370523
0.00035943
0.000346255
0.000331134
0.000314154
0.000295331
0.000274763
0.00025263
0.000229465
0.00020667
0.000187139
0.000171165
0.00015916
0.000151864
0.000149839
0.000152785
0.000159086
0.000164369
0.000164525
0.000157051
0.000137898
0.000110377
7.10152e-05
0.000160714
0.000235996
0.000290845
0.000326709
0.000351182
0.000368956
0.000381612
0.000389613
0.000393204
0.00039275
0.000388898
0.000382621
0.000374002
0.000363176
0.000350287
0.000335464
0.000318786
0.00030026
0.00027998
0.000258123
0.000235224
0.000212711
0.000193421
0.000177531
0.000165428
0.000157854
0.000155421
0.000157913
0.000163801
0.0001686
0.000168241
0.000160122
0.000139987
0.00011132
7.24801e-05
0.000162379
0.000237849
0.000292715
0.000328587
0.000353138
0.000371035
0.000383825
0.000391956
0.000395673
0.000395355
0.000391671
0.000385604
0.000377228
0.00036667
0.000354069
0.000339544
0.000323169
0.000304946
0.000284964
0.000263403
0.000240808
0.000218631
0.000199649
0.000183911
0.000171775
0.000163978
0.000161164
0.000163195
0.000168632
0.000172895
0.00017198
0.000163186
0.000142052
0.000112226
7.39047e-05
0.00016395
0.000239565
0.000294416
0.000330275
0.000354889
0.000372896
0.00038581
0.000394063
0.0003979
0.000397717
0.000394208
0.000388353
0.000380221
0.000369932
0.000357617
0.000343389
0.000327317
0.000309397
0.000289721
0.000268473
0.000246218
0.000224446
0.000205823
0.000190291
0.00017818
0.000170212
0.000167052
0.000168624
0.00017358
0.000177262
0.000175753
0.000166255
0.000144117
0.000113105
7.52804e-05
0.000165414
0.000241123
0.000295926
0.000331753
0.000356414
0.000374519
0.000387546
0.000395912
0.000399866
0.000399819
0.000396492
0.000390856
0.000382972
0.000372952
0.000360924
0.000346992
0.000331223
0.000313609
0.000294245
0.000273327
0.000251446
0.00023014
0.000211917
0.000196638
0.000184601
0.000176509
0.000173035
0.000174156
0.00017861
0.000181678
0.000179544
0.00016932
0.000146166
0.000113962
7.66128e-05
0.000166787
0.00024255
0.000297275
0.000333049
0.000357743
0.000375932
0.000389061
0.000397532
0.000401596
0.000401684
0.000398547
0.000393133
0.000385498
0.000375749
0.000364006
0.000350371
0.000334902
0.000317596
0.000298549
0.000277976
0.000256499
0.000235717
0.000217934
0.000202945
0.000191023
0.00018285
0.0001791
0.000179786
0.000183725
0.000186147
0.000183361
0.000172386
0.000148202
0.000114803
7.78955e-05
0.000168055
0.000243826
0.000298442
0.000334146
0.000358857
0.000377119
0.000390339
0.000398906
0.000403077
0.000403302
0.00040036
0.000395174
0.000387793
0.000378317
0.000366861
0.000353521
0.000338354
0.000321356
0.000302633
0.000282418
0.000261374
0.000241168
0.00022386
0.000209196
0.000197422
0.000189198
0.00018519
0.000185444
0.000188873
0.00019064
0.000187186
0.000175446
0.000150223
0.00011563
7.91332e-05
0.000169234
0.000244974
0.000299454
0.000335068
0.000359783
0.000378104
0.000391405
0.00040006
0.000404331
0.000404692
0.000401952
0.000396998
0.000389873
0.000380671
0.000369502
0.000356458
0.000341594
0.000324906
0.00030651
0.000286665
0.000266078
0.000246493
0.000229691
0.000215382
0.000203788
0.000195547
0.000191321
0.0001912
0.000194072
0.00019516
0.000191023
0.000178503
0.000152232
0.000116445
8.03203e-05
0.000170312
0.000245978
0.000300294
0.000335802
0.000360507
0.000378876
0.000392247
0.000400982
0.00040535
0.000405847
0.000403316
0.000398599
0.000391732
0.000382807
0.000371926
0.000359179
0.000344618
0.000328244
0.000310183
0.00029072
0.000270616
0.000251692
0.000235427
0.000221502
0.000210115
0.000201885
0.000197472
0.000197003
0.000199301
0.000199692
0.000194862
0.000181551
0.000154227
0.000117249
8.14616e-05
0.000171302
0.000246858
0.000300986
0.000336372
0.000361054
0.000379459
0.00039289
0.000401696
0.000406156
0.000406788
0.00040447
0.000399993
0.000393387
0.000384739
0.000374147
0.000361697
0.00034744
0.000331381
0.00031366
0.000294592
0.000274994
0.000256767
0.000241068
0.00022755
0.000216394
0.000208198
0.000203626
0.000202831
0.000204552
0.000204235
0.000198701
0.000184591
0.000156209
0.00011804
8.25516e-05
0.000172193
0.000247601
0.000301518
0.000336768
0.000361415
0.000379846
0.000393327
0.000402197
0.000406743
0.000407511
0.000405413
0.000401178
0.000394835
0.000386465
0.000376163
0.000364011
0.000350061
0.00033432
0.000316948
0.000298289
0.000279221
0.000261725
0.000246615
0.000233527
0.000222626
0.00021449
0.000209776
0.000208666
0.000209807
0.000208779
0.000202537
0.00018762
0.000158176
0.000118817
8.35948e-05
0.000173
0.000248229
0.000301914
0.000337013
0.000361614
0.000380059
0.000393581
0.000402506
0.000407134
0.000408037
0.000406162
0.000402173
0.000396093
0.000388
0.000377987
0.000366132
0.000352488
0.00033707
0.000320053
0.000301817
0.000283305
0.00026657
0.000252072
0.000239435
0.000228805
0.000220744
0.000215896
0.00021449
0.000215056
0.000213316
0.000206363
0.000190635
0.000160125
0.000119578
8.45871e-05
0.000173716
0.000248732
0.000302165
0.000337101
0.000361645
0.000380095
0.000393649
0.000402623
0.000407329
0.000408368
0.000406722
0.00040298
0.000397164
0.000389349
0.000379624
0.000368068
0.000354733
0.000339642
0.000322989
0.000305194
0.000287267
0.000271316
0.000257448
0.000245275
0.000234933
0.000226964
0.000222006
0.000220305
0.000220294
0.000217843
0.00021018
0.000193637
0.000162061
0.000120325
8.55327e-05
0.000174354
0.000249131
0.000302294
0.000337054
0.00036153
0.000379975
0.000393552
0.000402568
0.000407348
0.000408522
0.000407109
0.000403616
0.000398063
0.000390524
0.000381087
0.000369827
0.000356803
0.000342044
0.000325768
0.000308437
0.000291133
0.000275976
0.000262746
0.000251052
0.000241011
0.000233147
0.000228086
0.000226087
0.000225507
0.000222351
0.00021398
0.000196622
0.00016398
0.000121059
8.64302e-05
0.000174911
0.000249423
0.000302297
0.00033687
0.000361268
0.000379698
0.00039329
0.000402341
0.000407192
0.000408503
0.000407329
0.000404088
0.0003988
0.000391537
0.000382386
0.000371426
0.000358716
0.0003443
0.000328419
0.000311584
0.000294956
0.000280585
0.000267986
0.000256769
0.000247036
0.000239287
0.000234136
0.00023186
0.000230703
0.000226843
0.000217766
0.000199593
0.000165887
0.000121784
8.72834e-05
0.000175401
0.000249624
0.000302193
0.000336566
0.000360874
0.00037928
0.000392878
0.000401959
0.000406878
0.000408327
0.000407395
0.000404408
0.000399383
0.000392395
0.00038353
0.000372868
0.000360476
0.000346412
0.000330948
0.000314651
0.000298772
0.000285165
0.000273184
0.000262438
0.000253015
0.000245389
0.000240156
0.000237609
0.000235876
0.000231318
0.00022154
0.000202552
0.000167785
0.000122505
8.80942e-05
0.000175825
0.000249735
0.000301982
0.000336142
0.00036035
0.000378723
0.000392321
0.000401426
0.000406412
0.000408002
0.000407319
0.000404587
0.000399827
0.000393113
0.000384533
0.00037417
0.000362098
0.000348394
0.000333364
0.00031764
0.000302567
0.000289708
0.000278333
0.000268051
0.000258937
0.000251439
0.000246133
0.000243325
0.000241029
0.000235775
0.000225304
0.000205504
0.000169679
0.000123221
8.88655e-05
0.000176191
0.000249767
0.000301675
0.000335611
0.000359709
0.000378038
0.000391628
0.000400753
0.000405806
0.000407539
0.000407108
0.000404632
0.000400136
0.000393696
0.0003854
0.000375336
0.000363587
0.000350248
0.000335666
0.000320539
0.000306314
0.000294198
0.000283425
0.000273608
0.000264805
0.000257441
0.000252069
0.000249004
0.000246156
0.000240222
0.000229057
0.000208449
0.00017157
0.000123936
8.96e-05
0.000176502
0.000249722
0.000301274
0.000334972
0.00035895
0.000377229
0.000390803
0.000399945
0.000405068
0.000406952
0.000406775
0.000404553
0.000400319
0.000394153
0.000386144
0.000376381
0.000364956
0.000351987
0.000337861
0.000323348
0.000309993
0.000298618
0.000288445
0.000279093
0.000270608
0.000263387
0.000257957
0.000254645
0.000251256
0.000244657
0.000232812
0.000211397
0.000173466
0.000124656
9.03e-05
0.00017676
0.000249604
0.000300785
0.000334236
0.000358085
0.000376303
0.000389855
0.000399011
0.000404211
0.000406258
0.000406328
0.000404353
0.000400379
0.000394488
0.000386767
0.000377309
0.000366214
0.000353622
0.000339963
0.000326082
0.000313609
0.000302974
0.000293402
0.000284517
0.000276355
0.000269283
0.000263803
0.000260252
0.000256333
0.00024908
0.000236563
0.000214347
0.000175368
0.000125387
9.09677e-05
0.000176967
0.000249414
0.000300209
0.000333403
0.000357113
0.000375263
0.000388785
0.000397953
0.00040324
0.000405493
0.000405776
0.000404036
0.00040032
0.000394706
0.000387279
0.000378131
0.000367372
0.000355164
0.000341983
0.000328748
0.000317158
0.000307254
0.000298276
0.000289859
0.000282026
0.000275116
0.000269603
0.000265828
0.000261394
0.000253504
0.000240324
0.000217312
0.000177287
0.000126129
9.16058e-05
0.000177127
0.000249157
0.000299553
0.000332481
0.000356046
0.000374119
0.000387603
0.000396772
0.000402137
0.00040459
0.000405094
0.000403599
0.000400149
0.000394818
0.000387691
0.000378862
0.00036845
0.000356641
0.000343957
0.000331396
0.000320677
0.000311488
0.000303091
0.000295133
0.000287628
0.000280886
0.000275351
0.000271372
0.000266439
0.000257927
0.000244096
0.000220291
0.000179222
0.000126878
9.22154e-05
0.000177237
0.00024883
0.000298814
0.000331468
0.000354881
0.000372873
0.000386313
0.000395483
0.000400928
0.000403587
0.000404313
0.00040306
0.000399875
0.000394829
0.000388007
0.000379505
0.000369454
0.000358064
0.000345906
0.000334059
0.000324182
0.000315678
0.000307841
0.000300329
0.000293147
0.000286579
0.000281039
0.000276875
0.000271468
0.000262358
0.000247889
0.000223298
0.000181179
0.000127636
9.28013e-05
0.000177307
0.000248444
0.000298003
0.000330375
0.00035363
0.000371533
0.000384923
0.000394088
0.000399613
0.000402482
0.000403433
0.000402426
0.000399507
0.000394751
0.00038824
0.000380076
0.000370403
0.00035946
0.00034787
0.000336798
0.000327722
0.000319868
0.000312559
0.00030547
0.000298599
0.000292201
0.000286659
0.000282334
0.000276474
0.000266786
0.000251694
0.000226321
0.000183152
0.000128398
9.33635e-05
0.000177332
0.000247994
0.000297115
0.000329197
0.000352288
0.000370098
0.000383434
0.000392593
0.000398203
0.000401288
0.000402469
0.000401709
0.000399058
0.00039459
0.000388392
0.000380572
0.00037129
0.000360815
0.000349832
0.000339591
0.000331283
0.000324049
0.000317243
0.000310557
0.000303983
0.000297756
0.000292249
0.000287754
0.000281464
0.000271223
0.000255523
0.000229374
0.00018515
0.000129169
9.39099e-05
0.000177326
0.000247495
0.000296163
0.000327945
0.000350863
0.000368574
0.000381851
0.000391004
0.000396701
0.000400012
0.000401428
0.00040092
0.00039854
0.000394364
0.000388482
0.000381011
0.000372128
0.000362141
0.000351793
0.00034242
0.00033486
0.000328227
0.000321905
0.000315603
0.000309314
0.000303263
0.000297824
0.000293137
0.000286425
0.000275652
0.000259361
0.000232444
0.000187165
0.000129947
9.44409e-05