/*--------------------------------*- C++ -*----------------------------------*\
| =========                 |                                                 |
| \\      /  F ield         | OpenFOAM: The Open Source CFD Toolbox           |
|  \\    /   O peration     | Version:  v2006                                 |
|   \\  /    A nd           | Website:  www.openfoam.com                      |
|    \\/     M anipulation  |                                                 |
\*---------------------------------------------------------------------------*/
FoamFile
{
    version     2.0;
    format      ascii;
    class       volScalarField;
    location    "17";
    object      omega;
}
// * * * * * * * * * * * * * * * * * * * * * * * * * * * * * * * * * * * * * //

dimensions      [0 0 -1 0 0 0 0];


internalField   nonuniform List<scalar> 
78750
(
1278.41
186.567
127.746
71.7497
15.6791
16.2069
19.4403
17.2306
18.4927
17.4401
17.8414
17.3126
17.4374
17.1877
17.1097
16.9907
16.8855
16.7847
16.6878
16.5942
16.503
16.4136
16.3236
16.2313
16.1356
16.0353
15.9283
15.8122
15.6834
15.5372
15.3671
15.1663
14.9447
14.5618
498.491
498.697
9.98981
11.5105
10.7856
11.8723
11.0142
11.0934
11.1202
10.9807
10.9405
10.8246
10.744
10.6361
10.5405
10.4435
10.3507
10.2621
10.1781
10.0985
10.0227
9.94953
9.87774
9.80568
9.73143
9.65296
9.56844
9.47624
9.37497
9.2636
9.14153
9.0074
8.85166
8.61895
7.92627
739.11
400.692
8.39045
9.71948
10.3455
10.5424
11.1872
11.5339
11.7993
11.953
12.0013
11.9824
11.8985
11.7653
11.5891
11.3801
11.1492
10.9092
10.6738
10.4564
10.2681
10.1157
10.0004
9.91817
9.86206
9.82293
9.79037
9.75432
9.70625
9.63933
9.54722
9.42152
9.23993
8.9171
8.90862
743.996
399.813
8.45077
10.9533
12.8675
14.3018
15.2168
15.8371
16.2515
16.5213
16.6824
16.7511
16.7385
16.6495
16.4847
16.2404
15.91
15.4852
14.9582
14.3239
13.585
12.7614
11.8988
11.0648
10.3554
9.87977
9.66729
9.63648
9.67743
9.72963
9.76402
9.75589
9.66824
9.2992
8.57113
745.986
402.519
12.6722
15.2313
16.6509
17.4444
17.9141
18.2096
18.4072
18.5431
18.6357
18.696
18.7303
18.743
18.7368
18.7128
18.6691
18.599
18.4903
18.3255
18.0806
17.723
17.2059
16.4432
15.3363
13.8971
12.2374
10.4496
9.15839
8.89239
9.12759
9.387
9.5802
9.75739
11.097
750.551
403.276
12.7044
14.7136
15.6087
16.0413
16.2694
16.3971
16.4636
16.4836
16.4638
16.4098
16.3292
16.2331
16.138
16.0661
16.0412
16.0786
16.1796
16.3349
16.5313
16.7545
16.9846
17.1885
17.3184
17.2148
16.6095
15.4125
13.7864
11.7807
9.90918
8.97812
8.70936
8.36099
9.92091
752.695
409.085
13.9744
15.6698
16.4504
16.8932
17.1941
17.3972
17.5105
17.5354
17.4723
17.3214
17.0838
16.7617
16.3623
15.9068
15.4313
14.9752
14.5651
14.2098
13.9107
13.6838
13.5846
13.7073
14.1225
14.6863
14.8063
14.1726
13.2709
12.0465
10.4307
9.84061
9.79203
10.207
11.5885
755.899
415.353
15.8864
17.0107
17.4999
17.7902
17.9868
18.1152
18.1831
18.1911
18.1376
18.0228
17.8506
17.6282
17.3667
17.0804
16.7794
16.4637
16.1218
15.7302
15.2519
14.6425
13.8837
13.0645
12.454
12.3424
12.5796
12.5721
12.0582
11.199
9.83098
8.31065
7.65587
9.41747
12.8405
757.801
416.971
15.4194
16.2079
16.6079
16.8589
17.0345
17.15
17.2045
17.1919
17.1073
16.9525
16.7384
16.4882
16.2412
16.0419
15.9091
15.825
15.7558
15.6645
15.5054
15.2152
14.7312
14.0414
13.2103
12.3839
11.756
11.3895
10.989
10.5744
10.1237
9.57891
9.08561
9.69977
13.4707
758.621
420.44
16.3443
16.9771
17.3128
17.5262
17.6569
17.7113
17.6871
17.5806
17.3911
17.12
16.7702
16.3522
15.9012
15.4852
15.1689
14.9652
14.844
14.7665
14.6941
14.5699
14.3026
13.8287
13.183
12.4539
11.762
11.2242
10.8097
10.2309
8.98558
6.85273
6.89802
9.46459
13.8727
759.485
422.487
16.9611
17.5246
17.8191
18.002
18.109
18.148
18.1213
18.0353
17.8964
17.7014
17.4378
17.0897
16.647
16.1235
15.5717
15.0623
14.6378
14.2943
13.9964
13.6887
13.2927
12.7356
12.0523
11.359
10.7345
10.1976
9.64382
8.7683
6.90253
4.55318
4.54522
9.99664
14.7686
760.938
419.046
16.2117
17.0736
17.4644
17.6646
17.7488
17.7315
17.6327
17.501
17.3778
17.2738
17.178
17.0677
16.9135
16.6835
16.356
15.9408
15.4824
15.0309
14.6093
14.2065
13.7827
13.2698
12.5998
11.7912
10.947
10.1419
9.36132
8.4635
7.24744
5.39148
5.72186
10.3328
15.6066
761.483
421.739
17.771
18.4881
18.6988
18.7357
18.6482
18.4304
18.1276
17.8268
17.5587
17.3098
17.0697
16.8358
16.6049
16.3691
16.1144
15.8257
15.4973
15.1391
14.7649
14.3734
13.9401
13.4294
12.8239
12.1496
11.4499
10.7367
9.9742
9.12711
8.2039
7.01583
5.00653
8.83564
15.0122
762.254
426.646
18.2628
18.4992
18.5112
18.4094
18.1608
17.7615
17.3822
17.1886
17.1404
17.1161
17.0532
16.9321
16.7468
16.4972
16.1883
15.8313
15.445
15.054
14.6764
14.3099
13.9251
13.4733
12.917
12.2794
11.626
10.983
10.308
9.5443
8.67717
7.55313
6.38339
12.0375
16.9647
763.479
428.073
18.607
18.848
18.833
18.6537
18.2376
17.5987
16.981
16.6037
16.4757
16.4703
16.4897
16.4921
16.4554
16.3589
16.181
15.9051
15.5303
15.0788
14.5866
14.0767
13.5406
12.9543
12.3236
11.7119
11.1732
10.6951
10.2151
9.6528
8.95828
8.04617
5.89092
9.50792
15.8033
763.058
431.008
19.2758
19.3528
19.2337
18.9526
18.4641
17.8698
17.3545
16.9796
16.7237
16.5519
16.4296
16.3295
16.2331
16.1258
15.9929
15.8155
15.5712
15.2434
14.8319
14.3443
13.7691
13.0773
12.2791
11.4986
10.8643
10.3712
9.93426
9.46051
8.86073
7.86331
6.57726
9.30519
16.0865
766.179
428.558
18.7738
18.9468
18.8375
18.533
18.0388
17.4709
17.0135
16.7586
16.6278
16.5325
16.435
16.3215
16.1864
16.0268
15.8404
15.6238
15.3723
15.0786
14.7332
14.3177
13.7989
13.1261
12.2783
11.3693
10.5939
10.0096
9.51478
8.96449
8.18281
7.03534
7.29327
14.7231
18.6206
765.111
430.75
19.6131
19.7238
19.5159
19.1044
18.5599
17.9488
17.3249
16.8674
16.6328
16.5169
16.434
16.348
16.2427
16.1074
15.9328
15.7102
15.4342
15.1064
14.7337
14.3184
13.8461
13.2774
12.5649
11.7215
10.8897
10.2232
9.73222
9.32415
8.86723
7.88816
5.82959
11.7923
17.4419
765.785
436.964
19.7457
19.2906
18.7111
17.9517
17.3425
17.036
16.8324
16.6358
16.4748
16.3505
16.2399
16.124
15.9904
15.8297
15.634
15.3943
15.0999
14.7394
14.3036
13.7821
13.1532
12.3741
11.4269
10.4615
9.73426
9.22968
8.85361
8.52177
8.14706
8.24746
6.78843
4.40191
15.3865
770.305
434.957
19.4944
19.2298
18.768
18.1775
17.6968
17.3816
17.1452
16.9436
16.7669
16.6131
16.4725
16.3295
16.1689
15.9768
15.7394
15.4416
15.0645
14.5793
13.9388
13.0566
11.8109
10.1131
7.87614
5.35312
4.2254
4.86707
5.72617
7.7071
11.6061
15.9492
19.0516
21.117
22.9743
771.938
429.387
19.3836
19.7191
19.7868
19.7013
19.4412
19.0317
18.5491
18.0652
17.6323
17.2801
17.0144
16.8209
16.6732
16.5425
16.4046
16.2404
16.0309
15.7584
15.4051
14.9479
14.3417
13.497
12.1645
9.98279
6.65369
5.74653
4.47884
4.9841
3.72341
6.36006
7.65253
14.2949
19.5975
753.771
422.425
18.6975
19.7082
20.171
20.4237
20.5298
20.4794
20.2497
19.8513
19.3296
18.7426
18.1531
17.6212
17.1915
16.8872
16.7016
16.5955
16.5224
16.4497
16.3572
16.2344
16.0611
15.8722
15.5586
15.155
14.9933
14.5376
13.2172
9.57328
5.72718
4.97928
5.71441
6.26749
7.10087
759.653
419.866
18.4439
19.7128
20.1882
20.4017
20.5124
20.5782
20.6174
20.6064
20.4893
20.2039
19.7276
19.0886
18.3451
17.5965
16.9987
16.6498
16.4667
16.324
16.1499
15.8971
15.5405
15.0134
13.7843
10.4864
11.3504
15.4981
17.7015
17.8812
17.1835
16.4416
16.9571
19.2908
23.2872
789.914
424.59
18.9371
19.6953
19.8629
19.8379
19.7251
19.6038
19.5838
19.764
20.1063
20.4082
20.4834
20.2369
19.618
18.6471
17.5742
16.81
16.4545
16.2795
16.0538
15.5258
14.4477
13.0017
13.2173
16.6488
19.8758
20.9987
21.1256
20.8784
20.3922
19.9223
19.7986
20.4208
21.9007
763.13
435.958
20.8971
20.9105
20.677
20.3531
19.9834
19.6232
19.3187
19.1949
19.4029
19.8391
20.2438
20.4802
20.4899
20.1428
19.3292
18.3112
17.4964
17.023
16.8032
16.6873
16.5487
16.3001
16.0132
16.1684
16.9926
17.6769
17.9215
17.9493
17.8146
17.5337
17.24
17.0649
14.7513
739.43
448.78
21.6693
20.7799
20.0968
19.4765
19.1092
19.0458
19.1573
19.3145
19.4633
19.5849
19.652
19.6415
19.542
19.3428
19.0332
18.6685
18.3398
18.0907
17.9257
17.833
17.6926
17.3821
16.9882
16.5598
16.0384
15.4618
15.1176
15.0872
15.2298
15.3845
15.2664
14.7103
7.83261
741.073
444.499
20.309
19.7106
19.2041
18.8201
18.7028
18.7473
18.8549
18.9731
19.0606
19.0881
19.0184
18.8161
18.5307
18.3282
18.2366
18.1749
18.1097
18.0497
18.0234
18.1252
18.7364
19.7305
20.206
20.2024
19.942
19.5342
19.0709
18.5737
17.9853
17.1893
16.1581
15.6271
15.9545
763.052
430.141
20.2809
20.9495
21.0978
20.9746
20.579
19.9553
19.242
18.6158
18.2309
18.1321
18.2379
18.4202
18.5665
18.6036
18.5323
18.3917
18.2337
18.2176
18.742
20.1009
21.7523
22.7539
23.0948
23.1759
23.0966
22.8582
22.4407
21.8021
20.9009
19.7904
18.8161
18.6802
19.6675
764.504
426.157
21.3942
22.4153
22.6471
22.6182
22.4145
22.0397
21.5009
20.7639
19.8492
18.8917
18.0758
17.5549
17.4166
17.6435
18.0888
18.569
18.9421
19.1222
19.1066
18.9806
18.923
19.0121
19.1852
19.4421
19.8624
20.4863
21.1488
21.58
21.6099
21.2312
20.6484
20.2137
19.9187
753.946
430.22
21.2758
22.088
22.1938
22.0749
21.8818
21.8409
22.0144
22.0956
21.8543
21.2524
20.301
19.0336
17.6196
16.4763
15.9842
16.153
16.7407
17.3961
17.8699
18.2778
18.6823
18.9182
18.926
18.7688
18.5283
18.3403
18.4149
18.8445
19.4469
19.9233
20.0685
19.7591
18.6895
752.745
443.372
22.8162
22.5701
22.1084
21.4724
20.7003
20.2993
20.5446
20.8927
20.9535
20.6763
19.9693
18.7008
16.9604
15.3954
14.8241
15.5053
17.4516
20.2029
22.121
22.5194
22.3963
22.1448
21.7985
21.3162
20.6595
19.8708
19.1309
18.6744
18.6004
18.7701
18.8669
18.6643
18.4599
759.972
454.729
23.8798
23.0937
22.3653
21.5072
20.8184
20.5067
20.4511
20.5022
20.4972
20.3742
20.0329
19.2347
17.6613
15.5203
13.9576
14.251
16.3067
19.4208
22.6132
24.6004
25.2838
25.2914
24.9864
24.4717
23.7464
22.7802
21.5843
20.2557
19.003
18.1604
17.9514
18.2283
19.1103
763.16
453.719
22.9241
22.1664
21.458
20.6408
20.1814
20.2636
20.3351
20.2709
20.1192
19.9075
19.6457
19.325
18.8773
18.1485
17.0764
15.8402
14.8414
14.3475
15.032
16.7976
18.8069
20.643
22.0987
23.0487
23.4747
23.4166
22.9187
22.0054
20.7375
19.373
18.4115
18.1383
18.5624
760.384
450.162
23.0337
22.5903
21.964
20.9934
19.6852
19.0454
19.3671
19.8139
19.9578
19.7671
19.2515
18.3297
16.8103
14.8832
13.5041
13.0695
14.0295
15.2677
15.9933
16.5553
17.2755
18.2744
19.4848
20.7032
21.7589
22.5455
22.9758
22.9823
22.5322
21.653
20.5325
19.6151
19.6089
763.987
450.69
23.7496
23.4834
22.9879
22.1378
20.6166
18.6601
17.8662
18.3078
18.827
18.9347
18.5661
17.5528
15.8173
15.6954
19.5063
21.242
20.9724
20.6501
20.4103
20.2165
20.0491
19.9388
19.9412
20.0782
20.3427
20.7256
21.1895
21.6217
21.8517
21.7577
21.4092
21.192
21.7476
768.955
448.338
23.3455
23.3309
23.1595
22.7708
21.9345
20.1181
17.6628
16.654
17.2701
17.9838
18.1853
17.7381
16.2664
13.087
11.7589
18.4086
22.9181
23.5056
23.1531
22.6813
22.3187
22.1049
21.9929
21.9236
21.8506
21.7509
21.6231
21.474
21.3064
21.1228
20.9546
20.8963
21.211
764.47
447.451
23.5907
23.7099
23.6622
23.4728
23.0463
22.09
19.787
16.5445
15.2887
16.0956
17.1845
17.9814
18.3787
18.1522
16.634
12.694
9.23261
16.8951
22.0771
23.0815
22.7512
22.1141
21.4287
20.8387
20.4427
20.2915
20.4079
20.7342
21.0696
21.1614
20.9013
20.4928
20.5325
765.371
450.286
23.7999
23.7681
23.6884
23.5195
23.1719
22.5092
21.1276
18.052
14.6675
14.0794
14.9819
15.9246
16.6296
17.024
16.9266
15.8529
12.6061
8.47004
12.844
20.1571
24.5404
25.975
25.9797
25.4068
24.5201
23.381
22.086
20.9009
20.1715
20.0072
20.1376
20.4739
21.5515
770.921
452.468
23.7734
23.728
23.7013
23.5979
23.3249
22.7687
21.7396
19.6385
15.6248
12.5016
12.1418
13.0273
14.2426
15.4688
16.5017
17.1751
17.3313
16.7803
15.8489
15.9982
18.0597
21.1233
23.8724
25.4646
25.9461
25.7116
24.9551
23.7096
22.0659
20.5034
19.8212
20.2616
21.6849
770.865
454.209
23.8757
23.8755
23.8967
23.8173
23.5161
22.8099
21.3936
18.9593
15.1129
10.8767
9.33918
10.504
12.7803
14.7712
16.15
16.8825
16.8685
16.125
15.3822
15.0776
15.3189
16.8616
19.5524
22.1967
24.0384
24.9803
25.1612
24.6847
23.5715
22.0287
20.8436
20.7269
21.661
770.003
452.337
23.6081
23.7622
23.8939
23.945
23.8109
23.2951
22.0036
19.1873
13.9588
6.48813
6.1078
13.5132
20.1701
23.3863
23.6461
23.2768
22.5298
21.3632
19.8644
18.2718
16.7908
15.9331
16.5354
18.7575
21.5238
23.7164
24.9884
25.3667
24.946
23.9052
22.7455
22.1516
22.5134
770.794
449.955
23.4881
23.7467
23.9432
24.1129
24.2355
24.2245
23.8765
22.7025
19.6235
13.7622
9.86558
14.7317
19.9287
23.382
24.6696
24.8965
24.7403
24.2386
23.3209
21.9838
20.2287
18.1464
16.1119
15.0178
15.9584
18.4592
20.9908
22.8862
23.9539
24.1347
23.6768
23.1625
23.1449
768.763
448.888
23.3532
23.6612
23.8781
24.043
24.1485
24.1689
24.0686
23.7886
23.0146
20.4501
13.3071
5.75822
4.15899
7.99412
14.7249
23.508
25.3667
25.6319
25.4433
24.8952
23.905
22.3474
20.1886
17.667
15.4325
14.4589
15.0393
16.6151
18.5537
20.3296
21.5232
22.0432
22.3085
765.289
448.642
23.4128
23.7632
24.0146
24.2335
24.4143
24.4827
24.3004
23.7748
22.9535
21.7352
18.9474
11.1825
6.52795
6.95461
5.35322
7.73351
19.0029
24.6533
25.8056
25.9862
25.8206
25.3003
24.3228
22.7992
20.7982
18.6384
16.708
15.3299
14.7698
15.1777
16.4053
17.9239
19.5344
763.987
448.491
23.4047
23.7215
23.9479
24.1744
24.4417
24.719
24.8474
24.6223
23.9176
22.6871
20.7592
16.9274
7.3918
6.08603
5.33719
7.12808
7.07364
12.8916
21.9295
25.2682
26.0179
26.2201
26.1174
25.6794
24.8432
23.5904
21.9838
20.1434
18.1835
16.2657
15.0244
15.6446
17.9069
763.166
448.876
23.5631
23.8291
24.0107
24.209
24.4899
24.8508
25.1369
25.1595
24.8123
24.0178
22.6111
20.2068
15.4997
6.08835
4.23569
5.24468
7.18286
7.21592
10.2259
19.1327
24.3244
25.4899
25.7658
25.7039
25.3584
24.7119
23.767
22.6121
21.4296
20.4205
19.6602
19.3489
19.9551
764.466
449.547
23.5962
23.7074
23.8043
23.9741
24.3205
24.8535
25.357
25.6237
25.58
25.2011
24.4214
23.0114
20.4476
15.5348
7.767
7.25981
5.64439
6.70829
6.01816
9.06918
16.1052
22.7159
24.8463
25.3075
25.142
24.5522
23.5397
22.0553
20.1646
18.2275
17.1357
17.8611
19.8999
767.302
451.823
23.7907
23.6783
23.6496
23.7434
24.101
24.7588
25.439
25.9068
26.1152
26.0731
25.7656
25.1123
23.8715
21.4866
17.0169
10.6435
7.69213
7.38197
3.92299
7.03669
7.98534
16.7197
23.578
27.173
28.6138
28.7898
28.0799
26.499
24.0135
20.9848
18.6546
18.4381
19.863
763.532
454.14
23.8191
23.4988
23.3663
23.3901
23.7197
24.4314
25.2458
25.8933
26.3256
26.5755
26.6659
26.5968
26.3458
25.8031
24.5772
21.8262
17.0203
10.7318
8.84186
5.45213
6.42528
5.85625
9.5221
16.421
22.1696
26.1711
28.362
29.0627
28.5347
27.1985
25.5917
24.2562
23.0572
758.121
454.924
23.6555
23.2467
23.0548
22.9813
23.1339
23.6824
24.5034
25.2724
25.8521
26.2582
26.5291
26.6843
26.7289
26.6609
26.4665
26.0544
25.1025
23.0638
19.7059
15.3263
10.5441
5.7106
5.99643
4.24694
6.75092
10.1784
15.1531
19.1611
22.0102
23.2576
23.5239
23.3049
22.5957
759.906
453.594
23.4823
23.1638
22.9635
22.7551
22.5546
22.6048
23.1827
24.0212
24.7601
25.3172
25.7342
26.0605
26.3257
26.5405
26.687
26.7217
26.579
26.1363
25.143
23.2613
20.3623
16.7956
13.1609
10.0585
7.75892
6.67612
5.69374
5.74239
9.48897
14.1561
17.4555
19.869
21.5143
768.72
453.25
23.6689
23.4822
23.305
23.0208
22.5585
22.0173
21.9854
22.618
23.3641
23.9664
24.4503
24.9043
25.4104
25.994
26.5886
27.0953
27.4163
27.4609
27.1552
26.4198
25.1064
23.063
20.3487
17.2488
14.004
10.8511
6.45058
3.90855
4.33452
4.65204
12.9487
18.3841
21.9994
778.432
453.843
23.7878
23.7042
23.6134
23.3922
22.9375
22.2111
21.6699
21.8764
22.3719
22.8177
23.2843
23.9931
25.2121
26.8522
28.3811
29.4913
30.076
30.1596
29.8379
29.162
28.1228
26.6697
24.7447
22.4071
19.7095
16.2931
10.8071
5.00566
5.53886
13.572
17.9631
21.1402
24.0582
781.631
452.766
23.6366
23.6909
23.7361
23.6672
23.3645
22.7143
21.8624
21.4716
21.6131
21.9115
22.4767
23.9665
27.0309
30.3977
32.1398
32.8116
33.0524
33.0391
32.7858
32.261
31.4206
30.2278
28.6415
26.5748
23.935
20.3147
14.2431
9.78005
8.80035
18.2521
22.1804
23.8037
25.2738
775.476
450.54
23.4713
23.6621
23.831
23.9555
23.961
23.6907
22.918
21.8355
21.242
21.0824
20.8634
20.4764
20.358
22.181
26.5003
30.2044
32.0762
32.9698
33.3967
33.4876
33.2539
32.6741
31.7079
30.2844
28.257
25.3978
21.1297
14.3881
7.53981
13.6416
20.3857
22.7684
24.0089
767.776
449.022
23.4084
23.6467
23.8112
23.9584
24.1119
24.2343
24.1413
23.4709
22.2733
21.3752
21.0507
20.8199
20.2438
19.1537
18.5851
23.0728
28.6426
31.3984
32.6936
33.384
33.7178
33.7308
33.4011
32.6784
31.4833
29.6787
27.0228
23.1464
17.9273
14.0129
16.0119
18.8294
20.7686
762.838
448.49
23.561
23.8111
23.9435
24.0292
24.1152
24.2678
24.493
24.5833
24.1232
22.9827
21.8367
21.2768
21.0266
20.6358
19.8251
18.6942
21.6682
28.001
31.1807
32.5962
33.3696
33.8135
33.9683
33.8078
33.2809
32.3156
30.8043
28.5623
25.4135
21.6214
18.802
18.358
19.3618
761.104
450.25
23.8405
23.9304
23.9703
23.9945
24.0389
24.1757
24.4529
24.7933
24.959
24.5983
23.5095
22.2736
21.5531
21.0968
20.5409
19.666
18.2844
19.7291
26.8468
30.7858
32.4709
33.3573
33.8782
34.1078
34.0303
33.601
32.7551
31.4034
29.4303
26.7952
23.9412
21.9022
21.1414
762.084
454.805
24.1847
23.9125
23.7586
23.6577
23.6649
23.9275
24.4192
24.9348
25.2836
25.3033
24.7864
23.679
22.6391
21.9717
21.3786
20.6383
19.5604
18.0023
19.2108
26.3844
30.4342
32.2369
33.2005
33.7679
34.0212
33.9488
33.5098
32.647
31.2956
29.4242
27.1861
25.1037
23.5858
764.366
459.689
24.3062
23.6878
23.3439
23.0825
23.0247
23.4952
24.3471
25.1166
25.5761
25.6689
25.3559
24.6014
23.6771
22.9141
22.2353
21.4902
20.5264
19.1106
17.4889
20.4316
27.405
30.7021
32.2462
33.1091
33.5992
33.7618
33.5779
33.0095
32.0146
30.5753
28.7828
26.9329
25.2399
766.434
461.285
24.0401
23.2929
22.8277
22.3889
22.2405
22.9571
24.2111
25.2491
25.8275
25.97
25.7244
25.1709
24.4795
23.7946
23.1136
22.3664
21.4347
20.1138
18.2734
17.5084
22.8742
28.7988
31.225
32.4049
33.0639
33.3702
33.3357
32.9383
32.1498
30.9648
29.4554
27.8245
26.158
767.85
459.419
23.7048
23.005
22.4493
21.7877
21.4011
22.179
23.781
25.1372
25.9323
26.2415
26.1756
25.8509
25.3826
24.8421
24.2426
23.5548
22.707
21.5534
19.8894
17.9484
18.6858
24.8838
29.6817
31.5196
32.3999
32.8412
32.9246
32.6462
31.9903
30.9652
29.6412
28.1841
26.6025
768.637
456.446
23.5731
22.9811
22.3908
21.5464
20.6792
20.9505
22.7175
24.5852
25.8022
26.4398
26.6786
26.6436
26.4161
26.0464
25.5604
24.96
24.2172
23.2515
21.9032
20.0206
18.1755
19.696
25.6456
29.9405
31.4979
32.1569
32.3932
32.255
31.7381
30.8588
29.6866
28.3632
26.8498
769.073
454.309
23.5575
23.0649
22.5509
21.7691
20.6367
19.9042
20.9886
23.2397
25.0734
26.193
26.823
27.1314
27.2003
27.0729
26.7768
26.3279
25.7242
24.9337
23.8761
22.3975
20.3796
18.5189
20.0101
25.5898
29.8492
31.3148
31.7682
31.7818
31.4181
30.7003
29.6919
28.5125
27.0986
769.791
453.553
23.5512
23.0539
22.5759
21.9271
20.9941
19.8472
19.4727
21.0659
23.4105
25.18
26.3121
27.0233
27.4462
27.6393
27.6304
27.435
27.0578
26.4875
25.6903
24.594
23.0585
20.9758
18.967
19.8798
24.8626
29.3158
30.9706
31.3084
31.12
30.5428
29.6646
28.5983
27.2644
770.444
454.836
23.6292
22.9509
22.3328
21.5861
20.8277
20.1306
19.4421
19.7432
21.7121
23.9368
25.5529
26.6224
27.3329
27.7932
28.0523
28.1301
28.0288
27.7383
27.2357
26.4825
25.4142
23.9197
21.8881
19.7448
19.7446
23.6947
28.2536
30.2837
30.6578
30.395
29.7217
28.7857
27.5576
772.057
456.832
23.63
22.7178
21.8875
20.8706
20.0231
19.7269
19.7767
20.198
21.5986
23.6504
25.3702
26.5659
27.383
27.9508
28.3472
28.6002
28.703
28.6424
28.4016
27.9486
27.2409
26.2214
24.7998
22.8645
20.651
19.8124
22.6366
27.106
29.3997
29.8511
29.6025
28.9582
27.9761
774.405
457.969
23.4961
22.4139
21.3998
20.1138
19.1292
18.9776
19.479
20.5393
22.1466
24.0198
25.6018
26.7522
27.5817
28.1996
28.6692
29.0215
29.2568
29.3609
29.3169
29.0972
28.6677
27.9899
27.011
25.6462
23.7899
21.5444
20.1294
22.0666
26.3438
28.6103
29.1012
28.8746
28.1931
776.284
457.959
23.3415
22.1866
21.0553
19.5387
18.3332
18.1732
18.7635
20.017
21.8661
23.8639
25.5077
26.7152
27.6084
28.2985
28.8497
29.2938
29.6412
29.8872
30.0166
30.0047
29.8211
29.4316
28.7978
27.8741
26.5865
24.8344
22.6226
20.8442
22.11
25.9633
27.8508
28.3817
28.3644
780.27
457.839
23.2716
22.116
20.9423
19.2249
17.5221
17.0843
17.7481
19.2207
21.326
23.5281
25.2988
26.5834
27.5341
28.2783
28.8891
29.4046
29.8409
30.1985
30.467
30.6256
30.6465
30.4964
30.1383
29.5326
28.6352
27.3841
25.6609
23.3947
21.3479
22.5634
25.7739
27.3222
28.1665
783.778
457.101
23.2047
22.1712
21.0894
19.3569
17.0731
15.8676
16.3481
18.0698
20.5179
22.9965
24.9345
26.3036
27.308
28.0976
28.7567
29.3306
29.8419
30.296
30.6854
30.9895
31.1781
31.214
31.0601
30.683
30.0536
29.1419
27.8973
26.1992
23.9286
22.2758
24.2058
26.2473
27.8692
787.019
455.994
23.2344
22.42
21.5516
20.0528
17.5027
15.0105
14.5155
16.1931
19.0931
22.0424
24.2907
25.8188
26.8975
27.7295
28.4228
29.0365
29.604
30.1405
30.6461
31.1035
31.478
31.7179
31.7674
31.5807
31.1275
30.3846
29.3085
27.7695
25.4876
22.8154
23.4066
25.8231
28.098
788.833
454.968
23.2441
22.6463
22.0161
20.8891
18.6748
15.3685
13.0331
13.7857
17.0471
20.6648
23.3768
25.1411
26.3127
27.181
27.8981
28.5389
29.1436
29.7406
30.3402
30.9263
31.4599
31.882
32.1257
32.1301
31.8502
31.251
30.2769
28.781
26.4669
23.5657
23.281
25.4403
27.6216
784.545
453.819
23.1824
22.7993
22.4021
21.6473
20.0435
16.9729
13.1656
11.6079
14.3993
18.8128
22.1384
24.2226
25.5454
26.4775
27.2205
27.8795
28.5182
29.1755
29.8686
30.5833
31.2618
31.8115
32.1479
32.2243
32.0199
31.5112
30.6447
29.2939
27.2574
24.749
23.8827
25.0999
26.6293
779.06
451.962
23.0502
22.9043
22.7462
22.347
21.3547
19.1377
15.2625
11.2578
11.7342
16.6408
20.7689
23.2548
24.7378
25.7186
26.4708
27.1227
27.7472
28.3932
29.0998
29.8913
30.7464
31.5576
32.1592
32.4331
32.3495
31.9074
31.0793
29.7882
27.958
25.8609
24.7607
25.0757
25.8854
775.362
449.667
22.8962
22.9342
22.9604
22.8706
22.4773
21.3274
18.6369
14.1849
10.4814
13.3886
18.6168
21.8946
23.7701
24.9443
25.7915
26.4882
27.1215
27.7413
28.3876
29.1009
29.9069
30.7716
31.5614
32.1061
32.3045
32.1252
31.5465
30.5314
29.075
27.413
26.2331
25.8508
25.8953
773.335
447.942
22.7835
22.8564
22.9196
22.9687
22.9612
22.6858
21.5792
18.7666
13.9709
10.7794
15.0675
19.6462
22.3014
23.8467
24.8745
25.6797
26.3895
27.0661
27.7593
28.5128
29.359
30.2771
31.1372
31.752
32.0225
31.9468
31.5289
30.76
29.6606
28.393
27.3087
26.6076
26.1196
771.943
447.715
22.8193
22.7811
22.7432
22.7278
22.809
23.0025
23.0472
22.3102
19.761
14.39
9.94517
14.763
19.4661
22.1341
23.6905
24.7155
25.4889
26.1292
26.7124
27.3111
28.0184
28.9238
30.008
31.0388
31.7149
31.9345
31.7476
31.2097
30.3757
29.3623
28.357
27.4935
26.6586
772.178
449.678
23.0113
22.7066
22.4772
22.2874
22.2303
22.4236
22.8007
23.0716
22.7016
20.7134
15.5603
10.1801
14.947
19.743
22.4431
24.0219
25.0758
25.8742
26.5097
27.0254
27.4769
27.9636
28.62
29.5009
30.4091
31.0154
31.193
30.9872
30.4623
29.707
28.8581
28.0464
27.2293
774.275
453.445
23.1276
22.4127
21.9268
21.5532
21.4686
21.7634
22.2587
22.7167
22.9009
22.4253
20.4837
15.4404
11.0423
16.0625
20.102
22.4841
24.039
25.1713
26.0776
26.8247
27.4407
27.9694
28.4926
29.1191
29.8793
30.5838
30.9634
30.9392
30.579
29.9751
29.2366
28.4715
27.6401
775.13
456.813
22.9167
21.8111
21.0272
20.3573
20.2371
20.8306
21.6863
22.3832
22.7085
22.5402
21.664
19.928
17.2598
16.8314
20.1493
22.6397
24.0567
24.9868
25.7175
26.3335
26.8546
27.2985
27.7111
28.1785
28.7934
29.532
30.1685
30.4558
30.3555
29.9573
29.3707
28.6985
27.9107
776.009
457.043
22.4273
21.1922
20.1916
19.1188
18.7031
19.5258
20.9726
22.2075
22.8402
22.8543
22.2862
21.1306
19.5864
18.1958
19.1048
21.9081
24.1078
25.4567
26.3391
26.9946
27.5042
27.8895
28.1705
28.3953
28.6517
29.0297
29.5105
29.8955
29.9954
29.7949
29.376
28.8368
28.1872
777.697
454.502
22.1194
21.0326
19.9691
18.4995
17.3029
17.7872
19.7664
21.7076
22.7992
23.1732
23.1061
22.7859
22.4101
22.2675
22.7035
23.8324
25.0635
26.0445
26.7964
27.3881
27.8568
28.2147
28.4689
28.6376
28.7618
28.9075
29.1338
29.4003
29.554
29.4917
29.2394
28.8972
28.5598
780.666
452.086
22.2239
21.2577
20.2498
18.7272
16.8442
16.2667
18.355
21.2485
23.0183
23.7005
23.8333
23.7599
23.8316
24.3986
25.4135
26.4177
27.1999
27.797
28.2719
28.6558
28.9551
29.1661
29.2864
29.323
29.2983
29.2569
29.2589
29.3361
29.4088
29.3746
29.227
29.0408
28.9238
782.191
452.995
22.3622
21.2234
20.1984
18.8727
16.9079
14.3211
13.8194
17.6567
21.8268
24.0477
24.9667
25.2217
25.1314
25.0364
25.4051
26.3042
27.2805
28.0699
28.6721
29.1292
29.4631
29.6809
29.7868
29.7908
29.7123
29.5858
29.4663
29.4124
29.3941
29.3292
29.2051
29.0765
29.0351
782.652
455.163
22.1676
20.6648
19.3374
17.8897
16.3681
13.9283
10.3993
11.0304
18.0998
22.7306
24.7286
25.6448
26.1043
26.3485
26.5924
27.118
27.9197
28.7117
29.3596
29.8643
30.2384
30.4783
30.577
30.537
30.3756
30.1278
29.8574
29.6579
29.5584
29.4785
29.3782
29.296
29.328
783.838
457.039
21.9932
20.1922
18.5569
16.8017
15.2583
13.1693
9.6712
5.62119
12.8323
20.7344
23.9625
25.3266
26.0542
26.5293
26.8887
27.2486
27.7588
28.4489
29.1794
29.8276
30.3542
30.7468
30.9905
31.0717
30.987
30.7515
30.4097
30.0575
29.8098
29.6645
29.566
29.5141
29.5867
784.62
455.433
21.3355
19.5593
17.8391
15.8136
13.9567
11.9326
9.76844
9.5834
13.5492
19.8538
23.8491
25.4247
26.2654
26.8439
27.3008
27.6922
28.0832
28.5643
29.1608
29.7871
30.3554
30.8229
31.1643
31.3558
31.3788
31.2284
30.9264
30.5444
30.2106
29.9908
29.8561
29.7867
29.8388
785.274
451.769
21.1283
19.8442
18.5894
16.8535
14.7788
12.403
9.54176
8.38465
13.3018
18.8999
22.8159
24.7886
25.8898
26.6365
27.2261
27.7313
28.1829
28.6164
29.0967
29.6517
30.2278
30.7538
31.1833
31.4835
31.6242
31.5814
31.3511
30.9772
30.5742
30.2526
30.0356
29.9161
29.954
785.976
449.193
21.2011
20.2839
19.4934
18.3852
16.7062
14.4815
11.3016
5.34063
7.82628
9.02334
17.566
22.5545
24.6618
25.817
26.6234
27.2957
27.9033
28.4621
28.9895
29.5226
30.0772
30.6204
31.1042
31.4887
31.7416
31.8347
31.7513
31.5079
31.1822
30.8801
30.6547
30.5211
30.541
787.513
447.103
21.0638
20.2603
19.6834
19.1647
18.2946
16.5425
13.9121
10.5762
4.33641
7.32414
12.432
19.6507
23.2484
24.8864
25.8646
26.6359
27.3528
28.0518
28.7244
29.367
29.989
30.5796
31.1076
31.5389
31.8406
31.9841
31.9554
31.7709
31.4923
31.2074
30.9657
30.7816
30.6895
787.342
449.034
21.2659
20.0051
19.2602
19.2465
19.6588
19.3841
17.7195
14.3394
9.37431
7.89641
6.46019
6.30742
18.6225
22.6522
24.3787
25.4143
26.2603
27.096
27.9506
28.7843
29.5726
30.3158
30.9918
31.5643
31.994
32.2432
32.2922
32.1565
31.8922
31.5799
31.2766
31.0163
30.8734
789.233
453.933
20.8555
18.7677
17.2508
16.86
17.5849
17.9645
17.4232
15.7108
13.1189
9.12387
6.4621
5.06158
10.2996
19.8711
23.0356
24.3728
25.2481
26.091
27.0637
28.1438
29.1528
30.0202
30.7907
31.4867
32.0858
32.518
32.7061
32.6375
32.3842
32.0567
31.7457
31.526
31.5669
793.415
455.068
20.5802
18.485
17.0119
16.5871
17.179
17.4645
16.8607
15.0151
12.5577
10.3603
7.0874
7.13167
5.50724
11.5702
20.2954
23.1745
24.3268
25.1313
26.0596
27.3675
28.8666
30.002
30.7969
31.4448
32.0387
32.5736
32.9418
33.0409
32.9025
32.644
32.3754
32.1832
32.211
793.491
450.843
19.935
18.3686
16.9156
15.6158
15.2064
15.4739
15.7179
15.3493
14.142
12.531
10.423
7.1533
5.07332
7.58341
12.8738
21.1873
24.0412
24.9463
25.5079
26.482
28.3925
30.4109
31.6045
32.2596
32.6873
32.9872
33.1724
33.2083
33.0831
32.8391
32.5247
32.1524
31.6563
786.233
443.025
20.5804
20.182
19.4621
18.1857
16.6022
15.5083
15.0712
15.0327
14.9824
14.6722
13.9212
12.3509
9.24686
8.54505
7.65604
11.067
18.8868
24.1706
25.9151
26.3743
26.9875
28.778
30.8948
32.2528
32.9667
33.358
33.5364
33.5356
33.3929
33.1387
32.7761
32.2402
31.2358
780.583
440.634
21.2412
20.6588
19.9289
19.2183
18.7008
18.0262
17.0231
15.8594
14.8329
14.5726
15.1847
15.542
14.9898
13.1814
9.51111
7.556
4.92649
13.0852
21.1075
26.0233
27.8256
28.5161
29.6313
31.16
32.3726
32.9996
33.2307
33.2086
33.006
32.6761
32.2339
31.6032
30.446
778.097
445.769
21.2336
19.6781
18.1645
17.0728
17.7517
18.9463
19.2577
18.3892
16.1337
13.2765
13.2061
15.0826
16.5033
16.9164
16.2861
14.5049
11.2689
6.53326
9.15826
14.059
22.0957
26.6143
28.3598
29.756
31.229
32.4456
33.1293
33.3684
33.2891
32.981
32.5034
31.8464
30.779
780.822
456.23
21.0534
17.8906
14.4509
10.7966
12.0212
15.4407
17.7089
18.6574
18.0196
15.4284
14.1613
15.7048
17.4238
18.4931
18.8633
18.5798
17.5979
15.7862
12.9498
8.7462
7.13129
17.2209
23.7667
26.5852
28.4872
30.2049
31.5954
32.4914
32.9706
33.1127
32.9725
32.5755
31.8016
786.626
458.822
19.9721
16.4503
12.3622
8.04175
7.66003
10.222
12.8823
15.172
16.8051
17.863
19.0146
20.1919
21.0615
21.6043
21.81
21.6839
21.2168
20.36
18.9747
16.7739
13.0288
8.10635
15.7632
21.5631
24.8182
27.1787
29.1147
30.4511
31.2617
31.7347
31.965
32.0005
31.904
792.47
447.155
19.3177
18.1564
16.7708
14.9291
11.9286
9.49852
10.1245
13.1234
16.5874
19.699
21.8992
23.3481
24.216
24.6509
24.7561
24.5896
24.1775
23.5129
22.5364
21.0576
18.6451
13.8994
10.7544
18.6696
22.8388
25.5295
27.7804
29.4956
30.4089
30.7818
30.8908
30.9203
31.147
793.763
441.092
21.4716
21.7742
21.6817
20.9326
19.274
16.7009
13.9853
11.9065
11.212
14.4266
18.3681
21.852
24.1638
25.4354
26.0135
26.1413
25.9466
25.4784
24.7107
23.4892
21.4614
17.6915
11.8611
18.471
22.8275
25.0479
26.955
29.1348
30.8958
31.855
32.2789
32.4566
32.6865
796.294
444.709
21.9874
21.6212
21.349
21.3429
21.6334
21.4086
19.9279
16.5831
8.91361
6.21281
8.40309
15.6672
20.8445
23.8496
25.4198
26.1337
26.3491
26.2155
25.7454
24.7867
22.929
19.2117
12.5804
16.7323
23.1559
25.1858
26.2195
27.6974
29.5089
30.847
31.7098
32.3211
32.7457
791.179
450.713
21.1405
19.5946
18.3286
17.3814
17.5792
18.4256
18.7605
17.8822
14.6196
8.1798
5.8588
9.75429
17.8124
22.4068
24.7238
25.8189
26.3143
26.3785
26.0143
25.0474
22.7836
18.0116
9.94648
14.152
24.6549
27.8143
28.731
29.1626
29.6914
30.1601
30.4709
30.5806
30.1182
776.811
454.183
21.181
19.3441
17.4203
14.9171
13.3402
13.0882
13.0526
12.6632
11.252
6.47814
4.23855
7.40015
13.029
20.3997
23.7428
25.4725
26.3474
26.6769
26.4825
25.5181
23.1701
18.5075
11.5493
12.1731
22.2477
27.2924
29.6697
30.9009
31.4328
31.5523
31.3827
30.8035
29.0533
763.687
451.127
21.1031
20.103
19.0354
17.2167
14.5962
11.6366
8.49498
5.62715
5.23531
5.95254
5.73637
5.84494
8.45079
15.3956
20.8126