/*--------------------------------*- C++ -*----------------------------------*\
| =========                 |                                                 |
| \\      /  F ield         | OpenFOAM: The Open Source CFD Toolbox           |
|  \\    /   O peration     | Version:  v2006                                 |
|   \\  /    A nd           | Website:  www.openfoam.com                      |
|    \\/     M anipulation  |                                                 |
\*---------------------------------------------------------------------------*/
FoamFile
{
    version     2.0;
    format      ascii;
    class       surfaceScalarField;
    location    "17";
    object      phi;
}
// * * * * * * * * * * * * * * * * * * * * * * * * * * * * * * * * * * * * * //

dimensions      [1 0 -1 0 0 0 0];
oriented        oriented;


internalField   nonuniform List<scalar> 
228225
(
-0.000248999
-2.16442e-05
-2.56837e-06
-0.000226621
-1.98927e-05
-2.33948e-06
-0.000203935
-2.00045e-05
-2.5246e-06
-0.000181256
-1.93944e-05
-3.1014e-06
-0.000160411
-1.71454e-05
-3.54862e-06
-0.000140917
-1.56425e-05
-3.69561e-06
-0.000123451
-1.37815e-05
-3.51527e-06
-0.000107576
-1.25666e-05
-3.14574e-06
-9.33672e-05
-1.13826e-05
-2.66602e-06
-8.05906e-05
-1.04786e-05
-2.14186e-06
-6.915e-05
-9.64476e-06
-1.64365e-06
-5.88445e-05
-8.95425e-06
-1.20211e-06
-4.95428e-05
-8.33889e-06
-8.17331e-07
-4.11356e-05
-7.79316e-06
-4.7233e-07
-3.35165e-05
-7.31055e-06
-1.70731e-07
-2.66032e-05
-6.87472e-06
9.5541e-08
-2.03871e-05
-6.48291e-06
3.98273e-07
-1.4764e-05
-6.1279e-06
6.33019e-07
-9.6529e-06
-5.80373e-06
8.17447e-07
-4.98515e-06
-5.50519e-06
9.58552e-07
-7.04079e-07
-5.22672e-06
1.06283e-06
3.23346e-06
-4.96197e-06
1.1373e-06
6.8552e-06
-4.70292e-06
1.18953e-06
1.01739e-05
-4.44177e-06
1.22637e-06
1.31891e-05
-4.17173e-06
1.25394e-06
1.58874e-05
-3.88617e-06
1.27889e-06
1.82395e-05
-3.57722e-06
1.30891e-06
2.01978e-05
-3.23536e-06
1.35304e-06
2.1692e-05
-2.84907e-06
1.42207e-06
2.26238e-05
-2.40431e-06
1.52956e-06
2.28586e-05
-1.88246e-06
1.69263e-06
2.22098e-05
-1.25233e-06
1.93082e-06
2.03775e-05
-4.14188e-07
2.25846e-06
1.56664e-05
1.8528e-06
2.853e-06
1.33584e-05
2.20702e-06
-1.73888e-05
-9.07515e-06
4.81101e-06
-3.15941e-05
-1.03515e-05
4.76837e-06
-4.11432e-05
-1.39305e-05
3.64789e-06
-4.73332e-05
-1.57722e-05
2.7907e-06
-5.02096e-05
-1.59804e-05
2.01507e-06
-5.11194e-05
-1.59036e-05
1.48791e-06
-5.01831e-05
-1.54115e-05
1.03072e-06
-4.82497e-05
-1.48497e-05
6.98589e-07
-4.54198e-05
-1.43096e-05
4.50901e-07
-4.20479e-05
-1.37759e-05
2.78153e-07
-3.83033e-05
-1.32067e-05
1.63946e-07
-3.44179e-05
-1.26004e-05
9.69887e-08
-3.05289e-05
-1.1973e-05
6.72145e-08
-2.67483e-05
-1.13354e-05
6.64095e-08
-2.31652e-05
-1.06874e-05
7.86916e-08
-1.98272e-05
-1.0044e-05
9.45474e-08
-1.67418e-05
-9.42786e-06
1.00465e-07
-1.38869e-05
-8.85893e-06
9.49526e-08
-1.12176e-05
-8.35007e-06
7.51357e-08
-8.68671e-06
-7.90561e-06
4.85323e-08
-6.24752e-06
-7.52127e-06
1.76147e-08
-3.85959e-06
-7.18604e-06
-1.60199e-08
-1.49753e-06
-6.8847e-06
-4.45396e-08
8.62465e-07
-6.5987e-06
-7.71965e-08
3.22505e-06
-6.3064e-06
-1.10127e-07
5.57403e-06
-5.98463e-06
-1.3958e-07
7.87339e-06
-5.6105e-06
-1.61317e-07
1.00718e-05
-5.16453e-06
-1.70415e-07
1.21067e-05
-4.63011e-06
-1.60898e-07
1.39004e-05
-3.98515e-06
-1.25591e-07
1.53405e-05
-3.18352e-06
-5.72201e-08
1.61574e-05
-2.0735e-06
8.03434e-08
1.53106e-05
8.15091e-08
4.15156e-07
8.37621e-06
7.6224e-06
1.22406e-06
1.99264e-05
1.7394e-06
-1.54779e-05
3.88977e-06
2.55093e-06
-2.68778e-05
-2.34081e-06
3.56381e-06
-3.50494e-05
-8.89135e-06
3.50551e-06
-3.91396e-05
-1.45314e-05
3.35236e-06
-3.90647e-05
-1.86967e-05
3.21306e-06
-3.63097e-05
-2.11645e-05
3.15027e-06
-3.15091e-05
-2.26611e-05
3.14939e-06
-2.54126e-05
-2.33621e-05
3.15326e-06
-1.85985e-05
-2.35066e-05
3.15502e-06
-1.15341e-05
-2.32004e-05
3.16073e-06
-4.58306e-06
-2.24993e-05
3.16351e-06
1.97984e-06
-2.14819e-05
3.15433e-06
7.94361e-06
-2.02215e-05
3.12564e-06
1.31498e-05
-1.87786e-05
3.07274e-06
1.74934e-05
-1.72061e-05
2.99303e-06
2.09042e-05
-1.55552e-05
2.88661e-06
2.33374e-05
-1.38775e-05
2.75545e-06
2.47775e-05
-1.22246e-05
2.60299e-06
2.52463e-05
-1.06487e-05
2.43333e-06
2.48173e-05
-9.20608e-06
2.25156e-06
2.36351e-05
-7.96312e-06
2.06325e-06
2.19267e-05
-6.99137e-06
1.87448e-06
1.99784e-05
-6.3361e-06
1.69099e-06
1.80808e-05
-5.98648e-06
1.51819e-06
1.64686e-05
-5.86804e-06
1.36094e-06
1.52693e-05
-5.85294e-06
1.22232e-06
1.44755e-05
-5.78737e-06
1.1044e-06
1.39904e-05
-5.56924e-06
1.01043e-06
1.37087e-05
-5.18124e-06
9.45164e-07
1.35145e-05
-4.60083e-06
9.15403e-07
1.32814e-05
-3.78393e-06
9.30993e-07
1.28506e-05
-2.56725e-06
1.00852e-06
1.17093e-05
8.73973e-08
1.18937e-06
5.96593e-06
1.19165e-05
1.51845e-06
2.43063e-05
1.55493e-06
1.23689e-06
-9.7892e-07
3.69383e-06
2.57706e-06
-9.34447e-06
5.94336e-06
5.5676e-06
-1.77506e-05
6.32705e-06
1.00509e-05
-2.45515e-05
6.07642e-06
1.54472e-05
-2.92266e-05
5.68965e-06
2.17036e-05
-3.21668e-05
5.29955e-06
2.85177e-05
-3.38538e-05
4.92316e-06
3.57091e-05
-3.45988e-05
4.5859e-06
4.30354e-05
-3.45921e-05
4.30397e-06
5.02859e-05
-3.39795e-05
4.0886e-06
5.73033e-05
-3.28786e-05
3.94945e-06
6.39435e-05
-3.13795e-05
3.88551e-06
7.00739e-05
-2.95496e-05
3.87969e-06
7.55766e-05
-2.74413e-05
3.909e-06
8.03474e-05
-2.51e-05
3.95232e-06
8.42898e-05
-2.25699e-05
3.99431e-06
8.73053e-05
-1.98948e-05
4.02659e-06
8.92833e-05
-1.71151e-05
4.04504e-06
9.00952e-05
-1.42709e-05
4.0448e-06
8.95933e-05
-1.14084e-05
4.01731e-06
8.76123e-05
-8.59026e-06
3.94981e-06
8.39791e-05
-5.88818e-06
3.82878e-06
7.85444e-05
-3.36764e-06
3.64536e-06
7.13124e-05
-1.17506e-06
3.39605e-06
6.26446e-05
4.17005e-07
3.09007e-06
5.33409e-05
1.14551e-06
2.7608e-06
4.44334e-05
9.46192e-07
2.45222e-06
3.70269e-05
-1.7866e-07
2.19444e-06
3.13074e-05
-1.33172e-06
1.99341e-06
2.66574e-05
-1.70518e-06
1.84952e-06
2.2514e-05
-1.33189e-06
1.77375e-06
1.83742e-05
-1.40565e-07
1.78574e-06
1.29847e-05
3.55039e-06
1.94267e-06
5.10184e-06
1.74055e-05
2.28605e-06
2.75445e-05
1.77702e-06
1.13456e-07
-5.08863e-06
4.05905e-06
5.63812e-06
-2.05786e-05
5.78932e-06
1.40697e-05
-3.18276e-05
5.66292e-06
2.29801e-05
-3.87173e-05
5.1917e-06
3.13393e-05
-4.24902e-05
4.76976e-06
3.87914e-05
-4.42754e-05
4.46524e-06
4.52498e-05
-4.47993e-05
4.25348e-06
5.07731e-05
-4.4482e-05
4.09612e-06
5.54974e-05
-4.3567e-05
3.96707e-06
5.95713e-05
-4.22016e-05
3.85336e-06
6.31267e-05
-4.0481e-05
3.74756e-06
6.62743e-05
-3.84688e-05
3.64377e-06
6.91039e-05
-3.62101e-05
3.54091e-06
7.16912e-05
-3.37447e-05
3.44203e-06
7.4112e-05
-3.11209e-05
3.35182e-06
7.64516e-05
-2.83947e-05
3.27573e-06
7.87937e-05
-2.56104e-05
3.21969e-06
8.11862e-05
-2.27764e-05
3.19116e-06
8.36036e-05
-1.98585e-05
3.19435e-06
8.59149e-05
-1.67913e-05
3.22918e-06
8.78587e-05
-1.34982e-05
3.29618e-06
8.90563e-05
-9.91382e-06
3.39494e-06
8.9071e-05
-6.02231e-06
3.52257e-06
8.74283e-05
-1.96979e-06
3.64888e-06
8.32024e-05
2.33845e-06
3.71057e-06
7.60734e-05
6.11951e-06
3.65384e-06
6.6637e-05
8.31883e-06
3.45777e-06
5.56756e-05
8.48733e-06
3.11886e-06
4.46413e-05
7.23656e-06
2.73459e-06
3.50494e-05
5.53052e-06
2.40463e-06
2.70077e-05
4.55305e-06
2.14582e-06
2.00119e-05
4.84018e-06
1.94837e-06
1.35405e-05
7.9037e-06
1.85288e-06
5.06526e-06
2.35756e-05
1.88137e-06
3.08708e-05
1.52823e-06
8.25125e-06
-1.6079e-05
2.58399e-06
2.174e-05
-3.68763e-05
2.5344e-06
3.37841e-05
-4.60763e-05
1.9541e-06
4.2739e-05
-4.94237e-05
1.54678e-06
4.90971e-05
-5.03221e-05
1.31933e-06
5.35658e-05
-5.00593e-05
1.20868e-06
5.66807e-05
-4.91519e-05
1.17347e-06
5.88012e-05
-4.78228e-05
1.19121e-06
6.01591e-05
-4.61738e-05
1.24603e-06
6.09079e-05
-4.42636e-05
1.32549e-06
6.11553e-05
-4.21327e-05
1.4199e-06
6.09793e-05
-3.9808e-05
1.52107e-06
6.04408e-05
-3.73084e-05
1.61971e-06
5.9596e-05
-3.4668e-05
1.71415e-06
5.85302e-05
-3.19675e-05
1.80891e-06
5.73928e-05
-2.93245e-05
1.90508e-06
5.63838e-05
-2.68289e-05
2.00358e-06
5.57029e-05
-2.44834e-05
2.10503e-06
5.54968e-05
-2.22015e-05
2.21336e-06
5.58298e-05
-1.98317e-05
2.32797e-06
5.66617e-05
-1.71794e-05
2.44415e-06
5.78246e-05
-1.40393e-05
2.56465e-06
5.89854e-05
-1.02304e-05
2.70557e-06
5.94613e-05
-5.56724e-06
2.8981e-06
5.85805e-05
5.12594e-08
3.17086e-06
5.51986e-05
6.36354e-06
3.44359e-06
4.98615e-05
1.0645e-05
3.54439e-06
4.31399e-05
1.25467e-05
3.43287e-06
3.56598e-05
1.25559e-05
3.2078e-06
2.88475e-05
1.02355e-05
2.92046e-06
2.24865e-05
8.62313e-06
2.64001e-06
1.65244e-05
8.50378e-06
2.42384e-06
1.05672e-05
1.15934e-05
2.33026e-06
4.42095e-06
2.74722e-05
2.28399e-06
3.37503e-05
1.458e-06
8.73819e-06
-2.54396e-05
6.20434e-07
1.64947e-05
-4.40727e-05
-3.20661e-07
2.06169e-05
-4.90648e-05
-7.65244e-07
2.2725e-05
-5.00699e-05
-1.08006e-06
2.40819e-05
-4.99549e-05
-1.34274e-06
2.526e-05
-4.92923e-05
-1.56165e-06
2.64406e-05
-4.82134e-05
-1.73781e-06
2.76324e-05
-4.67696e-05
-1.86813e-06
2.87757e-05
-4.49961e-05
-1.94755e-06
2.9792e-05
-4.29353e-05
-1.97247e-06
3.06082e-05
-4.06322e-05
-1.94299e-06
3.11598e-05
-3.81176e-05
-1.86423e-06
3.13891e-05
-3.54088e-05
-1.74606e-06
3.12588e-05
-3.25519e-05
-1.60042e-06
3.07808e-05
-2.9682e-05
-1.42816e-06
3.00198e-05
-2.69936e-05
-1.21224e-06
2.90667e-05
-2.46184e-05
-9.40172e-07
2.80096e-05
-2.25502e-05
-6.15858e-07
2.69164e-05
-2.06753e-05
-2.42907e-07
2.58389e-05
-1.88238e-05
1.76358e-07
2.48299e-05
-1.67859e-05
6.23903e-07
2.39076e-05
-1.43043e-05
1.09031e-06
2.30035e-05
-1.1076e-05
1.5723e-06
2.19039e-05
-6.73873e-06
2.08028e-06
2.00528e-05
-8.40597e-07
2.63109e-06
1.81351e-05
5.1586e-06
3.1326e-06
1.55155e-05
9.97159e-06
3.33616e-06
1.30242e-05
1.20423e-05
3.15784e-06
1.11382e-05
1.21867e-05
2.64778e-06
9.67773e-06
1.01159e-05
1.96434e-06
9.05205e-06
7.97903e-06
1.46651e-06
8.69095e-06
7.82218e-06
1.14828e-06
4.22332e-06
1.49515e-05
1.14682e-06
4.34919e-07
2.97769e-05
1.64458e-06
3.30372e-05
1.15173e-06
3.9629e-06
-2.89217e-05
-3.49435e-07
5.38126e-06
-4.4862e-05
-4.86232e-07
6.16343e-06
-4.92016e-05
-6.35587e-07
7.29563e-06
-5.04277e-05
-8.37742e-07
8.81524e-06
-5.0521e-05
-1.06031e-06
1.06169e-05
-4.99289e-05
-1.30447e-06
1.25707e-05
-4.8759e-05
-1.57068e-06
1.45234e-05
-4.70544e-05
-1.84427e-06
1.63278e-05
-4.48781e-05
-2.10483e-06
1.7884e-05
-4.234e-05
-2.33351e-06
1.91499e-05
-3.95571e-05
-2.51696e-06
2.01194e-05
-3.66003e-05
-2.64969e-06
2.08049e-05
-3.34988e-05
-2.73442e-06
2.12429e-05
-3.03199e-05
-2.7717e-06
2.1506e-05
-2.72406e-05
-2.75554e-06
2.16747e-05
-2.44792e-05
-2.67782e-06
2.17749e-05
-2.2128e-05
-2.53368e-06
2.17578e-05
-2.01129e-05
-2.32365e-06
2.15135e-05
-1.82752e-05
-2.03445e-06
2.08916e-05
-1.64386e-05
-1.63477e-06
1.97713e-05
-1.44358e-05
-1.11837e-06
1.81629e-05
-1.21279e-05
-5.08768e-07
1.63141e-05
-9.41175e-06
1.58379e-07
1.47814e-05
-6.16707e-06
8.5932e-07
1.44756e-05
-2.23576e-06
1.59089e-06
1.48444e-05
2.40009e-06
2.32841e-06
1.47404e-05
7.11127e-06
2.93704e-06
1.3486e-05
1.009e-05
3.21508e-06
1.18342e-05
1.07267e-05
3.21801e-06
9.53384e-06
9.69128e-06
2.9664e-06
7.93596e-06
7.34353e-06
2.43221e-06
7.33471e-06
6.67865e-06
1.82074e-06
4.95315e-06
1.59056e-05
1.33762e-06
1.09378e-06
3.23273e-05
1.24918e-06
3.32662e-05
8.26234e-07
4.49677e-06
-3.30124e-05
-3.76426e-07
8.05441e-06
-4.75028e-05
-8.90881e-07
1.05071e-05
-5.05849e-05
-1.05831e-06
1.22564e-05
-5.1035e-05
-1.13794e-06
1.35683e-05
-5.05956e-05
-1.23347e-06
1.45485e-05
-4.95449e-05
-1.35736e-06
1.52312e-05
-4.79144e-05
-1.51755e-06
1.56133e-05
-4.57057e-05
-1.72113e-06
1.56955e-05
-4.29972e-05
-1.96096e-06
1.55299e-05
-3.99755e-05
-2.21448e-06
1.52217e-05
-3.6836e-05
-2.45723e-06
1.48902e-05
-3.36773e-05
-2.6723e-06
1.46313e-05
-3.05074e-05
-2.85191e-06
1.45111e-05
-2.73578e-05
-2.99302e-06
1.45759e-05
-2.43913e-05
-3.07956e-06
1.48607e-05
-2.18335e-05
-3.08859e-06
1.53661e-05
-1.97575e-05
-3.00901e-06
1.60403e-05
-1.80439e-05
-2.84086e-06
1.67903e-05
-1.64969e-05
-2.58443e-06
1.74938e-05
-1.49163e-05
-2.23704e-06
1.79938e-05
-1.31156e-05
-1.78754e-06
1.81293e-05
-1.096e-05
-1.24091e-06
1.78762e-05
-8.4366e-06
-6.59776e-07
1.74786e-05
-5.62476e-06
-1.19647e-07
1.74152e-05
-2.5778e-06
3.73774e-07
1.81661e-05
7.24472e-07
8.53575e-07
1.94168e-05
4.36706e-06
1.40876e-06
1.98212e-05
7.58959e-06
2.02708e-06
1.87231e-05
9.44629e-06
2.34906e-06
1.57972e-05
1.02556e-05
2.39232e-06
1.17924e-05
9.3874e-06
2.09873e-06
8.12137e-06
9.01644e-06
1.55724e-06
5.09853e-06
1.78479e-05
1.20704e-06
1.66863e-06
3.46948e-05
1.0513e-06
3.4241e-05
6.39763e-07
2.82656e-06
-3.48785e-05
-6.86298e-07
4.97217e-06
-4.78126e-05
-1.50621e-06
6.17118e-06
-5.01456e-05
-1.37744e-06
6.97041e-06
-5.05187e-05
-1.09412e-06
7.60457e-06
-5.0098e-05
-9.31557e-07
8.14696e-06
-4.90279e-05
-8.7257e-07
8.58138e-06
-4.7271e-05
-8.96935e-07
8.84245e-06
-4.47913e-05
-9.95083e-07
8.91118e-06
-4.17316e-05
-1.15435e-06
8.87395e-06
-3.841e-05
-1.3542e-06
8.8892e-06
-3.51151e-05
-1.57616e-06
9.12621e-06
-3.19655e-05
-1.81261e-06
9.71437e-06
-2.89291e-05
-2.06515e-06
1.06832e-05
-2.5938e-05
-2.3329e-06
1.19144e-05
-2.30227e-05
-2.59434e-06
1.31959e-05
-2.03497e-05
-2.80343e-06
1.43764e-05
-1.8085e-05
-2.92187e-06
1.54323e-05
-1.62502e-05
-2.93704e-06
1.6411e-05
-1.47269e-05
-2.84452e-06
1.73552e-05
-1.33268e-05
-2.62619e-06
1.82368e-05
-1.18266e-05
-2.24043e-06
1.89083e-05
-9.99479e-06
-1.66018e-06
1.91821e-05
-7.72447e-06
-9.56476e-07
1.90185e-05
-5.12481e-06
-2.7269e-07
1.85601e-05
-2.31756e-06
2.65959e-07
1.80897e-05
6.10115e-07
6.30688e-07
1.81747e-05
3.40535e-06
8.95795e-07
1.84699e-05
6.11719e-06
1.17514e-06
1.76527e-05
8.71255e-06
1.55526e-06
1.53879e-05
1.0528e-05
2.11566e-06
1.28033e-05
9.81241e-06
2.5152e-06
9.61832e-06
1.04099e-05
2.05883e-06
4.39741e-06
2.17715e-05
1.30181e-06
1.02189e-06
3.69898e-05
9.70386e-07
3.46397e-05
5.24453e-07
-1.06822e-06
-3.32579e-05
-6.1626e-07
-1.24009e-07
-4.76243e-05
-1.33475e-06
1.81188e-06
-5.08638e-05
-1.42654e-06
3.87669e-06
-5.15019e-05
-1.28593e-06
5.86354e-06
-5.11065e-05
-1.17745e-06
7.64426e-06
-4.9861e-05
-1.13647e-06
9.02447e-06
-4.766e-05
-1.16367e-06
9.81235e-06
-4.44834e-05
-1.24891e-06
1.00016e-05
-4.06948e-05
-1.36189e-06
9.78837e-06
-3.68541e-05
-1.46316e-06
9.45072e-06
-3.335e-05
-1.53033e-06
9.26203e-06
-3.02914e-05
-1.56557e-06
9.45333e-06
-2.75865e-05
-1.58692e-06
1.01709e-05
-2.50607e-05
-1.62002e-06
1.13971e-05
-2.25609e-05
-1.69046e-06
1.29065e-05
-2.0044e-05
-1.80643e-06
1.43725e-05
-1.75986e-05
-1.9445e-06
1.55428e-05
-1.5358e-05
-2.06369e-06
1.63179e-05
-1.33868e-05
-2.12907e-06
1.67171e-05
-1.16388e-05
-2.11532e-06
1.68172e-05
-9.97895e-06
-1.99013e-06
1.66891e-05
-8.22637e-06
-1.69039e-06
1.63384e-05
-6.24087e-06
-1.17014e-06
1.57731e-05
-4.03113e-06
-5.37818e-07
1.51163e-05
-1.68968e-06
4.34485e-08
1.45279e-05
7.32658e-07
4.92424e-07
1.39604e-05
3.19285e-06
8.0779e-07
1.33309e-05
5.68615e-06
1.09006e-06
1.26432e-05
7.96935e-06
1.48505e-06
1.17581e-05
9.40524e-06
2.14853e-06
1.01686e-05
8.824e-06
2.74699e-06
8.08132e-06
1.01534e-05
2.37871e-06
3.6114e-06
2.47577e-05
1.34415e-06
7.29958e-07
3.88767e-05
8.06043e-07
3.49195e-05
3.6038e-07
1.18385e-06
-3.37093e-05
-8.99313e-07
4.76625e-06
-4.97058e-05
-1.47174e-06
8.4722e-06
-5.29366e-05
-1.50989e-06
1.18478e-05
-5.32963e-05
-1.42576e-06
1.47911e-05
-5.25241e-05
-1.35489e-06
1.71274e-05
-5.06714e-05
-1.34152e-06
1.85588e-05
-4.74776e-05
-1.41762e-06
1.89506e-05
-4.30905e-05
-1.59229e-06
1.85695e-05
-3.83337e-05
-1.82025e-06
1.78444e-05
-3.39951e-05
-2.03049e-06
1.70795e-05
-3.03689e-05
-2.17709e-06
1.64173e-05
-2.74001e-05
-2.24813e-06
1.59334e-05
-2.49167e-05
-2.24988e-06
1.57106e-05
-2.27367e-05
-2.19337e-06
1.58372e-05
-2.06961e-05
-2.0932e-06
1.63373e-05
-1.86636e-05
-1.97347e-06
1.71118e-05
-1.65789e-05
-1.86532e-06
1.79789e-05
-1.44797e-05
-1.78963e-06
1.87683e-05
-1.24542e-05
-1.74306e-06
1.93767e-05
-1.05486e-05
-1.70288e-06
1.97692e-05
-8.72549e-06
-1.63919e-06
1.99647e-05
-6.88996e-06
-1.5179e-06
1.9984e-05
-4.94808e-06
-1.29276e-06
1.97874e-05
-2.89312e-06
-9.17923e-07
1.9391e-05
-8.50551e-07
-4.16997e-07
1.8847e-05
1.18767e-06
1.15744e-07
1.81809e-05
3.29284e-06
5.92886e-07
1.73898e-05
5.53374e-06
9.70233e-07
1.63676e-05
7.70341e-06
1.31821e-06
1.48644e-05
9.24072e-06
1.70569e-06
1.18196e-05
9.83578e-06
2.06766e-06
8.31724e-06
1.15101e-05
2.18354e-06
4.76985e-06
2.68453e-05
1.51495e-06
1.62969e-06
4.10675e-05
9.18846e-07
3.60658e-05
3.97797e-07
4.58994e-06
-3.7296e-05
-7.87381e-07
8.47266e-06
-5.23255e-05
-9.8198e-07
1.15323e-05
-5.48453e-05
-9.27319e-07
1.40417e-05
-5.47618e-05
-8.48235e-07
1.59622e-05
-5.34345e-05
-8.15996e-07
1.69651e-05
-5.05936e-05
-8.6598e-07
1.66358e-05
-4.58554e-05
-1.04208e-06
1.51763e-05
-4.00133e-05
-1.33641e-06
1.33725e-05
-3.45877e-05
-1.6533e-06
1.19584e-05
-3.04022e-05
-1.90488e-06
1.12423e-05
-2.73336e-05
-2.07466e-06
1.11744e-05
-2.49421e-05
-2.18381e-06
1.15661e-05
-2.28947e-05
-2.25297e-06
1.22303e-05
-2.09989e-05
-2.29239e-06
1.30386e-05
-1.91445e-05
-2.30368e-06
1.39304e-05
-1.72663e-05
-2.28361e-06
1.48816e-05
-1.53371e-05
-2.22956e-06
1.58602e-05
-1.33769e-05
-2.14527e-06
1.68167e-05
-1.14436e-05
-2.04021e-06
1.77016e-05
-9.58122e-06
-1.92045e-06
1.84705e-05
-7.76682e-06
-1.78145e-06
1.90727e-05
-5.91598e-06
-1.60939e-06
1.94497e-05
-3.94499e-06
-1.38813e-06
1.95491e-05
-1.86658e-06
-1.10963e-06
1.9329e-05
1.84498e-07
-7.82623e-07
1.89162e-05
2.05711e-06
-4.18868e-07
1.84431e-05
3.82251e-06
-2.00217e-08
1.79826e-05
5.66115e-06
3.64107e-07
1.73343e-05
7.6501e-06
7.24728e-07
1.60572e-05
9.4812e-06
1.05301e-06
1.35267e-05
1.10481e-05
1.32635e-06
8.95028e-06
1.44038e-05
1.5913e-06
3.48092e-06
3.0642e-05
1.34027e-06
7.48785e-07
4.27512e-05
8.16739e-07
3.64104e-05
3.12289e-07
3.111e-06
-3.97222e-05
-5.75743e-07
5.33444e-06
-5.37553e-05
-7.83987e-07
7.04723e-06
-5.56989e-05
-9.12197e-07
8.40413e-06
-5.52067e-05
-9.84536e-07
9.20392e-06
-5.32246e-05
-1.07969e-06
8.93974e-06
-4.91103e-05
-1.27752e-06
7.38705e-06
-4.27103e-05
-1.6492e-06
5.22223e-06
-3.57912e-05
-2.12634e-06
3.26473e-06
-3.01836e-05
-2.52287e-06
1.9274e-06
-2.64085e-05
-2.72555e-06
1.33344e-06
-2.40208e-05
-2.76707e-06
1.45416e-06
-2.23605e-05
-2.72248e-06
2.19193e-06
-2.09883e-05
-2.63696e-06
3.42157e-06
-1.96685e-05
-2.53207e-06
5.00523e-06
-1.827e-05
-2.41988e-06
6.79769e-06
-1.67141e-05
-2.30838e-06
8.65179e-06
-1.49654e-05
-2.20268e-06
1.04296e-05
-1.30461e-05
-2.10506e-06
1.20226e-05
-1.10393e-05
-2.01406e-06
1.33721e-05
-9.04025e-06
-1.92262e-06
1.44636e-05
-7.0826e-06
-1.81675e-06
1.52939e-05
-5.11281e-06
-1.67576e-06
1.5836e-05
-3.04487e-06
-1.47597e-06
1.60348e-05
-8.73157e-07
-1.20744e-06
1.58809e-05
1.23895e-06
-8.95333e-07
1.53838e-05
3.14847e-06
-5.75385e-07
1.45867e-05
4.89735e-06
-2.53067e-07
1.35342e-05
6.66344e-06
7.60372e-08
1.22181e-05
8.59356e-06
3.96607e-07
1.04397e-05
1.05863e-05
6.99164e-07
8.03436e-06
1.25309e-05
9.75622e-07
5.45846e-06
1.58664e-05
1.30259e-06
2.28567e-06
3.26153e-05
1.29239e-06
6.4039e-07
4.35796e-05
8.24834e-07
3.67728e-05
3.03193e-07
2.1835e-06
-4.16266e-05
-8.60587e-08
3.43376e-06
-5.48051e-05
2.82276e-08
4.34638e-06
-5.62408e-05
-1.61129e-07
5.02746e-06
-5.53442e-05
-3.33684e-07
5.16318e-06
-5.26154e-05
-5.22178e-07
4.32227e-06
-4.72337e-05
-8.15454e-07
2.75591e-06
-3.96921e-05
-1.27817e-06
1.3802e-06
-3.24868e-05
-1.8265e-06
7.73609e-07
-2.72286e-05
-2.30828e-06
8.1383e-07
-2.38191e-05
-2.62711e-06
1.17942e-06
-2.16172e-05
-2.78473e-06
1.70104e-06
-2.00634e-05
-2.84148e-06
2.34457e-06
-1.88149e-05
-2.84109e-06
3.13569e-06
-1.76823e-05
-2.79914e-06
4.11357e-06
-1.65481e-05
-2.7172e-06
5.30005e-06
-1.53201e-05
-2.59359e-06
6.67439e-06
-1.39201e-05
-2.43127e-06
8.15812e-06
-1.23017e-05
-2.24314e-06
9.62524e-06
-1.04793e-05
-2.04919e-06
1.0942e-05
-8.52187e-06
-1.86473e-06
1.20041e-05
-6.48918e-06
-1.68969e-06
1.27462e-05
-4.37918e-06
-1.50891e-06
1.31467e-05
-2.16633e-06
-1.30276e-06
1.33291e-05
5.46394e-09
-1.06691e-06
1.31587e-05
2.24648e-06
-8.24426e-07
1.28257e-05
4.10127e-06
-5.95424e-07
1.23807e-05
5.74296e-06
-3.71266e-07
1.18255e-05
7.37986e-06
-1.32309e-07
1.11551e-05
9.15716e-06
1.29617e-07
1.02775e-05
1.10624e-05
4.15778e-07
9.02797e-06
1.30992e-05
7.08615e-07
6.73349e-06
1.73742e-05
1.03623e-06
5.33083e-06
3.36711e-05
1.22137e-06
2.25256e-06
4.62631e-05
8.95021e-07
3.85903e-05
3.97455e-07
-4.27755e-07
-4.1622e-05
4.33683e-07
-7.89001e-07
-5.50661e-05
5.91007e-07
-9.23328e-07
-5.64737e-05
3.42374e-07
-8.51806e-07
-5.54636e-05
3.70348e-08
-7.41374e-07
-5.24337e-05
-2.9403e-07
-5.87149e-07
-4.67114e-05
-6.95625e-07
-2.33429e-07
-3.89235e-05
-1.17548e-06
1.30704e-07
-3.1283e-05
-1.63539e-06
5.00194e-07
-2.56907e-05
-1.96678e-06
1.03192e-06
-2.22222e-05
-2.17305e-06
1.72273e-06
-2.00399e-05
-2.29861e-06
2.49697e-06
-1.84822e-05
-2.37509e-06
3.29489e-06
-1.7203e-05
-2.42132e-06
4.08886e-06
-1.60349e-05
-2.44684e-06
4.88329e-06
-1.48897e-05
-2.45389e-06
5.71309e-06
-1.37096e-05
-2.43857e-06
6.63352e-06
-1.24467e-05
-2.39181e-06
7.69289e-06
-1.10601e-05
-2.30253e-06
8.89738e-06
-9.52769e-06
-2.16578e-06
1.01982e-05
-7.85417e-06
-1.98883e-06
1.15103e-05
-6.04807e-06
-1.78286e-06
1.27264e-05
-4.07923e-06
-1.54962e-06
1.36946e-05
-1.87951e-06
-1.28291e-06
1.41808e-05
5.03082e-07
-9.93433e-07
1.4491e-05
2.67873e-06
-7.29121e-07
1.46108e-05
4.53828e-06
-5.26643e-07
1.46718e-05
6.09282e-06
-3.69868e-07
1.47866e-05
7.53669e-06
-2.24621e-07
1.50239e-05
9.0275e-06
-6.31013e-08
1.5257e-05
1.07187e-05
1.34862e-07
1.44459e-05
1.34595e-05
3.74502e-07
8.85112e-06
2.15715e-05
7.53007e-07
1.53148e-06
3.88055e-05
9.90155e-07
-1.34853e-07
4.66338e-05
7.96154e-07
3.81531e-05
2.91975e-07
-1.45791e-06
-4.10231e-05
6.71889e-07
-1.82995e-06
-5.58822e-05
1.15267e-06
-1.57621e-06
-5.77016e-05
1.032e-06
-1.13054e-06
-5.65665e-05
7.6432e-07
-7.15731e-07
-5.31745e-05
4.55393e-07
5.3524e-08
-4.74534e-05
7.56399e-08
1.62681e-06
-4.01105e-05
-3.50139e-07
3.40943e-06
-3.2185e-05
-9.09345e-07
4.56078e-06
-2.5483e-05
-1.42041e-06
5.11784e-06
-2.11038e-05
-1.74414e-06
5.45963e-06
-1.85355e-05
-1.91383e-06
5.80014e-06
-1.6888e-05
-1.99882e-06
6.19816e-06
-1.56194e-05
-2.04023e-06
6.64981e-06
-1.44801e-05
-2.05762e-06
7.13145e-06
-1.33539e-05
-2.05997e-06
7.61513e-06
-1.21768e-05
-2.05039e-06
8.07683e-06
-1.09068e-05
-2.02758e-06
8.50276e-06
-9.5194e-06
-1.98646e-06
8.88714e-06
-8.00943e-06
-1.91906e-06
9.21894e-06
-6.38638e-06
-1.81626e-06
9.47151e-06
-4.65188e-06
-1.66881e-06
9.59725e-06
-2.76404e-06
-1.46514e-06
9.45641e-06
-5.71666e-07
-1.19198e-06
9.08777e-06
1.71002e-06
-8.55922e-07
8.24535e-06
4.03631e-06
-5.19847e-07
6.92613e-06
6.12161e-06
-2.59446e-07
5.25742e-06
7.85153e-06
-8.12234e-08
3.36023e-06
9.38353e-06
6.27572e-08
1.31231e-06
1.08907e-05
2.12279e-07
-5.46133e-07
1.22857e-05
3.82826e-07
-9.71837e-07
1.36277e-05
5.74943e-07
3.70987e-06
1.67152e-05
7.99582e-07
1.38176e-06
4.00153e-05
8.18699e-07
2.46666e-07
4.67653e-05
7.11606e-07
3.81041e-05
2.713e-07
4.36344e-06
-4.59184e-05
8.01309e-07
5.25458e-06
-5.77923e-05
1.293e-06
4.93097e-06
-5.83625e-05
1.24357e-06
3.76447e-06
-5.61636e-05
1.04872e-06
1.40251e-06
-5.1275e-05
7.93419e-07
-1.61844e-06
-4.46404e-05
5.41522e-07
-3.78374e-06
-3.79854e-05
3.23775e-07
-4.22407e-06
-3.15022e-05
-3.53992e-08
-3.42058e-06
-2.55907e-05
-5.63566e-07
-2.15667e-06
-2.12103e-05
-1.07827e-06
-8.28585e-07
-1.8394e-05
-1.42259e-06
4.58999e-07
-1.65261e-05
-1.62233e-06
1.70676e-06
-1.51167e-05
-1.73641e-06
2.93886e-06
-1.39063e-05
-1.80117e-06
4.17755e-06
-1.27609e-05
-1.834e-06
5.43598e-06
-1.16004e-05
-1.84233e-06
6.71435e-06
-1.03681e-05
-1.82839e-06
7.99886e-06
-9.02623e-06
-1.7919e-06
9.26722e-06
-7.56232e-06
-1.73223e-06
1.04999e-05
-5.98933e-06
-1.64907e-06
1.16927e-05
-4.32653e-06
-1.54028e-06
1.28794e-05
-2.57704e-06
-1.39778e-06
1.4241e-05
-7.50584e-07
-1.20542e-06
1.52932e-05
1.59303e-06
-9.47645e-07
1.58886e-05
4.09098e-06
-6.40475e-07
1.62797e-05
6.10844e-06
-3.46605e-07
1.66221e-05
7.65805e-06
-1.09345e-07
1.68907e-05
9.03904e-06
1.10833e-07
1.69094e-05
1.05255e-05
3.68395e-07
1.62189e-05
1.23248e-05
6.78062e-07
1.33843e-05
1.55952e-05
1.05636e-06
1.18853e-05
1.76626e-05
1.53656e-06
1.28382e-05
3.98498e-05
1.21509e-06
6.68432e-06
5.31141e-05
6.99007e-07
4.43465e-05
3.89226e-07
1.07562e-06
-4.78404e-05
1.30603e-06
-2.15465e-06
-5.60963e-05
1.76893e-06
-6.27189e-06
-5.5672e-05
1.56439e-06
-1.04824e-05
-5.30153e-05
1.16543e-06
-1.43289e-05
-4.80062e-05
6.33373e-07
-1.70339e-05
-4.20335e-05
9.4418e-08
-1.81243e-05
-3.67318e-05
-1.8448e-07
-1.72472e-05
-3.20446e-05
-3.49624e-07
-1.46259e-05
-2.76799e-05
-5.46148e-07
-1.11983e-05
-2.38674e-05
-7.86254e-07
-7.78996e-06
-2.08155e-05
-1.00195e-06
-4.72914e-06
-1.84326e-05
-1.16782e-06
-2.03732e-06
-1.65308e-05
-1.29009e-06
3.68602e-07
-1.49445e-05
-1.37911e-06
2.59291e-06
-1.35533e-05
-1.44235e-06
4.74079e-06
-1.22735e-05
-1.48396e-06
6.91778e-06
-1.10475e-05
-1.50533e-06
9.22333e-06
-9.8329e-06
-1.50525e-06
1.17327e-05
-8.59665e-06
-1.48054e-06
1.44754e-05
-7.31028e-06
-1.4275e-06
1.74236e-05
-5.93895e-06
-1.34259e-06
2.04839e-05
-4.42386e-06
-1.22011e-06
2.34353e-05
-2.65179e-06
-1.04944e-06
2.63916e-05
-5.09347e-07
-8.27418e-07
2.95629e-05
1.59877e-06
-6.06268e-07
3.26691e-05
3.5909e-06
-4.8045e-07
3.58959e-05
4.99876e-06
-4.46756e-07
3.9606e-05
5.88609e-06
-4.63246e-07
4.2815e-05
7.75274e-06
-4.84916e-07
4.1386e-05
1.34735e-05
-4.76729e-07
3.07514e-05
2.4376e-05
-4.72712e-07
8.13946e-06
3.57286e-05
-8.84746e-09
-2.58627e-06
4.61107e-05
1.29455e-06
-3.55604e-06
5.20875e-05
1.17198e-06
4.02861e-05
4.20007e-07
-8.26299e-06
-4.15905e-05
2.11377e-06
-1.5972e-05
-5.13012e-05
2.86278e-06
-2.21292e-05
-5.24143e-05
2.72626e-06
-2.63062e-05
-5.1508e-05
2.37704e-06
-2.74829e-05
-4.91984e-05
1.95915e-06
-2.54126e-05
-4.60143e-05
1.52201e-06
-2.1275e-05
-4.22598e-05
1.12733e-06
-1.62557e-05
-3.79985e-05
7.92601e-07
-1.10632e-05
-3.34417e-05
5.06897e-07
-6.27573e-06
-2.89168e-05
2.40318e-07
-2.3355e-06
-2.47529e-05
-6.8765e-09
5.26364e-07
-2.11321e-05
-1.60815e-07
2.38985e-06
-1.80799e-05
-3.13323e-07
3.41688e-06
-1.55306e-05
-4.4307e-07
3.78528e-06
-1.33816e-05
-5.45889e-07
3.64414e-06
-1.15217e-05
-6.19933e-07
3.0908e-06
-9.8437e-06
-6.6252e-07
2.16338e-06
-8.2506e-06
-6.68586e-07
8.39373e-07
-6.65767e-06
-6.29309e-07
-9.65743e-07
-4.98958e-06
-5.30148e-07
-3.40291e-06
-3.16913e-06
-3.48856e-07
-6.7528e-06
-1.03009e-06
-6.63633e-08
-1.08091e-05
9.81762e-07
3.85567e-07
-1.52452e-05
2.97708e-06
8.89676e-07
-2.03377e-05
5.35486e-06
1.25762e-06
-2.56402e-05
7.57237e-06
1.28993e-06
-3.01554e-05
8.6367e-06
1.10619e-06
-3.39305e-05
9.68831e-06
8.55692e-07
-3.8081e-05
1.34943e-05
4.23984e-07
-4.0322e-05
1.89672e-05
-3.47517e-07
-3.90468e-05
2.6543e-05
-1.15735e-06
-2.88197e-05
2.67141e-05
-1.3129e-06
-2.23265e-05
3.80815e-05
-1.13464e-06
-1.23931e-05
4.04059e-05
-5.94182e-07
2.78183e-05
-4.77301e-07
-9.91225e-06
-3.42548e-05
2.05335e-06
-1.54974e-05
-4.8815e-05
2.42289e-06
-1.7926e-05
-5.30284e-05
2.32373e-06
-1.78597e-05
-5.45289e-05
2.18995e-06
-1.53072e-05
-5.46672e-05
2.11153e-06
-1.06632e-05
-5.34998e-05
2.04624e-06
-4.65263e-06
-5.09127e-05
1.93676e-06
2.02736e-06
-4.70036e-05
1.76558e-06
8.72303e-06
-4.20864e-05
1.55079e-06
1.48666e-05
-3.66245e-05
1.31232e-06
1.9993e-05
-3.10764e-05
1.06016e-06
2.37921e-05
-2.57895e-05
8.01269e-07
2.61324e-05
-2.09724e-05
5.43999e-07
2.70502e-05
-1.67276e-05
2.95314e-07
2.67388e-05
-1.31032e-05
5.69312e-08
2.54359e-05
-1.01092e-05
-8.66611e-08
2.34776e-05
-7.66478e-06
-2.0271e-07
2.11175e-05
-5.58544e-06
-2.93453e-07
1.84982e-05
-3.68068e-06
-3.51738e-07
1.57203e-05
-1.83941e-06
-3.71157e-07
1.29651e-05
-7.56853e-08
-3.41283e-07
1.00042e-05
2.16726e-06
-2.45027e-07
6.3983e-06
4.63274e-06
-6.40439e-08
1.62443e-06
7.31612e-06
3.95506e-07
-4.69143e-06
1.03963e-05
1.19149e-06
-1.27148e-05
1.32287e-05
2.23827e-06
-2.25389e-05
1.51881e-05
3.16838e-06
-3.32279e-05
1.68668e-05
3.70198e-06
-4.18679e-05
1.89177e-05
3.6071e-06
-4.07394e-05
1.56654e-05
3.91797e-06
-3.43872e-05
1.75289e-05
4.73673e-06
-1.68052e-05
9.90537e-06
4.76634e-06
4.825e-06
1.96813e-05
3.43643e-06
8.28431e-06
3.93936e-05
1.7593e-06
3.6432e-05
1.21006e-06
-5.05316e-06
-3.09194e-05
1.07155e-06
-4.46692e-06
-5.08323e-05
8.78484e-07
-1.26154e-06
-5.74146e-05
9.02067e-07
2.77272e-06
-5.96126e-05
9.23438e-07
7.12244e-06
-6.00225e-05
9.37847e-07
1.18082e-05
-5.92281e-05
9.55799e-07
1.70547e-05
-5.7315e-05
9.87826e-07
2.30207e-05
-5.42669e-05
1.02901e-06
2.96849e-05
-5.01538e-05
1.0626e-06
3.68368e-05
-4.52253e-05
1.08148e-06
4.41437e-05
-3.9813e-05
1.07905e-06
5.11983e-05
-3.41851e-05
1.04079e-06
5.75693e-05
-2.85227e-05
9.502e-07
6.28628e-05
-2.29697e-05
7.97258e-07
6.68442e-05
-1.77474e-05
5.82423e-07
6.97195e-05
-1.33324e-05
3.19996e-07
7.22294e-05
-1.01982e-05
2.61587e-08
7.49656e-05
-8.09174e-06
-2.11902e-07
7.82435e-05
-6.4698e-06
-4.64566e-07
8.22569e-05
-5.10842e-06
-7.18546e-07
8.70749e-05
-3.89195e-06
-9.76452e-07
9.3177e-05
-2.67497e-06
-1.23777e-06
0.000100769
-1.42961e-06
-1.50813e-06
0.000110353
-5.31094e-07
-1.74847e-06
0.000119839
2.81281e-06
-1.91886e-06
0.000125454
9.76076e-06
-2.06745e-06
0.000127192
1.58244e-05
-2.12173e-06
0.000126439
1.99609e-05
-1.88544e-06
0.000123728
2.26693e-05
-4.08219e-08
0.00011472
2.30767e-05
1.77799e-06
9.63337e-05
3.05102e-05
4.67703e-06
7.10924e-05
3.76981e-05
3.694e-06
4.9176e-05
4.3972e-05
2.78356e-06
2.25958e-05
6.01077e-05
3.98706e-06
5.58942e-05
2.80514e-06
3.8693e-06
-3.48009e-05
-2.79048e-07
1.02272e-05
-5.63449e-05
-8.58706e-07
1.62537e-05
-6.24603e-05
-7.08491e-07
2.11528e-05
-6.35513e-05
-5.40409e-07
2.4959e-05
-6.28699e-05
-4.44346e-07
2.77539e-05
-6.1e-05
-4.23919e-07
2.9703e-05
-5.81369e-05
-4.68829e-07
3.12097e-05
-5.45709e-05
-5.49674e-07
3.28509e-05
-5.06157e-05
-6.16509e-07
3.5242e-05
-4.65856e-05
-6.22098e-07
3.88642e-05
-4.26724e-05
-5.29656e-07
4.3879e-05
-3.87882e-05
-3.37155e-07
5.00356e-05
-3.46474e-05
-7.69231e-08
5.66876e-05
-2.98758e-05
1.38801e-07
6.27017e-05
-2.42068e-05
3.13653e-07
6.70754e-05
-1.81587e-05
3.51209e-07
6.98348e-05
-1.32615e-05
2.48078e-07
7.19074e-05
-1.02786e-05
8.54903e-08
7.41329e-05
-8.58415e-06
-1.20162e-07
7.69568e-05
-7.54913e-06
-3.76204e-07
8.03911e-05
-6.68827e-06
-6.19118e-07
8.39294e-05
-5.3312e-06
-8.6012e-07