/*--------------------------------*- C++ -*----------------------------------*\
| =========                 |                                                 |
| \\      /  F ield         | OpenFOAM: The Open Source CFD Toolbox           |
|  \\    /   O peration     | Version:  v2012                                 |
|   \\  /    A nd           | Website:  www.openfoam.com                      |
|    \\/     M anipulation  |                                                 |
\*---------------------------------------------------------------------------*/
FoamFile
{
    version     2.0;
    format      ascii;
    class       surfaceScalarField;
    location    "82";
    object      phi;
}
// * * * * * * * * * * * * * * * * * * * * * * * * * * * * * * * * * * * * * //

dimensions      [1 0 -1 0 0 0 0];
oriented        oriented;


internalField   nonuniform List<scalar> 
228225
(
-1.10078e-09
-1.04998e-10
9.44773e-10
-2.836e-09
3.3598e-09
-1.62415e-09
-6.51828e-09
5.81556e-09
-2.13123e-09
-1.23517e-08
8.04749e-09
-2.21593e-09
-2.01166e-08
1.00551e-08
-2.28761e-09
-2.9451e-08
1.17814e-08
-2.4483e-09
-3.99597e-08
1.32163e-08
-2.70399e-09
-5.12575e-08
1.43418e-08
-3.04926e-09
-6.29704e-08
1.51768e-08
-3.46073e-09
-7.47643e-08
1.57223e-08
-3.9289e-09
-8.63361e-08
1.6006e-08
-4.43252e-09
-9.74083e-08
1.60366e-08
-4.96515e-09
-1.07742e-07
1.58433e-08
-5.50989e-09
-1.17119e-07
1.5438e-08
-6.06317e-09
-1.25356e-07
1.48526e-08
-6.61096e-09
-1.32303e-07
1.40972e-08
-7.15107e-09
-1.37835e-07
1.32018e-08
-7.67124e-09
-1.41841e-07
1.21767e-08
-8.16982e-09
-1.44254e-07
1.10487e-08
-8.6369e-09
-1.45012e-07
9.82757e-09
-9.06686e-09
-1.44098e-07
8.53756e-09
-9.4529e-09
-1.41489e-07
7.18389e-09
-9.7941e-09
-1.37196e-07
5.79051e-09
-1.00811e-08
-1.31252e-07
4.36777e-09
-1.03137e-08
-1.23703e-07
2.93875e-09
-1.04859e-08
-1.14621e-07
1.51592e-09
-1.05995e-08
-1.04106e-07
1.35885e-10
-1.06518e-08
-9.22369e-08
-1.21871e-09
-1.06484e-08
-7.91661e-08
-2.48079e-09
-1.05897e-08
-6.5056e-08
-3.62992e-09
-1.04802e-08
-5.01329e-08
-4.61618e-09
-1.03078e-08
-3.47348e-08
-5.3758e-09
-1.00227e-08
-1.95224e-08
-5.78274e-09
-9.42856e-09
-6.02247e-09
-5.64728e-09
-7.85354e-09
-3.87296e-09
-2.14908e-09
-3.08522e-09
1.51229e-08
-1.21425e-08
-1.3243e-08
2.72338e-08
-1.37175e-08
-2.59498e-08
3.30101e-08
-1.44884e-08
-4.00098e-08
3.7359e-08
-1.52494e-08
-5.45465e-08
4.04973e-08
-1.59082e-08
-6.89406e-08
4.26471e-08
-1.64698e-08
-8.27311e-08
4.39806e-08
-1.69735e-08
-9.55986e-08
4.46431e-08
-1.74344e-08
-1.07299e-07
4.47442e-08
-1.78653e-08
-1.17689e-07
4.43751e-08
-1.82661e-08
-1.26646e-07
4.36077e-08
-1.86433e-08
-1.34121e-07
4.2505e-08
-1.89936e-08
-1.40073e-07
4.11155e-08
-1.93213e-08
-1.44497e-07
3.94864e-08
-1.96219e-08
-1.47405e-07
3.76568e-08
-1.98982e-08
-1.48827e-07
3.56635e-08
-2.01455e-08
-1.48797e-07
3.35389e-08
-2.03662e-08
-1.47378e-07
3.13137e-08
-2.05557e-08
-1.44633e-07
2.90189e-08
-2.07161e-08
-1.40642e-07
2.66818e-08
-2.0843e-08
-1.35491e-07
2.43221e-08
-2.0938e-08
-1.2927e-07
2.19623e-08
-2.09973e-08
-1.22082e-07
1.9623e-08
-2.10222e-08
-1.14031e-07
1.73245e-08
-2.10081e-08
-1.05221e-07
1.50845e-08
-2.09547e-08
-9.57679e-08
1.29194e-08
-2.08565e-08
-8.5765e-08
1.08434e-08
-2.07117e-08
-7.53427e-08
8.86942e-09
-2.05089e-08
-6.45959e-08
7.00864e-09
-2.0237e-08
-5.36233e-08
5.27178e-09
-1.98749e-08
-4.25086e-08
3.66987e-09
-1.93995e-08
-3.13384e-08
2.22187e-09
-1.87692e-08
-2.0218e-08
9.62931e-10
-1.78658e-08
-9.51362e-09
1.54681e-11
-1.63676e-08
-3.60922e-10
-1.30249e-08
-1.28344e-09
2.58647e-08
-9.45891e-09
-5.95926e-09
4.31857e-08
-1.12748e-08
-1.1753e-08
5.08532e-08
-1.20495e-08
-1.80705e-08
5.63132e-08
-1.26379e-08
-2.45131e-08
6.00516e-08
-1.31118e-08
-3.08006e-08
6.24593e-08
-1.35231e-08
-3.67446e-08
6.3816e-08
-1.3893e-08
-4.22009e-08
6.4342e-08
-1.42429e-08
-4.708e-08
6.41999e-08
-1.45763e-08
-5.13208e-08
6.35185e-08
-1.49033e-08
-5.48884e-08
6.23965e-08
-1.52202e-08
-5.77664e-08
6.09148e-08
-1.55318e-08
-5.9956e-08
5.91381e-08
-1.5832e-08
-6.14698e-08
5.71217e-08
-1.61237e-08
-6.23227e-08
5.4912e-08
-1.64001e-08
-6.25481e-08
5.25501e-08
-1.66632e-08
-6.21732e-08
5.00719e-08
-1.69065e-08
-6.12374e-08
4.75096e-08
-1.7132e-08
-5.97837e-08
4.48966e-08
-1.73322e-08
-5.78503e-08
4.22583e-08
-1.7509e-08
-5.54915e-08
3.96205e-08
-1.7658e-08
-5.27573e-08
3.70099e-08
-1.77801e-08
-4.97104e-08
3.44451e-08
-1.78702e-08
-4.63979e-08
3.1941e-08
-1.7929e-08
-4.28725e-08
2.95107e-08
-1.79513e-08
-3.91759e-08
2.71582e-08
-1.79365e-08
-3.53412e-08
2.48885e-08
-1.78777e-08
-3.14045e-08
2.27005e-08
-1.77703e-08
-2.73796e-08
2.05868e-08
-1.76019e-08
-2.32794e-08
1.85313e-08
-1.73592e-08
-1.91005e-08
1.65061e-08
-1.70169e-08
-1.48124e-08
1.44702e-08
-1.65351e-08
-1.03871e-08
1.23591e-08
-1.58218e-08
-5.76949e-09
1.00796e-08
-1.46806e-08
5.88362e-09
-1.20152e-08
-7.7658e-10
3.06036e-08
-3.96122e-09
-1.90737e-09
4.99074e-08
-5.59318e-09
-3.14321e-09
5.85347e-08
-6.44448e-09
-4.54254e-09
6.47263e-08
-7.01373e-09
-6.08462e-09
6.90448e-08
-7.45145e-09
-7.69917e-09
7.19123e-08
-7.83884e-09
-9.3114e-09
7.36432e-08
-8.21367e-09
-1.08646e-08
7.44776e-08
-8.58227e-09
-1.23104e-08
7.46008e-08
-8.9568e-09
-1.36098e-08
7.41542e-08
-9.33531e-09
-1.47399e-08
7.32502e-08
-9.72395e-09
-1.56858e-08
7.19763e-08
-1.01163e-08
-1.64371e-08
7.04053e-08
-1.05149e-08
-1.69985e-08
6.85949e-08
-1.09119e-08
-1.73738e-08
6.65956e-08
-1.13083e-08
-1.75773e-08
6.44485e-08
-1.16959e-08
-1.76211e-08
6.21907e-08
-1.20751e-08
-1.75256e-08
5.98528e-08
-1.24381e-08
-1.73074e-08
5.74629e-08
-1.27851e-08
-1.69827e-08
5.50442e-08
-1.31093e-08
-1.65807e-08
5.26262e-08
-1.34091e-08
-1.61238e-08
5.02289e-08
-1.36773e-08
-1.56275e-08
4.78655e-08
-1.39144e-08
-1.51164e-08
4.55438e-08
-1.41143e-08
-1.45991e-08
4.32684e-08
-1.42765e-08
-1.40753e-08
4.10319e-08
-1.43961e-08
-1.35407e-08
3.88247e-08
-1.44714e-08
-1.29723e-08
3.66266e-08
-1.44949e-08
-1.23284e-08
3.44036e-08
-1.44616e-08
-1.15412e-08
3.21052e-08
-1.43587e-08
-1.05221e-08
2.9656e-08
-1.41718e-08
-9.12235e-09
2.69526e-08
-1.38805e-08
-7.13289e-09
2.38391e-08
-1.34703e-08
-4.33485e-09
2.01287e-08
-1.28494e-08
1.26045e-08
-1.10532e-08
-1.63297e-09
3.2417e-08
-1.80128e-10
-1.75698e-09
5.14399e-08
-1.40938e-09
-1.12277e-09
6.0075e-08
-2.17356e-09
-1.35694e-10
6.64069e-08
-2.66849e-09
9.96927e-10
7.09507e-08
-3.03797e-09
2.18003e-09
7.41095e-08
-3.3815e-09
3.36287e-09
7.61846e-08
-3.72348e-09
4.50652e-09
7.74097e-08
-4.07698e-09
5.58714e-09
7.79603e-08
-4.43937e-09
6.5841e-09
7.79749e-08
-4.81792e-09
7.48558e-09
7.7558e-08
-5.20805e-09
8.27709e-09
7.67957e-08
-5.6129e-09
8.95306e-09
7.57542e-08
-6.02507e-09
9.50376e-09
7.44902e-08
-6.44569e-09
9.91729e-09
7.30477e-08
-6.8665e-09
1.01888e-08
7.14662e-08
-7.28767e-09
1.03023e-08
6.97767e-08
-7.70092e-09
1.02542e-08
6.80078e-08
-8.10606e-09
1.00313e-08
6.61811e-08
-8.49526e-09
9.62544e-09
6.43181e-08
-8.86805e-09
9.03354e-09
6.24349e-08
-9.21703e-09
8.26074e-09
6.05437e-08
-9.5418e-09
7.30967e-09
5.86509e-08
-9.83602e-09
6.19568e-09
5.67584e-08
-1.00994e-08
4.9296e-09
5.48605e-08
-1.03263e-08
3.53596e-09
5.2943e-08
-1.05164e-08
2.04344e-09
5.09801e-08
-1.06641e-08
5.07188e-10
4.8932e-08
-1.07685e-08
-1.00504e-09
4.67394e-08
-1.08232e-08
-2.39452e-09
4.43188e-08
-1.08231e-08
-3.53631e-09
4.15513e-08
-1.07561e-08
-4.23751e-09
3.82759e-08
-1.06209e-08
-4.22091e-09
3.42626e-08
-1.04413e-08
-3.11854e-09
2.92157e-08
-1.0188e-08
1.85437e-08
-9.05823e-09
-1.61549e-09
3.23275e-08
1.70462e-09
-1.478e-09
5.05424e-08
7.62798e-10
-4.28167e-10
5.8902e-08
1.19614e-10
1.12858e-09
6.51367e-08
-2.83845e-10
2.93027e-09
6.97358e-08
-5.88811e-10
4.84952e-09
7.30681e-08
-8.76025e-10
6.78746e-09
7.54183e-08
-1.17308e-09
8.67929e-09
7.69975e-08
-1.47977e-09
1.04744e-08
7.79706e-08
-1.80428e-09
1.21299e-08
7.84606e-08
-2.14316e-09
1.36228e-08
7.85663e-08
-2.4998e-09
1.49251e-08
7.83617e-08
-2.86849e-09
1.60204e-08
7.79086e-08
-3.24983e-09
1.68927e-08
7.72536e-08
-3.63669e-09
1.75328e-08
7.64371e-08
-4.02931e-09
1.793e-08
7.54897e-08
-4.42036e-09
1.80786e-08
7.44388e-08
-4.80954e-09
1.79701e-08
7.33047e-08
-5.18973e-09
1.76048e-08
7.21059e-08
-5.56041e-09
1.69834e-08
7.08547e-08
-5.91494e-09
1.61121e-08
6.95608e-08
-6.25288e-09
1.49943e-08
6.82283e-08
-6.56827e-09
1.36471e-08
6.68577e-08
-6.86072e-09
1.20889e-08
6.54418e-08
-7.12492e-09
1.03431e-08
6.39665e-08
-7.36063e-09
8.4443e-09
6.2406e-08
-7.56326e-09
6.43403e-09
6.07214e-08
-7.73274e-09
4.37555e-09
5.88561e-08
-7.865e-09
2.34492e-09
5.67298e-08
-7.95939e-09
4.41995e-10
5.4232e-08
-8.00963e-09
-1.20662e-09
5.12091e-08
-8.01088e-09
-2.41888e-09
4.74551e-08
-7.96507e-09
-2.92865e-09
4.26841e-08
-7.91336e-09
-2.39069e-09
3.65282e-08
-7.84981e-09
2.3288e-08
-7.13528e-09
-1.15248e-09
3.13859e-08
2.09251e-09
-8.76367e-10
4.89068e-08
1.36238e-09
1.65063e-10
5.70104e-08
8.48729e-10
1.6343e-09
6.31377e-08
5.292e-10
3.32745e-09
6.77523e-08
2.90434e-10
5.13184e-09
7.12061e-08
5.85636e-11
6.96258e-09
7.37641e-08
-1.77786e-10
8.75732e-09
7.56261e-08
-4.24038e-10
1.04689e-08
7.69421e-08
-6.8215e-10
1.20559e-08
7.78288e-08
-9.54606e-10
1.34858e-08
7.83732e-08
-1.23737e-09
1.47341e-08
7.86451e-08
-1.53183e-09
1.57821e-08
7.86959e-08
-1.83371e-09
1.66101e-08
7.85682e-08
-2.14329e-09
1.72082e-08
7.82933e-08
-2.45481e-09
1.75672e-08
7.78983e-08
-2.76818e-09
1.76815e-08
7.74022e-08
-3.07761e-09
1.75477e-08
7.68215e-08
-3.3829e-09
1.71656e-08
7.6167e-08
-3.67853e-09
1.65371e-08
7.54467e-08
-3.9643e-09
1.56707e-08
7.46632e-08
-4.2351e-09
1.45745e-08
7.38154e-08
-4.49085e-09
1.32625e-08
7.28957e-08
-4.727e-09
1.17592e-08
7.18902e-08
-4.94366e-09
1.00866e-08
7.07755e-08
-5.13686e-09
8.28115e-09
6.95173e-08
-5.30688e-09
6.38931e-09
6.80653e-08
-5.45031e-09
4.46175e-09
6.63501e-08
-5.56771e-09
2.57336e-09
6.4275e-08
-5.65576e-09
8.08468e-10
6.1709e-08
-5.71328e-09
-7.1873e-10
5.84721e-08
-5.73425e-09
-1.86332e-09
5.43242e-08
-5.72579e-09
-2.38899e-09
4.89357e-08
-5.72489e-09
-2.00102e-09
4.18753e-08
-5.73595e-09
2.65511e-08
-5.26306e-09
-6.40629e-10
3.02209e-08
1.8057e-09
-4.33814e-10
4.74375e-08
1.26233e-09
2.64671e-10
5.54333e-08
8.78942e-10
1.23222e-09
6.15242e-08
6.46107e-10
2.34311e-09
6.61717e-08
4.69631e-10
3.52853e-09
6.97187e-08
3.01971e-10
4.7416e-09
7.24253e-08
1.26106e-10
5.93936e-09
7.44832e-08
-5.43326e-11
7.083e-09
7.60394e-08
-2.42061e-10
8.14721e-09
7.72022e-08
-4.37107e-10
9.10588e-09
7.80556e-08
-6.41842e-10
9.94252e-09
7.86614e-08
-8.52423e-10
1.06386e-08
7.90687e-08
-1.06963e-09
1.11837e-08
7.93133e-08
-1.28937e-09
1.1565e-08
7.94238e-08
-1.51187e-09
1.17763e-08
7.94204e-08
-1.73294e-09
1.18112e-08
7.93195e-08
-1.95285e-09
1.16688e-08
7.91315e-08
-2.16736e-09
1.13476e-08
7.8864e-08
-2.37672e-09
1.08534e-08
7.85189e-08
-2.57695e-09
1.01892e-08
7.80953e-08
-2.76837e-09
9.36655e-09
7.75861e-08
-2.94736e-09
8.39518e-09
7.69795e-08
-3.1144e-09
7.29849e-09
7.62553e-08
-3.26624e-09
6.09209e-09
7.53847e-08
-3.40353e-09
4.80779e-09
7.4326e-08
-3.52342e-09
3.47521e-09
7.30218e-08
-3.62673e-09
2.1451e-09
7.13931e-08
-3.71104e-09
8.65595e-10
6.93321e-08
-3.77709e-09
-2.99115e-10
6.66936e-08
-3.8214e-09
-1.26379e-09
6.32804e-08
-3.84266e-09
-1.92618e-09
5.88297e-08
-3.84393e-09
-2.11655e-09
5.29827e-08
-3.85634e-09
-1.63168e-09
4.52682e-08
-3.87787e-09
2.84704e-08
-3.55082e-09
-4.47865e-10
2.91257e-08
1.54313e-09
-4.64072e-10
4.62533e-08
1.20016e-09
-2.06721e-10
5.42178e-08
9.58659e-10
1.96789e-10
6.03066e-08
8.12605e-10
6.87399e-10
6.49814e-08
7.01121e-10
1.22613e-09
6.85871e-08
5.91461e-10
1.79439e-09
7.13795e-08
4.78309e-10
2.36663e-09
7.35511e-08
3.58987e-10
2.92785e-09
7.52441e-08
2.35546e-10
3.45669e-09
7.65667e-08
1.04916e-10
3.94163e-09
7.75984e-08
-2.74802e-11
4.36699e-09
7.83999e-08
-1.64073e-10
4.72206e-09
7.90154e-08
-3.0147e-10
4.9993e-09
7.94792e-08
-4.42764e-10
5.19074e-09
7.98157e-08
-5.83899e-10
5.29262e-09
8.00448e-08
-7.25376e-10
5.29597e-09
8.01779e-08
-8.63668e-10
5.20568e-09
8.02238e-08
-9.99642e-10
5.01387e-09
8.01851e-08
-1.13016e-09
4.72814e-09
8.00623e-08
-1.25605e-09
4.34521e-09
7.98499e-08
-1.37447e-09
3.88114e-09
7.95386e-08
-1.48636e-09
3.33515e-09
7.91121e-08
-1.58912e-09
2.72794e-09
7.85478e-08
-1.68382e-09
2.0683e-09
7.78122e-08
-1.76814e-09
1.37779e-09
7.68603e-08
-1.84327e-09
6.76586e-10
7.56295e-08
-1.90717e-09
-4.88261e-12
7.40362e-08
-1.96123e-09
-6.35059e-10
7.19663e-08
-2.00354e-09
-1.17482e-09
6.92675e-08
-2.03484e-09
-1.57567e-09
6.57336e-08
-2.05214e-09
-1.77548e-09
6.10905e-08
-2.06074e-09
-1.6772e-09
5.4965e-08
-2.07949e-09
-1.16575e-09
4.68635e-08
-2.10607e-09
2.92137e-08
-1.91089e-09
-5.66834e-10
2.81614e-08
1.53163e-09
-8.9558e-10
4.51756e-08
1.40518e-09
-1.06609e-09
5.3089e-08
1.29932e-09
-1.14435e-09
5.91454e-08
1.23921e-09
-1.15701e-09
6.38073e-08
1.18678e-09
-1.11676e-09
6.74175e-08
1.13099e-09
-1.03878e-09
7.02316e-08
1.06809e-09
-9.26325e-10
7.24397e-08
1.00093e-09
-7.9613e-10
7.41842e-08
9.28657e-10
-6.51662e-10
7.55703e-08
8.53689e-10
-5.07744e-10
7.66776e-08
7.74847e-10
-3.65162e-10
7.7564e-08
6.94637e-10
-2.36444e-10
7.82737e-08
6.12174e-10
-1.25077e-10
7.88378e-08
5.30646e-10
-3.74392e-11
7.92802e-08
4.48964e-10
1.95253e-11
7.96168e-08
3.6895e-10
4.99851e-11
7.98592e-08
2.89406e-10
4.73084e-11
8.00128e-08
2.12965e-10
1.47077e-11
8.00805e-08
1.38228e-10
-4.92934e-11
8.00591e-08
6.75394e-11
-1.43491e-10
7.9943e-08
8.14874e-13
-2.6372e-10
7.97199e-08
-6.07636e-11
-4.06932e-10
7.9373e-08
-1.18217e-10
-5.66136e-10
7.88768e-08
-1.69549e-10
-7.34356e-10
7.81974e-08
-2.17061e-10
-9.02717e-10
7.72874e-08
-2.58851e-10
-1.06038e-09
7.60834e-08
-2.96544e-10
-1.1951e-09
7.44997e-08
-3.28778e-10
-1.29253e-09
7.24217e-08
-3.57481e-10
-1.33891e-09
6.96952e-08
-3.81328e-10
-1.31708e-09
6.61138e-08
-4.0211e-10
-1.20439e-09
6.14015e-08
-4.22026e-10
-9.69351e-10
5.51855e-08
-4.57108e-10
-5.72165e-10
4.69699e-08
-5.02332e-10
2.90955e-08
-4.54651e-10
-7.93364e-10
2.72749e-08
1.67882e-09
-1.38346e-09
4.40233e-08
1.744e-09
-1.85786e-09
5.18111e-08
1.75153e-09
-2.24488e-09
5.77738e-08
1.76009e-09
-2.56267e-09
6.23657e-08
1.75737e-09
-2.81242e-09
6.59262e-08
1.74229e-09
-3.00786e-09
6.87058e-08
1.71897e-09
-3.14764e-09
7.08931e-08
1.6883e-09
-3.24576e-09
7.26268e-08
1.65369e-09
-3.30014e-09
7.4012e-08
1.61481e-09
-3.32286e-09
7.51252e-08
1.57425e-09
-3.31589e-09
7.60245e-08
1.53123e-09
-3.2804e-09
7.67518e-08
1.48807e-09
-3.22697e-09
7.73389e-08
1.44372e-09
-3.15226e-09
7.78074e-08
1.40022e-09
-3.06561e-09
7.81727e-08
1.35704e-09
-2.96796e-09
7.8444e-08
1.31609e-09
-2.85726e-09
7.86276e-08
1.27607e-09
-2.74168e-09
7.87238e-08
1.23882e-09
-2.61425e-09
7.87305e-08
1.203e-09
-2.48236e-09
7.86398e-08
1.17028e-09
-2.34166e-09
7.84402e-08
1.13916e-09
-2.19382e-09
7.81131e-08
1.11119e-09
-2.03407e-09
7.76342e-08
1.0847e-09
-1.86642e-09
7.6968e-08
1.06103e-09
-1.68732e-09
7.60687e-08
1.03833e-09
-1.49324e-09
7.48729e-08
1.01766e-09
-1.28756e-09
7.32971e-08
9.96753e-10
-1.07294e-09
7.1228e-08
9.76165e-10
-8.42903e-10
6.85161e-08
9.5313e-10
-6.18399e-10
6.49583e-08
9.27386e-10
-3.94903e-10
6.02867e-08
8.92891e-10
-1.86574e-10
5.41374e-08
8.39071e-10
-6.87918e-12
4.60272e-08
7.63934e-10
2.84153e-08
6.72942e-10
-9.30394e-10
2.64723e-08
1.73027e-09
-1.64876e-09
4.28244e-08
1.92136e-09
-2.26627e-09
5.04276e-08
1.99831e-09
-2.78983e-09
5.62493e-08
2.05034e-09
-3.23611e-09
6.07329e-08
2.077e-09
-3.60464e-09
6.42078e-08
2.08817e-09
-3.90653e-09
6.692e-08
2.08762e-09
-4.14568e-09
6.90523e-08
2.08004e-09
-4.32758e-09
7.07419e-08
2.06648e-09
-4.45361e-09
7.20898e-08
2.04997e-09
-4.53284e-09
7.31721e-08
2.03039e-09
-4.56275e-09
7.40446e-08
2.01005e-09
-4.54877e-09
7.47493e-08
1.98832e-09
-4.49034e-09
7.53158e-08
1.96718e-09
-4.39725e-09
7.57664e-08
1.94572e-09
-4.26563e-09
7.61156e-08
1.92575e-09
-4.09983e-09
7.63735e-08
1.90616e-09
-3.9067e-09
7.65444e-08
1.88857e-09
-3.68478e-09
7.66299e-08
1.8717e-09
-3.43505e-09
7.66261e-08
1.85701e-09
-3.16658e-09
7.65264e-08
1.84305e-09
-2.87458e-09
7.63179e-08
1.8311e-09
-2.56538e-09
7.59839e-08
1.81956e-09
-2.23968e-09
7.54987e-08
1.80951e-09
-1.89899e-09
7.48296e-08
1.79916e-09
-1.5518e-09
7.39304e-08
1.78931e-09
-1.19693e-09
7.27412e-08
1.77787e-09
-8.45663e-10
7.11801e-08
1.76516e-09
-5.03866e-10
6.91392e-08
1.74841e-09
-1.90055e-10
6.64731e-08
1.72703e-09
8.38266e-11
6.29885e-08
1.69692e-09
2.91727e-10
5.8426e-08
1.65426e-09
4.02591e-10
5.24385e-08
1.58654e-09
3.79291e-10
4.45612e-08
1.49044e-09
2.74906e-08
1.30324e-09
-8.50895e-10
2.58079e-08
1.51441e-09
-1.53228e-09
4.17685e-08
1.73813e-09
-2.13049e-09
4.91888e-08
1.83684e-09
-2.64965e-09
5.48701e-08
1.89953e-09
-3.09578e-09
5.9243e-08
1.93518e-09
-3.47207e-09
6.26293e-08
1.9537e-09
-3.78038e-09
6.5268e-08
1.96194e-09
-4.02877e-09
6.73385e-08
1.96214e-09
-4.21758e-09
6.89736e-08
1.95786e-09
-4.35311e-09
7.02736e-08
1.94968e-09
-4.4321e-09
7.13118e-08
1.94003e-09
-4.45956e-09
7.21442e-08
1.9287e-09
-4.43838e-09
7.28108e-08
1.9176e-09
-4.37166e-09
7.33422e-08
1.90614e-09
-4.25942e-09
7.3759e-08
1.89596e-09
-4.10865e-09
7.4077e-08
1.88621e-09
-3.91618e-09
7.43048e-08
1.87833e-09
-3.69174e-09
7.44483e-08
1.87127e-09
-3.43578e-09
7.45075e-08
1.8663e-09
-3.15309e-09
7.44803e-08
1.86218e-09
-2.845e-09
7.43587e-08
1.85997e-09
-2.51441e-09
7.41318e-08
1.85828e-09
-2.17187e-09
7.37815e-08
1.85797e-09
-1.81575e-09
7.32848e-08
1.85745e-09
-1.4504e-09
7.26081e-08
1.85737e-09
-1.08579e-09
7.17086e-08
1.85591e-09
-7.24636e-10
7.05267e-08
1.8534e-09
-3.7596e-10
6.89851e-08
1.84753e-09
-5.36526e-11
6.69786e-08
1.83796e-09
2.28946e-10
6.43687e-08
1.82143e-09
4.53269e-10
6.09685e-08
1.79617e-09
5.92832e-10
5.653e-08
1.75606e-09
6.18894e-10
5.07198e-08
1.69264e-09
4.89292e-10
4.30927e-08
1.59806e-09
2.659e-08
1.39043e-09
-5.82183e-10
2.53913e-08
9.98328e-10
-1.09293e-09
4.11091e-08
1.17003e-09
-1.56661e-09
4.84157e-08
1.24662e-09
-1.99659e-09
5.4007e-08
1.29364e-09
-2.37948e-09
5.83072e-08
1.31801e-09
-2.7108e-09
6.16316e-08
1.33001e-09
-2.99321e-09
6.42169e-08
1.33325e-09
-3.22542e-09
6.62386e-08
1.33129e-09
-3.4054e-09
6.78293e-08
1.32511e-09
-3.53518e-09
6.90865e-08
1.31708e-09
-3.61797e-09
7.00847e-08
1.30737e-09
-3.64775e-09
7.08778e-08
1.29779e-09
-3.63201e-09
7.15071e-08
1.28806e-09
-3.57251e-09
7.20019e-08
1.27969e-09
-3.46992e-09
7.23845e-08
1.27216e-09
-3.32873e-09
7.2669e-08
1.26676e-09
-3.15282e-09
7.28661e-08
1.26277e-09
-2.94649e-09
7.298e-08
1.26126e-09
-2.71328e-09
7.30129e-08
1.26133e-09
-2.4576e-09
7.29609e-08
1.26386e-09
-2.18286e-09
7.2818e-08
1.26772e-09
-1.89792e-09
7.25721e-08
1.27361e-09
-1.60411e-09
7.2207e-08
1.28022e-09
-1.306e-09
7.16985e-08
1.28805e-09
-1.00848e-09
7.10155e-08
1.2956e-09
-7.18143e-10
7.01144e-08
1.30317e-09
-4.38591e-10
6.89387e-08
1.309e-09
-1.78758e-10
6.74114e-08
1.31304e-09
5.52245e-11
6.54317e-08
1.31307e-09
2.5333e-10
6.28631e-08
1.30832e-09
3.98454e-10
5.95255e-08
1.29553e-09
4.82223e-10
5.51764e-08
1.27198e-09
4.77795e-10
4.94932e-08
1.23006e-09
3.60334e-10
4.20426e-08
1.16566e-09
2.59397e-08
1.01165e-09
-2.16579e-10
2.53037e-08
3.03152e-10
-4.92907e-10
4.10189e-08
3.67205e-10
-7.93314e-10
4.83211e-08
3.96407e-10
-1.10299e-09
5.39043e-08
4.0993e-10
-1.39821e-09
5.81919e-08
4.12059e-10
-1.6748e-09
6.15004e-08
4.07277e-10
-1.92208e-09
6.40658e-08
3.98653e-10
-2.13512e-09
6.60652e-08
3.86873e-10
-2.31076e-09
6.76304e-08
3.73722e-10
-2.44329e-09
6.8861e-08
3.59428e-10
-2.53641e-09
6.98303e-08
3.45501e-10
-2.58398e-09
7.05943e-08
3.31903e-10
-2.58979e-09
7.11937e-08
3.19947e-10
-2.55633e-09
7.16594e-08
3.09399e-10
-2.48611e-09
7.20128e-08
3.01416e-10
-2.38161e-09
7.22701e-08
2.95584e-10
-2.25192e-09
7.24407e-08
2.9287e-10
-2.0921e-09
7.25309e-08
2.92673e-10
-1.91875e-09
7.25413e-08
2.95743e-10
-1.72839e-09
7.24701e-08
3.01275e-10
-1.52912e-09
7.23097e-08
3.09823e-10
-1.32798e-09
7.20494e-08
3.20373e-10
-1.12649e-09
7.16719e-08
3.333e-10
-9.28481e-10
7.11544e-08
3.47419e-10
-7.39818e-10
7.04643e-08
3.62938e-10
-5.63759e-10
6.95597e-08
3.78544e-10
-4.02792e-10
6.83829e-08
3.94298e-10
-2.5913e-10
6.68589e-08
4.08761e-10
-1.36301e-10
6.48858e-08
4.21834e-10
-3.37313e-11
6.23298e-08
4.3185e-10
4.3371e-11
5.90106e-08
4.38399e-10
9.03917e-11
5.46888e-08
4.39206e-10
1.09749e-10
4.90436e-08
4.32016e-10
8.99262e-11
4.16463e-08
4.15445e-10
2.56638e-08
3.65874e-10
1.27478e-10
2.55659e-08
-3.92075e-10
7.40742e-11
4.15205e-08
-4.45452e-10
-6.53478e-11
4.89299e-08
-4.69436e-10
-2.57138e-10
5.45878e-08
-4.91591e-10
-4.779e-10
5.89256e-08
-5.14495e-10
-7.03791e-10
6.22649e-08
-5.37127e-10
-9.25414e-10
6.48466e-08
-5.59998e-10
-1.1274e-09
6.68506e-08
-5.8251e-10
-1.30441e-09
6.84123e-08
-6.04949e-10
-1.44958e-09
6.96323e-08
-6.26378e-10
-1.55939e-09
7.05871e-08
-6.46852e-10
-1.63302e-09
7.13328e-08
-6.65346e-10
-1.66904e-09
7.19125e-08
-6.81878e-10
-1.67167e-09
7.23569e-08
-6.9547e-10
-1.64197e-09
7.26897e-08
-7.0625e-10
-1.58471e-09
7.29262e-08
-7.13366e-10
-1.50363e-09
7.30778e-08
-7.17122e-10
-1.40693e-09
7.31496e-08
-7.16865e-10
-1.29706e-09
7.3144e-08
-7.13118e-10
-1.17753e-09
7.30579e-08
-7.05434e-10
-1.06052e-09
7.28851e-08
-6.94496e-10
-9.43414e-10
7.26135e-08
-6.80036e-10
-8.3501e-10
7.22266e-08
-6.62948e-10
-7.37528e-10
7.17002e-08
-6.43127e-10
-6.55232e-10
7.10024e-08
-6.21579e-10
-5.85637e-10
7.00894e-08
-5.98282e-10
-5.31502e-10
6.89037e-08
-5.74257e-10
-4.91924e-10
6.73679e-08
-5.49427e-10
-4.61718e-10
6.53802e-08
-5.24672e-10
-4.35119e-10
6.28036e-08
-4.99655e-10
-4.06868e-10
5.94568e-08
-4.74946e-10
-3.6565e-10
5.50968e-08
-4.49465e-10
-2.99539e-10
4.93994e-08
-4.2186e-10
-1.94551e-10
4.19303e-08
-3.87264e-10
2.57911e-08
-3.226e-10
3.65784e-10
2.61174e-08
-9.18502e-10
4.67594e-10
4.2486e-08
-1.06631e-09
4.48046e-10
5.0083e-08
-1.13283e-09
3.4369e-10
5.58772e-08
-1.1844e-09
1.84021e-10
6.03111e-08
-1.22733e-09
-2.08106e-12
6.37171e-08
-1.26524e-09
-1.98625e-10
6.63423e-08
-1.29961e-09
-3.89585e-10
6.83731e-08
-1.33174e-09
-5.63312e-10
6.99479e-08
-1.3617e-09
-7.12065e-10
7.1172e-08
-1.38987e-09
-8.33997e-10
7.21232e-08
-1.41567e-09
-9.23455e-10
7.28611e-08
-1.4391e-09
-9.7977e-10
7.34292e-08
-1.45941e-09
-1.00852e-09
7.38607e-08
-1.47654e-09
-1.00651e-09
7.41791e-08
-1.48974e-09
-9.83087e-10
7.44019e-08
-1.49905e-09
-9.42833e-10
7.45397e-08
-1.50384e-09
-8.87597e-10
7.45994e-08
-1.50433e-09
-8.25858e-10
7.45823e-08
-1.50009e-09
-7.62887e-10
7.44863e-08
-1.49156e-09
-7.0366e-10
7.43043e-08
-1.47858e-09
-6.532e-10
7.40248e-08
-1.46179e-09
-6.14815e-10
7.363e-08
-1.44122e-09
-5.93463e-10
7.30957e-08
-1.41762e-09
-5.87827e-10
7.23882e-08
-1.3911e-09
-5.99362e-10
7.14632e-08
-1.36242e-09
-6.24293e-10
7.02607e-08
-1.3316e-09
-6.5979e-10
6.87021e-08
-1.29916e-09
-6.96721e-10
6.66815e-08
-1.26474e-09
-7.2421e-10
6.40596e-08
-1.2282e-09
-7.28588e-10
6.0649e-08
-1.18823e-09
-6.90906e-10
5.62018e-08
-1.14296e-09
-5.8769e-10
5.0384e-08
-1.08732e-09
-3.95307e-10
4.27516e-08
-1.01326e-09
2.62529e-08
-8.58219e-10
4.53143e-10
2.68453e-08
-1.18188e-09
6.22815e-10
4.36937e-08
-1.37591e-09
6.58152e-10
5.151e-08
-1.46417e-09
6.02139e-10
5.74648e-08
-1.53057e-09
4.8252e-10
6.20146e-08
-1.58409e-09
3.2771e-10
6.55026e-08
-1.62972e-09
1.55555e-10
6.81842e-08
-1.67047e-09
-1.54283e-11
7.02518e-08
-1.70758e-09
-1.75264e-10
7.18491e-08
-1.74201e-09
-3.14042e-10
7.30846e-08
-1.77376e-09
-4.26858e-10
7.40398e-08
-1.80297e-09
-5.13079e-10
7.47757e-08
-1.82913e-09
-5.70665e-10
7.53384e-08
-1.85208e-09
-6.0005e-10
7.5762e-08
-1.87118e-09
-6.05081e-10
7.60718e-08
-1.88628e-09
-5.92896e-10
7.62852e-08
-1.89682e-09
-5.64377e-10
7.64144e-08
-1.90277e-09
-5.26502e-10
7.64657e-08
-1.90375e-09
-4.86042e-10
7.64416e-08
-1.89996e-09
-4.48115e-10
7.63393e-08
-1.89122e-09
-4.17969e-10
7.61521e-08
-1.87795e-09
-4.00246e-10
7.58673e-08
-1.86019e-09
-3.99985e-10
7.54673e-08
-1.83852e-09
-4.16711e-10
7.49262e-08
-1.8131e-09
-4.52353e-10
7.42097e-08
-1.78461e-09
-5.07407e-10
7.32713e-08
-1.7532e-09
-5.77132e-10
7.20495e-08
-1.71939e-09
-6.54006e-10
7.04625e-08
-1.68302e-09
-7.30166e-10
6.84016e-08
-1.6441e-09
-7.92354e-10
6.57222e-08
-1.60162e-09
-8.19563e-10
6.22318e-08
-1.55434e-09
-7.93807e-10
5.76744e-08
-1.499e-09
-6.85742e-10
5.17059e-08
-1.42958e-09
-4.68228e-10
4.3869e-08
-1.33595e-09
2.69226e-08
-1.13676e-09
4.0459e-10
2.76073e-08
-1.16824e-09
5.58724e-10
4.48977e-08
-1.35616e-09
5.93519e-10
5.29163e-08
-1.44272e-09
5.48374e-10
5.90204e-08
-1.50869e-09
4.47715e-10
6.36783e-08
-1.56175e-09
3.1068e-10
6.72437e-08
-1.60731e-09
1.66415e-10
6.99789e-08
-1.64797e-09
2.02874e-11
7.20824e-08
-1.68529e-09
-1.11891e-10
7.37021e-08
-1.71986e-09
-2.26471e-10
7.49503e-08
-1.75201e-09
-3.14529e-10
7.59107e-08
-1.78149e-09
-3.78e-10
7.6647e-08
-1.80815e-09
-4.14605e-10
7.72066e-08
-1.83146e-09
-4.27073e-10
7.76253e-08
-1.85113e-09
-4.15958e-10
7.79289e-08
-1.86662e-09
-3.89891e-10
7.81361e-08
-1.87774e-09
-3.49945e-10
7.82592e-08
-1.88408e-09
-3.05475e-10
7.83055e-08
-1.88563e-09
-2.57696e-10
7.82769e-08
-1.8822e-09
-2.14649e-10
7.81711e-08
-1.87398e-09
-1.8396e-10
7.79808e-08
-1.86102e-09
-1.64853e-10
7.76934e-08
-1.84372e-09
-1.64482e-10
7.729e-08
-1.82231e-09
-1.86729e-10
7.67443e-08
-1.79732e-09
-2.27894e-10
7.60205e-08
-1.76904e-09
-2.89922e-10
7.5071e-08
-1.73802e-09
-3.68801e-10
7.38319e-08
-1.70442e-09
-4.55078e-10
7.22191e-08
-1.66846e-09
-5.44529e-10
7.01201e-08
-1.62982e-09
-6.21776e-10
6.73869e-08
-1.58788e-09
-6.67781e-10
6.38207e-08
-1.5411e-09
-6.66512e-10
5.91589e-08
-1.4867e-09
-5.89403e-10
5.30474e-08
-1.41858e-09
-4.09463e-10
4.50176e-08
-1.32827e-09
2.76492e-08
-1.13666e-09
2.61939e-10
2.82785e-08
-9.33196e-10
3.38907e-10
4.58924e-08
-1.07149e-09
3.32628e-10
5.40601e-08
-1.1374e-09
2.68709e-10
6.02742e-08
-1.19004e-09
1.68222e-10
6.50119e-08
-1.23384e-09
5.14678e-11
6.86339e-08
-1.27247e-09
-7.15149e-11
7.14081e-08
-1.30795e-09
-1.83258e-10
7.3537e-08
-1.34112e-09
-2.81667e-10
7.51722e-08
-1.37248e-09
-3.59937e-10
7.64283e-08
-1.40194e-09
-4.09318e-10
7.73914e-08
-1.42935e-09
-4.36592e-10
7.81265e-08
-1.45425e-09
-4.33463e-10
7.86828e-08
-1.47627e-09
-4.11405e-10
7.90966e-08
-1.4949e-09
-3.68771e-10
7.9395e-08
-1.50978e-09
-3.08716e-10
7.95972e-08
-1.52048e-09
-2.38814e-10
7.9716e-08
-1.52682e-09
-1.63791e-10
7.97586e-08
-1.52856e-09
-8.8303e-11
7.97276e-08
-1.5257e-09
-1.97601e-11
7.96203e-08
-1.51825e-09
3.92347e-11
7.94293e-08
-1.50645e-09
8.02521e-11
7.91416e-08
-1.49049e-09
1.02827e-10
7.87378e-08
-1.47081e-09
1.05045e-10
7.81908e-08
-1.44775e-09
8.25726e-11
7.7464e-08
-1.42185e-09
3.80499e-11
7.65083e-08
-1.39348e-09
-2.46267e-11
7.52584e-08
-1.36308e-09
-1.03078e-10
7.3628e-08
-1.33081e-09
-1.88194e-10
7.15025e-08
-1.29674e-09
-2.72032e-10
6.87301e-08
-1.26039e-09
-3.38109e-10
6.51084e-08
-1.22088e-09
-3.72375e-10
6.03691e-08
-1.1761e-09
-3.55746e-10
5.41516e-08
-1.12188e-09
-2.62347e-10
4.59786e-08
-1.05326e-09
2.82984e-08
-9.12174e-10
7.31395e-11
2.87687e-08
-5.66223e-10
4.85267e-11
4.65486e-08
-6.28609e-10
-2.26559e-11
5.47931e-08
-6.62187e-10
-1.17736e-10
6.10638e-08
-6.93728e-10
-2.26977e-10
6.58417e-08
-7.22616e-10
-3.33615e-10
6.94913e-08
-7.50137e-10
-4.31011e-10
7.2283e-08
-7.76949e-10
-5.12439e-10
7.44218e-08
-8.0326e-10
-5.71981e-10
7.60611e-08
-8.28987e-10
-6.07063e-10
7.7317e-08
-8.53833e-10
-6.15951e-10
7.8277e-08
-8.77356e-10
-5.95822e-10
7.90073e-08
-8.99074e-10
-5.52851e-10
7.95576e-08
-9.18469e-10
-4.86262e-10
7.99653e-08
-9.35063e-10
-4.00716e-10
8.02579e-08
-9.48398e-10
-2.99558e-10
8.0455e-08
-9.58122e-10
-1.9048e-10
8.05698e-08
-9.63952e-10
-7.61417e-11
8.06099e-08
-9.65733e-10
3.92584e-11
8.05776e-08
-9.63384e-10
1.43008e-10
8.04705e-08
-9.56991e-10
2.40301e-10
8.02809e-08
-9.46699e-10
3.18905e-10
7.99954e-08
-9.32805e-10
3.77814e-10
7.95945e-08
-9.15656e-10
4.13048e-10
7.90505e-08
-8.95708e-10
4.25526e-10
7.8326e-08
-8.73434e-10
4.12217e-10
7.7371e-08
-8.49363e-10
3.75153e-10
7.61194e-08
-8.23971e-10
3.16146e-10
7.44837e-08
-7.97688e-10
2.43033e-10
7.23476e-08
-7.70803e-10
1.59195e-10
6.95577e-08
-7.43397e-10
7.17229e-11
6.59092e-08
-7.15255e-10
-2.0748e-12
6.11313e-08
-6.85628e-10
-5.8332e-11
5.48596e-08
-6.52894e-10
-7.67162e-11
4.66133e-08
-6.17257e-10
2.87749e-08
-5.52685e-10
-1.06804e-10
2.90373e-08
-1.62034e-10
-2.37416e-10
4.68216e-08
-1.40986e-10
-3.76435e-10
5.50689e-08
-1.38717e-10
-5.05709e-10
6.13408e-08
-1.46609e-10
-6.23279e-10
6.61175e-08
-1.58614e-10
-7.21204e-10
6.97636e-08
-1.73239e-10
-7.99793e-10
7.25499e-08
-1.89972e-10
-8.50367e-10
7.46818e-08
-2.08204e-10
-8.75784e-10
7.63127e-08
-2.27278e-10
-8.7125e-10
7.75595e-08
-2.46564e-10
-8.39315e-10
7.85099e-08
-2.65415e-10
-7.78502e-10
7.92306e-08
-2.83216e-10
-6.93785e-10
7.97718e-08
-2.9938e-10
-5.8591e-10
8.01713e-08
-3.13386e-10
-4.59904e-10
8.04568e-08
-3.2476e-10
-3.20856e-10
8.06483e-08
-3.33142e-10
-1.72117e-10
8.07591e-08
-3.38236e-10
-1.83662e-11
8.07971e-08
-3.39888e-10
1.33829e-10
8.07644e-08
-3.38023e-10
2.76306e-10
8.06587e-08
-3.32718e-10
4.09729e-10
8.04723e-08
-3.24119e-10
5.26516e-10
8.01917e-08
-3.12519e-10
6.21534e-10
7.97968e-08
-2.98278e-10
6.95062e-10
7.926e-08
-2.8187e-10
7.40629e-10
7.85432e-08
-2.63801e-10
7.60227e-10
7.75964e-08
-2.44677e-10
7.53277e-10
7.63528e-08
-2.25086e-10
7.16461e-10
7.47246e-08
-2.05679e-10
6.56752e-10
7.2595e-08
-1.87078e-10
5.73089e-10
6.98105e-08
-1.69885e-10
4.72006e-10
6.61657e-08
-1.54727e-10
3.5572e-10
6.13899e-08
-1.42276e-10
2.30762e-10
5.51187e-08
-1.33523e-10
1.05402e-10
4.6872e-08
-1.342e-10
2.90344e-08
-1.53566e-10
-2.51227e-10
2.90847e-08
2.04381e-10
-4.70404e-10
4.67382e-08
3.02055e-10
-6.64304e-10
5.49261e-08
3.37174e-10
-8.28121e-10
6.1152e-08
3.50977e-10
-9.55484e-10
6.58923e-08
3.54291e-10
-1.05262e-09
6.95083e-08
3.50979e-10
-1.11413e-09
7.2269e-08
3.43165e-10
-1.14418e-09
7.43784e-08
3.32249e-10
-1.13946e-09
7.59896e-08
3.19252e-10
-1.10431e-09
7.72185e-08
3.05161e-10
-1.03753e-09
7.8153e-08
2.90743e-10
-9.43684e-10
7.88594e-08
2.76723e-10
-8.25163e-10
7.93883e-08
2.63719e-10
-6.80622e-10
7.97772e-08
2.52296e-10
-5.23124e-10
8.00541e-08
2.42892e-10
-3.50015e-10
8.02391e-08
2.35914e-10
-1.67199e-10
8.03457e-08
2.3161e-10
1.83901e-11
8.03815e-08
2.30166e-10
2.00728e-10
8.03491e-08
2.31618e-10
3.78583e-10
8.0246e-08
2.35941e-10
5.44491e-10
8.00644e-08
2.42938e-10
6.91652e-10
7.97907e-08
2.52361e-10
8.1977e-10