/*--------------------------------*- C++ -*----------------------------------*\
| =========                 |                                                 |
| \\      /  F ield         | OpenFOAM: The Open Source CFD Toolbox           |
|  \\    /   O peration     | Version:  v2012                                 |
|   \\  /    A nd           | Website:  www.openfoam.com                      |
|    \\/     M anipulation  |                                                 |
\*---------------------------------------------------------------------------*/
FoamFile
{
    version     2.0;
    format      ascii;
    class       volVectorField;
    location    "82";
    object      U;
}
// * * * * * * * * * * * * * * * * * * * * * * * * * * * * * * * * * * * * * //

dimensions      [0 1 -1 0 0 0 0];


internalField   nonuniform List<vector> 
78750
(
(-1.08852e-06 -6.30593e-05 0.000125833)
(-2.14175e-06 -9.06841e-05 0.000220407)
(-7.02806e-06 -9.52119e-05 0.000268947)
(-1.50087e-05 -9.07098e-05 0.000302502)
(-2.6431e-05 -8.09982e-05 0.000324402)
(-4.08292e-05 -6.8396e-05 0.000337317)
(-5.75593e-05 -5.46031e-05 0.000343208)
(-7.59021e-05 -4.07335e-05 0.000343647)
(-9.52592e-05 -2.75875e-05 0.000339804)
(-0.000115015 -1.5617e-05 0.000332659)
(-0.000134633 -5.19903e-06 0.000322942)
(-0.000153642 3.57011e-06 0.000311295)
(-0.000171602 1.05606e-05 0.000298191)
(-0.000188136 1.58312e-05 0.00028408)
(-0.000202908 1.93733e-05 0.000269294)
(-0.000215639 2.13052e-05 0.000254181)
(-0.000226102 2.16663e-05 0.000239003)
(-0.000234099 2.05975e-05 0.000224055)
(-0.000239482 1.81546e-05 0.000209568)
(-0.000242145 1.44774e-05 0.000195806)
(-0.000242022 9.62913e-06 0.000182972)
(-0.000239081 3.75595e-06 0.000171295)
(-0.000233311 -3.05136e-06 0.000160938)
(-0.000224748 -1.06227e-05 0.000152066)
(-0.000213459 -1.88271e-05 0.000144756)
(-0.000199543 -2.74378e-05 0.00013905)
(-0.000183143 -3.62283e-05 0.000134863)
(-0.000164407 -4.48394e-05 0.000132003)
(-0.000143541 -5.28651e-05 0.000130114)
(-0.000120802 -5.97057e-05 0.000128618)
(-9.63905e-05 -6.46105e-05 0.000126605)
(-7.04356e-05 -6.65069e-05 0.000122714)
(-4.37888e-05 -6.39572e-05 0.000114983)
(-2.17965e-05 -5.50256e-05 0.000100473)
(-5.85493e-06 -3.17953e-05 6.37406e-05)
(-1.99277e-06 8.90258e-05 -0.000179039)
(-1.58748e-05 0.000187244 -0.000272585)
(-3.1369e-05 0.000240898 -0.000307532)
(-5.42922e-05 0.000284445 -0.000336605)
(-7.88102e-05 0.000318208 -0.000360018)
(-0.000103272 0.000342967 -0.000378195)
(-0.000126932 0.000360156 -0.000392347)
(-0.000149295 0.000370493 -0.000403851)
(-0.000169874 0.000375191 -0.00041314)
(-0.000188375 0.00037469 -0.000420846)
(-0.000204565 0.000369974 -0.00042702)
(-0.000218289 0.000361325 -0.000432051)
(-0.00022951 0.000349518 -0.000435895)
(-0.000238176 0.000334745 -0.000438836)
(-0.000244283 0.00031772 -0.000440756)
(-0.000247887 0.000298551 -0.000441898)
(-0.000249025 0.000277865 -0.000442132)
(-0.000247794 0.000255745 -0.000441662)
(-0.000244287 0.000232739 -0.000440362)
(-0.000238638 0.000208921 -0.000438392)
(-0.000230954 0.000184783 -0.000435619)
(-0.000221429 0.000160298 -0.000432203)
(-0.000210194 0.000135906 -0.000427995)
(-0.000197432 0.000111673 -0.000423051)
(-0.000183311 8.79894e-05 -0.000417166)
(-0.000168022 6.49059e-05 -0.000410304)
(-0.000151732 4.27749e-05 -0.000402133)
(-0.00013464 2.1649e-05 -0.000392281)
(-0.000116935 1.86208e-06 -0.000379966)
(-9.88104e-05 -1.64952e-05 -0.000364233)
(-8.03141e-05 -3.30147e-05 -0.000343473)
(-6.12177e-05 -4.72974e-05 -0.000314845)
(-4.14855e-05 -5.8064e-05 -0.000271693)
(-2.52775e-05 -6.22844e-05 -0.000206087)
(-1.3973e-05 -4.38907e-05 -7.34253e-05)
(8.90269e-08 0.000245679 -0.000143181)
(-7.62964e-06 0.000420897 -0.000234315)
(-1.41451e-05 0.000497814 -0.00027125)
(-2.45185e-05 0.00055237 -0.000295873)
(-3.55256e-05 0.000589406 -0.00031309)
(-4.63021e-05 0.000613213 -0.000325455)
(-5.65786e-05 0.000626224 -0.000334853)
(-6.613e-05 0.000630976 -0.000342082)
(-7.47913e-05 0.000628716 -0.000347989)
(-8.24197e-05 0.000621059 -0.000352758)
(-8.89561e-05 0.000608637 -0.000356827)
(-9.43324e-05 0.000592588 -0.000360123)
(-9.85677e-05 0.000573228 -0.000362924)
(-0.000101645 0.000551434 -0.000365076)
(-0.000103618 0.000527373 -0.000366788)
(-0.000104499 0.000501767 -0.00036789)
(-0.000104368 0.000474717 -0.000368558)
(-0.000103246 0.000446835 -0.000368637)
(-0.000101242 0.000418275 -0.000368214)
(-9.83783e-05 0.000389576 -0.000367138)
(-9.47923e-05 0.000360679 -0.000365611)
(-9.05103e-05 0.000332115 -0.00036346)
(-8.56639e-05 0.000303912 -0.00036078)
(-8.03283e-05 0.000276462 -0.000357404)
(-7.46061e-05 0.000249768 -0.000353365)
(-6.85541e-05 0.000224146 -0.000348431)
(-6.22582e-05 0.00019956 -0.000342487)
(-5.57509e-05 0.000176247 -0.000335088)
(-4.91075e-05 0.000154116 -0.000325766)
(-4.23355e-05 0.00013331 -0.000313571)
(-3.54526e-05 0.000113649 -0.000297174)
(-2.82394e-05 9.51387e-05 -0.000273989)
(-2.04258e-05 7.73941e-05 -0.00023958)
(-1.30333e-05 6.02654e-05 -0.000188676)
(-8.78668e-06 3.28672e-05 -7.61187e-05)
(-3.25137e-08 0.000328604 -2.0239e-05)
(-3.38248e-06 0.000541917 -8.16323e-05)
(-4.04894e-06 0.000636683 -0.000115974)
(-6.26596e-06 0.000704024 -0.000140065)
(-8.81556e-06 0.000750428 -0.000156081)
(-1.15153e-05 0.000780357 -0.000168001)
(-1.42246e-05 0.00079764 -0.000177663)
(-1.68954e-05 0.000804655 -0.000186193)
(-1.94073e-05 0.000803788 -0.00019391)
(-2.17203e-05 0.000796294 -0.000201325)
(-2.37495e-05 0.000783754 -0.000208421)
(-2.54944e-05 0.000766829 -0.000215466)
(-2.69056e-05 0.000746646 -0.000222295)
(-2.80064e-05 0.000723561 -0.000229066)
(-2.87777e-05 0.000698439 -0.000235564)
(-2.92616e-05 0.000671472 -0.000241902)
(-2.94542e-05 0.000643362 -0.000247858)
(-2.94086e-05 0.000614212 -0.000253527)
(-2.91289e-05 0.000584606 -0.000258697)
(-2.86793e-05 0.000554571 -0.000263467)
(-2.80528e-05 0.000524748 -0.000267551)
(-2.73315e-05 0.0004952 -0.000270985)
(-2.65191e-05 0.000466313 -0.000273588)
(-2.56765e-05 0.000438022 -0.000275408)
(-2.48122e-05 0.000410617 -0.00027623)
(-2.39471e-05 0.000383869 -0.000276105)
(-2.30605e-05 0.000357924 -0.000274752)
(-2.21564e-05 0.000332522 -0.000272024)
(-2.11591e-05 0.000307585 -0.000267453)
(-2.00171e-05 0.000282617 -0.000260558)
(-1.85735e-05 0.000257171 -0.000250416)
(-1.65345e-05 0.000230335 -0.000236057)
(-1.33154e-05 0.000201006 -0.000215785)
(-9.15473e-06 0.000167567 -0.000185038)
(-6.94246e-06 0.00010243 -9.81729e-05)
(-1.66383e-06 0.00035702 5.32331e-05)
(-3.85963e-06 0.000574335 1.89165e-05)
(-2.50196e-06 0.00067218 -8.7755e-06)
(-1.10685e-06 0.000743248 -2.91306e-05)
(6.74467e-07 0.0007934 -4.26579e-05)
(2.62787e-06 0.000827588 -5.28425e-05)
(4.623e-06 0.00084901 -6.17532e-05)
(6.57792e-06 0.000860655 -6.99678e-05)
(8.44073e-06 0.000864273 -7.7932e-05)
(1.01842e-05 0.000861767 -8.5714e-05)
(1.17693e-05 0.000854075 -9.36228e-05)
(1.31908e-05 0.000842488 -0.000101539)
(1.44149e-05 0.000827505 -0.000109618)
(1.54469e-05 0.000810066 -0.000117662)
(1.62514e-05 0.000790432 -0.00012576)
(1.6832e-05 0.000769331 -0.000133693)
(1.71532e-05 0.000746889 -0.000141519)
(1.72167e-05 0.000723692 -0.000149023)
(1.699e-05 0.000699784 -0.000156251)
(1.64747e-05 0.000675662 -0.00016299)
(1.5637e-05 0.000651344 -0.000169266)
(1.45031e-05 0.000627212 -0.000174884)
(1.30559e-05 0.000603176 -0.000179878)
(1.13343e-05 0.000579479 -0.00018407)
(9.33564e-06 0.000555931 -0.000187479)
(7.11057e-06 0.000532603 -0.000189924)
(4.6809e-06 0.000509129 -0.000191388)
(2.13513e-06 0.000485317 -0.000191651)
(-4.45619e-07 0.000460491 -0.000190581)
(-2.91743e-06 0.000434019 -0.000187774)
(-5.1264e-06 0.000404658 -0.000182889)
(-6.73584e-06 0.000371014 -0.000175738)
(-7.1057e-06 0.000330722 -0.000166525)
(-5.65058e-06 0.000281045 -0.000151211)
(-5.10076e-06 0.000177367 -8.93872e-05)
(-2.03211e-06 0.000364333 8.55185e-05)
(-3.39683e-06 0.000573308 6.76356e-05)
(-1.74423e-06 0.00066874 4.62579e-05)
(4.60127e-07 0.000739159 2.97068e-05)
(3.30565e-06 0.000790549 1.87094e-05)
(6.45276e-06 0.000826958 1.0086e-05)
(9.70951e-06 0.00085192 2.42168e-06)
(1.29298e-05 0.000867676 -4.94785e-06)
(1.60275e-05 0.000876396 -1.22343e-05)
(1.8918e-05 0.000879269 -1.96968e-05)
(2.15594e-05 0.000877696 -2.72846e-05)
(2.38973e-05 0.000872307 -3.51483e-05)
(2.59089e-05 0.000864078 -4.30962e-05)
(2.75528e-05 0.000853338 -5.12015e-05)
(2.88239e-05 0.000840809 -5.9291e-05)
(2.96891e-05 0.000826646 -6.74014e-05)
(3.01519e-05 0.000811412 -7.53488e-05)
(3.01834e-05 0.000795158 -8.3156e-05)
(2.97932e-05 0.000778329 -9.06423e-05)
(2.89649e-05 0.0007609 -9.78272e-05)
(2.77213e-05 0.00074321 -0.000104541)
(2.60528e-05 0.000725155 -0.000110806)
(2.39948e-05 0.000706963 -0.00011646)
(2.15572e-05 0.000688434 -0.000121524)
(1.87931e-05 0.000669631 -0.000125847)
(1.57308e-05 0.000650166 -0.000129448)
(1.24521e-05 0.000629825 -0.000132185)
(9.02554e-06 0.000607911 -0.00013406)
(5.5824e-06 0.000583777 -0.000134885)
(2.24264e-06 0.000556184 -0.000134546)
(-8.05814e-07 0.000523722 -0.000132788)
(-3.28154e-06 0.000484184 -0.000129965)
(-4.58366e-06 0.000434785 -0.000126796)
(-4.08708e-06 0.000371585 -0.000120029)
(-3.9272e-06 0.000236487 -7.573e-05)
(-1.62952e-06 0.00035587 8.7174e-05)
(-2.24104e-06 0.000554848 7.68458e-05)
(-7.45042e-07 0.000646464 6.04388e-05)
(1.38109e-06 0.000715355 4.75001e-05)
(4.06506e-06 0.000766732 3.87847e-05)
(7.02503e-06 0.000804784 3.19094e-05)
(1.00902e-05 0.000832339 2.55587e-05)
(1.31396e-05 0.000851873 1.94435e-05)
(1.60842e-05 0.0008649 1.3324e-05)
(1.88522e-05 0.000872981 7.18089e-06)
(2.13813e-05 0.000876922 8.73916e-07)
(2.36267e-05 0.000877744 -5.50923e-06)
(2.55499e-05 0.000875857 -1.20809e-05)
(2.7123e-05 0.000871968 -1.8708e-05)
(2.83162e-05 0.00086626 -2.5421e-05)
(2.91206e-05 0.00085926 -3.20743e-05)
(2.95154e-05 0.00085102 -3.86877e-05)
(2.9503e-05 0.000841942 -4.51169e-05)
(2.90695e-05 0.00083199 -5.13786e-05)
(2.82275e-05 0.000821465 -5.73344e-05)
(2.6974e-05 0.00081025 -6.30022e-05)
(2.53344e-05 0.000798536 -6.82529e-05)
(2.33144e-05 0.000786104 -7.31083e-05)
(2.09588e-05 0.000772998 -7.74499e-05)
(1.82926e-05 0.000758837 -8.13031e-05)
(1.53772e-05 0.000743435 -8.45593e-05)
(1.2268e-05 0.000726135 -8.7246e-05)
(9.05866e-06 0.000706368 -8.9259e-05)
(5.83998e-06 0.000682989 -9.05978e-05)
(2.74782e-06 0.000654767 -9.10914e-05)
(-7.60887e-08 0.000619681 -9.07217e-05)
(-2.37933e-06 0.00057533 -8.98153e-05)
(-3.67874e-06 0.000518115 -8.9336e-05)
(-3.42638e-06 0.000443535 -8.66484e-05)
(-3.18749e-06 0.000281959 -5.53564e-05)
(-1.05625e-06 0.000343644 7.4413e-05)
(-1.22034e-06 0.000536956 6.78284e-05)
(-2.41173e-07 0.000626627 5.59883e-05)
(1.17162e-06 0.000694652 4.64658e-05)
(2.9322e-06 0.000746391 4.00296e-05)
(4.87645e-06 0.00078552 3.48524e-05)
(6.89649e-06 0.000815132 3.0123e-05)
(8.92552e-06 0.000837215 2.54993e-05)
(1.08918e-05 0.000853603 2.09374e-05)
(1.27471e-05 0.000865351 1.63005e-05)
(1.44439e-05 0.000873593 1.16275e-05)
(1.59466e-05 0.000878865 6.83872e-06)
(1.72352e-05 0.000881909 2.00234e-06)
(1.82758e-05 0.000882969 -2.91054e-06)
(1.90526e-05 0.000882562 -7.79156e-06)
(1.95496e-05 0.000880761 -1.26775e-05)
(1.9758e-05 0.000877943 -1.74566e-05)
(1.96676e-05 0.000874076 -2.21546e-05)
(1.92823e-05 0.000869431 -2.6663e-05)
(1.8598e-05 0.00086389 -3.10084e-05)
(1.76308e-05 0.000857627 -3.50869e-05)
(1.6383e-05 0.000850425 -3.89293e-05)
(1.48821e-05 0.000842333 -4.24382e-05)
(1.31462e-05 0.000832997 -4.56493e-05)
(1.1216e-05 0.000822275 -4.84721e-05)
(9.12238e-06 0.000809581 -5.09467e-05)
(6.92454e-06 0.000794456 -5.29886e-05)
(4.68105e-06 0.000775912 -5.46395e-05)
(2.48125e-06 0.000752935 -5.58013e-05)
(4.05267e-07 0.000723826 -5.64673e-05)
(-1.42296e-06 0.000686587 -5.65391e-05)
(-2.82699e-06 0.000638249 -5.63899e-05)
(-3.45205e-06 0.000575047 -5.66845e-05)
(-3.0125e-06 0.00049173 -5.55985e-05)
(-2.50755e-06 0.00031045 -3.41539e-05)
(-8.30688e-07 0.000331181 6.00146e-05)
(-9.65634e-07 0.000522823 5.77556e-05)
(-5.94783e-07 0.000611888 5.08069e-05)
(-4.69716e-08 0.000679972 4.5023e-05)
(7.06607e-07 0.00073209 4.09643e-05)
(1.57702e-06 0.000772223 3.76332e-05)
(2.51221e-06 0.000803091 3.44768e-05)
(3.47174e-06 0.000826995 3.14063e-05)
(4.42571e-06 0.000845382 2.83194e-05)
(5.34148e-06 0.000859618 2.52383e-05)
(6.19397e-06 0.000870448 2.20866e-05)
(6.96206e-06 0.000878715 1.89241e-05)
(7.61171e-06 0.000884772 1.57192e-05)
(8.14426e-06 0.000889175 1.25103e-05)
(8.54026e-06 0.000892051 9.26741e-06)
(8.78787e-06 0.000893776 6.09198e-06)
(8.87552e-06 0.00089434 2.96017e-06)
(8.80516e-06 0.000894007 -5.23923e-08)
(8.56844e-06 0.000892671 -2.97796e-06)
(8.17017e-06 0.0008905 -5.73527e-06)
(7.60913e-06 0.000887296 -8.36516e-06)
(6.90032e-06 0.000883119 -1.07896e-05)
(6.05215e-06 0.000877654 -1.30535e-05)
(5.0855e-06 0.000870806 -1.50833e-05)
(4.02008e-06 0.000862072 -1.69282e-05)
(2.88603e-06 0.000851107 -1.852e-05)
(1.71299e-06 0.000837086 -1.99125e-05)
(5.47981e-07 0.000819231 -2.10435e-05)
(-5.62349e-07 0.000796148 -2.19606e-05)
(-1.55917e-06 0.000766294 -2.25804e-05)
(-2.37611e-06 0.000727256 -2.29593e-05)
(-2.89669e-06 0.000676131 -2.32889e-05)
(-2.91402e-06 0.000608665 -2.4151e-05)
(-2.31428e-06 0.000519512 -2.43597e-05)
(-1.71834e-06 0.000325142 -1.25044e-05)
(-9.94633e-07 0.000320111 4.94061e-05)
(-1.38248e-06 0.000511058 5.28828e-05)
(-1.61473e-06 0.000599935 5.09731e-05)
(-1.85665e-06 0.000667924 4.88791e-05)
(-1.94916e-06 0.000720278 4.72498e-05)
(-1.91986e-06 0.000760726 4.56696e-05)
(-1.81692e-06 0.000792261 4.40294e-05)
(-1.65197e-06 0.000816887 4.22754e-05)
(-1.4467e-06 0.000836334 4.0477e-05)
(-1.21314e-06 0.000851653 3.85968e-05)
(-9.70451e-07 0.000863875 3.66945e-05)
(-7.27217e-07 0.000873517 3.47339e-05)
(-4.95827e-07 0.000881213 3.27878e-05)
(-2.92666e-07 0.000887175 3.08513e-05)
(-1.27972e-07 0.000891818 2.89912e-05)
(-5.34392e-09 0.000895207 2.71325e-05)
(7.03782e-08 0.000897614 2.53361e-05)
(9.33778e-08 0.000898965 2.35766e-05)
(6.47061e-08 0.000899433 2.1916e-05)
(-1.66623e-08 0.000898854 2.03118e-05)
(-1.48933e-07 0.000897305 1.8826e-05)
(-3.29568e-07 0.00089452 1.74108e-05)
(-5.5083e-07 0.00089045 1.61255e-05)
(-8.06308e-07 0.000884681 1.49178e-05)
(-1.08259e-06 0.000876971 1.38423e-05)
(-1.36786e-06 0.000866658 1.28402e-05)
(-1.64425e-06 0.000853169 1.19553e-05)
(-1.89387e-06 0.000835412 1.11168e-05)
(-2.09299e-06 0.000812231 1.03577e-05)
(-2.22192e-06 0.00078177 9.60183e-06)
(-2.25369e-06 0.000741828 8.84348e-06)
(-2.14666e-06 0.000689186 7.79968e-06)
(-1.8149e-06 0.000619756 6.06361e-06)
(-1.2414e-06 0.000527875 4.03473e-06)
(-7.86658e-07 0.000327887 6.41639e-06)
(-1.28868e-06 0.000309912 4.26477e-05)
(-1.97908e-06 0.000498909 5.19308e-05)
(-2.64039e-06 0.000586803 5.42815e-05)
(-3.42763e-06 0.000654165 5.53194e-05)
(-4.04278e-06 0.000705994 5.57063e-05)
(-4.51765e-06 0.000746226 5.5634e-05)
(-4.88179e-06 0.000777581 5.51864e-05)
(-5.1601e-06 0.000802301 5.45132e-05)
(-5.35482e-06 0.000821836 5.36559e-05)
(-5.4815e-06 0.00083749 5.27107e-05)
(-5.54252e-06 0.000850008 5.16729e-05)
(-5.55486e-06 0.00086017 5.06138e-05)
(-5.51651e-06 0.000868326 4.95108e-05)
(-5.44222e-06 0.00087496 4.84226e-05)
(-5.3308e-06 0.000880197 4.73155e-05)
(-5.19629e-06 0.000884323 4.62709e-05)
(-5.04097e-06 0.000887326 4.52503e-05)
(-4.86635e-06 0.000889402 4.43033e-05)
(-4.67644e-06 0.000890436 4.33882e-05)
(-4.47339e-06 0.00089053 4.25541e-05)
(-4.25634e-06 0.000889475 4.17543e-05)
(-4.02894e-06 0.000887266 4.10346e-05)
(-3.7883e-06 0.000883575 4.03432e-05)
(-3.53158e-06 0.000878248 3.97201e-05)
(-3.25936e-06 0.000870766 3.91063e-05)
(-2.96949e-06 0.000860733 3.85325e-05)
(-2.65943e-06 0.000847307 3.79269e-05)
(-2.32439e-06 0.000829664 3.72999e-05)
(-1.9738e-06 0.000806397 3.65547e-05)
(-1.59996e-06 0.000775922 3.56656e-05)
(-1.22015e-06 0.000735819 3.44669e-05)
(-8.4559e-07 0.000683148 3.27339e-05)
(-4.78807e-07 0.000613661 2.99436e-05)
(-9.70101e-08 0.000521979 2.60054e-05)
(6.74906e-08 0.000322661 2.022e-05)
(-1.45239e-06 0.000300245 3.66556e-05)
(-2.31035e-06 0.000485279 4.95045e-05)
(-3.18765e-06 0.000571358 5.44769e-05)
(-4.21908e-06 0.000637252 5.7415e-05)
(-5.06558e-06 0.000688042 5.90859e-05)
(-5.74344e-06 0.00072738 5.99293e-05)
(-6.29974e-06 0.000758142 6.02615e-05)
(-6.74595e-06 0.000782304 6.02291e-05)
(-7.0983e-06 0.000801512 5.99859e-05)
(-7.35166e-06 0.000816812 5.95781e-05)
(-7.52378e-06 0.000829165 5.90963e-05)
(-7.61148e-06 0.0008391 5.85439e-05)
(-7.62537e-06 0.000847192 5.79853e-05)
(-7.56158e-06 0.000853673 5.74049e-05)
(-7.43569e-06 0.000858901 5.68547e-05)
(-7.24512e-06 0.000862931 5.63105e-05)
(-6.99622e-06 0.000865984 5.5817e-05)
(-6.69496e-06 0.000868003 5.53426e-05)
(-6.34708e-06 0.000869112 5.49272e-05)
(-5.95201e-06 0.00086916 5.45333e-05)
(-5.51869e-06 0.00086818 5.41951e-05)
(-5.04951e-06 0.00086592 5.38698e-05)
(-4.5463e-06 0.000862295 5.35857e-05)
(-4.01564e-06 0.000856911 5.32925e-05)
(-3.45742e-06 0.000849498 5.30102e-05)
(-2.88217e-06 0.00083943 5.26764e-05)
(-2.29319e-06 0.000826125 5.22939e-05)
(-1.70142e-06 0.000808549 5.17756e-05)
(-1.11729e-06 0.000785572 5.10868e-05)
(-5.63478e-07 0.000755436 5.00873e-05)
(-6.44108e-08 0.000716029 4.86482e-05)
(3.36376e-07 0.000664298 4.6437e-05)
(5.84374e-07 0.000596361 4.29672e-05)
(7.31332e-07 0.000506841 3.7733e-05)
(6.38201e-07 0.000312738 2.68548e-05)
(-1.30438e-06 0.000291627 2.90504e-05)
(-2.13031e-06 0.00047191 4.19001e-05)
(-2.97804e-06 0.000555715 4.73941e-05)
(-3.9896e-06 0.00061992 5.08093e-05)
(-4.8266e-06 0.000669326 5.27926e-05)
(-5.51637e-06 0.00070764 5.39171e-05)
(-6.08056e-06 0.000737488 5.44835e-05)
(-6.54587e-06 0.000760976 5.47052e-05)
(-6.90724e-06 0.000779523 5.46817e-05)
(-7.17937e-06 0.00079434 5.4522e-05)
(-7.35568e-06 0.000806171 5.42596e-05)
(-7.44497e-06 0.00081573 5.39609e-05)
(-7.44764e-06 0.000823381 5.36294e-05)
(-7.37426e-06 0.000829553 5.33128e-05)
(-7.22206e-06 0.000834393 5.30004e-05)
(-7.00245e-06 0.00083816 5.27301e-05)
(-6.71306e-06 0.000840866 5.24829e-05)
(-6.36404e-06 0.000842661 5.22898e-05)
(-5.96095e-06 0.000843459 5.21251e-05)
(-5.5096e-06 0.000843321 5.20144e-05)
(-5.01464e-06 0.000842069 5.19259e-05)
(-4.47977e-06 0.000839667 5.18789e-05)
(-3.91605e-06 0.000835823 5.18353e-05)
(-3.33069e-06 0.000830362 5.1807e-05)
(-2.72668e-06 0.000822819 5.17471e-05)
(-2.11419e-06 0.000812791 5.16553e-05)
(-1.50628e-06 0.000799518 5.1468e-05)
(-9.08857e-07 0.000782205 5.11594e-05)
(-3.44208e-07 0.000759573 5.06288e-05)
(1.69795e-07 0.000730128 4.97936e-05)
(6.00536e-07 0.000691663 4.84626e-05)
(9.02498e-07 0.000641433 4.63774e-05)
(1.01033e-06 0.000575566 4.30341e-05)
(1.00524e-06 0.000489064 3.78802e-05)
(7.89278e-07 0.000301739 2.60708e-05)
(-8.82951e-07 0.000285179 1.89858e-05)
(-1.50315e-06 0.000461556 2.82622e-05)
(-2.16046e-06 0.000543567 3.24248e-05)
(-2.96713e-06 0.000606321 3.50075e-05)
(-3.67584e-06 0.000654637 3.64769e-05)
(-4.27212e-06 0.000691995 3.7263e-05)
(-4.78533e-06 0.00072111 3.76367e-05)
(-5.21226e-06 0.000743889 3.77301e-05)
(-5.55829e-06 0.000761879 3.76544e-05)
(-5.8155e-06 0.000776111 3.74611e-05)
(-5.99352e-06 0.000787478 3.72147e-05)
(-6.08565e-06 0.000796519 3.69335e-05)
(-6.09766e-06 0.00080376 3.66602e-05)
(-6.03212e-06 0.00080946 3.63971e-05)
(-5.89684e-06 0.000813933 3.61765e-05)
(-5.6899e-06 0.000817269 3.59915e-05)
(-5.42478e-06 0.000819653 3.5867e-05)
(-5.10236e-06 0.000821062 3.57893e-05)
(-4.73407e-06 0.000821586 3.5777e-05)
(-4.3235e-06 0.000821115 3.58105e-05)
(-3.87833e-06 0.000819648 3.59017e-05)
(-3.40957e-06 0.000816978 3.60255e-05)
(-2.92351e-06 0.000812994 3.61875e-05)
(-2.42798e-06 0.000807354 3.63559e-05)
(-1.92823e-06 0.000799777 3.65284e-05)
(-1.43579e-06 0.000789703 3.66639e-05)
(-9.57044e-07 0.000776566 3.67473e-05)
(-5.04868e-07 0.00075943 3.67195e-05)
(-8.76455e-08 0.000737225 3.65373e-05)
(2.77051e-07 0.000708348 3.61015e-05)
(5.70667e-07 0.00067083 3.53017e-05)
(7.56185e-07 0.000621874 3.3921e-05)
(8.01922e-07 0.000557901 3.16296e-05)
(7.62687e-07 0.00047396 2.79714e-05)
(5.77861e-07 0.000292497 1.91842e-05)
(-3.12424e-07 0.0002822 7.69315e-06)
(-6.63523e-07 0.000457103 1.11789e-05)
(-1.03491e-06 0.000538379 1.28576e-05)
(-1.5713e-06 0.000600571 1.3828e-05)
(-2.09341e-06 0.000648352 1.42401e-05)
(-2.57928e-06 0.000685282 1.43266e-05)
(-3.0163e-06 0.000713937 1.4207e-05)
(-3.40459e-06 0.000736335 1.3963e-05)
(-3.72868e-06 0.000753888 1.36338e-05)
(-3.98831e-06 0.000767751 1.32661e-05)
(-4.17581e-06 0.000778687 1.288e-05)
(-4.29403e-06 0.000787367 1.25088e-05)
(-4.33654e-06 0.000794187 1.2162e-05)
(-4.31347e-06 0.000799542 1.18647e-05)
(-4.22402e-06 0.000803616 1.16201e-05)
(-4.07712e-06 0.000806636 1.14475e-05)
(-3.87864e-06 0.000808656 1.13439e-05)
(-3.63502e-06 0.000809792 1.13229e-05)
(-3.35417e-06 0.00081 1.13755e-05)
(-3.0481e-06 0.000809308 1.15091e-05)
(-2.72057e-06 0.000807583 1.17093e-05)
(-2.38371e-06 0.000804756 1.19776e-05)
(-2.04618e-06 0.000800582 1.22943e-05)
(-1.70997e-06 0.000794859 1.26555e-05)
(-1.38676e-06 0.000787175 1.30363e-05)
(-1.0797e-06 0.000777112 1.34276e-05)
(-7.98437e-07 0.000763978 1.37988e-05)
(-5.42274e-07 0.000746986 1.41336e-05)
(-3.20068e-07 0.000724953 1.43927e-05)
(-1.29568e-07 0.000696433 1.45447e-05)
(1.90459e-08 0.000659368 1.45304e-05)
(1.21175e-07 0.000611135 1.42772e-05)
(1.70632e-07 0.00054811 1.36265e-05)
(2.10693e-07 0.000465544 1.24059e-05)
(1.47763e-07 0.000287112 9.09062e-06)
(2.25578e-07 0.000283272 -2.83282e-06)
(1.23609e-07 0.00045957 -5.40865e-06)
(2.33624e-08 0.000541478 -6.37892e-06)
(-2.48222e-07 0.000604053 -7.15033e-06)
(-6.06317e-07 0.000652086 -7.86694e-06)
(-9.87081e-07 0.00068909 -8.54823e-06)
(-1.36834e-06 0.00071776 -9.20142e-06)
(-1.72396e-06 0.000740042 -9.83714e-06)
(-2.04483e-06 0.000757463 -1.04524e-05)
(-2.31437e-06 0.000771097 -1.10447e-05)
(-2.52937e-06 0.000781819 -1.16001e-05)
(-2.68151e-06 0.000790212 -1.21108e-05)
(-2.77319e-06 0.000796783 -1.25601e-05)
(-2.80342e-06 0.000801834 -1.29408e-05)
(-2.77981e-06 0.000805657 -1.32377e-05)
(-2.70426e-06 0.000808386 -1.34468e-05)
(-2.58706e-06 0.00081018 -1.35576e-05)
(-2.43536e-06 0.000811059 -1.35717e-05)
(-2.26077e-06 0.000811084 -1.34852e-05)
(-2.06639e-06 0.000810185 -1.33043e-05)
(-1.86643e-06 0.000808327 -1.3028e-05)
(-1.66892e-06 0.00080534 -1.2667e-05)
(-1.47826e-06 0.000801079 -1.22263e-05)
(-1.30567e-06 0.000795239 -1.17205e-05)
(-1.15378e-06 0.000787505 -1.11574e-05)
(-1.02772e-06 0.000777356 -1.05527e-05)
(-9.23636e-07 0.000764195 -9.9135e-06)
(-8.47921e-07 0.000747132 -9.25104e-06)
(-7.90009e-07 0.000725076 -8.5654e-06)
(-7.47753e-07 0.000696479 -7.85418e-06)
(-7.05651e-07 0.00065937 -7.10017e-06)
(-6.50283e-07 0.000611028 -6.25986e-06)
(-5.43328e-07 0.000547901 -5.22654e-06)
(-3.8451e-07 0.000465159 -3.89159e-06)
(-3.08351e-07 0.00028642 -1.26684e-06)
(6.10861e-07 0.000288148 -1.07506e-05)
(6.59185e-07 0.000468365 -1.80812e-05)
(7.65719e-07 0.00055203 -2.11734e-05)
(6.85651e-07 0.000615895 -2.33554e-05)
(4.59632e-07 0.0006648 -2.50021e-05)
(1.57886e-07 0.000702418 -2.63197e-05)
(-1.68658e-07 0.000731443 -2.74289e-05)
(-4.98847e-07 0.000753945 -2.83985e-05)
(-8.05919e-07 0.000771422 -2.92692e-05)
(-1.07852e-06 0.000785052 -3.00587e-05)
(-1.30496e-06 0.000795665 -3.07739e-05)
(-1.48273e-06 0.000803937 -3.14115e-05)
(-1.60315e-06 0.00081032 -3.19661e-05)
(-1.67352e-06 0.000815201 -3.24282e-05)
(-1.69357e-06 0.000818813 -3.27902e-05)
(-1.67038e-06 0.00082137 -3.30434e-05)
(-1.6144e-06 0.000822963 -3.31825e-05)
(-1.53205e-06 0.00082369 -3.32021e-05)
(-1.43153e-06 0.00082354 -3.31008e-05)
(-1.32451e-06 0.000822516 -3.28794e-05)
(-1.22028e-06 0.000820512 -3.25449e-05)
(-1.1261e-06 0.000817429 -3.21037e-05)
(-1.05089e-06 0.000813046 -3.15656e-05)
(-9.99279e-07 0.000807123 -3.09389e-05)
(-9.7687e-07 0.000799264 -3.02334e-05)
(-9.81721e-07 0.000789009 -2.94544e-05)
(-1.01432e-06 0.000775674 -2.86043e-05)
(-1.06646e-06 0.000758418 -2.76748e-05)
(-1.13192e-06 0.000736054 -2.66457e-05)
(-1.19114e-06 0.000707073 -2.5474e-05)
(-1.22842e-06 0.000669391 -2.40842e-05)
(-1.19919e-06 0.0006203 -2.23321e-05)
(-1.05146e-06 0.000556105 -1.99617e-05)
(-7.93589e-07 0.000471943 -1.6629e-05)
(-6.42493e-07 0.000290046 -9.34278e-06)
(7.66948e-07 0.000295708 -1.50623e-05)
(8.59189e-07 0.000481215 -2.47713e-05)
(1.06143e-06 0.000567304 -2.89447e-05)
(1.07871e-06 0.000632926 -3.185e-05)
(9.27512e-07 0.000683107 -3.39744e-05)
(6.86358e-07 0.000721607 -3.56217e-05)
(4.03392e-07 0.000751248 -3.69696e-05)
(1.12024e-07 0.000774128 -3.81181e-05)
(-1.68816e-07 0.000791844 -3.91274e-05)
(-4.20438e-07 0.000805569 -4.00276e-05)
(-6.31934e-07 0.000816213 -4.08332e-05)
(-7.98622e-07 0.000824431 -4.15461e-05)
(-9.18297e-07 0.000830742 -4.21632e-05)
(-9.89256e-07 0.000835504 -4.26769e-05)
(-1.01666e-06 0.000839008 -4.308e-05)
(-1.00769e-06 0.00084143 -4.33645e-05)
(-9.71686e-07 0.000842916 -4.35252e-05)
(-9.12959e-07 0.000843523 -4.35575e-05)
(-8.4485e-07 0.000843289 -4.34615e-05)
(-7.76822e-07 0.000842169 -4.32375e-05)
(-7.17016e-07 0.000840105 -4.2891e-05)
(-6.7549e-07 0.000836942 -4.2427e-05)
(-6.58317e-07 0.000832502 -4.18545e-05)
(-6.71714e-07 0.000826486 -4.11806e-05)
(-7.1497e-07 0.000818533 -4.04134e-05)
(-7.91901e-07 0.000808117 -3.95554e-05)
(-8.97659e-07 0.000794579 -3.8605e-05)
(-1.02375e-06 0.000777004 -3.7546e-05)
(-1.15588e-06 0.000754212 -3.63476e-05)
(-1.28e-06 0.0007246 -3.49474e-05)
(-1.36513e-06 0.000686064 -3.32416e-05)
(-1.36703e-06 0.000635771 -3.10357e-05)
(-1.21699e-06 0.000569952 -2.79933e-05)
(-9.29401e-07 0.000483569 -2.3652e-05)
(-7.79673e-07 0.000296832 -1.39811e-05)
(7.12941e-07 0.000304429 -1.57284e-05)
(7.54416e-07 0.000495365 -2.52644e-05)
(9.53576e-07 0.00058393 -2.93942e-05)
(9.76673e-07 0.000651385 -3.22793e-05)
(8.51523e-07 0.000702883 -3.43897e-05)
(6.40687e-07 0.000742334 -3.60311e-05)
(3.98239e-07 0.000772624 -3.73768e-05)
(1.49626e-07 0.000795949 -3.85282e-05)
(-8.52745e-08 0.000813932 -3.95415e-05)
(-2.94619e-07 0.000827818 -4.04488e-05)
(-4.64262e-07 0.000838521 -4.12617e-05)
(-5.91476e-07 0.000846749 -4.1984e-05)
(-6.74239e-07 0.000853015 -4.26101e-05)
(-7.13928e-07 0.00085772 -4.31344e-05)
(-7.1337e-07 0.000861139 -4.3547e-05)
(-6.79516e-07 0.000863487 -4.38422e-05)
(-6.22171e-07 0.000864888 -4.40122e-05)
(-5.48484e-07 0.00086543 -4.40548e-05)
(-4.69012e-07 0.000865126 -4.39672e-05)
(-3.90167e-07 0.00086396 -4.37524e-05)
(-3.26317e-07 0.00086184 -4.34131e-05)
(-2.82489e-07 0.00085864 -4.29568e-05)
(-2.64865e-07 0.000854139 -4.23902e-05)
(-2.82117e-07 0.000848062 -4.1723e-05)
(-3.35138e-07 0.000840003 -4.09607e-05)
(-4.21936e-07 0.000829447 -4.01089e-05)
(-5.41776e-07 0.000815681 -3.91636e-05)
(-6.823e-07 0.00079779 -3.81125e-05)
(-8.34471e-07 0.000774523 -3.69228e-05)
(-9.80318e-07 0.000744257 -3.55372e-05)
(-1.09509e-06 0.00070479 -3.38517e-05)
(-1.1329e-06 0.000653232 -3.16821e-05)
(-1.0341e-06 0.000585667 -2.87005e-05)
(-7.86273e-07 0.000496937 -2.44555e-05)
(-7.13846e-07 0.000305048 -1.49448e-05)
(5.05685e-07 0.000312721 -1.36081e-05)
(4.41695e-07 0.000508111 -2.08992e-05)
(5.55978e-07 0.000598724 -2.40728e-05)
(5.19622e-07 0.000667684 -2.63276e-05)
(3.77254e-07 0.000720282 -2.8022e-05)
(1.86033e-07 0.000760512 -2.93769e-05)
(-2.03681e-08 0.00079135 -3.05213e-05)
(-2.20168e-07 0.000815034 -3.15253e-05)
(-3.98757e-07 0.00083325 -3.24304e-05)
(-5.47611e-07 0.000847259 -3.32544e-05)
(-6.5536e-07 0.000858021 -3.40043e-05)
(-7.19075e-07 0.000866249 -3.46768e-05)
(-7.38602e-07 0.00087249 -3.52661e-05)
(-7.16022e-07 0.000877142 -3.57622e-05)
(-6.59935e-07 0.000880508 -3.61571e-05)
(-5.72139e-07 0.000882792 -3.6441e-05)
(-4.60846e-07 0.000884143 -3.6609e-05)
(-3.37084e-07 0.000884634 -3.66556e-05)
(-2.08616e-07 0.000884299 -3.65808e-05)
(-8.56725e-08 0.000883102 -3.63848e-05)
(2.32826e-08 0.000880967 -3.60729e-05)
(1.08541e-07 0.000877745 -3.56506e-05)
(1.63684e-07 0.000873228 -3.51274e-05)
(1.84868e-07 0.000867111 -3.45112e-05)
(1.68683e-07 0.000858994 -3.38124e-05)
(1.11987e-07 0.00084833 -3.30364e-05)
(2.1103e-08 0.000834402 -3.21865e-05)
(-9.92972e-08 0.000816249 -3.12549e-05)
(-2.39495e-07 0.000792607 -3.02236e-05)
(-3.86362e-07 0.00076179 -2.90501e-05)
(-5.20504e-07 0.000721559 -2.76625e-05)
(-6.08406e-07 0.000668933 -2.59243e-05)
(-5.99499e-07 0.000599918 -2.35993e-05)
(-4.56922e-07 0.00050922 -2.0342e-05)
(-5.02214e-07 0.00031304 -1.30595e-05)
(2.19854e-07 0.00031935 -9.88219e-06)
(3.7798e-08 0.00051755 -1.36885e-05)
(2.4853e-08 0.000609455 -1.53537e-05)
(-1.072e-07 0.00067937 -1.66087e-05)
(-2.84797e-07 0.000732652 -1.76373e-05)
(-4.7249e-07 0.000773368 -1.85321e-05)
(-6.45897e-07 0.000804529 -1.93457e-05)
(-7.98293e-07 0.000828424 -2.01062e-05)
(-9.17279e-07 0.000846753 -2.08259e-05)
(-9.97442e-07 0.000860816 -2.15065e-05)
(-1.03453e-06 0.000871578 -2.21425e-05)
(-1.02462e-06 0.000879781 -2.27248e-05)
(-9.70791e-07 0.000885971 -2.32421e-05)
(-8.78005e-07 0.000890569 -2.36834e-05)
(-7.48627e-07 0.000893873 -2.40373e-05)
(-5.90611e-07 0.000896107 -2.42951e-05)
(-4.12537e-07 0.000897411 -2.44495e-05)
(-2.23167e-07 0.000897873 -2.44965e-05)
(-2.8686e-08 0.000897515 -2.4434e-05)
(1.5678e-07 0.000896314 -2.42643e-05)
(3.26992e-07 0.00089418 -2.3991e-05)
(4.76285e-07 0.000890971 -2.36217e-05)
(5.9223e-07 0.000886464 -2.3165e-05)
(6.72581e-07 0.000880357 -2.26321e-05)
(7.12526e-07 0.00087223 -2.20339e-05)
(7.12124e-07 0.000861534 -2.13819e-05)
(6.68927e-07 0.000847528 -2.06847e-05)
(5.8753e-07 0.000829244 -1.99475e-05)
(4.74495e-07 0.000805383 -1.9168e-05)
(3.40623e-07 0.000774242 -1.83334e-05)
(1.90546e-07 0.000733533 -1.74142e-05)
(4.96302e-08 0.000680244 -1.63522e-05)
(-5.09158e-08 0.000610308 -1.50436e-05)
(-4.816e-08 0.000518368 -1.33128e-05)
(-2.20887e-07 0.00031948 -9.50346e-06)
(-6.4488e-08 0.000323598 -5.77891e-06)
(-3.49979e-07 0.000522729 -5.74767e-06)
(-5.02906e-07 0.00061507 -5.74203e-06)
(-7.34427e-07 0.000685294 -5.88138e-06)
(-9.49171e-07 0.00073879 -6.15793e-06)
(-1.13343e-06 0.000779634 -6.52004e-06)
(-1.28171e-06 0.000810862 -6.9485e-06)
(-1.39099e-06 0.000834766 -7.42324e-06)
(-1.45477e-06 0.000853072 -7.92355e-06)
(-1.47253e-06 0.000867078 -8.43216e-06)
(-1.4421e-06 0.00087777 -8.93073e-06)
(-1.36338e-06 0.000885888 -9.40251e-06)