/*--------------------------------*- C++ -*----------------------------------*\
| =========                 |                                                 |
| \\      /  F ield         | OpenFOAM: The Open Source CFD Toolbox           |
|  \\    /   O peration     | Version:  v2006                                 |
|   \\  /    A nd           | Website:  www.openfoam.com                      |
|    \\/     M anipulation  |                                                 |
\*---------------------------------------------------------------------------*/
FoamFile
{
    version     2.0;
    format      ascii;
    class       volScalarField;
    location    "36";
    object      k;
}
// * * * * * * * * * * * * * * * * * * * * * * * * * * * * * * * * * * * * * //

dimensions      [0 2 -2 0 0 0 0];


internalField   nonuniform List<scalar> 
78750
(
4.05809e-05
2.41025e-05
2.50195e-05
2.4129e-05
2.26019e-05
2.08059e-05
1.90342e-05
1.74327e-05
1.60654e-05
1.49403e-05
1.40338e-05
1.33155e-05
1.27547e-05
1.23237e-05
1.19968e-05
1.17511e-05
1.1566e-05
1.14233e-05
1.13079e-05
1.12072e-05
1.11115e-05
1.10133e-05
1.09062e-05
1.07843e-05
1.06407e-05
1.04659e-05
1.02451e-05
9.95438e-06
9.55334e-06
8.96613e-06
8.06208e-06
6.71776e-06
4.9809e-06
3.20961e-06
1.80783e-06
2.96374e-06
2.25047e-05
3.52973e-05
4.11312e-05
4.22972e-05
4.09785e-05
3.8978e-05
3.72486e-05
3.60419e-05
3.53496e-05
3.50492e-05
3.50013e-05
3.50725e-05
3.51656e-05
3.52193e-05
3.51882e-05
3.50374e-05
3.47442e-05
3.43049e-05
3.37265e-05
3.30233e-05
3.22147e-05
3.13235e-05
3.03742e-05
2.93903e-05
2.83906e-05
2.73896e-05
2.63884e-05
2.534e-05
2.41141e-05
2.24092e-05
1.97581e-05
1.5996e-05
1.18132e-05
8.21831e-06
4.49915e-06
1.07453e-05
1.42507e-05
1.4971e-05
1.41963e-05
1.37942e-05
1.50641e-05
1.80921e-05
2.22754e-05
2.69425e-05
3.16224e-05
3.5997e-05
3.98236e-05
4.29748e-05
4.54136e-05
4.71318e-05
4.81299e-05
4.8422e-05
4.80264e-05
4.69616e-05
4.52531e-05
4.29313e-05
4.00363e-05
3.66296e-05
3.2809e-05
2.87278e-05
2.46235e-05
2.08636e-05
1.79755e-05
1.64957e-05
1.6457e-05
1.69211e-05
1.64759e-05
1.46826e-05
1.26044e-05
1.92045e-06
6.25691e-06
9.20589e-06
1.08083e-05
1.18146e-05
1.34623e-05
1.6869e-05
2.25344e-05
3.02227e-05
3.90949e-05
4.81332e-05
5.65014e-05
6.37e-05
6.95884e-05
7.42617e-05
7.7826e-05
8.03544e-05
8.19149e-05
8.25608e-05
8.23289e-05
8.12171e-05
7.9197e-05
7.62181e-05
7.22185e-05
6.71421e-05
6.09546e-05
5.36793e-05
4.54749e-05
3.67961e-05
2.86055e-05
2.22917e-05
1.86355e-05
1.68302e-05
1.56405e-05
1.52527e-05
1.93303e-06
5.48324e-06
8.45528e-06
1.10103e-05
1.38793e-05
1.81384e-05
2.45518e-05
3.30001e-05
4.2561e-05
5.21283e-05
6.08682e-05
6.83369e-05
7.43991e-05
7.91134e-05
8.27337e-05
8.55199e-05
8.75857e-05
8.89652e-05
8.96659e-05
8.96719e-05
8.89474e-05
8.74422e-05
8.50346e-05
8.15025e-05
7.66494e-05
7.03121e-05
6.24214e-05
5.31588e-05
4.32026e-05
3.38273e-05
2.63973e-05
2.1686e-05
1.93755e-05
1.85879e-05
1.93529e-05
1.29291e-06
4.42577e-06
7.28452e-06
1.0136e-05
1.3605e-05
1.84824e-05
2.52141e-05
3.35436e-05
4.26824e-05
5.17661e-05
6.01529e-05
6.74951e-05
7.36798e-05
7.87491e-05
8.28991e-05
8.6373e-05
8.928e-05
9.16294e-05
9.34111e-05
9.45944e-05
9.51279e-05
9.49397e-05
9.39396e-05
9.19424e-05
8.85933e-05
8.34928e-05
7.62629e-05
6.67409e-05
5.53705e-05
4.36459e-05
3.36465e-05
2.66544e-05
2.27298e-05
2.10486e-05
2.12105e-05
1.01817e-06
4.31096e-06
7.58407e-06
1.11737e-05
1.5602e-05
2.1393e-05
2.86184e-05
3.68164e-05
4.52671e-05
5.33259e-05
6.05809e-05
6.68317e-05
7.20168e-05
7.63315e-05
8.00496e-05
8.32729e-05
8.60006e-05
8.82215e-05
8.99151e-05
9.10521e-05
9.15917e-05
9.14798e-05
9.06469e-05
8.89804e-05
8.62111e-05
8.19011e-05
7.56345e-05
6.71515e-05
5.68015e-05
4.61932e-05
3.70319e-05
3.02555e-05
2.61354e-05
2.41325e-05
2.39592e-05
6.86412e-07
3.99965e-06
7.34056e-06
1.1008e-05
1.54042e-05
2.08686e-05
2.73684e-05
3.46108e-05
4.22187e-05
4.98536e-05
5.72425e-05
6.41526e-05
7.03821e-05
7.58486e-05
8.06939e-05
8.50021e-05
8.87203e-05
9.18048e-05
9.42166e-05
9.59155e-05
9.68576e-05
9.69933e-05
9.62687e-05
9.45828e-05
9.16852e-05
8.72163e-05
8.08073e-05
7.22022e-05
6.16477e-05
5.05983e-05
4.1179e-05
3.40957e-05
2.94539e-05
2.66839e-05
2.54736e-05
4.57365e-07
3.79231e-06
7.24058e-06
1.11403e-05
1.5834e-05
2.14999e-05
2.80763e-05
3.53512e-05
4.30388e-05
5.08247e-05
5.83859e-05
6.54131e-05
7.16684e-05
7.71915e-05
8.21201e-05
8.6471e-05
9.02215e-05
9.33509e-05
9.58332e-05
9.7629e-05
9.86849e-05
9.89326e-05
9.82936e-05
9.66222e-05
9.36036e-05
8.88682e-05
8.20793e-05
7.31134e-05
6.24849e-05
5.20076e-05
4.33171e-05
3.67678e-05
3.22881e-05
2.92833e-05
2.76076e-05
3.5462e-07
3.86174e-06
7.56487e-06
1.17838e-05
1.67459e-05
2.25136e-05
2.90235e-05
3.61233e-05
4.3598e-05
5.1187e-05
5.86058e-05
6.55812e-05
7.18989e-05
7.75462e-05
8.26227e-05
8.7153e-05
9.11167e-05
9.4494e-05
9.72566e-05
9.93627e-05
0.000100753
0.00010135
0.00010106
9.97288e-05
9.70249e-05
9.25286e-05
8.58285e-05
7.67451e-05
6.58191e-05
5.50052e-05
4.62157e-05
3.96516e-05
3.50144e-05
3.15575e-05
2.91584e-05
4.14157e-07
4.14296e-06
8.15424e-06
1.27254e-05
1.80335e-05
2.41474e-05
3.10193e-05
3.84829e-05
4.62692e-05
5.40497e-05
6.14968e-05
6.83365e-05
7.44159e-05
7.98344e-05
8.46961e-05
8.8995e-05
9.27298e-05
9.58949e-05
9.84732e-05
0.000100431
0.000101717
0.000102259
0.000101965
0.000100665
9.80231e-05
9.36088e-05
8.69756e-05
7.79225e-05
6.70777e-05
5.66771e-05
4.82446e-05
4.19701e-05
3.74626e-05
3.38818e-05
3.12357e-05
5.78277e-07
4.87302e-06
9.59564e-06
1.50356e-05
2.13201e-05
2.84066e-05
3.6089e-05
4.40474e-05
5.19326e-05
5.94463e-05
6.63826e-05
7.26293e-05
7.82e-05
8.3221e-05
8.77659e-05
9.18307e-05
9.53974e-05
9.84365e-05
0.000100907
0.000102758
0.00010393
0.000104354
0.000103952
0.00010256
9.98702e-05
9.5495e-05
8.90195e-05
8.0217e-05
6.96305e-05
5.94427e-05
5.10245e-05
4.46491e-05
3.99888e-05
3.61504e-05
3.31758e-05
7.84512e-07
6.01449e-06
1.1738e-05
1.81706e-05
2.52686e-05
3.28118e-05
4.05013e-05
4.80599e-05
5.52933e-05
6.20943e-05
6.84082e-05
7.42038e-05
7.9556e-05
8.45431e-05
8.91484e-05
9.33282e-05
9.70282e-05
0.000100188
0.000102743
0.000104625
0.000105766
0.000106093
0.000105521
0.000103855
0.000100805
9.60357e-05
8.92443e-05
8.03741e-05
7.01803e-05
6.0849e-05
5.3066e-05
4.70218e-05
4.24694e-05
3.85612e-05
3.54168e-05
1.03018e-06
7.18035e-06
1.36518e-05
2.05196e-05
2.76635e-05
3.49091e-05
4.21172e-05
4.92094e-05
5.61423e-05
6.28659e-05
6.93006e-05
7.53532e-05
8.10412e-05
8.63825e-05
9.13097e-05
9.57575e-05
9.96638e-05
0.000102968
0.000105611
0.00010753
0.000108658
0.000108929
0.000108247
0.000106403
0.000103106
9.80336e-05
9.09385e-05
8.18883e-05
7.18166e-05
6.28688e-05
5.54011e-05
4.95053e-05
4.49634e-05
4.09202e-05
3.75029e-05
1.24755e-06
7.74653e-06
1.43891e-05
2.1229e-05
2.82592e-05
3.5477e-05
4.28756e-05
5.04051e-05
5.79466e-05
6.53194e-05
7.23209e-05
7.88308e-05
8.4857e-05
9.03895e-05
9.5371e-05
9.97601e-05
0.000103524
0.000106631
0.000109043
0.000110715
0.000111591
0.000111603
0.000110633
0.000108452
0.000104752
9.92189e-05
9.1679e-05
8.24029e-05
7.2672e-05
6.4335e-05
5.7429e-05
5.18825e-05
4.74823e-05
4.34005e-05
3.98256e-05
1.48748e-06
8.29125e-06
1.53192e-05
2.27217e-05
3.05755e-05
3.88742e-05
4.74934e-05
5.61967e-05
6.46895e-05
7.26928e-05
8.00031e-05
8.65864e-05
9.24994e-05
9.77549e-05
0.000102347
0.00010628
0.000109558
0.000112175
0.000114116
0.000115349
0.000115828
0.000115486
0.000114183
0.000111677
0.000107642
0.000101739
9.37999e-05
8.42037e-05
7.45041e-05
6.63391e-05
5.96632e-05
5.42982e-05
4.99852e-05
4.58671e-05
4.21725e-05
1.73804e-06
9.23849e-06
1.72345e-05
2.59304e-05
3.5285e-05
4.50611e-05
5.48902e-05
6.43773e-05
7.3202e-05
8.11687e-05
8.82017e-05
9.43878e-05
9.98321e-05
0.000104569
0.000108626
0.000112024
0.000114779
0.000116892
0.000118348
0.000119121
0.000119166
0.00011841
0.000116696
0.000113787
0.000109368
0.00010312
9.49283e-05
8.53033e-05
7.6062e-05
6.83162e-05
6.19664e-05
5.68014e-05
5.25892e-05
4.84879e-05
4.47876e-05
2.06652e-06
1.09802e-05
2.05379e-05
3.08506e-05
4.16401e-05
5.2454e-05
6.28358e-05
7.24463e-05
8.11049e-05
8.87637e-05
9.54523e-05
0.000101279
0.00010636
0.000110753
0.000114481
0.00011756
0.000119995
0.000121783
0.000122904
0.00012333
0.000123018
0.000121881
0.000119768
0.00011645
0.000111629
0.000105015
9.65497e-05
8.68677e-05
7.79779e-05
7.05425e-05
6.44229e-05
5.93918e-05
5.5251e-05
5.11714e-05
4.74832e-05
2.39067e-06
1.27757e-05
2.36894e-05
3.51101e-05
4.66517e-05
5.78613e-05
6.83723e-05
7.796e-05
8.65347e-05
9.41021e-05
0.000100715
0.000106459
0.000111439
0.000115714
0.000119297
0.000122197
0.000124413
0.000125936
0.000126747
0.000126823
0.000126111
0.000124526
0.000121927
0.000118107
0.000112804
0.000105802
9.71559e-05
8.76981e-05
7.94985e-05
7.26452e-05
6.691e-05
6.20709e-05
5.8015e-05
5.39751e-05
5.03383e-05
2.74244e-06
1.44743e-05
2.65561e-05
3.89233e-05
5.12128e-05
6.30223e-05
7.40172e-05
8.39814e-05
9.28304e-05
0.000100585
0.000107321
0.000113121
0.000118079
0.000122264
0.000125702
0.0001284
0.00013036
0.000131576
0.000132026
0.000131674
0.000130465
0.000128315
0.000125093
0.000120601
0.000114618
0.000107015
9.80029e-05
8.86743e-05
8.10005e-05
7.47011e-05
6.93876e-05
6.47767e-05
6.08143e-05
5.68063e-05
5.31902e-05
3.08806e-06
1.59591e-05
2.91342e-05
4.25468e-05
5.58091e-05
6.84593e-05
8.00973e-05
9.04824e-05
9.95581e-05
0.000107399
0.000114131
0.000119875
0.000124723
0.000128745
0.000131982
0.000134448
0.000136147
0.000137066
0.000137167
0.000136397
0.0001347
0.000131988
0.000128121
0.000122903
0.000116152
0.000107846
9.84143e-05
8.93151e-05
8.22044e-05
7.65517e-05
7.17717e-05
6.7474e-05
6.36315e-05
5.96411e-05
5.59914e-05
3.51579e-06
1.77668e-05
3.23457e-05
4.71246e-05
6.15853e-05
7.51432e-05
8.73528e-05
9.8021e-05
0.000107186
0.000115007
0.000121661
0.000127294
0.000132011
0.00013588
0.000138937
0.000141199
0.000142662
0.000143303
0.000143073
0.000141916
0.000139769
0.000136533
0.000132046
0.000126105
0.000118542
0.000109415
9.93628e-05
9.02181e-05
8.34081e-05
7.82743e-05
7.40257e-05
7.00904e-05
6.63886e-05
6.23881e-05
5.86208e-05
3.97341e-06
1.97173e-05
3.57563e-05
5.18445e-05
6.73215e-05
8.15363e-05
9.40819e-05
0.00010487
0.000114044
0.000121827
0.000128425
0.000133992
0.00013863
0.000142401
0.000145338
0.000147449
0.000148724
0.000149134
0.000148623
0.000147138
0.000144612
0.000140936
0.000135934
0.00012939
0.000121138
0.000111284
0.000100633
9.13679e-05
8.4676e-05
7.992e-05
7.6169e-05
7.26307e-05
6.90917e-05
6.50668e-05
6.11505e-05
4.4994e-06
2.18849e-05
3.94254e-05
5.67643e-05
7.31629e-05
8.79726e-05
0.000100858
0.000111829
0.000121105
0.000128953
0.000135592
0.000141177
0.000145808
0.000149539
0.000152397
0.000154385
0.000155487
0.000155669
0.000154866
0.000153033
0.000150107
0.000145973
0.000140454
0.000133337
0.000124468
0.000113986
0.000102784
9.32575e-05
8.64017e-05
8.17225e-05
7.82876e-05
7.5103e-05
7.17387e-05
6.76986e-05
6.36457e-05
5.02718e-06
2.39059e-05
4.28036e-05
6.12923e-05
7.85805e-05
9.40111e-05
0.000107291
0.000118502
0.00012793
0.00013588
0.000142588
0.000148215
0.000152859
0.000156573
0.00015938
0.000161278
0.000162248
0.000162248
0.000161204
0.000159075
0.000155793
0.00015124
0.000145235
0.000137572
0.000128129
0.000117106
0.000105496
9.58126e-05
8.87302e-05
8.39122e-05
8.05722e-05
7.76332e-05
7.44298e-05
7.04004e-05
6.62788e-05
5.6354e-06
2.61337e-05
4.65363e-05
6.63232e-05
8.46064e-05
0.000100698
0.000114359
0.000125773
0.000135312
0.000143328
0.000150076
0.000155722
0.00016036
0.000164041
0.000166783
0.00016858
0.000169408
0.000169218
0.000167936
0.000165528
0.000161921
0.000156988
0.000150539
0.000142374
0.000132404
0.000120905
0.000108991
9.92133e-05
9.18882e-05
8.67567e-05
8.32493e-05
8.03678e-05
7.72683e-05
7.32677e-05
6.91279e-05
6.28719e-06
2.84194e-05
5.03002e-05
7.12976e-05
9.04378e-05
0.000107042
0.00012097
0.000132524
0.000142154
0.000150248
0.000157067
0.00016277
0.000167447
0.000171138
0.000173854
0.000175581
0.000176288
0.000175917
0.000174403
0.000171709
0.000167763
0.000162436
0.000155535
0.00014687
0.000136403
0.000124533
0.000112576
0.000103
9.57006e-05
9.03435e-05
8.65399e-05
8.35184e-05
8.04012e-05
7.63719e-05
7.21505e-05
7.02896e-06
3.08374e-05
5.41868e-05
7.63438e-05
9.62835e-05
0.000113368
0.000127566
0.000139292
0.000149062
0.000157285
0.000164223
0.000170028
0.00017478
0.000178509
0.000181217
0.000182881
0.00018346
0.000182887
0.000181095
0.000178048
0.000173668
0.000167821
0.000160319
0.000150991
0.00013989
0.000127617
0.000115806
0.000106717
9.98137e-05
9.44973e-05
9.04262e-05
8.71209e-05
8.38298e-05
7.96193e-05
7.50695e-05
7.81363e-06
3.31586e-05
5.78578e-05
8.1086e-05
0.000101771
0.000119309
0.000133775
0.000145684
0.000155611
0.000163982
0.000171059
0.000176986
0.000181835
0.000185628
0.000188356
0.000189989
0.000190468
0.000189713
0.000187655
0.000184239
0.000179371
0.000172896
0.000164613
0.00015437
0.000142342
0.000129453
0.00011788
0.000109608
0.000103615
9.88145e-05
9.47024e-05
9.10688e-05
8.74287e-05
8.27789e-05
7.74825e-05
8.67303e-06
3.55594e-05
6.16303e-05
8.59427e-05
0.00010736
0.000125322
0.000140021
0.000152088
0.000162155
0.000170662
0.00017787
0.000183916
0.000188864
0.000192728
0.000195492
0.000197111
0.000197518
0.000196615
0.000194324
0.000190569
0.000185222
0.000178091
0.000168939
0.000157602
0.000144337
0.000130446
0.000118841
0.000111381
0.000106644
0.000102841
9.9022e-05
9.51303e-05
9.09855e-05
8.55779e-05
7.90743e-05
9.53636e-06
3.78787e-05
6.52287e-05
9.05187e-05
0.000112565
0.000130873
0.000145763
0.00015797
0.000168174
0.000176824
0.000184178
0.000190366
0.000195445
0.000199421
0.000202267
0.00020393
0.000204327
0.000203362
0.000200935
0.000196943
0.000191219
0.000183525
0.000173567
0.00016113
0.000146492
0.00013124
0.00011907
0.000112005
0.000108546
0.00010612
0.000103001
9.90017e-05
9.42582e-05
8.78544e-05
7.9944e-05
1.0397e-05
4.0173e-05
6.87655e-05
9.49907e-05
0.000117634
0.000136268
0.000151338
0.000163679
0.000174014
0.000182803
0.000190303
0.00019664
0.000201866
0.000205983
0.000208957
0.000210728
0.000211201
0.000210285
0.000207864
0.000203808
0.000197913
0.000189893
0.000179396
0.000166114
0.000150221
0.000133341
0.000119762
0.00011203
0.000109196
0.00010818
0.00010613
0.000102339
9.71163e-05
8.97641e-05
8.06907e-05
1.1206e-05
4.23366e-05
7.20873e-05
9.91748e-05
0.000122359
0.000141282
0.000156505
0.000168957
0.000179402
0.00018831
0.000195941
0.000202419
0.000207797
0.000212074
0.000215217
0.000217161
0.000217807
0.000217077
0.000214845
0.000210959
0.000205187
0.000197207
0.000186618
0.000173024
0.000156405
0.000138114
0.000122488
0.000112647
0.00010904
0.000108866
0.000108112
0.000104969
9.96376e-05
9.16994e-05
8.20358e-05
1.20028e-05
4.4491e-05
7.53778e-05
0.000103297
0.000126992
0.000146175
0.000161529
0.00017407
0.000184601
0.000193605
0.000201339
0.000207933
0.000213438
0.000217859
0.000221164
0.00022329
0.000224157
0.000223697
0.000221781
0.000218251
0.000212862
0.00020528
0.000195075
0.000181796
0.000165238
0.000146307
0.000128791
0.000115815
0.000109505
0.000108684
0.00010891
0.000106813
0.000101914
9.39982e-05
8.44955e-05
1.27993e-05
4.65782e-05
7.85235e-05
0.000107212
0.000131381
0.000150808
0.000166287
0.000178914
0.000189523
0.000198604
0.000206419
0.000213099
0.0002187
0.000223231
0.000226667
0.000228947
0.000230018
0.000229828
0.000228254
0.000225146
0.000220269
0.000213289
0.000203783
0.000191299
0.000175544
0.000157068
0.00013879
0.000122983
0.000112713
0.000109201
0.000109175
0.000108039
0.000104023
9.67611e-05
8.80876e-05
1.36724e-05
4.87215e-05
8.17132e-05
0.000111175
0.000135825
0.000155504
0.000171112
0.00018382
0.000194491
0.000203622
0.000211475
0.000218186
0.000223817
0.000228388
0.000231877
0.000234238
0.000235452
0.000235477
0.000234192
0.00023145
0.000227024
0.00022061
0.000211837
0.000200315
0.000185783
0.000168644
0.00015096
0.000133779
0.000119899
0.000112334
0.000110255
0.000109215
0.00010604
9.98089e-05
9.22978e-05
1.46416e-05
5.08863e-05
8.48847e-05
0.000115106
0.000140235
0.000160169
0.000175912
0.000188705
0.000199434
0.000208594
0.000216449
0.000223134
0.00022872
0.000233234
0.000236679
0.000239017
0.000240264
0.000240392
0.000239283
0.00023679
0.000232691
0.000226698
0.000218482
0.000207739
0.000194371
0.000178971
0.000162851
0.000145962
0.000130139
0.000118841
0.00011355
0.000111383
0.000108516
0.000102974
9.60436e-05
1.57309e-05
5.3135e-05
8.81485e-05
0.000119154
0.000144785
0.00016499
0.000180885
0.000193779
0.000204572
0.000213755
0.000221583
0.000228192
0.000233657
0.000238022
0.000241304
0.000243495
0.00024464
0.000244727
0.000243635
0.000241211
0.000237223
0.000231386
0.000223411
0.000213108
0.00020061
0.000186846
0.000172558
0.00015703
0.000141021
0.000127478
0.000119139
0.000115113
0.000111653
0.000105803
9.80173e-05
1.68822e-05
5.53684e-05
9.13778e-05
0.000123171
0.00014931
0.000169796
0.000185858
0.000198871
0.000209743
0.000218954
0.000226747
0.000233251
0.000238546
0.000242689
0.000245718
0.000247671
0.000248623
0.000248579
0.000247413
0.000244954
0.000240938
0.000235054
0.000227024
0.000216764
0.000204698
0.000192221
0.000179588
0.000165717
0.000150594
0.000136347
0.000125921
0.000119936
0.000115071
0.000107715
9.76059e-05
1.80558e-05
5.76228e-05
9.46505e-05
0.000127242
0.000153882
0.000174636
0.000190864
0.000204005
0.000214971
0.000224221
0.000231981
0.000238368
0.000243461
0.000247331
0.00025004
0.000251681
0.000252374
0.000252154
0.000250901
0.000248425
0.000244414
0.000238491
0.00023034
0.000219927
0.000207935
0.000196207
0.000184619
0.000172119
0.000158249
0.000144242
0.000132718
0.000125014
0.000118246
0.000108572
9.55126e-05
1.91853e-05
5.98231e-05
9.78458e-05
0.000131193
0.000158285
0.000179275
0.000195658
0.000208936
0.000220013
0.000229326
0.000237075
0.00024336
0.000248256
0.000251843
0.000254207
0.000255505
0.000255914
0.000255518
0.000254233
0.000251875
0.000248087
0.000242409
0.000234427
0.000224074
0.000212175
0.000200662
0.000189246
0.000177322
0.000164415
0.000151018
0.00013896
0.000129823
0.000121063
0.000108939
9.32628e-05
2.02674e-05
6.20142e-05
0.000101018
0.00013507
0.000162549
0.000183727
0.000200239
0.000213645
0.000224837
0.000234224
0.000241974
0.00024817
0.000252876
0.00025618
0.000258186
0.000259118
0.000259222
0.000258657
0.000257411
0.000255345
0.000252095
0.00024712
0.00023988
0.000230199
0.00021889
0.000207333
0.000195305
0.000182893
0.000170094
0.000157027
0.000144654
0.000134383
0.000123891
0.000109693
9.20915e-05
2.13105e-05
6.41754e-05
0.000104103
0.000138773
0.000166558
0.000187866
0.00020448
0.000218002
0.000229307
0.000238769
0.000246527
0.000252638
0.000257154
0.000260162
0.000261783
0.000262305
0.000262049
0.000261276
0.00026009
0.000258457
0.000256059
0.0002523
0.000246497
0.000238311
0.000228388
0.000217099
0.000204215
0.000190441
0.000176627
0.000163129
0.000150312
0.000139144
0.000127292
0.000111471
9.24065e-05
2.2373e-05
6.63679e-05
0.000107171
0.000142384
0.000170401
0.000191792
0.000208482
0.000222104
0.000233509
0.000243034
0.000250787
0.000256796
0.000261096
0.000263764
0.000264932
0.000264939
0.000264189
0.000263064
0.000261831
0.000260643
0.000259306
0.000257216
0.000253547
0.000247751
0.000240105
0.000229837
0.000216492
0.000201039
0.000185197
0.000170159
0.00015633
0.000144279
0.00013136
0.000114261
9.39463e-05
2.34971e-05
6.85925e-05
0.000110197
0.000145867
0.000174048
0.000195485
0.000212235
0.000225945
0.000237431
0.000247
0.000254725
0.000260605
0.000264647
0.000266911
0.000267528
0.000266873
0.000265425
0.000263702
0.000262185
0.000261298
0.000261087
0.000261023
0.000260147
0.000257662
0.000253104
0.000244739
0.000231745
0.000214974
0.000196668
0.000179078
0.000163345
0.000150057
0.000136076
0.000117807
9.62035e-05
2.4736e-05
7.08801e-05
0.000113217
0.000149281
0.000177584
0.000199059
0.000215878
0.000229663
0.000241202
0.000250785
0.000258456
0.000264174
0.000267908
0.000269688
0.000269629
0.000268119
0.000265696
0.000263018
0.000260823
0.000259913
0.000260726
0.000262924
0.000265433
0.000267112
0.000266315
0.000260617
0.000248833
0.000231502
0.000210973
0.000190352
0.000171933
0.000156821
0.000141484
0.000121834
9.86136e-05
2.61047e-05
7.31886e-05
0.000116161
0.00015255
0.000180951
0.000202494
0.000219438
0.000233291
0.000244823
0.000254391
0.000261997
0.000267546
0.000270954
0.000272203
0.000271367
0.000268817
0.000265124
0.000261066
0.000257658
0.000256201
0.000257733
0.00026229
0.000268704
0.000275256
0.000278806
0.000276377
0.000266481
0.000249344
0.000227184
0.000203634
0.000182178
0.000164709
0.000147533
0.000126053
0.000100776
2.76074e-05
7.54841e-05
0.000118989
0.000155641
0.000184128
0.000205783
0.000222806
0.000236733
0.000248299
0.000257855
0.000265419
0.000270831
0.000273941
0.000274663
0.000273009
0.000269294
0.000264074
0.000258195
0.000252939
0.000250201
0.000251888
0.000258712
0.000269488
0.000281472
0.000289886
0.000291214
0.000283737
0.000267427
0.000244285
0.000218211
0.00019373
0.000173586
0.000154114
0.000130302
0.000102487
2.91871e-05
7.76498e-05
0.000121559
0.000158406
0.000186962
0.000208724
0.000225848
0.000239888
0.000251556
0.000261162
0.000268761
0.000274128
0.000277038
0.000277326
0.000274918
0.000270032
0.00026315
0.000255098
0.000247328
0.000242349
0.000243228
0.000251825
0.000267183
0.000284957
0.000298679
0.000304225
0.000299688
0.000284853
0.000261477
0.000233525
0.000206319
0.000183379
0.000161211
0.000134528
0.00010363
3.07336e-05
7.95726e-05
0.000123798
0.000160842
0.000189518
0.00021139
0.000228646
0.000242845
0.000254675
0.00026442
0.000272155
0.000277602
0.00028047
0.00028051
0.000277547
0.00027167
0.000263223
0.000252889
0.000242092
0.000233783
0.000232351
0.000241459
0.000260969
0.000284583
0.000303954
0.00031415
0.000313065
0.000300365
0.000277583
0.000248619
0.000219384
0.000193842
0.000168722
0.000138643
0.000104106
3.20938e-05
8.11451e-05
0.000125643
0.000162903
0.000191761
0.000213764
0.000231184
0.000245578
0.000257622
0.000267586
0.000275575
0.00028127
0.000284333
0.000284442
0.000281316
0.000274889
0.000265297
0.000252955
0.000238982
0.000226345
0.000220615
0.000227835
0.000249921
0.000278963
0.000304241
0.000319536
0.000322439
0.00031257
0.000291325
0.000262518
0.000232217
0.000204533
0.000176387
0.000142518
0.000103984
3.31305e-05
8.23122e-05
0.000127053
0.000164542
0.000193618
0.000215819
0.000233464
0.000248115
0.000260445
0.000270725
0.000279085
0.000285191
0.000288679
0.000289178
0.000286319
0.000279895
0.00026984
0.000256266
0.000239798
0.000222772
0.000210791
0.000212409
0.000233553
0.000266634
0.000297986
0.000319024
0.00032663
0.000320419
0.000301781
0.000274462
0.000244161
0.000214962
0.00018394
0.000146188
0.000103675
3.37988e-05
8.3096e-05
0.000128062
0.000165796
0.000195131
0.000217582
0.000235499
0.000250453
0.000263121
0.000273787
0.000282608
0.000289262
0.000293388
0.0002946
0.000292478
0.000286715
0.00027707
0.00026335
0.000245611
0.000225138
0.000206415
0.000198842
0.000213066
0.000246589
0.000283614
0.000311343
0.000324745
0.000323239
0.000308332
0.000283721
0.000254536
0.000224615
0.000191204
0.000149918
0.000103849
3.41511e-05
8.35859e-05
0.000128766
0.000166762
0.000196394
0.000219132
0.00023735
0.000252635
0.000265674
0.00027677
0.000286113
0.000293407
0.000298316
0.00030047
0.000299446
0.000294905
0.000286493
0.000273804
0.000256449
0.000234644
0.000210816
0.00019265
0.000193608
0.000220303
0.000260167
0.000295321
0.000316118
0.000320733
0.000310757
0.000289977
0.000262932
0.000233213
0.00019826
0.000154159
0.00010513
3.42819e-05
8.38856e-05
0.000129262
0.00016751
0.000197445
0.000220478
0.000239001
0.000254618
0.000268031
0.000279564
0.000289443
0.000297404
0.000303146
0.000306344
0.000306609
0.000303635
0.000297027
0.000286266
0.000270719
0.000249924
0.000224432
0.000198509
0.000183813
0.000194784
0.000229528
0.000270287
0.000299968
0.000312605
0.0003091
0.000293158
0.000269139
0.000240554
0.000205079
0.000159059
0.000107782
3.43264e-05
8.41528e-05
0.000129715
0.000168195
0.000198415
0.000221718
0.000240516
0.000256434
0.000270189
0.000282125
0.000292506
0.000301101
0.000307633
0.000311842
0.000313426
0.000312129
0.000307568
0.000299195
0.000286284
0.000268086
0.000244108
0.00021565
0.000189626
0.000181148
0.000199797
0.000238234
0.000275853
0.000298234
0.000302993
0.000293133
0.000273114
0.000246628
0.000211665
0.00016462
0.000111784
3.43993e-05
8.44684e-05
0.000130193
0.000168872
0.000199341
0.000222859
0.000241877
0.000258043
0.000272078
0.000284338
0.000295116
0.000304229
0.00031146
0.000316583
0.000319398
0.000319705
0.000317158
0.000311261
0.000301272
0.000286357
0.000265639
0.000238844
0.000208718
0.000185624
0.00018307
0.000207373
0.000245728
0.000277362
0.000291888
0.000289542
0.000274647
0.000251279
0.000217843
0.000170596
0.00011683
3.46224e-05
8.49651e-05
0.000130856
0.000169715
0.000200373
0.00022404
0.000243216
0.000259565
0.000273814
0.000286328
0.000297418
0.00030694
0.00031469
0.000320478
0.000324208
0.000325813
0.000325079
0.00032155
0.000314448
0.000302922
0.000286025
0.000262897
0.000234009
0.000204708
0.000185458
0.000189036
0.00021697
0.000251977
0.000275855
0.000282158
0.000273435
0.000254132
0.00022315
0.000176451
0.000122412
3.50529e-05
8.56729e-05
0.000131729
0.000170697
0.000201462
0.000225196
0.000244455
0.000260912
0.000275291
0.000287956
0.00029923
0.000309008
0.000317106
0.000323371
0.000327802
0.000330419
0.000331093
0.00032947
0.000324923
0.000316668
0.000303694
0.000284835
0.000259719
0.000230625
0.000203272
0.00018886
0.000198737
0.000227823
0.000256801
0.000271279
0.000269332
0.000254828
0.000227113
0.000181791
0.000127907
3.57308e-05
8.66345e-05
0.000132823
0.000171856
0.000202652
0.000226375
0.000245646
0.000262141
0.000276571
0.000289295
0.00030064
0.000310525
0.000318768
0.000325245
0.000330047
0.000333301
0.000335007
0.000334935
0.000332552
0.000327125
0.000317684
0.000303175
0.000282811
0.000257246
0.000228674
0.000203841
0.00019586
0.000211417
0.00023861
0.000258592
0.000262872
0.000253312
0.000229359
0.000185979
0.000132522
3.66569e-05
8.7786e-05
0.000134076
0.000173146
0.000203869
0.000227503
0.000246729
0.000263206
0.000277627
0.000290338
0.000301657
0.000311513
0.000319713
0.000326147
0.000330988
0.000334464
0.000336718
0.000337693
0.000337028
0.000334117
0.000328022
0.000317634
0.000302057
0.000281453
0.000255511
0.000227082
0.000206584
0.00020645
0.000225406
0.000246477
0.000255211
0.000249929
0.000229628
0.000188413
0.000135698
3.77995e-05
8.90748e-05
0.000135422
0.000174493
0.000205061
0.00022855
0.000247688
0.00026411
0.000278483
0.000291134
0.000302366
0.000312091
0.00032009
0.000326251
0.000330803
0.000334071
0.000336343
0.000337769
0.000338234
0.000337364
0.00033436
0.000328105
0.000317578
0.000302343
0.000280671
0.000252952
0.000225843
0.000212376
0.000219652
0.000237249
0.000247795
0.00024546
0.000228126
0.00018892
0.000137124
3.91038e-05
9.04067e-05
0.000136731
0.000175729
0.000206098
0.000229416
0.000248447
0.000264798
0.000279111
0.000291692
0.000302818
0.000312364
0.000320063
0.000325783
0.000329778
0.000332441
0.000334195
0.000335411
0.000336289
0.000336821
0.000336503
0.000334327
0.000329153
0.00031968
0.000303132
0.000278368
0.000249122
0.000226355
0.00022158
0.000232238
0.000241717
0.000240645
0.000225232
0.000187606
0.000136826
4.05061e-05
9.17245e-05
0.000137967
0.00017684
0.000206966
0.000230083
0.000248989
0.000265262
0.000279519
0.000292047
0.000303092
0.000312466
0.000319835
0.000325034
0.000328298
0.000330047
0.000330799
0.00033113
0.00033159
0.000332669
0.000334383
0.000336034
0.000336395
0.000332991
0.000322215
0.000301917
0.000273609
0.000245506
0.000230294
0.000231935
0.000237596
0.000235979
0.000221353
0.00018487
0.0001352
4.19329e-05
9.29366e-05
0.000139035
0.000177729
0.000207584
0.000230489
0.000249267
0.000265471
0.0002797
0.000292223
0.000303257
0.000312526
0.000319624
0.000324329
0.000326821
0.000327491
0.000326888
0.00032573
0.000324896
0.000325457
0.000328191
0.000333022
0.000338731
0.000341485
0.000336883
0.000322065
0.000297016
0.000267297
0.00024442
0.000236681
0.000236288
0.000232248
0.000217132
0.00018117
0.000132348
4.3257e-05
9.39189e-05
0.000139828
0.00017831
0.00020789
0.000230586
0.000249245
0.0002654
0.000279642
0.00029223
0.000303355
0.000312646
0.000319615
0.000323973
0.000325813
0.000325437
0.000323348
0.000320303
0.000317403
0.000316279
0.000318666
0.000325511
0.000335828
0.000344392
0.000345933
0.000336996
0.000316618
0.000288324
0.000261558
0.000245764
0.000238334
0.000230308
0.000213242
0.00017671
0.000127974
4.43227e-05
9.45905e-05
0.000140303
0.000178557
0.000207869
0.000230368
0.000248918
0.000265045
0.000279341
0.000292067
0.000303403
0.000312877
0.000319933
0.000324214
0.0003257
0.000324559
0.000321166
0.00031619
0.000310771
0.000306922
0.000307353
0.000314465
0.000327974
0.000341505
0.000348755
0.000345579
0.000330412
0.000305453
0.000278125
0.000257143
0.000243172
0.000230343
0.000210034
0.000171725
0.000122284
4.50015e-05
9.4914e-05
0.000140437
0.000178457
0.000207518
0.000229835
0.00024829
0.00026441
0.000278795
0.000291725
0.000303383
0.00031321
0.000320601
0.000325151
0.000326722
0.000325324
0.000321145
0.000314655
0.00030682
0.000299679
0.000296612
0.000301667
0.000316058
0.000333149
0.000345506
0.000347913
0.000338166
0.000317571
0.000291909
0.00026843
0.000249645
0.000232167
0.000207938
0.000167185
0.000116794
4.52566e-05
9.49188e-05
0.000140267
0.000178052
0.000206881
0.000229031
0.000247401
0.000263524
0.000278023
0.000291205
0.000303267
0.00031359
0.000321553
0.000326726
0.000328873
0.00032785
0.000323647
0.000316481
0.000306984
0.000296835
0.00028942
0.000289977
0.000301973
0.000320244
0.000336767
0.000344731
0.000340769
0.000325269
0.000302654
0.000278743
0.000256985
0.000235743
0.000207782
0.000164615
0.000113103
4.51777e-05
9.47236e-05
0.000139898
0.000177438
0.000206038
0.000228019
0.000246295
0.000262411
0.000277021
0.000290475
0.000302961
0.000313865
0.000322564
0.000328631
0.000331764
0.000331699
0.000328256
0.000321419
0.000311462
0.000299488
0.000288209
0.000282944
0.000289215
0.000305013
0.000323555
0.000336631
0.000338888
0.00032925
0.000310791
0.000288099
0.000265057
0.000241286
0.000210404
0.000165088
0.000111984