/*--------------------------------*- C++ -*----------------------------------*\
| =========                 |                                                 |
| \\      /  F ield         | OpenFOAM: The Open Source CFD Toolbox           |
|  \\    /   O peration     | Version:  v2006                                 |
|   \\  /    A nd           | Website:  www.openfoam.com                      |
|    \\/     M anipulation  |                                                 |
\*---------------------------------------------------------------------------*/
FoamFile
{
    version     2.0;
    format      ascii;
    class       volScalarField;
    location    "36";
    object      nut;
}
// * * * * * * * * * * * * * * * * * * * * * * * * * * * * * * * * * * * * * //

dimensions      [0 2 -1 0 0 0 0];


internalField   nonuniform List<scalar> 
78750
(
1.14352e-07
1.75015e-06
1.81602e-06
1.75236e-06
1.64296e-06
1.51401e-06
1.38654e-06
1.27107e-06
1.17233e-06
1.09095e-06
1.0253e-06
9.73239e-07
9.32563e-07
9.01279e-07
8.77541e-07
8.59694e-07
8.46249e-07
8.3589e-07
8.27504e-07
8.20192e-07
8.13247e-07
8.06116e-07
7.98342e-07
7.89492e-07
7.79064e-07
7.66363e-07
7.50313e-07
7.29161e-07
6.99957e-07
6.57138e-07
5.91096e-07
4.92677e-07
3.65228e-07
2.35042e-07
5.05993e-09
5.6962e-09
1.5711e-06
3.59899e-06
6.30474e-06
7.3283e-06
7.81526e-06
8.92731e-06
8.55701e-06
8.29724e-06
8.14766e-06
8.08257e-06
8.07205e-06
8.0873e-06
8.10732e-06
8.11881e-06
8.112e-06
8.07929e-06
8.01579e-06
7.92058e-06
7.79501e-06
7.64205e-06
7.46574e-06
7.27087e-06
7.06265e-06
6.84611e-06
6.62533e-06
6.40348e-06
6.18069e-06
5.94638e-06
5.67093e-06
3.67262e-06
2.20946e-06
1.72458e-06
2.28597e-06
1.56616e-08
8.647e-09
1.81044e-06
2.63067e-06
2.16954e-06
1.75901e-06
1.69927e-06
2.0765e-06
2.96305e-06
4.35645e-06
6.07494e-06
7.33503e-06
8.28466e-06
9.10365e-06
9.54787e-06
9.59209e-06
9.54704e-06
9.45279e-06
9.31534e-06
9.13564e-06
8.91151e-06
8.63874e-06
8.30691e-06
7.90303e-06
7.40588e-06
6.77744e-06
5.96059e-06
4.91049e-06
3.70213e-06
2.61278e-06
1.90234e-06
1.57859e-06
1.56073e-06
2.10238e-06
2.09058e-06
2.39815e-08
3.69108e-09
1.52045e-06
2.22491e-06
2.60472e-06
2.37655e-06
2.44675e-06
2.94023e-06
3.89704e-06
5.27247e-06
6.94507e-06
8.83523e-06
1.09548e-05
1.32601e-05
1.51385e-05
1.60368e-05
1.67136e-05
1.71895e-05
1.74814e-05
1.76016e-05
1.7025e-05
1.60973e-05
1.50318e-05
1.38425e-05
1.25434e-05
1.11166e-05
9.53929e-06
7.80704e-06
5.96211e-06
4.14247e-06
2.61552e-06
1.6487e-06
1.27069e-06
1.54848e-06
2.02032e-06
2.9001e-08
3.71525e-09
1.3343e-06
2.04609e-06
2.65174e-06
2.45078e-06
2.67448e-06
3.32404e-06
4.32043e-06
5.54662e-06
6.94823e-06
8.56915e-06
1.05261e-05
1.3011e-05
1.60771e-05
1.76281e-05
1.81452e-05
1.8526e-05
1.87791e-05
1.89074e-05
1.89086e-05
1.87762e-05
1.85e-05
1.62355e-05
1.36805e-05
1.13061e-05
9.07582e-06
6.99388e-06
5.11703e-06
3.54854e-06
2.39298e-06
1.69394e-06
1.47783e-06
2.15323e-06
1.64232e-06
3.67582e-08
2.48498e-09
1.07911e-06
1.76654e-06
2.44481e-06
2.36757e-06
2.56719e-06
3.0662e-06
3.80857e-06
4.77781e-06
6.0083e-06
7.5794e-06
9.61313e-06
1.2275e-05
1.55921e-05
1.76538e-05
1.82976e-05
1.88316e-05
1.92601e-05
1.95832e-05
1.9797e-05
1.98931e-05
1.98592e-05
1.9613e-05
1.64942e-05
1.33331e-05
1.04287e-05
7.83594e-06
5.61718e-06
3.83472e-06
2.54365e-06
1.76205e-06
1.48841e-06
2.11039e-06
1.8425e-06
4.02643e-08
1.95692e-09
1.05124e-06
1.83779e-06
2.66785e-06
2.519e-06
2.73692e-06
3.23849e-06
4.00127e-06
5.04935e-06
6.45081e-06
8.33329e-06
1.09465e-05
1.44896e-05
1.64185e-05
1.71207e-05
1.77236e-05
1.82295e-05
1.86385e-05
1.89487e-05
1.91559e-05
1.92537e-05
1.92328e-05
1.90804e-05
1.76184e-05
1.37607e-05
1.03638e-05
7.5571e-06
5.29147e-06
3.5898e-06
2.45981e-06
1.83239e-06
1.70162e-06
2.74966e-06
1.75913e-06
4.54476e-08
1.31929e-09
9.75821e-07
1.77934e-06
2.48353e-06
2.43269e-06
2.65307e-06
3.11346e-06
3.81802e-06
4.80597e-06
6.14515e-06
7.93211e-06
1.02994e-05
1.33471e-05
1.63285e-05
1.72436e-05
1.80468e-05
1.87322e-05
1.92955e-05
1.97325e-05
2.00385e-05
2.02074e-05
2.02312e-05
2.01004e-05
1.77687e-05
1.4168e-05
1.07796e-05
7.84577e-06
5.45172e-06
3.65574e-06
2.46982e-06
1.83759e-06
1.72648e-06
2.842e-06
1.9191e-06
4.82958e-08
8.79063e-10
9.25538e-07
1.75523e-06
2.20894e-06
2.3792e-06
2.72866e-06
3.29281e-06
4.11534e-06
5.26033e-06
6.81195e-06
8.87766e-06
1.15847e-05
1.48544e-05
1.65816e-05
1.75085e-05
1.8316e-05
1.90043e-05
1.95732e-05
2.0021e-05
2.0343e-05
2.05314e-05
2.05752e-05
2.04605e-05
1.73161e-05
1.36835e-05
1.03683e-05
7.52841e-06
5.23861e-06
3.54567e-06
2.45853e-06
1.90461e-06
1.89137e-06
3.38411e-06
1.88737e-06
5.23105e-08
6.81586e-10
9.42302e-07
1.68963e-06
2.03939e-06
2.40614e-06
2.90091e-06
3.58895e-06
4.52892e-06
5.78067e-06
7.40281e-06
9.45114e-06
1.19726e-05
1.48687e-05
1.66494e-05
1.76028e-05
1.84421e-05
1.91679e-05
1.978e-05
2.02765e-05
2.06525e-05
2.08993e-05
2.10046e-05
2.0907e-05
1.76008e-05
1.39612e-05
1.05556e-05
7.61156e-06
5.25895e-06
3.54585e-06
2.46064e-06
1.92437e-06
1.94477e-06
3.56221e-06
1.96043e-06
5.52237e-08
7.96014e-10
8.1431e-07
1.43623e-06
1.96357e-06
2.51693e-06
3.19671e-06
4.07997e-06
5.23091e-06
6.70394e-06
8.5447e-06
1.07939e-05
1.34591e-05
1.60551e-05
1.70811e-05
1.79884e-05
1.87803e-05
1.94608e-05
2.0032e-05
2.04935e-05
2.08418e-05
2.10692e-05
2.11643e-05
2.05218e-05
1.7166e-05
1.36139e-05
1.03296e-05
7.4807e-06
5.18719e-06
3.51935e-06
2.48434e-06
1.99075e-06
2.08374e-06
4.02618e-06
1.93683e-06
5.91292e-08
1.11145e-09
7.19851e-07
1.39059e-06
2.08333e-06
2.86095e-06
3.79683e-06
4.95123e-06
6.36559e-06
8.06197e-06
1.00469e-05
1.23167e-05
1.48094e-05
1.67733e-05
1.77146e-05
1.85553e-05
1.92982e-05
1.99433e-05
2.0488e-05
2.09274e-05
2.12545e-05
2.14604e-05
2.15342e-05
2.02691e-05
1.68639e-05
1.33572e-05
1.01611e-05
7.40825e-06
5.18311e-06
3.54953e-06
2.53063e-06
2.04756e-06
2.17247e-06
4.29513e-06
1.96292e-06
6.27766e-08
1.50783e-09
7.50174e-07
1.51099e-06
2.36672e-06
3.35137e-06
4.50491e-06
5.85689e-06
7.42293e-06
9.20983e-06
1.12243e-05
1.34714e-05
1.585e-05
1.70277e-05
1.79593e-05
1.88081e-05
1.95692e-05
2.02357e-05
2.07995e-05
2.12519e-05
2.1583e-05
2.17824e-05
2.18387e-05
1.92406e-05
1.58435e-05
1.25112e-05
9.52371e-06
6.98937e-06
4.95727e-06
3.46905e-06
2.54835e-06
2.12324e-06
2.32656e-06
4.80346e-06
1.94211e-06
6.69896e-08
1.97999e-09
7.85962e-07
1.60666e-06
2.54088e-06
3.60057e-06
4.80796e-06
6.1871e-06
7.76379e-06
9.56631e-06
1.16171e-05
1.39064e-05
1.62334e-05
1.73078e-05
1.8301e-05
1.92042e-05
2.0009e-05
2.07078e-05
2.12931e-05
2.17574e-05
2.20921e-05
2.22877e-05
2.18313e-05
1.89352e-05
1.55318e-05
1.219e-05
9.21738e-06
6.74522e-06
4.80574e-06
3.40889e-06
2.55565e-06
2.17633e-06
2.44502e-06
5.20527e-06
1.94325e-06
7.09101e-08
2.39777e-09
7.6196e-07
1.57395e-06
2.51378e-06
3.59169e-06
4.84047e-06
6.30555e-06
8.03578e-06
1.0068e-05
1.2401e-05
1.49297e-05
1.68952e-05
1.80216e-05
1.90391e-05
1.99419e-05
2.07272e-05
2.13932e-05
2.19377e-05
2.23572e-05
2.26461e-05
2.27963e-05
2.16703e-05
1.87017e-05
1.52556e-05
1.18679e-05
8.88442e-06
6.45745e-06
4.60931e-06
3.32312e-06
2.5569e-06
2.24313e-06
2.60789e-06
5.74274e-06
1.92542e-06
7.52751e-08
2.85887e-09
7.29325e-07
1.53459e-06
2.52161e-06
3.71621e-06
5.16351e-06
6.91321e-06
8.9975e-06
1.14002e-05
1.4029e-05
1.66761e-05
1.83435e-05
1.94251e-05
2.03717e-05
2.11879e-05
2.18789e-05
2.24491e-05
2.29007e-05
2.32333e-05
2.34433e-05
2.35238e-05
2.18089e-05
1.87919e-05
1.53186e-05
1.18737e-05
8.82782e-06
6.3666e-06
4.52679e-06
3.28381e-06
2.56282e-06
2.29535e-06
2.74391e-06
6.18485e-06
1.91882e-06
7.96854e-08
3.34043e-09
7.45136e-07
1.60662e-06
2.73087e-06
4.15709e-06
5.92277e-06
8.04619e-06
1.0498e-05
1.31762e-05
1.59142e-05
1.8486e-05
1.9767e-05
2.07425e-05
2.15798e-05
2.22884e-05
2.28762e-05
2.33488e-05
2.37087e-05
2.39552e-05
2.40849e-05
2.36915e-05
2.13531e-05
1.8296e-05
1.48986e-05
1.1553e-05
8.59329e-06
6.20149e-06
4.42728e-06
3.25545e-06
2.58727e-06
2.37018e-06
2.91772e-06
6.66543e-06
1.9051e-06
8.45992e-08
3.97173e-09
8.21664e-07
1.79459e-06
3.09145e-06
4.7456e-06
6.76777e-06
9.13162e-06
1.17532e-05
1.4486e-05
1.71538e-05
1.95797e-05
2.09988e-05
2.18936e-05
2.26574e-05
2.32988e-05
2.38238e-05
2.4236e-05
2.45366e-05
2.47238e-05
2.47606e-05
2.30884e-05
2.06988e-05
1.77328e-05
1.44531e-05
1.1227e-05
8.36867e-06
6.05566e-06
4.34636e-06
3.23513e-06
2.61056e-06
2.43768e-06
3.07838e-06
7.05415e-06
1.89855e-06
8.96637e-08
4.59468e-09
9.0502e-07
1.97343e-06
3.38034e-06
5.14575e-06
7.26918e-06
9.71936e-06
1.24093e-05
1.51836e-05
1.78506e-05
2.0236e-05
2.19118e-05
2.27772e-05
2.35113e-05
2.41204e-05
2.4609e-05
2.49797e-05
2.5233e-05
2.53359e-05
2.41475e-05
2.23425e-05
1.9921e-05
1.69798e-05
1.37901e-05
1.06997e-05
7.99029e-06
5.81427e-06
4.22192e-06
3.20421e-06
2.641e-06
2.52386e-06
3.27631e-06
7.40544e-06
1.88728e-06
9.5025e-08
5.27073e-09
9.64045e-07
2.08677e-06
3.54502e-06
5.36481e-06
7.56652e-06
1.01379e-05
1.29813e-05
1.58916e-05
1.86208e-05
2.09819e-05
2.28863e-05
2.39164e-05
2.46233e-05
2.51982e-05
2.56459e-05
2.59687e-05
2.58687e-05
2.50762e-05
2.3797e-05
2.19565e-05
1.95047e-05
1.65433e-05
1.33582e-05
1.03083e-05
7.67152e-06
5.58732e-06
4.09319e-06
3.15853e-06
2.65695e-06
2.59881e-06
3.46478e-06
7.64767e-06
1.88037e-06
1.00377e-07
5.93493e-09
1.00007e-06
2.15791e-06
3.66588e-06
5.57384e-06
7.92897e-06
1.07179e-05
1.37876e-05
1.68475e-05
1.96017e-05
2.18796e-05
2.36437e-05
2.49282e-05
2.57057e-05
2.62386e-05
2.64552e-05
2.63079e-05
2.58267e-05
2.49616e-05
2.36261e-05
2.17161e-05
1.91871e-05
1.61619e-05
1.29496e-05
9.91847e-06
7.34104e-06
5.34427e-06
3.95337e-06
3.10476e-06
2.67194e-06
2.68397e-06
3.68391e-06
7.78919e-06
1.86981e-06
1.05629e-07
6.75694e-09
1.03856e-06
2.24341e-06
3.83409e-06
5.8857e-06
8.45632e-06
1.14962e-05
1.4762e-05
1.78848e-05
2.0571e-05
2.27048e-05
2.42986e-05
2.54174e-05
2.61331e-05
2.65061e-05
2.65767e-05
2.63579e-05
2.58283e-05
2.49273e-05
2.35588e-05
2.16138e-05
1.90461e-05
1.59814e-05
1.2736e-05
9.68836e-06
7.11929e-06
5.15955e-06
3.83163e-06
3.04471e-06
2.67094e-06
2.75142e-06
3.8829e-06
7.82542e-06
1.86313e-06
1.10554e-07
7.63636e-09
1.08189e-06
2.34188e-06
4.02662e-06
6.23028e-06
9.00877e-06
1.22617e-05
1.56606e-05
1.87923e-05
2.13906e-05
2.33881e-05
2.48309e-05
2.58021e-05
2.6385e-05
2.66461e-05
2.66265e-05
2.63371e-05
2.5753e-05
2.48092e-05
2.34056e-05
2.14325e-05
1.88495e-05
1.57865e-05
1.25559e-05
9.52609e-06
6.97402e-06
5.03743e-06
3.74856e-06
3.00068e-06
2.6725e-06
2.81742e-06
4.08202e-06
7.78001e-06
1.85768e-06
1.15288e-07
8.64717e-09
1.12619e-06
2.43942e-06
4.21314e-06
6.55923e-06
9.53e-06
1.29746e-05
1.64876e-05
1.96232e-05
2.21416e-05
2.40152e-05
2.53187e-05
2.61535e-05
2.66135e-05
2.6771e-05
2.66691e-05
2.6318e-05
2.56908e-05
2.47169e-05
2.32918e-05
2.1304e-05
1.87158e-05
1.56627e-05
1.24567e-05
9.45588e-06
6.92482e-06
4.99965e-06
3.72232e-06
2.98344e-06
2.67553e-06
2.86526e-06
4.23802e-06
7.72188e-06
1.8595e-06
1.19958e-07
9.66137e-09
1.16041e-06
2.5164e-06
4.36917e-06
6.85146e-06
1.00154e-05
1.36587e-05
1.72944e-05
2.04415e-05
2.28855e-05
2.46382e-05
2.58049e-05
2.65068e-05
2.68493e-05
2.691e-05
2.67331e-05
2.63275e-05
2.56627e-05
2.46625e-05
2.32178e-05
2.12135e-05
1.86142e-05
1.55617e-05
1.23748e-05
9.40876e-06
6.9142e-06
5.01433e-06
3.74974e-06
3.0077e-06
2.70147e-06
2.91726e-06
4.3775e-06
7.67959e-06
1.86724e-06
1.2489e-07
1.08301e-08
1.19345e-06
2.59523e-06
4.53938e-06
7.18144e-06
1.05668e-05
1.44213e-05
1.81623e-05
2.1287e-05
2.36264e-05
2.5242e-05
2.62701e-05
2.68483e-05
2.70891e-05
2.7071e-05
2.68363e-05
2.63906e-05
2.56989e-05
2.46809e-05
2.32236e-05
2.12085e-05
1.85969e-05
1.5533e-05
1.23456e-05
9.39843e-06
6.93739e-06
5.06987e-06
3.82174e-06
3.07235e-06
2.7544e-06
2.97694e-06
4.4986e-06
7.69877e-06
1.88339e-06
1.30234e-07
1.20826e-08
1.22626e-06
2.67618e-06
4.7157e-06
7.51951e-06
1.1118e-05
1.51562e-05
1.89642e-05
2.20389e-05
2.42654e-05
2.57502e-05
2.66554e-05
2.71303e-05
2.7291e-05
2.7215e-05
2.69409e-05
2.64693e-05
2.57588e-05
2.47236e-05
2.32458e-05
2.12034e-05
1.85567e-05
1.54568e-05
1.22498e-05
9.31708e-06
6.9052e-06
5.10288e-06
3.90324e-06
3.1685e-06
2.84693e-06
3.07644e-06
4.66535e-06
7.74755e-06
1.90325e-06
1.35907e-07
1.3508e-08
1.25756e-06
2.75437e-06
4.88748e-06
7.85054e-06
1.16558e-05
1.58598e-05
1.97105e-05
2.27206e-05
2.48345e-05
2.62012e-05
2.7003e-05
2.73976e-05
2.7502e-05
2.73909e-05
2.70978e-05
2.66172e-05
2.59001e-05
2.48535e-05
2.33528e-05
2.12686e-05
1.8557e-05
1.53781e-05
1.21059e-05
9.15524e-06
6.78573e-06
5.06981e-06
3.95162e-06
3.26607e-06
2.96586e-06
3.22061e-06
4.90841e-06
7.78322e-06
1.92158e-06
1.41385e-07
1.50157e-08
1.28398e-06
2.82421e-06
5.04794e-06
8.16794e-06
1.21736e-05
1.65252e-05
2.03974e-05
2.33345e-05
2.53426e-05
2.66066e-05
2.73245e-05
2.76588e-05
2.77261e-05
2.75972e-05
2.73001e-05
2.68218e-05
2.61044e-05
2.50477e-05
2.35193e-05
2.13805e-05
1.85791e-05
1.52828e-05
1.19e-05
8.89322e-06
6.55025e-06
4.93435e-06
3.93117e-06
3.33942e-06
3.10326e-06
3.42549e-06
5.2838e-06
7.71992e-06
1.93043e-06
1.45905e-07
1.6667e-08
1.31036e-06
2.89548e-06
5.21319e-06
8.49498e-06
1.26983e-05
1.7175e-05
2.10377e-05
2.38812e-05
2.57749e-05
2.69353e-05
2.75723e-05
2.78516e-05
2.78882e-05
2.77486e-05
2.74545e-05
2.69851e-05
2.62743e-05
2.52167e-05
2.36759e-05
2.15056e-05
1.86409e-05
1.52412e-05
1.17349e-05
8.63383e-06
6.27333e-06
4.72845e-06
3.83804e-06
3.36682e-06
3.23727e-06
3.67914e-06
5.78998e-06
7.53134e-06
1.92933e-06
1.48869e-07
1.83258e-08
1.33608e-06
2.9638e-06
5.36926e-06
8.80146e-06
1.31824e-05
1.77563e-05
2.15876e-05
2.43266e-05
2.60992e-05
2.7149e-05
2.76974e-05
2.79145e-05
2.79148e-05
2.77607e-05
2.74668e-05
2.7003e-05
2.62973e-05
2.52429e-05
2.37066e-05
2.15452e-05
1.86842e-05
1.52547e-05
1.16673e-05
8.46461e-06
6.04224e-06
4.51386e-06
3.69911e-06
3.34553e-06
3.35121e-06
3.96241e-06
6.38885e-06
7.24336e-06
1.92125e-06
1.50464e-07
1.99794e-08
1.36078e-06
3.02585e-06
5.50943e-06
9.08076e-06
1.36275e-05
1.82844e-05
2.207e-05
2.46902e-05
2.63253e-05
2.72462e-05
2.76886e-05
2.78288e-05
2.77819e-05
2.76058e-05
2.73078e-05
2.68481e-05
2.61505e-05
2.5111e-05
2.36078e-05
2.15134e-05
1.87521e-05
1.54091e-05
1.18259e-05
8.53068e-06
5.985e-06
4.38097e-06
3.55932e-06
3.27365e-06
3.40549e-06
4.2008e-06
6.93349e-06
6.97386e-06
1.91522e-06
1.51823e-07
2.15337e-08
1.38229e-06
3.07689e-06
5.62592e-06
9.3207e-06
1.40161e-05
1.87377e-05
2.24609e-05
2.49466e-05
2.64277e-05
2.72043e-05
2.7528e-05
2.75827e-05
2.74835e-05
2.72833e-05
2.69812e-05
2.65282e-05
2.5846e-05
2.48355e-05
2.33895e-05
2.14038e-05
1.88155e-05
1.56716e-05
1.2214e-05
8.89075e-06
6.19472e-06
4.42265e-06
3.48572e-06
3.17663e-06
3.37718e-06
4.32166e-06
7.28549e-06
6.80443e-06
1.9186e-06
1.54309e-07
2.30644e-08
1.40098e-06
3.11816e-06
5.72252e-06
9.52859e-06
1.43574e-05
1.91228e-05
2.27612e-05
2.50934e-05
2.64061e-05
2.70295e-05
2.72318e-05
2.72029e-05
2.70562e-05
2.68377e-05
2.65367e-05
2.60981e-05
2.54437e-05
2.44791e-05
2.31099e-05
2.12538e-05
1.88675e-05
1.5982e-05
1.27528e-05
9.5073e-06
6.6987e-06
4.70999e-06
3.55953e-06
3.11311e-06
3.27705e-06
4.2737e-06
7.34866e-06
6.76564e-06
1.93379e-06
1.58894e-07
2.45947e-08
1.41532e-06
3.14852e-06
5.79956e-06
9.70481e-06
1.4649e-05
1.94351e-05
2.2971e-05
2.51417e-05
2.62862e-05
2.67633e-05
2.68549e-05
2.67546e-05
2.65721e-05
2.63455e-05
2.60541e-05
2.56364e-05
2.50132e-05
2.40945e-05
2.27962e-05
2.10547e-05
1.8847e-05
1.62079e-05
1.32505e-05
1.01966e-05
7.39618e-06
5.23784e-06
3.839e-06
3.17017e-06
3.18735e-06
4.1099e-06
7.15842e-06
6.83352e-06
1.95665e-06
1.65609e-07
2.6272e-08
1.42694e-06
3.17395e-06
5.87033e-06
9.87186e-06
1.49206e-05
1.97074e-05
2.31262e-05
2.5134e-05
2.61197e-05
2.64656e-05
2.64635e-05
2.63076e-05
2.61026e-05
2.58771e-05
2.55996e-05
2.5206e-05
2.46155e-05
2.37395e-05
2.25008e-05
2.08445e-05
1.87591e-05
1.62955e-05
1.35692e-05
1.07533e-05
8.09262e-06
5.89185e-06
4.30133e-06
3.39504e-06
3.20275e-06
3.95649e-06
6.86273e-06
6.97395e-06
1.98052e-06
1.73489e-07
2.81339e-08
1.43683e-06
3.19803e-06
5.94154e-06
1.00399e-05
1.5185e-05
1.99556e-05
2.32499e-05
2.51027e-05
2.59467e-05
2.61817e-05
2.61049e-05
2.59087e-05
2.56895e-05
2.54679e-05
2.52029e-05
2.48246e-05
2.42521e-05
2.34007e-05
2.21994e-05
2.05985e-05
1.85903e-05
1.62321e-05
1.36528e-05
1.10312e-05
8.57344e-06
6.4715e-06
4.82335e-06
3.75279e-06
3.36945e-06
3.94835e-06
6.71679e-06
7.12456e-06
2.0002e-06
1.80499e-07
3.02265e-08
1.44723e-06
3.22588e-06
6.02365e-06
1.02306e-05
1.54783e-05
2.02261e-05
2.33931e-05
2.50983e-05
2.58133e-05
2.59509e-05
2.58102e-05
2.55786e-05
2.53454e-05
2.5121e-05
2.48546e-05
2.44718e-05
2.38922e-05
2.3037e-05
2.18451e-05
2.02726e-05
1.83082e-05
1.60054e-05
1.35067e-05
1.10204e-05
8.75634e-06
6.82397e-06
5.24995e-06
4.13944e-06
3.65271e-06
4.13668e-06
6.91314e-06
7.17126e-06
2.00721e-06
1.84181e-07
3.24381e-08
1.45832e-06
3.25727e-06
6.11588e-06
1.04446e-05
1.58057e-05
2.05301e-05
2.35703e-05
2.51324e-05
2.57242e-05
2.57692e-05
2.55667e-05
2.52984e-05
2.50439e-05
2.48013e-05
2.45118e-05
2.40971e-05
2.34795e-05
2.25913e-05
2.13884e-05
1.98367e-05
1.79156e-05
1.56588e-05
1.3208e-05
1.08053e-05
8.69398e-06
6.93873e-06
5.51336e-06
4.47616e-06
4.00053e-06
4.51683e-06
7.50952e-06
7.04131e-06
1.99843e-06
1.83383e-07
3.46923e-08
1.47129e-06
3.29381e-06
6.22204e-06
1.06922e-05
1.61829e-05
2.08802e-05
2.37847e-05
2.51969e-05
2.56611e-05
2.5611e-05
2.53445e-05
2.50345e-05
2.47479e-05
2.44688e-05
2.41299e-05
2.36513e-05
2.29624e-05
2.20158e-05
2.07952e-05
1.92835e-05
1.74477e-05
1.52825e-05
1.29e-05
1.05593e-05
8.5478e-06
6.92531e-06
5.65541e-06
4.75451e-06
4.38275e-06
5.05354e-06
8.40803e-06
6.8109e-06
1.98387e-06
1.79432e-07
3.68619e-08
1.48508e-06
3.33218e-06
6.33537e-06
1.09612e-05
1.65908e-05
2.12529e-05
2.40106e-05
2.52647e-05
2.55966e-05
2.54508e-05
2.51215e-05
2.47689e-05
2.44447e-05
2.41165e-05
2.37084e-05
2.31401e-05
2.23534e-05
2.13299e-05
2.00922e-05
1.86508e-05
1.69646e-05
1.49764e-05
1.27332e-05
1.04716e-05
8.50582e-06
6.93659e-06
5.76802e-06
5.00302e-06
4.7827e-06
5.67964e-06
9.3835e-06
6.6271e-06
1.97879e-06
1.75196e-07
3.89402e-08
1.49949e-06
3.3715e-06
6.45444e-06
1.12479e-05
1.70171e-05
2.16259e-05
2.42212e-05
2.53094e-05
2.55095e-05
2.52744e-05
2.48911e-05
2.45037e-05
2.41457e-05
2.37673e-05
2.32832e-05
2.26133e-05
2.17143e-05
2.06026e-05
1.93477e-05
1.79971e-05
1.6512e-05
1.47861e-05
1.27773e-05
1.06504e-05
8.69778e-06
7.09706e-06
5.93843e-06
5.25239e-06
5.17292e-06
6.30357e-06
1.02365e-05
6.5803e-06
1.99379e-06
1.72993e-07
4.09437e-08
1.51334e-06
3.40946e-06
6.57507e-06
1.15421e-05
1.744e-05
2.19704e-05
2.43896e-05
2.53111e-05
2.53881e-05
2.50781e-05
2.46563e-05
2.42481e-05
2.38673e-05
2.34458e-05
2.28875e-05
2.21106e-05
2.10877e-05
1.9875e-05
1.85946e-05
1.73376e-05
1.60784e-05
1.46755e-05
1.29948e-05
1.10878e-05
9.16506e-06
7.47971e-06
6.23806e-06
5.54194e-06
5.54475e-06
6.8631e-06
1.09233e-05
6.68094e-06
2.03057e-06
1.73582e-07
4.29844e-08
1.52662e-06
3.44706e-06
6.70013e-06
1.18459e-05
1.78552e-05
2.22796e-05
2.45132e-05
2.52737e-05
2.52415e-05
2.48734e-05
2.44293e-05
2.40146e-05
2.36232e-05
2.31676e-05
2.25374e-05
2.16455e-05
2.04801e-05
1.91418e-05
1.78131e-05
1.6635e-05
1.56031e-05
1.45564e-05
1.32823e-05
1.16946e-05
9.87082e-06
8.10128e-06
6.7141e-06
5.91731e-06
5.91552e-06
7.34151e-06
1.14825e-05
6.87959e-06
2.08071e-06
1.76471e-07
4.5143e-08
1.53923e-06
3.48523e-06
6.83204e-06
1.216e-05
1.82561e-05
2.25475e-05
2.45929e-05
2.52037e-05
2.50789e-05
2.46688e-05
2.42164e-05
2.3807e-05
2.34147e-05
2.29325e-05
2.22302e-05
2.12103e-05
1.9875e-05
1.83758e-05
1.69655e-05
1.58411e-05
1.50239e-05
1.43462e-05
1.35352e-05
1.23551e-05
1.07284e-05
8.92866e-06
7.38482e-06
6.42889e-06
6.34514e-06
7.80117e-06
1.20083e-05
7.12622e-06
2.13564e-06
1.80704e-07
4.75223e-08
1.55171e-06
3.52632e-06
6.97597e-06
1.24914e-05
1.86507e-05
2.27891e-05
2.46494e-05
2.5123e-05
2.49193e-05
2.44789e-05
2.40271e-05
2.36302e-05
2.32432e-05
2.27372e-05
2.19583e-05
2.0791e-05
1.925e-05
1.75456e-05
1.60134e-05
1.49132e-05
1.42938e-05
1.39865e-05
1.36728e-05
1.29634e-05
1.16283e-05
9.88192e-06
8.21948e-06
7.09619e-06
6.89668e-06
8.35006e-06
1.26201e-05
7.38018e-06
2.1901e-06
1.85217e-07
5.01507e-08
1.56439e-06
3.57183e-06
7.13409e-06
1.28393e-05
1.90378e-05
2.30144e-05
2.47002e-05
2.50483e-05
2.47764e-05
2.43137e-05
2.38687e-05
2.34901e-05
2.31141e-05
2.25888e-05
2.17305e-05
2.03979e-05
1.86138e-05
1.6655e-05
1.49546e-05
1.38425e-05
1.33961e-05
1.34504e-05
1.36475e-05
1.34512e-05
1.24845e-05
1.08773e-05
9.16058e-06
7.9028e-06
7.6028e-06
9.0766e-06
1.34025e-05
7.60671e-06
2.24046e-06
1.89259e-07
5.30363e-08
1.5778e-06
3.62251e-06
7.30418e-06
1.31939e-05
1.94061e-05
2.3211e-05
2.47381e-05
2.49805e-05
2.46509e-05
2.41724e-05
2.37397e-05
2.33857e-05
2.30293e-05
2.24953e-05
2.15656e-05
2.00631e-05
1.80089e-05
1.57499e-05
1.383e-05
1.26589e-05
1.23457e-05
1.27357e-05
1.34331e-05
1.37748e-05
1.32392e-05
1.18537e-05
1.01603e-05
8.82729e-06
8.47682e-06
1.00289e-05
1.4371e-05
7.78834e-06
2.28574e-06
1.92448e-07
5.60696e-08
1.59179e-06
3.67685e-06
7.47717e-06
1.35294e-05
1.97236e-05
2.33658e-05
2.47587e-05
2.49152e-05
2.45382e-05
2.40498e-05
2.3635e-05
2.33136e-05
2.299e-05
2.24684e-05
2.14947e-05
1.98447e-05
1.75186e-05
1.49237e-05
1.27252e-05
1.14265e-05
1.11779e-05
1.18471e-05
1.30043e-05
1.38901e-05
1.38396e-05
1.27609e-05
1.11834e-05
9.85883e-06
9.53554e-06
1.12439e-05
1.55018e-05
7.92715e-06
2.32746e-06
1.94567e-07
5.90391e-08
1.60588e-06
3.73095e-06
7.63987e-06
1.3827e-05
1.99848e-05
2.34861e-05
2.47692e-05
2.48572e-05
2.44451e-05
2.39536e-05
2.35606e-05
2.32781e-05
2.30012e-05
2.25207e-05
2.15524e-05
1.98186e-05
1.7266e-05
1.43243e-05
1.17781e-05
1.02484e-05
9.94566e-06
1.07776e-05
1.23032e-05
1.3708e-05
1.41883e-05
1.35108e-05
1.21643e-05
1.09644e-05
1.07831e-05
1.27451e-05
1.67201e-05
8.02282e-06
2.36659e-06
1.95431e-07
6.16505e-08
1.61901e-06
3.78013e-06
7.78051e-06
1.40733e-05
2.01876e-05
2.35724e-05
2.47658e-05
2.47949e-05
2.43511e-05
2.38571e-05
2.34877e-05
2.32503e-05
2.30374e-05
2.26375e-05
2.1752e-05
2.00499e-05
1.73819e-05
1.41237e-05
1.11541e-05
9.25474e-06
8.727e-06
9.53816e-06
1.12783e-05
1.31335e-05
1.41779e-05
1.40068e-05
1.3031e-05
1.21068e-05
1.2218e-05
1.45149e-05
1.78853e-05
8.08529e-06
2.40453e-06
1.95164e-07
6.3641e-08
1.62972e-06
3.818e-06
7.88367e-06
1.42499e-05
2.03304e-05
2.36273e-05
2.47474e-05
2.47236e-05
2.42499e-05
2.37533e-05
2.34064e-05
2.32147e-05
2.30737e-05
2.2782e-05
2.20485e-05
2.05135e-05
1.79131e-05
1.44691e-05
1.10569e-05
8.63031e-06
7.65594e-06
8.19319e-06
9.91468e-06
1.20882e-05
1.37129e-05
1.417e-05
1.37268e-05
1.32462e-05
1.37972e-05
1.64337e-05
1.88539e-05
8.15004e-06
2.446e-06
1.9454e-07
6.4924e-08
1.6373e-06
3.84228e-06
7.94792e-06
1.43646e-05
2.04268e-05
2.36591e-05
2.47163e-05
2.46429e-05
2.41411e-05
2.36415e-05
2.33154e-05
2.31673e-05
2.30982e-05
2.29253e-05
2.23886e-05
2.11405e-05
1.88259e-05
1.54262e-05
1.16457e-05
8.58154e-06
6.94399e-06
6.91707e-06
8.30958e-06
1.05626e-05
1.27198e-05
1.39198e-05
1.41727e-05
1.42861e-05
1.53713e-05
1.82632e-05
1.95689e-05
8.25358e-06
2.49576e-06
1.94819e-07
6.56001e-08
1.64143e-06
3.85257e-06
7.9766e-06
1.44302e-05
2.04934e-05
2.36793e-05
2.46789e-05
2.45575e-05
2.40296e-05
2.35297e-05
2.32265e-05
2.31224e-05
2.31235e-05
2.3066e-05
2.27315e-05
2.18213e-05
1.996e-05
1.69053e-05
1.30111e-05
9.3216e-06
6.84462e-06
5.99651e-06
6.72583e-06
8.68114e-06
1.11458e-05
1.31279e-05
1.423e-05
1.50605e-05
1.67129e-05
1.97482e-05
2.00741e-05
8.41458e-06
2.55601e-06
1.97168e-07
6.58511e-08
1.64232e-06
3.85041e-06
7.97619e-06
1.44573e-05
2.0534e-05
2.3684e-05
2.46295e-05
2.44638e-05
2.39157e-05
2.34223e-05
2.31481e-05
2.3092e-05
2.31628e-05
2.32115e-05
2.30576e-05
2.24629e-05
2.10974e-05
1.86138e-05
1.49917e-05
1.09349e-05
7.59556e-06
5.7501e-06
5.55783e-06
6.80854e-06
9.1093e-06
1.1655e-05
1.36872e-05
1.53621e-05
1.76001e-05
2.0736e-05
2.04181e-05
8.61326e-06
2.62187e-06
2.02088e-07
6.59365e-08
1.64101e-06
3.84043e-06
7.96111e-06
1.4468e-05
2.05588e-05
2.36697e-05
2.45595e-05
2.43521e-05
2.37905e-05
2.33129e-05
2.30787e-05
2.3079e-05
2.32217e-05
2.33702e-05
2.33701e-05
2.3032e-05
2.2095e-05
2.02254e-05
1.71824e-05
1.32095e-05
9.25199e-06
6.39042e-06
5.13945e-06
5.42268e-06
7.04841e-06
9.59671e-06
1.23401e-05
1.49327e-05
1.78495e-05
2.11902e-05
2.06129e-05
8.80808e-06
2.68575e-06
2.0954e-07
6.60763e-08
1.63804e-06
3.82578e-06
7.93918e-06
1.447e-05
2.05693e-05
2.36317e-05
2.44599e-05
2.4212e-05
2.36418e-05
2.31836e-05
2.29903e-05
2.30506e-05
2.32702e-05
2.35188e-05
2.36547e-05
2.35144e-05
2.28986e-05
2.15438e-05
1.91627e-05
1.56704e-05
1.15677e-05
7.91233e-06
5.60375e-06
4.83603e-06
5.51125e-06
7.46012e-06
1.03138e-05
1.36062e-05
1.72856e-05
2.10744e-05
2.06286e-05
8.94929e-06
2.73825e-06
2.18947e-07
6.65045e-08
1.63501e-06
3.81277e-06
7.9295e-06
1.44987e-05
2.05902e-05
2.35795e-05
2.43351e-05
2.40446e-05
2.34681e-05
2.30339e-05
2.28882e-05
2.30122e-05
2.33044e-05
2.36337e-05
2.38667e-05
2.38654e-05
2.34764e-05
2.25002e-05
2.06917e-05
1.78411e-05
1.40542e-05
1.00502e-05
6.87477e-06
5.09481e-06
4.77293e-06
5.83388e-06
8.16765e-06
1.15916e-05
1.58991e-05
2.03938e-05
2.04592e-05
9.00014e-06
2.77059e-06
2.29361e-07
6.7331e-08
1.63269e-06
3.80491e-06
7.93863e-06
1.45555e-05
2.06154e-05
2.35058e-05
2.41749e-05
2.38362e-05
2.3252e-05
2.28415e-05
2.27424e-05
2.29279e-05
2.32895e-05
2.36941e-05
2.40072e-05
2.40945e-05
2.38268e-05
2.30741e-05
2.16834e-05
1.94502e-05
1.62414e-05
1.23695e-05
8.70566e-06
6.07333e-06
4.81396e-06
4.95668e-06
6.48004e-06
9.43742e-06
1.39057e-05
1.92048e-05
2.01358e-05
8.94619e-06
2.78069e-06
2.39613e-07
6.86323e-08
1.63241e-06
3.80612e-06
7.97627e-06
1.46542e-05
2.0656e-05
2.34185e-05
2.39864e-05
2.35933e-05
2.29989e-05
2.26103e-05
2.25554e-05
2.27976e-05
2.32191e-05
2.3681e-05
2.4043e-05
2.41704e-05
2.39521e-05
2.33091e-05
2.2171e-05
2.04043e-05
1.78269e-05
1.44379e-05
1.0737e-05
7.5426e-06
5.47951e-06
4.77715e-06
5.46846e-06
7.68246e-06
1.1788e-05
1.76383e-05
1.96978e-05
8.78155e-06
2.7644e-06
2.4822e-07
7.041e-08
1.63414e-06
3.81711e-06
8.04252e-06
1.47897e-05
2.07082e-05
2.33187e-05
2.37732e-05
2.332e-05
2.27123e-05
2.23432e-05
2.23282e-05
2.26195e-05
2.30889e-05
2.35886e-05
2.39671e-05
2.40824e-05
2.38356e-05
2.3198e-05
2.21877e-05
2.07627e-05
1.87541e-05
1.59889e-05
1.26239e-05
9.22741e-06
6.56764e-06
5.13626e-06
5.07747e-06
6.53269e-06
1e-05
1.59744e-05
1.91994e-05
8.5306e-06
2.72391e-06
2.54136e-07
7.26034e-08
1.63799e-06
3.83746e-06
8.1354e-06
1.49586e-05
2.07702e-05
2.32103e-05
2.35432e-05
2.30266e-05
2.24042e-05
2.20525e-05
2.20731e-05
2.24058e-05
2.2911e-05
2.34287e-05
2.37913e-05
2.38429e-05
2.34921e-05
2.27611e-05
2.1763e-05
2.05624e-05
1.90471e-05
1.69588e-05
1.41572e-05
1.08827e-05
7.88049e-06
5.86541e-06
5.1623e-06
5.94717e-06
8.74451e-06
1.45065e-05
1.87032e-05
8.22475e-06
2.66568e-06
2.56783e-07
7.5107e-08
1.64347e-06
3.86475e-06
8.24561e-06
1.51447e-05
2.08297e-05
2.30906e-05
2.33004e-05
2.2721e-05
2.20842e-05
2.17496e-05
2.1803e-05
2.21712e-05
2.27025e-05
2.32227e-05
2.35434e-05
2.3487e-05
2.29642e-05
2.20501e-05
2.09612e-05
1.98776e-05
1.87669e-05
1.73461e-05
1.52403e-05
1.23499e-05
9.26114e-06
6.83119e-06
5.59308e-06
5.81059e-06
8.01875e-06
1.34246e-05
1.82507e-05
7.8934e-06
2.59732e-06
2.56215e-07
7.77986e-08
1.65052e-06
3.8983e-06
8.36805e-06
1.53343e-05
2.08768e-05
2.29589e-05
2.30505e-05
2.24124e-05
2.17641e-05
2.14484e-05
2.15344e-05
2.19354e-05
2.2489e-05
2.30058e-05
2.32717e-05
2.30796e-05
2.23335e-05
2.11606e-05
1.98871e-05
1.88158e-05
1.80061e-05
1.71914e-05
1.58298e-05
1.35242e-05
1.06061e-05
7.95152e-06
6.29417e-06
6.03924e-06
7.75358e-06
1.27759e-05
1.78901e-05
7.57805e-06
2.52747e-06
2.5317e-07
8.05372e-08
1.65862e-06
3.93529e-06
8.49184e-06
1.55087e-05
2.09012e-05
2.28156e-05
2.27992e-05
2.21093e-05
2.14542e-05
2.11617e-05
2.12838e-05
2.17209e-05
2.2302e-05
2.28232e-05
2.30425e-05
2.27142e-05
2.17218e-05
2.02353e-05
1.86927e-05
1.75246e-05
1.68892e-05
1.65627e-05
1.59058e-05
1.42992e-05
1.17859e-05
9.13532e-06
7.21283e-06
6.59184e-06
7.92621e-06
1.26263e-05
1.76942e-05
7.30336e-06
2.46159e-06
2.47835e-07
8.30785e-08
1.66659e-06
3.97103e-06
8.6029e-06
1.56483e-05
2.08935e-05
2.26573e-05
2.2545e-05
2.18103e-05
2.11535e-05
2.0889e-05
2.10519e-05
2.15316e-05
2.21514e-05
2.26972e-05
2.29006e-05
2.24705e-05
2.12494e-05
1.94263e-05
1.75434e-05
1.61641e-05
1.55535e-05
1.55482e-05
1.54737e-05
1.4573e-05
1.26278e-05
1.02185e-05
8.24345e-06
7.42653e-06
8.54824e-06
1.31016e-05
1.76737e-05
7.06044e-06
2.40092e-06
2.39648e-07
8.51237e-08
1.67345e-06
4.00108e-06
8.68963e-06
1.57426e-05
2.08517e-05
2.24813e-05
2.22804e-05
2.15041e-05
2.08475e-05
2.06128e-05
2.08181e-05
2.13442e-05
2.20138e-05
2.26095e-05
2.2845e-05
2.23843e-05
2.10065e-05
1.88762e-05
1.6609e-05
1.49038e-05
1.41482e-05
1.42606e-05
1.45918e-05
1.43257e-05
1.3031e-05
1.10645e-05
9.27156e-06
8.48551e-06
9.63675e-06
1.42449e-05
1.77387e-05
6.8593e-06
2.35125e-06
2.28993e-07
8.64264e-08
1.67816e-06
4.02108e-06
8.7435e-06
1.57871e-05
2.07747e-05
2.22817e-05
2.19954e-05
2.11782e-05
2.05212e-05
2.03141e-05
2.05585e-05
2.11291e-05
2.18533e-05
2.25197e-05
2.28392e-05
2.24463e-05
2.10446e-05
1.8714e-05
1.60757e-05
1.39488e-05
1.28668e-05
1.28625e-05
1.33861e-05
1.36463e-05
1.30413e-05
1.1672e-05
1.02671e-05
9.73152e-06
1.11427e-05
1.59023e-05
1.78556e-05
6.77506e-06
2.3293e-06
2.18708e-07
8.69159e-08
1.67988e-06
4.02807e-06
8.7611e-06
1.57845e-05
2.06683e-05
2.20614e-05
2.16915e-05
2.08342e-05
2.01762e-05
1.99934e-05
2.02724e-05
2.08845e-05
2.16651e-05
2.24158e-05
2.28617e-05
2.2634e-05
2.13736e-05
1.90257e-05
1.61147e-05
1.35237e-05
1.19511e-05
1.15859e-05
1.20437e-05
1.26591e-05
1.27353e-05
1.20817e-05
1.12294e-05
1.11124e-05
1.29161e-05
1.77227e-05
1.8154e-05
6.87576e-06
2.35014e-06
2.11789e-07
8.67644e-08
1.67892e-06
4.02354e-06
8.74972e-06
1.57473e-05
2.05417e-05
2.18278e-05
2.13773e-05
2.04827e-05
1.9826e-05
1.96656e-05
1.99772e-05
2.06309e-05
2.14714e-05
2.23157e-05
2.29123e-05
2.29139e-05
2.19338e-05
1.97791e-05
1.67838e-05
1.37854e-05
1.163e-05
1.07011e-05
1.08095e-05
1.14942e-05
1.21119e-05
1.22256e-05
1.20645e-05
1.24903e-05
1.47159e-05
1.93987e-05
1.87537e-05
7.17847e-06
2.41656e-06
2.09687e-07
8.62662e-08
1.67564e-06
4.01009e-06