/*--------------------------------*- C++ -*----------------------------------*\
| =========                 |                                                 |
| \\      /  F ield         | OpenFOAM: The Open Source CFD Toolbox           |
|  \\    /   O peration     | Version:  v2006                                 |
|   \\  /    A nd           | Website:  www.openfoam.com                      |
|    \\/     M anipulation  |                                                 |
\*---------------------------------------------------------------------------*/
FoamFile
{
    version     2.0;
    format      ascii;
    class       surfaceScalarField;
    location    "36";
    object      phi;
}
// * * * * * * * * * * * * * * * * * * * * * * * * * * * * * * * * * * * * * //

dimensions      [1 0 -1 0 0 0 0];
oriented        oriented;


internalField   nonuniform List<scalar> 
228225
(
-1.0971e-05
-2.18306e-07
1.29846e-07
-1.01186e-05
-9.95949e-07
1.4303e-07
-8.95681e-06
-1.31425e-06
1.52408e-07
-7.66131e-06
-1.43465e-06
1.39026e-07
-6.38188e-06
-1.396e-06
1.16515e-07
-5.19811e-06
-1.27992e-06
9.61419e-08
-4.13004e-06
-1.15027e-06
8.21913e-08
-3.17403e-06
-1.03168e-06
7.56842e-08
-2.31265e-06
-9.38078e-07
7.67475e-08
-1.52335e-06
-8.73223e-07
8.40096e-08
-7.89463e-07
-8.2767e-07
9.38753e-08
-9.83164e-08
-7.94932e-07
1.03891e-07
5.58064e-07
-7.69359e-07
1.13099e-07
1.18407e-06
-7.46929e-07
1.2105e-07
1.78135e-06
-7.24694e-07
1.27553e-07
2.34985e-06
-7.00978e-07
1.3262e-07
2.88833e-06
-6.74759e-07
1.3642e-07
3.39465e-06
-6.45399e-07
1.39218e-07
3.86603e-06
-6.12555e-07
1.41302e-07
4.29931e-06
-5.7613e-07
1.42979e-07
4.69109e-06
-5.36245e-07
1.44568e-07
5.03794e-06
-4.93146e-07
1.46403e-07
5.33629e-06
-4.47116e-07
1.48845e-07
5.58238e-06
-3.9833e-07
1.5231e-07
5.77174e-06
-3.46653e-07
1.57341e-07
5.89829e-06
-2.91255e-07
1.64731e-07
5.95297e-06
-2.29886e-07
1.75213e-07
5.92157e-06
-1.57815e-07
1.89217e-07
5.78174e-06
-6.81689e-08
2.07978e-07
5.49343e-06
5.57206e-08
2.32582e-07
4.98039e-06
2.49192e-07
2.63858e-07
4.12417e-06
5.58847e-07
2.97475e-07
2.82159e-06
9.89874e-07
3.13023e-07
1.20619e-06
1.34613e-06
2.70037e-07
1.07187e-06
1.35775e-07
-1.01888e-06
7.06891e-07
9.32666e-08
-2.41299e-06
4.35975e-07
-3.7866e-08
-3.68393e-06
1.45456e-07
-1.88865e-07
-4.73269e-06
-5.99072e-08
-3.25834e-07
-5.5447e-06
-1.81531e-07
-4.02237e-07
-6.09311e-06
-3.02424e-07
-4.28746e-07
-6.38401e-06
-4.30895e-07
-4.28004e-07
-6.44644e-06
-5.57645e-07
-4.11029e-07
-6.31931e-06
-6.81657e-07
-3.82882e-07
-6.03993e-06
-8.0343e-07
-3.48446e-07
-5.63615e-06
-9.16818e-07
-3.13856e-07
-5.12854e-06
-1.01732e-06
-2.84398e-07
-4.53591e-06
-1.10053e-06
-2.60611e-07
-3.87765e-06
-1.16268e-06
-2.41649e-07
-3.1716e-06
-1.20284e-06
-2.27047e-07
-2.433e-06
-1.22247e-06
-2.16242e-07
-1.67559e-06
-1.22291e-06
-2.08417e-07
-9.12426e-07
-1.20493e-06
-2.02792e-07
-1.56195e-07
-1.16919e-06
-1.98784e-07
5.80708e-07
-1.11633e-06
-1.95914e-07
1.28628e-06
-1.04737e-06
-1.93691e-07
1.94883e-06
-9.63424e-07
-1.91567e-07
2.55682e-06
-8.65535e-07
-1.88894e-07
3.09847e-06
-7.5452e-07
-1.84846e-07
3.56121e-06
-6.30568e-07
-1.78258e-07
3.93062e-06
-4.92429e-07
-1.67745e-07
4.18933e-06
-3.35981e-07
-1.522e-07
4.31486e-06
-1.51991e-07
-1.31013e-07
4.27253e-06
7.7114e-08
-1.02691e-07
4.01391e-06
3.78356e-07
-6.38368e-08
3.48617e-06
7.88002e-07
-1.09282e-08
2.65078e-06
1.32608e-06
6.83308e-08
1.59313e-06
1.90591e-06
1.4202e-07
5.68255e-07
2.2088e-06
1.63088e-07
1.54286e-06
9.88614e-08
-4.52875e-08
6.61939e-07
9.00508e-08
-6.8511e-07
9.56073e-07
1.19221e-07
-1.66285e-06
9.64667e-07
1.5852e-07
-2.75456e-06
7.99829e-07
2.32272e-07
-3.7793e-06
5.16796e-07
3.26923e-07
-4.66798e-06
1.74612e-07
4.1249e-07
-5.34476e-06
-2.23748e-07
4.70775e-07
-5.76748e-06
-6.35033e-07
5.01439e-07
-5.9523e-06
-1.00877e-06
5.13338e-07
-5.92369e-06
-1.34554e-06
5.14919e-07
-5.70676e-06
-1.64206e-06
5.09717e-07
-5.32806e-06
-1.89488e-06
5.00233e-07
-4.817e-06
-2.09917e-06
4.88897e-07
-4.20385e-06
-2.25202e-06
4.77469e-07
-3.51654e-06
-2.35571e-06
4.66798e-07
-2.7795e-06
-2.41548e-06
4.57154e-07
-2.01403e-06
-2.43592e-06
4.48686e-07
-1.23914e-06
-2.42016e-06
4.41472e-07
-4.72623e-07
-2.37008e-06
4.35479e-07
2.68285e-07
-2.28676e-06
4.30622e-07
9.66762e-07
-2.17145e-06
4.26698e-07
1.60645e-06
-2.02545e-06
4.23436e-07
2.17077e-06
-1.84926e-06
4.20481e-07
2.64324e-06
-1.64325e-06
4.17334e-07
3.00815e-06
-1.40767e-06
4.1325e-07
3.25134e-06
-1.1416e-06
4.0701e-07
3.36143e-06
-8.41382e-07
3.96293e-07
3.33078e-06
-4.97792e-07
3.77316e-07
3.15342e-06
-9.05509e-08
3.4575e-07
2.82474e-06
4.08808e-07
2.98753e-07
2.33441e-06
1.03778e-06
2.40901e-07
1.69177e-06
1.78176e-06
1.87287e-07
9.69983e-07
2.47565e-06
1.52604e-07
3.27394e-07
2.72647e-06
1.25975e-07
1.7974e-06
7.45951e-08
-2.97143e-08
5.94671e-07
9.6465e-08
-1.32947e-07
8.92834e-07
1.66391e-07
-2.67594e-07
8.89893e-07
2.09298e-07
-4.31991e-07
7.23121e-07
2.41129e-07
-6.39264e-07
4.5943e-07
2.64899e-07
-8.67688e-07
1.22449e-07
2.8106e-07
-1.13768e-06
-2.43972e-07
2.90858e-07
-1.42943e-06
-6.36876e-07
2.9435e-07
-1.67956e-06
-1.04793e-06
2.90097e-07
-1.84513e-06
-1.45654e-06
2.77359e-07
-1.90008e-06
-1.84412e-06
2.57719e-07
-1.83454e-06
-2.19412e-06
2.34312e-07
-1.65143e-06
-2.4923e-06
2.10527e-07
-1.36453e-06
-2.72751e-06
1.89004e-07
-9.92824e-07
-2.89822e-06
1.71145e-07
-5.54205e-07
-3.01132e-06
1.57505e-07
-6.37586e-08
-3.07448e-06
1.48353e-07
4.65304e-07
-3.09286e-06
1.43855e-07
1.02061e-06
-3.06932e-06
1.44147e-07
1.58973e-06
-3.00503e-06
1.49356e-07
2.159e-06
-2.90007e-06
1.59582e-07
2.71173e-06
-2.75285e-06
1.74914e-07
3.22605e-06
-2.5588e-06
1.9552e-07
3.67571e-06
-2.31401e-06
2.21442e-07
4.03307e-06
-2.01725e-06
2.52618e-07
4.2684e-06
-1.66534e-06
2.88876e-07
4.35022e-06
-1.25232e-06
3.29651e-07
4.24922e-06
-7.68692e-07
3.7252e-07
3.9509e-06
-2.02827e-07
4.11277e-07
3.434e-06
4.91916e-07
4.3452e-07
2.72734e-06
1.31789e-06
4.27286e-07
1.90265e-06
2.22587e-06
3.8133e-07
1.06749e-06
3.00474e-06
3.06992e-07
3.59153e-07
3.21716e-06
2.18969e-07
2.05366e-06
1.04829e-07
1.41924e-08
4.94884e-07
8.52252e-08
-1.04579e-07
8.40782e-07
1.70681e-07
-3.52329e-07
9.04043e-07
2.33421e-07
-6.94936e-07
7.79682e-07
2.86125e-07
-1.09526e-06
5.26702e-07
3.33373e-07
-1.51799e-06
1.72509e-07
3.73117e-07
-1.89168e-06
-2.6882e-07
3.99007e-07
-2.17264e-06
-7.61784e-07
4.06296e-07
-2.34652e-06
-1.2689e-06
3.95214e-07
-2.4101e-06
-1.76256e-06
3.69872e-07
-2.37082e-06
-2.21909e-06
3.35893e-07
-2.24222e-06
-2.62112e-06
2.98501e-07
-2.0395e-06
-2.95671e-06
2.61727e-07
-1.77759e-06
-3.21787e-06
2.28431e-07
-1.46936e-06
-3.40639e-06
1.99894e-07
-1.12461e-06
-3.53228e-06
1.76167e-07
-7.51282e-07
-3.60497e-06
1.5712e-07
-3.55912e-07
-3.63109e-06
1.42818e-07
5.63034e-08
-3.61494e-06
1.33376e-07
4.81264e-07
-3.55895e-06
1.28946e-07
9.14935e-07
-3.4635e-06
1.29766e-07
1.35242e-06
-3.32649e-06
1.3621e-07
1.78649e-06
-3.14176e-06
1.48965e-07
2.20277e-06
-2.89889e-06
1.68737e-07
2.57848e-06
-2.58848e-06
1.95703e-07
2.88513e-06
-2.20159e-06
2.29842e-07
3.08746e-06
-1.72441e-06
2.70076e-07
3.14296e-06
-1.1372e-06
3.13376e-07
3.0001e-06
-4.14008e-07
3.54488e-07
2.64857e-06
4.58784e-07
3.85174e-07
2.10191e-06
1.47107e-06
3.94076e-07
1.4241e-06
2.53465e-06
3.6977e-07
7.46018e-07
3.37381e-06
3.10006e-07
2.17875e-07
3.52553e-06
2.21187e-07
2.17417e-06
9.93962e-08
8.30271e-09
4.0471e-07
8.14552e-08
-3.71455e-08
7.07676e-07
1.78301e-07
-1.44215e-07
7.60172e-07
2.50923e-07
-2.95164e-07
6.2271e-07
3.07997e-07
-4.58396e-07
3.37855e-07
3.52225e-07
-5.96369e-07
-7.07192e-08
3.81399e-07
-6.90097e-07
-5.66384e-07
3.91501e-07
-7.23528e-07
-1.10972e-06
3.81533e-07
-6.88189e-07
-1.65858e-06
3.54441e-07
-5.88207e-07
-2.17829e-06
3.15771e-07
-4.34726e-07
-2.64418e-06
2.71557e-07
-2.42302e-07
-3.04049e-06
2.2684e-07
-2.72596e-08
-3.35705e-06
1.85145e-07
1.999e-07
-3.59383e-06
1.48614e-07
4.36163e-07
-3.76063e-06
1.17768e-07
6.80709e-07
-3.86919e-06
9.21423e-08
9.32284e-07
-3.92818e-06
7.14089e-08
1.18898e-06
-3.94354e-06
5.55279e-08
1.44844e-06
-3.91919e-06
4.45744e-08
1.70801e-06
-3.85747e-06
3.87429e-08
1.96498e-06
-3.75902e-06
3.83694e-08
2.21694e-06
-3.62255e-06
4.39356e-08
2.46255e-06
-3.44364e-06
5.6164e-08
2.69763e-06
-3.21064e-06
7.65934e-08
2.90711e-06
-2.90512e-06
1.07152e-07
3.06671e-06
-2.50991e-06
1.48789e-07
3.14843e-06
-2.00733e-06
2.0137e-07
3.11995e-06
-1.37116e-06
2.62722e-07
2.95022e-06
-5.70316e-07
3.26451e-07
2.6076e-06
4.21659e-07
3.80279e-07
2.08344e-06
1.58802e-06
4.07872e-07
1.43763e-06
2.78628e-06
3.95025e-07
7.84016e-07
3.69129e-06
3.37227e-07
2.50434e-07
3.82048e-06
2.40118e-07
2.32314e-06
1.0355e-07
2.84607e-08
2.96892e-07
7.88607e-08
3.96047e-08
5.14014e-07
1.82364e-07
1.13347e-08
5.27428e-07
2.60989e-07
-5.17718e-08
3.6599e-07
3.19804e-07
-1.32165e-07
5.84722e-08
3.59786e-07
-2.07817e-07
-3.73818e-07
3.78798e-07
-2.60455e-07
-8.88845e-07
3.75144e-07
-2.80692e-07
-1.44078e-06
3.51298e-07
-2.65361e-07
-1.98741e-06
3.13416e-07
-2.16087e-07
-2.4964e-06
2.68681e-07
-1.3689e-07
-2.94672e-06
2.23131e-07
-3.27388e-08
-3.32565e-06
1.80766e-07
9.11441e-08
-3.62494e-06
1.43746e-07
2.31877e-07
-3.84712e-06
1.12294e-07
3.90443e-07
-4.00513e-06
8.56724e-08
5.67649e-07
-4.10985e-06
6.31929e-08
7.62177e-07
-4.16748e-06
4.45078e-08
9.71235e-07
-4.18222e-06
2.93631e-08
1.19107e-06
-4.15689e-06
1.76128e-08
1.41714e-06
-4.09305e-06
9.26012e-09
1.64426e-06
-3.99094e-06
4.55569e-09
1.86662e-06
-3.84938e-06
4.24394e-09
2.07852e-06
-3.66495e-06
9.18314e-09
2.27471e-06
-3.42732e-06
2.02856e-08
2.44627e-06
-3.11601e-06
3.91652e-08
2.57696e-06
-2.70845e-06
6.77246e-08
2.64398e-06
-2.18254e-06
1.08139e-07
2.61693e-06
-1.50606e-06
1.62012e-07
2.4578e-06
-6.38523e-07
2.27556e-07
2.13917e-06
4.45506e-07
2.95178e-07
1.67388e-06
1.70827e-06
3.45656e-07
1.11241e-06
2.99224e-06
3.56368e-07
5.68434e-07
3.92142e-06
3.15014e-07
1.59859e-07
4.00483e-06
2.25796e-07
2.39086e-06
9.43096e-08
4.72074e-08
1.77782e-07
7.15436e-08
1.24279e-07
2.65752e-07
1.70886e-07
1.98712e-07
2.06864e-07
2.45947e-07
2.58813e-07
6.747e-09
2.99072e-07
3.09438e-07
-3.23083e-07
3.30908e-07
3.53228e-07
-7.59025e-07
3.4139e-07
3.96041e-07
-1.26391e-06
3.32189e-07
4.4264e-07
-1.79538e-06
3.07903e-07
4.96269e-07
-2.31578e-06
2.74613e-07
5.58853e-07
-2.79698e-06
2.37843e-07
6.31399e-07
-3.22083e-06
2.01405e-07
7.14857e-07
-3.57666e-06
1.67395e-07
8.1162e-07
-3.85863e-06
1.36785e-07
9.24483e-07
-4.07006e-06
1.09942e-07
1.05443e-06
-4.22191e-06
8.66965e-08
1.20039e-06
-4.32275e-06
6.68175e-08
1.36007e-06
-4.37751e-06
5.02305e-08
1.53038e-06
-4.38955e-06
3.69174e-08
1.70769e-06
-4.36119e-06
2.68901e-08
1.88792e-06
-4.29358e-06
2.02147e-08
2.0665e-06
-4.18666e-06
1.7044e-08
2.2384e-06
-4.03903e-06
1.76804e-08
2.39775e-06
-3.84696e-06
2.25835e-08
2.5351e-06
-3.59724e-06
3.25128e-08
2.6392e-06
-3.26829e-06
4.81192e-08
2.69961e-06
-2.83927e-06
7.0379e-08
2.70065e-06
-2.28448e-06
1.0091e-07
2.62107e-06
-1.56825e-06
1.41851e-07
2.43749e-06
-6.48895e-07
1.94136e-07
2.12771e-06
5.02323e-07
2.53298e-07
1.68215e-06
1.84962e-06
3.04758e-07
1.14626e-06
3.20345e-06
3.25505e-07
6.15681e-07
4.15707e-06
2.96072e-07
1.91911e-07
4.21529e-06
2.14867e-07
2.49626e-06
8.8676e-08
5.1223e-08
6.07966e-08
6.5384e-08
1.58345e-07
1.44442e-09
1.56804e-07
2.94372e-07
-1.5411e-07
2.24741e-07
4.42372e-07
-4.12706e-07
2.71362e-07
5.92256e-07
-7.70614e-07
2.97579e-07
7.36289e-07
-1.20753e-06
3.04381e-07
8.68549e-07
-1.69055e-06
2.94257e-07
9.86129e-07
-2.18444e-06
2.71334e-07
1.08888e-06
-2.65903e-06
2.4034e-07
1.17879e-06
-3.09251e-06
2.0546e-07
1.25916e-06
-3.47118e-06
1.69803e-07
1.33394e-06
-3.78711e-06
1.35481e-07
1.40727e-06
-4.03608e-06
1.03897e-07
1.48461e-06
-4.22326e-06
7.56339e-08
1.56955e-06
-4.35779e-06
5.07143e-08
1.6629e-06
-4.44556e-06
2.92247e-08
1.76424e-06
-4.49024e-06
1.11702e-08
1.87234e-06
-4.49441e-06
-3.4496e-09
1.98413e-06
-4.4597e-06
-1.34983e-08
2.09723e-06
-4.38668e-06
-2.02114e-08
2.20845e-06
-4.27485e-06
-2.32306e-08
2.31396e-06
-4.12243e-06
-2.22989e-08
2.40932e-06
-3.92544e-06
-1.70754e-08
2.48811e-06
-3.66911e-06
-7.08734e-09
2.54071e-06
-3.33003e-06
8.99715e-09
2.55619e-06
-2.88663e-06
3.17771e-08
2.5192e-06
-2.30947e-06
6.19179e-08
2.40883e-06
-1.55897e-06
1.01127e-07
2.20024e-06
-5.90595e-07
1.50445e-07
1.87703e-06
6.18729e-07
2.07128e-07
1.44845e-06
2.01908e-06
2.5967e-07
9.56471e-07
3.40964e-06
2.86638e-07
4.90522e-07
4.35776e-06
2.66442e-07
1.39785e-07
4.37267e-06
1.9497e-07
2.55877e-06
7.94912e-08
4.68174e-08
-4.30139e-08
5.65553e-08
1.6341e-07
-2.50617e-07
1.35171e-07
3.22766e-07
-5.05716e-07
1.92001e-07
5.08084e-07
-8.27269e-07
2.29034e-07
7.03409e-07
-1.21365e-06
2.47534e-07
8.93403e-07
-1.64704e-06
2.49356e-07
1.06692e-06
-2.10168e-06
2.37461e-07
1.21826e-06
-2.55156e-06
2.15626e-07
1.34671e-06
-2.97537e-06
1.87737e-07
1.45516e-06
-3.35825e-06
1.57133e-07
1.54848e-06
-3.691e-06
1.2632e-07
1.6323e-06
-3.96811e-06
9.70186e-08
1.71254e-06
-4.18681e-06
7.03244e-08
1.79418e-06
-4.35177e-06
4.66963e-08
1.87985e-06
-4.46976e-06
2.61358e-08
1.97021e-06
-4.5446e-06
8.52045e-09
2.06426e-06
-4.57859e-06
-5.86941e-09
2.15991e-06
-4.57334e-06
-1.68741e-08
2.25489e-06
-4.52977e-06
-2.50675e-08
2.34639e-06
-4.44808e-06
-3.02571e-08
2.43127e-06
-4.32762e-06
-3.22745e-08
2.50611e-06
-4.16658e-06
-3.08379e-08
2.5663e-06
-3.96028e-06
-2.55039e-08
2.60602e-06
-3.6933e-06
-1.56803e-08
2.61956e-06
-3.34243e-06
-1.27162e-09
2.59742e-06
-2.88531e-06
2.07095e-08
2.52876e-06
-2.28976e-06
4.88751e-08
2.39748e-06
-1.51239e-06
8.46822e-08
2.18433e-06
-5.05985e-07
1.28631e-07
1.87154e-06
7.52995e-07
1.78774e-07
1.45843e-06
2.20592e-06
2.26758e-07
9.82332e-07
3.63165e-06
2.54874e-07
5.2273e-07
4.57735e-06
2.41159e-07
1.60394e-07
4.55827e-06
1.78333e-07
2.64873e-06
7.26372e-08
4.18968e-08
-1.33397e-07
4.80783e-08
1.54436e-07
-4.76125e-07
1.12646e-07
3.19982e-07
-8.29201e-07
1.57629e-07
5.20798e-07
-1.21374e-06
1.854e-07
7.37878e-07
-1.62861e-06
1.97691e-07
9.54336e-07
-2.06021e-06
1.96579e-07
1.15801e-06
-2.4901e-06
1.84645e-07
1.34222e-06
-2.90073e-06
1.64858e-07
1.50503e-06
-3.27856e-06
1.40276e-07
1.64761e-06
-3.61461e-06
1.13666e-07
1.77271e-06
-3.90344e-06
8.7222e-08
1.88358e-06
-4.14156e-06
6.24487e-08
1.98467e-06
-4.32821e-06
4.01771e-08
2.08071e-06
-4.46842e-06
2.04776e-08
2.1748e-06
-4.56685e-06
2.8462e-09
2.26672e-06
-4.62542e-06
-1.12528e-08
2.35655e-06
-4.64522e-06
-2.33653e-08
2.44335e-06
-4.62694e-06
-3.33623e-08
2.52538e-06
-4.57079e-06
-4.11758e-08
2.60026e-06
-4.47642e-06
-4.67108e-08
2.66508e-06
-4.34284e-06
-4.97586e-08
2.71636e-06
-4.16804e-06
-4.99772e-08
2.7487e-06
-3.94598e-06
-4.67957e-08
2.75525e-06
-3.66048e-06
-3.95088e-08
2.72927e-06
-3.28944e-06
-2.71522e-08
2.66317e-06
-2.81056e-06
-8.75939e-09
2.54733e-06
-2.19198e-06
1.79635e-08
2.37071e-06
-1.38952e-06
5.37272e-08
2.12019e-06
-3.53621e-07
9.82201e-08
1.78618e-06
9.38767e-07
1.4847e-07
1.37246e-06
2.42419e-06
1.95919e-07
9.12093e-07
3.86794e-06
2.24862e-07
4.77364e-07
4.79781e-06
2.15406e-07
1.41561e-07
4.7354e-06
1.60248e-07
2.72747e-06
6.50085e-08
2.30173e-08
-1.96519e-07
3.96593e-08
1.00771e-07
-6.45218e-07
9.09781e-08
2.26938e-07
-1.08038e-06
1.24744e-07
3.87519e-07
-1.51802e-06
1.43483e-07
5.66624e-07
-1.95713e-06
1.49244e-07
7.50092e-07
-2.38815e-06
1.44325e-07
9.27777e-07
-2.79933e-06
1.31409e-07
1.09405e-06
-3.18061e-06
1.13475e-07
1.24692e-06
-3.52497e-06
9.34038e-08
1.3867e-06
-3.82803e-06
7.34906e-08
1.51484e-06
-4.08691e-06
5.51692e-08
1.63329e-06
-4.29923e-06
3.90499e-08
1.74598e-06
-4.46622e-06
2.51454e-08
1.8561e-06
-4.59177e-06
1.30563e-08
1.96498e-06
-4.67818e-06
2.27403e-09
2.07203e-06
-4.72637e-06
-6.27157e-09
2.17723e-06
-4.73672e-06
-1.38739e-08
2.2799e-06
-4.70929e-06
-2.05059e-08
2.37883e-06
-4.64377e-06
-2.6114e-08
2.47221e-06
-4.53937e-06
-3.05947e-08
2.55763e-06
-4.39469e-06
-3.37186e-08
2.63185e-06
-4.20725e-06
-3.51702e-08
2.68805e-06
-3.96792e-06
-3.44149e-08
2.71689e-06
-3.6586e-06
-3.08782e-08
2.70996e-06
-3.25901e-06
-2.36489e-08
2.65733e-06
-2.74657e-06
-1.14973e-08
2.54802e-06
-2.09026e-06
7.48362e-09
2.37077e-06
-1.24825e-06
3.59206e-08
2.11716e-06
-1.74243e-07
7.42702e-08
1.78126e-06
1.15423e-06
1.20617e-07
1.37051e-06
2.66864e-06
1.66708e-07
9.16845e-07
4.12517e-06
1.97156e-07
4.86863e-07
5.03664e-06
1.92243e-07
1.47984e-07
4.93171e-06
1.44098e-07
2.81942e-06
5.81846e-08
2.99605e-08
-2.57779e-07
3.08234e-08
1.08893e-07
-7.93816e-07
6.93248e-08
2.2642e-07
-1.29105e-06
9.28742e-08
3.70931e-07
-1.76657e-06
1.03808e-07
5.30793e-07
-2.22174e-06
1.04516e-07
6.96547e-07
-2.65184e-06
9.77174e-08
8.61959e-07
-3.05121e-06
8.62609e-08
1.02364e-06
-3.41525e-06
7.27511e-08
1.17991e-06
-3.74059e-06
5.91488e-08
1.32974e-06
-4.02463e-06
4.65721e-08
1.47223e-06
-4.265e-06
3.53943e-08
1.60683e-06
-4.45957e-06
2.55344e-08
1.73443e-06
-4.61079e-06
1.6756e-08
1.85573e-06
-4.72203e-06
8.75777e-09
1.97079e-06
-4.79461e-06
1.17358e-09
2.07863e-06
-4.82938e-06
-5.01091e-09
2.17946e-06
-4.82685e-06
-1.0863e-08
2.27342e-06
-4.78719e-06
-1.62129e-08
2.36052e-06
-4.71008e-06
-2.09396e-08
2.44051e-06
-4.59461e-06
-2.48996e-08
2.51262e-06
-4.4391e-06
-2.78644e-08
2.57486e-06
-4.24006e-06
-2.95813e-08
2.62171e-06
-3.98526e-06
-2.96436e-08
2.64525e-06
-3.65467e-06
-2.76076e-08
2.63719e-06
-3.22834e-06
-2.27423e-08
2.58611e-06
-2.68167e-06
-1.39288e-08
2.47887e-06
-1.98305e-06
-4.31834e-11
2.30043e-06
-1.09303e-06
2.31882e-08
2.03943e-06
3.1331e-08
5.54807e-08
1.69958e-06
1.3978e-06
9.64781e-08
1.29172e-06
2.93763e-06
1.39274e-07
8.51162e-07
4.39684e-06
1.69605e-07
4.43221e-07
5.27748e-06
1.68174e-07
1.29405e-07
5.12034e-06
1.26706e-07
2.90027e-06
5.0681e-08
3.72454e-08
-3.17373e-07
2.19153e-08
1.28427e-07
-9.33077e-07
4.76889e-08
2.57516e-07
-1.48234e-06
6.1857e-08
4.12151e-07
-1.98815e-06
6.6629e-08
5.82884e-07
-2.45737e-06
6.46126e-08
7.62859e-07
-2.89058e-06
5.84933e-08
9.47054e-07
-3.28621e-06
5.05375e-08
1.13127e-06
-3.64199e-06
4.22763e-08
1.31145e-06
-3.95546e-06
3.44569e-08
1.48356e-06
-4.2242e-06
2.72384e-08
1.64408e-06
-4.44621e-06
2.04969e-08
1.79142e-06
-4.6212e-06
1.40917e-08
1.9253e-06
-4.75281e-06
7.97461e-09
2.0455e-06
-4.84451e-06
2.11956e-09
2.15176e-06
-4.898e-06
-3.01101e-09
2.24445e-06
-4.91459e-06
-7.62452e-09
2.32449e-06
-4.8952e-06
-1.18378e-08
2.39302e-06
-4.84027e-06
-1.55811e-08
2.45121e-06
-4.7496e-06
-1.881e-08
2.50018e-06
-4.62228e-06
-2.14524e-08
2.54072e-06
-4.45643e-06
-2.33601e-08
2.5717e-06
-4.24685e-06
-2.43431e-08
2.59005e-06
-3.97957e-06
-2.41979e-08
2.59198e-06
-3.63415e-06
-2.26036e-08
2.57087e-06
-3.18835e-06
-1.90378e-08
2.51567e-06
-2.61401e-06
-1.25984e-08
2.41144e-06
-1.87694e-06
-1.98546e-09
2.2409e-06
-9.38392e-07
1.58429e-08
1.99341e-06
2.36554e-07
4.22974e-08
1.66249e-06
1.65132e-06
7.75648e-08
1.2639e-06
3.22034e-06
1.16268e-07
8.34466e-07
4.68136e-06
1.45606e-07
4.37466e-07
5.52862e-06
1.46896e-07
1.29473e-07
5.31842e-06
1.11381e-07
2.98747e-06
4.43585e-08
4.62405e-08
-3.78801e-07
1.47584e-08
1.5947e-07
-1.07685e-06
3.01148e-08
3.19329e-07
-1.68019e-06
3.76102e-08
5.11127e-07
-2.21973e-06
3.94591e-08
7.23347e-07
-2.70773e-06
3.78657e-08
9.46487e-07
-3.14855e-06
3.4591e-08
1.17215e-06
-3.54273e-06
3.06516e-08
1.39271e-06
-3.88909e-06
2.63671e-08
1.60159e-06
-4.18612e-06
2.16443e-08
1.79384e-06
-4.43288e-06
1.63147e-08
1.96654e-06
-4.62936e-06
1.03639e-08
2.11974e-06
-4.77846e-06
3.99493e-09
2.25414e-06
-4.885e-06
-2.26692e-09
2.36986e-06
-4.95236e-06
-7.91084e-09
2.46751e-06
-4.98261e-06
-1.30894e-08
2.5478e-06
-4.97735e-06
-1.75713e-08
2.61151e-06
-4.93768e-06
-2.12846e-08
2.65954e-06
-4.86414e-06
-2.42203e-08
2.69288e-06
-4.75663e-06
-2.63852e-08
2.7126e-06
-4.61431e-06
-2.77762e-08
2.71975e-06
-4.43532e-06
-2.83398e-08
2.71364e-06
-4.21294e-06
-2.79104e-08
2.69258e-06
-3.93222e-06
-2.64103e-08
2.65526e-06
-3.57325e-06
-2.36998e-08
2.59779e-06
-3.11152e-06
-1.94966e-08
2.51215e-06
-2.51529e-06
-1.32273e-08
2.38555e-06
-1.74656e-06
-3.9044e-09
2.20138e-06
-7.65028e-07
1.07219e-08
1.94545e-06
4.59987e-07
3.25056e-08
1.6139e-06
1.92088e-06
6.21422e-08
1.22014e-06
3.51852e-06
9.59301e-08
8.01276e-07
4.97779e-06
1.2309e-07
4.18015e-07
5.78669e-06
1.26187e-07
1.22462e-07
5.51916e-06
9.62341e-08
3.07382e-06
3.81423e-08
3.90981e-08
-4.28788e-07
1.04328e-08
1.47158e-07
-1.20483e-06
1.95312e-08
3.08098e-07
-1.86502e-06
2.35609e-08
5.06179e-07
-2.4427e-06
2.46084e-08
7.27031e-07
-2.95292e-06
2.41201e-08
9.57825e-07
-3.40232e-06
2.28085e-08
1.18761e-06
-3.79336e-06
2.07471e-08
1.40784e-06
-4.12709e-06
1.76937e-08
1.61293e-06
-4.40469e-06
1.34382e-08
1.80026e-06
-4.62822e-06
7.99657e-09
1.96974e-06
-4.80036e-06
1.5059e-09
2.12219e-06
-4.9262e-06
-4.72447e-09
2.25893e-06
-5.01071e-06
-1.10333e-08
2.3804e-06
-5.05686e-06
-1.69765e-08
2.48669e-06
-5.06666e-06
-2.22656e-08
2.57766e-06
-5.04159e-06
-2.67563e-08
2.65305e-06
-4.98271e-06
-3.03876e-08
2.71253e-06
-4.89053e-06
-3.31408e-08
2.75584e-06
-4.765e-06
-3.50098e-08
2.78286e-06
-4.60542e-06
-3.59823e-08
2.79315e-06
-4.40968e-06
-3.60159e-08
2.7846e-06
-4.16953e-06
-3.49478e-08
2.75481e-06
-3.86982e-06
-3.27245e-08
2.70257e-06
-3.49186e-06
-2.92792e-08
2.62553e-06
-3.01018e-06
-2.44379e-08
2.51879e-06
-2.39091e-06
-1.77997e-08
2.37354e-06
-1.59286e-06
-8.58511e-09
2.17706e-06
-5.73277e-07
4.61669e-09
1.9165e-06
6.96641e-07
2.38677e-08
1.58694e-06
2.20093e-06
4.96112e-08
1.19988e-06
3.82671e-06
7.91973e-08
7.90589e-07
5.28388e-06
1.03801e-07
4.15302e-07
6.05508e-06
1.07841e-07
1.23108e-07
5.73016e-06
8.25704e-08
3.16639e-06
3.25111e-08
3.3984e-08
-4.71195e-07
7.98117e-09
1.30597e-07
-1.31596e-06
1.41776e-08
2.76639e-07
-2.02846e-06
1.71061e-08
4.57435e-07
-2.64218e-06
1.84556e-08
6.58712e-07
-3.17334e-06
1.89755e-08
8.68084e-07
-3.63055e-06
1.87548e-08
1.07603e-06
-4.01894e-06
1.75715e-08
1.27631e-06
-4.34263e-06
1.52324e-08
1.46577e-06
-4.60591e-06
1.17415e-08
1.64366e-06
-4.8134e-06
7.27128e-09
1.81073e-06
-4.96943e-06
1.97229e-09
1.96712e-06
-5.07944e-06
-3.17726e-09
2.11289e-06
-5.148e-06
-8.52755e-09
2.24763e-06
-5.17779e-06
-1.38637e-08
2.3706e-06
-5.17072e-06
-1.89491e-08
2.48084e-06
-5.12827e-06
-2.3621e-08
2.57735e-06
-5.05151e-06
-2.77538e-08
2.65907e-06
-4.94106e-06
-3.12431e-08
2.725e-06
-4.797e-06
-3.39917e-08
2.77408e-06
-4.61868e-06
-3.58969e-08
2.80357e-06
-4.40241e-06
-3.68399e-08
2.80927e-06
-4.13865e-06
-3.66768e-08
2.78838e-06
-3.81374e-06
-3.52841e-08
2.73847e-06
-3.40949e-06
-3.25675e-08
2.6565e-06
-2.89996e-06
-2.83854e-08
2.53825e-06
-2.25034e-06
-2.24561e-08
2.3774e-06
-1.41797e-06
-1.41845e-08
2.16531e-06
-3.58801e-07
-2.51234e-09
1.89331e-06
9.54332e-07
1.4241e-08
1.55896e-06
2.49862e-06
3.67179e-08
1.17396e-06
4.14915e-06
6.28245e-08
7.72184e-07
5.60102e-06
8.51883e-08
4.05147e-07
6.33302e-06
8.99732e-08
1.19516e-07
5.94811e-06
6.89861e-08
3.26111e-06
2.67053e-08
2.87886e-08
-5.07281e-07
6.86303e-09
1.10478e-07
-1.41049e-06
1.24857e-08
2.34002e-07
-2.16805e-06
1.57918e-08
3.87543e-07
-2.81394e-06
1.80171e-08
5.60384e-07
-3.36587e-06
1.95312e-08
7.43772e-07
-3.83438e-06
2.03143e-08
9.31111e-07
-4.22668e-06
2.02832e-08
1.11774e-06
-4.5488e-06
1.94366e-08
1.30056e-06
-4.80667e-06
1.78288e-08
1.47774e-06
-5.00617e-06
1.54941e-08
1.64835e-06
-5.15257e-06
1.24262e-08
1.81125e-06
-5.25109e-06
8.64502e-09
1.96512e-06
-5.30625e-06
4.27921e-09
2.10877e-06
-5.3211e-06
-4.26556e-10
2.24091e-06
-5.29786e-06
-5.09224e-09
2.36083e-06
-5.23831e-06
-9.96711e-09
2.46776e-06
-5.14379e-06
-1.4749e-08
2.56101e-06
-5.01514e-06
-1.92626e-08
2.63986e-06
-4.85259e-06
-2.33469e-08
2.70237e-06
-4.65447e-06
-2.68209e-08
2.74465e-06
-4.41524e-06
-2.95544e-08
2.76308e-06
-4.12579e-06
-3.13972e-08
2.75483e-06
-3.77347e-06
-3.21266e-08
2.71605e-06
-3.33933e-06
-3.14954e-08
2.64188e-06
-2.79666e-06
-2.92505e-08
2.52651e-06
-2.11004e-06
-2.50796e-08
2.36335e-06
-1.23648e-06
-1.8477e-08
2.14545e-06
-1.32484e-07
-8.56877e-09
1.86769e-06
1.22616e-06
5.83656e-09
1.53099e-06
2.80996e-06
2.5363e-08
1.1489e-06
4.48315e-06
4.82935e-08
7.55081e-07
5.92688e-06
6.84352e-08
3.95997e-07
6.61931e-06
7.36075e-08
1.16591e-07
6.17242e-06
5.63224e-08
3.3583e-06
2.12206e-08
3.11163e-08
-5.45473e-07
6.63255e-09
1.12612e-07
-1.50538e-06
1.30319e-08
2.32746e-07
-2.30613e-06
1.76612e-08
3.824e-07
-2.9853e-06
2.14613e-08
5.53751e-07
-3.5621e-06
2.4669e-08
7.3965e-07
-4.04776e-06
2.7288e-08
9.3329e-07
-4.44974e-06
2.92507e-08
1.12845e-06
-4.77456e-06
3.04446e-08
1.32003e-06
-5.02911e-06
3.07229e-08
1.5044e-06
-5.22062e-06
2.99573e-08
1.67945e-06
-5.35584e-06
2.81028e-08
1.84368e-06
-5.44065e-06
2.52302e-08
1.99585e-06
-5.48009e-06
2.15759e-08
2.13508e-06
-5.4778e-06
1.73763e-08
2.26088e-06
-5.43656e-06
1.28131e-08
2.37303e-06
-5.35858e-06
8.03176e-09
2.47158e-06
-5.24554e-06
3.1236e-09
2.55637e-06
-5.09838e-06
-1.63623e-09
2.62659e-06
-4.91666e-06
-6.24358e-09
2.68029e-06
-4.69759e-06
-1.06728e-08
2.71537e-06
-4.43561e-06
-1.47971e-08
2.73011e-06
-4.12215e-06
-1.84749e-08
2.7215e-06
-3.74351e-06
-2.14458e-08
2.6849e-06
-3.27945e-06
-2.33983e-08
2.61397e-06
-2.70186e-06
-2.39997e-08
2.50093e-06
-1.97429e-06
-2.28544e-08
2.33738e-06
-1.0537e-06
-1.93842e-08
2.11604e-06
1.01348e-07
-1.26732e-08
1.83334e-06
1.51014e-06
-1.43105e-09
1.49379e-06
3.1348e-06
1.46518e-08
1.11408e-06
4.82858e-06
3.44025e-08
7.28959e-07
6.25996e-06
5.24257e-08
3.80069e-07
6.91099e-06
5.79226e-08
1.10703e-07
6.39875e-06
4.41621e-08
3.45467e-06
1.60432e-08
3.18012e-08
-5.85569e-07
7.85398e-09
1.16229e-07
-1.60706e-06
1.68737e-08
2.42726e-07
-2.45696e-06
2.40149e-08
4.02767e-07
-3.17577e-06
3.01572e-08
5.87785e-07
-3.78281e-06
3.54555e-08
7.88397e-07
-4.28837e-06
3.98031e-08
9.95072e-07
-4.69955e-06
4.29705e-08
1.19958e-06
-5.02393e-06
4.47243e-08
1.39603e-06
-5.27063e-06
4.49552e-08
1.58092e-06
-5.44935e-06
4.37521e-08
1.75251e-06
-5.56888e-06
4.13679e-08
1.90999e-06
-5.63631e-06
3.81092e-08
2.05285e-06
-5.65728e-06
3.42819e-08
2.18081e-06
-5.63598e-06
3.01661e-08
2.29389e-06
-5.5756e-06
2.59142e-08
2.39228e-06
-5.47863e-06
2.16093e-08
2.47617e-06
-5.34677e-06
1.72906e-08
2.54543e-06
-5.18066e-06
1.29683e-08
2.59946e-06
-4.97942e-06
8.67991e-09
2.6378e-06
-4.74037e-06
4.38066e-09
2.66027e-06
-4.45818e-06
2.20085e-11
2.66551e-06
-4.12347e-06
-3.98959e-09
2.65103e-06
-3.72131e-06
-7.81317e-09
2.61228e-06
-3.22972e-06
-1.10821e-08
2.54245e-06
-2.61864e-06
-1.35002e-08
2.43262e-06
-1.8499e-06
-1.47063e-08
2.27279e-06
-8.79869e-07
-1.41666e-08
2.05439e-06
3.30559e-07
-1.09909e-08
1.77409e-06
1.79412e-06
-3.85867e-09
1.43806e-06
3.46276e-06
7.93889e-09
1.06602e-06
5.17707e-06
2.3595e-08
6.94261e-07
6.59316e-06
3.88367e-08
3.59507e-07
7.20217e-06
4.41742e-08
1.03588e-07
6.6222e-06
3.34791e-08
3.54822e-06
1.16406e-08
3.48264e-08
-6.30915e-07
1.00819e-08
1.27155e-07
-1.7226e-06
2.28358e-08
2.65484e-07
-2.62851e-06
3.29058e-08
4.39301e-07
-3.39104e-06
4.11989e-08
6.36811e-07
-4.02831e-06
4.77876e-08
8.45641e-07
-4.54984e-06
5.24847e-08
1.05487e-06
-4.96399e-06
5.50886e-08
1.25678e-06
-5.28151e-06
5.55823e-08
1.44706e-06
-5.51521e-06
5.4227e-08
1.62375e-06
-5.67761e-06
5.15051e-08
1.78602e-06
-5.77915e-06
4.79571e-08
1.93349e-06
-5.82784e-06
4.40255e-08
2.06583e-06
-5.82964e-06
3.99839e-08
2.18286e-06
-5.78905e-06
3.60072e-08
2.28454e-06
-5.70947e-06
3.2174e-08
2.37086e-06
-5.59346e-06
2.84881e-08
2.44179e-06
-5.44265e-06
2.49229e-08
2.49724e-06
-5.25759e-06
2.1437e-08
2.53743e-06
-5.03765e-06
1.80059e-08
2.56271e-06
-4.78029e-06
1.45902e-08
2.57304e-06
-4.47968e-06
1.11232e-08
2.56758e-06
-4.12568e-06
7.61173e-09
2.54427e-06
-3.7022e-06
4.1455e-09
2.49926e-06
-3.18565e-06
8.54306e-10
2.4264e-06
-2.54384e-06
-2.03681e-09
2.31709e-06
-1.73632e-06
-4.38428e-09
2.16089e-06
-7.18045e-07
-5.76844e-09
1.94831e-06
5.4841e-07
-5.44116e-09
1.67555e-06
2.0688e-06
-2.11265e-09
1.34953e-06
3.78352e-06
5.10926e-09
9.92052e-07
5.51829e-06
1.62198e-08
6.40549e-07
6.9168e-06
2.80575e-08
3.27065e-07
7.48347e-06
3.26797e-08
9.20037e-08
6.83357e-06
2.45939e-08
3.63346e-06
8.25719e-09
3.36236e-08
-6.77904e-07
1.29264e-08
1.26438e-07
-1.84559e-06
2.98188e-08
2.66908e-07
-2.81175e-06
4.24743e-08
4.42219e-07
-3.61853e-06
5.19558e-08
6.38358e-07
-4.28308e-06
5.84595e-08
8.42183e-07
-4.81582e-06
6.2035e-08
1.04371e-06
-5.22848e-06
6.28736e-08
1.23702e-06
-5.53632e-06
6.14317e-08
1.41934e-06
-5.75595e-06
5.83746e-08
1.58943e-06
-5.90215e-06
5.44063e-08
1.7465e-06
-5.98635e-06
5.01022e-08
1.88977e-06
-6.01697e-06
4.58359e-08
2.0185e-06
-6.00019e-06
4.1802e-08
2.13202e-06
-5.94067e-06
3.80724e-08
2.22984e-06
-5.84197e-06
3.46655e-08
2.31157e-06
-5.70676e-06
3.15571e-08
2.37704e-06
-5.53684e-06
2.87024e-08
2.42634e-06
-5.33297e-06
2.60671e-08
2.45962e-06
-5.09458e-06
2.36237e-08
2.47688e-06
-4.81891e-06
2.13365e-08
2.47789e-06
-4.49984e-06
1.9109e-08
2.46201e-06
-4.12675e-06
1.69029e-08
2.42782e-06
-3.68279e-06
1.47344e-08
2.37268e-06
-3.14321e-06
1.26417e-08
2.2923e-06
-2.47419e-06
1.06535e-08
2.18014e-06
-1.63303e-06
8.78315e-09
2.02738e-06
-5.7249e-07
7.09485e-09
1.82483e-06
7.44913e-07
5.91213e-09
1.56732e-06
2.32004e-06
6.10242e-09
1.25993e-06
4.08177e-06
8.97834e-09
9.23734e-07
5.83927e-06
1.51699e-08
5.95408e-07
7.22244e-06
2.28316e-08
3.02969e-07
7.75046e-06
2.58732e-08
8.51654e-08
7.03272e-06
1.94893e-08
3.71322e-06
6.85924e-09
3.41569e-08
-7.27778e-07
1.52818e-08
1.27987e-07
-1.97491e-06
3.51407e-08
2.68805e-07
-3.00187e-06
4.90244e-08
4.42726e-07
-3.85098e-06
5.83026e-08
6.35423e-07
-4.53951e-06
6.35707e-08
8.34502e-07
-5.08043e-06
6.54032e-08
1.03123e-06
-5.48984e-06
6.45288e-08
1.22062e-06
-5.78757e-06
6.17862e-08
1.40014e-06
-5.99349e-06
5.79725e-08
1.56827e-06
-6.12403e-06
5.37133e-08
1.7238e-06
-6.19133e-06
4.94216e-08
1.86558e-06
-6.2041e-06
4.53322e-08
1.99256e-06
-6.16875e-06
4.15608e-08
2.10387e-06
-6.09014e-06
3.81528e-08
2.19882e-06
-5.97204e-06
3.5113e-08
2.27695e-06
-5.81733e-06
3.24262e-08
2.33803e-06
-5.62799e-06
3.00677e-08
2.38195e-06
-5.40493e-06
2.80155e-08
2.40874e-06
-5.14762e-06
2.62391e-08
2.41821e-06
-4.85312e-06
2.47268e-08
2.41001e-06
-4.51508e-06
2.34153e-08
2.38339e-06
-4.12245e-06
2.22859e-08
2.337e-06
-3.6578e-06
2.13566e-08
2.26878e-06
-3.0957e-06
2.06528e-08
2.17589e-06
-2.40152e-06
2.01767e-08
2.05447e-06
-1.53153e-06
1.9869e-08
1.89914e-06
-4.36792e-07
1.95741e-08
1.7034e-06