/*--------------------------------*- C++ -*----------------------------------*\
| =========                 |                                                 |
| \\      /  F ield         | OpenFOAM: The Open Source CFD Toolbox           |
|  \\    /   O peration     | Version:  v2006                                 |
|   \\  /    A nd           | Website:  www.openfoam.com                      |
|    \\/     M anipulation  |                                                 |
\*---------------------------------------------------------------------------*/
FoamFile
{
    version     2.0;
    format      ascii;
    class       volScalarField;
    location    "36";
    object      T;
}
// * * * * * * * * * * * * * * * * * * * * * * * * * * * * * * * * * * * * * //

dimensions      [0 0 0 1 0 0 0];


internalField   nonuniform List<scalar> 
78750
(
299.738
299.463
299.427
299.411
299.4
299.393
299.388
299.385
299.383
299.382
299.381
299.38
299.38
299.379
299.378
299.377
299.375
299.373
299.37
299.366
299.362
299.357
299.351
299.345
299.338
299.33
299.322
299.315
299.312
299.323
299.374
299.526
299.893
300.601
301.666
299.918
299.77
299.655
299.581
299.542
299.528
299.529
299.541
299.557
299.575
299.593
299.61
299.625
299.637
299.646
299.652
299.655
299.654
299.65
299.644
299.634
299.621
299.606
299.589
299.57
299.55
299.532
299.518
299.515
299.537
299.613
299.804
300.207
300.892
301.9
299.927
299.785
299.665
299.579
299.541
299.551
299.597
299.663
299.735
299.802
299.864
299.917
299.962
299.998
300.026
300.048
300.063
300.072
300.075
300.072
300.063
300.048
300.026
299.998
299.964
299.923
299.88
299.84
299.818
299.841
299.95
300.203
300.657
301.359
302.366
299.946
299.839
299.749
299.684
299.652
299.655
299.693
299.758
299.839
299.922
299.999
300.065
300.118
300.16
300.192
300.217
300.237
300.252
300.263
300.271
300.276
300.277
300.275
300.267
300.254
300.234
300.206
300.171
300.136
300.123
300.183
300.393
300.833
301.542
302.555
299.963
299.888
299.827
299.789
299.783
299.811
299.866
299.935
300.006
300.068
300.119
300.158
300.187
300.209
300.226
300.239
300.25
300.26
300.267
300.274
300.278
300.281
300.282
300.281
300.277
300.27
300.261
300.252
300.252
300.285
300.394
300.649
301.113
301.834
302.855
299.974
299.921
299.877
299.852
299.851
299.875
299.918
299.972
300.027
300.079
300.124
300.163
300.195
300.221
300.243
300.263
300.28
300.296
300.31
300.323
300.334
300.343
300.351
300.357
300.36
300.361
300.36
300.358
300.366
300.406
300.522
300.785
301.26
301.989
303.014
299.986
299.955
299.932
299.924
299.934
299.963
300.004
300.051
300.097
300.138
300.172
300.2
300.222
300.24
300.256
300.271
300.284
300.297
300.309
300.321
300.332
300.343
300.354
300.365
300.377
300.39
300.405
300.426
300.463
300.537
300.69
300.984
301.474
302.206
303.232
299.996
299.984
299.975
299.976
299.988
300.011
300.041
300.075
300.108
300.14
300.169
300.195
300.219
300.24
300.259
300.277
300.295
300.311
300.326
300.34
300.354
300.367
300.379
300.392
300.405
300.421
300.442
300.472
300.523
300.615
300.79
301.106
301.612
302.35
303.379
300.004
300.008
300.012
300.021
300.037
300.06
300.087
300.117
300.148
300.177
300.204
300.229
300.251
300.271
300.289
300.306
300.323
300.338
300.353
300.367
300.381
300.395
300.41
300.425
300.442
300.464
300.493
300.535
300.602
300.716
300.918
301.259
301.778
302.519
303.55
300.011
300.025
300.039
300.054
300.071
300.092
300.115
300.139
300.164
300.188
300.211
300.233
300.253
300.272
300.291
300.308
300.325
300.342
300.358
300.373
300.388
300.404
300.42
300.437
300.457
300.483
300.518
300.57
300.65
300.783
301.005
301.366
301.9
302.648
303.682
300.015
300.037
300.056
300.075
300.095
300.117
300.14
300.165
300.19
300.215
300.239
300.262
300.283
300.303
300.321
300.339
300.356
300.372
300.388
300.403
300.419
300.434
300.45
300.468
300.49
300.519
300.558
300.617
300.71
300.859
301.102
301.485
302.029
302.782
303.82
300.018
300.046
300.07
300.094
300.117
300.142
300.166
300.191
300.215
300.239
300.26
300.28
300.299
300.317
300.334
300.351
300.367
300.383
300.399
300.415
300.431
300.447
300.465
300.485
300.509
300.54
300.585
300.65
300.752
300.916
301.176
301.575
302.132
302.89
303.934
300.02
300.054
300.083
300.111
300.137
300.163
300.188
300.212
300.235
300.257
300.278
300.297
300.316
300.335
300.353
300.37
300.388
300.405
300.422
300.439
300.456
300.473
300.491
300.512
300.539
300.573
300.62
300.692
300.802
300.978
301.255
301.672
302.238
303
304.048
300.023
300.061
300.093
300.122
300.149
300.175
300.199
300.222
300.244
300.266
300.287
300.307
300.327
300.346
300.365
300.383
300.401
300.419
300.437
300.454
300.472
300.49
300.51
300.534
300.563
300.601
300.653
300.731
300.849
301.035
301.324
301.755
302.329
303.094
304.147
300.024
300.064
300.098
300.128
300.155
300.181
300.207
300.232
300.256
300.28
300.304
300.326
300.347
300.368
300.387
300.406
300.425
300.442
300.46
300.477
300.494
300.513
300.533
300.557
300.588
300.628
300.685
300.769
300.897
301.095
301.397
301.841
302.42
303.187
304.245
300.025
300.067
300.103
300.135
300.166
300.195
300.225
300.253
300.281
300.307
300.332
300.355
300.376
300.397
300.417
300.435
300.453
300.47
300.486
300.503
300.519
300.537
300.558
300.582
300.614
300.657
300.718
300.807
300.943
301.15
301.464
301.919
302.502
303.271
304.332
300.026
300.071
300.111
300.148
300.183
300.217
300.25
300.281
300.31
300.337
300.361
300.384
300.405
300.425
300.444
300.462
300.479
300.495
300.511
300.527
300.543
300.561
300.581
300.606
300.639
300.684
300.748
300.844
300.988
301.206
301.532
301.997
302.584
303.353
304.419
300.029
300.078
300.123
300.164
300.203
300.24
300.275
300.306
300.335
300.362
300.386
300.409
300.43
300.449
300.468
300.486
300.503
300.519
300.535
300.551
300.568
300.586
300.607
300.633
300.667
300.714
300.781
300.881
301.032
301.259
301.595
302.07
302.66
303.429
304.499
300.031
300.085
300.133
300.178
300.219
300.257
300.292
300.324
300.353
300.38
300.404
300.427
300.449
300.469
300.488
300.506
300.523
300.54
300.556
300.572
300.589
300.608
300.63
300.657
300.693
300.743
300.815
300.921
301.08
301.316
301.662
302.145
302.738
303.509
304.583
300.033
300.091
300.142
300.188
300.231
300.271
300.307
300.34
300.371
300.399
300.425
300.448
300.471
300.491
300.511
300.529
300.547
300.563
300.58
300.596
300.613
300.632
300.655
300.683
300.72
300.773
300.849
300.961
301.127
301.372
301.728
302.218
302.813
303.586
304.664
300.034
300.095
300.149
300.198
300.243
300.285
300.324
300.359
300.391
300.42
300.447
300.471
300.494
300.515
300.535
300.553
300.571
300.588
300.604
300.62
300.638
300.657
300.68
300.709
300.748
300.804
300.885
301.004
301.179
301.434
301.8
302.297
302.895
303.67
304.751
300.036
300.1
300.157
300.21
300.259
300.303
300.344
300.381
300.414
300.444
300.471
300.496
300.519
300.54
300.56
300.579
300.596
300.613
300.629
300.646
300.663
300.682
300.705
300.734
300.775
300.833
300.918
301.044
301.228
301.495
301.87
302.374
302.975
303.754
304.838
300.038
300.106
300.167
300.223
300.274
300.321
300.364
300.402
300.435
300.466
300.494
300.519
300.543
300.565
300.585
300.603
300.621
300.638
300.654
300.671
300.688
300.707
300.73
300.76
300.801
300.86
300.949
301.082
301.276
301.554
301.941
302.451
303.056
303.839
304.923
300.04
300.112
300.176
300.236
300.29
300.339
300.383
300.422
300.457
300.489
300.517
300.543
300.567
300.589
300.61
300.629
300.646
300.663
300.68
300.696
300.713
300.732
300.755
300.785
300.825
300.885
300.976
301.112
301.314
301.603
302.002
302.52
303.13
303.916
305
300.042
300.117
300.186
300.248
300.305
300.357
300.403
300.443
300.479
300.512
300.541
300.568
300.592
300.615
300.636
300.655
300.673
300.69
300.706
300.722
300.739
300.758
300.781
300.81
300.851
300.91
301
301.137
301.344
301.641
302.051
302.578
303.193
303.982
305.064
300.044
300.123
300.196
300.262
300.322
300.376
300.424
300.466
300.503
300.536
300.566
300.594
300.619
300.642
300.663
300.682
300.7
300.717
300.733
300.749
300.767
300.786
300.808
300.838
300.878
300.936
301.024
301.159
301.365
301.666
302.083
302.618
303.239
304.029
305.11
300.046
300.13
300.206
300.276
300.339
300.396
300.445
300.488
300.526
300.561
300.591
300.62
300.645
300.669
300.69
300.709
300.727
300.744
300.761
300.777
300.794
300.814
300.837
300.867
300.908
300.966
301.053
301.185
301.387
301.687
302.107
302.647
303.272
304.064
305.144
300.048
300.137
300.217
300.29
300.357
300.415
300.466
300.511
300.55
300.585
300.617
300.646
300.672
300.696
300.717
300.737
300.755
300.772
300.789
300.805
300.823
300.843
300.867
300.899
300.942
301.002
301.09
301.221
301.419
301.714
302.133
302.673
303.299
304.094
305.175
300.051
300.143
300.228
300.305
300.374
300.435
300.487
300.533
300.573
300.609
300.642
300.672
300.698
300.723
300.745
300.765
300.783
300.801
300.817
300.834
300.852
300.872
300.898
300.932
300.979
301.045
301.138
301.271
301.469
301.761
302.175
302.709
303.333
304.132
305.216
300.053
300.15
300.239
300.32
300.392
300.455
300.509
300.556
300.597
300.634
300.667
300.697
300.725
300.75
300.772
300.793
300.811
300.829
300.845
300.862
300.88
300.901
300.928
300.965
301.017
301.09
301.193
301.335
301.538
301.83
302.239
302.764
303.384
304.187
305.276
300.055
300.157
300.25
300.334
300.409
300.474
300.529
300.577
300.619
300.657
300.691
300.722
300.75
300.776
300.799
300.82
300.839
300.856
300.873
300.89
300.908
300.929
300.957
300.996
301.052
301.134
301.249
301.406
301.621
301.919
302.326
302.841
303.456
304.265
305.359
300.058
300.164
300.261
300.348
300.426
300.492
300.549
300.598
300.641
300.679
300.714
300.746
300.775
300.802
300.825
300.847
300.866
300.884
300.9
300.917
300.935
300.956
300.983
301.022
301.08
301.168
301.295
301.47
301.702
302.012
302.422
302.929
303.541
304.354
305.449
300.06
300.17
300.271
300.362
300.441
300.509
300.567
300.617
300.661
300.701
300.737
300.769
300.799
300.826
300.851
300.873
300.893
300.911
300.928
300.944
300.962
300.982
301.008
301.045
301.102
301.19
301.324
301.513
301.764
302.091
302.508
303.013
303.623
304.438
305.532
300.062
300.177
300.281
300.374
300.456
300.526
300.585
300.635
300.681
300.721
300.758
300.792
300.823
300.85
300.876
300.898
300.919
300.938
300.955
300.972
300.989
301.009
301.033
301.067
301.119
301.202
301.334
301.528
301.794
302.139
302.57
303.081
303.691
304.508
305.602
300.064
300.183
300.29
300.386
300.47
300.541
300.601
300.653
300.699
300.741
300.779
300.814
300.845
300.874
300.9
300.924
300.945
300.964
300.982
301
301.017
301.037
301.06
301.092
301.139
301.214
301.335
301.523
301.794
302.153
302.603
303.127
303.745
304.565
305.659
300.066
300.188
300.299
300.398
300.484
300.557
300.618
300.671
300.718
300.761
300.8
300.836
300.869
300.898
300.925
300.949
300.971
300.991
301.01
301.028
301.047
301.067
301.091
301.122
301.165
301.233
301.342
301.516
301.778
302.143
302.609
303.152
303.783
304.608
305.703
300.068
300.194
300.308
300.41
300.498
300.573
300.635
300.689
300.738
300.782
300.822
300.858
300.892
300.923
300.95
300.975
300.998
301.019
301.038
301.057
301.077
301.099
301.124
301.156
301.2
301.265
301.366
301.526
301.775
302.134
302.608
303.169
303.813
304.643
305.739
300.07
300.2
300.317
300.422
300.513
300.589
300.653
300.708
300.758
300.803
300.844
300.882
300.916
300.948
300.976
301.002
301.025
301.046
301.067
301.087
301.108
301.131
301.159
301.195
301.242
301.31
301.41
301.565
301.804
302.154
302.628
303.196
303.848
304.682
305.777
300.072
300.205
300.326
300.435
300.528
300.606
300.671
300.728
300.779
300.825
300.867
300.906
300.941
300.973
301.002
301.028
301.052
301.074
301.095
301.116
301.138
301.164
301.194
301.234
301.288
301.364
301.472
301.631
301.869
302.214
302.683
303.246
303.897
304.73
305.819
300.074
300.211
300.336
300.448
300.543
300.623
300.69
300.748
300.8
300.847
300.89
300.93
300.966
300.999
301.028
301.055
301.08
301.102
301.124
301.145
301.168
301.195
301.228
301.272
301.333
301.418
301.539
301.71
301.956
302.303
302.766
303.314
303.953
304.781
305.859
300.076
300.217
300.346
300.461
300.559
300.641
300.709
300.768
300.821
300.87
300.914
300.955
300.991
301.025
301.055
301.082
301.107
301.13
301.152
301.174
301.198
301.225
301.26
301.306
301.372
301.466
301.599
301.784
302.042
302.393
302.849
303.379
304
304.818
305.885
300.078
300.224
300.356
300.474
300.575
300.659
300.728
300.789
300.843
300.892
300.938
300.979
301.017
301.051
301.081
301.109
301.135
301.158
301.181
301.204
301.228
301.255
301.289
301.337
301.404
301.502
301.642
301.838
302.107
302.463
302.912
303.424
304.029
304.837
305.895
300.08
300.23
300.367
300.488
300.591
300.676
300.747
300.809
300.864
300.915
300.961
301.003
301.042
301.076
301.108
301.136
301.162
301.187
301.21
301.234
301.258
301.285
301.319
301.365
301.431
301.528
301.669
301.87
302.144
302.503
302.947
303.446
304.038
304.84
305.896
300.083
300.237
300.377
300.502
300.607
300.694
300.766
300.829
300.885
300.937
300.984
301.027
301.066
301.102
301.134
301.163
301.19
301.216
301.241
301.265
301.29
301.318
301.351
301.396
301.458
301.551
301.688
301.887
302.16
302.52
302.961
303.452
304.037
304.837
305.895
300.085
300.243
300.388
300.516
300.623
300.711
300.784
300.848
300.906
300.959
301.007
301.051
301.091
301.127
301.16
301.19
301.218
301.245
301.272
301.298
301.324
301.353
301.387
301.43
301.49
301.578
301.709
301.9
302.168
302.524
302.963
303.45
304.032
304.834
305.897
300.087
300.25
300.398
300.529
300.639
300.728
300.802
300.868
300.926
300.98
301.03
301.075
301.115
301.152
301.186
301.217
301.246
301.275
301.303
301.332
301.361
301.392
301.427
301.47
301.528
301.613
301.737
301.92
302.181
302.531
302.966
303.45
304.032
304.839
305.909
300.09
300.257
300.409
300.543
300.655
300.745
300.82
300.887
300.947
301.002
301.052
301.098
301.139
301.177
301.211
301.244
301.274
301.305
301.335
301.367
301.399
301.433
301.471
301.515
301.574
301.657
301.777
301.953
302.207
302.55
302.98
303.461
304.042
304.855
305.932
300.092
300.264
300.42
300.557
300.67
300.762
300.838
300.906
300.967
301.023
301.074
301.121
301.163
301.201
301.236
301.269
301.301
301.334
301.367
301.403
301.44
301.478
301.519
301.567
301.627
301.71
301.828
302.001
302.249
302.587
303.01
303.485
304.065
304.881
305.963
300.094
300.271
300.431
300.571
300.686
300.778
300.856
300.924
300.987
301.044
301.096
301.143
301.186
301.225
301.26
301.294
301.327
301.361
301.398
301.439
301.482
301.526
301.573
301.625
301.688
301.772
301.891
302.063
302.307
302.639
303.055
303.521
304.096
304.916
306
300.097
300.278
300.441
300.584
300.7
300.794
300.873
300.942
301.006
301.064
301.116
301.164
301.208
301.247
301.283
301.317
301.351
301.387
301.427
301.472
301.523
301.576
301.63
301.688
301.757
301.844
301.966
302.138
302.38
302.708
303.113
303.568
304.138
304.959
306.046
300.099
300.284
300.451
300.596
300.714
300.809
300.889
300.96
301.024
301.083
301.136
301.185
301.229
301.268
301.304
301.338
301.372
301.409
301.451
301.501
301.559
301.623
301.689
301.757
301.833
301.926
302.052
302.226
302.469
302.79
303.184
303.625
304.188
305.013
306.103
300.101
300.29
300.46
300.608
300.727
300.824
300.905
300.976
301.042
301.101
301.156
301.205
301.249
301.288
301.324
301.358
301.391
301.427
301.47
301.522
301.587
301.663
301.744
301.826
301.913
302.015
302.147
302.326
302.568
302.883
303.262
303.691
304.248
305.077
306.173
300.103
300.295
300.468
300.618
300.74
300.837
300.92
300.992
301.059
301.119
301.174
301.224
301.268
301.308
301.344
301.377
301.409
301.443
301.483
301.534
301.601
301.686
301.783
301.885
301.989
302.104
302.245
302.429
302.671
302.978
303.343
303.76
304.315
305.148
306.25
300.104
300.299
300.476
300.628
300.752
300.851
300.934
301.008
301.075
301.137
301.192
301.243
301.287
301.327
301.363
301.396
301.427
301.459
301.495
301.541
301.604
301.69
301.799
301.921
302.048
302.182
302.335
302.525
302.767
303.068
303.422
303.83
304.383
305.22
306.327
300.106
300.304
300.483
300.638
300.763
300.864
300.948
301.024
301.092
301.154
301.211
301.262
301.307
301.347
301.383
301.416
301.446
301.476
301.509
301.548
301.603
301.681
301.789
301.925
302.076
302.235
302.406
302.606
302.851
303.147
303.492
303.895
304.447
305.285
306.397
300.107
300.308
300.49
300.647
300.775
300.877
300.963
301.039
301.109
301.172
301.229
301.281
301.327
301.368
301.404
301.437
301.467
301.495
301.525
301.56
301.605
301.67
301.766
301.9
302.067
302.251
302.448
302.664
302.916
303.212
303.553
303.953
304.504
305.343
306.456
300.109
300.313
300.497
300.657
300.787
300.891
300.978
301.056
301.126
301.191
301.249
301.301
301.348
301.389
301.426
301.459
301.489
301.518
301.546
301.577
301.615
301.667
301.746
301.865
302.029
302.23
302.453
302.693
302.96
303.263
303.604
304.003
304.554
305.392
306.504
300.11
300.317
300.505
300.667
300.799
300.905
300.994
301.073
301.145
301.21
301.269
301.323
301.37
301.412
301.449
301.483
301.513
301.542
301.57
301.599
301.633
301.677
301.741
301.839
301.986
302.185
302.425
302.691
302.981
303.298
303.646
304.047
304.597
305.434
306.544
300.112
300.322
300.513
300.679
300.813
300.92
301.011
301.091
301.164
301.231
301.291
301.345
301.393
301.435
301.473
301.508
301.539
301.568
301.597
301.626
301.657
301.696
301.75
301.83
301.955
302.138
302.379
302.664
302.979
303.318
303.68
304.086
304.637
305.472
306.578
300.114
300.328
300.523
300.691
300.828
300.937
301.028
301.11
301.184
301.252
301.313
301.368
301.417
301.46
301.498
301.533
301.566
301.596
301.625
301.655
301.686
301.723
301.771
301.839
301.945
302.106
302.335
302.626
302.961
303.325
303.707
304.122
304.675
305.508
306.608
300.116
300.335
300.533
300.704
300.843
300.954
301.047
301.13
301.206
301.274
301.336
301.392
301.441
301.485
301.524
301.56
301.593
301.625
301.655
301.686
301.719
301.755
301.8
301.862
301.954
302.096
302.306
302.592
302.939
303.326
303.729
304.156
304.711
305.541
306.633
300.119
300.341
300.544
300.719
300.859
300.972
301.066
301.151
301.228
301.298
301.36
301.416
301.466
301.51
301.55
301.586
301.62
301.654
301.686
301.719
301.754
301.792
301.837
301.895
301.979
302.106
302.299
302.573
302.923
303.326
303.749
304.188
304.746
305.572
306.655
300.121
300.349
300.555
300.733
300.876
300.99
301.086
301.172
301.25
301.321
301.385
301.441
301.491
301.535
301.575
301.613
301.648
301.683
301.718
301.754
301.791
301.832
301.878
301.936
302.015
302.133
302.313
302.573
302.919
303.331
303.77
304.218
304.778
305.599
306.67
300.124
300.356
300.567
300.748
300.893
301.008
301.106
301.194
301.273
301.345
301.409
301.466
301.516
301.56
301.601
301.638
301.675
301.711
301.749
301.788
301.83
301.875
301.924
301.983
302.061
302.173
302.341
302.589
302.927
303.342
303.79
304.243
304.803
305.618
306.677
300.126
300.364
300.579
300.763
300.91
301.027
301.126
301.215
301.295
301.368
301.433
301.49
301.541
301.585
301.626
301.664
301.701
301.739
301.779
301.823
301.87
301.92
301.975
302.038
302.116
302.225
302.385
302.62
302.947
303.357
303.806
304.262
304.821
305.629
306.681
300.129
300.371
300.591
300.778
300.927
301.045
301.146
301.236
301.317
301.391
301.457
301.514
301.565
301.609
301.65
301.688
301.726
301.765
301.808
301.856
301.909
301.967
302.03
302.099
302.182
302.291
302.446
302.672
302.986
303.385
303.828
304.28
304.837
305.643
306.693
300.131
300.379
300.602
300.792
300.942
301.062
301.164
301.256
301.339
301.413
301.479
301.537
301.588
301.632
301.673
301.71
301.748
301.788
301.833
301.885
301.945
302.013
302.086
302.166
302.258
302.372
302.528
302.748
303.051
303.435
303.862
304.304
304.859
305.666
306.716
300.134
300.385
300.612
300.805
300.957
301.079
301.182
301.275
301.359
301.435
301.501
301.56
301.61
301.655
301.694
301.732
301.769
301.809
301.854
301.908
301.974
302.051
302.137
302.231
302.336
302.462
302.624
302.843
303.137
303.502
303.907
304.336
304.888
305.694
306.745
300.136
300.391
300.622
300.817
300.971
301.094
301.199
301.293
301.379
301.455
301.523
301.581
301.632
301.676
301.716
301.752
301.788
301.826
301.87
301.924
301.991
302.074
302.172
302.282
302.404
302.544
302.716
302.938
303.223
303.571
303.953
304.368
304.914
305.717
306.769
300.138
300.397
300.631
300.828
300.985
301.109
301.216
301.311
301.398
301.475
301.543
301.603
301.653
301.698
301.737
301.773
301.807
301.844
301.885
301.935
301.999
302.083
302.187
302.31
302.448
302.604
302.788
303.014
303.294
303.626
303.989
304.391
304.93
305.731
306.784
300.14
300.402
300.639
300.84
300.998
301.125
301.233
301.33
301.417
301.496
301.564
301.624
301.675
301.719
301.758
301.794
301.828
301.862
301.9
301.945
302.004
302.082
302.184
302.312
302.463
302.634
302.831
303.063
303.34
303.661
304.011
304.402
304.934
305.733
306.79
300.142
300.408
300.648
300.851
301.012
301.14
301.25
301.348
301.437
301.516
301.586
301.646
301.697
301.742
301.781
301.816
301.849
301.883
301.918
301.959
302.011
302.081
302.175
302.299
302.454
302.636
302.844
303.085
303.363
303.679
304.02
304.406
304.932
305.73
306.793
300.144
300.413
300.657
300.863
301.026
301.156
301.268
301.368
301.458
301.538
301.608
301.668
301.72
301.765
301.804
301.84
301.873
301.905
301.939
301.978
302.024
302.086
302.169
302.283
302.433
302.617
302.834
303.083
303.367
303.682
304.022
304.405
304.928
305.727
306.797
300.146
300.419
300.667
300.876
301.041
301.173
301.287
301.388
301.479
301.56
301.631
301.692
301.744
301.789
301.829
301.864
301.898
301.93
301.963
302
302.043
302.099
302.173
302.275
302.413
302.592
302.812
303.068
303.358
303.679
304.021
304.404
304.927
305.729
306.806
300.148
300.426
300.677
300.89
301.057
301.191
301.306
301.409
301.502
301.584
301.655
301.716
301.769
301.814
301.854
301.89
301.924
301.956
301.99
302.026
302.068
302.119
302.186
302.278
302.404
302.572
302.787
303.046
303.344
303.672
304.02
304.407
304.931
305.738
306.823
300.15
300.433
300.688
300.904
301.074
301.21
301.327
301.431
301.525
301.608
301.68
301.741
301.794
301.839
301.879
301.916
301.95
301.984
302.018
302.055
302.096
302.146
302.209
302.293
302.408
302.565
302.772
303.03
303.332
303.668
304.025
304.416
304.944
305.756
306.85
300.153
300.441
300.7
300.92
301.092
301.23
301.348
301.454
301.549
301.633
301.705
301.767
301.82
301.865
301.906
301.942
301.978
302.012
302.048
302.086
302.129
302.178
302.24
302.32
302.427
302.574
302.771
303.024
303.328
303.671
304.036
304.433
304.965
305.785
306.888
300.156
300.449
300.713
300.936
301.11
301.25
301.37
301.478
301.574
301.658
301.731
301.793
301.846
301.891
301.932
301.969
302.005
302.041
302.078
302.119
302.163
302.215
302.278
302.357
302.461
302.601
302.79
303.036
303.339
303.687
304.058
304.46
304.998
305.827
306.939
300.159
300.457
300.726
300.952
301.129
301.27
301.392
301.501
301.599
301.684
301.757
301.819
301.872
301.917
301.958
301.996
302.033
302.07
302.109
302.152
302.2
302.256
302.322
302.403
302.507
302.645
302.828
303.069
303.37
303.72
304.094
304.501
305.045
305.885
307.007
300.162
300.466
300.739
300.969
301.147
301.291
301.415
301.525
301.624
301.71
301.783
301.845
301.898
301.943
301.984
302.022
302.06
302.099
302.14
302.186
302.239
302.3
302.372
302.458
302.566
302.706
302.889
303.127
303.425
303.774
304.149
304.558
305.11
305.961
307.09
300.165
300.475
300.753
300.985
301.166
301.311
301.437
301.549
301.648
301.735
301.809
301.871
301.923
301.969
302.009
302.048
302.086
302.126
302.17
302.22
302.277
302.344
302.424
302.519
302.635
302.78
302.967
303.206
303.504
303.849
304.221
304.631
305.191
306.051
307.181
300.168
300.483
300.766
301.001
301.184
301.331
301.458
301.572
301.672
301.76
301.834
301.896
301.948
301.993
302.034
302.073
302.111
302.152
302.198
302.251
302.313
302.387
302.476
302.581
302.709
302.864
303.059
303.302
303.599
303.941
304.307
304.717
305.282
306.145
307.269
300.17
300.491
300.778
301.017
301.202
301.35
301.479
301.594
301.696
301.784
301.858
301.92
301.972
302.017
302.058
302.096
302.135
302.177
302.224
302.279
302.345
302.425
302.523
302.64
302.78
302.949
303.154
303.404
303.702
304.038
304.398
304.806
305.373
306.232
307.344
300.173
300.499
300.79
301.032
301.219
301.369
301.5
301.616
301.719
301.808
301.882
301.944
301.996
302.041
302.081
302.119
302.158
302.2
302.247
302.303
302.372
302.457
302.562
302.69
302.843
303.026
303.243
303.501
303.801
304.132
304.485
304.889
305.456
306.304
307.398
300.176
300.507
300.802
301.046
301.235
301.388
301.52
301.638
301.742
301.831
301.906
301.968
302.02
302.064
302.104
302.142
302.18
302.221
302.268
302.324
302.394
302.481
302.59
302.726
302.891
303.087
303.317
303.584
303.886
304.214
304.56
304.96
305.521
306.354
307.428
300.178
300.514
300.813
301.06
301.252
301.406
301.54
301.659
301.764
301.854
301.929
301.991
302.043
302.087
302.126
302.164
302.202
302.242
302.289
302.344
302.412
302.499
302.609
302.749
302.922
303.129
303.371
303.647
303.953
304.279
304.62
305.015
305.567
306.382
307.437
300.181
300.521
300.824
301.075
301.269
301.425
301.56
301.68
301.787
301.877
301.953
302.015
302.066
302.11
302.149
302.186
302.224
302.263
302.309
302.362
302.428
302.513
302.621
302.761
302.937
303.151
303.402
303.687
303.998
304.324
304.662
305.051
305.594
306.39
307.427
300.183
300.528
300.836
301.089
301.285
301.443
301.58
301.702
301.809
301.901
301.976
302.038
302.09
302.133
302.172
302.209
302.246
302.285
302.329
302.381
302.445
302.526
302.63
302.766
302.94
303.155
303.411
303.703
304.019
304.347
304.683
305.067
305.6
306.38
307.404
300.186
300.536
300.847
301.104
301.302
301.462
301.601
301.725
301.833
301.925
302.001
302.063
302.114
302.157
302.195
302.232
302.268
302.307
302.351
302.401
302.463
302.54
302.639
302.769
302.937
303.149
303.405
303.699
304.02
304.35
304.686
305.065
305.589
306.358
307.373
300.188
300.543
300.859
301.119
301.32
301.482
301.623
301.748
301.857
301.95
302.026
302.087
302.138
302.181
302.219
302.255
302.292
302.33
302.373
302.423
302.482
302.556
302.651
302.774
302.934
303.138
303.389
303.681
304.003
304.335
304.67
305.047
305.565
306.326
307.339
300.191
300.551
300.871
301.135
301.338
301.502
301.645
301.772
301.882
301.975
302.051
302.113
302.163
302.205
302.243
302.279
302.315
302.354
302.397
302.446
302.504
302.575
302.666
302.783
302.934
303.129
303.371
303.658
303.977
304.309
304.645
305.019
305.533
306.293
307.308
300.194
300.559
300.884
301.151
301.358
301.524
301.668
301.796
301.908
302.002
302.078
302.139
302.189
302.23
302.268
302.303
302.34
302.378
302.421
302.47
302.528
302.598
302.685
302.796
302.94
303.126
303.358
303.636
303.949
304.278
304.613
304.986
305.498
306.261
307.283
300.197
300.568
300.898
301.169
301.378
301.546
301.692
301.822
301.935
302.029
302.105
302.166
302.215
302.256
302.292
302.328
302.364
302.403
302.446
302.495
302.553
302.622
302.707
302.815
302.953
303.13
303.353
303.621
303.926
304.251
304.584
304.956
305.469
306.237
307.268
300.2
300.577
300.912
301.187
301.399
301.569
301.718
301.849
301.963
302.058
302.134
302.194
302.242
302.282
302.318
302.353
302.389
302.428
302.472
302.521
302.579
302.648
302.733
302.838
302.972
303.142
303.356
303.614
303.911
304.23
304.56
304.931
305.445
306.221
307.262
300.203
300.587
300.928
301.208
301.423
301.595
301.745
301.878
301.993
302.088
302.163
302.223
302.27
302.309
302.344
302.378
302.414
302.453
302.497
302.548
302.607
302.676
302.761
302.865
302.997
303.162
303.369
303.619
303.908
304.22
304.547
304.917
305.433
306.216
307.266
300.207
300.598
300.946
301.23
301.449
301.624
301.775
301.91
302.025
302.12
302.195
302.253
302.298
302.336
302.37
302.404
302.439
302.478
302.523
302.574
302.634
302.705
302.79
302.895
303.024
303.187
303.388
303.631
303.912
304.219
304.542
304.911
305.429
306.218
307.276
300.211
300.61
300.965
301.256
301.478
301.656
301.81
301.945
302.061
302.154
302.228
302.284
302.328
302.365
302.397
302.43
302.465
302.504
302.549
302.601
302.662
302.734
302.821
302.926
303.056
303.217
303.415
303.653
303.928
304.228
304.548
304.917
305.436
306.23
307.295
300.216
300.624
300.988
301.285
301.511
301.692
301.848
301.985
302.1
302.192
302.263
302.318
302.36
302.394
302.425
302.457
302.491
302.53
302.575
302.628
302.69
302.763
302.851
302.958
303.088
303.248
303.444
303.678
303.947
304.243
304.559
304.927
305.448
306.246
307.316
300.221
300.639
301.012
301.317
301.549
301.733
301.891
302.028
302.143
302.233
302.302
302.353
302.392
302.425
302.454
302.484
302.517
302.556
302.601
302.655
302.718
302.793
302.883
302.991
303.122
303.283
303.478
303.709
303.974
304.265
304.579
304.947
305.468
306.27
307.344
300.227
300.656
301.04
301.352
301.589
301.776
301.937
302.076
302.19
302.278
302.343
302.391
302.427
302.457
302.484
302.512
302.544
302.582
302.628
302.682
302.746
302.822
302.913
303.023
303.155
303.316
303.51
303.739
304.001
304.289
304.601
304.967
305.49
306.294
307.373
300.233
300.675
301.069
301.389
301.63
301.822
301.986
302.126
302.239
302.325
302.387
302.431
302.463
302.49
302.515
302.541
302.572
302.61
302.655
302.709
302.774
302.852
302.945
303.056
303.191
303.353
303.547
303.775
304.034
304.319
304.629
304.995
305.519
306.326
307.408
300.24
300.694
301.099
301.426
301.672
301.868
302.035
302.176
302.289
302.373
302.432
302.472
302.501
302.524
302.547
302.572
302.601
302.638
302.682
302.737
302.802
302.881
302.975
303.088
303.224
303.387
303.581
303.808
304.064
304.347
304.655
305.022
305.546
306.356
307.443
300.247
300.714
301.129
301.463
301.713
301.912
302.082
302.226
302.34
302.422
302.478
302.515
302.54
302.56
302.58
302.603
302.631
302.667
302.711
302.766
302.832
302.912
303.007
303.122
303.26
303.424
303.619
303.845
304.1
304.38
304.688
305.055
305.581
306.395
307.484
300.254
300.734
301.159
301.498
301.753
301.955
302.128
302.274
302.389
302.471
302.524
302.558
302.58
302.597
302.614
302.635
302.662
302.697
302.741
302.795
302.861
302.942
303.038
303.154
303.293
303.458
303.653
303.879
304.133
304.411
304.718
305.085
305.614
306.43
307.524
300.26
300.753
301.187
301.533
301.791
301.996
302.173
302.321
302.437
302.518
302.57
302.601
302.62
302.634
302.649
302.668
302.694
302.728
302.772
302.827
302.894
302.975
303.073
303.19
303.33
303.497
303.692
303.917
304.17
304.448
304.754
305.123
305.654
306.475
307.574
300.267
300.771
301.215
301.566
301.827
302.036
302.216
302.367
302.483
302.564
302.615
302.644
302.66
302.671
302.684
302.701
302.726
302.76
302.804
302.859
302.926