/*--------------------------------*- C++ -*----------------------------------*\
| =========                 |                                                 |
| \\      /  F ield         | OpenFOAM: The Open Source CFD Toolbox           |
|  \\    /   O peration     | Version:  v2006                                 |
|   \\  /    A nd           | Website:  www.openfoam.com                      |
|    \\/     M anipulation  |                                                 |
\*---------------------------------------------------------------------------*/
FoamFile
{
    version     2.0;
    format      ascii;
    class       volScalarField;
    location    "52";
    object      k;
}
// * * * * * * * * * * * * * * * * * * * * * * * * * * * * * * * * * * * * * //

dimensions      [0 2 -2 0 0 0 0];


internalField   nonuniform List<scalar> 
78750
(
0.599392
0.197762
0.0944489
0.0287797
0.00636652
0.00143595
0.00118805
0.00115835
0.000999937
0.000883646
0.000887038
0.00078364
0.000768859
0.000730336
0.000705053
0.000681155
0.000659598
0.000640286
0.000623682
0.000610216
0.000599971
0.000592691
0.000587947
0.000585276
0.000584342
0.000584938
0.000586947
0.00059026
0.000594688
0.000599937
0.000605605
0.000611073
0.0006151
0.000612149
0.00020732
0.0193215
0.00390547
0.0041942
0.00144006
0.00368675
0.00349837
0.00324003
0.00296365
0.00263571
0.00233929
0.00202889
0.0017687
0.00155329
0.00138933
0.00127305
0.00119391
0.00113893
0.00109504
0.00105161
0.00100714
0.000963329
0.000922372
0.000885313
0.000851809
0.000820475
0.000790113
0.000759631
0.00072861
0.000697133
0.000665028
0.000631414
0.00059491
0.000543257
0.0004482
0.00114528
0.000755336
0.0031256
0.00402624
0.00412592
0.00365383
0.00368898
0.00379885
0.00388523
0.00391889
0.00386241
0.00372724
0.0035236
0.00326558
0.00295993
0.00261319
0.00224113
0.00187759
0.00157607
0.00136482
0.00122104
0.00111124
0.0010428
0.0010522
0.00110391
0.00114024
0.00114521
0.00113658
0.00112393
0.00110661
0.00108401
0.00105535
0.00101592
0.000951416
0.000920129
0.00214807
0.000537502
0.00176586
0.00259138
0.00313719
0.00359081
0.00377055
0.0037508
0.00361198
0.00341242
0.00321104
0.00305197
0.00295296
0.00290972
0.00291051
0.00293776
0.00296762
0.00298094
0.00297297
0.00294911
0.00291632
0.00282673
0.00252211
0.00200681
0.00148416
0.00103913
0.000843385
0.000929078
0.00108523
0.00118393
0.00121555
0.00120633
0.00115306
0.000970023
0.000835309
0.00295891
0.00238138
0.00460614
0.00529105
0.0053113
0.00505682
0.00460183
0.00406377
0.00361607
0.00327166
0.00297447
0.00270298
0.00245687
0.00225279
0.00212002
0.00207026
0.00208101
0.0021221
0.00217457
0.00222787
0.0022739
0.00229568
0.00226153
0.0021574
0.00201722
0.00188705
0.00177651
0.00164375
0.00143222
0.00114703
0.000981322
0.00101851
0.00113645
0.00132031
0.00179253
0.00419009
0.00388861
0.00435612
0.00411488
0.00383174
0.00341966
0.00277048
0.00213468
0.00179573
0.00173061
0.0017915
0.0018774
0.00194946
0.00200343
0.00203967
0.00206148
0.00207719
0.0020967
0.00212657
0.0021679
0.00221656
0.00226348
0.00229757
0.00231067
0.00230034
0.00226807
0.0022152
0.00214305
0.00206173
0.00198114
0.00190719
0.00181408
0.0016358
0.00131982
0.00156895
0.00438554
0.00349897
0.00475908
0.0051
0.00512254
0.00493804
0.00449585
0.00388147
0.00327281
0.00279093
0.00243095
0.00217117
0.00200238
0.00190937
0.00186605
0.00185323
0.00185949
0.00187751
0.00190382
0.0019383
0.00197967
0.00201893
0.00204326
0.00205061
0.00204588
0.0020317
0.0020082
0.00197584
0.00193656
0.00189178
0.00184014
0.00177374
0.00169581
0.00178987
0.00253496
0.00524489
0.00408989
0.00486838
0.00497555
0.00481254
0.00449153
0.00402796
0.00351736
0.0031315
0.00298003
0.00291667
0.00281164
0.00266134
0.0024962
0.00234129
0.00220796
0.00210021
0.00201783
0.00195886
0.00192009
0.00189779
0.00188757
0.00188265
0.00187185
0.00184129
0.00178723
0.00172459
0.00166571
0.00161199
0.00156186
0.00151408
0.00146226
0.00138879
0.00139943
0.00222368
0.00523794
0.00477891
0.00505483
0.00511666
0.00501805
0.00466473
0.00401671
0.00321812
0.00238805
0.0018396
0.00168942
0.0017254
0.001793
0.00184478
0.00187793
0.00189529
0.00190138
0.0019006
0.00189589
0.00188774
0.00187463
0.0018526
0.00181581
0.00175928
0.00168626
0.00161272
0.00155225
0.00150287
0.00146309
0.00143475
0.00141656
0.00142335
0.00150932
0.00178669
0.00281945
0.00593601
0.00238707
0.00451749
0.00542303
0.00591393
0.00623826
0.00635907
0.00616551
0.00542425
0.0042112
0.0030701
0.00227051
0.00184614
0.001682
0.00164856
0.00166085
0.0016806
0.00169711
0.00170965
0.0017182
0.00172209
0.00171725
0.00169883
0.00166469
0.0016188
0.00156903
0.0015191
0.00147083
0.00142793
0.00139348
0.00136526
0.00134773
0.00143205
0.00186264
0.00299944
0.00615083
0.00375139
0.00484396
0.00506027
0.00510811
0.00513483
0.00521962
0.00537093
0.00550741
0.00540036
0.00478788
0.00387058
0.00299031
0.00228688
0.00180835
0.00154262
0.00143342
0.00141119
0.00142398
0.00144345
0.00145836
0.00146547
0.00146445
0.00145626
0.00144229
0.00142466
0.00140612
0.00138908
0.00137602
0.00136736
0.00136561
0.00138838
0.00151545
0.00208439
0.00349803
0.00670013
0.00287833
0.00448728
0.00525717
0.00566094
0.0059003
0.0060378
0.0061103
0.00616123
0.00623192
0.0062811
0.00610284
0.0055571
0.00476861
0.00388432
0.00301943
0.00226811
0.00170179
0.00135467
0.00119217
0.00114126
0.00113727
0.00114708
0.00115798
0.0011662
0.0011716
0.0011752
0.00117933
0.00118732
0.00120411
0.00124225
0.0013411
0.00160398
0.00221441
0.00361959
0.00683521
0.00252881
0.00451504
0.00539353
0.00581357
0.00604445
0.00618029
0.00624309
0.00623553
0.00617389
0.00611927
0.00613392
0.00617955
0.00613218
0.00585524
0.00530584
0.00454689
0.0036773
0.00281065
0.00206288
0.00154075
0.00126417
0.00113515
0.00106524
0.00101935
0.00098911
0.000971588
0.00096512
0.000970474
0.000994836
0.00106046
0.00120946
0.00154642
0.00256051
0.00412046
0.00723833
0.00276153
0.00420325
0.00498961
0.00541599
0.00567428
0.00584874
0.0059687
0.00604252
0.00606295
0.00600465
0.00585033
0.00565089
0.00549994
0.00543301
0.00538921
0.00525095
0.00489916
0.00428955
0.003488
0.00263654
0.00190623
0.00143205
0.00119242
0.00106471
0.000973685
0.000894554
0.000825165
0.000773715
0.000747832
0.000766094
0.000920342
0.00109209
0.00174319
0.00361319
0.00791884
0.00347286
0.00527907
0.00604584
0.00635824
0.00648985
0.00653073
0.00650833
0.00643723
0.00633417
0.00621817
0.00608881
0.00590795
0.00563528
0.0053034
0.00502355
0.00486329
0.00476965
0.00462191
0.00427302
0.00363507
0.00280897
0.00203864
0.0015068
0.00122502
0.00106463
0.000936893
0.00080868
0.000681365
0.000586275
0.000574701
0.000994406
0.00201954
0.00274852
0.00455239
0.00871897
0.00466813
0.00568232
0.00593784
0.0060029
0.00600109
0.00595302
0.00586989
0.005771
0.00567053
0.00557149
0.00547862
0.005394
0.00528991
0.00511357
0.00484453
0.00455745
0.00434564
0.00420402
0.00405597
0.00377423
0.00320638
0.0024392
0.00175633
0.00132238
0.00109885
0.000955571
0.000815311
0.000659104
0.000521049
0.000499819
0.000932303
0.00245914
0.00470367
0.00610007
0.00877878
0.00566769
0.00635017
0.00647895
0.00645486
0.00634942
0.00616611
0.00594372
0.00573417
0.00555392
0.00539629
0.00525601
0.00513994
0.00505205
0.00497153
0.00486081
0.00469103
0.00448007
0.00427932
0.00410114
0.00390504
0.00359686
0.00304253
0.00233861
0.00175142
0.00138387
0.00117511
0.00103508
0.000910708
0.000780202
0.000574215
0.000115968
0.000830348
0.00266078
0.00499032
0.0088603
0.00680812
0.00666844
0.00642998
0.00619326
0.00587682
0.00550868
0.00522632
0.00506991
0.00498226
0.00491306
0.00484239
0.00476892
0.0047012
0.00464509
0.00459317
0.0045288
0.00443563
0.00430925
0.00415621
0.00396985
0.00370557
0.00325575
0.00255843
0.00182077
0.00130063
0.0010267
0.000838038
0.000652653
0.000464651
0.000536009
0.00154583
0.0027206
0.00387412
0.0061801
0.0101556
0.00705589
0.00661517
0.00633889
0.00604353
0.00563271
0.00522701
0.00499398
0.00489681
0.00485197
0.00482212
0.00479416
0.00476283
0.004727
0.00468939
0.00465227
0.0046117
0.00455782
0.00447993
0.00437155
0.00422741
0.00402982
0.0037251
0.0032159
0.00248685
0.00175591
0.00121543
0.000869885
0.000657604
0.000613806
0.000975901
0.00187683
0.0041502
0.00686254
0.00801962
0.0090076
0.00663921
0.00643796
0.00624458
0.00597561
0.00559452
0.00520657
0.00490933
0.00469407
0.00453551
0.0044198
0.00434053
0.00429567
0.00428333
0.00429874
0.00433297
0.00437387
0.00440889
0.00442746
0.00442137
0.00438462
0.00431287
0.00420056
0.00401796
0.00369851
0.00322805
0.00271066
0.00223371
0.00180788
0.00144488
0.000514432
0.000179096
0.000567707
0.00266242
0.00468571
0.00821208
0.00562129
0.00622866
0.00634838
0.00632325
0.00619858
0.00594935
0.00558426
0.0051731
0.00478382
0.0044486
0.00417623
0.00397041
0.00383626
0.00377811
0.00378881
0.00384349
0.00390861
0.00395498
0.00395954
0.00389756
0.00373531
0.00345059
0.00307578
0.00268652
0.00234555
0.00207235
0.00186376
0.00173091
0.00181942
0.00174026
0.00150395
0.000771701
0.00216576
0.00566829
0.0117747
0.00484637
0.00623647
0.00661154
0.00674858
0.00678369
0.0067073
0.00646862
0.00605226
0.00552417
0.00496675
0.00443847
0.00397508
0.00360029
0.0033334
0.00318508
0.00314254
0.0031691
0.0032192
0.00325613
0.00324911
0.0031633
0.00296497
0.00264788
0.00225216
0.00185313
0.0015318
0.00141443
0.00186031
0.00327353
0.00528382
0.0064617
0.00629726
0.00646024
0.00829459
0.0116516
0.00434128
0.00594235
0.00647093
0.00670591
0.00684968
0.00694482
0.00698215
0.00690952
0.00666445
0.00624693
0.00571844
0.00515781
0.00462987
0.00416335
0.00375516
0.00340142
0.00311339
0.00290963
0.00280094
0.0027732
0.00279013
0.00280998
0.00279985
0.0027346
0.00258801
0.00230996
0.0018428
0.00114027
0.000568978
0.00136624
0.00373596
0.0058754
0.00748477
0.00831254
0.00885965
0.00438233
0.00589216
0.00645036
0.00668268
0.00680092
0.00686355
0.00689272
0.0068972
0.00685236
0.0066913
0.00635471
0.00585252
0.00528618
0.00480109
0.00445187
0.00416465
0.00385402
0.00348709
0.00309335
0.00274417
0.00249799
0.00236294
0.00231476
0.00232555
0.00238564
0.00252072
0.00281356
0.00315797
0.00279441
0.00209087
0.00193192
0.00209879
0.00468066
0.00650389
0.00913238
0.00487153
0.00625805
0.00677926
0.0069859
0.00707306
0.00709289
0.00706267
0.0070017
0.00693417
0.00684679
0.00667119
0.00630943
0.00570284
0.0049915
0.00446436
0.00420881
0.00408362
0.00396252
0.00379457
0.00355053
0.00320927
0.00279635
0.00239663
0.00208796
0.00189288
0.00183106
0.00204823
0.00300362
0.0044556
0.00458879
0.00392976
0.00249629
0.00368118
0.00648836
0.0118421
0.00566996
0.00679026
0.00713372
0.0072424
0.00726108
0.00722202
0.00713876
0.0070255
0.00690073
0.00679181
0.00669293
0.00655076
0.00626183
0.00568828
0.00494926
0.00439769
0.00412098
0.00399593
0.00391363
0.00382145
0.00369143
0.00349761
0.00322527
0.00291004
0.00259665
0.00221259
0.00156691
0.000537982
0.00193831
0.00454249
0.00542995
0.00487481
0.00595179
0.00855529
0.0134805
0.00627343
0.00710377
0.00729972
0.00733
0.0072958
0.00722136
0.00714992
0.00711707
0.00706656
0.00694999
0.00677977
0.00657043
0.00629838
0.00588948
0.00529752
0.00472729
0.00436935
0.00417278
0.00403778
0.00390919
0.00375621
0.00354628
0.00323268
0.00277594
0.00237802
0.00241691
0.00212968
0.00122165
0.00168768
0.0048613
0.00700124
0.00750661
0.00822365
0.00955962
0.0121101
0.00675738
0.00737555
0.00741346
0.00731963
0.00715582
0.0069314
0.00675513
0.00676068
0.00686026
0.00691433
0.00687586
0.00674661
0.00652412
0.0061764
0.0056627
0.00508858
0.00467526
0.00444896
0.00431049
0.00418081
0.00400644
0.00373737
0.00332939
0.00282679
0.00254131
0.0029937
0.0037041
0.00354561
0.00303226
0.00388265
0.00567019
0.00701759
0.00792995
0.00886949
0.010744
0.00756017
0.00785705
0.00774048
0.00754292
0.00727064
0.0069208
0.00663645
0.00658826
0.00669275
0.00679722
0.00683495
0.00679078
0.00665883
0.00642901
0.00608752
0.0056555
0.00524846
0.00496811
0.00480441
0.00470281
0.00460415
0.0044561
0.00422539
0.00389746
0.00345643
0.00296909
0.00284534
0.00362688
0.00429727
0.0045898
0.00514745
0.00616272
0.00753349
0.00882087
0.0106901
0.00785637
0.00784794
0.00767491
0.00744023
0.00712275
0.006718
0.00636435
0.00624912
0.00634384
0.0065026
0.00662527
0.00667538
0.00663808
0.00649053
0.00620738
0.00582585
0.0054687
0.00522301
0.00508908
0.00502619
0.00496756
0.00485647
0.0046915
0.00450162
0.00424489
0.00384326
0.00340932
0.00356508
0.00444772
0.00504065
0.00528815
0.00560151
0.00624652
0.00719619
0.00932614
0.00784389
0.00794185
0.00784589
0.00765014
0.00735047
0.00692309
0.00642002
0.00604224
0.00593803
0.00605268
0.00622865
0.00635313
0.00638592
0.00630728
0.00608656
0.00572327
0.00534058
0.00507829
0.00497211
0.00505027
0.00538052
0.00579661
0.00603875
0.00606148
0.00590292
0.00557594
0.00505382
0.00428662
0.00378915
0.0040858
0.00448605
0.00448323
0.00462789
0.00597427
0.0106199
0.00743734
0.00795729
0.00804555
0.00797348
0.00777966
0.00742865
0.0068648
0.00614948
0.00557196
0.00540511
0.00559996
0.00587711
0.00607578
0.00614954
0.00606282
0.0057703
0.00533196
0.00495583
0.00481576
0.00506385
0.00568685
0.00628852
0.00661129
0.0067139
0.00665276
0.00640577
0.00584994
0.00490387
0.00434648
0.00457168
0.00492024
0.00512881
0.00622381
0.00857486
0.0142386
0.00721927
0.00803487
0.00828136
0.00833901
0.00828605
0.00810307
0.00772179
0.0070145
0.00596986
0.00504054
0.00483468
0.0051324
0.00551004
0.00580615
0.00598778
0.00602597
0.00587264
0.00554055
0.00516864
0.00494518
0.00500085
0.00525937
0.00550056
0.00563863
0.00567822
0.00563904
0.0056198
0.00593016
0.00656785
0.00694718
0.00715511
0.00750492
0.00852557
0.0103198
0.0140673
0.00708629
0.0079547
0.00823911
0.00832104
0.00830576
0.00819952
0.00797688
0.00755907
0.00670556
0.00529378
0.00438891
0.00441524
0.00480414
0.00519288
0.00550017
0.00573253
0.00589187
0.00595113
0.00588789
0.00571566
0.00549481
0.0052873
0.00510802
0.00494888
0.00480265
0.00469079
0.0047706
0.00552645
0.00707433
0.00819459
0.00869906
0.00903043
0.00952263
0.0102771
0.0117901
0.00758276
0.00823192
0.00840758
0.00840638
0.00830773
0.00810649
0.00777716
0.00728719
0.0065319
0.00521546
0.00407346
0.00398317
0.00436735
0.0047642
0.00508273
0.00534695
0.00558791
0.00579545
0.00592904
0.00598191
0.00596889
0.00588487
0.00572796
0.00551417
0.00527004
0.00502966
0.00488411
0.00515246
0.0062366
0.00753097
0.00843269
0.00899465
0.00941818
0.00993939
0.0118739
0.00816977
0.00843175
0.00845677
0.00837666
0.00820728
0.00791137
0.00743187
0.00670319
0.00567041
0.00432351
0.0033532
0.00357426
0.00410357
0.00452912
0.0048723
0.00523732
0.00575668
0.0064542
0.00705126
0.00732305
0.00733045
0.00716819
0.00687822
0.00648106
0.00600633
0.00550812
0.00509103
0.00500417
0.00563495
0.00683754
0.00799271
0.00883392
0.00945049
0.0102573
0.0131172
0.00893146
0.00870326
0.00857323
0.00843386
0.00822464
0.00787276
0.00728312
0.00635113
0.00506859
0.00364371
0.00278692
0.00325538
0.00390064
0.00438742
0.00480876
0.00531187
0.00610204
0.00722761
0.00826181
0.00876447
0.00885438
0.00872479
0.00842797
0.00795664
0.00730333
0.0064995
0.00565967
0.00506141
0.00516923
0.00617942
0.00755774
0.00866183
0.00942899
0.0103694
0.0129942
0.00904281
0.00859211
0.00844196
0.00831782
0.00813613
0.00782021
0.00726777
0.00635344
0.00503059
0.00345874
0.00229056
0.00259789
0.00332057
0.00394737
0.0044741
0.00493847
0.00548066
0.00632462
0.00745836
0.00848882
0.00912574
0.00939778
0.00940727
0.00920088
0.00877724
0.00812157
0.00725588
0.00632357
0.0056804
0.00577075
0.00663143
0.00771598
0.00857583
0.00962462
0.0122428
0.00885122
0.00855313
0.00844699
0.00834153
0.0081818
0.00791143
0.007454
0.00669942
0.00551256
0.00380807
0.00198891
0.00176816
0.00247213
0.00326293
0.00403276
0.00468441
0.00515436
0.00556883
0.00613184
0.00688959
0.0077015
0.00840511
0.00891205
0.00919403
0.00924434
0.00905556
0.00861638
0.0079386
0.00713336
0.00648953
0.00637231
0.00688387
0.00771619
0.00899118
0.0123328
0.00882646
0.00857617
0.00844813
0.0083199
0.00813739
0.00784824
0.00739663
0.00672801
0.00574863
0.00425128
0.00207441
0.00102959
0.00159811
0.00258762
0.00370935
0.00482796
0.00563105
0.0060541
0.00629131
0.00651023
0.006808
0.00721176
0.00769105
0.00817951
0.00859662
0.00886288
0.00891147
0.00869336
0.00818809
0.00748147
0.00691091
0.00698317
0.00776701
0.00921722
0.0130951
0.0092942
0.00875995
0.00856197
0.00840562
0.00819489
0.00785596
0.00731139
0.00649896
0.00539343
0.0039353
0.001988
0.000589763
0.000844964
0.00180916
0.00314357
0.00469751
0.00610168
0.006942
0.00731847
0.00745576
0.00747808
0.00746526
0.00748881
0.00760823
0.00784888
0.00818166
0.00851269
0.00869704
0.00858759
0.00812759
0.00759489
0.00763156
0.00840838
0.00989042
0.0139082
0.00951094
0.00865016
0.00843822
0.00829849
0.00810432
0.00776968
0.00719564
0.00628356
0.00499747
0.00330279
0.00136744
0.000442831
0.000727584
0.00149551
0.00288825
0.00463519
0.00632527
0.00751326
0.00813404
0.00841302
0.00849371
0.00843296
0.00826888
0.00805974
0.00789318
0.00786963
0.00805663
0.00839642
0.00863621
0.00852359
0.0082356
0.0083815
0.00910299
0.0104799
0.0143528
0.00929413
0.0085329
0.00838864
0.00827924
0.00810616
0.00779472
0.00724907
0.00636052
0.00505168
0.00325024
0.00117955
0.000552649
0.00163288
0.00276335
0.00395773
0.00559075
0.0070814
0.00810888
0.00871063
0.00904738
0.00920443
0.00920903
0.00906638
0.00878829
0.00841971
0.00806688
0.0079158
0.00815605
0.00865796
0.00894231
0.00898072
0.00922412
0.00981936
0.0109799
0.0144033
0.00893506
0.0084714
0.00838077
0.00829717
0.00815613
0.00789868
0.00745075
0.0067302
0.00563749
0.00405823
0.0020236
0.000926851
0.00320339
0.00458298
0.00531923
0.00632755
0.00745865
0.00835679
0.00896974
0.00937158
0.00960782
0.00969021
0.00961301
0.00936484
0.00894508
0.00840284
0.00792186
0.00789711
0.00857002
0.00932983
0.0097376
0.0100747
0.0105345
0.01141
0.0140717
0.00896527
0.00854738
0.00845445
0.00838993
0.00828661
0.00809047
0.00774542
0.00721925
0.00651389
0.00554451
0.0039307
0.00128055
0.000792215
0.00284034
0.00454204
0.00553588
0.00656681
0.0076351
0.00849084
0.00908244
0.00947985
0.00972217
0.00980649
0.00971051
0.00940755
0.00888844
0.00824054
0.0078332
0.00828418
0.00935756
0.0100759
0.0104906
0.0108562
0.011497
0.0135638
0.00906234
0.00847595
0.00837952
0.00833065
0.00824841
0.00807111
0.00771896
0.00711967
0.00629157
0.00540308
0.0045863
0.00338205
0.000319424
0.000586594
0.00219774
0.00457341
0.00568763
0.00664669
0.00760779
0.00843726
0.00903761
0.00944159
0.00968089
0.00974855
0.00961181
0.00922844
0.00859249
0.00790165
0.00780384
0.00878826
0.00986578
0.0104673
0.0108872
0.0114799
0.0131834
0.00896433
0.0084251
0.00835894
0.00831986
0.00825268
0.00811642
0.00784288
0.00733088
0.00647221
0.00521964
0.00373763
0.0024078
0.00143511
0.000260913
0.000492047
0.00327097
0.00531586
0.00621685
0.00699856
0.00781159
0.00855378
0.00911752
0.0095017
0.00972796
0.00978164
0.00961779
0.00918302
0.00849783
0.00790314
0.00814211
0.00917638
0.0100073
0.0105602
0.0111858
0.0127742
0.00890398
0.00842804
0.00835384
0.00829443
0.00820627
0.00806076
0.00781133
0.00738326
0.00670174
0.00569331
0.00429181
0.00247586
0.000622229
0.000180894
0.000215488
0.000493612
0.00365316
0.00545323
0.00627513
0.00701676
0.00781602
0.00856016
0.0090996
0.00941974
0.00957447
0.00957947
0.00940848
0.00902909
0.00850484
0.00818505
0.00850159
0.00914895
0.00974557
0.0105539
0.0130529
0.00886459
0.00842794
0.00835325
0.00829014
0.0082056
0.00808661
0.00790498
0.00757446
0.00698623
0.00607801
0.00484151
0.00328091
0.00148221
0.000474313
0.000280649
0.000468444
0.000474344
0.00378359
0.00575939
0.00650519
0.00710796
0.0078519
0.00870299
0.00942318
0.00983475
0.00995805
0.00985446
0.00954937
0.0090729
0.00859092
0.00846621
0.00887552
0.0095651
0.0107207
0.0140792
0.00883526
0.00844495
0.00834386
0.00825783
0.00815899
0.00805646
0.00797537
0.00786766
0.00760011
0.00706767
0.00619298
0.00493643
0.00326218
0.00127522
0.000506514
0.000468944
0.000199612
0.000516239
0.00245035
0.00530968
0.0064109
0.006919
0.0074206
0.00811767
0.00895797
0.00967825
0.0100395
0.00998885
0.00955064
0.00888435
0.00856566
0.00902715
0.00983807
0.0110915
0.0140352
0.00899053
0.00849658
0.0083388
0.00821994
0.00809069
0.00795691
0.00787265
0.00784396
0.00775772
0.00751207
0.00705066
0.00630922
0.00521574
0.0036788
0.0016802
0.000379976
1.39676e-05
3.13233e-05
0.000348473
0.00132094
0.00432974
0.00647763
0.00732372
0.00765096
0.00792239
0.00837181
0.00902985
0.00965091
0.00984601
0.00947241
0.0090246
0.00927467
0.00993032
0.0109414
0.0130303
0.00904184
0.00848093
0.00830699
0.0081857
0.00805377
0.0079113
0.00782544
0.00784889
0.00789122
0.0078348
0.00762376
0.00722699
0.00659592
0.00564212
0.00429214
0.00247997
0.000596446
0.000480749
7.00139e-05
0.000386348
0.000389431
0.00241623
0.00533753
0.00749658
0.00831558
0.00837139
0.0081786
0.00820314
0.00869451
0.00923178
0.00945988
0.00975174
0.01021
0.0109236
0.012348
0.00891722
0.0084422
0.00831417
0.00822351
0.00810379
0.0079358
0.00777419
0.00773873
0.00782988
0.00791873
0.00790951
0.00776456
0.00746675
0.00698384
0.00623129
0.00511083
0.00360169
0.00182408
0.000283923
0.000566321
0.000509387
0.000202935
0.000762247
0.0028647
0.00590544
0.00847949
0.00950684
0.00923287
0.00849293
0.00832237
0.00884242
0.00951028
0.0100715
0.010695
0.011584
0.00861645
0.00838195
0.0083592
0.00834282
0.008281
0.00813524
0.00790703
0.00771324
0.00770929
0.00786538
0.00803128
0.00810418
0.00804761
0.00785169
0.00750517
0.00696498
0.00613754
0.00496815
0.00356293
0.00210843
0.000805418
0.000683416
0.000273214
0.000821858
0.000997878
0.00273105
0.00582051
0.00878672
0.00984943
0.00938477
0.00899685
0.00918836
0.00960544
0.0101166
0.0107121
0.00834253
0.0083588
0.00844602
0.00851139
0.00852889
0.00845561
0.00824242
0.00789397
0.00759546
0.00758024
0.00779942
0.00805297
0.00822091
0.00826702
0.00818371
0.00796399
0.00758655
0.00700485
0.00617309
0.00512532
0.00400466
0.00292035
0.00190714
0.000932825
8.03131e-05
0.000267323
0.000597118
0.00270445
0.00634054
0.00888825
0.00953454
0.00964462
0.00979636
0.0100618
0.0105595
0.00816572
0.00834244
0.00850328
0.00863075
0.00872458
0.00875295
0.00865938
0.00836805
0.00789187
0.00754227
0.00758785
0.00787997
0.00818625
0.00840124
0.00850208
0.00848825
0.00835627
0.00808748
0.00764852
0.0070254
0.00625963
0.00543786
0.00462318
0.00381284
0.00293622
0.00194607
0.000854123
3.74266e-05
0.000922696
0.00477553
0.00788482
0.0092656
0.00981936
0.0101935
0.0114096
0.00825806
0.00837732
0.00851925
0.00864562
0.00875939
0.00884269
0.00884798
0.00869162
0.00827732
0.00773775
0.00753963
0.00776149
0.00812346
0.00843537
0.00864324
0.00874478
0.00874357
0.0086343
0.00840025
0.00802626
0.00752611
0.00695237
0.00635921
0.0057614
0.00510308
0.00429599
0.00328266
0.00216637
0.000752588
0.000811496
0.00427061
0.00722049
0.00884932
0.00999981
0.0130521
0.00855045
0.00844129
0.00849317
0.00856676
0.00864712
0.00872864
0.00878239
0.00873557
0.00848547
0.00802219
0.0077345
0.00788948
0.00825515
0.00859925
0.00884674
0.00899302
0.00904517
0.00900344
0.00885741
0.00859677
0.00823133
0.00780176
0.00734894
0.00687795
0.00634556
0.00569544
0.0049292
0.00411165
0.00282285
0.000504442
0.00181489
0.0052483
0.00787245
0.0100462
0.0152067
0.00895722
0.00855356
0.00848569
0.00848356
0.00849984
0.00853076
0.00856347
0.00853963
0.00838488
0.00808983
0.00790989
0.00810416
0.00848809
0.00884167
0.00909659
0.00925208
0.00931711
0.00929387
0.00917505
0.00895525
0.00864876
0.00829233
0.00791275
0.00750191
0.00701685
0.00642641
0.00582051
0.00518001
0.00406112
0.00156293
0.00157229
0.00479719
0.00779184
0.0106465
0.0169025
0.00927478
0.00859201
0.00841883
0.00835226
0.00831913
0.00832237
0.00835814
0.00835907
0.00826702
0.00811276
0.0080894
0.0083729
0.0087899
0.00915139
0.00940612
0.00955873
0.00961936
0.00959054
0.00946612
0.00924479
0.00894686
0.0086092
0.00824924
0.00784888
0.00736475
0.00678334
0.00624823
0.00568426
0.00458993
0.00255842
0.00272348
0.0057523
0.00851908
0.0113938
0.0172783
0.00943121
0.00854546
0.00826328
0.00811589
0.00801398
0.00799081
0.00806758
0.008135
0.00811689
0.00806439
0.00816041
0.00853934
0.00902088
0.00942351
0.00970391
0.00987129
0.00993785
0.00990671
0.00977214
0.00953437
0.00922006
0.00887022
0.00849832
0.00807957
0.00756731
0.00695064
0.00640682
0.00593
0.00495548
0.00349511
0.00417376
0.00690356
0.0092345
0.0117668
0.0164634
0.00961117
0.00850622
0.00809455
0.00784285
0.00763422
0.00754957
0.00767534
0.00784579
0.00792943
0.00796776
0.00814553
0.00860956
0.00917836
0.00965395
0.0099899
0.010198
0.0102924
0.0102772
0.0101461
0.00989683
0.00955648
0.00917269
0.00876567
0.00831242
0.0077621
0.00708731
0.00645738
0.00607594
0.00543475
0.00460911
0.00556172
0.00784235
0.00972305
0.0117948
0.0152114
0.00981463
0.00843391
0.00791304
0.00756791
0.00722875
0.00700037
0.00708548
0.00732407
0.00751755
0.00767404
0.00796227
0.00854083
0.00922899
0.00980788
0.0102288
0.0105076
0.0106607
0.0106923
0.010594
0.0103594
0.0100104
0.00959613
0.00914804
0.00865218
0.00805583
0.00731143
0.00654151
0.00613649
0.0059036
0.00564546
0.00670608
0.00856366
0.0100521
0.0116687
0.0140764
0.0098359
0.00829241
0.00777958
0.00742139
0.00699778
0.00656376
0.00643359
0.00661545
0.00687582
0.00715656
0.00758791
0.00830845
0.00913375
0.00983416
0.0103637
0.0107422
0.0109872
0.0111017
0.0110752
0.0108976
0.0105811
0.0101694
0.00970531
0.00919078
0.00858173
0.00781334
0.00691525
0.00628728
0.00629487
0.00650016
0.00744449
0.00884906
0.0100077
0.0112911
0.0133261
0.00934894
0.00806547
0.00771935
0.00744671
0.00703295
0.00640946
0.0058634
0.00576547
0.00599145
0.00635911
0.00691726
0.00777287
0.00874561
0.00959616
0.0102735
0.0107975
0.0111851
0.0114379
0.0115443
0.0114876
0.0112629
0.0108979
0.0104416
0.00991968
0.0093141
0.00856665
0.00763057
0.00670979
0.00647634
0.00699569
0.00799877
0.00913932
0.0100872
0.0111851
0.0132646
0.00877906
0.00801543
0.00783787
0.00766731
0.00735317
0.00672729
0.00579514
0.00514962
0.00512214
0.00546466
0.00606408
0.00698292
0.00805755
0.00903442
0.00985531
0.0105394
0.0110973
0.0115211
0.011791
0.0118877
0.0118059
0.011565
0.011198
0.0107304
0.0101598
0.00944885
0.00853944
0.00748795
0.00684016
0.00719929
0.00818897
0.00922424
0.010076
0.011107
0.013464
0.00859468
0.00803035
0.00784003
0.00768841
0.00747658
0.00706637
0.00619811
0.00509959
0.00460974
0.00478364
0.00529717
0.00611053
0.00717595
0.00823878
0.00918404
0.0100139
0.0107347
0.0113295
0.01177
0.0120353
0.0121209
0.0120384
0.0118081
0.0114473
0.0109568
0.0103112
0.00945649
0.00838615
0.00749236
0.0075927
0.0084292
0.00935473
0.0101536
0.0112189
0.0139668
0.00894541
0.00801955
0.0076365
0.00736904
0.00710269
0.00683316
0.00635604
0.00539108
0.00454554
0.00445924
0.00489146
0.00557993
0.00648634
0.0075045
0.00849287
0.00940962
0.010245
0.0109707
0.0115478
0.0119523
0.0121811
0.0122436
0.0121534
0.0119187
0.0115357
0.010979
0.0101914
0.00912715
0.00807036
0.00798744
0.00884637
0.00974816
0.0105131
0.0115521
0.0141335
0.00936177
0.00794678
0.00738565
0.00697594
0.00653736
0.00619395
0.0059462
0.00544021
0.00473274
0.00444106
0.00474875
0.00543005
0.00628908
0.00721556
0.00814416
0.00905195
0.00992007
0.0107051
0.0113539
0.0118358
0.0121471
0.0122988
0.0123028
0.0121638
0.0118757
0.0114157
0.0107354
0.00978823
0.0087504
0.00843526
0.00914712
0.00997551
0.0106774
0.0116268
0.0139682
0.00938017
0.00775163
0.00717506
0.00673372
0.00619807
0.00572105
0.0054912
0.00527133
0.00492882
0.00466547
0.00471467
0.00511903
0.00581736
0.00667257
0.00757256
0.00848772
0.00940803
0.0102856
0.011044
0.0116305
0.0120349
0.0122717
0.0123561
0.0122934
0.0120762
0.0116811
0.0110651
0.0101999
0.00926423
0.00892576
0.00950988
0.0102372
0.0108708
0.0117554
0.013937
0.00880161
0.0073905
0.00696726
0.0066162
0.00611743
0.00553451
0.00514355
0.00492888
0.00477035
0.00471287
0.00486315
0.00523249
0.00579622
0.00650471
0.00728778
0.00812121
0.00900642
0.00990933
0.0107414
0.0114166
0.0119037
0.0122159
0.0123727
0.0123817
0.0122341
0.0119025
0.0113408
0.0105247
0.00964744
0.00934539
0.00988037
0.0105133
0.0110616
0.011814
0.0135128
0.00798383
0.00720368
0.00698863
0.00678241
0.0064502
0.00592432
0.00535635
0.00498164
0.00477349
0.00468117
0.00477368
0.00511327
0.00565071
0.00629423
0.00698387
0.00771946
0.00852826
0.00941224
0.0103008
0.0110762
0.0116619
0.0120532
0.012274
0.0123404
0.0122501
0.0119794
0.0114844
0.0107424
0.00993015
0.00962914
0.0100972
0.0106482
0.0111196
0.0117368
0.01304
0.00754011
0.00728354
0.00712478
0.00696156
0.00677846
0.00649402
0.00594089
0.00533606
0.00494426
0.00476391
0.00475855
0.00498091
0.00545371
0.00607226
0.006722
0.00738709
0.00810855
0.00892889
0.00982781
0.0106922
0.011399
0.0119037
0.0122199
0.0123685
0.0123553
0.0121649
0.0117594
0.0111062
0.0103285
0.00992457
0.0102168
0.0106461
0.0110265
0.0115389
0.0127999
0.00776922
0.0074742
0.00710478
0.00678368
0.00664562
0.00671646
0.00655901
0.00601388
0.00543164
0.00505942
0.00491456
0.00500535
0.0053707
0.00594407
0.00657327
0.0071972
0.0078498
0.00860308
0.00949393
0.0104394
0.0112686
0.0118787
0.0122724
0.0124819
0.0125243
0.0123929
0.0120571
0.0114807
0.0107378
0.0102359
0.0103608
0.0106976
0.0110316
0.0115334
0.0129457
0.00875575
0.0077187
0.00685602
0.00613319
0.00597406
0.00638792
0.00667358
0.00653719
0.00614153
0.00576413
0.00551336
0.00543196
0.00559569
0.0060202
0.00656815
0.00711747
0.00766712
0.00828893
0.00906466
0.0100018
0.0109623
0.0117603
0.0123204
0.0126602
0.0128078
0.0127685
0.0125194
0.0120195
0.0112914
0.0106428
0.0105342
0.0107556
0.0110383
0.0115069
0.0129193
0.0098823
0.00784961
0.00641335
0.00525924
0.00544539
0.00617172
0.00659895
0.00671317
0.00662585
0.00646531
0.00631473
0.00622517
0.00627247
0.00652774
0.00694047
0.00738394
0.0078182
0.00828663
0.00886225
0.00959852
0.0104509
0.0112696
0.0119278
0.0123932
0.0126786
0.0127922
0.0127186
0.0124174
0.0118641
0.0112197
0.0108962
0.0109345
0.0111154
0.0115269
0.0131125
0.00994729
0.00738643
0.00570072
0.00447422
0.00542161
0.00623915
0.00664314
0.00687336
0.00698309
0.00701093
0.00700022
0.00699476
0.00704922
0.00721519
0.0074881
0.00780332
0.00813056
0.00849958
0.00897456
0.00962441
0.0104426
0.0112861
0.0119863
0.0124812
0.012785
0.012921
0.012892