/*--------------------------------*- C++ -*----------------------------------*\
| =========                 |                                                 |
| \\      /  F ield         | OpenFOAM: The Open Source CFD Toolbox           |
|  \\    /   O peration     | Version:  v2006                                 |
|   \\  /    A nd           | Website:  www.openfoam.com                      |
|    \\/     M anipulation  |                                                 |
\*---------------------------------------------------------------------------*/
FoamFile
{
    version     2.0;
    format      ascii;
    class       volScalarField;
    location    "21";
    object      alphat;
}
// * * * * * * * * * * * * * * * * * * * * * * * * * * * * * * * * * * * * * //

dimensions      [1 -1 -1 0 0 0 0];


internalField   nonuniform List<scalar> 
78750
(
9.54402e-07
8.18199e-06
1.44202e-05
1.30964e-05
1.2589e-05
1.23955e-05
1.17159e-05
1.10947e-05
1.05174e-05
9.97927e-06
9.47898e-06
9.01437e-06
8.5832e-06
8.18428e-06
7.81816e-06
7.48699e-06
7.19326e-06
6.93837e-06
6.72456e-06
6.55165e-06
6.41552e-06
6.30923e-06
6.22317e-06
6.14575e-06
6.06028e-06
5.95235e-06
5.81246e-06
5.62164e-06
5.37099e-06
5.03688e-06
4.60471e-06
4.03798e-06
3.22988e-06
2.08536e-06
2.61068e-08
9.8678e-08
7.51791e-06
1.73862e-05
2.72312e-05
2.84359e-05
2.95705e-05
3.2373e-05
3.52114e-05
3.76447e-05
3.95866e-05
4.07447e-05
4.1175e-05
4.10334e-05
4.03289e-05
3.91755e-05
3.78153e-05
3.65038e-05
3.54721e-05
3.48573e-05
3.46941e-05
3.50088e-05
3.59372e-05
3.76785e-05
4.00118e-05
4.02414e-05
3.91637e-05
3.79263e-05
3.6491e-05
3.44911e-05
2.47751e-05
1.72807e-05
1.26792e-05
1.08939e-05
8.32874e-06
4.93108e-08
1.38693e-07
8.93063e-06
1.25365e-05
1.20533e-05
1.17231e-05
1.21853e-05
1.32971e-05
1.50047e-05
1.79857e-05
2.39252e-05
2.93149e-05
2.92344e-05
2.92032e-05
2.92135e-05
2.92583e-05
2.93303e-05
2.94201e-05
2.9515e-05
2.9021e-05
2.75356e-05
2.67737e-05
2.63939e-05
2.61154e-05
2.56217e-05
2.45184e-05
2.26678e-05
2.01783e-05
1.73277e-05
1.44452e-05
1.19256e-05
1.01533e-05
9.62095e-06
1.15138e-05
6.24095e-06
6.28332e-08
1.16303e-07
1.20831e-05
2.22032e-05
1.96543e-05
1.82619e-05
1.80639e-05
1.90724e-05
2.12314e-05
2.48091e-05
2.99237e-05
3.36324e-05
3.32587e-05
3.2925e-05
3.2683e-05
3.25633e-05
3.25732e-05
3.26949e-05
3.28876e-05
3.3095e-05
3.32564e-05
3.33229e-05
3.3253e-05
3.11649e-05
2.72009e-05
2.31709e-05
1.93883e-05
1.58643e-05
1.27394e-05
1.01873e-05
8.31431e-06
7.22799e-06
7.29297e-06
9.87053e-06
5.84701e-06
6.9316e-08
1.10549e-07
6.61278e-06
2.42702e-05
2.20112e-05
1.99012e-05
1.90705e-05
1.94874e-05
2.06779e-05
2.21208e-05
2.31452e-05
2.31538e-05
2.19689e-05
1.98798e-05
1.75217e-05
1.56618e-05
1.48099e-05
1.51223e-05
1.68073e-05
2.09052e-05
2.87562e-05
3.04036e-05
3.07645e-05
3.08494e-05
3.06136e-05
2.17711e-05
1.57499e-05
1.16997e-05
8.58436e-06
6.32548e-06
4.98659e-06
4.61125e-06
5.54762e-06
9.36406e-06
3.64924e-06
6.91561e-08
8.88591e-08
5.55576e-06
2.5453e-05
2.47683e-05
2.12481e-05
1.88876e-05
1.77921e-05
1.75453e-05
1.79817e-05
1.89864e-05
2.01023e-05
2.03964e-05
1.92449e-05
1.73038e-05
1.58178e-05
1.54448e-05
1.63287e-05
1.87144e-05
2.36776e-05
3.20987e-05
3.29169e-05
3.35014e-05
3.38291e-05
3.38772e-05
2.71507e-05
2.07621e-05
1.59447e-05
1.1822e-05
8.36241e-06
5.8804e-06
4.53824e-06
4.45402e-06
6.68437e-06
4.24821e-06
6.43429e-08
7.58877e-08
4.2562e-06
1.97393e-05
2.53733e-05
2.22804e-05
1.94739e-05
1.82117e-05
1.81937e-05
1.82927e-05
1.71637e-05
1.4794e-05
1.23788e-05
1.07578e-05
1.01958e-05
1.06691e-05
1.20861e-05
1.45066e-05
1.84014e-05
2.48541e-05
3.22756e-05
3.28546e-05
3.31877e-05
3.32844e-05
2.89625e-05
2.25269e-05
1.81044e-05
1.48041e-05
1.19277e-05
9.25638e-06
6.98838e-06
5.52487e-06
5.30744e-06
7.69281e-06
4.92433e-06
6.93684e-08
6.40247e-08
3.96105e-06
1.8069e-05
2.46544e-05
2.19047e-05
1.9237e-05
1.68259e-05
1.39494e-05
1.1038e-05
8.87259e-06
7.71695e-06
7.53977e-06
8.25331e-06
9.80303e-06
1.21972e-05
1.55245e-05
2.00628e-05
2.63193e-05
3.37888e-05
3.47485e-05
3.5036e-05
3.51253e-05
3.4084e-05
2.78692e-05
2.25384e-05
1.84418e-05
1.51464e-05
1.2319e-05
9.76987e-06
7.55923e-06
6.03113e-06
5.72341e-06
8.14198e-06
5.8202e-06
7.60227e-08
5.85703e-08
3.49017e-06
1.41492e-05
2.22384e-05
1.93433e-05
1.38938e-05
9.39432e-06
6.74371e-06
5.56012e-06
5.4619e-06
6.26138e-06
7.89276e-06
1.03074e-05
1.34427e-05
1.72049e-05
2.15404e-05
2.66678e-05
3.2603e-05
3.46441e-05
3.48531e-05
3.48947e-05
3.47708e-05
3.227e-05
2.53526e-05
1.98187e-05
1.5784e-05
1.27399e-05
1.03296e-05
8.37675e-06
6.85725e-06
5.95127e-06
6.27965e-06
1.02681e-05
4.88067e-06
8.38688e-08
5.86063e-08
3.06768e-06
1.17793e-05
1.57531e-05
1.02329e-05
6.45605e-06
4.79074e-06
4.47771e-06
5.16041e-06
6.72885e-06
9.11151e-06
1.21161e-05
1.54517e-05
1.88879e-05
2.24283e-05
2.6318e-05
3.08581e-05
3.56909e-05
3.6304e-05
3.63243e-05
3.61762e-05
3.50905e-05
2.82598e-05
2.18542e-05
1.69383e-05
1.33216e-05
1.06672e-05
8.70174e-06
7.25347e-06
6.25407e-06
5.90696e-06
7.0863e-06
1.38611e-05
4.07615e-06
8.60055e-08
5.91524e-08
2.63015e-06
1.03063e-05
1.08275e-05
6.02497e-06
4.24531e-06
4.08113e-06
4.97067e-06
6.74535e-06
9.24087e-06
1.20828e-05
1.49462e-05
1.77771e-05
2.07732e-05
2.42178e-05
2.83831e-05
3.31912e-05
3.59606e-05
3.60943e-05
3.6052e-05
3.58121e-05
3.26639e-05
2.4892e-05
1.83586e-05
1.36424e-05
1.03662e-05
8.18929e-06
6.88059e-06
6.19301e-06
5.96431e-06
6.41613e-06
8.80171e-06
1.67698e-05
3.42526e-06
8.48417e-08
5.90131e-08
2.41346e-06
1.0528e-05
8.03471e-06
4.64812e-06
4.01024e-06
4.66006e-06
6.19996e-06
8.39285e-06
1.08915e-05
1.3409e-05
1.59818e-05
1.88214e-05
2.2128e-05
2.6004e-05
3.04113e-05
3.49531e-05
3.71366e-05
3.72475e-05
3.71755e-05
3.68903e-05
3.1338e-05
2.38601e-05
1.74914e-05
1.27377e-05
9.40682e-06
7.23319e-06
6.01465e-06
5.49682e-06
5.53084e-06
6.37407e-06
9.40534e-06
1.5718e-05
3.05006e-06
8.38467e-08
5.95071e-08
2.40139e-06
1.20886e-05
7.45816e-06
4.76049e-06
4.635e-06
5.66142e-06
7.36387e-06
9.35955e-06
1.13593e-05
1.33854e-05
1.57106e-05
1.86041e-05
2.2216e-05
2.65295e-05
3.13226e-05
3.59487e-05
3.69617e-05
3.71523e-05
3.7149e-05
3.69092e-05
3.03177e-05
2.27845e-05
1.64173e-05
1.16326e-05
8.29747e-06
6.19251e-06
5.14955e-06
4.89059e-06
5.26643e-06
6.53563e-06
1.01022e-05
1.35282e-05
2.74371e-06
8.23612e-08
5.68559e-08
2.37924e-06
1.28812e-05
8.98853e-06
5.66104e-06
5.38321e-06
6.2165e-06
7.47934e-06
8.81704e-06
1.02317e-05
1.19719e-05
1.4387e-05
1.77514e-05
2.21579e-05
2.73669e-05
3.26913e-05
3.67775e-05
3.72824e-05
3.76379e-05
3.78214e-05
3.70795e-05
3.17269e-05
2.51073e-05
1.8585e-05
1.30696e-05
8.94014e-06
6.18181e-06
4.64255e-06
4.09419e-06
4.36192e-06
5.62942e-06
9.11799e-06
1.21673e-05
2.58774e-06
8.16414e-08
4.84278e-08
2.21264e-06
1.04036e-05
1.34125e-05
7.65033e-06
6.30917e-06
6.35134e-06
6.80173e-06
7.37774e-06
8.25855e-06
9.78345e-06
1.22665e-05
1.59772e-05
2.10293e-05
2.70822e-05
3.30027e-05
3.61498e-05
3.67391e-05
3.71954e-05
3.75194e-05
3.58921e-05
3.1632e-05
2.64617e-05
2.08898e-05
1.54674e-05
1.07853e-05
7.24744e-06
4.96899e-06
3.84258e-06
3.65311e-06
4.50434e-06
7.4394e-06
1.11144e-05
2.45265e-06
8.33412e-08
3.92578e-08
2.12896e-06
8.89893e-06
1.70677e-05
1.01608e-05
7.5002e-06
6.66195e-06
6.39971e-06
6.43939e-06
7.01985e-06
8.51113e-06
1.11256e-05
1.50353e-05
2.02402e-05
2.62791e-05
3.20645e-05
3.58773e-05
3.64407e-05
3.69156e-05
3.73196e-05
3.60204e-05
3.26454e-05
2.83705e-05
2.34948e-05
1.83555e-05
1.34195e-05
9.21681e-06
6.1268e-06
4.27654e-06
3.46993e-06
3.67862e-06
5.65085e-06
1.06588e-05
2.38464e-06
8.77516e-08
3.46003e-08
2.11876e-06
8.39671e-06
1.67288e-05
1.19257e-05
8.1598e-06
6.43315e-06
5.66833e-06
5.6402e-06
6.49047e-06
8.42924e-06
1.15267e-05
1.57794e-05
2.09384e-05
2.64091e-05
3.14009e-05
3.51676e-05
3.56497e-05
3.60635e-05
3.64809e-05
3.5694e-05
3.27867e-05
2.90573e-05
2.47977e-05
2.02072e-05
1.55265e-05
1.11582e-05
7.58895e-06
5.15534e-06
3.81876e-06
3.51811e-06
4.80578e-06
1.04325e-05
2.38106e-06
9.31396e-08
3.38351e-08
2.10761e-06
8.24591e-06
1.59555e-05
1.10518e-05
7.1952e-06
5.57122e-06
5.18995e-06
5.76683e-06
7.35504e-06
1.00051e-05
1.36085e-05
1.78916e-05
2.2436e-05
2.68339e-05
3.07777e-05
3.39426e-05
3.47742e-05
3.51506e-05
3.55996e-05
3.52904e-05
3.26821e-05
2.92286e-05
2.5286e-05
2.10573e-05
1.66895e-05
1.24501e-05
8.76706e-06
6.04703e-06
4.37639e-06
3.7549e-06
4.69654e-06
1.06358e-05
2.45412e-06
9.70519e-08
3.47761e-08
2.01718e-06
7.90652e-06
1.50709e-05
9.10317e-06
6.06271e-06
5.1302e-06
5.37097e-06
6.55177e-06
8.69473e-06
1.16766e-05
1.52161e-05
1.89915e-05
2.27517e-05
2.63522e-05
2.96774e-05
3.24782e-05
3.34031e-05
3.37713e-05
3.42645e-05
3.36164e-05
3.10996e-05
2.79276e-05
2.44625e-05
2.08392e-05
1.70588e-05
1.32293e-05
9.69384e-06
6.89223e-06
5.02654e-06
4.21317e-06
5.04318e-06
1.14276e-05
2.58239e-06
9.90802e-08
3.51456e-08
1.92681e-06
7.78272e-06
1.34139e-05
7.60001e-06
5.49764e-06
5.22103e-06
5.98909e-06
7.62593e-06
1.00926e-05
1.31213e-05
1.63672e-05
1.95772e-05
2.26635e-05
2.56442e-05
2.85065e-05
3.10326e-05
3.19336e-05
3.23005e-05
3.28356e-05
3.15722e-05
2.89452e-05
2.58969e-05
2.28056e-05
1.97572e-05
1.66496e-05
1.34505e-05
1.03562e-05
7.72035e-06
5.82306e-06
4.92988e-06
5.82654e-06
1.27923e-05
2.7572e-06
9.90653e-08
3.46391e-08
1.85814e-06
7.72556e-06
1.28127e-05
7.203e-06
5.59817e-06
5.69366e-06
6.74175e-06
8.52287e-06
1.08887e-05
1.35231e-05
1.61438e-05
1.86591e-05
2.11482e-05
2.37361e-05
2.64473e-05
2.90146e-05
3.00022e-05
3.03662e-05
3.0933e-05
2.89777e-05
2.61325e-05
2.32024e-05
2.05251e-05
1.80753e-05
1.56496e-05
1.31302e-05
1.06098e-05
8.32875e-06
6.58743e-06
5.78608e-06
6.96118e-06
1.44091e-05
2.93351e-06
9.90798e-08
3.32098e-08
1.85853e-06
7.96808e-06
1.32053e-05
7.54169e-06
6.10929e-06
6.35721e-06
7.47236e-06
9.15872e-06
1.12056e-05
1.33412e-05
1.53917e-05
1.73742e-05
1.94321e-05
2.17229e-05
2.43072e-05
2.69181e-05
2.79345e-05
2.82395e-05
2.85342e-05
2.59859e-05
2.29184e-05
2.0202e-05
1.80445e-05
1.62497e-05
1.45259e-05
1.26937e-05
1.07612e-05
8.88253e-06
7.37153e-06
6.74443e-06
8.28532e-06
1.56149e-05
3.07945e-06
9.90602e-08
3.11628e-08
1.9114e-06
8.23924e-06
1.50615e-05
8.84409e-06
7.10288e-06
7.19012e-06
8.08458e-06
9.37977e-06
1.08589e-05
1.23694e-05
1.38465e-05
1.53512e-05
1.70054e-05
1.89552e-05
2.13386e-05
2.40212e-05
2.53387e-05
2.55075e-05
2.54905e-05
2.2314e-05
1.90518e-05
1.66587e-05
1.50957e-05
1.39819e-05
1.29635e-05
1.18332e-05
1.05356e-05
9.16686e-06
8.0373e-06
7.75435e-06
9.8325e-06
1.62852e-05
3.17775e-06
1.01421e-07
2.85399e-08
1.9863e-06
8.39819e-06
1.54033e-05
1.06301e-05
8.2974e-06
7.94676e-06
8.41144e-06
9.21545e-06
1.01765e-05
1.12351e-05
1.23626e-05
1.35696e-05
1.48624e-05
1.63041e-05
1.81156e-05
2.05166e-05
2.26378e-05
2.25533e-05
2.2225e-05
1.84063e-05
1.50947e-05
1.31623e-05
1.22586e-05
1.18551e-05
1.15408e-05
1.10618e-05
1.03037e-05
9.35044e-06
8.53384e-06
8.5309e-06
1.09596e-05
1.62173e-05
3.20301e-06
1.04849e-07
2.63834e-08
2.05657e-06
8.53599e-06
1.55286e-05
1.24852e-05
9.49054e-06
8.58619e-06
8.56971e-06
8.91867e-06
9.4635e-06
1.01708e-05
1.09872e-05
1.18188e-05
1.2532e-05
1.31173e-05
1.38819e-05
1.542e-05
1.80456e-05
1.90089e-05
1.84459e-05
1.40433e-05
1.08682e-05
9.47128e-06
9.18789e-06
9.45639e-06
9.86479e-06
1.00885e-05
9.92344e-06
9.44592e-06
9.02779e-06
9.43522e-06
1.23953e-05
1.61027e-05
3.23114e-06
1.12749e-07
2.53088e-08
2.10177e-06
8.72996e-06
1.54158e-05
1.36718e-05
1.01942e-05
8.86699e-06
8.52239e-06
8.61617e-06
8.95947e-06
9.46364e-06
9.97611e-06
1.02731e-05
1.01932e-05
9.85822e-06
9.69126e-06
1.02783e-05
1.22901e-05
1.53666e-05
1.48122e-05
1.03778e-05
7.54e-06
6.57402e-06
6.6899e-06
7.41235e-06
8.39592e-06
9.2384e-06
9.59675e-06
9.47282e-06
9.2787e-06
9.89568e-06
1.3126e-05
1.53603e-05
3.12776e-06
1.18834e-07
2.60269e-08
2.09192e-06
8.69389e-06
1.54553e-05
1.46105e-05
1.08136e-05
9.23914e-06
8.73402e-06
8.69948e-06
8.87123e-06
9.04974e-06
8.99423e-06
8.52608e-06
7.74222e-06
6.99266e-06
6.65264e-06
7.07872e-06
8.79026e-06
1.19908e-05
1.23392e-05
8.02623e-06
5.4176e-06
4.60765e-06
4.81274e-06
5.68217e-06
6.97836e-06
8.25428e-06
9.12328e-06
9.57454e-06
1.00011e-05
1.13173e-05
1.53126e-05
1.45194e-05
3.08009e-06
1.2516e-07
2.69303e-08
1.99672e-06
8.09326e-06
1.55168e-05
1.61053e-05
1.19405e-05
1.00319e-05
9.32827e-06
9.13149e-06
9.07125e-06
8.86791e-06
8.31814e-06
7.42651e-06
6.4667e-06
5.79182e-06
5.67126e-06
6.3831e-06
8.42766e-06
1.20928e-05
1.31606e-05
8.4101e-06
5.076e-06
3.74591e-06
3.55411e-06
4.17461e-06
5.49287e-06
7.13707e-06
8.41438e-06
8.99516e-06
9.42116e-06
1.08792e-05
1.52335e-05
1.30224e-05
2.89241e-06
1.22833e-07
2.55023e-08
1.80476e-06
6.68179e-06
1.52612e-05
1.74851e-05
1.46545e-05
1.18668e-05
1.0479e-05
9.80725e-06
9.38578e-06
8.88191e-06
8.08206e-06
7.01285e-06
5.97897e-06
5.34121e-06
5.35923e-06
6.33112e-06
8.86108e-06
1.34296e-05
1.59569e-05
1.13195e-05
6.63502e-06
4.14915e-06
2.999e-06
2.72335e-06
3.22377e-06
4.4791e-06
6.31174e-06
8.35709e-06
1.03068e-05
1.27565e-05
1.70455e-05
1.23211e-05
2.88434e-06
1.2528e-07
2.10152e-08
1.66856e-06
5.68613e-06
1.43056e-05
1.65136e-05
1.7226e-05
1.38255e-05
1.16637e-05
1.03848e-05
9.40377e-06
8.29665e-06
6.94161e-06
5.59498e-06
4.63835e-06
4.28267e-06
4.6599e-06
6.04014e-06
9.08813e-06
1.43795e-05
1.79702e-05
1.44294e-05
9.47521e-06
6.44037e-06
4.75046e-06
3.70905e-06
3.12635e-06
3.13919e-06
3.81631e-06
5.08634e-06
6.9086e-06
9.68259e-06
1.44984e-05
1.26463e-05
2.96383e-06
1.47576e-07
1.86588e-08
1.64883e-06
5.44266e-06
1.36628e-05
1.57417e-05
1.73106e-05
1.50055e-05
1.16671e-05
9.21941e-06
7.23803e-06
5.53531e-06
4.21059e-06
3.4364e-06
3.25987e-06
3.75341e-06
5.11593e-06
7.78944e-06
1.2367e-05
1.79089e-05
1.93596e-05
1.42168e-05
8.63443e-06
5.59293e-06
4.32035e-06
3.97678e-06
4.02899e-06
4.2047e-06
4.55191e-06
5.29521e-06
6.60612e-06
8.96789e-06
1.37516e-05
1.20556e-05
2.85435e-06
1.67008e-07
1.73328e-08
1.63929e-06
5.29073e-06
1.31487e-05
1.49406e-05
1.61363e-05
1.33818e-05
9.50021e-06
6.93045e-06
5.18448e-06
3.98824e-06
3.34791e-06
3.31472e-06
3.95887e-06
5.45544e-06
8.04834e-06
1.18211e-05
1.62342e-05
1.99001e-05
2.05996e-05
1.63186e-05
9.94409e-06
5.7268e-06
3.78809e-06
3.28123e-06
3.65599e-06
4.36659e-06
4.90781e-06
5.42137e-06
6.42004e-06
8.73513e-06
1.41723e-05
1.05618e-05
2.64981e-06
1.61848e-07
1.35822e-08
1.49345e-06
4.47756e-06
1.16597e-05
1.32491e-05
1.42977e-05
1.10794e-05
8.02146e-06
5.87957e-06
4.37101e-06
3.44514e-06
3.14171e-06
3.4692e-06
4.47939e-06
6.35759e-06
9.45257e-06
1.40008e-05
1.89066e-05
2.15941e-05
2.12523e-05
1.87162e-05
1.43045e-05
8.91935e-06
4.85644e-06
2.89531e-06
2.4807e-06
3.10277e-06
4.28028e-06
5.53166e-06
6.88395e-06
9.40754e-06
1.48811e-05
9.20147e-06
2.47274e-06
1.49922e-07
1.1854e-08
1.76092e-06
5.3977e-06
1.13288e-05
1.2585e-05
1.2572e-05
6.94901e-06
4.00666e-06
2.72155e-06
2.3323e-06
2.60005e-06
3.4988e-06
5.16776e-06
7.93868e-06
1.22578e-05
1.77366e-05
2.19904e-05
2.32888e-05
2.22747e-05
2.00805e-05
1.75966e-05
1.52044e-05
1.24755e-05
8.85563e-06
5.28816e-06
3.17059e-06
2.60043e-06
3.09724e-06
4.31012e-06
6.13431e-06
9.15056e-06
1.43546e-05
8.68137e-06
2.40996e-06
1.54847e-07
1.62264e-08
1.64919e-06
4.93026e-06
9.96766e-06
7.01979e-06
3.43415e-06
2.22334e-06
2.07649e-06
2.62627e-06
3.88723e-06
6.04531e-06
9.42542e-06
1.41718e-05
1.93474e-05
2.32635e-05
2.55992e-05
2.70472e-05
2.79914e-05
2.82717e-05
2.72946e-05
2.4321e-05
1.94403e-05
1.41087e-05
9.60002e-06
6.18487e-06
3.88185e-06
2.73195e-06
2.59135e-06
3.29224e-06
4.81007e-06
7.64955e-06
1.28492e-05
8.4813e-06
2.3941e-06
1.67603e-07
2.23645e-08
1.60014e-06
6.25442e-06
5.96384e-06
3.23765e-06
2.5521e-06
2.84987e-06
4.01243e-06
6.21906e-06
9.64258e-06
1.39086e-05
1.77614e-05
2.04245e-05
2.24463e-05
2.45627e-05
2.68713e-05
2.88607e-05
2.98212e-05
2.92665e-05
2.71377e-05
2.37969e-05
1.97934e-05
1.55778e-05
1.1481e-05
7.85744e-06
5.06834e-06
3.34714e-06
2.6182e-06
2.774e-06
3.81901e-06
6.23916e-06
1.14603e-05
8.19392e-06
2.34705e-06
1.76513e-07
2.50555e-08
1.59088e-06
8.02329e-06
4.97902e-06
3.03633e-06
2.8388e-06
3.50182e-06
4.99418e-06
7.27219e-06
1.01026e-05
1.32781e-05
1.67791e-05
2.05093e-05
2.4067e-05
2.69597e-05
2.89443e-05
3.00197e-05
3.02186e-05
2.95038e-05
2.77878e-05
2.50468e-05
2.1467e-05
1.74483e-05
1.34112e-05
9.68808e-06
6.59582e-06
4.41546e-06
3.16092e-06
2.79074e-06
3.31709e-06
5.16829e-06
1.01836e-05
8.21615e-06
2.32116e-06
1.8112e-07
2.18398e-08
1.67703e-06
8.85691e-06
5.39124e-06
3.30929e-06
3.09892e-06
3.77185e-06
5.34715e-06
7.91398e-06
1.14816e-05
1.57578e-05
2.00629e-05
2.37313e-05
2.65715e-05
2.87175e-05
3.02701e-05
3.11624e-05
3.11955e-05
3.01357e-05
2.78638e-05
2.45462e-05
2.06606e-05
1.6733e-05
1.30892e-05
9.87233e-06
7.20076e-06
5.19027e-06
3.84582e-06
3.22313e-06
3.4437e-06
5.02565e-06
1.00821e-05
7.84339e-06
2.259e-06
1.76294e-07
1.71357e-08
1.68521e-06
8.28474e-06
6.99358e-06
4.0192e-06
3.51332e-06
3.99867e-06
5.32458e-06
7.47439e-06
1.03451e-05
1.37574e-05
1.75014e-05
2.13456e-05
2.49975e-05
2.81327e-05
3.05018e-05
3.13441e-05
3.21946e-05
3.14133e-05
2.92626e-05
2.59791e-05
2.19907e-05
1.78256e-05
1.38893e-05
1.04408e-05
7.66448e-06
5.64825e-06
4.31134e-06
3.63323e-06
3.73395e-06
5.20012e-06
1.03605e-05
7.87336e-06
2.2497e-06
1.70303e-07
1.4348e-08
1.77464e-06
7.63925e-06
7.22638e-06
4.41484e-06
4.08604e-06
4.82423e-06
6.45698e-06
8.89496e-06
1.19557e-05
1.53642e-05
1.88634e-05
2.23162e-05
2.5637e-05
2.85537e-05
2.92427e-05
3.00204e-05
3.08788e-05
3.1781e-05
2.96637e-05
2.61489e-05
2.23155e-05
1.85805e-05
1.50227e-05
1.16897e-05
8.79023e-06
6.53398e-06
4.9736e-06
4.12546e-06
4.09747e-06
5.46459e-06
1.06003e-05
7.95607e-06
2.24957e-06
1.66386e-07
1.3512e-08
1.85209e-06
7.54034e-06
8.75089e-06
5.61543e-06
5.3142e-06
6.12205e-06
7.62009e-06
9.55742e-06
1.17066e-05
1.40067e-05
1.65941e-05
1.96584e-05
2.32229e-05
2.69283e-05
2.77937e-05
2.8722e-05
2.97239e-05
3.07618e-05
2.99772e-05
2.59166e-05
2.16811e-05
1.79569e-05
1.47327e-05
1.18574e-05
9.32081e-06
7.20374e-06
5.61699e-06
4.68038e-06
4.57186e-06
5.91722e-06
1.1051e-05
8.16497e-06
2.28633e-06
1.63529e-07
1.27224e-08
1.80301e-06
7.37511e-06
9.4531e-06
6.8975e-06
6.31268e-06
6.84392e-06
7.9659e-06
9.48946e-06
1.13422e-05
1.3548e-05
1.6221e-05
1.94822e-05
2.31992e-05
2.56315e-05
2.63768e-05
2.72463e-05
2.82547e-05
2.93838e-05
2.96116e-05
2.60507e-05
2.23464e-05
1.90085e-05
1.59562e-05
1.30817e-05
1.04342e-05
8.13019e-06
6.3262e-06
5.17466e-06
4.86252e-06
5.98337e-06
1.07522e-05
8.51112e-06
2.31599e-06
1.62706e-07
1.23757e-08
1.74059e-06
7.26874e-06
9.4149e-06
7.97636e-06
7.2253e-06
7.59661e-06
8.5397e-06
9.83539e-06
1.13923e-05
1.32053e-05
1.53909e-05
1.81791e-05
2.16398e-05
2.36456e-05
2.42416e-05
2.50123e-05
2.59826e-05
2.71449e-05
2.80356e-05
2.40326e-05
2.06314e-05
1.81597e-05
1.61246e-05
1.40845e-05
1.1849e-05
9.53617e-06
7.49512e-06
6.05508e-06
5.48377e-06
6.37169e-06
1.08276e-05
8.98437e-06
2.37492e-06
1.62715e-07
1.24695e-08
1.67914e-06
7.27527e-06
9.47549e-06
9.11572e-06
8.22548e-06
8.46534e-06
9.25441e-06
1.0317e-05
1.15386e-05
1.29156e-05
1.45918e-05
1.68822e-05
1.999e-05
2.15784e-05
2.20654e-05
2.27767e-05
2.37425e-05
2.49604e-05
2.5989e-05
2.17772e-05
1.86899e-05
1.68674e-05
1.56892e-05
1.45581e-05
1.29992e-05
1.09463e-05
8.79481e-06
7.0756e-06
6.22326e-06
6.87544e-06
1.10136e-05
9.84521e-06
2.50492e-06
1.65571e-07
1.2275e-08
1.64049e-06
7.13188e-06
9.52147e-06
1.02092e-05
9.29811e-06
9.41024e-06
9.98463e-06
1.06995e-05
1.14211e-05
1.21755e-05
1.31663e-05
1.47887e-05
1.73816e-05
1.88873e-05
1.924e-05
1.98583e-05
2.07759e-05
2.19993e-05
2.21802e-05
1.82052e-05
1.57892e-05
1.479e-05
1.4627e-05
1.46773e-05
1.42411e-05
1.28691e-05
1.07663e-05
8.67554e-06
7.35529e-06
7.61069e-06
1.14454e-05
1.11195e-05
2.65365e-06
1.70189e-07
1.16348e-08
1.61286e-06
6.51828e-06
9.43762e-06
1.11741e-05
1.02939e-05
1.02049e-05
1.04531e-05
1.07132e-05
1.0875e-05
1.10401e-05
1.14943e-05
1.26619e-05
1.48932e-05
1.63565e-05
1.66754e-05
1.72821e-05
1.82026e-05
1.94468e-05
1.76679e-05
1.4385e-05
1.26737e-05
1.22386e-05
1.26512e-05
1.34212e-05
1.39588e-05
1.36834e-05
1.24071e-05
1.06308e-05
9.30518e-06
9.65023e-06
1.40576e-05
1.23961e-05
2.8652e-06
1.74451e-07
1.00079e-08
1.55576e-06
5.58276e-06
8.99755e-06
1.08944e-05
1.09184e-05
1.06871e-05
1.04463e-05
1.00189e-05
9.49439e-06
9.15767e-06
9.33964e-06
1.03886e-05
1.25034e-05
1.35005e-05
1.38652e-05
1.45067e-05
1.54558e-05
1.63089e-05
1.36421e-05
1.15083e-05
1.0507e-05
1.05856e-05
1.14692e-05
1.27208e-05
1.37982e-05
1.41701e-05
1.35761e-05
1.23058e-05
1.12292e-05
1.17438e-05
1.61813e-05
1.32072e-05
3.04604e-06
1.82846e-07
7.21974e-09
1.31905e-06
4.04209e-06
7.21758e-06
8.70296e-06
8.49204e-06
7.91077e-06
7.29998e-06
6.80976e-06
6.58857e-06
6.79974e-06
7.63311e-06
9.25605e-06
1.13732e-05
1.18144e-05
1.23292e-05
1.24566e-05
1.20482e-05
1.1612e-05
1.06813e-05
9.45998e-06
8.83716e-06
9.29891e-06
1.07812e-05
1.27969e-05
1.44782e-05
1.50488e-05
1.44489e-05
1.33184e-05
1.26415e-05
1.38434e-05
1.91022e-05
1.33662e-05
3.16166e-06
1.95596e-07
5.48891e-09
1.30947e-06
3.71422e-06
5.96402e-06
6.33322e-06
5.94527e-06
5.58261e-06
5.37923e-06
5.39457e-06
5.73151e-06
6.59941e-06
8.27058e-06
1.03558e-05
1.08029e-05
1.13262e-05
1.01905e-05
9.46989e-06
9.36038e-06
9.59216e-06
9.53291e-06
8.7343e-06
7.92048e-06
8.01594e-06
9.33012e-06
1.17353e-05
1.44683e-05
1.6139e-05
1.60351e-05
1.50188e-05
1.46131e-05
1.64378e-05
2.13047e-05
1.12039e-05
2.95289e-06
1.86275e-07
4.20303e-09
1.57851e-06
4.11325e-06
5.30451e-06
5.04381e-06
4.55432e-06
4.29103e-06
4.29524e-06
4.66272e-06
5.69141e-06
7.95128e-06
9.27326e-06
9.85437e-06
1.05625e-05
9.22334e-06
8.37728e-06
8.45764e-06
9.20711e-06
1.02456e-05
1.08138e-05
1.01257e-05
8.60893e-06
7.57042e-06
7.68819e-06
9.04812e-06
1.14847e-05
1.44303e-05
1.68405e-05
1.80034e-05
1.85983e-05
2.01429e-05
2.21413e-05
1.12255e-05
3.03846e-06
2.06389e-07
2.72809e-09
2.10936e-06
3.51534e-06
4.11642e-06
3.55422e-06
3.29137e-06
3.31783e-06
3.73863e-06
4.99745e-06
7.82047e-06
8.53481e-06
9.49042e-06
8.95404e-06
8.04317e-06
8.74323e-06
1.08495e-05
1.41657e-05
1.77082e-05
1.9415e-05
1.80977e-05
1.50922e-05
1.22459e-05
1.03288e-05
9.45302e-06
9.5922e-06
1.06109e-05
1.21554e-05
1.3727e-05
1.50799e-05
1.65403e-05
1.88383e-05
2.10623e-05
1.09325e-05
3.04318e-06
2.33733e-07
2.84359e-09
2.14693e-06
3.34664e-06
2.92208e-06
2.65455e-06
2.6221e-06
2.98004e-06
4.21167e-06
7.46285e-06
8.79755e-06
1.02666e-05
9.71288e-06
9.56854e-06
1.06262e-05
1.28764e-05
1.63285e-05
2.02702e-05
2.24165e-05
2.05243e-05
1.58931e-05
1.16375e-05
9.01272e-06
7.92432e-06
8.1333e-06
9.49857e-06
1.17538e-05
1.43458e-05
1.6697e-05
1.85921e-05
2.02822e-05
2.18949e-05
2.03811e-05
8.79042e-06
2.7224e-06
2.25559e-07
5.2924e-09
1.91323e-06
2.33302e-06
1.91083e-06
1.79456e-06
2.00915e-06
2.72324e-06
4.23397e-06
6.86816e-06
1.00877e-05
1.14042e-05
1.03119e-05
8.96654e-06
8.36642e-06
8.53679e-06
9.38121e-06
1.09335e-05
1.33825e-05
1.66731e-05
1.90741e-05
1.72502e-05
1.2521e-05
8.8534e-06
7.16627e-06
7.16302e-06
8.60373e-06
1.11097e-05
1.39485e-05
1.66449e-05
1.93331e-05
2.17658e-05
2.0168e-05
8.40116e-06
2.63464e-06
2.30012e-07
7.6974e-09
1.56677e-06
4.12341e-06
2.94309e-06
2.41875e-06
2.55665e-06
3.21621e-06
4.45337e-06
6.42696e-06
9.0256e-06
1.05995e-05
9.23804e-06
6.63623e-06
4.64258e-06
3.48555e-06
3.00735e-06
3.11824e-06
3.74156e-06
4.74368e-06
6.01137e-06
7.46166e-06
8.86327e-06
9.61996e-06
9.32649e-06
8.77027e-06
9.06523e-06
1.08131e-05
1.40063e-05
1.77118e-05
2.07802e-05
2.24945e-05
1.87752e-05
7.57068e-06
2.53296e-06
2.21093e-07
5.32397e-09
1.16599e-06
3.2469e-06
2.72809e-06
2.20006e-06
2.24124e-06
2.70896e-06
3.69944e-06
5.64836e-06
9.40426e-06
1.28849e-05
1.37974e-05
1.1649e-05
1.01344e-05
9.31112e-06
8.72317e-06
7.99642e-06
7.0685e-06
6.16498e-06
5.47986e-06
5.06141e-06
4.93343e-06
5.15357e-06
5.66885e-06
6.29529e-06
6.97869e-06
8.04483e-06
1.00895e-05
1.3677e-05
1.85118e-05
2.2163e-05
1.90538e-05
7.88867e-06
2.62004e-06
2.40275e-07
3.31239e-09
2.30107e-06
1.97598e-06
1.95778e-06
2.27216e-06
2.9086e-06
4.00403e-06
5.92239e-06
9.50069e-06
1.50112e-05
1.68786e-05
1.42761e-05
1.12638e-05
9.44252e-06
8.44208e-06
7.89671e-06
7.61349e-06
7.49466e-06
7.47382e-06
7.36889e-06
7.07712e-06
6.74289e-06
6.45349e-06
6.30701e-06
6.45049e-06
6.84814e-06
7.48926e-06
8.69452e-06
1.11124e-05
1.53128e-05
2.01998e-05
1.92883e-05
8.22212e-06
2.70656e-06
2.77057e-07
4.38836e-09
2.1205e-06
2.39098e-06
3.02358e-06
4.21586e-06
6.49118e-06
1.08963e-05
1.64177e-05
1.67564e-05
1.63667e-05
1.26184e-05
1.08134e-05
1.08504e-05
1.23296e-05
1.47057e-05
1.68922e-05
1.75957e-05
1.639e-05
1.40765e-05
1.16173e-05
9.45019e-06
7.72211e-06
6.53508e-06
5.97474e-06
6.03131e-06
6.52959e-06
7.2153e-06
8.10435e-06
9.7674e-06
1.31317e-05
1.84344e-05
1.91372e-05
7.86252e-06
2.64726e-06
2.89897e-07
4.27484e-09
2.73823e-06
2.33064e-06
2.65397e-06
3.37217e-06
4.58418e-06
6.65683e-06
1.03063e-05
1.56086e-05
1.65229e-05
1.45821e-05
1.01913e-05
7.86812e-06
7.13278e-06
7.50596e-06
8.84498e-06
1.09817e-05
1.32739e-05
1.45283e-05
1.38818e-05
1.17312e-05
9.16266e-06
6.9927e-06
5.59262e-06
5.07884e-06
5.40086e-06
6.32041e-06
7.49854e-06
8.96942e-06
1.15848e-05
1.6626e-05
1.91276e-05
7.49094e-06
2.5444e-06
2.84371e-07
2.67052e-09
1.84074e-06
1.8645e-06
2.30205e-06
3.13014e-06
4.53205e-06
6.93768e-06
1.09213e-05
1.4385e-05
1.51479e-05
1.54999e-05
1.18662e-05
9.05661e-06
7.45363e-06
6.90186e-06
7.34015e-06
8.88181e-06
1.15999e-05
1.48289e-05
1.67793e-05
1.5992e-05
1.29906e-05
9.50513e-06
6.74428e-06
5.09367e-06
4.5739e-06
5.09748e-06
6.52344e-06
8.73419e-06
1.20161e-05
1.73299e-05
1.91742e-05
7.24897e-06
2.4957e-06
2.74209e-07
2.73063e-09
1.74685e-06
2.18066e-06
2.82109e-06
3.75434e-06
5.08775e-06
7.05795e-06
1.00893e-05
1.41151e-05
1.46447e-05
1.46857e-05
1.10568e-05
8.41676e-06
6.96995e-06
6.3513e-06
6.41591e-06
7.25107e-06
9.08553e-06
1.19827e-05
1.5214e-05
1.71005e-05
1.62483e-05
1.31191e-05
9.44255e-06
6.51806e-06
4.77769e-06
4.2355e-06
4.84488e-06
6.71256e-06
1.03098e-05
1.62396e-05
1.7935e-05
6.98108e-06
2.46439e-06
2.67533e-07
2.37859e-09
1.79431e-06
2.11419e-06
2.53978e-06
3.06534e-06
3.69916e-06
4.54049e-06
5.88548e-06
8.27915e-06
1.12157e-05
1.1855e-05
9.21622e-06
6.92634e-06
5.8061e-06
5.45755e-06
5.6747e-06
6.48564e-06
8.10356e-06
1.07221e-05
1.41013e-05
1.71913e-05
1.83902e-05
1.68948e-05
1.34917e-05
9.71978e-06
6.70782e-06
4.87659e-06
4.27357e-06
4.95812e-06
7.38426e-06
1.26066e-05
1.60058e-05
6.78126e-06
2.46325e-06
2.7052e-07
2.01192e-09
1.52899e-06
1.9349e-06
2.26943e-06
2.56263e-06
2.79266e-06
2.98384e-06
3.28296e-06
4.03399e-06
5.76289e-06
7.83375e-06
7.06498e-06
5.38797e-06
4.52359e-06
4.32716e-06
4.61665e-06
5.38608e-06
6.78546e-06
9.05503e-06
1.2185e-05
1.57049e-05
1.84795e-05
1.92347e-05
1.75714e-05
1.4228e-05
1.04755e-05
7.36423e-06
5.39435e-06
4.70847e-06
5.5319e-06
8.74516e-06
1.40572e-05
6.7764e-06
2.45095e-06
2.78535e-07
2.14946e-09
1.82712e-06
2.15009e-06
2.27926e-06
2.27992e-06
2.13939e-06
1.92553e-06
1.81642e-06
2.07026e-06
3.10097e-06
5.42396e-06
6.50261e-06
4.94822e-06
3.98234e-06
3.76624e-06
4.09002e-06
4.92127e-06
6.3738e-06
8.66661e-06
1.17884e-05
1.53018e-05
1.83071e-05
1.97904e-05
1.92569e-05
1.69739e-05
1.36808e-05
1.02517e-05
7.46968e-06
5.82316e-06
5.65738e-06
7.83657e-06
1.36095e-05
6.96156e-06
2.45939e-06
2.74621e-07
1.63396e-09
2.04171e-06
2.55452e-06
2.2918e-06
1.91949e-06
1.55209e-06
1.26906e-06
1.18123e-06
1.41938e-06
2.18149e-06
3.92969e-06
6.75068e-06
6.11375e-06
4.1296e-06
3.26612e-06
3.16419e-06
3.63405e-06
4.71078e-06
6.56626e-06
9.33636e-06
1.26446e-05
1.5685e-05
1.76483e-05
1.80095e-05
1.66496e-05
1.40175e-05
1.09683e-05
8.31628e-06
6.63048e-06
6.41166e-06
8.76227e-06
1.42703e-05
6.45122e-06
2.33906e-06
2.39842e-07
2.0173e-09
1.28734e-06
2.33631e-06
2.6526e-06
2.57886e-06
2.4591e-06
2.45589e-06
2.64397e-06
3.0725e-06
3.82208e-06
5.0601e-06
6.924e-06
8.45281e-06
7.32694e-06
4.78007e-06
3.08261e-06
2.37534e-06
2.39668e-06
3.10578e-06
4.69175e-06
7.40187e-06
1.08507e-05
1.35815e-05
1.45316e-05
1.40815e-05
1.28232e-05
1.11007e-05
9.34756e-06
8.18545e-06
8.42883e-06
1.147e-05
1.57892e-05
6.51862e-06
2.32897e-06
2.09704e-07
3.33868e-09
8.55146e-07
1.53048e-06
1.89174e-06
2.14256e-06
2.50513e-06
3.0882e-06
4.00429e-06
5.44468e-06
7.59947e-06
9.93162e-06
1.07184e-05
9.78533e-06
8.53957e-06
7.61072e-06
6.74735e-06
5.4227e-06
3.57172e-06
2.0627e-06
1.69005e-06
2.47249e-06
4.48307e-06
7.85934e-06
1.1811e-05
1.402e-05
1.35517e-05
1.18237e-05
1.01845e-05
9.36904e-06
1.01504e-05
1.37663e-05
1.65123e-05
6.618e-06
2.31534e-06
1.97761e-07
4.8702e-09
1.00777e-06
1.55174e-06
2.04887e-06
2.68759e-06
3.56555e-06
4.79635e-06
6.56105e-06
9.04637e-06
1.20187e-05
1.42171e-05
1.42457e-05
1.22108e-05
9.45953e-06
7.15881e-06
5.639e-06
4.80906e-06
4.43621e-06
4.11144e-06
3.46141e-06
2.77223e-06
2.87631e-06
4.16529e-06
6.61683e-06
9.85551e-06
1.26838e-05
1.37743e-05
1.33119e-05
1.2689e-05
1.33851e-05
1.64355e-05
1.80474e-05
7.52606e-06
2.44572e-06
2.20984e-07
5.90487e-09
1.24925e-06
1.90876e-06
2.65981e-06
3.66221e-06
5.04892e-06
6.99816e-06
9.7393e-06
1.32935e-05
1.66836e-05
1.7697e-05
1.5012e-05
1.05858e-05
7.13365e-06
5.11515e-06
4.06923e-06
3.6199e-06
3.53084e-06
3.5812e-06
3.53343e-06
3.37046e-06
3.44459e-06
4.23397e-06
5.95789e-06
8.42258e-06
1.09302e-05
1.25961e-05
1.32238e-05
1.35581e-05
1.47554e-05
1.7553e-05
1.82094e-05
7.55119e-06
2.44621e-06
2.46687e-07
6.71434e-09
1.61045e-06
2.39398e-06
3.2689e-06
4.29349e-06
5.40238e-06
6.63277e-06
8.24016e-06
1.05361e-05
1.3616e-05
1.63473e-05
1.53751e-05
1.04491e-05
6.31657e-06
4.03551e-06
2.87463e-06
2.35802e-06
2.25997e-06
2.43641e-06
2.7439e-06
3.06356e-06
3.49489e-06
4.37783e-06
6.05403e-06
8.66369e-06
1.18216e-05
1.4485e-05
1.58769e-05
1.64169e-05
1.71727e-05
1.87315e-05
1.76494e-05
7.20195e-06
2.3944e-06
2.56803e-07
5.3828e-09
1.91489e-06
2.19682e-06
2.50002e-06
2.92128e-06
3.62012e-06
4.74998e-06
6.41886e-06
8.75504e-06
1.19576e-05
1.58275e-05
1.77943e-05
1.38303e-05
7.95404e-06
4.43529e-06
2.67561e-06
1.86233e-06
1.62832e-06
1.80315e-06
2.27709e-06
2.92652e-06
3.67764e-06
4.6248e-06
5.94813e-06
7.80885e-06
1.01417e-05
1.25234e-05
1.44838e-05
1.59806e-05
1.7499e-05
1.92573e-05
1.73514e-05
6.90981e-06