/*--------------------------------*- C++ -*----------------------------------*\
| =========                 |                                                 |
| \\      /  F ield         | OpenFOAM: The Open Source CFD Toolbox           |
|  \\    /   O peration     | Version:  v2006                                 |
|   \\  /    A nd           | Website:  www.openfoam.com                      |
|    \\/     M anipulation  |                                                 |
\*---------------------------------------------------------------------------*/
FoamFile
{
    version     2.0;
    format      ascii;
    class       volScalarField;
    location    "21";
    object      k;
}
// * * * * * * * * * * * * * * * * * * * * * * * * * * * * * * * * * * * * * //

dimensions      [0 2 -2 0 0 0 0];


internalField   nonuniform List<scalar> 
78750
(
0.000287069
0.000151245
0.000179782
0.00017192
0.000162349
0.000152535
0.000143547
0.000135395
0.000127875
0.000120913
0.000114482
0.000108545
0.000103066
9.80228e-05
9.34171e-05
8.92696e-05
8.56063e-05
8.24393e-05
7.9792e-05
7.76575e-05
7.59818e-05
7.46765e-05
7.36216e-05
7.26737e-05
7.16269e-05
7.03048e-05
6.85921e-05
6.62588e-05
6.32011e-05
5.91399e-05
5.39147e-05
4.71199e-05
3.75439e-05
2.41475e-05
7.84032e-06
4.34257e-05
0.000260591
0.000343413
0.000355496
0.000340316
0.00031795
0.000297627
0.000281208
0.00026785
0.000256833
0.000247759
0.000240188
0.000233646
0.000227825
0.000222593
0.000217937
0.000213723
0.000209885
0.000206234
0.000202471
0.000198419
0.00019404
0.000189333
0.000184312
0.000178898
0.000172883
0.000166068
0.000158284
0.000149501
0.000139009
0.000125267
0.000107272
8.50223e-05
5.77742e-05
2.17536e-05
6.10772e-05
0.000138638
0.000167434
0.000165958
0.000152088
0.000139092
0.000130608
0.000125801
0.000123335
0.000122031
0.000121361
0.000120972
0.000120828
0.000120888
0.00012112
0.000121487
0.000121942
0.000122422
0.000122854
0.000123172
0.000123301
0.000123146
0.000122613
0.000121617
0.000120088
0.00011801
0.000115416
0.000112363
0.00010881
0.000104433
9.84853e-05
8.96374e-05
7.68296e-05
5.73745e-05
2.77794e-05
5.12152e-05
0.000109854
0.000137373
0.000149659
0.000153277
0.000152715
0.000150962
0.000149081
0.000147204
0.000145215
0.000143226
0.000141297
0.000139588
0.000138361
0.000137771
0.00013785
0.000138506
0.000139529
0.000140628
0.000141488
0.000141852
0.000141503
0.000140258
0.00013791
0.000134233
0.000129073
0.000122447
0.000114705
0.000106676
9.93238e-05
9.27769e-05
8.5629e-05
7.53306e-05
5.80635e-05
3.0675e-05
4.86969e-05
9.52415e-05
0.00012027
0.000134829
0.000143428
0.000146398
0.000144931
0.000140384
0.000133949
0.000126568
0.000119034
0.000112059
0.000106391
0.000102886
0.000102237
0.000104554
0.000109078
0.000114571
0.000119839
0.000124007
0.00012699
0.000128822
0.000129264
0.000128086
0.000124908
0.000119117
0.000110585
9.97569e-05
8.798e-05
7.74816e-05
7.00706e-05
6.54153e-05
6.00094e-05
4.91063e-05
3.0703e-05
3.91412e-05
8.63224e-05
0.000111299
0.000126089
0.000135866
0.000140384
0.000140087
0.000136226
0.000130224
0.000123293
0.000116386
0.000110259
0.000105665
0.000103585
0.000104854
0.000109223
0.000115734
0.000123103
0.000130048
0.00013561
0.000139844
0.000142896
0.000144619
0.000144882
0.000143479
0.000139894
0.000133532
0.000123899
0.000110922
9.59055e-05
8.15687e-05
7.00147e-05
6.00646e-05
4.71286e-05
2.86033e-05
3.34301e-05
7.58165e-05
0.000100746
0.000115413
0.000125292
0.000131129
0.000132788
0.000130614
0.000125243
0.000117447
0.000108457
0.000100464
9.59596e-05
9.6398e-05
0.000101419
0.000109209
0.000117815
0.000125758
0.000132108
0.000136606
0.000139601
0.000141334
0.00014184
0.000141114
0.000138934
0.000135038
0.000129262
0.000121482
0.000111776
0.000100777
8.93983e-05
7.8377e-05
6.68927e-05
5.17765e-05
3.08305e-05
2.82042e-05
6.87258e-05
9.31715e-05
0.000107297
0.000116465
0.000121343
0.00012111
0.000115517
0.000105987
9.61455e-05
9.01557e-05
9.03403e-05
9.64945e-05
0.000106466
0.000117612
0.00012796
0.000136441
0.000142691
0.000146872
0.000149549
0.000151074
0.000151548
0.000151039
0.00014949
0.00014665
0.000142339
0.000136407
0.000128808
0.000119714
0.000109731
9.94081e-05
8.86983e-05
7.62471e-05
5.88353e-05
3.3762e-05
2.58022e-05
6.31311e-05
8.61221e-05
9.74869e-05
0.000102035
0.000100636
9.34857e-05
8.398e-05
7.76734e-05
7.81671e-05
8.55225e-05
9.73628e-05
0.000110393
0.000122173
0.000131636
0.00013869
0.000143651
0.000146952
0.000149023
0.000150134
0.000150358
0.000149703
0.000148121
0.000145398
0.000141204
0.000135428
0.000128207
0.000119969
0.000111555
0.000103749
9.6422e-05
8.85655e-05
7.82555e-05
6.20396e-05
3.72589e-05
2.58182e-05
5.84643e-05
7.70588e-05
8.3556e-05
8.25533e-05
7.68776e-05
7.16953e-05
7.24075e-05
8.0578e-05
9.40656e-05
0.000109247
0.000122894
0.000133719
0.000141836
0.000147778
0.000152071
0.000155057
0.000156952
0.000157932
0.000158045
0.000157248
0.000155482
0.000152526
0.000147966
0.000141547
0.000133416
0.000124192
0.000114959
0.000106932
0.000100086
9.35478e-05
8.60705e-05
7.6644e-05
6.19477e-05
3.82415e-05
2.60591e-05
5.26985e-05
6.67755e-05
7.00923e-05
6.75336e-05
6.499e-05
6.83611e-05
7.85492e-05
9.25279e-05
0.000107052
0.00011965
0.000129693
0.00013747
0.000143565
0.000148324
0.00015193
0.000154488
0.000156105
0.000156832
0.000156612
0.00015533
0.000152803
0.00014861
0.000142192
0.000133367
0.000122739
0.000111888
0.00010319
9.7346e-05
9.30275e-05
8.83448e-05
8.17812e-05
7.3149e-05
5.97344e-05
3.77753e-05
2.59978e-05
4.86046e-05
6.02938e-05
6.38019e-05
6.45949e-05
6.89047e-05
7.90819e-05
9.26104e-05
0.000106596
0.000119237
0.000129677
0.000138181
0.000145122
0.000150756
0.000155216
0.000158599
0.000160995
0.000162499
0.000163114
0.000162732
0.00016119
0.000158193
0.000153155
0.000145449
0.000134824
0.000122005
0.000109035
9.91243e-05
9.29802e-05
8.89289e-05
8.46626e-05
7.84983e-05
7.02362e-05
5.75185e-05
3.73801e-05
2.62153e-05
4.754e-05
5.90115e-05
6.45692e-05
6.94947e-05
7.7702e-05
8.87676e-05
0.000100116
0.000110614
0.000120003
0.000128327
0.000135835
0.000142534
0.000148324
0.000153097
0.000156849
0.000159644
0.000161581
0.000162632
0.000162628
0.000161338
0.000158358
0.000152954
0.000144359
0.000132205
0.000117331
0.000102413
9.19178e-05
8.63603e-05
8.3592e-05
8.05271e-05
7.52196e-05
6.73984e-05
5.5171e-05
3.67675e-05
2.50476e-05
4.7393e-05
6.02278e-05
6.79946e-05
7.53106e-05
8.3885e-05
9.26217e-05
0.00010024
0.000107143
0.000114496
0.000122502
0.000130953
0.000139143
0.000146386
0.000152328
0.000156992
0.00016059
0.000163351
0.000165308
0.000166331
0.000166185
0.000164473
0.00016047
0.000153175
0.000141598
0.000125599
0.000107125
9.11619e-05
8.15933e-05
7.75872e-05
7.54531e-05
7.1621e-05
6.485e-05
5.34895e-05
3.64893e-05
2.13352e-05
4.46973e-05
5.97028e-05
6.89577e-05
7.65489e-05
8.37129e-05
8.94076e-05
9.33319e-05
9.67721e-05
0.000102251
0.000110748
0.00012115
0.000131612
0.000140681
0.000147808
0.000153166
0.000157236
0.000160432
0.000162925
0.000164708
0.000165636
0.00016537
0.000163289
0.000158453
0.00014968
0.000135938
0.000117399
9.73993e-05
8.1909e-05
7.31692e-05
6.9613e-05
6.68013e-05
6.15542e-05
5.18725e-05
3.72868e-05
1.72957e-05
4.06421e-05
5.70059e-05
6.69915e-05
7.44153e-05
8.05513e-05
8.44685e-05
8.64611e-05
8.86029e-05
9.40792e-05
0.000104514
0.000117335
0.000129565
0.000139463
0.000146758
0.000151973
0.000155806
0.000158851
0.000161435
0.000163647
0.000165407
0.000166445
0.00016623
0.000163916
0.000158368
0.000148257
0.000132569
0.000112073
9.19534e-05
7.65159e-05
6.78585e-05
6.3453e-05
5.88715e-05
5.09811e-05
3.92946e-05
1.52442e-05
3.7817e-05
5.42052e-05
6.41471e-05
7.07565e-05
7.52069e-05
7.73792e-05
7.88473e-05
8.27898e-05
9.18653e-05
0.00010563
0.000119838
0.000131584
0.000140034
0.000145717
0.00014954
0.000152309
0.00015463
0.00015686
0.000159123
0.000161339
0.000163263
0.000164418
0.000164036
0.00016109
0.000154294
0.000142328
0.000124819
0.000104555
8.54929e-05
7.1655e-05
6.3743e-05
5.83482e-05
5.13409e-05
4.17471e-05
1.49075e-05
3.64275e-05
5.19078e-05
6.08825e-05
6.62759e-05
6.96198e-05
7.22385e-05
7.69364e-05
8.6088e-05
9.97044e-05
0.000114473
0.000126796
0.000135511
0.000141049
0.000144428
0.0001466
0.000148288
0.000149991
0.000151999
0.000154407
0.000157105
0.000159841
0.000162164
0.000163345
0.000162413
0.000158112
0.000149072
0.000134536
0.000116071
9.63178e-05
7.93257e-05
6.78849e-05
6.06306e-05
5.30776e-05
4.35466e-05
1.53225e-05
3.54796e-05
4.97546e-05
5.77533e-05
6.2593e-05
6.65446e-05
7.18689e-05
8.07006e-05
9.30738e-05
0.000107259
0.000119795
0.000128868
0.000134577
0.000137776
0.000139466
0.00014049
0.000141466
0.000142802
0.000144736
0.000147338
0.000150508
0.000154021
0.000157459
0.000160134
0.000161123
0.000159194
0.000152958
0.00014149
0.00012556
0.000106597
8.81885e-05
7.41077e-05
6.48101e-05
5.57465e-05
4.44936e-05
1.54857e-05
3.44448e-05
4.78114e-05
5.56234e-05
6.11759e-05
6.73003e-05
7.59529e-05
8.75617e-05
0.000100594
0.000113186
0.000122804
0.000128899
0.000132109
0.00013339
0.000133688
0.000133767
0.000134167
0.000135223
0.000137117
0.000139893
0.000143466
0.000147652
0.000152078
0.000156099
0.000158854
0.000159156
0.000155662
0.000147425
0.000134393
0.000117044
9.81232e-05
8.18175e-05
7.0215e-05
5.88463e-05
4.45022e-05
1.52627e-05
3.34969e-05
4.65656e-05
5.48688e-05
6.18311e-05
7.02743e-05
8.09829e-05
9.30138e-05
0.000104544
0.000114318
0.000121011
0.00012463
0.000125935
0.00012583
0.000125157
0.000124596
0.000124604
0.00012545
0.000127288
0.000130162
0.000134037
0.000138805
0.000144153
0.00014948
0.000153973
0.000156488
0.000155753
0.000150829
0.000140904
0.000125738
0.000107392
8.98143e-05
7.62828e-05
6.25033e-05
4.45121e-05
1.46331e-05
3.29179e-05
4.63196e-05
5.55591e-05
6.41049e-05
7.43319e-05
8.57946e-05
9.69489e-05
0.000106352
0.000113444
0.00011772
0.000119418
0.000119272
0.000118086
0.000116581
0.000115357
0.000114828
0.000115234
0.000116738
0.000119438
0.000123386
0.000128598
0.000134852
0.000141609
0.000148034
0.000152979
0.000155195
0.000153546
0.000146547
0.000133447
0.000115702
9.70991e-05
8.17836e-05
6.57541e-05
4.45016e-05
1.37312e-05
3.2806e-05
4.71236e-05
5.73125e-05
6.68717e-05
7.77247e-05
8.85414e-05
9.77805e-05
0.000104554
0.000108957
0.000111176
0.000111461
0.000110354
0.000108434
0.000106255
0.000104333
0.000103077
0.000102753
0.000103564
0.000105704
0.00010936
0.000114744
0.000121783
0.000130015
0.000138553
0.000146223
0.00015178
0.000153698
0.000149974
0.000139474
0.000123119
0.000104422
8.7829e-05
6.97735e-05
4.5573e-05
1.25756e-05
3.25201e-05
4.7707e-05
5.86313e-05
6.85272e-05
7.89188e-05
8.84671e-05
9.58793e-05
0.000100734
0.000103455
0.000104554
0.000104174
0.000102585
0.000100099
9.7136e-05
9.41824e-05
9.17291e-05
9.01735e-05
8.97965e-05
9.09051e-05
9.38376e-05
9.90819e-05
0.000106791
0.000116587
0.000127466
0.000138123
0.000147144
0.00015244
0.000151676
0.000143412
0.000128195
0.000109428
9.18303e-05
7.24742e-05
4.71306e-05
1.16255e-05
3.21046e-05
4.7844e-05
5.91746e-05
6.89356e-05
7.84261e-05
8.66528e-05
9.26129e-05
9.61311e-05
9.76827e-05
9.7852e-05
9.67276e-05
9.43837e-05
9.09818e-05
8.68803e-05
8.25694e-05
7.86177e-05
7.56084e-05
7.39124e-05
7.38321e-05
7.57884e-05
8.06112e-05
8.88488e-05
0.000100251
0.000113755
0.000127955
0.000141041
0.00015025
0.000153024
0.000147717
0.000134524
0.000116579
9.84263e-05
7.76894e-05
5.07126e-05
1.11522e-05
3.15991e-05
4.73629e-05
5.87128e-05
6.81845e-05
7.69868e-05
8.44345e-05
8.96708e-05
9.25342e-05
9.33754e-05
9.26669e-05
9.05405e-05
8.70759e-05
8.24984e-05
7.72343e-05
7.18305e-05
6.6895e-05
6.30198e-05
6.0582e-05
5.9674e-05
6.0663e-05
6.46931e-05
7.28444e-05
8.5263e-05
0.00010091
0.000118203
0.000134591
0.00014675
0.000151905
0.000148269
0.000136019
0.000118503
0.000100285
7.95714e-05
5.34815e-05
1.14689e-05
3.17215e-05
4.74714e-05
5.88856e-05
6.83232e-05
7.69297e-05
8.40244e-05
8.86323e-05
9.04949e-05
8.99354e-05
8.75488e-05
8.37936e-05
7.89616e-05
7.34674e-05
6.79107e-05
6.29423e-05
5.90487e-05
5.6337e-05
5.4565e-05
5.34767e-05
5.33362e-05
5.55505e-05
6.21457e-05
7.44177e-05
9.17553e-05
0.000112221
0.000131606
0.000146292
0.000153859
0.000152565
0.00014218
0.000125729
0.000107093
8.47174e-05
5.63889e-05
1.18673e-05
3.16542e-05
4.74777e-05
5.91486e-05
6.86664e-05
7.71327e-05
8.38538e-05
8.77426e-05
8.86087e-05
8.69441e-05
8.35338e-05
7.90939e-05
7.41283e-05
6.92182e-05
6.5134e-05
6.26049e-05
6.18329e-05
6.21078e-05
6.21819e-05
6.12515e-05
5.9185e-05
5.69255e-05
5.74058e-05
6.45258e-05
8.03084e-05
0.000103048
0.000125896
0.000142076
0.000148975
0.000146694
0.000136565
0.00012162
0.000104434
8.30531e-05
5.53958e-05
1.12383e-05
3.02649e-05
4.61683e-05
5.80883e-05
6.75145e-05
7.55517e-05
8.18634e-05
8.56447e-05
8.66209e-05
8.5102e-05
8.16771e-05
7.70312e-05
7.19198e-05
6.72828e-05
6.42821e-05
6.40031e-05
6.66511e-05
7.09229e-05
7.46136e-05
7.62522e-05
7.51958e-05
7.08324e-05
6.40745e-05
5.89963e-05
6.16121e-05
7.67282e-05
0.000102899
0.000129972
0.00014761
0.00015124
0.000142501
0.00012691
0.000108058
8.45655e-05
5.65701e-05
9.26107e-06
2.70272e-05
4.23708e-05
5.41207e-05
6.33729e-05
7.09092e-05
7.67141e-05
8.05174e-05
8.18946e-05
8.07355e-05
7.71843e-05
7.17579e-05
6.56954e-05
6.09552e-05
5.93742e-05
6.20979e-05
6.86112e-05
7.66473e-05
8.35022e-05
8.78725e-05
8.97384e-05
8.90139e-05
8.56033e-05
7.99349e-05
7.32691e-05
6.94869e-05
7.5233e-05
9.22628e-05
0.000113705
0.000129252
0.000132717
0.000125083
0.000110579
9.00657e-05
6.66729e-05
8.22274e-06
2.53916e-05
4.02157e-05
5.14813e-05
6.01183e-05
6.67788e-05
7.14346e-05
7.38747e-05
7.35262e-05
7.01073e-05
6.40866e-05
5.71868e-05
5.26004e-05
5.26022e-05
5.83747e-05
6.89794e-05
8.12656e-05
9.15531e-05
9.77956e-05
9.99958e-05
9.85337e-05
9.36746e-05
8.73472e-05
8.33326e-05
8.33787e-05
8.63099e-05
9.1661e-05
0.000100509
0.000113002
0.000124287
0.000128116
0.000122891
0.000111457
9.49156e-05
7.55017e-05
7.6384e-06
2.46023e-05
3.89611e-05
4.9377e-05
5.67557e-05
6.17622e-05
6.44443e-05
6.46551e-05
6.21453e-05
5.73223e-05
5.17e-05
4.82375e-05
4.95846e-05
5.65885e-05
6.81049e-05
8.11628e-05
9.27471e-05
0.00010126
0.000106289
0.00010773
0.000105184
9.80112e-05
8.72383e-05
7.82833e-05
7.79153e-05
8.72768e-05
0.000100181
0.000110704
0.000119171
0.000125622
0.000127026
0.00012188
0.000111624
9.55835e-05
7.32591e-05
5.98561e-06
2.12036e-05
3.40868e-05
4.3363e-05
4.9779e-05
5.40738e-05
5.64443e-05
5.66931e-05
5.44528e-05
5.02952e-05
4.6331e-05
4.57626e-05
5.03811e-05
5.9809e-05
7.22653e-05
8.5526e-05
9.77872e-05
0.000108004
0.000115811
0.000120924
0.000122404
0.000118452
0.000106814
8.83669e-05
7.24619e-05
7.17682e-05
8.8131e-05
0.000108667
0.000122866
0.000128527
0.000127062
0.000120192
0.000108868
9.12053e-05
6.79598e-05
5.22393e-06
2.07498e-05
3.34147e-05
4.20423e-05
4.70821e-05
4.889e-05
4.75123e-05
4.34389e-05
3.93162e-05
3.88721e-05
4.47788e-05
5.68626e-05
7.30117e-05
9.02725e-05
0.00010582
0.000117766
0.000125829
0.000130696
0.000133077
0.000133444
0.000131993
0.00012849
0.000121759
0.000109898
9.23761e-05
7.61887e-05
7.46322e-05
8.95047e-05
0.000109131
0.000121877
0.000124182
0.000118375
0.000106944
8.94357e-05
7.02481e-05
7.15108e-06
2.19221e-05
3.22817e-05
3.66536e-05
3.65776e-05
3.40309e-05
3.25559e-05
3.61484e-05
4.67959e-05
6.35202e-05
8.29031e-05
0.00010105
0.000115053
0.000124032
0.000129044
0.000131621
0.000132946
0.000133651
0.000133874
0.000133397
0.000131731
0.000128167
0.000121796
0.000111778
9.77678e-05
8.20469e-05
7.22097e-05
7.56576e-05
9.11828e-05
0.000107847
0.000116106
0.000114523
0.00010573
9.09558e-05
7.60459e-05
9.85593e-06
2.25575e-05
3.08627e-05
3.45743e-05
3.62849e-05
4.00327e-05
4.93168e-05
6.44399e-05
8.17832e-05
9.68074e-05
0.000107352
0.000113933
0.000118211
0.000121634
0.000125004
0.000128562
0.000132228
0.000135791
0.000138976
0.000141421
0.000142585
0.000141677
0.000137593
0.000129189
0.0001158
9.85304e-05
8.28599e-05
7.54068e-05
8.09368e-05
9.48927e-05
0.000106428
0.000109238
0.000104093
9.24832e-05
8.00758e-05
1.10416e-05
2.33969e-05
3.15157e-05
3.64092e-05
4.05165e-05
4.6588e-05
5.62321e-05
6.88335e-05
8.17711e-05
9.34322e-05
0.000103521
0.000112079
0.000119179
0.000125004
0.000129827
0.000133947
0.000137604
0.000140926
0.000143906
0.000146398
0.000148071
0.000148388
0.000146494
0.000141298
0.000131637
0.000117205
0.000100986
8.73501e-05
8.28751e-05
8.93907e-05
9.97171e-05
0.000105003
0.000102954
9.39681e-05
8.21226e-05
9.62401e-06
2.32223e-05
3.23024e-05
3.83539e-05
4.34514e-05
4.95175e-05
5.85857e-05
7.12726e-05
8.49433e-05
9.72226e-05
0.000106932
0.000114068
0.000119262
0.000123265
0.000126688
0.000129938
0.000133219
0.000136557
0.000139829
0.000142803
0.000145092
0.000146173
0.000145338
0.000141866
0.000135109
0.000125045
0.000113045
0.000100557
9.21518e-05
9.20359e-05
9.79459e-05
0.000102403
0.000101238
9.30149e-05
7.98981e-05
7.55104e-06
2.0898e-05
3.01048e-05
3.61508e-05
4.09198e-05
4.62753e-05
5.43201e-05
6.59982e-05
7.92376e-05
9.14123e-05
0.000101302
0.000108899
0.000114776
0.000119602
0.000123926
0.000128118
0.000132388
0.00013675
0.000141073
0.000145158
0.000148604
0.000150827
0.000151026
0.000148398
0.000142336
0.000133123
0.0001224
0.0001111
0.000102016
9.85673e-05
0.000100566
0.000102839
0.000100869
9.19014e-05
7.7163e-05
6.32261e-06
1.86219e-05
2.76416e-05
3.42872e-05
4.06631e-05
4.86636e-05
5.94002e-05
7.24929e-05
8.51858e-05
9.54573e-05
0.000102925
0.00010817
0.000112047
0.000115296
0.000118438
0.000121853
0.000125743
0.00013008
0.000134688
0.000139419
0.000144045
0.000148071
0.000150725
0.000151121
0.000148393
0.00014228
0.00013324
0.000122037
0.000111404
0.000104985
0.000103413
0.000103164
9.99488e-05
9.04614e-05
7.53794e-05
5.95425e-06
1.78766e-05
2.72677e-05
3.49535e-05
4.29521e-05
5.23721e-05
6.27696e-05
7.31172e-05
8.21927e-05
8.93744e-05
9.48933e-05
9.93179e-05
0.000103182
0.00010687
0.000110634
0.00011472
0.000119286
0.000124273
0.000129506
0.00013481
0.000140046
0.000144894
0.000148697
0.000150749
0.000150419
0.000147493
0.000141454
0.000132139
0.000121565
0.000113274
0.00010891
0.00010625
0.000101382
9.05916e-05
7.40831e-05
5.6064e-06
1.71934e-05
2.66451e-05
3.46107e-05
4.27984e-05
5.18781e-05
6.11481e-05
6.98982e-05
7.77215e-05
8.43669e-05
8.98063e-05
9.42155e-05
9.78726e-05
0.000101112
0.00010432
0.000107889
0.000112094
0.000117027
0.000122623
0.000128731
0.00013525
0.000141906
0.00014795
0.0001525
0.000154745
0.00015423
0.000149997
0.000141506
0.000130185
0.00011944
0.000112081
0.000107358
0.000101508
9.0365e-05
7.36994e-05
5.45374e-06
1.67912e-05
2.62467e-05
3.44698e-05
4.29121e-05
5.19555e-05
6.08345e-05
6.88048e-05
7.55512e-05
8.09886e-05
8.51556e-05
8.82598e-05
9.06549e-05
9.2757e-05
9.49967e-05
9.77807e-05
0.000101412
0.000106033
0.00011164
0.000118132
0.000125603
0.00013407
0.000142873
0.000151052
0.000157654
0.00016148
0.000160775
0.000154504
0.000143432
0.000130556
0.000119475
0.000111439
0.000103605
9.14385e-05
7.37028e-05
5.49516e-06
1.67609e-05
2.62751e-05
3.47117e-05
4.33096e-05
5.22223e-05
6.06399e-05
6.77405e-05
7.32422e-05
7.72341e-05
7.99452e-05
8.16977e-05
8.2913e-05
8.40463e-05
8.55264e-05
8.77455e-05
9.10098e-05
9.54871e-05
0.000101208
0.000108131
0.000116519
0.000126652
0.000137988
0.000149578
0.000160212
0.000167899
0.000170509
0.000166589
0.000156312
0.000142363
0.000128859
0.000118403
0.000108845
9.51416e-05
7.49429e-05
5.40953e-06
1.66729e-05
2.62755e-05
3.48964e-05
4.35184e-05
5.2042e-05
5.96403e-05
6.55179e-05
6.94724e-05
7.17253e-05
7.27057e-05
7.28955e-05
7.27966e-05
7.28874e-05
7.35468e-05
7.51031e-05
7.78441e-05
8.19486e-05
8.74912e-05
9.45927e-05
0.000103776
0.000115642
0.000130011
0.000146144
0.000162233
0.000175517
0.000183291
0.000183338
0.000174665
0.000158972
0.000141151
0.000126363
0.00011432
9.93672e-05
7.69649e-05
5.12748e-06
1.63558e-05
2.59851e-05
3.45745e-05
4.2806e-05
5.05071e-05
5.69941e-05
6.15904e-05
6.41593e-05
6.49758e-05
6.45912e-05
6.36474e-05
6.27257e-05
6.22941e-05
6.26455e-05
6.40108e-05
6.66172e-05
7.06066e-05
7.60692e-05
8.3336e-05
9.32103e-05
0.000106401
0.000123107
0.000142741
0.000162997
0.000180866
0.000193485
0.000198432
0.00019399
0.000180297
0.000160994
0.000142529
0.000126402
0.00010707
7.89041e-05
4.41051e-06
1.52282e-05
2.46481e-05
3.28694e-05
4.0293e-05
4.67416e-05
5.16886e-05
5.46837e-05
5.56857e-05
5.50548e-05
5.34852e-05
5.17966e-05
5.0611e-05
5.02357e-05
5.07497e-05
5.22557e-05
5.49163e-05
5.88897e-05
6.43746e-05
7.19741e-05
8.2741e-05
9.76395e-05
0.000117259
0.000140595
0.000164607
0.000185763
0.000201108
0.000208495
0.000206472
0.000194726
0.000175631
0.000155164
0.000135977
0.000113657
8.26847e-05
3.18185e-06
1.18091e-05
1.94763e-05
2.60615e-05
3.17286e-05
3.64028e-05
3.9743e-05
4.15446e-05
4.19955e-05
4.16296e-05
4.11228e-05
4.09792e-05
4.14101e-05
4.24153e-05
4.39382e-05
4.60174e-05
4.87988e-05
5.25829e-05
5.78511e-05
6.53331e-05
7.62983e-05
9.25604e-05
0.000115385
0.000143252
0.00017176
0.000196356
0.000214094
0.000223223
0.000222548
0.00021183
0.000193226
0.00017243
0.000151491
0.000125376
8.8519e-05
2.41907e-06
9.9097e-06
1.62664e-05
2.13607e-05
2.54545e-05
2.86876e-05
3.1042e-05
3.26023e-05
3.36315e-05
3.44784e-05
3.54407e-05
3.66609e-05
3.81504e-05
3.99234e-05
4.2018e-05
4.45294e-05
4.76606e-05
5.16411e-05
5.67731e-05
6.37049e-05
7.38317e-05
8.96354e-05
0.000113717
0.000145901
0.000180594
0.00020948
0.000227312
0.000233053
0.000227601
0.000212812
0.0001922
0.000170874
0.000148733
0.000120573
8.45154e-05
1.85233e-06
8.85236e-06
1.45548e-05
1.89147e-05
2.22463e-05
2.47528e-05
2.65969e-05
2.80141e-05
2.92712e-05
3.05924e-05
3.21082e-05
3.39284e-05
3.62039e-05
3.90006e-05
4.23936e-05
4.65242e-05
5.14189e-05
5.70406e-05
6.32023e-05
6.98191e-05
7.73049e-05
8.71543e-05
0.000102353
0.000126402
0.000159237
0.000194481
0.00022274
0.000237631
0.000237749
0.000225158
0.000204212
0.000180645
0.000155497
0.000126152
9.37456e-05
1.20229e-06
7.36624e-06
1.23881e-05
1.62489e-05
1.91606e-05
2.13584e-05
2.30758e-05
2.46014e-05
2.62633e-05
2.83291e-05
3.10736e-05
3.47886e-05
3.97188e-05
4.61727e-05
5.40783e-05
6.27601e-05
7.13127e-05
7.91262e-05
8.62481e-05
9.32427e-05
0.000100776
0.000109624
0.000120929
0.00013613
0.000156222
0.000180165
0.000203947
0.0002216
0.000228108
0.000221909
0.000205998
0.000185863
0.000163463
0.000136394
0.000106301
1.25317e-06
7.49817e-06
1.25047e-05
1.62178e-05
1.87461e-05
2.04248e-05
2.19548e-05
2.41622e-05
2.75003e-05
3.20447e-05
3.77846e-05
4.46924e-05
5.27187e-05
6.13934e-05
7.01025e-05
7.8272e-05
8.53941e-05
9.13718e-05
9.64571e-05
0.000101179
0.000106414
0.000113795
0.000126106
0.000145955
0.000172685
0.000200594
0.000222518
0.000234398
0.0002352
0.000225612
0.000207743
0.000184982
0.000158968
0.000130293
0.000102916
2.3323e-06
8.36551e-06
1.28669e-05
1.56303e-05
1.74268e-05
1.97473e-05
2.36713e-05
2.88954e-05
3.41582e-05
3.86412e-05
4.25164e-05
4.64226e-05
5.10703e-05
5.71816e-05
6.53853e-05
7.59977e-05
8.87681e-05
0.000102673
0.000115736
0.000125942
0.000132502
0.000135582
0.00013691
0.000141311
0.000154884
0.000178655
0.000205249
0.000224835
0.000232379
0.00022756
0.000212584
0.000190751
0.000163569
0.000132972
0.000105009
3.39229e-06
9.6012e-06
1.45795e-05
1.83912e-05
2.1863e-05
2.60786e-05
3.14622e-05
3.69452e-05
4.11729e-05
4.34714e-05
4.38077e-05
4.23252e-05
3.92179e-05
3.51791e-05
3.16973e-05
3.08592e-05
3.48991e-05
4.5535e-05
6.32976e-05
8.72485e-05
0.000114618
0.000141062
0.000162303
0.000176551
0.000186032
0.00019585
0.000208765
0.000221257
0.00022735
0.000223605
0.000210472
0.000189735
0.000162355
0.000130865
0.000100982
2.34641e-06
7.37842e-06
1.142e-05
1.46851e-05
1.78123e-05
2.14628e-05
2.60888e-05
3.15276e-05
3.73372e-05
4.29961e-05
4.81572e-05
5.29008e-05
5.74951e-05
6.18974e-05
6.55446e-05
6.76499e-05
6.75953e-05
6.53907e-05
6.20796e-05
6.0036e-05
6.28074e-05
7.40502e-05
9.51007e-05
0.000122916
0.000151262
0.000175381
0.0001946
0.000209537
0.000218937
0.000219641
0.000211173
0.000194437
0.000169015
0.000137116
0.000109729
1.45971e-06
8.04227e-06
1.44255e-05
2.13904e-05
2.9065e-05
3.70852e-05
4.48665e-05
5.18578e-05
5.7604e-05
6.18054e-05
6.47241e-05
6.68672e-05
6.85513e-05
6.98807e-05
7.08606e-05
7.14804e-05
7.17758e-05
7.18785e-05
7.1987e-05
7.20481e-05
7.23576e-05
7.48254e-05
8.28441e-05
9.93677e-05
0.000123561
0.000150239
0.000174003
0.000192714
0.000206116
0.000212028
0.000208967
0.000197379
0.00017643
0.000147772
0.000126487
1.93355e-06
1.45036e-05
2.6408e-05
3.77101e-05
4.75038e-05
5.50419e-05
6.00056e-05
6.27791e-05
6.42232e-05
6.50646e-05
6.59462e-05
6.75313e-05
7.02858e-05
7.41477e-05
7.84924e-05
8.25541e-05
8.58315e-05
8.81547e-05
8.93568e-05
8.92359e-05
8.80291e-05
8.69796e-05
8.8814e-05
9.75202e-05
0.000115778
0.000141068
0.000166202
0.00018565
0.000199005
0.000205862
0.000205038
0.000196507
0.000179207
0.000153447
0.000132324
1.88361e-06
1.17821e-05
2.07401e-05
2.932e-05
3.7431e-05
4.50284e-05
5.17551e-05
5.7076e-05
6.07846e-05
6.32509e-05
6.48498e-05
6.59238e-05
6.70925e-05
6.92647e-05
7.31666e-05
7.88034e-05
8.53693e-05
9.17317e-05
9.70324e-05
0.000100401
0.00010125
9.965e-05
9.70294e-05
9.7232e-05
0.000106069
0.000126962
0.000155102
0.000179778
0.000194928
0.000200656
0.00019891
0.000191134
0.000176307
0.000152683
0.000129763
1.17679e-06
8.19313e-06
1.52479e-05
2.28948e-05
3.08554e-05
3.8487e-05
4.51034e-05
5.03253e-05
5.43153e-05
5.74866e-05
6.01014e-05
6.23649e-05
6.44708e-05
6.67359e-05
6.9952e-05
7.51481e-05
8.28685e-05
9.25174e-05
0.000102199
0.000109991
0.000114865
0.000116145
0.000113533
0.000108451
0.000105961
0.00011411
0.00013725
0.000168309
0.000193481
0.000204358
0.00020292
0.000193961
0.000177726
0.000151914
0.000125096
1.20323e-06
1.09296e-05
2.05462e-05
3.00206e-05
3.84678e-05
4.50673e-05
4.95516e-05
5.22985e-05
5.40188e-05
5.53996e-05
5.68659e-05
5.86835e-05
6.10537e-05
6.40287e-05
6.77655e-05
7.28044e-05
8.00039e-05
8.99486e-05
0.000101753
0.000113111
0.000122299
0.000128209
0.000129835
0.000126418
0.000119101
0.000113451
0.000118801
0.000140262
0.000170308
0.000192751
0.000199401
0.000193832
0.000178191
0.000151052
0.000121956
1.04812e-06
9.51032e-06
1.73587e-05
2.44174e-05
3.01114e-05
3.41156e-05
3.65957e-05
3.81729e-05
3.96194e-05
4.14927e-05
4.40459e-05
4.74503e-05
5.18747e-05
5.73027e-05
6.36997e-05
7.12691e-05
8.05273e-05
9.22458e-05
0.000105983
0.00011974
0.00013191
0.000141444
0.000147409
0.000148599
0.000143881
0.000134051
0.000124568
0.000125022
0.000141143
0.000165442
0.000182156
0.000185316
0.000175674
0.000151585
0.000123125
8.86558e-07
8.62102e-06
1.57025e-05
2.17686e-05
2.6112e-05
2.83056e-05
2.86358e-05
2.81495e-05
2.82136e-05
2.97367e-05
3.27153e-05
3.68477e-05
4.21508e-05
4.8712e-05
5.66019e-05
6.5952e-05
7.69875e-05
9.02098e-05
0.000105965
0.000122302
0.00013753
0.00015058
0.000160711
0.00016706
0.000168292
0.000162977
0.000151345
0.000138091
0.000132282
0.00013991
0.00015406
0.000163275
0.000162805
0.000148553
0.000126579
9.4716e-07
9.00996e-06
1.58923e-05
2.10666e-05
2.37275e-05
2.36704e-05
2.1799e-05
1.99752e-05
2.01479e-05
2.31242e-05
2.80589e-05
3.36654e-05
3.96912e-05
4.66407e-05
5.52401e-05
6.61259e-05
7.94665e-05
9.5073e-05
0.00011282
0.000130789
0.000147383
0.000161901
0.000173974
0.000183148
0.000188446
0.000188359
0.000181356
0.00016786
0.00015311
0.00014629
0.000150639
0.000158213
0.000160494
0.000149019
0.000124758
7.20047e-07
7.12344e-06
1.21495e-05
1.55879e-05
1.71615e-05
1.69163e-05
1.58158e-05
1.56914e-05
1.82943e-05
2.38866e-05
3.08205e-05
3.69164e-05
4.15275e-05
4.55382e-05
5.07927e-05
5.95266e-05
7.32626e-05
9.19098e-05
0.000113812
0.000136519
0.00015658
0.00017304
0.000186151
0.000195887
0.000201641
0.000202162
0.000196016
0.000182909
0.000166417
0.00015471
0.000153083
0.000156475
0.000155579
0.000139624
0.000109124
8.89061e-07
6.02861e-06
1.04632e-05
1.41164e-05
1.71983e-05
2.01713e-05
2.37447e-05
2.85797e-05
3.48802e-05
4.22222e-05
4.95624e-05
5.5327e-05
5.79069e-05
5.66631e-05
5.23316e-05
4.76976e-05
4.72459e-05
5.5289e-05
7.4362e-05
0.000103236
0.000135826
0.000163732
0.000183636
0.000196709
0.000204504
0.000207286
0.000204509
0.000195935
0.000183576
0.000172729
0.000167195
0.000164062
0.00015547
0.000131323
9.55752e-05
1.47148e-06
7.66201e-06
1.40629e-05
2.12729e-05
2.99983e-05
4.05062e-05
5.24785e-05
6.51011e-05
7.71677e-05
8.73613e-05
9.46851e-05
9.89116e-05
0.000100322
9.91101e-05
9.50135e-05
8.70371e-05
7.39108e-05
5.63826e-05
4.14154e-05
4.16184e-05
6.4781e-05
0.000106445
0.0001507
0.000183706
0.000202112
0.00020841
0.000205764
0.000197013
0.000185374
0.000174843
0.000167398
0.000160328
0.000147108
0.000120622
9.0274e-05
2.14631e-06
1.26623e-05
2.5462e-05
4.13147e-05
5.91675e-05
7.70671e-05
9.31893e-05
0.000106151
0.000115071
0.000119813
0.000120993
0.000119453
0.000115796
0.00011051
0.000104328
9.82131e-05
9.26807e-05
8.65811e-05
7.70597e-05
6.38162e-05
5.46837e-05
6.29924e-05
9.3303e-05
0.000134793
0.000172204
0.000196916
0.000207681
0.000206775
0.000197928
0.000185962
0.000174259
0.000162475
0.00014596
0.000120843
0.000100908
2.60181e-06
2.18642e-05
4.33479e-05
6.55851e-05
8.50944e-05
9.99176e-05
0.000109877
0.00011545
0.000117324
0.00011638
0.000113337
0.000108399
0.000101412
9.25232e-05
8.27661e-05
7.37421e-05
6.67961e-05
6.232e-05
5.95836e-05
5.75751e-05
5.73297e-05
6.3501e-05
8.26745e-05
0.000114795
0.000150518
0.000179614
0.000197034
0.000202334
0.000197839
0.000187584
0.000175121
0.000161842
0.000145044
0.000123787
0.000112697
2.95808e-06
3.12655e-05
5.64678e-05
7.52782e-05
8.69589e-05
9.46489e-05
0.000101167
0.000107002
0.000111333
0.000113376
0.00011282
0.000109494
0.000102995
9.31405e-05
8.10948e-05
6.91541e-05
5.96664e-05
5.37431e-05
5.11966e-05
5.21863e-05
5.76165e-05
6.93885e-05
9.05685e-05
0.000121373
0.000155788
0.000185032
0.000203423
0.0002097
0.000205417
0.000193266
0.00017701
0.000159784
0.000141575
0.000124112
0.000117295
2.37153e-06
2.42337e-05
4.13727e-05
5.33928e-05
6.2627e-05
7.21828e-05
8.2949e-05
9.36585e-05
0.000102605
0.000108844
0.000112121
0.000112127
0.00010834
9.97414e-05
8.64596e-05
7.08595e-05
5.74682e-05
5.00921e-05
4.87435e-05
5.17266e-05
5.89576e-05
7.18222e-05
9.20261e-05
0.000119331
0.000150354
0.000179022
0.00019974
0.000210079
0.00020968
0.0002001
0.000184689
0.000167088
0.000148656
0.000131165
0.000120435
1.54608e-06