/*--------------------------------*- C++ -*----------------------------------*\
| =========                 |                                                 |
| \\      /  F ield         | OpenFOAM: The Open Source CFD Toolbox           |
|  \\    /   O peration     | Version:  v2006                                 |
|   \\  /    A nd           | Website:  www.openfoam.com                      |
|    \\/     M anipulation  |                                                 |
\*---------------------------------------------------------------------------*/
FoamFile
{
    version     2.0;
    format      ascii;
    class       volScalarField;
    location    "21";
    object      omega;
}
// * * * * * * * * * * * * * * * * * * * * * * * * * * * * * * * * * * * * * //

dimensions      [0 0 -1 0 0 0 0];


internalField   nonuniform List<scalar> 
78750
(
359.388
14.7438
14.9432
14.8881
14.8207
14.7513
14.6874
14.6291
14.575
14.5246
14.4779
14.4345
14.3944
14.3573
14.3234
14.2928
14.2659
14.2427
14.2235
14.2082
14.1964
14.1874
14.1802
14.1737
14.1664
14.1568
14.1442
14.1267
14.1036
14.0727
14.0331
13.9832
13.9186
13.8389
357.7
524.629
5.81586
6.26441
6.3263
6.24616
6.12682
6.01643
5.92569
5.85073
5.78817
5.73615
5.69241
5.65443
5.62045
5.58978
5.5623
5.53731
5.51457
5.49279
5.47023
5.44584
5.41934
5.39068
5.3599
5.32648
5.28907
5.24638
5.19719
5.14119
5.07361
4.98401
4.86493
4.7149
4.52633
525.213
524.768
5.08072
5.25974
5.24801
5.15916
5.07525
5.0199
4.98833
4.97209
4.96352
4.95917
4.9567
4.95588
4.95644
4.95816
4.96078
4.96398
4.96734
4.97036
4.97259
4.97353
4.97253
4.96895
4.96222
4.95183
4.93765
4.91986
4.89885
4.87441
4.84458
4.80454
4.74544
4.65949
4.52634
525.808
524.693
4.89152
5.06959
5.14642
5.16806
5.16366
5.15201
5.13971
5.12752
5.11466
5.10186
5.08948
5.0786
5.07091
5.06744
5.06841
5.07318
5.08033
5.08792
5.0939
5.09658
5.09457
5.08668
5.07153
5.04756
5.01358
4.96948
4.91728
4.8624
4.81165
4.76663
4.71853
4.6498
4.53241
526.072
524.675
4.79405
4.95951
5.05296
5.10694
5.12475
5.11438
5.08434
5.04201
4.99321
4.94301
4.89612
4.85776
4.83406
4.83004
4.84648
4.87791
4.91562
4.95144
4.97959
4.99969
5.01208
5.01527
5.00775
4.98698
4.94873
4.89168
4.81813
4.7367
4.66296
4.61079
4.57938
4.5444
4.47178
526.919
524.602
4.73288
4.90035
4.99654
5.05874
5.08663
5.08362
5.05775
5.01793
4.9718
4.9255
4.88412
4.85296
4.83905
4.84829
4.87874
4.92344
4.97338
5.01987
5.05676
5.08465
5.10467
5.11601
5.11788
5.10901
5.08602
5.04491
4.98199
4.89596
4.79454
4.69616
4.61664
4.5491
4.46114
527.253
524.558
4.65996
4.82975
4.9266
4.99048
5.02741
5.03708
5.02185
4.98559
4.93293
4.87183
4.81728
4.78688
4.79098
4.82665
4.8807
4.93937
4.99272
5.03485
5.06443
5.08401
5.09529
5.09857
5.09385
5.0797
5.05434
5.01654
4.96529
4.90078
4.82704
4.75038
4.67631
4.59922
4.49626
527.203
524.519
4.6104
4.77878
4.87297
4.93261
4.96321
4.95981
4.9207
4.8551
4.7875
4.74691
4.74978
4.79403
4.86352
4.93943
5.00852
5.06423
5.10475
5.13162
5.1487
5.15835
5.16125
5.15786
5.1478
5.12939
5.10139
5.06272
5.01287
4.95278
4.88639
4.81761
4.7466
4.66405
4.54628
527.013
524.501
4.57075
4.73013
4.80592
4.83443
4.82219
4.77072
4.70354
4.65976
4.66495
4.71857
4.80208
4.89152
4.97056
5.03292
5.07881
5.11082
5.13202
5.14527
5.15235
5.15372
5.14944
5.13916
5.12144
5.09404
5.05609
5.0083
4.9534
4.89706
4.8448
4.79619
4.74481
4.67738
4.56895
527.114
524.502
4.53674
4.66584
4.70832
4.69844
4.65631
4.61904
4.62527
4.68488
4.7803
4.88459
4.97597
5.04708
5.0997
5.13791
5.16537
5.1844
5.19643
5.20261
5.20327
5.19811
5.18672
5.16763
5.13806
5.09616
5.04264
4.98135
4.91952
4.86563
4.81991
4.77682
4.72812
4.66666
4.56895
527.348
524.505
4.49462
4.59248
4.61307
4.5924
4.57321
4.59798
4.67141
4.76968
4.86924
4.95371
5.02001
5.07082
5.11037
5.14109
5.16428
5.18069
5.19106
5.19574
5.19436
5.18618
5.16998
5.14295
5.10125
5.04334
4.97272
4.8997
4.84073
4.80128
4.77278
4.74253
4.70016
4.64389
4.5548
527.703
524.506
4.46473
4.54625
4.56883
4.57279
4.60321
4.67559
4.77007
4.86573
4.95053
5.01954
5.0752
5.12028
5.15665
5.18531
5.20697
5.22228
5.23191
5.2359
5.23357
5.22388
5.2049
5.17278
5.12318
5.05391
4.96896
4.88152
4.81389
4.77219
4.74555
4.71833
4.67881
4.62507
4.54083
528.039
524.508
4.45709
4.53749
4.57514
4.60877
4.66619
4.74319
4.82105
4.8921
4.95494
5.01017
5.05962
5.10345
5.14109
5.17194
5.19609
5.21403
5.22647
5.23328
5.23342
5.22543
5.20671
5.17247
5.11741
5.03836
4.93966
4.83843
4.76581
4.7275
4.70965
4.69093
4.65747
4.6069
4.52624
528.393
524.5
4.45618
4.54677
4.6003
4.65055
4.70965
4.76956
4.82136
4.86801
4.91751
4.97114
5.02734
5.08132
5.12863
5.16713
5.19716
5.22022
5.23787
5.2504
5.25702
5.25633
5.24581
5.22086
5.17491
5.1009
4.99651
4.87272
4.76268
4.69575
4.66862
4.65628
4.63331
4.59036
4.51613
528.704
524.471
4.43669
4.54368
4.60806
4.66023
4.70921
4.74788
4.77432
4.79753
4.83485
4.89271
4.96289
5.0326
5.09229
5.13872
5.17335
5.19949
5.21993
5.23584
5.24723
5.25325
5.25181
5.23903
5.2089
5.15358
5.06545
4.94363
4.80811
4.70037
4.63915
4.61604
4.60009
4.56806
4.50605
528.975
524.44
4.40714
4.52495
4.59506
4.64636
4.68824
4.71454
4.72755
4.74188
4.77968
4.85151
4.93852
5.02016
5.08526
5.13271
5.16637
5.19096
5.21041
5.22686
5.24094
5.25215
5.25885
5.25775
5.24356
5.20903
5.14526
5.04446
4.90922
4.77231
4.66496
4.60516
4.57738
4.55
4.50099
529.215
524.425
4.38663
4.50537
4.57554
4.62127
4.65137
4.6654
4.67481
4.70218
4.76568
4.86058
4.95661
5.03456
5.08987
5.12673
5.15138
5.16918
5.18404
5.1983
5.21274
5.22687
5.23917
5.24667
5.24458
5.22645
5.18397
5.10804
4.99459
4.85967
4.72963
4.63413
4.58126
4.54795
4.50534
529.476
524.423
4.37657
4.48898
4.55237
4.58952
4.61186
4.62929
4.66204
4.72642
4.821
4.92145
5.00364
5.0609
5.09695
5.11881
5.13283
5.14371
5.15466
5.16757
5.18301
5.20029
5.21779
5.2327
5.24046
5.23503
5.20845
5.15167
5.05873
4.93799
4.80588
4.69029
4.61315
4.56668
4.52012
529.762
524.428
4.36959
4.47328
4.52977
4.56309
4.59002
4.62718
4.68946
4.77592
4.87329
4.95763
5.01772
5.05514
5.07597
5.08694
5.09359
5.09992
5.1086
5.12113
5.13796
5.15841
5.18101
5.2031
5.22038
5.22709
5.21553
5.17679
5.10429
5.00171
4.8771
4.75393
4.65952
4.59891
4.54142
529.985
524.43
4.36186
4.45903
4.51436
4.55304
4.59588
4.65693
4.73837
4.82843
4.91388
4.97807
5.01826
5.03928
5.04762
5.04955
5.05007
5.0527
5.05963
5.07204
5.09017
5.11341
5.14053
5.16911
5.19506
5.213
5.21558
5.19433
5.14294
5.06029
4.94824
4.8237
4.71534
4.63899
4.56502
530.076
524.429
4.35485
4.45006
4.50921
4.55832
4.61792
4.69328
4.77696
4.85594
4.92187
4.96645
4.99034
4.99888
4.99814
4.99369
4.99
4.9901
4.99577
5.00799
5.027
5.05251
5.08373
5.11855
5.1531
5.18225
5.19889
5.19514
5.16502
5.10302
5.00651
4.88753
4.77189
4.68273
4.59188
530.096
524.425
4.35074
4.44869
4.51487
4.57554
4.64773
4.72785
4.80476
4.86872
4.9164
4.94485
4.95604
4.95498
4.94705
4.93701
4.92888
4.92542
4.92826
4.93845
4.9566
4.98299
5.01756
5.05873
5.1029
5.1447
5.17693
5.19191
5.18268
5.13976
5.05752
4.94383
4.82249
4.72169
4.6154
530.086
524.419
4.35022
4.45518
4.52839
4.59632
4.67263
4.74773
4.81102
4.8569
4.88646
4.90122
4.90298
4.89544
4.88246
4.86774
4.85478
4.84638
4.84434
4.85006
4.8648
4.88975
4.92615
4.97329
5.02787
5.08398
5.13409
5.17054
5.18403
5.16211
5.09709
4.9935
4.87269
4.76405
4.64442
530.154
524.41
4.34841
4.46007
4.53866
4.6089
4.68178
4.74784
4.79847
4.83128
4.8495
4.85674
4.85398
4.84306
4.82606
4.8058
4.78558
4.76881
4.75827
4.75592
4.7639
4.78448
4.82079
4.87352
4.93965
5.01212
5.0823
5.14131
5.17642
5.17336
5.12291
5.02734
4.9069
4.79216
4.66422
530.256
524.404
4.34556
4.46153
4.54314
4.6124
4.67888
4.73574
4.77641
4.80013
4.81039
4.81127
4.80333
4.78705
4.76346
4.73495
4.70488
4.67723
4.65617
4.64443
4.64424
4.65858
4.69311
4.75112
4.83005
4.92181
5.01656
5.10263
5.16297
5.18237
5.15091
5.06902
4.95508
4.83781
4.70171
530.432
524.401
4.34194
4.4583
4.54016
4.60742
4.66911
4.72063
4.75639
4.77564
4.78102
4.77579
4.76082
4.73655
4.7044
4.66719
4.62868
4.59322
4.56524
4.5477
4.54146
4.54926
4.57926
4.63856
4.72691
4.83556
4.95277
5.06153
5.14127
5.17586
5.15496
5.07921
4.96836
4.85105
4.7157
530.601
524.404
4.34295
4.45924
4.54157
4.60858
4.66887
4.71792
4.74932
4.76166
4.75733
4.7404
4.71391
4.67971
4.64049
4.60033
4.56388
4.53485
4.5144
4.50114
4.49336
4.4931
4.51067
4.56032
4.64983
4.77256
4.91305
5.0426
5.13902
5.18902
5.18313
5.11988
5.01697
4.89816
4.75298
530.895
524.408
4.34244
4.45931
4.54352
4.61108
4.67035
4.71677
4.7432
4.74865
4.73663
4.71247
4.68096
4.64543
4.60981
4.57954
4.56002
4.55307
4.55395
4.55391
4.54718
4.53281
4.51774
4.52326
4.57708
4.69143
4.85044
5.00522
5.11259
5.15886
5.14662
5.08447
4.99072
4.88121
4.74279
531.155
524.404
4.33208
4.44989
4.53614
4.60319
4.65955
4.70322
4.72897
4.73519
4.72412
4.69974
4.66664
4.62989
4.59603
4.57341
4.57006
4.58773
4.61722
4.64285
4.65426
4.64695
4.61661
4.56949
4.53466
4.55584
4.6661
4.84983
5.03333
5.1508
5.17739
5.12507
5.02787
4.90798
4.75584
531.493
524.389
4.30772
4.42217
4.50779
4.57404
4.62724
4.66766
4.69376
4.70279
4.69408
4.66854
4.62951
4.5855
4.55044
4.53789
4.55643
4.60223
4.65867
4.70652
4.73691
4.74999
4.74538
4.72245
4.68394
4.63834
4.61315
4.65598
4.77733
4.92606
5.03285
5.05998
5.01495
4.92462
4.79419
531.671
524.382
4.2955
4.40653
4.48896
4.55105
4.59822
4.63071
4.64727
4.64398
4.61879
4.57474
4.52387
4.48943
4.48848
4.52976
4.60555
4.69213
4.7635
4.80627
4.82125
4.81141
4.7787
4.73646
4.71073
4.71324
4.7355
4.77416
4.83663
4.92332
5.00135
5.03047
5.0009
4.931
4.82816
531.878
524.378
4.28958
4.39727
4.47358
4.52667
4.56208
4.58054
4.58111
4.56203
4.52609
4.48412
4.45796
4.46737
4.51829
4.60112
4.69325
4.77336
4.83118
4.86477
4.87399
4.85638
4.80758
4.73451
4.67488
4.67622
4.74482
4.83517
4.90741
4.96561
5.01104
5.02426
4.99529
4.93332
4.83394
532.196
524.366
4.2638
4.36115
4.42968
4.47625
4.5069
4.52342
4.52449
4.50745
4.47621
4.44604
4.44075
4.47371
4.54148
4.63002
4.72277
4.80719
4.8766
4.92904
4.96304
4.97261
4.94586
4.86726
4.74162
4.63341
4.63383
4.75334
4.89654
4.99318
5.0326
5.02628
4.98549
4.91606
4.80524
532.562
524.361
4.26019
4.35606
4.42003
4.45681
4.4696
4.45877
4.42753
4.39521
4.38994
4.43204
4.51926
4.63426
4.75472
4.86109
4.94156
4.99533
5.02769
5.04364
5.04645
5.03747
5.01506
4.97118
4.89245
4.7738
4.66249
4.65434
4.76205
4.89986
4.98885
5.00834
4.97473
4.90448
4.7945
532.783
524.377
4.26952
4.34783
4.37985
4.37805
4.35706
4.34358
4.36831
4.44576
4.56655
4.70363
4.82911
4.92424
4.98462
5.01816
5.03538
5.04418
5.04875
5.05009
5.04682
5.03581
5.01245
4.97068
4.90455
4.81085
4.7038
4.63651
4.66344
4.77528
4.8935
4.9542
4.94934
4.89708
4.80589
532.842
524.399
4.27357
4.33552
4.36182
4.37256
4.39845
4.46562
4.57479
4.69778
4.80223
4.87438
4.91887
4.94746
4.97007
4.99217
5.01541
5.0393
5.06245
5.08309
5.09892
5.10649
5.10076
5.07457
5.02022
4.93257
4.81751
4.71144
4.66174
4.70384
4.80489
4.88892
4.91395
4.88626
4.81645
532.814
524.41
4.2795
4.33965
4.37469
4.40346
4.4469
4.51664
4.60704
4.69835
4.77927
4.84826
4.90611
4.95366
4.99238
5.02425
5.05131
5.07519
5.09678
5.11608
5.13218
5.14303
5.14524
5.13336
5.10033
5.03825
4.94413
4.83662
4.74539
4.7174
4.76678
4.84302
4.88504
4.87813
4.82582
532.682
524.399
4.27791
4.34536
4.38918
4.42547
4.46892
4.53434
4.62516
4.72143
4.80643
4.87266
4.92078
4.9555
4.98205
5.0046
5.02588
5.04726
5.06894
5.09013
5.10938
5.12424
5.13142
5.12647
5.10475
5.06188
4.99723
4.91928
4.83739
4.78294
4.78601
4.83147
4.86754
4.86625
4.81865
532.553
524.383
4.26008
4.32894
4.37314
4.40742
4.44599
4.50431
4.58842
4.68226
4.76705
4.83489
4.88638
4.92587
4.95807
4.98673
5.01436
5.04233
5.07074
5.09876
5.12515
5.14736
5.16178
5.16342
5.14723
5.1092
5.05075
4.98214
4.90935
4.85118
4.83158
4.84986
4.87061
4.86351
4.81066
532.474
524.374
4.24251
4.31028
4.35931
4.4059
4.46424
4.54207
4.63569
4.72487
4.79589
4.84691
4.88244
4.90855
4.93032
4.95128
4.97393
4.9996
5.02809
5.05821
5.08902
5.11907
5.14522
5.16265
5.16586
5.14939
5.11136
5.05443
4.98306
4.91513
4.87559
4.86952
4.87303
4.85737
4.80091
532.436
524.372
4.23681
4.30757
4.36463
4.42346
4.49218
4.56717
4.64078
4.70446
4.75427
4.79221
4.82245
4.84874
4.87373
4.89912
4.92652
4.95696
4.99001
5.02447
5.05923
5.09343
5.12506
5.15004
5.16402
5.16312
5.14593
5.10899
5.05075
4.98384
4.93194
4.90697
4.89419
4.86746
4.80222
532.425
524.371
4.23171
4.30313
4.36247
4.42287
4.48917
4.55605
4.6184
4.67353
4.71993
4.75765
4.78808
4.81323
4.83542
4.85729
4.88148
4.9098
4.94279
4.97995
5.02025
5.063
5.10642
5.1458
5.17568
5.19118
5.18956
5.16471
5.11264
5.04167
4.9737
4.92826
4.90122
4.86779
4.80032
532.384
524.37
4.22881
4.30043
4.36184
4.42422
4.4903
4.55435
4.61115
4.65875
4.69683
4.72587
4.74744
4.76406
4.77862
4.79408
4.81321
4.83802
4.86938
4.90714
4.95055
5.00013
5.05586
5.11342
5.16673
5.21001
5.23599
5.23392
5.19707
5.12934
5.049
4.97963
4.93051
4.88359
4.80892
532.382
524.372
4.22877
4.30094
4.36403
4.42761
4.49272
4.55342
4.60401
4.64285
4.67086
4.68981
4.70207
4.7106
4.71858
4.72899
4.74451
4.7672
4.79807
4.83716
4.88406
4.94035
5.00761
5.08205
5.15749
5.22634
5.27647
5.29518
5.27362
5.21215
5.12634
5.0422
4.97747
4.91921
4.83426
532.197
524.372
4.22827
4.30122
4.36576
4.42954
4.49181
4.54658
4.58844
4.61632
4.63206
4.63886
4.64015
4.63951
4.64029
4.64514
4.65636
4.67587
4.7048
4.74346
4.79248
4.85516
4.93506
5.03038
5.13578
5.2394
5.32431
5.37476
5.3781
5.32806
5.23338
5.12299
5.03042
4.95564
4.86244
531.97
524.37
4.22599
4.29928
4.36366
4.42461
4.48092
4.52773
4.56048
4.57852
4.58403
4.58108
4.57429
4.56781
4.56497
4.56781
4.57794
4.59691
4.62557
4.66434
4.71532
4.78371
4.87363
4.98548
5.11429
5.24446
5.35741
5.43688
5.46977
5.44652
5.36694
5.25081
5.13708
5.03682
4.9155
532.018
524.365
4.2173
4.2892
4.351
4.4061
4.45338
4.4892
4.51053
4.51731
4.51232
4.50072
4.48849
4.48011
4.47778
4.48198
4.49343
4.51321
4.54233
4.58203
4.63635
4.71214
4.81513
4.94785
5.10175
5.25595
5.38871
5.48375
5.53029
5.52109
5.45405
5.34137
5.21752
5.09942
4.96007
531.98
524.356
4.19082
4.24975
4.29966
4.34214
4.37681
4.40126
4.41417
4.41712
4.41421
4.41051
4.40972
4.41331
4.4212
4.43289
4.44862
4.46941
4.49739
4.53591
4.58995
4.66796
4.78147
4.93679
5.12059
5.30251
5.45495
5.56264
5.61792
5.61556
5.55443
5.44596
5.3225
5.19613
5.0356
532.207
524.351
4.17626
4.22543
4.26428
4.29515
4.31928
4.33665
4.34804
4.35555
4.36186
4.36922
4.37865
4.39017
4.40382
4.41984
4.43886
4.46228
4.49169
4.52912
4.57905
4.65097
4.7612
4.92489
5.13641
5.35617
5.53346
5.64089
5.67623
5.6464
5.56175
5.44125
5.31409
5.17992
5.00642
532.868
524.348
4.16792
4.21217
4.24553
4.27073
4.28948
4.30315
4.31364
4.32305
4.33313
4.34485
4.35903
4.37674
4.39835
4.42431
4.4555
4.49193
4.53316
4.57766
4.62476
4.67723
4.74521
4.84843
5.00823
5.21994
5.43962
5.61119
5.7014
5.70554
5.6359
5.51595
5.37755
5.22665
5.04757
533.2
524.343
4.15605
4.19504
4.2246
4.24659
4.26299
4.2757
4.28703
4.29964
4.31565
4.33715
4.3662
4.40439
4.45365
4.51283
4.57648
4.63793
4.69308
4.74262
4.79072
4.84201
4.90157
4.9767
5.07615
5.20497
5.35473
5.49994
5.60627
5.64675
5.61368
5.52363
5.40692
5.27485
5.11269
533.583
524.344
4.15671
4.19526
4.22329
4.24182
4.25357
4.26415
4.28026
4.30567
4.34084
4.38528
4.43832
4.4991
4.56372
4.6274
4.68603
4.73624
4.77779
4.81265
4.84462
4.87977
4.92896
5.01019
5.13913
5.30899
5.48193
5.61465
5.68582
5.69236
5.63904
5.53706
5.40414
5.24897
5.07545
534.431
524.354
4.16297
4.19684
4.21643
4.22796
4.24341
4.27174
4.31095
4.35123
4.38595
4.41619
4.44669
4.48268
4.5292
4.59035
4.66768
4.75863
4.85546
4.9446
5.01306
5.05643
5.07635
5.08405
5.11055
5.19521
5.34349
5.50729
5.62688
5.67475
5.65063
5.56697
5.44108
5.28012
5.09493
534.593
524.363
4.17278
4.21035
4.23828
4.26324
4.29392
4.33371
4.37441
4.40564
4.42237
4.42447
4.41303
4.38943
4.35874
4.33219
4.32583
4.3568
4.43724
4.5685
4.73994
4.92904
5.10585
5.24414
5.33491
5.39341
5.45207
5.52943
5.60568
5.64545
5.62822
5.55593
5.43719
5.27542
5.08406
534.697
524.356
4.15599
4.18691
4.21145
4.23468
4.26182
4.2963
4.33673
4.37962
4.42111
4.4587
4.49305
4.52617
4.55776
4.58391
4.5991
4.59903
4.58368
4.56021
4.54544
4.56495
4.64462
4.79157
4.98069
5.16765
5.32185
5.44154
5.5338
5.59375
5.60341
5.55932
5.46562
5.31756
5.12531
534.696
524.349
4.16033
4.20909
4.26167
4.31898
4.37821
4.43503
4.48559
4.52681
4.55681
4.57766
4.59305
4.60529
4.61509
4.62244
4.62719
4.62959
4.63066
4.63189
4.63278
4.63522
4.65243
4.70807
4.82185
4.98559
5.16152
5.3138
5.43099
5.51503
5.55544
5.54344
5.48083
5.36116
5.19148
534.673
524.354
4.20924
4.29906
4.38282
4.45433
4.50879
4.54444
4.56438
4.57486
4.58114
4.58786
4.59983
4.62028
4.64854
4.67995
4.70902
4.73232
4.74876
4.75729
4.75655
4.74806
4.74012
4.75137
4.80944
4.93227
5.10072
5.26488
5.38889
5.47234
5.51668
5.51656
5.47151
5.37427
5.22415
534.643
524.354
4.18857
4.25664
4.32112
4.38152
4.43757
4.48667
4.52508
4.55159
4.56907
4.58032
4.58791
4.59642
4.61247
4.64113
4.68209
4.72926
4.77453
4.812
4.83581
4.84216
4.83135
4.81245
4.8111
4.86739
5.00498
5.19036
5.35171
5.45017
5.48852
5.48153
5.43914
5.35524
5.21743
534.552
524.35
4.16071
4.21438
4.27216
4.33187
4.38868
4.43761
4.47603
4.50529
4.52845
4.54745
4.5638
4.57893
4.59525
4.61858
4.65622
4.71165
4.78008
4.84779
4.90184
4.93582
4.9456
4.92894
4.894
4.87319
4.92127
5.06937
5.27064
5.4351
5.50996
5.50771
5.45883
5.36574
5.213
534.471
524.351
4.18198
4.2552
4.32645
4.38929
4.43801
4.471
4.49124
4.50397
4.51417
4.52492
4.53814
4.5553
4.5768
4.6038
4.64014
4.69174
4.76222
4.84458
4.9228
4.98569
5.02657
5.03941
5.01897
4.97076
4.92867
4.95503
5.08776
5.2796
5.42759
5.47882
5.45414
5.36728
5.20748
534.256
524.35
4.17115
4.23112
4.28455
4.32742
4.35755
4.37636
4.38846
4.3995
4.41355
4.43249
4.45758
4.49003
4.52968
4.57618
4.63081
4.69694
4.77943
4.87431
4.9677
5.04931
5.11303
5.15374
5.1644
5.13748
5.07558
5.00999
5.00301
5.09779
5.25134
5.36314
5.39294
5.34528
5.20791
533.844
524.35
4.16413
4.21813
4.26396
4.29661
4.31312
4.31573
4.31221
4.31272
4.32409
4.34636
4.37734
4.41714
4.46622
4.5248
4.59341
4.67317
4.76694
4.87606
4.98656
5.08748
5.1727
5.23853
5.28062
5.2915
5.262
5.19113
5.10428
5.05887
5.1002
5.19055
5.25538
5.26288
5.18628
533.45
524.351
4.16738
4.21995
4.25907
4.27901
4.27833
4.26368
4.24894
4.24902
4.27044
4.30708
4.34929
4.3951
4.44809
4.51307
4.59384
4.69068
4.80128
4.92377
5.04444
5.1532
5.24641
5.32285
5.38067
5.41465
5.41615
5.37587
5.29387
5.1996
5.15188
5.17767
5.22854
5.24938
5.18645
533.35
524.35
4.15334
4.19192
4.21786
4.22925
4.22634
4.21623
4.21284
4.22997
4.27014
4.32118
4.36684
4.40239
4.43458
4.47682
4.54457
4.647
4.78094
4.93257
5.08422
5.21417
5.31833
5.39973
5.4593
5.4944
5.49806
5.46208
5.38396
5.28328
5.20978
5.19924
5.22197
5.22003
5.12593
533.695
524.353
4.14512
4.17927
4.20682
4.22932
4.25006
4.27427
4.30703
4.35025
4.40131
4.4529
4.49375
4.51236
4.50443
4.47571
4.44678
4.45045
4.51728
4.66139
4.86631
5.08464
5.26303
5.38648
5.46616
5.51307
5.52968
5.51339
5.46279
5.38912
5.32351
5.28974
5.27118
5.22038
5.07397
534.103
524.358
4.15746
4.20557
4.2583
4.32081
4.39503
4.47872
4.5662
4.64929
4.71925
4.76956
4.7988
4.80891
4.80106
4.77314
4.71789
4.62608
4.50293
4.40066
4.41478
4.59589
4.89231
5.18391
5.3895
5.50037
5.53759
5.52198
5.47011
5.40056
5.33672
5.29122
5.24844
5.16894
5.00734
534.502
524.364
4.19454
4.28948
4.40443
4.53106
4.65549
4.76581
4.85368
4.91417
4.94692
4.95613
4.94729
4.92431
4.89027
4.84979
4.80896
4.77085
4.72729
4.65882
4.5644
4.50197
4.56946
4.79033
5.07335
5.31465
5.46828
5.53454
5.53049
5.47861
5.40692
5.33588
5.26432
5.16445
5.01185
534.631
524.369
4.26374
4.42164
4.58049
4.71683
4.81921
4.8879
4.92667
4.94021
4.93443
4.91427
4.88115
4.83405
4.77381
4.70716
4.64477
4.59592
4.56348
4.54254
4.52647
4.5238
4.56924
4.70833
4.9324
5.17046
5.35734
5.46737
5.50237
5.47774
5.41719
5.34195
5.26133
5.1599
5.03291
534.798
524.372
4.33631
4.52094
4.65521
4.73774
4.79163
4.83614
4.87468
4.90227
4.91428
4.90906
4.88548
4.84064
4.77312
4.69036
4.60763
4.54117
4.49913
4.48067
4.48765
4.52684
4.6118
4.76211
4.97363
5.20096
5.38812
5.50448
5.54649
5.52478
5.45475
5.35777
5.253
5.14215
5.03863
534.764
524.369
4.28678
4.41623
4.50518
4.57279
4.64179
4.71783
4.79158
4.85152
4.89194
4.9118
4.90953
4.88163
4.82112
4.72856
4.61944
4.5249
4.47246
4.46289
4.48456
4.53694
4.62971
4.77277
4.95976
5.16434
5.34771
5.47845
5.54539
5.54801
5.49538
5.40606
5.30112
5.18993
5.08569
534.652
524.362
4.20464
4.27647
4.32379
4.35998
4.40612
4.47496
4.56001
4.64471
4.71736
4.77402
4.81292
4.82974
4.8146
4.75114
4.63302
4.49167
4.39722
4.39738
4.47223
4.58066
4.71981
4.90198
5.10269
5.28598
5.43437
5.53931
5.59178
5.58838
5.53381
5.44043
5.32269
5.19316
5.07189
534.601
524.375
4.1575
4.20254
4.26065
4.33949
4.43389
4.52637
4.60191
4.65716
4.69764
4.73092
4.76138
4.78704
4.79876
4.77999
4.70239
4.5495
4.38659
4.33367
4.42441
4.58716
4.75709
4.95242
5.17407
5.36787
5.49708
5.5701
5.59817
5.58586
5.53629
5.45492
5.34538
5.21188
5.07069
534.368
524.376
4.22164
4.35171
4.50172
4.6328
4.71195
4.73934
4.73919
4.73378
4.72949
4.7228
4.71156
4.69593
4.67258
4.63119
4.55567
4.43789
4.31744
4.30451
4.46483
4.70471
4.89157
5.02626
5.18968
5.40579
5.61253
5.74213
5.78189
5.75033
5.66708
5.54653
5.39529
5.22011
5.03203
534.238
524.384
4.28627
4.43413
4.55057
4.59464
4.57796
4.55844
4.58129
4.63935
4.69566
4.72829
4.73746
4.72981
4.70802
4.66792
4.59829
4.4912
4.36699
4.30578
4.42262
4.7365
5.1064
5.37406
5.47818
5.47267
5.45052
5.48078
5.5499
5.59892
5.59478
5.53164
5.40908
5.22921
5.0051
534.291
524.366
4.17509
4.21602
4.22855
4.21704
4.20618
4.22598
4.29156
4.39276
4.50339
4.59722
4.6604
4.69712
4.72292
4.74977
4.77487
4.77226
4.69944
4.53056
4.31287
4.18135
4.25343
4.54783
4.99071
5.44332
5.73846
5.81549
5.75868
5.6548
5.54698
5.43881
5.31331
5.1485
4.93603
534.326
524.359
4.1437
4.17938
4.21259
4.25134
4.30443
4.37459
4.45451
4.53055
4.59106
4.63146
4.65265
4.65672
4.64525
4.62216
4.60393
4.62539
4.7137
4.84003
4.9159
4.86506
4.67927
4.4358
4.28665
4.36093
4.68192
5.1202
5.48512
5.65321
5.6631
5.58496
5.45091
5.26583
5.037
534.156
524.365
4.14372
4.18271
4.22911
4.28746
4.35689
4.43187
4.50631
4.57664
4.64056
4.69347
4.72834
4.74078
4.73202
4.70608
4.67386
4.65257
4.65279
4.67356
4.70911
4.74817
4.76341
4.7145
4.57857
4.38968
4.27495
4.40306
4.79821
5.23223
5.49726
5.58462
5.54574
5.40723
5.20184
534.134
524.366
4.15279
4.19888
4.25053
4.30809
4.37021
4.43811
4.51306
4.59237
4.66771
4.7275
4.76442
4.77873
4.77214
4.75081
4.73228
4.7393
4.7836
4.85213
4.91589
4.95032
4.9437
4.89244
4.79106
4.63398
4.42444
4.25048
4.31674
4.70119
5.1476
5.42364
5.51407
5.45811
5.29421
534.051
524.365
4.15454
4.20307
4.25946
4.33
4.4196
4.52657
4.64123
4.7488
4.83444
4.8897
4.91595
4.91768
4.89966
4.86986
4.83775
4.8136
4.81221
4.84551
4.90871
4.97815
5.02416
5.02447
4.96315
4.83566
4.64314
4.41126
4.26345
4.40786
4.8191
5.20922
5.41474
5.44252
5.31324
533.746
524.369
4.16929
4.24349
4.34107
4.46253
4.59819
4.731
4.8422
4.91742
4.95304
4.95715
4.93851
4.90312
4.86294
4.83479
4.83029
4.85223
4.89782
4.96272
5.04058
5.12044
5.18619
5.2188
5.19769
5.10326
4.92418
4.67377
4.43818
4.40784
4.68708
5.06739
5.30585
5.369
5.25387
533.259
524.376
4.21307
4.32936
4.46394
4.60177
4.724
4.8172
4.87913
4.9173
4.94042
4.9523
4.95388
4.94678
4.93647
4.93216
4.94303
4.97297
5.01909
5.07538
5.13752
5.20307
5.26733
5.31962
5.34214
5.31091
5.19833
4.991
4.73038
4.56222
4.66448
4.96456
5.18622
5.24704
5.13423
532.94
524.378
4.21132
4.30729
4.39785
4.47673
4.54787
4.62151
4.70523
4.79696
4.88434
4.95284
4.99559
5.01096
4.99554
4.95416
4.90804
4.88787
4.91794
4.99561
5.09528
5.19366
5.28045
5.35175
5.40131
5.41595
5.37371
5.25004
5.04433
4.82825
4.75444
4.88725
5.05133
5.11089
5.02929
532.832
524.371
4.16753
4.22104
4.27202
4.32944
4.40189
4.4913
4.59381
4.70205
4.80653
4.89594
4.96301
5.00686
5.02577
5.01379
4.96169
4.8741
4.79951
4.80809
4.91689
5.07815
5.23944
5.37572
5.479
5.54084
5.54575
5.47255
5.30814
5.08441
4.90885
4.89061
4.96718
5.00689
4.95459
532.951
524.374
4.161
4.22464
4.31289
4.43074
4.57089
4.71781
4.85569
4.96858
5.04395
5.07964
5.08411
5.06331
5.02205
4.9816
4.95989
4.93009
4.86248
4.80021
4.82433
4.94815
5.11966
5.28784
5.43106
5.54099
5.60575
5.60492
5.51648
5.33939
5.13139
4.9942
4.96448
4.96253
4.93201
533.068
524.396
4.24526
4.39822
4.59196
4.80044
4.98838
5.13144
5.21682
5.23733
5.20867
5.15011
5.08138
5.01184
4.94203
4.8867
4.8685
4.89511
4.95968
5.05237
5.16373
5.28169
5.39963
5.51197
5.61292
5.69399
5.7417
5.7378
5.66401
5.51416
5.31715
5.14341
5.04471
4.99078
4.94779
533.314
524.439
4.39386
4.65287
4.90672
5.09303
5.1789
5.16819
5.08496
4.94408
4.78545
4.68153
4.69354
4.80733
4.94685
5.06057
5.14777
5.22192
5.29313
5.36728
5.44739
5.53114
5.61547
5.69633
5.76816
5.82238
5.84684
5.82685
5.74907
5.60948
5.42655
5.24818
5.11832
5.02536
4.94956
533.674
524.476
4.51577
4.78916
4.97079
5.04364
5.05316
5.04278
5.02518
5.00203
4.97252
4.94508
4.94262
4.97961
5.04585
5.12324
5.20258
5.28284
5.36525
5.45049
5.53821
5.62657
5.71238
5.79143
5.85791
5.90381
5.91868
5.8913
5.81257
5.68123
5.51175
5.33818
5.19168
5.06376
4.94171
534.069
524.472
4.46285
4.67485
4.83885
4.97312
5.07972
5.14467
5.15751
5.1159
5.02096
4.89577
4.80083
4.79459
4.88041
5.01219
5.14587
5.26581
5.37522
5.47975
5.58126
5.67856
5.76878
5.848
5.91082
5.95008
5.95719
5.92384
5.84439
5.71978
5.56212
5.396
5.23918
5.08334
4.9222
534.512
524.5
4.46997
4.69108
4.86663
4.98076
5.03692
5.05172
5.03783
4.9993
4.93619
4.84908
4.75706
4.71614
4.77434
4.91332
5.07575
5.22286
5.34927
5.46383
5.57274
5.67619
5.77093
5.8525
5.91545
5.95343
5.95924
5.92646
5.85137
5.73577
5.58959
5.42972
5.26525
5.08751
4.89525
534.694
524.516
4.49419
4.70146
4.84577
4.94613
5.02439
5.08057
5.1047
5.08982
5.03289
4.93437
4.81128
4.71509
4.71207
4.82401
5.00448
5.18948
5.3454
5.47294
5.58365
5.68295
5.77019
5.84281
5.89738
5.92914
5.93221
5.90102
5.83209
5.72599
5.58903
5.43183
5.25866
5.06382
4.85202
534.695
524.476
4.40065
4.57051
4.71295
4.83628
4.93701
5.00843
5.0481
5.05476
5.02651
4.96154
4.86179
4.74975
4.68293
4.72057
4.86588
5.0638
5.25285
5.40385
5.52405
5.62824
5.72085
5.79755
5.85321
5.88356
5.88557
5.85642
5.79383
5.69799
5.57266
5.42384
5.25202
5.05094
4.82315
534.467
524.449
4.36252
4.53366
4.6827
4.80706
4.90816
4.99017
5.05391
5.0946
5.10453
5.07646
5.0057
4.89262
4.75968
4.66702
4.67816
4.80865
5.01794
5.23951
5.41642
5.53428
5.61344
5.67612
5.73185
5.77605
5.79811
5.78804
5.74232
5.66093
5.5473
5.40752
5.24269
5.04363
4.80393
534.15
524.408
4.30158
4.46246
4.60712
4.72352
4.81231
4.88357
4.94702
5.00704
5.06125
5.10055
5.11111
5.07837
4.99067
4.84877
4.69015
4.58508
4.58857
4.71758
4.94682
5.21733
5.45112
5.60019
5.66913
5.68745
5.6824
5.66639
5.63524
5.5788
5.49088
5.37353
5.22689
5.03905
4.79705
533.815
524.395
4.29263
4.43569
4.5456
4.62841
4.69883
4.76561
4.82907
4.88791
4.94359
4.99943
5.05695
5.11159
5.1502
5.15184
5.09258
4.95814
4.76913
4.58912
4.48537
4.50302
4.66017
4.93887
5.26522
5.53614
5.68249
5.71673
5.68094
5.60856
5.51679
5.41208
5.29045
5.12543
4.87363
533.415
524.383
4.21124
4.29948
4.38156
4.46415
4.54952
4.63486
4.71647
4.79126
4.85623
4.90923
4.95066
4.98421
5.01649
5.05543
5.10452
5.15334
5.17534
5.13945
5.02527
4.83893
4.62761
4.47051
4.45119
4.62022
4.94358
5.30203
5.54305
5.62081
5.58103
5.47229
5.32994
5.1559
4.91427
533.107
524.381
4.19017
4.27009
4.35081
4.43118
4.50896
4.58329
4.65506
4.72518
4.79324
4.85776
4.91692
4.96868
5.01024
5.03821
5.05031
5.04762
5.03667
5.02866
5.03326
5.04637
5.04315
4.98983
4.8678
4.70487
4.58893
4.64168
4.90535
5.23634
5.45001
5.49941
5.42753
5.27262
5.0359
533.034
524.38
4.181
4.25562
4.33078
4.40693
4.48476
4.56501
4.64708
4.72831
4.80478
4.8728
4.93001
4.97554
5.00946
5.03213
5.04417
5.04617
5.03853
5.02294
5.00445
4.99061
4.98696
4.99589
5.01434
5.01942
4.97211
4.86891
4.81304
4.94419
5.1998
5.40011
5.46326
5.39154
5.20087
532.939
524.383
4.18133
4.25598
4.33382
4.41608
4.50244
4.5906
4.67677
4.75674
4.82717
4.88597
4.93191
4.96378
4.97953
4.97686
4.9548
4.91463
4.8609
4.8062
4.77325
4.78107
4.82496
4.88572
4.95718
5.0477
5.11887
5.10706
5.01129
4.96112
5.07498
5.26618
5.38184
5.38785
5.33211
533.018
524.394
4.20076
4.28973
4.38474
4.48331
4.58109
4.67394
4.75889
4.83367
4.89628
4.94466
4.97602
4.98601
4.96861
4.91864
4.83606
4.72509
4.60637
4.53432
4.56743
4.71208
4.9117
5.10139
5.26158
5.39468
5.46209
5.42282
5.30803
5.23726
5.28541
5.37602
5.42424
5.42481
5.37396
533.243
524.399
4.20795
4.29869
4.38965
4.47679
4.55961
4.63995
4.71739
4.78791
4.84648
4.88905
4.91156
4.90774
4.86896
4.78811
4.66448
4.52843
4.48203
4.62508
4.91231
5.18202
5.3178
5.34433
5.36215
5.46088
5.62258
5.74731
5.7878
5.77315
5.74308
5.69346
5.60529
5.46355
5.24249
533.991
524.397
4.19943
4.28147
4.36384
4.44931
4.54065
4.63433
4.7211
4.79334
4.84936
4.89127
4.92061
4.93457
4.923
4.86781
4.74944
4.56244
4.3563
4.27761
4.45918
4.85202
5.29133
5.62886
5.79139
5.80969
5.76219
5.72567
5.73994
5.77373
5.77144
5.7078
5.56984
5.34566
5.03767
534.782
524.392
4.1838
4.25861
4.33927
4.42598
4.51422
4.59641
4.6672
4.7258
4.77375
4.81252
4.84353
4.86935
4.89314
4.91392
4.91814
4.87473
4.74347
4.50615
4.23986
4.12723
4.25073
4.51287
4.95362
5.40896
5.79187
6.01096
6.04495
5.95768
5.81987
5.65474
5.44971
5.19493
4.9048
534.941
524.39
4.18188
4.25759
4.33764
4.41824
4.49478
4.56476
4.62827
4.68637
4.73933
4.78606
4.82454
4.85253
4.86825
4.87171
4.86688
4.86165
4.86149
4.85134
4.78476
4.61547
4.36486
4.15674
4.14438
4.20323
4.46389
4.8773
5.36028
5.74854
5.90187
5.86227
5.68968
5.41827
5.09533
534.817
524.389
4.17483
4.24177
4.30829
4.37292
4.43588
4.49862
4.5619
4.62483
4.68525
4.7406
4.78882
4.82901
4.86104
4.88509
4.90039
4.90488
4.89668
4.8765
4.84959
4.81895
4.77021
4.66682
4.48026
4.24497
4.11267
4.18672
4.25498
4.64541
5.17937
5.54794
5.66712
5.57301
5.32265
534.613
524.39
4.17153
4.23468
4.29842
4.3637
4.4316
4.50185
4.57239
4.64042
4.70344
4.75969
4.808
4.8476
4.87812
4.89964
4.91254
4.91748
4.91569
4.90764
4.89238
4.86686
4.82684
4.76758
4.68125
4.5538
4.36843
4.14039
4.12017
4.16862
4.47786
4.94056
5.2908
5.43457
5.44682
534.697
524.394
4.1741
4.23768
4.30304
4.37004
4.43779
4.50473
4.56946
4.63143
4.69045
4.74593
4.79662