/*--------------------------------*- C++ -*----------------------------------*\
| =========                 |                                                 |
| \\      /  F ield         | OpenFOAM: The Open Source CFD Toolbox           |
|  \\    /   O peration     | Version:  v2006                                 |
|   \\  /    A nd           | Website:  www.openfoam.com                      |
|    \\/     M anipulation  |                                                 |
\*---------------------------------------------------------------------------*/
FoamFile
{
    version     2.0;
    format      ascii;
    class       volScalarField;
    location    "65";
    object      alphat;
}
// * * * * * * * * * * * * * * * * * * * * * * * * * * * * * * * * * * * * * //

dimensions      [1 -1 -1 0 0 0 0];


internalField   nonuniform List<scalar> 
78750
(
0.000788865
0.00156791
0.000950434
6.53424e-06
8.48363e-05
2.81693e-05
6.71366e-05
4.56056e-05
6.73774e-05
6.25851e-05
6.95938e-05
7.4079e-05
7.6971e-05
8.07447e-05
8.36679e-05
8.63654e-05
8.8694e-05
9.06896e-05
9.23479e-05
9.36451e-05
9.45332e-05
9.49371e-05
9.47633e-05
9.39252e-05
9.23886e-05
9.01998e-05
8.74534e-05
8.4247e-05
8.06078e-05
7.63394e-05
7.07698e-05
6.24188e-05
4.64229e-05
1.26212e-05
2.72918e-07
2.50242e-05
8.74241e-05
2.39465e-05
7.00076e-05
6.09408e-05
7.89579e-05
9.9421e-05
0.000121923
0.000146394
0.000169166
0.000194842
0.000214103
0.000231172
0.000244418
0.00025576
0.000266354
0.000277258
0.000289144
0.000302015
0.00031516
0.000327186
0.000336177
0.000340234
0.000338341
0.000330755
0.000318751
0.000304152
0.000288007
0.000269722
0.000247607
0.000215731
0.000159088
7.71367e-05
2.5284e-05
1.98399e-06
5.09951e-07
2.1812e-05
4.78307e-05
5.13029e-05
6.09707e-05
8.50748e-05
0.000131139
0.000192284
0.000255718
0.000278454
0.000285359
0.000291099
0.000295836
0.000299761
0.000303028
0.000305746
0.000307979
0.000309781
0.000311205
0.000307658
0.000299447
0.000291832
0.000284322
0.000276423
0.00026756
0.000256518
0.00024226
0.000224808
0.000204943
0.000181782
0.000149007
9.87547e-05
4.82002e-05
2.26796e-05
3.04011e-06
5.03231e-07
1.3303e-05
2.08043e-05
2.865e-05
5.12171e-05
0.000100034
0.000153618
0.000188378
0.000220482
0.000270731
0.000310403
0.000313008
0.000314998
0.000316685
0.000318309
0.000319996
0.000321708
0.000323253
0.000320557
0.000281571
0.000247514
0.00021981
0.0001973
0.000179032
0.000163974
0.000151497
0.000141206
0.000132594
0.000124699
0.000115352
9.9611e-05
7.09264e-05
3.84342e-05
2.11548e-05
3.20813e-06
1.31017e-06
3.64563e-05
6.85985e-05
7.42018e-05
6.8859e-05
7.67596e-05
0.000100087
0.000118126
0.000118135
0.000112742
0.000116818
0.000137399
0.000170887
0.0002079
0.000239505
0.000253484
0.000246134
0.000226627
0.000204358
0.000183617
0.000165509
0.000149947
0.000136722
0.000125643
0.000116528
0.000109129
0.000103101
9.79451e-05
9.28067e-05
8.58807e-05
7.38546e-05
5.4795e-05
3.63428e-05
2.95158e-05
4.55331e-06
3.85872e-06
3.9405e-05
2.83418e-05
1.91338e-05
2.1954e-05
5.12743e-05
0.000134455
0.000175862
0.000170686
0.00015447
0.000139507
0.000132244
0.000134226
0.000144399
0.000159579
0.000174586
0.000184568
0.000187514
0.000184143
0.000176429
0.000166355
0.00015542
0.000144589
0.000134438
0.000125225
0.000116966
0.000109476
0.000102291
9.43605e-05
8.36678e-05
6.7362e-05
4.53088e-05
2.6886e-05
2.35059e-05
4.35589e-06
6.65157e-06
2.57623e-05
1.63091e-05
2.84769e-05
3.51031e-05
7.32026e-05
0.000116816
0.000187572
0.000308311
0.000234855
0.000179241
0.00016004
0.000161557
0.000173752
0.000186278
0.000190761
0.000188007
0.000181564
0.000173239
0.000163599
0.000153083
0.000142288
0.000131782
0.000122004
0.000113224
0.000105541
9.8875e-05
9.29486e-05
8.71392e-05
7.98677e-05
6.67577e-05
4.38084e-05
2.569e-05
2.48598e-05
5.75645e-06
2.60806e-06
1.18174e-05
3.70127e-05
5.40496e-05
7.20533e-05
9.89487e-05
9.48344e-05
7.36337e-05
6.53174e-05
7.34258e-05
9.37177e-05
0.000114349
0.000112197
0.000105341
0.000123245
0.000168836
0.000205083
0.000198139
0.000175867
0.000156928
0.000142658
0.000131093
0.000121094
0.000112047
0.00010356
9.53511e-05
8.71316e-05
7.85182e-05
6.90674e-05
5.85615e-05
4.74788e-05
3.76015e-05
3.34758e-05
4.67148e-05
6.56744e-06
3.76337e-06
2.34336e-05
2.28976e-05
3.11995e-05
6.05837e-05
9.20317e-05
9.45193e-05
9.33572e-05
9.75345e-05
9.82949e-05
9.8165e-05
9.9402e-05
0.000100712
9.96114e-05
9.92409e-05
0.000108535
0.000132528
0.000169941
0.000212462
0.000241504
0.000240158
0.000213658
0.000179887
0.000150249
0.000126641
0.000107152
8.97044e-05
7.29594e-05
5.67626e-05
4.23689e-05
3.15242e-05
2.58596e-05
2.98646e-05
6.09292e-05
6.30477e-06
3.84277e-06
2.50061e-05
3.89613e-05
6.07826e-05
9.19532e-05
0.000110059
0.000128962
0.000165159
0.000215079
0.000242917
0.000233997
0.000205487
0.000180615
0.000175549
0.000198314
0.0002495
0.000307185
0.000326731
0.000291738
0.000237748
0.000202147
0.000184486
0.00017545
0.000168783
0.000160607
0.000149532
0.000135523
0.000118037
9.52208e-05
6.65826e-05
3.94793e-05
2.29899e-05
1.93743e-05
3.99239e-05
6.82183e-06
3.64906e-06
4.53286e-05
7.476e-05
6.56994e-05
4.9332e-05
4.77369e-05
6.48807e-05
0.000120095
0.000190046
0.000204187
0.000182697
0.000142747
0.000105325
8.37095e-05
7.55684e-05
7.51596e-05
8.26604e-05
0.000107112
0.000163974
0.000234068
0.000257997
0.000235238
0.000191267
0.000153248
0.000129583
0.000115962
0.000107422
9.97691e-05
8.8726e-05
6.94426e-05
4.37812e-05
2.54911e-05
2.20849e-05
4.3263e-05
7.98661e-06
9.02402e-06
1.54319e-05
3.64761e-05
7.16945e-05
0.00011069
0.00017514
0.000231546
0.000268439
0.00028219
0.00024304
0.000181502
0.000135084
0.0001154
0.000120427
0.000134405
9.60972e-05
4.54221e-05
2.75079e-05
3.07738e-05
5.47111e-05
7.48936e-05
9.86555e-05
0.000109676
0.000126616
0.000126507
0.000105099
8.56967e-05
7.54044e-05
6.94033e-05
6.17955e-05
4.99185e-05
3.8149e-05
3.7529e-05
4.8652e-05
7.72142e-06
1.23269e-05
2.74544e-05
4.1512e-05
6.90629e-05
7.33186e-05
7.05084e-05
6.65831e-05
6.34088e-05
6.17882e-05
6.16073e-05
6.24242e-05
6.36542e-05
6.36993e-05
6.09823e-05
5.41335e-05
4.63062e-05
4.1001e-05
2.94005e-05
2.11303e-05
2.67128e-05
4.95584e-05
6.67422e-05
3.94575e-05
2.86632e-05
4.20274e-05
8.46842e-05
0.000108435
8.8484e-05
6.12903e-05
4.28736e-05
3.36787e-05
3.25592e-05
4.34612e-05
4.78531e-05
6.60403e-06
9.8806e-06
7.81872e-05
4.89371e-05
5.16145e-05
5.42029e-05
5.50481e-05
5.51927e-05
5.49757e-05
5.47057e-05
5.45516e-05
5.42772e-05
5.37912e-05
5.33549e-05
5.26378e-05
5.13596e-05
4.90063e-05
4.62121e-05
4.20292e-05
3.71365e-05
3.52086e-05
3.38796e-05
3.2518e-05
2.66188e-05
2.09132e-05
2.27876e-05
3.87107e-05
6.91459e-05
7.56029e-05
8.25172e-05
8.14681e-05
5.85788e-05
3.72273e-05
3.4692e-05
5.82531e-05
6.2125e-06
2.94e-06
1.73816e-05
2.78441e-05
4.03727e-05
5.22065e-05
6.2001e-05
6.95372e-05
7.51015e-05
7.91414e-05
8.22826e-05
8.40913e-05
8.43113e-05
8.63916e-05
9.0661e-05
9.18744e-05
8.95979e-05
8.52174e-05
7.87572e-05
7.32245e-05
6.7543e-05
6.39645e-05
6.32005e-05
5.51659e-05
4.31161e-05
3.39552e-05
2.85038e-05
2.77607e-05
3.28821e-05
4.5459e-05
6.91903e-05
0.00010099
8.84431e-05
4.58692e-05
4.24057e-05
7.58472e-06
5.67072e-06
2.9617e-05
6.92622e-05
0.000103036
0.000120387
0.000130396
0.000137592
0.000142675
0.000144006
0.00013329
9.90758e-05
6.27628e-05
4.34668e-05
3.97932e-05
5.00726e-05
7.41434e-05
9.88222e-05
0.000101316
8.61444e-05
6.70094e-05
5.53161e-05
5.06683e-05
4.47309e-05
3.84113e-05
3.32195e-05
2.85184e-05
3.14407e-05
4.16824e-05
5.37433e-05
6.91334e-05
8.875e-05
7.81979e-05
4.74755e-05
5.00045e-05
9.45314e-06
6.83205e-06
4.20323e-05
0.00011186
0.000150612
0.000158544
0.000154329
0.000149242
0.00014327
0.000125947
9.4298e-05
6.67624e-05
5.6888e-05
6.7071e-05
9.49944e-05
0.000117194
0.0001103
8.77413e-05
6.26861e-05
4.11162e-05
2.56575e-05
1.65273e-05
1.31045e-05
1.53821e-05
2.39998e-05
3.45992e-05
6.95294e-05
0.000179566
0.000175165
0.000117004
8.8562e-05
8.2728e-05
7.36849e-05
6.17146e-05
6.67041e-05
1.0215e-05
8.49903e-06
4.42349e-05
0.000134555
0.000147918
0.000117664
0.000101418
0.000103928
0.000122384
0.00014652
0.000141106
8.58965e-05
4.84187e-05
3.92042e-05
5.39804e-05
0.000102116
0.00016448
0.000145998
8.1437e-05
3.92045e-05
1.74268e-05
5.88615e-06
1.46857e-06
2.5462e-06
7.25018e-06
1.83066e-05
4.06957e-05
0.000114669
0.000152016
9.75394e-05
7.30331e-05
6.50732e-05
6.32199e-05
6.64211e-05
5.51014e-05
9.8192e-06
9.25283e-06
6.39496e-05
0.000171337
8.97483e-05
6.26583e-05
6.56073e-05
7.84019e-05
8.62692e-05
8.28447e-05
7.29982e-05
6.8611e-05
8.50165e-05
0.000146516
0.000264701
0.000290834
0.000291363
0.000227406
0.00012201
5.87656e-05
2.54225e-05
7.67184e-06
1.86634e-06
1.67106e-06
2.70694e-06
4.79768e-06
1.46577e-05
3.05316e-05
6.29206e-05
0.000107791
8.68233e-05
6.08019e-05
5.6391e-05
7.01206e-05
3.96523e-05
8.68484e-06
9.57508e-06
6.61039e-05
0.00012144
5.19121e-05
4.56172e-05
6.81526e-05
0.000106634
0.000128803
0.000116203
8.69042e-05
6.54033e-05
6.34579e-05
9.1909e-05
0.000158433
0.000229898
0.000267036
0.000254326
0.000198661
0.000127409
6.85812e-05
3.0984e-05
1.01499e-05
8.69103e-08
2.22926e-06
2.0747e-06
2.29646e-06
5.95799e-06
1.39327e-05
3.03913e-05
6.06978e-05
7.84909e-05
7.12095e-05
7.57241e-05
3.35126e-05
7.74614e-06
9.73286e-06
7.90948e-05
5.93606e-05
2.65963e-05
2.95371e-05
5.24642e-05
7.57873e-05
8.54235e-05
9.16047e-05
0.000106249
0.000136687
0.000175223
0.00019874
0.000206831
0.000211447
0.000217755
0.00022302
0.00021868
0.000195279
0.000151913
9.98546e-05
5.47117e-05
2.43337e-05
7.08882e-06
1.97803e-06
2.32001e-07
4.66489e-07
2.26588e-06
3.94651e-06
1.24483e-05
3.21738e-05
4.85995e-05
5.30002e-05
3.12144e-05
7.9563e-06
9.17818e-06
5.89521e-05
6.02163e-05
2.38532e-05
2.17798e-05
3.95174e-05
6.78773e-05
8.76482e-05
0.00010473
0.000126563
0.000148857
0.000164862
0.00017315
0.000175349
0.00017304
0.000168396
0.000164533
0.000163997
0.000167247
0.00017054
0.000164818
0.000142021
0.0001042
6.33834e-05
3.05868e-05
8.9867e-06
2.37358e-06
2.22214e-07
3.293e-07
3.58024e-08
4.52848e-06
2.04551e-05
3.34735e-05
2.72959e-05
8.55271e-06
8.9944e-06
4.06633e-05
0.000104775
3.85718e-05
1.45181e-05
1.30333e-05
2.56694e-05
5.61602e-05
9.3847e-05
0.000126243
0.000156015
0.000183212
0.000202025
0.00020774
0.000201358
0.00018718
0.000169627
0.000152288
0.000138188
0.000130318
0.000131013
0.000138634
0.000143787
0.000134142
0.000106711
6.88336e-05
3.25739e-05
8.33382e-06
2.17128e-06
2.40561e-06
9.91726e-07
2.21305e-06
3.35223e-05
2.40398e-05
8.25555e-06
9.12233e-06
3.83003e-05
0.000109696
8.61484e-05
2.75099e-05
1.05858e-05
9.4527e-06
2.02757e-05
5.33977e-05
0.000116424
0.000183355
0.000225716
0.000241435
0.00024008
0.000230859
0.000217566
0.000200492
0.000179482
0.000155242
0.000129839
0.000107235
9.37853e-05
9.36184e-05
0.000102296
0.000106679
9.73439e-05
7.62104e-05
4.96813e-05
2.61269e-05
1.06305e-05
1.85043e-06
1.98876e-06
5.63586e-06
2.0596e-05
8.30953e-06
9.41089e-06
4.0638e-05
0.000117527
0.000132886
7.0872e-05
2.26922e-05
9.30877e-06
8.80974e-06
1.94566e-05
5.17897e-05
0.000116652
0.000192696
0.000241037
0.000255023
0.000250984
0.000240329
0.000226263
0.000209424
0.000189763
0.000166108
0.000136344
0.000100968
7.35518e-05
6.83267e-05
8.23117e-05
0.000100133
0.000102184
8.76079e-05
6.39915e-05
3.74008e-05
1.45204e-05
1.91864e-06
4.33634e-06
4.84764e-05
1.02926e-05
9.61804e-06
4.27108e-05
0.000127551
0.000155791
0.000131534
6.17543e-05
2.18692e-05
9.90376e-06
8.96154e-06
1.86801e-05
5.06917e-05
0.000117932
0.000189365
0.00022331
0.000230614
0.000228952
0.000221858
0.000207798
0.000187204
0.000164888
0.000145437
0.00012401
8.00828e-05
4.49039e-05
4.25113e-05
6.44648e-05
0.000101334
0.000100754
7.55046e-05
4.14575e-05
1.42892e-05
4.66956e-06
1.13798e-05
4.23679e-05
1.01934e-05
9.64233e-06
4.05202e-05
0.000121372
0.000162294
0.000158073
0.0001347
6.96198e-05
2.73136e-05
1.27089e-05
9.15601e-06
1.45065e-05
3.56115e-05
8.14706e-05
0.000133719
0.000159718
0.000164798
0.000162851
0.000157912
0.000148452
0.000132533
0.000112043
9.24528e-05
7.69363e-05
5.63196e-05
3.21902e-05
2.55362e-05
3.00824e-05
4.28037e-05
5.6251e-05
5.22141e-05
4.17734e-05
2.36571e-05
1.59046e-05
4.62703e-05
8.61846e-06
9.7058e-06
3.85115e-05
0.000116876
0.000157692
0.000146355
0.000129164
0.000117704
7.97376e-05
3.61038e-05
1.66893e-05
1.05879e-05
1.42188e-05
3.13628e-05
6.71556e-05
0.000107353
0.000125912
0.000126415
0.000121148
0.000114758
0.000108237
0.000100828
9.12315e-05
7.85878e-05
6.36713e-05
4.99065e-05
3.79062e-05
3.06924e-05
2.70803e-05
2.69513e-05
2.85797e-05
4.78123e-05
2.61407e-05
2.65876e-05
1.23456e-05
1.07843e-05
9.87749e-06
3.70624e-05
0.000105931
0.000144799
0.000133387
0.000106823
8.65772e-05
8.23148e-05
7.28214e-05
3.75256e-05
1.69026e-05
1.19164e-05
1.86915e-05
4.09494e-05
7.49556e-05
9.63151e-05
0.000100795
9.87384e-05
9.4535e-05
8.9823e-05
8.5898e-05
8.11335e-05
7.30346e-05
6.76042e-05
6.62955e-05
5.06841e-05
4.51027e-05
4.25843e-05
3.26665e-05
2.72642e-05
2.25453e-05
7.09477e-06
8.19075e-07
1.41677e-05
1.59109e-05
1.01764e-05
3.87103e-05
0.000108248
0.000142627
0.000131469
0.000101825
7.18882e-05
5.8045e-05
5.9441e-05
5.0351e-05
2.36558e-05
1.28359e-05
1.95039e-05
5.0518e-05
8.45296e-05
8.94758e-05
8.57513e-05
8.22012e-05
7.99029e-05
7.93097e-05
8.21833e-05
8.93723e-05
6.94329e-05
6.0637e-05
4.61941e-05
3.52243e-05
3.49021e-05
2.88789e-05
2.14332e-05
1.75756e-05
1.87001e-05
2.55619e-05
4.65223e-05
0.000130335
1.40297e-05
1.03571e-05
4.18696e-05
0.000120453
0.000148478
0.000130451
9.45792e-05
6.23604e-05
4.51202e-05
4.01062e-05
3.67532e-05
2.1082e-05
1.24527e-05
3.26377e-05
0.000116393
0.000120765
0.000111616
0.000104415
0.000100668
0.00010089
9.15309e-05
6.00675e-05
3.75097e-05
3.2165e-05
3.77961e-05
4.37713e-05
3.34615e-05
2.88065e-05
3.13476e-05
3.59191e-05
4.42529e-05
6.25217e-05
9.54468e-05
7.7008e-05
2.82694e-05
8.51103e-06
1.04281e-05
4.75013e-05
0.000138156
0.000145204
0.000109597
7.17164e-05
4.84769e-05
3.49764e-05
2.7033e-05
2.19776e-05
1.60572e-05
1.60864e-05
6.8832e-05
0.000134441
0.000212551
0.000255393
0.000225143
0.000108519
4.98409e-05
3.16101e-05
2.73271e-05
3.04112e-05
4.376e-05
6.37886e-05
4.26541e-05
3.02699e-05
3.30002e-05
4.47563e-05
5.97317e-05
7.89066e-05
9.77516e-05
8.02296e-05
3.81202e-05
1.6002e-05
4.68506e-06
1.02388e-05
5.20864e-05
0.000141724
0.000129261
8.73306e-05
5.36306e-05
3.58912e-05
2.60403e-05
1.87325e-05
1.46997e-05
1.54682e-05
2.81516e-05
8.14595e-05
0.000113776
0.000146465
0.000150197
0.000105608
5.88217e-05
3.7502e-05
2.96832e-05
2.82228e-05
3.17784e-05
4.27198e-05
5.77498e-05
5.61182e-05
5.01683e-05
5.15692e-05
5.98356e-05
7.14549e-05
8.41945e-05
9.01289e-05
6.98489e-05
3.58347e-05
1.75755e-05
4.57767e-06
9.93038e-06
5.44208e-05
0.000136259
0.000121871
8.32539e-05
4.97108e-05
2.97863e-05
1.92223e-05
1.36938e-05
1.17819e-05
1.5765e-05
3.58548e-05
8.09618e-05
9.91319e-05
9.90139e-05
9.66506e-05
8.72228e-05
6.69095e-05
4.6665e-05
3.51078e-05
3.12782e-05
3.28312e-05
3.87558e-05
4.6766e-05
5.24588e-05
5.65003e-05
6.22356e-05
7.05517e-05
7.99944e-05
8.73638e-05
8.69837e-05
7.00968e-05
4.29436e-05
2.45974e-05
6.16086e-06
9.76375e-06
5.64318e-05
0.000141308
0.000128062
9.14749e-05
5.73921e-05
3.43235e-05
2.01965e-05
1.23983e-05
1.00524e-05
1.43806e-05
3.21723e-05
6.91222e-05
8.73709e-05
8.72845e-05
8.65577e-05
8.52804e-05
8.03965e-05
6.98988e-05
5.5811e-05
4.43535e-05
3.89198e-05
3.87356e-05
4.17133e-05
4.5817e-05
5.05342e-05
5.67802e-05
6.56643e-05
7.77477e-05
9.05708e-05
9.61343e-05
8.65563e-05
6.35007e-05
3.456e-05
7.26421e-06
9.67548e-06
5.49327e-05
0.000151501
0.00014869
0.000112985
7.50652e-05
4.80337e-05
2.99691e-05
1.74248e-05
9.94855e-06
8.94196e-06
1.89584e-05
4.8682e-05
7.7136e-05
8.57707e-05
8.87221e-05
9.03629e-05
9.04497e-05
8.82084e-05
8.29152e-05
7.44275e-05
6.45491e-05
5.63444e-05
5.12591e-05
4.89069e-05
4.87596e-05
5.08267e-05
5.54589e-05
6.35243e-05
7.66277e-05
9.53337e-05
0.000111419
0.000104198
4.43075e-05
7.58302e-06
9.70988e-06
5.51027e-05
0.000164396
0.000166706
0.000128598
9.12364e-05
6.58356e-05
4.78678e-05
3.24268e-05
1.88869e-05
9.75532e-06
7.99463e-06
1.98411e-05
5.34934e-05
8.05328e-05
9.19727e-05
9.80214e-05
0.000101739
0.000103186
0.000102316
9.9152e-05
9.37672e-05
8.65549e-05
7.84402e-05
7.05333e-05
6.37093e-05
5.85483e-05
5.54202e-05
5.47181e-05
5.76889e-05
6.8156e-05
9.20568e-05
0.000120327
5.0988e-05
7.50501e-06
9.80275e-06
5.43644e-05
0.000172277
0.00018029
0.000136344
9.45284e-05
7.079e-05
5.82881e-05
4.84184e-05
3.61147e-05
2.18304e-05
1.09489e-05
7.92332e-06
1.89441e-05
5.33896e-05
8.74104e-05
0.000103717
0.000111771
0.000116037
0.000117352
0.000116036
0.000112394
0.000106746
9.94703e-05
9.10258e-05
8.19457e-05
7.28226e-05
6.42527e-05
5.67328e-05
5.13277e-05
5.11826e-05
6.21609e-05
8.65986e-05
4.87117e-05
7.36677e-06
9.99907e-06
5.54377e-05
0.000174098
0.000180458
0.000132475
8.9983e-05
6.90506e-05
6.13451e-05
5.76707e-05
5.15494e-05
3.96526e-05
2.3984e-05
1.22196e-05
9.05633e-06
2.02016e-05
5.52543e-05
9.18455e-05
0.000109773
0.000118089
0.000121907
0.000122281
0.000119676
0.000114473
0.000107037
9.77939e-05
8.73658e-05
7.65432e-05
6.60863e-05
5.69256e-05
4.99665e-05
4.72317e-05
5.33363e-05
7.1864e-05
4.34192e-05
7.25762e-06
1.01407e-05
5.67697e-05
0.000173604
0.000172204
0.000121756
8.098e-05
6.27289e-05
5.83865e-05
5.98825e-05
6.00923e-05
5.37608e-05
3.96571e-05
2.31191e-05
1.24761e-05
1.1159e-05
2.56426e-05
6.39637e-05
9.78921e-05
0.000112326
0.000118014
0.000119597
0.000118001
0.000113561
0.00010651
9.7072e-05
8.56639e-05
7.3206e-05
6.12936e-05
5.17963e-05
4.61232e-05
4.54876e-05
5.27514e-05
7.05654e-05
4.11565e-05
7.2272e-06
1.01363e-05
5.77862e-05
0.000171406
0.00016442
0.000114587
7.67056e-05
6.03841e-05
5.75888e-05
6.17008e-05
6.6236e-05
6.44907e-05
5.33996e-05
3.61008e-05
2.06196e-05
1.27549e-05
1.4854e-05
3.38344e-05
7.03714e-05
9.7039e-05
0.000108028
0.000111839
0.000111862
0.000108898
0.000103191
9.4837e-05
8.3965e-05
7.11201e-05
5.78531e-05
4.67649e-05
4.04336e-05
4.07651e-05
5.05704e-05
7.17626e-05
4.10467e-05
7.25721e-06
9.9585e-06
5.57261e-05
0.000165832
0.000161364
0.000114351
7.61165e-05
5.83531e-05
5.4409e-05
5.89136e-05
6.70702e-05
7.18648e-05
6.65623e-05
5.08454e-05
3.21863e-05
1.89283e-05
1.42168e-05
2.06614e-05
4.38559e-05
7.55703e-05
9.47304e-05
0.00010219
0.000104078
0.000102678
9.85752e-05
9.18926e-05
8.2608e-05
7.08387e-05
5.75081e-05
4.50554e-05
3.68102e-05
3.57316e-05
4.5653e-05
7.10233e-05
4.19286e-05
7.31351e-06
9.79808e-06
5.2512e-05
0.000159203
0.000164643
0.000124022
8.33722e-05
6.09002e-05
5.30173e-05
5.47219e-05
6.28066e-05
7.26777e-05
7.66253e-05
6.80423e-05
4.91447e-05
3.02723e-05
1.92087e-05
1.7587e-05
2.80544e-05
5.25502e-05
7.82794e-05
9.21148e-05
9.69864e-05
9.72865e-05
9.46728e-05
8.95566e-05
8.19049e-05
7.15535e-05
5.87657e-05
4.53598e-05
3.50332e-05
3.16958e-05
3.98816e-05
6.78686e-05
4.39798e-05
7.42031e-06
9.70698e-06
4.92928e-05
0.000151945
0.000164668
0.000128368
8.75643e-05
6.27012e-05
5.20867e-05
5.0991e-05
5.71672e-05
6.87669e-05
8.08043e-05
8.40466e-05
7.17398e-05
4.94255e-05
3.03916e-05
2.12739e-05
2.28118e-05
3.71068e-05
6.18933e-05
8.24353e-05
9.15391e-05
9.33451e-05
9.1387e-05
8.69654e-05
8.03474e-05
7.13391e-05
5.97e-05
4.6295e-05
3.45703e-05
2.93482e-05
3.57754e-05
6.44732e-05
4.64479e-05
7.54512e-06
9.76075e-06
4.7682e-05
0.000148033
0.000164283
0.000129296
8.89905e-05
6.43575e-05
5.33e-05
5.06423e-05
5.43818e-05
6.42357e-05
7.87094e-05
9.17065e-05
9.25647e-05
7.55344e-05
5.03471e-05
3.18975e-05
2.50144e-05
2.99369e-05
4.74055e-05
7.08367e-05
8.65146e-05
9.17084e-05
9.06885e-05
8.6282e-05
7.94911e-05
7.04566e-05
5.90476e-05
4.58198e-05
3.36555e-05
2.74602e-05
3.26229e-05
6.09574e-05
4.88116e-05
7.68411e-06
9.83953e-06
4.69055e-05
0.000145209
0.000161269
0.000124867
8.40244e-05
6.09183e-05
5.1979e-05
5.08223e-05
5.46909e-05
6.3613e-05
7.78979e-05
9.47926e-05
0.00010569
9.95078e-05
7.56934e-05
4.91588e-05
3.31189e-05
2.97691e-05
3.92077e-05
5.96454e-05
7.98211e-05
8.95015e-05
9.0204e-05
8.60373e-05
7.9016e-05
6.95895e-05
5.76461e-05
4.39304e-05
3.17215e-05
2.57833e-05
3.1153e-05
6.05416e-05
4.90149e-05
7.78182e-06
9.94123e-06
4.69062e-05
0.000143664
0.000158672
0.000122548
8.13982e-05
5.83596e-05
5.01895e-05
5.03869e-05
5.54949e-05
6.47951e-05
7.89451e-05
9.7215e-05
0.00011406
0.00011836
0.000101978
7.24512e-05
4.71284e-05
3.48561e-05
3.60883e-05
5.04245e-05
7.1633e-05
8.63209e-05
8.97154e-05
8.55759e-05
7.73503e-05
6.65408e-05
5.37279e-05
4.01347e-05
2.90358e-05
2.44698e-05
3.12811e-05
6.35399e-05
4.62477e-05
7.76887e-06
9.97677e-06
4.70116e-05
0.000142665
0.000156142
0.000120056
7.90581e-05
5.61106e-05
4.82403e-05
4.93266e-05
5.59424e-05
6.67498e-05
8.18957e-05
0.00010133
0.000121661
0.000133628
0.000126015
9.84789e-05
6.63029e-05
4.45906e-05
3.72371e-05
4.39227e-05
6.19895e-05
8.02101e-05
8.80373e-05
8.58527e-05
7.73439e-05
6.48319e-05
5.01355e-05
3.60775e-05
2.62913e-05
2.36641e-05
3.29492e-05
6.96087e-05
4.14679e-05
7.62712e-06
1.00455e-05
4.78118e-05
0.000143924
0.000156185
0.000120541
7.9598e-05
5.60179e-05
4.75333e-05
4.84084e-05
5.55048e-05
6.74478e-05
8.39874e-05
0.000105112
0.000128718
0.000147416
0.000149101
0.000126995
9.10051e-05
5.96964e-05
4.28008e-05
4.09658e-05
5.30132e-05
7.13452e-05
8.24496e-05
8.22824e-05
7.44225e-05
6.19794e-05
4.7243e-05
3.35791e-05
2.4837e-05
2.37554e-05
3.56934e-05
7.5554e-05
3.63812e-05
7.37262e-06
1.01282e-05
4.93496e-05
0.00014702
0.000156791
0.000120083
7.93865e-05
5.60057e-05
4.74638e-05
4.83237e-05
5.57445e-05
6.85487e-05
8.64397e-05
0.000109365
0.000135871
0.0001601
0.000170481
0.000156164
0.000120324
8.09026e-05
5.33776e-05
4.17476e-05
4.51702e-05
6.03322e-05
7.51406e-05
7.89424e-05
7.25384e-05
6.03209e-05
4.59743e-05
3.30763e-05
2.50543e-05
2.48142e-05
3.84922e-05
7.75124e-05
3.26753e-05
7.10092e-06
1.02824e-05
5.2192e-05
0.000152686
0.000157635
0.000118803
7.87588e-05
5.62645e-05
4.81163e-05
4.91573e-05
5.67839e-05
7.00154e-05
8.87079e-05
0.000112919
0.000141599
0.000170067
0.000188031
0.000182933
0.000151647
0.000107833
7.02277e-05
4.79633e-05
4.13047e-05
4.82642e-05
6.19049e-05
7.02978e-05
6.88166e-05
5.98516e-05
4.7209e-05
3.5047e-05
2.72111e-05
2.71056e-05
4.12267e-05
7.69803e-05
3.10809e-05
6.91013e-06
1.04095e-05
5.58638e-05
0.000158654
0.000156565
0.000114843
7.63198e-05
5.58457e-05
4.90626e-05
5.11448e-05
5.96013e-05
7.34073e-05
9.24909e-05
0.000117087
0.000146488
0.000176973
0.000199866
0.000202974
0.000179279
0.000136381
9.19484e-05
5.96207e-05
4.318e-05
4.13098e-05
5.04048e-05
6.05872e-05
6.32535e-05
5.83987e-05
4.90275e-05
3.86237e-05
3.12156e-05
3.10588e-05
4.49499e-05
7.76899e-05
3.14934e-05
6.83128e-06
1.04916e-05
5.95685e-05
0.000163261
0.000154454
0.000111008
7.43126e-05
5.55477e-05
4.99255e-05
5.31315e-05
6.26853e-05
7.71994e-05
9.64186e-05
0.000120686
0.000149639
0.000180484
0.000206289
0.000216289
0.000201622
0.000164175
0.000117416
7.66783e-05
5.02621e-05
3.89292e-05
4.06224e-05
4.97943e-05
5.63451e-05
5.57653e-05
5.00457e-05
4.23125e-05
3.62107e-05
3.65058e-05
5.03264e-05
8.06208e-05
3.29905e-05
6.81676e-06
1.04285e-05
6.14179e-05
0.000165082
0.000152328
0.000108361
7.34538e-05
5.57813e-05
5.06389e-05
5.45222e-05
6.51626e-05
8.05942e-05
9.99766e-05
0.000123606
0.00015151
0.000181776
0.000209038
0.000224251
0.000218284
0.000189014
0.000144693
9.9094e-05
6.36306e-05
4.28068e-05
3.58126e-05
3.96318e-05
4.71315e-05
5.05174e-05
4.87774e-05
4.45151e-05
4.09021e-05
4.2583e-05
5.66183e-05
8.39194e-05
3.43802e-05
6.80062e-06
1.03006e-05
6.07917e-05
0.000166057
0.000151725
0.00010729
7.40828e-05
5.69188e-05
5.09566e-05
5.39286e-05
6.4625e-05
8.10759e-05
0.000101468
0.000125406
0.000153039
0.000183219
0.000211828
0.000231211
0.000232578
0.000211556
0.000172175
0.000125142
8.25573e-05
5.25398e-05
3.68934e-05
3.36568e-05
3.85447e-05
4.39445e-05
4.53613e-05
4.41136e-05
4.32941e-05
4.70373e-05
6.14548e-05
8.53125e-05
3.49393e-05
6.76433e-06
1.0158e-05
5.8257e-05
0.000165558
0.000147496
0.000101232
7.23679e-05
5.83694e-05
5.22563e-05
5.33389e-05
6.25638e-05
7.92674e-05
0.000101275
0.000126961
0.000155896
0.00018732
0.000218024
0.000241285
0.000248644
0.000234653
0.000200707
0.00015446
0.000106754
6.78599e-05
4.31157e-05
3.21616e-05
3.1977e-05
3.70111e-05
4.0813e-05
4.20024e-05
4.33124e-05
4.88796e-05
6.38299e-05
8.47975e-05
3.44735e-05
6.77204e-06
1.01473e-05
5.5491e-05
0.000162502
0.00013426
8.59483e-05
6.46003e-05
5.78076e-05
5.46185e-05
5.45576e-05
6.14379e-05
7.70986e-05
0.00010043
0.000128957
0.000160899
0.000195052
0.000228575
0.000255293
0.000267
0.000258023
0.000228819
0.00018504
0.000135114
8.8932e-05
5.48442e-05
3.55333e-05
2.88716e-05
3.08217e-05
3.54084e-05
3.87356e-05
4.19311e-05
4.89865e-05
6.46097e-05
8.36778e-05
3.34576e-05
6.77471e-06
1.02749e-05
5.39216e-05
0.000156458
0.000110261
6.50936e-05
5.2577e-05
5.4268e-05
5.76743e-05
5.94736e-05
6.49534e-05
7.89538e-05
0.000102335
0.000132858
0.000167616
0.000204347
0.000239939
0.000268451
0.000282147
0.000275931
0.000250419
0.000210378
0.000162002
0.000112738
7.12656e-05
4.36286e-05
2.9996e-05
2.7157e-05
3.03205e-05
3.47172e-05
3.95877e-05
4.8126e-05
6.46515e-05
8.27614e-05
3.25802e-05
6.75789e-06
1.04795e-05
5.45414e-05
0.00014745
8.3802e-05
4.82128e-05
4.28747e-05
5.05487e-05
6.04458e-05
6.66066e-05
7.29885e-05
8.60485e-05
0.000108312
0.000138147
0.000172272
0.000207785
0.000241531
0.000268479
0.00028236
0.000279011
0.000258674
0.000224775
0.000181603
0.000134145
8.9421e-05
5.51176e-05
3.47557e-05
2.66704e-05
2.69522e-05
3.09113e-05
3.65055e-05
4.6061e-05
6.36491e-05
8.21699e-05
3.21654e-05
6.78121e-06
1.05658e-05
5.68767e-05
0.000132072
6.54989e-05
3.89665e-05
3.77063e-05
4.88329e-05
6.32978e-05
7.38596e-05
8.24536e-05
9.49738e-05
0.00011443
0.000139962
0.000169036
0.000199277
0.000228137
0.000251828
0.000265684
0.00026621
0.000252753
0.000226993
0.000191448
0.000149204
0.000105299
6.72511e-05
4.12898e-05
2.82611e-05
2.53129e-05
2.82091e-05
3.38827e-05
4.38816e-05
6.2459e-05
8.21126e-05
3.18578e-05
6.80489e-06
1.03982e-05
5.70408e-05
0.000123817
6.61476e-05
3.90742e-05
3.50329e-05
4.34041e-05
5.83269e-05
7.32061e-05
8.57358e-05
9.88253e-05
0.000115361
0.000135685
0.000158624
0.000182798
0.000206565
0.000227311
0.000241486
0.000245905
0.000239148
0.000221551
0.000194259
0.000158849
0.000118424
7.921e-05
4.88771e-05
3.11325e-05
2.46398e-05
2.60778e-05
3.20215e-05
4.27434e-05
6.23206e-05
8.23976e-05
3.12775e-05
6.76907e-06
1.00533e-05
5.27215e-05
0.000132443
9.73717e-05
5.34569e-05
3.52485e-05
3.31418e-05
4.12582e-05
5.68288e-05
7.55234e-05
9.36581e-05
0.000111336
0.000129884
0.000149657
0.000170209
0.000190577
0.000208918
0.000222476
0.000228561
0.000225682
0.00021373
0.000193267
0.000164955
0.00013007
9.23998e-05
5.91239e-05
3.65569e-05
2.57071e-05
2.4382e-05
2.98989e-05
4.16332e-05
6.23192e-05
8.21393e-05
3.0697e-05
6.70192e-06
9.741e-06
4.74709e-05
0.000132627
0.000140063
9.46789e-05
5.00579e-05
3.1704e-05
2.82285e-05
3.46896e-05
5.09932e-05
7.49663e-05
0.000100553
0.000123888
0.000145093
0.000165207
0.000184411
0.000201596
0.000214554
0.000220907
0.000219273
0.000209647
0.000192802
0.000169464
0.000140157
0.000106398
7.27068e-05
4.59218e-05
3.006e-05
2.45495e-05
2.75623e-05
3.87001e-05
5.98948e-05
8.07134e-05
3.05123e-05
6.68368e-06
9.70125e-06
4.57693e-05
0.000138069
0.00016133
0.000134423
8.78897e-05
4.91225e-05
3.04123e-05
2.54389e-05
3.11022e-05
4.87151e-05
7.8347e-05
0.000113231
0.000145039
0.000171117
0.000192397
0.000209597
0.000221783
0.000227139
0.000224465
0.000213969
0.000196835
0.000174354
0.000147511
0.000117228
8.56119e-05
5.72528e-05
3.72741e-05
2.7411e-05
2.6769e-05
3.53141e-05
5.55266e-05
7.89116e-05
3.06576e-05
6.74524e-06
1.01102e-05
4.78265e-05
0.000149974
0.000158015
0.00011308
8.64717e-05
7.08134e-05
4.70761e-05
2.97571e-05
2.58002e-05
3.43348e-05
5.77213e-05
9.68934e-05
0.000143311
0.000184077
0.00021328
0.000231798
0.000241656
0.000243448
0.000237105
0.000223153
0.000202892
0.000177973
0.00015002
0.000120558
9.12647e-05
6.4576e-05
4.38312e-05
3.15111e-05
2.80849e-05
3.42571e-05
5.34326e-05
7.89523e-05
3.06708e-05
6.82833e-06
1.0864e-05
5.39166e-05
0.000158376
0.000137497
7.98055e-05
5.69226e-05
5.62388e-05
5.64495e-05
4.07787e-05
2.97611e-05
3.27063e-05
5.17731e-05
9.06414e-05
0.000144844
0.000196621
0.000231151
0.0002478
0.000252645
0.000249743
0.000240093
0.000223823
0.000201592
0.000174749
0.000145189
0.000115339
8.77652e-05
6.43872e-05
4.64041e-05
3.49172e-05
3.10101e-05
3.66223e-05
5.62634e-05
8.19868e-05
3.02125e-05
6.85107e-06
1.13791e-05
6.46617e-05
0.000162687
0.000103158
5.79626e-05
4.47026e-05
4.62669e-05
5.08866e-05
4.54815e-05
3.68281e-05
3.9124e-05
5.87984e-05
9.84047e-05
0.000149192
0.00019277
0.000218644
0.000229521
0.000231949
0.000229317
0.000221655
0.000207965
0.000187961
0.000162503
0.000133664
0.000104735
7.93364e-05
5.96149e-05
4.5702e-05
3.72559e-05
3.50887e-05
4.21024e-05
6.31906e-05
8.5492e-05
2.93034e-05
6.77645e-06
1.12813e-05
7.46196e-05
0.000139492
7.06431e-05
4.42761e-05
4.16787e-05
4.74379e-05
5.00865e-05
4.65764e-05
4.35071e-05
4.95491e-05
7.08306e-05
0.000105822
0.000142652
0.000170396
0.000186447
0.000194056
0.00019705
0.000197041
0.00019332
0.000184223
0.000168674
0.000146969
0.000121094
9.46952e-05
7.18732e-05
5.5058e-05
4.4337e-05
3.89779e-05
3.94385e-05
4.86935e-05
7.04119e-05
8.64942e-05
2.82556e-05
6.64145e-06
1.08314e-05
7.3368e-05
0.000126669
6.53463e-05
4.19737e-05
3.99055e-05
4.59233e-05
4.90251e-05
4.76742e-05
4.8303e-05
5.69204e-05
7.69346e-05
0.000105245
0.000132601
0.000152216
0.000163284
0.000168549
0.000170967
0.000171781
0.000170256
0.000164543
0.000153041
0.000135405
0.000113117
8.95229e-05
6.86967e-05
5.33788e-05
4.41214e-05
4.04839e-05
4.2861e-05
5.36963e-05
7.46158e-05
8.54136e-05
2.75004e-05
6.51445e-06
1.05319e-05
6.62152e-05
0.000139985
8.82653e-05
4.92671e-05
3.64319e-05
3.72961e-05
4.29616e-05
4.64751e-05
4.93544e-05
5.77867e-05
7.55711e-05
0.000100739
0.000125496
0.000142921
0.000151842
0.00015511
0.000155992
0.000156145
0.000155247
0.000151589
0.000143277
0.000129322
0.000110445
8.93281e-05
6.97913e-05
5.49043e-05
4.58075e-05
4.24932e-05
4.54572e-05
5.67091e-05
7.65884e-05
8.51536e-05
2.74346e-05
6.41987e-06
1.04244e-05