/*--------------------------------*- C++ -*----------------------------------*\
| =========                 |                                                 |
| \\      /  F ield         | OpenFOAM: The Open Source CFD Toolbox           |
|  \\    /   O peration     | Version:  v2006                                 |
|   \\  /    A nd           | Website:  www.openfoam.com                      |
|    \\/     M anipulation  |                                                 |
\*---------------------------------------------------------------------------*/
FoamFile
{
    version     2.0;
    format      ascii;
    class       volScalarField;
    location    "65";
    object      nut;
}
// * * * * * * * * * * * * * * * * * * * * * * * * * * * * * * * * * * * * * //

dimensions      [0 2 -1 0 0 0 0];


internalField   nonuniform List<scalar> 
78750
(
0.000522896
0.00103978
0.000630888
4.34615e-06
5.65571e-05
1.8792e-05
4.48705e-05
3.05063e-05
4.51271e-05
4.1949e-05
4.66835e-05
4.97178e-05
5.16792e-05
5.42267e-05
5.61969e-05
5.80091e-05
5.95665e-05
6.08928e-05
6.19846e-05
6.28256e-05
6.33838e-05
6.3609e-05
6.34396e-05
6.28198e-05
6.17298e-05
6.02057e-05
5.83164e-05
5.61343e-05
5.36852e-05
5.0847e-05
4.71801e-05
4.17043e-05
3.11714e-05
8.65542e-06
2.40951e-07
1.68458e-05
5.89809e-05
1.61572e-05
4.71805e-05
4.09982e-05
5.31019e-05
6.69284e-05
8.22204e-05
9.89229e-05
0.000114548
0.000132192
0.00014552
0.000157379
0.000166645
0.000174619
0.000182087
0.000189771
0.000198132
0.000207169
0.000216394
0.000224842
0.000231189
0.000234116
0.000232913
0.000227748
0.000219498
0.000209422
0.000198257
0.000185619
0.000170385
0.000148526
0.00010977
5.36677e-05
1.83379e-05
1.77963e-06
3.44313e-07
1.49841e-05
3.3093e-05
3.56153e-05
4.23803e-05
5.9174e-05
9.13045e-05
0.000134058
0.000178569
0.000194776
0.000199947
0.00020429
0.000207898
0.000210889
0.000213368
0.000215415
0.000217075
0.000218393
0.000219412
0.000216899
0.000211078
0.000205664
0.000200317
0.000194691
0.000188387
0.000180559
0.000170491
0.000158218
0.00014432
0.000128206
0.000105449
7.04269e-05
3.50828e-05
1.75653e-05
2.83743e-06
3.42458e-07
9.32799e-06
1.48395e-05
2.05756e-05
3.67702e-05
7.17015e-05
0.000110043
0.000134927
0.000157928
0.00019393
0.000222348
0.000224203
0.000225608
0.000226789
0.00022792
0.000229091
0.000230269
0.000231314
0.000229312
0.000201345
0.000176905
0.000157014
0.000140842
0.000127708
0.000116871
0.000107883
0.00010046
9.42462e-05
8.85694e-05
8.19148e-05
7.0828e-05
5.07113e-05
2.80366e-05
1.65245e-05
3.02295e-06
9.0887e-07
2.62155e-05
4.99169e-05
5.44174e-05
5.08302e-05
5.67197e-05
7.38194e-05
8.6835e-05
8.6465e-05
8.21139e-05
8.47034e-05
9.93327e-05
0.000123365
0.000149999
0.000172773
0.000182864
0.000177588
0.000163557
0.000147539
0.000132627
0.000119616
0.000108441
9.89538e-05
9.10187e-05
8.45068e-05
7.92452e-05
7.49907e-05
7.13938e-05
6.78505e-05
6.30677e-05
5.46359e-05
4.10988e-05
2.80878e-05
2.43985e-05
4.38253e-06
2.70829e-06
2.81027e-05
1.98706e-05
1.33393e-05
1.5797e-05
3.78662e-05
9.97514e-05
0.000130312
0.000126096
0.000113665
0.000102193
9.64282e-05
9.74711e-05
0.000104517
0.000115232
0.000125862
0.000132904
0.000134909
0.0001324
0.000126793
0.000119512
0.000111628
0.000103832
9.65319e-05
8.99127e-05
8.39848e-05
7.862e-05
7.34924e-05
6.78635e-05
6.03087e-05
4.87977e-05
3.32138e-05
2.03331e-05
1.91839e-05
4.18867e-06
4.79242e-06
1.8739e-05
1.09183e-05
1.90567e-05
2.45819e-05
5.16223e-05
8.32863e-05
0.000134779
0.000222305
0.000169733
0.000129779
0.000116046
0.000117257
0.000126165
0.00013528
0.000138551
0.000136577
0.000131933
0.000125929
0.000118971
0.000111374
0.000103569
9.59682e-05
8.88869e-05
8.25232e-05
7.69453e-05
7.20954e-05
6.77716e-05
6.35265e-05
5.82325e-05
4.8758e-05
3.22516e-05
1.94855e-05
2.04464e-05
5.57545e-06
1.81098e-06
8.57503e-06
2.68241e-05
3.95518e-05
5.38523e-05
7.47873e-05
7.14533e-05
5.47033e-05
4.77014e-05
5.30469e-05
6.73586e-05
8.18611e-05
8.01711e-05
7.54557e-05
8.87571e-05
0.00012219
0.000148928
0.00014425
0.000128306
0.000114708
0.000104472
9.61922e-05
8.9049e-05
8.25986e-05
7.65561e-05
7.07137e-05
6.48578e-05
5.87003e-05
5.19032e-05
4.42943e-05
3.62366e-05
2.91503e-05
2.6855e-05
4.00544e-05
6.39421e-06
2.6958e-06
1.74076e-05
1.70492e-05
2.28782e-05
4.39567e-05
6.66116e-05
6.88411e-05
6.89384e-05
7.31428e-05
7.47779e-05
7.56055e-05
7.72243e-05
7.84961e-05
7.7389e-05
7.63957e-05
8.25282e-05
9.96074e-05
0.000126557
0.000157146
0.000177739
0.000176108
0.000156269
0.000131356
0.000109655
9.24891e-05
7.84175e-05
6.58894e-05
5.38941e-05
4.22836e-05
3.19579e-05
2.42296e-05
2.04624e-05
2.47511e-05
5.36635e-05
6.16988e-06
2.79419e-06
1.88695e-05
2.94631e-05
4.59967e-05
6.95859e-05
8.36183e-05
9.87036e-05
0.000127398
0.000166896
0.000189179
0.000182446
0.000159933
0.000139819
0.000134701
0.000150587
0.000187653
0.000229315
0.000242502
0.000215508
0.000174896
0.000148139
0.000134719
0.000127697
0.000122472
0.000116237
0.000108019
9.78185e-05
8.52563e-05
6.89788e-05
4.85539e-05
2.91865e-05
1.74829e-05
1.55605e-05
3.46323e-05
6.68643e-06
2.64418e-06
3.2279e-05
5.26489e-05
4.71103e-05
3.59924e-05
3.53777e-05
4.8715e-05
9.08805e-05
0.000144254
0.000155102
0.000138694
0.00010816
7.95523e-05
6.29721e-05
5.66171e-05
5.6111e-05
6.15141e-05
7.94312e-05
0.000121041
0.000171977
0.000188978
0.000171996
0.000139723
0.00011193
9.46612e-05
8.47329e-05
7.85184e-05
7.29766e-05
6.50197e-05
5.11232e-05
3.25901e-05
1.94779e-05
1.78261e-05
3.78037e-05
7.86666e-06
6.78533e-06
1.21595e-05
2.80484e-05
5.46516e-05
8.41248e-05
0.000132887
0.00017549
0.000203181
0.000213182
0.000183146
0.000136326
0.000101019
8.58142e-05
8.89618e-05
9.85848e-05
6.99282e-05
3.27659e-05
1.97729e-05
2.23949e-05
4.05971e-05
5.61129e-05
7.42683e-05
8.28039e-05
9.57605e-05
9.57678e-05
7.96601e-05
6.51434e-05
5.76096e-05
5.34132e-05
4.80449e-05
3.94041e-05
3.08892e-05
3.1763e-05
4.39388e-05
7.72491e-06
9.20207e-06
2.21451e-05
3.33451e-05
5.50474e-05
5.81339e-05
5.56916e-05
5.24451e-05
4.98464e-05
4.85048e-05
4.83172e-05
4.89319e-05
4.98895e-05
4.99396e-05
4.78496e-05
4.25343e-05
3.64718e-05
3.23787e-05
2.32769e-05
1.67535e-05
2.10028e-05
3.8222e-05
5.04114e-05
2.92004e-05
2.10016e-05
3.11167e-05
6.3544e-05
8.22102e-05
6.77835e-05
4.7562e-05
3.38752e-05
2.73116e-05
2.73796e-05
3.82535e-05
4.4421e-05
6.66566e-06
6.93106e-06
5.67149e-05
3.56739e-05
3.76837e-05
3.96367e-05
4.0336e-05
4.05373e-05
4.04817e-05
4.03908e-05
4.03866e-05
4.02907e-05
4.00382e-05
3.98183e-05
3.93886e-05
3.85397e-05
3.68773e-05
3.48937e-05
3.1844e-05
2.82711e-05
2.69222e-05
2.60097e-05
2.50208e-05
2.0514e-05
1.61837e-05
1.75903e-05
2.94768e-05
5.18888e-05
5.63125e-05
6.16325e-05
6.15563e-05
4.51564e-05
2.97034e-05
2.93107e-05
5.2609e-05
6.16727e-06
1.99437e-06
1.20869e-05
1.9693e-05
2.89354e-05
3.78212e-05
4.53195e-05
5.12114e-05
5.56631e-05
5.89765e-05
6.15992e-05
6.31995e-05
6.35816e-05
6.53294e-05
6.86967e-05
6.9709e-05
6.80445e-05
6.4764e-05
5.98852e-05
5.57166e-05
5.14292e-05
4.87716e-05
4.82834e-05
4.22143e-05
3.30891e-05
2.61578e-05
2.20176e-05
2.13967e-05
2.50991e-05
3.42546e-05
5.16769e-05
7.53633e-05
6.66151e-05
3.56442e-05
3.53842e-05
7.25846e-06
3.9082e-06
2.12703e-05
5.08668e-05
7.66583e-05
9.03472e-05
9.84927e-05
0.000104461
0.000108773
0.00011017
0.000102287
7.62768e-05
4.8512e-05
3.37195e-05
3.09125e-05
3.88541e-05
5.74036e-05
7.63296e-05
7.80743e-05
6.6228e-05
5.13919e-05
4.23389e-05
3.87431e-05
3.42372e-05
2.95494e-05
2.57418e-05
2.21488e-05
2.42702e-05
3.18088e-05
4.04582e-05
5.13695e-05
6.54418e-05
5.78635e-05
3.61844e-05
4.10272e-05
8.94977e-06
4.73378e-06
3.02797e-05
8.19587e-05
0.00011146
0.000118267
0.000115936
0.000112811
0.000108861
9.61104e-05
7.22205e-05
5.12959e-05
4.38361e-05
5.17978e-05
7.34507e-05
9.06471e-05
8.52991e-05
6.78168e-05
4.84101e-05
3.17164e-05
1.9765e-05
1.27148e-05
1.00817e-05
1.18912e-05
1.86937e-05
2.70281e-05
5.41111e-05
0.000138968
0.000134674
8.91696e-05
6.69123e-05
6.23937e-05
5.62605e-05
4.88774e-05
5.66608e-05
9.85878e-06
5.91615e-06
3.22392e-05
9.99757e-05
0.000111162
8.92781e-05
7.75718e-05
7.99355e-05
9.44084e-05
0.000113144
0.000108966
6.63088e-05
3.73782e-05
3.02808e-05
4.17032e-05
7.88835e-05
0.000127045
0.000112767
6.29076e-05
3.02957e-05
1.3478e-05
4.55897e-06
1.14068e-06
1.99054e-06
5.71089e-06
1.44373e-05
3.19911e-05
9.00094e-05
0.000119243
7.63817e-05
5.71033e-05
5.10996e-05
5.05317e-05
5.51808e-05
4.88936e-05
9.77658e-06
6.51948e-06
4.70965e-05
0.000128284
6.79939e-05
4.8038e-05
5.06878e-05
6.07977e-05
6.70074e-05
6.43838e-05
5.67146e-05
5.32318e-05
6.57983e-05
0.000113143
0.000204168
0.000224195
0.000224546
0.000175258
9.4066e-05
4.53552e-05
1.9664e-05
5.9557e-06
1.45681e-06
1.31458e-06
2.14717e-06
3.82036e-06
1.16677e-05
2.43182e-05
5.0348e-05
8.69431e-05
7.07346e-05
5.02951e-05
4.7893e-05
6.19159e-05
3.70766e-05
8.9061e-06
6.77029e-06
4.88049e-05
9.14589e-05
3.97223e-05
3.53535e-05
5.30132e-05
8.28861e-05
9.99503e-05
9.00317e-05
6.72574e-05
5.05872e-05
4.90483e-05
7.09421e-05
0.000122126
0.000177047
0.000205525
0.000195683
0.000152855
9.80786e-05
5.28598e-05
2.39421e-05
7.87786e-06
6.79152e-08
1.75682e-06
1.64735e-06
1.83318e-06
4.77815e-06
1.12494e-05
2.48179e-05
5.04739e-05
6.67424e-05
6.23492e-05
6.86096e-05
3.17414e-05
7.91296e-06
6.92826e-06
5.85745e-05
4.49495e-05
2.0562e-05
2.3116e-05
4.10965e-05
5.92134e-05
6.65135e-05
7.10642e-05
8.21468e-05
0.000105413
0.000134912
0.00015285
0.000158935
0.000162366
0.00016712
0.000171106
0.000167763
0.000149842
0.000116633
7.67501e-05
4.21366e-05
1.88037e-05
5.50567e-06
1.54627e-06
1.8267e-07
3.70104e-07
1.81358e-06
3.1967e-06
1.02472e-05
2.71253e-05
4.17557e-05
4.66354e-05
2.85874e-05
7.96149e-06
6.49744e-06
4.34156e-05
4.52265e-05
1.82567e-05
1.69283e-05
3.08056e-05
5.27842e-05
6.79107e-05
8.08595e-05
9.74388e-05
0.00011436
0.000126456
0.000132652
0.00013421
0.000132348
0.000128732
0.000125746
0.000125335
0.00012785
0.000130429
0.000126139
0.000108795
7.9927e-05
4.87114e-05
2.35717e-05
6.95274e-06
1.84624e-06
1.7412e-07
2.60862e-07
2.87517e-08
3.72173e-06
1.73008e-05
2.9004e-05
2.47032e-05
8.55753e-06
6.29637e-06
2.95834e-05
7.73858e-05
2.88782e-05
1.11152e-05
1.01454e-05
2.00621e-05
4.37783e-05
7.28474e-05
9.75926e-05
0.000120182
0.000140722
0.000154807
0.00015888
0.000153756
0.00014275
0.000129243
0.000115967
0.000105214
9.92494e-05
9.98461e-05
0.000105753
0.000109797
0.000102545
8.16789e-05
5.27706e-05
2.50277e-05
6.42555e-06
1.68444e-06
1.88375e-06
7.8961e-07
1.84261e-06
2.91072e-05
2.18693e-05
8.27157e-06
6.35517e-06
2.77702e-05
8.08112e-05
6.4126e-05
2.07507e-05
8.1448e-06
7.37051e-06
1.58529e-05
4.16344e-05
9.04346e-05
0.00014194
0.000174205
0.000185816
0.000184286
0.000176768
0.00016621
0.000152856
0.000136602
0.000117992
9.85937e-05
8.14001e-05
7.12153e-05
7.11579e-05
7.78404e-05
8.12533e-05
7.42062e-05
5.81495e-05
3.79538e-05
1.99976e-05
8.16098e-06
1.42836e-06
1.56921e-06
4.6531e-06
1.80403e-05
8.16149e-06
6.55724e-06
2.95748e-05
8.70814e-05
9.94428e-05
5.34959e-05
1.73448e-05
7.22892e-06
6.9062e-06
1.52712e-05
4.05261e-05
9.09423e-05
0.00014973
0.000186737
0.000197008
0.000193333
0.000184596
0.000173304
0.000159971
0.000144586
0.00012628
0.000103463
7.65215e-05
5.57288e-05
5.18288e-05
6.25261e-05
7.61056e-05
7.76362e-05
6.64984e-05
4.85289e-05
2.83815e-05
1.10587e-05
1.47287e-06
3.49874e-06
4.18935e-05
9.99214e-06
6.71882e-06
3.11689e-05
9.47008e-05
0.000116788
9.93695e-05
4.70217e-05
1.68446e-05
7.72395e-06
7.03712e-06
1.46761e-05
3.97224e-05
9.21359e-05
0.000147544
0.000173536
0.000178722
0.000176921
0.000170921
0.000159588
0.000143302
0.000125795
0.000110595
9.4038e-05
6.06065e-05
3.39885e-05
3.2293e-05
4.91893e-05
7.75203e-05
7.71316e-05
5.78118e-05
3.17694e-05
1.09983e-05
3.66767e-06
9.5466e-06
3.8413e-05
1.01258e-05
6.72639e-06
2.9486e-05
8.99219e-05
0.00012149
0.000119286
0.00010237
5.32971e-05
2.11247e-05
9.93627e-06
7.20646e-06
1.1432e-05
2.80082e-05
6.39014e-05
0.000104611
0.000124635
0.000128261
0.000126392
0.000122198
0.000114519
0.000101891
8.58132e-05
7.05185e-05
5.84427e-05
4.26325e-05
2.43344e-05
1.9368e-05
2.29995e-05
3.30115e-05
4.35292e-05
4.03009e-05
3.22189e-05
1.84504e-05
1.28776e-05
4.03944e-05
8.35471e-06
6.75137e-06
2.79471e-05
8.64646e-05
0.000117981
0.000110487
9.82914e-05
9.01839e-05
6.14675e-05
2.80426e-05
1.30749e-05
8.34491e-06
1.12237e-05
2.4723e-05
5.28253e-05
8.42654e-05
9.86263e-05
9.88045e-05
9.44715e-05
8.92742e-05
8.39903e-05
7.80284e-05
7.0388e-05
6.04219e-05
4.87632e-05
3.80795e-05
2.88471e-05
2.33206e-05
2.05077e-05
2.03141e-05
2.15271e-05
3.64169e-05
2.03121e-05
2.0391e-05
9.46046e-06
9.73223e-06
6.85955e-06
2.68947e-05
7.84767e-05
0.000108565
0.000100963
8.1593e-05
6.67191e-05
6.39016e-05
5.6817e-05
2.94137e-05
1.33232e-05
9.4263e-06
1.47854e-05
3.23367e-05
5.90779e-05
7.57767e-05
7.91621e-05
7.74098e-05
7.39816e-05
7.01663e-05
6.69723e-05
6.31239e-05
5.66995e-05
5.23637e-05
5.11546e-05
3.88624e-05
3.43541e-05
3.23703e-05
2.49624e-05
2.09315e-05
1.72417e-05
5.31841e-06
5.95437e-07
1.05612e-05
1.41452e-05
7.0794e-06
2.81736e-05
8.04288e-05
0.000107253
9.98293e-05
7.80711e-05
5.56932e-05
4.54107e-05
4.68024e-05
3.9762e-05
1.87222e-05
1.0183e-05
1.54619e-05
3.99587e-05
6.67246e-05
7.05058e-05
6.74646e-05
6.45775e-05
6.26857e-05
6.21384e-05
6.43221e-05
6.98515e-05
5.41209e-05
4.73048e-05
3.63345e-05
2.79538e-05
2.77282e-05
2.27036e-05
1.6558e-05
1.33794e-05
1.41752e-05
1.95841e-05
3.67829e-05
0.000110403
1.36462e-05
7.22999e-06
3.06148e-05
8.9872e-05
0.00011213
9.95585e-05
7.29811e-05
4.86929e-05
3.56167e-05
3.18736e-05
2.92622e-05
1.6771e-05
9.90233e-06
2.58818e-05
9.20221e-05
9.52642e-05
8.78963e-05
8.21541e-05
7.92344e-05
7.95795e-05
7.25353e-05
4.80634e-05
3.05356e-05
2.65647e-05
3.11528e-05
3.56022e-05
2.67954e-05
2.27571e-05
2.46307e-05
2.83638e-05
3.54647e-05
5.13602e-05
8.11378e-05
6.87384e-05
2.71474e-05
8.95415e-06
7.312e-06
3.49054e-05
0.000103486
0.000110101
8.41047e-05
5.57762e-05
3.82107e-05
2.7854e-05
2.16394e-05
1.75869e-05
1.28044e-05
1.27856e-05
5.45177e-05
0.000106157
0.000167604
0.000201494
0.000178162
8.6525e-05
4.04297e-05
2.63912e-05
2.3527e-05
2.65826e-05
3.79301e-05
5.40837e-05
3.53344e-05
2.45888e-05
2.65631e-05
3.62772e-05
4.93506e-05
6.68853e-05
8.54123e-05
7.27394e-05
3.62703e-05
1.61241e-05
4.95906e-06
7.21297e-06
3.84478e-05
0.000106518
9.83394e-05
6.73071e-05
4.19535e-05
2.84802e-05
2.08562e-05
1.50477e-05
1.17841e-05
1.23414e-05
2.23622e-05
6.45049e-05
8.98814e-05
0.000115609
0.000118715
8.39164e-05
4.73262e-05
3.0892e-05
2.53049e-05
2.49486e-05
2.87688e-05
3.87905e-05
5.1818e-05
4.95365e-05
4.3589e-05
4.43657e-05
5.15623e-05
6.23622e-05
7.49514e-05
8.2211e-05
6.55843e-05
3.48242e-05
1.76385e-05
4.75919e-06
7.00077e-06
4.02019e-05
0.00010249
9.27971e-05
6.42106e-05
3.88998e-05
2.36527e-05
1.54232e-05
1.1018e-05
9.45137e-06
1.25848e-05
2.85026e-05
6.41829e-05
7.84315e-05
7.82259e-05
7.63225e-05
6.89901e-05
5.32179e-05
3.75715e-05
2.88765e-05
2.64917e-05
2.86548e-05
3.45775e-05
4.22073e-05
4.75693e-05
5.13034e-05
5.65574e-05
6.43358e-05
7.34842e-05
8.11019e-05
8.17791e-05
6.68436e-05
4.15298e-05
2.40244e-05
6.27684e-06
6.89093e-06
4.17294e-05
0.0001063
9.74342e-05
7.04064e-05
4.47483e-05
2.71377e-05
1.61664e-05
9.98708e-06
8.08583e-06
1.15069e-05
2.56322e-05
5.4929e-05
6.93018e-05
6.9119e-05
6.8443e-05
6.73706e-05
6.3525e-05
5.53544e-05
4.44491e-05
3.56964e-05
3.18084e-05
3.2231e-05
3.53206e-05
3.94122e-05
4.40921e-05
5.01922e-05
5.87728e-05
7.0429e-05
8.29433e-05
8.88326e-05
8.05405e-05
5.94153e-05
3.26364e-05
7.29364e-06
6.81383e-06
4.05419e-05
0.000113752
0.000112835
8.66036e-05
5.8162e-05
3.76669e-05
2.37995e-05
1.39874e-05
8.02427e-06
7.1934e-06
1.51674e-05
3.88108e-05
6.13701e-05
6.81264e-05
7.03597e-05
7.15564e-05
7.15387e-05
6.97148e-05
6.55367e-05
5.89095e-05
5.12561e-05
4.49841e-05
4.12334e-05
3.971e-05
4.00233e-05
4.22339e-05
4.67077e-05
5.42821e-05
6.64721e-05
8.3911e-05
9.93351e-05
9.40335e-05
4.08449e-05
7.5664e-06
6.83577e-06
4.07234e-05
0.000123717
0.00012683
9.87985e-05
7.07697e-05
5.15386e-05
3.78086e-05
2.5852e-05
1.51883e-05
7.87898e-06
6.4413e-06
1.59006e-05
4.27218e-05
6.41826e-05
7.31768e-05
7.78683e-05
8.07049e-05
8.17476e-05
8.09727e-05
7.8415e-05
7.4146e-05
6.84862e-05
6.21678e-05
5.6064e-05
5.08644e-05
4.70355e-05
4.48956e-05
4.48141e-05
4.79232e-05
5.76567e-05
7.95668e-05
0.000106391
4.6636e-05
7.49828e-06
6.90162e-06
4.02092e-05
0.000129802
0.000137353
0.000104928
7.3497e-05
5.55669e-05
4.61008e-05
3.85302e-05
2.8918e-05
1.7591e-05
8.85515e-06
6.39551e-06
1.52149e-05
4.27239e-05
6.97896e-05
8.26634e-05
8.89429e-05
9.22042e-05
9.31274e-05
9.19803e-05
8.90171e-05
8.45039e-05
7.8749e-05
7.21229e-05
6.50508e-05
5.80018e-05
5.14487e-05
4.57949e-05
4.19342e-05
4.25729e-05
5.30194e-05
7.6119e-05
4.46947e-05
7.40189e-06
7.05327e-06
4.10864e-05
0.000131461
0.000137817
0.000102255
7.02466e-05
5.44909e-05
4.88054e-05
4.61163e-05
4.13656e-05
3.19296e-05
1.9386e-05
9.89849e-06
7.32006e-06
1.6254e-05
4.43007e-05
7.34658e-05
8.76444e-05
9.41294e-05
9.70291e-05
9.71983e-05
9.50219e-05
9.08153e-05
8.48812e-05
7.75681e-05
6.93775e-05
6.09413e-05
5.28651e-05
4.58949e-05
4.07814e-05
3.92703e-05
4.55289e-05
6.3375e-05
4.00934e-05
7.33204e-06
7.17097e-06
4.21541e-05
0.000131282
0.000131711
9.41668e-05
6.34029e-05
4.97075e-05
4.66964e-05
4.81635e-05
4.84781e-05
4.34506e-05
3.21064e-05
1.87495e-05
1.01208e-05
9.02533e-06
2.0652e-05
5.1354e-05
7.84228e-05
8.98249e-05
9.42208e-05
9.53432e-05
9.39475e-05
9.0316e-05
8.46463e-05
7.71319e-05
6.8115e-05
5.83341e-05
4.90623e-05
4.18023e-05
3.77318e-05
3.79746e-05
4.52633e-05
6.25625e-05
3.81937e-05
7.32278e-06
7.1817e-06
4.296e-05
0.000129716
0.000125851
8.87185e-05
6.0155e-05
4.79599e-05
4.61986e-05
4.98102e-05
5.36542e-05
5.23317e-05
4.33747e-05
2.9344e-05
1.67647e-05
1.03562e-05
1.20179e-05
2.72732e-05
5.65741e-05
7.78587e-05
8.65281e-05
8.94396e-05
8.93284e-05
8.68504e-05
8.22152e-05
7.5515e-05
6.68667e-05
5.67161e-05
4.63039e-05
3.77132e-05
3.30603e-05
3.40664e-05
4.35067e-05
6.3803e-05
3.81646e-05
7.35667e-06
7.05155e-06
4.13666e-05
0.000125258
0.000123242
8.83167e-05
5.9536e-05
4.62493e-05
4.36142e-05
4.75967e-05
5.4435e-05
5.84669e-05
5.42173e-05
4.14366e-05
2.62304e-05
1.54127e-05
1.15477e-05
1.67221e-05
3.53846e-05
6.08363e-05
7.61249e-05
8.19884e-05
8.33782e-05
8.21424e-05
7.87646e-05
7.33577e-05
6.59195e-05
5.65594e-05
4.60255e-05
3.62729e-05
3.00022e-05
2.97649e-05
3.92158e-05
6.31073e-05
3.89489e-05
7.40206e-06
6.92122e-06
3.88689e-05
0.000119917
0.000125366
9.54228e-05
6.48938e-05
4.80079e-05
4.23037e-05
4.40873e-05
5.09284e-05
5.91565e-05
6.24979e-05
5.55537e-05
4.01365e-05
2.47124e-05
1.56558e-05
1.42916e-05
2.27231e-05
4.24536e-05
6.31158e-05
7.41496e-05
7.79536e-05
7.80835e-05
7.58854e-05
7.17023e-05
6.55224e-05
5.72304e-05
4.70532e-05
3.64569e-05
2.84251e-05
2.6228e-05
3.40542e-05
6.00473e-05
4.0711e-05
7.48565e-06
6.83789e-06
3.63844e-05
0.000114194
0.000125119
9.85295e-05
6.79512e-05
4.92429e-05
4.13956e-05
4.0946e-05
4.62641e-05
5.59359e-05
6.59261e-05
6.86863e-05
5.86761e-05
4.04289e-05
2.48392e-05
1.73509e-05
1.85482e-05
3.00842e-05
5.00687e-05
6.65712e-05
7.38126e-05
7.51644e-05
7.34915e-05
6.98526e-05
6.44741e-05
5.72137e-05
4.78944e-05
3.72249e-05
2.79898e-05
2.41633e-05
3.03731e-05
5.67934e-05
4.28511e-05
7.5905e-06
6.86494e-06
3.5153e-05
0.000111186
0.00012479
9.92312e-05
6.9057e-05
5.0533e-05
4.23246e-05
4.06089e-05
4.39497e-05
5.22077e-05
6.42073e-05
7.49761e-05
7.5773e-05
6.18678e-05
4.12327e-05
2.60937e-05
2.04144e-05
2.43602e-05
3.84769e-05
5.73839e-05
6.99757e-05
7.40751e-05
7.31583e-05
6.95218e-05
6.39844e-05
5.6671e-05
4.74892e-05
3.69007e-05
2.72428e-05
2.25455e-05
2.75816e-05
5.35221e-05
4.49341e-05
7.7184e-06
6.91683e-06
3.45646e-05
0.000109038
0.000122495
9.58622e-05
6.52696e-05
4.79242e-05
4.13719e-05
4.08319e-05
4.42523e-05
5.17385e-05
6.3583e-05
7.75505e-05
8.65864e-05
8.1585e-05
6.20758e-05
4.02973e-05
2.71078e-05
2.43038e-05
3.19231e-05
4.84587e-05
6.47441e-05
7.24991e-05
7.29823e-05
6.95377e-05
6.3805e-05
5.61563e-05
4.65117e-05
3.54838e-05
2.57361e-05
2.11946e-05
2.63517e-05
5.31871e-05
4.51719e-05
7.82925e-06
6.98623e-06
3.45457e-05
0.00010782
0.000120467
9.40538e-05
6.32329e-05
4.59466e-05
4.00128e-05
4.05672e-05
4.4992e-05
5.27836e-05
6.45186e-05
7.96178e-05
9.35377e-05
9.71406e-05
8.37272e-05
5.94802e-05
3.86596e-05
2.85388e-05
2.94711e-05
4.10806e-05
5.82543e-05
7.01044e-05
7.27826e-05
6.93631e-05
6.2654e-05
5.38797e-05
4.35155e-05
3.25573e-05
2.36729e-05
2.02272e-05
2.66129e-05
5.60896e-05
4.28063e-05
7.85108e-06
7.00849e-06
3.46152e-05
0.000107071
0.000118569
9.21714e-05
6.14435e-05
4.42069e-05
3.85032e-05
3.97787e-05
4.5439e-05
5.44722e-05
6.70339e-05
8.31005e-05
9.98932e-05
0.000109798
0.000103582
8.09515e-05
5.44788e-05
3.65929e-05
3.04913e-05
3.58771e-05
5.05343e-05
6.5296e-05
7.1596e-05
6.97711e-05
6.28329e-05
5.2673e-05
4.07696e-05
2.94154e-05
2.15814e-05
1.97352e-05
2.83024e-05
6.19256e-05
3.86212e-05
7.75232e-06
7.05474e-06
3.52222e-05
0.000108125
0.000118754
9.26716e-05
6.19388e-05
4.41728e-05
3.79655e-05
3.90721e-05
4.51358e-05
5.51153e-05
6.88396e-05
8.63153e-05
0.000105819
0.000121272
0.000122702
0.000104519
7.48816e-05
4.90806e-05
3.51308e-05
3.35459e-05
4.33177e-05
5.82092e-05
6.72062e-05
6.70383e-05
6.06364e-05
5.05348e-05
3.85924e-05
2.7546e-05
2.05606e-05
2.00297e-05
3.10104e-05
6.7828e-05
3.41164e-05
7.5341e-06
7.11659e-06
3.64278e-05
0.000110746
0.000119578
9.26223e-05
6.19733e-05
4.42837e-05
3.79857e-05
3.90606e-05
4.53879e-05
5.60844e-05
7.0938e-05
8.99188e-05
0.000111835
0.000131862
0.00014046
0.00012868
9.9135e-05
6.66217e-05
4.3904e-05
3.42701e-05
3.69965e-05
4.93311e-05
6.13813e-05
6.44688e-05
5.92639e-05
4.93509e-05
3.77257e-05
2.73018e-05
2.09156e-05
2.11392e-05
3.37741e-05
7.01227e-05
3.08062e-05
7.27931e-06
7.23818e-06
3.86583e-05
0.000115466
0.000120736
9.20581e-05
6.17752e-05
4.46821e-05
3.86409e-05
3.98338e-05
4.63195e-05
5.73706e-05
7.28976e-05
9.29586e-05
0.000116692
0.000140238
0.000155102
0.000150915
0.000125097
8.89244e-05
5.78672e-05
3.94623e-05
3.39127e-05
3.95512e-05
5.06734e-05
5.75304e-05
5.63569e-05
4.91082e-05
3.88823e-05
2.90703e-05
2.28597e-05
2.32563e-05
3.63962e-05
6.9949e-05
2.93774e-05
7.08815e-06
7.35123e-06
4.15659e-05
0.00012054
0.000120503
8.94603e-05
6.01976e-05
4.4591e-05
3.95842e-05
4.15909e-05
4.87418e-05
6.02646e-05
7.61237e-05
9.65204e-05
0.000120873
0.000146109
0.000165059
0.000167645
0.00014807
0.000112615
7.58836e-05
4.91512e-05
3.55359e-05
3.39304e-05
4.13466e-05
4.9685e-05
5.19137e-05
4.80342e-05
4.04974e-05
3.21469e-05
2.63236e-05
2.67419e-05
3.97705e-05
7.06643e-05
2.97624e-05
7.00071e-06
7.43955e-06
4.45277e-05
0.000124577
0.000119392
8.6866e-05
5.88958e-05
4.45664e-05
4.04596e-05
4.33675e-05
5.14126e-05
6.35189e-05
7.94976e-05
9.96378e-05
0.000123641
0.000149198
0.000170572
0.000178859
0.000166726
0.000135737
9.70394e-05
6.33234e-05
4.14534e-05
3.20494e-05
3.33935e-05
4.09167e-05
4.6342e-05
4.59775e-05
4.14512e-05
3.53225e-05
3.06237e-05
3.1495e-05
4.45524e-05
7.33086e-05
3.1152e-05
6.98036e-06
7.41971e-06
4.60653e-05
0.000126338
0.000118078
8.50349e-05
5.83814e-05
4.48806e-05
4.11554e-05
4.46266e-05
5.3577e-05
6.64512e-05
8.25777e-05
0.000102207
0.000125365
0.000150465
0.000173066
0.000185673
0.000180727
0.000156471
0.000119745
8.19628e-05
5.25793e-05
3.53205e-05
2.95037e-05
3.26288e-05
3.88388e-05
4.17428e-05
4.05088e-05
3.72777e-05
3.47017e-05
3.6827e-05
5.01759e-05
7.63372e-05
3.24698e-05
6.96512e-06
7.34121e-06
4.56739e-05
0.000127267
0.000117765
8.43011e-05
5.89465e-05
4.58337e-05
4.14513e-05
4.42e-05
5.32237e-05
6.69644e-05
8.39483e-05
0.000103855
0.000126812
0.000151868
0.000175607
0.000191683
0.000192806
0.000175355
0.000142678
0.000103659
6.83356e-05
4.34399e-05
3.04602e-05
2.77625e-05
3.18152e-05
3.63732e-05
3.77477e-05
3.70331e-05
3.68335e-05
4.07793e-05
5.45465e-05
7.76897e-05
3.30329e-05
6.93369e-06
7.23775e-06
4.37716e-05
0.000126911
0.000114534
7.96148e-05
5.76457e-05
4.7027e-05
4.25072e-05
4.37226e-05
5.15624e-05
6.5546e-05
8.39028e-05
0.000105293
0.000129361
0.000155481
0.000180986
0.000200297
0.000206392
0.000194751
0.000166541
0.000128122
8.85028e-05
5.62101e-05
3.56719e-05
2.65816e-05
2.64363e-05
3.0678e-05
3.40152e-05
3.53265e-05
3.69311e-05
4.24735e-05
5.67627e-05
7.73529e-05
3.26505e-05
6.9508e-06
7.22402e-06
4.16774e-05
0.000124596
0.000104367
6.77695e-05
5.16458e-05
4.67166e-05
4.44999e-05
4.47491e-05
5.06612e-05
6.38059e-05
8.32954e-05
0.000107083
0.00013369
0.000162115
0.000189997
0.000212204
0.000221916
0.000214425
0.000190116
0.000153695
0.000112177
7.37866e-05
4.54621e-05
2.94261e-05
2.3908e-05
2.55812e-05
2.95501e-05
3.2631e-05
3.58231e-05
4.26583e-05
5.75721e-05
7.64725e-05
3.17442e-05
6.96172e-06
7.31333e-06
4.04959e-05
0.000120046
8.59001e-05
5.15892e-05
4.23323e-05
4.41494e-05
4.72194e-05
4.89237e-05
5.36502e-05
6.54232e-05
8.49773e-05
0.000110459
0.00013945
0.000170062
0.000199704
0.000223431
0.000234809
0.000229602
0.000208331
0.000174972
0.000134687
9.36802e-05
5.91757e-05
3.6197e-05
2.48792e-05
2.25638e-05
2.53245e-05
2.92735e-05
3.38634e-05
4.19693e-05
5.76842e-05
7.57115e-05
3.09332e-05
6.94633e-06
7.46601e-06
4.09754e-05
0.000113251
6.54873e-05
3.84798e-05
3.48315e-05
4.14686e-05
4.98224e-05
5.50576e-05
6.04799e-05
7.14548e-05
9.00864e-05
0.000115019
0.000143515
0.000173148
0.000201289
0.000223743
0.000235288
0.000232462
0.000215475
0.000187188
0.000151185
0.000111628
7.43684e-05
4.58084e-05
2.8874e-05
2.21816e-05
2.25162e-05
2.60591e-05
3.12185e-05
4.01613e-05
5.67773e-05
7.5138e-05
3.05191e-05
6.96673e-06
7.53506e-06
4.26984e-05
0.000101408
5.12727e-05
3.12644e-05
3.08465e-05
4.03326e-05
5.24819e-05
6.13487e-05
6.85739e-05
7.90769e-05
9.53668e-05
0.000116723
0.000141027
0.000166289
0.000190381
0.000210142
0.000221679
0.000222082
0.000210811
0.000189278
0.00015959
0.000124328
8.77038e-05
5.5985e-05
3.43619e-05
2.35373e-05
2.11593e-05
2.37764e-05
2.89558e-05
3.82301e-05
5.56726e-05
7.50274e-05
3.02068e-05
6.99035e-06
7.40794e-06
4.26811e-05
9.46713e-05
5.1547e-05
3.12069e-05
2.85967e-05
3.58809e-05
4.84906e-05
6.1002e-05
7.15188e-05
8.24918e-05
9.6342e-05
0.000113356
0.000132549
0.000152763
0.000172623
0.000189943
0.000201758
0.000205411
0.000199721
0.000184977
0.000162141
0.000132541
9.87751e-05
6.6044e-05
4.07479e-05
2.59759e-05
2.0628e-05
2.20037e-05
2.73837e-05
3.72526e-05
5.55608e-05
7.52977e-05
2.96649e-05
6.95824e-06
7.1324e-06
3.92151e-05
0.000100405
7.49125e-05
4.19061e-05
2.82676e-05
2.71063e-05
3.41658e-05
4.73531e-05
6.30989e-05
7.83354e-05
9.31648e-05
0.000108708
0.000125268
0.000142468
0.000159503
0.000174828
0.000186137
0.000191185
0.000188728
0.000178682
0.000161524
0.000137816
0.000108635
7.71522e-05
4.9368e-05
3.05531e-05
2.15567e-05
2.06047e-05
2.56079e-05
3.63343e-05
5.56127e-05
7.51066e-05
2.91256e-05
6.89179e-06
6.87072e-06
3.51213e-05
9.99645e-05
0.000106764
7.29841e-05
3.91994e-05
2.5344e-05
2.30175e-05
2.86936e-05
4.25147e-05
6.27256e-05
8.42541e-05
0.00010386
0.000121652
0.000138509
0.000154588
0.00016896
0.000179777
0.00018505
0.000183627
0.000175511
0.000161354
0.000141774
0.000117215
8.89585e-05
6.07885e-05
3.84242e-05
2.52255e-05
2.07508e-05
2.36079e-05
3.37785e-05
5.34515e-05
7.37867e-05
2.89332e-05
6.86872e-06
6.81797e-06
3.38913e-05
0.000104547
0.000123735
0.000104138
6.87071e-05
3.88116e-05
2.43868e-05
2.07514e-05
2.57352e-05
4.06516e-05
6.56381e-05
9.50163e-05
0.000121776
0.000143687
0.000161536
0.000175939
0.000186118
0.000190555
0.00018825
0.000179387
0.000164964
0.00014607
0.000123537
9.81458e-05
7.16683e-05
4.79521e-05
3.12879e-05
2.31494e-05
2.28872e-05
3.07644e-05
4.94788e-05
7.2046e-05
2.90329e-05
6.92525e-06
7.1123e-06
3.56153e-05
0.000114549
0.000122611
8.8999e-05
6.89033e-05
5.68322e-05
3.79396e-05
2.41664e-05
2.12123e-05
2.85434e-05
4.83005e-05
8.1327e-05
0.000120438
0.000154764
0.000179323
0.000194861
0.000203095
0.000204536
0.000199141
0.000187358
0.000170287
0.000149321
0.000125825
0.000101086
7.65155e-05
5.41607e-05
3.68272e-05
2.66123e-05
2.39863e-05
2.97996e-05
4.75593e-05
7.20257e-05
2.90309e-05
7.01082e-06
7.6892e-06
4.04157e-05
0.000121698
0.000107434
6.34743e-05
4.60979e-05
4.60605e-05
4.63806e-05
3.35139e-05
2.45646e-05
2.72103e-05
4.33443e-05
7.61372e-05
0.000121846
0.000165497
0.000194591
0.000208589
0.000212621
0.000210117
0.000201932
0.000188185
0.000169438
0.000146832
0.000121965
9.68759e-05
7.3722e-05
5.41189e-05
3.90813e-05
2.95576e-05
2.65361e-05
3.19072e-05
5.01475e-05
7.48872e-05
2.86365e-05
7.04555e-06
8.13333e-06
4.89001e-05
0.000126015
8.1353e-05
4.66663e-05
3.66694e-05
3.8376e-05
4.23739e-05
3.78792e-05
3.06934e-05
3.27267e-05
4.93736e-05
8.28163e-05
0.00012569
0.000162474
0.000184302
0.000193454
0.000195459
0.000193187
0.000186672
0.000175086
0.000158199
0.000136742
0.000112464
8.8134e-05
6.6796e-05
5.02576e-05
3.86397e-05
3.16879e-05
3.01828e-05
3.68611e-05
5.6547e-05
7.83521e-05
2.7863e-05
6.98672e-06
8.1349e-06
5.68623e-05
0.000108936
5.63281e-05
3.61615e-05
3.46143e-05
3.96914e-05
4.20141e-05
3.90932e-05
3.65342e-05
4.1672e-05
5.96765e-05
8.92569e-05
0.00012039
0.000143835
0.000157386
0.000163786
0.000166272
0.000166214
0.000163022
0.000155301
0.000142158
0.000123849
0.000102052
7.98404e-05
6.0665e-05
4.65757e-05
3.76617e-05
3.3351e-05
3.4151e-05
4.28967e-05
6.33214e-05
7.95961e-05
2.69636e-05
6.86239e-06
7.82533e-06
5.59309e-05
9.89128e-05
5.21164e-05
3.43071e-05
3.32119e-05
3.85518e-05
4.12918e-05
4.01991e-05
4.07497e-05
4.80509e-05
6.49947e-05
8.89567e-05
0.000112108
0.000128698
0.000138044
0.000142466
0.000144467
0.000145104
0.000143765
0.000138896
0.000129156
0.000114264
9.54754e-05
7.56136e-05
5.81137e-05
4.52911e-05
3.76317e-05
3.48194e-05
3.73267e-05
4.75489e-05
6.73713e-05
7.88485e-05
2.6305e-05
6.73674e-06
7.57501e-06
5.0207e-05
0.00010845
6.95687e-05
3.9676e-05
3.00051e-05
3.11928e-05
3.62025e-05
3.92803e-05
4.17566e-05
4.89122e-05
6.39865e-05
8.53152e-05
0.00010629
0.000121043
0.000128578
0.000131311
0.000132014
0.000132091
0.000131279
0.000128139
0.00012108
0.000109278
9.3349e-05
7.55591e-05
5.91357e-05
4.66761e-05
3.91653e-05
3.66566e-05
3.97131e-05
5.0353e-05
6.92824e-05
7.86956e-05
2.62482e-05
6.63587e-06