/*--------------------------------*- C++ -*----------------------------------*\
| =========                 |                                                 |
| \\      /  F ield         | OpenFOAM: The Open Source CFD Toolbox           |
|  \\    /   O peration     | Version:  v2006                                 |
|   \\  /    A nd           | Website:  www.openfoam.com                      |
|    \\/     M anipulation  |                                                 |
\*---------------------------------------------------------------------------*/
FoamFile
{
    version     2.0;
    format      ascii;
    class       volScalarField;
    location    "65";
    object      omega;
}
// * * * * * * * * * * * * * * * * * * * * * * * * * * * * * * * * * * * * * //

dimensions      [0 0 -1 0 0 0 0];


internalField   nonuniform List<scalar> 
78750
(
1483.62
195.044
118.802
15.2246
31.7317
19.7937
28.7305
22.9071
26.7941
24.583
25.4138
25.0882
25.0587
24.9658
24.8774
24.7742
24.6574
24.5221
24.3647
24.1812
23.9672
23.718
23.4282
23.0923
22.7071
22.2725
21.7896
21.2583
20.6743
20.0265
19.2878
18.3991
17.2511
15.3085
471.248
540.466
8.84986
11.7909
14.4317
14.2804
15.67
15.5858
16.0403
16.1089
16.2834
16.3906
16.5004
16.6068
16.7146
16.822
16.9238
17.0129
17.0827
17.1302
17.1568
17.1676
17.169
17.1661
17.1597
17.1446
17.1098
17.0396
16.9168
16.7249
16.4518
16.0869
15.5951
14.8167
13.1583
700.077
416.493
8.44502
9.62532
10.0956
10.9291
11.6543
12.3233
12.8663
13.3297
13.7192
14.0507
14.3308
14.5646
14.7595
14.9217
15.0557
15.1645
15.251
15.3178
15.3684
15.4079
15.44
15.4674
15.4904
15.5082
15.5187
15.5174
15.4949
15.4369
15.3267
15.1403
14.8238
14.2288
13.0764
703.439
415.883
6.17879
7.68092
9.32312
11.1814
12.8082
13.876
14.562
15.0242
15.3208
15.5014
15.6218
15.7126
15.7888
15.8616
15.9367
16.0115
16.0768
16.1185
16.1214
16.0622
15.9269
15.722
15.4707
15.202
14.9431
14.7165
14.5366
14.4068
14.3149
14.2272
14.0714
13.6712
12.7269
704.047
417.881
11.6024
12.81
13.2999
13.7878
14.3454
14.9657
15.4886
15.8264
15.9568
15.9161
15.8277
15.7812
15.7778
15.7839
15.7733
15.7298
15.6419
15.5023
15.3115
15.0781
14.8169
14.5476
14.2904
14.0652
13.8908
13.7816
13.7426
13.7632
13.8176
13.8715
13.887
13.8124
13.6812
708.145
423.384
12.677
13.2573
13.0259
13.5723
15.0553
15.8187
16.156
16.3486
16.471
16.5467
16.5979
16.6428
16.6769
16.6777
16.6276
16.5218
16.3616
16.1499
15.8921
15.5968
15.2758
14.943
14.6117
14.2931
13.9968
13.7333
13.5171
13.3618
13.262
13.169
12.9876
12.6049
12.3405
707.529
429.173
15.4651
14.3343
13.1319
13.8162
14.5007
15.1691
15.7084
16.0301
16.2618
16.4471
16.5767
16.6363
16.6395
16.6103
16.5566
16.4725
16.3559
16.2083
16.0304
15.8225
15.5851
15.32
15.0315
14.7273
14.418
14.115
13.8312
13.5848
13.3999
13.2884
13.1953
12.993
13.225
711.705
420.584
11.6093
12.8626
14.3485
16.2433
17.6012
18.0863
17.8189
17.0374
16.1747
15.4527
14.8495
14.5631
14.653
14.8223
14.8922
14.9307
14.9546
14.9497
14.9135
14.8473
14.7551
14.6403
14.5047
14.3518
14.1866
14.0164
13.8503
13.701
13.5903
13.5526
13.6241
13.886
14.7388
713.924
423.674
13.5413
13.8678
13.3779
13.2502
13.4682
14.0067
14.8819
15.8136
16.6503
17.3262
17.7725
17.9916
18.0641
18.0742
18.0484
17.9254
17.6448
17.2325
16.7538
16.2501
15.7362
15.2239
14.731
14.2744
13.866
13.5156
13.2325
13.0284
12.9221
12.9456
13.1507
13.6788
14.6875
713.228
423.858
14.3443
13.6318
14.0544
14.3169
14.7585
15.4751
16.2799
17.0097
17.5857
17.9894
18.2159
18.278
18.2294
18.15
18.0823
18.0133
17.9195
17.7952
17.6361
17.4271
17.1513
16.8039
16.3902
15.9267
15.4361
14.9422
14.4711
14.0457
13.6741
13.3514
13.0744
12.9936
13.9793
714.86
423.541
14.7314
14.7117
14.9498
15.1051
15.3271
15.6782
15.9229
16.017
16.0242
15.9787
15.8872
15.7812
15.7204
15.74
15.821
15.9577
16.1639
16.3536
16.3342
16.1797
15.991
15.7755
15.546
15.3211
15.1138
14.9193
14.7039
14.4379
14.1286
13.7992
13.5065
13.6478
15.348
718.477
435.526
16.7801
15.7273
15.5693
15.5858
15.6455
15.7474
15.8516
15.9462
16.0474
16.1896
16.4094
16.7163
17.0382
17.2364
17.1863
16.6373
15.2398
13.6246
13.4238
14.0625
14.5192
14.8775
15.0878
15.1149
14.9711
14.7625
14.636
14.6656
14.7938
14.921
15.006
15.2884
16.4928
717.561
445.652
19.3775
18.1583
17.552
17.1652
16.8387
16.5552
16.3076
16.0848
15.8792
15.6877
15.5101
15.3445
15.1882
15.0081
14.7673
14.492
13.8077
13.5471
15.3261
17.171
17.7562
17.1516
15.4973
14.8234
15.2051
15.4778
15.5042
15.2307
14.7723
14.531
14.7451
15.3418
16.2836
714.596
435.394
16.0596
15.9764
15.9183
15.9082
15.9163
15.9291
15.9354
15.9283
15.9043
15.8593
15.7839
15.6842
15.5626
15.4139
15.2455
15.024
14.7842
14.3872
14.0869
13.8962
13.8918
13.7206
13.4476
14.3762
15.8626
16.5958
16.7668
16.8125
16.6223
16.0823
15.3139
14.8855
15.4855
713.372
421.082
11.8164
13.517
14.5401
15.2214
15.7008
16.0462
16.2894
16.445
16.5328
16.5404
16.4418
16.284
16.1326
16.0047
15.881
15.756
15.6042
15.4272
15.2181
14.9334
14.6702
14.3579
13.8262
13.361
13.1419
13.3937
13.9577
14.7133
15.7101
16.4229
16.3776
15.4297
14.9064
716.895
427.15
15.2451
16.5404
17.1021
17.3956
17.5623
17.6427
17.6346
17.5188
17.2651
16.7381
15.7924
14.7182
14.0046
13.7937
13.8609
13.9984
14.1191
14.2004
14.2106
14.125
14.0283
13.9632
13.3864
12.5783
12.6269
13.2208
13.7593
14.3018
15.2155
16.2402
16.6997
16.4399
17.1629
727.187
429.215
14.899
15.7266
16.1889
16.5656
16.9086
17.1919
17.3493
17.2927
16.9014
16.04
14.9419
14.2646
14.0595
14.0322
14.0241
13.955
13.7421
13.2881
12.5207
11.6047
10.7936
10.882
13.6767
16.0687
16.877
16.6487
16.2121
15.6649
15.6138
16.4115
17.1673
17.7286
19.617
733.595
435.42
16.4756
16.9976
17.26
17.5138
17.8073
18.0828
18.2741
18.3393
18.2261
17.6831
16.2148
14.6577
14.155
14.2372
14.3134
14.2475
13.9232
13.0486
11.2835
8.26707
5.46619
6.2417
9.10849
14.6475
18.0079
19.2277
19.0467
18.1927
17.1889
16.6319
16.8015
17.6172
19.9601
732.299
439.089
16.4906
16.4943
16.5247
16.802
17.234
17.5082
17.4996
17.1883
16.5711
15.7775
15.2777
15.3578
15.5736
15.7168
15.7651
15.6838
15.3625
14.5078
12.6686
9.22404
6.46107
4.08267
3.9495
7.24798
11.7417
15.061
17.456
18.744
18.8821
18.5267
18.2002
18.6045
20.2967
727.172
442.5
16.8623
16.4949
16.2998
16.7537
17.4871
17.9512
18.0902
17.926
17.4005
16.4879
15.5683
15.351
15.6539
15.9842
16.2239
16.3416
16.2893
15.9543
15.0862
13.2649
9.97923
4.96418
4.69745
6.1062
5.39843
6.87909
9.67143
13.0433
16.3873
18.3448
19.1352
19.5209
20.0268
721.965
444.213
16.6014
15.5857
14.7742
15.253
16.1057
16.6069
16.7858
16.7148
16.519
16.374
16.3555
16.4447
16.6231
16.8576
17.1
17.2924
17.3749
17.2834
16.9288
16.1478
14.6537
12.1261
8.41901
6.24875
5.0262
4.95651
5.68592
5.95511
8.58402
12.5709
15.7685
16.7934
17.6893
721.757
441.911
16.3806
15.3526
14.1465
13.9024
14.644
15.3069
15.7552
16.0567
16.2645
16.4148
16.5429
16.6747
16.8279
17.0138
17.2367
17.4895
17.7451
17.9489
18.0199
17.8603
17.36
16.3528
14.6286
11.9951
8.31536
6.24485
4.91664
4.84134
4.1158
6.66697
10.3912
14.6417
17.8162
726.484
440.542
17.0066
16.2752
14.9626
12.7907
12.1408
13.1127
14.2159
15.0212
15.5796
15.9681
16.2349
16.4118
16.5312
16.6216
16.7079
16.8167
16.9731
17.1952
17.481
17.774
17.9384
17.8066
17.2345
16.0759
14.2056
11.4932
7.90758
6.09859
4.04478
5.58151
6.0299
13.0519
18.3844
728.164
441.151
17.7185
17.3718
16.584
14.7257
11.7953
10.7907
11.9402
13.3815
14.4713
15.2292
15.7562
16.1126
16.3256
16.4219
16.4238
16.3609
16.2674
16.1816
16.1509
16.2331
16.4901
16.8734
17.1007
16.9137
16.2206
14.976
13.1818
10.9134
8.48348
6.03655
3.868
7.97434
12.8242
728.97
441.95
18.0014
17.8908
17.5048
16.6595
14.3062
11.1151
10.1698
11.4326
13.0041
14.2056
15.0445
15.6258
16.0156
16.2523
16.3435
16.2961
16.1287
15.8688
15.5596
15.2525
15.0165
15.0377
15.5315
16.1137
16.2543
15.8401
14.934
13.6565
12.1739
10.6041
6.65573
9.06186
17.1365
738.495
442.523
18.1729
18.2535
18.1262
17.7772
16.8531
14.3319
11.1791
10.0304
11.1553
12.7425
13.9642
14.8295
15.4452
15.8737
16.126
16.1993
16.095
15.8102
15.3556
14.774
14.146
13.5742
13.5656
14.5672
15.7994
16.4088
16.2323
15.3502
13.9305
12.1748
10.1204
13.0079
20.5471
738.657
442.292
18.3215
18.6079
18.6945
18.6815
18.5084
17.7885
15.5263
12.3342
10.3475
10.7974
12.292
13.5955
14.5315
15.1967
15.658
15.9288
16.0144
15.9171
15.6314
15.1445
14.4703
13.6745
12.9062
12.6405
13.384
14.7666
15.8796
16.0089
15.2118
14.1904
13.2601
12.6609
17.3306
723.751
442.859
18.4017
18.7234
18.8458
18.8905
18.8835
18.843
18.4641
16.7462
13.6727
11.1197
11.0617
12.2952
13.4428
14.309
14.9425
15.3827
15.6519
15.7663
15.7434
15.5877
15.2971
14.8751
14.3484
13.8361
13.4828
13.2649
13.0433
13.1111
13.2994
14.0472
13.9965
9.35987
11.3234
726.785
445.223
18.738
18.9644
19.0157
18.9759
18.8526
18.6727
18.5444
18.2879
16.8462
13.596
11.3085
11.5193
12.5982
13.5517
14.2671
14.7907
15.1598
15.395
15.5151
15.5317
15.448
15.3042
15.1372
14.8281
14.3363
13.9464
13.8585
13.8098
13.0445
11.649
8.17156
7.53497
17.0729
762.975
449.057
19.1698
19.1936
19.1455
19.0133
18.7586
18.3436
17.8437
17.4983
16.9941
14.6486
11.4114
11.2195
12.3685
13.3242
14.0131
14.5054
14.864
15.1229
15.2938
15.3972
15.4076
15.2315
15.3281
16.0376
16.565
16.1388
14.9658
13.9989
13.8647
14.9958
17.5621
21.6617
27.3116
764.972
453.006
19.4989
19.3161
19.1797
18.9679
18.5871
17.9369
17.0421
16.2098
15.4609
13.6243
10.4204
11.1473
12.5767
13.5064
14.1415
14.498
14.6839
14.871
15.2731
16.136
17.5209
18.6272
18.2955
16.9526
15.8369
15.6781
16.3941
17.4568
18.7158
20.2389
21.9394
23.7595
25.17
728.218
455.497
19.4975
19.148
18.9187
18.583
17.9916
17.0553
15.8168
14.4787
13.2602
11.677
9.89682
11.4735
12.9052
13.6543
14.1544
14.5382
15.0176
15.9417
17.5252
19.2589
20.2435
19.9588
18.5041
16.7353
15.7519
16.1538
17.4118
18.7109
19.8501
20.861
21.727
22.2664
21.5492
709.457
455.459
19.3147
19.0015
18.7488
18.2828
17.4007
16.0751
14.5517
12.9838
11.6201
10.7988
10.7898
12.0937
13.1347
13.5432
13.9266
14.3429
15.0495
16.351
18.2636
20.2128
21.3461
21.2765
20.4434
19.5396
18.9374
18.906
19.4259
20.187
20.9937
21.7859
22.5406
23.1092
22.5465
709.849
452.44
19.0728
18.9439
18.7462
18.2624
17.2395
15.535
13.5056
11.7826
10.7105
10.6368
11.4775
12.5792
13.2628
13.5898
13.8749
14.0929
14.3799
14.9634
16.0875
17.7265
19.4215
20.6288
21.2613
21.6192
21.9262
22.2817
22.731
23.2278
23.7244
24.218
24.6874
24.9499
24.0204
714.195
449.099
18.8694
18.8868
18.789
18.4655
17.6923
16.1825
13.9269
11.5798
10.2186
10.4389
11.5486
12.5415
13.1473
13.539
13.8765
14.1343
14.3171
14.477
14.7234
15.1913
15.9615
16.9526
18.0135
19.088
20.1663
21.2093
22.1698
23.0175
23.6928
24.1451
24.3443
24.1663
23.0202
716.775
446.392
18.7917
18.9674
18.9898
18.8695
18.4721
17.5381
15.7966
13.2815
10.6768
9.53793
10.6088
11.9378
12.6773
13.1697
13.5802
13.928
14.2121
14.4363
14.613
14.769
14.9425
15.1769
15.5092
15.9736
16.6004
17.3903
18.2997
19.2674
20.1767
20.9013
21.2688
21.215
20.6682
717.571
444.798
18.6609
18.9038
18.9853
18.9763
18.8242
18.3982
17.4819
15.8276
13.3506
10.4685
8.99231
10.2835
11.6313
12.3924
12.9301
13.3715
13.7438
14.0572
14.3196
14.5388
14.7237
14.884
15.0296
15.1722
15.3306
15.5323
15.8113
16.203
16.7302
17.3732
17.9939
18.3881
18.6408
717.516
444.708
18.6375
18.8599
18.9348
18.9395
18.8501
18.6012
18.1061
17.2327
15.7761
13.5501
10.6664
8.76991
9.80732
11.1478
11.9925
12.5875
13.0636
13.4591
13.791
14.0722
14.313
14.5225
14.7094
14.882
15.0455
15.1956
15.3269
15.4374
15.549
15.746
16.1549
16.7442
17.523
717.216
445.577
18.6681
18.8105
18.8514
18.8387
18.7487
18.5339
18.1532
17.5673
16.7009
15.39
13.4108
10.7329
8.86059
9.58194
10.7715
11.6067
12.2227
12.7201
13.1313
13.4736
13.7612
14.007
14.2227
14.421
14.6157
14.8287
15.0566
15.2827
15.468
15.5942
15.7788
16.2249
17.1096
716.982
446.72
18.6598
18.7094
18.7124
18.6719
18.5526
18.3138
17.9435
17.4405
16.7824
15.9067
14.6578
12.8089
10.3916
9.00651
9.70442
10.6949
11.4278
11.9974
12.4697
12.8643
13.1931
13.4681
13.7014
13.9062
14.0993
14.3037
14.5498
14.8638
15.2269
15.5647
15.8422
16.2085
17.0071
716.975
446.937
18.5533
18.5808
18.5822
18.5423
18.4185
18.1719
17.8064
17.3416
16.7769
16.0811
15.1777
13.905
12.0847
10.0227
9.28026
9.95237
10.7353
11.3517
11.8572
12.2864
12.6495
12.954
13.2087
13.4237
13.6126
13.7956
14.0049
14.2876
14.6917
15.1943
15.6841
16.159
16.9734
717.169
446.114
18.3655
18.4235
18.4392
18.4089
18.2935
18.0562
17.7058
17.2755
16.7797
16.2036
15.4989
14.5666
13.2481
11.4687
9.86543
9.6449
10.2452
10.862
11.3739
11.811
12.1888
12.5121
12.7851
13.0145
13.2092
13.3836
13.5625
13.7915
14.1432
14.6759
15.3246
15.9732
16.9303
717.453
445.212
18.3121
18.4245
18.4638
18.4554
18.3724
18.1766
17.8624
17.4624
17.0051
16.4947
15.9087
15.1874
14.2167
12.8476
11.1694
10.0303
10.0462
10.5314
11.0239
11.4541
11.8312
12.1603
12.443
12.6822
12.8833
13.0558
13.2168
13.4018
13.6835
14.177
14.9235
15.7663
16.9334
717.92
444.836
18.302
18.4323
18.4759
18.4722
18.4039
18.2381
17.9619
17.5998
17.1854
16.7346
16.2423
15.6769
14.9674
13.981
12.6
11.0957
10.3328
10.4463
10.8469
11.2526
11.6179
11.9424
12.2261
12.4693
12.6749
12.8496
13.0067
13.173
13.4109
13.8548
14.6483
15.655
17.0131
718.536
445.425
18.4231
18.5351
18.5714
18.5651
18.5009
18.3521
18.1075
17.7797
17.3955
16.9786
16.5387
16.0666
15.526
14.8323
13.8463
12.4997
11.2277
10.7333
10.8766
11.2093
11.5492
11.8603
12.1354
12.3711
12.5674
12.7292
12.8695
13.0159
13.2306
13.6549
14.491
15.6384
17.1636
719.34
446.284
18.5135
18.5855
18.6035
18.5801
18.4959
18.3328
18.1005
17.8134
17.4782
17.1069
16.7123
16.2986
15.8519
15.3231
14.6191
13.6096
12.3295
11.3461
11.1041
11.2992
11.6026
11.904
12.1778
12.4141
12.6074
12.7581
12.8762
12.9902
13.1748
13.6038
14.5083
15.7557
17.3867
720.134
447.291
18.665
18.7149
18.7256
18.6905
18.5818
18.3848
18.1353
17.8644
17.567
17.2375
16.8827
16.5109
16.1208
15.6855
15.1471
14.405
13.3625
12.2013
11.5294
11.4951
11.7364
12.0278
12.303
12.5416
12.7327
12.8715
12.9652
13.0461
13.2109
13.6764
14.6615
15.9353
17.5738
720.537
447.825
18.7529
18.8117
18.8285
18.7868
18.6498
18.4042
18.1185
17.8526
17.5936
17.3134
17.0041
16.6723
16.3231
15.9442
15.4992
14.9194
14.1047
13.0324
12.0586
11.7054
11.8432
12.1366
12.4407
12.7107
12.9243
13.0675
13.1393
13.1744
13.3069
13.8177
14.8721
16.103
17.6571
720.314
448.406
18.9142
18.9958
19.0274
18.9881
18.831
18.5343
18.1902
17.8985
17.654
17.4105
17.1426
16.8485
16.5339
16.1934
15.8067
15.329
14.6809
13.7812
12.7215
12.0119
11.9522
12.2209
12.5562
12.8706
13.1285
13.3043
13.3832
13.3904
13.4789
13.9833
15.0332
16.1685
17.5807
719.425
448.871
19.0357
19.1336
19.1799
19.1477
18.9801
18.6451
18.2493
17.9283
17.6922
17.4836
17.2601
17.0089
16.7324
16.4285
16.0866
15.6776
15.1456
14.4085
13.4269
12.4519
12.0485
12.2321
12.6157
13.0039
13.3335
13.5696
13.687
13.6969
13.7387
14.1515
15.0829
16.09
17.3532
718.221
449.662
19.1874
19.2706
19.3219
19.2973
19.1288
18.775
18.3458
17.9978
17.758
17.5685
17.3782
17.1646
16.9241
16.6549
16.3525
15.9986
15.5537
14.9526
14.1208
13.0927
12.2865
12.1748
12.5265
12.992
13.4272
13.771
13.9836
14.0564
14.0873
14.3669
15.0922
15.9471
17.0758
717.135
450.197
19.2273
19.2842
19.3347
19.3168
19.1536
18.8015
18.3755
18.0369
17.814
17.6499
17.4923
17.3149
17.1088
16.8723
16.6039
16.2925
15.9113
15.4117
14.7221
13.7906
12.78
12.2467
12.4239
12.9142
13.4383
13.8945
14.2275
14.4089
14.4883
14.6747
15.1851
15.8732
16.8718
716.384
450.483
19.2184
19.2528
19.3009
19.2899
19.1376
18.7992
18.3897
18.0719
17.8718
17.7331
17.6052
17.4608
17.2874
17.0823
16.8451
16.5697
16.2379
15.8148
15.2423
14.4451
13.4231
12.5035
12.2848
12.7123
13.3271
13.9105
14.382
14.6988
14.8729
15.0378
15.389
15.9176
16.7811
715.906
449.871
19.0656
19.1115
19.171
19.1792
19.0562
18.7512
18.3673
18.0752
17.9064
17.8015
17.7086
17.5995
17.46
17.2867
17.0803
16.8375
16.5468
16.1838
15.7049
15.0432
14.1341
13.0644
12.3384
12.4385
13.0523
13.7549
14.3786
14.8553
15.1623
15.3712
15.6356
16.0317
16.7643
715.62
448.942
18.916
18.9832
19.0543
19.0883
19.0145
18.761
18.3878
18.0798
17.9129
17.8334
17.777
17.7078
17.6067
17.4688
17.295
17.0846
16.8307
16.5166
16.1108
15.5609
14.7954
13.7804
12.744
12.314
12.7113
13.4517
14.1944
14.8169
15.2688
15.5691
15.8222
16.1426
16.7859
715.55
448.034
18.7559
18.8167
18.8784
18.9302
18.924
18.7656
18.4398
18.1042
17.9062
17.8312
17.805
17.777
17.7187
17.6214
17.485
17.3101
17.093
16.8224
16.4755
16.0137
15.3762
14.4925
13.3919
12.4925
12.4332
13.0797
13.8992
14.6399
15.2173
15.6201
15.9141
16.2194
16.8263
715.604
448.168
18.7351
18.7008
18.6946
18.718
18.7647
18.7212
18.4932
18.1637
17.9176
17.8167
17.8012
17.8045
17.7863
17.7318
17.6376
17.5037
17.3275
17.101
16.8079
16.4203
15.892
15.1533
14.1484
13.0282
12.4058
12.7262
13.5404
14.3808
15.0721
15.5736
15.9298
16.2566
16.8582
715.654
449.415
18.7799
18.5594
18.4237
18.3628
18.4439
18.5253
18.4431
18.2062
17.9648
17.8375
17.8119
17.8245
17.8296
17.8069
17.7489
17.6532
17.5166
17.3325
17.0888
16.7652
16.3284
15.7231
14.8766
13.7832
12.777
12.5625
13.1791
14.0551
14.849
15.4536
15.8857
16.2553
16.8743
715.73
451.491
18.8563
18.4094
18.1141
17.9337
18.0363
18.2224
18.2695
18.1608
17.995
17.8833
17.8523
17.8621
17.8749
17.8695
17.8359
17.7687
17.6636
17.5144
17.3117
17.0403
16.6757
16.1775
15.4825
14.5311
13.426
12.7296
12.9564
13.7326
14.5717
15.2666
15.7859
16.2215
16.8942
715.925
452.824
18.7758
18.1789
17.7627
17.4669
17.5692
17.8393
18.0015
18.0226
17.9657
17.9078
17.8878
17.8946
17.9071
17.9094
17.8909
17.8444
17.7641
17.6437
17.4749
17.2458
16.9375
16.5194
15.9412
15.1352
14.0914
13.1298
12.9372
13.5308
14.3527
15.0974
15.6891
16.1941
16.9336
716.094
452.006
18.597
18.0714
17.6431
17.2027
17.0894
17.3071
17.5677
17.7354
17.8108
17.8377
17.8551
17.8732
17.8902
17.8993
17.8931
17.8644
17.8065
17.7129
17.5761
17.3859
17.1272
16.7763
16.2941
15.6178
14.6913
13.6451
13.0796
13.4369
14.2343
15.0093
15.6428
16.1883
16.9565
716
449.282
18.6109
18.4021
18.1091
17.5831
16.9763
16.7196
16.8646
17.1526
17.3971
17.5602
17.6637
17.731
17.777
17.8077
17.8227
17.8174
17.7861
17.723
17.6217
17.4735
17.2667
16.9831
16.5935
16.0464
15.275
14.2887
13.4475
13.4255
14.1276
14.9392
15.6076
16.1702
16.9304
715.788
446.674
18.9387
19.0862
19.0169
18.6976
17.9544
16.954
16.3051
16.2905
16.6267
16.98
17.2387
17.412
17.5275
17.6061
17.6581
17.6855
17.6863
17.6574
17.5945
17.4917
17.3403
17.1279
16.8322
16.4158
15.8209
15.0012
14.0922
13.6396
14.0246
14.7967
15.5035
16.0934
16.8698
715.846
446.005
19.2511
19.5794
19.6792
19.6374
19.3287
18.4362
17.0464
15.9722
15.797
16.1712
16.6058
16.9347
17.1623
17.3196
17.4266
17.4943
17.5278
17.5292
17.4981
17.4322
17.3272
17.1741
16.9575
16.6516
16.2141
15.5914
14.7962
14.1265
14.0949
14.6651
15.3612
15.9898
16.8378
716.313
448.226
19.5037
19.6641
19.706
19.6935
19.621
19.3283
18.3769
16.7925
15.6651
15.588
16.0111
16.4458
16.7756
17.0107
17.1747
17.2839
17.3484
17.374
17.3645
17.3215
17.2432
17.1243
16.9552
16.7189
16.3876
15.9213
15.3006
14.6589
14.3894
14.7095
15.3178
15.9526
16.8731
716.852
453.05
19.9666
19.7373
19.5434
19.3079
19.0679
18.8864
18.4931
17.4396
16.0727
15.533
15.7755
16.1933
16.5454
16.8031
16.9874
17.1153
17.1959
17.2347
17.2361
17.2022
17.1328
17.0246
16.8715
16.6627
16.3832
16.0145
15.5511
15.0658
14.7997
14.9759
15.4606
16.0412
16.9578
717.001
457.298
20.186
19.6538
19.2834
18.8592
18.4329
18.1007
17.7471
17.1203
16.2056
15.7183
15.8735
16.21
16.506
16.7306
16.8978
17.0186
17.0978
17.1375
17.1401
17.1063
17.0354
16.9246
16.7687
16.5605
16.2954
15.9786
15.6359
15.3306
15.1924
15.3434
15.7163
16.1931
17.0085
716.575
457.595
19.766
19.1253
18.676
18.1886
17.7925
17.4572
17.0837
16.6217
16.1343
15.9179
16.0637
16.3105
16.5333
16.7137
16.856
16.9634
17.0362
17.0739
17.0766
17.043
16.9715
16.8587
16.6992
16.4876
16.2251
15.9336
15.6653
15.4906
15.4742
15.6409
15.932
16.3027
16.9782
715.819
454.494
19.1907
18.6508
18.2003
17.6625
17.2474
16.9582
16.6613
16.3338
16.0627
15.9873
16.1125
16.3031
16.4865
16.6457
16.7786
16.8846
16.9619
17.0078
17.0209
16.9983
16.9373
16.8342
16.684
16.4817
16.2298
15.9533
15.7119
15.5822
15.6084
15.769
16.0018
16.2958
16.8635
715.106
451.374
19.0498
18.7433
18.3894
17.7893
17.0952
16.6311
16.345
16.0958
15.8932
15.8387
15.9412
16.1135
16.2938
16.459
16.6039
16.727
16.8258
16.8968
16.9373
16.9423
16.9082
16.8316
16.7083
16.5343
16.3116
16.0603
15.8307
15.6921
15.6893
15.8043
15.9853
16.2325
16.7481
714.736
449.613
19.129
19.0231
18.8155
18.3312
17.4433
16.5554
16.0539
15.7935
15.6171
15.5472
15.6179
15.78
15.9718
16.156
16.3237
16.4739
16.6048
16.7131
16.7941
16.8407
16.8473
16.8098
16.725
16.5906
16.4092
16.1979
15.996
15.8552
15.8127
15.8674
15.9948
16.2051
16.6957
714.676
448.894
19.1312
19.1545
19.0784
18.7921
18.0709
16.913
15.9618
15.4967
15.288
15.2015
15.2377
15.3818
15.579
15.7778
15.9659
16.1418
16.3051
16.4537
16.5816
16.6788
16.7361
16.7464
16.7053
16.6112
16.468
16.2943
16.1284
16.0128
15.9686
15.9935
16.0827
16.2602
16.7215
714.73
448.529
19.0734
19.1747
19.1909
19.0508
18.5856
17.5665
16.2502
15.3628
14.9863
14.8564
14.8572
14.9723
15.1624
15.3696
15.5709
15.7623
15.9481
16.1299
16.302
16.453
16.5689
16.6367
16.6469
16.595
16.4837
16.3316
16.1823
16.0862
16.0604
16.0884
16.1626
16.3135
16.7323
714.617
448.062
19.0176
19.1915
19.2853
19.257
18.9806
18.2564
16.947
15.5838
14.8153
14.5431
14.4968
14.5765
14.7466
14.9503
15.1564
15.3589
15.5613
15.7667
15.9725
16.1709
16.347
16.4818
16.5573
16.5608
16.4884
16.3529
16.1962
16.0825
16.0485
16.0788
16.1527
16.2929
16.6803
714.35
447.534
18.9366
19.1741
19.3368
19.4064
19.277
18.805
17.7964
16.2731
14.9585
14.3335
14.1698
14.2034
14.3451
14.5361
14.7391
14.944
15.1541
15.3752
15.6062
15.8399
16.0668
16.2691
16.4234
16.5068
16.5039
16.4145
16.2664
16.1213
16.0403
16.0362
16.0912
16.2163
16.576
714.003
447.169
18.8416
19.1112
19.3219
19.472
19.4622
19.178
18.4947
17.2378
15.6019
14.4032
13.9325
13.8646
13.9656
14.1361
14.3287
14.5288
14.7396
14.9685
15.2153
15.4743
15.736
15.9864
16.2085
16.3777
16.4687
16.466
16.3761
16.2398
16.1207
16.0634
16.0765
16.1725
16.502
713.76
446.796
18.7025
18.9785
19.2197
19.4396
19.5408
19.4104
18.9767
18.1229
16.6804
15.0116
13.953
13.6101
13.6198
13.7565
13.9307
14.1178
14.3203
14.549
14.8072
15.0887
15.3784
15.6617
15.9268
16.16
16.3404
16.4437
16.4562
16.3901
16.2879
16.2023
16.1693
16.2175
16.4874
713.541
446.332
18.4932
18.7492
19.0036
19.2893
19.5123
19.537
19.3045
18.775
17.8017
16.2268
14.5584
13.613
13.3589
13.4126
13.555
13.7199
13.9016
14.1148
14.3713
14.6715
14.9938
15.3067
15.5922
15.8487
16.0715
16.248
16.3579
16.3897
16.355
16.2899
16.2393
16.2506
16.4657
713.333
445.846
18.2047
18.398
18.631
18.9592
19.3107
19.5115
19.4734
19.1945
18.6296
17.5902
15.9311
14.2689
13.3793
13.1679
13.2284
13.3581
13.5085
13.6879
13.9171
14.2157
14.5756
14.9484
15.2804
15.5534
15.7783
15.9664
16.1137
16.2079
16.2415
16.2264
16.1971
16.2057
16.3952
713.054
445.63
17.9533
18.0392
18.1979
18.4972
18.9287
19.2991
19.4555
19.384
19.1015
18.5452
17.4933
15.8
14.1345
13.2567
13.0414
13.0814
13.1869
13.3184
13.4876
13.7294
14.0721
14.4941
14.914
15.2573
15.5094
15.6929
15.8302
15.9293
15.9875
16.0055
16.0045
16.0319
16.2344
712.796
445.982
17.9038
17.8701
17.9177
18.0943
18.4849
18.9504
19.268
19.3679
19.274
18.9971
18.4601
17.4256
15.7489
14.1075
13.2391
12.9966
13.0028
13.0807
13.1864
13.3397
13.5903
13.9744
14.4526
14.9108
15.2591
15.4862
15.6225
15.7012
15.7449
15.7685
15.7915
15.8536
16.1011
712.671
447.217
18.1375
18.0138
17.9612
17.9739
18.1966
18.6237
19.0105
19.2187
19.2453
19.1159
18.8226
18.2727
17.2329
15.6116
14.103
13.3002
13.0391
13.0065
13.0423
13.1076
13.2296
13.4721
13.8793
14.3979
14.8925
15.2617
15.4892
15.6047
15.6485
15.66
15.6757
15.7394
15.9964
712.566
449.052
18.5002
18.3292
18.2287
18.1241
18.1534
18.451
18.8062
19.0365
19.1119
19.0513
18.8595
18.4997
17.8613
16.7548
15.2765
14.0632
13.428
13.1939
13.1293
13.12
13.1388
13.2187
13.4301
13.8179
14.3236
14.8129
15.1857
15.4191
15.5372
15.5839
15.612
15.6815
15.9528
712.611
450.586
18.7906
18.617
18.5083
18.3339
18.1972
18.3494
18.6324
18.8325
18.9035
18.8572
18.6957
18.3928
17.884
17.068
15.9258
14.7694
13.9688
13.5593
13.376
13.2885
13.2369
13.2146
13.2627
13.4511
13.814
14.2875
14.7476
15.1038
15.3319
15.4553
15.5249
15.6109
15.8855
712.427
450.964
18.9686
18.8605
18.7737
18.5507
18.2316
18.1805
18.3664
18.5277
18.5801
18.5235
18.3548
18.0498
17.5644
16.8631
15.9846
15.0992
14.4195
14.0014
13.7602
13.606
13.4856
13.3781
13.297
13.2935
13.4363
13.75
14.1703
14.5853
14.9119
15.1281
15.265
15.3961
15.7118
712.127
450.314
19.0911
19.1037
19.0799
18.8756
18.416
18.0529
18.0442
18.1407
18.1688
18.0927
17.8997
17.5678
17.0796
16.4618
15.7983
15.185
14.7009
14.3678
14.1429
13.979
13.841
13.7068
13.5708
13.453
13.4042
13.4856
13.7176
14.0481
14.3865
14.6667
14.8821
15.0907
15.481
711.575
449.475
19.1727
19.2981
19.3655
19.276
18.865
18.2455
17.9067
17.8576
17.8458
17.7602
17.5674
17.2436
16.7901
16.263
15.7506
15.3043
14.9438
14.6662
14.4505
14.2735
14.1173
13.9675
13.8158
13.6647
13.5363
13.4745
13.5255
13.7007
13.957
14.2286
14.4796
14.7415
15.1821
710.859
449.249
19.2539
19.4208
19.556
19.6034
19.3864
18.7968
18.1588
17.8502
17.7458
17.6502
17.4799
17.196
16.7853
16.2934
15.8197
15.4314
15.1364
14.9127
14.7351
14.583
14.4413
14.2978
14.1429
13.9737
13.7992
13.6469
13.5604
13.5797
13.7118
13.9219
14.1676
14.4544
14.9276
710.326
450.159
19.3789
19.4616
19.6036
19.7487
19.7036
19.3248
18.6679
18.1219
17.8569
17.7129
17.5539
17.3194
16.9772
16.5319
16.0481
15.6162
15.2824
15.0368
14.8527
14.7074
14.5864
14.478
14.3695
14.2486
14.1085
13.9557
13.816
13.7319
13.7428
13.8574
14.0508
14.3134
14.7655
709.907
452.054
19.4347
19.3049
19.4258
19.6792
19.7575
19.542
19.0509
18.4814
18.0933
17.8679
17.6808
17.4619
17.1722
16.7935
16.3459
15.8989
15.5225
15.2371
15.0238
14.8574
14.7214
14.6055
14.5019
14.4022
14.2981
14.1845
14.0669
13.9675
13.9218
13.9592
14.0817
14.2848
14.6761
709.643
453.081
19.0612
18.666
18.8489
19.3244
19.5414
19.4491
19.133
18.7135
18.3536
18.0957
17.8781
17.6495
17.3751
17.0317
16.6175
16.1693
15.751
15.4084
15.1486
14.9554
14.8109
14.7002
14.6098
14.5274
14.4435
14.3529
14.2567
14.1659
14.1034
14.0969
14.1628
14.3097
14.6426
709.467
451.006
18.004
17.4485
17.7917
18.55
18.9755
19.08
18.9742
18.7532
18.5075
18.2793
18.0583
17.8225
17.5505
17.2262
16.8448
16.4231
16.0013
15.6208
15.3047
15.052
14.8591
14.72
14.6255
14.5613
14.5095
14.4546
14.3895
14.3178
14.2555
14.2272
14.2556
14.3594
14.6388
709.265
447.047
16.9249
16.3519
16.4315
17.081
17.7914
18.2967
18.5364
18.5741
18.4903
18.3414
18.1528
17.9293
17.6659
17.3572
17.0016
16.6091
16.2061
15.824
15.4847
15.1922
14.9479
14.7538
14.6127
14.5231
14.4738
14.4459
14.4199
14.3847
14.3433
14.3128
14.3179
14.3845
14.6051
708.972
444.996
17.2124
16.7372
16.1537
15.6834
15.8662
16.6678
17.4601
17.9376
18.1463
18.1777
18.0957
17.9372
17.7176
17.4443
17.1198
16.753
16.3652
15.9839
15.6314
15.319
15.0484
14.8199
14.6365
14.502
14.4168
14.3734
14.3555
14.3443
14.3281
14.31
14.309
14.3542
14.5334
708.71
445.956
18.5015
18.3963
17.9612
16.944
15.4698
14.9613
15.7877
16.7662
17.3887
17.7007
17.8122
17.7901
17.671
17.4727
17.2052
16.8805
16.5173
16.14
15.773
15.4324
15.1272
14.8638
14.6478
14.4831
14.3694
14.3017
14.2693
14.2573
14.2512
14.2452
14.249
14.2877
14.4444
708.499
448.341
19.2142
19.4164
19.4222
19.038
17.5961
15.4362
14.9118
15.7761
16.6411
17.1584
17.4195
17.5196
17.505
17.3944
17.1978
16.9281
16.6064
16.2583
15.9068
15.5637
15.2358
14.9316
14.6641
14.4485
14.2948
14.2023
14.1584
14.1445
14.1433
14.1453
14.1542
14.1894
14.3287
708.273
450.404
19.2493
19.3397
19.4532
19.4704
18.9858
17.2283
15.4703
15.514
16.2636
16.8331
17.156
17.3155
17.3604
17.3092
17.167
16.94
16.6453
16.3122
15.9721
15.6419
15.3254
15.0213
14.7325
14.4715
14.2579
14.1087
14.0267
13.9968
13.9953
14.0032
14.0162
14.0495
14.1818
708.036
451.658
19.3609
19.3068
19.339
19.3667
19.2049
18.4116
16.6963
15.7794
16.125
16.6501
17.0013
17.1977
17.283
17.2773
17.1837
17.0011
16.7355
16.408
16.0534
15.7033
15.3763
15.0758
14.7966
14.5351
14.2968
14.0977
13.9552
13.8755
13.8461
13.8458
13.8608
13.8998
14.043
707.816
453.114
19.6162
19.5261
19.5814
19.5957
19.3727
18.8196
17.6679
16.3803
16.2018
16.5783
16.9144
17.1227
17.2318
17.2621
17.2158
17.0866
16.8713
16.5768
16.2264
15.8503
15.4802
15.139
14.8358
14.569
14.3327
14.1249
13.9524
13.8269
13.754
13.7264
13.7323
13.7741
13.9247
707.536
453.815
19.418
19.211
19.3934
19.6118
19.4314
18.8967
18.034
16.9439
16.4733
16.6606
16.9234
17.1024
17.2049
17.2459
17.2269
17.1406
16.9791
16.7402
16.4326
16.0739
15.6902
15.3082
14.9516
14.6363
14.3686
14.1466
13.9655
13.8233
13.723
13.6663
13.6511
13.6806
13.8168
707.187
451.443
18.4727
18.1667
18.5411
19.121
19.1852
18.8353
18.1791
17.3365
16.7819
16.7977
16.9664
17.1008
17.1833
17.2192
17.208
17.144
17.0198
16.8306
16.5774
16.2679
15.9165
15.542
15.1648
14.8054
14.4825
14.2099
13.9932
13.8292
13.7111
13.6342
13.5976
13.6078
13.7188
706.85
447.504
17.395
17.1164
17.4929
18.3118
18.7436
18.7235
18.3576
17.7146
17.091
16.8931
16.9585
17.0569
17.1253
17.1558
17.1462
17.0923
16.9889
16.832
16.6213
16.3612
16.0606
15.7315
15.3851
15.0333
14.6898
14.3721
14.0985
13.8816
13.7233
13.6184
13.5627
13.5601
13.6549
706.606
445.487
17.1231
16.7987
16.7163
17.2485
18.0361
18.4354
18.4307
18.088
17.5078
17.052
16.9359
16.9801
17.0384
17.0698
17.0645
17.0174
16.9238
16.781
16.589
16.3526
16.0814
15.7898
15.4894
15.1852
14.878
14.5719
14.279
14.0182
13.8083
13.6601
13.5767
13.5578
13.629
706.399
445.773
17.383
17.0078
16.6339
16.4481
17.1382
17.904
18.2579
18.2482
17.9313
17.4124
17.0336
16.9317
16.951
16.9807
16.9852
16.9519
16.8734
16.7446
16.5638
16.3321
16.0582
15.7604
15.4621
15.1805
14.9177
14.6646
14.4131
14.1666
13.9417
13.7613
13.6431
13.5904
13.6104
706.166
446.576
17.4903
17.1305
16.8173
16.3807
16.5289
17.3365
17.9573
18.2046
18.1581
17.8485
17.3821
17.0496
16.9349
16.9189
16.9163
16.8939
16.8367
16.7348
16.581
16.3705
16.1039
15.7924
15.4603
15.1405
14.8587
14.6194
14.4088
14.2095
14.016
13.8395
13.6996
13.6076
13.5639
705.941
447.183
17.5583
17.1631
16.8527
16.4657
16.2163
16.7694
17.5467
18.0183
18.1764
18.0854
17.775
17.3748
17.1003
16.9836
16.9388
16.9057
16.8567