/*--------------------------------*- C++ -*----------------------------------*\
| =========                 |                                                 |
| \\      /  F ield         | OpenFOAM: The Open Source CFD Toolbox           |
|  \\    /   O peration     | Version:  v2006                                 |
|   \\  /    A nd           | Website:  www.openfoam.com                      |
|    \\/     M anipulation  |                                                 |
\*---------------------------------------------------------------------------*/
FoamFile
{
    version     2.0;
    format      ascii;
    class       surfaceScalarField;
    location    "65";
    object      phi;
}
// * * * * * * * * * * * * * * * * * * * * * * * * * * * * * * * * * * * * * //

dimensions      [1 0 -1 0 0 0 0];
oriented        oriented;


internalField   nonuniform List<scalar> 
228225
(
-0.000295856
-2.32396e-05
-7.11823e-06
-0.000268589
-2.07353e-05
-6.46915e-06
-0.000240838
-2.11933e-05
-6.48972e-06
-0.000213147
-2.14992e-05
-6.12361e-06
-0.000188172
-1.95409e-05
-5.36393e-06
-0.000166694
-1.68394e-05
-4.57262e-06
-0.000147996
-1.48319e-05
-3.80296e-06
-0.0001317
-1.29802e-05
-3.26677e-06
-0.000117368
-1.15201e-05
-2.77128e-06
-0.000104819
-1.01527e-05
-2.36413e-06
-9.36806e-05
-9.05032e-06
-2.06366e-06
-8.37214e-05
-8.07105e-06
-1.87128e-06
-7.47202e-05
-7.23605e-06
-1.75355e-06
-6.65011e-05
-6.51687e-06
-1.69531e-06
-5.8923e-05
-5.89613e-06
-1.67833e-06
-5.18797e-05
-5.35362e-06
-1.68827e-06
-4.52944e-05
-4.86991e-06
-1.71535e-06
-3.9115e-05
-4.4288e-06
-1.75128e-06
-3.33059e-05
-4.01851e-06
-1.79124e-06
-2.78417e-05
-3.63244e-06
-1.83207e-06
-2.26987e-05
-3.26829e-06
-1.87423e-06
-1.78502e-05
-2.92698e-06
-1.92021e-06
-1.32645e-05
-2.61168e-06
-1.97133e-06
-8.90886e-06
-2.32566e-06
-2.02598e-06
-4.75342e-06
-2.07013e-06
-2.07973e-06
-7.79229e-07
-1.84171e-06
-2.12568e-06
3.01187e-06
-1.6296e-06
-2.15445e-06
6.58367e-06
-1.41251e-06
-2.15392e-06
9.8511e-06
-1.15825e-06
-2.1088e-06
1.26718e-05
-8.27824e-07
-2.00248e-06
1.48501e-05
-3.85553e-07
-1.81898e-06
1.60744e-05
2.63464e-07
-1.53764e-06
1.56681e-05
1.44408e-06
-1.11658e-06
1.18759e-05
4.10213e-06
-4.11915e-07
1.12466e-05
6.83711e-07
-9.01626e-06
-1.07618e-05
-3.48006e-06
-1.7519e-05
-6.14368e-06
-6.0697e-06
-2.38036e-05
-7.70552e-06
-7.10386e-06
-2.98627e-05
-8.47242e-06
-6.78937e-06
-3.5158e-05
-7.91854e-06
-6.08698e-06
-3.89276e-05
-7.37753e-06
-5.38815e-06
-4.15357e-05
-6.99875e-06
-4.87928e-06
-4.29948e-05
-6.57206e-06
-4.58388e-06
-4.35995e-05
-6.03634e-06
-4.51531e-06
-4.33423e-05
-5.41448e-06
-4.64866e-06
-4.24076e-05
-4.75009e-06
-4.91205e-06
-4.08619e-05
-4.08224e-06
-5.23707e-06
-3.8826e-05
-3.44631e-06
-5.55334e-06
-3.64252e-05
-2.86722e-06
-5.80228e-06
-3.37887e-05
-2.36156e-06
-5.94603e-06
-3.10304e-05
-1.93665e-06
-5.97204e-06
-2.82404e-05
-1.58895e-06
-5.88802e-06
-2.54853e-05
-1.30968e-06
-5.71024e-06
-2.2808e-05
-1.08646e-06
-5.46258e-06
-2.02271e-05
-9.06381e-07
-5.17534e-06
-1.77332e-05
-7.59442e-07
-4.88419e-06
-1.52868e-05
-6.38015e-07
-4.62754e-06
-1.28284e-05
-5.31462e-07
-4.43915e-06
-1.02939e-05
-4.27163e-07
-4.33917e-06
-7.63002e-06
-3.12399e-07
-4.33089e-06
-4.80152e-06
-1.75666e-07
-4.40428e-06
-1.80098e-06
2.61705e-09
-4.54036e-06
1.24399e-06
3.51868e-07
-4.71303e-06
4.28858e-06
7.87871e-07
-4.88914e-06
7.1941e-06
1.40306e-06
-5.02939e-06
9.68558e-06
2.32011e-06
-5.08664e-06
1.12523e-05
3.79375e-06
-4.98978e-06
1.08362e-05
6.5184e-06
-4.57578e-06
6.13065e-06
1.21304e-05
-3.31016e-06
1.80246e-05
-5.50049e-07
-8.11038e-06
-1.27404e-06
-1.3434e-06
-8.50414e-06
-2.88163e-06
-2.76807e-06
-1.06395e-05
-2.77058e-06
-2.68059e-06
-1.48372e-05
-1.73378e-06
-2.41199e-06
-1.91778e-05
-1.24241e-06
-2.18873e-06
-2.27445e-05
-1.63703e-06
-1.99424e-06
-2.54733e-05
-2.22867e-06
-1.83228e-06
-2.74939e-05
-2.59695e-06
-1.73406e-06
-2.88884e-05
-2.71602e-06
-1.71836e-06
-2.97215e-05
-2.61241e-06
-1.78864e-06
-3.01016e-05
-2.30149e-06
-1.91988e-06
-3.01431e-05
-1.82204e-06
-2.1028e-06
-2.99472e-05
-1.2371e-06
-2.31945e-06
-2.95935e-05
-6.09918e-07
-2.55108e-06
-2.91741e-05
3.83928e-08
-2.78048e-06
-2.85817e-05
4.89273e-07
-2.99528e-06
-2.78983e-05
9.28947e-07
-3.18997e-06
-2.71596e-05
1.3176e-06
-3.36294e-06
-2.63919e-05
1.66108e-06
-3.5178e-06
-2.56075e-05
1.96336e-06
-3.66011e-06
-2.47888e-05
2.21286e-06
-3.79863e-06
-2.38889e-05
2.40481e-06
-3.95049e-06
-2.28465e-05
2.55583e-06
-4.13604e-06
-2.16112e-05
2.69051e-06
-4.35629e-06
-2.0149e-05
2.83279e-06
-4.60616e-06
-1.84197e-05
3.00385e-06
-4.90094e-06
-1.63766e-05
3.22627e-06
-5.24975e-06
-1.38917e-05
3.5297e-06
-5.63418e-06
-1.10117e-05
3.95761e-06
-6.00577e-06
-7.83142e-06
4.58267e-06
-6.29438e-06
-4.53145e-06
5.54323e-06
-6.42624e-06
-1.43096e-06
7.17181e-06
-6.33197e-06
8.3896e-07
1.03702e-05
-5.89767e-06
1.30421e-06
1.6615e-05
-4.67555e-06
2.1068e-05
-1.5469e-06
-3.44474e-07
-6.59432e-07
-3.1485e-07
-3.38135e-06
5.73698e-07
-4.32346e-07
-7.18994e-06
1.15868e-06
-1.4105e-07
-1.17003e-05
2.78965e-06
-8.92248e-08
-1.67992e-05
3.96546e-06
-2.05347e-07
-2.18822e-05
3.70644e-06
-3.0847e-07
-2.69184e-05
3.10893e-06
-3.19291e-07
-3.18385e-05
2.61543e-06
-2.99488e-07
-3.64258e-05
2.17192e-06
-3.06353e-07
-4.03927e-05
1.72244e-06
-3.75981e-07
-4.35346e-05
1.35206e-06
-5.23419e-07
-4.58358e-05
1.21053e-06
-7.46842e-07
-4.73727e-05
1.32482e-06
-1.04327e-06
-4.81959e-05
1.59926e-06
-1.40662e-06
-4.83037e-05
1.94886e-06
-1.82549e-06
-4.78792e-05
2.32976e-06
-2.28984e-06
-4.69159e-05
2.73046e-06
-2.79167e-06
-4.54486e-05
3.14629e-06
-3.32518e-06
-4.34954e-05
3.57514e-06
-3.89922e-06
-4.10433e-05
4.01014e-06
-4.53399e-06
-3.80791e-05
4.43179e-06
-5.2222e-06
-3.4633e-05
4.83517e-06
-5.92028e-06
-3.07926e-05
5.23489e-06
-6.56899e-06
-2.66792e-05
5.65181e-06
-7.13111e-06
-2.24112e-05
6.10593e-06
-7.60512e-06
-1.81e-05
6.61457e-06
-7.99358e-06
-1.38613e-05
7.19612e-06
-8.28763e-06
-9.81948e-06
7.8751e-06
-8.47233e-06
-6.11439e-06
8.69025e-06
-8.52641e-06
-2.90921e-06
9.71186e-06
-8.4224e-06
-4.10982e-07
1.10857e-05
-8.12114e-06
1.09557e-06
1.31457e-05
-7.53997e-06
1.29789e-06
1.66211e-05
-6.45726e-06
5.82709e-07
2.18684e-05
-4.41013e-06
2.31985e-05
-1.29603e-06
1.35613e-06
-3.41207e-06
1.28394e-06
5.51778e-06
-5.43465e-06
1.62949e-06
1.0118e-05
-4.92391e-06
1.26084e-06
1.15172e-05
6.33416e-07
6.08013e-07
6.79054e-06
8.76461e-06
-2.18218e-07
-9.58096e-07
1.1885e-05
-5.92263e-07
-9.34458e-06
1.19316e-05
-6.17091e-07
-1.81404e-05
1.16404e-05
-4.28902e-07
-2.72229e-05
1.12268e-05
-1.8836e-07
-3.63115e-05
1.05798e-05
1.61208e-08
-4.49902e-05
9.68078e-06
1.73415e-07
-5.26006e-05
8.67427e-06
3.38604e-08
-5.87792e-05
7.73134e-06
-2.87427e-07
-6.3323e-05
6.9595e-06
-8.43763e-07
-6.62352e-05
6.41541e-06
-1.56351e-06
-6.76474e-05
6.102e-06
-2.35813e-06
-6.77226e-05
5.98243e-06
-3.16735e-06
-6.66131e-05
6.00849e-06
-3.95708e-06
-6.44371e-05
6.13823e-06
-4.72112e-06
-6.13063e-05
6.34276e-06
-5.44446e-06
-5.73741e-05
6.60516e-06
-6.08778e-06
-5.28087e-05
6.92218e-06
-6.63779e-06
-4.77632e-05
7.29757e-06
-7.09857e-06
-4.23759e-05
7.74026e-06
-7.47283e-06
-3.67716e-05
8.26318e-06
-7.7669e-06
-3.10647e-05
8.88323e-06
-7.99018e-06
-2.53609e-05
9.62256e-06
-8.15503e-06
-1.97634e-05
1.05104e-05
-8.26775e-06
-1.43894e-05
1.15889e-05
-8.31653e-06
-9.38691e-06
1.29308e-05
-8.27122e-06
-4.9605e-06
1.46947e-05
-8.08526e-06
-1.44104e-06
1.72586e-05
-7.67023e-06
6.16581e-07
2.13437e-05
-6.78497e-06
7.70771e-07
2.65831e-05
-4.80537e-06
2.56301e-05
-1.49699e-06
-5.89745e-06
2.75628e-06
-7.29177e-07
-9.78067e-06
-1.55503e-06
-4.55508e-07
-4.33205e-06
-1.0709e-05
7.31347e-08
2.18293e-06
-6.88044e-06
1.21471e-06
4.0762e-06
6.52733e-06
5.21402e-07
4.35295e-06
1.24613e-05
-8.83277e-07
3.20192e-06
1.4548e-05
-1.44206e-06
7.11303e-07
1.57817e-05
-1.5909e-06
-2.72743e-06
1.63175e-05
-1.5958e-06
-7.15159e-06
1.66085e-05
-1.57463e-06
-1.24682e-05
1.65916e-05
-1.60565e-06
-1.82325e-05
1.61452e-05
-1.7559e-06
-2.38632e-05
1.53634e-05
-2.07124e-06
-2.89055e-05
1.44818e-05
-2.55257e-06
-3.30844e-05
1.36883e-05
-3.15871e-06
-3.62656e-05
1.30644e-05
-3.83496e-06
-3.84031e-05
1.26135e-05
-4.53644e-06
-3.9506e-05
1.23119e-05
-5.23285e-06
-3.96216e-05
1.21348e-05
-5.90342e-06
-3.88251e-05
1.20628e-05
-6.52963e-06
-3.72149e-05
1.20832e-05
-7.09214e-06
-3.49036e-05
1.21883e-05
-7.57207e-06
-3.20127e-05
1.23738e-05
-7.95213e-06
-2.86679e-05
1.26398e-05
-8.21891e-06
-2.49932e-05
1.29914e-05
-8.36511e-06
-2.11079e-05
1.344e-05
-8.38855e-06
-1.7125e-05
1.40044e-05
-8.29035e-06
-1.31452e-05
1.47137e-05
-8.07886e-06
-9.24794e-06
1.56137e-05
-7.77456e-06
-5.5094e-06
1.67858e-05
-7.38204e-06
-2.05343e-06
1.8401e-05
-6.8561e-06
8.67359e-07
2.08831e-05
-6.1043e-06
2.60914e-06
2.51531e-05
-4.97292e-06
2.16256e-06
3.06852e-05
-3.14071e-06
2.86286e-05
-5.97806e-07
-1.44255e-05
1.76783e-05
-1.0355e-06
-4.27686e-05
2.62896e-05
-2.08808e-06
-7.54537e-05
1.91638e-05
8.52706e-07
-0.000100265
1.63776e-05
3.47261e-06
-0.000113472
1.91669e-05
2.15085e-06
-0.000120043
1.8795e-05
1.11393e-06
-0.000123081
1.80142e-05
5.571e-07
-0.000123266
1.66851e-05
-9.47335e-08
-0.000120344
1.43595e-05
-4.96258e-07
-0.000114637
1.21746e-05
-8.97436e-07
-0.000107132
1.07234e-05
-1.32765e-06
-9.89686e-05
9.99487e-06
-1.79276e-06
-9.11666e-05
9.97794e-06
-2.28456e-06
-8.44057e-05
1.0586e-05
-2.80077e-06
-7.87834e-05
1.14269e-05
-3.34097e-06
-7.38886e-05
1.20634e-05
-3.90237e-06
-6.92715e-05
1.24456e-05
-4.47912e-06
-6.46686e-05
1.27245e-05
-5.06465e-06
-5.99443e-05
1.29947e-05
-5.65249e-06
-5.50163e-05
1.32827e-05
-6.23605e-06
-4.9834e-05
1.35989e-05
-6.80782e-06
-4.43841e-05
1.39625e-05
-7.35784e-06
-3.86933e-05
1.43943e-05
-7.87178e-06
-3.28276e-05
1.49128e-05
-8.3292e-06
-2.68932e-05
1.55374e-05
-8.70479e-06
-2.10318e-05
1.62925e-05
-8.97658e-06
-1.5415e-05
1.72128e-05
-9.13079e-06
-1.02393e-05
1.83468e-05
-9.1614e-06
-5.71911e-06
1.97628e-05
-9.07028e-06
-2.08481e-06
2.15632e-05
-8.85563e-06
3.97755e-07
2.39164e-05
-8.46868e-06
1.43505e-06
2.71257e-05
-7.74956e-06
1.0891e-06
3.1487e-05
-6.3911e-06
4.94975e-07
3.52358e-05
-4.14222e-06
3.0357e-05
-1.10988e-06
1.06318e-05
4.14959e-06
2.77344e-06
1.69761e-05
1.78623e-05
1.3509e-06
8.82416e-06
2.65983e-05
-2.95641e-07
-5.91375e-06
3.16785e-05
-1.0799e-06
-1.80332e-05
3.27517e-05
-1.6794e-06
-2.96586e-05
3.20422e-05
-2.01101e-06
-4.10034e-05
3.06958e-05
-1.97549e-06
-5.23257e-05
2.87844e-05
-1.70463e-06
-6.37244e-05
2.6045e-05
-1.33235e-06
-7.46458e-05
2.31859e-05
-1.07752e-06
-8.47816e-05
2.08878e-05
-1.02354e-06
-9.37229e-05
1.919e-05
-1.12558e-06
-0.000100845
1.80213e-05
-1.3981e-06
-0.000105633
1.71513e-05
-1.83702e-06
-0.000107857
1.61284e-05
-2.33961e-06
-0.000107611
1.47675e-05
-2.81211e-06
-0.000105238
1.34387e-05
-3.25789e-06
-0.000101179
1.24607e-05
-3.6986e-06
-9.58121e-05
1.18653e-05
-4.14258e-06
-8.94251e-05
1.15813e-05
-4.58884e-06
-8.22414e-05
1.15455e-05
-5.03173e-06
-7.44461e-05
1.17329e-05
-5.46686e-06
-6.62038e-05
1.21369e-05
-5.89016e-06
-5.76571e-05
1.27471e-05
-6.29771e-06
-4.89348e-05
1.35515e-05
-6.67487e-06
-4.01791e-05
1.45562e-05
-6.99331e-06
-3.15625e-05
1.58007e-05
-7.23208e-06
-2.33092e-05
1.73665e-05
-7.3793e-06
-1.57302e-05
1.93887e-05
-7.42489e-06
-9.26319e-06
2.20709e-05
-7.35548e-06
-4.48199e-06
2.56773e-05
-7.13466e-06
-1.90406e-06
3.03571e-05
-6.62904e-06
-1.17539e-06
3.53102e-05
-5.44958e-06
-4.3288e-07
3.73386e-05
-3.36864e-06
3.09827e-05
-9.36968e-07
3.44257e-06
-3.67206e-06
3.8077e-06
9.29692e-06
6.52929e-06
4.88365e-06
1.62532e-05
1.46244e-05
4.4643e-06
2.13373e-05
2.23382e-05
4.12382e-06
2.41312e-05
2.63386e-05
3.82896e-06
2.47779e-05
2.81595e-05
3.45718e-06
2.31726e-05
2.91372e-05
2.95139e-06
1.88631e-05
2.99476e-05
2.34152e-06
1.14367e-05
3.05755e-05
1.78191e-06
1.36689e-06
3.08321e-05
1.2936e-06
-1.0233e-05
3.0635e-05
8.25444e-07
-2.22673e-05
2.99225e-05
3.49769e-07
-3.36991e-05
2.86302e-05
-1.32901e-07
-4.36808e-05
2.67249e-05
-6.01962e-07
-5.17707e-05
2.43327e-05
-1.14934e-06
-5.80518e-05
2.18513e-05
-1.76648e-06
-6.27144e-05
1.97188e-05
-2.42398e-06
-6.58783e-05
1.80858e-05
-3.07515e-06
-6.76305e-05
1.68804e-05
-3.68844e-06
-6.80462e-05
1.5988e-05
-4.25489e-06
-6.71776e-05
1.53208e-05
-4.77755e-06
-6.50673e-05
1.48579e-05
-5.25943e-06
-6.17713e-05
1.4616e-05
-5.69707e-06
-5.73805e-05
1.46158e-05
-6.08006e-06
-5.20176e-05
1.48705e-05
-6.40171e-06
-4.58246e-05
1.5391e-05
-6.65066e-06
-3.89577e-05
1.6204e-05
-6.80307e-06
-3.15798e-05
1.73752e-05
-6.83817e-06
-2.38771e-05
1.90406e-05
-6.73887e-06
-1.61232e-05
2.14565e-05
-6.48569e-06
-8.81502e-06
2.5053e-05
-6.05272e-06
-2.87593e-06
3.0323e-05
-5.38599e-06
4.37505e-07
3.66261e-05
-4.30115e-06
1.09172e-06
3.9318e-05
-2.4426e-06
3.25544e-05
-3.74343e-07
-1.17702e-05
1.76548e-06
6.05149e-06
-2.11364e-05
9.31098e-06
6.89546e-06
-2.20368e-05
9.84176e-06
6.0216e-06
-1.89341e-05
1.35743e-05
5.73082e-06
-1.55938e-05
1.7673e-05
5.28214e-06
-1.4136e-05
2.18604e-05
4.6818e-06
-1.47354e-05
2.54333e-05
4.03377e-06
-1.61088e-05
2.75776e-05
3.46488e-06
-1.73447e-05
2.85541e-05
3.04188e-06
-1.83913e-05
2.90371e-05
2.73044e-06
-1.94022e-05
2.91778e-05
2.47749e-06
-2.0514e-05
2.88945e-05
2.2475e-06
-2.17883e-05
2.80485e-05
2.00202e-06
-2.32328e-05
2.6605e-05
1.6842e-06
-2.48845e-05
2.48087e-05
1.23848e-06
-2.67062e-05
2.30417e-05
6.46974e-07
-2.8414e-05
2.15004e-05
-8.34267e-08
-2.97762e-05
2.02071e-05
-7.79415e-07
-3.05411e-05
1.9218e-05
-1.60015e-06
-3.08282e-05
1.87563e-05
-2.52096e-06
-3.07742e-05
1.87103e-05
-3.4971e-06
-3.03906e-05
1.88636e-05
-4.44864e-06
-2.96755e-05
1.916e-05
-5.3109e-06
-2.85657e-05
1.95401e-05
-6.06246e-06
-2.69462e-05
1.99615e-05
-6.69773e-06
-2.47128e-05
2.04368e-05
-7.20606e-06
-2.18016e-05
2.10225e-05
-7.57408e-06
-1.82094e-05
2.18251e-05
-7.78192e-06
-1.39981e-05
2.30162e-05
-7.79946e-06
-9.29598e-06
2.48737e-05
-7.5764e-06
-4.41648e-06
2.79224e-05
-7.02671e-06
-1.81839e-07
3.29751e-05
-6.03446e-06
2.01266e-06
3.97402e-05
-4.51939e-06
1.62952e-06
4.27246e-05
-2.57057e-06
3.4642e-05
-3.37347e-07
-1.38286e-05
8.17828e-06
6.07867e-06
-3.1823e-05
2.06956e-05
5.48039e-06
-4.60174e-05
1.84304e-05
5.96216e-06
-5.56835e-05
1.79655e-05
5.95645e-06
-6.26351e-05
1.96505e-05
5.8475e-06
-6.80839e-05
2.25922e-05
5.69927e-06
-7.26798e-05
2.5458e-05
5.45858e-06
-7.6439e-05
2.68495e-05
5.13585e-06
-7.90583e-05
2.68262e-05
4.84449e-06
-8.04122e-05
2.62205e-05
4.62095e-06
-8.04491e-05
2.52087e-05
4.41235e-06
-7.89659e-05
2.35888e-05
4.1572e-06
-7.56386e-05
2.1148e-05
3.80864e-06
-7.02763e-05
1.8024e-05
3.35267e-06
-6.30876e-05
1.48603e-05
2.82021e-06
-5.45881e-05
1.23286e-05
2.23196e-06
-4.60538e-05
1.13955e-05
1.55744e-06
-4.02692e-05
1.35813e-05
7.77377e-07
-3.86878e-05
1.75504e-05
-5.69568e-08
-3.87402e-05
1.92845e-05
-6.55412e-07
-3.82437e-05
1.93883e-05
-1.38208e-06
-3.69512e-05
1.95988e-05
-2.27851e-06
-3.46609e-05
1.98571e-05
-3.29587e-06
-3.14645e-05
2.0325e-05
-4.3569e-06
-2.76291e-05
2.1059e-05
-5.37533e-06
-2.35717e-05
2.21639e-05
-6.29408e-06
-1.96475e-05
2.36071e-05
-7.09037e-06
-1.59923e-05
2.52684e-05
-7.74941e-06
-1.25986e-05
2.71405e-05
-8.22601e-06
-9.48131e-06
2.94307e-05
-8.41402e-06
-6.75445e-06
3.25547e-05
-8.07574e-06
-4.56315e-06
3.70518e-05
-6.85052e-06
-2.71413e-06
4.22788e-05
-4.69693e-06
-1.2528e-06
4.35216e-05
-2.42543e-06
3.37323e-05
-3.96012e-07
-8.36079e-06
6.25502e-06
9.78474e-06
-1.94175e-05
2.47078e-05
5.23839e-06
-3.22767e-05
2.74843e-05
2.21813e-06
-4.32037e-05
2.64333e-05
1.21394e-06
-5.08027e-05
2.55058e-05
7.2163e-07
-5.46423e-05
2.50985e-05
5.06504e-07
-5.5369e-05
2.50524e-05
4.54744e-07
-5.45512e-05
2.49831e-05
4.6003e-07
-5.33538e-05
2.46179e-05
4.76577e-07
-5.20037e-05
2.3872e-05
4.88852e-07
-5.04971e-05
2.26913e-05
4.86576e-07
-4.89234e-05
2.09739e-05
4.69983e-07
-4.76e-05
1.87181e-05
4.81373e-07
-4.70914e-05
1.62401e-05
6.16577e-07
-4.79183e-05
1.40552e-05
9.62175e-07
-5.06198e-05
1.27403e-05
1.60392e-06
-5.55489e-05
1.29267e-05
2.78456e-06
-6.29819e-05
1.63264e-05
4.51312e-06
-7.20402e-05
2.14832e-05
5.45668e-06
-7.81735e-05
2.1079e-05
4.54115e-06
-7.85275e-05
1.65232e-05
3.21185e-06
-7.40126e-05
1.28797e-05
2.12198e-06
-6.64376e-05
1.11208e-05
1.04281e-06
-5.91427e-05
1.30241e-05
-1.30099e-07
-5.33857e-05
1.63628e-05
-1.23389e-06
-4.75519e-05
1.8497e-05
-2.38734e-06
-4.11505e-05
2.0417e-05
-3.49796e-06
-3.43815e-05
2.25951e-05
-4.50177e-06
-2.77512e-05
2.52782e-05
-5.35778e-06
-2.17904e-05
2.86688e-05
-6.0297e-06
-1.67228e-05
3.28038e-05
-6.40335e-06
-1.22016e-05
3.74306e-05
-6.1097e-06
-7.47308e-06
4.12201e-05
-4.63197e-06
-3.18887e-06
4.1038e-05
-2.34582e-06
3.08446e-05
-4.13415e-07
-1.3767e-05
7.12308e-06
1.377e-05
-1.64168e-05
1.57914e-05
1.24125e-05
-1.35818e-05
1.60552e-05
9.00061e-06
-8.4755e-06
1.40439e-05
7.52041e-06
-1.92437e-06
1.23056e-05
6.79477e-06
5.8142e-06
1.10686e-05
6.36818e-06
1.44582e-05
1.0372e-05
6.06061e-06
2.346e-05
1.01584e-05
5.80422e-06
3.21234e-05
1.03275e-05
5.57235e-06
3.97686e-05
1.07812e-05
5.36253e-06
4.57187e-05
1.14546e-05
5.17866e-06
4.91832e-05
1.23558e-05
5.02253e-06
4.93682e-05
1.34815e-05
4.90258e-06
4.58052e-05
1.48366e-05
4.80788e-06
3.84782e-05
1.64793e-05
4.75116e-06
2.78843e-05
1.8534e-05
4.65537e-06
1.52959e-05
2.09116e-05
4.46201e-06
3.37115e-06
2.37723e-05
4.23535e-06
-5.60063e-06
2.70227e-05
2.97536e-06
-1.18899e-05
2.60924e-05
7.20493e-07
-1.8005e-05
2.24021e-05
-3.52909e-07
-2.49026e-05
1.93395e-05
-1.29975e-07
-3.33576e-05
1.80693e-05
1.08849e-06
-4.40668e-05
2.08094e-05
2.85973e-06
-5.35293e-05
2.30523e-05
3.13838e-06
-5.79826e-05
2.15681e-05
1.97237e-06
-5.72086e-05
2.00128e-05
3.46556e-07
-5.2671e-05
2.01917e-05
-1.27631e-06
-4.5572e-05
2.2004e-05
-2.80924e-06
-3.67116e-05
2.49678e-05
-4.0231e-06
-2.68228e-05
2.88576e-05
-4.80235e-06
-1.69403e-05
3.35048e-05
-5.01658e-06
-8.58631e-06
3.76969e-05
-4.26616e-06
-2.81552e-06
3.78947e-05
-2.20198e-06
2.8707e-05
-2.40756e-07
-1.4457e-05
1.23958e-05
9.95261e-06
-1.23221e-05
5.42763e-06
9.28693e-06
-1.56348e-06
-1.18852e-06
7.36105e-06
1.21865e-05
-5.30667e-06
6.25691e-06
2.72366e-05
-7.92617e-06
5.67442e-06
4.26956e-05
-9.36307e-06
5.34671e-06
5.80836e-05
-9.89021e-06
5.16085e-06
7.31056e-05
-9.70829e-06
5.06511e-06
8.75249e-05
-8.95893e-06
5.03588e-06
0.000101141
-7.76468e-06
5.05695e-06
0.00011379
-6.22893e-06
5.12723e-06
0.000125278
-4.31717e-06
5.24557e-06
0.000135446
-2.0629e-06
5.41393e-06
0.000144321
3.43012e-07
5.62858e-06
0.000150695
4.21201e-06
5.8821e-06
0.000155246
7.75448e-06
6.20005e-06
0.000158155
1.14414e-05
6.51391e-06
0.000159873
1.51159e-05
6.86572e-06
0.000160389
1.92313e-05
7.1623e-06
0.000155946
2.31339e-05
7.21422e-06
0.000143905
2.69208e-05
7.2294e-06
0.000125627
3.02276e-05
7.0921e-06
0.000102663
3.33941e-05
7.1391e-06
7.88644e-05
3.7333e-05
6.70721e-06
5.803e-05
3.89672e-05
4.83877e-06
3.95772e-05
3.72554e-05
2.94153e-06
2.25905e-05
3.49651e-05
2.14953e-06
7.88567e-06
3.33e-05
1.78296e-06
-2.82387e-06
3.23398e-05
8.98101e-07
-8.37373e-06
3.21276e-05
-5.80644e-07
-8.76551e-06
3.30007e-05
-2.11171e-06
-4.8514e-06
3.52274e-05
-3.31998e-06
4.33265e-07
3.87234e-05
-3.70543e-06
2.48977e-06
4.05838e-05
-2.6928e-06
3.25788e-05
-4.38956e-07
1.18842e-05
-3.58548e-06
4.15758e-06
3.03488e-05
-1.61579e-05
3.08077e-06
4.88651e-05
-2.21872e-05
2.29885e-06
6.63103e-05
-2.49213e-05
1.90885e-06
8.23017e-05
-2.58578e-05
1.64019e-06
9.68981e-05
-2.56741e-05
1.39678e-06
0.000110262
-2.47367e-05
1.15831e-06
0.000122569
-2.32643e-05
9.25021e-07
0.000133958
-2.13715e-05
7.03956e-07
0.000144484
-1.91041e-05
4.99468e-07
0.000153995
-1.63884e-05
3.33493e-07
0.000161926
-1.27978e-05
2.3492e-07
0.000167372
-8.02108e-06
2.15902e-07
0.000169933
-2.74669e-06
2.55147e-07
0.000171091
2.41096e-06
3.83718e-07
0.000171129
6.85656e-06
6.09321e-07
0.000170682
1.07234e-05
9.3063e-07
0.000169735
1.44777e-05
1.36367e-06
0.000168381
1.84675e-05
1.91525e-06
0.000166031
2.27183e-05
2.5829e-06
0.000161904
2.74329e-05
3.40943e-06
0.00015562
3.21187e-05
4.21424e-06
0.00014757
3.62284e-05
5.03079e-06
0.000138037
4.07522e-05
5.78186e-06
0.000124834
4.55909e-05
6.06327e-06
0.000106723
4.90937e-05
5.77303e-06
8.65623e-05
5.01218e-05
4.92113e-06
6.72162e-05
4.91927e-05
3.79938e-06
4.99934e-05
4.74435e-05
2.64251e-06
3.58525e-05
4.57534e-05
1.19502e-06
2.55714e-05
4.49488e-05
-6.48464e-07
1.90789e-05
4.56624e-05
-2.43144e-06
1.47388e-05
4.85401e-05
-3.58364e-06
8.78342e-06
5.13083e-05
-3.15965e-06
4.27439e-05
-6.32458e-07
1.41632e-05
-1.866e-05
6.89151e-07
2.84702e-05
-3.04532e-05
-3.2988e-07
4.03403e-05
-3.361e-05
-7.11938e-07
5.02558e-05
-3.41233e-05
-9.04814e-07
5.87366e-05
-3.34446e-05
-1.02957e-06
6.60858e-05
-3.19927e-05
-1.12866e-06
7.24934e-05
-3.00087e-05
-1.21222e-06
7.81304e-05
-2.76958e-05
-1.27484e-06
8.3135e-05
-2.5146e-05
-1.30594e-06
8.74562e-05
-2.22397e-05
-1.29234e-06
9.06215e-05
-1.85563e-05
-1.18455e-06
9.20516e-05
-1.35682e-05
-9.32498e-07
9.20983e-05
-7.62235e-06
-6.68638e-07
9.14299e-05
-1.59886e-06
-5.40647e-07
9.1494e-05
2.93706e-06
-5.28626e-07
9.24174e-05
6.56414e-06
-5.36216e-07
9.40108e-05
9.71733e-06
-4.9712e-07
9.6034e-05
1.29075e-05
-3.65573e-07
9.80526e-05
1.66349e-05
-9.12236e-08
9.91781e-05
2.13962e-05
2.8779e-07
9.80062e-05
2.77136e-05
9.29073e-07
9.27929e-05
3.54922e-05
1.75284e-06
8.30421e-05
4.28678e-05
2.7094e-06
7.14092e-05
4.79054e-05
3.71692e-06
6.15104e-05
5.06124e-05
4.17289e-06
5.49304e-05
5.17735e-05
3.71297e-06
5.01035e-05
5.23863e-05
2.80562e-06
4.51351e-05
5.24991e-05
1.97895e-06
3.87145e-05
5.2834e-05
1.2445e-06
3.07947e-05
5.35268e-05
2.7815e-07
2.25445e-05
5.43569e-05
-1.09225e-06
1.5132e-05
5.58583e-05
-2.86595e-06
8.91379e-06
5.84763e-05
-4.04335e-06
4.24483e-06
5.93021e-05
-3.67242e-06
4.79924e-05
-1.09245e-06
7.49828e-06
-2.59558e-05
-2.72914e-07
1.48338e-05
-3.69439e-05
-8.88221e-07
2.09787e-05
-3.86853e-05
-1.08863e-06
2.6316e-05
-3.82808e-05
-1.19308e-06
3.07894e-05
-3.66192e-05
-1.3128e-06
3.41889e-05
-3.39582e-05
-1.45397e-06
3.65175e-05
-3.07857e-05
-1.58552e-06
3.80506e-05
-2.7622e-05
-1.66369e-06
3.91497e-05
-2.46851e-05
-1.64502e-06
3.99971e-05
-2.17199e-05
-1.4774e-06
4.05108e-05
-1.8091e-05
-1.10863e-06
4.03678e-05
-1.29181e-05
-6.43765e-07
3.98829e-05
-6.90211e-06
-3.46452e-07
4.04992e-05
-2.04871e-06
-2.33062e-07
4.24172e-05
1.17186e-06
-1.8117e-07
4.55354e-05
3.553e-06
-1.1e-07
4.93991e-05
5.85128e-06
1.58212e-08
5.34395e-05
8.66438e-06
2.26088e-07
5.6799e-05
1.26717e-05
6.26319e-07
5.82314e-05
1.86861e-05
1.27045e-06
5.61024e-05
2.75584e-05
2.17475e-06
4.82733e-05
3.97714e-05
3.18882e-06
3.45454e-05
5.23984e-05
3.49831e-06
2.01666e-05
5.9006e-05
2.46257e-06
1.17443e-05
5.76216e-05
8.14461e-07
1.0052e-05
5.31617e-05
-1.30677e-07
1.10183e-05
5.10595e-05
-1.36221e-07
1.17435e-05
5.11829e-05
-5.15674e-08
1.08519e-05
5.29761e-05
-9.83447e-08
7.7404e-06
5.60508e-05
-5.55866e-07
3.31812e-06
5.90103e-05
-1.67396e-06
-5.152e-07
6.12486e-05
-3.23713e-06
-2.31751e-06
6.28295e-05
-4.23509e-06
-1.81331e-06
6.10635e-05
-3.71247e-06
4.66328e-05
-1.41261e-06
8.16946e-06
-3.3402e-05
-6.35889e-07
1.55944e-05
-4.3241e-05
-1.05375e-06
2.20812e-05
-4.37212e-05
-1.36814e-06
2.75827e-05
-4.20532e-05
-1.62674e-06
3.12809e-05
-3.82731e-05
-1.9175e-06
3.31883e-05
-3.3497e-05
-2.23482e-06
3.38448e-05
-2.88049e-05
-2.50987e-06
3.35957e-05
-2.45628e-05
-2.69026e-06
3.25428e-05
-2.07648e-05
-2.75834e-06
3.07424e-05
-1.71262e-05
-2.70238e-06
2.83772e-05
-1.32461e-05
-2.42428e-06
2.58004e-05
-8.62597e-06
-1.71997e-06
2.35395e-05
-3.70583e-06
-9.7087e-07
2.19618e-05
1.09307e-07
-6.07983e-07
2.10654e-05
2.49932e-06
-4.45554e-07
2.0743e-05
4.15239e-06
-2.83969e-07
2.09103e-05
5.72206e-06
-4.15522e-08
2.15521e-05
7.7318e-06
2.84879e-07
2.23831e-05
1.09272e-05
8.94001e-07
2.28689e-05
1.62637e-05
1.88047e-06
2.21866e-05
2.48596e-05
3.2377e-06
1.93552e-05
3.75987e-05
4.68537e-06
1.36276e-05
5.24635e-05
5.15118e-06
5.73467e-06
6.27911e-05
3.49618e-06
-2.0623e-06
6.41664e-05
6.06932e-07
-7.88146e-06
5.97061e-05
-1.39771e-06
-1.10471e-05
5.51043e-05
-1.67885e-06
-1.2165e-05
5.23893e-05
-1.19529e-06
-1.19895e-05
5.20222e-05
-7.17627e-07
-1.13468e-05
5.41054e-05
-6.16615e-07
-1.10336e-05
5.77127e-05
-1.29691e-06
-1.04589e-05
6.09266e-05
-2.71329e-06
-8.19957e-06
6.20893e-05
-3.83658e-06
-4.6544e-06
5.88969e-05
-3.29599e-06
4.21268e-05
-1.23759e-06
3.90994e-06
-3.71657e-05
-9.25264e-09
6.24319e-06
-4.56024e-05
9.35751e-08
7.8016e-06
-4.50276e-05
-1.74258e-07
8.06891e-06
-4.15996e-05
-5.94872e-07
6.26144e-06
-3.50722e-05
-1.22426e-06
3.76583e-06
-2.90594e-05
-1.82117e-06
1.72534e-06
-2.45189e-05
-2.19678e-06
2.6952e-07
-2.07549e-05
-2.35664e-06
-1.09922e-06
-1.70903e-05
-2.33966e-06
-3.07072e-06
-1.30431e-05
-2.15954e-06
-6.14572e-06
-8.38264e-06
-1.84449e-06
-9.64105e-06
-3.65451e-06
-1.53121e-06
-1.20737e-05
4.56672e-08
-1.35316e-06
-1.26646e-05
1.91793e-06
-1.2299e-06
-1.24679e-05
3.3889e-06
-1.08698e-06
-1.20848e-05
4.67136e-06
-8.95386e-07
-1.16925e-05
5.97209e-06
-6.28859e-07
-1.12524e-05
7.5482e-06
-2.35252e-07
-1.05249e-05
9.83696e-06
3.96677e-07
-9.07537e-06
1.34737e-05
1.39278e-06
-6.34549e-06
1.9375e-05
2.82268e-06
-1.80178e-06
2.85761e-05
4.53791e-06
3.97557e-06
4.08908e-05
5.82085e-06
8.36675e-06
5.27728e-05
5.59243e-06
8.50514e-06
6.0005e-05
3.80542e-06
3.98306e-06
6.21305e-05
1.65824e-06
-2.8178e-06
6.12808e-05
6.11023e-08
-9.59768e-06
5.92321e-05
-7.3108e-07
-1.48206e-05
5.70321e-05
-7.50606e-07
-1.75661e-05
5.60078e-05
-5.76761e-07
-1.73307e-05
5.64704e-05
-7.3715e-07
-1.52019e-05
5.86061e-05
-1.70968e-06
-1.10618e-05
5.912e-05
-2.90618e-06
-5.78786e-06
5.50099e-05
-2.61417e-06
3.66864e-05
-6.33693e-07
1.75963e-06
-3.97976e-05
9.6015e-07
2.52736e-06
-4.76977e-05
1.33173e-06
2.74061e-06
-4.60413e-05
8.73766e-07
5.77451e-07
-3.93987e-05
1.35943e-07
-3.8468e-06
-2.97215e-05
-7.66532e-07
-8.0536e-06
-2.33185e-05
-1.47428e-06
-1.14752e-05
-1.92515e-05
-1.85256e-06
-1.43047e-05
-1.59429e-05
-2.01902e-06
-1.67051e-05
-1.27059e-05
-2.03452e-06
-1.85884e-05
-9.32041e-06
-1.89672e-06
-1.96954e-05
-5.73393e-06
-1.60495e-06
-1.99541e-05
-2.19433e-06
-1.2727e-06
-1.95486e-05
6.85957e-07
-1.10983e-06
-1.93358e-05
2.74891e-06
-1.08503e-06
-1.92495e-05
4.33694e-06
-1.05351e-06
-1.93854e-05
5.76903e-06
-9.62454e-07
-1.97863e-05
7.17726e-06
-7.89391e-07
-2.03638e-05
8.66855e-06
-5.13047e-07
-2.07716e-05
1.04071e-05
-1.12034e-07
-2.04409e-05
1.26803e-05
5.49906e-07
-1.84332e-05
1.59669e-05
1.55377e-06
-1.34985e-05
2.09534e-05
2.94336e-06
-4.974e-06
2.82264e-05
4.52418e-06
5.41817e-06
3.71683e-05
5.69182e-06
1.40441e-05
4.58675e-05
5.93733e-06
1.80581e-05
5.29851e-05
5.37454e-06
1.69249e-05
5.81365e-05
4.33509e-06
1.14965e-05
6.15401e-05
3.07122e-06
3.54132e-06
6.30946e-05
1.83703e-06
-4.47843e-06
6.29564e-05
9.86758e-07
-1.02288e-05
6.16413e-05
4.3407e-07
-1.04423e-05
5.91503e-05
-2.71341e-07
-6.63412e-06
5.68931e-05
-1.21267e-06
-2.04676e-06
5.23429e-05
-1.20328e-06
3.4864e-05
5.33676e-07
-1.83583e-06
-4.04823e-05
2.4575e-06
-4.07522e-06
-4.88484e-05
3.2789e-06
-6.24934e-06
-4.67197e-05
2.74474e-06
-9.0019e-06
-3.84326e-05
1.73867e-06
-1.27569e-05
-2.65017e-05
4.98396e-07
-1.6705e-05
-1.91932e-05
-2.49858e-07
-2.05784e-05
-1.48399e-05
-6.4105e-07
-2.44242e-05
-1.13577e-05
-8.63117e-07
-2.81339e-05
-8.16711e-06
-9.59264e-07
-3.12233e-05
-5.35921e-06
-9.86215e-07
-3.29938e-05
-3.03335e-06
-1.01389e-06
-3.31256e-05
-1.05157e-06
-1.06877e-06
-3.20087e-05
6.64706e-07
-1.13682e-06
-3.03523e-05
2.26881e-06
-1.20426e-06
-2.86856e-05
3.91007e-06
-1.25397e-06
-2.72396e-05
5.58549e-06
-1.26179e-06
-2.61477e-05
7.30126e-06
-1.19959e-06
-2.54643e-05
9.05817e-06
-1.04113e-06
-2.51076e-05
1.08643e-05
-7.65137e-07
-2.47685e-05
1.27635e-05
-3.50361e-07
-2.38268e-05
1.48828e-05
2.53105e-07
-2.14099e-05
1.74838e-05
1.23393e-06
-1.6319e-05
2.09541e-05
2.48178e-06
-8.17666e-06
2.56075e-05
3.88089e-06
1.78225e-06
3.13741e-05
5.13508e-06
1.15714e-05
3.78706e-05
5.98054e-06
1.94718e-05
4.45916e-05
6.28934e-06
2.43288e-05
5.12369e-05
6.05934e-06
2.4905e-05
5.77821e-05
5.33432e-06
2.19815e-05
6.23204e-05
4.30387e-06
1.52193e-05
6.60038e-05
3.11032e-06
8.81911e-06
6.45969e-05
1.8907e-06
5.71045e-06
6.04965e-05
7.83943e-07
3.80446e-06
5.49612e-05
5.45231e-07
3.76278e-05
1.64931e-06
-7.41308e-06
-3.67657e-05
3.38162e-06
-1.14773e-05
-4.93714e-05
4.26062e-06
-1.32849e-05
-4.92188e-05
3.85126e-06
-1.1675e-05
-4.37929e-05
3.19253e-06
-9.38153e-06
-3.14626e-05
2.32865e-06
-1.0434e-05
-1.98889e-05
1.60956e-06
-1.34632e-05
-1.30047e-05
1.11156e-06
-1.65551e-05
-9.07548e-06
7.41074e-07
-1.88493e-05
-6.36271e-06
4.33796e-07
-2.01665e-05
-4.22443e-06
1.3959e-07
-2.07094e-05
-2.44452e-06
-7.86978e-08
-2.06478e-05
-8.79459e-07
-2.58481e-07
-2.01499e-05
5.89919e-07
-4.40042e-07
-1.93224e-05
2.04496e-06
-6.12181e-07
-1.81798e-05
3.53743e-06
-7.69019e-07
-1.67964e-05
5.1163e-06
-9.02728e-07
-1.52876e-05
6.81552e-06
-1.00013e-06
-1.38077e-05
8.65291e-06
-1.03989e-06
-1.253e-05
1.0625e-05
-9.92194e-07
-1.15893e-05
1.27038e-05
-8.23382e-07
-1.09723e-05
1.48376e-05
-5.0035e-07
-1.03417e-05
1.69748e-05
-2.87664e-08
-9.25481e-06
1.91446e-05
8.52725e-07
-6.92213e-06
2.15237e-05
1.94595e-06
-2.79388e-06
2.4359e-05
3.1808e-06
3.20898e-06
2.78915e-05
4.39922e-06
1.06472e-05
3.23056e-05
5.40871e-06
1.86992e-05
3.78034e-05
6.06833e-06
2.6037e-05
4.49117e-05
6.34274e-06
3.10515e-05
5.20973e-05
6.13266e-06
3.19248e-05
6.05914e-05
5.60309e-06
2.36965e-05
6.89026e-05
4.27763e-06
1.31557e-05
6.81934e-05
2.92956e-06
4.83088e-06
6.11943e-05
2.19298e-06
4.02174e-05
2.31825e-06
-5.05102e-06
-3.53838e-05
3.33896e-06
-7.31984e-06
-5.1581e-05
4.12452e-06
-7.24261e-06
-5.37385e-05
3.9999e-06
-3.51763e-06
-5.19821e-05
3.86542e-06
4.04473e-06
-4.33217e-05
3.64413e-06
8.86164e-06
-2.80094e-05
2.98627e-06
8.64859e-06
-1.50944e-05
2.23506e-06
5.70406e-06
-7.77636e-06
1.64735e-06
2.26092e-06
-4.11529e-06
1.20281e-06
-7.2579e-07
-2.07494e-06
8.40129e-07
-3.03592e-06
-6.60582e-07
5.24959e-07
-4.67103e-06
5.13466e-07
2.39098e-07
-5.72062e-06
1.64289e-06
-5.5664e-09
-6.28066e-06
2.75693e-06
-1.51094e-07
-6.37415e-06
3.92174e-06
-2.85428e-07
-6.01319e-06
5.16929e-06
-4.02412e-07
-5.20806e-06
6.52953e-06
-4.99641e-07
-3.99163e-06
8.0414e-06
-5.7553e-07
-2.45591e-06
9.7548e-06
-6.24667e-07
-7.88666e-07