/*--------------------------------*- C++ -*----------------------------------*\
| =========                 |                                                 |
| \\      /  F ield         | OpenFOAM: The Open Source CFD Toolbox           |
|  \\    /   O peration     | Version:  v2006                                 |
|   \\  /    A nd           | Website:  www.openfoam.com                      |
|    \\/     M anipulation  |                                                 |
\*---------------------------------------------------------------------------*/
FoamFile
{
    version     2.0;
    format      ascii;
    class       volScalarField;
    location    "65";
    object      T;
}
// * * * * * * * * * * * * * * * * * * * * * * * * * * * * * * * * * * * * * //

dimensions      [0 0 0 1 0 0 0];


internalField   nonuniform List<scalar> 
78750
(
299.229
299.371
299.655
300.262
300.951
301.154
301.712
301.97
302.353
302.581
302.82
302.975
303.096
303.173
303.211
303.213
303.179
303.109
303.004
302.861
302.681
302.464
302.212
301.929
301.625
301.316
301.027
300.791
300.655
300.682
300.955
301.618
303.12
309.585
398.555
303.894
304.558
304.589
304.234
303.702
303.602
303.894
304.427
305.044
305.678
306.276
306.825
307.327
307.786
308.212
308.61
308.984
309.335
309.661
309.959
310.223
310.448
310.63
310.763
310.841
310.863
310.83
310.754
310.669
310.64
310.799
311.483
314.082
327.412
404.931
304.8
310.116
312.333
313.389
313.785
313.992
314.303
314.732
315.235
315.771
316.309
316.808
317.239
317.591
317.861
318.057
318.185
318.255
318.276
318.257
318.209
318.138
318.051
317.952
317.848
317.753
317.693
317.713
317.895
318.382
319.465
321.937
328.576
349.631
421.334
307.205
316.539
321.999
324.202
324.093
323.57
323.377
323.34
323.351
323.367
323.368
323.351
323.322
323.284
323.239
323.186
323.118
323.034
322.932
322.806
322.649
322.463
322.251
322.015
321.753
321.467
321.166
320.871
320.634
320.574
320.986
322.765
329.304
352.622
425.372
313.158
324.619
328.49
331.063
333.234
333.572
332.953
331.846
330.409
328.789
327.324
326.359
325.889
325.704
325.65
325.66
325.711
325.796
325.915
326.068
326.253
326.471
326.725
327.025
327.38
327.81
328.348
329.053
330.036
331.512
333.956
338.592
348.889
373.162
434.497
316.84
321.947
316.499
314.717
324.826
333.38
334.91
334.502
333.497
332.178
330.683
329.167
327.813
326.745
325.978
325.442
325.063
324.785
324.579
324.425
324.312
324.232
324.177
324.143
324.128
324.138
324.191
324.333
324.664
325.394
327.018
330.921
341.401
368.424
434.097
325.25
328.359
302.211
302.095
316.124
318.345
321.853
324.37
325.497
326.251
326.853
327.333
327.644
327.789
327.838
327.873
327.937
328.029
328.146
328.281
328.43
328.587
328.743
328.891
329.02
329.115
329.161
329.149
329.1
329.14
329.709
332.339
342.4
371.284
437.232
313.46
327.567
327.16
330.339
337.393
341.196
340.128
335.37
329.677
326.135
324.457
323.171
322.57
323.355
325.102
326.705
327.819
328.649
329.344
329.974
330.592
331.244
331.966
332.781
333.713
334.784
336.026
337.486
339.24
341.446
344.535
349.965
362.144
387.063
439.518
323.367
335.341
336.124
331.025
327.533
326.737
328.786
333.349
338.531
343.422
347.682
350.707
351.844
350.716
347.507
343.257
339.289
336.181
333.892
332.234
331.029
330.17
329.637
329.46
329.686
330.367
331.579
333.461
336.276
340.5
346.967
357.207
374.131
397.593
441.766
328.245
340.643
341.374
341.611
341.617
342.972
345.508
348.213
350.295
351.561
351.974
351.349
349.459
346.384
342.782
339.524
336.99
335.05
333.468
332.083
330.817
329.648
328.558
327.561
326.714
326.102
325.832
326.056
327.016
329.192
333.732
343.291
362.562
391.591
442.465
327.111
321.464
317.91
323.697
329.356
334.549
338.947
341.609
342.651
342.906
342.697
342.045
340.962
339.592
338.214
337.014
335.94
334.764
333.229
331.675
330.66
330.062
329.772
329.712
329.769
329.852
329.96
330.196
330.81
332.335
336.034
344.936
364.372
394.459
444.643
339.433
355.697
347.123
344.113
343.084
342.516
342.136
341.682
341.029
340.176
339.063
337.586
335.69
333.474
331.115
328.492
325.64
324.486
328.512
334.968
338.222
339.833
340.817
341.414
341.733
342.158
343.155
344.891
347.418
350.973
356.339
365.516
382.065
407.69
451.627
336.988
364.123
362.611
359.811
357.93
356.56
355.569
354.868
354.374
354.04
353.852
353.805
353.91
354.208
354.696
355.55
356.491
357.398
357.918
354.929
348.16
340.966
334.074
330.757
334.229
338.731
342.248
345.814
350.308
356.677
366.079
379.609
397.331
419.045
455.635
316.664
327.449
329.075
329.582
330.109
330.776
331.555
332.408
333.298
334.204
335.096
336.005
336.892
337.797
338.742
339.695
340.859
342.026
343.656
345.179
346.561
347.343
347.891
349.334
348.463
343.741
338.758
336.239
337.169
341.089
347.985
360.186
381.399
407.684
448.134
306.225
313.912
319.272
323.536
327.034
329.965
332.453
334.581
336.401
337.947
339.269
340.43
341.365
342.056
342.512
342.829
343.074
343.25
343.487
343.725
344.199
344.873
345.438
346.44
347.757
348.698
347.934
344.572
340.157
337.157
336.872
340.009
350.792
376.675
432.003
311.114
324.2
331.527
335.855
338.778
340.973
342.72
344.153
345.356
346.421
347.541
348.921
350.191
350.675
350.282
349.5
348.674
347.867
347.053
346.21
345.517
345.175
345.519
347.273
349.806
350.595
348.468
344.489
339.831
335.427
332.864
334.034
344.058
370.377
427.382
312.778
325.198
330.751
334.071
336.738
339.12
341.225
343.004
344.479
345.731
346.841
347.85
348.624
349.042
349.164
349.1
348.91
348.614
348.218
347.746
347.287
347.29
348.97
351.616
352.639
351.316
349.358
347.071
344.03
341.066
340.461
344.672
357.52
383.451
435.675
314.231
329.002
335.409
339.246
342.515
345.278
347.204
348.229
348.59
348.6
348.478
348.485
348.67
348.749
348.715
348.678
348.67
348.707
348.839
349.13
349.635
350.629
352.904
355.577
356.006
354.863
354.34
354.097
353.499
352.956
354.483
360.819
375.026
400.561
449.459
318.066
332.452
337.989
341.997
346.087
348.763
350.057
350.627
350.825
350.721
350.232
349.374
348.595
348.185
347.985
347.896
347.9
348.03
348.403
349.166
350.439
352.364
355.118
358.069
359.461
359.333
359.552
361.217
364.109
367.768
373.411
383.39
398.599
422.096
462.919
319.186
333.284
339.972
345.418
349.85
351.14
350.884
350.296
349.748
349.363
349.156
348.912
348.437
347.967
347.641
347.434
347.328
347.333
347.499
347.936
348.82
350.368
352.756
355.75
358.434
360.35
362.024
364.477
368.633
375.381
383.849
395.249
409.005
427.559
461.139
321.337
334.301
341.826
348.998
353.283
353.606
352.696
351.487
350.195
349.015
348.133
347.568
347.183
346.88
346.634
346.448
346.336
346.309
346.381
346.58
346.967
347.662
348.83
350.602
352.882
355.43
358.146
361.307
365.651
371.597
380.584
387.848
397.206
413.425
451.711
319.568
332.447
339.044
345.503
350.863
351.899
351.04
349.761
348.528
347.537
346.803
346.257
345.836
345.508
345.26
345.09
345
344.997
345.079
345.242
345.479
345.805
346.261
346.923
347.884
349.247
351.124
353.716
357.598
362.517
370.996
381.805
391.142
408.538
451.671
316.005
328.414
333.411
337.969
345.608
351.391
352.807
351.89
350.405
348.967
347.734
346.726
345.909
345.243
344.698
344.265
343.946
343.753
343.699
343.794
344.027
344.348
344.704
345.086
345.524
346.074
346.839
348.051
350.2
353.488
359.416
375.855
391.962
410.659
452.291
314.483
327.304
332.549
336.018
340.502
347.323
351.98
352.946
351.97
350.645
349.453
348.397
347.423
346.506
345.647
344.86
344.162
343.569
343.101
342.785
342.661
342.779
343.113
343.498
343.825
344.118
344.435
344.856
345.514
346.548
348.452
356.185
372.699
395.401
443.373
314.532
328.522
334.476
337.807
340.738
345.039
350.555
353.876
354.308
353.238
351.924
350.762
349.721
348.721
347.725
346.731
345.756
344.819
343.947
343.176
342.549
342.116
342.028
342.417
342.906
343.095
342.972
342.644
342.336
342.554
343.797
346.534
364.219
390.114
438.237
315.341
329.426
335.154
338.401
341.029
343.721
347.699
352.058
354.476
354.656
353.731
352.671
351.718
350.798
349.838
348.826
347.773
346.683
345.55
344.389
343.27
342.31
341.629
341.682
342.909
344.448
345.33
345.577
345.635
345.923
347.449
354.559
378.695
409.275
448.416
314.901
328.487
334.443
337.92
340.648
343.067
345.577
349.129
352.931
355.295
355.739
355.033
354.065
353.148
352.258
351.331
350.35
349.318
348.228
347.044
345.734
344.316
342.904
341.708
341.249
342.375
345.128
348.143
349.321
348.418
348.165
352.061
365.499
394.088
437.598
314.003
327.582
333.954
337.735
340.782
343.516
345.868
347.981
350.622
353.649
355.784
356.324
355.843
355.086
354.331
353.588
352.819
352.012
351.17
350.288
349.337
348.278
347.067
345.718
344.436
343.53
342.99
341.85
340.245
340.018
343.824
350.76
346.205
345.918
407.376
313.488
327.572
334.419
338.452
341.682
344.795
347.872
350.434
352.201
353.83
355.816
357.082
357.076
356.468
355.789
355.152
354.529
353.901
353.267
352.625
351.953
351.209
350.447
349.647
348.316
346.123
343.834
343.139
344.949
346.561
345.221
338.389
328.159
336.503
401.314
314.032
328.539
335.399
339.454
342.774
346.104
349.716
353.155
355.43
356.478
357.266
358.115
357.858
357.057
356.327
355.706
355.146
354.629
354.142
353.675
353.304
352.813
351.861
352.159
355.062
358.237
358.625
354.884
348.732
343.635
342.181
345.845
356.908
382.378
439.069
315.117
330.068
336.805
340.902
344.509
348.326
352.474
356.33
358.749
359.404
359.102
358.958
357.969
356.891
356.089
355.481
355.171
355.297
356.062
357.728
361.198
367.48
372.814
372.066
367.162
361.48
356.613
354.685
356.459
361.764
370.823
383.736
402.934
433.494
474.912
316.521
331.709
338.129
342.28
346.41
351.076
355.812
359.487
361.344
361.226
359.963
358.783
357.534
356.441
355.953
356.142
357.212
359.921
366.171
376.881
388.636
394.578
391.27
382.731
373.944
366.688
363.357
365.89
372.956
382.637
394.427
409.265
429.504
454.855
477.809
318.006
333.209
339.273
343.422
347.908
353.122
358.2
361.541
362.614
361.875
360.159
358.575
357.454
356.606
356.31
356.792
358.691
363.19
371.844
384.826
399.038
408.657
409.888
405.042
398.466
392.209
388.353
388.993
393.967
401.852
411.752
423.848
438.679
453.027
469.308
318.236
333.466
339.538
343.72
348.154
353.237
358.454
362.192
363.204
362.117
360.35
358.845
357.856
357.147
356.635
356.466
357.047
359.037
363.444
371.288
382.329
393.986
402.741
407.406
409.335
409.888
410.223
411.637
414.671
419.053
424.398
430.458
436.546
440.894
459.906
318.588
333.8
339.576
343.447
347.44
351.96
356.903
361.332
363.617
363.097
361.2
359.643
358.718
358.052
357.461
356.938
356.607
356.678
357.48
359.511
363.3
368.927
375.606
382.229
388.305
393.862
399.033
404.033
408.915
413.392
417.122
420.034
422.365
426.283
453.237
317.897
333.151
338.931
342.555
346.007
349.759
353.983
358.478
362.356
364.095
363.136
361.141
359.876
359.144
358.546
357.982
357.459
357.028
356.766
356.795
357.289
358.446
360.394
363.117
366.52
370.529
375.092
380.177
385.732
391.582
397.32
402.451
407.373
416.13
450.418
317.791
333.61
339.708
343.43
346.803
350.144
353.378
356.546
359.88
363.008
364.583
363.7
361.755
360.51
359.76
359.155
358.598
358.081
357.619
357.243
356.998
356.948
357.173
357.762
358.804
360.395
362.643
365.682
369.702
374.992
381.868
390.161
399.125
412.877
451.002
317.812
333.87
340.111
343.903
347.393
350.974
354.333
357.023
359.218
361.454
363.743
365.083
364.364
362.545
361.228
360.408
359.775
359.21
358.691
358.224
357.825
357.519
357.348
357.37
357.665
358.339
359.536
361.452
364.377
368.794
375.472
385.021
396.78
414.181
453.558
318.418
334.549
340.855
344.74
348.431
352.397
356.224
359.132
360.966
362.228
363.487
364.866
365.661
364.862
363.196
361.919
361.072
360.408
359.819
359.286
358.812
358.412
358.115
357.968
358.045
358.462
359.395
361.097
363.934
368.425
375.316
385.328
398.083
416.829
456.034
319.211
335.189
341.36
345.258
349.119
353.425
357.701
361.025
363.064
364.161
364.835
365.458
366.088
366.186
365.093
363.551
362.416
361.627
360.98
360.396
359.862
359.391
359.004
358.744
358.679
358.931
359.701
361.326
364.308
369.278
376.848
387.328
400.21
418.909
457.374
319.826
335.587
341.614
345.516
349.499
354.006
358.527
362.123
364.413
365.658
366.297
366.66
366.917
367.013
366.513
365.216
363.868
362.9
362.181
361.563
360.995
360.472
360.012
359.647
359.435
359.482
359.981
361.29
364.031
369.088
377.227
388.352
401.336
419.708
457.59
319.636
335.086
340.96
344.759
348.631
353.074
357.772
361.845
364.692
366.365
367.247
367.684
367.873
367.874
367.564
366.655
365.339
364.21
363.393
362.746
362.166
361.624
361.123
360.685
360.354
360.211
360.412
361.272
363.413
367.917
376.024
387.755
401.091
419.324
456.869
318.864
334.124
340.012
343.717
347.311
351.355
355.843
360.185
363.678
366.032
367.422
368.178
368.551
368.661
368.496
367.91
366.821
365.621
364.674
363.961
363.365
362.818
362.302
361.824
361.41
361.114
361.044
361.434
362.805
366.258
373.533
385.445
399.382
417.853
455.378
317.982
333.193
339.25
342.987
346.476
350.295
354.512
358.749
362.478
365.309
367.176
368.287
368.904
369.203
369.236
368.934
368.162
367.035
365.973
365.162
364.533
363.988
363.483
363.008
362.577
362.224
362.023
362.138
362.964
365.477
371.654
383.238
397.633
416.447
454.117
317.48
332.791
339.043
342.886
346.438
350.289
354.437
358.45
361.968
364.809
366.877
368.231
369.05
369.515
369.728
369.684
369.268
368.393
367.313
366.382
365.675
365.108
364.608
364.145
363.717
363.345
363.08
363.041
363.534
365.392
370.611
381.645
396.342
415.543
453.416
317.318
332.637
338.959
342.871
346.547
350.645
355.116
359.286
362.667
365.244
367.139
368.449
369.294
369.809
370.097
370.192
370.031
369.472
368.528
367.533
366.739
366.138
365.649
365.22
364.835
364.504
364.265
364.213
364.609
366.227
371.064
381.831
396.566
416.01
454.152
317.223
332.45
338.776
342.714
346.443
350.663
355.388
359.872
363.429
365.968
367.721
368.911
369.691
370.181
370.473
370.614
370.586
370.285
369.589
368.631
367.753
367.094
366.599
366.203
365.88
365.636
365.51
365.6
366.176
368.027
373.136
384.035
398.472
417.81
456.177
317.099
332.37
338.778
342.778
346.557
350.825
355.636
360.286
364.024
366.648
368.372
369.483
370.192
370.635
370.901
371.04
371.059
370.899
370.437
369.624
368.714
367.985
367.467
367.099
366.845
366.709
366.742
367.073
368.044
370.534
376.455
387.739
401.577
420.412
458.809
317.009
332.539
339.121
343.218
347.035
351.254
355.949
360.539
364.339
367.072
368.863
369.986
370.677
371.097
371.344
371.476
371.511
371.424
371.127
370.507
369.64
368.844
368.288
367.943
367.77
367.781
368.047
368.744
370.297
373.677
380.603
392.175
405.24
423.299
461.285
317.177
333.204
340.027
344.263
348.172
352.386
356.921
361.257
364.871
367.535
369.32
370.447
371.134
371.544
371.782
371.909
371.953
371.907
371.718
371.283
370.548
369.716
369.09
368.741
368.637
368.792
369.307
370.41
372.593
376.831
384.545
396.07
408.364
425.577
462.739
317.756
334.347
341.36
345.734
349.779
354.058
358.475
362.506
365.783
368.212
369.876
370.946
371.605
371.998
372.224
372.345
372.391
372.367
372.244
371.949
371.392
370.614
369.908
369.5
369.416
369.67
370.372
371.781
374.419
379.214
387.295
398.507
410.168
426.657
463.027
318.778
335.866
342.956
347.427
351.628
356.041
360.426
364.192
367.076
369.152
370.58
371.518
372.108
372.466
372.673
372.785
372.83
372.817
372.733
372.531
372.131
371.486
370.761
370.277
370.172
370.473
371.284
372.86
375.702
380.656
388.656
399.384
410.576
426.587
462.593
320.083
337.42
344.438
348.925
353.228
357.75
362.159
365.811
368.444
370.222
371.405
372.179
372.671
372.973
373.148
373.242
373.279
373.27
373.206
373.062
372.778
372.287
371.624
371.069
370.919
371.259
372.169
373.876
376.826
381.75
389.438
399.608
410.455
426.242
462.23
321.161
338.561
345.455
349.904
354.228
358.771
363.185
366.86
369.469
371.14
372.184
372.84
373.25
373.499
373.643
373.717
373.743
373.731
373.678
373.566
373.359
372.998
372.453
371.876
371.634
371.974
372.991
374.876
378.006
382.968
390.38
400.033
410.612
426.314
462.315
321.707
339.142
345.951
350.36
354.676
359.168
363.485
367.193
369.965
371.759
372.829
373.457
373.826
374.039
374.155
374.21
374.224
374.205
374.155
374.063
373.904
373.636
373.214
372.685
372.342
372.586
373.623
375.631
378.944
384.036
391.34
400.653
411.062
426.766
462.697
321.628
339.157
346.025
350.519
355.003
359.565
363.679
367.181
370.014
372.02
373.257
373.964
374.355
374.565
374.669
374.711
374.714
374.689
374.638
374.555
374.426
374.221
373.902
373.463
373.078
373.182
374.155
376.211
379.649
384.89
392.236
401.417
411.765
427.525
463.31
321.354
339.027
346.1
350.89
355.92
360.875
364.789
367.77
370.241
372.216
373.569
374.379
374.828
375.061
375.171
375.209
375.206
375.175
375.122
375.043
374.931
374.766
374.52
374.175
373.812
373.791
374.645
376.711
380.256
385.641
393.081
402.226
412.526
428.279
463.855
321.287
339.003
346.341
351.663
357.747
363.439
367.228
369.567
371.321
372.842
374.037
374.829
375.293
375.541
375.658
375.699
375.694
375.66
375.605
375.529
375.425
375.285
375.088
374.817
374.504
374.394
375.047
377.016
380.615
386.123
393.647
402.749
412.942
428.576
463.98
321.591
339.118
346.7
352.742
360.268
366.713
370.309
372.06
373.125
374.035
374.838
375.439
375.823
376.041
376.148
376.185
376.177
376.142
376.085
376.009
375.912
375.787
375.623
375.408
375.154
375.004
375.421
377.099
380.536
386.02
393.576
402.659
412.764
428.29
463.742
321.913
338.869
346.592
353.351
362.17
369.272
372.819
374.261
374.932
375.408
375.838
376.194
376.444
376.595
376.669
376.689
376.671
376.628
376.567
376.488
376.393
376.277
376.136
375.965
375.774
375.654
375.944
377.323
380.461
385.756
393.258
402.347
412.443
427.999
463.694
321.584
337.757
345.138
351.757
360.508
368.462
373.152
375.269
376.141
376.54
376.788
376.974
377.109
377.191
377.225
377.22
377.186
377.131
377.059
376.973
376.874
376.762
376.635
376.496
376.363
376.316
376.626
377.898
380.871
386.015
393.407
402.43
412.497
428.118
464.006
320.244
335.753
342.197
347.276
353.856
361.993
369.188
373.796
376.125
377.132
377.543
377.718
377.799
377.829
377.824
377.791
377.736
377.663
377.577
377.479
377.37
377.253
377.128
377.004
376.904
376.908
377.259
378.514
381.462
386.609
393.939
402.815
412.743
428.284
464.179
318.384
333.961
340.224
344.075
347.959
353.476
360.839
368.064
373.369
376.339
377.686
378.224
378.417
378.464
378.445
378.391
378.315
378.225
378.123
378.012
377.892
377.765
377.633
377.504
377.402
377.397
377.693
378.794
381.545
386.628
393.985
402.832
412.653
428.03
463.888
317.234
334.246
341.797
346.203
349.693
352.871
356.642
361.958
368.214
373.498
376.674
378.168
378.778
378.992
379.03
378.987
378.903
378.8
378.686
378.564
378.436
378.302
378.164
378.029
377.913
377.872
378.061
378.898
381.211
385.933
393.236
402.225
412.117
427.468
463.437
317.544
336.14
344.767
350.254
355.263
359.681
362.268
363.784
366.583
371.122
375.252
377.717
378.871
379.346
379.508
379.521
379.46
379.361
379.242
379.114
378.983
378.85
378.718
378.591
378.485
378.441
378.586
379.26
381.215
385.514
392.655
401.773
411.788
427.254
463.453
319.48
338.36
346.852
352.695
359.017
365.55
369.694
370.874
370.973
372.573
375.537
377.901
379.158
379.717
379.937
379.994
379.963
379.88
379.768
379.643
379.515
379.391
379.278
379.185
379.131
379.163
379.402
380.157
382.103
386.265
393.272
402.322
412.301
427.844
464.202
322.635
341.36
349.637
355.975
363.417
370.271
374.403
375.876
375.939
376.198
377.581
379.035
379.883
380.281
380.446
380.489
380.458
380.378
380.269
380.146
380.024
379.915
379.832
379.794
379.84
380.039
380.537
381.635
383.927
388.277
395.195
403.931
413.691
429.201
465.395
325.494
343.97
352.511
359.919
368.66
374.879
377.677
378.638
378.866
379.044
379.628
380.305
380.73
380.943
381.027
381.031
380.978
380.885
380.768
380.642
380.524
380.429
380.38
380.409
380.578
380.996
381.846
383.427
386.225
390.87
397.651
405.933
415.388
430.748
466.404
326.111
344.108
352.477
360
368.939
375.673
378.932
380.185
380.612
380.802
381.051
381.333
381.527
381.624
381.646
381.613
381.534
381.422
381.289
381.152
381.029
380.939
380.911
380.989
381.254
381.849
382.995
384.994
388.229
393.103
399.71
407.561
416.692
431.766
466.789
324.658
342.259
349.701
355.773
363.513
371.758
377.519
380.37
381.507
381.898
382.065
382.191
382.275
382.307
382.29
382.229
382.131
382.001
381.851
381.697
381.558
381.458
381.427
381.514
381.81
382.47
383.739
385.934
389.386
394.348
400.793
408.327
417.153
431.867
466.573
323.341
341.012
348.133
353.094
358.831
366.416
373.969
378.992
381.492
382.51
382.858
382.968
383
382.989
382.945
382.867
382.756
382.615
382.451
382.282
382.126
382.008
381.96
382.031
382.307
382.945
384.194
386.383
389.84
394.77
401.097
408.465
417.096
431.554
466.291
323.54
341.915
349.387
354.21
358.857
364.273
370.866
376.847
380.667
382.58
383.372
383.633
383.684
383.659
383.598
383.509
383.392
383.247
383.078
382.9
382.733
382.604
382.544
382.601
382.856
383.456
384.643
386.749
390.114
394.947
401.179
408.478
417.058
431.48
466.388
324.687
343.526
351.194
356.174
360.704
365.162
370.032
375.337
379.695
382.341
383.638
384.156
384.3
384.294
384.23
384.138
384.02
383.876
383.711
383.536
383.373
383.248
383.199
383.271
383.543
384.154
385.338
387.42
390.742
395.515
401.68
408.939
417.552
432.082
466.949
325.496
344.264
351.925
357
361.651
366.031
370.224
374.562
378.802
381.946
383.728
384.548
384.839
384.887
384.837
384.747
384.632
384.494
384.337
384.174
384.026
383.924
383.906
384.022
384.348
385.016
386.249
388.363
391.691
396.433
402.517
409.686
418.289
432.884
467.505
325.872
344.602
352.307
357.501
362.329
366.786
370.737
374.383
378.069
381.394
383.641
384.813
385.297
385.43
385.412
385.334
385.226
385.096
384.951
384.804
384.68
384.615
384.652
384.844
385.268
386.044
387.379
389.568
392.927
397.639
403.614
410.613
419.073
433.524
467.807
326.436
345.231
352.976
358.3
363.369
368.014
371.844
374.961
377.853
380.819
383.346
384.915
385.657
385.918
385.955
385.9
385.805
385.686
385.553
385.42
385.316
385.281
385.367
385.631
386.149
387.03
388.453
390.677
393.999
398.604
404.416
411.216
419.463
433.662
467.819
327.083
345.796
353.47
358.876
364.243
369.255
373.219
376.087
378.348
380.566
382.898
384.784
385.863
386.32
386.45
386.437
386.365
386.265
386.148
386.032
385.945
385.936
386.063
386.39
386.996
387.982
389.496
391.755
395.016
399.47
405.094
411.721
419.808
433.821
467.946
327.234
345.655
353.157
358.591
364.305
369.866
374.242
377.204
379.215
380.844
382.563
384.401
385.82
386.577
386.868
386.93
386.897
386.824
386.732
386.636
386.565
386.568
386.71
387.064
387.713
388.759
390.335
392.616
395.816
400.121
405.573
412.096
420.155
434.17
468.232
326.435
344.359
351.659
357.106
363.245
369.574
374.65
378.015
380.108
381.513
382.695
384.026
385.478
386.574
387.138
387.343
387.38
387.349
387.292
387.231
387.19
387.211
387.362
387.721
388.374
389.425
391.006
393.279
396.43
400.634
405.971
412.442
420.553
434.698
468.609
324.557
341.833
348.989
354.433
360.945
368.139
374.172
378.255
380.743
382.257
383.273
384.133
385.139
386.277
387.15
387.602
387.773
387.811
387.8
387.781
387.781
387.838
388.01
388.381
389.042
390.096
391.677
393.953
397.097
401.264
406.536
412.95
421.05
435.189
468.804
322.15
338.974
346.196
351.658
358.325
366.13
373.032
377.907
380.955
382.789
383.923
384.693
385.326
386.063
386.934
387.63
388.011
388.171
388.229
388.257
388.301
388.398
388.596
388.964
389.59
390.577
392.057
394.212
397.244
401.328
406.542
412.902
420.94
435.006
468.649
320.47
337.536
345.083
350.653
357.342
365.309
372.539
377.785
381.148
383.215
384.502
385.341
385.926
386.391
386.915
387.552
388.084
388.4
388.561
388.654
388.746
388.893
389.147
389.57
390.239
391.246
392.709
394.797
397.73
401.715
406.852
413.14
421.086
435.031
468.661
320.337
338.353
346.335
352.139
358.969
366.879
373.874
378.851
382.01
383.964
385.211
386.045
386.628
387.044
387.365
387.729
388.17
388.545
388.79
388.949
389.082
389.25
389.518
389.951
390.622
391.614
393.03
395.022
397.802
401.608
406.6
412.813
420.714
434.636
468.525
321.543
340.521
348.78
354.799
361.827
369.71
376.412
380.916
383.618
385.237
386.267
386.969
387.47
387.822
388.058
388.253
388.508
388.801
389.052
389.248
389.425
389.631
389.929
390.39
391.091
392.109
393.535
395.501
398.209
401.905
406.797
412.988
420.999
435.19
469.117
323.3
342.808
351.081
357.053
363.843
371.457
378.133
382.588
385.135
386.581
387.464
388.045
388.439
388.688
388.825
388.912
389.032
389.203
389.386
389.559
389.736
389.951
390.258
390.73
391.452
392.514
394.005
396.037
398.778
402.456
407.298
413.465
421.539
435.889
469.598
325.038
344.782
352.924
358.604
364.679
371.497
378.102
382.991
385.883
387.486
388.422
389.003
389.358
389.538
389.594
389.605
389.643
389.728
389.845
389.98
390.138
390.344
390.637
391.082
391.764
392.787
394.263
396.313
399.098
402.829
407.725
413.951
422.156
436.738
470.209
326.491
346.341
354.465
360.012
365.531
371.266
377.123
382.273
385.761
387.775
388.929
389.623
390.034
390.229
390.272
390.248
390.234
390.261
390.329
390.434
390.582
390.792
391.101
391.565
392.265
393.306
394.817
396.939
399.838
403.702
408.702
414.963
423.169
437.696
470.648
327.844
347.756
356.123
361.983
367.55
372.451
376.913
381.377
385.138
387.603
389.053
389.925
390.462
390.763
390.877
390.874
390.838
390.822
390.841
390.9
391.006
391.177
391.445
391.864
392.512
393.497
394.962
397.075
400.017
403.968
409.051
415.312
423.37
437.571
470.333
329.768
349.691
358.586
365.238
371.338
375.694
378.775
381.763
384.931
387.484
389.125
390.127
390.759
391.156
391.367
391.432
391.418
391.392
391.388
391.423
391.506
391.656
391.899
392.282
392.872
393.773
395.132
397.14
400.021
403.983
409.129
415.427
423.405
437.386
470.157
332.85
352.463
362.335
370.594
377.356
380.928
382.701
384.177
386.094
388.082
389.564
390.525
391.153
391.571
391.83
391.949
391.967
391.942
391.922
391.933
391.991
392.118
392.342
392.708
393.277
394.144
395.443
397.365
400.15
404.04
409.157
415.44
423.299
436.989
469.769
335.84
354.695
366.012
377.07
384.207
386.676
387.32
387.725
388.5
389.568
390.523
391.223
391.721
392.078
392.323
392.46
392.505
392.492
392.467
392.46
392.494
392.592
392.782
393.109
393.636
394.452
395.688
397.529
400.215
404.004
409.049
415.31
423.117
436.652
469.486
335.055
353.438
365.84
379.536
387.448
389.995
390.594
390.736
390.953
391.34
391.777
392.166
392.483
392.732
392.911
393.019
393.057
393.048
393.022
393.009
393.032
393.113
393.283
393.581
394.065
394.82
395.972
397.706
400.267
403.934
408.902
415.171
423.019
436.58
469.5
328.616
346.41
357.775
370.603
381.824
388.268
391.151
392.222
392.601
392.799
392.977
393.155
393.321
393.461
393.566
393.625
393.637
393.614
393.579
393.559
393.575
393.652
393.822
394.127
394.623
395.389
396.542
398.25
400.753
404.335
409.225
415.465
423.33
436.906
469.745
320.957
337.667
345.722
353.465
365.51
377.903
386.639
391.088
392.923
393.629
393.917
394.061
394.152
394.217
394.258
394.269
394.248
394.202
394.147
394.105
394.099
394.154
394.302
394.589
395.077
395.85
397.021
398.75
401.256
404.809
409.645
415.843
423.691
437.234
469.936
318.681
336.892
344.369
348.927
354.821
365.167
377.236
386.408
391.306
393.441
394.33
394.711
394.878
394.945
394.96
394.939
394.89
394.823
394.749
394.689
394.661
394.692
394.812
395.065
395.514
396.246
397.38
399.078
401.559
405.087
409.898
416.09
423.966
437.56
470.2
322.373
344.254
353.688
358.984
362.84
366.937
374.207
383.039
389.516
392.882
394.393
395.077
395.403
395.554
395.605
395.591
395.532
395.446
395.355
395.279
395.239
395.258
395.369
395.615
396.059
396.787
397.915
399.601
402.066
405.572
410.358
416.528
424.415
438.05
470.553
326.339
348.182
357.713
364.437
370.753
375.489
379.044
384.188
389.589
393.015
394.698
395.492
395.89
396.095
396.189
396.203
396.156
396.067
395.96
395.862
395.8
395.801
395.897
396.134
396.579
397.323
398.485
400.22
402.731
406.262
411.031
417.151
424.984
438.545
470.784
327.092
347.76
357.168
364.386
371.948
378.218
382.416
385.942
390.111
393.376
395.14
395.99
396.418
396.648
396.766
396.804
396.777
396.699
396.589
396.473
396.384
396.352
396.413
396.613
397.017
397.719
398.847
400.566
403.078
406.613
411.372
417.464
425.258
438.748
470.826
329.668
351.681
362.34
370.531
377.622
382.183
385.15
387.654
390.721
393.737
395.585
396.495
396.949
397.194
397.33
397.391
397.388
397.331
397.234
397.118
397.014
396.957
396.986
397.149
397.508
398.152
399.209
400.849
403.291
406.775
411.507
417.592
425.387
438.871
470.894
335.977
357.887
369.979
380.511
387.507
389.865
390.495
391.104
392.498
394.603
396.214
397.067
397.502
397.743
397.885
397.959
397.976
397.941
397.862
397.758
397.655
397.588
397.599
397.739
398.074
398.691
399.714
401.309
403.692
407.116
411.798
417.845
425.593
438.991
470.921
338.671
359.13
371.854
384.887
392.826
395.054
395.213
394.954
395.073
395.979
397.045
397.719
398.095
398.316
398.451
398.528
398.552
398.529
398.464
398.369
398.268
398.192
398.186
398.3
398.605
399.193
400.19
401.762
404.12
407.508
412.145
418.142
425.81
439.05
470.817
334.458
355.273
367.702
380.682
391.008
395.53
397.024
397.335
397.258
397.398
397.906
398.384
398.699
398.897
399.023
399.097
399.125
399.109
399.053
398.964
398.861
398.772
398.737
398.809
399.053
399.562
400.465
401.936
404.196
407.497
412.071
418.039
425.672
438.812
470.549
329.512
350.69
361.39
371.693
384.332
392.683
396.488
398.021
398.544
398.642
398.776
399.041
399.286
399.462
399.58
399.653
399.686
399.681
399.637
399.56
399.461
399.364
399.306
399.338
399.522
399.943
400.722
402.038
404.128
407.279
411.761
417.709
425.353
438.498
470.379
327.729
348.64
358.069
366.259
378.134
388.897
394.984
397.758
398.979
399.479
399.627
399.726
399.869
400.007
400.112
400.185
400.227
400.237
400.214
400.159
400.081
399.997
399.94
399.962
400.128
400.519
401.247
402.479
404.455
407.483
411.868
417.762
425.377
438.503
470.468
327.389
348.13
357.999
366.347
376.909
387.296
394.193
397.668
399.267
400.019
400.347
400.443
400.485
400.55
400.619
400.676
400.716
400.736
400.734
400.707
400.66
400.606
400.573
400.608
400.782
401.188
401.938
403.189
405.164
408.16
412.477
418.282
425.809
438.826
470.647
326.462
347.532
357.893
366.587
376.941
386.691
393.82
397.771
399.644
400.524
400.945
401.111
401.139
401.144
401.167
401.198
401.225
401.242