/*--------------------------------*- C++ -*----------------------------------*\
| =========                 |                                                 |
| \\      /  F ield         | OpenFOAM: The Open Source CFD Toolbox           |
|  \\    /   O peration     | Version:  v2012                                 |
|   \\  /    A nd           | Website:  www.openfoam.com                      |
|    \\/     M anipulation  |                                                 |
\*---------------------------------------------------------------------------*/
FoamFile
{
    version     2.0;
    format      ascii;
    class       surfaceScalarField;
    location    "60";
    object      phi;
}
// * * * * * * * * * * * * * * * * * * * * * * * * * * * * * * * * * * * * * //

dimensions      [1 0 -1 0 0 0 0];
oriented        oriented;


internalField   nonuniform List<scalar> 
228225
(
-2.40486e-09
1.97392e-09
2.03911e-10
-7.78155e-09
8.57027e-09
-3.1899e-09
-1.65118e-08
1.27817e-08
-4.05093e-09
-2.85336e-08
1.63917e-08
-4.37226e-09
-4.33672e-08
1.94662e-08
-4.63033e-09
-6.03812e-08
2.19655e-08
-4.95139e-09
-7.89444e-08
2.39109e-08
-5.35e-09
-9.84073e-08
2.52999e-08
-5.83458e-09
-1.1821e-07
2.61855e-08
-6.38415e-09
-1.37797e-07
2.65849e-08
-6.99734e-09
-1.56704e-07
2.6565e-08
-7.65501e-09
-1.74494e-07
2.61433e-08
-8.35781e-09
-1.9079e-07
2.53896e-08
-9.08962e-09
-2.05271e-07
2.43301e-08
-9.85163e-09
-2.17667e-07
2.30243e-08
-1.06285e-08
-2.27743e-07
2.14998e-08
-1.14217e-08
-2.35345e-07
1.9806e-08
-1.22074e-08
-2.40305e-07
1.79575e-08
-1.29953e-08
-2.42551e-07
1.60046e-08
-1.37592e-08
-2.42026e-07
1.39696e-08
-1.44928e-08
-2.3873e-07
1.18918e-08
-1.51859e-08
-2.32689e-07
9.78781e-09
-1.58306e-08
-2.23971e-07
7.68999e-09
-1.64082e-08
-2.12672e-07
5.61248e-09
-1.69107e-08
-1.98931e-07
3.58351e-09
-1.73237e-08
-1.8291e-07
1.61881e-09
-1.76397e-08
-1.64814e-07
-2.47573e-10
-1.7847e-08
-1.44862e-07
-2.01375e-09
-1.79399e-08
-1.2333e-07
-3.6239e-09
-1.79083e-08
-1.00538e-07
-5.04802e-09
-1.77426e-08
-7.68951e-08
-6.2304e-09
-1.74118e-08
-5.2971e-08
-7.09398e-09
-1.68304e-08
-2.97646e-08
-7.48608e-09
-1.57197e-08
-9.41681e-09
-7.15624e-09
-1.31924e-08
-4.63809e-09
-4.77844e-09
-6.84992e-09
2.36587e-08
-1.4834e-08
-2.45932e-08
4.27062e-08
-1.63939e-08
-4.61622e-08
5.15456e-08
-1.71942e-08
-6.96586e-08
5.79918e-08
-1.81034e-08
-9.36999e-08
6.24306e-08
-1.89237e-08
-1.17334e-07
6.52346e-08
-1.96356e-08
-1.39824e-07
6.66892e-08
-2.02873e-08
-1.60671e-07
6.70402e-08
-2.08935e-08
-1.79494e-07
6.64766e-08
-2.14692e-08
-1.96057e-07
6.51613e-08
-2.20118e-08
-2.10191e-07
6.32285e-08
-2.25297e-08
-2.21818e-07
6.07871e-08
-2.30179e-08
-2.30884e-07
5.7938e-08
-2.34819e-08
-2.37409e-07
5.47695e-08
-2.39148e-08
-2.4142e-07
5.13569e-08
-2.43211e-08
-2.42998e-07
4.77709e-08
-2.46935e-08
-2.42219e-07
4.40623e-08
-2.50354e-08
-2.39204e-07
4.02854e-08
-2.5342e-08
-2.3407e-07
3.64857e-08
-2.56161e-08
-2.26963e-07
3.27137e-08
-2.58503e-08
-2.18032e-07
2.90056e-08
-2.60456e-08
-2.07441e-07
2.53938e-08
-2.61963e-08
-1.95352e-07
2.1905e-08
-2.63054e-08
-1.81935e-07
1.8563e-08
-2.63656e-08
-1.67365e-07
1.53874e-08
-2.63749e-08
-1.51817e-07
1.23958e-08
-2.63258e-08
-1.35453e-07
9.60336e-09
-2.62132e-08
-1.18468e-07
7.02435e-09
-2.60237e-08
-1.01023e-07
4.67278e-09
-2.57423e-08
-8.32936e-08
2.56491e-09
-2.53417e-08
-6.54547e-08
7.20824e-10
-2.4792e-08
-4.76844e-08
-8.19393e-10
-2.40437e-08
-3.02413e-08
-1.99185e-09
-2.29385e-08
-1.37775e-08
-2.59411e-09
-2.10246e-08
-1.72031e-09
-1.66962e-08
-4.57788e-09
3.73583e-08
-9.12041e-09
-1.34844e-08
6.25331e-08
-1.09213e-08
-2.37441e-08
7.35315e-08
-1.17266e-08
-3.45364e-08
8.11775e-08
-1.23929e-08
-4.53158e-08
8.61825e-08
-1.29734e-08
-5.5692e-08
8.91346e-08
-1.35229e-08
-6.54019e-08
9.04532e-08
-1.40545e-08
-7.42502e-08
9.04799e-08
-1.45912e-08
-8.21148e-08
8.94679e-08
-1.51287e-08
-8.89034e-08
8.76274e-08
-1.5677e-08
-9.45725e-08
8.51224e-08
-1.62243e-08
-9.91038e-08
8.2092e-08
-1.67751e-08
-1.02496e-07
7.86485e-08
-1.73156e-08
-1.0477e-07
7.48905e-08
-1.78483e-08
-1.05958e-07
7.09023e-08
-1.83593e-08
-1.06091e-07
6.6756e-08
-1.88503e-08
-1.05232e-07
6.25158e-08
-1.93129e-08
-1.03446e-07
5.82468e-08
-1.9747e-08
-1.00815e-07
5.39969e-08
-2.01428e-08
-9.7413e-08
4.98121e-08
-2.04999e-08
-9.33248e-08
4.57267e-08
-2.08107e-08
-8.86222e-08
4.17694e-08
-2.10769e-08
-8.33915e-08
3.79655e-08
-2.12925e-08
-7.77044e-08
3.43348e-08
-2.14586e-08
-7.16326e-08
3.08856e-08
-2.15696e-08
-6.52392e-08
2.76275e-08
-2.1625e-08
-5.85868e-08
2.45674e-08
-2.16178e-08
-5.17247e-08
2.17053e-08
-2.15427e-08
-4.47027e-08
1.90372e-08
-2.13863e-08
-3.75614e-08
1.65554e-08
-2.11328e-08
-3.03307e-08
1.42447e-08
-2.07539e-08
-2.30316e-08
1.20823e-08
-2.02013e-08
-1.56867e-08
1.00284e-08
-1.93644e-08
-8.31361e-09
8.02215e-09
-1.79915e-08
4.73764e-09
-1.47703e-08
-4.36632e-09
4.18264e-08
-1.01089e-10
-8.16924e-09
6.79233e-08
-1.58853e-09
-1.15588e-08
7.94655e-08
-2.54194e-09
-1.47565e-08
8.75788e-08
-3.2048e-09
-1.78436e-08
9.30325e-08
-3.76306e-09
-2.07955e-08
9.64038e-08
-4.31782e-09
-2.35611e-08
9.81323e-08
-4.91339e-09
-2.60936e-08
9.85563e-08
-5.54349e-09
-2.83501e-08
9.79443e-08
-6.22016e-09
-3.02976e-08
9.65045e-08
-6.93026e-09
-3.19142e-08
9.44123e-08
-7.6742e-09
-3.31883e-08
9.18029e-08
-8.43472e-09
-3.41214e-08
8.87935e-08
-9.21355e-09
-3.4713e-08
8.54764e-08
-9.99261e-09
-3.49761e-08
8.19361e-08
-1.07714e-08
-3.49239e-08
7.82374e-08
-1.15342e-08
-3.45858e-08
7.44541e-08
-1.22757e-08
-3.4e-08
7.06411e-08
-1.29815e-08
-3.31965e-08
6.68455e-08
-1.3651e-08
-3.22135e-08
6.31019e-08
-1.4273e-08
-3.10814e-08
5.94424e-08
-1.48473e-08
-2.98397e-08
5.58898e-08
-1.53648e-08
-2.85098e-08
5.24642e-08
-1.58257e-08
-2.71315e-08
4.91768e-08
-1.62225e-08
-2.5715e-08
4.60271e-08
-1.65573e-08
-2.42756e-08
4.30132e-08
-1.6824e-08
-2.2814e-08
4.01258e-08
-1.7022e-08
-2.13064e-08
3.73445e-08
-1.71451e-08
-1.97167e-08
3.46357e-08
-1.71898e-08
-1.79707e-08
3.1954e-08
-1.71436e-08
-1.59591e-08
2.92233e-08
-1.69921e-08
-1.35022e-08
2.6349e-08
-1.67208e-08
-1.03218e-08
2.31859e-08
-1.63392e-08
-6.10423e-09
1.95707e-08
-1.57667e-08
1.24849e-08
-1.38508e-08
-5.32052e-09
4.19003e-08
5.24613e-09
-7.0273e-09
6.55253e-08
4.10654e-09
-6.93698e-09
7.61854e-08
3.18699e-09
-5.83421e-09
8.39016e-08
2.5762e-09
-4.1875e-09
8.92996e-08
2.08584e-09
-2.23444e-09
9.28785e-08
1.57108e-09
-1.28662e-10
9.50193e-08
1.00984e-09
2.01008e-09
9.60226e-08
3.91831e-10
4.10988e-09
9.61177e-08
-2.7095e-10
6.09404e-09
9.54937e-08
-9.7347e-10
7.92885e-09
9.42935e-08
-1.71683e-09
9.58792e-09
9.26408e-08
-2.49748e-09
1.10489e-08
9.06306e-08
-3.29677e-09
1.22879e-08
8.83484e-08
-4.11268e-09
1.32896e-08
8.58613e-08
-4.92625e-09
1.40313e-08
8.32311e-08
-5.73461e-09
1.45014e-08
8.05057e-08
-6.52258e-09
1.46984e-08
7.77315e-08
-7.28732e-09
1.46155e-08
7.4943e-08
-8.01583e-09
1.4254e-08
7.2171e-08
-8.70644e-09
1.36083e-08
6.94373e-08
-9.34874e-09
1.26794e-08
6.67599e-08
-9.94214e-09
1.14753e-08
6.41475e-08
-1.04786e-08
1.00072e-08
6.16026e-08
-1.09586e-08
8.29246e-09
5.91188e-08
-1.13763e-08
6.35803e-09
5.66802e-08
-1.17325e-08
4.24671e-09
5.42591e-08
-1.20232e-08
2.02826e-09
5.1812e-08
-1.22495e-08
-2.03512e-10
4.92762e-08
-1.24076e-08
-2.31722e-09
4.65627e-08
-1.24951e-08
-4.13158e-09
4.35409e-08
-1.25043e-08
-5.37666e-09
4.00425e-08
-1.24478e-08
-5.62364e-09
3.58296e-08
-1.23971e-08
-4.28238e-09
3.05947e-08
-1.23656e-08
1.9601e-08
-1.1398e-08
-3.87596e-09
3.92731e-08
6.50295e-09
-4.26992e-09
6.03367e-08
5.58254e-09
-2.8304e-09
6.99907e-08
4.75507e-09
-3.16317e-10
7.71524e-08
4.23604e-09
2.78202e-09
8.23776e-08
3.823e-09
6.18746e-09
8.6078e-08
3.39561e-09
9.70123e-09
8.85878e-08
2.91664e-09
1.31801e-08
9.01504e-08
2.39447e-09
1.65054e-08
9.09659e-08
1.8252e-09
1.95997e-08
9.11803e-08
1.21964e-09
2.23999e-08
9.09164e-08
5.77048e-10
2.48649e-08
9.02686e-08
-9.25017e-11
2.69485e-08
8.93205e-08
-7.75856e-10
2.86324e-08
8.81351e-08
-1.46999e-09
2.98968e-08
8.67702e-08
-2.17136e-09
3.07251e-08
8.52681e-08
-2.86626e-09
3.11127e-08
8.36687e-08
-3.5513e-09
3.10588e-08
8.2001e-08
-4.21495e-09
3.05639e-08
8.02915e-08
-4.85488e-09
2.96384e-08
7.85582e-08
-5.46145e-09
2.82922e-08
7.68164e-08
-6.03318e-09
2.65422e-08
7.50728e-08
-6.56248e-09
2.44092e-08
7.3328e-08
-7.04905e-09
2.19264e-08
7.1574e-08
-7.48735e-09
1.91304e-08
6.97932e-08
-7.87795e-09
1.60698e-08
6.79568e-08
-8.21712e-09
1.28143e-08
6.60199e-08
-8.50639e-09
9.45235e-09
6.39197e-08
-8.74399e-09
6.09453e-09
6.15658e-08
-8.93205e-09
2.8892e-09
5.88363e-08
-9.06742e-09
1.71892e-11
5.55596e-08
-9.14857e-09
-2.2567e-09
5.15098e-08
-9.19278e-09
-3.50619e-09
4.63696e-08
-9.29152e-09
-3.16299e-09
3.97401e-08
-9.4885e-09
2.54583e-08
-9.02008e-09
-1.99387e-09
3.59941e-08
5.27274e-09
-1.56084e-09
5.54454e-08
4.45811e-09
2.10469e-10
6.44621e-08
3.75884e-09
2.74734e-09
7.12849e-08
3.3294e-09
5.70255e-09
7.64184e-08
3.0054e-09
8.86205e-09
8.02415e-08
2.67457e-09
1.20903e-08
8.30453e-08
2.3168e-09
1.52619e-08
8.5051e-08
1.92705e-09
1.82883e-08
8.64259e-08
1.5122e-09
2.1099e-08
8.73026e-08
1.06911e-09
2.36283e-08
8.77804e-08
6.05258e-10
2.58369e-08
8.79418e-08
1.17782e-10
2.76859e-08
8.78483e-08
-3.74679e-10
2.91456e-08
8.75534e-08
-8.77403e-10
3.01997e-08
8.70958e-08
-1.38084e-09
3.08403e-08
8.65114e-08
-1.88292e-09
3.10554e-08
8.58255e-08
-2.37442e-09
3.08534e-08
8.50603e-08
-2.85377e-09
3.02255e-08
8.42302e-08
-3.31327e-09
2.91908e-08
8.33462e-08
-3.75197e-09
2.77572e-08
8.24126e-08
-4.16358e-09
2.59506e-08
8.14285e-08
-4.54788e-09
2.37924e-08
8.03855e-08
-4.89997e-09
2.13201e-08
7.92668e-08
-5.22043e-09
1.8574e-08
7.80454e-08
-5.50575e-09
1.56069e-08
7.66805e-08
-5.75732e-09
1.24862e-08
7.5115e-08
-5.97301e-09
9.29128e-09
7.32682e-08
-6.15529e-09
6.13159e-09
7.10304e-08
-6.30316e-09
3.13336e-09
6.82517e-08
-6.41771e-09
4.60381e-10
6.47279e-08
-6.4957e-09
-1.6607e-09
6.01868e-08
-6.55598e-09
-2.87038e-09
5.42546e-08
-6.67546e-09
-2.67453e-09
4.64437e-08
-6.89693e-09
2.94105e-08
-6.62796e-09
-7.68269e-10
3.32383e-08
3.52147e-09
-3.13296e-10
5.21279e-08
2.86576e-09
8.82075e-10
6.09252e-08
2.34079e-09
2.49505e-09
6.76454e-08
2.02643e-09
4.33327e-09
7.27909e-08
1.78919e-09
6.28959e-09
7.67287e-08
1.55729e-09
8.28491e-09
7.97409e-08
1.30871e-09
1.02542e-08
8.20346e-08
1.04653e-09
1.21429e-08
8.37704e-08
7.67933e-10
1.39019e-08
8.50669e-08
4.76931e-10
1.54934e-08
8.60178e-08
1.70007e-10
1.68852e-08
8.66924e-08
-1.4255e-10
1.80456e-08
8.71465e-08
-4.59626e-10
1.89588e-08
8.74215e-08
-7.80408e-10
1.96046e-08
8.75521e-08
-1.10233e-09
1.99721e-08
8.75629e-08
-1.41907e-09
2.00537e-08
8.74735e-08
-1.73004e-09
1.98472e-08
8.72966e-08
-2.02948e-09
1.93538e-08
8.70411e-08
-2.31737e-09
1.85776e-08
8.67103e-08
-2.58883e-09
1.75308e-08
8.63026e-08
-2.84437e-09
1.62314e-08
8.58101e-08
-3.08006e-09
1.46945e-08
8.52179e-08
-3.297e-09
1.29511e-08
8.45026e-08
-3.49217e-09
1.10336e-08
8.36293e-08
-3.66721e-09
8.98633e-09
8.25498e-08
-3.81997e-09
6.85594e-09
8.11962e-08
-3.95268e-09
4.71092e-09
7.94776e-08
-4.06418e-09
2.62831e-09
7.72687e-08
-4.15714e-09
7.07112e-10
7.44036e-08
-4.22951e-09
-9.36999e-10
7.06547e-08
-4.28196e-09
-2.14911e-09
6.57225e-08
-4.32484e-09
-2.67407e-09
5.91951e-08
-4.41466e-09
-2.19529e-09
5.0535e-08
-4.57202e-09
3.15895e-08
-4.37369e-09
-4.90878e-10
3.12768e-08
2.45132e-09
-4.75126e-10
5.00698e-08
2.04286e-09
-1.01965e-10
5.88256e-08
1.72756e-09
4.68067e-10
6.55368e-08
1.53844e-09
1.15652e-09
7.07076e-08
1.39423e-09
1.92433e-09
7.47126e-08
1.24915e-09
2.73869e-09
7.78288e-08
1.09644e-09
3.57562e-09
8.02656e-08
9.33556e-10
4.40189e-09
8.21779e-08
7.64368e-10
5.19836e-09
8.36842e-08
5.86839e-10
5.94038e-09
8.4872e-08
4.04957e-10
6.60596e-09
8.58087e-08
2.17169e-10
7.17952e-09
8.6544e-08
2.88301e-11
7.64429e-09
8.71166e-08
-1.59063e-10
7.98361e-09
8.75537e-08
-3.41025e-10
8.19283e-09
8.7877e-08
-5.2182e-10
8.25929e-09
8.81004e-08
-6.95731e-10
8.18542e-09
8.82352e-08
-8.63424e-10
7.96207e-09
8.82848e-08
-1.02048e-09
7.59175e-09
8.82485e-08
-1.16819e-09
7.07886e-09
8.81194e-08
-1.30346e-09
6.43179e-09
8.78858e-08
-1.42809e-09
5.66171e-09
8.75282e-08
-1.53958e-09
4.78561e-09
8.70187e-08
-1.64016e-09
3.82338e-09
8.63181e-08
-1.7279e-09
2.80725e-09
8.53729e-08
-1.80542e-09
1.76424e-09
8.41105e-08
-1.87134e-09
7.3759e-10
8.24336e-08
-1.92877e-09
-2.28541e-10
8.02105e-08
-1.97671e-09
-1.07236e-09
7.72667e-08
-2.01766e-09
-1.73354e-09
7.33655e-08
-2.04957e-09
-2.12475e-09
6.81945e-08
-2.08271e-09
-2.10634e-09
6.1327e-08
-2.14962e-09
-1.50591e-09
5.21989e-08
-2.26044e-09
3.22365e-08
-2.15608e-09
-8.03189e-10
2.99078e-08
2.17239e-09
-1.36504e-09
4.85688e-08
2.06147e-09
-1.73981e-09
5.72557e-08
1.94636e-09
-2.0004e-09
6.39148e-08
1.88117e-09
-2.16497e-09
6.90517e-08
1.82053e-09
-2.24449e-09
7.30408e-08
1.75181e-09
-2.24865e-09
7.61604e-08
1.67113e-09
-2.18169e-09
7.86182e-08
1.58315e-09
-2.06442e-09
8.05699e-08
1.48751e-09
-1.89561e-09
8.2131e-08
1.38822e-09
-1.70059e-09
8.33894e-08
1.28445e-09
-1.48103e-09
8.44094e-08
1.18027e-09
-1.25065e-09
8.52407e-08
1.07486e-09
-1.02749e-09
8.59184e-08
9.72028e-10
-8.11702e-10
8.64691e-08
8.71641e-10
-6.23866e-10
8.69107e-08
7.77371e-10
-4.65858e-10
8.72562e-08
6.87966e-10
-3.51865e-10
8.75118e-08
6.06604e-10
-2.75628e-10
8.76801e-08
5.30473e-10
-2.47165e-10
8.77572e-08
4.62666e-10
-2.65826e-10
8.77355e-08
4.01044e-10
-3.26434e-10
8.76001e-08
3.47886e-10
-4.29548e-10
8.73302e-08
3.00528e-10
-5.65468e-10
8.68953e-08
2.60705e-10
-7.29302e-10
8.62549e-08
2.25336e-10
-9.04838e-10
8.53536e-08
1.95696e-10
-1.08064e-09
8.41179e-08
1.68292e-10
-1.2404e-09
8.24489e-08
1.43861e-10
-1.36304e-09
8.02155e-08
1.18427e-10
-1.43145e-09
7.72423e-08
9.25307e-11
-1.42345e-09
7.32949e-08
6.29498e-11
-1.31483e-09
6.80615e-08
2.43393e-11
-1.06028e-09
6.11208e-08
-4.82459e-11
-6.18195e-10
5.19122e-08
-1.55558e-10
3.18221e-08
-2.03741e-10
-1.21433e-09
2.88354e-08
2.287e-09
-2.2103e-09
4.71277e-08
2.4368e-09
-3.06869e-09
5.56336e-08
2.48044e-09
-3.81309e-09
6.21495e-08
2.50942e-09
-4.44683e-09
6.71706e-08
2.5151e-09
-4.97175e-09
7.10665e-08
2.49967e-09
-5.39191e-09
7.41098e-08
2.47016e-09
-5.70796e-09
7.65068e-08
2.42853e-09
-5.93001e-09
7.84092e-08
2.38025e-09
-6.05593e-09
7.9933e-08
2.32564e-09
-6.1005e-09
8.11625e-08
2.26906e-09
-6.06175e-09
8.2163e-08
2.21019e-09
-5.95656e-09
8.29812e-08
2.15289e-09
-5.78808e-09
8.36534e-08
2.0964e-09
-5.56673e-09
8.4204e-08
2.04419e-09
-5.3046e-09
8.46521e-08
1.99495e-09
-5.00524e-09
8.50081e-08
1.95158e-09
-4.68537e-09
8.52777e-08
1.91302e-09
-4.34713e-09
8.54605e-08
1.88173e-09
-4.00076e-09
8.55538e-08
1.85536e-09
-3.64686e-09
8.55473e-08
1.83587e-09
-3.29469e-09
8.5427e-08
1.82045e-09
-2.94593e-09
8.51701e-08
1.81058e-09
-2.60162e-09
8.47476e-08
1.803e-09
-2.26107e-09
8.41173e-08
1.79874e-09
-1.92792e-09
8.3226e-08
1.79411e-09
-1.60012e-09
8.20002e-08
1.78966e-09
-1.27725e-09
8.0345e-08
1.78116e-09
-9.63057e-10
7.81319e-08
1.76844e-09
-6.5884e-10
7.51926e-08
1.7465e-09
-3.79027e-10
7.12999e-08
1.71411e-09
-1.32995e-10
6.61547e-08
1.66161e-09
6.21522e-11
5.93521e-08
1.57298e-09
1.82113e-10
5.03538e-08
1.43845e-09
3.07736e-08
1.23108e-09
-1.40364e-09
2.79634e-08
2.27551e-09
-2.57807e-09
4.57211e-08
2.58157e-09
-3.62985e-09
5.39725e-08
2.71277e-09
-4.56396e-09
6.02872e-08
2.79481e-09
-5.37269e-09
6.51461e-08
2.8346e-09
-6.05964e-09
6.89052e-08
2.84885e-09
-6.62834e-09
7.18326e-08
2.84382e-09
-7.07357e-09
7.4127e-08
2.82666e-09
-7.40169e-09
7.5939e-08
2.79943e-09
-7.61847e-09
7.73798e-08
2.76723e-09
-7.71999e-09
7.85347e-08
2.73072e-09
-7.71565e-09
7.94657e-08
2.694e-09
-7.61306e-09
8.0221e-08
2.65695e-09
-7.41632e-09
8.08346e-08
2.62312e-09
-7.13744e-09
8.13327e-08
2.59184e-09
-6.78298e-09
8.17319e-08
2.56613e-09
-6.36464e-09
8.20448e-08
2.54474e-09
-5.89387e-09
8.22757e-08
2.53016e-09
-5.37952e-09
8.24266e-08
2.52051e-09
-4.83611e-09
8.24919e-08
2.51766e-09
-4.27087e-09
8.24635e-08
2.51912e-09
-3.69595e-09
8.23251e-08
2.52618e-09
-3.11504e-09
8.20561e-08
2.53577e-09
-2.54408e-09
8.16255e-08
2.54865e-09
-1.98113e-09
8.09948e-08
2.56127e-09
-1.44022e-09
8.01096e-08
2.57386e-09
-9.22729e-10
7.89016e-08
2.58236e-09
-4.4178e-10
7.72772e-08
2.58635e-09
-6.00662e-12
7.51159e-08
2.58089e-09
3.66042e-10
7.2255e-08
2.56443e-09
6.55006e-10
6.8481e-08
2.53038e-09
8.30287e-10
6.35072e-08
2.47281e-09
8.56019e-10
5.69534e-08
2.37317e-09
6.79731e-10
4.83086e-08
2.22107e-09
2.95426e-08
1.91089e-09
-1.23524e-09
2.73395e-08
1.85954e-09
-2.32208e-09
4.46234e-08
2.18358e-09
-3.32873e-09
5.26477e-08
2.3314e-09
-4.23902e-09
5.87812e-08
2.41791e-09
-5.04521e-09
6.34888e-08
2.46139e-09
-5.73501e-09
6.71186e-08
2.47747e-09
-6.30915e-09
6.99301e-08
2.47624e-09
-6.76344e-09
7.21197e-08
2.4612e-09
-7.09413e-09
7.3833e-08
2.43795e-09
-7.30485e-09
7.51816e-08
2.40813e-09
-7.39401e-09
7.6248e-08
2.37614e-09
-7.36682e-09
7.70961e-08
2.34265e-09
-7.22885e-09
7.77719e-08
2.31133e-09
-6.99027e-09
7.83119e-08
2.28222e-09
-6.6543e-09
7.87407e-08
2.25843e-09
-6.23988e-09
7.90776e-08
2.2394e-09
-5.75533e-09
7.9333e-08
2.22764e-09
-5.21649e-09
7.95144e-08
2.22191e-09
-4.635e-09
7.96214e-08
2.22406e-09
-4.02644e-09
7.96512e-08
2.23213e-09
-3.40275e-09
7.95933e-08
2.24728e-09
-2.77816e-09
7.9434e-08
2.26689e-09
-2.16465e-09
7.91507e-08
2.29146e-09
-1.57228e-09
7.87151e-08
2.31779e-09
-1.01118e-09
7.8087e-08
2.34586e-09
-4.87654e-10
7.7216e-08
2.37195e-09
-1.63026e-11
7.60331e-08
2.39549e-09
3.98813e-10
7.44506e-08
2.41219e-09
7.45176e-10
7.235e-08
2.42068e-09
1.00577e-09
6.95775e-08
2.41563e-09
1.16552e-09
6.59272e-08
2.39412e-09
1.19886e-09
6.11272e-08
2.34715e-09
1.07744e-09
5.48139e-08
2.26221e-09
7.57632e-10
4.65024e-08
2.12346e-09
2.84851e-08
1.81637e-09
-7.99369e-10
2.711e-08
1.028e-09
-1.61758e-09
4.41892e-08
1.2543e-09
-2.44041e-09
5.21112e-08
1.35904e-09
-3.22927e-09
5.8154e-08
1.41429e-09
-3.95158e-09
6.27786e-08
1.43382e-09
-4.59357e-09
6.63271e-08
1.43287e-09
-5.1377e-09
6.90591e-08
1.41667e-09
-5.57732e-09
7.11677e-08
1.39044e-09
-5.90098e-09
7.28007e-08
1.3562e-09
-6.10615e-09
7.40678e-08
1.31816e-09
-6.18819e-09
7.50543e-08
1.27769e-09
-6.15565e-09
7.5823e-08
1.23841e-09
-6.00861e-09
7.64233e-08
1.20113e-09
-5.75494e-09
7.68907e-08
1.16901e-09
-5.411e-09
7.72529e-08
1.1423e-09
-4.98399e-09
7.7528e-08
1.12357e-09
-4.49429e-09
7.77297e-08
1.11239e-09
-3.95339e-09
7.78637e-08
1.11065e-09
-3.38186e-09
7.79324e-08
1.11713e-09
-2.79397e-09
7.79309e-08
1.13295e-09
-2.2091e-09
7.78513e-08
1.1561e-09
-1.63807e-09
7.76775e-08
1.18692e-09
-1.09991e-09
7.73887e-08
1.22272e-09
-6.02896e-10
7.69547e-08
1.26319e-09
-1.57562e-10
7.63372e-08
1.30508e-09
2.2769e-10
7.54836e-08
1.3476e-09
5.4564e-10
7.43279e-08
1.38709e-09
7.92069e-10
7.27811e-08
1.42235e-09
9.63187e-10
7.07291e-08
1.44929e-09
1.05551e-09
6.8019e-08
1.46616e-09
1.06423e-09
6.44516e-08
1.46802e-09
9.79442e-10
5.97594e-08
1.45098e-09
7.98872e-10
5.3591e-08
1.40383e-09
5.10896e-10
4.54729e-08
1.31706e-09
2.78848e-08
1.11157e-09
-2.70443e-10
2.7378e-08
1.89662e-12
-7.64992e-10
4.46233e-08
6.16388e-11
-1.35891e-09
5.26114e-08
9.33296e-11
-1.99107e-09
5.86896e-08
9.5972e-11
-2.6145e-09
6.33229e-08
7.86002e-11
-3.19521e-09
6.68602e-08
4.81401e-11
-3.70741e-09
6.95632e-08
8.82739e-12
-4.13257e-09
7.16307e-08
-3.77587e-11
-4.45535e-09
7.32117e-08
-8.87313e-11
-4.66535e-09
7.44209e-08
-1.42582e-10
-4.76068e-09
7.53443e-08
-1.95958e-10
-4.73667e-09
7.60492e-08
-2.4756e-10
-4.60612e-09
7.65852e-08
-2.94272e-10
-4.3715e-09
7.69917e-08
-3.35143e-10
-4.04576e-09
7.72962e-08
-3.67487e-10
-3.6497e-09
7.75203e-08
-3.90948e-10
-3.19087e-09
7.76767e-08
-4.03506e-10
-2.69655e-09
7.77739e-08
-4.05588e-10
-2.18133e-09
7.78128e-08
-3.96044e-10
-1.66456e-09
7.77908e-08
-3.76169e-10
-1.16428e-09
7.76977e-08
-3.45644e-10
-7.01491e-10
7.7519e-08
-3.06591e-10
-2.82186e-10
7.72314e-08
-2.5945e-10
7.44934e-11
7.68055e-08
-2.0699e-10
3.6048e-10
7.62e-08
-1.5018e-10
5.73236e-10
7.53634e-08
-9.21821e-11
7.08835e-10
7.42261e-08
-3.42801e-11
7.70422e-10
7.26998e-08
2.02577e-11
7.62488e-10
7.06671e-08
7.01688e-11
6.93133e-10
6.79758e-08
1.12372e-10
5.74653e-10
6.44234e-08
1.45804e-10
4.23766e-10
5.97438e-08
1.67209e-10
2.60805e-10
5.35822e-08
1.73356e-10
1.0629e-10
4.54667e-08
1.59256e-10
2.78761e-08
1.15602e-10
1.93681e-10
2.81424e-08
-9.56392e-10
-1.69088e-11
4.5891e-08
-1.05914e-09
-4.04505e-10
5.41011e-08
-1.10227e-09
-8.94412e-10
6.03305e-08
-1.15078e-09
-1.42614e-09
6.50606e-08
-1.20542e-09
-1.95563e-09
6.8652e-08
-1.26397e-09
-2.44193e-09
7.13773e-08
-1.32687e-09
-2.85962e-09
7.34415e-08
-1.39288e-09
-3.18782e-09
7.50016e-08
-1.46147e-09
-3.41263e-09
7.6176e-08
-1.53014e-09
-3.52753e-09
7.70566e-08
-1.59759e-09
-3.53156e-09
7.7713e-08
-1.6609e-09
-3.4264e-09
7.81996e-08
-1.71862e-09
-3.224e-09
7.85566e-08
-1.76802e-09
-2.93382e-09
7.88157e-08
-1.808e-09
-2.57659e-09
7.89983e-08
-1.83637e-09
-2.16658e-09
7.91202e-08
-1.85275e-09
-1.72781e-09
7.91892e-08
-1.85576e-09
-1.27667e-09
7.92084e-08
-1.84592e-09
-8.36705e-10
7.91734e-08
-1.82277e-09
-4.25104e-10
7.90754e-08
-1.78776e-09
-6.29215e-11
7.88974e-08
-1.74134e-09
2.37264e-10
7.86167e-08
-1.68577e-09
4.64308e-10
7.82007e-08
-1.6222e-09
6.08624e-10
7.76077e-08
-1.55342e-09
6.73491e-10
7.67819e-08
-1.48093e-09
6.53064e-10
7.56526e-08
-1.40761e-09
5.61062e-10
7.41263e-08
-1.3348e-09
4.10717e-10
7.2083e-08
-1.26493e-09
2.21282e-10
6.9364e-08
-1.19844e-09
1.753e-11
6.57619e-08
-1.13646e-09
-1.61351e-10
6.10017e-08
-1.07778e-09
-2.76237e-10
5.47197e-08
-1.02175e-09
-2.7661e-10
4.64304e-08
-9.64434e-10
2.84482e-08
-8.48036e-10
4.72745e-10
2.92867e-08
-1.61733e-09
4.51025e-10
4.77548e-08
-1.84241e-09
2.06763e-10
5.62873e-08
-1.94122e-09
-1.79852e-10
6.27455e-08
-2.02893e-09
-6.40756e-10
6.76314e-08
-2.1114e-09
-1.11852e-09
7.13241e-08
-2.19228e-09
-1.57608e-09
7.41074e-08
-2.27312e-09
-1.97758e-09
7.61982e-08
-2.35502e-09
-2.30153e-09
7.77603e-08
-2.43705e-09
-2.52612e-09
7.89202e-08
-2.51829e-09
-2.647e-09
7.9774e-08
-2.59641e-09
-2.66114e-09
8.03969e-08
-2.66976e-09
-2.57275e-09
8.08459e-08
-2.7357e-09
-2.38835e-09
8.11657e-08
-2.79263e-09
-2.12296e-09
8.13889e-08
-2.83821e-09
-1.79497e-09
8.15405e-08
-2.87137e-09
-1.42028e-09
8.16362e-08
-2.89048e-09
-1.02082e-09
8.1686e-08
-2.8953e-09
-6.20811e-10
8.16921e-08
-2.88515e-09
-2.37897e-10
8.16517e-08
-2.86077e-09
1.06069e-10
8.15538e-08
-2.82244e-09
3.92797e-10
8.13818e-08
-2.77185e-09
6.09983e-10
8.11103e-08
-2.71011e-09
7.44672e-10
8.07058e-08
-2.63959e-09
7.90475e-10
8.01226e-08
-2.56195e-09
7.49288e-10
7.93031e-08
-2.47984e-09
6.24886e-10
7.81712e-08
-2.39492e-09
4.31996e-10
7.66301e-08
-2.30948e-09
1.87031e-10
7.45519e-08
-2.22441e-09
-8.13964e-11
7.17723e-08
-2.14058e-09
-3.35603e-10
6.80731e-08
-2.05688e-09
-5.32492e-10
6.3169e-08
-1.9712e-09
-6.12615e-10
5.66789e-08
-1.87789e-09
-5.13544e-10
4.80992e-08
-1.76878e-09
2.94686e-08
-1.53394e-09
5.41434e-10
3.06397e-08
-1.89328e-09
5.8342e-10
4.98826e-08
-2.17017e-09
3.97318e-10
5.87654e-08
-2.29405e-09
6.89105e-11
6.54755e-08
-2.39923e-09
-3.43388e-10
7.05371e-08
-2.49482e-09
-7.8054e-10
7.43471e-08
-2.58592e-09
-1.20129e-09
7.72036e-08
-2.6758e-09
-1.57035e-09
7.93335e-08
-2.76529e-09
-1.86611e-09
8.09099e-08
-2.85448e-09
-2.06996e-09
8.20655e-08
-2.94187e-09
-2.17245e-09
8.2903e-08
-3.02596e-09
-2.17262e-09
8.35014e-08
-3.10436e-09
-2.07351e-09
8.39224e-08
-3.17518e-09
-1.88489e-09
8.42128e-08
-3.23601e-09
-1.6196e-09
8.44088e-08
-3.28523e-09
-1.29419e-09
8.4536e-08
-3.32096e-09
-9.29188e-10
8.46129e-08
-3.3423e-09
-5.44874e-10
8.46492e-08
-3.34822e-09
-1.60008e-10
8.46486e-08
-3.33878e-09
1.95665e-10
8.46069e-08
-3.31396e-09
5.11019e-10
8.45138e-08
-3.2748e-09
7.66635e-10
8.43505e-08
-3.22224e-09
9.43702e-10
8.40908e-08
-3.15819e-09
1.0353e-09
8.3698e-08
-3.08427e-09
1.03522e-09
8.31249e-08
-3.00293e-09
9.46427e-10
8.23091e-08
-2.91606e-09
7.72448e-10
8.11713e-08
-2.82606e-09
5.27615e-10
7.96082e-08
-2.73442e-09
2.36463e-10
7.74866e-08
-2.64259e-09
-7.26372e-11
7.46328e-08
-2.55049e-09
-3.61188e-10
7.08192e-08
-2.45725e-09
-5.82418e-10
6.57469e-08
-2.35926e-09
-6.69265e-10
5.90183e-08
-2.25005e-09
-5.60167e-10
5.01079e-08
-2.11895e-09
3.07443e-08
-1.83498e-09
4.42676e-10
3.19979e-08
-1.802e-09
4.48477e-10
5.19395e-08
-2.06144e-09
2.5331e-10
6.11388e-08
-2.17932e-09
-6.63461e-11
6.80776e-08
-2.28134e-09
-4.53092e-10
7.32992e-08
-2.37483e-09
-8.58721e-10
7.72169e-08
-2.46498e-09
-1.24109e-09
8.01403e-08
-2.55433e-09
-1.57161e-09
8.2307e-08
-2.64393e-09
-1.82398e-09
8.38972e-08
-2.73329e-09
-1.98881e-09
8.50503e-08
-2.82126e-09
-2.05246e-09
8.58738e-08
-2.90584e-09
-2.01842e-09
8.64515e-08
-2.98505e-09
-1.88739e-09
8.68481e-08
-3.05651e-09
-1.67023e-09
8.71138e-08
-3.11823e-09
-1.38059e-09
8.72864e-08
-3.16814e-09
-1.0337e-09
8.73943e-08
-3.20479e-09
-6.48926e-10
8.74562e-08
-3.22682e-09
-2.50295e-10
8.74834e-08
-3.23364e-09
1.4404e-10
8.74794e-08
-3.22484e-09
5.10935e-10
8.74403e-08
-3.20086e-09
8.32714e-10
8.73546e-08
-3.16227e-09
1.09e-09
8.72032e-08
-3.11045e-09
1.27142e-09
8.69574e-08
-3.04687e-09
1.36347e-09
8.65792e-08
-2.97361e-09
1.3632e-09
8.60179e-08
-2.89266e-09
1.27048e-09
8.52086e-08
-2.8064e-09
1.09139e-09
8.40672e-08
-2.71681e-09
8.39083e-10
8.24859e-08
-2.62587e-09
5.34788e-10
8.0325e-08
-2.53473e-09
2.09143e-10
7.74039e-08
-2.44385e-09
-1.04575e-10
7.34847e-08
-2.35218e-09
-3.59129e-10
6.82574e-08
-2.25693e-09
-4.96411e-10
6.13083e-08
-2.152e-09
-4.53056e-10
5.20935e-08
-2.02901e-09
3.2056e-08
-1.76421e-09
2.38842e-10
3.32017e-08
-1.4425e-09
1.39007e-10
5.36715e-08
-1.63135e-09
-1.13192e-10
6.31105e-08
-1.71993e-09
-4.56181e-10
7.02219e-08
-1.80269e-09
-8.36397e-10
7.55632e-08
-1.88279e-09
-1.21595e-09
7.95593e-08
-1.96293e-09
-1.56054e-09
8.25296e-08
-2.04463e-09
-1.84452e-09
8.47186e-08
-2.12803e-09
-2.04812e-09
8.63132e-08
-2.21238e-09
-2.16057e-09
8.74578e-08
-2.29606e-09
-2.17243e-09
8.82642e-08
-2.37711e-09
-2.08667e-09
8.88195e-08
-2.45326e-09
-1.90839e-09
8.91916e-08
-2.52231e-09
-1.64673e-09
8.94331e-08
-2.58204e-09
-1.31327e-09
8.95842e-08
-2.63061e-09
-9.27386e-10
8.96742e-08
-2.66636e-09
-5.05612e-10
8.97235e-08
-2.68816e-09
-7.14265e-11
8.97438e-08
-2.6952e-09
3.55707e-10
8.97389e-08
-2.6873e-09
7.55743e-10
8.97048e-08
-2.66465e-09
1.10871e-09
8.96296e-08
-2.62804e-09
1.39833e-09
8.94927e-08
-2.57861e-09
1.60911e-09
8.92645e-08
-2.51802e-09
1.73077e-09
8.89046e-08
-2.44812e-09
1.76009e-09
8.83604e-08
-2.37112e-09
1.69423e-09
8.75636e-08
-2.28921e-09
1.53841e-09
8.64271e-08
-2.20466e-09
1.30499e-09
8.48388e-08
-2.1194e-09
1.01093e-09
8.26541e-08
-2.03507e-09
6.80704e-10
7.9686e-08
-1.95238e-09
3.46952e-10
7.56898e-08
-1.87118e-09
4.84894e-11
7.0346e-08
-1.78978e-09
-1.6981e-10
6.32294e-08
-1.70482e-09
-2.42092e-10
5.37822e-08
-1.61244e-09
3.32309e-08
-1.41924e-09
-2.42834e-12
3.41458e-08
-9.42713e-10
-2.33676e-10
5.49359e-08
-1.03232e-09
-5.63827e-10
6.45199e-08
-1.07869e-09
-9.43181e-10
7.17334e-08
-1.13347e-09
-1.32804e-09
7.71424e-08
-1.19361e-09
-1.68902e-09
8.11788e-08
-1.25862e-09
-1.99891e-09
8.41678e-08
-1.32827e-09
-2.23759e-09
8.63591e-08
-1.40177e-09
-2.38955e-09
8.79435e-08
-1.47771e-09
-2.4475e-09
8.90693e-08
-1.55415e-09
-2.40585e-09
8.98513e-08
-1.62889e-09
-2.2667e-09
9.03795e-08
-1.69961e-09
-2.03356e-09
9.07243e-08
-1.76404e-09
-1.72092e-09
9.09401e-08
-1.82003e-09
-1.33969e-09
9.10688e-08
-1.8657e-09
-9.07427e-10
9.11411e-08
-1.89947e-09
-4.42173e-10
9.11784e-08
-1.92018e-09
3.71973e-11
9.11929e-08
-1.92711e-09
5.06058e-10
9.11888e-08
-1.92001e-09
9.49446e-10
9.11618e-08
-1.89913e-09
1.34293e-09
9.10995e-08
-1.86517e-09
1.67565e-09
9.09804e-08
-1.81931e-09
1.92969e-09
9.07737e-08
-1.76309e-09
2.0952e-09
9.04374e-08
-1.69841e-09
2.16562e-09
8.99168e-08
-1.6274e-09
2.14133e-09
8.91415e-08
-1.55233e-09
2.02173e-09
8.80215e-08
-1.47551e-09
1.8192e-09
8.64416e-08
-1.39912e-09
1.54402e-09
8.42538e-08
-1.32511e-09
1.21774e-09
8.1267e-08
-1.25483e-09
8.63987e-10
7.72314e-08
-1.18908e-09
5.18497e-10
7.1822e-08
-1.12794e-09
2.113e-10
6.46063e-08
-1.07145e-09
-2.53891e-12
5.50189e-08
-1.02208e-09
3.41569e-08
-9.28844e-10
-2.23963e-10
3.47947e-08
-4.2574e-10
-5.78366e-10
5.57044e-08
-4.1185e-10
-9.88307e-10
6.53411e-08
-4.13812e-10
-1.40269e-09
7.25882e-08
-4.3883e-10
-1.7967e-09
7.80135e-08
-4.77503e-10
-2.14444e-09
8.2052e-08
-5.25924e-10
-2.42389e-09
8.50311e-08
-5.82106e-10
-2.62568e-09
8.72033e-08
-6.44301e-10
-2.73257e-09
8.87616e-08
-7.10473e-10
-2.74151e-09
8.98568e-08
-7.78355e-10
-2.6498e-09
9.06057e-08
-8.45532e-10
-2.46082e-09
9.11005e-08
-9.09655e-10
-2.18206e-09
9.14132e-08
-9.68401e-10
-1.82211e-09
9.16002e-08
-1.0197e-09
-1.39729e-09
9.17044e-08
-1.06167e-09
-9.20192e-10
9.17582e-08
-1.09283e-09
-4.13679e-10
9.17831e-08
-1.11202e-09
1.05374e-10
9.17925e-08
-1.11857e-09
6.16774e-10
9.17902e-08
-1.11222e-09
1.09952e-09
9.17722e-08
-1.09323e-09
1.53534e-09
9.17253e-08
-1.06224e-09
1.91072e-09
9.16276e-08
-1.02042e-09
2.20545e-09
9.14467e-08
-9.69242e-10
2.41468e-09
9.11398e-08
-9.10576e-10
2.52693e-09
9.06502e-08
-8.46486e-10
2.54277e-09
8.99061e-08
-7.79284e-10
2.45925e-09
8.8815e-08
-7.11308e-10
2.28663e-09
8.72602e-08
-6.44958e-10
2.03191e-09
8.50908e-08
-5.82489e-10
1.71019e-09
8.21139e-08
-5.25918e-10
1.34326e-09
7.80769e-08
-4.76964e-10
9.48983e-10
7.26523e-08
-4.37526e-10
5.61844e-10
6.54055e-08
-4.11116e-10
2.19481e-10
5.57685e-08
-4.06724e-10
3.47939e-08
-4.17652e-10
-3.85919e-10
3.51613e-08
1.96331e-11
-8.33304e-10
5.60317e-08
1.19903e-10
-1.29693e-09
6.5648e-08
1.56341e-10
-1.73873e-09
7.28727e-08
1.57536e-10
-2.1361e-09
7.82725e-08
1.38216e-10
-2.47054e-09
8.22813e-08
1.05324e-10
-2.72765e-09
8.52268e-08
6.20818e-11
-2.89768e-09
8.73616e-08
1.11973e-11
-2.97006e-09
8.88804e-08
-4.57678e-11
-2.9442e-09
8.99346e-08
-1.05288e-10
-2.81581e-09
9.06429e-08
-1.64882e-10
-2.59227e-09
9.10986e-08
-2.2222e-10
-2.27753e-09
9.13753e-08
-2.75119e-10
-1.88772e-09
9.15304e-08
-3.21486e-10
-1.43156e-09
9.16085e-08
-3.59583e-10
-9.28895e-10
9.16422e-08
-3.87913e-10
-3.9341e-10
9.16546e-08
-4.05443e-10
1.51362e-10
9.16587e-08
-4.11468e-10
6.87197e-10
9.16592e-08
-4.05803e-10
1.1976e-09
9.16514e-08
-3.8862e-10
1.66197e-09
9.16221e-08
-3.60627e-10
2.06161e-09
9.15483e-08
-3.2284e-10
2.38963e-09
9.13973e-08
-2.76748e-10
2.62912e-09
9.11245e-08