/*--------------------------------*- C++ -*----------------------------------*\
| =========                 |                                                 |
| \\      /  F ield         | OpenFOAM: The Open Source CFD Toolbox           |
|  \\    /   O peration     | Version:  v2012                                 |
|   \\  /    A nd           | Website:  www.openfoam.com                      |
|    \\/     M anipulation  |                                                 |
\*---------------------------------------------------------------------------*/
FoamFile
{
    version     2.0;
    format      ascii;
    class       volVectorField;
    location    "60";
    object      U;
}
// * * * * * * * * * * * * * * * * * * * * * * * * * * * * * * * * * * * * * //

dimensions      [0 1 -1 0 0 0 0];


internalField   nonuniform List<vector> 
78750
(
(-2.09809e-06 -7.78287e-05 0.000120919)
(-6.69736e-06 -0.000104809 0.000210517)
(-1.88021e-05 -0.0001041 0.000256815)
(-3.64112e-05 -9.22526e-05 0.000289199)
(-5.90691e-05 -7.44403e-05 0.00031081)
(-8.58731e-05 -5.36832e-05 0.000324142)
(-0.000115827 -3.22209e-05 0.000330898)
(-0.000147809 -1.1441e-05 0.000332388)
(-0.000180817 7.57647e-06 0.000329466)
(-0.000213902 2.43319e-05 0.000322838)
(-0.00024622 3.83866e-05 0.000312925)
(-0.000277017 4.96913e-05 0.000300129)
(-0.000305609 5.81472e-05 0.000284693)
(-0.000331418 6.39162e-05 0.000266919)
(-0.000353946 6.70485e-05 0.000247034)
(-0.000372836 6.77847e-05 0.000225364)
(-0.000387579 6.62538e-05 0.000202461)
(-0.000398147 6.26987e-05 0.000178245)
(-0.000404189 5.73041e-05 0.000153373)
(-0.000405632 5.03476e-05 0.000128352)
(-0.000402434 4.19861e-05 0.000103678)
(-0.000394619 3.24743e-05 7.99286e-05)
(-0.000382262 2.19725e-05 5.76544e-05)
(-0.000365503 1.0729e-05 3.74453e-05)
(-0.000344538 -1.0598e-06 1.98344e-05)
(-0.000319619 -1.31041e-05 5.34157e-06)
(-0.000291049 -2.51166e-05 -5.6106e-06)
(-0.000259186 -3.66827e-05 -1.26825e-05)
(-0.000224456 -4.73279e-05 -1.56687e-05)
(-0.000187352 -5.63876e-05 -1.45815e-05)
(-0.000148305 -6.30252e-05 -9.73469e-06)
(-0.000107625 -6.60729e-05 -1.9096e-06)
(-6.66543e-05 -6.39447e-05 7.5373e-06)
(-3.33344e-05 -5.46123e-05 1.61386e-05)
(-9.56551e-06 -3.05485e-05 2.0371e-05)
(-6.39542e-06 0.000160527 -0.000246343)
(-2.96296e-05 0.000325173 -0.000353145)
(-5.67247e-05 0.00041027 -0.000389522)
(-9.54955e-05 0.000476491 -0.00042166)
(-0.000136275 0.000525443 -0.000448308)
(-0.000176555 0.00055882 -0.000468797)
(-0.000215265 0.000579297 -0.000484248)
(-0.000251604 0.000588198 -0.00049639)
(-0.000284834 0.000587778 -0.000505671)
(-0.000314498 0.000578889 -0.000512973)
(-0.000340114 0.000563456 -0.000518317)
(-0.000361677 0.000541899 -0.00052238)
(-0.000378955 0.000515861 -0.000525075)
(-0.000391953 0.000485755 -0.000526875)
(-0.000400737 0.000452855 -0.000527674)
(-0.000405374 0.000417505 -0.000527816)
(-0.000405964 0.000380756 -0.000527179)
(-0.000402757 0.000342672 -0.000526137)
(-0.000395908 0.000304134 -0.000524532)
(-0.000385627 0.00026538 -0.000522516)
(-0.000372172 0.000227133 -0.000519892)
(-0.00035581 0.000189512 -0.000516781)
(-0.000336806 0.000153084 -0.000513046)
(-0.000315447 0.000117918 -0.000508662)
(-0.00029201 8.44524e-05 -0.000503318)
(-0.000266799 5.27455e-05 -0.000496838)
(-0.000240085 2.31544e-05 -0.000488741)
(-0.000212176 -4.24429e-06 -0.000478485)
(-0.000183381 -2.91182e-05 -0.000465078)
(-0.00015401 -5.13119e-05 -0.000447201)
(-0.0001242 -7.03709e-05 -0.000422842)
(-9.36882e-05 -8.56839e-05 -0.000388282)
(-6.26688e-05 -9.56079e-05 -0.000334527)
(-3.78706e-05 -9.60522e-05 -0.000250461)
(-1.98409e-05 -6.21149e-05 -8.20053e-05)
(-3.92117e-06 0.000366427 -0.00015528)
(-1.75195e-05 0.000630488 -0.000246773)
(-2.99205e-05 0.000744784 -0.000284101)
(-4.81227e-05 0.000823894 -0.000309365)
(-6.6722e-05 0.000875013 -0.000327617)
(-8.45956e-05 0.000904966 -0.000341217)
(-0.000101451 0.000917469 -0.000352152)
(-0.00011698 0.000916712 -0.000361022)
(-0.000130988 0.000904677 -0.000368808)
(-0.000143242 0.000884174 -0.000375482)
(-0.000153661 0.000856292 -0.00038157)
(-0.000162174 0.000823065 -0.000386835)
(-0.000168786 0.000785123 -0.000391617)
(-0.000173506 0.000744041 -0.00039562)
(-0.00017638 0.000700247 -0.000399091)
(-0.000177423 0.000654991 -0.000401736)
(-0.000176834 0.000608346 -0.00040398)
(-0.00017459 0.000561471 -0.000405484)
(-0.000170848 0.000514522 -0.000406437)
(-0.000165779 0.000468413 -0.000406529)
(-0.000159497 0.000423227 -0.000405928)
(-0.000152118 0.000379572 -0.000404462)
(-0.000143798 0.000337484 -0.000402255)
(-0.000134646 0.000297431 -0.000399124)
(-0.000124806 0.000259411 -0.000395107)
(-0.000114368 0.000223763 -0.000389947)
(-0.000103457 0.000190464 -0.000383496)
(-9.21471e-05 0.000159761 -0.000375258)
(-8.05496e-05 0.000131628 -0.000364658)
(-6.87349e-05 0.000106267 -0.000350605)
(-5.67451e-05 8.36689e-05 -0.000331499)
(-4.43526e-05 6.40359e-05 -0.000304273)
(-3.13347e-05 4.73346e-05 -0.000263549)
(-1.97498e-05 3.39329e-05 -0.00020316)
(-1.221e-05 1.86931e-05 -7.06551e-05)
(-4.85997e-06 0.000463293 4.50235e-05)
(-1.23367e-05 0.000763723 1.40004e-06)
(-1.60286e-05 0.000895659 -3.2511e-05)
(-2.18268e-05 0.000987279 -5.79347e-05)
(-2.72748e-05 0.0010479 -7.53715e-05)
(-3.23805e-05 0.00108386 -8.96297e-05)
(-3.71524e-05 0.00110083 -0.000102661)
(-4.15922e-05 0.00110224 -0.000115601)
(-4.55937e-05 0.00109177 -0.000128548)
(-4.91413e-05 0.00107129 -0.000142002)
(-5.21132e-05 0.00104337 -0.000155449)
(-5.45292e-05 0.0010091 -0.000169153)
(-5.63649e-05 0.000970337 -0.000182779)
(-5.76349e-05 0.000927717 -0.000196463)
(-5.83231e-05 0.000882686 -0.000209813)
(-5.85197e-05 0.000835585 -0.00022297)
(-5.81611e-05 0.000787793 -0.000235335)
(-5.73735e-05 0.000739605 -0.000246992)
(-5.61891e-05 0.000691927 -0.000257625)
(-5.46855e-05 0.000644857 -0.000267343)
(-5.28975e-05 0.000599086 -0.000275876)
(-5.09023e-05 0.000554641 -0.000283307)
(-4.87321e-05 0.000512053 -0.00028939)
(-4.64739e-05 0.00047128 -0.00029418)
(-4.41231e-05 0.000432517 -0.000297544)
(-4.17384e-05 0.000395636 -0.000299491)
(-3.93137e-05 0.000360813 -0.000299756)
(-3.68505e-05 0.000327798 -0.000298238)
(-3.4282e-05 0.000296529 -0.000294508)
(-3.15606e-05 0.000266634 -0.000288082)
(-2.85019e-05 0.000237786 -0.000278079)
(-2.47187e-05 0.000209281 -0.00026385)
(-1.94826e-05 0.000180197 -0.000244425)
(-1.3407e-05 0.000149324 -0.000214406)
(-9.4422e-06 9.30864e-05 -0.000117838)
(-6.82996e-06 0.00047422 0.000152867)
(-1.1928e-05 0.000755801 0.000143319)
(-1.16992e-05 0.000881521 0.000115026)
(-1.08718e-05 0.000971276 9.21732e-05)
(-8.57006e-06 0.00103259 7.65063e-05)
(-5.5032e-06 0.001072 6.35423e-05)
(-2.042e-06 0.00109366 5.07657e-05)
(1.52784e-06 0.0011017 3.78218e-05)
(5.09019e-06 0.00109845 2.43454e-05)
(8.53936e-06 0.00108669 1.05099e-05)
(1.17359e-05 0.00106779 -4.20511e-06)
(1.46593e-05 0.00104367 -1.94243e-05)
(1.72773e-05 0.00101508 -3.51647e-05)
(1.95337e-05 0.000983455 -5.10416e-05)
(2.14136e-05 0.000949229 -6.69442e-05)
(2.28833e-05 0.000913534 -8.2486e-05)
(2.38988e-05 0.000876635 -9.76786e-05)
(2.44679e-05 0.000839458 -0.000112153)
(2.45622e-05 0.000802157 -0.000125915)
(2.42013e-05 0.000765407 -0.000138672)
(2.33585e-05 0.000729232 -0.000150448)
(2.20522e-05 0.000694121 -0.00016101)
(2.02661e-05 0.000659992 -0.000170399)
(1.80373e-05 0.000627142 -0.000178434)
(1.53688e-05 0.000595367 -0.000185164)
(1.23138e-05 0.00056475 -0.000190442)
(8.912e-06 0.000534907 -0.000194313)
(5.27188e-06 0.000505637 -0.000196643)
(1.51105e-06 0.000476249 -0.000197405)
(-2.19395e-06 0.000446102 -0.000196329)
(-5.60348e-06 0.000413819 -0.000193416)
(-8.26935e-06 0.000378001 -0.000189317)
(-9.28284e-06 0.000336343 -0.000185818)
(-7.8112e-06 0.00028613 -0.000178105)
(-6.76432e-06 0.00018298 -0.000115018)
(-5.46541e-06 0.000455338 0.000181994)
(-7.86239e-06 0.000704376 0.000184399)
(-6.14396e-06 0.000817584 0.000160843)
(-2.91813e-06 0.000900243 0.000140883)
(1.83897e-06 0.000959579 0.00012742)
(7.36945e-06 0.00100019 0.000116001)
(1.32245e-05 0.00102644 0.0001047)
(1.91127e-05 0.00104092 9.28636e-05)
(2.48322e-05 0.00104642 8.05152e-05)
(3.0211e-05 0.00104436 6.74912e-05)
(3.51599e-05 0.00103658 5.40122e-05)
(3.9566e-05 0.00102392 4.00158e-05)
(4.33784e-05 0.00100774 2.57816e-05)
(4.65389e-05 0.000988539 1.13544e-05)
(4.90108e-05 0.000967375 -3.07353e-06)
(5.07561e-05 0.000944482 -1.74307e-05)
(5.17825e-05 0.000920661 -3.14088e-05)
(5.20564e-05 0.000896025 -4.49793e-05)
(5.1606e-05 0.000871189 -5.78814e-05)
(5.04144e-05 0.000846162 -7.01012e-05)
(4.85213e-05 0.000821413 -8.14215e-05)
(4.59255e-05 0.000796849 -9.18497e-05)
(4.26809e-05 0.000772746 -0.000101222)
(3.88106e-05 0.000748859 -0.000109577)
(3.43931e-05 0.000725253 -0.000116794)
(2.94763e-05 0.000701487 -0.00012294)
(2.41788e-05 0.000677325 -0.000127937)
(1.86115e-05 0.000651999 -0.000131892)
(1.29563e-05 0.000624793 -0.000134737)
(7.39889e-06 0.000594362 -0.000136528)
(2.20198e-06 0.000559165 -0.000137311)
(-2.23911e-06 0.000516834 -0.000138349)
(-5.05221e-06 0.000464346 -0.000142097)
(-5.22715e-06 0.000397493 -0.000144575)
(-5.06301e-06 0.000254745 -0.000102032)
(-3.17501e-06 0.000417806 0.000158572)
(-3.47432e-06 0.000641302 0.000159212)
(-1.38167e-06 0.000744305 0.0001389)
(2.22113e-06 0.000821652 0.000121948)
(6.89736e-06 0.000879063 0.000110574)
(1.20857e-05 0.000921138 0.000101257)
(1.7473e-05 0.00095098 9.21789e-05)
(2.28564e-05 0.000971433 8.29923e-05)
(2.80614e-05 0.00098418 7.34872e-05)
(3.29614e-05 0.000991063 6.36977e-05)
(3.74397e-05 0.000992992 5.35214e-05)
(4.14124e-05 0.000991234 4.31036e-05)
(4.48106e-05 0.000986275 3.24132e-05)
(4.75862e-05 0.000979039 2.16609e-05)
(4.96882e-05 0.00096975 1.08905e-05)
(5.11127e-05 0.000959124 2.9694e-07)
(5.18252e-05 0.000947252 -1.00982e-05)
(5.18427e-05 0.000934667 -2.00976e-05)
(5.11446e-05 0.000921346 -2.96937e-05)
(4.97584e-05 0.000907682 -3.87154e-05)
(4.76886e-05 0.000893545 -4.71752e-05)
(4.498e-05 0.00087918 -5.4932e-05)
(4.1656e-05 0.000864326 -6.20222e-05)
(3.77802e-05 0.000849043 -6.8336e-05)
(3.34026e-05 0.000832881 -7.39362e-05)
(2.86127e-05 0.00081563 -7.87474e-05)
(2.34991e-05 0.000796528 -8.2867e-05)
(1.81923e-05 0.000774938 -8.62613e-05)
(1.28402e-05 0.000749556 -8.90434e-05)
(7.63505e-06 0.000719 -9.11597e-05)
(2.79111e-06 0.000680985 -9.28445e-05)
(-1.33559e-06 0.000632824 -9.51229e-05)
(-4.02969e-06 0.000570455 -0.000100336)
(-4.42695e-06 0.000488842 -0.000105227)
(-4.15714e-06 0.000311248 -7.57137e-05)
(-1.56299e-06 0.000384192 0.00011865)
(-1.0896e-06 0.000596302 0.000116307)
(3.03273e-07 0.000695027 0.000100833)
(2.67361e-06 0.00077013 8.79866e-05)
(5.60937e-06 0.000827423 7.93551e-05)
(8.82894e-06 0.00087078 7.23036e-05)
(1.21534e-05 0.000903595 6.56621e-05)
(1.5489e-05 0.000927972 5.90278e-05)
(1.87276e-05 0.000945963 5.23734e-05)
(2.17907e-05 0.000958689 4.55665e-05)
(2.46025e-05 0.000967459 3.86622e-05)
(2.71055e-05 0.000972851 3.15988e-05)
(2.92492e-05 0.000975753 2.45005e-05)
(3.09785e-05 0.000976436 1.73592e-05)
(3.22972e-05 0.000975539 1.03164e-05)
(3.31446e-05 0.000973149 3.36967e-06)
(3.35242e-05 0.00096974 -3.32918e-06)
(3.34193e-05 0.000965271 -9.80097e-06)
(3.28372e-05 0.000960088 -1.59084e-05)
(3.17733e-05 0.000954046 -2.16864e-05)
(3.02497e-05 0.000947368 -2.70155e-05)
(2.8283e-05 0.000939789 -3.19496e-05)
(2.59084e-05 0.000931378 -3.63885e-05)
(2.3157e-05 0.000921703 -4.04062e-05)
(2.00878e-05 0.000910609 -4.39218e-05)
(1.67576e-05 0.000897397 -4.7031e-05)
(1.32486e-05 0.000881544 -4.96766e-05)
(9.64957e-06 0.000861893 -5.19819e-05)
(6.08662e-06 0.00083729 -5.39e-05)
(2.69413e-06 0.000805767 -5.55313e-05)
(-3.57151e-07 0.000765051 -5.69098e-05)
(-2.8126e-06 0.000711739 -5.88777e-05)
(-4.17364e-06 0.000641536 -6.29305e-05)
(-4.01586e-06 0.000548452 -6.68133e-05)
(-3.299e-06 0.000344918 -4.64776e-05)
(-1.11039e-06 0.00035894 8.53649e-05)
(-9.11019e-07 0.000568807 8.52515e-05)
(-5.32994e-07 0.000666625 7.64233e-05)
(2.39757e-07 0.000741692 6.88573e-05)
(1.305e-06 0.000799379 6.35374e-05)
(2.54e-06 0.000844012 5.90937e-05)
(3.87327e-06 0.0008785 5.47937e-05)
(5.26227e-06 0.000905366 5.05404e-05)
(6.66101e-06 0.000926151 4.62337e-05)
(8.02484e-06 0.000942382 4.19251e-05)
(9.3182e-06 0.000954845 3.75462e-05)
(1.0501e-05 0.000964508 3.3191e-05)
(1.15439e-05 0.000971738 2.88191e-05)
(1.24206e-05 0.000977184 2.45474e-05)
(1.30905e-05 0.000980981 2.03241e-05)
(1.35544e-05 0.000983592 1.6263e-05)
(1.37865e-05 0.000984982 1.23244e-05)
(1.37894e-05 0.000985479 8.61389e-06)
(1.35395e-05 0.000984937 5.12078e-06)
(1.30446e-05 0.000983572 1.9386e-06)
(1.23045e-05 0.000981125 -1.00706e-06)
(1.1334e-05 0.000977685 -3.62952e-06)
(1.01452e-05 0.000972849 -6.01804e-06)
(8.76432e-06 0.000966526 -8.09779e-06)
(7.21945e-06 0.000958093 -9.97254e-06)
(5.5566e-06 0.000947171 -1.15817e-05)
(3.82241e-06 0.000932764 -1.3046e-05)
(2.07713e-06 0.000913999 -1.43238e-05)
(3.92373e-07 0.000889232 -1.55448e-05)
(-1.14841e-06 0.000856718 -1.66599e-05)
(-2.44606e-06 0.000813648 -1.7854e-05)
(-3.35534e-06 0.000756732 -1.95547e-05)
(-3.59326e-06 0.000681057 -2.2858e-05)
(-3.01997e-06 0.000580545 -2.63314e-05)
(-2.17691e-06 0.00036047 -1.63031e-05)
(-1.44671e-06 0.000341518 6.43643e-05)
(-1.94224e-06 0.000551014 7.09164e-05)
(-2.54177e-06 0.000648702 6.92845e-05)
(-3.13982e-06 0.00072362 6.70658e-05)
(-3.52244e-06 0.000781493 6.52081e-05)
(-3.71938e-06 0.000826362 6.32492e-05)
(-3.78602e-06 0.000861509 6.11041e-05)
(-3.7267e-06 0.000889093 5.87365e-05)
(-3.57038e-06 0.000911035 5.62716e-05)
(-3.32569e-06 0.000928455 5.3684e-05)
(-3.01793e-06 0.00094252 5.10826e-05)
(-2.66687e-06 0.000953773 4.84355e-05)
(-2.28817e-06 0.000962958 4.58509e-05)
(-1.89903e-06 0.000970288 4.32905e-05)
(-1.52898e-06 0.000976244 4.08939e-05)
(-1.18625e-06 0.000980844 3.86217e-05)
(-8.94034e-07 0.000984433 3.65816e-05)
(-6.68557e-07 0.000986928 3.46945e-05)
(-5.04402e-07 0.000988556 3.30069e-05)
(-4.15091e-07 0.000989086 3.14584e-05)
(-4.05891e-07 0.000988627 3.01302e-05)
(-4.72907e-07 0.000986827 2.89371e-05)
(-6.10628e-07 0.000983651 2.79436e-05)
(-8.13219e-07 0.00097857 2.70462e-05)
(-1.06744e-06 0.000971327 2.62954e-05)
(-1.35586e-06 0.000961112 2.55709e-05)
(-1.65593e-06 0.000947291 2.49048e-05)
(-1.94342e-06 0.000928565 2.41552e-05)
(-2.18738e-06 0.000903638 2.33304e-05)
(-2.35765e-06 0.000870352 2.22685e-05)
(-2.42232e-06 0.000826228 2.09018e-05)
(-2.33156e-06 0.00076757 1.87427e-05)
(-1.99416e-06 0.000689761 1.50914e-05)
(-1.39373e-06 0.000586343 1.03239e-05)
(-8.26082e-07 0.000360561 9.08471e-06)
(-1.93334e-06 0.000328292 5.22178e-05)
(-3.04357e-06 0.000535239 6.61488e-05)
(-4.29049e-06 0.000631528 7.03862e-05)
(-5.74656e-06 0.000705431 7.25078e-05)
(-6.94481e-06 0.00076236 7.3401e-05)
(-7.91595e-06 0.000806639 7.34679e-05)
(-8.69705e-06 0.000841206 7.28956e-05)
(-9.31183e-06 0.000868542 7.19314e-05)
(-9.75675e-06 0.000890208 7.06583e-05)
(-1.00474e-05 0.000907666 6.92398e-05)
(-1.01845e-05 0.00092171 6.7693e-05)
(-1.01882e-05 0.000933238 6.6143e-05)
(-1.0062e-05 0.000942612 6.45782e-05)
(-9.83087e-06 0.000950408 6.31042e-05)
(-9.49959e-06 0.000956737 6.1691e-05)
(-9.09311e-06 0.000961981 6.04255e-05)
(-8.61648e-06 0.000966091 5.92575e-05)
(-8.09635e-06 0.000969288 5.82945e-05)
(-7.54291e-06 0.000971403 5.74743e-05)
(-6.96849e-06 0.00097258 5.68544e-05)
(-6.3805e-06 0.000972536 5.63554e-05)
(-5.78914e-06 0.000971291 5.60244e-05)
(-5.20208e-06 0.000968417 5.57658e-05)
(-4.62314e-06 0.00096376 5.56136e-05)
(-4.05072e-06 0.000956675 5.54557e-05)
(-3.48844e-06 0.000946731 5.53084e-05)
(-2.9377e-06 0.000932921 5.50374e-05)
(-2.39396e-06 0.000914334 5.46288e-05)
(-1.86201e-06 0.000889334 5.39093e-05)
(-1.34232e-06 0.000856163 5.28098e-05)
(-8.52499e-07 0.000812058 5.10535e-05)
(-4.15815e-07 0.000753751 4.82796e-05)
(-6.10594e-08 0.000676444 4.36805e-05)
(2.55666e-07 0.000574146 3.70292e-05)
(3.57475e-07 0.000351239 2.609e-05)
(-2.12971e-06 0.000317104 4.21233e-05)
(-3.52162e-06 0.000518548 6.00295e-05)
(-5.0453e-06 0.000612239 6.74905e-05)
(-6.83438e-06 0.000683957 7.19594e-05)
(-8.35276e-06 0.000739241 7.44121e-05)
(-9.60107e-06 0.000782026 7.55544e-05)
(-1.06476e-05 0.000815468 7.58768e-05)
(-1.14891e-05 0.000841697 7.56107e-05)
(-1.21372e-05 0.000862543 7.49912e-05)
(-1.25884e-05 0.000879132 7.4109e-05)
(-1.2855e-05 0.000892557 7.31157e-05)
(-1.29305e-05 0.000903381 7.20426e-05)
(-1.28408e-05 0.000912282 7.10023e-05)
(-1.2584e-05 0.000919499 6.99963e-05)
(-1.2185e-05 0.000925467 6.91149e-05)
(-1.16486e-05 0.000930228 6.83388e-05)
(-1.10002e-05 0.000934064 6.77401e-05)
(-1.02504e-05 0.000936879 6.72809e-05)
(-9.42363e-06 0.000938838 6.70156e-05)
(-8.53425e-06 0.000939733 6.68871e-05)
(-7.60444e-06 0.000939619 6.69315e-05)
(-6.64762e-06 0.000938165 6.70735e-05)
(-5.67923e-06 0.000935288 6.73314e-05)
(-4.71406e-06 0.000930489 6.76118e-05)
(-3.76438e-06 0.000923478 6.79145e-05)
(-2.84051e-06 0.000913495 6.81255e-05)
(-1.95357e-06 0.000899903 6.82172e-05)
(-1.11758e-06 0.000881494 6.80407e-05)
(-3.46232e-07 0.00085703 6.75167e-05)
(3.36016e-07 0.000824509 6.64256e-05)
(8.99295e-07 0.000781618 6.45586e-05)
(1.27759e-06 0.000724938 6.14257e-05)
(1.39932e-06 0.000650222 5.63068e-05)
(1.36196e-06 0.0005515 4.84916e-05)
(1.07329e-06 0.000337092 3.22045e-05)
(-1.82551e-06 0.000308137 2.9883e-05)
(-3.14524e-06 0.000503406 4.65007e-05)
(-4.58456e-06 0.000594079 5.40711e-05)
(-6.31183e-06 0.000663477 5.87664e-05)
(-7.79908e-06 0.000716773 6.13285e-05)
(-9.05764e-06 0.000757993 6.25927e-05)
(-1.01067e-05 0.000789966 6.29967e-05)
(-1.09691e-05 0.000815007 6.28493e-05)
(-1.16217e-05 0.000834649 6.23038e-05)
(-1.20774e-05 0.000850252 6.15342e-05)
(-1.23234e-05 0.000862629 6.06153e-05)
(-1.23753e-05 0.000872604 5.96658e-05)
(-1.22318e-05 0.000880576 5.8721e-05)
(-1.19149e-05 0.000887062 5.78704e-05)
(-1.14279e-05 0.000892219 5.71253e-05)
(-1.07972e-05 0.000896373 5.65536e-05)
(-1.00384e-05 0.000899522 5.6146e-05)
(-9.17855e-06 0.000901861 5.59501e-05)
(-8.23497e-06 0.000903267 5.59353e-05)
(-7.23566e-06 0.000903826 5.61286e-05)
(-6.1996e-06 0.000903301 5.64787e-05)
(-5.15223e-06 0.000901657 5.69921e-05)
(-4.11291e-06 0.00089852 5.75981e-05)
(-3.10161e-06 0.000893694 5.82837e-05)
(-2.13498e-06 0.000886606 5.89588e-05)
(-1.22518e-06 0.000876807 5.95889e-05)
(-3.92471e-07 0.000863401 6.00589e-05)
(3.52214e-07 0.00084551 6.03011e-05)
(9.91131e-07 0.000821676 6.01533e-05)
(1.50747e-06 0.000790263 5.94798e-05)
(1.86507e-06 0.000748817 5.80045e-05)
(2.01402e-06 0.000694348 5.53571e-05)
(1.8795e-06 0.000622608 5.08273e-05)
(1.61475e-06 0.000528161 4.37422e-05)
(1.15891e-06 0.000323261 2.79292e-05)
(-1.14005e-06 0.000302818 1.45532e-05)
(-2.14122e-06 0.000493812 2.50279e-05)
(-3.28361e-06 0.000582464 3.01972e-05)
(-4.71587e-06 0.000650126 3.33383e-05)
(-6.03058e-06 0.000702029 3.48811e-05)
(-7.17669e-06 0.000741918 3.54171e-05)
(-8.17354e-06 0.00077277 3.53155e-05)
(-8.99468e-06 0.000796654 3.47623e-05)
(-9.63838e-06 0.000815294 3.39196e-05)
(-1.00784e-05 0.000829825 3.28835e-05)
(-1.03204e-05 0.000841273 3.1769e-05)
(-1.03576e-05 0.000850246 3.0636e-05)
(-1.0206e-05 0.000857372 2.95727e-05)
(-9.86481e-06 0.00086295 2.86164e-05)
(-9.36115e-06 0.000867373 2.78347e-05)
(-8.70888e-06 0.000870745 2.72451e-05)
(-7.93734e-06 0.000873302 2.68942e-05)
(-7.06729e-06 0.000875015 2.67777e-05)
(-6.13099e-06 0.000875998 2.69196e-05)
(-5.15438e-06 0.000876105 2.72929e-05)
(-4.16748e-06 0.000875337 2.78985e-05)
(-3.1958e-06 0.000873424 2.86873e-05)
(-2.26338e-06 0.00087023 2.96393e-05)
(-1.39425e-06 0.000865326 3.06859e-05)
(-6.03146e-07 0.000858381 3.17883e-05)
(9.22947e-08 0.000848719 3.28607e-05)
(6.82264e-07 0.000835695 3.38444e-05)
(1.15278e-06 0.000818225 3.46329e-05)
(1.50471e-06 0.000795121 3.51379e-05)
(1.72459e-06 0.000764584 3.52143e-05)
(1.81261e-06 0.000724462 3.47019e-05)
(1.72948e-06 0.000671669 3.33114e-05)
(1.46324e-06 0.000602331 3.05968e-05)
(1.15373e-06 0.000511042 2.61116e-05)
(7.54124e-07 0.000313288 1.59583e-05)
(-3.10208e-07 0.000302919 -1.56136e-06)
(-9.45184e-07 0.000493649 2.32346e-07)
(-1.69682e-06 0.000582043 1.65429e-06)
(-2.77143e-06 0.000649416 2.31869e-06)
(-3.85691e-06 0.000700855 2.18863e-06)
(-4.88141e-06 0.000740259 1.55842e-06)
(-5.80057e-06 0.000770454 5.81996e-07)
(-6.5926e-06 0.000793688 -6.3295e-07)
(-7.22033e-06 0.000811535 -2.01961e-06)
(-7.6704e-06 0.000825317 -3.49142e-06)
(-7.9236e-06 0.00083591 -4.98602e-06)
(-7.98343e-06 0.000844112 -6.42496e-06)
(-7.84916e-06 0.000850398 -7.75547e-06)
(-7.54028e-06 0.000855261 -8.91134e-06)
(-7.06428e-06 0.000858931 -9.85371e-06)
(-6.45468e-06 0.000861707 -1.05341e-05)
(-5.73109e-06 0.000863657 -1.09331e-05)
(-4.92624e-06 0.000864938 -1.10247e-05)
(-4.07398e-06 0.000865491 -1.08132e-05)
(-3.20299e-06 0.000865353 -1.0297e-05)
(-2.34564e-06 0.000864344 -9.50469e-06)
(-1.53361e-06 0.000862373 -8.45845e-06)
(-7.90985e-07 0.000859118 -7.20772e-06)
(-1.37859e-07 0.000854324 -5.7943e-06)
(4.0101e-07 0.000847474 -4.2832e-06)
(8.20458e-07 0.000838064 -2.72855e-06)
(1.10931e-06 0.000825268 -1.20435e-06)
(1.27357e-06 0.000808176 2.29916e-07)
(1.31285e-06 0.000785428 1.49724e-06)
(1.24543e-06 0.000755407 2.53897e-06)
(1.07848e-06 0.000715814 3.27164e-06)
(8.38129e-07 0.000663755 3.60501e-06)
(5.52323e-07 0.000595252 3.3758e-06)
(3.46013e-07 0.000505116 2.57123e-06)
(1.03872e-07 0.000309781 8.51623e-07)
(4.20352e-07 0.000308929 -1.55351e-05)
(9.49066e-08 0.000503586 -2.21155e-05)
(-3.0286e-07 0.000593701 -2.43673e-05)
(-1.04595e-06 0.000662155 -2.61463e-05)
(-1.93265e-06 0.000714253 -2.78994e-05)
(-2.83841e-06 0.000753894 -2.96733e-05)
(-3.70321e-06 0.000784099 -3.14897e-05)
(-4.46619e-06 0.000807065 -3.33597e-05)
(-5.09797e-06 0.000824544 -3.52676e-05)
(-5.56252e-06 0.000837781 -3.71787e-05)
(-5.8492e-06 0.00084782 -3.90407e-05)
(-5.94617e-06 0.000855367 -4.07996e-05)
(-5.85932e-06 0.000861055 -4.23951e-05)
(-5.59563e-06 0.000865274 -4.37751e-05)
(-5.17827e-06 0.000868406 -4.48876e-05)
(-4.62778e-06 0.000870637 -4.56945e-05)
(-3.97824e-06 0.00087218 -4.61631e-05)
(-3.25908e-06 0.000873071 -4.6277e-05)
(-2.50568e-06 0.000873387 -4.60285e-05)
(-1.75213e-06 0.000873035 -4.5427e-05)
(-1.03123e-06 0.000871963 -4.44906e-05)
(-3.77975e-07 0.000869943 -4.32533e-05)
(1.8244e-07 0.000866773 -4.17548e-05)
(6.26312e-07 0.000862054 -4.00476e-05)
(9.39973e-07 0.000855379 -3.81851e-05)
(1.11349e-06 0.000846097 -3.62265e-05)
(1.14957e-06 0.000833482 -3.42254e-05)
(1.04898e-06 0.000816473 -3.22301e-05)
(8.40812e-07 0.000793799 -3.02719e-05)
(5.43467e-07 0.000763683 -2.83586e-05)
(2.01439e-07 0.000723897 -2.64664e-05)
(-1.37434e-07 0.000671384 -2.45229e-05)
(-3.75514e-07 0.000602198 -2.23871e-05)
(-4.31664e-07 0.000510979 -1.96633e-05)
(-5.18064e-07 0.00031322 -1.31274e-05)
(8.82234e-07 0.000320141 -2.49391e-05)
(7.15686e-07 0.000522063 -3.75363e-05)
(5.79331e-07 0.000615407 -4.25021e-05)
(6.53286e-08 0.000686161 -4.61151e-05)
(-6.65862e-07 0.000739769 -4.91069e-05)
(-1.47682e-06 0.000780385 -5.17622e-05)
(-2.27391e-06 0.000811081 -5.42408e-05)
(-3.00483e-06 0.000834244 -5.66288e-05)
(-3.61791e-06 0.000851627 -5.89584e-05)
(-4.08224e-06 0.000864633 -6.12215e-05)
(-4.37176e-06 0.000874274 -6.33842e-05)
(-4.48427e-06 0.000881394 -6.54001e-05)
(-4.41809e-06 0.000886579 -6.72147e-05)
(-4.18515e-06 0.000890339 -6.87762e-05)
(-3.80124e-06 0.000892997 -7.00338e-05)
(-3.29733e-06 0.000894848 -7.09479e-05)
(-2.69989e-06 0.000896031 -7.14853e-05)
(-2.04319e-06 0.000896682 -7.16287e-05)
(-1.36505e-06 0.000896795 -7.13703e-05)
(-7.00476e-07 0.000896367 -7.0719e-05)
(-8.4826e-08 0.00089525 -6.96934e-05)
(4.50742e-07 0.000893294 -6.83275e-05)
(8.76973e-07 0.000890194 -6.6662e-05)
(1.17605e-06 0.000885616 -6.47482e-05)
(1.32767e-06 0.000879041 -6.26384e-05)
(1.33139e-06 0.00086987 -6.03871e-05)
(1.18867e-06 0.000857249 -5.8039e-05)
(9.17637e-07 0.000840152 -5.5627e-05)
(5.40371e-07 0.000817165 -5.31555e-05)
(9.75248e-08 0.000786519 -5.05892e-05)
(-3.62104e-07 0.00074581 -4.78319e-05)
(-7.53696e-07 0.000691946 -4.46913e-05)
(-9.6329e-07 0.000620746 -4.08152e-05)
(-8.99716e-07 0.000526739 -3.55168e-05)
(-9.24108e-07 0.000322708 -2.29809e-05)
(1.02116e-06 0.000334661 -2.89599e-05)
(8.68185e-07 0.000545334 -4.40809e-05)
(8.38146e-07 0.000642636 -5.02349e-05)
(4.34063e-07 0.00071621 -5.46641e-05)
(-2.08526e-07 0.000771792 -5.82138e-05)
(-9.42654e-07 0.000813698 -6.1272e-05)
(-1.6786e-06 0.000845204 -6.40629e-05)
(-2.34926e-06 0.000868768 -6.67004e-05)
(-2.91394e-06 0.000886294 -6.92395e-05)
(-3.33583e-06 0.000899211 -7.16803e-05)
(-3.59397e-06 0.000908649 -7.39993e-05)
(-3.67839e-06 0.00091545 -7.61503e-05)
(-3.59273e-06 0.000920299 -7.80841e-05)
(-3.34598e-06 0.000923686 -7.97455e-05)
(-2.95983e-06 0.000926017 -8.10875e-05)
(-2.4567e-06 0.000927554 -8.20655e-05)
(-1.87048e-06 0.000928509 -8.26504e-05)
(-1.234e-06 0.000928971 -8.28196e-05)
(-5.806e-07 0.000928995 -8.25695e-05)
(4.76726e-08 0.00092852 -8.19045e-05)
(6.17946e-07 0.000927449 -8.08475e-05)
(1.1022e-06 0.000925563 -7.94281e-05)
(1.47036e-06 0.000922595 -7.76919e-05)
(1.6983e-06 0.00091813 -7.56853e-05)
(1.77693e-06 0.000911673 -7.34645e-05)
(1.70058e-06 0.000902531 -7.10778e-05)
(1.47772e-06 0.000889857 -6.85715e-05)
(1.11951e-06 0.000872511 -6.59673e-05)
(6.6149e-07 0.000849058 -6.32635e-05)
(1.42523e-07 0.000817585 -6.04027e-05)
(-3.79272e-07 0.000775625 -5.72656e-05)
(-8.24165e-07 0.000719892 -5.36053e-05)
(-1.05062e-06 0.000646053 -4.89901e-05)
(-9.63566e-07 0.00054836 -4.26073e-05)
(-1.03632e-06 0.000336166 -2.75246e-05)
(8.96396e-07 0.00035033 -2.80946e-05)
(6.50125e-07 0.000569586 -4.23542e-05)
(6.06298e-07 0.000670767 -4.82025e-05)
(1.95492e-07 0.00074715 -5.24541e-05)
(-4.16735e-07 0.000804688 -5.58926e-05)
(-1.10408e-06 0.000847928 -5.88879e-05)
(-1.77758e-06 0.00088026 -6.16425e-05)
(-2.38526e-06 0.000904297 -6.42653e-05)
(-2.87911e-06 0.000922002 -6.67987e-05)
(-3.23274e-06 0.000934914 -6.92442e-05)
(-3.42507e-06 0.000944194 -7.15698e-05)
(-3.44853e-06 0.000950767 -7.37334e-05)
(-3.307e-06 0.000955327 -7.56792e-05)
(-3.01052e-06 0.000958431 -7.73564e-05)
(-2.57911e-06 0.000960481 -7.87125e-05)
(-2.03891e-06 0.000961789 -7.97079e-05)
(-1.41757e-06 0.000962553 -8.03075e-05)
(-7.52566e-07 0.000962903 -8.04946e-05)
(-8.02131e-08 0.000962865 -8.02591e-05)
(5.6611e-07 0.000962409 -7.96114e-05)
(1.15011e-06 0.000961399 -7.85682e-05)
(1.64178e-06 0.000959635 -7.71651e-05)
(2.01452e-06 0.000956799 -7.54413e-05)
(2.24679e-06 0.000952485 -7.345e-05)
(2.32486e-06 0.000946133 -7.12413e-05)
(2.24655e-06 0.000937043 -6.88712e-05)
(2.01445e-06 0.000924287 -6.63811e-05)
(1.64832e-06 0.000906699 -6.38023e-05)
(1.1715e-06 0.000882737 -6.11319e-05)
(6.30688e-07 0.000850432 -5.8326e-05)
(7.29946e-08 0.000807166 -5.52719e-05)
(-4.21296e-07 0.000749543 -5.17523e-05)
(-7.26225e-07 0.00067301 -4.73676e-05)
(-7.0203e-07 0.000571605 -4.13574e-05)
(-9.0254e-07 0.000351177 -2.71012e-05)
(5.95049e-07 0.000364969 -2.38462e-05)
(2.03427e-07 0.000591277 -3.47211e-05)
(4.80859e-08 0.000695658 -3.91467e-05)
(-4.43322e-07 0.000774344 -4.24655e-05)
(-1.0731e-06 0.0008335 -4.52883e-05)
(-1.72863e-06 0.000877815 -4.78577e-05)
(-2.34733e-06 0.000910819 -5.03094e-05)
(-2.88156e-06 0.000935206 -5.27056e-05)
(-3.29541e-06 0.000953039 -5.50672e-05)
(-3.56303e-06 0.000965901 -5.73746e-05)
(-3.66825e-06 0.000975026 -5.95908e-05)
(-3.60456e-06 0.000981366 -6.16629e-05)
(-3.3806e-06 0.000985668 -6.35373e-05)
(-3.00692e-06 0.000988503 -6.51568e-05)
(-2.50223e-06 0.000990314 -6.64728e-05)
(-1.89278e-06 0.000991416 -6.74411e-05)
(-1.20823e-06 0.000992036 -6.80316e-05)
(-4.83163e-07 0.000992295 -6.82224e-05)
(2.46666e-07 0.000992242 -6.80085e-05)
(9.47153e-07 0.000991825 -6.73949e-05)
(1.58511e-06 0.000990921 -6.64035e-05)
(2.1298e-06 0.000989299 -6.5064e-05)
(2.55352e-06 0.000986641 -6.3421e-05)
(2.83546e-06 0.000982502 -6.15226e-05)
(2.96356e-06 0.000976309 -5.94259e-05)
(2.93176e-06 0.000967311 -5.71842e-05)
(2.74395e-06 0.000954555 -5.48501e-05)
(2.41193e-06 0.000936804 -5.24595e-05)
(1.96281e-06 0.000912471 -5.00313e-05)
(1.4283e-06 0.000879493 -4.75433e-05)
(8.53346e-07 0.00083517 -4.49304e-05)
(3.0154e-07 0.000775973 -4.20461e-05)
(-1.21773e-07 0.000697206 -3.8627e-05)
(-2.33501e-07 0.000592702 -3.40775e-05)
(-5.95127e-07 0.000365423 -2.31766e-05)
(2.25401e-07 0.000377108 -1.79347e-05)
(-3.19853e-07 0.000608219 -2.40906e-05)
(-6.31687e-07 0.000714773 -2.64905e-05)
(-1.23628e-06 0.000795013 -2.84682e-05)
(-1.90182e-06 0.000855226 -3.03916e-05)
(-2.54288e-06 0.000900219 -3.2332e-05)
(-3.11296e-06 0.000933595 -3.43221e-05)
(-3.57866e-06 0.000958132 -3.6368e-05)
(-3.91006e-06 0.000975938 -3.84518e-05)
(-4.08814e-06 0.000988656 -4.0534e-05)
(-4.10205e-06 0.000997554 -4.25619e-05)
(-3.94919e-06 0.00100363 -4.44776e-05)
(-3.63416e-06 0.00100764 -4.6221e-05)
(-3.17209e-06 0.0010102 -4.77361e-05)
(-2.58543e-06 0.00101177 -4.89711e-05)
(-1.897e-06 0.00101268 -4.98847e-05)
(-1.13801e-06 0.00101316 -5.04444e-05)
(-3.39114e-07 0.00101336 -5.06312e-05)
(4.62909e-07 0.0010133 -5.04379e-05)
(1.23434e-06 0.00101296 -4.98714e-05)
(1.94218e-06 0.00101218 -4.89508e-05)
(2.55615e-06 0.00101074 -4.7708e-05)
(3.05235e-06 0.0010083 -4.61846e-05)
(3.40706e-06 0.00100439 -4.44318e-05)
(3.60626e-06 0.000998422 -4.25055e-05)
(3.64468e-06 0.000989614 -4.04655e-05)
(3.52212e-06 0.000976969 -3.8369e-05)
(3.24795e-06 0.000959222 -3.62682e-05)
(2.84205e-06 0.000934729 -3.42016e-05)
(2.32995e-06 0.000901376 -3.21861e-05)
(1.74478e-06 0.000856389 -3.02129e-05)
(1.13468e-06 0.000796161 -2.82413e-05)
(5.78787e-07 0.000715884 -2.61839e-05)
(2.97606e-07 0.000609271 -2.36826e-05)
(-2.29e-07 0.000377313 -1.74843e-05)
(-1.30143e-07 0.00038597 -1.19573e-05)
(-7.94332e-07 0.000619477 -1.32208e-05)
(-1.26648e-06 0.000727107 -1.35045e-05)
(-1.98365e-06 0.000808077 -1.40684e-05)
(-2.68794e-06 0.000868745 -1.50352e-05)
(-3.32224e-06 0.00091396 -1.62961e-05)
(-3.85258e-06 0.000947382 -1.77796e-05)
(-4.26022e-06 0.000971818 -1.94322e-05)
(-4.52182e-06 0.000989424 -2.11985e-05)
(-4.62038e-06 0.00100187 -2.30173e-05)
(-4.55091e-06 0.00101045 -2.48218e-05)
(-4.31397e-06 0.00101618 -2.6548e-05)
(-3.9192e-06 0.00101987 -2.81315e-05)