/*--------------------------------*- C++ -*----------------------------------*\
| =========                 |                                                 |
| \\      /  F ield         | OpenFOAM: The Open Source CFD Toolbox           |
|  \\    /   O peration     | Version:  v2006                                 |
|   \\  /    A nd           | Website:  www.openfoam.com                      |
|    \\/     M anipulation  |                                                 |
\*---------------------------------------------------------------------------*/
FoamFile
{
    version     2.0;
    format      ascii;
    class       volScalarField;
    location    "87";
    object      omega;
}
// * * * * * * * * * * * * * * * * * * * * * * * * * * * * * * * * * * * * * //

dimensions      [0 0 -1 0 0 0 0];


internalField   nonuniform List<scalar> 
78750
(
1406.68
211.719
149.693
89.6454
31.5453
17.0943
22.3857
19.0928
19.7005
19.1611
19.0867
18.7205
18.6066
18.436
18.2949
18.1616
18.0358
17.9166
17.8033
17.6951
17.5906
17.4886
17.3877
17.2877
17.1875
17.0859
16.9813
16.8717
16.7544
16.6266
16.488
16.3399
16.1856
16.0773
498.829
516.011
6.51219
13.2843
6.97138
14.6209
14.7947
13.9559
13.7068
13.195
12.7477
12.2793
11.8813
11.5597
11.3217
11.1487
11.0097
10.8791
10.7483
10.6204
10.5026
10.3958
10.2955
10.1965
10.0953
9.98923
9.87619
9.75426
9.62136
9.47476
9.30902
9.11368
8.86194
8.44779
7.69995
739.522
403.679
14.9335
15.9158
15.5496
14.2982
14.2605
14.4944
14.607
14.5683
14.3602
14.0136
13.5176
12.8573
12.0458
11.1816
10.4211
9.87442
9.58724
9.59654
9.79992
10.0407
10.2408
10.3869
10.4893
10.5593
10.6028
10.6214
10.614
10.5781
10.51
10.4032
10.2356
9.92217
9.51193
743.853
403.443
8.19144
9.68565
11.2789
12.6036
13.3799
13.8336
14.1187
14.3106
14.4448
14.5245
14.5407
14.4771
14.3173
14.062
13.6932
13.2128
12.6799
12.1744
11.7235
11.3205
10.988
10.7697
10.6667
10.6443
10.6662
10.7057
10.7445
10.7679
10.7621
10.7065
10.5516
10.1481
10.0427
747.504
406.649
13.4996
14.7827
15.0758
15.0623
14.9592
14.7964
14.5521
14.2179
13.8277
13.4464
13.1385
12.9406
12.8379
12.7692
12.6447
12.339
11.842
11.3739
11.0102
10.7027
10.4437
10.3002
10.3064
10.4109
10.5486
10.6819
10.7989
10.9009
10.9927
11.0739
11.1268
11.1306
11.8227
751.551
412.522
13.2738
13.6946
13.9629
14.1923
14.3745
14.4741
14.4639
14.3444
14.1365
13.8621
13.5432
13.2182
12.9373
12.7079
12.4804
12.1589
11.6945
11.2653
10.992
10.7945
10.6338
10.5212
10.4712
10.4837
10.5425
10.6269
10.7205
10.8147
10.9057
10.9859
11.0298
11.0386
12.1863
754.039
411.476
13.4238
14.1581
14.4874
14.6408
14.6568
14.5056
14.1584
13.6638
13.1431
12.7168
12.429
12.2356
12.0679
11.8907
11.6758
11.3959
11.1032
10.8909
10.741
10.6263
10.5472
10.5199
10.5556
10.6366
10.736
10.8415
10.9529
11.0758
11.2196
11.3886
11.5832
11.9562
13.6379
756.914
413.237
13.946
14.5825
14.9201
15.1318
15.1991
15.0748
14.7379
14.204
13.5331
12.8543
12.3353
12.0497
11.9086
11.7701
11.5438
11.2049
10.8503
10.6294
10.5059
10.4296
10.3918
10.401
10.4642
10.5698
10.694
10.8236
10.9587
11.1058
11.2748
11.469
11.6757
12.0999
14.1853
758.739
410.763
13.7857
14.5788
14.9563
15.1742
15.2532
15.1929
15.0014
14.6764
14.1853
13.4918
12.6476
11.8683
11.3954
11.2138
11.1509
11.0605
10.8715
10.6516
10.5122
10.4293
10.3819
10.3714
10.404
10.4811
10.594
10.7305
10.8859
11.0687
11.3059
11.6427
12.1545
13.0983
15.412
760.575
414.183
14.9741
15.578
15.7542
15.7846
15.7407
15.6133
15.383
15.0695
14.7101
14.3062
13.8058
13.1598
12.4279
11.803
11.4115
11.1978
11.0453
10.8777
10.6997
10.5698
10.4917
10.4505
10.4448
10.4785
10.5529
10.662
10.7978
10.9596
11.1629
11.4483
11.9363
13.1587
15.9144
761.841
418.897
16.0236
16.3167
16.1746
15.9138
15.7634
15.6196
15.3847
15.042
14.6126
14.1406
13.6572
13.1567
12.6178
12.0648
11.596
11.2834
11.0978
10.9703
10.8539
10.7436
10.6558
10.5971
10.5686
10.575
10.6217
10.7113
10.8448
11.0303
11.3003
11.7435
12.5583
14.2262
17.0099
763.269
423.533
16.6932
16.5162
15.7907
15.2329
15.2254
15.3466
15.367
15.2507
15.0081
14.6625
14.2421
13.7641
13.2369
12.6816
12.1564
11.7296
11.4279
11.2243
11.0699
10.9333
10.8159
10.7284
10.6721
10.6468
10.6546
10.6982
10.7794
10.9003
11.0764
11.3827
12.1313
14.207
17.3553
764.231
424.202
16.4726
16.0843
14.9344
14.2936
14.3088
14.4448
14.5234
14.4877
14.3185
14.0265
13.6351
13.1642
12.6374
12.1123
11.6774
11.3919
11.2319
11.1366
11.0602
10.9836
10.9115
10.8553
10.8214
10.8138
10.8364
10.8946
10.9948
11.1508
11.4005
11.8545
12.8046
15.0296
18.1761
765.701
421.604
16.0094
15.6745
14.9036
13.9774
13.6763
13.9302
14.29
14.545
14.6185
14.4999
14.2134
13.7843
13.2346
12.6013
11.9695
11.464
11.1533
10.9975
10.9212
10.875
10.8409
10.8165
10.8039
10.8056
10.8263
10.8707
10.9432
11.0518
11.2262
11.5926
12.6508
15.4316
18.7117
766.631
420.533
16.3511
16.3538
15.9007
14.5176
12.7017
12.0822
12.5181
13.1107
13.5497
13.8062
13.8685
13.7254
13.3731
12.8296
12.1636
11.5289
11.0988
10.8897
10.8094
10.7868
10.7913
10.8116
10.8446
10.8915
10.9557
11.0425
11.1609
11.3312
11.6149
12.2059
13.62
16.5815
19.6426
767.97
422.234
16.2692
16.3276
16.0336
15.2297
13.3142
11.6014
11.4854
12.1512
12.7968
13.266
13.5651
13.6863
13.6088
13.321
12.8316
12.2004
11.5746
11.1152
10.8544
10.7243
10.6666
10.6539
10.6743
10.722
10.795
10.8933
11.0198
11.1872
11.4552
12.0732
13.8233
17.3013
20.2661
768.733
419.153
15.4303
15.8394
15.8582
15.4752
14.3766
12.3084
10.8092
10.6991
11.252
11.8577
12.3526
12.7093
12.8871
12.8497
12.5972
12.1827
11.7194
11.3325
11.0696
10.9042
10.8028
10.7482
10.7329
10.754
10.811
10.9068
11.0496
11.264
11.6345
12.4444
14.4576
17.9963
20.8221
769.678
418.361
15.9749
16.6192
16.9065
17.0002
16.7922
15.8562
13.9753
12.0464
10.8145
10.5264
10.8695
11.401
11.8528
12.1098
12.1272
11.9322
11.6197
11.3079
11.065
10.8945
10.7779
10.7019
10.661
10.6543
10.6838
10.7533
10.8711
11.0579
11.3837
12.1175
14.208
18.216
21.1292
770.398
415.079
15.6191
16.4435
16.8509
17.1935
17.5539
17.853
17.7475
16.751
15.0073
13.0356
11.322
10.3826
10.3398
10.7698
11.2066
11.4287
11.4254
11.2997
11.1515
11.0228
10.9177
10.8326
10.7671
10.7252
10.714
10.7441
10.8323
11.0158
11.4009
12.2813
14.4011
18.3605
21.3524
771.361
419.044
16.8912
17.3259
17.3298
17.2438
17.2716
17.593
18.1483
18.6266
18.7014
18.0793
16.6493
14.6847
12.5533
10.838
10.1555
10.3477
10.7323
10.9597
11.0119
10.9739
10.9112
10.8492
10.7925
10.7418
10.701
10.6799
10.6977
10.7988
11.1165
12.0615
14.5232
18.672
21.7608
772.937
424.244
18.0026
18.1378
17.914
17.5909
17.3676
17.379
17.6677
18.2085
18.7682
19.1317
19.2158
18.8647
17.7367
15.8013
13.4165
11.266
10.2809
10.3078
10.5699
10.7521
10.8293
10.8396
10.8224
10.8025
10.7921
10.796
10.8214
10.8943
11.1259
11.9673
14.5578
18.9302
22.1391
774.6
431.661
18.8504
18.6703
18.3143
17.8582
17.5571
17.5611
17.818
18.2444
18.7576
19.2024
19.4741
19.5718
19.4893
19.077
17.9139
15.7887
13.299
11.4712
10.7683
10.6768
10.7292
10.765
10.7503
10.6965
10.6328
10.5916
10.6037
10.7162
11.085
12.2147
14.7864
19.2593
22.6917
777.172
427.042
18.3739
18.8991
18.9517
18.6517
18.0213
17.2785
16.8545
17.0028
17.6247
18.414
19.077
19.4874
19.6635
19.6438
19.3791
18.5575
16.6943
14.2486
12.352
11.5034
11.2612
11.2014
11.158
11.0768
10.9505
10.7964
10.6457
10.5581
10.7971
12.461
16.0602
20.253
23.5312
779.398
421.398
18.8865
20.1769
20.6898
20.7749
20.4295
19.5053
18.003
16.4189
15.5009
15.7083
16.7277
17.8546
18.6876
19.1675
19.3387
19.1697
18.3696
16.6037
14.495
12.9769
12.239
11.9151
11.7369
11.5997
11.4677
11.3363
11.2218
11.1662
11.3375
12.6346
16.531
20.7446
23.9752
780.72
416.658
17.9532
19.7842
20.6933
21.2618
21.6486
21.7969
21.441
20.2182
18.117
15.7351
14.2311
14.3387
15.3888
16.455
17.0389
16.9402
16.2823
15.3119
14.3381
13.6155
13.1513
12.8246
12.5465
12.2731
11.9858
11.6837
11.3873
11.1696
11.3609
12.9831
16.9322
21.2457
24.5058
782.112
415.674
18.019
20.1709
20.8855
21.1082
21.2219
21.4591
21.955
22.5212
22.5094
21.2906
18.8834
16.0173
13.7698
13.0159
13.582
14.5344
15.1924
15.2588
14.9126
14.4724
14.0897
13.7716
13.4846
13.1983
12.8941
12.5677
12.232
11.942
12.0067
13.6577
17.7557
21.7387
24.8481
782.273
422.824
20.4523
21.9242
22.0534
21.6802
21.1741
20.6689
20.3662
20.9656
22.4438
23.626
23.9792
23.5005
22.1163
19.8369
16.9227
13.824
12.139
12.8458
13.9779
14.6796
14.9965
15.0215
14.8406
14.5281
14.1343
13.6853
13.1956
12.6923
12.3567
13.3418
17.7563
22.0518
25.0993
782.011
450.806
24.1506
23.3682
22.2859
21.1183
20.8761
21.076
21.0553
21.1171
21.6752
22.3572
22.7806
22.9103
22.7489
22.2323
21.1075
18.9286
15.8216
13.3944
12.9152
13.5119
14.1158
14.5231
14.7551
14.8283
14.7586
14.5631
14.2594
13.8743
13.5058
13.7769
17.1564
21.9478
25.0812
781.79
453.627
22.6059
21.2719
19.5476
18.4814
19.7249
20.973
21.6215
21.9712
22.1042
22.0951
21.989
21.7734
21.407
20.8139
19.8079
18.0293
15.442
13.5938
13.4914
14.0304
14.5475
14.9449
15.2243
15.3825
15.4155
15.3221
15.1019
14.7573
14.3004
13.9684
15.8045
20.9829
24.5598
782.201
444.421
23.0072
22.7098
21.861
20.4859
19.4847
19.7062
20.5324
21.2619
21.7891
22.1165
22.2282
22.1125
21.7643
21.1351
20.0268
18.0475
15.0901
13.0995
13.1309
13.7492
14.3272
14.8102
15.2037
15.5071
15.7169
15.8296
15.8348
15.6967
15.3002
14.6687
15.4639
20.6148
24.7584
785.473
459.921
24.3343
22.8591
21.0682
19.9824
19.4083
19.29
20.2106
21.1161
21.7143
22.0784
22.2469
22.2228
21.9914
21.4956
20.5499
18.7802
16.1013
14.2433
14.145
14.5154
14.8944
15.2168
15.4784
15.6775
15.8152
15.8959
15.9221
15.8666
15.707
15.5382
17.1427
22.1673
26.3957
791.273
452.083
21.8943
20.5321
18.7996
18.7089
19.4991
20.2327
20.8984
21.4593
21.8941
22.1855
22.3145
22.2599
21.9902
21.4285
20.3672
18.4256
15.2369
12.0805
12.6509
13.6234
14.328
14.8989
15.3374
15.6431
15.8247
15.8993
15.9051
16.1151
17.1083
18.2734
20.3702
24.0977
27.5897
792.155
439.628
23.0525
23.4807
23.1044
21.439
18.8672
17.4218
18.1808
19.5219
20.6423
21.4724
22.046
22.3758
22.4643
22.3095
21.8691
20.9762
19.2345
16.1705
12.5836
11.7866
12.7972
13.716
14.4417
14.977
15.3529
15.6232
15.9493
16.9145
19.3293
22.0441
23.6842
25.6032
27.7071
785.296
441.095
22.928
23.078
22.8128
22.1727
20.2143
16.8358
15.9335
17.2426
18.8482
20.1191
21.0499
21.7264
22.1791
22.408
22.3997
22.1263
21.5073
20.3039
18.157
15.1192
12.365
12.0679
13.0819
14.0052
14.6625
15.1325
15.6534
16.7997
19.4278
23.2245
25.8293
26.93
27.879
779.048
442.827
22.1837
22.1922
22.0716
21.8169
21.2244
19.4692
17.3815
16.6797
17.1659
18.551
19.8818
20.8732
21.5938
22.1028
22.4184
22.5375
22.4392
22.0713
21.3098
19.8795
17.5055
14.5531
12.6011
12.7389
13.6679
14.4475
15.0195
15.6772
17.0718
19.8336
23.328
25.6079
26.8403
777.55
443.448
22.882
23.205
23.3459
23.4021
23.4047
23.2515
22.1795
20.1477
17.2001
16.1214
17.5266
19.2373
20.4784
21.3296
21.9231
22.3153
22.524
22.5445
22.3437
21.834
20.8059
18.9644
16.2913
13.6935
12.7257
13.2919
14.0867
14.6569
15.2467
16.3419
18.0456
21.3585
24.1592
779.866
438.84
22.4324
23.0874
23.37
23.4968
23.5139
23.4657
23.4339
23.0667
20.2252
15.9527
15.4528
17.5661
19.4808
20.5768
21.289
21.8354
22.2136
22.4172
22.4506
22.308
21.9124
21.0702
19.5513
17.3249
14.8003
13.0344
12.9053
13.9159
15.2441
16.1911
16.3596
19.8465
24.3334
789.633
446.73
23.3094
23.385
23.2728
23.0102
22.5365
21.7347
20.6452
19.7265
17.9646
15.3229
16.0971
18.5873
19.9699
20.7609
21.3392
21.7744
22.0383
22.1193
22.0201
21.7546
21.2626
20.3075
18.8941
17.3181
15.4564
13.7771
14.3377
16.2315
17.6104
18.1751
19.3481
23.4222
27.9703
800.308
455.455
23.6302
23.2572
23.0622
22.8173
22.3445
21.3477
19.3311
16.3542
14.4691
16.6384
19.442
20.5356
21.1266
21.5525
21.8583
22.014
21.9845
21.7426
21.2763
20.551
19.3257
16.9978
13.7505
12.5236
13.9959
16.5262
19.5003
21.0736
21.2759
21.5346
23.3043
26.3266
29.6061
798.36
452.953
23.3701
23.3867
23.3474
23.1429
22.6609
21.6711
19.8081
17.0997
15.7504
18.0647
20.111
21.0043
21.5735
21.9791
22.2543
22.3828
22.3229
22.0334
21.4734
20.5301
18.843
15.749
11.0756
8.18382
12.3693
18.1493
22.9138
25.2332
25.3689
25.1776
25.9107
27.3225
28.9873
786.351
445.662
22.6323
22.8182
22.8383
22.7319
22.4746
22.0003
21.125
19.426
16.8435
16.1103
18.4514
19.9642
20.9414
21.6433
22.1683
22.5334
22.733
22.7481
22.5347
21.9956
20.9401
19.0817
16.1741
12.5116
10.6903
14.0453
19.8611
24.5477
27.0025
27.9495
28.3317
28.7117
29.0279
777.964
446.957
23.2231
23.3443
23.3562
23.2786
23.0849
22.7495
22.2643
21.5287
19.9826
16.8498
15.6765
17.2499
19.0601
20.3126
21.1906
21.8594
22.3697
22.726
22.9186
22.9199
22.6748
22.0894
21.0257
19.3411
17.0931
14.9963
15.0384
18.1628
22.0341
25.2212
27.2974
28.1859
28.4306
776.995
447.099
23.2815
23.4806
23.5745
23.5808
23.47
23.1918
22.7122
22.1688
21.7595
21.0011
18.0908
15.6278
16.5046
18.4437
19.8803
20.8302
21.519
22.0522
22.456
22.725
22.8457
22.7938
22.5281
21.9818
21.0368
19.4659
17.4642
16.3892
17.3633
19.6694
22.287
24.4283
25.9947
781.115
446.888
23.0101
23.2267
23.3627
23.4223
23.3836
23.2081
22.8276
22.1944
21.5339
21.151
20.5857
18.0383
15.7165
16.7025
18.5217
19.7956
20.632
21.2511
21.7346
22.0885
22.3079
22.3858
22.3029
21.9996
21.3246
20.4007
19.4626
18.6645
18.3643
18.5694
19.4884
22.212
25.5637
790.691
445.604
23.0144
23.3734
23.563
23.6472
23.6272
23.4814
23.1651
22.5982
21.7636
21.0126
20.7189
20.2398
17.8307
16.5474
17.8672
19.3196
20.2464
20.8734
21.3451
21.6633
21.8142
21.7956
21.5553
20.8496
20.0726
20.7952
21.1949
20.9053
20.288
19.9157
20.9154
24.02
27.9417
799.714
446.489
23.4158
23.7705
23.942
24.0093
23.9802
23.8367
23.5376
23.0271
22.2505
21.3367
20.6565
20.3796
19.5096
17.557
17.874
19.2956
20.2464
20.8438
21.2617
21.5073
21.5543
21.3672
20.7806
19.4798
19.1435
22.2401
23.5924
23.2735
22.465
22.4487
24.0976
26.6172
29.6262
798.198
445.847
23.03
23.323
23.4686
23.5237
23.5034
23.4096
23.2232
22.8902
22.3426
21.6129
21.0218
20.6986
20.3816
18.8453
17.5111
18.4593
19.7831
20.6545
21.191
21.4974
21.5692
21.3316
20.6154
19.256
18.74
22.3616
25.3106
25.6191
24.9911
24.8809
25.9903
27.5168
29.3538
790.296
448.862
23.6647
23.7698
23.7503
23.64
23.445
23.1841
22.8511
22.3987
21.7853
21.1117
20.7266
20.7645
20.8881
20.5624
19.7061
19.9638
20.7797
21.4133
21.851
22.1309
22.2173
22.0271
21.433
20.2793
19.115
20.596
24.315
26.5432
27.0065
27.0206
27.4638
28.1556
29.0572
784.667
452.747
23.8078
23.5967
23.3988
23.1358
22.8135
22.5039
22.144
21.6266
21.0258
20.6248
20.6891
21.08
21.4037
21.3035
20.616
20.4877
21.2623
21.9707
22.4284
22.7194
22.8638
22.8125
22.4739
21.7307
20.6108
20.0271
21.6109
24.5732
26.9554
28.0172
28.4684
28.7666
29.0389
782.349
455.209
23.9048
23.4651
23.0339
22.4794
21.9328
21.5986
21.1569
20.3104
19.3452
19.1891
20.083
21.1598
21.9519
22.3337
22.4409
22.7852
23.298
23.6623
23.9081
24.0755
24.1592
24.1243
23.9032
23.4069
22.5555
21.457
20.8301
21.7139
24.1006
26.4835
27.7589
28.3923
28.9272
785.346
455.922
24.0006
23.3219
22.5642
21.5721
20.9553
20.9051
20.5215
19.5317
18.754
19.6377
21.3228
22.3599
23.0503
23.7047
24.2174
24.5751
24.8658
25.1003
25.2837
25.4149
25.4872
25.4835
25.3714
25.099
24.5935
23.7902
22.7629
21.9731
22.3297
24.2577
26.331
27.5926
28.7602
788.688
457.09
24.1762
23.1275
21.8776
20.3249
20.1728
20.779
20.5649
19.5387
19.0272
20.8977
23.1652
24.1217
24.647
25.0571
25.426
25.7521
26.0284
26.2493
26.4129
26.5144
26.5467
26.5002
26.3622
26.1147
25.7293
25.1612
24.3637
23.376
22.5492
22.7965
24.5987
26.5244
28.6034
793.268
460.251
24.3316
22.8014
20.9062
18.7923
19.6454
21.1492
21.5824
21.185
20.545
20.9727
22.5016
23.5259
24.243
24.8505
25.3916
25.8773
26.3145
26.7053
27.048
27.3338
27.5482
27.6716
27.6792
27.5405
27.219
26.6764
25.8724
24.767
23.4741
22.9095
24.5217
26.8468
29.47
796.876
464.161
24.373
22.4478
19.934
17.4015
19.2168
21.2063
22.1066
22.2962
21.7614
20.6642
20.5485
22.0204
23.1056
23.8422
24.4047
24.8662
25.2615
25.6125
25.936
26.2413
26.5303
26.7972
27.0283
27.1993
27.2687
27.1701
26.8174
26.1235
25.0782
24.3615
25.5266
27.4925
29.7905
795.274
462.33
23.7385
21.8098
18.9387
15.8668
18.4248
20.628
21.6899
22.2913
22.4582
22.1232
21.6112
22.3651
23.7835
24.6282
25.1909
25.6358
26.013
26.3377
26.6168
26.8504
27.0357
27.1691
27.2474
27.2684
27.2267
27.0977
26.8245
26.3488
25.7266
25.5141
26.6059
28.1375
30.0201
794.564
457.05
23.7278
22.5823
20.6762
17.0122
16.9001
19.5183
21.0276
22.022
22.6242
22.8212
22.6039
22.2862
22.844
24.0289
24.8896
25.4671
25.9245
26.3157
26.6417
26.9166
27.1528
27.3557
27.5243
27.6493
27.7135
27.6891
27.5168
27.1539
26.7587
26.8415
27.7237
28.8202
30.2627
792.719
456.285
24.1328
23.2353
21.9341
18.7179
13.7343
16.6739
19.0485
20.4781
21.4892
22.1966
22.5832
22.694
22.794
23.3239
24.118
24.7949
25.3006
25.6838
25.981
26.2138
26.4
26.5594
26.7169
26.9015
27.1351
27.3956
27.5782
27.5885
27.5573
27.8351
28.4948
29.2391
30.243
790.28
458.849
23.9856
22.7349
21.1024
18.1238
14.0234
17.0086
19.4735
20.6707
21.4284
21.9499
22.3521
22.8971
23.7538
24.6408
25.3238
25.8494
26.2741
26.6004
26.8279
26.9661
27.0212
27.0052
26.9508
26.9221
27.0241
27.3528
27.8107
28.1365
28.3594
28.694
29.1382
29.5945
30.2032
787.915
458.907
23.7135
22.498
20.8269
17.5914
13.8494
16.5417
19.9401
21.2935
22.1442
22.7505
23.1601
23.5312
24.1359
24.9932
25.7997
26.4266
26.9079
27.2823
27.563
27.7433
27.8084
27.7481
27.5724
27.3301
27.1464
27.246
27.7643
28.3922
28.8167
29.1481
29.4442
29.7171
30.094
786.743
457.183
23.7266
22.8779
21.6243
19.0436
14.675
14.6304
19.2749
21.2093
22.3114
23.1531
23.8788
24.5119
25.1025
25.7389
26.4151
27.0414
27.5735
28.0149
28.371
28.6316
28.7748
28.7757
28.615
28.2939
27.8722
27.5507
27.6805
28.3257
28.9609
29.3544
29.6048
29.807
30.1168
787.036
453.005
23.599
23.1419
22.4668
21.0001
16.9704
9.91531
15.7439
19.4683
21.1393
22.1742
23.0052
23.7604
24.4913
25.242
26.0334
26.8242
27.5422
28.1518
28.655
29.0561
29.3464
29.5044
29.5008
29.3059
28.9086
28.379
27.9988
28.1895
28.8264
29.3509
29.669
29.9022
30.2559
788.279
452.581
23.5428
23.1148
22.6186
21.8723
20.4016
15.2723
8.74994
16.1077
19.7773
21.421
22.455
23.3055
24.1075
24.9348
25.8143
26.6963
27.5019
28.1973
28.7915
29.298
29.7151
30.0248
30.1976
30.1972
29.9851
29.543
28.9631
28.5978
28.7983
29.2588
29.6261
29.9258
30.419
790.644
451.266
23.6449
23.3476
22.9568
22.3694
21.4584
19.8891
12.5291
7.9877
16.742
20.3374
21.8958
22.9081
23.7903
24.6508
25.5317
26.4224
27.2718
28.0408
28.7235
29.3283
29.857
30.2989
30.6316
30.8234
30.8349
30.6214
30.1635
29.5905
29.2848
29.4077
29.685
30.0177
30.694
793.93
453.885
23.7749
23.301
22.7997
22.0359
20.806
19.1584
17.2151
8.76615
9.42339
17.7084
21.2928
22.8541
23.8836
24.7808
25.6221
26.4197
27.183
27.9176
28.6225
29.2876
29.897
30.4324
30.8736
31.1967
31.37
31.3501
31.0873
30.5945
30.1147
29.9764
30.1229
30.4426
31.2254
796.826
453.759
23.6775
23.3523
23.0348
22.5392
21.6214
20.0172
17.7222
13.0141
7.17718
8.9062
19.1023
22.1841
23.5958
24.5856
25.4779
26.3164
27.0927
27.8189
28.5181
29.2009
29.8568
30.4596
30.9787
31.3858
31.6524
31.7425
31.6154
31.2762
30.8955
30.7424
30.8297
31.0937
31.8034
797.631
454.361
23.7844
23.3587
22.9445
22.3489
21.3838
19.7903
17.2896
14.1715
8.73772
6.06997
12.4137
20.5753
23.1133
24.4013
25.3559
26.2121
27.0083
27.7502
28.4545
29.1419
29.8185
30.4663
31.0476
31.5192
31.8416
31.9807
31.9181
31.6954
31.4625
31.3777
31.4318
31.6028
32.1039
796.323
454.61
23.6414
23.2742
22.9414
22.427
21.5931
20.4593
18.9086
15.9844
9.90165
6.40026
5.06946
14.9065
21.4988
23.8017
25.049
25.9987
26.8565
27.6584
28.4091
29.1208
29.8099
30.4791
31.105
31.64
32.0277
32.2224
32.2143
32.0669
31.9112
31.8363
31.8289
31.8861
32.1517
794.399
453.577
23.7221
23.4151
23.1162
22.6792
21.9419
20.7441
19.0921
16.9941
13.6339
7.56314
7.2366
8.25534
17.2501
22.1834
24.2178
25.4753
26.4869
27.408
28.2674
29.068
29.8149
30.5151
31.165
31.7392
32.1904
32.4657
32.5442
32.4724
32.3489
32.2375
32.1456
32.0801
32.1248
792.602
453.618
23.5315
23.1236
22.7432
22.202
21.4193
20.467
19.3502
17.7528
14.7836
7.89367
6.09855
6.34285
8.31334
18.0049
22.514
24.5412
25.8678
26.9683
27.9761
28.9113
29.7721
30.5539
31.2473
31.8391
32.3125
32.6425
32.808
32.8236
32.7438
32.6144
32.4565
32.2803
32.1116
791.053
452.23
23.6788
23.3857
23.0861
22.6953
22.1616
21.4474
20.5223
19.3871
17.8877
15.11
8.23783
4.79298
6.70997
10.9255
19.0936
22.6117
24.5925
26.051
27.2996
28.4318
29.4604
30.3846
31.1945
31.8618
32.3625
32.6981
32.8821
32.9317
32.8762
32.7436
32.5522
32.3098
32.0088
790.09
452.768
23.6083
23.0282
22.471
21.7857
21.0516
20.52
20.1298
19.6149
18.6957
16.9654
13.0754
8.32689
4.64916
7.19467
12.3397
20.4637
23.357
25.0532
26.4332
27.7161
28.9117
29.9872
30.9308
31.7329
32.3538
32.7603
32.9663
33.0126
32.9414
32.7848
32.5639
32.2897
31.9628
790.4
453.988
23.8929
23.1991
22.5602
21.8178
21.113
20.6676
20.4046
20.1749
19.8507
19.274
17.9651
13.3409
5.70864
6.819
5.20682
15.8013
21.7248
24.1288
25.625
26.9139
28.1821
29.4033
30.4945
31.4202
32.1733
32.722
33.0416
33.1538
33.1063
32.9472
32.7134
32.4337
32.1578
792.038
457.194
24.0149
22.8612
21.8184
20.5711
19.5296
19.1797
19.3082
19.5888
19.8221
19.8675
19.604
18.7447
14.0542
4.84374
4.56573
6.84109
18.6515
23.4175
25.4111
26.6639
27.7761
28.9275
30.0855
31.1273
31.9798
32.6262
33.0548
33.2694
33.301
33.1973
33.0033
32.7625
32.5571
793.927
462.023
24.1907
22.6339
21.2575
19.5581
18.1895
17.691
17.889
18.4259
19.0405
19.5733
19.8937
19.8678
19.0747
14.2661
8.07544
8.71532
13.1366
21.1905
25.0557
26.8834
28.046
29.0546
30.0791
31.0991
31.9961
32.6889
33.1601
33.421
33.4986
33.4338
33.2707
33.0527
32.8602
794.856
468.112
24.0788
21.9959
20.0607
17.5075
15.6005
15.1242
15.7304
16.7763
17.8534
18.7643
19.3919
19.6886
19.5145
16.6769
9.18218
7.83906
9.94593
18.9653
24.2949
26.9199
28.3814
29.4114
30.3229
31.2139
32.0491
32.7359
33.22
33.4992
33.5964
33.5463
33.3931
33.1819
33.0011
795.484
468.745
23.2619
20.9594
18.4516
14.8738
12.4571
12.8586
14.8396
16.5701
17.6057
17.9584
17.3907
15.7056
13.6568
12.2234
11.0176
12.0299
15.2712
21.0258
25.5342
28.0886
29.5292
30.4711
31.2002
31.8249
32.3749
32.828
33.1535
33.3428
33.403
33.3497
33.2174
33.0474
32.9384
795.294
464.522
22.6611
20.4504
17.4185
12.9453
11.0348
14.0666
17.3831
18.5763
18.2029
17.5922
16.9626
16.1337
15.2977
14.8949
15.009
16.0205
18.5719
22.6386
26.5631
29.1798
30.7452
31.773
32.5178
33.0656
33.4424
33.6587
33.7365
33.7114
33.6131
33.4594
33.2761
33.0842
32.9392
794.254
458.934
22.5583
20.8292
18.3667
14.2722
11.186
13.643
17.8259
20.1216
20.2883
19.8482
19.254
18.5786
17.8277
17.0837
16.4707
16.2866
17.309
20.313
24.554
28.1192
30.3043
31.6824
32.7024
33.5226
34.1665
34.6091
34.8311
34.8552
34.7303
34.501
34.2119
33.8849
33.5063
794.193
458.149
23.0966
21.8707
20.4022
17.4659
11.9958
8.10964
8.72524
13.3403
18.8929
20.8218
21.1392
20.9186
20.3925
19.615
18.5743
17.2797
16.1001
16.3785
19.7199
24.7677
28.5068
30.5077
31.6943
32.5684
33.3099
33.9598
34.4853
34.83
34.9622
34.8909
34.6583
34.2982
33.7762
793.756
456.114
22.7895
21.7176
20.5128
18.5592
15.2565
10.5126
5.87364
7.65049
11.0839
19.0094
21.1648
21.7255
21.7342
21.3452
20.5097
19.0584
16.85
14.4007
14.5238
19.9788
26.5786
30.3611
31.9101
32.5368
32.8079
32.9508
33.0819
33.2308
33.3519
33.388
33.314
33.1268
32.7671
789.721
454.348
23.0352
22.3281
21.4774
19.9664
17.2978
13.5177
9.02542
4.87879
6.10255
10.7418
19.6949
21.7499
22.3219
22.3724
21.9544
20.9007
18.8858
15.6552
12.3338
14.2625
22.008
28.8146
32.5192
34.1011
34.5608
34.4325
34.0065
33.4871
33.0093
32.631
32.3442
32.0773
31.6595
783.799
451.591
22.975
22.5218
22.0372
21.28
19.7312
16.6861
12.4492
7.74755
6.69359
5.0787
7.75932
19.3288
22.1361
22.849
22.9847
22.6029
21.5027
19.3601
16.0939
13.4231
15.8492
22.1719
27.8483
31.8001
34.2855
35.5937
36.0308
35.8906
35.4156
34.8047
34.187
33.5407
32.5266
780.908
451.3
23.1507
22.6723
22.1888
21.6005
20.8003
19.2792
16.2339
11.9652
7.12199
7.00458
5.05612
8.00641
18.5862
22.6473
23.5148
23.7933
23.6229
22.8524
21.2975
19.0084
17.041
17.3785
20.1844
23.8691
27.4341
30.4755
32.8156
34.394
35.2591
35.5225
35.3326
34.8076
33.6111
781.441
452.333
23.2182
22.547
21.9227
21.2257
20.561
19.8812
18.3684
15.3965
11.4902
7.32251
5.46886
7.04497
9.32051
17.2589
22.7492
23.965
24.5042
24.678
24.4255
23.6624
22.3957
20.9258
19.8472
19.6787
20.5907
22.3858
24.6627
27.0135
29.1437
30.8765
32.0309
32.5041
32.2026
783.187
455.205
23.3845
22.439
21.6042
20.6484
19.7946
19.3633
18.7114
17.0178
14.1125
10.8094
7.52751
7.08909
4.55687
6.69098
18.0429
23.206
24.695
25.4165
25.8245
25.9577
25.7704
25.2225
24.3339
23.2223
22.1074
21.2795
21.0134
21.4394
22.4929
24.0388
25.9158
27.5266
28.8039
785.182
457.311
23.3369
22.2262
21.2712
20.1337
19.075
18.645
18.3546
17.4844
15.6715
13.2224
10.8104
8.32806
5.00045
8.19744
11.2997
20.1809
24.0006
25.5692
26.4225
26.9843
27.3498
27.5055
27.409
27.0247
26.3519
25.4484
24.4438
23.5234
22.8756
22.6792
23.2523
24.8314
27.1813
788.258
457.182
23.1456
22.0676
21.1117
19.872
18.5318
17.8934
17.7818
17.4129
16.4033
14.7636
12.9576
11.1893
9.15097
6.19181
8.58548
12.236
22.062
24.9291
26.3241
27.2189
27.8932
28.411
28.7667
28.9301
28.8671
28.5552
28.0042
27.2686
26.4306
25.5709
24.9875
25.9761
28.3266
791.647
455.629
23.1071
22.2222
21.3904
20.1924
18.5219
17.2161
16.9731
17.0099
16.6661
15.7623
14.4884
13.1187
11.6207
9.65409
6.73607
7.74466
18.1584
24.3128
26.3619
27.4328
28.2026
28.8446
29.38
29.7893
30.0409
30.1003
29.9405
29.5529
28.9359
28.069
27.2293
28.0047
29.9871
794.158
454.353
23.2502
22.5402
21.8643
20.8527
19.1542
17.0711
16.0454
16.1643
16.3746
16.1768
15.5269
14.575
13.44
12.0328
9.95307
7.07185
10.8601
20.9832
25.0925
26.8686
27.9571
28.7803
29.4539
30.0024
30.4198
30.6837
30.7609
30.6114
30.1802
29.4142
28.7062
29.3225
30.8622
794.451
454.403
23.3713
22.7114
22.1424
21.3446
19.9624
17.7745
15.6969
15.1254
15.5301
15.9005
15.8956
15.5139
14.8228
13.8629
12.5358
10.3825
7.38855
13.2369
23.3086
26.4944
27.7916
28.6416
29.3459
29.9372
30.4088
30.7492
30.939
30.9423
30.6946
30.1616
29.7317
30.1091
31.1061
792.501
455.063
23.3621
22.6771
22.159
21.5096
20.4844
18.7941
16.449
14.6476
14.3999
14.9528
15.4598
15.6528
15.5162
15.0712
14.3151
13.1722
11.2126
7.65145
13.3063
22.9781
26.8205
28.4349
29.3488
29.9982
30.4707
30.7816
30.9289
30.9004
30.6869
30.3445
30.142
30.3448
30.9103
790.094
455.995
23.3807
22.6834
22.2001
21.6293
20.8001
19.5607
17.7037
15.3809
13.7595
13.6072
14.2056
14.8034
15.1456
15.1986
14.9659
14.4404
13.6655
11.6814
5.7843
15.1638
22.5014
26.243
28.2427
29.4477
30.2323
30.7126
30.9238
30.8656
30.5552
30.1713
30.0077
30.1256
30.5378
789.893
456.87
23.3661
22.6864
22.2532
21.7477
21.0054
19.9464
18.5027
16.4912
14.1071
12.5597
12.481
13.07
13.625
13.9238
13.9309
13.6255
13.2176
11.6722
8.71688
6.10231
17.1062
23.8041
27.1753
29.0374
30.2071
30.9616
31.359
31.3865
31.0462
30.552
30.2546
30.2273
30.5459
791.454
457.486
23.2471
22.5843
22.1882
21.7175
21.0025
19.9785
18.6429
16.9009
14.4992
11.8933
10.6926
10.9332
11.4165
11.5977
11.3435
10.795
8.93578
6.75643
7.65337
15.1607
22.96
26.5339
28.3821
29.6181
30.5904
31.3642
31.8933
32.0784
31.8802
31.4594
31.0816
30.8639
30.972
792.532
457.116
23.0023
22.3946
22.0436
21.597
20.874
19.8156
18.4743
16.8084
14.4844
11.228
8.60385
8.31985
8.62827
8.24708
6.67857
8.15284
8.52257
13.0049
18.6928
24.0665
27.9024
29.7367
30.6937
31.2538
31.6148
31.8743
32.0553
32.1126
31.9953
31.7481
31.4815
31.2794
31.3244
791.718
455.579
22.7526
22.2619
21.9941
21.6187
20.9333
19.8424
18.4603
16.8731
14.7691
11.5171
7.31374
5.42127
5.58414
4.80929
6.82873
8.27871
17.0255
23.339
25.5535
26.4141
27.9112
29.4917
30.9611
32.055
32.6283
32.7674
32.6352
32.37
32.0656
31.7761
31.5287
31.3309
31.2114
786.963
453.547
22.5435
22.1675
21.9958
21.7417
21.2013
20.2143
18.8311
17.317
15.6704
13.317
9.48296
5.15492
4.28658
4.29675
7.51592
8.4526
13.93
23.416
30.2404
31.2185
31.0193
30.6396
30.4916
30.8652
31.6524
32.4124
32.7905
32.7692
32.4901
32.0864
31.6281
31.0805
30.2258
777.529
451.679
22.3369
22.0293
21.9374
21.8238
21.5187
20.8316
19.6571
18.1483
16.6546
15.1827
13.1626
9.92872
6.65927
5.88277
5.19108
7.93439
7.75895
11.4969
19.5946
26.818
31.3218
33.4688
33.8289
33.2629
32.4852
32.0012
31.9775
32.1734
32.2864
32.1899
31.8686
31.2359
29.8158
771.068
450.182
22.1167
21.8335
21.7826
21.7728
21.6806
21.3513
20.6475
19.4883
17.985
16.4653
15.106
13.6562
11.7229
9.84222
9.04593
8.73866
7.72765
5.49019
5.04708
10.7128
17.401
23.636
28.7256
32.4028
33.745
33.6587
33.0909
32.5435
32.1846
31.9459
31.6598
31.0887
29.5657
769.648
449.01
21.9039
21.6281
21.5954
21.6359
21.679
21.6265
21.3388
20.7239
19.727
18.3858
16.8924
15.4838
14.2445
13.1145
12.2465
11.885
11.8954
11.7833
10.8517
8.67273
6.3213
7.36084
14.5916
21.2034
27.3801
31.1653
32.4777
32.5755
32.2054
31.6803
31.1008
30.3247
28.7981
773.497
448.1
21.7297
21.4326
21.397
21.475
21.6241
21.7689
21.8005
21.6073
21.1028
20.2621
19.1013
17.718
16.3078
15.077
14.1821
13.7522
13.8287
14.2566
14.6264
14.2724
12.646
9.19279
9.37795
8.851
14.7511
22.9845
28.5371
30.7809
31.253
30.8967
30.0989
29.0486
27.8461
778.166
447.896
21.6026
21.1828
21.0797
21.1736
21.4521
21.8035
22.088
22.2051
22.0931
21.7046
21.0007
19.9658
18.6719
17.2649
15.9882
15.1155
14.885
15.3603
16.2419
16.8463
16.5266
14.8128
11.0731
4.55393
5.64843
10.3777
21.1097
27.7995
30.7896
31.7129
31.6178
31.0739
30.3068
779.969
448.548
21.4745
20.7954
20.5304
20.6273
21.1252
21.7626
22.3085
22.6778
22.8358
22.7643
22.4473
21.8588
20.9715
19.7782
18.4025
17.0827
16.1567
16.0435
16.905
18.112
18.7533
18.2885
16.4301
12.7268
7.16319
8.09738
11.8805
21.3204
27.57
31.0666
32.6757
33.2523
32.8321
778.351
449.784
21.3228
20.2994
19.7878
19.8893
20.7271
21.7481
22.5734
23.1463
23.4903
23.6212
23.5427
23.247
22.7143
21.9236
20.8781
19.6481
18.369
17.4263
17.4834
18.6984
20.1184
20.8743
20.6964
19.5088
17.2366
14.3125
12.4846
15.1262
19.9915
24.7813
28.332
30.126
30.2423
779.727
450.866
21.0999
19.7579
18.9972
19.1975
20.5037
21.9294
23.0093
23.7476
24.216
24.4637
24.5192
24.3958
24.0929
23.5968
22.8895
21.9682
20.8672
19.6844
18.8121
19.0608
20.3179
21.5792
22.3298
22.4862
22.0632
21.0885
19.7435
18.6248
18.4039
19.7064
20.6145
22.8013
25.6014
790.286
451.081
20.7881
19.256
18.342
18.7849
20.5911
22.3285
23.5788
24.4296
24.9807
25.2933
25.407
25.3477
25.1302
24.759
24.2306
23.5388