/*--------------------------------*- C++ -*----------------------------------*\
| =========                 |                                                 |
| \\      /  F ield         | OpenFOAM: The Open Source CFD Toolbox           |
|  \\    /   O peration     | Version:  v2006                                 |
|   \\  /    A nd           | Website:  www.openfoam.com                      |
|    \\/     M anipulation  |                                                 |
\*---------------------------------------------------------------------------*/
FoamFile
{
    version     2.0;
    format      ascii;
    class       surfaceScalarField;
    location    "87";
    object      phi;
}
// * * * * * * * * * * * * * * * * * * * * * * * * * * * * * * * * * * * * * //

dimensions      [1 0 -1 0 0 0 0];
oriented        oriented;


internalField   nonuniform List<scalar> 
228225
(
-0.00024758
-2.56358e-05
-1.7997e-06
-0.000219927
-2.70356e-05
-6.53433e-07
-0.000190184
-2.94e-05
-3.66047e-07
-0.00015912
-3.07934e-05
-2.73871e-07
-0.000131473
-2.74109e-05
-1.94498e-07
-0.000108442
-2.26223e-05
-3.56711e-07
-8.96555e-05
-1.81694e-05
-5.54751e-07
-7.4461e-05
-1.43549e-05
-7.82714e-07
-6.22702e-05
-1.1139e-05
-1.00212e-06
-5.24383e-05
-8.54898e-06
-1.23851e-06
-4.44045e-05
-6.535e-06
-1.46401e-06
-3.76175e-05
-5.0755e-06
-1.68306e-06
-3.16474e-05
-4.05479e-06
-1.89143e-06
-2.62157e-05
-3.32529e-06
-2.08594e-06
-2.11848e-05
-2.7487e-06
-2.26388e-06
-1.65165e-05
-2.22743e-06
-2.42394e-06
-1.22071e-05
-1.72844e-06
-2.5649e-06
-8.25058e-06
-1.25397e-06
-2.68678e-06
-4.63788e-06
-8.0651e-07
-2.79025e-06
-1.34022e-06
-4.0459e-07
-2.87646e-06
1.68212e-06
-5.68978e-08
-2.94783e-06
4.42846e-06
2.79726e-07
-3.00747e-06
6.90101e-06
6.05579e-07
-3.05845e-06
9.11206e-06
9.13616e-07
-3.10385e-06
1.10697e-05
1.21078e-06
-3.14637e-06
1.27776e-05
1.50403e-06
-3.18847e-06
1.42327e-05
1.80101e-06
-3.23101e-06
1.54259e-05
2.11034e-06
-3.27681e-06
1.6337e-05
2.44282e-06
-3.32523e-06
1.69356e-05
2.81213e-06
-3.38027e-06
1.71689e-05
3.24106e-06
-3.4428e-06
1.69105e-05
3.79602e-06
-3.50611e-06
1.57863e-05
4.76818e-06
-3.61304e-06
1.16966e-05
7.86814e-06
-3.74629e-06
1.36532e-05
-1.99407e-06
-1.01344e-05
-1.83423e-05
2.40356e-06
-1.72655e-05
-2.43206e-05
4.11886e-06
-2.15729e-05
-2.92306e-05
4.00428e-06
-2.49362e-05
-3.12053e-05
3.5835e-06
-2.49084e-05
-3.06894e-05
3.09621e-06
-2.1854e-05
-2.83965e-05
2.59655e-06
-1.70263e-05
-2.51541e-05
2.08626e-06
-1.16137e-05
-2.13634e-05
1.57635e-06
-6.5023e-06
-1.7275e-05
1.04991e-06
-2.22127e-06
-1.32706e-05
4.97011e-07
8.96592e-07
-9.48864e-06
-9.08807e-08
2.46414e-06
-6.01341e-06
-5.53358e-07
2.41494e-06
-2.88841e-06
-1.04925e-06
9.01516e-07
-2.27971e-07
-1.53429e-06
-1.68007e-06
1.83474e-06
-1.97886e-06
-4.59625e-06
3.03607e-06
-2.35004e-06
-7.29173e-06
3.58652e-06
-2.63958e-06
-9.36639e-06
3.65148e-06
-2.85983e-06
-1.05029e-05
3.32477e-06
-3.02645e-06
-1.06118e-05
2.82603e-06
-3.1527e-06
-9.84847e-06
2.3978e-06
-3.24729e-06
-8.42783e-06
2.1471e-06
-3.31536e-06
-6.55843e-06
2.07186e-06
-3.36139e-06
-4.41586e-06
2.13657e-06
-3.38999e-06
-2.13313e-06
2.31035e-06
-3.40588e-06
1.89534e-07
2.57182e-06
-3.41344e-06
2.47518e-06
2.90796e-06
-3.41531e-06
4.65773e-06
3.31489e-06
-3.40983e-06
6.66521e-06
3.79976e-06
-3.38738e-06
8.40576e-06
4.38478e-06
-3.33646e-06
9.74949e-06
5.1234e-06
-3.24944e-06
1.04578e-05
6.18353e-06
-3.11948e-06
9.83145e-06
8.29783e-06
-2.93165e-06
5.68694e-06
1.45638e-05
-2.60287e-06
2.03957e-05
-1.13482e-06
-9.66722e-06
-7.99727e-06
-6.97068e-07
-1.23722e-05
-2.06269e-05
-1.00349e-06
-1.5293e-05
-2.59882e-05
-3.28661e-07
-1.79063e-05
-2.87718e-05
1.63155e-07
-1.86046e-05
-3.03913e-05
3.73256e-07
-1.67265e-05
-3.07644e-05
4.41947e-07
-1.25344e-05
-2.98987e-05
4.74228e-07
-6.7562e-06
-2.77969e-05
5.61646e-07
-2.7288e-08
-2.47674e-05
6.78965e-07
6.96851e-06
-2.11494e-05
8.07509e-07
1.35356e-05
-1.70711e-05
9.48642e-07
1.90524e-05
-1.26687e-05
1.0844e-06
2.30823e-05
-8.1202e-06
1.16662e-06
2.54495e-05
-3.7212e-06
1.11413e-06
2.6484e-05
-3.72948e-08
8.43199e-07
2.59057e-05
3.27081e-06
3.54887e-07
2.41607e-05
5.58507e-06
-2.39208e-07
2.17197e-05
6.97345e-06
-8.66517e-07
1.90921e-05
7.47561e-06
-1.52517e-06
1.65817e-05
7.39779e-06
-2.08825e-06
1.43753e-05
7.06491e-06
-2.50674e-06
1.2638e-05
6.63226e-06
-2.80353e-06
1.14376e-05
6.22681e-06
-3.01276e-06
1.07111e-05
5.96485e-06
-3.15921e-06
1.03569e-05
5.86576e-06
-3.25736e-06
1.02871e-05
5.9015e-06
-3.31541e-06
1.04223e-05
6.05506e-06
-3.33823e-06
1.06785e-05
6.32965e-06
-3.3285e-06
1.09594e-05
6.74562e-06
-3.28691e-06
1.11477e-05
7.34664e-06
-3.21357e-06
1.10821e-05
8.23023e-06
-3.10851e-06
1.04758e-05
9.68505e-06
-2.9659e-06
8.59469e-06
1.28628e-05
-2.75612e-06
4.31817e-06
2.1089e-05
-2.31565e-06
2.55089e-05
-8.73633e-07
7.1057e-06
-1.60214e-05
8.72862e-07
1.37645e-05
-2.8207e-05
9.03827e-07
1.92247e-05
-3.22945e-05
8.45635e-07
2.28752e-05
-3.34251e-05
1.01018e-06
2.46261e-05
-3.31791e-05
1.05498e-06
2.50497e-05
-3.20922e-05
9.43629e-07
2.47958e-05
-3.02689e-05
6.91476e-07
2.45331e-05
-2.77711e-05
3.20135e-07
2.46332e-05
-2.4675e-05
-1.12303e-07
2.5207e-05
-2.11506e-05
-5.07488e-07
2.6442e-05
-1.74013e-05
-8.61021e-07
2.85127e-05
-1.35948e-05
-1.12309e-06
3.15106e-05
-9.84537e-06
-1.27121e-06
3.52615e-05
-6.17422e-06
-1.31226e-06
3.89744e-05
-2.5004e-06
-1.27661e-06
4.19717e-05
1.42852e-06
-1.19244e-06
4.29856e-05
5.64622e-06
-1.1197e-06
4.20276e-05
9.01329e-06
-1.13072e-06
3.96377e-05
1.10504e-05
-1.23617e-06
3.61588e-05
1.22327e-05
-1.40457e-06
3.19111e-05
1.29033e-05
-1.6274e-06
2.73884e-05
1.30428e-05
-1.90938e-06
2.31961e-05
1.26151e-05
-2.21088e-06
1.97712e-05
1.18425e-05
-2.47082e-06
1.72314e-05
1.10397e-05
-2.66003e-06
1.54696e-05
1.04086e-05
-2.77939e-06
1.42909e-05
1.00318e-05
-2.8394e-06
1.34981e-05
9.92335e-06
-2.84881e-06
1.29136e-05
1.00864e-05
-2.81113e-06
1.236e-05
1.05639e-05
-2.72714e-06
1.16033e-05
1.15062e-05
-2.59652e-06
1.01844e-05
1.34094e-05
-2.41152e-06
7.09615e-06
1.79242e-05
-2.15059e-06
2.78009e-06
2.68805e-05
-1.69251e-06
2.87184e-05
-5.5495e-07
5.67922e-06
-2.07732e-05
-7.96355e-07
1.13837e-05
-3.20413e-05
-1.6471e-06
1.52783e-05
-3.43719e-05
-1.66018e-06
1.76562e-05
-3.45694e-05
-1.14948e-06
1.90795e-05
-3.3909e-05
-6.53608e-07
1.99505e-05
-3.25553e-05
-3.91357e-07
2.0411e-05
-3.04544e-05
-2.71338e-07
2.04239e-05
-2.75502e-05
-2.37748e-07
2.00093e-05
-2.39763e-05
-2.90513e-07
1.92881e-05
-1.99924e-05
-4.41007e-07
1.83896e-05
-1.58138e-05
-6.88067e-07
1.74059e-05
-1.16022e-05
-1.00382e-06
1.64469e-05
-7.55482e-06
-1.32635e-06
1.56616e-05
-3.80634e-06
-1.58109e-06
1.49375e-05
-8.77606e-08
-1.6946e-06
1.43046e-05
3.64868e-06
-1.60547e-06
1.33651e-05
7.91648e-06
-1.36315e-06
1.18065e-05
1.17397e-05
-1.20795e-06
1.01361e-05
1.3937e-05
-1.25785e-06
8.73722e-06
1.50036e-05
-1.41115e-06
7.62647e-06
1.55975e-05
-1.61559e-06
6.73449e-06
1.57887e-05
-1.87714e-06
6.05289e-06
1.54508e-05
-2.17686e-06
5.63773e-06
1.46713e-05
-2.44436e-06
5.51989e-06
1.37529e-05
-2.63395e-06
5.66591e-06
1.29663e-05
-2.74637e-06
6.0001e-06
1.24518e-05
-2.79775e-06
6.43668e-06
1.22451e-05
-2.80113e-06
6.89142e-06
1.23514e-05
-2.76109e-06
7.27409e-06
1.28171e-05
-2.67564e-06
7.45686e-06
1.38241e-05
-2.53908e-06
7.13469e-06
1.60243e-05
-2.3342e-06
5.33816e-06
2.16698e-05
-2.02095e-06
2.09806e-06
3.14775e-05
-1.48895e-06
3.11579e-05
-4.56698e-07
3.95396e-06
-2.45929e-05
-7.9816e-08
5.54025e-06
-3.35352e-05
-9.90805e-08
6.23236e-06
-3.48533e-05
-2.51655e-07
6.62108e-06
-3.4581e-05
-4.10882e-07
6.73622e-06
-3.35607e-05
-4.7421e-07
6.50409e-06
-3.1805e-05
-4.98547e-07
5.86693e-06
-2.92079e-05
-5.59538e-07
4.9157e-06
-2.58459e-05
-6.85769e-07
3.88038e-06
-2.20202e-05
-8.55466e-07
2.97054e-06
-1.80131e-05
-1.02284e-06
2.26326e-06
-1.39309e-05
-1.15625e-06
1.65401e-06
-9.74271e-06
-1.25792e-06
9.03302e-07
-5.48101e-06
-1.35142e-06
-1.60802e-07
-1.33949e-06
-1.44351e-06
-1.38737e-06
2.58681e-06
-1.49572e-06
-2.81861e-06
6.47274e-06
-1.44593e-06
-3.9078e-06
1.02324e-05
-1.28724e-06
-4.20686e-06
1.31424e-05
-1.17005e-06
-3.76988e-06
1.46623e-05
-1.22281e-06
-2.82358e-06
1.53641e-05
-1.36043e-06
-1.51516e-06
1.57601e-05
-1.52079e-06
1.70415e-08
1.59062e-05
-1.69731e-06
1.57683e-06
1.57258e-05
-1.88175e-06
3.01842e-06
1.52399e-05
-2.05809e-06
4.28295e-06
1.465e-05
-2.21003e-06
5.36108e-06
1.41693e-05
-2.32859e-06
6.26658e-06
1.39108e-05
-2.40977e-06
7.00032e-06
1.39206e-05
-2.45166e-06
7.52323e-06
1.42406e-05
-2.45116e-06
7.7402e-06
1.49661e-05
-2.40061e-06
7.47617e-06
1.63485e-05
-2.28812e-06
6.43632e-06
1.91455e-05
-2.09339e-06
4.31752e-06
2.5583e-05
-1.77796e-06
1.77719e-06
3.52434e-05
-1.24406e-06
3.32049e-05
-3.50013e-07
1.29544e-06
-2.5033e-05
-8.60844e-07
2.65511e-06
-3.32914e-05
-1.6151e-06
3.43865e-06
-3.42264e-05
-1.43786e-06
3.7285e-06
-3.37832e-05
-1.12031e-06
3.53323e-06
-3.25027e-05
-8.8646e-07
2.82301e-06
-3.03355e-05
-7.66051e-07
1.6235e-06
-2.72522e-05
-7.48553e-07
5.5893e-08
-2.34472e-05
-8.15913e-07
-1.72361e-06
-1.92683e-05
-9.54257e-07
-3.54357e-06
-1.50363e-05
-1.14137e-06
-5.18444e-06
-1.0955e-05
-1.33041e-06
-6.41031e-06
-7.06164e-06
-1.46805e-06
-7.17619e-06
-3.22153e-06
-1.5259e-06
-7.84392e-06
7.88804e-07
-1.51106e-06
-8.58611e-06
4.69482e-06
-1.43329e-06
-9.62927e-06
8.72244e-06
-1.2897e-06
-1.07384e-05
1.23819e-05
-1.12976e-06
-1.13647e-05
1.47724e-05
-1.08289e-06
-1.14283e-05
1.58108e-05
-1.1556e-06
-1.11209e-05
1.62721e-05
-1.28148e-06
-1.0465e-05
1.6483e-05
-1.43971e-06
-9.44445e-06
1.64621e-05
-1.6282e-06
-8.06798e-06
1.61491e-05
-1.83961e-06
-6.39904e-06
1.55851e-05
-2.04504e-06
-4.56148e-06
1.49944e-05
-2.21009e-06
-2.68051e-06
1.45871e-05
-2.32758e-06
-8.34991e-07
1.44418e-05
-2.40648e-06
9.26046e-07
1.45826e-05
-2.45367e-06
2.54355e-06
1.50625e-05
-2.47003e-06
3.90433e-06
1.60221e-05
-2.44637e-06
4.76817e-06
1.78187e-05
-2.36058e-06
4.6038e-06
2.14588e-05
-2.16612e-06
2.76678e-06
2.92095e-05
-1.78625e-06
9.01956e-07
3.82549e-05
-1.16509e-06
3.43559e-05
-3.26048e-07
-5.32327e-07
-2.43353e-05
-1.47366e-07
-9.51588e-07
-3.22366e-05
-6.11427e-07
-1.32418e-06
-3.30468e-05
-7.86123e-07
-1.88804e-06
-3.24081e-05
-7.83913e-07
-2.86455e-06
-3.07658e-05
-7.21502e-07
-4.31059e-06
-2.81985e-05
-6.49969e-07
-5.9502e-06
-2.49915e-05
-5.95573e-07
-7.37532e-06
-2.146e-05
-5.62493e-07
-8.3581e-06
-1.77501e-05
-5.59022e-07
-8.97017e-06
-1.3857e-05
-6.04642e-07
-9.49129e-06
-9.76836e-06
-7.08616e-07
-1.01501e-05
-5.60192e-06
-8.46581e-07
-1.0862e-05
-1.6004e-06
-9.58465e-07
-1.1156e-05
2.01359e-06
-9.86592e-07
-1.09479e-05
5.32428e-06
-9.04979e-07
-1.02608e-05
8.67702e-06
-7.25303e-07
-9.45316e-06
1.19978e-05
-5.20291e-07
-8.94283e-06
1.46103e-05
-4.39789e-07
-8.61495e-06
1.59196e-05
-5.15074e-07
-8.14582e-06
1.63738e-05
-6.44952e-07
-7.44295e-06
1.65098e-05
-8.03835e-07
-6.53211e-06
1.64684e-05
-9.90209e-07
-5.49952e-06
1.62484e-05
-1.20071e-06
-4.42708e-06
1.58697e-05
-1.41884e-06
-3.31663e-06
1.54459e-05
-1.61648e-06
-2.13313e-06
1.5131e-05
-1.77645e-06
-8.63943e-07
1.50267e-05
-1.89976e-06
4.72899e-07
1.51953e-05
-1.99275e-06
1.83133e-06
1.57247e-05
-2.06142e-06
3.10671e-06
1.68154e-05
-2.10679e-06
4.02572e-06
1.89799e-05
-2.11354e-06
3.98091e-06
2.35142e-05
-2.02997e-06
2.50448e-06
3.2436e-05
-1.73035e-06
9.9532e-07
4.08964e-05
-1.11442e-06
3.55971e-05
-3.04492e-07
1.86887e-07
-2.36841e-05
-8.15155e-07
8.10358e-07
-3.15616e-05
-1.25722e-06
1.55929e-06
-3.24091e-05
-1.34442e-06
2.06383e-06
-3.14875e-05
-1.37351e-06
1.96578e-06
-2.92361e-05
-1.36429e-06
1.21851e-06
-2.60598e-05
-1.32148e-06
6.77162e-08
-2.25372e-05
-1.24741e-06
-1.19648e-06
-1.90086e-05
-1.15183e-06
-2.27687e-06
-1.56133e-05
-1.04254e-06
-2.89581e-06
-1.23267e-05
-9.17948e-07
-2.94655e-06
-8.95051e-06
-7.91274e-07
-2.573e-06
-5.30492e-06
-7.07892e-07
-2.01875e-06
-1.49964e-06
-7.0109e-07
-1.51167e-06
2.19191e-06
-7.37511e-07
-1.02183e-06
5.52398e-06
-7.48565e-07
-1.44883e-07
8.41931e-06
-6.89775e-07
1.16397e-06
1.1148e-05
-5.45967e-07
2.35161e-06
1.36928e-05
-3.67646e-07
2.93283e-06
1.55376e-05
-2.83058e-07
3.066e-06
1.64853e-05
-3.15747e-07
3.07595e-06
1.68307e-05
-3.97987e-07
3.08933e-06
1.6897e-05
-5.09162e-07
3.09734e-06
1.6818e-05
-6.4485e-07
3.06421e-06
1.66372e-05
-7.99632e-07
3.00676e-06
1.64047e-05
-9.61748e-07
2.99277e-06
1.62072e-05
-1.11624e-06
3.07911e-06
1.61458e-05
-1.25289e-06
3.28731e-06
1.63148e-05
-1.36902e-06
3.61566e-06
1.68312e-05
-1.46989e-06
4.02814e-06
1.79381e-05
-1.5623e-06
4.34674e-06
2.02832e-05
-1.64065e-06
3.95992e-06
2.55499e-05
-1.66632e-06
2.2462e-06
3.56384e-05
-1.50875e-06
9.05177e-07
4.32174e-05
-1.00937e-06
3.66965e-05
-2.69939e-07
4.32582e-06
-2.78065e-05
1.49903e-08
6.76501e-06
-3.45363e-05
7.18936e-07
8.57122e-06
-3.45001e-05
4.54891e-07
9.47978e-06
-3.20921e-05
-1.16847e-07
8.90605e-06
-2.77987e-05
-6.64056e-07
7.3466e-06
-2.32517e-05
-1.07303e-06
5.48519e-06
-1.92521e-05
-1.29272e-06
3.66723e-06
-1.57436e-05
-1.36094e-06
2.01596e-06
-1.25738e-05
-1.33709e-06
6.60851e-07
-9.67819e-06
-1.26576e-06
-1.43386e-07
-6.96381e-06
-1.17124e-06
-1.49546e-07
-4.24568e-06
-1.05591e-06
5.83043e-07
-1.31618e-06
-9.33198e-07
1.69658e-06
1.88799e-06
-8.40751e-07
2.82805e-06
5.14811e-06
-7.98658e-07
3.90787e-06
8.05971e-06
-7.73951e-07
5.1616e-06
1.05445e-05
-7.16367e-07
6.62742e-06
1.27469e-05
-6.00744e-07
7.83147e-06
1.46931e-05
-4.50235e-07
8.43508e-06
1.61354e-05
-3.37406e-07
8.58004e-06
1.69259e-05
-3.09339e-07
8.45894e-06
1.72918e-05
-3.36955e-07
8.17462e-06
1.74364e-05
-3.95531e-07
7.77081e-06
1.74587e-05
-4.77021e-07
7.28048e-06
1.74154e-05
-5.7677e-07
6.7551e-06
1.73689e-05
-6.87991e-07
6.25229e-06
1.74042e-05
-8.01633e-07
5.81498e-06
1.76234e-05
-9.11589e-07
5.46663e-06
1.81643e-05
-1.01935e-06
5.18958e-06
1.93167e-05
-1.13004e-06
4.80575e-06
2.18876e-05
-1.24292e-06
3.78481e-06
2.78757e-05
-1.33194e-06
1.96004e-06
3.86851e-05
-1.27725e-06
8.64431e-07
4.51419e-05
-8.97789e-07
3.77233e-05
-2.48322e-07
3.88634e-06
-3.18646e-05
3.88854e-07
4.70873e-06
-3.69128e-05
1.67431e-06
4.35455e-06
-3.56979e-05
1.70374e-06
2.44546e-06
-3.0815e-05
8.56945e-07
-6.57544e-07
-2.423e-05
-2.4467e-07
-3.34087e-06
-1.92216e-05
-1.1913e-06
-4.90353e-06
-1.58134e-05
-1.78133e-06
-5.35202e-06
-1.31956e-05
-2.04475e-06
-4.98995e-06
-1.0833e-05
-2.07466e-06
-4.20599e-06
-8.48715e-06
-1.96555e-06
-3.27866e-06
-6.09508e-06
-1.79963e-06
-2.26977e-06
-3.64234e-06
-1.62469e-06
-1.07507e-06
-1.07482e-06
-1.45525e-06
3.97694e-07
1.69013e-06
-1.30071e-06
2.03047e-06
4.66072e-06
-1.17878e-06
3.60134e-06
7.54556e-06
-1.09835e-06
5.05081e-06
1.00818e-05
-1.03738e-06
6.46663e-06
1.22319e-05
-9.62403e-07
7.8397e-06
1.41002e-05
-8.53574e-07
8.91312e-06
1.5702e-05
-7.18855e-07
9.45732e-06
1.69063e-05
-5.96766e-07
9.5389e-06
1.76636e-05
-5.14701e-07
9.29926e-06
1.80931e-05
-4.70655e-07
8.83422e-06
1.83314e-05
-4.56145e-07
8.20498e-06
1.84674e-05
-4.66911e-07
7.46447e-06
1.85701e-05
-4.99755e-07
6.66967e-06
1.87162e-05
-5.50299e-07
5.87903e-06
1.90028e-05
-6.14546e-07
5.14873e-06
1.95707e-05
-6.92014e-07
4.53248e-06
2.07213e-05
-7.86715e-07
4.02258e-06
2.33394e-05
-9.03237e-07
3.18807e-06
2.98267e-05
-1.02343e-06
1.62069e-06
4.13833e-05
-1.04207e-06
8.15852e-07
4.67337e-05
-7.77491e-07
3.86872e-05
-2.24903e-07
2.0342e-06
-3.54775e-05
1.67136e-06
1.75928e-06
-3.99914e-05
3.41428e-06
3.80357e-08
-3.75476e-05
3.65733e-06
-4.16601e-06
-2.92772e-05
2.82299e-06
-9.0212e-06
-2.08839e-05
1.65284e-06
-1.21977e-05
-1.64565e-05
4.99269e-07
-1.35781e-05
-1.39402e-05
-4.4345e-07
-1.36262e-05
-1.19785e-05
-1.14228e-06
-1.27519e-05
-1.01059e-05
-1.58956e-06
-1.1242e-05
-8.18307e-06
-1.81256e-06
-9.32279e-06
-6.15902e-06
-1.86158e-06
-7.20316e-06
-3.97685e-06
-1.79718e-06
-5.06594e-06
-1.55808e-06
-1.67058e-06
-3.02626e-06
1.14726e-06
-1.51763e-06
-1.08336e-06
4.0661e-06
-1.37379e-06
7.33692e-07
6.96772e-06
-1.27021e-06
2.41392e-06
9.57505e-06
-1.21015e-06
3.95951e-06
1.18099e-05
-1.16581e-06
5.36244e-06
1.37527e-05
-1.10277e-06
6.56126e-06
1.54545e-05
-1.00075e-06
7.4551e-06
1.68362e-05
-8.68859e-07
8.01531e-06
1.78092e-05
-7.42519e-07
8.28971e-06
1.84336e-05
-6.45211e-07
8.33235e-06
1.88395e-05
-5.77563e-07
8.17932e-06
1.91304e-05
-5.34667e-07
7.85513e-06
1.93847e-05
-5.13228e-07
7.38389e-06
1.96784e-05
-5.11487e-07
6.79173e-06
2.01054e-05
-5.27789e-07
6.1e-06
2.0811e-05
-5.60296e-07
5.31851e-06
2.21151e-05
-6.09793e-07
4.43459e-06
2.4953e-05
-6.82058e-07
3.31988e-06
3.18751e-05
-7.72903e-07
1.90958e-06
4.38309e-05
-8.01646e-07
1.03561e-06
4.83118e-05
-6.10437e-07
3.98067e-05
-1.63085e-07
-2.69389e-06
-3.52368e-05
2.21971e-06
-5.22158e-06
-4.13426e-05
3.66402e-06
-7.42402e-06
-3.9466e-05
3.87288e-06
-8.11059e-06
-3.18703e-05
3.01906e-06
-8.91403e-06
-2.23288e-05
2.11844e-06
-1.05308e-05
-1.6272e-05
1.39845e-06
-1.1971e-05
-1.31234e-05
6.22116e-07
-1.26857e-05
-1.11376e-05
-1.21607e-07
-1.27143e-05
-9.38908e-06
-6.87458e-07
-1.22049e-05
-7.59097e-06
-1.10848e-06
-1.13323e-05
-5.68437e-06
-1.36262e-06
-1.02412e-05
-3.62564e-06
-1.46471e-06
-9.06909e-06
-1.31309e-06
-1.44442e-06
-7.88421e-06
1.27547e-06
-1.34282e-06
-6.68577e-06
4.05056e-06
-1.21247e-06
-5.56859e-06
6.9329e-06
-1.11014e-06
-4.55535e-06
9.59069e-06
-1.05457e-06
-3.597e-06
1.18473e-05
-1.01976e-06
-2.61318e-06
1.37197e-05
-9.73325e-07
-1.54349e-06
1.5263e-05
-8.98527e-07
-4.04684e-07
1.64826e-05
-8.02243e-07
7.15003e-07
1.7383e-05
-7.07346e-07
1.73882e-06
1.80272e-05
-6.29496e-07
2.63257e-06
1.85057e-05
-5.71411e-07
3.38324e-06
1.88996e-05
-5.31226e-07
3.98527e-06
1.92785e-05
-5.07277e-07
4.43695e-06
1.97133e-05
-4.98414e-07
4.73948e-06
2.02943e-05
-5.03861e-07
4.89042e-06
2.11709e-05
-5.2328e-07
4.85538e-06
2.26989e-05
-5.58639e-07
4.45252e-06
2.5976e-05
-6.14662e-07
3.19718e-06
3.38829e-05
-6.82926e-07
1.60007e-06
4.62762e-05
-6.83752e-07
8.93974e-07
4.95971e-05
-5.07744e-07
4.07608e-05
-1.28183e-07
-5.7558e-06
-3.29651e-05
3.05192e-06
-7.66025e-06
-4.40223e-05
4.24945e-06
-7.2253e-06
-4.47294e-05
4.37327e-06
-2.19732e-06
-4.16205e-05
4.07065e-06
4.44137e-06
-3.28599e-05
3.39536e-06
6.74018e-06
-2.14541e-05
2.66783e-06
5.02705e-06
-1.34411e-05
1.96823e-06
2.13358e-06
-9.52567e-06
1.27245e-06
-3.18064e-07
-7.53114e-06
6.01162e-07
-1.86064e-06
-6.03045e-06
-8.84787e-09
-2.61554e-06
-4.53596e-06
-3.89409e-07
-2.70195e-06
-2.87491e-06
-6.68214e-07
-2.25598e-06
-9.55767e-07
-8.15648e-07
-1.50524e-06
1.34845e-06
-8.43283e-07
-7.73136e-07
4.07527e-06
-7.81098e-07
-2.34185e-07
7.05019e-06
-6.81525e-07
1.75004e-08
9.91836e-06
-6.01846e-07
1.30686e-07
1.22732e-05
-5.56665e-07
3.46734e-07
1.40138e-05
-5.23014e-07
8.01124e-07
1.52832e-05
-4.83939e-07
1.48776e-06
1.62278e-05
-4.39348e-07
2.31693e-06
1.69435e-05
-3.96601e-07
3.19639e-06
1.75022e-05
-3.61593e-07
4.06436e-06
1.79665e-05
-3.36629e-07
4.88358e-06
1.8394e-05
-3.22387e-07
5.63005e-06
1.88419e-05
-3.19648e-07
6.2837e-06
1.93773e-05
-3.28781e-07
6.8176e-06
2.00964e-05
-3.49462e-07
7.17254e-06
2.11782e-05
-3.81061e-07
7.18208e-06
2.30805e-05
-4.24434e-07
6.3981e-06
2.71686e-05
-4.85802e-07
4.27998e-06
3.6415e-05
-5.63117e-07
2.15059e-06
4.88616e-05
-5.7206e-07
1.13519e-06
5.09546e-05
-4.22342e-07
4.1927e-05
-1.0143e-07
-1.41619e-06
-3.41121e-05
2.38809e-06
-1.70993e-06
-4.67709e-05
3.05922e-06
-1.20911e-06
-4.85762e-05
3.42741e-06
1.13641e-06
-4.76209e-05
3.66018e-06
6.58326e-06
-4.21991e-05
3.63348e-06
1.13748e-05
-2.96648e-05
3.14165e-06
1.1981e-05
-1.66255e-05
2.43401e-06
9.79591e-06
-9.19088e-06
1.80008e-06
6.87565e-06
-5.87624e-06
1.24618e-06
4.2459e-06
-4.13793e-06
7.29621e-07
2.2384e-06
-2.78978e-06
2.60499e-07
8.81397e-07
-1.4066e-06
-1.10554e-07
1.46336e-07
1.34354e-07
-3.58177e-07
-1.81917e-07
2.1578e-06
-4.91913e-07
-1.16741e-07
4.4951e-06
-5.04074e-07
1.69476e-07
7.15894e-06
-4.19796e-07
4.64792e-07
9.90215e-06
-3.05016e-07
6.64416e-07
1.22758e-05
-2.24697e-07
8.58351e-07
1.39866e-05
-1.8457e-07
1.17606e-06
1.51123e-05
-1.61579e-07
1.64891e-06
1.58856e-05
-1.43786e-07
2.2371e-06
1.64719e-05
-1.29335e-07
2.88898e-06
1.69564e-05
-1.19288e-07
3.56503e-06
1.73917e-05
-1.15148e-07
4.23842e-06
1.78244e-05
-1.1856e-07
4.88936e-06
1.83061e-05
-1.30907e-07
5.50018e-06
1.89028e-05
-1.53396e-07
6.04659e-06
1.97172e-05
-1.87003e-07
6.46928e-06
2.0961e-05
-2.32652e-07
6.57266e-06
2.32178e-05
-2.92861e-07
5.76891e-06
2.82146e-05
-3.75598e-07
3.44226e-06
3.89263e-05
-4.79219e-07
1.52321e-06
5.09832e-05
-5.10659e-07
7.40154e-07
5.19173e-05
-3.92572e-07
4.26451e-05
-1.02237e-07
-3.51697e-07
-3.51978e-05
1.5664e-06
-3.26892e-06
-4.51999e-05
1.64902e-06
-7.11617e-06
-4.62338e-05
1.92298e-06
-1.09896e-05
-4.55002e-05
2.21995e-06
-1.22326e-05
-4.31578e-05
2.60323e-06
-8.42088e-06
-3.62177e-05
2.89486e-06
-3.36681e-06
-2.43621e-05
2.7019e-06
-5.74969e-07
-1.4255e-05
2.26007e-06
1.31994e-07
-8.4228e-06
1.82416e-06
-1.37633e-07
-5.29798e-06
1.41489e-06
-6.1643e-07
-3.33598e-06
1.01238e-06
-9.49043e-07
-1.71127e-06
6.26788e-07
-1.11915e-06
9.91655e-09
2.84008e-07
-8.5423e-07
1.8761e-06
3.05679e-09
-3.29143e-07
4.09021e-06
-1.39404e-07
4.07549e-07
6.58515e-06
-1.88236e-07
1.21584e-06
9.20775e-06
-1.4349e-07
1.91885e-06
1.15997e-05
-5.69191e-08
2.47262e-06
1.33941e-05
1.17365e-08
2.92312e-06
1.45677e-05
7.02114e-08
3.33326e-06
1.5353e-05
1.00278e-07
3.72046e-06
1.59453e-05
1.1795e-07
4.08137e-06
1.64465e-05
1.27916e-07
4.40909e-06
1.69126e-05
1.3064e-07
4.69859e-06
1.73892e-05
1.25376e-07
4.94696e-06
1.79277e-05
1.10765e-07
5.15169e-06
1.85963e-05
8.47649e-08
5.30591e-06
1.9506e-05
4.39698e-08
5.37587e-06
2.08961e-05
-1.16598e-08
5.22376e-06
2.3438e-05
-6.65032e-08
4.49844e-06
2.90839e-05
-1.51118e-07
2.72232e-06
4.08554e-05
-2.75386e-07
1.26579e-06
5.25551e-05
-3.55906e-07
5.2591e-07
5.27447e-05
-2.93374e-07
4.3078e-05
-5.69115e-08
-2.79116e-06
-3.30796e-05
8.42395e-07
-6.67672e-06
-4.17603e-05
5.84903e-07
-1.10376e-05
-4.26555e-05
8.67426e-07
-1.53673e-05
-4.22684e-05
1.18116e-06
-1.88495e-05
-4.10729e-05
1.50486e-06
-1.83907e-05
-3.85226e-05
1.94894e-06
-1.28501e-05
-3.22144e-05
2.33681e-06
-6.37562e-06
-2.31157e-05
2.37636e-06
-1.95882e-06
-1.50506e-05
2.20072e-06
9.55501e-09
-9.21919e-06
1.94636e-06
2.87087e-07
-5.27959e-06
1.65833e-06
-2.2089e-07
-2.56424e-06
1.35078e-06
-9.03626e-07
-3.60811e-07
1.04168e-06
-1.36405e-06
1.56319e-06
7.59598e-07
-1.51052e-06
3.68555e-06
5.34142e-07
-1.35544e-06
6.02192e-06
3.87183e-07
-9.1094e-07
8.41708e-06
3.21761e-07
-2.52925e-07
1.06035e-05
3.11916e-07
4.6992e-07
1.23282e-05
3.1621e-07
1.1431e-06
1.35542e-05
3.13479e-07
1.73399e-06
1.44291e-05
3.06221e-07
2.242e-06
1.51107e-05
2.99947e-07
2.66596e-06
1.57005e-05
2.95629e-07
3.00086e-06
1.62598e-05
2.91666e-07
3.24191e-06
1.68365e-05
2.85844e-07
3.38591e-06
1.74829e-05
2.75781e-07
3.43024e-06
1.82702e-05
2.58819e-07
3.37131e-06
1.93154e-05
2.31858e-07
3.20479e-06
2.08694e-05
1.90879e-07
2.93747e-06
2.36204e-05
1.29091e-07
2.5983e-06
2.95509e-05
3.12925e-08
1.91998e-06
4.18322e-05
-8.05167e-08
1.03984e-06
5.36024e-05
-1.78856e-07
4.15953e-07
5.34625e-05
-1.61387e-07
4.33903e-05
3.00477e-08
-4.64173e-06
-2.93056e-05
8.06671e-07
-7.18994e-06
-3.9956e-05
6.14083e-07
-8.9892e-06
-4.17318e-05
7.19074e-07
-1.06759e-05
-4.16373e-05
9.03051e-07
-1.23922e-05
-4.0553e-05
1.07691e-06
-1.35905e-05
-3.86729e-05
1.27494e-06
-1.15188e-05
-3.59485e-05
1.61685e-06
-5.50054e-06
-3.12426e-05
2.06424e-06
1.87609e-06
-2.48425e-05
2.3788e-06
7.97883e-06
-1.78329e-05
2.49367e-06
1.16578e-05
-1.13849e-05
2.42878e-06
1.29026e-05
-6.03435e-06
2.23687e-06
1.24589e-05
-1.8823e-06
1.97623e-06
1.11354e-05
1.1987e-06
1.69517e-06
9.7681e-06
3.62521e-06
1.42978e-06
8.72456e-06
5.85265e-06
1.20854e-06
8.03265e-06
8.05213e-06
1.04585e-06
7.57396e-06
1.01105e-05
9.34827e-07
7.22453e-06
1.18036e-05
8.52467e-07
6.9168e-06
1.30562e-05
7.80527e-07
6.63183e-06
1.39714e-05
7.15105e-07
6.36323e-06
1.46924e-05
6.58047e-07
6.10117e-06
1.53231e-05
6.10006e-07
5.83285e-06
1.5929e-05
5.69732e-07
5.5466e-06
1.65588e-05
5.35042e-07
5.23398e-06
1.72644e-05
5.03324e-07
4.8895e-06
1.81172e-05
4.71645e-07
4.50905e-06
1.92382e-05
4.36698e-07
4.08786e-06
2.08894e-05
3.94763e-07
3.62444e-06
2.37882e-05
3.41274e-07
3.14383e-06
2.9978e-05
2.7243e-07
2.66778e-06
4.25989e-05
1.87334e-07
1.81718e-06
5.4632e-05
9.3425e-08
8.99677e-07
5.44278e-05
9.6476e-08
4.41172e-05
2.33745e-07
-2.46808e-07
-2.95013e-05
3.78666e-07
1.15671e-06
-4.189e-05
4.6529e-07
3.02261e-06
-4.39965e-05
3.37298e-07
4.67457e-06
-4.36048e-05
2.59274e-07
5.55976e-06
-4.16797e-05
2.113e-07
5.104e-06
-3.83794e-05
1.79831e-07
3.63422e-06
-3.46507e-05
2.22637e-07
3.43044e-06
-3.14108e-05
4.19173e-07
5.88875e-06
-2.8107e-05
8.28949e-07
1.06768e-05
-2.39751e-05
1.35892e-06
1.6393e-05
-1.89495e-05
1.84397e-06
2.13511e-05
-1.31742e-05
2.18308e-06
2.44807e-05
-7.3151e-06
2.32068e-06
2.54555e-05
-2.01254e-06
2.26468e-06
2.46049e-05
2.41864e-06
2.08443e-06
2.2848e-05
5.76717e-06
1.863e-06
2.10622e-05
8.19198e-06
1.65765e-06
1.95994e-05
1.00838e-05
1.48951e-06
1.83754e-05
1.16637e-05
1.35201e-06
1.72259e-05
1.29529e-05
1.23204e-06
1.60875e-05
1.39597e-05
1.12378e-06
1.49661e-05
1.47574e-05
1.02685e-06
1.38769e-05
1.54395e-05
9.41223e-07
1.28249e-05
1.60821e-05
8.65755e-07
1.1807e-05
1.6744e-05
7.98614e-07
1.08179e-05
1.7481e-05
7.37472e-07
9.85427e-06
1.83658e-05
6.79371e-07
8.91325e-06
1.95229e-05
6.20315e-07
7.98161e-06
2.12322e-05
5.54245e-07
7.00015e-06
2.42758e-05
4.71566e-07
5.78581e-06
3.08719e-05
3.68875e-07
4.3106e-06
4.40386e-05
2.95409e-07
2.89889e-06
5.60524e-05
2.67935e-07
1.40191e-06
5.58205e-05
2.93606e-07
4.52425e-05
3.6543e-07
3.11069e-06
-3.32225e-05
6.85774e-07
6.16347e-06
-4.6734e-05
1.77301e-06
9.56437e-06
-4.90162e-05
1.53661e-06
1.31686e-05
-4.83686e-05
1.0458e-06
1.65328e-05
-4.5691e-05
5.33751e-07
1.90291e-05
-4.09666e-05
2.79892e-08
1.99118e-05
-3.51554e-05
-3.56184e-07
1.88208e-05
-2.96248e-05
-6.01934e-07
1.68671e-05
-2.53697e-05
-6.61531e-07
1.60099e-05
-2.24589e-05
-5.37665e-07
1.7409e-05
-2.00291e-05
-2.20441e-07
2.10847e-05
-1.71112e-05
3.23501e-07
2.61808e-05
-1.33356e-05
9.5372e-07
3.12044e-05
-8.55839e-06
1.53437e-06
3.48053e-05
-3.09915e-06
1.93467e-06
3.60978e-05
2.43169e-06
2.07466e-06
3.51654e-05
7.1565e-06
2.00124e-06
3.2944e-05
1.04908e-05
1.84183e-06
3.03271e-05
1.2619e-05
1.68079e-06
2.77018e-05
1.40432e-05
1.54107e-06
2.5164e-05
1.50705e-05
1.41832e-06
2.27464e-05
1.58485e-05
1.30624e-06
2.04778e-05
1.64781e-05
1.2025e-06
1.83801e-05
1.70415e-05
1.1066e-06
1.64616e-05
1.76097e-05
1.01844e-06
1.47167e-05
1.82516e-05
9.37736e-07
1.31315e-05
1.9049e-05
8.63571e-07
1.16903e-05
2.01298e-05
7.93642e-07
1.03753e-05
2.17817e-05
7.22489e-07
9.11916e-06
2.48551e-05
6.36476e-07
7.61259e-06
3.18654e-05
5.09843e-07
5.65483e-06
4.57366e-05
3.84515e-07
3.74178e-06
5.78016e-05
3.53446e-07
1.79964e-06
5.754e-05
3.70132e-07
4.6708e-05
4.02643e-07
4.64447e-06
-3.93286e-05
1.52465e-06
6.66261e-06
-5.2031e-05
3.04049e-06
8.05053e-06
-5.3715e-05
2.92134e-06
9.4817e-06
-5.26348e-05
2.39517e-06
1.1103e-05
-4.93588e-05
1.62309e-06
1.32186e-05
-4.41395e-05
7.09102e-07
1.59182e-05
-3.79797e-05
-1.21867e-07
1.84503e-05
-3.15389e-05
-7.57446e-07
1.97406e-05
-2.55095e-05
-1.19301e-06
1.9482e-05
-2.07538e-05
-1.42585e-06
1.85133e-05
-1.75258e-05
-1.47873e-06
1.82507e-05
-1.53747e-05
-1.39237e-06
1.97639e-05
-1.35901e-05
-1.15805e-06
2.33349e-05
-1.13536e-05
-6.86725e-07
2.8309e-05
-8.03605e-06
1.26264e-08
3.33623e-05
-3.39292e-06
7.89232e-07
3.66634e-05
2.46666e-06
1.40357e-06
3.73393e-05
8.15046e-06
1.68891e-06
3.60453e-05
1.22208e-05
1.71217e-06
3.38471e-05
1.46166e-05
1.63426e-06
3.13767e-05
1.60056e-05
1.53575e-06
2.88594e-05
1.69188e-05
1.43762e-06
2.63681e-05
1.76075e-05
1.3419e-06
2.39432e-05
1.81908e-05
1.24659e-06
2.16202e-05
1.87472e-05
1.14994e-06
1.94291e-05
1.93507e-05
1.05157e-06
1.73908e-05
2.00893e-05
9.52481e-07
1.55161e-05
2.10974e-05
8.54098e-07
1.3796e-05
2.26763e-05
7.56104e-07
1.20975e-05
2.57889e-05
6.5207e-07
9.8078e-06
3.34577e-05
5.21491e-07
7.14238e-06
4.79456e-05
3.93748e-07
4.62596e-06
6.00168e-05
3.58397e-07
2.16384e-06
5.96753e-05
3.73377e-07
4.84957e-05
3.78247e-07
-1.18102e-06
-4.1401e-05
2.90174e-06
-3.23345e-06
-5.43087e-05
3.72339e-06
-4.86078e-06
-5.62443e-05
3.49426e-06
-5.71261e-06
-5.57149e-05
3.24125e-06
-5.20715e-06
-5.33027e-05
2.71786e-06
-3.00072e-06
-4.89778e-05
1.94845e-06
5.65796e-07
-4.31787e-05
1.06315e-06
5.03035e-06
-3.66235e-05
1.9013e-07
9.74423e-06
-2.99531e-05
-5.65843e-07
1.37098e-05
-2.3747e-05
-1.14976e-06
1.62872e-05
-1.86581e-05
-1.53556e-06
1.7561e-05
-1.49433e-05
-1.74283e-06
1.81162e-05
-1.23351e-05
-1.81411e-06
1.89209e-05
-1.03564e-05
-1.77576e-06
2.10273e-05
-8.48181e-06
-1.60165e-06
2.4862e-05
-5.98666e-06
-1.16763e-06
2.97582e-05
-1.97324e-06
-4.0813e-07
3.38993e-05
3.60452e-06
4.27139e-07
3.56942e-05
9.44163e-06
9.98482e-07
3.53849e-05
1.36886e-05
1.24488e-06
3.39686e-05
1.61113e-05
1.30942e-06
3.20976e-05
1.74803e-05
1.30298e-06
3.00336e-05
1.83924e-05
1.26968e-06
2.78784e-05
1.91089e-05
1.22436e-06
2.56941e-05
1.97436e-05
1.17064e-06
2.35382e-05
2.03768e-05
1.10718e-06
2.14679e-05
2.10991e-05
1.03101e-06
1.95319e-05
2.20527e-05
9.39192e-07
1.77218e-05
2.35853e-05
8.27762e-07
1.56842e-05
2.69501e-05
6.84451e-07
1.21186e-05
3.60167e-05
4.74921e-07
7.61213e-06
5.14637e-05
2.89232e-07
4.47415e-06
6.25694e-05
2.44073e-07
1.8751e-06
6.17912e-05
2.52798e-07
4.99191e-05
2.46633e-07
-9.36573e-06
-3.61678e-05
3.48423e-06
-1.38252e-05
-5.29959e-05
2.72613e-06
-1.50023e-05
-5.74295e-05
2.11907e-06
-1.45845e-05
-5.87037e-05
2.34402e-06
-1.25622e-05
-5.83342e-05
2.65877e-06
-8.6485e-06
-5.6209e-05
2.80166e-06
-3.21016e-06
-5.18103e-05
2.60302e-06
2.77029e-06
-4.52027e-05
2.04866e-06
8.5702e-06
-3.74595e-05
1.25683e-06
1.38013e-05
-2.9688e-05
3.79016e-07
1.80258e-05
-2.27106e-05
-3.90896e-07
2.10524e-05
-1.71037e-05
-9.98759e-07
2.30125e-05
-1.29564e-05
-1.415e-06
2.41914e-05
-9.90884e-06
-1.66795e-06
2.49538e-05
-7.47083e-06
-1.78975e-06
2.59164e-05
-5.15764e-06
-1.7816e-06
2.79064e-05
-2.36048e-06
-1.56134e-06
3.06514e-05
1.8687e-06
-9.59298e-07
3.26041e-05
7.66673e-06
-1.40261e-07
3.2723e-05
1.31168e-05
4.79494e-07
3.14243e-05
1.66379e-05
7.85509e-07
2.94895e-05
1.85065e-05
9.10994e-07
2.73407e-05
1.95764e-05
9.61254e-07
2.51376e-05
2.03263e-05