/*--------------------------------*- C++ -*----------------------------------*\
| =========                 |                                                 |
| \\      /  F ield         | OpenFOAM: The Open Source CFD Toolbox           |
|  \\    /   O peration     | Version:  v2006                                 |
|   \\  /    A nd           | Website:  www.openfoam.com                      |
|    \\/     M anipulation  |                                                 |
\*---------------------------------------------------------------------------*/
FoamFile
{
    version     2.0;
    format      ascii;
    class       volVectorField;
    location    "87";
    object      U;
}
// * * * * * * * * * * * * * * * * * * * * * * * * * * * * * * * * * * * * * //

dimensions      [0 1 -1 0 0 0 0];


internalField   nonuniform List<vector> 
78750
(
(-0.365414 -0.246948 -0.0470176)
(-0.313789 -0.23638 -0.0416276)
(-0.301095 -0.211281 -0.0303976)
(-0.245131 -0.179308 -0.015705)
(-0.17798 -0.132393 -0.000402171)
(-0.155599 -0.102247 0.000761405)
(-0.134851 -0.0850622 3.53082e-05)
(-0.115 -0.0693133 -0.00260409)
(-0.0938346 -0.0572292 -0.00510833)
(-0.0794928 -0.0487285 -0.00849191)
(-0.0666879 -0.041533 -0.0113181)
(-0.0563447 -0.0354535 -0.0138162)
(-0.0473561 -0.0299759 -0.0158911)
(-0.0395223 -0.0248851 -0.017565)
(-0.0322726 -0.0201372 -0.0188751)
(-0.0256323 -0.0157589 -0.0199044)
(-0.0195016 -0.0117403 -0.020708)
(-0.0138442 -0.00811095 -0.0213466)
(-0.00867714 -0.00490506 -0.021885)
(-0.00397169 -0.00210909 -0.0223754)
(0.00032202 0.000334706 -0.0228687)
(0.00423066 0.00249816 -0.0234195)
(0.00775923 0.00444829 -0.0240833)
(0.0109187 0.00624283 -0.0249189)
(0.0137244 0.00793379 -0.0259833)
(0.0161864 0.00956873 -0.0273329)
(0.0183065 0.0111929 -0.0290249)
(0.0200789 0.0128486 -0.0311237)
(0.0214861 0.0145819 -0.0336958)
(0.0224914 0.0164209 -0.0368191)
(0.0230231 0.0183626 -0.0405192)
(0.023024 0.0205175 -0.0448196)
(0.0221619 0.023569 -0.0501071)
(0.0221305 0.0318872 -0.0585619)
(0.0121751 0.0784928 -0.0431497)
(0.0453413 -0.246311 0.0136275)
(-0.0534877 -0.273329 0.00373153)
(-0.0146569 -0.340395 -0.000623384)
(-0.0320952 -0.387915 0.00491623)
(-0.0383176 -0.360847 0.0150803)
(-0.0342346 -0.301076 0.0267509)
(-0.0289305 -0.239373 0.036481)
(-0.0207105 -0.186695 0.0430712)
(-0.0131699 -0.14045 0.0452779)
(-0.0060011 -0.101788 0.0430951)
(-0.000522295 -0.072318 0.0367475)
(0.0028581 -0.0521018 0.0272444)
(0.00380955 -0.0395185 0.0159571)
(0.00266432 -0.0319809 0.00420821)
(-0.000342738 -0.0269632 -0.00677109)
(-0.00441467 -0.022568 -0.0157416)
(-0.00848832 -0.0182249 -0.0223336)
(-0.0118483 -0.0139515 -0.0269284)
(-0.0140098 -0.00974169 -0.0300983)
(-0.0147895 -0.00566227 -0.0323699)
(-0.0142713 -0.00170302 -0.0340423)
(-0.0127008 0.00218297 -0.0352615)
(-0.0103714 0.00599389 -0.0361174)
(-0.00756359 0.00971584 -0.0366791)
(-0.00449401 0.0133705 -0.0369979)
(-0.00131975 0.0170145 -0.0371073)
(0.00184564 0.020729 -0.0370186)
(0.00491035 0.0246205 -0.0367169)
(0.00778137 0.0288328 -0.0361578)
(0.0103414 0.0335778 -0.0352749)
(0.0124302 0.0392522 -0.0339649)
(0.0139113 0.0469382 -0.0319995)
(0.0145326 0.0615127 -0.0287688)
(0.0137345 0.113647 -0.0247903)
(0.00479444 0.22757 -0.0155236)
(-0.0178371 -0.0290784 -0.0466237)
(-0.00937873 -0.132756 -0.0608111)
(-0.0211681 -0.173797 -0.0691286)
(-0.0226474 -0.199612 -0.0748089)
(-0.0247983 -0.228755 -0.0756317)
(-0.0245842 -0.247204 -0.0720318)
(-0.0210294 -0.249161 -0.0649151)
(-0.0138764 -0.231706 -0.0525357)
(-0.00477588 -0.200209 -0.0371354)
(0.00480198 -0.161341 -0.0206805)
(0.0144827 -0.116879 -0.00349089)
(0.023303 -0.0685269 0.0135695)
(0.0304572 -0.0189245 0.028696)
(0.035284 0.0272482 0.0389388)
(0.0375016 0.0624255 0.0412187)
(0.0372524 0.0822432 0.0358762)
(0.0354475 0.0889535 0.0253496)
(0.0325572 0.0861493 0.0109958)
(0.0287096 0.0756653 -0.00536863)
(0.0247412 0.0618127 -0.0198858)
(0.0213022 0.0493114 -0.0304831)
(0.0185559 0.0402414 -0.0375188)
(0.0165391 0.0346226 -0.0421615)
(0.0152177 0.0318035 -0.0453382)
(0.0144839 0.0311591 -0.0475467)
(0.0142066 0.0322111 -0.0490238)
(0.0142674 0.0346221 -0.0498956)
(0.0145549 0.0382091 -0.0502441)
(0.0149446 0.0429687 -0.0501241)
(0.015287 0.0491385 -0.0495607)
(0.0154198 0.0574347 -0.0485162)
(0.0151741 0.0702225 -0.0467365)
(0.014027 0.0975774 -0.0431199)
(0.0113916 0.180602 -0.0335041)
(0.00310252 0.301123 -0.0131748)
(0.00383354 -0.122824 0.0147987)
(0.0135611 -0.242667 0.0143221)
(0.0240799 -0.304449 0.00308682)
(0.0300157 -0.329512 -0.00872542)
(0.033555 -0.332243 -0.0187778)
(0.0352535 -0.323667 -0.028224)
(0.0354364 -0.308183 -0.0380974)
(0.0348836 -0.288916 -0.0480194)
(0.034495 -0.2663 -0.0563091)
(0.0348394 -0.239799 -0.0614705)
(0.0360895 -0.209582 -0.0623579)
(0.0384706 -0.176254 -0.0582386)
(0.0421632 -0.140346 -0.0490433)
(0.0470708 -0.102529 -0.0356599)
(0.0525935 -0.0639484 -0.0197617)
(0.0577664 -0.0251043 -0.002769)
(0.0611911 0.0108057 0.0124476)
(0.0612718 0.0393214 0.0223417)
(0.0585485 0.0592437 0.0261194)
(0.0542018 0.0719701 0.0249)
(0.048593 0.0787448 0.0192734)
(0.0419363 0.080246 0.00957367)
(0.035298 0.078681 -0.00200051)
(0.0297255 0.0768393 -0.0125257)
(0.0255274 0.075745 -0.0206541)
(0.022565 0.0753842 -0.0264265)
(0.0205646 0.0757892 -0.0303217)
(0.0192435 0.0772068 -0.0327903)
(0.0183368 0.0800184 -0.0341484)
(0.0175993 0.0847821 -0.0345959)
(0.0167952 0.0925594 -0.0342065)
(0.0155965 0.106587 -0.0328608)
(0.0130033 0.141202 -0.0302123)
(0.00846591 0.244238 -0.0242198)
(0.000981077 0.356338 -0.00748578)
(0.0032613 -0.147386 -0.0271225)
(0.0127502 -0.254358 -0.056076)
(0.0188142 -0.281232 -0.0640637)
(0.0229817 -0.287356 -0.0649235)
(0.0255569 -0.285894 -0.0639332)
(0.0272659 -0.27845 -0.0622282)
(0.0284773 -0.263836 -0.0596748)
(0.0291403 -0.23995 -0.0563014)
(0.0290446 -0.207222 -0.053006)
(0.0282664 -0.169031 -0.0508693)
(0.0270748 -0.129088 -0.0503191)
(0.0256584 -0.0902157 -0.0508102)
(0.0241767 -0.0543653 -0.0507603)
(0.0228272 -0.0214562 -0.0478831)
(0.0216645 0.0115802 -0.0396977)
(0.0208283 0.0491612 -0.0239725)
(0.0203035 0.0914758 -0.00303091)
(0.0183893 0.126922 0.0124857)
(0.0156646 0.146149 0.0173732)
(0.0134612 0.155939 0.0162115)
(0.0117005 0.161326 0.0115366)
(0.0101503 0.161656 0.00321339)
(0.00886325 0.154674 -0.00780674)
(0.00800943 0.142004 -0.018219)
(0.00764572 0.128372 -0.0258974)
(0.00771026 0.117352 -0.0308627)
(0.00809163 0.110308 -0.0338566)
(0.00866064 0.107181 -0.035545)
(0.00930358 0.10765 -0.036329)
(0.00993212 0.112029 -0.0363575)
(0.0104521 0.122263 -0.0355477)
(0.0106523 0.145263 -0.0335278)
(0.00975133 0.203717 -0.0295157)
(0.00680915 0.322214 -0.022117)
(0.000502424 0.404279 -0.00677609)
(0.00355846 -0.222916 -0.0124739)
(0.00701163 -0.334898 -0.0146892)
(0.00831849 -0.357606 -0.0182438)
(0.00896369 -0.35839 -0.0224907)
(0.00939819 -0.350243 -0.0271573)
(0.0094125 -0.33475 -0.0326192)
(0.00883663 -0.311925 -0.039067)
(0.00769248 -0.282647 -0.0459781)
(0.00625245 -0.248818 -0.0519248)
(0.00485322 -0.211794 -0.055267)
(0.00371642 -0.171933 -0.0551382)
(0.00283981 -0.129685 -0.0520157)
(0.00192117 -0.0872621 -0.0474553)
(0.000600021 -0.0478771 -0.0423425)
(-0.00107766 -0.0116944 -0.0354336)
(-0.00307788 0.0251681 -0.0243212)
(-0.00496811 0.0656916 -0.00908314)
(-0.00597478 0.10266 0.00322217)
(-0.00575785 0.123592 0.00681383)
(-0.00473814 0.13269 0.00580377)
(-0.00319036 0.137701 0.00319802)
(-0.00114064 0.140208 -0.00073354)
(0.00110584 0.139836 -0.00567713)
(0.00328128 0.13674 -0.0109555)
(0.00519841 0.132108 -0.015863)
(0.00684086 0.127553 -0.0200241)
(0.00823063 0.124389 -0.0233037)
(0.00937458 0.123334 -0.0257076)
(0.0102518 0.12478 -0.0272866)
(0.0107918 0.129315 -0.0280689)
(0.0108826 0.138671 -0.027988)
(0.0102495 0.159654 -0.026823)
(0.00822743 0.221647 -0.0241113)
(0.00557324 0.36005 -0.0181626)
(0.000474457 0.431882 -0.00527557)
(0.00123579 -0.207306 -0.0237314)
(0.00271389 -0.274038 -0.0323391)
(0.0043302 -0.285306 -0.0340312)
(0.00503325 -0.285097 -0.0345867)
(0.00515363 -0.278319 -0.0352139)
(0.00462205 -0.264437 -0.0362442)
(0.00331833 -0.241503 -0.0380001)
(0.00130624 -0.209683 -0.0409564)
(-0.00116341 -0.172448 -0.0454172)
(-0.00384743 -0.133916 -0.0506947)
(-0.00644657 -0.0961381 -0.0548164)
(-0.00856615 -0.0584032 -0.0555045)
(-0.00995342 -0.0191758 -0.0517288)
(-0.0108432 0.0212063 -0.0441879)
(-0.01172 0.0606688 -0.0337078)
(-0.0129387 0.0975277 -0.0204962)
(-0.0146326 0.128319 -0.00710067)
(-0.0159806 0.146639 0.000492622)
(-0.0163726 0.154555 0.00214914)
(-0.0161532 0.158442 0.0010486)
(-0.0154393 0.160349 -0.00184001)
(-0.0142451 0.159861 -0.0064718)
(-0.0125184 0.156085 -0.0125824)
(-0.0102787 0.149516 -0.0189381)
(-0.00770816 0.14288 -0.0240245)
(-0.00504353 0.138432 -0.0275232)
(-0.0024324 0.13681 -0.02985)
(7.62367e-05 0.138099 -0.0313851)
(0.00244663 0.142723 -0.032281)
(0.00459499 0.152009 -0.0324916)
(0.00633834 0.169372 -0.0316939)
(0.00723883 0.204577 -0.0291084)
(0.00584229 0.284626 -0.0236722)
(0.00341205 0.415576 -0.0160569)
(-0.000277867 0.460429 -0.00508293)
(-0.000486681 -0.232647 -0.000272662)
(-0.00111301 -0.332799 -0.00150555)
(-0.00157657 -0.347706 -0.0051532)
(-0.00212822 -0.344922 -0.00855489)
(-0.00320894 -0.331804 -0.0125772)
(-0.00499009 -0.308364 -0.0173547)
(-0.00732583 -0.275806 -0.0220534)
(-0.0096452 -0.237321 -0.0256363)
(-0.0114163 -0.195834 -0.0280779)
(-0.0125393 -0.153409 -0.0305384)
(-0.0133493 -0.112261 -0.0340732)
(-0.0142741 -0.0744138 -0.0379423)
(-0.015354 -0.0395596 -0.0395866)
(-0.016115 -0.00448336 -0.0365768)
(-0.0161302 0.0339254 -0.0280036)
(-0.0153315 0.0754005 -0.0147281)
(-0.0141019 0.114428 -0.000370106)
(-0.0131725 0.140035 0.00808938)
(-0.0125776 0.150003 0.00927255)
(-0.0119839 0.153777 0.00781939)
(-0.0111662 0.1552 0.00489725)
(-0.0100095 0.154712 0.000550256)
(-0.00859508 0.151932 -0.00511407)
(-0.00704402 0.14709 -0.0114076)
(-0.00545439 0.14181 -0.0171221)
(-0.00382529 0.138004 -0.0215315)
(-0.00211087 0.136602 -0.0247234)
(-0.00028973 0.137973 -0.0270495)
(0.00160861 0.142726 -0.0287677)
(0.00348989 0.152404 -0.0299892)
(0.00517976 0.171175 -0.0305717)
(0.00623573 0.211833 -0.0296904)
(0.00526138 0.30849 -0.0248615)
(0.00317381 0.449641 -0.0160646)
(-7.16734e-06 0.477236 -0.00535623)
(-0.000359198 -0.192148 -0.0150189)
(0.000830505 -0.253891 -0.022498)
(0.00175372 -0.26338 -0.0257206)
(0.00260505 -0.25945 -0.02903)
(0.00303216 -0.245657 -0.0336475)
(0.00248402 -0.223735 -0.0391046)
(0.00102411 -0.197699 -0.0437844)
(-0.00081417 -0.170388 -0.0462816)
(-0.00256783 -0.141901 -0.04585)
(-0.00386999 -0.110294 -0.0424964)
(-0.0043923 -0.0732402 -0.0374587)
(-0.00409136 -0.0310783 -0.0332508)
(-0.00332309 0.0108095 -0.0316797)
(-0.00256427 0.0454457 -0.0313677)
(-0.0019059 0.0721277 -0.0292614)
(-0.000976965 0.0957263 -0.0234461)
(0.000615869 0.120399 -0.013371)
(0.00260801 0.143764 -0.00152145)
(0.00393235 0.157043 0.00606282)
(0.00432396 0.160549 0.00824033)
(0.00440096 0.160862 0.00809846)
(0.00440523 0.159935 0.00655879)
(0.00440739 0.157979 0.00380639)
(0.00438605 0.155115 5.65889e-05)
(0.00431461 0.1519 -0.00419443)
(0.00424775 0.149382 -0.00831236)
(0.00428442 0.148611 -0.0118831)
(0.00448648 0.150441 -0.0148447)
(0.00487124 0.156011 -0.0173477)
(0.0054262 0.16787 -0.0196259)
(0.00607393 0.192605 -0.0218497)
(0.006438 0.246794 -0.0236691)
(0.00495519 0.358283 -0.0222678)
(0.00285186 0.487167 -0.0154754)
(0.000118807 0.494824 -0.00576367)
(0.0029231 -0.231362 0.00865212)
(0.00859412 -0.328244 0.0111303)
(0.0112555 -0.342463 0.0067593)
(0.01275 -0.334945 4.98528e-05)
(0.0132846 -0.311538 -0.00991385)
(0.0119788 -0.277201 -0.0210472)
(0.00947353 -0.238529 -0.0309314)
(0.0066663 -0.199609 -0.0387635)
(0.00402047 -0.163585 -0.044119)
(0.00178669 -0.132328 -0.0464995)
(0.000156714 -0.104477 -0.0458225)
(-0.000494939 -0.0760251 -0.042468)
(7.06467e-05 -0.0430776 -0.0374878)
(0.00153221 -0.00567363 -0.0328957)
(0.00326085 0.031276 -0.0298911)
(0.00486332 0.0634674 -0.0271794)
(0.00652936 0.0913434 -0.0226022)
(0.00851027 0.116987 -0.0151158)
(0.0105333 0.139459 -0.00589519)
(0.0118827 0.154348 0.00162542)
(0.0123099 0.160502 0.0052427)
(0.0122512 0.162343 0.00629533)
(0.0119404 0.162369 0.00591817)
(0.0114271 0.161383 0.00447752)
(0.0107562 0.159849 0.00217833)
(0.00999509 0.158403 -0.000684833)
(0.00923356 0.157912 -0.00373367)
(0.00855624 0.159334 -0.00667037)
(0.00801605 0.163849 -0.00940417)
(0.00761462 0.173897 -0.0120518)
(0.00726672 0.196717 -0.0148566)
(0.0065838 0.254447 -0.0178482)
(0.00443119 0.384227 -0.0185792)
(0.00247465 0.515556 -0.0136833)
(0.000307675 0.507941 -0.00546532)
(0.00415853 -0.264621 0.0046674)
(0.00652105 -0.311866 -0.00407884)
(0.00686594 -0.307778 -0.0140828)
(0.00525016 -0.276922 -0.0291285)
(0.00126597 -0.223549 -0.0488572)
(-0.00328753 -0.173467 -0.0637401)
(-0.0063472 -0.136367 -0.0705522)
(-0.00765402 -0.107889 -0.0717383)
(-0.00763771 -0.0824644 -0.0699277)
(-0.00676043 -0.0573537 -0.0664771)
(-0.00547898 -0.0323461 -0.0619694)
(-0.00406902 -0.00793918 -0.0566357)
(-0.00249719 0.016284 -0.0505944)
(-0.000570099 0.04149 -0.0442558)
(0.00173728 0.0676107 -0.0386082)
(0.00412315 0.092064 -0.0343335)
(0.00632 0.112459 -0.0306444)
(0.00838195 0.129296 -0.0261503)
(0.0104263 0.144052 -0.0200254)
(0.0122459 0.156509 -0.0126961)
(0.0133969 0.165045 -0.00599033)
(0.0137868 0.169673 -0.00120126)
(0.0136151 0.171874 0.00176753)
(0.0130691 0.172777 0.00333135)
(0.0122464 0.17303 0.00371482)
(0.0112261 0.173234 0.00307873)
(0.0100941 0.174179 0.00165262)
(0.00894768 0.176908 -0.000289087)
(0.00787772 0.18298 -0.00255812)
(0.00694713 0.195871 -0.00519531)
(0.00622412 0.225429 -0.00848619)
(0.00561936 0.29658 -0.0124603)
(0.0036909 0.43458 -0.0148175)
(0.0021479 0.545715 -0.0118026)
(0.000576841 0.523477 -0.00524335)
(0.00192102 -0.318459 0.0295219)
(0.00323469 -0.38291 0.0231593)
(0.00192614 -0.37517 0.00758491)
(-0.00218453 -0.322256 -0.0182603)
(-0.00995903 -0.2531 -0.0435807)
(-0.0163366 -0.205726 -0.0581095)
(-0.019383 -0.175091 -0.0651631)
(-0.0201791 -0.151485 -0.0682536)
(-0.0194671 -0.130217 -0.0689603)
(-0.0176628 -0.10922 -0.0678368)
(-0.0151102 -0.0873728 -0.0650738)
(-0.0121217 -0.0638534 -0.060764)
(-0.0089863 -0.037939 -0.0550609)
(-0.00591166 -0.00916294 -0.0484115)
(-0.00297065 0.0220052 -0.0418791)
(-0.000190701 0.0534123 -0.036787)
(0.00237178 0.0822273 -0.0333903)
(0.00470011 0.107023 -0.0305564)
(0.00683214 0.1282 -0.0268302)
(0.00875138 0.146338 -0.0213657)
(0.0102909 0.160697 -0.0146469)
(0.0113027 0.170299 -0.00835232)
(0.0118362 0.175913 -0.00356992)
(0.0120146 0.179092 -0.000299933)
(0.0119059 0.180966 0.00171599)
(0.0115394 0.182317 0.00265334)
(0.0109455 0.183879 0.00265629)
(0.0101647 0.186528 0.001901)
(0.00925351 0.191522 0.000575373)
(0.00825642 0.201583 -0.00123968)
(0.00714377 0.225855 -0.00376357)
(0.00588609 0.296433 -0.00726543)
(0.00397905 0.452891 -0.00987834)
(0.002607 0.564692 -0.00802936)
(0.00107493 0.533725 -0.00314508)
(-0.00285605 -0.322656 0.0291188)
(-0.00580506 -0.365398 0.0171239)
(-0.00874342 -0.341263 -0.00476908)
(-0.0115829 -0.246622 -0.0437383)
(-0.0126831 -0.155843 -0.0685118)
(-0.0146091 -0.116296 -0.0728541)
(-0.0167278 -0.0970962 -0.0717102)
(-0.0182687 -0.0819362 -0.0698313)
(-0.0188337 -0.0663457 -0.067834)
(-0.0184276 -0.0496198 -0.0654951)
(-0.0173346 -0.0318325 -0.0623777)
(-0.0158429 -0.0126717 -0.0580347)
(-0.014154 0.00864392 -0.0521428)
(-0.0123897 0.0326531 -0.0448653)
(-0.0106093 0.0584348 -0.0374318)
(-0.00890442 0.0833569 -0.0317604)
(-0.00736039 0.104982 -0.0283655)
(-0.00594638 0.123246 -0.0258978)
(-0.00454062 0.139302 -0.0228544)
(-0.00302169 0.153543 -0.0185188)
(-0.00137865 0.165215 -0.0132724)
(0.000271164 0.173678 -0.00822026)
(0.00181444 0.179413 -0.00410495)
(0.0031918 0.183416 -0.00104919)
(0.00437296 0.186571 0.00103185)
(0.00534154 0.189622 0.00223196)
(0.00609225 0.193328 0.00264096)
(0.00662822 0.198669 0.00235642)
(0.00696277 0.207295 0.00145484)
(0.00710919 0.223045 -8.71444e-05)
(0.00699737 0.257044 -0.00247759)
(0.00602602 0.339213 -0.00570029)
(0.00351751 0.495282 -0.00736995)
(0.00216712 0.589734 -0.00546072)
(0.00100329 0.550069 -0.00182481)
(-0.00667333 -0.30444 0.0412913)
(-0.0103114 -0.398946 0.038691)
(-0.0113793 -0.40026 0.0280815)
(-0.00747285 -0.358461 0.0119448)
(0.00251038 -0.269931 -0.0134631)
(0.0096757 -0.194619 -0.0333196)
(0.00913026 -0.15432 -0.0431154)
(0.00521849 -0.131711 -0.0468448)
(0.00113455 -0.113439 -0.0481658)
(-0.00185956 -0.0950422 -0.0484157)
(-0.00352069 -0.0755834 -0.0477271)
(-0.00407396 -0.0546616 -0.0457926)
(-0.00374531 -0.0315387 -0.0422147)
(-0.00280489 -0.00525931 -0.0366814)
(-0.00163391 0.0245326 -0.0294564)
(-0.000648628 0.0563475 -0.0220815)
(-9.74512e-05 0.0863969 -0.0166156)
(9.53765e-05 0.111482 -0.0132851)
(0.000280711 0.130986 -0.0106992)
(0.000755552 0.145683 -0.00792222)
(0.00160079 0.156512 -0.00492052)
(0.00271906 0.164363 -0.0020421)
(0.00396746 0.17011 0.000432566)
(0.00523649 0.174543 0.00238351)
(0.00645657 0.178331 0.00377435)
(0.0075856 0.18207 0.00459717)
(0.00859488 0.186401 0.00486779)
(0.0094497 0.192168 0.00462044)
(0.0100933 0.200822 0.00388284)
(0.0104429 0.216109 0.00258973)
(0.010238 0.250949 0.000369463)
(0.00857782 0.345502 -0.00307422)
(0.00479361 0.520876 -0.00486572)
(0.00267438 0.606362 -0.00326763)
(0.00152789 0.561113 -0.000715473)
(-0.00193657 -0.293436 0.0280992)
(-0.00200495 -0.424914 0.027155)
(-0.00227651 -0.448119 0.0284232)
(-0.000883938 -0.441505 0.0313098)
(0.00402088 -0.374624 0.0279862)
(0.0139796 -0.235255 0.00836974)
(0.0189722 -0.118601 -0.0157686)
(0.016493 -0.062486 -0.030532)
(0.0121045 -0.0400938 -0.0369273)
(0.00805481 -0.0279573 -0.0396043)
(0.00465593 -0.0172726 -0.0405596)
(0.00212492 -0.00496781 -0.0402078)
(0.000566278 0.0103179 -0.0382445)
(-0.000185005 0.0293802 -0.034031)
(-0.000332865 0.0525642 -0.0270191)
(-3.6676e-06 0.0789273 -0.0177913)
(0.000480125 0.104862 -0.00886455)
(0.000826375 0.125551 -0.00282885)
(0.00107801 0.139702 0.00044711)
(0.00143437 0.149386 0.0024093)
(0.00199892 0.156543 0.00387383)
(0.00276906 0.162184 0.00507695)
(0.00367564 0.166865 0.00605)
(0.00464412 0.171039 0.00677249)
(0.00562358 0.175172 0.00721484)
(0.00658222 0.179797 0.0073536)
(0.00749575 0.185611 0.00717785)
(0.00833642 0.193709 0.00668177)
(0.00906182 0.206336 0.00583102)
(0.0095649 0.229445 0.00446667)
(0.00945291 0.280309 0.0020623)
(0.00757028 0.39513 -0.00183515)
(0.0037239 0.565886 -0.00385774)
(0.00168228 0.630478 -0.0026269)
(0.00114087 0.576453 -0.000652353)
(0.0008956 -0.324395 0.0105098)
(-0.00226736 -0.452988 -0.00178867)
(-0.00755919 -0.475948 -0.00487689)
(-0.0131471 -0.473579 -0.00218449)
(-0.0187685 -0.448881 0.00811182)
(-0.0171335 -0.355961 0.0177985)
(-0.00749027 -0.219464 0.00958546)
(-0.00172713 -0.126654 -0.00549981)
(0.000105128 -0.0810991 -0.0159417)
(5.84187e-05 -0.05733 -0.0217106)
(-0.000571368 -0.0405203 -0.0250582)
(-0.00121935 -0.024911 -0.0270741)
(-0.00162769 -0.00816893 -0.0279443)
(-0.00156976 0.0108779 -0.0273349)
(-0.000969452 0.0330106 -0.024565)
(2.6313e-06 0.0585584 -0.0189766)
(0.00118859 0.0862098 -0.0108767)
(0.00232743 0.111879 -0.00232465)
(0.00323889 0.131017 0.00425625)
(0.00394204 0.143074 0.00828957)
(0.00453665 0.150696 0.010606)
(0.00509877 0.156144 0.0119633)
(0.00563717 0.160564 0.0127313)
(0.0061342 0.16455 0.0130678)
(0.0065777 0.168567 0.0130511)
(0.0069634 0.173115 0.0127302)
(0.00728931 0.178834 0.0121438)
(0.00754998 0.186744 0.0113251)
(0.00773029 0.199051 0.0102763)
(0.00776791 0.222271 0.00886233)
(0.0074781 0.277704 0.00653672)
(0.00606764 0.410863 0.00228578)
(0.00296205 0.591315 -0.00102274)
(0.00126049 0.645045 -0.000706629)
(0.000971313 0.583308 0.000750131)
(-0.00110814 -0.299778 0.00134826)
(-0.00726487 -0.388021 -0.0104214)
(-0.0129829 -0.401029 -0.0167035)
(-0.0190788 -0.398193 -0.0191907)
(-0.0254149 -0.38389 -0.0170088)
(-0.0294561 -0.348685 -0.00600342)
(-0.0239636 -0.257538 0.00585359)
(-0.0131321 -0.152366 0.0057672)
(-0.00506879 -0.0826244 6.03552e-05)
(-0.000748843 -0.0448544 -0.0054449)
(0.000571483 -0.023394 -0.00945345)
(0.000183108 -0.00734378 -0.0122303)
(-0.000825764 0.00870928 -0.0139781)
(-0.00176047 0.0269565 -0.0144569)
(-0.00225804 0.0477396 -0.0132291)
(-0.00224313 0.0704056 -0.00987547)
(-0.0017634 0.0933542 -0.00450332)
(-0.000889822 0.113835 0.00172417)
(0.000175043 0.129311 0.00709641)
(0.00120417 0.139774 0.0108486)
(0.00211404 0.147044 0.0132878)
(0.00290635 0.1527 0.0148706)
(0.00358232 0.15762 0.0158529)
(0.0041317 0.162322 0.0163562)
(0.00454649 0.167249 0.0164507)
(0.00482263 0.172922 0.0161855)
(0.00495761 0.180068 0.0155997)
(0.00495121 0.189923 0.0147237)
(0.00481032 0.205236 0.0135589)
(0.0045533 0.233784 0.0120073)
(0.00427811 0.298751 0.0097741)
(0.00385838 0.443391 0.00620217)
(0.00225347 0.6186 0.00249538)
(0.00109951 0.663035 0.00227883)
(0.000805723 0.590453 0.00327369)
(-0.00448591 -0.283149 0.00868402)
(-0.00912572 -0.38932 0.00460579)
(-0.0118729 -0.410169 -0.00154626)
(-0.0141404 -0.414233 -0.00773711)
(-0.0165771 -0.4101 -0.0139884)
(-0.0189155 -0.397005 -0.018214)
(-0.0197342 -0.365231 -0.0140742)
(-0.0134844 -0.293155 -0.00169595)
(-0.00254737 -0.206002 0.00882695)
(0.00800668 -0.130456 0.0142227)
(0.0153522 -0.0754276 0.0147649)
(0.0187053 -0.0390999 0.0122388)
(0.0189889 -0.0140123 0.00871287)
(0.0175181 0.00726932 0.00569757)
(0.0153682 0.0292086 0.00404188)
(0.0134487 0.0527617 0.00427836)
(0.0121242 0.0765148 0.00646834)
(0.0112929 0.0979553 0.00994098)
(0.0107286 0.114932 0.013506)
(0.0102675 0.127174 0.0163254)
(0.00984182 0.136003 0.0182857)
(0.00943654 0.142915 0.0195785)
(0.0090459 0.148929 0.0203677)
(0.00865684 0.15467 0.0207394)
(0.00825204 0.160616 0.0207372)
(0.0078173 0.167284 0.0203868)
(0.00734399 0.17538 0.0197074)
(0.00682969 0.186076 0.0187136)
(0.00628628 0.201851 0.0174072)
(0.00575854 0.229668 0.0157558)
(0.00528528 0.291868 0.0137756)
(0.00470697 0.439728 0.0115728)
(0.00348549 0.628449 0.00890905)
(0.00241844 0.673007 0.00843347)
(0.00153553 0.597287 0.00836547)
(-0.00161096 -0.245192 0.00814822)
(0.000732785 -0.361738 0.00526217)
(0.00304 -0.387117 -0.0011119)
(0.00567237 -0.389298 -0.00885086)
(0.00775935 -0.3793 -0.0193349)
(0.00816844 -0.361365 -0.0320821)
(0.00670118 -0.343169 -0.0431792)
(0.00463417 -0.323952 -0.0471025)
(0.00559958 -0.285431 -0.0389433)
(0.0114085 -0.222858 -0.0216516)
(0.0199256 -0.150285 -0.00273064)
(0.0285223 -0.0802272 0.0127228)
(0.0348142 -0.0228042 0.0215774)
(0.0376225 0.0174152 0.0236878)
(0.0373197 0.0439421 0.0217813)
(0.0350988 0.0642459 0.0191477)
(0.0322319 0.0834688 0.0178398)
(0.0296695 0.101892 0.0182826)
(0.0276552 0.117319 0.0197265)
(0.0259262 0.128785 0.0212669)
(0.0242593 0.137164 0.0224886)
(0.0226001 0.14378 0.0233494)
(0.020969 0.149614 0.023896)
(0.0193911 0.155285 0.0241532)
(0.0178725 0.161267 0.0241166)
(0.0164072 0.168068 0.0237641)
(0.0149915 0.176422 0.0230602)
(0.013632 0.187633 0.0219502)
(0.0123403 0.204657 0.0203205)
(0.0111269 0.235811 0.0179304)
(0.00997615 0.305295 0.0147995)
(0.00805482 0.456708 0.0131375)
(0.00552994 0.642362 0.013193)
(0.00389221 0.687013 0.0132064)
(0.00226921 0.60843 0.0121859)
(0.00115859 -0.279126 0.00941801)
(0.00727917 -0.41985 0.0120118)
(0.0115873 -0.45056 0.00737389)
(0.0161275 -0.450992 -0.000123328)
(0.021458 -0.432208 -0.0120433)
(0.0266549 -0.392787 -0.0293197)
(0.0295639 -0.34256 -0.0489553)
(0.0292485 -0.300747 -0.0662396)
(0.026817 -0.275131 -0.0773091)
(0.0242719 -0.255875 -0.0801399)
(0.0238465 -0.228667 -0.0722011)
(0.0275819 -0.184372 -0.0525225)
(0.0347285 -0.125507 -0.0261352)
(0.0430178 -0.0595315 0.000387009)
(0.0499746 0.00243263 0.020481)
(0.0534806 0.048993 0.0300322)
(0.0532013 0.0776466 0.0308996)
(0.0504771 0.0960933 0.0286798)
(0.0466108 0.111256 0.0269123)
(0.0424939 0.124616 0.0262998)
(0.0385867 0.135485 0.026332)
(0.0349237 0.144018 0.0265061)
(0.0314683 0.1511 0.0266125)
(0.0282465 0.157609 0.0266014)
(0.0252927 0.164223 0.0264641)
(0.022612 0.171542 0.0261841)
(0.0201919 0.180298 0.0257178)
(0.0180225 0.19173 0.0249797)
(0.0160984 0.208676 0.0237925)
(0.0143988 0.239393 0.0216997)
(0.0128487 0.309796 0.017796)
(0.0106912 0.46946 0.0141428)
(0.00719807 0.659761 0.0146187)
(0.00502489 0.705947 0.0149028)
(0.0029247 0.626341 0.0133462)
(0.00374972 -0.322544 0.0244148)
(0.00876069 -0.462499 0.0350853)
(0.010848 -0.490744 0.0290335)
(0.0123232 -0.488673 0.0175451)
(0.014352 -0.466113 -0.000836985)
(0.0174705 -0.422451 -0.0244327)
(0.0217096 -0.36361 -0.047398)
(0.0262648 -0.29731 -0.0675475)
(0.0292369 -0.237888 -0.0844634)
(0.0296168 -0.198503 -0.0963599)
(0.0285898 -0.176725 -0.102636)
(0.0275527 -0.162374 -0.103675)
(0.0277133 -0.145827 -0.0975924)
(0.0310322 -0.116407 -0.0790913)
(0.03798 -0.0679728 -0.0482528)
(0.0463515 -0.00466776 -0.0130882)
(0.0532511 0.060191 0.0158295)
(0.0558939 0.108427 0.0302612)
(0.0546776 0.135552 0.0332926)
(0.0516867 0.150113 0.032352)
(0.0480375 0.159155 0.0309839)
(0.044197 0.165545 0.0299567)
(0.0404081 0.170413 0.0292105)
(0.0367323 0.174536 0.0285499)
(0.0332006 0.178658 0.0278259)
(0.0298608 0.183549 0.0269663)
(0.0267594 0.190109 0.0259515)
(0.0239399 0.199683 0.0247644)
(0.0213965 0.21534 0.0233104)
(0.0190916 0.246818 0.0212645)
(0.0166862 0.324672 0.017739)
(0.0135466 0.492062 0.0140924)
(0.00918636 0.681141 0.0141686)
(0.0061668 0.727721 0.014274)
(0.00339521 0.645434 0.0123942)
(-0.000202085 -0.38951 0.0545777)
(-0.00356334 -0.514463 0.0699011)
(-0.00603592 -0.531904 0.0615217)
(-0.0078959 -0.524386 0.0463891)
(-0.00860129 -0.496047 0.022737)
(-0.00665081 -0.449369 -0.00577022)
(-0.00216842 -0.394649 -0.0327679)
(0.00405307 -0.336975 -0.055712)
(0.0113128 -0.276819 -0.074703)
(0.0181745 -0.220108 -0.0897196)
(0.0230462 -0.176253 -0.0999962)
(0.0256513 -0.147089 -0.105821)
(0.0268909 -0.127786 -0.108255)
(0.0277572 -0.112424 -0.107503)
(0.0293058 -0.0946017 -0.101216)
(0.0333412 -0.0645675 -0.0825802)
(0.040599 -0.0134601 -0.0481688)
(0.0483382 0.0503373 -0.0099749)
(0.0527741 0.104144 0.0159909)
(0.0532415 0.137077 0.0270527)
(0.0515179 0.155106 0.0301616)
(0.0488783 0.166101 0.0305556)
(0.0458087 0.174068 0.0302351)
(0.0425608 0.180654 0.0298287)
(0.0392643 0.186713 0.0294598)
(0.035993 0.192948 0.0290374)
(0.0328378 0.200202 0.0284022)
(0.0299173 0.209798 0.027394)
(0.0272365 0.224822 0.025796)
(0.0245311 0.255936 0.022972)
(0.021338 0.340091 0.0170694)
(0.0158608 0.51501 0.0115759)
(0.00940578 0.70943 0.0115567)
(0.00552431 0.757309 0.0114017)
(0.00290036 0.672889 0.0093576)
(-0.00978153 -0.34924 0.0766918)
(-0.0180375 -0.48641 0.0918327)
(-0.020897 -0.518604 0.0836178)
(-0.0212397 -0.526189 0.0751531)
(-0.0197088 -0.518589 0.065344)
(-0.0155847 -0.492121 0.0511272)
(-0.00874905 -0.443052 0.0299222)
(-0.000329252 -0.379042 0.0035519)
(0.00843858 -0.312132 -0.0238956)
(0.0168332 -0.248607 -0.049236)
(0.0241584 -0.192943 -0.0699332)
(0.0297054 -0.149008 -0.0844921)
(0.0333649 -0.116711 -0.0933887)
(0.0355671 -0.0926665 -0.0980977)
(0.0369236 -0.0727005 -0.0995881)
(0.0380154 -0.0521148 -0.0971698)
(0.0397293 -0.0234027 -0.0861261)
(0.0435193 0.0247835 -0.0577659)
(0.0480113 0.0866128 -0.0197518)
(0.0494923 0.136835 0.00804519)
(0.0479392 0.16543 0.0208241)
(0.045212 0.180227 0.0252747)
(0.0420728 0.189122 0.026599)
(0.0387083 0.19559 0.0268412)
(0.0353322 0.201008 0.0267383)
(0.0320502 0.206289 0.0265598)
(0.0289004 0.212449 0.0263542)
(0.0259595 0.221064 0.0260613)
(0.0231604 0.236193 0.0255456)
(0.0201324 0.273612 0.0241564)
(0.0173942 0.383984 0.0183544)
(0.012349 0.581107 0.00793299)
(0.0060307 0.751391 0.00531597)
(0.00264762 0.78825 0.00449755)
(0.000976119 0.689429 0.00301948)
(-0.00936298 -0.298104 0.0674254)
(-0.0122604 -0.48796 0.0614469)
(-0.0113986 -0.553972 0.0528657)
(-0.00817975 -0.581625 0.0531079)
(-0.0046346 -0.591652 0.0564462)
(-0.00137529 -0.586667 0.0596396)
(0.00225533 -0.560506 0.0595319)
(0.00738055 -0.505089 0.0525586)
(0.0140221 -0.427466 0.037781)
(0.0213293 -0.342659 0.0163413)
(0.0283948 -0.262813 -0.00918337)
(0.0341939 -0.196193 -0.0342476)
(0.0381907 -0.145666 -0.0545196)
(0.0405416 -0.108365 -0.0686048)
(0.0415871 -0.0792885 -0.0774136)
(0.0415702 -0.0536599 -0.0820103)
(0.040647 -0.0264653 -0.0819248)
(0.0389619 0.0100274 -0.0727433)
(0.0376832 0.0641173 -0.0477943)
(0.0372035 0.122901 -0.0164901)
(0.0363142 0.164326 0.00540313)
(0.03503 0.186305 0.0159629)
(0.0335893 0.198105 0.0204967)
(0.0319248 0.205868 0.0225642)
(0.0299872 0.212064 0.0235586)
(0.0278471 0.2179 0.023976)
(0.0255773 0.22453 0.0240218)
(0.0232454 0.233641 0.0237732)
(0.0207915 0.249135 0.0232376)
(0.0177522 0.285332 0.0222446)
(0.0145839 0.394428 0.0190234)
(0.0111972 0.612597 0.00854401)
(0.005854 0.77884 0.00189587)
(0.0026879 0.811461 -0.000216119)
(0.000944555 0.698892 -0.000976321)
(-0.00537238 -0.256058 0.0351823)
(-0.00359592 -0.453504 0.0020265)
(0.000478026 -0.537201 -0.00522528)
(0.00650734 -0.56631 -0.00573036)
(0.0123635 -0.571778 -0.00533136)
(0.0169127 -0.562934 -0.00462688)
(0.0192901 -0.543117 -0.00283015)
(0.0195494 -0.511989 0.0014787)
(0.0190184 -0.462991 0.00783585)
(0.0194339 -0.393735 0.0135839)
(0.0215917 -0.311584 0.0144736)
(0.0247013 -0.228859 0.00709141)
(0.0268492 -0.15865 -0.00701392)
(0.0268168 -0.104887 -0.0225659)
(0.0245802 -0.0606893 -0.0352434)
(0.0202901 -0.0170688 -0.0421628)
(0.0148915 0.0296159 -0.0410344)
(0.0102512 0.0750112 -0.0328412)
(0.00761253 0.115243 -0.020286)
(0.00729803 0.147994 -0.0072721)
(0.00847271 0.171047 0.00242669)
(0.0100401 0.185989 0.00835274)
(0.0114516 0.196323 0.011993)
(0.0125007 0.204345 0.0145123)
(0.0131003 0.211165 0.0164544)
(0.013232 0.217531 0.0180554)
(0.0129353 0.224462 0.0194223)
(0.0123077 0.233994 0.0205909)
(0.0113395 0.251754 0.0215202)
(0.00980171 0.297115 0.021629)
(0.0074349 0.4208 0.0186022)
(0.00437388 0.644025 0.00983066)
(0.00112249 0.805171 0.00226037)
(-0.000431098 0.831425 -0.000520151)
(-0.000669052 0.705745 -0.000955345)
(-0.00233904 -0.247842 0.00549097)
(0.00689838 -0.477735 -0.00087178)
(0.0157723 -0.584677 0.0154887)
(0.0243884 -0.616897 0.0217495)
(0.03141 -0.615156 0.0189411)