/*--------------------------------*- C++ -*----------------------------------*\
| =========                 |                                                 |
| \\      /  F ield         | OpenFOAM: The Open Source CFD Toolbox           |
|  \\    /   O peration     | Version:  v2006                                 |
|   \\  /    A nd           | Website:  www.openfoam.com                      |
|    \\/     M anipulation  |                                                 |
\*---------------------------------------------------------------------------*/
FoamFile
{
    version     2.0;
    format      ascii;
    class       volScalarField;
    location    "61";
    object      nut;
}
// * * * * * * * * * * * * * * * * * * * * * * * * * * * * * * * * * * * * * //

dimensions      [0 2 -1 0 0 0 0];


internalField   nonuniform List<scalar> 
78750
(
8.56801e-09
4.68281e-07
6.74942e-07
8.64589e-07
1.03773e-06
1.19028e-06
1.32352e-06
1.43905e-06
1.53815e-06
1.62184e-06
1.69123e-06
1.74697e-06
1.78942e-06
1.81901e-06
1.83635e-06
1.84194e-06
1.83622e-06
1.81959e-06
1.79234e-06
1.75511e-06
1.70714e-06
1.64772e-06
1.57707e-06
1.49534e-06
1.40229e-06
1.29804e-06
1.18335e-06
1.05979e-06
9.29515e-07
7.94273e-07
6.54718e-07
5.10985e-07
3.66185e-07
2.32148e-07
5.33729e-09
2.44778e-09
1.2523e-06
3.15241e-06
5.90038e-06
9.55741e-06
1.12187e-05
1.24659e-05
1.3457e-05
1.40825e-05
1.43453e-05
1.4718e-05
1.51676e-05
1.55204e-05
1.55057e-05
1.53886e-05
1.51825e-05
1.48995e-05
1.45503e-05
1.4145e-05
1.3692e-05
1.3196e-05
1.26593e-05
1.20859e-05
1.14758e-05
1.08264e-05
1.01333e-05
9.39088e-06
8.59382e-06
7.74078e-06
6.28576e-06
4.22571e-06
2.62399e-06
1.95378e-06
1.45983e-06
2.13704e-08
3.0673e-09
1.78546e-06
3.82175e-06
6.37095e-06
9.76007e-06
1.41339e-05
1.6172e-05
1.73034e-05
1.81658e-05
1.87902e-05
1.9204e-05
1.94312e-05
1.94924e-05
1.9406e-05
1.91883e-05
1.88548e-05
1.82903e-05
1.76334e-05
1.69592e-05
1.62747e-05
1.55947e-05
1.49451e-05
1.43317e-05
1.37275e-05
1.30055e-05
1.21992e-05
1.13493e-05
1.02522e-05
8.50693e-06
6.36722e-06
4.35132e-06
3.13214e-06
3.25392e-06
1.55837e-06
3.42401e-08
5.78076e-09
1.70837e-06
3.81812e-06
6.67026e-06
1.04126e-05
1.48725e-05
1.90889e-05
2.04515e-05
2.12887e-05
2.18718e-05
2.223e-05
2.22003e-05
2.11514e-05
2.00451e-05
1.89713e-05
1.79225e-05
1.68995e-05
1.59051e-05
1.49477e-05
1.40447e-05
1.32224e-05
1.25145e-05
1.1945e-05
1.15088e-05
1.11568e-05
1.07753e-05
1.01784e-05
9.15696e-06
7.61567e-06
5.76833e-06
4.17609e-06
3.43644e-06
4.37983e-06
1.49209e-06
4.38066e-08
8.43322e-09
1.75292e-06
4.01566e-06
7.26204e-06
1.16646e-05
1.68108e-05
2.1442e-05
2.29021e-05
2.36756e-05
2.41799e-05
2.44479e-05
2.39855e-05
2.24477e-05
2.08489e-05
1.9322e-05
1.78862e-05
1.65418e-05
1.52814e-05
1.41004e-05
1.30062e-05
1.20231e-05
1.11899e-05
1.0541e-05
1.00841e-05
9.78021e-06
9.51612e-06
9.08742e-06
8.26e-06
6.95046e-06
5.41222e-06
4.17699e-06
3.83198e-06
5.21154e-06
1.44505e-06
5.18925e-08
1.17518e-08
1.77294e-06
4.16422e-06
7.80746e-06
1.29261e-05
1.87485e-05
2.3583e-05
2.51697e-05
2.58881e-05
2.63272e-05
2.6031e-05
2.43271e-05
2.2447e-05
2.06216e-05
1.89236e-05
1.73747e-05
1.59649e-05
1.46712e-05
1.3472e-05
1.23578e-05
1.13417e-05
1.04611e-05
9.75751e-06
9.24684e-06
8.90142e-06
8.62414e-06
8.22836e-06
7.49606e-06
6.36412e-06
5.09111e-06
4.16221e-06
4.17062e-06
5.63424e-06
1.43416e-06
5.86237e-08
1.48623e-08
1.80885e-06
4.3199e-06
8.32172e-06
1.41236e-05
2.06115e-05
2.56334e-05
2.70967e-05
2.77767e-05
2.81666e-05
2.64603e-05
2.43097e-05
2.21203e-05
2.00709e-05
1.82351e-05
1.66179e-05
1.51911e-05
1.39154e-05
1.27542e-05
1.16835e-05
1.07046e-05
9.84861e-06
9.152e-06
8.6241e-06
8.23985e-06
7.91963e-06
7.51173e-06
6.84332e-06
5.87964e-06
4.85563e-06
4.20253e-06
4.53969e-06
5.77198e-06
1.43242e-06
6.45358e-08
1.80037e-08
1.84022e-06
4.43785e-06
8.70683e-06
1.50239e-05
2.19486e-05
2.69911e-05
2.88913e-05
2.95409e-05
2.84866e-05
2.63931e-05
2.39678e-05
2.15778e-05
1.94073e-05
1.75156e-05
1.58918e-05
1.44942e-05
1.32729e-05
1.21817e-05
1.1187e-05
1.02798e-05
9.48178e-06
8.81599e-06
8.27625e-06
7.83304e-06
7.42246e-06
6.93623e-06
6.26582e-06
5.41857e-06
4.60254e-06
4.19155e-06
4.82482e-06
5.78132e-06
1.44193e-06
6.98804e-08
2.09411e-08
1.87219e-06
4.53722e-06
9.01384e-06
1.57485e-05
2.30257e-05
2.806e-05
3.02426e-05
3.01784e-05
2.85909e-05
2.61779e-05
2.35167e-05
2.09754e-05
1.87238e-05
1.67996e-05
1.5174e-05
1.37956e-05
1.26109e-05
1.15715e-05
1.06429e-05
9.81647e-06
9.10945e-06
8.52507e-06
8.03077e-06
7.58028e-06
7.11371e-06
6.5585e-06
5.86731e-06
5.09259e-06
4.42901e-06
4.21267e-06
5.10433e-06
5.71372e-06
1.45382e-06
7.50673e-08
2.3793e-08
1.89734e-06
4.60524e-06
9.22328e-06
1.62505e-05
2.37505e-05
2.87257e-05
3.06962e-05
3.03796e-05
2.85485e-05
2.59354e-05
2.31352e-05
2.05127e-05
1.82229e-05
1.62871e-05
1.46656e-05
1.33014e-05
1.21393e-05
1.11314e-05
1.02453e-05
9.47372e-06
8.83256e-06
8.31071e-06
7.85435e-06
7.40034e-06
6.8881e-06
6.27282e-06
5.55729e-06
4.83084e-06
4.2807e-06
4.21946e-06
5.32905e-06
5.64659e-06
1.46988e-06
8.02384e-08
2.65744e-08
1.92106e-06
4.66464e-06
9.40136e-06
1.66743e-05
2.43481e-05
2.92539e-05
3.10278e-05
3.04801e-05
2.84335e-05
2.56566e-05
2.27544e-05
2.00806e-05
1.77709e-05
1.58304e-05
1.42101e-05
1.28497e-05
1.16947e-05
1.07008e-05
9.84094e-06
9.11395e-06
8.53895e-06
8.09028e-06
7.69364e-06
7.2664e-06
6.74073e-06
6.0903e-06
5.35785e-06
4.66426e-06
4.19713e-06
4.26082e-06
5.56001e-06
5.56369e-06
1.48596e-06
8.54531e-08
2.93848e-08
1.94185e-06
4.71274e-06
9.54426e-06
1.7011e-05
2.47991e-05
2.96187e-05
3.12236e-05
3.04995e-05
2.83062e-05
2.54313e-05
2.24783e-05
1.97861e-05
1.74737e-05
1.55346e-05
1.39138e-05
1.25498e-05
1.13895e-05
1.03918e-05
9.53418e-06
8.82142e-06
8.278e-06
7.87173e-06
7.51624e-06
7.1148e-06
6.59147e-06
5.92948e-06
5.19723e-06
4.53688e-06
4.13855e-06
4.30778e-06
5.77359e-06
5.49324e-06
1.50312e-06
9.06459e-08
3.21822e-08
1.96127e-06
4.75814e-06
9.67947e-06
1.73242e-05
2.52034e-05
2.99287e-05
3.1369e-05
3.04789e-05
2.81543e-05
2.52004e-05
2.2215e-05
1.95188e-05
1.72129e-05
1.52794e-05
1.36587e-05
1.22888e-05
1.11185e-05
1.01105e-05
9.24764e-06
8.54143e-06
8.02246e-06
7.65254e-06
7.33638e-06
6.96644e-06
6.45949e-06
5.80386e-06
5.08477e-06
4.45893e-06
4.1208e-06
4.38473e-06
6.0033e-06
5.41933e-06
1.51966e-06
9.57843e-08
3.51068e-08
1.98105e-06
4.80466e-06
9.8147e-06
1.76225e-05
2.55593e-05
3.01729e-05
3.1458e-05
3.04307e-05
2.80138e-05
2.50187e-05
2.20295e-05
1.93467e-05
1.70557e-05
1.51305e-05
1.35085e-05
1.21281e-05
1.09405e-05
9.91135e-06
9.02851e-06
8.30889e-06
7.79004e-06
7.43303e-06
7.13848e-06
6.793e-06
6.30839e-06
5.67412e-06
4.9829e-06
4.39825e-06
4.11854e-06
4.47137e-06
6.23153e-06
5.35571e-06
1.53639e-06
1.0082e-07
3.80042e-08
1.99931e-06
4.84878e-06
9.9444e-06
1.79055e-05
2.58882e-05
3.03905e-05
3.15273e-05
3.03714e-05
2.78727e-05
2.48474e-05
2.18641e-05
1.92019e-05
1.69307e-05
1.50165e-05
1.33946e-05
1.20039e-05
1.07977e-05
9.74518e-06
8.83856e-06
8.10037e-06
7.57484e-06
7.22286e-06
6.94294e-06
6.61884e-06
6.15979e-06
5.55544e-06
4.90102e-06
4.36205e-06
4.14052e-06
4.58055e-06
6.47396e-06
5.29412e-06
1.55268e-06
1.05746e-07
4.10632e-08
2.01908e-06
4.89782e-06
1.00858e-05
1.81998e-05
2.62052e-05
3.05796e-05
3.15718e-05
3.03067e-05
2.77527e-05
2.47219e-05
2.17617e-05
1.91297e-05
1.68825e-05
1.49803e-05
1.33573e-05
1.19534e-05
1.07241e-05
9.64146e-06
8.70173e-06
7.93199e-06
7.38333e-06
7.0203e-06
6.74171e-06
6.43138e-06
5.99802e-06
5.43002e-06
4.82035e-06
4.33215e-06
4.17018e-06
4.69666e-06
6.71532e-06
5.2427e-06
1.56911e-06
1.10558e-07
4.40748e-08
2.03732e-06
4.94422e-06
1.02208e-05
1.84783e-05
2.65e-05
3.07534e-05
3.16117e-05
3.02473e-05
2.76468e-05
2.46172e-05
2.16847e-05
1.9086e-05
1.68649e-05
1.49764e-05
1.33535e-05
1.1937e-05
1.06842e-05
9.57005e-06
8.59453e-06
7.7892e-06
7.2116e-06
6.83096e-06
6.5475e-06
6.24679e-06
5.83866e-06
5.31014e-06
4.74957e-06
4.31531e-06
4.21451e-06
4.82867e-06
6.96466e-06
5.19624e-06
1.58539e-06
1.15264e-07
4.72462e-08
2.05716e-06
4.99583e-06
1.03692e-05
1.87744e-05
2.67954e-05
3.09159e-05
3.16445e-05
3.01966e-05
2.75692e-05
2.45569e-05
2.16623e-05
1.9102e-05
1.69093e-05
1.50351e-05
1.34118e-05
1.19809e-05
1.07012e-05
9.55082e-06
8.53265e-06
7.68204e-06
7.06272e-06
6.6524e-06
6.35412e-06
6.05673e-06
5.67212e-06
5.18514e-06
4.67715e-06
4.29956e-06
4.26144e-06
4.96388e-06
7.20959e-06
5.15969e-06
1.60188e-06
1.19876e-07
5.0365e-08
2.0757e-06
5.04537e-06
1.0513e-05
1.90579e-05
2.70743e-05
3.10707e-05
3.16808e-05
3.01583e-05
2.75098e-05
2.4518e-05
2.16627e-05
1.91419e-05
1.69791e-05
1.51213e-05
1.34998e-05
1.2056e-05
1.07502e-05
9.56284e-06
8.50003e-06
7.60057e-06
6.93413e-06
6.48837e-06
6.16994e-06
5.87189e-06
5.50905e-06
5.06401e-06
4.61011e-06
4.29081e-06
4.31695e-06
5.10951e-06
7.45641e-06
5.12816e-06
1.61828e-06
1.24394e-07
5.36311e-08
2.09559e-06
5.09951e-06
1.06695e-05
1.93597e-05
2.73595e-05
3.1225e-05
3.17221e-05
3.01376e-05
2.74813e-05
2.45196e-05
2.17088e-05
1.92303e-05
1.7099e-05
1.52588e-05
1.36398e-05
1.2183e-05
1.08496e-05
9.62173e-06
8.50881e-06
7.55253e-06
6.82811e-06
6.33692e-06
5.99031e-06
5.68615e-06
5.34246e-06
4.93911e-06
4.54024e-06
4.28049e-06
4.37222e-06
5.25606e-06
7.69711e-06
5.10564e-06
1.63496e-06
1.2883e-07
5.68508e-08
2.11442e-06
5.15244e-06
1.08243e-05
1.96554e-05
2.76355e-05
3.13776e-05
3.17705e-05
3.013e-05
2.74683e-05
2.45365e-05
2.17699e-05
1.93342e-05
1.72366e-05
1.54175e-05
1.38049e-05
1.23389e-05
1.09804e-05
9.71272e-06
8.54802e-06
7.53174e-06
6.7442e-06
6.20209e-06
5.82222e-06
5.50781e-06
5.18048e-06
4.81733e-06
4.47308e-06
4.27319e-06
4.43153e-06
5.4082e-06
7.9344e-06
5.08632e-06
1.65132e-06
1.33168e-07
6.02046e-08
2.1343e-06
5.20927e-06
1.09911e-05
1.99697e-05
2.79219e-05
3.15373e-05
3.18314e-05
3.01437e-05
2.74842e-05
2.45867e-05
2.18663e-05
1.94748e-05
1.74124e-05
1.56164e-05
1.40124e-05
1.25391e-05
1.1156e-05
9.84682e-06
8.62642e-06
7.54394e-06
6.68438e-06
6.08292e-06
5.66284e-06
5.33295e-06
5.01845e-06
4.69348e-06
4.40303e-06
4.26322e-06
4.48932e-06
5.56041e-06
8.16557e-06
5.07466e-06
1.66796e-06
1.37416e-07
6.35201e-08
2.1532e-06
5.26527e-06
1.11586e-05
2.02838e-05
2.82068e-05
3.17016e-05
3.19021e-05
3.01685e-05
2.75093e-05
2.46437e-05
2.19685e-05
1.96224e-05
1.75986e-05
1.58304e-05
1.42407e-05
1.27655e-05
1.13622e-05
1.00138e-05
8.73724e-06
7.58567e-06
6.6497e-06
5.98364e-06
5.51839e-06
5.16862e-06
4.86318e-06
4.5734e-06
4.33476e-06
4.25416e-06
4.54829e-06
5.71473e-06
8.38953e-06
5.06436e-06
1.68406e-06
1.41546e-07
6.69544e-08
2.17268e-06
5.32396e-06
1.1336e-05
2.06159e-05
2.85075e-05
3.18821e-05
3.1991e-05
3.02139e-05
2.75567e-05
2.47237e-05
2.20944e-05
1.97949e-05
1.78117e-05
1.60741e-05
1.4502e-05
1.30282e-05
1.16071e-05
1.02203e-05
8.88596e-06
7.66117e-06
6.64238e-06
5.90452e-06
5.38778e-06
5.01278e-06
4.7119e-06
4.45371e-06
4.26447e-06
4.24212e-06
4.60484e-06
5.86827e-06
8.60709e-06
5.05969e-06
1.7002e-06
1.4556e-07
7.03548e-08
2.19108e-06
5.38136e-06
1.15132e-05
2.0948e-05
2.88093e-05
3.20669e-05
3.20894e-05
3.02644e-05
2.76041e-05
2.48015e-05
2.22183e-05
1.99679e-05
1.80293e-05
1.63278e-05
1.47797e-05
1.33139e-05
1.18807e-05
1.04593e-05
9.06849e-06
7.7692e-06
6.66461e-06
5.84993e-06
5.27665e-06
4.87154e-06
4.57052e-06
4.3397e-06
4.19666e-06
4.23083e-06
4.66186e-06
6.02252e-06
8.81531e-06
5.05567e-06
1.71585e-06
1.4943e-07
7.38546e-08
2.20975e-06
5.44019e-06
1.16962e-05
2.12864e-05
2.90964e-05
3.2235e-05
3.2178e-05
3.03193e-05
2.76621e-05
2.48923e-05
2.23565e-05
2.01563e-05
1.82641e-05
1.66014e-05
1.5081e-05
1.36275e-05
1.21866e-05
1.07336e-05
9.28734e-06
7.91217e-06
6.71832e-06
5.82076e-06
5.18509e-06
4.74435e-06
4.4378e-06
4.22931e-06
4.12848e-06
4.21674e-06
4.71544e-06
6.17473e-06
9.01896e-06
5.05466e-06
1.73102e-06
1.5315e-07
7.73203e-08
2.22753e-06
5.49759e-06
1.18756e-05
2.1612e-05
2.93666e-05
3.23896e-05
3.22561e-05
3.03686e-05
2.77148e-05
2.4977e-05
2.24891e-05
2.03412e-05
1.84992e-05
1.68806e-05
1.53943e-05
1.39599e-05
1.25177e-05
1.10384e-05
9.53947e-06
8.08894e-06
6.80482e-06
5.82e-06
5.11724e-06
4.63598e-06
4.31868e-06
4.12733e-06
4.06441e-06
4.20418e-06
4.77019e-06
6.33014e-06
9.22087e-06
5.05804e-06
1.74599e-06
1.56704e-07
8.08687e-08
2.24558e-06
5.55673e-06
1.20601e-05
2.19367e-05
2.96259e-05
3.25321e-05
3.23244e-05
3.04126e-05
2.77705e-05
2.50673e-05
2.26277e-05
2.05327e-05
1.87426e-05
1.71708e-05
1.57225e-05
1.43123e-05
1.28743e-05
1.13736e-05
9.82528e-06
8.30035e-06
6.92487e-06
5.84796e-06
5.07324e-06
4.54636e-06
4.21272e-06
4.03271e-06
4.00259e-06
4.19032e-06
4.82222e-06
6.48424e-06
9.41713e-06
5.067e-06
1.76117e-06
1.60095e-07
8.43783e-08
2.26265e-06
5.61501e-06
1.22461e-05
2.22483e-05
2.98665e-05
3.26581e-05
3.23782e-05
3.04434e-05
2.78191e-05
2.51496e-05
2.27576e-05
2.07173e-05
1.89825e-05
1.74623e-05
1.60577e-05
1.46782e-05
1.32512e-05
1.17351e-05
1.01416e-05
8.54413e-06
7.07731e-06
5.90537e-06
5.05518e-06
4.47854e-06
4.12351e-06
3.9493e-06
3.94699e-06
4.17948e-06
4.87736e-06
6.64584e-06
9.6118e-06
5.08009e-06
1.77653e-06
1.6331e-07
8.79401e-08
2.27925e-06
5.67196e-06
1.24297e-05
2.25538e-05
3.00946e-05
3.27714e-05
3.24214e-05
3.04658e-05
2.78601e-05
2.52268e-05
2.28849e-05
2.09012e-05
1.92236e-05
1.77574e-05
1.64002e-05
1.50563e-05
1.36462e-05
1.21208e-05
1.0487e-05
8.81963e-06
7.26175e-06
5.99215e-06
5.06311e-06
4.43248e-06
4.05085e-06
3.87658e-06
3.89658e-06
4.16993e-06
4.93247e-06
6.80859e-06
9.80243e-06
5.097e-06
1.792e-06
1.66351e-07
9.14622e-08
2.29528e-06
5.72807e-06
1.26109e-05
2.28486e-05
3.03069e-05
3.287e-05
3.24508e-05
3.04746e-05
2.78885e-05
2.52935e-05
2.30029e-05
2.1077e-05
1.94587e-05
1.805e-05
1.67448e-05
1.54422e-05
1.40554e-05
1.25268e-05
1.08579e-05
9.12385e-06
7.47609e-06
6.10798e-06
5.09803e-06
4.41019e-06
3.99749e-06
3.81782e-06
3.855e-06
4.16551e-06
4.99128e-06
6.97551e-06
9.99058e-06
5.11703e-06
1.80754e-06
1.69209e-07
9.50184e-08
2.31094e-06
5.7834e-06
1.27911e-05
2.31373e-05
3.05069e-05
3.29561e-05
3.24686e-05
3.04727e-05
2.79074e-05
2.53542e-05
2.3115e-05
2.12467e-05
1.96886e-05
1.83397e-05
1.70899e-05
1.58332e-05
1.44754e-05
1.29501e-05
1.12518e-05
9.4552e-06
7.71934e-06
6.25222e-06
5.15943e-06
4.41131e-06
3.96312e-06
3.77259e-06
3.8214e-06
4.16449e-06
5.05076e-06
7.1422e-06
1.01741e-05
5.13992e-06
1.82307e-06
1.71892e-07
9.8532e-08
2.32617e-06
5.83804e-06
1.29689e-05
2.34158e-05
3.0692e-05
3.30278e-05
3.24716e-05
3.04552e-05
2.79103e-05
2.54027e-05
2.32152e-05
2.1405e-05
1.99094e-05
1.86233e-05
1.74328e-05
1.62266e-05
1.49032e-05
1.3387e-05
1.16649e-05
9.81005e-06
7.98874e-06
6.42367e-06
5.24732e-06
4.43673e-06
3.94938e-06
3.74327e-06
3.79878e-06
4.1705e-06
5.11493e-06
7.31221e-06
1.03548e-05
5.16525e-06
1.83856e-06
1.74396e-07
1.02069e-07
2.3413e-06
5.89262e-06
1.31465e-05
2.36883e-05
3.08655e-05
3.3087e-05
3.24621e-05
3.04251e-05
2.79001e-05
2.54373e-05
2.33023e-05
2.15521e-05
2.01208e-05
1.88997e-05
1.77712e-05
1.66192e-05
1.53351e-05
1.38338e-05
1.20939e-05
1.01859e-05
8.28256e-06
6.62121e-06
5.36093e-06
4.48587e-06
3.95585e-06
3.72944e-06
3.78641e-06
4.18176e-06
5.18051e-06
7.48188e-06
1.05314e-05
5.19295e-06
1.85397e-06
1.76732e-07
1.05563e-07
2.35625e-06
5.94702e-06
1.33219e-05
2.39508e-05
3.10244e-05
3.31316e-05
3.24377e-05
3.03795e-05
2.78744e-05
2.54569e-05
2.33759e-05
2.16872e-05
2.0322e-05
1.91679e-05
1.8104e-05
1.70095e-05
1.57685e-05
1.42869e-05
1.25345e-05
1.05783e-05
8.59711e-06
6.84253e-06
5.4992e-06
4.55865e-06
3.98325e-06
3.73255e-06
3.78649e-06
4.20189e-06
5.25362e-06
7.65445e-06
1.07055e-05
5.2225e-06
1.86925e-06
1.78899e-07
1.09054e-07
2.37135e-06
6.00209e-06
1.34967e-05
2.42066e-05
3.11722e-05
3.31636e-05
3.23996e-05
3.03198e-05
2.78352e-05
2.54637e-05
2.34373e-05
2.18109e-05
2.05128e-05
1.9427e-05
1.84294e-05
1.73948e-05
1.62005e-05
1.47431e-05
1.29834e-05
1.09843e-05
8.92997e-06
7.08568e-06
5.66055e-06
4.65383e-06
4.03071e-06
3.75209e-06
3.79882e-06
4.23044e-06
5.33224e-06
7.82886e-06
1.08774e-05
5.25419e-06
1.8844e-06
1.8091e-07
1.12481e-07
2.38616e-06
6.05762e-06
1.36677e-05
2.44541e-05
3.13073e-05
3.31816e-05
3.23473e-05
3.02454e-05
2.77782e-05
2.54507e-05
2.34811e-05
2.19207e-05
2.06921e-05
1.96762e-05
1.87466e-05
1.77739e-05
1.6629e-05
1.51994e-05
1.34366e-05
1.13995e-05
9.2768e-06
7.34741e-06
5.84292e-06
4.77039e-06
4.09814e-06
3.78878e-06
3.82472e-06
4.26902e-06
5.41789e-06
8.00727e-06
1.10483e-05
5.28759e-06
1.89939e-06
1.82764e-07
1.15895e-07
2.40024e-06
6.11227e-06
1.384e-05
2.46977e-05
3.14323e-05
3.31886e-05
3.22835e-05
3.01597e-05
2.77119e-05
2.54297e-05
2.35148e-05
2.20164e-05
2.08569e-05
1.99128e-05
1.90529e-05
1.81442e-05
1.70514e-05
1.5653e-05
1.38916e-05
1.18214e-05
9.63542e-06
7.62554e-06
6.04429e-06
4.90667e-06
4.18435e-06
3.84193e-06
3.86384e-06
4.31736e-06
5.51007e-06
8.18905e-06
1.12193e-05
5.32311e-06
1.91427e-06
1.84477e-07
1.19244e-07
2.41403e-06
6.16611e-06
1.40092e-05
2.49303e-05
3.15427e-05
3.31807e-05
3.22038e-05
3.00566e-05
2.76268e-05
2.53899e-05
2.35331e-05
2.21007e-05
2.10102e-05
2.0137e-05
1.93483e-05
1.85054e-05
1.74665e-05
1.61018e-05
1.43452e-05
1.22462e-05
1.00021e-05
7.91708e-06
6.26254e-06
5.06133e-06
4.28876e-06
3.91168e-06
3.91696e-06
4.3766e-06
5.61007e-06
8.37537e-06
1.13901e-05
5.36042e-06
1.92905e-06
1.86058e-07
1.22554e-07
2.42728e-06
6.21907e-06
1.41777e-05
2.51567e-05
3.1642e-05
3.31604e-05
3.21113e-05
2.99411e-05
2.753e-05
2.53384e-05
2.35393e-05
2.21728e-05
2.11524e-05
2.03502e-05
1.96312e-05
1.88548e-05
1.78717e-05
1.65431e-05
1.47948e-05
1.26716e-05
1.03746e-05
8.21958e-06
6.49532e-06
5.23225e-06
4.40959e-06
3.99674e-06
3.98327e-06
4.44633e-06
5.7177e-06
8.56596e-06
1.15613e-05
5.39976e-06
1.94379e-06
1.87523e-07
1.2578e-07
2.43997e-06
6.27056e-06
1.43418e-05
2.53714e-05
3.17271e-05
3.31257e-05
3.20033e-05
2.98089e-05
2.74159e-05
2.527e-05
2.35303e-05
2.22311e-05
2.12821e-05
2.0552e-05
1.99034e-05
1.91923e-05
1.82658e-05
1.69756e-05
1.52384e-05
1.30951e-05
1.07502e-05
8.53097e-06
6.74105e-06
5.41824e-06
4.54603e-06
4.09671e-06
4.06286e-06
4.52716e-06
5.83406e-06
8.76228e-06
1.17336e-05
5.44105e-06
1.95852e-06
1.88884e-07
1.28957e-07
2.45228e-06
6.32133e-06
1.45046e-05
2.55786e-05
3.18006e-05
3.30782e-05
3.1882e-05
2.96634e-05
2.72888e-05
2.5189e-05
2.35092e-05
2.22776e-05
2.13998e-05
2.07417e-05
2.01635e-05
1.95178e-05
1.86467e-05
1.73958e-05
1.56727e-05
1.35135e-05
1.11263e-05
8.84878e-06
6.99765e-06
5.61758e-06
4.69671e-06
4.21059e-06
4.15512e-06
4.61883e-06
5.95915e-06
8.96434e-06
1.19076e-05
5.48446e-06
1.9733e-06
1.90152e-07
1.32042e-07
2.46394e-06
6.3703e-06
1.46625e-05
2.57739e-05
3.18601e-05
3.30165e-05
3.17453e-05
2.95019e-05
2.71456e-05
2.50924e-05
2.34737e-05
2.23108e-05
2.15049e-05
2.09191e-05
2.04113e-05
1.98311e-05
1.90153e-05
1.78033e-05
1.60961e-05
1.39249e-05
1.15009e-05
9.17123e-06
7.26369e-06
5.82913e-06
4.86077e-06
4.33788e-06
4.25997e-06
4.72173e-06
6.09384e-06
9.17333e-06
1.20842e-05
5.53007e-06
1.98819e-06
1.91338e-07
1.35057e-07
2.47513e-06
6.41816e-06
1.48181e-05
2.59609e-05
3.19076e-05
3.29414e-05
3.15946e-05
2.93264e-05
2.69888e-05
2.49828e-05
2.3426e-05
2.23324e-05
2.15982e-05
2.10842e-05
2.06462e-05
2.01305e-05
1.93697e-05
1.81965e-05
1.65064e-05
1.4327e-05
1.18717e-05
9.4965e-06
7.53751e-06
6.05146e-06
5.037e-06
4.47759e-06
4.37668e-06
4.83542e-06
6.23787e-06
9.389e-06
1.22634e-05
5.57785e-06
2.00321e-06
1.92456e-07
1.37973e-07
2.48567e-06
6.46421e-06
1.4969e-05
2.61362e-05
3.19412e-05
3.28517e-05
3.14285e-05
2.91353e-05
2.68169e-05
2.48589e-05
2.33653e-05
2.23417e-05
2.16798e-05
2.12375e-05
2.08685e-05
2.04166e-05
1.97098e-05
1.85751e-05
1.69024e-05
1.47183e-05
1.22375e-05
9.82349e-06
7.81812e-06
6.28369e-06
5.22475e-06
4.62934e-06
4.5052e-06
4.96023e-06
6.39205e-06
9.61243e-06
1.24464e-05
5.62809e-06
2.01845e-06
1.93518e-07
1.40805e-07
2.49574e-06
6.50898e-06
1.51168e-05
2.63024e-05
3.19624e-05
3.27483e-05
3.12478e-05
2.89298e-05
2.66315e-05
2.47224e-05
2.3293e-05
2.23401e-05
2.17503e-05
2.13792e-05
2.10784e-05
2.06888e-05
2.00345e-05
1.89374e-05
1.72829e-05
1.50958e-05
1.25956e-05
1.01504e-05
8.1041e-06
6.52468e-06
5.42302e-06
4.79227e-06
4.64488e-06
5.09576e-06
6.55626e-06
9.8437e-06
1.26332e-05
5.68064e-06
2.0339e-06
1.94541e-07
1.43532e-07
2.50515e-06
6.55187e-06
1.52596e-05
2.6457e-05
3.19697e-05
3.263e-05
3.10515e-05
2.8709e-05
2.64317e-05
2.45726e-05
2.32087e-05
2.23273e-05
2.18099e-05
2.15097e-05
2.12761e-05
2.09475e-05
2.0344e-05
1.92834e-05
1.76473e-05
1.54602e-05
1.2945e-05
1.04757e-05
8.39408e-06
6.77335e-06
5.63113e-06
4.9661e-06
4.79578e-06
5.24244e-06
6.73128e-06
1.00838e-05
1.28246e-05
5.73577e-06
2.04965e-06
1.95536e-07
1.46167e-07
2.51409e-06
6.59341e-06
1.5399e-05
2.66021e-05
3.19646e-05
3.24975e-05
3.08403e-05
2.84739e-05
2.62189e-05
2.4411e-05
2.31137e-05
2.23041e-05
2.18591e-05
2.1629e-05
2.14613e-05
2.11918e-05
2.06371e-05
1.96112e-05
1.79935e-05
1.58093e-05
1.32849e-05
1.07989e-05
8.68725e-06
7.02871e-06
5.84805e-06
5.14992e-06
4.95725e-06
5.40001e-06
6.91734e-06
1.03332e-05
1.30209e-05
5.79351e-06
2.06576e-06
1.96517e-07
1.48693e-07
2.52238e-06
6.63301e-06
1.55333e-05
2.67356e-05
3.19456e-05
3.23499e-05
3.06133e-05
2.82239e-05
2.59927e-05
2.42375e-05
2.3008e-05
2.2271e-05
2.18982e-05
2.17377e-05
2.16348e-05
2.14225e-05
2.09142e-05
1.99208e-05
1.83209e-05
1.61415e-05
1.36133e-05
1.11174e-05
8.98189e-06
7.2898e-06
6.07326e-06
5.34345e-06
5.12921e-06
5.5686e-06
7.11488e-06
1.05926e-05
1.3222e-05
5.85383e-06
2.08226e-06
1.97493e-07
1.51124e-07
2.53017e-06
6.67109e-06
1.56637e-05
2.68592e-05
3.19137e-05
3.21876e-05
3.03711e-05
2.79599e-05
2.57542e-05
2.40532e-05
2.28927e-05
2.22287e-05
2.19278e-05
2.18359e-05
2.17963e-05
2.16392e-05
2.11748e-05
2.02116e-05
1.86285e-05
1.6456e-05
1.39291e-05
1.14308e-05
9.27705e-06
7.5556e-06
6.30594e-06
5.54616e-06
5.31144e-06
5.74837e-06
7.32442e-06
1.08626e-05
1.34288e-05
5.9171e-06
2.09927e-06
1.98481e-07
1.5345e-07
2.53731e-06
6.70723e-06
1.57891e-05
2.69715e-05
3.18677e-05
3.20096e-05
3.01131e-05
2.76816e-05
2.55037e-05
2.38586e-05
2.27685e-05
2.21781e-05
2.19489e-05
2.19248e-05
2.19468e-05
2.18426e-05
2.14192e-05
2.04835e-05
1.89157e-05
1.67514e-05
1.42306e-05
1.17369e-05
9.57099e-06
7.82479e-06
6.5451e-06
5.75723e-06
5.50327e-06
5.93887e-06
7.54593e-06
1.11436e-05
1.36408e-05
5.98303e-06
2.11676e-06
1.99488e-07
1.55683e-07
2.54393e-06
6.74183e-06
1.59105e-05
2.70736e-05
3.18083e-05
3.18163e-05
2.98399e-05
2.73901e-05
2.52423e-05
2.36548e-05
2.26363e-05
2.21197e-05
2.19618e-05
2.20043e-05
2.20864e-05
2.20327e-05
2.16474e-05
2.07362e-05
1.91823e-05
1.70272e-05
1.45167e-05
1.20344e-05
9.86246e-06
8.09633e-06
6.79009e-06
5.97644e-06
5.70482e-06
6.14045e-06
7.7799e-06
1.14359e-05
1.38585e-05
6.05182e-06
2.13481e-06
2.00527e-07
1.5782e-07
2.54993e-06
6.77458e-06
1.60271e-05
2.71644e-05
3.17342e-05
3.16068e-05
2.9551e-05
2.70855e-05
2.49704e-05
2.34427e-05
2.2497e-05
2.20547e-05
2.19678e-05
2.20758e-05
2.22159e-05
2.22099e-05
2.18594e-05
2.09697e-05
1.94276e-05
1.72822e-05
1.47859e-05
1.23212e-05
1.01494e-05
8.36863e-06
7.03968e-06
6.2029e-06
5.91559e-06
6.35318e-06
8.02705e-06
1.17409e-05
1.4082e-05
6.12326e-06
2.15342e-06
2.01603e-07
1.59874e-07
2.55543e-06
6.8059e-06
1.61402e-05
2.72449e-05
3.16458e-05
3.13812e-05
2.92469e-05
2.67685e-05
2.46891e-05
2.32231e-05
2.23515e-05
2.19838e-05
2.19673e-05
2.21396e-05
2.23358e-05
2.23748e-05
2.20559e-05
2.11843e-05
1.96519e-05
1.75164e-05
1.50375e-05
1.25959e-05
1.04303e-05
8.64022e-06
7.29298e-06
6.43625e-06
6.13544e-06
6.57685e-06
8.28738e-06
1.2058e-05
1.43107e-05
6.19731e-06
2.1726e-06
2.02726e-07
1.61842e-07
2.56032e-06
6.83542e-06
1.62488e-05
2.7314e-05
3.15421e-05
3.11387e-05
2.89274e-05
2.64394e-05
2.43991e-05
2.29971e-05
2.2201e-05
2.19083e-05
2.19618e-05
2.21972e-05
2.24473e-05
2.25285e-05
2.22375e-05
2.13806e-05
1.98555e-05
1.773e-05
1.52714e-05
1.28577e-05
1.07035e-05
8.9093e-06
7.5482e-06
6.67493e-06
6.36348e-06
6.81189e-06
8.56121e-06
1.2388e-05
1.45436e-05
6.27356e-06
2.19234e-06
2.03899e-07
1.63739e-07
2.56474e-06
6.86367e-06
1.63541e-05
2.73728e-05
3.14236e-05
3.08795e-05
2.85927e-05
2.6099e-05
2.41011e-05
2.27656e-05
2.20464e-05
2.18293e-05
2.19525e-05
2.22498e-05
2.25519e-05
2.26722e-05
2.24057e-05
2.15599e-05
2.00399e-05
1.79242e-05
1.54881e-05
1.31059e-05
1.09675e-05
9.17423e-06
7.80395e-06
6.91817e-06
6.59953e-06
7.05834e-06
8.84893e-06
1.27307e-05
1.47801e-05
6.35192e-06
2.21264e-06
2.05125e-07
1.6556e-07
2.56858e-06
6.89027e-06
1.64553e-05
2.74202e-05
3.12892e-05
3.0603e-05
2.82427e-05
2.57473e-05
2.37957e-05
2.2529e-05
2.18882e-05
2.17474e-05
2.19401e-05
2.22984e-05
2.26504e-05
2.28071e-05
2.25616e-05
2.17236e-05
2.02065e-05
1.81008e-05
1.56897e-05
1.33411e-05
1.12221e-05
9.43393e-06
8.05895e-06
7.1648e-06
6.84267e-06
7.31589e-06
9.15129e-06
1.30871e-05
1.50198e-05
6.43191e-06
2.23345e-06
2.06401e-07
1.67316e-07
2.57198e-06
6.91566e-06
1.65533e-05
2.74571e-05
3.11394e-05
3.03094e-05
2.78782e-05
2.53856e-05
2.3484e-05
2.22886e-05
2.17277e-05
2.16636e-05
2.19257e-05
2.23439e-05
2.27441e-05
2.29342e-05
2.27062e-05
2.1873e-05
2.03572e-05
1.82621e-05
1.5879e-05
1.35645e-05
1.14667e-05
9.68711e-06
8.31168e-06
7.41364e-06
7.09254e-06
7.58461e-06
9.46874e-06
1.34575e-05
1.52623e-05
6.51344e-06
2.25477e-06
2.07728e-07
1.69012e-07
2.57487e-06
6.93972e-06
1.6648e-05
2.74829e-05
3.09734e-05
2.99982e-05
2.74989e-05
2.5014e-05
2.31665e-05
2.20447e-05
2.15651e-05
2.15784e-05
2.19097e-05
2.2387e-05
2.28335e-05
2.30545e-05
2.28408e-05
2.20096e-05
2.04943e-05
1.84118e-05
1.60602e-05
1.37789e-05
1.17029e-05
9.93426e-06
8.5619e-06
7.66394e-06
7.348e-06
7.86324e-06
9.80056e-06
1.38412e-05
1.55066e-05
6.59609e-06
2.27654e-06
2.09102e-07
1.70651e-07
2.57734e-06
6.96263e-06
1.67396e-05
2.74977e-05
3.07915e-05
2.96701e-05
2.71065e-05
2.46344e-05
2.28448e-05
2.1799e-05
2.14018e-05
2.14928e-05
2.1893e-05
2.24284e-05
2.29194e-05
2.31684e-05
2.29659e-05
2.21341e-05
2.06186e-05
1.85505e-05
1.62341e-05
1.3985e-05
1.19309e-05
1.01749e-05
8.80869e-06
7.91474e-06
7.60854e-06
8.15219e-06
1.01471e-05
1.42381e-05
1.57521e-05
6.67976e-06
2.29876e-06
2.10523e-07
1.7224e-07
2.57938e-06
6.98454e-06
1.68286e-05
2.75017e-05
3.0593e-05
2.93247e-05
2.67008e-05
2.42471e-05
2.25195e-05
2.1552e-05
2.12384e-05
2.14074e-05
2.18762e-05
2.24687e-05
2.30026e-05
2.32772e-05
2.3083e-05
2.22483e-05
2.07319e-05
1.86798e-05
1.64009e-05
1.41841e-05
1.21522e-05
1.04102e-05
9.05235e-06
8.16562e-06
7.87311e-06
8.44976e-06
1.05061e-05
1.46458e-05
1.59974e-05
6.76397e-06
2.32132e-06
2.11995e-07
1.73777e-07
2.58098e-06
7.0053e-06
1.69146e-05
2.74943e-05
3.03786e-05
2.89632e-05
2.62836e-05
2.38539e-05
2.21923e-05
2.13053e-05
2.10761e-05
2.1323e-05
2.18598e-05
2.25084e-05
2.30834e-05
2.33813e-05
2.31926e-05
2.23527e-05
2.08345e-05
1.87993e-05
1.65597e-05
1.43755e-05
1.23665e-05
1.06399e-05
9.29279e-06
8.4164e-06
8.1416e-06
8.75635e-06
1.08788e-05
1.50635e-05
1.62423e-05
6.84878e-06
2.34429e-06
2.13518e-07
1.75269e-07
2.5822e-06
7.02519e-06
1.69982e-05
2.74757e-05
3.01471e-05
2.85846e-05
2.58546e-05
2.34549e-05
2.18636e-05
2.10596e-05
2.09157e-05
2.12403e-05
2.18444e-05
2.25479e-05
2.31624e-05
2.34814e-05
2.32959e-05
2.24488e-05
2.09281e-05
1.89105e-05
1.67111e-05
1.456e-05
1.25745e-05
1.08644e-05
9.52989e-06
8.66645e-06
8.41295e-06
9.07042e-06
1.12631e-05
1.549e-05
1.64851e-05
6.93333e-06
2.36744e-06
2.15088e-07
1.76711e-07
2.58296e-06
7.04382e-06
1.70783e-05
2.74451e-05
2.98991e-05
2.81902e-05
2.54152e-05
2.30514e-05
2.15347e-05
2.08172e-05
2.07585e-05
2.11596e-05
2.18297e-05
2.25868e-05
2.32392e-05
2.35773e-05
2.33926e-05
2.25366e-05
2.10132e-05
1.9014e-05
1.68554e-05
1.47378e-05
1.27767e-05
1.10845e-05
9.76435e-06
8.91634e-06
8.6875e-06
9.39207e-06
1.16587e-05
1.59242e-05
1.67261e-05
7.01776e-06
2.39084e-06
2.16699e-07
1.78102e-07
2.5833e-06
7.06141e-06
1.71556e-05
2.74023e-05
2.96336e-05
2.77792e-05
2.49653e-05
2.26433e-05
2.12052e-05
2.05786e-05
2.06048e-05
2.10811e-05
2.18161e-05
2.26257e-05
2.33145e-05
2.36695e-05
2.34837e-05
2.26176e-05
2.10915e-05
1.91119e-05
1.69936e-05
1.49092e-05
1.29731e-05
1.13e-05
9.99588e-06
9.16565e-06
8.96471e-06
9.72065e-06
1.20646e-05
1.63646e-05
1.69634e-05
7.10138e-06
2.41452e-06
2.18354e-07
1.79446e-07
2.58316e-06
7.07768e-06
1.72292e-05
2.73475e-05
2.93512e-05
2.73525e-05
2.45059e-05
2.22314e-05
2.08747e-05
2.03396e-05
2.04513e-05
2.10035e-05
2.18034e-05
2.26646e-05
2.33879e-05
2.37579e-05
2.35691e-05
2.26923e-05
2.11646e-05
1.92067e-05
1.71273e-05
1.50752e-05
1.31643e-05
1.15114e-05
1.02251e-05
9.41487e-06
9.24491e-06
1.00562e-05
1.24804e-05
1.68101e-05
1.71965e-05
7.18381e-06
2.43832e-06
2.20046e-07
1.8074e-07
2.58259e-06
7.09273e-06
1.72995e-05
2.72801e-05
2.90509e-05
2.69096e-05
2.40372e-05
2.18167e-05
2.05452e-05
2.01037e-05
2.03018e-05
2.09296e-05
2.17936e-05
2.2705e-05
2.3461e-05
2.38435e-05
2.365e-05
2.27623e-05
2.12351e-05
1.9302e-05
1.72585e-05
1.5237e-05
1.3351e-05
1.17191e-05
1.04522e-05
9.66431e-06
9.52838e-06
1.03988e-05
1.29053e-05
1.7259e-05
1.74251e-05
7.26498e-06
2.46214e-06
2.21769e-07
1.81996e-07
2.58161e-06
7.10678e-06
1.73671e-05
2.72005e-05
2.87327e-05
2.64508e-05
2.35596e-05
2.13988e-05
2.02157e-05
1.98693e-05
2.01546e-05
2.08585e-05
2.17864e-05
2.27471e-05
2.35339e-05
2.39268e-05
2.37269e-05
2.28286e-05
2.13044e-05
1.93993e-05
1.73889e-05
1.53955e-05
1.35337e-05
1.19233e-05
1.0677e-05
9.9132e-06
9.81412e-06
1.07477e-05
1.33388e-05
1.77102e-05
1.76485e-05
7.3447e-06
2.48593e-06
2.23519e-07
1.83209e-07
2.58018e-06
7.11953e-06
1.74311e-05
2.71076e-05
2.83959e-05
2.59758e-05
2.30736e-05
2.09785e-05
1.98869e-05
1.96371e-05
2.00104e-05
2.07908e-05
2.17826e-05
2.27916e-05
2.36075e-05
2.40086e-05
2.38005e-05
2.28912e-05
2.13719e-05
1.94972e-05
1.75179e-05
1.55509e-05
1.37128e-05
1.21244e-05
1.09002e-05
1.01629e-05
1.01035e-05
1.11036e-05
1.37803e-05
1.81622e-05
1.7866e-05
7.42259e-06
2.50957e-06
2.25294e-07
1.84397e-07
2.57842e-06
7.13147e-06
1.74929e-05
2.70018e-05
2.804e-05
2.54849e-05
2.25793e-05
2.05559e-05
1.95587e-05
1.94071e-05
1.98694e-05
2.0727e-05
2.17829e-05
2.28397e-05
2.36832e-05
2.40902e-05
2.38719e-05
2.29511e-05
2.14376e-05
1.95941e-05
1.76444e-05
1.57027e-05
1.38879e-05
1.2322e-05
1.11212e-05
1.0412e-05
1.03953e-05
1.14662e-05
1.423e-05
1.86151e-05
1.80779e-05
7.49872e-06
2.53306e-06
2.27092e-07