/*--------------------------------*- C++ -*----------------------------------*\
| =========                 |                                                 |
| \\      /  F ield         | OpenFOAM: The Open Source CFD Toolbox           |
|  \\    /   O peration     | Version:  v2006                                 |
|   \\  /    A nd           | Website:  www.openfoam.com                      |
|    \\/     M anipulation  |                                                 |
\*---------------------------------------------------------------------------*/
FoamFile
{
    version     2.0;
    format      ascii;
    class       volScalarField;
    location    "61";
    object      omega;
}
// * * * * * * * * * * * * * * * * * * * * * * * * * * * * * * * * * * * * * //

dimensions      [0 0 -1 0 0 0 0];


internalField   nonuniform List<scalar> 
78750
(
352.819
13.5922
13.6177
13.6407
13.6615
13.6799
13.696
13.7101
13.7223
13.7327
13.7415
13.7487
13.7543
13.7585
13.7612
13.7626
13.7627
13.7616
13.7592
13.7557
13.751
13.7449
13.7376
13.729
13.7192
13.708
13.6956
13.6822
13.6681
13.654
13.6412
13.6328
13.6342
13.6522
357.21
517.689
4.14939
4.23711
4.31593
4.38246
4.43775
4.48342
4.52012
4.54874
4.57019
4.58525
4.5946
4.59893
4.59889
4.59502
4.58782
4.57775
4.56523
4.55062
4.53426
4.51633
4.49693
4.47621
4.4542
4.43082
4.40593
4.37938
4.35103
4.32096
4.28917
4.25527
4.22006
4.1887
4.17141
524.639
517.693
4.18888
4.30709
4.41178
4.49941
4.56854
4.62283
4.66588
4.69902
4.72327
4.73954
4.7487
4.7515
4.74863
4.74072
4.72838
4.71221
4.69279
4.67073
4.64664
4.62113
4.59463
4.56749
4.53978
4.51132
4.48176
4.45077
4.41814
4.38353
4.34641
4.30692
4.26758
4.23582
4.22138
525.111
517.706
4.23647
4.38282
4.50741
4.60781
4.68507
4.74297
4.7868
4.81973
4.84292
4.85739
4.86411
4.86399
4.85766
4.84569
4.82868
4.80724
4.78205
4.75386
4.72352
4.69196
4.66009
4.62846
4.59711
4.56565
4.53345
4.49991
4.46445
4.42654
4.38583
4.34315
4.30246
4.27235
4.26062
525.49
517.718
4.27836
4.4489
4.59017
4.69987
4.78101
4.83971
4.8827
4.9137
4.93417
4.94532
4.94827
4.9439
4.93277
4.91543
4.89252
4.86476
4.83299
4.79817
4.76147
4.7243
4.68819
4.65421
4.62238
4.59189
4.56147
4.52981
4.49578
4.45848
4.41763
4.37461
4.33436
4.3059
4.29556
525.825
517.732
4.32221
4.51551
4.67144
4.78833
4.87184
4.9307
4.97274
5.00201
5.02019
5.02858
5.02829
5.01985
5.00374
4.98049
4.95081
4.91557
4.87583
4.83284
4.78811
4.74359
4.70156
4.66383
4.6307
4.60115
4.5734
4.54537
4.51515
4.48123
4.44303
4.40212
4.36387
4.33705
4.32688
526.109
517.746
4.36086
4.57332
4.74142
4.86418
4.94964
5.00876
5.05028
5.07837
5.09478
5.10098
5.09773
5.08538
5.06434
5.03518
4.99869
4.95593
4.90815
4.8569
4.80406
4.75208
4.704
4.66224
4.62727
4.59809
4.5728
4.54896
4.52397
4.49559
4.46261
4.42619
4.3915
4.36652
4.35582
526.38
517.76
4.39737
4.62719
4.80625
4.93445
5.02207
5.08198
5.12331
5.15049
5.16571
5.17017
5.16432
5.14843
5.12288
5.0883
5.04561
4.99606
4.94111
4.88254
4.82252
4.76386
4.71014
4.66411
4.62623
4.59563
4.57067
4.54905
4.52803
4.50489
4.47775
4.44695
4.41674
4.3939
4.38251
526.624
517.774
4.43095
4.67639
4.86526
4.99831
5.08786
5.14846
5.18963
5.21615
5.23027
5.23288
5.22434
5.20484
5.17479
5.1349
5.08626
5.03028
4.96866
4.90344
4.8371
4.77293
4.71507
4.66616
4.62627
4.59452
4.5695
4.54924
4.53124
4.51269
4.49119
4.46616
4.44063
4.41999
4.40795
526.86
517.786
4.4624
4.72219
4.9202
5.05801
5.14973
5.2113
5.2528
5.27909
5.29234
5.29339
5.28249
5.25982
5.2258
5.18124
5.12736
5.06576
4.99833
4.9273
4.85546
4.78647
4.72492
4.67332
4.63134
4.598
4.57208
4.55199
4.53567
4.52051
4.50386
4.48423
4.46326
4.44493
4.4325
527.078
517.799
4.49247
4.76564
4.97201
5.11404
5.20758
5.26987
5.31147
5.33732
5.34955
5.3489
5.33556
5.30967
5.2717
5.22257
5.16364
5.09668
5.02379
4.94744
4.87075
4.79787
4.7339
4.68087
4.63796
4.60396
4.57766
4.55776
4.54262
4.53004
4.51735
4.5024
4.48553
4.46934
4.45667
527.287
517.811
4.52182
4.80764
5.02188
5.16793
5.26331
5.32644
5.36828
5.39384
5.4052
5.40303
5.38746
5.35862
5.31704
5.26372
5.20017
5.12829
5.05037
4.96908
4.88782
4.81116
4.74476
4.69033
4.64662
4.61216
4.58565
4.56592
4.55167
4.54109
4.53164
4.5207
4.50746
4.49327
4.48043
527.484
517.824
4.55001
4.84761
5.06903
5.21863
5.31557
5.37936
5.42133
5.44653
5.45697
5.45326
5.43547
5.40374
5.35865
5.3013
5.23331
5.15675
5.07405
4.9881
4.90261
4.82264
4.7544
4.69922
4.65542
4.62121
4.59514
4.57606
4.56288
4.55409
4.54736
4.53977
4.52956
4.51704
4.5039
527.673
517.837
4.57856
4.88759
5.11578
5.26861
5.36696
5.43138
5.4735
5.49837
5.50795
5.50278
5.4829
5.44846
5.40008
5.33897
5.26685
5.18589
5.09867
5.00822
4.91853
4.83508
4.76467
4.70853
4.66459
4.63079
4.60543
4.5873
4.57538
4.56837
4.56406
4.55935
4.55172
4.54058
4.52698
527.853
517.85
4.60569
4.92521
5.15955
5.3153
5.41495
5.47998
5.52227
5.54687
5.55567
5.54916
5.52732
5.49034
5.43891
5.37429
5.29831
5.21324
5.12175
5.02701
4.93331
4.84652
4.77412
4.7172
4.6734
4.64035
4.61614
4.5994
4.5891
4.58401
4.582
4.57976
4.57422
4.56408
4.54975
528.028
517.863
4.6336
4.96345
5.20362
5.362
5.46277
5.52833
5.57077
5.5951
5.60316
5.59535
5.57167
5.53232
5.47804
5.41018
5.33062
5.24168
5.14614
5.04724
4.94948
4.85909
4.7842
4.72611
4.68222
4.64987
4.62692
4.61181
4.60339
4.60039
4.60063
4.60064
4.59686
4.58743
4.57215
528.195
517.877
4.65993
4.99919
5.24467
5.40547
5.50736
5.57354
5.61623
5.64043
5.64789
5.63898
5.61366
5.57218
5.51534
5.44453
5.3617
5.26921
5.16987
5.06702
4.96533
4.87136
4.7939
4.7346
4.69063
4.65912
4.63766
4.62449
4.61827
4.6176
4.62014
4.62219
4.61982
4.61078
4.59426
528.358
517.891
4.68709
5.0357
5.28625
5.44926
5.55215
5.61887
5.66181
5.68588
5.69277
5.68281
5.65597
5.61253
5.55333
5.47983
5.39399
5.29819
5.19523
5.08856
4.98289
4.88505
4.80444
4.74339
4.69898
4.66811
4.64814
4.63704
4.63325
4.63511
4.64004
4.64406
4.64289
4.63402
4.61608
528.517
517.904
4.71275
5.06984
5.32505
5.49014
5.59409
5.66148
5.70478
5.72886
5.73534
5.72451
5.69635
5.6512
5.58994
5.51406
5.42552
5.3267
5.22041
5.11012
5.00061
4.89888
4.81492
4.75193
4.70693
4.67669
4.65831
4.64951
4.64841
4.65303
4.66045
4.66635
4.66617
4.65723
4.63763
528.671
517.919
4.73912
5.1047
5.36443
5.53148
5.6364
5.70444
5.7481
5.77219
5.77827
5.76662
5.73725
5.69054
5.62743
5.54942
5.45847
5.35689
5.24749
5.13369
5.02031
4.91442
4.82647
4.7609
4.71483
4.6849
4.66801
4.66158
4.66336
4.67096
4.68103
4.68883
4.68955
4.68039
4.65894
528.822
517.933
4.76415
5.13749
5.4014
5.57038
5.67638
5.74517
5.78929
5.81348
5.81927
5.80693
5.77652
5.72847
5.66377
5.58393
5.49088
5.38689
5.2747
5.15764
5.04054
4.93051
4.83833
4.76988
4.72246
4.69268
4.67726
4.67331
4.67816
4.68894
4.70177
4.71145
4.71293
4.70339
4.67995
528.971
517.947
4.78975
5.17085
5.43891
5.60981
5.71689
5.78645
5.831
5.85523
5.86069
5.84767
5.81629
5.76705
5.70097
5.61956
5.5247
5.4186
5.30387
5.18374
5.06293
4.94855
4.85155
4.77955
4.7302
4.70015
4.68599
4.68449
4.69256
4.70673
4.72252
4.73417
4.73641
4.72637
4.70074
529.116
517.962
4.81413
5.20235
5.47437
5.64726
5.75563
5.82608
5.87108
5.89534
5.90046
5.88681
5.85458
5.80434
5.73713
5.65445
5.55812
5.45027
5.33338
5.21049
5.08621
4.96755
4.86557
4.78968
4.73801
4.70738
4.6943
4.69525
4.70663
4.72432
4.74314
4.75675
4.75966
4.74904
4.72112
529.259
517.977
4.83887
5.23417
5.51017
5.68522
5.79515
5.8666
5.91182
5.93588
5.94052
5.92622
5.89321
5.84211
5.77399
5.6903
5.5928
5.48351
5.36474
5.23935
5.11174
4.98875
4.88141
4.80097
4.74634
4.71458
4.70223
4.70548
4.7202
4.74156
4.76358
4.7793
4.78292
4.77161
4.7412
529.4
517.992
4.86241
5.26418
5.54398
5.7214
5.8333
5.90581
5.95133
5.97491
5.97899
5.96407
5.93042
5.87868
5.80989
5.72549
5.62716
5.5168
5.39656
5.26906
5.13847
5.01138
4.8987
4.81339
4.75533
4.72198
4.71001
4.7154
4.73344
4.75852
4.7838
4.80155
4.80575
4.7938
4.76084
529.538
518.007
4.8861
5.29419
5.57773
5.75769
5.87088
5.94432
5.99038
6.01387
6.01738
6.00192
5.96776
5.91553
5.84628
5.76141
5.66253
5.55141
5.43002
5.30073
5.16743
5.0364
4.91833
4.82763
4.76549
4.72992
4.71781
4.72498
4.7462
4.775
4.8036
4.82353
4.82863
4.8156
4.77994
529.674
518.022
4.90869
5.32252
5.60944
5.79176
5.90637
5.98085
6.0276
6.0513
6.05428
6.03835
6.0038
5.95127
5.8818
5.79673
5.6976
5.58607
5.46393
5.33328
5.19771
5.06315
4.93998
4.84368
4.77703
4.7387
4.72596
4.73457
4.75878
4.79125
4.82319
4.84537
4.85158
4.83738
4.7986
529.807
518.037
4.93134
5.35081
5.64107
5.82546
5.94127
6.01672
6.06418
6.0882
6.09094
6.0746
6.03975
5.98705
5.91753
5.83249
5.73338
5.62173
5.49916
5.36751
5.23003
5.09228
4.96424
4.86205
4.7904
4.74869
4.73468
4.74423
4.77111
4.80708
4.84234
4.86692
4.87435
4.85916
4.8169
529.938
518.052
4.95291
5.37759
5.67136
5.85726
5.97416
6.05062
6.0989
6.12345
6.12632
6.10953
6.07447
6.02176
5.9524
5.86762
5.76881
5.65737
5.53473
5.4025
5.26359
5.12312
4.99066
4.88259
4.8057
4.76015
4.74433
4.75431
4.7835
4.82282
4.86144
4.8888
4.89717
4.88086
4.83482
530.066
518.068
4.97419
5.40375
5.70077
5.88819
6.00622
6.0837
6.13282
6.15791
6.16095
6.14387
6.10878
6.05625
5.98723
5.90291
5.80461
5.69363
5.57123
5.43877
5.29883
5.15607
5.01956
4.90564
4.82329
4.77341
4.75516
4.76497
4.796
4.83839
4.88035
4.91058
4.91983
4.90231
4.85231
530.191
518.083
4.99457
5.42857
5.72859
5.91738
6.03649
6.11502
6.16503
6.19079
6.19417
6.17699
6.14198
6.08974
6.0212
5.93753
5.83996
5.7297
5.60787
5.47556
5.33504
5.1905
5.05046
4.93102
4.84321
4.78872
4.76754
4.7766
4.809
4.85416
4.8993
4.93233
4.94235
4.9235
4.86934
530.314
518.098
5.01462
5.45279
5.75563
5.94572
6.06587
6.14542
6.19634
6.22281
6.22664
6.20956
6.17465
6.12276
6.05482
5.97195
5.87531
5.76601
5.645
5.51318
5.37247
5.22662
5.08353
4.95889
4.86569
4.80633
4.78169
4.78938
4.82253
4.87001
4.91809
4.95381
4.96454
4.94429
4.88587
530.434
518.113
5.03385
5.47578
5.78117
5.97243
6.09358
6.17415
6.226
6.25324
6.25764
6.24094
6.20613
6.15468
6.08747
6.00557
5.91005
5.80192
5.68201
5.55099
5.41051
5.26384
5.11829
4.98899
4.89066
4.82639
4.79792
4.80365
4.83699
4.88635
4.93705
4.97519
4.98646
4.96469
4.90187
530.551
518.128
5.05279
5.49823
5.80597
5.99827
6.12035
6.2019
6.25466
6.28264
6.28762
6.2713
6.23671
6.18583
6.11951
6.03872
5.94448
5.8377
5.71909
5.58916
5.44925
5.30223
5.15476
5.02135
4.9182
4.84902
4.81638
4.81957
4.85243
4.90304
4.95589
4.99624
5.00796
4.98461
4.91733
530.665
518.143
5.071
5.51962
5.8294
6.0226
6.14555
6.22805
6.28173
6.31051
6.31613
6.3003
6.26605
6.21587
6.15053
6.07097
5.97813
5.87286
5.75576
5.62716
5.48817
5.34124
5.19245
5.05562
4.94815
4.87424
4.83724
4.8374
4.86915
4.92049
4.97529
5.0172
5.02908
5.00404
4.93224
530.777
518.158
5.08893
5.54057
5.8521
6.04603
6.16975
6.25315
6.30771
6.33728
6.34355
6.32824
6.2944
6.245
6.18075
6.10252
6.01121
5.90757
5.79213
5.66506
5.52727
5.38083
5.23126
5.09166
4.9804
4.90201
4.86055
4.85725
4.88728
4.93878
4.9951
5.03807
5.04984
5.02297
4.9466
530.887
518.173
5.10613
5.56082
5.87353
6.06799
6.19242
6.2767
6.33215
6.3625
6.36944
6.35473
6.32144
6.27294
6.20987
6.13307
6.04338
5.94149
5.82783
5.70248
5.56614
5.42055
5.27072
5.12909
5.01465
4.93218
4.88631
4.87924
4.90702
4.95806
5.01535
5.05891
5.07025
5.04141
4.96042
530.994
518.187
5.12277
5.58023
5.89396
6.08891
6.21402
6.29917
6.35549
6.38664
6.39428
6.38017
6.34743
6.29986
6.23807
6.16278
6.0748
5.97475
5.863
5.7395
5.60481
5.46038
5.31076
5.16772
5.05072
4.96461
4.91448
4.90343
4.92844
4.97841
5.03606
5.07972
5.09035
5.05937
4.97372
531.099
518.202
5.13869
5.59857
5.91311
6.10842
6.23417
6.32014
6.37733
6.40928
6.41764
6.40421
6.37215
6.32557
6.26507
6.19138
6.10519
6.00706
5.89731
5.7758
5.64293
5.49993
5.35095
5.20718
5.08826
4.99904
4.94493
4.9298
4.95162
4.99991
5.05727
5.10054
5.11016
5.07689
4.98653
531.201
518.216
5.15405
5.61607
5.93126
6.12688
6.25321
6.34
6.39802
6.43076
6.43984
6.4271
6.39576
6.35026
6.29112
6.21903
6.13466
6.03855
5.93087
5.81143
5.68053
5.5392
5.39122
5.24727
5.12704
5.03522
4.97743
4.95821
4.97652
5.02255
5.07901
5.12141
5.12971
5.09398
4.99889
531.302
518.23
5.16861
5.63248
5.94816
6.144
6.27088
6.35843
6.41727
6.45079
6.46061
6.4486
6.41806
6.37369
6.31597
6.24554
6.16303
6.06893
5.96342
5.84615
5.71736
5.57789
5.43126
5.2877
5.16675
5.07288
5.01178
4.98856
5.00308
5.04636
5.10132
5.14237
5.14904
5.1107
5.01083
531.402
518.243
5.18262
5.64808
5.96409
6.16007
6.28744
6.37573
6.43535
6.46963
6.48017
6.46891
6.43922
6.39602
6.33976
6.27102
6.1904
6.09835
5.99499
5.87998
5.75339
5.61596
5.47098
5.32828
5.20719
5.11179
5.04778
5.02069
5.03125
5.07133
5.12422
5.16344
5.16819
5.12709
5.0224
531.499
518.256
5.1958
5.66259
5.97879
6.17486
6.30268
6.39166
6.45205
6.48707
6.49834
6.48785
6.45906
6.41708
6.36231
6.29531
6.21662
6.12665
6.02548
5.91274
5.78845
5.65322
5.51015
5.36879
5.2481
5.1517
5.08519
5.05444
5.06093
5.09743
5.14775
5.18468
5.18722
5.14318
5.03365
531.595
518.269
5.20837
5.67627
5.99253
6.18861
6.31683
6.40647
6.46758
6.50332
6.5153
6.50558
6.47773
6.437
6.38375
6.3185
6.24175
6.15388
6.05492
5.94447
5.82255
5.68964
5.54872
5.40912
5.2893
5.1924
5.12381
5.08961
5.09199
5.1246
5.17186
5.2061
5.20615
5.15903
5.04462
531.689
518.282
5.22017
5.68893
6.00512
6.20114
6.32973
6.41999
6.48179
6.51823
6.53091
6.52197
6.49512
6.45567
6.40396
6.34048
6.2657
6.17993
6.08321
5.97509
5.85555
5.72512
5.58657
5.44914
5.33065
5.23369
5.16343
5.12606
5.12435
5.15281
5.19662
5.22777
5.22506
5.17471
5.05537
531.781
518.294
5.23137
5.7008
6.01679
6.21269
6.34158
6.43241
6.49486
6.53196
6.54532
6.53717
6.51133
6.47319
6.42304
6.36133
6.28851
6.20486
6.11038
6.00459
5.88748
5.75953
5.62361
5.48876
5.37201
5.27542
5.20388
5.1636
5.15785
5.18198
5.22196
5.24968
5.24397
5.19025
5.06595
531.872
518.305
5.24182
5.7117
6.02738
6.22309
6.35224
6.4436
6.50668
6.54441
6.55844
6.55108
6.52629
6.48948
6.4409
6.38097
6.31012
6.22859
6.13635
6.03292
5.91828
5.79293
5.65976
5.52786
5.41322
5.3174
5.24497
5.2021
5.19242
5.2121
5.24794
5.27189
5.26295
5.20571
5.07641
531.962
518.317
5.2517
5.72184
6.03709
6.23255
6.3619
6.45374
6.51739
6.55571
6.57038
6.5638
6.54009
6.50461
6.4576
6.39945
6.33055
6.25113
6.16113
6.06007
5.94794
5.82528
5.69506
5.56646
5.45424
5.35953
5.28655
5.24137
5.22791
5.24306
5.27453
5.29444
5.28206
5.22117
5.08681
532.05
518.328
5.26087
5.73109
6.04578
6.24093
6.37045
6.46273
6.52692
6.56581
6.5811
6.5753
6.55269
6.51856
6.47312
6.41674
6.34979
6.27246
6.18469
6.08599
5.97639
5.85649
5.72937
5.60436
5.49491
5.40165
5.32849
5.2813
5.26423
5.27482
5.3017
5.31734
5.30133
5.23667
5.0972
532.137
518.338
5.26947
5.73958
6.05363
6.2484
6.37803
6.47071
6.53539
6.5748
6.59068
6.58565
6.56417
6.53139
6.48751
6.43289
6.36786
6.2926
6.20704
6.1107
6.00363
5.88656
5.7627
5.64158
5.53515
5.44366
5.37064
5.32175
5.30127
5.30733
5.3295
5.34066
5.32085
5.25228
5.10764
532.223
518.348
5.27742
5.74724
6.06053
6.25486
6.38456
6.47759
6.54274
6.58265
6.5991
6.59484
6.5745
6.54307
6.50076
6.44788
6.38475
6.31154
6.22816
6.13415
6.02963
5.91542
5.79494
5.67798
5.57484
5.48541
5.41285
5.36255
5.33886
5.34046
5.35782
5.36436
5.34062
5.26805
5.11817
532.307
518.358
5.28481
5.75417
6.06661
6.26045
6.39016
6.48351
6.54907
6.58944
6.60643
6.60293
6.58375
6.55368
6.51291
6.46175
6.40049
6.3293
6.24807
6.15637
6.05439
5.94308
5.82609
5.71351
5.61389
5.5268
5.45501
5.40363
5.37698
5.37421
5.38672
5.38851
5.36072
5.28404
5.12886
532.391
518.367
5.2916
5.76032
6.0718
6.26508
6.39477
6.4884
6.55435
6.59515
6.61267
6.60993
6.59191
6.5632
6.52396
6.4745
6.41509
6.34586
6.26674
6.17732
6.07786
5.96946
5.85606
5.74807
5.6522
5.5677
5.49699
5.44482
5.41547
5.4085
5.41616
5.41312
5.38118
5.3003
5.13974
532.473
518.376
5.29787
5.76579
6.0762
6.26888
6.3985
6.49236
6.55866
6.59986
6.61788
6.6159
6.59907
6.57172
6.534
6.4862
6.42859
6.36129
6.28423
6.19704
6.10006
5.99459
5.88484
5.78158
5.68963
5.60798
5.53866
5.48606
5.45429
5.44324
5.44612
5.43823
5.40206
5.31688
5.15086
532.555
518.385
5.30358
5.77052
6.07977
6.27179
6.4013
6.49537
6.56199
6.60357
6.62208
6.62085
6.60524
6.57925
6.54304
6.49688
6.44102
6.37561
6.30056
6.21555
6.12102
6.01847
5.91245
5.81403
5.72614
5.64753
5.57987
5.52711
5.49322
5.47841
5.47653
5.4638
5.42337
5.33383
5.16224
532.636
518.393
5.30883
5.77464
6.08262
6.27391
6.40327
6.49751
6.56442
6.60635
6.62533
6.62486
6.61049
6.58587
6.55115
6.50661
6.45248
6.3889
6.31581
6.23292
6.14081
6.04116
5.93891
5.84538
5.76163
5.68622
5.62045
5.56788
5.53221
5.51397
5.50741
5.48985
5.44513
5.35116
5.17392
532.716
518.401
5.31358
5.77808
6.08469
6.2752
6.40438
6.49875
6.56593
6.60817
6.62763
6.62793
6.61483
6.5916
6.55837
6.51543
6.463
6.40122
6.33005
6.24926
6.15953
6.06281
5.96442
5.87575
5.79616
5.72402
5.66034
5.60824
5.57112
5.54978
5.53869
5.51636
5.46735
5.36888
5.1859
532.796
518.409
5.3179
5.78093
6.08607
6.27574
6.40469
6.49917
6.56657
6.60913
6.62904
6.63012
6.61832
6.59648
6.56475
6.52339
6.47264
6.41263
6.34334
6.26463
6.17729
6.08355
5.98919
5.90524
5.82972
5.76088
5.69944
5.64808
5.60989
5.5858
5.57037
5.54334
5.49004
5.38702
5.19819
532.876
518.416
5.32177
5.78316
6.08673
6.2755
6.40418
6.49874
6.56635
6.60919
6.62956
6.63145
6.62099
6.60056
6.57033
6.53055
6.48146
6.4232
6.3558
6.27916
6.19427
6.10363
6.01353
5.93411
5.8625
5.79689
5.73774
5.68732
5.64835
5.6218
5.60229
5.57073
5.51317
5.40556
5.21077
532.956
518.424
5.32523
5.78482
6.08671
6.27453
6.40291
6.49752
6.56532
6.60843
6.62926
6.63197
6.62288
6.60388
6.57514
6.53693
6.48949
6.43297
6.36744
6.2929
6.21049
6.12308
6.03749
5.96242
5.89458
5.83211
5.77526
5.72593
5.68646
5.65781
5.63446
5.59851
5.53676
5.42452
5.22368
533.036
518.431
5.32827
5.78589
6.086
6.27281
6.40086
6.49549
6.56347
6.60685
6.62816
6.63172
6.62404
6.60649
6.57925
6.5426
6.49679
6.442
6.37834
6.30589
6.22602
6.14192
6.06099
5.99019
5.92601
5.86659
5.81201
5.76385
5.7241
5.69365
5.66669
5.62657
5.56072
5.44385
5.23687
533.116
518.438
5.33091
5.78639
6.08462
6.27037
6.39805
6.49269
6.56083
6.60449
6.6263
6.63075
6.62451
6.60842
6.58268
6.54759
6.5034
6.45033
6.38852
6.31818
6.24086
6.16016
6.08398
6.01739
5.95681
5.90038
5.84805
5.80112
5.76128
5.72932
5.69906
5.65491
5.58507
5.4636
5.2504
533.196
518.445
5.33315
5.78633
6.08257
6.2672
6.39449
6.48912
6.55741
6.60137
6.62372
6.62912
6.62435
6.60971
6.58546
6.55191
6.50934
6.45798
6.39802
6.32979
6.25506
6.17781
6.10642
6.04399
5.98696
5.93345
5.88334
5.83769
5.79788
5.76466
5.73137
5.68344
5.60971
5.48363
5.26417
533.276
518.451
5.33499
5.7857
6.07985
6.26332
6.39018
6.48477
6.55322
6.5975
6.62048
6.62698
6.62363
6.61041
6.58762
6.5556
6.51464
6.46499
6.40689
6.34079
6.26869
6.19497
6.12838
6.07008
6.01653
5.96591
5.91798
5.87363
5.83398
5.7997
5.76363
5.71216
5.63467
5.50403
5.27823
533.356
518.457
5.33644
5.78451
6.07648
6.25872
6.38512
6.47966
6.54825
6.59286
6.61656
6.62438
6.62233
6.61047
6.58913
6.55864
6.51929
6.47136
6.41514
6.3512
6.2818
6.21171
6.14988
6.09563
6.0455
5.9977
5.95193
5.90889
5.8695
5.83436
5.79573
5.74092
5.65981
5.52465
5.29256
533.436
518.464
5.3375
5.78278
6.07247
6.25345
6.37935
6.47381
6.54251
6.58743
6.61183
6.62097
6.6203
6.60987
6.59001
6.56108
6.52337
6.47718
6.42288
6.36116
6.29455
6.22827
6.17108
6.12078
6.074
6.02896
5.98531
5.94358
5.9045
5.86865
5.82766
5.76972
5.68512
5.5455
5.30712
533.517
518.47
5.33817
5.7805
6.06782
6.24747
6.37285
6.46721
6.53601
6.58127
6.60643
6.61696
6.61769
6.6087
6.59033
6.56295
6.52688
6.48245
6.43012
6.37072
6.30706
6.24484
6.19211
6.14559
6.10203
6.05968
6.01812
5.97772
5.93904
5.90262
5.85944
5.79853
5.71056
5.56653
5.32187
533.597
518.475
5.3385
5.77773
6.06257
6.24084
6.36566
6.45988
6.52877
6.57436
6.60031
6.6123
6.61449
6.60697
6.59012
6.56431
6.52989
6.48725
6.43693
6.37995
6.31942
6.26154
6.21306
6.17016
6.12967
6.0899
6.05033
6.0112
5.97293
5.93611
5.89095
5.82729
5.73609
5.58773
5.3368
533.678
518.481
5.33846
5.77444
6.0567
6.23352
6.35773
6.45179
6.52076
6.56669
6.59346
6.60698
6.61068
6.60468
6.58937
6.56514
6.53239
6.49156
6.4433
6.38881
6.33157
6.27822
6.23389
6.19448
6.15696
6.11967
6.08206
6.04421
6.00639
5.96925
5.92223
5.85595
5.76163
5.609
5.35182
533.758
518.487
5.33814
5.77071
6.05027
6.22557
6.34913
6.443
6.51201
6.55829
6.58594
6.60107
6.60633
6.60189
6.58815
6.56553
6.53446
6.49545
6.44927
6.39734
6.34348
6.29477
6.25449
6.21848
6.18384
6.14895
6.11321
6.07657
6.0392
6.00193
5.95326
5.88454
5.78721
5.63037
5.36696
533.839
518.492
5.3375
5.76649
6.04324
6.21695
6.3398
6.43344
6.50249
6.54913
6.5777
6.59449
6.60138
6.59855
6.58642
6.56544
6.53608
6.49892
6.45486
6.40554
6.35516
6.31112
6.27481
6.24212
6.21027
6.17771
6.1438
6.1084
6.07169
6.03418
5.98396
5.91294
5.81272
5.65175
5.38214
533.92
518.497
5.33656
5.76182
6.03565
6.20769
6.32979
6.42317
6.49224
6.53927
6.56881
6.58734
6.59591
6.59472
6.58424
6.56494
6.53732
6.50204
6.46014
6.4135
6.36668
6.32728
6.29485
6.26541
6.23629
6.20601
6.17394
6.13989
6.1041
6.06622
6.01445
5.94124
5.83823
5.67316
5.39738
534.001
518.502
5.3353
5.75666
6.02745
6.19775
6.31903
6.41211
6.4812
6.52866
6.55924
6.57955
6.58983
6.59034
6.58156
6.56399
6.53818
6.50486
6.4652
6.42134
6.37824
6.34336
6.31468
6.28836
6.26188
6.23383
6.20359
6.17094
6.13619
6.09793
6.04465
5.96933
5.8636
5.6945
5.4126
534.081
518.507
5.33373
5.75103
6.01868
6.18715
6.30757
6.40031
6.46941
6.51737
6.54911
6.57119
6.58317
6.58538
6.57835
6.56258
6.53865
6.50738
6.4701
6.42919
6.39004
6.35949
6.33438
6.31104
6.2871
6.26123
6.2328
6.20161
6.16796
6.12936
6.07465
5.9973
5.8889
5.71581
5.4278
534.162
518.512
5.33183
5.74492
6.00931
6.17588
6.29536
6.3877
6.45681
6.50538
6.53863
6.56226
6.57587
6.57981
6.57457
6.56067
6.53873
6.50963
6.47487
6.43713
6.4022
6.37578
6.35404
6.33352
6.31198
6.28818
6.2615
6.23174
6.19922
6.16035
6.10427
6.02499
5.91401
5.73698
5.44291
534.242
518.517
5.32963
5.73834
5.99937
6.16396
6.28243
6.3743
6.44334
6.49247
6.52725
6.5525
6.56783
6.57357
6.5702
6.55824
6.53836
6.51155
6.47948
6.44513
6.41465
6.39222
6.37372
6.35588
6.33663
6.31481
6.28984
6.26149
6.23014
6.19102
6.13366
6.05251
5.93901
5.75807
5.45797
534.322
518.522
5.32713
5.73133
5.98888
6.1514
6.26879
6.36013
6.42908
6.4788
6.51514
6.54207
6.55915
6.56672
6.56525
6.55529
6.53755
6.51311
6.48385
6.45306
6.4272
6.40866
6.39329
6.37802
6.36096
6.34102
6.31767
6.29069
6.2605
6.22117
6.1626
6.07969
5.96373
5.77896
5.4729
534.401
518.526
5.32438
5.72391
5.97787
6.13823
6.25446
6.34518
6.414
6.46433
6.50233
6.53099
6.54988
6.55933
6.55981
6.55189
6.53633
6.51435
6.48802
6.46094
6.43976
6.42506
6.41276
6.40002
6.38509
6.36699
6.34522
6.31959
6.29055
6.25102
6.19128
6.10666
5.9883
5.79972
5.48774
534.481
518.531
5.32137
5.7161
5.96635
6.12444
6.2394
6.32944
6.39808
6.44905
6.48876
6.51923
6.54001
6.5514
6.55388
6.54805
6.53475
6.51531
6.49202
6.46879
6.45227
6.44131
6.43199
6.4217
6.40881
6.39246
6.37219
6.34786
6.31998
6.2803
6.21949
6.13326
6.01256
5.82023
5.5024
534.559
518.535
5.31818
5.70796
5.95436
6.11006
6.22364
6.31289
6.38132
6.43297
6.47451
6.5069
6.52965
6.54305
6.54759
6.54391
6.53293
6.51614
6.49603
6.47687
6.46489
6.45754
6.45113
6.44322
6.43235
6.41772
6.39894
6.37587
6.34909
6.30922
6.24735
6.15955
6.03658
5.84054
5.51692
534.638
518.54
5.31483
5.69953
5.94193
6.09507
6.20712
6.29546
6.36362
6.416
6.45947
6.49388
6.5187
6.53421
6.54089
6.53944
6.53088
6.51686
6.50012
6.48525
6.47759
6.47367
6.47003
6.46441
6.45548
6.44251
6.42513
6.40327
6.37764
6.33765
6.27479
6.18549
6.06027
5.86059
5.53125
534.714
518.544
5.31142
5.6909
5.92911
6.07952
6.18986
6.27715
6.345
6.39818
6.44368
6.48023
6.50725
6.52497
6.5339
6.53477
6.52874
6.51762
6.50444
6.49409
6.49052
6.48984
6.48882
6.48538
6.47831
6.46693
6.45095
6.4304
6.40572
6.36558
6.30178
6.21104
6.08365
5.88037
5.54539
534.791
518.548
5.308
5.68212
5.91593
6.06337
6.17178
6.25783
6.32532
6.37938
6.42698
6.46577
6.49513
6.5152
6.52649
6.52981
6.52642
6.51834
6.50888
6.50319
6.50354
6.50596
6.50744
6.5061
6.50085
6.49109
6.4766
6.45759
6.43356
6.39313
6.32839
6.23624
6.10671
5.89988
5.55932
534.866
518.553
5.3047
5.67333
5.90251
6.04673
6.15292
6.23749
6.30457
6.35978
6.40938
6.45048
6.48232
6.5049
6.51871
6.5246
6.52397
6.51906
6.51347
6.51249
6.51662
6.52199
6.52586
6.52655
6.52306
6.51491
6.50195
6.48453
6.46105
6.42027
6.35457
6.26104
6.12942
5.91909
5.57303
534.941
518.558
5.30152
5.66454
5.88886
6.02958
6.1332
6.21593
6.28241
6.3389
6.39046
6.43404
6.46858
6.49391
6.51044
6.51909
6.5214
6.51983
6.51828
6.52196
6.52974
6.53796
6.54415
6.54679
6.54503
6.53847
6.52705
6.51122
6.48823
6.44704
6.38037
6.28548
6.15179
5.938
5.5865
535.013
518.563
5.29862
5.65592
5.87515
6.01206
6.11274
6.19323
6.25879
6.31645
6.37009
6.41636
6.45385
6.48216
6.50163
6.51323
6.51868
6.52066
6.52337
6.53157
6.54283
6.55376
6.56216
6.5667
6.56663
6.56164
6.55175
6.5375
6.51498
6.47337
6.40575
6.30954
6.17381
5.9566
5.59973
535.086
518.568
5.296
5.6475
5.86143
5.99421
6.09154
6.16935
6.23372
6.29246
6.34825
6.39738
6.43803
6.46956
6.49222
6.50704
6.51589
6.5217
6.52898
6.54149
6.55605
6.56956
6.58006
6.5864
6.58796
6.5845
6.57612
6.56342
6.54135
6.49931
6.43075
6.33323
6.1955
5.9749
5.61272
535.156
518.574
5.29375
5.6394
5.8478
5.97613
6.06966
6.14426
6.20703
6.26671
6.32467
6.37681
6.42086
6.45586
6.48196
6.50026
6.51277
6.52272
6.53483
6.55148
6.56918
6.58515
6.59767
6.60576
6.6089
6.60695
6.60004
6.58887
6.56722
6.52476
6.4553
6.35651
6.2168
5.99287
5.62544
535.227
518.579
5.29193
5.63171
5.83441
5.95797
6.04721
6.11808
6.17888
6.23931
6.29944
6.35473
6.40237
6.44107
6.47086
6.49288
6.50934
6.52369
6.54085
6.56153
6.58227
6.60061
6.61508
6.62484
6.62951
6.62901
6.62356
6.61389
6.59265
6.54977
6.47943
6.37941
6.23777
6.01054
5.63792
535.293
518.585
5.29062
5.62452
5.82133
5.93979
6.02423
6.09076
6.14911
6.21007
6.27235
6.3309
6.38233
6.42494
6.45864
6.48463
6.50528
6.52431
6.54661
6.57126
6.59501
6.6157
6.63208
6.64349
6.64966
6.65059
6.64656
6.63836
6.61751
6.57424
6.50307
6.40185
6.25832
6.02785
5.65009
535.362
518.592
5.28999
5.61797
5.80872
5.92174
6.00084
6.06242
6.11785
6.1791
6.2435
6.30544
6.36083
6.40757
6.44542
6.47561
6.50072
6.52472
6.55216
6.58072
6.60743
6.63045
6.64873
6.66177
6.66942
6.67175
6.6691
6.66234
6.64185
6.59819
6.52623
6.42388
6.2785
6.04484
5.66201
535.426
518.599
5.29004
5.61211
5.79664
5.90388
5.97708
6.03303
6.085
6.14619
6.21273
6.27817
6.33768
6.38874
6.43094
6.46561
6.49549
6.52478
6.55726
6.58965
6.61931
6.64466
6.66487
6.67954
6.68865
6.69234
6.69105
6.68569
6.66558
6.62158
6.54886
6.4454
6.29822
6.06142
5.67357
535.492
518.606
5.2908
5.60703
5.78522
5.88634
5.95306
6.0027
6.0507
6.11156
6.18016
6.2492
6.31301
6.36857
6.41536
6.45476
6.48971
6.52461
6.56198
6.59809
6.63065
6.65833
6.68045
6.69678
6.70738
6.71254
6.71289
6.70856
6.6887
6.64435
6.57093
6.46643
6.31752
6.07764
5.68484
535.553
518.614
5.2923
5.60275
5.77449
5.86913
5.92872
5.97129
6.01472
6.07486
6.14546
6.21821
6.2865
6.34679
6.39838
6.44275
6.48305
6.52381
6.56598
6.60579
6.64129
6.67136
6.69548
6.71355
6.72572
6.73244
6.73448
6.73104
6.71132
6.66656
6.59244
6.48692
6.33629
6.09338
5.69569
535.617
518.622
5.29468
5.59942
5.7646
5.85244
5.90426
5.939
5.97731
6.03622
6.10869
6.18527
6.25824
6.32345
6.38005
6.4296
6.47546
6.52218
6.56905
6.61254
6.65099
6.6835
6.7097
6.72957
6.7434
6.75173
6.7555
6.75292
6.73328
6.68813
6.61335
6.50687
6.3546
6.10872
5.70618
535.675
518.631
5.29768
5.5968
5.75538
5.83617
5.87959
5.90566
5.93826
5.99524
6.06943
6.14998
6.22789
6.2983
6.36016
6.41515
6.46684
6.51954
6.5711
6.61831
6.65979
6.69485
6.72322
6.74501
6.76058
6.77059
6.77607
6.77429
6.75468
6.70909
6.63364
6.52621
6.37231
6.12349
5.71616
535.737
518.64
5.30138
5.59496
5.74692
5.82045
5.855
5.87147
5.89743
5.95194
6.02768
6.11229
6.19534
6.27119
6.33856
6.39923
6.45701
6.51556
6.57174
6.62266
6.66725
6.70496
6.73564
6.75946
6.77689
6.78865
6.79591
6.79493
6.77537
6.72939
6.65332
6.54499
6.38952
6.13783
5.72574
535.793
518.65
5.30554
5.59363
5.73903
5.80518
5.83039
5.83662
5.85501
5.9064
5.98342
6.07213
6.16053
6.24208
6.31526
6.38193
6.44612
6.51038
6.57109
6.62576
6.67353
6.714
6.74711
6.77309
6.79246
6.80605
6.81507
6.81489
6.79533
6.74894
6.67226
6.56303
6.40602
6.15149
5.73471
535.854
518.66
5.31003
5.59268
5.73162
5.79036
5.80587
5.80114
5.81101
5.85863
5.93653
6.02922
6.12305
6.21052
6.28976
6.36273
6.43359
6.50344
6.56867
6.62713
6.67819
6.72155
6.75723
6.78551
6.80696
6.82247
6.83333
6.83399
6.8145
6.76776
6.69053
6.58048
6.42199
6.16468
5.74324
535.907
518.67
5.31475
5.59198
5.72455
5.77589
5.78153
5.76542
5.76619
5.80912
5.88731
5.98375
6.08303
6.17656
6.26209
6.3416
6.41929
6.49471
6.5645
6.62685
6.68131
6.72772
6.76612
6.79685
6.82052
6.83804
6.85076
6.85225
6.83282
6.78572
6.70795
6.59709
6.43713
6.17708
5.75107
535.966
518.68
5.31949
5.59126
5.71755
5.76152
5.75709
5.72911
5.72
5.75763
5.8357
5.93565
6.04032
6.13998
6.23192
6.31812
6.40271
6.4837
6.55813
6.62449
6.68252
6.73213
6.77342
6.80676
6.83277
6.85241
6.86707
6.86946
6.85019
6.80286
6.72464
6.61306
6.45171
6.18901
5.75846
536.017
518.691
5.32426
5.59047
5.71053
5.7472
5.73264
5.69257
5.67311
5.70487
5.78218
5.8853
5.99526
6.10104
6.19948
6.2925
6.38389
6.47043
6.54957
6.62009
6.68186
6.73487
6.77926
6.81539
6.84391
6.86579
6.8824
6.88567
6.86656
6.81899
6.74034
6.62804
6.46534
6.20002
5.76504
536.076
518.702
5.32887
5.58936
5.70323
5.73262
5.70782
5.65533
5.62496
5.65022
5.72641
5.83256
5.94777
6.05975
6.16478
6.26475
6.36272
6.45473
6.53861
6.61338
6.67903
6.7356
6.78322
6.82228
6.85342
6.87762
6.89634
6.90067
6.88186
6.83419
6.75525
6.64235
6.4784
6.21057
5.7712
536.126
518.713
5.33332
5.58792
5.69562
5.7178
5.68271
5.61766
5.57599
5.59418
5.66877
5.77765
5.89802
6.01622
6.12793
6.23499
6.33931
6.4367
6.52536
6.60449
6.67418
6.73449
6.78556
6.82776
6.86176
6.88861
6.90919
6.91449
6.89598
6.84822
6.76899
6.65551
6.49031
6.22001
5.77636
536.185
518.724
5.33744
5.58598
5.68755
5.70256
5.65714
5.57925
5.52582
5.5363
5.60878
5.72016
5.8457
5.97021
6.08872
6.20292
6.31342
6.41612
6.50956
6.59312
6.66697
6.73116
6.78585
6.8314
6.86848
6.89819
6.9207
6.92705
6.90895
6.86126
6.78188
6.66795
6.50164
6.22898
5.78109
536.232
518.735
5.34126
5.58359
5.67908
5.68703
5.63131
5.54049
5.47485
5.47681
5.54646
5.65997
5.79058
5.92148
6.04691
6.16835
6.28501
6.3931
6.49144
6.57958
6.65773
6.72599
6.78448