/*--------------------------------*- C++ -*----------------------------------*\
| =========                 |                                                 |
| \\      /  F ield         | OpenFOAM: The Open Source CFD Toolbox           |
|  \\    /   O peration     | Version:  v2006                                 |
|   \\  /    A nd           | Website:  www.openfoam.com                      |
|    \\/     M anipulation  |                                                 |
\*---------------------------------------------------------------------------*/
FoamFile
{
    version     2.0;
    format      ascii;
    class       volVectorField;
    location    "61";
    object      U;
}
// * * * * * * * * * * * * * * * * * * * * * * * * * * * * * * * * * * * * * //

dimensions      [0 1 -1 0 0 0 0];


internalField   nonuniform List<vector> 
78750
(
(-0.0065841 -0.0013553 0.00210748)
(-0.00648647 -0.00579944 0.00263138)
(-0.00547894 -0.00770765 0.00284708)
(-0.0033523 -0.00873549 0.00298803)
(-0.00158037 -0.00927449 0.00308408)
(0.000416256 -0.00943065 0.0031569)
(0.0025548 -0.00931916 0.00320108)
(0.00471479 -0.00901083 0.00321768)
(0.00683582 -0.00855159 0.00320926)
(0.00887568 -0.0079759 0.00317774)
(0.0107999 -0.00731279 0.00312367)
(0.0125814 -0.00658186 0.00304802)
(0.0141985 -0.00579592 0.00295222)
(0.0156337 -0.00496732 0.00283724)
(0.0168729 -0.00410854 0.00270358)
(0.0179055 -0.00323032 0.00255184)
(0.0187244 -0.00234222 0.00238275)
(0.0193253 -0.00145333 0.00219708)
(0.0197072 -0.00057266 0.00199571)
(0.0198724 0.000289901 0.00177956)
(0.0198252 0.00112424 0.001549)
(0.0195634 0.00191977 0.0013046)
(0.0190913 0.00266607 0.00104816)
(0.0184225 0.00335152 0.00078229)
(0.0175712 0.00396353 0.000509616)
(0.0165574 0.00448781 0.000233957)
(0.0154055 0.00490839 -3.9538e-05)
(0.0141418 0.00521072 -0.000303968)
(0.0127927 0.00539306 -0.000550724)
(0.0113766 0.00549865 -0.000771535)
(0.00987747 0.00570502 -0.000957645)
(0.00818969 0.00641483 -0.00108715)
(0.00608963 0.00801594 -0.00108939)
(0.00350588 0.00967947 -0.000823144)
(0.000879413 0.00735327 -0.000186601)
(-0.00027693 0.000601045 0.0021241)
(-6.0332e-05 -0.00766462 0.00317326)
(0.000103341 -0.0138393 0.00357185)
(0.00059633 -0.0184648 0.00360617)
(0.00127225 -0.0215352 0.00350218)
(0.00216659 -0.0232539 0.00340236)
(0.0032339 -0.0239679 0.00333316)
(0.00438752 -0.0239679 0.00327901)
(0.00559449 -0.0234236 0.00323703)
(0.00682726 -0.0224606 0.00320221)
(0.00805029 -0.0211791 0.0031647)
(0.00923163 -0.0196473 0.00311829)
(0.0103548 -0.0179031 0.00306415)
(0.0114018 -0.0159782 0.00300268)
(0.01235 -0.0139083 0.00293026)
(0.0131805 -0.0117262 0.00284265)
(0.0138793 -0.00946002 0.00273666)
(0.0144332 -0.00713591 0.00260928)
(0.0148306 -0.00477948 0.00245758)
(0.015061 -0.0024164 0.00227891)
(0.0151224 -7.32416e-05 0.00207075)
(0.0150186 0.00222128 0.00183007)
(0.0147481 0.00443806 0.00155573)
(0.0143128 0.00654654 0.00124778)
(0.0137194 0.00851428 0.000908186)
(0.012978 0.0103087 0.000541667)
(0.0121 0.0119031 0.000156171)
(0.0110939 0.0132932 -0.000236952)
(0.00996868 0.0145376 -0.000620418)
(0.00872663 0.015845 -0.000964638)
(0.00732263 0.017683 -0.00122909)
(0.00567838 0.0207317 -0.00135803)
(0.00379202 0.0249094 -0.00126785)
(0.00186627 0.027095 -0.000883743)
(0.000209537 0.0184811 -0.000194955)
(3.62294e-05 -0.00115055 0.00150581)
(0.000482736 -0.00802956 0.00266703)
(0.000929824 -0.0140593 0.00331573)
(0.0015152 -0.0191869 0.00362763)
(0.00219432 -0.0233107 0.00371221)
(0.00293107 -0.0262597 0.0036829)
(0.00374132 -0.0280761 0.00364178)
(0.00461905 -0.0289612 0.00362501)
(0.00551806 -0.0291008 0.00362322)
(0.00641932 -0.028619 0.0036309)
(0.00730803 -0.02761 0.00364443)
(0.0081677 -0.0261493 0.0036609)
(0.00898038 -0.0242967 0.00367833)
(0.00973021 -0.0221053 0.00369259)
(0.0104018 -0.0196231 0.0036998)
(0.0109818 -0.0168944 0.0036961)
(0.0114587 -0.0139608 0.00367758)
(0.0118226 -0.0108611 0.00364028)
(0.0120644 -0.00763447 0.00357903)
(0.0121755 -0.00432258 0.00348719)
(0.0121476 -0.000968232 0.00335748)
(0.0119808 0.00238036 0.00318139)
(0.0116787 0.00566971 0.00295113)
(0.0112437 0.00884676 0.00266081)
(0.0106817 0.0118652 0.00230849)
(0.0100014 0.0146853 0.00189593)
(0.00921464 0.017283 0.0014302)
(0.00833682 0.019686 0.000927764)
(0.00737266 0.0220368 0.000412878)
(0.00630754 0.0246493 -8.68468e-05)
(0.00510834 0.028022 -0.000533635)
(0.00374256 0.0324977 -0.000854442)
(0.00233155 0.036971 -0.000930462)
(0.00104075 0.0373195 -0.000687124)
(8.56947e-05 0.0233293 -0.000129554)
(9.28473e-06 -0.00448504 0.00138633)
(0.000463438 -0.014538 0.00268814)
(0.00110459 -0.0225715 0.00338956)
(0.00191842 -0.0287586 0.00371148)
(0.00280957 -0.0332461 0.00380579)
(0.00371364 -0.0362347 0.00378306)
(0.00459081 -0.0379456 0.00371993)
(0.00545697 -0.0386214 0.00367082)
(0.00630716 -0.038468 0.003644)
(0.00711522 -0.0376357 0.00363086)
(0.00787813 -0.0362286 0.00362715)
(0.00858895 -0.0343226 0.00363165)
(0.00924503 -0.0319582 0.00364949)
(0.00983785 -0.0291754 0.00368118)
(0.0103513 -0.0260352 0.00372115)
(0.0107766 -0.0225901 0.00376583)
(0.0111064 -0.0188872 0.00381223)
(0.011334 -0.0149711 0.00385697)
(0.0114532 -0.0108844 0.00389528)
(0.0114588 -0.00667092 0.00391981)
(0.0113465 -0.0023786 0.00391971)
(0.0111123 0.00193578 0.00388006)
(0.0107529 0.00620208 0.00378272)
(0.0102681 0.0103392 0.00360935)
(0.00966357 0.0142654 0.00334624)
(0.00895033 0.0179198 0.00298899)
(0.00814302 0.0212945 0.0025451)
(0.00725551 0.0244751 0.00203224)
(0.0062954 0.0276844 0.00147326)
(0.00525803 0.031312 0.00089243)
(0.00413107 0.0358216 0.000328522)
(0.00291169 0.0411698 -0.000134738)
(0.00175569 0.0454723 -0.000361045)
(0.000761477 0.044207 -0.000292702)
(5.96673e-05 0.0263136 3.01431e-05)
(3.5991e-05 -0.00656613 0.00117145)
(0.000478494 -0.0188957 0.00233288)
(0.00112134 -0.0283699 0.00292324)
(0.0019059 -0.0353246 0.00317496)
(0.00274149 -0.0400796 0.00324167)
(0.0035702 -0.043041 0.00322293)
(0.00436131 -0.0446078 0.00317874)
(0.00512849 -0.0451164 0.0031424)
(0.00587702 -0.0447814 0.00312048)
(0.00658917 -0.0437441 0.00310661)
(0.00725973 -0.0421029 0.00309865)
(0.00788234 -0.039924 0.00309809)
(0.0084552 -0.0372417 0.00310775)
(0.00896783 -0.034092 0.00313059)
(0.00940743 -0.0305332 0.0031665)
(0.00976643 -0.0266204 0.00321736)
(0.0100385 -0.0224058 0.00328613)
(0.0102185 -0.0179376 0.00337586)
(0.0103025 -0.01326 0.00348816)
(0.0102879 -0.00841422 0.00362154)
(0.0101723 -0.00344242 0.00376859)
(0.00995359 0.00160462 0.00391326)
(0.00963056 0.00665886 0.00402919)
(0.00920181 0.0116307 0.00408125)
(0.00866674 0.0164165 0.00403224)
(0.00802842 0.0209259 0.00385371)
(0.00729436 0.0251327 0.00353539)
(0.00647385 0.0291316 0.00308631)
(0.00557336 0.033179 0.00252779)
(0.0045946 0.0376843 0.00188966)
(0.00353992 0.0430083 0.00122489)
(0.00243106 0.0487414 0.000638292)
(0.00143492 0.0525358 0.000277457)
(0.000609935 0.0497153 0.000168561)
(4.33116e-05 0.0285756 0.000210467)
(2.33279e-05 -0.00872439 0.000942702)
(0.000409509 -0.0236203 0.00188368)
(0.000994107 -0.034628 0.00235068)
(0.00171218 -0.0423269 0.00255006)
(0.0024746 -0.0472805 0.00260558)
(0.00322846 -0.0501533 0.00259309)
(0.00395205 -0.0515298 0.00255619)
(0.00465762 -0.051815 0.00251628)
(0.00534983 -0.0512291 0.00247735)
(0.0060122 -0.049911 0.00243638)
(0.00663544 -0.0479527 0.00239552)
(0.00721892 -0.0453988 0.00235523)
(0.0077544 -0.0422824 0.00231602)
(0.00822594 -0.0386623 0.00227886)
(0.00862434 -0.0346003 0.00224743)
(0.00894205 -0.0301615 0.00222764)
(0.00917294 -0.0254119 0.00222758)
(0.00931302 -0.0204137 0.00225711)
(0.00936072 -0.0152226 0.002327)
(0.00931658 -0.00988504 0.00244718)
(0.00918241 -0.00444052 0.00262385)
(0.00896046 0.00107188 0.00285484)
(0.00865257 0.00660282 0.00312411)
(0.00825964 0.012084 0.00339777)
(0.00778142 0.0174296 0.00362553)
(0.00721731 0.0225598 0.00375088)
(0.00656774 0.0274524 0.00372704)
(0.00583397 0.0322088 0.00352838)
(0.00501684 0.0370953 0.00315107)
(0.00411778 0.0424984 0.00261254)
(0.00314586 0.0486311 0.00196769)
(0.00213799 0.0547312 0.00133571)
(0.00125037 0.0581411 0.000872552)
(0.000523254 0.0540498 0.000588183)
(3.74885e-05 0.0303017 0.000346331)
(2.90493e-05 -0.0104138 0.000745858)
(0.000374137 -0.027369 0.0015335)
(0.000893284 -0.0395861 0.0019546)
(0.0015231 -0.0478607 0.00216066)
(0.00218631 -0.0529648 0.00224032)
(0.00283987 -0.0557777 0.0022528)
(0.0034709 -0.0570231 0.00223487)
(0.0040929 -0.0571493 0.00220464)
(0.00470905 -0.0563766 0.00216864)
(0.00529822 -0.0548396 0.00212695)
(0.00585888 -0.0526073 0.0020797)
(0.00638982 -0.0497062 0.00202631)
(0.00687508 -0.0461865 0.00196661)
(0.00730398 -0.0421066 0.00190185)
(0.00766699 -0.0375374 0.00183467)
(0.00795572 -0.0325604 0.00176972)
(0.00816391 -0.027261 0.00171413)
(0.00828799 -0.0217223 0.00167776)
(0.00832713 -0.0160185 0.00167309)
(0.00828283 -0.0102101 0.00171447)
(0.00815828 -0.00434256 0.00181628)
(0.00795754 0.0015477 0.00198936)
(0.00768479 0.00742364 0.00223513)
(0.00734295 0.0132404 0.00253842)
(0.00693226 0.0189445 0.00286248)
(0.00644986 0.0244908 0.00315112)
(0.00589071 0.0298856 0.00334069)
(0.00524912 0.0352478 0.00337566)
(0.00452042 0.0408413 0.00321847)
(0.00370468 0.0469965 0.00285708)
(0.00281427 0.0537495 0.00232646)
(0.0019003 0.0600223 0.00173712)
(0.00110239 0.0630021 0.00123533)
(0.000451847 0.0577242 0.000829168)
(3.08626e-05 0.031731 0.000394976)
(2.36846e-05 -0.0119316 0.000589412)
(0.000320752 -0.0307885 0.00124688)
(0.000777652 -0.0441417 0.00162476)
(0.00133836 -0.0529832 0.00182881)
(0.00193244 -0.0582705 0.00192138)
(0.00252079 -0.0610753 0.00194939)
(0.0030963 -0.0622406 0.00194377)
(0.00366718 -0.0622474 0.00191882)
(0.00422904 -0.0613212 0.00188415)
(0.0047711 -0.0595786 0.00184093)
(0.00529083 -0.0570729 0.00178638)
(0.0057783 -0.0538406 0.00172138)
(0.00622321 -0.0499268 0.00164665)
(0.00661564 -0.0453935 0.00156326)
(0.00694655 -0.0403242 0.00147348)
(0.00720832 -0.0348187 0.00138138)
(0.00739538 -0.0289846 0.00129325)
(0.00750463 -0.0229282 0.00121808)
(0.00753557 -0.0167447 0.00116788)
(0.0074901 -0.010512 0.00115736)
(0.00737201 -0.00428645 0.00120285)
(0.00718652 0.00189343 0.00132015)
(0.00693924 0.00800078 0.00151966)
(0.00663478 0.0140173 0.00179965)
(0.0062747 0.0199329 0.00213943)
(0.00585585 0.0257554 0.00249595)
(0.00537035 0.031541 0.00280841)
(0.00480746 0.0374395 0.00300956)
(0.00415724 0.0437105 0.00303808)
(0.00341641 0.0506115 0.00285272)
(0.00259657 0.057988 0.00245989)
(0.00175683 0.0644702 0.00194726)
(0.00102212 0.0671371 0.00144296)
(0.000418371 0.0608646 0.000959041)
(3.14313e-05 0.0329677 0.000404497)
(2.19979e-05 -0.0132016 0.000488285)
(0.000283389 -0.0337088 0.0010864)
(0.000690457 -0.048077 0.00146585)
(0.00119406 -0.0574478 0.00169221)
(0.00172962 -0.0629273 0.00180869)
(0.00226149 -0.0657504 0.00185665)
(0.00278624 -0.0668601 0.00186661)
(0.00330675 -0.066765 0.0018531)
(0.00381933 -0.065697 0.00182445)
(0.00431801 -0.0637582 0.00178185)
(0.00479576 -0.0609953 0.00172636)
(0.00524444 -0.0574406 0.00165879)
(0.00565489 -0.053137 0.00157926)
(0.00601811 -0.0481534 0.00148799)
(0.00632606 -0.0425857 0.00138602)
(0.00657201 -0.0365499 0.00127569)
(0.00675096 -0.0301726 0.00116124)
(0.00685979 -0.0235803 0.00104964)
(0.00689756 -0.0168901 0.000951307)
(0.00686527 -0.0101982 0.000880304)
(0.00676588 -0.00357825 0.000854041)
(0.00660396 0.00291854 0.000891636)
(0.00638493 0.00926265 0.0010101)
(0.00611367 0.0154507 0.00121834)
(0.00579233 0.0215093 0.00151024)
(0.00541833 0.0275015 0.00185886)
(0.00498355 0.0335454 0.0022153)
(0.00447572 0.0398383 0.00251351)
(0.00388257 0.0466448 0.00267963)
(0.00319851 0.0541496 0.00264856)
(0.00243351 0.0620121 0.0023963)
(0.00165193 0.0686079 0.00198032)
(0.000964321 0.0709588 0.00150554)
(0.000394007 0.0637599 0.000990211)
(3.04545e-05 0.0341336 0.000384265)
(1.93198e-05 -0.0143461 0.00042021)
(0.000255782 -0.0363975 0.00097373)
(0.000630664 -0.0517498 0.00134408)
(0.00109837 -0.0616621 0.00157353)
(0.00159715 -0.0673665 0.00169591)
(0.00209287 -0.0702452 0.0017495)
(0.00258266 -0.0713312 0.00176384)
(0.00306897 -0.0711622 0.00175377)
(0.00354724 -0.0699737 0.00172566)
(0.00401102 -0.0678638 0.00168307)
(0.00445385 -0.0648728 0.00162816)
(0.00486839 -0.0610285 0.001562)
(0.00524658 -0.0563746 0.00148491)
(0.00558085 -0.0509862 0.00139692)
(0.0058646 -0.0449698 0.00129819)
(0.0060925 -0.0384551 0.00118962)
(0.0062605 -0.0315843 0.00107352)
(0.00636594 -0.0245007 0.000954476)
(0.0064077 -0.017338 0.000840141)
(0.00638617 -0.0102096 0.000741947)
(0.0063035 -0.00320416 0.000675426)
(0.00616333 0.0036145 0.00065925)
(0.00597028 0.0102124 0.000712462)
(0.0057287 0.0165958 0.000849864)
(0.0054405 0.0228195 0.00107598)
(0.00510314 0.0289924 0.00137873)
(0.0047084 0.0352884 0.00172481)
(0.00424348 0.0419525 0.0020584)
(0.00369494 0.0492614 0.00230483)
(0.00305542 0.0573357 0.00238496)
(0.00233254 0.0656658 0.00224933)
(0.00159306 0.0723986 0.00192478)
(0.000936512 0.0745014 0.00149305)
(0.000384537 0.0664846 0.000976228)
(3.13066e-05 0.0352644 0.000358129)
(1.77465e-05 -0.0153878 0.00038603)
(0.000239077 -0.0388837 0.000928515)
(0.000593066 -0.0551671 0.00130661)
(0.00103549 -0.0655922 0.00154767)
(0.00150666 -0.0715083 0.00167991)
(0.00197411 -0.0744382 0.00174073)
(0.00243596 -0.0754987 0.00176009)
(0.00289439 -0.0752536 0.00175348)
(0.00334431 -0.0739413 0.00172811)
(0.00377922 -0.0716562 0.00168791)
(0.0041929 -0.068434 0.0016353)
(0.0045786 -0.0643003 0.00157156)
(0.00492932 -0.0593013 0.00149701)
(0.00523877 -0.0535188 0.00141134)
(0.00550175 -0.047069 0.00131394)
(0.00571414 -0.0400928 0.00120454)
(0.0058728 -0.0327439 0.00108389)
(0.00597547 -0.0251782 0.000954691)
(0.00602089 -0.017543 0.000822605)
(0.00600884 -0.00996635 0.000697176)
(0.00594034 -0.00255355 0.000592418)
(0.0058178 0.00461567 0.000526294)
(0.00564473 0.0114969 0.000518662)
(0.00542472 0.0180995 0.000587657)
(0.00515946 0.0244991 0.000744707)
(0.00484666 0.0308436 0.000988719)
(0.00447875 0.0373573 0.00130012)
(0.00404342 0.0443318 0.00163548)
(0.00352733 0.052058 0.00192543)
(0.00292223 0.0606009 0.00208457)
(0.00223382 0.0692989 0.00204432)
(0.00153055 0.0761024 0.00180419)
(0.000901573 0.0779418 0.0014241)
(0.000368212 0.0691266 0.000928309)
(2.90572e-05 0.0363732 0.000326879)
(1.67319e-05 -0.0163858 0.000364939)
(0.000227309 -0.0412942 0.000897331)
(0.000565652 -0.0584957 0.0012731)
(0.000988073 -0.0694306 0.00151328)
(0.00143629 -0.0755635 0.00164508)
(0.00187943 -0.0785545 0.00170595)
(0.00231647 -0.0796 0.00172554)
(0.00274945 -0.079289 0.00171925)
(0.00317299 -0.077864 0.00169453)
(0.00358074 -0.0754175 0.00165581)
(0.00396687 -0.071983 0.00160607)
(0.00432529 -0.0675861 0.00154715)
(0.00464998 -0.0622769 0.00147975)
(0.00493584 -0.0561441 0.0014035)
(0.00517888 -0.0493121 0.00131728)
(0.00537613 -0.0419302 0.00121971)
(0.00552534 -0.0341603 0.00110985)
(0.00562476 -0.0261661 0.000988147)
(0.00567326 -0.0181033 0.000857617)
(0.00567024 -0.01011 0.000724992)
(0.0056159 -0.00230241 0.000601628)
(0.00551146 0.00522695 0.000503479)
(0.00535908 0.0124238 0.000449764)
(0.00516113 0.0192967 0.000460209)
(0.00491851 0.0259334 0.000550958)
(0.00462873 0.0325093 0.000729454)
(0.00428457 0.039287 0.000988143)
(0.00387443 0.0465955 0.00129669)
(0.00338558 0.0547376 0.00159535)
(0.00280958 0.0637287 0.00179924)
(0.00215073 0.072772 0.00182771)
(0.00147852 0.0796431 0.00165756)
(0.000873114 0.0812391 0.00132921)
(0.00035535 0.0716673 0.000866427)
(2.79014e-05 0.0374447 0.000296541)
(1.63646e-05 -0.0173352 0.000358526)
(0.000221603 -0.0435933 0.000894446)
(0.000551072 -0.061665 0.00127463)
(0.000960416 -0.073073 0.00151722)
(0.00139185 -0.0793985 0.00164976)
(0.00181606 -0.0824367 0.00171086)
(0.0022331 -0.0834585 0.00173056)
(0.00264505 -0.0830751 0.00172447)
(0.00304637 -0.0815322 0.00170036)
(0.00343081 -0.0789207 0.00166299)
(0.00379289 -0.075273 0.00161569)
(0.00412711 -0.0706164 0.00156057)
(0.00442831 -0.065006 0.0014984)
(0.00469247 -0.0585382 0.00142868)
(0.00491673 -0.0513453 0.00134987)
(0.0050991 -0.0435833 0.00125984)
(0.00523812 -0.0354197 0.00115657)
(0.00533253 -0.0270234 0.00103908)
(0.00538128 -0.0185557 0.000908633)
(0.00538343 -0.010162 0.000769952)
(0.0053385 -0.00196828 0.000632298)
(0.0052467 0.00592095 0.000509729)
(0.00510905 0.0134413 0.000420293)
(0.00492691 0.0205991 0.000383917)
(0.00470052 0.027492 0.000419131)
(0.00442726 0.0343173 0.000538767)
(0.00410033 0.0413685 0.000744043)
(0.00370905 0.0490038 0.00101582)
(0.00324171 0.0575309 0.00130483)
(0.00269029 0.0669157 0.001531)
(0.00205851 0.0762369 0.0016077)
(0.00141677 0.0831218 0.00149473)
(0.000836266 0.0844502 0.00121594)
(0.000337379 0.0741215 0.000793344)
(2.54357e-05 0.0384747 0.000265454)
(1.57039e-05 -0.0182843 0.000357671)
(0.000214835 -0.0458959 0.000895947)
(0.000533299 -0.0648295 0.00127388)
(0.000927058 -0.0766957 0.00151133)
(0.00133949 -0.0832021 0.00163888)
(0.00174309 -0.0862822 0.00169662)
(0.00213891 -0.0872789 0.00171444)
(0.002529 -0.0868236 0.00170775)
(0.00290775 -0.0851651 0.00168442)
(0.0032691 -0.0823941 0.00164956)
(0.00360793 -0.0785438 0.00160691)
(0.0039193 -0.0736451 0.00155899)
(0.00419889 -0.0677597 0.00150678)
(0.00444361 -0.0609912 0.00144969)
(0.00465156 -0.053479 0.00138567)
(0.00482158 -0.0453838 0.00131164)
(0.00495284 -0.0368757 0.00122417)
(0.00504449 -0.0281253 0.00112044)
(0.00509553 -0.0192952 0.000999513)
(0.00510479 -0.0105338 0.00086375)
(0.0050711 -0.00197266 0.000720057)
(0.00499365 0.00627537 0.000580514)
(0.00487229 0.0141368 0.000462013)
(0.00470718 0.0216141 0.000384589)
(0.00449766 0.0288097 0.000368586)
(0.00424074 0.035936 0.000430904)
(0.00392992 0.0433091 0.000579571)
(0.00355544 0.0513068 0.000804891)
(0.00310691 0.0602349 0.00106798)
(0.00257727 0.0700084 0.00129601)
(0.0019704 0.0795893 0.00140116)
(0.00135739 0.0864748 0.00133124)
(0.000801135 0.0875364 0.00109664)
(0.000320959 0.0764709 0.000716517)
(2.37229e-05 0.0394556 0.00023557)
(1.56063e-05 -0.0191926 0.000360943)
(0.000211499 -0.0480897 0.000903974)
(0.000522583 -0.0678308 0.00128039)
(0.000904829 -0.0801164 0.00151284)
(0.00130235 -0.0867815 0.00163514)
(0.00168922 -0.089893 0.00168901)
(0.00206737 -0.0908594 0.00170437)
(0.0024388 -0.0903296 0.00169647)
(0.00279786 -0.088555 0.00167334)
(0.00313876 -0.0856263 0.00164034)
(0.00345675 -0.0815782 0.00160157)
(0.00374748 -0.0764465 0.0015598)
(0.00400741 -0.0703003 0.00151619)
(0.00423433 -0.0632513 0.00147006)
(0.00442713 -0.0554449 0.00141907)
(0.00458538 -0.0470455 0.00135955)
(0.00470877 -0.0382246 0.00128714)
(0.00479679 -0.0291521 0.00119769)
(0.00484852 -0.0199903 0.00108848)
(0.00486253 -0.010888 0.000959741)
(0.00483711 -0.00198001 0.000816)
(0.0047706 0.00661397 0.000667112)
(0.00466182 0.0148127 0.000528363)
(0.0045099 0.0226149 0.000419257)
(0.00431343 0.0301268 0.00036104)
(0.00406907 0.0375728 0.000373337)
(0.00377058 0.0452856 0.000469181)
(0.00340916 0.0536552 0.000646445)
(0.00297585 0.062977 0.00087566)
(0.00246492 0.0731099 0.00109234)
(0.00188101 0.0829051 0.00121101)
(0.00129578 0.0897509 0.00117228)
(0.000763958 0.0905258 0.000976139)
(0.000303553 0.0787252 0.000638638)
(2.17819e-05 0.0403899 0.000207077)
(1.4925e-05 -0.0201134 0.000367332)
(0.000205891 -0.0503105 0.000914528)
(0.000507321 -0.0708537 0.00128536)
(0.000875614 -0.0835412 0.00150823)
(0.00125615 -0.0903482 0.00162191)
(0.00162484 -0.0934808 0.00167)
(0.00198441 -0.0944112 0.00168203)
(0.00233675 -0.0938037 0.00167287)
(0.00267622 -0.0919119 0.00165056)
(0.00299728 -0.0888279 0.00162076)
(0.00329554 -0.0845896 0.0015879)
(0.00356724 -0.0792392 0.00155508)
(0.00380953 -0.0728538 0.00152355)
(0.00402093 -0.0655526 0.00149251)
(0.00420105 -0.0574864 0.0014592)
(0.00435002 -0.0488216 0.0014192)
(0.004468 -0.0397289 0.00136703)
(0.00455472 -0.0303751 0.00129709)
(0.0046093 -0.0209186 0.00120478)
(0.00463007 -0.0115056 0.00108809)
(0.00461473 -0.00227041 0.000949127)
(0.00456073 0.00666346 0.000795496)
(0.00446577 0.0152082 0.000640871)
(0.00432789 0.0233576 0.000504201)
(0.00414479 0.0312187 0.000407453)
(0.00391277 0.039023 0.000372426)
(0.0036258 0.0471144 0.000416116)
(0.00327599 0.0558879 0.000542605)
(0.00285594 0.065622 0.000730806)
(0.00236151 0.0761161 0.000924891)
(0.00179852 0.0861142 0.00104407)
(0.00123899 0.092911 0.00102543)
(0.000730186 0.0934004 0.000861168)
(0.00028838 0.0808834 0.000564142)
(2.04427e-05 0.0412803 0.000181231)
(1.46649e-05 -0.0209933 0.000372869)
(0.000202107 -0.0524176 0.000920532)
(0.000496215 -0.0737055 0.00128279)
(0.000853236 -0.0867574 0.00149427)
(0.00121958 -0.0936877 0.00159837)
(0.00157284 -0.0968343 0.00164003)
(0.00191646 -0.0977266 0.00164816)
(0.00225222 -0.097042 0.00163716)
(0.00257448 -0.0950361 0.0016151)
(0.00287796 -0.0918021 0.00158785)
(0.00315866 -0.0873823 0.00156018)
(0.00341333 -0.0818261 0.00153544)
(0.00363977 -0.0752187 0.00151509)
(0.00383717 -0.0676871 0.00149831)
(0.00400572 -0.0593869 0.00148216)
(0.00414607 -0.0504859 0.0014618)
(0.00425877 -0.0411529 0.00143103)
(0.00434381 -0.0315504 0.00138307)
(0.00440037 -0.0218311 0.00131164)
(0.00442657 -0.0121362 0.0012125)
(0.00441963 -0.00259758 0.00108514)
(0.00437616 0.00665999 0.000934443)
(0.00429285 0.0155436 0.000771935)
(0.00416668 0.0240423 0.000615475)
(0.00399458 0.032263 0.000487261)
(0.00377246 0.0404417 0.000410723)
(0.00349453 0.0489285 0.000406053)
(0.00315384 0.0581175 0.000482526)
(0.00274455 0.0682626 0.000626502)
(0.0022642 0.0790994 0.000790752)
(0.00172008 0.0892685 0.000900769)
(0.00118445 0.0959893 0.00089323)
(0.000697497 0.0961814 0.000754768)
(0.000273738 0.0829556 0.00049516)
(1.90853e-05 0.0421308 0.000158518)
(1.40525e-05 -0.0218864 0.000379896)
(0.000197261 -0.0545522 0.000927575)
(0.00048315 -0.0765809 0.00127894)
(0.000828283 -0.0899811 0.00147646)
(0.00118014 -0.0970186 0.00156914)
(0.00151801 -0.100169 0.00160332)
(0.001846 -0.101017 0.00160708)
(0.00216573 -0.100252 0.00159425)
(0.0024716 -0.0981303 0.00157281)
(0.00275859 -0.0947488 0.00154885)
(0.00302306 -0.0901547 0.00152743)
(0.00326223 -0.0844054 0.00151213)
(0.00347448 -0.0775949 0.00150453)
(0.00365954 -0.0698572 0.00150378)
(0.00381812 -0.0613521 0.00150672)
(0.00395132 -0.0522477 0.0015081)
(0.00406006 -0.0427094 0.00150102)
(0.0041446 -0.0328934 0.00147763)
(0.00420418 -0.0229443 0.00143013)
(0.00423679 -0.0129956 0.00135218)
(0.00423916 -0.00317311 0.00124067)
(0.00420708 0.00640007 0.00109767)
(0.00413613 0.0156274 0.000932239)
(0.00402217 0.0244924 0.000760793)
(0.00386121 0.0330987 0.0006054)
(0.00364875 0.0416832 0.000490739)
(0.00337918 0.0505974 0.000439696)
(0.00304648 0.0602288 0.000466048)
(0.00264635 0.0708019 0.000562889)
(0.00217808 0.0819855 0.000691371)
(0.00165063 0.0923201 0.000784238)
(0.00113631 0.0989625 0.000779951)
(0.000669025 0.0988628 0.000661193)
(0.00026139 0.0849484 0.000434709)
(1.81882e-05 0.0429467 0.000139791)
(1.3743e-05 -0.0227416 0.00038396)
(0.000193596 -0.056579 0.00092536)
(0.000472679 -0.0792929 0.00126137)
(0.000807747 -0.0930054 0.00144253)
(0.0011472 -0.100133 0.0015227)
(0.00147178 -0.103281 0.00154879)
(0.00178616 -0.104084 0.00154768)
(0.00209181 -0.103239 0.00153247)
(0.00238318 -0.101006 0.00151105)
(0.00265554 -0.0974828 0.00148968)
(0.00290559 -0.0927236 0.00147366)
(0.00313098 -0.0867938 0.00146686)
(0.00333056 -0.0797963 0.00147102)
(0.00350451 -0.0718723 0.00148543)
(0.00365395 -0.0631853 0.00150694)
(0.00378037 -0.053904 0.00153014)
(0.00388504 -0.0441897 0.00154774)
(0.00396852 -0.0341914 0.00155108)
(0.00403019 -0.0240445 0.00153102)
(0.00406799 -0.0138724 0.0014792)
(0.00407828 -0.00379238 0.00138982)
(0.00405611 0.0060771 0.0012618)
(0.00399607 0.0156381 0.00110121)
(0.00389288 0.0248689 0.000922383)
(0.00374164 0.0338691 0.000746692)
(0.00353741 0.0428735 0.0005996)
(0.00327473 0.0522305 0.000506264)
(0.00294847 0.0623152 0.000484475)
(0.00255584 0.0733167 0.000533531)
(0.00209789 0.0848338 0.000622743)
(0.00158539 0.0953108 0.000692784)
(0.00109059 0.101858 0.000685624)
(0.00064163 0.101461 0.000581182)
(0.00024938 0.0868679 0.000383292)
(1.72106e-05 0.0437298 0.000124982)
(1.32415e-05 -0.0236078 0.000388184)
(0.00018982 -0.0586279 0.000922635)
(0.000462408 -0.0820228 0.00124226)
(0.000787954 -0.0960332 0.00140611)
(0.0011157 -0.103237 0.00147312)
(0.00142789 -0.106374 0.00149075)
(0.00172969 -0.107126 0.00148456)
(0.00202242 -0.106199 0.00146689)
(0.00230056 -0.103853 0.00144551)
(0.00255964 -0.100192 0.00142681)
(0.00279667 -0.0952741 0.00141628)
(0.00300966 -0.0891752 0.00141797)
(0.00319785 -0.0820066 0.0014338)
(0.0033618 -0.0739163 0.00146318)
(0.00350298 -0.0650714 0.00150299)
(0.00362326 -0.05564 0.00154779)
(0.00372428 -0.0457791 0.00159007)
(0.00380691 -0.0356292 0.00162061)
(0.00387075 -0.0253143 0.00162923)
(0.00391374 -0.0149456 0.00160585)
(0.00393199 -0.0046286 0.00154213)
(0.00391985 0.00552636 0.00143377)
(0.00387086 0.015422 0.0012835)
(0.00377856 0.0250311 0.00110302)
(0.00363706 0.0344466 0.000912416)
(0.00344083 0.0438975 0.000737431)
(0.00318453 0.0537249 0.000605093)
(0.00286387 0.0642864 0.00053682)
(0.00247753 0.0757314 0.000537719)
(0.00202828 0.087587 0.000585041)
(0.00152871 0.0982044 0.000627774)
(0.00105098 0.104657 0.00061255)
(0.000618131 0.103971 0.000517263)
(0.00023932 0.0887199 0.000342763)
(1.66163e-05 0.0444842 0.000114562)
(1.30683e-05 -0.0244413 0.00038873)
(0.000187091 -0.0605814 0.000909554)
(0.000454285 -0.0846059 0.00120843)
(0.000771576 -0.0988799 0.00135279)
(0.00108904 -0.106143 0.00140579)
(0.00139031 -0.109263 0.00141454)
(0.00168101 -0.109962 0.0014029)
(0.00196228 -0.108953 0.00138235)
(0.00222867 -0.106498 0.00136046)
(0.00247594 -0.102703 0.00134369)
(0.00270138 -0.0976349 0.00133771)
(0.00290327 -0.0913768 0.00134678)
(0.00308118 -0.0840496 0.00137303)
(0.00323594 -0.0758083 0.00141607)
(0.00336933 -0.0668238 0.00147303)
(0.00348352 -0.0572644 0.00153861)
(0.00358049 -0.0472824 0.00160531)
(0.00366146 -0.0370099 0.00166367)
(0.00372629 -0.0265585 0.00170272)
(0.00377306 -0.016025 0.00171092)
(0.00379774 -0.00550061 0.00167751)
(0.00379415 0.00491624 0.00159492)
(0.00375495 0.0151319 0.00146213)
(0.0036725 0.0251151 0.00128753)
(0.00353988 0.0349512 0.00108922)
(0.00335094 0.0448604 0.00089264)
(0.00310033 0.0551718 0.000726256)
(0.00278453 0.0662201 0.000614779)
(0.0024036 0.07811 0.000568817)
(0.00196201 0.0902941 0.000573381)
(0.00147427 0.101035 0.000586032)
(0.00101233 0.107384 0.000558911)
(0.000594656 0.106405 0.000468361)
(0.000228988 0.0905063 0.000312257)
(1.58136e-05 0.0452089 0.000107948)
(1.27561e-05 -0.0252839 0.000388735)
(0.000184389 -0.0625516 0.000895342)
(0.000446756 -0.0872003 0.00117338)
(0.000756717 -0.101724 0.00129838)
(0.00106497 -0.109034 0.00133749)
(0.00135646 -0.112129 0.0013374)
(0.00163727 -0.112771 0.00132029)
(0.00190835 -0.111678 0.00129678)
(0.00216433 -0.109114 0.00127422)
(0.00240119 -0.105189 0.00125909)
(0.00261638 -0.0999762 0.00125718)
(0.00280843 -0.0935684 0.00127286)
(0.00297711 -0.086095 0.00130848)
(0.00312352 -0.077718 0.00136387)
(0.0032497 -0.0686121 0.00143642)
(0.0033581 -0.0589453 0.00152111)
(0.00345105 -0.0488654 0.00161062)
(0.00353012 -0.0384953 0.00169549)
(0.00359549 -0.0279335 0.00176438)
(0.00364545 -0.0172605 0.00180464)
(0.00367594 -0.00655033 0.0018035)
(0.00368038 0.00411364 0.00175023)
(0.00365055 0.0146447 0.00163988)
(0.00357769 0.025008 0.00147702)
(0.00345377 0.0352802 0.00127704)
(0.00327191 0.0456695 0.00106443)
(0.00302669 0.0564885 0.000868572)
(0.00271526 0.0680442 0.000717129)
(0.00233897 0.0803922 0.000625922)
(0.00190393 0.0929095 0.000587522)
(0.00142653 0.103773 0.000568161)
(0.000978501 0.110019 0.000525982)
(0.000574256 0.108757 0.000436017)
(0.000220189 0.0922297 0.000292969)
(1.53794e-05 0.0459063 0.000105514)
(1.27598e-05 -0.0260991 0.00038501)
(0.000182641 -0.0644389 0.000871448)
(0.000441065 -0.0896652 0.00112509)
(0.00074468 -0.104407 0.00122913)
(0.00104477 -0.111748 0.00125383)
(0.00132751 -0.11481 0.00124464)
(0.00159939 -0.115393 0.00122178)
(0.00186127 -0.114216 0.00119493)
(0.0021079 -0.111545 0.00117114)
(0.00233543 -0.107493 0.0011569)
(0.00254145 -0.102141 0.00115804)
(0.00272462 -0.09559 0.0011791)
(0.00288488 -0.087979 0.00122265)
(0.00302348 -0.079477 0.00128882)
(0.00314267 -0.0702634 0.00137534)
(0.00324516 -0.0605063 0.00147757)
(0.00333355 -0.0503497 0.00158859)
(0.00340976 -0.0399074 0.00169916)
(0.00347434 -0.0292643 0.00179785)
(0.0035259 -0.0184832 0.0018713)
(0.00356049 -0.00761864 0.00190505)
(0.00357133 0.00326504 0.00188543)
(0.00354953 0.0140918 0.00180339)
(0.00348529 0.0248257 0.00165913)
(0.00336945 0.0355346 0.00146465)
(0.00319433 0.0464121 0.00124272)
(0.00295432 0.0577497 0.00102314)
(0.00264714 0.0698211 0.000836158)
(0.00227535 0.0826283 0.000702534)
(0.0018466 0.0954706 0.000622224)
(0.00137917 0.106443 0.000570166)
(0.00094442 0.112581 0.000510828)
(0.000553194 0.111034 0.000418034)
(0.000210813 0.0938883 0.000283268)
(1.47221e-05 0.0465738 0.000106504)
(1.26422e-05 -0.0269217 0.000380493)
(0.00018085 -0.0663373 0.000846397)
(0.000435643 -0.092134 0.00107612)
(0.000733633 -0.107081 0.00116)
(0.00102656 -0.114441 0.00117091)
(0.00130169 -0.117463 0.00115297)
(0.00156587 -0.117982 0.00112448)
(0.00181983 -0.116721 0.00109421)
(0.00205838 -0.113944 0.00106893)
(0.00227783 -0.109769 0.00105508)
(0.00247586 -0.104282 0.00105852)
(0.00265118 -0.0975948 0.00108392)
(0.00280389 -0.0898548 0.00113401)
(0.00293538 -0.0812387 0.00120919)
(0.00304808 -0.07193 0.00130756)
(0.00314491 -0.0620972 0.0014249)
(0.00322874 -0.0518804 0.00155478)
(0.0033018 -0.0413847 0.00168845)
(0.003365 -0.0306812 0.00181475)
(0.00341728 -0.0198147 0.00192008)
(0.00345493 -0.00881793 0.0019888)
(0.00347109 0.00226669 0.00200473)
(0.00345638 0.0133776 0.00195477)
(0.00340004 0.0244803 0.00183443)
(0.00329179 0.0356338 0.00165156)
(0.00312306 0.0470148 0.00142647)
(0.00288797 0.0588894 0.00118873)
(0.0025847 0.0714932 0.000970721)
(0.00221698 0.0847704 0.00079786)
(0.0017939 0.0979408 0.000677248)
(0.00133561 0.109021 0.000592443)
(0.000913003 0.115052 0.000514343)
(0.000533772 0.113228 0.000415587)