/*--------------------------------*- C++ -*----------------------------------*\
| =========                 |                                                 |
| \\      /  F ield         | OpenFOAM: The Open Source CFD Toolbox           |
|  \\    /   O peration     | Version:  v2006                                 |
|   \\  /    A nd           | Website:  www.openfoam.com                      |
|    \\/     M anipulation  |                                                 |
\*---------------------------------------------------------------------------*/
FoamFile
{
    version     2.0;
    format      ascii;
    class       volScalarField;
    location    "1";
    object      k;
}
// * * * * * * * * * * * * * * * * * * * * * * * * * * * * * * * * * * * * * //

dimensions      [0 2 -2 0 0 0 0];


internalField   nonuniform List<scalar> 
78750
(
0.0212134
0.000622711
0.000196625
0.000277086
0.00024174
0.000245646
0.000241772
0.00023365
0.000228929
0.000223185
0.000217876
0.000212693
0.000207623
0.000202657
0.000197824
0.000193146
0.000188625
0.000184241
0.000179981
0.00017585
0.000171848
0.000167962
0.000164174
0.000160455
0.000156765
0.000153049
0.000149238
0.000145229
0.000140802
0.000135544
0.000128461
0.000117981
0.000100646
7.02063e-05
1.8716e-05
0.000179407
0.000155036
0.000338875
0.000329354
0.000340724
0.00034637
0.000348498
0.000349041
0.000347858
0.000346204
0.000343949
0.000340864
0.000337156
0.00033299
0.000328451
0.000323421
0.000317933
0.00031166
0.000304222
0.000295876
0.000286932
0.000277611
0.000268073
0.00025845
0.000248852
0.000239356
0.000229971
0.00022067
0.000211143
0.000200573
0.000187091
0.00016757
0.000136993
9.41569e-05
2.71478e-05
0.000137696
0.000225071
0.000244643
0.000241747
0.000246832
0.00025262
0.000258246
0.000262871
0.000266623
0.000269858
0.000272561
0.000274402
0.000275542
0.000276032
0.000275885
0.000275195
0.000274007
0.000272313
0.000270075
0.000267239
0.000263763
0.000259631
0.000254854
0.000249439
0.000243444
0.000237005
0.000230273
0.000223429
0.000215974
0.000206675
0.000193487
0.000173017
0.000140061
9.50297e-05
2.83341e-05
0.000131705
0.000190097
0.000215375
0.000223649
0.000228321
0.00023514
0.000242964
0.000250216
0.000255905
0.000260474
0.000264404
0.000267662
0.000270131
0.00027175
0.00027258
0.000272672
0.000272031
0.000270764
0.000268928
0.000266506
0.000263475
0.000259815
0.000255533
0.00025068
0.000245316
0.000239523
0.00023341
0.000227145
0.000220405
0.000211912
0.000199109
0.000178355
0.000144536
9.77441e-05
2.92854e-05
0.000118196
0.000164176
0.000192481
0.00021065
0.000219374
0.000224795
0.00023057
0.000236891
0.000242822
0.000247796
0.000252037
0.000255763
0.000258779
0.000261007
0.000262476
0.000263249
0.000263309
0.00026251
0.000261105
0.000259135
0.000256557
0.000253347
0.000249503
0.000245044
0.000240008
0.000234449
0.000228438
0.000222077
0.000214961
0.000205542
0.000191073
0.000168548
0.000134297
8.99511e-05
2.73768e-05
0.000101537
0.000144443
0.000174764
0.000197605
0.000209992
0.000217162
0.000223663
0.000229608
0.00023462
0.000238954
0.00024301
0.000246794
0.000250065
0.000252715
0.000254717
0.000256102
0.000256908
0.000257013
0.000256267
0.000254962
0.000253095
0.000250614
0.000247493
0.000243729
0.000239329
0.000234313
0.000228701
0.000222539
0.000215565
0.000206291
0.000191719
0.000168664
0.00013414
8.87305e-05
2.4518e-05
8.89527e-05
0.000128874
0.000159195
0.000183877
0.000199607
0.000209095
0.000216453
0.000223105
0.000228694
0.000233379
0.000237591
0.000241441
0.000244707
0.000247301
0.000249216
0.000250508
0.000251254
0.000251374
0.000250815
0.000249711
0.000248083
0.000245858
0.000242986
0.000239434
0.00023518
0.000230194
0.000224438
0.000217874
0.000210335
0.000200387
0.000185026
0.00016142
0.000127233
8.34708e-05
2.21797e-05
7.89172e-05
0.000118612
0.000149784
0.000176399
0.000194332
0.000205492
0.000213864
0.000220689
0.00022598
0.000230373
0.00023437
0.000237984
0.000241057
0.000243529
0.000245401
0.000246719
0.000247545
0.000247827
0.00024752
0.000246618
0.000245236
0.000243315
0.000240787
0.000237601
0.000233699
0.000229012
0.000223442
0.00021687
0.000209197
0.000199195
0.000183945
0.000160372
0.000126281
8.21367e-05
1.98696e-05
7.29028e-05
0.000111771
0.000143003
0.000170294
0.000189471
0.000201615
0.000210318
0.000217331
0.000222718
0.000227166
0.000231171
0.00023473
0.000237715
0.00024009
0.000241875
0.000243128
0.000243921
0.000244192
0.000243948
0.000243145
0.000241893
0.000240131
0.000237776
0.000234753
0.000230979
0.000226345
0.000220705
0.000213886
0.000205736
0.000195278
0.000179904
0.000156353
0.000122674
7.94253e-05
1.83746e-05
6.82425e-05
0.000107455
0.000139111
0.000167102
0.000187016
0.000199732
0.000208739
0.000215772
0.000221047
0.000225392
0.000229288
0.000232684
0.000235495
0.000237711
0.000239368
0.000240534
0.000241274
0.00024151
0.000241302
0.000240617
0.00023951
0.000237928
0.000235778
0.000232966
0.000229388
0.000224904
0.00021933
0.000212438
0.000204025
0.000193361
0.000178101
0.00015477
0.000121379
7.82786e-05
1.70016e-05
6.52151e-05
0.000104448
0.000136234
0.000164489
0.000184836
0.000197901
0.000206981
0.000214012
0.000219263
0.000223589
0.000227441
0.000230741
0.000233433
0.000235528
0.000237076
0.000238154
0.000238825
0.000239048
0.000238879
0.000238289
0.000237283
0.000235819
0.0002338
0.000231117
0.000227648
0.000223227
0.000217636
0.000210598
0.000201844
0.00019086
0.000175567
0.00015242
0.000119421
7.68622e-05
1.60799e-05
6.28234e-05
0.000102354
0.000134336
0.000162823
0.000183448
0.000196725
0.000205854
0.000212847
0.000218049
0.000222336
0.000226124
0.000229321
0.000231896
0.000233879
0.000235332
0.000236337
0.000236941
0.00023715
0.00023701
0.000236495
0.000235565
0.000234196
0.000232288
0.000229724
0.000226365
0.000222025
0.000216457
0.000209349
0.000200364
0.000189131
0.000173812
0.000150896
0.000118235
7.59977e-05
1.52878e-05
6.10838e-05
0.000100792
0.000132877
0.000161468
0.000182277
0.000195697
0.000204814
0.000211758
0.000216933
0.000221202
0.000224942
0.00022806
0.000230546
0.000232444
0.000233827
0.000234776
0.000235324
0.000235516
0.000235394
0.000234935
0.00023406
0.000232761
0.00023094
0.000228468
0.000225193
0.000220912
0.000215355
0.00020818
0.000199001
0.000187488
0.000172046
0.000149361
0.000117038
7.51929e-05
1.47121e-05
5.96829e-05
9.96044e-05
0.000131785
0.000160451
0.00018139
0.000194905
0.000204003
0.000210893
0.000216045
0.000220297
0.00022399
0.000227038
0.000229446
0.00023127
0.000232594
0.000233499
0.000233996
0.000234168
0.00023405
0.000233621
0.000232807
0.000231576
0.000229834
0.000227445
0.000224247
0.000220022
0.000214483
0.000207266
0.000197958
0.000186196
0.000170612
0.000148146
0.000116118
7.45987e-05
1.42378e-05
5.85726e-05
9.8665e-05
0.000130912
0.000159617
0.00018065
0.000194234
0.000203303
0.000210139
0.000215275
0.000219518
0.000223173
0.000226165
0.00022851
0.000230274
0.000231544
0.000232398
0.000232872
0.000233041
0.000232932
0.000232529
0.000231765
0.000230586
0.000228902
0.000226577
0.000223438
0.000219258
0.000213736
0.000206486
0.000197067
0.000185084
0.000169365
0.000147071
0.000115307
7.41045e-05
1.3873e-05
5.76495e-05
9.78991e-05
0.000130201
0.000158927
0.000180033
0.00019367
0.000202716
0.000209499
0.000214622
0.000218858
0.000222483
0.000225432
0.000227728
0.000229448
0.00023068
0.000231494
0.000231951
0.000232115
0.000232012
0.000231627
0.000230902
0.000229759
0.00022812
0.000225846
0.000222757
0.000218618
0.000213113
0.000205841
0.000196337
0.000184166
0.000168324
0.000146162
0.000114631
7.37115e-05
1.35766e-05
5.68686e-05
9.72545e-05
0.000129599
0.000158336
0.000179498
0.00019318
0.00020221
0.000208941
0.000214053
0.000218285
0.000221887
0.000224801
0.00022706
0.000228746
0.000229951
0.000230737
0.000231181
0.000231342
0.000231242
0.000230867
0.000230169
0.000229056
0.000227453
0.000225222
0.000222177
0.000218072
0.000212584
0.000205299
0.000195729
0.000183399
0.000167442
0.000145376
0.000114051
7.33917e-05
1.33383e-05
5.61903e-05
9.6695e-05
0.000129074
0.000157816
0.000179027
0.000192748
0.000201771
0.000208455
0.000213558
0.000217788
0.000221373
0.000224259
0.000226487
0.000228145
0.000229327
0.000230095
0.000230533
0.000230693
0.000230595
0.000230226
0.000229541
0.000228457
0.000226886
0.00022469
0.000221681
0.000217606
0.000212134
0.000204841
0.000195221
0.00018276
0.000166697
0.000144697
0.000113556
7.31317e-05
1.31428e-05
5.55922e-05
9.62051e-05
0.000128615
0.00015736
0.000178612
0.000192369
0.00020139
0.000208029
0.000213125
0.000217356
0.000220928
0.000223792
0.000225996
0.000227632
0.000228792
0.00022955
0.000229986
0.000230146
0.000230049
0.000229683
0.000229009
0.000227948
0.0002264
0.000224233
0.000221252
0.000217203
0.000211746
0.00020445
0.000194792
0.000182224
0.000166065
0.00014411
0.000113135
7.29218e-05
1.29819e-05
5.50592e-05
9.57684e-05
0.000128204
0.000156953
0.000178241
0.000192033
0.000201056
0.000207654
0.000212744
0.000216977
0.000220539
0.000223386
0.000225572
0.000227191
0.000228334
0.000229086
0.000229519
0.000229679
0.000229583
0.00022922
0.000228553
0.000227509
0.00022598
0.000223835
0.000220879
0.000216851
0.000211408
0.000204112
0.000194426
0.000181774
0.000165526
0.000143598
0.000112776
7.27525e-05
1.28488e-05
5.45764e-05
9.53767e-05
0.000127838
0.00015659
0.000177912
0.000191735
0.000200761
0.000207323
0.000212407
0.000216643
0.000220197
0.00022303
0.000225202
0.000226808
0.000227938
0.000228685
0.000229118
0.000229278
0.000229182
0.000228821
0.000228158
0.000227125
0.000225613
0.000223488
0.000220553
0.000216543
0.000211113
0.000203817
0.000194112
0.000181396
0.000165068
0.000143153
0.000112478
7.26223e-05
1.27346e-05
5.41368e-05
9.50214e-05
0.000127505
0.000156262
0.000177613
0.000191465
0.000200496
0.000207027
0.000212107
0.000216346
0.000219895
0.000222717
0.000224876
0.00022647
0.000227593
0.000228338
0.00022877
0.00022893
0.000228835
0.000228475
0.000227815
0.00022679
0.000225293
0.000223185
0.000220267
0.000216274
0.000210854
0.000203561
0.000193844
0.000181083
0.000164688
0.000142788
0.000112293
7.2563e-05
1.26187e-05
5.37318e-05
9.46958e-05
0.000127201
0.000155962
0.00017734
0.000191219
0.000200258
0.000206761
0.000211839
0.000216082
0.000219627
0.000222441
0.000224589
0.000226173
0.000227291
0.000228034
0.000228465
0.000228626
0.000228531
0.000228172
0.000227515
0.000226496
0.000225012
0.000222917
0.000220014
0.000216034
0.000210625
0.000203335
0.000193609
0.00018082
0.000164366
0.000142487
0.000112194
7.2557e-05
1.25169e-05
5.33579e-05
9.43973e-05
0.000126924
0.00015569
0.000177093
0.000190998
0.000200043
0.000206523
0.000211599
0.000215846
0.000219388
0.000222195
0.000224336
0.000225911
0.000227025
0.000227766
0.000228197
0.000228358
0.000228264
0.000227906
0.000227252
0.000226237
0.000224762
0.000222679
0.000219789
0.000215822
0.000210421
0.000203135
0.000193402
0.000180589
0.000164082
0.000142217
0.000112103
7.2551e-05
1.24237e-05
5.30114e-05
9.41243e-05
0.000126672
0.000155444
0.000176871
0.000190799
0.00019985
0.000206309
0.000211382
0.000215634
0.000219174
0.000221975
0.000224109
0.000225678
0.000226789
0.000227528
0.000227959
0.00022812
0.000228026
0.00022767
0.000227017
0.000226007
0.000224539
0.000222466
0.000219587
0.00021563
0.000210237
0.000202953
0.000193215
0.00018038
0.000163823
0.00014197
0.000112016
7.25413e-05
1.23368e-05
5.26891e-05
9.38739e-05
0.000126443
0.000155221
0.000176669
0.000190618
0.000199675
0.000206115
0.000211187
0.000215443
0.000218981
0.000221778
0.000223905
0.00022547
0.000226578
0.000227316
0.000227747
0.000227908
0.000227814
0.000227459
0.000226808
0.000225802
0.00022434
0.000222276
0.000219407
0.000215458
0.000210073
0.000202792
0.000193049
0.000180196
0.000163594
0.000141749
0.000111937
7.25331e-05
1.22549e-05
5.23893e-05
9.36424e-05
0.000126231
0.000155015
0.000176483
0.000190452
0.000199515
0.000205938
0.000211009
0.000215269
0.000218807
0.000221599
0.000223722
0.000225283
0.000226388
0.000227125
0.000227556
0.000227717
0.000227624
0.000227269
0.00022662
0.000225617
0.00022416
0.000222103
0.000219243
0.000215303
0.000209924
0.000202645
0.000192898
0.00018003
0.000163387
0.000141548
0.000111864
7.25254e-05
1.2179e-05
5.21087e-05
9.34294e-05
0.000126038
0.000154828
0.000176314
0.0001903
0.000199368
0.000205776
0.000210847
0.000215111
0.000218648
0.000221437
0.000223555
0.000225113
0.000226217
0.000226953
0.000227383
0.000227544
0.000227451
0.000227097
0.000226451
0.000225451
0.000223998
0.000221948
0.000219095
0.000215162
0.000209789
0.000202513
0.000192764
0.000179882
0.000163202
0.000141366
0.000111797
7.25181e-05
1.21081e-05
5.18471e-05
9.32304e-05
0.000125857
0.000154653
0.000176155
0.000190158
0.000199231
0.000205626
0.000210698
0.000214966
0.000218503
0.000221289
0.000223404
0.000224959
0.000226061
0.000226796
0.000227226
0.000227387
0.000227294
0.000226941
0.000226296
0.000225299
0.000223851
0.000221806
0.00021896
0.000215034
0.000209666
0.000202393
0.000192641
0.000179748
0.000163033
0.0001412
0.000111731
7.25085e-05
1.20416e-05
5.16018e-05
9.3045e-05
0.00012569
0.000154491
0.000176008
0.000190027
0.000199105
0.000205488
0.00021056
0.000214833
0.000218369
0.000221153
0.000223266
0.000224818
0.000225919
0.000226653
0.000227082
0.000227243
0.000227151
0.000226798
0.000226155
0.00022516
0.000223716
0.000221676
0.000218835
0.000214915
0.000209552
0.00020228
0.000192527
0.000179624
0.000162878
0.000141045
0.00011167
7.24987e-05
1.19786e-05
5.13715e-05
9.28714e-05
0.000125533
0.00015434
0.000175872
0.000189904
0.000198987
0.00020536
0.000210433
0.000214709
0.000218246
0.000221028
0.000223138
0.000224689
0.000225787
0.000226521
0.00022695
0.000227111
0.000227019
0.000226667
0.000226025
0.000225032
0.000223592
0.000221557
0.000218721
0.000214807
0.000209448
0.000202178
0.000192424
0.000179512
0.000162739
0.000140905
0.000111612
7.24901e-05
1.19197e-05
5.11544e-05
9.27076e-05
0.000125385
0.000154197
0.000175743
0.00018979
0.000198877
0.00020524
0.000210314
0.000214594
0.000218131
0.000220912
0.000223019
0.000224568
0.000225666
0.000226398
0.000226827
0.000226988
0.000226897
0.000226546
0.000225905
0.000224915
0.000223477
0.000221446
0.000218616
0.000214706
0.000209351
0.000202084
0.000192329
0.00017941
0.000162611
0.000140775
0.000111557
7.24797e-05
1.18642e-05
5.09495e-05
9.25549e-05
0.000125247
0.000154066
0.000175625
0.000189684
0.000198775
0.000205128
0.000210204
0.000214488
0.000218026
0.000220804
0.00022291
0.000224457
0.000225554
0.000226285
0.000226714
0.000226875
0.000226784
0.000226434
0.000225794
0.000224806
0.000223371
0.000221344
0.000218518
0.000214613
0.000209262
0.000201998
0.000192243
0.000179319
0.000162498
0.000140659
0.000111507
7.24718e-05
1.18123e-05
5.07566e-05
9.24102e-05
0.000125117
0.000153941
0.000175512
0.000189583
0.000198678
0.000205024
0.0002101
0.000214389
0.000217927
0.000220705
0.000222809
0.000224354
0.000225449
0.00022618
0.000226608
0.00022677
0.000226679
0.000226329
0.000225691
0.000224704
0.000223272
0.000221249
0.000218427
0.000214527
0.000209179
0.000201918
0.000192163
0.000179235
0.000162392
0.00014055
0.000111459
7.24634e-05
1.17633e-05
5.0574e-05
9.22745e-05
0.000124995
0.000153825
0.000175407
0.000189489
0.000198588
0.000204926
0.000210004
0.000214296
0.000217834
0.000220611
0.000222713
0.000224257
0.000225351
0.000226082
0.00022651
0.000226671
0.00022658
0.000226231
0.000225594
0.000224609
0.000223179
0.00022116
0.000218342
0.000214446
0.000209102
0.000201843
0.00019209
0.000179159
0.000162299
0.000140452
0.000111413
7.24548e-05
1.17165e-05
5.04025e-05
9.21474e-05
0.000124881
0.000153717
0.00017531
0.000189402
0.000198504
0.000204834
0.000209913
0.000214209
0.000217748
0.000220523
0.000222624
0.000224167
0.00022526
0.00022599
0.000226417
0.000226579
0.000226488
0.00022614
0.000225503
0.00022452
0.000223093
0.000221077
0.000218263
0.000214371
0.000209031
0.000201774
0.000192023
0.000179088
0.000162211
0.00014036
0.000111371
7.24471e-05
1.16724e-05
5.02386e-05
9.20269e-05
0.000124774
0.000153614
0.000175217
0.000189319
0.000198423
0.000204747
0.000209828
0.000214126
0.000217666
0.00022044
0.00022254
0.000224081
0.000225174
0.000225903
0.000226331
0.000226492
0.000226402
0.000226054
0.000225419
0.000224437
0.000223012
0.000220998
0.000218188
0.000214299
0.000208963
0.000201709
0.000191959
0.000179023
0.000162132
0.000140275
0.000111329
7.24385e-05
1.16301e-05
5.00838e-05
9.19131e-05
0.000124672
0.000153518
0.00017513
0.000189241
0.000198348
0.000204666
0.000209747
0.000214049
0.000217589
0.000220363
0.000222461
0.000224002
0.000225093
0.000225823
0.00022625
0.000226411
0.000226322
0.000225974
0.000225339
0.000224359
0.000222937
0.000220926
0.000218119
0.000214234
0.000208901
0.000201651
0.000191903
0.000178966
0.000162062
0.000140199
0.000111292
7.24325e-05
1.15906e-05
4.99358e-05
9.18037e-05
0.000124574
0.000153424
0.000175046
0.000189166
0.000198276
0.000204588
0.000209671
0.000213976
0.000217517
0.00022029
0.000222387
0.000223927
0.000225017
0.000225746
0.000226173
0.000226335
0.000226245
0.000225898
0.000225264
0.000224285
0.000222864
0.000220856
0.000218053
0.000214171
0.000208842
0.000201594
0.000191848
0.00017891
0.000161996
0.000140127
0.000111256
7.24249e-05
1.15528e-05
4.97956e-05
9.17023e-05
0.000124484
0.00015334
0.000174971
0.000189098
0.000198211
0.000204516
0.0002096
0.000213908
0.000217449
0.000220221
0.000222317
0.000223855
0.000224945
0.000225673
0.0002261
0.000226262
0.000226172
0.000225826
0.000225192
0.000224215
0.000222796
0.000220791
0.00021799
0.000214112
0.000208786
0.000201541
0.000191797
0.00017886
0.000161936
0.00014006
0.000111219
7.2418e-05
1.15171e-05
4.96613e-05
9.16047e-05
0.000124397
0.000153258
0.000174898
0.000189033
0.000198147
0.000204447
0.000209532
0.000213843
0.000217384
0.000220156
0.000222251
0.000223788
0.000224877
0.000225605
0.000226031
0.000226193
0.000226104
0.000225758
0.000225125
0.000224149
0.000222732
0.000220728
0.000217931
0.000214056
0.000208732
0.00020149
0.000191749
0.000178812
0.00016188
0.000139998
0.000111184
7.24093e-05
1.14827e-05
4.95325e-05
9.1513e-05
0.000124317
0.000153183
0.00017483
0.000188972
0.000198088
0.000204383
0.000209468
0.000213781
0.000217323
0.000220094
0.000222187
0.000223723
0.000224812
0.000225539
0.000225966
0.000226127
0.000226038
0.000225692
0.000225061
0.000224085
0.00022267
0.000220669
0.000217874
0.000214002
0.000208682
0.000201443
0.000191703
0.000178767
0.000161828
0.000139939
0.000111152
7.2402e-05
1.14498e-05
4.94104e-05
9.1426e-05
0.00012424
0.000153111
0.000174766
0.000188915
0.000198032
0.000204322
0.000209408
0.000213724
0.000217266
0.000220036
0.000222128
0.000223663
0.000224751
0.000225478
0.000225904
0.000226066
0.000225977
0.000225631
0.000225
0.000224026
0.000222612
0.000220614
0.000217822
0.000213952
0.000208635
0.000201399
0.000191662
0.000178727
0.000161783
0.000139886
0.000111119
7.23958e-05
1.14187e-05
4.92921e-05
9.13429e-05
0.000124168
0.000153043
0.000174706
0.00018886
0.000197979
0.000204264
0.000209351
0.000213669
0.000217211
0.00021998
0.000222072
0.000223606
0.000224693
0.000225419
0.000225845
0.000226007
0.000225918
0.000225573
0.000224942
0.000223969
0.000222557
0.00022056
0.000217771
0.000213905
0.00020859
0.000201356
0.000191622
0.000178688
0.000161741
0.000139837
0.000111087
7.2388e-05
1.13887e-05
4.91803e-05
9.12654e-05
0.000124101
0.000152981
0.00017465
0.00018881
0.000197929
0.00020421
0.000209297
0.000213617
0.000217159
0.000219928
0.000222018
0.000223552
0.000224638
0.000225364
0.00022579
0.000225951
0.000225863
0.000225518
0.000224888
0.000223915
0.000222505
0.00022051
0.000217723
0.000213859
0.000208547
0.000201316
0.000191583
0.000178651
0.0001617
0.000139789
0.000111057
7.2381e-05
1.13604e-05
4.907e-05
9.11887e-05
0.000124034
0.000152919
0.000174595
0.00018876
0.000197881
0.000204157
0.000209245
0.000213567
0.00021711
0.000219878
0.000221967
0.0002235
0.000224585
0.000225311
0.000225737
0.000225898
0.000225809
0.000225465
0.000224835
0.000223864
0.000222455
0.000220462
0.000217677
0.000213816
0.000208506
0.000201277
0.000191547
0.000178616
0.000161662
0.000139744
0.000111026
7.23739e-05
1.13324e-05
4.89662e-05
9.11188e-05
0.000123974
0.000152864
0.000174546
0.000188715
0.000197836
0.000204108
0.000209197
0.00021352
0.000217063
0.00021983
0.000221919
0.00022345
0.000224535
0.000225261
0.000225686
0.000225847
0.000225759
0.000225414
0.000224785
0.000223815
0.000222407
0.000220416
0.000217633
0.000213774
0.000208467
0.00020124
0.000191512
0.000178582
0.000161628
0.000139701
0.000110995
7.23662e-05
1.13056e-05
4.88653e-05
9.1049e-05
0.000123914
0.000152809
0.000174497
0.000188671
0.000197793
0.00020406
0.00020915
0.000213476
0.000217019
0.000219785
0.000221873
0.000223404
0.000224488
0.000225213
0.000225638
0.000225799
0.000225711
0.000225366
0.000224738
0.000223768
0.000222361
0.000220372
0.000217591
0.000213734
0.00020843
0.000201205
0.000191479
0.000178551
0.000161596
0.000139661
0.000110966
7.23586e-05
1.12793e-05
4.87699e-05
9.09858e-05
0.000123861
0.00015276
0.000174454
0.000188631
0.000197753
0.000204016
0.000209106
0.000213433
0.000216976
0.000219742
0.000221829
0.000223359
0.000224443
0.000225167
0.000225592
0.000225753
0.000225665
0.000225321
0.000224693
0.000223724
0.000222318
0.00022033
0.000217551
0.000213697
0.000208394
0.000201171
0.000191447
0.00017852
0.000161565
0.000139622
0.000110937
7.23514e-05
1.1254e-05
4.86773e-05
9.09234e-05
0.000123808
0.000152712
0.00017441
0.000188591
0.000197713
0.000203972
0.000209063
0.000213392
0.000216936
0.000219701
0.000221788
0.000223317
0.0002244
0.000225124
0.000225549
0.00022571
0.000225621
0.000225277
0.00022465
0.000223681
0.000222277
0.00022029
0.000217513
0.000213661
0.00020836
0.00020114
0.000191417
0.000178492
0.000161536
0.000139585
0.00011091
7.23439e-05
1.12291e-05
4.85866e-05
9.08639e-05
0.000123758
0.000152665
0.000174368
0.000188553
0.000197675
0.00020393
0.000209022
0.000213353
0.000216896
0.000219661
0.000221747
0.000223276
0.000224359
0.000225082
0.000225507
0.000225668
0.000225579
0.000225235
0.000224608
0.00022364
0.000222237
0.000220252
0.000217477
0.000213627
0.000208329
0.00020111
0.00019139
0.000178467
0.000161511
0.000139554
0.000110887
7.23385e-05
1.12063e-05
4.84985e-05
9.08055e-05
0.000123709
0.00015262
0.000174327
0.000188516
0.000197638
0.00020389
0.000208982
0.000213315
0.000216859
0.000219624
0.000221709
0.000223237
0.00022432
0.000225043
0.000225467
0.000225628
0.000225539
0.000225196
0.000224568
0.000223601
0.000222198
0.000220215
0.000217441
0.000213593
0.000208297
0.000201081
0.000191362
0.00017844
0.000161484
0.00013952
0.00011086
7.233e-05
1.11834e-05
4.84135e-05
9.07501e-05
0.000123663
0.000152577
0.000174289
0.000188481
0.000197604
0.000203851
0.000208943
0.000213278
0.000216822
0.000219587
0.000221671
0.000223199
0.000224281
0.000225004
0.000225428
0.000225589
0.0002255
0.000225156
0.00022453
0.000223563
0.000222161
0.000220179
0.000217408
0.000213562
0.000208268
0.000201054
0.000191338
0.000178418
0.000161461
0.00013949
0.000110838
7.23246e-05
1.1161e-05
4.83319e-05
9.06972e-05
0.000123619
0.000152537
0.000174253
0.000188447
0.00019757
0.000203813
0.000208906
0.000213242
0.000216787
0.000219551
0.000221636
0.000223163
0.000224245
0.000224968
0.000225391
0.000225552
0.000225463
0.000225119
0.000224493
0.000223527
0.000222126
0.000220145
0.000217375
0.000213532
0.00020824
0.000201029
0.000191315
0.000178398
0.000161442
0.000139465
0.00011082
7.23193e-05
1.11392e-05
4.82521e-05
9.06458e-05
0.000123577
0.000152498
0.000174218
0.000188416
0.000197538
0.000203778
0.000208871
0.000213208
0.000216753
0.000219517
0.000221601
0.000223127
0.000224209
0.000224931
0.000225355
0.000225515
0.000225427
0.000225083
0.000224457
0.000223492
0.000222092
0.000220113
0.000217345
0.000213504
0.000208215
0.000201007
0.000191296
0.000178381
0.000161426
0.000139444
0.000110804
7.23162e-05
1.11187e-05
4.81763e-05
9.06001e-05
0.000123541
0.000152465
0.000174189
0.000188388
0.000197509
0.000203745
0.000208838
0.000213176
0.000216721
0.000219484
0.000221568
0.000223094
0.000224175
0.000224898
0.000225321
0.000225481
0.000225393
0.000225049
0.000224423
0.000223458
0.000222059
0.000220081
0.000217316
0.000213477
0.000208191
0.000200985
0.000191277
0.000178364
0.00016141
0.000139421
0.000110788
7.2312e-05
1.10988e-05
4.81013e-05
9.05535e-05
0.000123503
0.000152431
0.000174159
0.000188361
0.000197481
0.000203714
0.000208806
0.000213145
0.00021669
0.000219453
0.000221536
0.000223062
0.000224142
0.000224865
0.000225288
0.000225448
0.000225359
0.000225016
0.000224391
0.000223426
0.000222028
0.000220052
0.000217288
0.000213452
0.000208169
0.000200966
0.000191262
0.000178351
0.000161398
0.000139404
0.000110775
7.23104e-05
1.10793e-05
4.80309e-05
9.05127e-05
0.000123473
0.000152404
0.000174135
0.000188338
0.000197456
0.000203685
0.000208776
0.000213116
0.00021666
0.000219423
0.000221505
0.00022303
0.000224111
0.000224833
0.000225257
0.000225417
0.000225328
0.000224985
0.000224359
0.000223396
0.000221999
0.000220023
0.000217261
0.000213427
0.000208147
0.000200947
0.000191245
0.000178337
0.000161384
0.000139386
0.000110761
7.23056e-05
1.10598e-05
4.79616e-05
9.04715e-05
0.000123441
0.000152376
0.000174111
0.000188316
0.000197433
0.000203658
0.000208748
0.000213088
0.000216632
0.000219394
0.000221476
0.000223001
0.000224081
0.000224803
0.000225227
0.000225387
0.000225298
0.000224955
0.00022433
0.000223367
0.000221971
0.000219997
0.000217236
0.000213405
0.000208127
0.000200931
0.000191232
0.000178327
0.000161375
0.000139371
0.00011075
7.23027e-05
1.104e-05
4.78957e-05
9.04345e-05
0.000123414
0.000152353
0.00017409
0.000188296
0.000197411
0.000203632
0.000208721
0.000213061
0.000216605
0.000219366
0.000221447
0.000222972
0.000224052
0.000224774
0.000225198
0.000225358
0.000225269
0.000224927
0.000224302
0.000223339
0.000221943
0.000219971
0.000217212
0.000213382
0.000208108
0.000200914
0.000191218
0.000178316
0.000161365
0.000139357
0.00011074
7.23007e-05
1.1021e-05
4.78283e-05
9.03952e-05
0.000123384
0.000152327
0.000174068
0.000188276
0.00019739
0.000203607
0.000208695
0.000213036
0.000216579
0.000219339
0.00022142
0.000222944
0.000224024
0.000224747
0.00022517
0.000225331
0.000225242
0.0002249
0.000224275
0.000223312
0.000221918
0.000219946
0.000217189
0.000213362
0.000208089
0.000200899
0.000191206
0.000178306
0.000161357
0.000139344
0.00011073
7.22984e-05
1.10018e-05
4.77637e-05
9.036e-05
0.00012336
0.000152307
0.000174051
0.000188259
0.000197371
0.000203585
0.000208671
0.000213011
0.000216553
0.000219313
0.000221392
0.000222917
0.000223997
0.000224719
0.000225143
0.000225303
0.000225215
0.000224872
0.000224248
0.000223286
0.000221892
0.000219921
0.000217166
0.00021334
0.000208071
0.000200883
0.000191193
0.000178296
0.000161348
0.000139332
0.000110721
7.2295e-05
1.09835e-05
4.76996e-05
9.03256e-05
0.000123336
0.000152288
0.000174035
0.000188244
0.000197353
0.000203563
0.000208647
0.000212987
0.000216529
0.000219287
0.000221367
0.000222891
0.000223971
0.000224693
0.000225117
0.000225278
0.000225189
0.000224847
0.000224223
0.000223261
0.000221867
0.000219898
0.000217144
0.00021332
0.000208053
0.000200868
0.000191182
0.000178288
0.000161341
0.000139321
0.000110713
7.22919e-05
1.09652e-05
4.76364e-05
9.02908e-05
0.000123312
0.000152268
0.000174018
0.000188227
0.000197335
0.000203542
0.000208623
0.000212963
0.000216504
0.000219262
0.00022134
0.000222864
0.000223944
0.000224666
0.00022509
0.000225251
0.000225163
0.000224821
0.000224197
0.000223236
0.000221843
0.000219874
0.000217122
0.0002133
0.000208036
0.000200854
0.000191171
0.00017828
0.000161335
0.000139312
0.000110706
7.229e-05
1.09478e-05
4.75745e-05
9.02587e-05
0.000123291
0.000152251
0.000174004
0.000188214
0.000197319
0.000203522
0.000208601
0.00021294
0.00021648
0.000219237
0.000221315
0.000222839
0.000223918
0.000224641
0.000225065
0.000225226
0.000225139
0.000224797
0.000224173
0.000223212
0.000221819
0.000219852
0.000217101
0.000213281
0.00020802
0.000200841
0.000191161
0.000178273
0.000161331
0.000139304
0.0001107
7.22892e-05
1.09311e-05
4.75116e-05
9.02245e-05
0.000123268
0.000152232
0.000173989
0.000188199
0.000197302
0.000203502
0.000208579
0.000212918
0.000216457
0.000219213
0.00022129
0.000222813
0.000223893
0.000224615
0.00022504
0.000225201
0.000225114
0.000224772
0.000224149
0.000223188
0.000221796
0.00021983
0.00021708
0.000213263
0.000208004
0.000200829
0.000191153
0.000178268
0.000161327
0.000139298
0.000110696
7.22873e-05
1.09148e-05
4.74494e-05
9.01927e-05
0.000123247
0.000152216
0.000173975
0.000188185
0.000197286
0.000203483
0.000208557
0.000212895
0.000216433
0.000219189
0.000221266
0.000222788
0.000223868
0.000224591
0.000225015
0.000225177
0.000225089
0.000224748
0.000224124
0.000223164
0.000221773
0.000219807
0.000217059
0.000213244
0.000207988
0.000200815
0.000191142
0.000178261
0.000161322
0.000139291
0.00011069
7.22837e-05
1.08986e-05
4.73852e-05
9.01584e-05
0.000123224
0.000152197
0.000173959
0.00018817
0.000197268
0.000203463
0.000208535
0.000212873
0.000216411
0.000219166
0.000221242
0.000222765
0.000223844
0.000224567
0.000224991
0.000225153
0.000225066
0.000224724
0.000224101
0.000223141
0.00022175
0.000219785
0.000217039
0.000213226
0.000207972
0.000200802
0.000191132
0.000178253
0.000161317
0.000139284
0.000110684
7.22796e-05
1.08821e-05
4.73229e-05
9.01261e-05
0.000123202
0.000152179
0.000173943
0.000188154
0.000197251
0.000203443
0.000208513
0.000212851
0.000216388
0.000219142
0.000221218
0.00022274
0.00022382
0.000224542
0.000224967
0.000225129
0.000225042
0.0002247
0.000224077
0.000223117
0.000221727
0.000219763
0.000217017
0.000213206
0.000207954
0.000200787
0.00019112
0.000178244
0.000161309
0.000139274
0.000110676
7.22749e-05
1.0866e-05
4.72596e-05
9.00916e-05
0.000123178
0.000152158
0.000173925
0.000188136
0.000197231
0.000203421
0.000208489
0.000212828
0.000216365
0.000219119
0.000221195
0.000222717
0.000223796
0.000224519
0.000224944
0.000225106
0.000225018
0.000224677
0.000224054
0.000223094
0.000221704
0.00021974
0.000216996
0.000213186
0.000207936
0.000200771
0.000191106
0.000178233
0.0001613
0.000139264
0.000110668
7.2269e-05
1.08494e-05
4.71963e-05