/*--------------------------------*- C++ -*----------------------------------*\
| =========                 |                                                 |
| \\      /  F ield         | OpenFOAM: The Open Source CFD Toolbox           |
|  \\    /   O peration     | Version:  v2006                                 |
|   \\  /    A nd           | Website:  www.openfoam.com                      |
|    \\/     M anipulation  |                                                 |
\*---------------------------------------------------------------------------*/
FoamFile
{
    version     2.0;
    format      ascii;
    class       volScalarField;
    location    "18";
    object      nut;
}
// * * * * * * * * * * * * * * * * * * * * * * * * * * * * * * * * * * * * * //

dimensions      [0 2 -1 0 0 0 0];


internalField   nonuniform List<scalar> 
78750
(
4.1543e-08
1.31563e-07
4.33476e-06
3.82756e-06
7.43078e-06
6.41846e-06
6.28407e-06
6.35245e-06
7.33343e-06
5.74811e-06
6.53231e-06
4.64135e-06
4.21596e-06
1.03369e-06
3.07663e-07
1.68929e-06
1.16802e-06
1.04403e-06
9.22571e-07
1.47498e-07
1.20461e-06
2.83301e-07
1.58596e-06
1.07547e-06
1.44372e-06
3.42683e-07
3.90987e-07
2.94266e-06
5.37414e-06
8.66064e-06
1.05475e-05
1.58364e-05
1.85578e-05
3.72925e-05
1.00576e-05
8.58932e-06
1.71897e-05
3.08452e-05
2.50503e-05
2.61421e-05
3.46041e-05
2.27565e-05
4.64714e-05
1.87412e-05
3.47796e-05
4.21415e-05
5.39567e-05
0.000104195
9.43124e-05
3.04629e-05
2.30991e-05
2.95728e-05
2.96688e-05
2.90407e-05
3.40561e-05
4.37772e-05
5.81888e-05
7.64662e-05
9.8101e-05
0.0001201
0.000128247
0.000116546
9.93923e-05
8.75416e-05
8.34254e-05
8.44045e-05
8.86941e-05
8.89842e-05
9.6098e-05
8.39478e-06
1.2055e-05
2.02312e-05
1.36068e-05
6.80784e-06
4.40549e-06
1.9027e-05
1.20479e-05
3.33211e-05
3.48412e-05
1.51746e-05
1.31889e-05
1.12131e-05
6.91186e-06
2.65263e-06
2.7453e-07
3.5604e-07
1.0429e-06
3.6141e-08
3.64601e-06
1.1193e-05
2.09304e-05
3.11855e-05
4.08305e-05
4.86392e-05
5.42511e-05
5.73942e-05
5.85225e-05
5.81621e-05
5.80732e-05
5.83443e-05
5.92034e-05
5.64956e-05
5.77355e-05
3.00202e-05
1.01352e-05
1.03616e-05
1.10906e-05
1.06273e-05
1.57542e-06
9.37603e-06
2.56315e-05
2.91566e-05
5.26155e-05
8.87218e-05
5.32166e-05
2.28484e-05
1.57182e-05
1.41772e-05
1.78256e-05
2.66014e-05
3.59107e-05
2.03086e-05
2.21911e-05
3.36307e-05
4.59303e-05
5.14734e-05
5.01475e-05
4.77504e-05
4.57197e-05
4.42877e-05
4.30054e-05
4.12584e-05
3.91026e-05
3.77048e-05
3.7651e-05
4e-05
4.52934e-05
5.54479e-05
3.18185e-05
1.26356e-05
1.3745e-05
5.98845e-05
9.81673e-05
0.000188675
0.000383006
0.00044622
0.00019256
3.50808e-05
1.93568e-05
2.40893e-05
4.27148e-05
3.35221e-05
2.12222e-05
1.9768e-05
2.17495e-05
1.99225e-05
1.20639e-05
4.12984e-06
3.63803e-06
1.69647e-06
5.35485e-06
3.12503e-06
7.55343e-06
7.9726e-06
1.55087e-05
1.86203e-05
1.92313e-05
1.93796e-05
1.96736e-05
2.01389e-05
2.18074e-05
2.7113e-05
4.21537e-05
4.55032e-05
1.07995e-05
9.13274e-06
5.2268e-05
5.4873e-05
5.44162e-05
5.43012e-05
5.50582e-05
4.92428e-05
4.77145e-05
7.10962e-05
8.68813e-05
3.87845e-05
3.95977e-05
6.03226e-05
6.29182e-05
7.90895e-05
0.000136872
0.000223136
0.000241888
0.000221512
0.000200395
0.000156923
8.47044e-05
4.43831e-05
2.74883e-05
1.99379e-05
1.76061e-05
1.93559e-05
2.259e-05
2.42444e-05
2.44916e-05
2.48565e-05
2.84585e-05
4.1876e-05
4.70894e-05
8.16077e-06
2.54993e-06
1.34091e-05
2.02857e-05
2.4255e-05
2.58175e-05
2.76546e-05
3.51901e-05
4.95913e-05
4.88464e-05
4.1151e-05
3.94309e-05
3.83197e-05
3.55432e-05
2.49436e-05
1.11309e-05
8.20841e-06
1.18435e-05
1.87977e-05
2.48826e-05
2.54924e-05
2.21371e-05
1.97964e-05
2.11716e-05
2.64425e-05
3.20231e-05
3.89371e-05
4.73304e-05
4.60812e-05
3.91625e-05
3.84379e-05
4.53456e-05
4.70406e-05
4.41846e-05
6.31103e-05
6.8232e-06
6.4976e-06
3.18233e-05
7.2173e-05
9.96352e-05
0.000109802
0.000119334
0.00013584
0.000143992
0.000134779
0.000118368
0.000103989
0.000104361
0.00012703
0.000169633
0.000208563
0.000245207
0.000272846
0.000264713
0.000258836
0.000190115
0.000103806
5.53466e-05
3.57014e-05
2.78242e-05
2.54395e-05
2.65298e-05
2.92331e-05
3.23597e-05
3.57062e-05
3.66226e-05
3.56821e-05
3.25921e-05
3.26939e-05
6.87107e-05
7.22124e-06
7.88854e-06
5.13486e-05
0.000109527
0.000119295
0.000124765
0.000127835
0.000126316
0.000125414
0.000127009
0.000120016
9.60745e-05
6.40332e-05
4.0635e-05
3.03767e-05
2.74435e-05
2.87001e-05
3.31544e-05
3.91109e-05
4.20189e-05
3.80644e-05
3.16935e-05
2.81346e-05
2.82477e-05
3.16902e-05
3.80089e-05
4.47342e-05
4.88094e-05
5.23744e-05
5.54146e-05
5.02072e-05
3.38574e-05
2.507e-05
3.47572e-05
8.3165e-05
7.5601e-06
6.63156e-06
3.88284e-05
0.000102157
0.000132891
0.000141654
0.000138962
0.000127761
0.000112915
0.00010075
9.57564e-05
0.000101523
0.000122177
0.000158482
0.000193291
0.000176798
0.000108458
6.40231e-05
4.43855e-05
3.32078e-05
2.56582e-05
2.17925e-05
2.14092e-05
2.43739e-05
3.04791e-05
3.74816e-05
4.20236e-05
4.3676e-05
4.40859e-05
4.24687e-05
3.37541e-05
2.05109e-05
1.60518e-05
2.88244e-05
8.22955e-05
7.75822e-06
6.51328e-06
4.40555e-05
0.000124797
0.000157254
0.000167153
0.000170245
0.00016998
0.000166282
0.000155416
0.000133104
0.000104564
8.13104e-05
6.6328e-05
5.67825e-05
4.94427e-05
4.10765e-05
3.07178e-05
2.28708e-05
2.03888e-05
2.197e-05
2.56128e-05
3.01595e-05
3.52125e-05
3.94686e-05
4.1006e-05
3.9932e-05
3.82247e-05
3.69757e-05
3.34642e-05
2.5344e-05
1.90734e-05
2.25992e-05
4.96193e-05
6.15693e-05
7.89727e-06
6.38399e-06
3.65496e-05
0.000115671
0.000146435
0.00014429
0.000132147
0.000120449
0.000115679
0.00011964
0.000129388
0.00013601
0.000130571
0.000113702
9.23863e-05
7.21927e-05
5.41634e-05
3.77911e-05
2.48938e-05
1.79772e-05
1.69895e-05
1.99704e-05
2.46605e-05
2.91666e-05
3.21175e-05
3.26932e-05
3.11343e-05
2.93717e-05
2.98626e-05
3.07912e-05
2.43173e-05
1.50063e-05
1.47993e-05
3.21955e-05
6.94804e-05
7.48692e-06
6.95247e-06
4.65517e-05
0.000135641
0.000170073
0.000170885
0.000157488
0.000140182
0.000124542
0.000112472
0.000105467
0.000104318
0.000107346
0.000109241
0.000103835
9.14693e-05
7.75822e-05
6.40721e-05
4.91012e-05
3.35047e-05
2.27194e-05
1.90916e-05
2.16132e-05
2.77741e-05
3.26888e-05
3.23599e-05
2.73065e-05
2.16935e-05
1.96066e-05
2.1662e-05
2.24653e-05
1.70992e-05
1.72187e-05
3.74928e-05
5.97163e-05
7.65961e-06
6.98961e-06
4.42238e-05
0.000134334
0.000157932
0.000141397
0.000120103
0.000109705
0.000110405
0.000117877
0.000127725
0.000136816
0.00014388
0.00014772
0.000144383
0.000129337
0.000105775
8.33658e-05
6.65623e-05
5.31281e-05
4.02092e-05
2.87775e-05
2.17772e-05
2.0399e-05
2.37866e-05
2.69993e-05
2.40164e-05
1.62494e-05
1.1152e-05
1.14239e-05
1.53895e-05
1.79356e-05
2.14983e-05
4.36744e-05
5.63972e-05
7.43645e-06
7.99142e-06
5.68469e-05
0.000151179
0.000149058
0.000113448
9.19276e-05
8.99525e-05
9.93366e-05
0.000112645
0.000124962
0.000134715
0.000143393
0.000153775
0.00016685
0.000177742
0.000173597
0.000144853
0.000106207
7.74956e-05
6.01257e-05
4.78281e-05
3.66924e-05
2.78685e-05
2.39505e-05
2.50704e-05
2.6287e-05
2.05595e-05
1.05368e-05
5.94588e-06
7.57514e-06
1.13041e-05
1.63748e-05
3.66009e-05
6.0034e-05
7.51951e-06
8.34856e-06
6.07434e-05
0.000149196
0.000117243
7.37511e-05
6.2397e-05
7.4234e-05
0.000102081
0.000136823
0.000167483
0.000187957
0.000197063
0.00019697
0.00019319
0.000190947
0.000189223
0.000178053
0.000146972
0.000105614
7.43874e-05
5.70104e-05
4.71619e-05
3.91037e-05
3.13898e-05
2.60072e-05
2.34941e-05
1.77448e-05
6.17927e-06
1.34266e-06
3.02378e-06
9.25213e-06
1.93232e-05
4.56212e-05
5.09842e-05
7.65575e-06
8.49842e-06
5.87994e-05
0.000135826
9.05232e-05
5.01262e-05
4.42078e-05
6.11346e-05
9.72709e-05
0.000141737
0.000181507
0.000211996
0.000233687
0.000247268
0.00025269
0.000250204
0.00024089
0.00022413
0.00019495
0.000151097
0.000105475
7.40809e-05
5.78128e-05
5.00072e-05
4.42891e-05
3.77585e-05
3.08007e-05
2.08688e-05
5.05866e-06
2.99634e-07
7.91856e-07
5.75123e-06
2.0674e-05
6.76881e-05
3.84814e-05
7.40288e-06
7.93768e-06
4.3657e-05
0.000113433
8.27569e-05
3.96797e-05
3.08328e-05
4.55783e-05
8.80602e-05
0.000151241
0.000208495
0.000247887
0.000272033
0.00028479
0.000289323
0.000287729
0.000280122
0.000264438
0.000236505
0.000193611
0.000142776
9.94107e-05
7.21712e-05
5.84079e-05
5.17652e-05
4.64803e-05
3.99924e-05
3.13848e-05
1.67313e-05
2.79965e-06
5.21566e-07
2.64949e-06
1.2317e-05
5.06517e-05
3.51828e-05
7.19707e-06
7.52662e-06
3.4928e-05
9.71683e-05
9.05167e-05
3.77912e-05
1.94773e-05
2.47783e-05
5.34311e-05
0.000117014
0.000207251
0.000290065
0.000317024
0.000315134
0.000311692
0.000306886
0.000300894
0.000293869
0.000281672
0.000224759
0.000166715
0.000120468
9.01985e-05
7.37212e-05
6.61093e-05
6.17272e-05
5.59068e-05
4.66132e-05
3.17506e-05
1.07635e-05
1.92212e-07
9.13207e-07
5.29448e-06
2.45311e-05
3.85281e-05
7.16008e-06
7.84942e-06
3.83972e-05
0.000108018
7.95192e-05
3.25812e-05
1.68143e-05
2.17482e-05
5.14725e-05
0.00011663
0.000199757
0.000272907
0.000314821
0.000314219
0.000312038
0.0003084
0.00030344
0.00029728
0.000290031
0.000281797
0.000221083
0.00016182
0.000121151
9.76183e-05
8.61352e-05
8.12056e-05
7.69773e-05
6.88042e-05
5.41849e-05
3.09786e-05
5.43036e-06
6.71057e-07
1.21459e-06
1.25807e-05
4.7766e-05
7.17826e-06
8.41007e-06
5.96177e-05
9.80273e-05
5.00041e-05
2.66603e-05
2.27405e-05
3.75666e-05
7.94014e-05
0.000124626
0.000160832
0.000192906
0.000221441
0.000245119
0.00026293
0.000274599
0.000280353
0.00027973
0.000269656
0.000246165
0.000212428
0.000178174
0.0001509
0.000133013
0.000123659
0.00012042
0.000119247
0.000114766
0.000101254
7.19724e-05
2.58817e-05
3.96186e-06
1.69795e-06
1.0599e-05
5.32182e-05
7.26921e-06
8.59303e-06
7.1773e-05
9.59211e-05
6.67504e-05
4.95256e-05
4.36833e-05
4.46546e-05
5.31354e-05
6.88634e-05
9.12141e-05
0.000118201
0.00014594
0.000171217
0.000192832
0.000210676
0.000224407
0.000232835
0.000234216
0.000227519
0.000213932
0.000196819
0.000180349
0.000168159
0.000162308
0.000162379
0.000164188
0.000158728
0.000135709
8.74788e-05
2.86418e-05
6.09469e-06
3.4183e-06
1.32394e-05
4.16074e-05
7.03187e-06
7.93513e-06
4.85057e-05
0.000106921
0.000129478
0.00012476
8.21943e-05
4.84405e-05
3.6554e-05
3.61018e-05
4.27196e-05
5.71442e-05
8.06115e-05
0.00011102
0.000141938
0.000168225
0.000189172
0.000205083
0.000215476
0.000220026
0.000219168
0.000214156
0.000206896
0.000199449
0.000193383
0.000188629
0.000181982
0.000167575
0.000141617
0.000100863
4.41003e-05
1.06851e-05
4.33201e-06
1.29072e-05
3.8616e-05
6.54883e-06
6.91174e-06
3.38039e-05
9.26335e-05
0.000137536
0.000148739
0.000138525
0.00010739
7.02326e-05
4.80261e-05
3.76484e-05
3.42897e-05
3.77715e-05
5.0599e-05
7.63595e-05
0.000114288
0.000154102
0.000186399
0.000210005
0.000225819
0.00023424
0.000236214
0.000233191
0.000226641
0.000217616
0.000206407
0.00019238
0.000174226
0.000150938
0.000122124
8.13561e-05
2.99684e-05
8.05921e-06
9.60483e-06
5.26374e-05
5.7981e-06
6.42357e-06
2.9755e-05
9.38088e-05
0.000150639
0.000145266
0.000123942
0.000115934
0.000119104
0.000112654
8.74611e-05
6.1463e-05
4.44033e-05
3.63015e-05
3.77357e-05
5.22273e-05
8.50826e-05
0.000134304
0.000184517
0.000223855
0.00025113
0.000267515
0.000273537
0.000270358
0.000260374
0.000245934
0.000228434
0.000208083
0.00018449
0.000157604
0.000125048
7.40532e-05
2.1349e-05
1.0641e-05
3.65427e-05
5.59745e-06
7.01625e-06
3.16417e-05
9.6162e-05
0.000147151
0.000123997
8.73951e-05
6.93736e-05
6.99896e-05
9.11001e-05
0.00013056
0.000154586
0.000123679
7.55183e-05
4.7475e-05
3.79295e-05
4.49772e-05
7.35037e-05
0.000128101
0.000198996
0.00026477
0.000297265
0.000297984
0.000296715
0.000293628
0.000288937
0.000279544
0.00025357
0.000224429
0.000192795
0.000156191
0.000102263
3.35493e-05
1.43494e-05
3.26602e-05
5.95133e-06
8.50807e-06
4.23025e-05
0.000127357
0.000136515
8.67311e-05
6.92939e-05
7.18514e-05
7.61818e-05
8.33201e-05
0.000109418
0.000164102
0.000219103
0.000209071
0.0001215
6.18993e-05
4.24601e-05
4.82307e-05
8.09133e-05
0.000150112
0.000246366
0.000295509
0.000298307
0.000299295
0.00029844
0.000295831
0.000291632
0.000285132
0.000252276
0.000214976
0.000170434
0.000104554
3.51736e-05
1.78693e-05
4.3651e-05
6.54154e-06
9.40741e-06
5.59614e-05
0.000140075
7.47321e-05
4.20259e-05
4.60185e-05
7.69626e-05
0.000124765
0.000157197
0.000173311
0.000195834
0.000229764
0.000252291
0.000219542
0.00012507
6.46469e-05
4.85266e-05
6.35133e-05
0.000113359
0.000200421
0.000287212
0.000299569
0.000301415
0.000301712
0.000300377
0.000297468
0.000288118
0.000254869
0.00021514
0.000162937
8.55633e-05
3.02046e-05
2.07964e-05
6.50163e-05
7.28506e-06
9.21785e-06
5.85796e-05
0.000115411
4.88645e-05
3.01658e-05
4.24487e-05
9.44664e-05
0.000180577
0.000235566
0.000254109
0.000255193
0.00025359
0.000249833
0.00022533
0.000163262
9.42589e-05
6.13055e-05
6.28691e-05
9.95887e-05
0.000172565
0.000254377
0.000303564
0.000305939
0.000306285
0.000305262
0.000298313
0.000273322
0.000239876
0.000197263
0.00013713
6.33746e-05
2.62768e-05
2.43372e-05
7.83956e-05
7.5033e-06
8.58034e-06
4.83902e-05
0.000123848
7.10782e-05
3.09484e-05
2.75495e-05
5.44468e-05
0.000126968
0.000215888
0.000274262
0.00030206
0.000309319
0.000299191
0.000266522
0.000204256
0.000130444
8.27082e-05
7.10274e-05
9.50741e-05
0.000158141
0.000240401
0.000298067
0.000311793
0.000311856
0.000310747
0.000293687
0.000266517
0.000230372
0.000181659
0.00011413
4.9712e-05
2.39591e-05
2.78759e-05
6.64544e-05
7.53752e-06
8.67796e-06
4.34763e-05
0.000112354
0.000101474
3.76177e-05
1.53071e-05
2.44254e-05
6.66845e-05
0.000153581
0.00025007
0.000317114
0.000349548
0.000349454
0.000314115
0.000245061
0.000165875
0.000110186
9.00521e-05
0.000105895
0.000163201
0.000247787
0.00031012
0.000319336
0.000318957
0.000313973
0.000290681
0.000259694
0.000220606
0.000168792
0.000102213
4.66061e-05
2.51856e-05
3.24613e-05
5.17797e-05
7.32009e-06
9.17301e-06
5.47659e-05
0.000125256
7.69082e-05
3.70479e-05
1.90241e-05
2.43769e-05
6.23392e-05
0.000138372
0.000218181
0.000278096
0.000313385
0.00032052
0.000293835
0.000236773
0.000172687
0.000128439
0.00011458
0.00013487
0.00019348
0.000271785
0.000324542
0.000329912
0.000328448
0.000314161
0.000287518
0.000254552
0.000214319
0.000162855
0.00010056
5.02103e-05
3.03943e-05
4.06546e-05
4.97944e-05
7.2327e-06
9.17993e-06
6.71749e-05
0.000118434
6.62062e-05
3.93187e-05
3.11743e-05
3.39293e-05
5.75109e-05
0.0001047
0.000157959
0.000203209
0.000234719
0.000246885
0.000234176
0.000200054
0.000161587
0.000137732
0.000139453
0.000173288
0.000236244
0.000299558
0.000333287
0.000337921
0.000325743
0.000304385
0.000277127
0.000244826
0.000206587
0.000159967
0.000106011
6.06627e-05
4.13504e-05
5.38783e-05
5.18179e-05
7.10597e-06
8.40743e-06
4.75625e-05
0.000121949
0.000116884
6.8629e-05
3.59242e-05
2.3434e-05
2.62898e-05
4.90538e-05
9.11872e-05
0.000138764
0.000174973
0.000191049
0.00018713
0.000172456
0.000161023
0.000165184
0.000193016
0.000244704
0.000303495
0.000344147
0.000358331
0.000353285
0.000337022
0.000314039
0.000286344
0.000254455
0.000217542
0.000173479
0.000122782
7.84479e-05
5.89309e-05
7.32225e-05
6.5485e-05
7.27477e-06
8.08556e-06
4.00138e-05
0.000110869
0.000126874
9.1344e-05
4.70198e-05
2.4822e-05
1.62141e-05
2.22029e-05
4.64176e-05
8.34257e-05
0.000116453
0.000139703
0.000160929
0.00018619
0.00021577
0.000247589
0.000280801
0.000312961
0.000338412
0.00035195
0.000352532
0.000342451
0.000324686
0.000301449
0.000273967
0.000242616
0.000207003
0.000166691
0.000124401
9.02876e-05
7.78885e-05
9.5962e-05
6.67941e-05
7.09194e-06
8.72626e-06
4.9742e-05
0.000134358
0.000116787
7.50066e-05
5.26845e-05
3.91896e-05
2.56342e-05
1.82708e-05
2.50682e-05
4.77769e-05
8.61958e-05
0.000129928
0.000163962
0.000188655
0.000211639
0.00023658
0.000263541
0.000289877
0.000311213
0.000323942
0.000327151
0.000322065
0.000310494
0.000293932
0.000273344
0.000249067
0.000220656
0.000187168
0.000149342
0.000115214
0.000100105
0.000112794
8.12962e-05
7.3498e-06
9.31767e-06
5.68885e-05
0.000136424
0.000122027
7.7489e-05
5.26701e-05
5.07787e-05
5.45947e-05
4.07528e-05
2.42411e-05
1.7535e-05
2.1526e-05
4.00663e-05
8.29822e-05
0.000138043
0.000175873
0.000203569
0.000233185
0.000264568
0.000291832
0.000310157
0.000318164
0.000316834
0.000307852
0.000292571
0.000271746
0.000245527
0.000213733
0.000176874
0.000139116
0.000110832
0.000103845
0.000122196
8.5701e-05
8.03429e-06
9.09783e-06
5.03337e-05
0.000124371
0.000130213
0.000101034
5.88487e-05
3.9372e-05
4.2689e-05
6.76376e-05
9.08127e-05
6.41832e-05
2.66263e-05
7.70734e-06
9.41894e-06
3.49453e-05
9.59875e-05
0.000179811
0.000251015
0.000299946
0.000330135
0.000343469
0.000342976
0.000332933
0.000316841
0.000296875
0.000274208
0.000249175
0.000221372
0.000190294
0.000157612
0.000130904
0.000121789
0.000132667
8.07029e-05
8.07874e-06
8.62159e-06
4.60419e-05
0.000125752
0.000142922
0.000126265
8.9586e-05
5.20683e-05
3.4843e-05
3.45796e-05
5.04204e-05
8.5297e-05
0.000109477
4.3624e-05
1.23783e-05
1.44006e-05
4.48383e-05
0.000119488
0.000235938
0.000334657
0.000354745
0.000363719
0.000370314
0.000374804
0.000356081
0.000327538
0.000296553
0.000263593
0.00022818
0.000189893
0.000151476
0.000122564
0.00011482
0.000130758
9.09909e-05
8.66632e-06
8.61527e-06
4.56374e-05
0.000129009
0.000151327
0.000130351
9.23151e-05
6.22935e-05
4.72545e-05
4.27137e-05
4.28407e-05
3.96575e-05
2.67764e-05
1.35369e-05
1.32672e-05
4.07849e-05
0.000139474
0.000295537
0.000329699
0.000343377
0.000354864
0.000364248
0.000371655
0.000355185
0.000331743
0.000307048
0.000279339
0.000247099
0.000210007
0.000170678
0.000136513
0.000117389
0.00012045
0.000141222
7.53117e-05
8.62934e-06
8.76218e-06
4.65451e-05
0.000130685
0.000148514
0.000121493
8.21306e-05
5.35608e-05
4.18204e-05
4.58594e-05
6.21047e-05
7.04068e-05
4.91264e-05
2.15624e-05
1.25612e-05
2.74577e-05
7.49236e-05
0.000157293
0.00023805
0.000284992
0.000302808
0.000305148
0.000298756
0.00028606
0.00026898
0.000249392
0.000228425
0.000206078
0.000181476
0.000154798
0.000130746
0.000118715
0.000126563
0.000146227
6.55494e-05
8.45181e-06
8.70588e-06
4.75853e-05
0.000139785
0.00013985
9.66475e-05
6.57934e-05
5.10492e-05
4.07906e-05
3.74914e-05
4.51401e-05
5.1888e-05
3.66843e-05
1.84156e-05
1.59123e-05
4.56256e-05
0.00016217
0.000281046
0.000322671
0.000334675
0.00034015
0.000327383
0.000311423
0.000294557
0.000275485
0.000252325
0.000224464
0.000193312
0.000162086
0.000135192
0.000117621
0.00011456
0.000129272
0.000147187
6.12989e-05
8.57435e-06
9.03061e-06
4.96266e-05
0.000139876
0.000131
7.87879e-05
5.36044e-05
5.07668e-05
5.50443e-05
5.6015e-05
6.26907e-05
8.11483e-05
8.43884e-05
4.75958e-05
2.05398e-05
2.18066e-05
5.66403e-05
0.000105622
0.000147846
0.00018052
0.000209514
0.000232217
0.000242899
0.000241475
0.000232257
0.000218451
0.000200133
0.000176446
0.000149482
0.000125785
0.00011309
0.000116818
0.000136784
0.000148213
5.32804e-05
8.36894e-06
9.33187e-06
5.92941e-05
0.000139415
9.03977e-05
4.7987e-05
3.46088e-05
3.71853e-05
5.21207e-05
7.44278e-05
8.56497e-05
7.90912e-05
5.94675e-05
3.39465e-05
1.54425e-05
1.69202e-05
6.93398e-05
0.000214491
0.000270817
0.000260363
0.000225004
0.000199967
0.000191011
0.000189904
0.000187284
0.000179097
0.000166546
0.000152105
0.000137584
0.000125677
0.000121364
0.000129616
0.000147489
0.000144999
4.751e-05
8.04565e-06
9.18393e-06
5.96223e-05
0.000131724
7.89809e-05
4.52188e-05
3.91955e-05
4.77762e-05
6.07964e-05
7.79847e-05
0.000105239
0.000135191
0.00014724
0.000125202
8.03942e-05
4.54889e-05
3.05598e-05
2.83446e-05
4.02753e-05
7.9541e-05
0.00013892
0.000172102
0.000172764
0.000164681
0.00015873
0.00015352
0.00014499
0.000133134
0.000121863
0.000115517
0.000117715
0.000130862
0.000150149
0.00014908
5.07824e-05
8.23205e-06
9.2211e-06
6.25115e-05
0.000124921
7.27126e-05
3.85674e-05
3.05206e-05
4.13244e-05
6.90626e-05
9.41874e-05
0.000106688
0.000117674
0.000132141
0.000146311
0.000151353
0.000135691
0.000100105
6.46672e-05
4.13113e-05
3.22855e-05
4.35196e-05
7.97866e-05
0.000118611
0.000134988
0.000136862
0.000137342
0.000138082
0.000134309
0.000125419
0.000118012
0.000119636
0.000133696
0.000153523
0.000150477
5.17978e-05
8.40031e-06
8.8613e-06
5.59766e-05
0.000124836
9.32442e-05
5.31768e-05
3.34089e-05
3.05483e-05
4.33255e-05
7.2537e-05
0.000111723
0.000148373
0.000175058
0.000191587
0.000198948
0.000195585
0.000177567
0.000143464
0.000101312
6.51193e-05
4.2723e-05
3.58834e-05
4.86866e-05
7.65355e-05
9.62752e-05
0.000103315
0.000107908
0.000114346
0.000119676
0.00012252
0.000128323
0.000142603
0.00015983
0.000150279
4.91849e-05
8.20134e-06
8.8482e-06
4.97357e-05
0.000125498
0.00012806
8.91383e-05
4.80276e-05
2.91921e-05
2.48949e-05
3.2236e-05
5.172e-05
8.27067e-05
0.000122985
0.000167224
0.00020755
0.000237127
0.000251322
0.000245692
0.00021692
0.000169504
0.000118738
7.94529e-05
5.73715e-05
5.39973e-05
6.74764e-05
8.05847e-05
8.32988e-05
8.47405e-05
9.15295e-05
0.000103852
0.000120036
0.000139374
0.000156346
0.000148069
4.99647e-05
8.17462e-06
8.79783e-06
4.84493e-05
0.000130709
0.000131561
9.78965e-05
6.21716e-05
3.89972e-05
2.82862e-05
2.7216e-05
3.6085e-05
5.59578e-05
8.79648e-05
0.00013447
0.000193437
0.000254719
0.000304634
0.000332556
0.000332506
0.000302844
0.000247365
0.000178692
0.000115466
7.24214e-05
5.50265e-05
5.88638e-05
6.81041e-05
7.27386e-05
7.72206e-05
8.77678e-05
0.000106026
0.000128598
0.000146851
0.000142486
5.16642e-05
8.47101e-06
8.73836e-06
4.56144e-05
0.00012796
0.000138827
0.000109376
7.72679e-05
5.25813e-05
3.53495e-05
2.68249e-05
2.63877e-05
3.46287e-05
5.29996e-05
8.486e-05
0.000135873
0.000206761
0.00028915
0.000363716
0.000400327
0.000399615
0.000356294
0.000267783
0.000165964
8.68827e-05
4.84952e-05
4.176e-05
5.65669e-05
7.08981e-05
7.627e-05
8.24457e-05
9.69581e-05
0.000119664
0.000141497
0.000141209
5.10291e-05
8.78591e-06
8.96121e-06
4.75298e-05
0.00013202
0.00012974
8.82627e-05
6.1227e-05
5.05197e-05
4.20639e-05
3.31563e-05
3.01521e-05
3.50522e-05
4.75014e-05
7.06191e-05
0.000114071
0.000188278
0.000291886
0.000389826
0.000399711
0.000401618
0.000399507
0.000303909
0.000190162
0.000102143
5.42601e-05
3.76943e-05
4.52416e-05
6.24145e-05
7.27074e-05
7.92957e-05
9.21099e-05
0.000115119
0.000140063
0.000138144
4.63439e-05
8.74779e-06
9.08472e-06
4.97151e-05
0.000132869
0.000123018
8.01646e-05
5.58902e-05
4.98085e-05
4.83867e-05
4.09025e-05
3.28575e-05
3.113e-05
3.6125e-05
4.90584e-05
7.58589e-05
0.000126548
0.000204437
0.000294384
0.000364958
0.000389224
0.000360722
0.00029283
0.000208431
0.000131294
7.81297e-05
5.10673e-05
4.46343e-05
5.14951e-05
6.16362e-05
7.18314e-05
8.6895e-05
0.000111484
0.000138121
0.000132432
4.19393e-05
8.5195e-06
9.11477e-06
5.13735e-05
0.000134408
0.000117798
7.46762e-05
5.14481e-05
4.54928e-05
4.66887e-05
4.62634e-05
4.19182e-05
3.89914e-05
3.99096e-05
4.51679e-05
6.15935e-05
9.91651e-05
0.000165212
0.000247361
0.000314436
0.000342491
0.000330311
0.000288947
0.000230766
0.000168388
0.000114762
7.80433e-05
5.81151e-05
5.11366e-05
5.31408e-05
6.22452e-05
7.9807e-05
0.000107264
0.000134513
0.000125926
3.94278e-05
8.36797e-06
9.12749e-06
5.24182e-05
0.000134475
0.000118981
7.77366e-05
5.58578e-05
5.15321e-05
5.35438e-05
5.22223e-05
4.65542e-05
4.11817e-05
3.75505e-05
3.43455e-05
3.74379e-05
5.54599e-05
9.65636e-05
0.000161494
0.000228828
0.00027272
0.000284682
0.000270637
0.000238965
0.000196767
0.000151558
0.000111418
8.15846e-05
6.30189e-05
5.49881e-05
5.75057e-05
7.20006e-05
9.95078e-05
0.000128962
0.000123501
3.88939e-05
8.41934e-06
9.19575e-06
5.50098e-05
0.000136156
0.000118864
7.60796e-05
5.13692e-05
4.62523e-05
5.23308e-05
5.89016e-05
5.76667e-05
5.25612e-05
4.93114e-05
4.57154e-05
3.92991e-05
4.14335e-05
6.25908e-05
0.000111198
0.000178498
0.000230668
0.000251943
0.000249652
0.000233118
0.00020702
0.000174163
0.000138525
0.000105493
7.97301e-05
6.38839e-05
5.95915e-05
6.88775e-05
9.40122e-05
0.000126183
0.000125019
3.94437e-05
8.57996e-06
9.11238e-06
5.49408e-05
0.000137691
0.000136573
0.000102013
6.73607e-05
5.24878e-05
5.28621e-05
5.94133e-05
6.20718e-05
5.81827e-05
5.29305e-05
4.89729e-05
4.22033e-05
3.31204e-05
3.46649e-05
5.51766e-05
0.000101983
0.000162842
0.000203304
0.000216038
0.000211911
0.000198416
0.000177749
0.000150952
0.000120966
9.30367e-05
7.26767e-05
6.39725e-05
7.02243e-05
9.48634e-05
0.000129307
0.00012738
3.94882e-05
8.63162e-06
9.21799e-06
5.80256e-05
0.00014343
0.000141927
0.000107005
7.08715e-05
5.32606e-05
5.18894e-05
6.06673e-05
6.99647e-05
7.16849e-05
6.76032e-05
6.33733e-05
5.89391e-05
4.79059e-05
3.38659e-05
3.2877e-05
5.2278e-05
9.87871e-05
0.000155811
0.000185564
0.000189253
0.000181071
0.000166898
0.0001474
0.00012357
9.90412e-05
7.93757e-05
7.02014e-05
7.66381e-05
0.000103129
0.00013803
0.000128571
3.85678e-05
8.49224e-06
9.08333e-06
5.81605e-05
0.000147267
0.000158004
0.000138026
9.84744e-05
6.57031e-05
5.35056e-05
5.68e-05
6.72679e-05
7.45822e-05
7.44337e-05
7.09175e-05
6.81256e-05
6.35974e-05
5.00943e-05
3.3023e-05
2.92176e-05
4.51011e-05
8.60627e-05
0.000136382
0.000159448
0.000159635
0.000150724
0.000136901
0.000118775
9.94965e-05
8.45792e-05
7.95675e-05
9.01194e-05
0.000119908
0.000151863
0.000131429
3.8112e-05
8.29355e-06
9.09986e-06
5.93883e-05
0.000154135
0.000165615
0.00014496
0.000110878
7.83346e-05
6.02031e-05
5.80978e-05
6.81102e-05
8.13547e-05
8.78564e-05
8.64477e-05
8.28389e-05
8.00966e-05
7.36617e-05
5.56251e-05
3.41737e-05
2.71826e-05
3.99682e-05
7.63107e-05
0.000119873
0.000135373
0.000131769
0.000123058
0.000112001
9.8907e-05
8.85325e-05
8.80254e-05
0.00010361
0.000135369
0.000160548
0.0001289
3.69033e-05
8.01481e-06
9.13052e-06
6.22197e-05
0.000161918
0.000171561
0.000151184
0.000122836
9.44143e-05
7.24655e-05
6.36071e-05
6.83803e-05
8.16833e-05
9.38314e-05
9.82745e-05
9.69024e-05
9.47804e-05
9.27565e-05
8.39978e-05
6.10744e-05
3.56934e-05
2.59604e-05
3.59298e-05
6.77279e-05
0.000103878
0.000112104
0.000105718
9.96045e-05
9.64601e-05
9.55798e-05
0.000100523
0.000117605
0.000145083
0.000161741
0.000125636
3.62398e-05
7.85701e-06
9.34021e-06
6.77909e-05
0.000170719
0.00016926
0.000139844
0.000115067
9.94023e-05
8.70349e-05
7.879e-05
8.01294e-05
9.12861e-05
0.000104946
0.000112796
0.000113432
0.000111245
0.000109898
0.000107282
9.43111e-05
6.55694e-05
3.68042e-05
2.52664e-05
3.35167e-05
6.31613e-05
9.62874e-05
0.000100551
9.14783e-05
8.66628e-05
9.10685e-05
0.000104935
0.000127647
0.000153484
0.000166074
0.00013153
3.83303e-05
8.0698e-06
9.61909e-06
7.72175e-05
0.000177144
0.000155906
0.000121839
0.000104867
9.98311e-05
9.74269e-05
9.51242e-05
9.73642e-05
0.000107296
0.000121081
0.000131144
0.000134029
0.000132459
0.000130946
0.000130489
0.000125369
0.000104769
6.83433e-05
3.6902e-05
2.47571e-05
3.19084e-05
5.90024e-05
8.98987e-05
9.49104e-05
8.71009e-05
8.59802e-05
9.87155e-05
0.000124891
0.000153569
0.00016668
0.000131571
3.86637e-05
8.14095e-06
9.94824e-06
9.13903e-05
0.000174156
0.000129441
0.000100415
9.68272e-05
0.000105386
0.000114973
0.000120676
0.00012482
0.000131477
0.000140361
0.00014725
0.000149161
0.00014718
0.000144795
0.00014426
0.000143681
0.000135359
0.000109748
7.06314e-05
3.88636e-05
2.5948e-05
3.01135e-05
4.92284e-05
7.44227e-05
8.85039e-05
9.12773e-05
9.69882e-05
0.000114405
0.000139749
0.000154661
0.000122512
3.60701e-05
7.88495e-06
1.00946e-05
0.00010697
0.000150406
9.69921e-05
8.29533e-05
9.43939e-05
0.000114817
0.000132613
0.000145165
0.000154181
0.000161195
0.000166495
0.000169163
0.000168341
0.00016474
0.000160655
0.000158274
0.000157875
0.000156393
0.00014664
0.000121177
8.30268e-05
4.99658e-05
3.44993e-05
3.40392e-05
4.23947e-05
5.60683e-05
7.19991e-05
8.84143e-05
0.000108014
0.000131492
0.000146874
0.000124418
3.8143e-05
8.16319e-06
9.81754e-06
0.000103961
0.000119064
7.49657e-05
7.38943e-05
9.83399e-05
0.00012996
0.000153792
0.000167762
0.000175569
0.000180474
0.000183669
0.000184933
0.000183983
0.000181397
0.000178796
0.000177991
0.000179645
0.000181877
0.000178837
0.000161663
0.000125304
7.92775e-05
4.65047e-05
3.63756e-05
3.75072e-05
4.26447e-05
5.43635e-05
7.48597e-05
0.000102246
0.000130334
0.000150267
0.000140444
4.46529e-05
8.86639e-06
9.27527e-06
7.68981e-05
0.000102912
6.49472e-05
6.2355e-05
7.91883e-05
0.000103939
0.000130525
0.000155115
0.000174647
0.000187952
0.000195551
0.000198768
0.000199091
0.000198012
0.000197262
0.000198656
0.000203272
0.000209776
0.00021131
0.000193624
0.000145329
8.12451e-05
3.81623e-05
2.81552e-05
4.1056e-05
5.53946e-05
5.89302e-05
6.86263e-05
9.25027e-05
0.00012582
0.00015056
0.000129785
3.87189e-05
8.52912e-06
8.57546e-06
4.62458e-05
9.57462e-05
6.56772e-05
4.80559e-05
4.66384e-05
5.60805e-05
7.69815e-05
0.000107712
0.000139335
0.000163895
0.000179349
0.000187403
0.000191269
0.000194024
0.000197699
0.000203496
0.000212034
0.000221928
0.000227103
0.000215703
0.000175215
0.000108734
5.01628e-05
2.56809e-05
2.94521e-05
5.26742e-05
6.77514e-05
7.24658e-05
8.80835e-05
0.000116612
0.000136884
0.000106577
3.26329e-05
7.95814e-06
8.18417e-06
3.44258e-05
8.3749e-05
7.97543e-05
5.15077e-05
3.15257e-05
2.44446e-05
2.97473e-05
5.07724e-05
8.75887e-05
0.000128767
0.000158938
0.000173484
0.000179146
0.000184891
0.00019476
0.000207607
0.000219832
0.000228237
0.000230174
0.00022173
0.00019795
0.000154651
9.70358e-05
5.05571e-05
3.31981e-05
4.12708e-05
6.7612e-05
8.96563e-05
0.000105337
0.000126782
0.000143757
0.00012045
3.75491e-05
8.39303e-06
8.10895e-06
3.50014e-05
9.23646e-05
0.000111095
9.38018e-05
5.15384e-05
2.1005e-05
1.29949e-05
2.18177e-05
4.84342e-05
9.11167e-05
0.000129809
0.000146603
0.000149359
0.000155236
0.000172068
0.000199622
0.000233271
0.000264793
0.000284475
0.000284746
0.000262555
0.00021909
0.000159884
9.91726e-05
5.74323e-05
4.26533e-05
5.39057e-05
8.7312e-05
0.000120502
0.000146293
0.000166293
0.000148987
4.37434e-05
8.66597e-06
8.50681e-06
4.30854e-05
0.0001213
0.000154418
0.000146824
9.96533e-05
3.20875e-05
9.93493e-06
1.25598e-05
3.44402e-05
7.60984e-05
0.000111095
0.000117754
0.000117241
0.000132812
0.000172685
0.000235148
0.000305566
0.000361177
0.000385415
0.000375778
0.000338378
0.000280461
0.000209426
0.000136669
7.80314e-05
4.41438e-05
3.53174e-05
5.28595e-05
9.63643e-05
0.000138577
0.000158323
0.000123847
3.62319e-05
7.98459e-06
8.88585e-06