/*--------------------------------*- C++ -*----------------------------------*\
| =========                 |                                                 |
| \\      /  F ield         | OpenFOAM: The Open Source CFD Toolbox           |
|  \\    /   O peration     | Version:  v2006                                 |
|   \\  /    A nd           | Website:  www.openfoam.com                      |
|    \\/     M anipulation  |                                                 |
\*---------------------------------------------------------------------------*/
FoamFile
{
    version     2.0;
    format      ascii;
    class       surfaceScalarField;
    location    "18";
    object      phi;
}
// * * * * * * * * * * * * * * * * * * * * * * * * * * * * * * * * * * * * * //

dimensions      [1 0 -1 0 0 0 0];
oriented        oriented;


internalField   nonuniform List<scalar> 
228225
(
0.000424315
1.89161e-05
9.8212e-06
0.000427962
-1.32325e-05
5.01081e-06
0.00044012
-1.93827e-05
2.83337e-06
0.00045967
-2.57957e-05
2.69895e-06
0.000483879
-3.07901e-05
3.34151e-06
0.000506879
-2.97619e-05
4.29583e-06
0.000520774
-2.19874e-05
5.80426e-06
0.000525752
-1.42274e-05
7.4065e-06
0.000534171
-1.95092e-05
9.21574e-06
0.000540292
-1.85261e-05
1.08403e-05
0.000539979
-1.35939e-05
1.25942e-05
0.000533464
-8.3401e-06
1.39749e-05
0.000521668
-3.67524e-06
1.5171e-05
0.000505901
9.89715e-08
1.65749e-05
0.000490708
1.1138e-06
1.66328e-05
0.000478748
-5.48887e-07
1.6813e-05
0.000470437
-8.89726e-07
1.60314e-05
0.000465253
3.27175e-07
1.55617e-05
0.000464008
2.62573e-06
1.46441e-05
0.000466394
4.33536e-06
1.42416e-05
0.000471337
5.88448e-06
1.38777e-05
0.000480209
7.31362e-06
1.42752e-05
0.000501602
9.05858e-06
1.46999e-05
0.000549944
1.07732e-05
1.61173e-05
0.000639976
1.25801e-05
1.80757e-05
0.000776129
1.37026e-05
2.12469e-05
0.000928059
1.50007e-05
2.45108e-05
0.00103171
1.67101e-05
2.61332e-05
0.00102091
2.27048e-05
2.58457e-05
0.000893496
3.20014e-05
2.15374e-05
0.000688802
4.7261e-05
1.80162e-05
0.000459798
6.08097e-05
1.1673e-05
0.000254236
7.38897e-05
1.16219e-05
9.89871e-05
7.93786e-05
1.21727e-05
7.17501e-05
1.01266e-05
-3.02624e-05
4.68164e-05
-3.39269e-07
-5.72704e-05
1.78475e-05
-6.40626e-06
-6.74881e-05
-3.72233e-06
-7.35475e-06
-6.06774e-05
-2.67896e-05
-7.34855e-06
-4.22421e-05
-4.27037e-05
-7.03807e-06
-2.07839e-05
-4.40442e-05
-6.27905e-06
-3.62738e-06
-3.29963e-05
-6.24099e-06
1.23754e-05
-2.39216e-05
-5.96847e-06
2.8178e-05
-3.12293e-05
-5.16666e-06
3.98252e-05
-2.64282e-05
-4.53128e-06
4.77569e-05
-1.78307e-05
-3.8263e-06
5.31443e-05
-1.03287e-05
-3.11359e-06
5.66531e-05
-4.20848e-06
-2.59428e-06
6.07081e-05
-1.21084e-06
-2.24842e-06
6.82004e-05
-4.06998e-06
-1.94025e-06
7.82918e-05
-9.28838e-06
-1.11849e-06
8.74176e-05
-8.60144e-06
-8.23089e-07
9.20237e-05
-1.24011e-06
-1.70907e-06
9.59456e-05
4.49547e-06
-3.61367e-06
9.9951e-05
8.60303e-06
-5.53921e-06
0.000104597
1.14901e-05
-7.25907e-06
0.000109559
1.39086e-05
-8.49995e-06
0.000114719
1.62746e-05
-9.34426e-06
0.000119189
1.89136e-05
-9.864e-06
0.000121972
2.20945e-05
-1.01736e-05
0.000121109
2.6109e-05
-1.03541e-05
0.000115138
3.12361e-05
-1.04361e-05
0.000101884
3.7659e-05
-1.04091e-05
8.21725e-05
4.52178e-05
-1.02385e-05
5.71836e-05
5.33811e-05
-9.9088e-06
3.30403e-05
6.12345e-05
-9.23628e-06
1.24057e-05
6.7798e-05
-8.29419e-06
7.79646e-07
7.21504e-05
-6.08547e-06
-1.86365e-06
7.4848e-05
-4.10763e-06
6.77901e-05
-1.2887e-06
-2.23193e-05
6.36231e-05
1.75505e-06
-5.02299e-05
4.33321e-05
-1.7446e-06
-6.47441e-05
8.67599e-06
-1.22848e-06
-7.88579e-05
-1.47696e-05
1.56933e-06
-9.40876e-05
-2.46598e-05
1.05931e-06
-9.97789e-05
-3.71301e-05
5.90972e-07
-9.82106e-05
-3.56802e-05
-4.70905e-07
-8.42512e-05
-3.71547e-05
-2.32824e-06
-7.29173e-05
-4.1373e-05
-1.50184e-06
-5.93802e-05
-3.89837e-05
-1.23233e-06
-4.45981e-05
-3.20697e-05
-8.87166e-07
-2.84248e-05
-2.63218e-05
-4.43213e-07
-1.40362e-05
-1.90335e-05
2.80885e-07
-7.832e-07
-1.63209e-05
1.66541e-06
6.63188e-06
-1.65738e-05
4.85737e-06
5.24196e-06
-1.79332e-05
9.93253e-06
-7.77815e-07
-1.5994e-05
1.34713e-05
-4.36079e-06
-1.03381e-05
1.27551e-05
-4.97358e-06
-4.65927e-06
9.76912e-06
-2.53968e-06
-3.86347e-07
6.44764e-06
1.09457e-06
4.09439e-06
3.49487e-06
5.58317e-06
8.05456e-06
8.88772e-07
1.0301e-05
1.193e-05
-1.12215e-06
1.4853e-05
1.59304e-05
-2.67871e-06
1.90633e-05
2.02124e-05
-3.92372e-06
2.28494e-05
2.49169e-05
-4.83879e-06
2.61076e-05
3.02084e-05
-5.35838e-06
2.86981e-05
3.62184e-05
-5.44787e-06
3.04381e-05
4.30609e-05
-5.32218e-06
3.11279e-05
5.06414e-05
-5.12031e-06
3.0219e-05
5.88044e-05
-4.93633e-06
2.69256e-05
6.73591e-05
-4.69607e-06
2.03951e-05
7.61189e-05
-4.78393e-06
1.17991e-05
8.63842e-05
-5.18069e-06
7.82885e-05
1.09104e-06
2.45109e-07
5.89539e-05
2.73709e-06
-3.31875e-06
4.58481e-05
6.10747e-07
-1.76569e-05
2.20332e-05
1.12774e-06
-5.32096e-05
1.49982e-05
4.6639e-06
-9.18476e-05
1.29463e-05
-1.4635e-06
-0.000127333
-1.09585e-06
-1.7751e-06
-0.000157012
-6.56334e-06
7.70196e-07
-0.000178257
-1.70039e-05
4.30016e-07
-0.000183794
-3.83954e-05
1.51834e-06
-0.000166712
-5.95062e-05
2.17391e-06
-0.000137246
-6.60354e-05
3.08183e-06
-0.000107305
-6.05368e-05
3.41009e-06
-8.34897e-05
-4.65113e-05
3.23907e-06
-6.7518e-05
-3.51572e-05
2.54438e-06
-5.95562e-05
-2.6614e-05
1.8185e-06
-5.83063e-05
-2.08615e-05
1.45995e-06
-5.98371e-05
-1.65824e-05
1.99059e-06
-6.08189e-05
-1.22195e-05
2.80233e-06
-6.10358e-05
-7.56273e-06
3.04231e-06
-6.11206e-05
-3.27823e-06
2.84551e-06
-6.02157e-05
5.31651e-07
2.44812e-06
-5.75882e-05
3.07754e-06
2.04655e-06
-5.37636e-05
5.87074e-06
1.80386e-06
-4.91496e-05
8.94985e-06
1.76395e-06
-4.4201e-05
1.25297e-05
1.89931e-06
-3.94299e-05
1.68885e-05
2.10794e-06
-3.51793e-05
2.21673e-05
2.22609e-06
-3.15427e-05
2.83612e-05
2.14476e-06
-2.8388e-05
3.54521e-05
1.81458e-06
-2.55846e-05
4.34543e-05
1.26404e-06
-2.31596e-05
5.24647e-05
5.53848e-07
-2.11018e-05
6.21571e-05
-4.79811e-08
-1.84101e-05
7.10305e-05
-2.82117e-07
-1.08298e-05
7.57486e-05
1.42511e-06
5.95632e-05
5.74125e-06
3.6809e-05
2.18414e-05
1.18242e-06
6.66873e-05
1.80401e-05
-2.07256e-07
8.04392e-05
1.17198e-05
-1.69904e-06
9.14006e-05
7.51702e-06
-2.23666e-06
0.000103548
4.30326e-06
-2.67083e-06
0.000104802
1.63292e-06
-3.1529e-06
0.000104427
-5.47044e-07
-3.67218e-06
0.000108669
-1.23214e-05
-3.73411e-06
0.000109708
-3.34264e-05
-2.7804e-06
0.000101164
-5.09942e-05
-6.37773e-07
8.53016e-05
-5.52716e-05
2.14483e-06
6.30574e-05
-4.66141e-05
5.21604e-06
4.28799e-05
-3.54911e-05
7.40138e-06
2.78061e-05
-2.9006e-05
8.1437e-06
1.92783e-05
-2.63294e-05
7.73269e-06
1.49376e-05
-2.40601e-05
7.10084e-06
1.1883e-05
-2.10362e-05
7.16185e-06
8.90568e-06
-1.7533e-05
8.08819e-06
6.33039e-06
-1.42255e-05
9.17781e-06
4.88062e-06
-1.15604e-05
9.76535e-06
5.2331e-06
-9.52868e-06
9.79186e-06
6.71831e-06
-7.5144e-06
9.22714e-06
8.747e-06
-4.23303e-06
8.16861e-06
9.93316e-06
7.29142e-07
7.00222e-06
8.9085e-06
7.20036e-06
6.14131e-06
6.52337e-06
1.31701e-05
5.75046e-06
3.52423e-06
1.89282e-05
5.75335e-06
3.2426e-07
2.49233e-05
5.98474e-06
-2.86877e-06
3.15028e-05
6.25551e-06
-5.84598e-06
3.88289e-05
6.41069e-06
-8.28598e-06
4.70122e-05
6.35534e-06
-9.63721e-06
5.54831e-05
6.23616e-06
-8.75089e-06
6.18876e-05
6.41037e-06
-4.5107e-06
6.21505e-05
7.46397e-06
4.62324e-05
6.78491e-06
2.42459e-05
-9.31064e-07
-8.06631e-07
5.36404e-05
-8.45786e-06
-2.19445e-06
8.40258e-05
-1.50625e-05
-3.14608e-06
0.000116112
-2.07221e-05
-3.55674e-06
0.000149867
-2.58599e-05
-3.43666e-06
0.000185162
-3.06292e-05
-2.93289e-06
0.000222308
-3.50077e-05
-2.31852e-06
0.000252002
-4.02294e-05
-1.4639e-06
0.000261966
-4.30332e-05
-3.35128e-07
0.000252095
-4.19666e-05
7.1473e-07
0.000232532
-3.49659e-05
6.95867e-07
0.000214051
-2.53203e-05
6.79693e-07
0.000200227
-2.00078e-05
1.63252e-06
0.000189941
-1.94052e-05
2.00478e-06
0.000182033
-1.95437e-05
6.12293e-07
0.000175161
-1.79517e-05
-4.74467e-07
0.000167631
-1.52781e-05
3.22562e-07
0.00015914
-1.24281e-05
1.87607e-06
0.000150001
-9.56447e-06
3.08193e-06
0.000139919
-6.50753e-06
3.8297e-06
0.000127989
-2.99812e-06
4.23336e-06
0.000113163
1.31998e-06
4.72795e-06
9.56296e-05
6.92597e-06
5.60951e-06
7.6796e-05
1.32765e-05
6.48248e-06
5.8773e-05
1.90796e-05
6.85461e-06
4.21646e-05
2.36038e-05
6.78294e-06
2.76095e-05
2.71194e-05
6.64572e-06
1.54474e-05
3.03551e-05
6.71834e-06
5.67436e-06
3.39661e-05
7.05725e-06
-1.70429e-06
3.81707e-05
7.56776e-06
-6.02756e-06
4.25807e-05
8.09624e-06
-6.49653e-06
4.67055e-05
8.5487e-06
-3.71368e-06
4.98198e-05
8.88881e-06
-3.49799e-07
4.97064e-05
8.91386e-06
3.92896e-05
6.23864e-06
1.15834e-05
-1.63149e-05
3.82154e-06
2.97774e-05
-3.04898e-05
3.83334e-06
4.78638e-05
-3.70606e-05
3.8773e-06
6.33112e-05
-4.03703e-05
4.12638e-06
7.49153e-05
-4.20613e-05
4.46145e-06
8.20711e-05
-4.30803e-05
5.05067e-06
8.44353e-05
-4.36125e-05
5.97813e-06
8.07179e-05
-4.32952e-05
6.77767e-06
7.32529e-05
-4.23095e-05
7.09066e-06
6.56213e-05
-4.07344e-05
6.83386e-06
6.29632e-05
-3.82604e-05
6.11281e-06
6.70839e-05
-3.47808e-05
5.23601e-06
7.3675e-05
-3.12665e-05
4.41858e-06
7.85361e-05
-2.79599e-05
3.68931e-06
8.06754e-05
-2.40347e-05
3.04524e-06
8.08914e-05
-1.95025e-05
2.50361e-06
7.95216e-05
-1.50866e-05
2.32986e-06
7.67013e-05
-1.1108e-05
2.3981e-06
7.26828e-05
-7.46554e-06
2.54683e-06
6.75841e-05
-3.83314e-06
2.84074e-06
6.13377e-05
1.41301e-07
3.3814e-06
5.31215e-05
5.63776e-06
4.10067e-06
4.40895e-05
1.15172e-05
4.6503e-06
3.58257e-05
1.70101e-05
4.79143e-06
2.89558e-05
2.1595e-05
4.60717e-06
2.32357e-05
2.51496e-05
4.33625e-06
1.83159e-05
2.79154e-05
4.17209e-06
1.40793e-05
3.03409e-05
4.18576e-06
1.05658e-05
3.28849e-05
4.38814e-06
7.77494e-06
3.57857e-05
4.76459e-06
5.75137e-06
3.87521e-05
5.21145e-06
4.67719e-06
4.14908e-05
5.66704e-06
4.17307e-06
4.42747e-05
6.21532e-06
2.74809e-06
4.51935e-05
6.45272e-06
3.75126e-05
4.35646e-06
1.82085e-05
-3.48088e-05
4.53535e-07
3.41065e-05
-4.66038e-05
3.68882e-07
4.56351e-05
-4.8534e-05
1.16012e-08
5.37291e-05
-4.8074e-05
-4.09917e-07
5.90758e-05
-4.65781e-05
-9.28663e-07
6.17394e-05
-4.44351e-05
-1.48656e-06
6.19357e-05
-4.21286e-05
-1.97446e-06
6.05174e-05
-4.00918e-05
-2.23096e-06
5.82343e-05
-3.83893e-05
-2.17498e-06
5.55489e-05
-3.67211e-05
-1.81352e-06
5.2806e-05
-3.45885e-05
-1.26115e-06
5.01944e-05
-3.1646e-05
-7.44089e-07
4.70747e-05
-2.79678e-05
-3.94588e-07
4.31199e-05
-2.41054e-05
-1.72794e-07
3.9236e-05
-2.04533e-05
-1.02893e-09
3.63713e-05
-1.70685e-05
1.70881e-07
3.47611e-05
-1.3957e-05
3.02748e-07
3.42586e-05
-1.10953e-05
3.93528e-07
3.46362e-05
-8.34154e-06
4.62385e-07
3.56408e-05
-5.38029e-06
5.46074e-07
3.67726e-05
-1.69095e-06
7.26718e-07
3.83951e-05
2.85666e-06
1.19623e-06
3.95951e-05
8.37826e-06
2.00141e-06
3.96948e-05
1.41248e-05
2.89876e-06
3.84628e-05
1.93939e-05
3.59157e-06
3.61406e-05
2.37092e-05
3.92675e-06
3.32277e-05
2.70145e-05
3.94775e-06
3.02592e-05
2.95886e-05
3.80724e-06
2.76865e-05
3.18177e-05
3.66467e-06
2.56512e-05
3.41351e-05
3.61611e-06
2.34075e-05
3.7077e-05
3.68407e-06
1.93004e-05
4.12855e-05
3.84754e-06
1.27723e-05
4.605e-05
4.17683e-06
5.86176e-06
4.7267e-05
4.24244e-06
3.98504e-05
2.90042e-06
3.14777e-07
-3.63189e-05
1.22954e-06
-2.80202e-07
-4.74387e-05
1.4778e-06
-6.37987e-07
-4.93716e-05
1.2654e-06
-2.22938e-07
-4.95495e-05
1.16592e-06
1.15237e-06
-4.89956e-05
1.18724e-06
3.48646e-06
-4.78459e-05
1.25303e-06
6.31856e-06
-4.60914e-05
1.31895e-06
8.84199e-06
-4.37956e-05
1.34742e-06
1.0396e-05
-4.11547e-05
1.31289e-06
1.08782e-05
-3.84124e-05
1.207e-06
1.09262e-05
-3.57783e-05
1.03722e-06
1.15696e-05
-3.32624e-05
8.28097e-07
1.34519e-05
-3.05664e-05
6.17725e-07
1.64367e-05
-2.75588e-05
4.41873e-07
2.00416e-05
-2.43317e-05
2.93736e-07
2.37952e-05
-2.0939e-05
1.60814e-07
2.71545e-05
-1.73108e-05
4.56134e-08
2.96095e-05
-1.34832e-05
-1.8831e-08
3.07106e-05
-9.36158e-06
-3.74231e-08
2.98576e-05
-4.49029e-06
4.09014e-09
2.65824e-05
1.34958e-06
2.79254e-07
2.13121e-05
7.39847e-06
7.94469e-07
1.55708e-05
1.28183e-05
1.4062e-06
1.07852e-05
1.71419e-05
1.90579e-06
7.63978e-06
2.04824e-05
2.19963e-06
6.07161e-06
2.30987e-05
2.30046e-06
5.68379e-06
2.5222e-05
2.26601e-06
6.08894e-06
2.70486e-05
2.17999e-06
7.01947e-06
2.87686e-05
2.1286e-06
8.28371e-06
3.06996e-05
2.16711e-06
9.35543e-06
3.36867e-05
2.36015e-06
8.575e-06
3.9332e-05
2.82332e-06
5.1657e-06
4.58607e-05
3.37084e-06
1.87649e-06
4.68047e-05
3.31211e-06
3.91791e-05
2.17412e-06
-1.18702e-06
-3.55985e-05
1.51889e-07
-1.5733e-06
-4.73438e-05
-9.26327e-08
-1.64641e-06
-4.94086e-05
-2.42665e-07
-1.36025e-06
-4.97062e-05
-4.56654e-07
-6.60359e-07
-4.9325e-05
-6.69676e-07
5.04851e-07
-4.844e-05
-8.29696e-07
2.2071e-06
-4.71006e-05
-8.96416e-07
4.41653e-06
-4.52976e-05
-8.42071e-07
6.88548e-06
-4.30137e-05
-6.73087e-07
9.15983e-06
-4.02669e-05
-4.2661e-07
1.07089e-05
-3.71493e-05
-1.53937e-07
1.12337e-05
-3.38703e-05
1.11957e-07
1.10083e-05
-3.06504e-05
3.2852e-07
1.0552e-05
-2.75707e-05
4.76718e-07
1.02579e-05
-2.46024e-05
5.63137e-07
1.02944e-05
-2.1557e-05
5.7493e-07
1.04937e-05
-1.80118e-05
5.06913e-07
1.03213e-05
-1.3719e-05
4.24248e-07
9.35438e-06
-8.77963e-06
4.05926e-07
7.80327e-06
-3.4179e-06
5.06099e-07
6.30747e-06
2.15228e-06
7.3308e-07
5.25943e-06
7.46608e-06
1.04023e-06
4.96221e-06
1.18699e-05
1.3256e-06
5.49052e-06
1.51946e-05
1.50923e-06
6.77847e-06
1.77015e-05
1.58165e-06
8.63757e-06
1.97506e-05
1.56662e-06
1.07809e-05
2.16461e-05
1.48857e-06
1.28728e-05
2.35968e-05
1.37572e-06
1.45277e-05
2.57901e-05
1.26414e-06
1.51555e-05
2.86751e-05
1.19496e-06
1.36926e-05
3.34091e-05
1.27127e-06
9.38951e-06
4.10381e-05
1.71922e-06
4.66726e-06
4.72334e-05
2.26222e-06
1.027e-06
4.72158e-05
2.13545e-06
3.79536e-05
1.28561e-06
3.60474e-07
-3.61242e-05
7.24433e-08
2.03619e-06
-4.8847e-05
-1.53856e-07
3.58233e-06
-5.08897e-05
-2.12041e-08
4.79764e-06
-5.10021e-05
1.08768e-07
5.64803e-06
-5.03309e-05
1.48655e-07
6.10115e-06
-4.90636e-05
1.19746e-07
6.16805e-06
-4.73051e-05
4.19974e-08
5.97189e-06
-4.51992e-05
-3.76433e-08
5.7922e-06
-4.29254e-05
-7.54997e-08
5.97591e-06
-4.05853e-05
-5.03934e-08
6.67365e-06
-3.81072e-05
8.34663e-08
7.69001e-06
-3.53266e-05
3.06498e-07
8.56206e-06
-3.21555e-05
5.60932e-07
8.77655e-06
-2.85866e-05
7.90134e-07
7.95191e-06
-2.46877e-05
9.4734e-07
6.00486e-06
-2.05597e-05
1.01293e-06
3.19966e-06
-1.61288e-05
9.84231e-07
-2.43295e-07
-1.11195e-05
8.8511e-07
-4.18029e-06
-5.62276e-06
7.98409e-07
-8.12979e-06
-2.60956e-07
8.00661e-07
-1.07257e-05
3.87857e-06
8.82352e-07
-1.14951e-05
7.27538e-06
9.83263e-07
-1.06834e-05
1.00312e-05
1.05846e-06
-8.83409e-06
1.22976e-05
1.08413e-06
-6.42605e-06
1.42773e-05
1.05552e-06
-3.81319e-06
1.62075e-05
9.7438e-07
-1.28038e-06
1.83202e-05
8.48283e-07
9.58787e-07
2.07249e-05
7.08784e-07
2.86412e-06
2.3368e-05
6.14935e-07
4.36966e-06
2.66157e-05
6.41848e-07
4.95266e-06
3.18464e-05
9.23943e-07
3.68907e-06
4.02857e-05
1.52177e-06
1.63635e-06
4.65239e-05
1.90571e-06
3.86271e-08
4.62289e-05
1.68566e-06
3.64041e-05
9.0628e-07
2.13342e-06
-3.74988e-05
-5.95146e-07
4.95717e-06
-5.02376e-05
-1.17459e-06
7.64487e-06
-5.22154e-05
-1.05928e-06
1.00562e-05
-5.2154e-05
-9.2816e-07
1.21431e-05
-5.12078e-05
-8.55444e-07
1.38028e-05
-4.95196e-05
-8.30982e-07
1.48675e-05
-4.7155e-05
-8.34869e-07
1.51389e-05
-4.42599e-05
-8.43064e-07
1.44483e-05
-4.1076e-05
-8.27483e-07
1.27678e-05
-3.78738e-05
-7.59322e-07
1.03259e-05
-3.48584e-05
-6.12691e-07
7.5673e-06
-3.20916e-05
-3.67243e-07
4.92644e-06
-2.94561e-05
-2.45081e-08
2.58256e-06
-2.67071e-05
4.54304e-07
5.68576e-07
-2.36259e-05
9.39938e-07
-1.18646e-06
-2.01489e-05
1.36149e-06
-2.60977e-06
-1.63035e-05
1.65098e-06
-3.38787e-06
-1.20428e-05
1.77259e-06
-3.37025e-06
-7.31413e-06
1.73617e-06
-2.75316e-06
-2.45588e-06
1.61961e-06
-2.26692e-06
1.90898e-06
1.51172e-06
-1.75503e-06
5.35447e-06
1.43353e-06
-9.20139e-07
7.85223e-06
1.36855e-06
3.14947e-07
9.79088e-06
1.29577e-06
1.88423e-06
1.15301e-05
1.20043e-06
3.64109e-06
1.33992e-05
1.06994e-06
5.31796e-06
1.57608e-05
8.94872e-07
6.48135e-06
1.88788e-05
6.90762e-07
6.84615e-06
2.24996e-05
5.22649e-07
6.74904e-06
2.63077e-05
4.61885e-07
6.61536e-06
3.14924e-05
6.08857e-07
5.91297e-06
3.99257e-05
1.14757e-06
3.87583e-06
4.66291e-05
1.69087e-06
1.64269e-06
4.64112e-05
1.67105e-06
3.67805e-05
9.46854e-07
2.25259e-06
-3.87131e-05
-9.78619e-07
4.56065e-06
-5.08239e-05
-1.70614e-06
6.40603e-06
-5.25527e-05
-1.51817e-06
7.81707e-06
-5.2322e-05
-1.26028e-06
8.8211e-06
-5.11465e-05
-1.07476e-06
9.39061e-06
-4.91091e-05
-9.67369e-07
9.57222e-06
-4.63658e-05
-9.26195e-07
9.53168e-06
-4.32086e-05
-9.31688e-07
9.41013e-06
-3.98846e-05
-9.58848e-07
9.19129e-06
-3.65403e-05
-9.7896e-07
8.73301e-06
-3.32917e-05
-9.61383e-07
7.91275e-06
-3.02524e-05
-8.78351e-07
6.75656e-06
-2.74765e-05
-7.07163e-07
5.45775e-06
-2.49016e-05
-4.28696e-07
4.27019e-06
-2.23577e-05
-4.34636e-08
3.31079e-06
-1.96448e-05
4.68613e-07
2.66784e-06
-1.66334e-05
9.90402e-07
2.4912e-06
-1.32833e-05
1.46104e-06
2.97746e-06
-9.54785e-06
1.82212e-06
3.97788e-06
-5.39333e-06
2.02255e-06
4.96694e-06
-1.06665e-06
2.05506e-06
5.58766e-06
2.79839e-06
1.97989e-06
5.80037e-06
5.80063e-06
1.86866e-06
5.95619e-06
7.90629e-06
1.75259e-06
6.41958e-06
9.46247e-06
1.62505e-06
7.40964e-06
1.09634e-05
1.46144e-06
8.94299e-06
1.30022e-05
1.22664e-06
1.05512e-05
1.63461e-05
8.92341e-07
1.10866e-05
2.13724e-05
5.0498e-07
9.82044e-06
2.71896e-05
2.2808e-07
7.30531e-06
3.3479e-05
2.42077e-07
4.53175e-06
4.15648e-05
6.67369e-07
2.28623e-06
4.72594e-05
1.08368e-06
3.98973e-07
4.67008e-05
1.08295e-06
3.61926e-05
5.48875e-07
4.24412e-06
-4.12853e-05
-1.402e-06
8.78325e-06
-5.28282e-05
-2.25853e-06
1.2884e-05
-5.41959e-05
-2.22351e-06
1.63168e-05
-5.35306e-05
-2.01741e-06
1.87687e-05
-5.15592e-05
-1.847e-06
1.98709e-05
-4.828e-05
-1.74823e-06
1.96462e-05
-4.42815e-05
-1.69267e-06
1.85025e-05
-4.02917e-05
-1.63199e-06
1.69378e-05
-3.66619e-05
-1.54349e-06
1.53515e-05
-3.3428e-05
-1.43093e-06
1.39562e-05
-3.05064e-05
-1.3045e-06
1.27824e-05
-2.78275e-05
-1.16777e-06
1.1779e-05
-2.53757e-05
-1.01501e-06
1.09321e-05
-2.31455e-05
-8.31856e-07
1.0301e-05
-2.10684e-05
-5.93756e-07
9.95013e-06
-1.89819e-05
-2.68803e-07
9.84049e-06
-1.6673e-05
1.71621e-07
9.84722e-06
-1.3974e-05
7.00081e-07
9.92796e-06
-1.0838e-05
1.2396e-06
1.02056e-05
-7.33896e-06
1.72566e-06
1.06946e-05
-3.57777e-06
2.10396e-06
1.1e-05
2.48845e-07
2.328e-06
1.04285e-05
4.04387e-06
2.39184e-06
9.0064e-06
7.0189e-06
2.34998e-06
7.17516e-06
9.05374e-06
2.26717e-06
5.51591e-06
1.04836e-05
2.16063e-06
4.59661e-06
1.19386e-05
2.00133e-06
4.88325e-06
1.43482e-05
1.71989e-06
5.96506e-06
1.90188e-05
1.24791e-06
6.11392e-06
2.63212e-05
6.81985e-07
5.15121e-06
3.41403e-05
3.6857e-07
3.98278e-06
4.23438e-05
5.34109e-07
2.75764e-06
4.7726e-05
8.19771e-07
1.36957e-06
4.72941e-05
7.94156e-07
3.7112e-05
3.95614e-07
4.97362e-06
-4.46658e-05
-1.25103e-06
9.28813e-06
-5.5081e-05
-1.7931e-06
1.32672e-05
-5.59521e-05
-2.01405e-06
1.67712e-05
-5.47248e-05
-2.1264e-06
1.91462e-05
-5.14994e-05
-2.24978e-06
1.97733e-05
-4.62941e-05
-2.4206e-06
1.91226e-05
-4.09017e-05
-2.55431e-06
1.79771e-05
-3.6433e-05
-2.57442e-06
1.68028e-05
-3.29e-05
-2.48606e-06
1.57738e-05
-2.99996e-05
-2.32737e-06
1.49212e-05
-2.7469e-05
-2.13182e-06
1.42069e-05
-2.51491e-05
-1.92006e-06
1.35496e-05
-2.29733e-05
-1.70281e-06
1.28734e-05
-2.0941e-05
-1.48425e-06
1.21839e-05
-1.90712e-05
-1.26193e-06
1.16117e-05
-1.73427e-05
-1.02231e-06
1.13516e-05
-1.564e-05
-7.34255e-07
1.14888e-05
-1.37335e-05
-3.5112e-07
1.18681e-05
-1.13538e-05
1.52584e-07
1.22154e-05
-8.39222e-06
7.24149e-07
1.2427e-05
-5.03172e-06
1.27684e-06
1.25499e-05
-1.57327e-06
1.75498e-06
1.26455e-05
1.89798e-06
2.12033e-06
1.22472e-05
5.15293e-06
2.33037e-06
1.12092e-05
7.74768e-06
2.3939e-06
9.82641e-06
9.52775e-06
2.37445e-06
8.69383e-06
1.07847e-05
2.31365e-06
8.59927e-06
1.22605e-05
2.19923e-06
9.87022e-06
1.57673e-05
1.94914e-06
1.04598e-05
2.41033e-05
1.43951e-06
8.3387e-06
3.51249e-05
8.65658e-07
5.8897e-06
4.40435e-05
6.58495e-07
3.58827e-06
4.93268e-05
6.86682e-07
1.45981e-06
4.87369e-05
5.89641e-07
3.81124e-05
2.15732e-07
3.08316e-06
-4.6894e-05
-6.32289e-07
5.97643e-06
-5.74311e-05
-3.54103e-07
8.98146e-06
-5.80896e-05
-7.27049e-07
1.19529e-05
-5.62886e-05
-1.29136e-06
1.38205e-05
-5.12741e-05
-1.96936e-06
1.36448e-05
-4.32678e-05
-2.71297e-06
1.23135e-05
-3.62278e-05
-3.22598e-06
1.08001e-05
-3.14371e-05
-3.39984e-06
9.47872e-06
-2.81923e-05
-3.33154e-06
8.44859e-06
-2.5801e-05
-3.13306e-06
7.73802e-06
-2.3862e-05
-2.87428e-06
7.34957e-06
-2.21552e-05
-2.59189e-06
7.24304e-06
-2.05542e-05
-2.30359e-06
7.32208e-06
-1.89941e-05
-2.01746e-06
7.46197e-06
-1.74623e-05
-1.73766e-06
7.57113e-06
-1.59722e-05
-1.46465e-06
7.65202e-06
-1.45124e-05
-1.18975e-06
7.82488e-06
-1.29979e-05
-8.87468e-07
8.23869e-06
-1.12355e-05
-5.11277e-07
8.84215e-06
-8.95864e-06
-1.81968e-08
9.34121e-06
-6.06821e-06
5.585e-07
9.52101e-06
-2.84635e-06
1.12288e-06
9.52825e-06
3.15933e-07
1.61525e-06
9.58968e-06
3.12456e-06
2.01629e-06
9.46582e-06
5.6234e-06
2.30045e-06
9.02567e-06
7.56746e-06
2.44651e-06
8.46706e-06
8.89611e-06
2.48076e-06
8.23339e-06
1.00782e-05
2.42835e-06
8.74373e-06
1.29668e-05
2.23992e-06
9.15342e-06
2.16693e-05
1.74044e-06
6.09805e-06
3.64692e-05
9.15559e-07
1.69845e-06
4.70877e-05
4.32341e-07
-4.12236e-07
5.05377e-05
2.48151e-07
-1.18932e-06
4.89857e-05
3.82675e-08
3.6562e-05
-1.79355e-07
-3.23407e-07
-4.73587e-05
6.08935e-07
5.25705e-07
-6.03762e-05
1.94136e-06
2.05762e-06
-6.15187e-05
1.7429e-06
4.28242e-06
-5.9626e-05
9.49547e-07
6.60427e-06
-5.35377e-05
-2.0713e-07
7.48535e-06
-4.26077e-05
-1.6145e-06
7.16308e-06
-3.3228e-05
-2.70945e-06
6.72745e-06
-2.77569e-05
-3.26993e-06
6.46548e-06
-2.45061e-05
-3.45e-06
6.31153e-06
-2.22613e-05
-3.41054e-06
6.1722e-06
-2.04959e-05
-3.24889e-06
6.00767e-06
-1.89886e-05
-3.02105e-06
5.82846e-06
-1.76309e-05
-2.75978e-06
5.6633e-06
-1.63578e-05
-2.48359e-06
5.5209e-06
-1.51274e-05
-2.2018e-06
5.3735e-06
-1.39128e-05
-1.91798e-06
5.18319e-06
-1.26933e-05
-1.63139e-06
4.95127e-06
-1.14306e-05
-1.33436e-06
4.75736e-06
-1.00313e-05
-1.00563e-06
4.72716e-06
-8.31414e-06
-6.05627e-07
4.83581e-06
-6.06138e-06
-1.03112e-07
4.80085e-06
-3.27315e-06
4.77987e-07
4.4012e-06
-2.96854e-07
1.03181e-06
3.68879e-06
2.3432e-06
1.51406e-06
2.76005e-06
4.64794e-06
1.92512e-06
1.51781e-06
6.57836e-06
2.25662e-06
-1.09006e-07
8.06516e-06
2.49174e-06
-1.88156e-06
9.27514e-06
2.63066e-06
-2.84771e-06
1.14264e-05
2.64321e-06
-1.47674e-06
1.81232e-05
2.38177e-06
4.41592e-07
3.27957e-05
1.62947e-06
-1.26454e-06
4.72994e-05
7.71183e-07
-1.96252e-06
5.02531e-05
3.4355e-07
-1.65745e-06
4.82063e-05
-6.23878e-08
3.46631e-05
-1.87534e-07
-2.80286e-06
-4.66644e-05
1.58776e-06
-2.92608e-06
-6.40406e-05
3.35632e-06
-1.83227e-06
-6.64412e-05
3.48802e-06
3.45265e-07
-6.51311e-05
3.00372e-06
3.94897e-06
-5.96149e-05
2.14153e-06
6.9234e-06
-4.64563e-05
6.59856e-07
7.15323e-06
-3.26249e-05
-9.26858e-07
6.39356e-06
-2.50208e-05
-2.02459e-06
5.75951e-06
-2.12777e-05
-2.63039e-06
5.45787e-06
-1.90827e-05
-2.909e-06
5.41339e-06
-1.74996e-05
-2.98146e-06
5.503e-06
-1.61816e-05
-2.92402e-06
5.61488e-06
-1.49825e-05
-2.78514e-06
5.67298e-06
-1.3842e-05
-2.59599e-06
5.63801e-06
-1.27351e-05
-2.37633e-06
5.48992e-06
-1.16421e-05
-2.13824e-06
5.21567e-06
-1.05432e-05
-1.88793e-06
4.80513e-06
-9.40337e-06
-1.62509e-06
4.2504e-06
-8.14163e-06
-1.33922e-06
3.56952e-06
-6.62584e-06
-1.00735e-06
2.81463e-06
-4.70416e-06
-5.97584e-07
1.96512e-06
-2.31221e-06
-1.02506e-07
8.79242e-07
3.34743e-07
4.65107e-07
-6.19845e-07
2.85064e-06
9.99984e-07
-2.45094e-06
5.00531e-06
1.47489e-06
-4.56002e-06
6.79045e-06
1.89075e-06
-6.96958e-06
8.23343e-06
2.23592e-06
-9.57351e-06
9.40565e-06
2.49069e-06
-1.14723e-05
1.08215e-05
2.63869e-06
-1.00537e-05
1.45505e-05
2.63181e-06
-3.76238e-06
2.49735e-05
2.33596e-06
3.38867e-07
4.19078e-05
1.65974e-06
4.52349e-07
4.88409e-05
1.08687e-06
1.8006e-07
4.7528e-05
5.62685e-07
3.43469e-05
2.71852e-07
7.01401e-07
-4.95087e-05
1.81689e-06
1.62504e-06
-6.82196e-05
3.16756e-06
2.6247e-06
-7.08233e-05
3.49374e-06
3.55097e-06
-6.93393e-05
3.48013e-06
4.3626e-06
-6.35811e-05
3.34531e-06
4.65606e-06
-4.93757e-05
2.71349e-06
3.17725e-06
-3.2143e-05
1.03874e-06
1.60162e-06
-2.29056e-05
-5.19062e-07
6.4189e-07
-1.8793e-05
-1.52148e-06
2.32975e-07
-1.65545e-05
-2.12546e-06
1.89614e-07
-1.50114e-05
-2.45507e-06
3.43388e-07
-1.37468e-05
-2.60101e-06
5.61549e-07
-1.25917e-05
-2.62364e-06
7.53851e-07
-1.14903e-05
-2.55997e-06
8.62386e-07
-1.04261e-05
-2.43406e-06
8.4578e-07
-9.37853e-06
-2.26337e-06
6.75143e-07
-8.32781e-06
-2.06035e-06
3.36638e-07
-7.24758e-06
-1.83075e-06
-1.58103e-07
-6.0869e-06
-1.56962e-06
-7.89625e-07
-4.73632e-06
-1.26343e-06
-1.53014e-06
-3.06639e-06
-8.98057e-07
-2.31552e-06
-1.05392e-06
-4.69148e-07
-3.14223e-06
1.18483e-06
-1.64833e-08
-4.14526e-06
3.37046e-06
4.90247e-07
-5.33493e-06
5.25322e-06
9.44826e-07
-6.68976e-06
6.78099e-06
1.36037e-06
-8.20706e-06
7.99776e-06
1.7432e-06
-9.87485e-06
8.97344e-06
2.09353e-06
-1.1331e-05
9.90363e-06
2.41053e-06
-1.08396e-05
1.16562e-05
2.65851e-06
-5.38476e-06
1.76097e-05
2.70113e-06
1.69268e-06
3.35742e-05
2.36845e-06
2.26547e-06
4.66729e-05
1.87827e-06
1.623e-06
4.68506e-05
1.36404e-06
3.51914e-05
8.11424e-07
4.69833e-06
-5.54937e-05
1.57514e-06
3.97849e-06
-6.93465e-05
2.38936e-06
1.00469e-06
-6.9832e-05
2.59831e-06
-3.75807e-06
-6.6477e-05
2.63026e-06
-1.09288e-05
-5.82271e-05
2.61792e-06
-1.77414e-05
-4.45212e-05
2.48824e-06
-2.08888e-05
-3.02355e-05
1.4391e-06
-2.08001e-05
-2.3079e-05
1.39323e-07
-1.92763e-05
-1.95524e-05
-7.47504e-07
-1.72154e-05
-1.72347e-05
-1.37364e-06
-1.49936e-05
-1.54308e-05
-1.80145e-06
-1.27805e-05
-1.38906e-05
-2.07257e-06
-1.06677e-05
-1.24873e-05
-2.22324e-06
-8.72301e-06
-1.11632e-05
-2.28018e-06
-7.00253e-06
-9.89433e-06
-2.2623e-06
-5.54489e-06
-8.66305e-06
-2.18408e-06
-4.37131e-06
-7.45499e-06
-2.05765e-06
-3.48411e-06
-6.25345e-06
-1.89224e-06
-2.85461e-06
-5.03184e-06
-1.69407e-06
-2.42932e-06
-3.70992e-06
-1.45828e-06
-2.14225e-06
-2.18703e-06
-1.16888e-06
-1.90713e-06
-4.66422e-07
-8.20664e-07
-1.6982e-06
1.40999e-06
-4.27933e-07
-1.51045e-06
3.22681e-06
-3.45146e-08
-1.44813e-06
4.806e-06
3.96508e-07
-1.52774e-06
6.07935e-06
7.93147e-07
-1.75861e-06
7.07049e-06
1.16931e-06
-2.15949e-06
7.8476e-06
1.53773e-06
-2.69282e-06
8.53685e-06
1.91478e-06
-2.88477e-06
9.58355e-06
2.3176e-06
-1.14158e-06
1.34358e-05
2.67953e-06
2.53811e-06
2.78133e-05
2.71182e-06
2.59175e-06
4.471e-05
2.38452e-06
1.73549e-06
4.60472e-05
1.9247e-06
3.58764e-05
1.12457e-06
1.05207e-07
-5.6692e-05
1.95206e-06
-6.54643e-06
-6.48216e-05
2.69583e-06
-1.51359e-05
-6.35815e-05
2.77372e-06
-2.44468e-05
-5.93602e-05
2.63951e-06
-3.32895e-05
-5.13701e-05
2.36329e-06
-3.81646e-05
-4.1422e-05
1.93435e-06
-3.69722e-05
-3.26382e-05
1.21772e-06
-3.3435e-05
-2.70788e-05
4.70736e-07
-2.97497e-05
-2.30895e-05
-1.26449e-07
-2.63669e-05
-1.99726e-05
-6.2336e-07
-2.32651e-05
-1.74544e-05
-1.06266e-06
-2.03957e-05
-1.53432e-05
-1.40802e-06
-1.77285e-05
-1.34985e-05
-1.65275e-06
-1.52583e-05
-1.1828e-05
-1.80589e-06
-1.29973e-05
-1.02766e-05
-1.88146e-06
-1.09601e-05
-8.81184e-06
-1.89219e-06
-9.15838e-06
-7.4126e-06
-1.84792e-06
-7.602e-06
-6.05737e-06
-1.7562e-06
-6.30508e-06
-4.71048e-06
-1.62172e-06
-5.25027e-06
-3.32225e-06
-1.44474e-06
-4.35994e-06
-1.85358e-06
-1.22375e-06
-3.57605e-06
-2.86652e-07
-9.60722e-07
-2.69443e-06
1.19969e-06
-6.654e-07
-1.72085e-06
2.61746e-06
-3.55302e-07
-7.10122e-07
3.86328e-06
-5.59865e-08
2.35293e-07
4.88298e-06
2.65989e-07
1.06548e-06
5.68659e-06
5.71216e-07
1.73029e-06
6.33674e-06
8.64705e-07
2.1464e-06
6.97223e-06
1.16449e-06
2.14003e-06
8.08954e-06
1.504e-06
1.42102e-06
1.2184e-05
1.9277e-06
5.4849e-07
2.61991e-05
2.29522e-06
-3.76957e-07
4.32898e-05
2.21039e-06
-6.45543e-07
4.42943e-05
1.85273e-06
3.39892e-05
9.99338e-07
-1.15825e-05
-4.77969e-05
2.95727e-06
-2.2911e-05
-5.73807e-05
3.68293e-06
-3.23386e-05
-5.82867e-05
3.67721e-06
-3.87123e-05
-5.70975e-05
3.47353e-06
-3.97982e-05
-5.4202e-05
3.17053e-06
-3.47691e-05
-4.98549e-05
2.80271e-06
-2.63389e-05
-4.37962e-05
2.39762e-06
-1.88119e-05
-3.66395e-05
1.91034e-06
-1.32904e-05
-2.99854e-05
1.3644e-06
-9.61063e-06
-2.43989e-05
7.86343e-07
-7.26916e-06
-1.99554e-05
2.1336e-07
-5.80608e-06
-1.6521e-05
-2.33917e-07
-4.81855e-06
-1.38472e-05
-5.95438e-07
-4.05417e-06
-1.16775e-05
-8.80284e-07
-3.40029e-06
-9.8194e-06
-1.0841e-06
-2.82072e-06
-8.15656e-06
-1.21372e-06
-2.31405e-06
-6.62435e-06
-1.27807e-06
-1.89238e-06
-5.17996e-06
-1.28503e-06
-1.56166e-06
-3.7883e-06
-1.24042e-06
-1.30388e-06
-2.41993e-06
-1.14815e-06
-1.07982e-06
-1.05383e-06
-1.01167e-06
-8.2258e-07
3.04398e-07
-8.35663e-07
-5.68728e-07
1.58663e-06
-6.27541e-07
-3.31974e-07
2.79345e-06
-3.98427e-07
-1.48382e-07
3.85902e-06
-1.62836e-07
-6.52117e-08
4.74576e-06
7.4652e-08
-1.49169e-07
5.45699e-06
3.40724e-07
-4.21406e-07
6.04478e-06
6.00858e-07
-9.25558e-07
6.64631e-06
8.80803e-07
-1.74215e-06
7.77171e-06
1.21499e-06
-2.79877e-06
1.17499e-05
1.6435e-06
-3.02202e-06
2.43927e-05
2.02899e-06
-3.16133e-06
4.09629e-05
1.9389e-06
-2.07906e-06
4.11768e-05
1.61989e-06
3.0774e-05
8.48735e-07
-1.30911e-05
-3.83043e-05
2.89566e-06
-2.0019e-05
-5.45475e-05
3.21356e-06
-2.33695e-05
-5.90992e-05
3.26349e-06
-2.38156e-05
-6.08465e-05
3.26758e-06
-2.11035e-05
-6.11537e-05
3.27842e-06
-1.55032e-05
-5.97165e-05
3.28896e-06
-7.66762e-06
-5.57359e-05
3.25945e-06
1.09488e-06
-4.91032e-05
3.1085e-06
9.05249e-06
-4.10749e-05
2.80367e-06
1.51269e-05
-3.29556e-05
2.36384e-06
1.88952e-05
-2.5538e-05
1.82836e-06
2.0462e-05
-1.92719e-05
1.2591e-06
2.0345e-05
-1.43572e-05
7.16912e-07
1.92443e-05
-1.07283e-05
2.35376e-07
1.77073e-05
-8.08217e-06
-1.28525e-07
1.60494e-05
-6.04911e-06
-3.90134e-07
1.44173e-05
-4.35857e-06
-5.85155e-07
1.28504e-05
-2.8602e-06
-7.13034e-07
1.13519e-05
-1.477e-06
-7.79539e-07
9.92147e-06
-1.70572e-07
-7.90572e-07
8.55097e-06
1.09217e-06
-7.50765e-07
7.23445e-06
2.30766e-06
-6.64708e-07
5.90661e-06
3.47241e-06
-5.37943e-07
4.52987e-06
4.56653e-06
-3.77611e-07
3.03847e-06
5.56226e-06
-1.93128e-07
1.37445e-06
6.43639e-06
-5.67415e-09