/*--------------------------------*- C++ -*----------------------------------*\
| =========                 |                                                 |
| \\      /  F ield         | OpenFOAM: The Open Source CFD Toolbox           |
|  \\    /   O peration     | Version:  v2006                                 |
|   \\  /    A nd           | Website:  www.openfoam.com                      |
|    \\/     M anipulation  |                                                 |
\*---------------------------------------------------------------------------*/
FoamFile
{
    version     2.0;
    format      ascii;
    class       volScalarField;
    location    "18";
    object      T;
}
// * * * * * * * * * * * * * * * * * * * * * * * * * * * * * * * * * * * * * //

dimensions      [0 0 0 1 0 0 0];


internalField   nonuniform List<scalar> 
78750
(
318.122
322.563
327.814
330.839
334.645
336.592
339.602
341.433
343.978
346.597
349.154
351.567
353.575
355.29
355.777
354.902
352.547
347.417
339.054
326.089
311.446
294.636
274.747
245.103
206.216
163.354
127.098
102.694
90.503
88.6832
96.1623
112.751
148.762
198.123
273.981
382.505
405.6
359.991
353.053
344.396
349.271
352.386
348.25
356.615
361.629
360.736
356.699
353.249
350.403
348.212
347.823
346.429
342.332
334.961
325.471
315.228
305.075
294.996
284.861
274.566
264.172
253.444
243.067
233.997
228.504
227.355
232.535
245.181
266.812
313.155
383.108
371.407
332.025
323.113
323.862
348.686
348.207
343.843
339.712
345.936
349.199
350.406
351.597
353.094
355.399
355.782
351.389
344.23
337.819
332.72
328.38
324.321
320.299
316.162
311.821
307.242
302.439
297.608
293.241
290.049
288.807
289.675
291.7
285.259
317.815
391.289
390.127
372.831
373.7
345.5
335.671
337.302
338.651
337.203
338.564
341.908
342.555
342.694
340.87
339.191
337.905
337.118
336.038
334.567
333.124
331.799
330.558
329.338
328.094
326.747
325.203
323.331
320.955
317.948
314.307
310.326
305.982
301.225
296.941
337.077
369.476
372.564
365.237
359.267
354.391
351.257
347.748
333.558
318.088
314.811
321.692
333.289
342.281
346.282
347.94
349.162
349.969
349.822
348.538
346.563
344.373
342.154
339.963
337.954
336.225
334.595
332.884
331.013
328.809
325.812
321.487
315.86
311.975
317.056
361.679
324.07
328.025
328.231
328.206
328.448
329.082
329.415
329.285
330.514
333.578
336.404
333.334
327.264
323.729
324.51
327.722
331.068
334.135
337.068
339.787
342.488
345.98
349.858
351.262
349.159
345.489
341.973
338.836
335.651
331.992
327.731
323.627
323.012
332.2
374.736
306.126
313.444
318.607
322.922
326.866
330.936
335.457
339.802
343.104
345.634
348.502
352.151
356.173
359.864
360.968
358.641
355.026
351.906
349.687
348.173
347.131
346.3
345.458
344.405
343.19
342.07
341.089
339.967
338.235
335.253
330.638
324.722
320.636
329.809
371.637
312.218
324.461
331.34
335.701
338.881
341.367
343.392
345.243
347.032
348.456
349.06
348.865
348.404
348.208
348.504
349.082
349.589
349.887
349.991
349.971
349.871
349.686
349.331
348.569
347.287
345.731
344.258
343.026
341.951
340.774
339.204
336.223
332.367
340.674
378.092
318.055
328.696
331.942
333.586
334.875
336.093
337.365
338.768
340.39
342.343
344.685
347.205
349.243
350.226
350.316
349.945
349.434
348.944
348.516
348.136
347.803
347.445
346.903
346.127
345.195
344.202
343.178
342.076
340.785
339.111
336.825
334.884
338.094
350.041
381.639
315.302
327.7
333.431
337.166
340.225
342.801
344.89
346.461
347.518
348.141
348.458
348.638
348.838
349.1
349.379
349.61
349.64
349.384
348.961
348.443
347.801
347.004
346.113
345.269
344.555
343.977
343.528
343.2
342.93
342.479
341.051
338.409
343.358
357.366
387.792
312.611
322.732
327
329.693
332.048
334.342
336.646
338.964
341.272
343.545
345.715
347.606
349.039
349.931
350.265
350.074
349.442
348.528
347.609
346.853
346.184
345.529
344.893
344.307
343.778
343.301
342.901
342.703
343.003
344.39
347.927
354.061
362.316
375.546
403.647
313.586
327.623
333.503
336.821
339.335
341.399
343.076
344.377
345.342
346.085
346.777
347.585
348.591
349.712
350.686
351.173
350.928
349.925
348.481
347.12
346.095
345.338
344.733
344.213
343.742
343.292
342.832
342.338
341.871
341.706
342.829
348.692
361.942
377.186
403.575
314.756
327.432
332.92
336.307
339.125
341.687
344.011
346.012
347.585
348.683
349.349
349.726
349.994
350.313
350.763
351.277
351.628
351.527
350.73
349.264
347.601
346.231
345.285
344.649
344.194
343.861
343.663
343.642
343.816
344.594
347.56
355.743
369.725
385.407
411.058
314.571
328.418
334.253
337.714
340.596
343.249
345.599
347.51
348.952
349.978
350.662
351.079
351.31
351.443
351.569
351.764
352.053
352.337
352.391
351.939
350.797
349.118
347.386
346.038
345.147
344.604
344.383
344.638
345.479
346.792
350.182
359.463
373.502
388.514
412.927
318.894
332.733
338.108
341.429
344.42
347.16
349.28
350.697
351.589
352.145
352.478
352.651
352.7
352.666
352.593
352.521
352.483
352.51
352.59
352.587
352.274
351.434
350.003
348.287
346.775
345.688
344.975
344.683
345.254
346.831
348.921
356.274
370.642
386.634
411.8
321.25
334.777
339.882
343.263
346.666
349.64
351.449
352.342
352.771
352.996
353.134
353.227
353.285
353.307
353.291
353.245
353.181
353.107
353.025
352.922
352.717
352.261
351.413
350.124
348.574
347.198
346.316
346.155
347.628
351.849
356.875
363.565
375.988
391.463
417.154
323.838
337.268
342.149
345.632
349.498
352.682
354.079
354.42
354.405
354.296
354.169
354.045
353.932
353.832
353.743
353.661
353.582
353.498
353.399
353.262
353.05
352.695
352.105
351.207
349.973
348.523
347.176
346.425
347.697
353.652
364.537
375.362
384.988
397.87
422.752
320.879
334.173
339.304
342.937
347.097
351.192
353.241
353.824
353.935
353.934
353.907
353.873
353.835
353.794
353.747
353.695
353.635
353.565
353.477
353.357
353.176
352.892
352.455
351.809
350.906
349.733
348.416
347.309
347.312
350.97
361.904
378.69
390.262
403.308
425.657
317.791
332.074
338.33
342.307
346.317
350.974
353.955
354.798
354.8
354.64
354.479
354.336
354.208
354.091
353.986
353.887
353.793
353.695
353.581
353.431
353.221
352.925
352.53
352.035
351.432
350.703
349.854
348.963
348.298
349.06
355.19
371.953
390.927
405.742
425.629
317.289
333.458
341.013
345.909
350.322
353.733
355.487
355.674
355.384
355.087
354.84
354.627
354.432
354.251
354.085
353.932
353.79
353.652
353.513
353.355
353.144
352.858
352.48
352.011
351.463
350.846
350.158
349.408
348.653
348.253
350.595
362.504
385.748
402.568
422.557
321.613
338.42
345.827
351.375
356.235
358.068
357.775
357.099
356.548
356.082
355.671
355.308
354.985
354.695
354.431
354.189
353.966
353.756
353.549
353.328
353.076
352.783
352.442
352.056
351.639
351.214
350.808
350.464
350.267
350.549
353.215
363.693
383.74
401.134
421.988
325.986
339.712
345.136
349.46
353.264
355.725
357.026
357.567
357.554
357.22
356.754
356.266
355.802
355.377
354.992
354.643
354.325
354.032
353.754
353.483
353.214
352.942
352.669
352.397
352.141
351.922
351.772
351.753
352.03
353.291
358.559
373.482
393.358
408.452
426.989
322.627
333.52
337.292
340.047
343.004
346.7
350.895
354.479
356.796
357.918
358.155
357.866
357.345
356.771
356.22
355.714
355.256
354.841
354.462
354.111
353.783
353.473
353.18
352.907
352.659
352.445
352.289
352.238
352.442
353.458
357.783
372.64
398.6
412.861
428.779
316.013
326.889
332.258
335.725
338.596
341.392
344.559
348.394
352.292
355.48
357.655
358.765
358.959
358.565
357.931
357.268
356.651
356.095
355.597
355.152
354.752
354.394
354.071
353.785
353.533
353.32
353.153
353.053
353.089
353.487
355.254
363.103
387.381
406.854
426.039
312.493
326.348
334.445
339.266
342.907
346.104
348.712
350.587
352.178
353.979
355.995
357.882
359.269
359.876
359.699
359.065
358.327
357.636
357.018
356.469
355.983
355.553
355.177
354.85
354.573
354.345
354.169
354.052
354.016
354.132
354.683
357.32
370.955
394.244
422.072
312.99
329.538
338.249
343.287
347.316
351.321
355.108
357.842
358.967
358.998
358.804
358.873
359.387
360.135
360.592
360.394
359.709
358.925
358.232
357.652
357.155
356.71
356.312
355.969
355.689
355.476
355.332
355.262
355.288
355.452
355.897
357.486
366.423
387.523
418.74
317.284
334.155
341.609
346.232
350.688
355.058
358.537
361.203
362.949
363.48
363.197
362.683
362.175
361.767
361.605
361.472
360.916
360.062
359.271
358.667
358.181
357.741
357.341
356.997
356.725
356.535
356.438
356.445
356.586
356.93
357.689
359.97
369.67
388.182
416.88
322.671
338.828
345.249
350.137
356.118
360.668
362.658
363.451
363.911
364.201
364.252
364.105
363.856
363.535
363.099
362.547
361.869
360.981
360.14
359.511
359.046
358.645
358.273
357.952
357.703
357.543
357.489
357.562
357.811
358.348
359.579
363.537
376.314
393.061
417.044
324.971
340.659
347.275
353.031
360.072
364.058
364.766
364.706
364.593
364.518
364.475
364.425
364.336
364.186
363.934
363.474
362.706
361.725
360.832
360.193
359.744
359.391
359.086
358.834
358.661
358.593
358.656
358.901
359.421
360.448
362.825
369.802
385.44
401.169
421.576
322.72
338.58
344.951
349.905
356.096
361.995
364.324
364.795
364.831
364.779
364.71
364.639
364.561
364.458
364.297
364.002
363.429
362.535
361.615
360.932
360.467
360.124
359.847
359.629
359.493
359.468
359.597
359.958
360.703
362.248
366.038
376.244
393.945
409.361
427.516
320.322
336.473
343.425
347.956
352.922
359.666
363.987
365.178
365.367
365.333
365.245
365.138
365.018
364.878
364.693
364.407
363.92
363.165
362.325
361.67
361.231
360.924
360.694
360.532
360.459
360.513
360.754
361.29
362.34
364.497
369.613
381.863
400.287
415.33
431.513
322.324
339.285
346.998
352.86
359.018
363.492
365.75
366.114
366.031
365.89
365.745
365.597
365.442
365.266
365.041
364.716
364.222
363.547
362.841
362.287
361.905
361.633
361.427
361.285
361.228
361.296
361.558
362.137
363.286
365.669
371.176
383.516
401.017
415.273
430.625
326.329
341.944
348.389
354.039
360.646
365.4
367.185
367.336
367.045
366.731
366.454
366.205
365.967
365.716
365.419
365.033
364.525
363.939
363.404
363.003
362.719
362.512
362.365
362.282
362.29
362.436
362.796
363.507
364.837
367.426
372.868
383.861
398.734
412.058
428.14
323.353
337.714
343.139
347.017
351.7
358.125
364.134
367.14
367.675
367.412
367.043
366.698
366.374
366.043
365.671
365.235
364.755
364.298
363.923
363.636
363.413
363.235
363.097
363.009
362.993
363.09
363.367
363.945
365.061
367.256
371.814
380.81
393.122
405.429
422.742
318.665
334.872
342.146
346.635
350.734
355.56
361.439
366.234
368.078
368.028
367.518
367.009
366.557
366.159
365.806
365.491
365.208
364.959
364.747
364.574
364.437
364.339
364.285
364.29
364.38
364.601
365.026
365.786
367.133
369.581
374.139
381.957
391.824
402.974
421.414
320.243
338.254
346.122
351.451
356.771
361.622
364.774
367.12
368.749
368.948
368.349
367.66
367.11
366.698
366.372
366.099
365.866
365.669
365.505
365.372
365.271
365.204
365.181
365.216
365.335
365.578
366.008
366.732
367.946
370.041
373.784
380.147
388.623
398.956
417.656
324.132
340.272
346.417
350.707
355.558
361.314
365.984
368.281
369.471
370.315
370.509
370.002
369.062
368.189
367.614
367.232
366.951
366.736
366.57
366.441
366.34
366.263
366.214
366.202
366.246
366.381
366.671
367.23
368.284
370.284
374.043
380.338
388.394
398.367
417.087
323.248
338.266
344.279
348.119
351.801
356.465
362.614
367.722
370.244
371.245
371.765
372.138
372.042
370.891
369.531
368.687
368.241
367.994
367.855
367.791
367.792
367.856
367.989
368.207
368.53
368.992
369.648
370.593
372.004
374.223
377.849
383.471
390.662
400.192
419.195
321.319
337.779
344.641
348.829
352.35
355.753
359.763
364.825
369.178
371.624
372.605
372.9
372.894
372.343
370.958
369.695
368.997
368.647
368.454
368.329
368.249
368.212
368.221
368.288
368.435
368.702
369.151
369.888
371.113
373.221
376.922
382.876
390.436
399.987
418.429
320.833
337.809
344.937
349.275
353.026
356.804
360.68
364.479
367.957
370.575
372.214
373.053
373.023
371.943
370.823
370.296
370.074
369.965
369.923
369.943
370.02
370.152
370.342
370.601
370.945
371.407
372.055
373.029
374.605
377.275
381.697
388.056
395.4
404.975
423.719
321.36
338.778
346.261
350.892
354.964
359.022
363.011
366.633
369.44
371.15
372.103
372.675
372.899
372.317
371.17
370.573
370.371
370.33
370.374
370.493
370.694
370.992
371.406
371.962
372.694
373.641
374.864
376.469
378.673
381.888
386.621
392.832
399.617
408.652
426.974
322.054
340.447
348.099
353.021
357.777
362.551
366.304
368.966
371.297
372.923
373.632
373.76
373.425
372.613
371.789
371.519
371.415
371.374
371.377
371.43
371.543
371.736
372.034
372.473
373.108
374.026
375.367
377.34
380.233
384.367
389.866
396.242
402.737
411.33
428.747
322.395
340.935
348.957
354.251
359.614
364.989
368.519
370.031
371.046
372.265
373.169
373.641
373.795
373.484
372.636
372.178
372.093
372.172
372.351
372.605
372.919
373.296
373.758
374.342
375.1
376.112
377.529
379.623
382.792
387.387
393.255
399.58
405.837
414.29
431.326
326.451
345.002
352.5
358.188
364.901
371.148
374.46
375.125
374.712
374.356
374.278
374.29
374.189
373.805
373.138
372.825
372.898
373.022
373.214
373.519
373.988
374.648
375.5
376.561
377.882
379.547
381.664
384.379
387.899
392.388
397.676
403.216
408.864
416.79
432.71
326.577
344.617
352.245
358.31
365.315
370.834
373.273
374.237
374.627
374.696
374.654
374.592
374.519
374.405
374.184
373.857
373.595
373.512
373.663
373.903
374.174
374.542
375.091
375.897
377.05
378.679
380.96
384.075
388.115
392.967
398.252
403.5
408.7
415.905
431.195
328.048
345.651
352.998
359.054
366.482
373.074
375.896
376.185
375.928
375.682
375.501
375.361
375.235
375.106
374.959
374.774
374.549
374.336
374.284
374.582
375.175
375.797
376.429
377.174
378.119
379.365
381.119
383.706
387.419
392.234
397.623
402.964
408.26
415.626
431.235
326.87
343.804
350.487
355.617
361.657
368.406
373.637
375.942
376.443
376.329
376.09
375.868
375.689
375.544
375.418
375.295
375.164
375.021
374.901
374.93
375.346
376.303
377.585
378.976
380.529
382.321
384.378
386.838
390.006
394.08
398.826
403.778
408.948
416.422
432.265
324.1
340.924
347.657
352.036
356.515
362.287
368.875
373.769
376.1
376.77
376.754
376.553
376.346
376.172
376.03
375.908
375.796
375.683
375.568
375.464
375.442
375.671
376.384
377.655
379.358
381.542
384.318
387.607
391.261
395.28
399.635
404.177
409.007
416.113
431.85
323.826
341.124
348.186
352.785
357.183
361.933
367.251
372.324
375.668
377.09
377.361
377.185
376.929
376.714
376.555
376.435
376.338
376.25
376.163
376.07
375.968
375.879
375.896
376.306
377.433
379.307
382.032
385.71
390.121
394.827
399.551
404.244
409.127
416.187
431.722
322.465
340.304
347.907
352.756
357.249
361.841
366.328
370.77
374.655
377.047
377.949
377.976
377.685
377.383
377.159
377.008
376.904
376.824
376.755
376.688
376.613
376.522
376.43
376.519
377.344
379.013
381.419
384.803
389.299
394.5
399.792
404.903
410.045
417.312
432.718
323.275
341.886
349.785
355.037
360.361
365.995
370.507
373.439
375.691
377.403
378.267
378.425
378.205
377.903
377.669
377.521
377.43
377.367
377.32
377.286
377.262
377.253
377.303
377.582
378.545
380.408
382.904
386.17
390.524
395.815
401.369
406.693
411.996
419.487
434.624
324.365
342.696
350.339
355.608
361.282
367.604
372.809
375.87
377.47
378.458
378.99
379.069
378.837
378.489
378.198
378.014
377.909
377.851
377.822
377.815
377.837
377.911
378.101
378.575
379.674
381.71
384.599
388.249
392.777
398.1
403.665
408.961
414.241
421.724
436.218
324.874
343.315
350.933
356.277
362.107
368.526
373.841
377.094
378.721
379.43
379.67
379.633
379.416
379.101
378.802
378.593
378.467
378.395
378.357
378.349
378.379
378.473
378.693
379.178
380.199
382.127
385.22
389.501
394.768
400.549
406.202
411.381
416.498
423.686
437.062
324.772
343.312
351.101
356.565
362.463
368.871
374.11
377.359
379.14
380.013
380.307
380.26
380.041
379.742
379.447
379.221
379.078
378.994
378.948
378.932
378.952
379.031
379.215
379.605
380.397
381.926
384.633
388.885
394.638
401.147
407.327
412.693
417.716
424.479
436.836
325.782
344.295
351.806
357.058
362.766
369.236
374.892
378.364
380.092
380.861
381.087
380.986
380.728
380.422
380.14
379.949
379.831
379.756
379.71
379.689
379.695
379.749
379.887
380.18
380.763
381.889
383.981
387.576
392.988
399.697
406.352
412.039
417.123
423.746
436.056
325.075
343.584
351.225
356.291
361.28
366.888
372.653
377.014
379.582
380.924
381.518
381.619
381.425
381.109
380.782
380.564
380.534
380.568
380.59
380.612
380.649
380.72
380.861
381.132
381.643
382.593
384.336
387.416
392.33
398.819
405.496
411.21
416.315
423.046
435.815
325.896
344.526
352.067
357.021
361.829
367.126
372.666
377.169
379.926
381.374
382.062
382.272
382.155
381.857
381.498
381.17
381.042
381.229
381.481
381.652
381.787
381.926
382.108
382.396
382.906
383.843
385.552
388.542
393.283
399.519
405.872
411.277
416.226
422.973
435.997
325.788
344.582
352.156
356.939
361.172
365.528
370.492
375.476
379.134
381.248
382.336
382.81
382.876
382.672
382.331
381.95
381.617
381.55
381.952
382.505
382.935
383.301
383.671
384.091
384.646
385.529
387.111
389.906
394.307
399.969
405.674
410.654
415.484
422.444
436.313
325.766
345.063
352.97
357.941
362.258
366.373
370.534
374.807
378.529
381.028
382.441
383.159
383.428
383.378
383.12
382.766
382.388
382.069
382.072
382.691
383.583
384.364
385.128
385.994
387.011
388.247
389.943
392.559
396.477
401.393
406.375
410.977
415.824
423.203
437.474
326.418
346.434
354.659
359.862
364.361
368.424
372.076
375.452
378.58
381.036
382.613
383.507
383.943
384.05
383.912
383.622
383.267
382.9
382.603
382.68
383.508
384.712
385.827
387.053
388.64
390.704
393.258
396.393
400.271
404.722
409.202
413.483
418.125
425.165
438.11
327.964
348.37
356.797
362.259
367.133
371.462
374.925
377.556
379.719
381.561
382.935
383.827
384.346
384.579
384.576
384.391
384.098
383.761
383.418
383.168
383.369
384.465
385.982
387.306
388.739
390.727
393.539
397.144
401.277
405.594
409.785
413.8
418.11
424.598
437.354
331.038
351.614
360.094
365.836
371.09
375.448
378.49
380.465
381.851
382.971
383.877
384.537
384.968
385.203
385.26
385.158
384.934
384.641
384.32
384.007
383.84
384.292
385.909
388.143
390.127
392.044
394.445
397.671
401.556
405.62
409.581
413.509
417.931
424.869
438.453
335.457
355.352
363.817
370.001
375.639
379.627
381.868
383.064
383.8
384.373
384.878
385.305
385.629
385.84
385.933
385.902
385.759
385.531
385.252
384.95
384.663
384.567
385.227
387.327
390.566
394.054
397.486
401.111
405.157
409.425
413.578
417.607
422.058
428.787
440.204
340.489
359.263
367.811
374.699
380.485
383.615
384.942
385.509
385.802
386.011
386.202
386.386
386.549
386.671
386.736
386.728
386.643
386.488
386.28
386.035
385.763
385.48
385.308
385.693
387.344
390.552
395.014
400.137
405.401
410.488
415.125
419.262
423.299
428.726
438.156
342.789
361
369.778
377.334
383
385.505
386.432
386.801
386.983
387.109
387.224
387.337
387.442
387.524
387.569
387.563
387.502
387.389
387.237
387.06
386.865
386.649
386.404
386.182
386.251
387.184
389.846
394.32
399.749
405.154
410.118
414.583
418.811
424.534
436.593
340.546
358.958
367.579
375.117
381.363
384.865
386.637
387.511
387.933
388.148
388.275
388.368
388.445
388.502
388.53
388.516
388.452
388.34
388.196
388.04
387.89
387.765
387.713
387.941
388.885
390.254
391.988
395.082
399.807
405.211
410.355
415.103
420.006
427.113
439.683
333.655
351.548
359.201
365.653
372.851
379.081
383.572
386.345
387.808
388.531
388.907
389.129
389.28
389.389
389.459
389.483
389.453
389.367
389.233
389.07
388.9
388.753
388.691
388.967
390.361
393.526
397.211
401.069
405.851
411.303
416.37
420.792
425.256
431.367
440.179
326.112
342.696
350.009
355.317
361.428
368.788
376.31
382.587
386.497
388.46
389.4
389.889
390.184
390.384
390.52
390.596
390.615
390.576
390.487
390.353
390.185
390.001
389.837
389.8
390.286
392.255
396.077
400.56
405.2
410.063
414.707
418.744
422.485
427.343
436.765
321.353
339.871
349.016
354.514
358.962
363.881
370.356
377.966
384.141
387.645
389.341
390.214
390.753
391.141
391.424
391.606
391.695
391.711
391.678
391.611
391.521
391.416
391.307
391.229
391.303
391.919
393.796
397.002
400.607
404.471
408.621
412.818
417.15
423.475
437.157
322.167
345.275
356.43
362.815
367.312
370.81
374.412
379.512
385.003
388.491
390.147
391.006
391.59
392.057
392.386
392.547
392.598
392.608
392.612
392.62
392.642
392.687
392.772
392.935
393.271
394.022
395.733
398.991
403.199
407.174
411.015
415.01
419.728
427.261
440.745
326.221
350.583
361.255
367.817
373.148
377.585
381.187
384.139
387.336
389.701
390.874
391.572
392.148
392.694
393.098
393.247
393.25
393.231
393.233
393.269
393.352
393.5
393.743
394.141
394.824
396.073
398.439
402.617
408.365
413.66
417.622
421.131
425.17
431.462
441.277
329.567
351.228
360.228
366.46
372.517
378.441
383.739
387.486
389.663
390.989
391.655
392.113
392.572
393.122
393.678
393.961
393.934
393.83
393.746
393.703
393.716
393.806
394.004
394.364
394.986
396.078
398.043
401.486
406.66
412.429
417.342
421.403
425.27
430.371
438.464
330.18
350.396
358.863
364.826
370.688
376.57
382.153
387.047
390.321
391.73
392.241
392.551
392.877
393.331
393.965
394.597
394.835
394.716
394.527
394.359
394.23
394.158
394.177
394.329
394.685
395.37
396.626
398.875
402.615
407.828
413.534
418.533
422.694
427.652
436.655
329.495
350.906
359.798
365.662
370.979
376.011
380.693
385.077
389.115
391.754
392.66
392.967
393.182
393.466
393.942
394.687
395.492
395.866
395.773
395.541
395.305
395.096
394.943
394.895
395.024
395.441
396.351
398.132
401.346
406.295
412.095
417.164
421.482
427.042
437.936
329.526
351.877
361.024
366.898
372.129
376.993
381.272
384.817
388.023
391.108
392.838
393.383
393.579
393.741
393.995
394.47
395.289
396.301
396.989
397.121
396.98
396.779
396.596
396.491
396.553
396.92
397.819
399.617
402.782
407.421
412.606
417.202
421.615
427.966
440.01
329.572
351.645
360.9
367.027
372.764
378.358
383.283
386.984
389.531
391.52
393.156
393.85
394.075
394.193
394.329
394.569
395.04
395.888
397.045
398.069
398.587
398.714
398.71
398.726
398.881
399.341
400.351
402.237
405.287
409.377
413.762
417.882
422.317
429.156
441.235
330.404
352.239
361.507
367.819
373.922
380.011
385.437
389.509
392.137
393.641
394.383
394.623
394.708
394.775
394.858
394.993
395.248
395.744
396.624
397.879
399.18
400.123
400.663
401.036
401.46
402.137
403.308
405.238
408.069
411.594
415.334
419.068
423.35
430.113
441.614
331.219
353.461
362.806
369.24
375.531
381.722
387.029
390.928
393.543
395.137
395.755
395.622
395.461
395.446
395.493
395.587
395.751
396.052
396.6
397.531
398.876
400.41
401.752
402.755
403.612
404.594
405.958
407.933
410.603
413.788
417.19
420.706
424.81
431.232
441.843
331.915
354.452
363.759
370.244
376.765
383.199
388.453
392.026
394.296
395.756
396.555
396.57
396.273
396.164
396.177
396.252
396.39
396.62
396.999
397.633
398.654
400.137
401.941
403.706
405.225
406.653
408.269
410.304
412.848
415.81
419.006
422.363
426.225
432.091
441.714
331.912
354.278
363.526
370.051
376.827
383.731
389.367
393.021
395.146
396.403
397.154
397.393
397.12
396.899
396.86
396.923
397.058
397.276
397.599
398.078
398.814
399.956
401.632
403.755
405.963
408
409.986
412.167
414.684
417.525
420.588
423.806
427.435
432.771
441.48
331.665
353.869
363.16
369.739
376.627
383.801
389.813
393.754
395.987
397.209
397.883
398.174
398.021
397.674
397.531
397.561
397.698
397.934
398.276
398.725
399.319
400.173
401.473
403.401
405.901
408.572
411.101
413.546
416.08
418.79
421.664
424.663
427.983
432.766
440.943
331.318
353.73
363.123
369.705
376.535
383.713
389.887
394.065
396.488
397.821
398.547
398.901
398.906
398.551
398.237
398.176
398.291
398.542
398.932
399.438
400.029
400.736
401.692
403.121
405.227
407.922
410.787
413.557
416.259
418.989
421.784
424.651
427.807
432.428
440.956
330.886
353.589
363.082
369.64
376.398
383.553
389.812
394.158
396.749
398.205
399.017
399.454
399.609
399.435
399.031
398.808
398.85
399.088
399.518
400.136
400.869
401.662
402.568
403.751
405.442
407.771
410.513
413.299
416
418.684
421.418
424.248
427.455
432.391
441.926
330.153
353.173
362.96
369.685
376.584
383.807
390.004
394.321
396.951
398.468
399.34
399.842
400.099
400.126
399.864
399.512
399.411
399.583
399.999
400.683
401.584
402.57
403.602
404.795
406.358
408.475
411.062
413.793
416.48
419.14
421.868
424.756
428.196
433.766
443.848
329.909
353.515
363.776
370.944
378.43
385.914
391.704
395.442
397.672
398.976
399.75
400.218
400.49
400.606
400.533
400.251
400.019
400.078
400.436
401.129
402.187
403.485
404.874
406.404
408.279
410.702
413.563
416.429
419.107
421.709
424.403
427.345
431.033
437.064
445.87
330.582
354.911
365.605
373.397
381.919
389.799
394.878
397.59
399.038
399.87
400.382
400.71
400.916
401.026
401.031
400.893
400.661
400.588
400.825
401.413
402.448
403.922
405.651
407.585
409.945
413.038
416.818
420.587
423.776
426.548
429.252
432.152
435.78
441.325
447.047
331.903
356.755
367.778
376.294
386.067
394.142
398.349
400.025
400.691
401.014
401.209
401.342
401.432
401.481
401.479
401.406
401.261
401.161
401.295
401.762
402.665
404.123
406.047
408.263
410.888
414.306
418.726
423.562
427.778
431.13
434.008
436.786
439.956
444.134
446.951
333.082
358.341
369.846
379.173
389.847
397.433
400.703
401.694
401.936
401.978
401.977
401.971
401.965
401.953
401.923
401.863
401.768
401.688
401.748
402.07
402.766
404.007
405.887
408.261
411.029
414.427
418.769
423.833
428.648
432.527
435.61
438.271
440.966
444.048
445.906
334.114
359.83
372.122
382.429
393.458
399.948
402.261
402.777
402.791
402.699
402.601
402.522
402.462
402.414
402.371
402.325
402.279
402.262
402.339
402.588
403.103
404.039
405.588
407.766
410.4
413.501
417.296
421.796
426.403
430.364
433.516
436.096
438.533
441.32
444.246
335.376
361.479
374.896
386.547
397.43
402.271
403.518
403.601
403.442
403.267
403.122
403.011
402.928
402.867
402.824
402.798
402.8
402.851
402.987
403.25
403.706
404.483
405.773
407.699
410.137
412.91
416.068
419.681
423.496
427.025
430.014
432.557
435.064
438.326
443.108
337.098
363.299
378.068
391.612
401.992
404.744
404.805
404.442
404.11
403.863
403.689
403.57
403.495
403.454
403.44
403.453
403.497
403.585
403.738
403.99
404.398
405.067
406.173
407.884
410.177
412.799
415.586
418.53
421.563
424.49
427.167
429.621
432.197
435.886
442.234
338.541
364.637
380.267
395.409
405.403
406.536
405.894
405.296
404.866
404.574
404.383
404.267
404.208
404.194
404.216
404.271
404.358
404.484
404.661
404.913
405.285
405.861
406.785
408.237
410.29
412.752
415.347
417.977
420.626
423.233
425.741
428.173
430.852
434.889
442.158
338.679
364.619
379.943
395.353
406.578
407.545
406.737
406.088
405.632
405.324
405.128
405.014
404.964
404.964
405.008
405.09
405.209
405.371
405.586
405.874
406.275
406.862
407.756
409.129
411.116
413.602
416.226
418.737
421.129
423.467
425.792
428.156
430.86
435.03
442.505
337.48
363.253
377.276
391.405
405.541
408.138
407.366
406.684
406.236
405.952
405.786
405.706
405.689
405.721
405.791
405.892
406.022
406.184
406.385
406.645
406.995
407.494
408.248
409.42
411.194
413.596
416.334
419.038
421.57
423.969
426.317
428.696
431.393
435.516
442.906
335.708
361.45
374.143
386.324
402.482
408.749
408.177
407.326
406.811
406.518
406.37
406.324
406.354
406.439
406.568
406.733
406.928
407.154
407.416
407.725
408.107
408.608
409.312
410.364
411.967
414.253
417.046
419.898
422.535
424.975
427.333
429.722
432.442
436.597
443.764
334.627
360.581
372.816
383.721
398.997
409.581
409.687
408.368
407.591
407.179
406.975
406.908
406.938
407.037
407.188
407.379
407.605
407.865
408.167
408.521
408.949
409.488
410.201
411.201
412.664
414.778
417.539
420.59
423.506
426.154
428.631
431.083
433.844
438.006
444.762
334.555
360.967
373.3
383.832
397.616
409.939
411.842
409.835
408.597
407.987
407.693
407.586
407.611
407.733
407.923
408.165
408.444
408.758
409.11
409.514
409.991
410.581
411.348
412.398
413.885
415.974
418.686
421.74
424.716
427.428
429.944
432.413
435.195
439.372
445.72
334.659
361.539
373.987
384.458
397.759
409.473
414.119
411.756
409.799
408.868
408.428
408.239
408.216
408.319
408.518
408.792
409.126
409.512
409.955
410.464
411.062
411.786
412.692
413.877
415.483
417.668
420.472
423.627
426.69
429.446
431.975
434.449
437.279
441.486
446.925
335.182
362.647
375.585
386.584
400.032
410.439
415.819
414.329
411.329
409.906
409.279
409.001
408.922
408.989
409.173
409.449
409.798
410.213
410.698
411.275
411.977
412.855
413.981
415.449
417.359
419.783
422.686
425.819
428.815
431.507
433.975
436.379
439.112
443.057
447.475
336.249
364.232
377.859
389.769
403.681
412.974
417.328
417.209
413.352
411.074
410.142
409.75
409.615
409.652
409.83
410.124
410.508
410.966
411.497
412.119
412.873
413.822
415.062
416.715
418.897
421.636
424.787
428.019
430.99
433.602
435.972
438.269
440.878
444.54
448.004
337.833
366.117
380.475
393.58
408.092
415.931
418.796
419.013
416.146
412.666
411.188
410.59
410.354
410.324
410.451
410.71
411.079
411.544
412.104
412.777
413.6
414.635
415.981
417.768
420.118
423.049
426.36
429.654
432.598
435.145
437.43
439.614
442.043
445.333
448.119
338.873
367.392
382.068
395.725
410.532
417.84
419.983
420.092
418.562
415.075
412.523
411.516
411.138
411.052
411.164
411.436
411.832
412.315
412.873
413.523
414.31
415.31
416.627
418.396
420.754
423.733
427.135
430.527
433.528
436.077
438.317
440.417
442.713
445.755
448.164
339.564
368.283
382.797
396.267
411.229
418.639
420.737
421.179
420.788
419.057
415.661
413.24
412.209
411.856
411.836
412.034
412.396
412.883
413.473
414.163
414.979
415.979
417.267
418.984
421.275
424.186
427.532
430.885
433.857
436.37
438.558
440.587
442.778
445.677
448.087
339.712
368.504
382.362
394.91
410.011
418.856
421.326
421.858
421.821
421.375
420.074
417.353
414.654
413.103
412.555
412.589
412.955
413.513
414.16
414.87
415.674
416.637
417.845
419.426
421.542
424.3
427.589
430.998
434.073
436.667
438.892
440.921
443.088
445.93
448.207
338.873
367.432
380.433
391.297
405.254
416.9
420.917
421.893
422.14
422.201
422.151
421.799
420.501
417.733
415.07
413.906
413.738
414.059
414.697
415.505
416.396
417.404
418.625
420.175
422.17
424.698
427.707
430.905
433.886
436.458
438.681
440.707
442.864
445.698
448.02
338.143
366.718
379.504
389.224
400.987
414.294
420.501
421.771
421.79
421.567
421.303
421.033
420.701
420.034
418.331
415.692
414.499
414.581
415.124