/*--------------------------------*- C++ -*----------------------------------*\
| =========                 |                                                 |
| \\      /  F ield         | OpenFOAM: The Open Source CFD Toolbox           |
|  \\    /   O peration     | Version:  v2006                                 |
|   \\  /    A nd           | Website:  www.openfoam.com                      |
|    \\/     M anipulation  |                                                 |
\*---------------------------------------------------------------------------*/
FoamFile
{
    version     2.0;
    format      ascii;
    class       volVectorField;
    location    "18";
    object      U;
}
// * * * * * * * * * * * * * * * * * * * * * * * * * * * * * * * * * * * * * //

dimensions      [0 1 -1 0 0 0 0];


internalField   nonuniform List<vector> 
78750
(
(-0.0239341 -0.0969779 0.0985265)
(0.637183 -0.086827 0.0994396)
(0.771557 -0.120735 0.0809288)
(0.711731 -0.147641 0.0625212)
(0.659427 -0.166641 0.0528765)
(0.682096 -0.188341 0.0398766)
(0.704846 -0.19704 0.0366954)
(0.758059 -0.208137 0.0264618)
(0.780018 -0.214016 0.024641)
(0.800925 -0.225888 0.0134187)
(0.806397 -0.22827 0.0116135)
(0.820719 -0.236078 0.000120632)
(0.812971 -0.238809 -0.00405979)
(0.796329 -0.245905 -0.0157278)
(0.757739 -0.249402 -0.0220119)
(0.721158 -0.250179 -0.0293177)
(0.696964 -0.24353 -0.0307985)
(0.689413 -0.236636 -0.0264705)
(0.671007 -0.22639 -0.0221038)
(0.645329 -0.214027 -0.00484317)
(0.620478 -0.197611 0.0115018)
(0.598094 -0.181804 0.0419767)
(0.567974 -0.162747 0.0599268)
(0.537974 -0.142912 0.0937064)
(0.510342 -0.121882 0.120812)
(0.488039 -0.109984 0.15249)
(0.465246 -0.102448 0.159292)
(0.441566 -0.101911 0.141179)
(0.41188 -0.0924908 0.104982)
(0.375672 -0.0809003 0.0395129)
(0.332649 -0.0440585 -0.025453)
(0.281156 0.00096137 -0.15726)
(0.219975 0.0893832 -0.247758)
(0.137164 0.203261 -0.517432)
(0.0522185 0.259048 -0.50234)
(-0.00377989 0.403781 0.00213113)
(-0.102292 -0.137001 -0.23881)
(-0.102969 -0.18016 -0.196774)
(-0.0952126 -0.286255 -0.166759)
(-0.0783106 -0.373431 -0.137047)
(-0.0481736 -0.348499 -0.0968032)
(-0.031485 -0.19676 -0.0946276)
(0.0289937 -0.0308257 -0.0870445)
(0.0103545 -0.128393 -0.05746)
(0.0606621 -0.107067 -0.0343399)
(0.0697403 -0.013506 -0.00998803)
(0.0794592 0.0902216 0.0149359)
(0.0868964 0.174569 0.0301539)
(0.0907112 0.244609 0.0373499)
(0.0952359 0.259913 0.0464398)
(0.104924 0.227412 0.0816628)
(0.118885 0.211335 0.103287)
(0.131001 0.232196 0.0630306)
(0.13643 0.25375 -0.0166639)
(0.137224 0.267574 -0.104074)
(0.137996 0.274588 -0.179268)
(0.13953 0.280733 -0.236284)
(0.141404 0.288976 -0.277488)
(0.142391 0.301183 -0.307758)
(0.141701 0.319043 -0.331877)
(0.137411 0.344982 -0.353291)
(0.128478 0.380411 -0.373094)
(0.113239 0.426362 -0.391671)
(0.0930809 0.480231 -0.409772)
(0.0686177 0.540669 -0.431954)
(0.0447403 0.601192 -0.458668)
(0.0222503 0.658306 -0.499556)
(0.00494763 0.706266 -0.547663)
(-0.0011538 0.725493 -0.636405)
(-0.0048136 0.740458 -0.412096)
(-0.0150332 0.688609 -0.131065)
(-0.0673259 0.432281 -0.251189)
(-0.0869422 0.0664629 -0.158298)
(-0.0828802 -0.295532 4.86508e-07)
(-0.122562 -0.498459 -0.00335107)
(-0.160435 -0.565631 -0.0160028)
(-0.147168 -0.466634 -0.0639574)
(-0.130857 -0.444364 -0.144966)
(-0.117326 -0.491849 -0.103219)
(-0.10508 -0.418478 -0.0918643)
(-0.0739274 -0.343706 -0.0780288)
(-0.0542906 -0.296659 -0.060875)
(-0.0310922 -0.25817 -0.030933)
(-0.00886067 -0.269151 0.0304988)
(0.00747572 -0.33597 0.17381)
(0.0105708 -0.397335 0.399583)
(0.00194692 -0.361113 0.54914)
(-0.00479955 -0.247191 0.515743)
(-0.0078494 -0.147049 0.399762)
(-0.00599449 -0.0780915 0.285216)
(-0.00104047 -0.0323906 0.193924)
(0.00479047 0.00213692 0.119333)
(0.0111535 0.031179 0.0572871)
(0.0172791 0.0583884 0.00314606)
(0.0229216 0.0864191 -0.046683)
(0.0278467 0.117709 -0.0947848)
(0.0320782 0.154734 -0.143645)
(0.0352566 0.198991 -0.194704)
(0.0376321 0.251549 -0.249606)
(0.0385495 0.311339 -0.307014)
(0.0385309 0.377037 -0.36934)
(0.0363393 0.447693 -0.434954)
(0.030968 0.521833 -0.5237)
(0.0238939 0.612478 -0.571679)
(0.00567227 0.669364 -0.18974)
(-0.00349342 0.753792 0.0214043)
(0.00175492 0.538711 -0.0560325)
(-0.0123401 0.116626 0.0145045)
(-0.0338363 0.0239187 0.243443)
(-0.122551 0.0172888 -0.0477724)
(-0.161579 -0.217697 -0.0959903)
(-0.226418 -0.296772 -0.0113095)
(-0.242324 -0.347257 -0.0576203)
(-0.260252 -0.375103 -0.0298188)
(-0.242208 -0.405376 -0.0220436)
(-0.219535 -0.338223 0.00155893)
(-0.174693 -0.260034 0.0041379)
(-0.143098 -0.144677 -0.00374955)
(-0.109334 -0.0771336 -0.0249583)
(-0.0933539 -0.0198459 -0.0412617)
(-0.0860621 0.00948788 -0.0400434)
(-0.0858452 0.0158797 -0.000797561)
(-0.0869561 0.0228005 0.0512797)
(-0.0874701 0.0417363 0.0812179)
(-0.087534 0.0660829 0.0964108)
(-0.0862243 0.0935036 0.104777)
(-0.0832354 0.12531 0.108754)
(-0.0782564 0.161216 0.110517)
(-0.0719279 0.200604 0.109956)
(-0.0649187 0.243067 0.105645)
(-0.0578904 0.287913 0.0953549)
(-0.0513512 0.334802 0.0764518)
(-0.0456332 0.384099 0.0466016)
(-0.0405119 0.436944 0.00407011)
(-0.0361413 0.494109 -0.0497571)
(-0.0319682 0.55671 -0.11225)
(-0.0286381 0.624015 -0.171929)
(-0.0252769 0.692028 -0.215892)
(-0.0182485 0.749807 -0.16818)
(-0.00912437 0.710885 0.0991409)
(0.03613 0.488933 -0.149659)
(0.0831724 0.429448 -0.230378)
(0.115198 0.322158 -0.279188)
(0.136691 0.267169 -0.29277)
(0.14655 0.23349 -0.310224)
(0.154169 0.205184 -0.329168)
(0.152647 0.181561 -0.349858)
(0.148136 0.044778 -0.340111)
(0.16079 -0.301739 -0.291386)
(0.157495 -0.642545 -0.211139)
(0.135488 -0.846127 -0.115453)
(0.100997 -0.858333 -0.00168979)
(0.0701766 -0.732313 0.0868975)
(0.0468335 -0.588579 0.126255)
(0.0322943 -0.480631 0.132259)
(0.0248736 -0.396483 0.122757)
(0.0203849 -0.317543 0.108181)
(0.0156438 -0.238872 0.101599)
(0.0105137 -0.16944 0.108122)
(0.00740447 -0.116494 0.120709)
(0.00716424 -0.0787048 0.132794)
(0.0087649 -0.0507703 0.140171)
(0.0113027 -0.0264708 0.14066)
(0.0134231 -0.00219372 0.136275)
(0.013395 0.027012 0.132811)
(0.0108603 0.0675793 0.134717)
(0.00701516 0.12225 0.142199)
(0.00265973 0.189645 0.151424)
(-0.00185106 0.267009 0.155934)
(-0.00629644 0.352203 0.149424)
(-0.00989859 0.443944 0.128808)
(-0.0126937 0.534443 0.101629)
(-0.0131079 0.605432 0.0854051)
(-0.0110454 0.628191 0.116952)
(-0.00110945 0.526939 0.18834)
(0.0210943 0.0387953 -0.133246)
(0.0549325 0.0171374 -0.1542)
(0.0942983 -0.0229625 -0.152301)
(0.138736 -0.0657649 -0.141734)
(0.185385 -0.107837 -0.126291)
(0.231438 -0.143188 -0.110684)
(0.276331 -0.173185 -0.0991517)
(0.328311 -0.236273 -0.0738685)
(0.365821 -0.27757 -0.0305936)
(0.382128 -0.268362 0.00424293)
(0.364498 -0.164056 -0.00597968)
(0.318155 -0.0175324 -0.0149686)
(0.283482 0.0473775 0.0289443)
(0.26686 0.0205249 0.0912362)
(0.256367 -0.040677 0.126733)
(0.248455 -0.0866157 0.129998)
(0.241472 -0.1113 0.118714)
(0.233283 -0.124046 0.103043)
(0.222648 -0.129636 0.0871936)
(0.210565 -0.130716 0.0745053)
(0.197165 -0.128923 0.0678159)
(0.180365 -0.116609 0.0771489)
(0.157952 -0.0717662 0.112253)
(0.129672 0.00842631 0.151789)
(0.1001 0.0959552 0.1692)
(0.0730523 0.166898 0.165903)
(0.0495003 0.219381 0.15899)
(0.0300503 0.263051 0.160194)
(0.0143368 0.306678 0.170995)
(0.00187859 0.353985 0.186043)
(-0.00653859 0.406255 0.197419)
(-0.00991417 0.459898 0.200587)
(-0.00759162 0.500016 0.19739)
(-0.00336476 0.506986 0.198504)
(0.00279881 0.430098 0.175769)
(0.00406656 -0.063477 0.102884)
(0.0287851 -0.19875 0.142122)
(0.0537836 -0.292187 0.162191)
(0.0769849 -0.363272 0.179744)
(0.0968667 -0.423326 0.194429)
(0.112397 -0.48102 0.207315)
(0.120332 -0.529442 0.217338)
(0.118709 -0.552135 0.21685)
(0.110853 -0.552195 0.200124)
(0.0999579 -0.538955 0.166147)
(0.0961385 -0.517156 0.11855)
(0.0994658 -0.487795 0.0698406)
(0.107803 -0.459083 0.0299327)
(0.117523 -0.423396 0.00423958)
(0.123225 -0.359389 0.000881803)
(0.123419 -0.273363 0.0125164)
(0.121235 -0.189287 0.022062)
(0.117382 -0.117147 0.025756)
(0.111724 -0.0545387 0.0290706)
(0.104471 0.00575904 0.0395075)
(0.0958932 0.0700848 0.0618657)
(0.0854461 0.140206 0.0927217)
(0.0724478 0.203036 0.116081)
(0.0590114 0.246444 0.120893)
(0.0473727 0.271544 0.11079)
(0.0378047 0.286603 0.0966165)
(0.0299323 0.299361 0.0870993)
(0.0233323 0.314643 0.085353)
(0.0176502 0.335608 0.0918552)
(0.0127773 0.361378 0.105808)
(0.00918171 0.382 0.121869)
(0.0070802 0.392603 0.135385)
(0.00570055 0.404015 0.147695)
(0.00486132 0.418912 0.152687)
(0.00427295 0.389083 0.126743)
(0.0141361 -0.236297 0.031814)
(0.037973 -0.37495 0.0178281)
(0.0571669 -0.415156 -0.00145612)
(0.0713555 -0.41628 -0.0214132)
(0.0817605 -0.398192 -0.0414046)
(0.0882358 -0.370219 -0.060322)
(0.0908901 -0.343292 -0.0745517)
(0.0905072 -0.325411 -0.0804099)
(0.0881987 -0.314459 -0.0767905)
(0.0849382 -0.301052 -0.0640099)
(0.0809118 -0.275283 -0.0458184)
(0.0766824 -0.237223 -0.0312144)
(0.0720723 -0.198608 -0.0256667)
(0.0667702 -0.170245 -0.0274446)
(0.0611364 -0.152919 -0.0328101)
(0.0561712 -0.141169 -0.0383832)
(0.0528626 -0.130123 -0.0424908)
(0.0513409 -0.117886 -0.0451103)
(0.0512836 -0.104354 -0.0463525)
(0.0521719 -0.0892483 -0.0456915)
(0.0536594 -0.0693534 -0.0402071)
(0.0560677 -0.0352498 -0.0214054)
(0.0588627 0.0178933 0.0128495)
(0.0600905 0.0835928 0.0510329)
(0.0588465 0.149272 0.079257)
(0.0555618 0.203894 0.0908268)
(0.0510878 0.244597 0.088209)
(0.0462703 0.275367 0.078549)
(0.0420054 0.301738 0.0690819)
(0.0385813 0.328379 0.0642059)
(0.0356123 0.358563 0.0655853)
(0.032057 0.391134 0.0736317)
(0.0223382 0.42516 0.0918656)
(0.0128278 0.451113 0.10526)
(0.00678944 0.420038 0.0915825)
(0.00121117 -0.369243 0.0386466)
(-0.000109051 -0.473455 0.048279)
(-0.000870048 -0.486778 0.0570943)
(-0.00103399 -0.486132 0.0661385)
(0.000215019 -0.480653 0.0747019)
(0.00307864 -0.470617 0.0812083)
(0.00709232 -0.455535 0.0844413)
(0.0111975 -0.43683 0.0835514)
(0.0142156 -0.417965 0.0782288)
(0.0157056 -0.401598 0.0685666)
(0.0160298 -0.387038 0.0551089)
(0.0162717 -0.368016 0.0391827)
(0.0181347 -0.335252 0.0228884)
(0.0221163 -0.28866 0.00839146)
(0.0273585 -0.235347 -0.00414976)
(0.0330025 -0.182138 -0.0150253)
(0.0383082 -0.133788 -0.0238491)
(0.0424898 -0.0914204 -0.0302472)
(0.0449906 -0.0522023 -0.0339988)
(0.0453863 -0.0103366 -0.0336297)
(0.0426195 0.0399484 -0.0241389)
(0.036019 0.0959859 -0.00263181)
(0.0272687 0.14888 0.0235546)
(0.0191449 0.193498 0.0442503)
(0.0132848 0.229262 0.0549942)
(0.00988303 0.257331 0.0565127)
(0.00846414 0.279393 0.0516589)
(0.0084664 0.297078 0.0443039)
(0.00941448 0.31207 0.0382713)
(0.01094 0.327181 0.0357845)
(0.012801 0.348696 0.0393762)
(0.0143015 0.390076 0.0549349)
(0.00972926 0.447158 0.0793429)
(0.0044232 0.472459 0.0897827)
(0.00250445 0.434293 0.0782838)
(-0.00134896 -0.30737 -0.00456549)
(-0.00228055 -0.433856 -0.0271944)
(-0.00252323 -0.464982 -0.0374797)
(-0.00222055 -0.474632 -0.0428328)
(-0.00157084 -0.475202 -0.0450368)
(-0.00030639 -0.468557 -0.0439345)
(0.00174363 -0.454606 -0.0392158)
(0.00468215 -0.432653 -0.0308764)
(0.00835422 -0.402936 -0.0197093)
(0.0121383 -0.368045 -0.00729866)
(0.0150987 -0.333313 0.00448009)
(0.0165854 -0.305055 0.0138718)
(0.0167029 -0.285743 0.0197254)
(0.0161604 -0.272554 0.0219743)
(0.0155286 -0.260869 0.0211086)
(0.015139 -0.24527 0.0168914)
(0.0153075 -0.219505 0.0094106)
(0.0154811 -0.183287 0.00186055)
(0.0146627 -0.13798 -0.00208257)
(0.0127425 -0.08113 -5.77716e-05)
(0.0105871 -0.0139007 0.00810079)
(0.00866894 0.0539512 0.0200412)
(0.0075206 0.111003 0.0309973)
(0.00759681 0.15291 0.0373639)
(0.00888834 0.182748 0.0387669)
(0.0111776 0.205072 0.0362479)
(0.0141462 0.223213 0.0308872)
(0.0173264 0.239556 0.0239643)
(0.0201338 0.256327 0.0170681)
(0.0219675 0.277061 0.0119646)
(0.0218795 0.311147 0.0133432)
(0.0180435 0.375167 0.032153)
(0.0095754 0.451884 0.0599278)
(0.00311196 0.477534 0.068144)
(0.000869439 0.432154 0.0575597)
(-0.000736246 -0.315635 0.00141234)
(0.0018221 -0.43202 -0.00176491)
(0.0040856 -0.456736 -0.00270727)
(0.00598661 -0.463578 -0.00339055)
(0.00754974 -0.464073 -0.00439941)
(0.00854042 -0.460719 -0.0058404)
(0.00892579 -0.454699 -0.00734267)
(0.00882102 -0.446511 -0.00810541)
(0.00850947 -0.435635 -0.00708546)
(0.00844071 -0.419993 -0.00326509)
(0.00908635 -0.396256 0.00399469)
(0.0105417 -0.362297 0.0141656)
(0.0122266 -0.319949 0.025216)
(0.0132187 -0.273503 0.0345201)
(0.0128278 -0.227068 0.0399767)
(0.0107867 -0.182637 0.0407616)
(0.00717663 -0.138188 0.0368726)
(0.00243317 -0.089137 0.0295913)
(-0.00327007 -0.0363438 0.0229262)
(-0.00954438 0.0135375 0.020474)
(-0.0144988 0.0563919 0.0217465)
(-0.0167573 0.0921356 0.0239401)
(-0.0165093 0.121252 0.0250762)
(-0.014432 0.144614 0.0241993)
(-0.011254 0.164276 0.0210792)
(-0.00751387 0.182736 0.0156962)
(-0.00365996 0.202361 0.00833435)
(-0.000119787 0.224862 0.00037795)
(0.00288432 0.251926 -0.00560114)
(0.00539776 0.289291 -0.00647774)
(0.00735792 0.350744 0.00366925)
(0.00724485 0.441283 0.0290648)
(0.00406098 0.504113 0.0497906)
(0.000498901 0.514864 0.0555926)
(-0.000247944 0.43125 0.0439642)
(0.000749157 -0.329828 -0.0146444)
(0.00540176 -0.475956 -0.0301552)
(0.00922552 -0.504922 -0.0369979)
(0.012683 -0.509078 -0.0418144)
(0.016092 -0.502761 -0.0464827)
(0.0190819 -0.487775 -0.0511886)
(0.0213021 -0.464984 -0.0554917)
(0.0224263 -0.436676 -0.058497)
(0.0221421 -0.406962 -0.0590733)
(0.0203462 -0.380057 -0.056213)
(0.0172655 -0.357847 -0.0491616)
(0.0133648 -0.338985 -0.0373069)
(0.00924401 -0.319703 -0.0204103)
(0.00543691 -0.295533 0.000508497)
(0.00219292 -0.263694 0.0224099)
(-0.000567084 -0.224335 0.0411329)
(-0.00296037 -0.178529 0.0533983)
(-0.00467211 -0.126392 0.0575609)
(-0.00515604 -0.0700771 0.0542785)
(-0.00456161 -0.017318 0.0474156)
(-0.00378242 0.0251882 0.0412017)
(-0.00312825 0.0576344 0.036589)
(-0.00214896 0.0829202 0.0327899)
(-0.000589988 0.10377 0.0288113)
(0.00151075 0.122502 0.0239369)
(0.00401092 0.14142 0.0175826)
(0.00665519 0.162709 0.00934324)
(0.00884058 0.186877 -4.43803e-05)
(0.00986552 0.211608 -0.00762635)
(0.0100112 0.239244 -0.0103388)
(0.00994988 0.285241 -0.0042011)
(0.00989047 0.374373 0.0187511)
(0.00737422 0.463113 0.0430692)
(0.00411607 0.483691 0.0492352)
(0.00204515 0.41425 0.0391738)
(0.00131271 -0.342942 -0.0113495)
(0.00520896 -0.464946 -0.0172757)
(0.00804012 -0.48967 -0.0204855)
(0.0102749 -0.494187 -0.0237588)
(0.0121555 -0.49006 -0.0282082)
(0.0134242 -0.478895 -0.0342822)
(0.0140299 -0.461054 -0.0417818)
(0.0141555 -0.436857 -0.0499032)
(0.0140747 -0.406821 -0.0575336)
(0.0138955 -0.372301 -0.0634249)
(0.0134582 -0.336041 -0.0663262)
(0.0125251 -0.30121 -0.0652101)
(0.0110422 -0.269561 -0.0593128)
(0.00918117 -0.240621 -0.0479432)
(0.00726248 -0.21247 -0.030801)
(0.00561988 -0.183301 -0.00921727)
(0.00443467 -0.152385 0.0135519)
(0.00379228 -0.11881 0.0340229)
(0.00390772 -0.0798066 0.0494045)
(0.00501283 -0.0343412 0.057394)
(0.00664391 0.0100722 0.0578614)
(0.00785292 0.0443639 0.0537552)
(0.00834711 0.0676602 0.0483587)
(0.00854478 0.0844661 0.0429955)
(0.00895073 0.0994096 0.0372922)
(0.00993825 0.116575 0.0301058)
(0.0117753 0.140904 0.0198263)
(0.0143501 0.177206 0.0051752)
(0.0163198 0.223016 -0.0115625)
(0.0158855 0.270306 -0.0225918)
(0.0131057 0.329579 -0.0195821)
(0.00896126 0.422626 0.00351192)
(0.00505127 0.504597 0.0275716)
(0.00169403 0.520148 0.0340661)
(-1.02589e-05 0.433185 0.025872)
(0.00245434 -0.351941 -0.0163679)
(0.00995333 -0.485136 -0.0219473)
(0.0159685 -0.510034 -0.0259919)
(0.0210677 -0.511467 -0.0306909)
(0.0256831 -0.501191 -0.0376521)
(0.0287635 -0.479928 -0.0473591)
(0.029621 -0.45011 -0.0581082)
(0.0285753 -0.41685 -0.0672662)
(0.0264782 -0.384494 -0.0734899)
(0.0240824 -0.354778 -0.0768722)
(0.0218449 -0.327581 -0.0779781)
(0.0199336 -0.302379 -0.0771741)
(0.0183307 -0.278866 -0.0744601)
(0.0169805 -0.256544 -0.0694457)
(0.0158839 -0.234102 -0.0612015)
(0.0151209 -0.209412 -0.048287)
(0.0147794 -0.180529 -0.0298294)
(0.0147829 -0.147297 -0.00721589)
(0.0149262 -0.111194 0.01628)
(0.0151275 -0.0725628 0.0374526)
(0.0155905 -0.0302389 0.0537079)
(0.0162611 0.0131735 0.0629216)
(0.0161168 0.0498168 0.0649674)
(0.0144641 0.0746113 0.062504)
(0.0119062 0.0903346 0.0585501)
(0.0092351 0.102952 0.0538607)
(0.00709558 0.119279 0.0470751)
(0.00647025 0.149616 0.0350192)
(0.00801527 0.204065 0.0146197)
(0.00950246 0.273839 -0.00945569)
(0.00859692 0.345274 -0.0210032)
(0.00693324 0.433341 -0.00917805)
(0.00518689 0.504447 0.0108998)
(0.00337407 0.518175 0.0198442)
(0.00175063 0.426425 0.0170321)
(0.00370813 -0.395531 0.00124136)
(0.0110416 -0.513693 0.00420383)
(0.0166824 -0.532046 -0.000405015)
(0.0216954 -0.528313 -0.00815713)
(0.0265002 -0.5093 -0.0216168)
(0.0293597 -0.474231 -0.0415236)
(0.0294327 -0.431206 -0.0622634)
(0.0279422 -0.389321 -0.0782826)
(0.0261168 -0.351812 -0.088426)
(0.0244465 -0.318343 -0.0937769)
(0.0230468 -0.287827 -0.0956559)
(0.0218891 -0.259665 -0.0950354)
(0.0208629 -0.234054 -0.0925637)
(0.0198459 -0.211573 -0.0886695)
(0.0188168 -0.192316 -0.0835056)
(0.0178825 -0.175242 -0.0766813)
(0.0172151 -0.158048 -0.0668966)
(0.0170339 -0.13746 -0.0519962)
(0.0174521 -0.110833 -0.0309333)
(0.0181354 -0.0789693 -0.00631641)
(0.018619 -0.0447646 0.0176153)
(0.0188212 -0.00915831 0.0380764)
(0.0189354 0.0276796 0.0532714)
(0.0186799 0.0610955 0.0613445)
(0.0174568 0.0850241 0.0629595)
(0.0155417 0.100066 0.0612522)
(0.0135848 0.111793 0.0582049)
(0.0123082 0.128308 0.0533458)
(0.012944 0.165716 0.0432828)
(0.0155485 0.241381 0.0228556)
(0.0147173 0.330269 0.00137251)
(0.0109875 0.427135 -0.00160345)
(0.00718513 0.506067 0.00735966)
(0.00410935 0.525095 0.0124704)
(0.00132446 0.442675 0.0102661)
(0.00241184 -0.422066 0.01757)
(0.00701159 -0.536908 0.0221519)
(0.0109934 -0.551658 0.0166888)
(0.0149124 -0.5421 0.0061355)
(0.0191752 -0.507482 -0.0154103)
(0.0212027 -0.447353 -0.0485163)
(0.0198735 -0.387654 -0.0784445)
(0.0174193 -0.34252 -0.0969677)
(0.0151895 -0.310319 -0.106083)
(0.0134159 -0.286068 -0.109449)
(0.0121138 -0.265932 -0.109406)
(0.0112918 -0.24747 -0.107166)
(0.0109287 -0.229236 -0.103341)
(0.0109302 -0.210708 -0.098283)
(0.01112 -0.192249 -0.0922855)
(0.01132 -0.174536 -0.0855384)
(0.011469 -0.157579 -0.0778126)
(0.011641 -0.140042 -0.0680409)
(0.012015 -0.119121 -0.054099)
(0.0127837 -0.0917486 -0.034063)
(0.013724 -0.0585577 -0.00976055)
(0.0143067 -0.02424 0.0140212)
(0.0144213 0.00823266 0.0343772)
(0.0144122 0.038712 0.0504443)
(0.0143157 0.0655463 0.0611833)
(0.0138109 0.0847975 0.065876)
(0.0130063 0.0967891 0.0660481)
(0.0120977 0.108362 0.063126)
(0.0118617 0.139948 0.0553289)
(0.0133703 0.231984 0.035367)
(0.0138871 0.370543 0.00292243)
(0.005346 0.472109 -0.00972319)
(0.000255973 0.539914 -0.00582841)
(-0.00173917 0.551556 -0.00235907)
(-0.00188691 0.451618 -0.00122568)
(-0.000934983 -0.440288 0.0411683)
(9.07961e-05 -0.564324 0.0484479)
(0.00168547 -0.579222 0.044073)
(0.00409622 -0.564763 0.0339934)
(0.00797529 -0.511141 0.00945844)
(0.011259 -0.419278 -0.0324859)
(0.0114528 -0.340755 -0.0701548)
(0.0105715 -0.290388 -0.0921718)
(0.00998165 -0.257531 -0.103245)
(0.00966116 -0.23375 -0.10838)
(0.00943812 -0.214916 -0.110096)
(0.00920612 -0.199048 -0.109574)
(0.00894335 -0.185028 -0.107416)
(0.00868045 -0.172062 -0.103941)
(0.00844438 -0.159541 -0.0993166)
(0.00822032 -0.147067 -0.0936324)
(0.00796218 -0.134399 -0.0868888)
(0.00764899 -0.121129 -0.0787994)
(0.00732414 -0.106123 -0.0684211)
(0.00711189 -0.0871441 -0.0539682)
(0.00716423 -0.0618385 -0.033992)
(0.00731087 -0.0315106 -0.0105452)
(0.00704715 -0.00137315 0.0117961)
(0.00620998 0.0253302 0.0307042)
(0.00496534 0.0485205 0.0462123)
(0.00332669 0.0678256 0.058055)
(0.00125956 0.0821031 0.0656812)
(-0.00144843 0.0941886 0.069433)
(-0.0045664 0.12118 0.0684731)
(-0.00510228 0.208325 0.0571812)
(0.0014402 0.383615 0.0262777)
(-0.000142988 0.52368 -0.00466468)
(-0.00343121 0.560894 -0.00854357)
(-0.0034506 0.55588 -0.00725284)
(-0.00198043 0.429236 -0.0022182)
(-0.00385553 -0.427444 0.0409859)
(-0.00423632 -0.590351 0.0440338)
(-0.0037302 -0.615454 0.0432157)
(-0.00167004 -0.604596 0.0407364)
(0.00271352 -0.549513 0.0312844)
(0.00878219 -0.432242 9.63533e-05)
(0.0112219 -0.32628 -0.042885)
(0.0102912 -0.268227 -0.0706043)
(0.00913746 -0.236444 -0.0847744)
(0.00843596 -0.215318 -0.0921212)
(0.00818327 -0.198647 -0.0958892)
(0.00822962 -0.184106 -0.0973962)
(0.00839686 -0.170707 -0.0972752)
(0.00854306 -0.157959 -0.0958767)
(0.0085711 -0.145622 -0.0933894)
(0.0084356 -0.133536 -0.0899026)
(0.00811699 -0.121503 -0.0854075)
(0.00760456 -0.109147 -0.0797321)
(0.00688549 -0.0956904 -0.0723861)
(0.00596732 -0.0796868 -0.0623406)
(0.00486634 -0.0591545 -0.0480902)
(0.00364809 -0.0330565 -0.0290028)
(0.00223612 -0.0039899 -0.00751086)
(0.000329165 0.0233762 0.0126361)
(-0.00215816 0.046757 0.0299064)
(-0.00510947 0.0661984 0.0442844)
(-0.00846571 0.081733 0.0553245)
(-0.0121902 0.0941693 0.0622775)
(-0.0161648 0.111329 0.0646691)
(-0.018012 0.163186 0.0614445)
(-0.0112879 0.303008 0.0486498)
(-4.87067e-05 0.498191 0.0237131)
(0.00101148 0.555377 0.011299)
(0.000439607 0.551978 0.00903121)
(0.000413022 0.416494 0.0109043)
(-0.000515283 -0.426997 0.0311426)
(0.00229647 -0.631297 0.0342907)
(0.00296643 -0.672936 0.0387471)
(0.00451593 -0.672179 0.0451638)
(0.00540392 -0.632575 0.0546847)
(0.00639102 -0.500911 0.0508672)
(0.00668899 -0.335004 0.00482795)
(0.00369762 -0.240877 -0.0383531)
(0.00154486 -0.196687 -0.0620283)
(0.000559823 -0.172851 -0.0742215)
(0.00027323 -0.157034 -0.080917)
(0.000375259 -0.144574 -0.0847303)
(0.000671364 -0.133462 -0.0866605)
(0.00100684 -0.122926 -0.0870279)
(0.00125281 -0.112688 -0.0860133)
(0.00132957 -0.102509 -0.0837693)
(0.00118678 -0.0921831 -0.0804028)
(0.000811726 -0.081374 -0.0758901)
(0.0002063 -0.0692042 -0.0698176)
(-0.000657158 -0.0544391 -0.0614137)
(-0.00171137 -0.0360153 -0.0499162)
(-0.0028772 -0.013683 -0.0350294)
(-0.00407931 0.0108046 -0.0178775)
(-0.00542785 0.0341146 -0.000799676)
(-0.00705004 0.0539538 0.0145658)
(-0.00894063 0.0700588 0.0279955)
(-0.0110821 0.0830304 0.0396967)
(-0.0134267 0.0936305 0.049595)
(-0.0158671 0.104712 0.0575451)
(-0.0173623 0.129507 0.0625284)
(-0.0142991 0.211839 0.0607617)
(-0.000756173 0.403581 0.0478749)
(0.00514693 0.535212 0.0356809)
(0.00338386 0.547195 0.0318947)
(0.00234333 0.420114 0.0266108)
(0.00488775 -0.483684 0.0213037)
(0.00736304 -0.677057 0.0254747)
(0.00422268 -0.710884 0.0278545)
(-0.0010906 -0.700938 0.03086)
(-0.0109155 -0.645283 0.0366355)
(-0.0234959 -0.507855 0.0424154)
(-0.0295871 -0.329878 0.0112067)
(-0.0320228 -0.233846 -0.0269217)
(-0.0304519 -0.19084 -0.0471885)
(-0.0275799 -0.166572 -0.0578163)
(-0.0243494 -0.149607 -0.0641499)
(-0.0210374 -0.135694 -0.068418)
(-0.0177263 -0.123007 -0.0713959)
(-0.0145913 -0.110951 -0.0731721)
(-0.0117932 -0.0993975 -0.0737113)
(-0.00938025 -0.0881644 -0.0730436)
(-0.00738983 -0.0770615 -0.0712166)
(-0.00583607 -0.0659042 -0.0682721)
(-0.00471601 -0.0545714 -0.0642441)
(-0.0039378 -0.0420927 -0.0587258)
(-0.00339567 -0.0268303 -0.0507782)
(-0.00302178 -0.00835711 -0.040002)
(-0.00269643 0.0122361 -0.0269441)
(-0.00238515 0.0325732 -0.0130356)
(-0.00218152 0.0503005 0.000261294)
(-0.00218715 0.0644629 0.0123512)
(-0.00241928 0.0752861 0.0233821)
(-0.00289009 0.0834037 0.033702)
(-0.00358268 0.0899635 0.0437175)
(-0.00418339 0.0998856 0.0542206)
(-0.0041551 0.141076 0.0637344)
(0.00124679 0.299467 0.0629891)
(0.00557115 0.497235 0.0539551)
(0.00397604 0.531491 0.0482534)
(0.00241363 0.429174 0.0361069)
(0.00374971 -0.532296 0.0340066)
(-0.00444034 -0.654729 0.0429454)
(-0.0153008 -0.658449 0.0415919)
(-0.0289317 -0.622846 0.0368469)
(-0.046392 -0.53222 0.0284895)
(-0.0574714 -0.402353 0.0154989)
(-0.0574326 -0.289907 -0.00750853)
(-0.0532659 -0.237166 -0.0272726)
(-0.0478181 -0.206212 -0.0372938)
(-0.0425491 -0.182603 -0.0442953)
(-0.0376031 -0.162777 -0.0496582)
(-0.0330349 -0.145349 -0.0537877)
(-0.0288086 -0.129487 -0.0568318)
(-0.0248983 -0.114645 -0.0588514)
(-0.0212961 -0.100486 -0.0598732)
(-0.0180201 -0.0868149 -0.0599001)
(-0.0150989 -0.0735237 -0.0589336)
(-0.0125669 -0.060466 -0.0569745)
(-0.0104397 -0.0472439 -0.0539466)
(-0.00865921 -0.0332224 -0.0496207)
(-0.00719629 -0.0179493 -0.043728)
(-0.00595137 -0.00156406 -0.0362055)
(-0.00471745 0.0150796 -0.0273922)
(-0.00332142 0.0307395 -0.017979)
(-0.00180446 0.0443096 -0.00871569)
(-0.000315461 0.0552634 -0.000106999)
(0.00102124 0.0637594 0.00771035)
(0.00212686 0.0704256 0.0148627)
(0.00294429 0.0765087 0.0217496)
(0.00346261 0.0861993 0.0297433)
(0.00277037 0.122654 0.0417915)
(0.00135768 0.270129 0.0543075)
(0.000262743 0.47828 0.0519224)
(-0.00124257 0.518611 0.0459053)
(-0.000652477 0.42811 0.0323492)
(-0.00942702 -0.495332 0.056203)
(-0.0269094 -0.583164 0.0611373)
(-0.0411345 -0.580982 0.0568195)
(-0.0545181 -0.549012 0.0502235)
(-0.0624355 -0.490645 0.0414809)
(-0.0574701 -0.423456 0.0313925)
(-0.0455633 -0.358745 0.0218481)
(-0.0336838 -0.300612 0.011421)
(-0.0240316 -0.252962 0.00105776)
(-0.0171123 -0.215153 -0.00893031)
(-0.0126037 -0.185168 -0.0178008)
(-0.00978202 -0.160692 -0.0252155)
(-0.00796953 -0.139803 -0.0311189)
(-0.0066722 -0.121255 -0.0355882)
(-0.00561042 -0.104332 -0.038726)
(-0.00467584 -0.0886177 -0.0406262)
(-0.0038509 -0.0738105 -0.0413667)
(-0.0031501 -0.0596135 -0.0409963)
(-0.00258371 -0.0457005 -0.0395201)
(-0.0021419 -0.0317613 -0.0369052)
(-0.00177928 -0.0176167 -0.0331236)
(-0.00142122 -0.00334292 -0.0282238)
(-0.0010324 0.0106565 -0.0224013)
(-0.000647529 0.0236881 -0.01603)
(-0.000315877 0.0350354 -0.0095646)
(-0.000110999 0.0443169 -0.00336714)
(-0.000116188 0.0516977 0.00245177)
(-0.000370897 0.0579279 0.00808119)
(-0.000873333 0.0647279 0.0141097)
(-0.00182722 0.0782211 0.0221851)
(-0.00409477 0.12744 0.0354291)
(-0.00489111 0.28453 0.0503273)
(-0.00453263 0.485454 0.0473664)
(-0.00547568 0.508144 0.0406202)
(-0.00202416 0.399167 0.0277744)
(-0.0140693 -0.381464 0.0485649)
(-0.0258085 -0.515158 0.0419624)
(-0.0326086 -0.551934 0.0364204)
(-0.0346213 -0.570871 0.0347228)
(-0.0329956 -0.579349 0.0360161)
(-0.0276501 -0.566709 0.0394511)
(-0.01773 -0.517261 0.043512)
(-0.00486205 -0.436854 0.0450403)
(0.00814648 -0.352741 0.0424261)
(0.019143 -0.278214 0.0358183)
(0.0266911 -0.218155 0.0260158)
(0.0305684 -0.172907 0.0147653)
(0.031424 -0.139567 0.00387527)
(0.030304 -0.114128 -0.00556107)
(0.0281625 -0.0933489 -0.0131769)
(0.0256356 -0.0753114 -0.0189708)
(0.0230751 -0.0590349 -0.0230786)
(0.0206179 -0.0439566 -0.0256631)
(0.0182812 -0.0296946 -0.0268625)
(0.0160573 -0.0159904 -0.0267771)
(0.0139375 -0.00269414 -0.0254848)
(0.01191 0.0102038 -0.0230741)
(0.00992399 0.0225487 -0.0196803)
(0.00789716 0.0340261 -0.0155066)
(0.00574936 0.04424 -0.0108097)
(0.00339064 0.0528922 -0.00582464)
(0.00067854 0.0599791 -0.000653085)
(-0.00249286 0.0659549 0.00480987)
(-0.00604561 0.0721286 0.0109379)
(-0.0100357 0.0831293 0.0189067)
(-0.014239 0.11923 0.0315408)
(-0.0139765 0.243045 0.0499688)
(-0.00660899 0.447845 0.0547707)
(-0.00334297 0.465306 0.046622)
(-9.0257e-05 0.362432 0.0332643)
(-0.00684974 -0.330599 0.0222534)
(-0.00480319 -0.525341 0.00597762)
(-0.00230832 -0.586967 -0.00040403)
(0.000515902 -0.610905 -0.00354555)
(0.00229561 -0.618517 -0.00557173)
(0.00301077 -0.614564 -0.00689083)
(0.00361982 -0.597465 -0.00593973)
(0.00642133 -0.556577 0.00036446)
(0.0131405 -0.486966 0.012069)
(0.0229742 -0.400706 0.0255227)
(0.0340904 -0.310314 0.035984)
(0.0441138 -0.226411 0.0396069)
(0.0509912 -0.157562 0.0354529)
(0.0538208 -0.107422 0.0259996)
(0.0531862 -0.0732532 0.0150538)
(0.0504095 -0.0492275 0.00510934)
(0.0466492 -0.0306262 -0.00300475)
(0.0426405 -0.014894 -0.00921792)
(0.0386951 -0.000831844 -0.013673)
(0.0349063 0.0121836 -0.0165567)
(0.0313052 0.0245053 -0.0180468)
(0.0278759 0.0363022 -0.0183019)
(0.0245649 0.0475963 -0.0174728)
(0.0212906 0.0583027 -0.015715)
(0.0179456 0.0682715 -0.0131886)
(0.0144075 0.0773515 -0.0100414)
(0.0105368 0.0854692 -0.00637565)
(0.00616647 0.0927204 -0.00220826)
(0.00122526 0.0996034 0.00258459)
(-0.00406823 0.107942 0.00848622)
(-0.00935636 0.125881 0.017359)
(-0.0125253 0.18915 0.0343182)
(-0.0039772 0.361039 0.057013)
(0.0026258 0.414246 0.0547512)
(0.00141674 0.345648 0.0414801)
(0.000266497 -0.337914 -0.00438656)
(0.0111335 -0.548879 -0.0142365)
(0.0193491 -0.611416 -0.0158561)
(0.025657 -0.626676 -0.0185425)
(0.0306677 -0.622591 -0.0238441)
(0.0338909 -0.603263 -0.033348)
(0.0340648 -0.572842 -0.0463826)
(0.031344 -0.540583 -0.0582275)
(0.0275253 -0.507883 -0.0626094)
(0.02533 -0.465727 -0.0550504)
(0.0271379 -0.40681 -0.0355335)
(0.0333416 -0.331288 -0.00960285)
(0.0423407 -0.244756 0.0144563)
(0.0511919 -0.15887 0.0286629)
(0.0567937 -0.0881816 0.0299115)
(0.0580817 -0.0396655 0.0225095)
(0.0563073 -0.0087259 0.012856)
(0.053019 0.0123268 0.00415497)
(0.0491967 0.028429 -0.00285033)
(0.045369 0.0419358 -0.0081612)
(0.04173 0.0539133 -0.0119387)
(0.0383297 0.0649156 -0.0143708)
(0.035136 0.0752839 -0.0156173)
(0.0320685 0.0851897 -0.0158279)
(0.0290439 0.0946779 -0.0151476)
(0.0259735 0.103715 -0.0137237)
(0.0227529 0.112248 -0.0116954)
(0.0192662 0.120295 -0.00914397)
(0.0153537 0.127993 -0.00609075)
(0.0110458 0.135879 -0.00241796)
(0.00663965 0.146573 0.00257697)
(0.00261411 0.17412 0.0123149)
(0.00276807 0.28281 0.0377385)
(0.00586973 0.381373 0.0508427)
(0.00268748 0.343552 0.0414294)
(0.00468996 -0.387415 -0.0105524)
(0.0202633 -0.607041 0.000439613)
(0.0319166 -0.668929 0.00540387)
(0.0404852 -0.681109 0.00453755)
(0.0474046 -0.670251 -0.00200634)
(0.052348 -0.635548 -0.0166426)
(0.0536924 -0.57646 -0.0383333)
(0.0515539 -0.503425 -0.0632004)
(0.046512 -0.438873 -0.0856729)
(0.0399229 -0.396445 -0.0997194)
(0.0337128 -0.368807 -0.102824)
(0.0293705 -0.341174 -0.0933405)
(0.029028 -0.298626 -0.0685737)
(0.0338951 -0.232009 -0.0329071)
(0.041713 -0.146917 -0.000378715)
(0.0479789 -0.0654794 0.015512)
(0.0500921 -0.0072915 0.0151749)
(0.0491392 0.028372 0.00829328)
(0.0468865 0.0507678 0.000941727)