/*--------------------------------*- C++ -*----------------------------------*\
| =========                 |                                                 |
| \\      /  F ield         | OpenFOAM: The Open Source CFD Toolbox           |
|  \\    /   O peration     | Version:  v2006                                 |
|   \\  /    A nd           | Website:  www.openfoam.com                      |
|    \\/     M anipulation  |                                                 |
\*---------------------------------------------------------------------------*/
FoamFile
{
    version     2.0;
    format      ascii;
    class       volScalarField;
    location    "76";
    object      alphat;
}
// * * * * * * * * * * * * * * * * * * * * * * * * * * * * * * * * * * * * * //

dimensions      [1 -1 -1 0 0 0 0];


internalField   nonuniform List<scalar> 
78750
(
0.0012136
0.0026627
0.00183254
0.000717696
0.000191888
1.79856e-05
3.64277e-05
2.51791e-05
3.84066e-05
3.016e-05
4.38762e-05
3.95418e-05
4.78531e-05
4.879e-05
5.36662e-05
5.66963e-05
5.99759e-05
6.30915e-05
6.59915e-05
6.86232e-05
7.0886e-05
7.26859e-05
7.38878e-05
7.44766e-05
7.44746e-05
7.38367e-05
7.24629e-05
7.02517e-05
6.70908e-05
6.29055e-05
5.768e-05
5.1131e-05
4.2303e-05
2.15729e-05
1.01965e-06
0.000130251
0.000143371
4.38455e-05
4.17799e-07
1.19377e-05
2.64657e-05
2.53525e-05
4.0487e-05
4.54446e-05
6.11219e-05
7.03502e-05
8.38624e-05
9.44201e-05
0.000104471
0.000112642
0.000119401
0.000125099
0.000129384
0.000132088
0.000133061
0.00013215
0.00013007
0.000127317
0.000123814
0.000119441
0.000114013
0.000107338
9.93902e-05
9.02569e-05
8.01126e-05
6.89702e-05
5.52541e-05
3.14487e-05
9.69721e-06
1.82479e-06
1.19405e-05
2.83388e-06
2.61695e-05
4.66069e-05
4.8951e-05
3.16075e-05
3.98727e-05
5.1909e-05
7.37403e-05
9.09349e-05
0.000104922
0.000115269
0.000122443
0.000127415
0.000130934
0.000133479
0.000135259
0.000136279
0.000136596
0.000136706
0.000137123
0.00013748
0.00013703
0.000135297
0.000132113
0.000127263
0.000120429
0.00011133
9.95385e-05
8.43506e-05
6.41923e-05
3.78191e-05
1.63347e-05
1.04148e-05
3.28532e-06
1.8568e-06
1.0548e-05
2.64375e-05
8.96244e-05
5.49721e-05
3.11797e-05
2.00131e-05
1.67048e-05
2.03089e-05
3.52566e-05
6.3589e-05
9.38214e-05
0.000122157
0.000149758
0.000173184
0.00018909
0.000199009
0.000205924
0.000211187
0.000215076
0.00021729
0.000217102
0.000214404
0.000210211
0.000204268
0.000194458
0.000179347
0.000159543
0.000136734
0.000111548
8.13361e-05
4.23684e-05
1.33199e-05
8.28513e-06
4.0912e-06
3.63331e-06
6.76335e-05
7.17629e-05
5.46621e-05
5.77574e-05
7.6998e-05
9.91117e-05
0.000100919
0.000107448
0.00014317
0.000190142
0.000209377
0.000212548
0.000215964
0.000219357
0.000222527
0.000225333
0.000227684
0.000229521
0.000230806
0.000231517
0.000231633
0.000231137
0.000230006
0.00020561
0.000173518
0.000147703
0.000125822
0.000104536
8.16507e-05
5.46033e-05
2.59555e-05
1.20722e-05
1.28218e-05
5.26013e-06
3.19406e-06
1.71621e-05
5.72203e-05
0.000116079
6.50041e-05
3.8352e-05
2.88082e-05
2.47845e-05
2.42711e-05
3.13985e-05
6.00073e-05
0.000129396
0.000190136
0.000197404
0.000201471
0.00020562
0.00020965
0.000213407
0.000216778
0.000219681
0.000222049
0.000223824
0.000224948
0.000225357
0.000224974
0.000223811
0.000214089
0.00016941
0.00013167
9.92292e-05
6.32688e-05
2.53268e-05
8.96606e-06
1.06899e-05
5.85909e-06
4.04867e-06
4.75153e-05
0.000152929
7.79434e-05
5.43338e-05
5.45481e-05
6.28105e-05
6.9263e-05
7.01272e-05
7.32538e-05
9.0997e-05
0.000131422
0.000180055
0.000205265
0.000206985
0.000209061
0.000211345
0.000213695
0.000215988
0.000218115
0.000219984
0.000221513
0.000222632
0.000223269
0.000223352
0.000189241
0.000155531
0.000129723
0.000106931
8.20072e-05
5.0993e-05
2.09039e-05
1.00203e-05
1.53666e-05
6.70885e-06
4.4487e-06
2.1944e-05
8.44484e-05
0.000129021
8.1029e-05
4.8214e-05
3.70392e-05
3.43941e-05
3.50638e-05
3.79512e-05
4.49752e-05
6.17605e-05
9.71549e-05
0.000150403
0.000193032
0.000200381
0.00020281
0.000205516
0.000208314
0.000211038
0.000213543
0.0002157
0.000217394
0.000218526
0.000218994
0.000212799
0.00017207
0.00013825
0.000111958
8.56997e-05
5.26309e-05
1.91724e-05
7.95519e-06
1.39937e-05
7.1686e-06
4.61227e-06
3.48298e-05
0.000139652
0.000100875
6.03292e-05
5.01102e-05
5.39542e-05
6.4039e-05
7.39873e-05
7.868e-05
7.87626e-05
7.95661e-05
8.6446e-05
0.000103187
0.00013096
0.00016437
0.000191664
0.000204481
0.000205716
0.000207307
0.000209104
0.000210932
0.000212609
0.000201575
0.000181518
0.000160685
0.000140263
0.000119876
9.80767e-05
7.20229e-05
4.03009e-05
1.53742e-05
9.42551e-06
2.01786e-05
7.82284e-06
5.50378e-06
2.29809e-05
8.35408e-05
0.000108998
7.59586e-05
4.77926e-05
3.70813e-05
3.59301e-05
4.0136e-05
4.82955e-05
5.93883e-05
7.14524e-05
8.23843e-05
9.22057e-05
0.000103424
0.000118824
0.000139073
0.000161176
0.000179559
0.000190467
0.000194253
0.000192934
0.000187785
0.000179361
0.000168133
0.000154566
0.000139187
0.000122181
0.000102833
7.81995e-05
4.42742e-05
1.41722e-05
7.13555e-06
1.78968e-05
8.07995e-06
5.43128e-06
2.62914e-05
9.19402e-05
0.000107285
7.17137e-05
4.90496e-05
4.1287e-05
4.24867e-05
5.02942e-05
6.32038e-05
7.84345e-05
9.23923e-05
0.000102896
0.000109814
0.000114371
0.000118475
0.000123981
0.000131837
0.000141438
0.00015056
0.000156503
0.000157884
0.000155099
0.000149222
0.000141004
0.000130738
0.00011851
0.000104032
8.61898e-05
6.23191e-05
3.24732e-05
1.226e-05
9.50288e-06
2.62419e-05
8.63845e-06
6.03878e-06
2.30503e-05
7.48126e-05
0.000101144
8.44381e-05
5.66539e-05
3.85785e-05
3.15569e-05
3.19251e-05
3.83497e-05
5.10606e-05
6.99068e-05
9.22037e-05
0.000112595
0.000126326
0.000132454
0.000133301
0.000131951
0.000130669
0.000130527
0.0001315
0.000132696
0.00013282
0.000130842
0.000126378
0.000119556
0.000110726
9.99116e-05
8.63143e-05
6.69371e-05
3.71775e-05
1.09969e-05
6.60987e-06
2.14648e-05
8.78272e-06
6.25695e-06
2.69365e-05
8.80387e-05
0.000116258
0.000101723
7.6582e-05
5.43456e-05
4.06555e-05
3.54417e-05
3.75132e-05
4.67067e-05
6.34107e-05
8.66564e-05
0.000112371
0.00013436
0.000147854
0.000151795
0.000148284
0.000140633
0.00013179
0.000123701
0.000117281
0.000112568
0.000108849
0.000104907
9.95912e-05
9.22562e-05
8.23415e-05
6.85876e-05
4.85041e-05
2.36349e-05
9.76815e-06
9.7204e-06
3.24097e-05
9.22378e-06
6.80241e-06
2.85669e-05
9.6059e-05
0.000129789
0.000121532
9.82063e-05
7.00999e-05
4.80326e-05
3.56203e-05
3.1509e-05
3.4649e-05
4.54324e-05
6.47677e-05
9.16559e-05
0.000121013
0.000145378
0.000159538
0.000162706
0.000157247
0.000146571
0.000133789
0.000121223
0.00011031
0.000101606
9.48388e-05
8.91534e-05
8.34501e-05
7.64811e-05
6.64084e-05
4.9378e-05
2.2849e-05
7.1734e-06
7.16137e-06
2.99189e-05
9.22369e-06
7.15292e-06
3.55321e-05
0.000126614
0.000161015
0.000151433
0.000133437
0.000108915
7.79238e-05
5.22137e-05
3.79675e-05
3.37663e-05
3.82437e-05
5.19211e-05
7.57298e-05
0.000107358
0.000139225
0.000162687
0.000173428
0.000172093
0.000162005
0.000146943
0.000130016
0.00011342
9.85298e-05
8.59131e-05
7.57288e-05
6.74547e-05
5.93881e-05
4.82914e-05
3.095e-05
1.3392e-05
7.14425e-06
1.11013e-05
5.03455e-05
9.30033e-06
7.59921e-06
3.72887e-05
0.000135899
0.000165652
0.00014683
0.000127604
0.000115096
9.9846e-05
7.43812e-05
5.05763e-05
3.80616e-05
3.60978e-05
4.35108e-05
6.07076e-05
8.72913e-05
0.000118831
0.000147526
0.000166938
0.000174646
0.000171521
0.000160204
0.000143807
0.00012507
0.000106014
8.81661e-05
7.26246e-05
5.99872e-05
5.00122e-05
4.0746e-05
2.72434e-05
1.10688e-05
5.16739e-06
1.05612e-05
5.6871e-05
9.13581e-06
7.89813e-06
4.07687e-05
0.000143146
0.000155214
0.000122687
0.000102523
9.99738e-05
0.000103394
9.52793e-05
7.10053e-05
4.99933e-05
4.1538e-05
4.48233e-05
5.95861e-05
8.53271e-05
0.000116897
0.000145487
0.000164892
0.000173434
0.000172009
0.000162501
0.000147149
0.000128255
0.000107897
8.77482e-05
6.90566e-05
5.27093e-05
3.9363e-05
2.85337e-05
1.80381e-05
8.26723e-06
4.81927e-06
1.07151e-05
5.92334e-05
9.07681e-06
8.22508e-06
3.86051e-05
0.000132432
0.000139891
9.67635e-05
7.19545e-05
6.90281e-05
7.72982e-05
8.45354e-05
7.92591e-05
6.3819e-05
5.27698e-05
5.252e-05
6.33442e-05
8.3509e-05
0.000108202
0.000131177
0.000148317
0.000158183
0.000160776
0.000156605
0.000146368
0.000131164
0.000112674
9.27144e-05
7.28139e-05
5.41497e-05
3.80364e-05
2.53343e-05
1.55507e-05
6.18983e-06
2.86783e-06
8.36347e-06
4.54884e-05
9.23887e-06
8.7931e-06
4.48807e-05
0.000140843
0.000134748
8.43739e-05
5.77313e-05
5.32386e-05
5.83349e-05
6.38972e-05
6.59796e-05
6.53115e-05
6.55082e-05
7.01908e-05
8.03736e-05
9.41462e-05
0.00010871
0.000122027
0.000132866
0.000140414
0.000144182
0.000143842
0.000138992
0.000129279
0.000114964
9.72086e-05
7.77176e-05
5.81476e-05
3.99853e-05
2.41787e-05
1.14167e-05
3.27127e-06
1.5809e-06
5.58583e-06
3.54072e-05
9.39418e-06
9.4623e-06
5.30514e-05
0.000136459
0.000141415
0.000108532
7.6644e-05
5.94788e-05
5.1469e-05
4.77243e-05
4.67903e-05
4.79262e-05
5.07788e-05
5.55803e-05
6.27936e-05
7.24291e-05
8.37568e-05
9.55997e-05
0.00010685
0.000116709
0.000124574
0.000129811
0.000131616
0.000128979
0.000120994
0.000107432
8.90793e-05
6.78311e-05
4.59095e-05
2.49543e-05
6.41744e-06
2.7923e-06
2.05328e-06
8.4832e-06
5.01488e-05
9.74843e-06
9.88184e-06
5.54456e-05
0.000121171
0.000149886
0.000156248
0.000142659
0.000112089
8.29484e-05
6.30835e-05
5.03344e-05
4.22041e-05
3.7423e-05
3.55519e-05
3.67203e-05
4.1437e-05
5.02807e-05
6.31448e-05
7.82927e-05
9.30933e-05
0.000106035
0.00011673
0.000124754
0.000129215
0.000128788
0.000121915
0.000107291
8.50961e-05
5.71659e-05
2.67432e-05
3.01232e-06
1.3466e-06
2.8461e-06
1.20941e-05
7.65388e-05
9.69938e-06
8.99404e-06
3.80629e-05
8.27006e-05
0.000118328
0.000140768
0.000155304
0.000160441
0.000152653
0.000132549
0.000107388
8.41409e-05
6.52109e-05
5.04555e-05
3.92968e-05
3.1454e-05
2.7237e-05
2.79077e-05
3.58799e-05
5.2755e-05
7.43455e-05
9.36089e-05
0.000108293
0.000118311
0.000123187
0.000122113
0.000113936
9.756e-05
7.10322e-05
3.28608e-05
3.41986e-06
8.1405e-07
4.24431e-06
1.83725e-05
0.000104536
9.75464e-06
7.40394e-06
2.49133e-05
6.19046e-05
0.00010249
0.000121267
0.000129153
0.000135258
0.000141779
0.000147203
0.000148097
0.000141691
0.000127968
0.000108765
8.62593e-05
6.34894e-05
4.3467e-05
2.8221e-05
1.94046e-05
1.92331e-05
3.19666e-05
5.95485e-05
8.9653e-05
0.000110488
0.00012123
0.000123056
0.000116757
0.000102614
8.07751e-05
4.65473e-05
9.0039e-06
2.17372e-06
3.36252e-06
1.89401e-05
9.42018e-05
9.36285e-06
7.4309e-06
2.58875e-05
7.29214e-05
0.000135287
0.000158449
0.000155802
0.00014417
0.000130393
0.000117815
0.000108041
0.000102962
0.000105344
0.000114903
0.00012274
0.000113964
8.42599e-05
5.00239e-05
2.62656e-05
1.41802e-05
1.29707e-05
2.72097e-05
6.69757e-05
0.000120886
0.000155236
0.000165728
0.000158642
0.000138818
0.000111051
7.37431e-05
2.32993e-05
1.30588e-06
1.62204e-06
1.64595e-05
9.43639e-05
9.46258e-06
9.08071e-06
3.57273e-05
9.82808e-05
0.000156259
0.000173486
0.000174697
0.000168642
0.000155972
0.000135769
0.000109899
8.57571e-05
7.15966e-05
7.1234e-05
8.3736e-05
9.60368e-05
8.48569e-05
5.28821e-05
2.60607e-05
1.20321e-05
9.18401e-06
2.17064e-05
6.73706e-05
0.000155548
0.000196483
0.000203982
0.000206947
0.000173278
0.000133242
8.99215e-05
3.71336e-05
4.36751e-06
1.26431e-06
1.41411e-05
9.38341e-05
9.3926e-06
1.05177e-05
4.37031e-05
0.00011037
0.000140254
0.000143693
0.000140631
0.000135005
0.000127991
0.000119309
0.000107358
9.18954e-05
7.73596e-05
6.87186e-05
6.55926e-05
6.09342e-05
4.63142e-05
2.60648e-05
1.14763e-05
5.35843e-06
9.35324e-06
2.94313e-05
6.56367e-05
0.000100951
0.000124533
0.000135687
0.000136752
0.000128782
0.000112632
8.82458e-05
4.96595e-05
7.96022e-06
1.5205e-06
1.17178e-05
9.62417e-05
9.76429e-06
1.07477e-05
4.58728e-05
0.000123921
0.000156034
0.00015712
0.000147885
0.000133869
0.000118757
0.000105238
9.46399e-05
8.6706e-05
8.00322e-05
7.32643e-05
6.52643e-05
5.37128e-05
3.61222e-05
1.65423e-05
3.92722e-06
1.82501e-06
9.41608e-06
2.89367e-05
5.39105e-05
7.60272e-05
9.19957e-05
0.00010142
0.000104347
0.000100732
9.02964e-05
7.03406e-05
3.48884e-05
8.02101e-06
2.69917e-06
1.17227e-05
9.36544e-05
9.88465e-06
1.04527e-05
4.61779e-05
0.000130489
0.000173657
0.000178718
0.00016893
0.000152092
0.000134014
0.000118264
0.000105397
9.43387e-05
8.47508e-05
7.72916e-05
7.19147e-05
6.63218e-05
5.56918e-05
3.57594e-05
1.42013e-05
3.88014e-06
9.01997e-07
1.07621e-05
3.18307e-05
5.94233e-05
8.35821e-05
9.89668e-05
0.00010492
0.000101836
8.95106e-05
6.51809e-05
2.67163e-05
6.45534e-06
3.82178e-06
1.44998e-05
0.000106792
1.01911e-05
1.02265e-05
4.21932e-05
0.000112178
0.000149573
0.000153631
0.000147414
0.000137183
0.000125777
0.000115149
0.000106505
9.95578e-05
9.27403e-05
8.55445e-05
7.9998e-05
7.79503e-05
7.77285e-05
7.25488e-05
5.18614e-05
2.27598e-05
4.09889e-06
2.86388e-06
4.20104e-06
2.17096e-05
5.28573e-05
8.26864e-05
9.82212e-05
9.68646e-05
7.76313e-05
4.33148e-05
1.46422e-05
5.63733e-06
6.56786e-06
2.18005e-05
0.000110094
1.01583e-05
1.02583e-05
4.07061e-05
0.000112039
0.00015164
0.000154387
0.000146107
0.000133729
0.000120477
0.000108869
0.000100911
9.6983e-05
9.50953e-05
9.20211e-05
8.69071e-05
8.32743e-05
8.50188e-05
9.19723e-05
9.57493e-05
7.64547e-05
3.68434e-05
9.94919e-06
8.05561e-06
4.58743e-06
4.64527e-06
2.5049e-05
5.04899e-05
6.47404e-05
6.02974e-05
3.48012e-05
1.13641e-05
4.37976e-06
7.4447e-06
2.72772e-05
8.86139e-05
9.95158e-06
1.05364e-05
4.47348e-05
0.00012853
0.000171323
0.000172615
0.000161241
0.000144652
0.000126708
0.000110488
9.86906e-05
9.29108e-05
9.26391e-05
9.46797e-05
9.45587e-05
9.12708e-05
8.91504e-05
9.2797e-05
0.000102685
0.000111255
9.83972e-05
5.51153e-05
1.69886e-05
2.21147e-06
6.32932e-06
3.18294e-06
1.86955e-05
1.24044e-05
2.25339e-05
2.04706e-05
1.07585e-05
4.92429e-06
6.84599e-06
2.54512e-05
8.91933e-05
9.71293e-06
1.08259e-05
4.66858e-05
0.00012499
0.000157791
0.00015827
0.00014981
0.000137501
0.000123222
0.000108562
9.59579e-05
8.80754e-05
8.65057e-05
9.08565e-05
9.80387e-05
0.000103217
0.000104498
0.00010553
0.000111049
0.000121998
0.00013231
0.000124728
8.01755e-05
3.10459e-05
1.18591e-05
1.36005e-05
5.26683e-06
2.31019e-06
1.27144e-05
4.38508e-06
4.16957e-06
3.58402e-06
5.81386e-06
2.23538e-05
9.25221e-05
9.76895e-06
1.08277e-05
4.56867e-05
0.000121899
0.000151877
0.000151208
0.000142482
0.000130945
0.000118509
0.000106071
9.46453e-05
8.58758e-05
8.17666e-05
8.38129e-05
9.20089e-05
0.000103828
0.000114635
0.000121711
0.000127313
0.000135653
0.000148223
0.000160589
0.000159208
0.00012273
6.14885e-05
1.70648e-05
3.19012e-06
8.55337e-06
4.69557e-06
2.34168e-06
1.60347e-06
3.30194e-06
6.4494e-06
2.2273e-05
0.000100048
9.90798e-06
1.08334e-05
4.70723e-05
0.000132145
0.000166434
0.000164821
0.000153856
0.000140144
0.000126009
0.000112174
9.93605e-05
8.89518e-05
8.26015e-05
8.17424e-05
8.73644e-05
9.94081e-05
0.000115624
0.000131619
0.000143835
0.00015258
0.000160818
0.000169789
0.000175135
0.000165306
0.000129114
7.47052e-05
2.90211e-05
3.30869e-06
6.50247e-06
1.73764e-06
1.95207e-06
1.03917e-06
6.81712e-06
2.50597e-05
9.81004e-05
9.85798e-06
1.08816e-05
4.78498e-05
0.000130079
0.000161242
0.000159302
0.000149143
0.000136805
0.000124337
0.000112191
0.000100669
9.08345e-05
8.44181e-05
8.30566e-05
8.78856e-05
9.95607e-05
0.000117866
0.000140849
0.000164975
0.000187241
0.000208189
0.000232344
0.000263306
0.000293146
0.000283166
0.000263978
0.000195203
8.74296e-05
2.59038e-05
5.59886e-06
3.55057e-06
6.84947e-07
1.72713e-06
1.69443e-05
0.000119756
1.02811e-05
1.09568e-05
4.73333e-05
0.000125661
0.000152955
0.000150323
0.0001408
0.00012995
0.000119453
0.000109213
9.87246e-05
8.85649e-05
8.10309e-05
7.89338e-05
8.41857e-05
9.76557e-05
0.000119452
0.000148705
0.000183311
0.000220344
0.000257454
0.000293502
0.000322131
0.000308881
0.000291296
0.000238078
0.000133316
4.63492e-05
1.10761e-05
3.43922e-06
1.47248e-06
9.75287e-06
2.47486e-05
6.96771e-05
7.16869e-05
1.02694e-05
1.10127e-05
4.83263e-05
0.000133035
0.000161644
0.000156278
0.000143554
0.000130657
0.000119811
0.000110529
0.000101197
9.08766e-05
8.09376e-05
7.48918e-05
7.60692e-05
8.60484e-05
0.000104603
0.000129756
0.000158203
0.000185896
0.000208461
0.000221457
0.000221423
0.000208189
0.000186168
0.000160872
0.000133955
0.000104384
7.24113e-05
3.54093e-05
6.04852e-06
3.92117e-06
1.30955e-05
6.50951e-05
5.94994e-05
1.00934e-05
1.11025e-05
4.94429e-05
0.000135109
0.000161182
0.000153705
0.000139125
0.00012493
0.000114057
0.000106459
0.000100123
9.25625e-05
8.32216e-05
7.51033e-05
7.27163e-05
7.8934e-05
9.43234e-05
0.000117119
0.000143001
0.000165971
0.000180752
0.000184779
0.000178469
0.000164222
0.000145283
0.00012426
0.000100994
7.72527e-05
6.41192e-05
4.15647e-05
2.39389e-05
1.04101e-05
5.36857e-06
1.79218e-05
8.66737e-05
8.4666e-06
1.11267e-05
4.97409e-05
0.000130531
0.000151384
0.000143758
0.000130351
0.00011766
0.000108391
0.000102504
9.8192e-05
9.31998e-05
8.64351e-05
7.96852e-05
7.73561e-05
8.34606e-05
9.98204e-05
0.00012581
0.000157237
0.000185995
0.00020445
0.000210084
0.000204099
0.000188825
0.000167559
0.000143435
0.000115367
9.2004e-05
0.000106468
0.000166041
6.78339e-05
1.20713e-05
3.92146e-07
2.06639e-06
2.10378e-05
1.02741e-05
1.10318e-05
5.09041e-05
0.000135704
0.00015467
0.000145001
0.000129165
0.000115375
0.00010693
0.000102851
9.99373e-05
9.52873e-05
8.83729e-05
8.20448e-05
8.16827e-05
9.28594e-05
0.000120488
0.000168517
0.000234853
0.000302414
0.000347212
0.000352623
0.000346397
0.000304675
0.000245969
0.000194953
0.000159587
7.95002e-05
1.22035e-05
1.09164e-05
2.21552e-05
1.33685e-05
5.67064e-06
2.15842e-05
0.000153745
1.25064e-05
1.09205e-05
5.11734e-05
0.000137207
0.00015621
0.000143529
0.000123998
0.00010847
0.00010135
0.000101434
0.000103801
0.000102677
9.59066e-05
8.6874e-05
8.24341e-05
8.9703e-05
0.00011518
0.000167069
0.000256925
0.000364122
0.000366824
0.000366429
0.000362229
0.000353281
0.000338093
0.000265243
0.000103131
1.84975e-05
8.00613e-06
1.67562e-05
5.07458e-05
7.84127e-05
5.67246e-05
9.16633e-05
7.21474e-05
1.14637e-05
1.10099e-05
5.16457e-05
0.0001346
0.000147973
0.000132918
0.000113034
9.7716e-05
9.07242e-05
9.19751e-05
9.84105e-05
0.000103789
0.0001017
9.17663e-05
8.09265e-05
7.77642e-05
8.82357e-05
0.000115008
0.000154876
0.00019477
0.000219821
0.000224837
0.000212804
0.000189314
0.000159902
0.000128346
9.40051e-05
5.13904e-05
2.07281e-05
1.40712e-05
2.18289e-05
3.88665e-05
8.6215e-05
0.000122392
4.65474e-05
9.27859e-06
1.1163e-05
5.34137e-05
0.000136356
0.000145033
0.000127145
0.000106898
9.27032e-05
8.65713e-05
8.79584e-05
9.52777e-05
0.000104757
0.000109793
0.000104216
8.90658e-05
7.42606e-05
6.95763e-05
7.94717e-05
0.00010429
0.000138392
0.000168316
0.000182263
0.00018003
0.00016804
0.000150622
0.000129964
0.000109479
9.27362e-05
7.42323e-05
4.62655e-05
3.29339e-05
2.93489e-05
3.09518e-05
5.08742e-05
9.60258e-05
7.50819e-06
1.11359e-05
5.46498e-05
0.000138756
0.000143613
0.00012312
0.000101804
8.86264e-05
8.44351e-05
8.72841e-05
9.53281e-05
0.000106602
0.000117597
0.000122711
0.000116014
9.78571e-05
8.02341e-05
7.57456e-05
8.867e-05
0.000116382
0.000148443
0.000170887
0.000178325
0.000173691
0.000160499
0.000142226
0.000126059
0.000124198
0.000138743
8.79723e-05
5.27034e-05
4.08098e-05
9.43412e-06
6.84351e-06
2.82055e-05
1.03738e-05
1.08304e-05
5.28991e-05
0.000133981
0.000138141
0.000116454
9.46497e-05
8.27626e-05
8.10017e-05
8.6695e-05
9.71927e-05
0.000110088
0.000122638
0.000131108
0.000130951
0.000119762
0.00010439
0.000101145
0.000124612
0.000180248
0.000245837
0.000282214
0.000283973
0.00026526
0.00023957
0.000221024
0.000207665
9.78713e-05
3.48576e-05
2.82059e-05
3.10501e-05
1.72104e-05
1.12576e-05
3.15297e-05
0.000156838
1.3032e-05
1.0694e-05
5.18475e-05
0.000132377
0.000135813
0.000110471
8.7601e-05
7.69273e-05
7.66765e-05
8.37643e-05
9.61438e-05
0.000112238
0.000130125
0.000146629
0.000156458
0.000152564
0.000132801
0.000112632
0.000117425
0.000176742
0.00032967
0.000336288
0.000340338
0.000340851
0.000337379
0.000222925
5.60027e-05
1.9801e-05
1.6224e-05
3.38627e-05
6.82766e-05
4.70617e-05
4.3732e-05
0.000109366
6.99924e-05
1.16804e-05
1.07256e-05
5.22162e-05
0.000135264
0.000131339
9.81752e-05
7.4717e-05
6.64609e-05
6.82611e-05
7.59988e-05
8.72441e-05
0.000100057
0.000112606
0.00012376
0.000133398
0.000141552
0.000146775
0.000146968
0.000146088
0.000156796
0.000188577
0.000229528
0.000247464
0.000232717
0.000194432
0.000130423
6.02427e-05
2.46946e-05
1.53872e-05
2.06979e-05
4.17045e-05
8.30566e-05
0.000137108
0.000130256
4.1085e-05
8.84946e-06
1.09943e-05
5.25153e-05
0.000134036
0.000121102
8.31569e-05
6.20628e-05
5.67465e-05
6.03134e-05
6.87529e-05
8.06142e-05
9.55475e-05
0.000112441
0.000128547
0.000140182
0.00014452
0.000141555
0.00013454
0.00012814
0.000126655
0.000132732
0.000144519
0.000154409
0.000155713
0.000147421
0.000130528
0.000101972
6.16519e-05
3.14807e-05
2.10123e-05
2.29741e-05
3.19493e-05
6.16587e-05
0.00012936
5.01183e-05
8.71133e-06
1.12843e-05
5.41147e-05
0.000133458
0.000104119
6.54062e-05
4.91105e-05
4.71529e-05
5.26024e-05
6.1715e-05
7.27573e-05
8.53528e-05
9.98728e-05
0.000116792
0.00013569
0.000154106
0.000167197
0.000169451
0.000158963
0.000141413
0.000127172
0.000123795
0.000132924
0.000149093
0.000160647
0.000159025
0.000144718
0.000119307
8.20371e-05
4.54428e-05
2.68985e-05
2.04557e-05
2.62833e-05
6.06505e-05
8.10878e-05
1.01651e-05
1.1478e-05
5.6862e-05
0.000131083
8.85048e-05
5.31709e-05
4.09106e-05
4.06992e-05
4.64747e-05
5.6572e-05
7.13105e-05
8.95697e-05
0.000108447
0.000125787
0.000141741
0.000158068
0.000176287
0.000195861
0.000213249
0.000222679
0.000219491
0.000204305
0.000183059
0.000162318
0.000145527
0.000132864
0.000122378
0.000110954
9.32723e-05
6.21725e-05
3.09075e-05
1.7622e-05
1.72165e-05
3.6136e-05
9.4986e-05
1.06971e-05
1.13246e-05
5.92319e-05
0.000121529
7.41693e-05
4.46005e-05
3.51233e-05
3.50834e-05
3.94406e-05
4.92032e-05
6.77526e-05
9.54044e-05
0.000126839
0.000154751
0.000175436
0.000189332
0.000198994
0.000207148
0.000215182
0.000222472
0.000226921
0.00022631
0.000219985
0.000209522
0.000196887
0.000182552
0.00016637
0.000149936
0.000134465
0.00010576
4.29057e-05
1.43515e-05
1.14329e-05
2.94297e-05
9.62858e-05
1.13297e-05
1.08216e-05
5.67173e-05
0.000117982
7.56622e-05
4.6036e-05
3.57058e-05
3.49621e-05
3.87653e-05
4.89317e-05
7.08857e-05
0.000107417
0.000153082
0.000196653
0.000231117
0.000255517
0.000271567
0.000281436
0.000286878
0.000288776
0.000286823
0.000279492
0.00026595
0.000247596
0.000226425
0.000203619
0.00017796
0.000142397
8.5894e-05
4.26347e-05
2.25722e-05
1.26852e-05
1.57667e-05
5.29628e-05
8.73896e-05
1.19592e-05
1.05197e-05
5.26795e-05
0.000121012
8.40383e-05
4.92588e-05
3.60064e-05
3.44575e-05
3.90774e-05
4.76725e-05
6.13178e-05
8.34777e-05
0.000119534
0.000171878
0.000232365
0.000288027
0.000335135
0.000375049
0.000407997
0.000431889
0.000439687
0.000435447
0.000407114
0.000358785
0.000291977
0.000205385
0.000107591
4.08539e-05
1.9236e-05
2.01983e-05
3.22333e-05
4.0408e-05
5.71361e-05
0.000133609
4.51669e-05
9.95875e-06
1.06536e-05
4.94144e-05
0.000121759
9.61441e-05
5.6828e-05
3.9411e-05
3.54867e-05
3.57002e-05
3.37673e-05
2.91812e-05
2.75729e-05
3.9415e-05
6.80672e-05
0.000124877
0.000196697
0.00025865
0.000307273
0.000346691
0.000375938
0.000391179
0.000387664
0.000363026
0.000318012
0.000253765
0.000173424
9.14823e-05
3.69348e-05
1.60294e-05
1.42114e-05
2.63479e-05
6.21782e-05
0.000108733
8.08329e-05
2.90955e-05
7.41328e-06
1.07677e-05
4.79866e-05
0.000120651
0.00010401
6.35556e-05
4.27124e-05
3.82967e-05
4.21929e-05
4.33413e-05
2.7216e-05
3.40369e-06
2.14185e-06
8.24447e-06
3.78254e-05
9.13229e-05
0.000162554
0.000225265
0.000266165
0.000286706
0.000291783
0.000286707
0.000274383
0.000255411
0.000229384
0.000195168
0.000150868
9.80378e-05
5.22426e-05
2.90773e-05
2.52007e-05
3.56017e-05
6.31381e-05
8.91258e-05
3.47214e-05
7.20255e-06
1.05908e-05
4.72228e-05
0.000122912
0.000101295
5.79107e-05
3.72054e-05
3.23169e-05
3.68843e-05
4.89236e-05
6.39178e-05
6.15349e-05
3.26516e-05
1.89728e-05
2.90698e-05
5.94534e-05
0.000116908
0.000189717
0.000243138
0.000265671
0.000267715
0.000260334
0.000249319
0.000236448
0.000221528
0.000203912
0.000183039
0.000158198
0.000128231
9.54011e-05
6.98163e-05
5.59554e-05
4.30458e-05
4.70494e-05
7.30257e-05
8.94703e-06
1.05769e-05
4.36775e-05
0.000116563
0.000116228
7.14973e-05
4.26319e-05
3.37436e-05
3.42909e-05
3.89708e-05
4.65525e-05
5.76267e-05
6.59462e-05
4.42854e-05
1.36637e-05
1.30667e-05
3.34504e-05
7.53654e-05
0.000149465
0.000230517
0.000277144
0.000286807
0.000276914
0.00026021
0.000241471
0.000220997
0.000197198
0.000168681
0.000138416
0.000113908
9.40554e-05
6.71385e-05
3.94575e-05
4.2904e-05
0.000114222
1.07575e-05
1.07171e-05
4.22805e-05
0.00011281
0.000118063
7.40886e-05
4.30922e-05
3.39793e-05
3.66304e-05
4.44973e-05
5.06462e-05
5.12282e-05
5.16035e-05
5.7787e-05
5.42223e-05
1.9664e-05
7.5886e-06
1.64653e-05
5.30802e-05
0.000129162
0.000234828
0.000303058
0.000316035
0.00029993
0.000272507
0.000238819
0.000197911
0.000149838
0.00010581
8.1903e-05
7.47955e-05
6.48172e-05
5.26115e-05
7.22802e-05
0.000115955
1.08936e-05
1.08387e-05
4.29601e-05
0.000116838
0.000116988
6.83382e-05
3.7844e-05
2.93127e-05
3.25969e-05
4.40352e-05
6.19782e-05
8.01202e-05
8.78365e-05
8.52268e-05
8.29575e-05
8.16827e-05
5.44167e-05
1.70019e-05
1.44707e-05
4.06055e-05
0.000103805
0.000213228
0.000284958
0.000287874
0.000260088
0.000220552
0.000173718
0.00012417
8.31572e-05
6.17475e-05
6.0255e-05
6.89699e-05
7.96922e-05
0.000115968
7.7791e-05
9.90055e-06
1.11573e-05
4.45277e-05
0.000120143
0.000122253
7.32622e-05
4.03108e-05
3.07767e-05
3.41544e-05
4.49801e-05
5.85191e-05
7.07813e-05
8.04145e-05
8.61939e-05
8.59371e-05
8.07877e-05
7.50986e-05
6.24596e-05
2.96342e-05
1.28904e-05
2.36196e-05
6.20371e-05
0.000139939
0.000211904
0.000228415
0.000208497
0.000171511
0.000127222
8.64613e-05
6.01474e-05
5.22429e-05
6.1517e-05
8.69777e-05
0.000122726
6.10952e-05
9.16122e-06
1.1621e-05
5.07496e-05
0.000133873
0.000115455
6.35247e-05
3.57048e-05
2.87097e-05
3.44182e-05
4.9641e-05
7.02626e-05
8.93777e-05
0.000102213
0.000108799
0.000110898
0.00010903
0.000102457
9.07286e-05
7.11342e-05
3.97233e-05
1.81137e-05
2.17769e-05
5.13945e-05
0.000111273
0.000167956
0.000183015
0.000166178
0.000133815
9.74964e-05
6.81768e-05
5.31213e-05
5.46201e-05
7.62031e-05
0.000114139
5.87961e-05
9.17096e-06
1.18673e-05
5.74475e-05
0.000139323
0.000114393
6.64867e-05
3.91876e-05
3.16123e-05
3.73945e-05
5.22857e-05
6.98538e-05
8.51032e-05
9.6591e-05
0.000104401
0.000108871
0.00011034
0.000108726
0.000102411
8.74754e-05
6.11754e-05
3.20792e-05
1.79102e-05
2.61679e-05
5.78181e-05
0.000112658
0.000156373
0.00016175
0.000139462
0.000105726
7.43462e-05
5.48152e-05
5.11988e-05
6.8616e-05
0.000109847
5.84512e-05
9.28521e-06
1.18775e-05
6.22037e-05
0.000139581
0.000118863
7.69876e-05
4.71359e-05
3.52877e-05
3.71222e-05
4.94978e-05
6.81021e-05
8.73702e-05
0.00010318
0.000114274
0.000121089
0.00012431
0.000124073
0.000118752
0.000102919
7.15971e-05
3.74845e-05
2.00113e-05
2.19723e-05
4.30678e-05
8.56754e-05
0.00013323
0.000152603
0.000139726
0.000109453
7.76228e-05
5.6266e-05
5.09298e-05
6.74468e-05
0.000109733
5.57873e-05
9.2136e-06
1.15961e-05
6.17167e-05
0.000139692
0.000137133
0.000109742
7.36771e-05
4.89539e-05
3.96262e-05
4.12358e-05
5.04315e-05
6.55038e-05
8.38365e-05
0.000101486
0.000115521
0.000124966
0.000129523
0.000127399
0.000112208
7.71707e-05
3.82413e-05
1.93467e-05
2.09403e-05
4.17742e-05
8.50894e-05
0.000134138
0.000156373
0.000146512
0.000117483
8.41177e-05
5.99513e-05
5.2469e-05
6.76975e-05
0.000110122
5.67555e-05
9.24649e-06
1.11969e-05
5.67801e-05
0.000139262
0.000155542
0.000145401
0.000118279
8.2014e-05
5.60932e-05
4.43199e-05
4.20188e-05
4.70156e-05
5.94373e-05
7.76797e-05
9.63235e-05
0.000110325
0.000118095
0.000119213
0.000111214
8.75013e-05
4.90288e-05
2.14801e-05
1.68205e-05
3.29697e-05
7.24581e-05
0.000125357
0.00015529
0.00015259
0.000128268
9.48671e-05
6.69536e-05
5.5777e-05
6.86577e-05
0.00011232
6.14877e-05
9.41919e-06
1.08474e-05
5.13655e-05
0.000138187
0.000167271
0.000160453
0.000144508
0.000124588
9.60463e-05
6.75452e-05
4.91803e-05
4.07204e-05
4.10582e-05
5.08332e-05
6.96675e-05
9.12676e-05
0.000106701
0.000112966
0.000110876
9.93589e-05
7.27859e-05
3.52348e-05
1.5396e-05
1.96926e-05
4.74158e-05
0.000101318
0.000147929
0.000156887
0.000138189
0.000106746
7.68623e-05
6.227e-05
7.26727e-05
0.000116001
6.52397e-05
9.48371e-06
1.08138e-05
4.73881e-05
0.000131423
0.000169574
0.000151911
0.000126156
0.00011523
0.000117431
0.000112686
8.51525e-05
5.65256e-05
4.19055e-05
3.96337e-05
4.83029e-05
6.78168e-05
9.28007e-05
0.000111994
0.000119951
0.000117944
0.000105091
7.29778e-05
3.05125e-05
1.41531e-05
2.42537e-05
5.7063e-05
0.000105336
0.000135542
0.000134393
0.000112792
8.68239e-05
7.29819e-05
8.3707e-05
0.000124493
6.8468e-05
9.53217e-06
1.15462e-05
4.82715e-05
0.000132883
0.000162604
0.00012613
9.23595e-05
7.82483e-05
8.19541e-05
9.89034e-05
0.000110857
8.9286e-05
5.8447e-05
4.44711e-05
4.47869e-05
5.70688e-05
8.07319e-05
0.000108995
0.000128894
0.000134618
0.000128701
0.000107606
6.23788e-05
2.2841e-05
1.47213e-05
3.24033e-05
7.3241e-05
0.000118856
0.000132193
0.000117034
9.40418e-05
8.15712e-05
9.21364e-05
0.000128125
7.10052e-05
9.52278e-06
1.28255e-05
5.64707e-05
0.000153901
0.000139446
9.09723e-05
7.01328e-05
6.46097e-05
6.70477e-05
7.6178e-05
8.74078e-05
8.73583e-05
7.13989e-05
5.69464e-05
5.36892e-05
6.09771e-05
7.63488e-05
9.52653e-05
0.000111021
0.000118896
0.000115715
9.74373e-05
7.11344e-05
4.58352e-05
2.30203e-05
2.17474e-05
4.14497e-05
7.77435e-05
0.000109748
0.000114833
0.000100181
8.60318e-05
8.9372e-05
0.000116935
7.499e-05
9.77822e-06
1.3631e-05
7.22179e-05
0.000154496
7.72686e-05
4.95454e-05
4.8614e-05
5.81551e-05
6.85712e-05
7.34817e-05
7.30443e-05
7.11164e-05
7.0184e-05
6.96967e-05
6.91811e-05
7.00061e-05
7.25119e-05
7.53398e-05
7.80257e-05
7.92243e-05
7.8795e-05
8.81757e-05
0.000119312
0.000140235
7.13615e-05
2.4772e-05
2.13129e-05
3.81693e-05
6.90075e-05
9.5817e-05
9.75346e-05
8.57457e-05
8.64647e-05
0.000114613
8.89021e-05
1.06851e-05
1.31244e-05