/*--------------------------------*- C++ -*----------------------------------*\
| =========                 |                                                 |
| \\      /  F ield         | OpenFOAM: The Open Source CFD Toolbox           |
|  \\    /   O peration     | Version:  v2006                                 |
|   \\  /    A nd           | Website:  www.openfoam.com                      |
|    \\/     M anipulation  |                                                 |
\*---------------------------------------------------------------------------*/
FoamFile
{
    version     2.0;
    format      ascii;
    class       volScalarField;
    location    "76";
    object      nut;
}
// * * * * * * * * * * * * * * * * * * * * * * * * * * * * * * * * * * * * * //

dimensions      [0 2 -1 0 0 0 0];


internalField   nonuniform List<scalar> 
78750
(
0.000848111
0.00186696
0.00128713
0.000504707
0.000134898
1.26241e-05
2.55608e-05
1.76502e-05
2.69147e-05
2.11221e-05
3.07189e-05
2.76722e-05
3.3478e-05
3.41215e-05
3.75193e-05
3.96243e-05
4.19019e-05
4.40618e-05
4.60669e-05
4.78808e-05
4.9433e-05
5.06578e-05
5.14611e-05
5.18324e-05
5.17875e-05
5.12952e-05
5.02867e-05
4.86926e-05
4.64362e-05
4.34677e-05
3.97776e-05
3.51722e-05
2.90228e-05
1.49535e-05
9.48985e-07
8.7283e-05
9.95782e-05
3.10263e-05
2.99772e-07
8.61913e-06
1.90784e-05
1.8258e-05
2.91013e-05
3.26061e-05
4.37826e-05
5.03143e-05
5.98937e-05
6.73439e-05
7.44194e-05
8.01441e-05
8.48566e-05
8.8808e-05
9.17508e-05
9.35679e-05
9.41573e-05
9.3415e-05
9.18497e-05
8.9812e-05
8.72504e-05
8.40798e-05
8.01733e-05
7.53995e-05
6.97439e-05
6.32744e-05
5.61232e-05
4.83171e-05
3.87899e-05
2.231e-05
7.30253e-06
1.8301e-06
7.91e-06
1.90752e-06
1.78184e-05
3.20926e-05
3.40894e-05
2.22278e-05
2.82355e-05
3.69255e-05
5.26055e-05
6.49762e-05
7.50348e-05
8.24659e-05
8.76064e-05
9.11539e-05
9.3648e-05
9.54343e-05
9.66657e-05
9.73479e-05
9.75239e-05
9.75499e-05
9.77931e-05
9.79933e-05
9.76162e-05
9.63262e-05
9.40043e-05
9.05e-05
8.55903e-05
7.90796e-05
7.0672e-05
5.98767e-05
4.55908e-05
2.69407e-05
1.18159e-05
8.17337e-06
3.37404e-06
1.2216e-06
7.07312e-06
1.80667e-05
6.19243e-05
3.82345e-05
2.18059e-05
1.40685e-05
1.18097e-05
1.44416e-05
2.5184e-05
4.5542e-05
6.7288e-05
8.76734e-05
0.00010752
0.000124351
0.000135764
0.000142859
0.000147784
0.00015151
0.000154243
0.000155767
0.000155567
0.000153568
0.0001505
0.000146185
0.000139111
0.000128256
0.000114063
9.77437e-05
7.97542e-05
5.82073e-05
3.04244e-05
9.73131e-06
6.65505e-06
4.28834e-06
2.44297e-06
4.67285e-05
5.0127e-05
3.84557e-05
4.08786e-05
5.47423e-05
7.06675e-05
7.20896e-05
7.68649e-05
0.000102547
0.000136327
0.000150238
0.000152614
0.000155148
0.000157644
0.000159959
0.000161993
0.000163682
0.000164986
0.000165882
0.000166356
0.000166396
0.000165993
0.000165133
0.000147575
0.000124503
0.000105949
9.0232e-05
7.49621e-05
5.85731e-05
3.92368e-05
1.87815e-05
9.03117e-06
1.07228e-05
5.59678e-06
2.1157e-06
1.16943e-05
3.95076e-05
8.06821e-05
4.54463e-05
2.69974e-05
2.04085e-05
1.76451e-05
1.73435e-05
2.25023e-05
4.3101e-05
9.30665e-05
0.000136864
0.000142175
0.000145164
0.000148194
0.000151122
0.000153837
0.000156261
0.000158335
0.000160014
0.000161258
0.000162028
0.00016228
0.00016196
0.00016108
0.000154044
0.000121869
9.47061e-05
7.13784e-05
4.55508e-05
1.83177e-05
6.6755e-06
8.97043e-06
6.27586e-06
2.71725e-06
3.28491e-05
0.000106776
5.48086e-05
3.85278e-05
3.89524e-05
4.50694e-05
4.98528e-05
5.05717e-05
5.28882e-05
6.57457e-05
9.4994e-05
0.000130179
0.000148428
0.000149685
0.000151188
0.000152832
0.000154514
0.000156145
0.000157649
0.00015896
0.000160021
0.000160783
0.000161196
0.000161211
0.000136555
0.000112203
9.35717e-05
7.71371e-05
5.9195e-05
3.68918e-05
1.52634e-05
7.64299e-06
1.32672e-05
7.24216e-06
2.95412e-06
1.49995e-05
5.84469e-05
8.98684e-05
5.67524e-05
3.39974e-05
2.63031e-05
2.45735e-05
2.51703e-05
2.73384e-05
3.24793e-05
4.46767e-05
7.03539e-05
0.000108977
0.00013991
0.000145262
0.000147033
0.00014899
0.000151
0.000152944
0.00015472
0.000156234
0.000157407
0.000158168
0.000158447
0.000153909
0.000124407
9.99215e-05
8.09006e-05
6.19344e-05
3.80834e-05
1.39654e-05
6.03291e-06
1.20962e-05
7.76896e-06
3.09089e-06
2.40675e-05
9.74949e-05
7.09154e-05
4.27547e-05
3.58014e-05
3.87884e-05
4.62309e-05
5.35558e-05
5.70517e-05
5.71781e-05
5.7807e-05
6.28376e-05
7.50287e-05
9.52346e-05
0.000119531
0.000139368
0.000148667
0.000149534
0.000150651
0.00015191
0.000153185
0.000154345
0.000146277
0.000131668
0.000116507
0.000101659
8.6856e-05
7.10574e-05
5.22128e-05
2.92975e-05
1.13187e-05
7.3409e-06
1.78755e-05
8.50944e-06
3.65961e-06
1.57012e-05
5.77483e-05
7.58376e-05
5.31559e-05
3.36824e-05
2.63442e-05
2.57172e-05
2.88992e-05
3.4926e-05
4.30775e-05
5.19332e-05
5.9959e-05
6.71652e-05
7.53764e-05
8.6622e-05
0.00010139
0.000117494
0.000130871
0.000138785
0.000141498
0.000140483
0.000136674
0.000130481
0.000122251
0.000112326
0.000101094
8.8696e-05
7.46215e-05
5.67442e-05
3.21668e-05
1.03816e-05
5.50087e-06
1.58236e-05
8.81551e-06
3.6274e-06
1.80635e-05
6.38813e-05
7.50578e-05
5.0513e-05
3.48152e-05
2.95294e-05
3.05884e-05
3.63937e-05
4.58995e-05
5.70985e-05
6.73687e-05
7.51092e-05
8.02173e-05
8.35838e-05
8.66039e-05
9.06339e-05
9.63681e-05
0.000103364
0.000109997
0.000114297
0.000115256
0.000113168
0.000108824
0.000102773
9.52373e-05
8.62831e-05
7.57096e-05
6.27166e-05
4.5376e-05
2.37231e-05
9.10003e-06
7.54022e-06
2.37027e-05
9.42901e-06
4.01007e-06
1.57021e-05
5.15963e-05
7.025e-05
5.89794e-05
3.98089e-05
2.73023e-05
2.25113e-05
2.29478e-05
2.77401e-05
3.71058e-05
5.0961e-05
6.73533e-05
8.23583e-05
9.24819e-05
9.70211e-05
9.76694e-05
9.66888e-05
9.57403e-05
9.56128e-05
9.62901e-05
9.71197e-05
9.71579e-05
9.5653e-05
9.23292e-05
8.72856e-05
8.07827e-05
7.2845e-05
6.28982e-05
4.87689e-05
2.71138e-05
8.08636e-06
5.14546e-06
1.92058e-05
9.597e-06
4.16907e-06
1.84922e-05
6.12794e-05
8.15489e-05
7.17758e-05
5.43194e-05
3.87363e-05
2.91264e-05
2.55318e-05
2.7171e-05
3.39844e-05
4.62936e-05
6.34091e-05
8.23491e-05
9.85614e-05
0.000108529
0.000111466
0.000108908
0.00010329
9.678e-05
9.08116e-05
8.60602e-05
8.25547e-05
7.97742e-05
7.68294e-05
7.28815e-05
6.74654e-05
6.01801e-05
5.01171e-05
3.54688e-05
1.73551e-05
7.31578e-06
7.8235e-06
2.95599e-05
1.00625e-05
4.52616e-06
1.963e-05
6.70315e-05
9.13148e-05
8.59875e-05
6.97847e-05
4.99916e-05
3.43755e-05
2.55995e-05
2.27602e-05
2.51605e-05
3.3139e-05
4.73968e-05
6.72198e-05
8.8876e-05
0.000106869
0.000117347
0.00011972
0.000115722
0.000107864
9.84413e-05
8.91647e-05
8.10973e-05
7.465e-05
6.96243e-05
6.53938e-05
6.11549e-05
5.59992e-05
4.85909e-05
3.61251e-05
1.67497e-05
5.33786e-06
5.72288e-06
2.728e-05
1.00933e-05
4.79115e-06
2.47523e-05
8.96459e-05
0.000114963
0.000108749
9.62161e-05
7.87269e-05
5.63895e-05
3.78097e-05
2.75357e-05
2.45636e-05
2.79265e-05
3.80428e-05
5.5625e-05
7.89857e-05
0.00010254
0.0001199
0.000127871
0.000126916
0.000119484
0.000108365
9.58562e-05
8.3584e-05
7.25663e-05
6.32244e-05
5.56777e-05
4.9545e-05
4.35809e-05
3.54215e-05
2.27253e-05
9.9046e-06
5.46143e-06
9.29349e-06
4.72831e-05
1.01933e-05
5.1067e-06
2.61001e-05
9.66456e-05
0.000118785
0.000105922
9.24715e-05
8.3653e-05
7.26754e-05
5.41573e-05
3.68207e-05
2.77326e-05
2.63655e-05
3.18803e-05
4.46053e-05
6.42698e-05
8.7613e-05
0.000108869
0.00012327
0.000129009
0.000126726
0.000118368
0.00010624
9.23693e-05
7.82576e-05
6.50372e-05
5.35239e-05
4.41614e-05
3.67735e-05
2.99279e-05
2.00069e-05
8.16827e-06
3.93657e-06
8.94927e-06
5.41283e-05
1.0042e-05
5.34631e-06
2.88397e-05
0.000102892
0.000112512
8.95083e-05
7.51653e-05
7.3506e-05
7.60944e-05
7.00958e-05
5.21717e-05
3.6686e-05
3.04836e-05
3.29467e-05
4.38877e-05
6.29561e-05
8.63568e-05
0.000107571
0.00012199
0.000128359
0.000127334
0.000120305
0.000108932
9.49244e-05
7.98257e-05
6.48808e-05
5.10186e-05
3.89006e-05
2.90152e-05
2.1008e-05
1.32756e-05
6.10941e-06
3.66415e-06
9.06134e-06
5.64599e-05
9.96642e-06
5.58726e-06
2.74115e-05
9.5554e-05
0.000101789
7.08718e-05
5.2973e-05
5.09665e-05
5.71264e-05
6.24593e-05
5.85069e-05
4.70534e-05
3.88815e-05
3.8718e-05
4.67586e-05
6.17285e-05
8.00708e-05
9.71545e-05
0.000109915
0.000117275
0.000119229
0.000116151
0.000108558
9.72682e-05
8.35321e-05
6.87033e-05
5.39201e-05
4.00616e-05
2.81066e-05
1.86939e-05
1.14595e-05
4.56177e-06
2.14652e-06
6.86484e-06
4.24857e-05
1.00861e-05
6.01675e-06
3.21498e-05
0.000102457
9.88176e-05
6.22767e-05
4.28203e-05
3.95807e-05
4.33896e-05
4.75036e-05
4.90074e-05
4.84639e-05
4.8575e-05
5.20358e-05
5.95984e-05
6.98421e-05
8.06852e-05
9.06098e-05
9.86938e-05
0.000104329
0.000107147
0.000106903
0.000103295
9.60645e-05
8.54063e-05
7.21879e-05
5.7681e-05
4.31224e-05
2.96224e-05
1.78897e-05
8.43642e-06
2.41768e-06
1.17905e-06
4.47684e-06
3.2441e-05
1.02378e-05
6.52654e-06
3.81739e-05
9.94062e-05
0.000103661
7.99489e-05
5.66875e-05
4.41191e-05
3.82502e-05
3.55085e-05
3.48342e-05
3.56865e-05
3.78085e-05
4.13782e-05
4.67446e-05
5.39182e-05
6.23567e-05
7.11831e-05
7.95703e-05
8.69213e-05
9.27841e-05
9.6684e-05
9.80197e-05
9.60395e-05
9.00693e-05
7.99429e-05
6.62504e-05
5.04102e-05
3.40848e-05
1.85038e-05
4.75256e-06
2.07627e-06
1.56359e-06
6.96484e-06
4.62777e-05
1.0547e-05
6.84271e-06
3.97604e-05
8.77005e-05
0.000109061
0.000114218
0.000104768
8.27095e-05
6.14842e-05
4.69394e-05
3.75621e-05
3.15557e-05
2.80094e-05
2.6616e-05
2.74835e-05
3.0997e-05
3.75903e-05
4.7184e-05
5.84823e-05
6.95222e-05
7.91745e-05
8.71477e-05
9.31225e-05
9.64308e-05
9.60832e-05
9.09189e-05
7.99712e-05
6.33839e-05
4.25419e-05
1.98802e-05
2.23838e-06
1.01126e-06
2.22835e-06
1.03535e-05
7.2324e-05
1.04602e-05
6.16443e-06
2.67795e-05
5.88169e-05
8.48552e-05
0.000101691
0.00011296
0.000117451
0.000112443
9.82145e-05
8.00054e-05
6.29796e-05
4.89868e-05
3.79918e-05
2.96204e-05
2.37049e-05
2.05042e-05
2.09749e-05
2.69226e-05
3.95359e-05
5.56728e-05
7.00643e-05
8.1027e-05
8.84954e-05
9.21104e-05
9.12682e-05
8.51107e-05
7.2827e-05
5.29779e-05
2.4484e-05
2.5491e-06
6.17084e-07
3.43673e-06
1.6405e-05
0.000101411
1.05621e-05
4.98284e-06
1.72199e-05
4.36706e-05
7.3354e-05
8.77436e-05
9.42898e-05
9.95024e-05
0.00010499
0.000109648
0.000110904
0.000106631
9.67317e-05
8.25152e-05
6.56055e-05
4.83408e-05
3.30792e-05
2.14303e-05
1.46844e-05
1.45019e-05
2.40385e-05
4.47093e-05
6.72532e-05
8.28379e-05
9.08521e-05
9.21815e-05
8.74195e-05
7.67821e-05
6.03936e-05
3.47713e-05
6.72721e-06
1.64741e-06
2.75306e-06
1.7402e-05
9.365e-05
1.02963e-05
4.96019e-06
1.79793e-05
5.20889e-05
9.82699e-05
0.000116408
0.000115497
0.000107695
9.80552e-05
8.91164e-05
8.21433e-05
7.86281e-05
8.07348e-05
8.82851e-05
9.44513e-05
8.77477e-05
6.48404e-05
3.84085e-05
2.00774e-05
1.07766e-05
9.80632e-06
2.05022e-05
5.03755e-05
9.08397e-05
0.000116585
0.000124406
0.000119032
0.000104101
8.32237e-05
5.52212e-05
1.74389e-05
9.83602e-07
1.29794e-06
1.52093e-05
9.44875e-05
1.04249e-05
6.0926e-06
2.51556e-05
7.09552e-05
0.000114363
0.000128198
0.000130149
0.000126573
0.000117886
0.00010331
8.41696e-05
6.60788e-05
5.54415e-05
5.53293e-05
6.51046e-05
7.46228e-05
6.58089e-05
4.08652e-05
2.00225e-05
9.17862e-06
6.9624e-06
1.63901e-05
5.07701e-05
0.000117114
0.000147855
0.000153432
0.000155601
0.000130233
0.000100097
6.75212e-05
2.78807e-05
3.29416e-06
9.99498e-07
1.29628e-05
9.35873e-05
1.0326e-05
7.13797e-06
3.10004e-05
7.97855e-05
0.000102518
0.000105969
0.000104552
0.000101137
9.65863e-05
9.06756e-05
8.21616e-05
7.08003e-05
5.99512e-05
5.34702e-05
5.11227e-05
4.74649e-05
3.59814e-05
2.0149e-05
8.80798e-06
4.08218e-06
7.08779e-06
2.22414e-05
4.95403e-05
7.6144e-05
9.38891e-05
0.000102261
0.000103029
9.69912e-05
8.47946e-05
6.64046e-05
3.73498e-05
5.99237e-06
1.1811e-06
1.04543e-05
9.43089e-05
1.06496e-05
7.3341e-06
3.26647e-05
8.98993e-05
0.000114469
0.000116305
0.000110345
0.00010062
8.98722e-05
8.01508e-05
7.25079e-05
6.67939e-05
6.19539e-05
5.69335e-05
5.08299e-05
4.18407e-05
2.80769e-05
1.2794e-05
3.01443e-06
1.39042e-06
7.1412e-06
2.19007e-05
4.07637e-05
5.74573e-05
6.95019e-05
7.66031e-05
7.87995e-05
7.60609e-05
6.81816e-05
5.31267e-05
2.63778e-05
6.09862e-06
2.11977e-06
1.03667e-05
9.10078e-05
1.07351e-05
7.13902e-06
3.29485e-05
9.48349e-05
0.000127566
0.000132402
0.000126106
0.00011434
0.000101416
9.00417e-05
8.06851e-05
7.25753e-05
6.54948e-05
5.99789e-05
5.59971e-05
5.17487e-05
4.3462e-05
2.78419e-05
1.09937e-05
2.97932e-06
6.87764e-07
8.17314e-06
2.41294e-05
4.50083e-05
6.32779e-05
7.49027e-05
7.93904e-05
7.70441e-05
6.77158e-05
4.93225e-05
2.02441e-05
4.93446e-06
3.0394e-06
1.28993e-05
0.000103705
1.10022e-05
6.95802e-06
2.98724e-05
8.08939e-05
0.000109077
0.000113058
0.000109387
0.0001026
9.47793e-05
8.7387e-05
8.13458e-05
7.64623e-05
7.15645e-05
6.62918e-05
6.2238e-05
6.08526e-05
6.08224e-05
5.6812e-05
4.05493e-05
1.77033e-05
3.16135e-06
2.19155e-06
3.19905e-06
1.64921e-05
4.0114e-05
6.2726e-05
7.45017e-05
7.34809e-05
5.89198e-05
3.29258e-05
1.11953e-05
4.4122e-06
5.43835e-06
1.99051e-05
0.000108457
1.10364e-05
6.95516e-06
2.87765e-05
8.08822e-05
0.000110866
0.000114
0.000108838
0.000100425
9.11597e-05
8.29608e-05
7.73875e-05
7.47734e-05
7.36215e-05
7.14665e-05
6.76769e-05
6.50199e-05
6.65499e-05
7.21325e-05
7.5162e-05
5.99741e-05
2.87888e-05
7.71071e-06
6.18936e-06
3.50349e-06
3.53586e-06
1.90379e-05
3.83465e-05
4.91498e-05
4.57689e-05
2.6432e-05
8.67466e-06
3.4352e-06
6.31558e-06
2.54034e-05
8.87341e-05
1.09859e-05
7.15566e-06
3.18093e-05
9.33357e-05
0.000125938
0.000128104
0.000120686
0.000109135
9.63269e-05
8.46103e-05
7.6089e-05
7.20482e-05
7.21497e-05
7.39453e-05
7.39725e-05
7.14815e-05
6.98993e-05
7.28432e-05
8.06774e-05
8.74383e-05
7.72836e-05
4.31704e-05
1.32164e-05
1.70528e-06
4.84809e-06
2.42877e-06
1.42412e-05
9.44542e-06
1.71648e-05
1.56137e-05
8.2446e-06
3.85365e-06
5.77728e-06
2.39395e-05
9.00916e-05
1.07636e-05
7.37914e-06
3.32483e-05
9.07329e-05
0.000115861
0.000117293
0.000111961
0.000103581
9.3541e-05
8.30373e-05
7.39386e-05
6.83297e-05
6.74952e-05
7.11777e-05
7.6987e-05
8.11456e-05
8.21926e-05
8.30309e-05
8.73998e-05
9.60313e-05
0.000104129
9.80857e-05
6.29179e-05
2.4227e-05
9.1731e-06
1.044e-05
4.02363e-06
1.76058e-06
9.67888e-06
3.33792e-06
3.18351e-06
2.78853e-06
4.83892e-06
2.09021e-05
9.33005e-05
1.08179e-05
7.37977e-06
3.24891e-05
8.84047e-05
0.000111481
0.000112079
0.000106534
9.86915e-05
8.99844e-05
8.111e-05
7.28664e-05
6.6548e-05
6.37435e-05
6.56613e-05
7.23328e-05
8.17894e-05
9.03847e-05
9.59876e-05
0.0001004
0.000106957
0.000116834
0.000126517
0.000125321
9.64501e-05
4.81436e-05
1.32596e-05
2.45773e-06
6.55551e-06
3.59158e-06
1.79202e-06
1.23162e-06
2.58e-06
5.37975e-06
2.08677e-05
0.000100956
1.09427e-05
7.38267e-06
3.35667e-05
9.61981e-05
0.000122663
0.000122674
0.000115511
0.000106045
9.60358e-05
8.6058e-05
7.6695e-05
6.90509e-05
6.4453e-05
6.40682e-05
6.87166e-05
7.83805e-05
9.12968e-05
0.000103995
0.000113663
0.000120552
0.00012701
0.00013402
0.000138133
0.000130235
0.000101539
5.85483e-05
2.25891e-05
2.55127e-06
4.97896e-06
1.32619e-06
1.49166e-06
8.06982e-07
5.70683e-06
2.34815e-05
9.89977e-05
1.09114e-05
7.42556e-06
3.41743e-05
9.48009e-05
0.000118949
0.000118676
0.000112086
0.000103642
9.48977e-05
8.62195e-05
7.78633e-05
7.0674e-05
6.60275e-05
6.52446e-05
6.92633e-05
7.86381e-05
9.32195e-05
0.000111469
0.000130587
0.00014819
0.00016471
0.000183725
0.000208073
0.000231476
0.000223376
0.000207961
0.000153471
6.8464e-05
2.01207e-05
4.32069e-06
2.73645e-06
5.26865e-07
1.3759e-06
1.55803e-05
0.000119169
1.11759e-05
7.48128e-06
3.38053e-05
9.1611e-05
0.000112922
0.00011212
0.000105973
9.86065e-05
9.13081e-05
8.40351e-05
7.64307e-05
6.89633e-05
6.34417e-05
6.2097e-05
6.6475e-05
7.73005e-05
9.46832e-05
0.000117942
0.000145404
0.00017474
0.000204077
0.000232502
0.000254969
0.00024422
0.000229983
0.000187565
0.000104652
3.61374e-05
8.54939e-06
2.66022e-06
1.18137e-06
8.38105e-06
2.26384e-05
6.70211e-05
7.32122e-05
1.15408e-05
7.52134e-06
3.45819e-05
9.72458e-05
0.000119693
0.000116939
0.000108425
9.95159e-05
9.19353e-05
8.536e-05
7.85864e-05
7.09175e-05
6.34492e-05
5.89632e-05
6.01166e-05
6.81943e-05
8.30419e-05
0.000103097
0.000125732
0.000147727
0.000165608
0.000175853
0.000175726
0.000165111
0.000147527
0.000127356
0.00010591
8.23715e-05
5.69653e-05
2.7751e-05
4.74996e-06
3.19486e-06
1.20452e-05
6.58533e-05
6.29018e-05
1.13877e-05
7.59349e-06
3.5463e-05
9.89801e-05
0.000119608
0.000115269
0.000105335
9.54187e-05
8.78031e-05
8.25202e-05
7.8062e-05
7.25182e-05
6.5467e-05
5.92912e-05
5.75852e-05
6.2664e-05
7.50061e-05
9.32166e-05
0.000113854
0.000132136
0.000143861
0.000146996
0.000141888
0.000130461
0.000115307
9.85098e-05
7.99551e-05
6.10495e-05
5.0543e-05
3.25524e-05
1.86753e-05
8.17028e-06
4.27732e-06
1.59081e-05
8.48538e-05
9.34739e-06
7.62122e-06
3.57204e-05
9.57532e-05
0.000112524
0.000108036
9.8939e-05
9.01189e-05
8.36911e-05
7.9697e-05
7.67931e-05
7.32499e-05
6.82173e-05
6.31096e-05
6.14363e-05
6.6421e-05
7.9546e-05
0.000100327
0.00012542
0.000148353
0.000163033
0.000167458
0.000162596
0.000150318
0.000133266
0.000113948
9.15165e-05
7.28384e-05
8.40785e-05
0.000130361
5.31038e-05
9.33081e-06
2.88975e-07
1.62896e-06
1.89452e-05
1.09751e-05
7.56829e-06
3.66518e-05
9.98151e-05
0.000115287
0.000109303
9.83751e-05
8.87037e-05
8.28871e-05
8.02644e-05
7.84144e-05
7.51038e-05
6.9929e-05
6.51476e-05
6.50448e-05
7.40915e-05
9.62413e-05
0.000134664
0.000187683
0.000241637
0.000277353
0.000281556
0.000276425
0.000242954
0.000195971
0.000155168
0.00012688
6.30699e-05
9.67905e-06
8.8338e-06
1.79663e-05
1.04582e-05
4.43019e-06
1.87203e-05
0.000145744
1.323e-05
7.49454e-06
3.68813e-05
0.000101037
0.000116579
0.000108346
9.46059e-05
8.35814e-05
7.87672e-05
7.93655e-05
8.16253e-05
8.10497e-05
7.5952e-05
6.90104e-05
6.56714e-05
7.16265e-05
9.21025e-05
0.000133686
0.00020563
0.000291418
0.000293544
0.000293171
0.00028975
0.000282552
0.000270437
0.000212362
8.28702e-05
1.507e-05
6.76834e-06
1.49233e-05
4.63632e-05
7.10443e-05
5.1553e-05
8.75721e-05
7.36453e-05
1.29656e-05
7.5616e-06
3.72665e-05
9.92711e-05
0.000110642
0.000100566
8.64738e-05
7.55296e-05
7.07562e-05
7.2233e-05
7.76622e-05
8.21695e-05
8.07012e-05
7.29649e-05
6.44811e-05
6.20935e-05
7.05779e-05
9.20917e-05
0.000124077
0.00015606
0.000176121
0.000180108
0.000170424
0.00015156
0.000127964
0.000102685
7.52666e-05
4.13509e-05
1.69825e-05
1.20298e-05
1.97502e-05
3.70372e-05
8.69567e-05
0.000127735
5.03405e-05
1.07651e-05
7.67993e-06
3.86294e-05
0.000100803
0.000108714
9.64593e-05
8.20239e-05
7.1887e-05
6.77508e-05
6.93334e-05
7.54793e-05
8.32468e-05
8.74082e-05
8.30629e-05
7.10562e-05
5.93132e-05
5.56481e-05
6.36418e-05
8.35875e-05
0.000110972
0.000135001
0.000146204
0.000144419
0.000134802
0.000120828
0.000104253
8.78179e-05
7.43923e-05
5.95914e-05
3.72777e-05
2.69512e-05
2.4626e-05
2.69812e-05
4.71127e-05
9.48971e-05
8.28613e-06
7.68862e-06
3.96633e-05
0.000102853
0.000107887
9.35998e-05
7.82846e-05
6.88842e-05
6.62399e-05
6.89861e-05
7.57551e-05
8.50207e-05
9.3992e-05
9.8192e-05
9.28843e-05
7.83702e-05
6.42803e-05
6.07203e-05
7.1127e-05
9.34048e-05
0.000119181
0.000137242
0.000143258
0.000139582
0.000129036
0.000114407
0.000101473
0.000100045
0.000111693
7.07813e-05
4.28674e-05
3.32255e-05
7.42366e-06
5.64067e-06
2.57193e-05
1.10204e-05
7.48004e-06
3.84019e-05
9.93584e-05
0.000103859
8.86425e-05
7.29059e-05
6.44439e-05
6.3645e-05
6.86003e-05
7.73149e-05
8.79074e-05
9.81827e-05
0.000105135
0.000105108
9.61694e-05
8.3838e-05
8.12364e-05
0.000100095
0.000144813
0.000197561
0.000226878
0.000228418
0.000213544
0.000193102
0.00017847
0.000168091
7.9517e-05
2.87915e-05
2.35265e-05
2.53375e-05
1.36745e-05
9.15611e-06
2.79624e-05
0.000150516
1.39143e-05
7.37735e-06
3.76399e-05
9.82703e-05
0.000102284
8.42928e-05
6.76832e-05
6.00907e-05
6.04089e-05
6.64086e-05
7.6573e-05
8.96927e-05
0.000104241
0.000117662
0.000125688
0.000122638
0.000106782
9.0568e-05
9.44171e-05
0.000142119
0.000265139
0.000270561
0.000274017
0.000274799
0.000272636
0.000180954
4.59871e-05
1.67721e-05
1.43851e-05
3.05453e-05
5.99281e-05
4.06162e-05
3.90931e-05
0.000104547
7.17523e-05
1.3312e-05
7.40731e-06
3.79952e-05
0.00010067
9.92067e-05
7.51988e-05
5.8011e-05
5.21915e-05
5.4051e-05
6.05169e-05
6.97338e-05
8.01836e-05
9.04095e-05
9.94991e-05
0.000107348
0.000113972
0.000118203
0.000118354
0.000117618
0.000126205
0.000151762
0.000184721
0.000199202
0.000187445
0.000156837
0.000105581
4.9225e-05
2.06595e-05
1.34753e-05
1.91064e-05
3.97198e-05
8.09511e-05
0.000136528
0.000133563
4.41645e-05
1.04192e-05
7.60217e-06
3.82708e-05
9.99732e-05
9.17538e-05
6.39782e-05
4.84537e-05
4.48095e-05
4.79876e-05
5.49676e-05
6.46539e-05
7.67906e-05
9.04927e-05
0.00010355
0.000112989
0.000116526
0.000114152
0.000108491
0.000103309
0.000102078
0.000106941
0.000116415
0.000124379
0.000125454
0.000118828
0.000105313
8.24537e-05
5.0131e-05
2.59684e-05
1.78432e-05
2.02709e-05
2.9474e-05
6.03821e-05
0.000131869
5.31282e-05
1.00162e-05
7.82383e-06
3.95782e-05
9.99641e-05
7.93313e-05
5.07308e-05
3.8724e-05
3.76035e-05
4.2213e-05
4.96841e-05
5.86747e-05
6.89073e-05
8.06935e-05
9.44187e-05
0.000109739
0.000124658
0.000135249
0.00013705
0.000128521
0.000114267
0.000102683
9.98793e-05
0.000107181
0.000120187
0.000129513
0.000128268
0.000116844
9.65042e-05
6.66034e-05
3.72009e-05
2.24158e-05
1.74858e-05
2.35574e-05
5.81926e-05
8.24986e-05
1.1314e-05
7.98223e-06
4.17006e-05
9.84575e-05
6.77024e-05
4.15062e-05
3.25189e-05
3.27258e-05
3.75847e-05
4.58531e-05
5.78277e-05
7.2623e-05
8.79068e-05
0.000101948
0.000114876
0.000128118
0.000142898
0.000158776
0.000172871
0.000180495
0.000177868
0.000165493
0.000148195
0.000131305
0.000117625
0.000107311
9.88002e-05
8.95926e-05
7.5402e-05
5.04261e-05
2.53288e-05
1.48478e-05
1.50793e-05
3.38816e-05
9.55175e-05
1.18858e-05
7.90141e-06
4.35255e-05
9.14118e-05
5.68624e-05
3.49537e-05
2.80579e-05
2.83584e-05
3.20688e-05
4.00995e-05
5.5231e-05
7.77209e-05
0.00010324
0.000125862
0.000142597
0.000153818
0.00016161
0.000168185
0.000174667
0.000180545
0.000184111
0.000183562
0.000178368
0.000169818
0.000159513
0.00014785
0.000134715
0.000121392
0.000108831
8.5506e-05
3.46744e-05
1.1853e-05
1.00607e-05
2.81378e-05
9.8419e-05
1.26281e-05
7.53598e-06
4.15401e-05
8.83618e-05
5.77095e-05
3.58683e-05
2.83743e-05
2.81525e-05
3.14448e-05
3.98347e-05
5.77817e-05
8.75674e-05
0.000124751
0.000160188
0.000188179
0.000207963
0.000220948
0.000228902
0.000233259
0.000234733
0.000233076
0.000227051
0.000215989
0.000201043
0.000183855
0.000165404
0.000144705
0.000115987
7.01406e-05
3.48637e-05
1.82312e-05
1.03134e-05
1.3865e-05
5.07708e-05
8.9522e-05
1.34508e-05
7.30183e-06
3.84339e-05
9.0161e-05
6.36444e-05
3.8036e-05
2.83688e-05
2.7559e-05
3.15341e-05
3.86623e-05
4.98658e-05
6.7984e-05
9.74066e-05
0.000140074
0.000189339
0.000234635
0.000272931
0.000305345
0.000332066
0.000351397
0.000357623
0.000354067
0.000330971
0.000291732
0.00023765
0.000167662
8.8507e-05
3.4284e-05
1.68132e-05
1.83508e-05
2.91592e-05
3.62844e-05
5.35578e-05
0.000132694
4.79247e-05
1.17105e-05
7.36669e-06
3.58902e-05
9.03028e-05
7.23939e-05
4.35292e-05
3.07677e-05
2.81457e-05
2.86065e-05
2.72241e-05
2.36213e-05
2.23876e-05
3.2077e-05
5.5465e-05
0.000101796
0.000160348
0.000210836
0.00025044
0.000282526
0.000306308
0.000318661
0.000315725
0.0002956
0.000258951
0.000206801
0.000141754
7.5453e-05
3.12029e-05
1.42501e-05
1.35573e-05
2.64636e-05
6.3953e-05
0.000114492
8.74898e-05
3.27993e-05
8.91989e-06
7.43613e-06
3.48105e-05
8.94002e-05
7.8232e-05
4.85961e-05
3.32718e-05
3.03253e-05
3.37842e-05
3.49295e-05
2.20162e-05
2.76094e-06
1.74265e-06
6.72733e-06
3.09043e-05
7.4628e-05
0.000132827
0.00018405
0.000217449
0.000234217
0.000238356
0.000234202
0.000224126
0.000208617
0.00018736
0.000159485
0.000123532
8.08011e-05
4.38245e-05
2.53164e-05
2.31425e-05
3.44313e-05
6.38893e-05
9.34477e-05
3.77389e-05
8.38796e-06
7.32246e-06
3.42579e-05
9.09288e-05
7.60165e-05
4.42034e-05
2.89863e-05
2.5646e-05
2.96351e-05
3.95761e-05
5.1873e-05
5.00152e-05
2.65705e-05
1.54728e-05
2.37665e-05
4.86842e-05
9.57929e-05
0.000155483
0.000199282
0.000217771
0.00021948
0.000213479
0.000204515
0.000194038
0.000181883
0.000167505
0.00015044
0.000130123
0.000105665
7.9015e-05
5.85216e-05
4.7853e-05
3.79047e-05
4.3993e-05
7.28897e-05
9.84962e-06
7.27657e-06
3.1452e-05
8.55764e-05
8.64448e-05
5.39305e-05
3.27567e-05
2.64411e-05
2.72861e-05
3.13221e-05
3.76364e-05
4.67326e-05
5.35483e-05
3.59757e-05
1.11119e-05
1.06599e-05
2.73809e-05
6.18347e-05
0.000122774
0.000189474
0.000227914
0.000235988
0.000228003
0.000214445
0.000199245
0.000182639
0.000163296
0.000140013
0.00011518
9.49354e-05
7.83308e-05
5.58767e-05
3.32756e-05
3.86115e-05
0.000110375
1.14829e-05
7.35378e-06
3.03856e-05
8.27668e-05
8.78055e-05
5.58758e-05
3.30721e-05
2.65693e-05
2.90791e-05
3.56898e-05
4.08903e-05
4.15356e-05
4.19452e-05
4.7016e-05
4.41035e-05
1.59827e-05
6.17592e-06
1.34607e-05
4.35809e-05
0.000106311
0.000193546
0.000250035
0.000261013
0.000248033
0.000225755
0.000198348
0.000164984
0.000125613
8.94539e-05
6.99335e-05
6.41744e-05
5.56945e-05
4.60036e-05
6.66477e-05
0.000113998
1.18253e-05
7.43622e-06
3.0894e-05
8.58332e-05
8.71717e-05
5.16839e-05
2.91604e-05
2.30288e-05
2.59973e-05
3.54575e-05
5.01783e-05
6.50624e-05
7.14564e-05
6.94159e-05
6.76186e-05
6.65958e-05
4.43525e-05
1.38565e-05
1.18267e-05
3.33576e-05
8.56122e-05
0.00017624
0.00023588
0.000238652
0.000216033
0.000183712
0.000145353
0.000104691
7.10466e-05
5.38301e-05
5.36151e-05
6.22888e-05
7.35717e-05
0.000111202
7.87605e-05
1.11065e-05
7.63659e-06
3.2051e-05
8.85706e-05
9.15086e-05
5.56427e-05
3.11267e-05
2.41681e-05
2.71916e-05
3.61488e-05
4.73117e-05
5.7441e-05
6.54105e-05
7.02073e-05
7.00502e-05
6.58771e-05
6.12465e-05
5.0936e-05
2.41643e-05
1.05239e-05
1.93711e-05
5.11695e-05
0.000115869
0.000175901
0.000190035
0.000173928
0.000143625
0.000107217
7.37104e-05
5.23421e-05
4.68394e-05
5.69004e-05
8.29084e-05
0.000120906
6.31033e-05
1.04451e-05
7.99388e-06
3.69018e-05
9.97816e-05
8.74611e-05
4.89153e-05
2.79761e-05
2.28306e-05
2.76567e-05
4.01511e-05
5.7053e-05
7.27457e-05
8.33154e-05
8.87671e-05
9.05318e-05
8.90333e-05
8.36767e-05
7.40998e-05
5.80967e-05
3.24453e-05
1.48075e-05
1.78678e-05
4.2416e-05
9.22642e-05
0.00013975
0.00015277
0.000139237
0.000112712
8.28263e-05
5.88098e-05
4.70442e-05
5.01841e-05
7.28251e-05
0.000113114
6.10237e-05
1.0467e-05
8.2128e-06
4.20487e-05
0.00010443
8.71226e-05
5.1468e-05
3.08565e-05
2.52504e-05
3.01507e-05
4.23897e-05
5.68201e-05
6.93707e-05
7.88455e-05
8.53004e-05
8.90049e-05
9.02372e-05
8.89338e-05
8.37752e-05
7.15609e-05
5.00512e-05
2.62554e-05
1.4679e-05
2.15359e-05
4.78479e-05
9.36771e-05
0.000130562
0.000135629
0.000117571
8.98365e-05
6.39931e-05
4.82389e-05
4.66572e-05
6.52676e-05
0.000108707
6.06758e-05
1.05967e-05
8.2733e-06
4.57546e-05
0.000104972
9.0744e-05
5.9674e-05
3.71256e-05
2.82018e-05
2.99782e-05
4.02194e-05
5.55271e-05
7.13771e-05
8.43912e-05
9.35324e-05
9.91541e-05
0.000101817
0.000101637
9.72856e-05
8.43219e-05
5.86692e-05
3.07303e-05
1.64275e-05
1.80949e-05
3.56396e-05
7.12358e-05
0.000111262
0.000128033
0.000117919
9.31654e-05
6.69898e-05
4.96815e-05
4.65699e-05
6.43676e-05
0.000108925
5.80755e-05
1.05383e-05
8.09479e-06
4.53676e-05
0.000104787
0.000104235
8.44563e-05
5.74538e-05
3.87167e-05
3.17417e-05
3.33448e-05
4.10348e-05
5.35015e-05
6.86272e-05
8.31799e-05
9.47505e-05
0.000102536
0.000106295
0.000104561
9.21011e-05
6.33534e-05
3.14112e-05
1.5917e-05
1.72926e-05
3.46763e-05
7.09272e-05
0.000112202
0.000131282
0.000123601
9.98556e-05
7.24202e-05
5.27943e-05
4.7896e-05
6.45715e-05
0.000109254
5.89928e-05
1.05404e-05
7.79703e-06
4.15591e-05
0.000103954
0.000117524
0.000111
9.12013e-05
6.39337e-05
4.42636e-05
3.53917e-05
3.38933e-05
3.82115e-05
4.85501e-05
6.364e-05
7.90437e-05
9.06118e-05
9.70366e-05
9.79763e-05
9.14133e-05
7.19334e-05
4.03222e-05
1.76882e-05
1.38999e-05
2.74183e-05
6.06208e-05
0.000105297
0.000130867
0.000129069
0.000109086
8.14541e-05
5.85482e-05
5.03955e-05
6.48265e-05
0.000110452
6.33816e-05
1.06584e-05
7.5086e-06
3.73732e-05
0.000102733
0.000125993
0.000122141
0.000111015
9.64803e-05
7.49541e-05
5.31722e-05
3.9099e-05
3.27072e-05
3.32842e-05
4.14898e-05
5.71e-05
7.4974e-05
8.7755e-05
9.29611e-05
9.12662e-05
8.17989e-05
5.9936e-05
2.90334e-05
1.27125e-05
1.63428e-05
3.96655e-05
8.5329e-05
0.000125208
0.000133408
0.000118168
9.20493e-05
6.72763e-05
5.60231e-05
6.80908e-05
0.000113179
6.67944e-05
1.06897e-05
7.43749e-06
3.4374e-05
9.78489e-05
0.000128275
0.000116393
9.77552e-05
9.00806e-05
9.23102e-05
8.8871e-05
6.73751e-05
4.49646e-05
3.36085e-05
3.20799e-05
3.93932e-05
5.55803e-05
7.62708e-05
9.21881e-05
9.88212e-05
9.72138e-05
8.66473e-05
6.0195e-05
2.51938e-05
1.17193e-05
2.02015e-05
4.79619e-05
8.9302e-05
0.000115801
0.000115755
9.816e-05
7.67527e-05
6.6195e-05
7.87599e-05
0.000121684
7.01617e-05
1.07546e-05
7.94156e-06
3.51673e-05
9.96775e-05
0.000124215
9.7846e-05
7.26748e-05
6.22798e-05
6.56834e-05
7.9461e-05
8.90295e-05
7.1629e-05
4.69422e-05
3.58993e-05
3.64044e-05
4.66624e-05
6.62736e-05
8.96907e-05
0.00010622
0.000111038
0.000106222
8.88576e-05
5.15514e-05
1.89163e-05
1.22366e-05
2.71145e-05
6.182e-05
0.000101196
0.000113609
0.000101795
8.32454e-05
7.41552e-05
8.67837e-05
0.000125187
7.26724e-05
1.07359e-05
8.89022e-06
4.16087e-05
0.000116803
0.000107948
7.17178e-05
5.61432e-05
5.22679e-05
5.45718e-05
6.21578e-05
7.13088e-05
7.11466e-05
5.80479e-05
4.63175e-05
4.37974e-05
4.99281e-05
6.27116e-05
7.84278e-05
9.15432e-05
9.81462e-05
9.5598e-05
8.05561e-05
5.88637e-05
3.79723e-05
1.90843e-05
1.80505e-05
3.45911e-05
6.54452e-05
9.33295e-05
9.88597e-05
8.77266e-05
7.72924e-05
8.31844e-05
0.000113097
7.60649e-05
1.09319e-05
9.61184e-06
5.41073e-05
0.0001191
6.09275e-05
3.99597e-05
3.9755e-05
4.78231e-05
5.64777e-05
6.05365e-05
6.01639e-05
5.85506e-05
5.77553e-05
5.73434e-05
5.69413e-05
5.76706e-05
5.97985e-05
6.21962e-05
6.44737e-05
6.55174e-05
6.52182e-05
7.30073e-05
9.8693e-05
0.000115881
5.91105e-05
2.0644e-05
1.78256e-05
3.20397e-05
5.83014e-05
8.17488e-05
8.44606e-05
7.60705e-05
7.95586e-05
0.000109951
8.96135e-05
1.1853e-05
9.34989e-06
6.08009e-05
7.45014e-05
3.31243e-05
2.66089e-05