/*--------------------------------*- C++ -*----------------------------------*\
| =========                 |                                                 |
| \\      /  F ield         | OpenFOAM: The Open Source CFD Toolbox           |
|  \\    /   O peration     | Version:  v2006                                 |
|   \\  /    A nd           | Website:  www.openfoam.com                      |
|    \\/     M anipulation  |                                                 |
\*---------------------------------------------------------------------------*/
FoamFile
{
    version     2.0;
    format      ascii;
    class       volScalarField;
    location    "76";
    object      T;
}
// * * * * * * * * * * * * * * * * * * * * * * * * * * * * * * * * * * * * * //

dimensions      [0 0 0 1 0 0 0];


internalField   nonuniform List<scalar> 
78750
(
323.137
324.206
324.77
325.167
325.062
324.553
324.452
324.13
324.036
323.827
323.731
323.591
323.488
323.375
323.268
323.158
323.047
322.924
322.782
322.625
322.452
322.259
322.044
321.803
321.533
321.228
320.883
320.49
320.039
319.511
318.876
318.071
317.232
320.51
430.344
309.853
321.152
327.199
331.766
333.85
333.325
332.998
332.357
331.761
331.217
330.7
330.234
329.793
329.381
328.988
328.613
328.251
327.897
327.544
327.197
326.857
326.519
326.18
325.84
325.497
325.151
324.805
324.467
324.157
323.929
323.927
324.611
328.023
348.204
463.735
306.31
311.239
314.833
318.392
322.007
325.172
327.437
328.92
329.863
330.393
330.675
330.804
330.835
330.798
330.715
330.597
330.456
330.298
330.127
329.948
329.766
329.582
329.393
329.203
329.011
328.817
328.625
328.444
328.294
328.229
328.399
329.385
334.474
362.875
474.876
304.208
310.062
315.983
319.478
321.603
323.376
325.044
326.893
328.803
330.287
331.159
331.621
331.862
331.974
332.007
331.987
331.927
331.838
331.728
331.604
331.47
331.33
331.188
331.047
330.91
330.781
330.667
330.578
330.537
330.597
330.903
332.037
337.812
371.414
484.668
310.9
319.467
322.981
325.297
327.261
328.738
329.686
330.298
330.778
331.189
331.518
331.785
332.005
332.178
332.301
332.378
332.412
332.409
332.377
332.322
332.248
332.162
332.068
331.972
331.874
331.774
331.676
331.597
331.575
331.699
332.262
334.584
345.909
386.694
491.98
306.278
315.071
319.253
321.386
323.268
325.492
327.567
329.193
330.41
331.377
332.115
332.566
332.836
333.022
333.159
333.251
333.302
333.318
333.304
333.266
333.208
333.136
333.054
332.965
332.874
332.785
332.702
332.629
332.579
332.608
332.898
334.422
344.261
388.011
495.277
310.329
319.664
322.84
325.143
327.876
330.187
331.783
332.807
333.446
333.836
334.076
334.219
334.303
334.355
334.382
334.387
334.369
334.331
334.275
334.204
334.121
334.028
333.931
333.834
333.742
333.654
333.576
333.527
333.553
333.762
334.521
337.619
352.686
399.217
499.143
307.044
316.057
320.018
322.071
323.853
326.044
328.36
330.359
331.92
333.083
333.917
334.483
334.832
335.029
335.138
335.197
335.219
335.208
335.167
335.102
335.015
334.911
334.795
334.672
334.546
334.425
334.306
334.193
334.119
334.161
334.58
336.807
350.656
399.689
501.109
309.865
319.51
322.803
325.056
327.688
330.352
332.414
333.803
334.698
335.28
335.67
335.935
336.107
336.206
336.247
336.248
336.222
336.174
336.105
336.018
335.914
335.796
335.671
335.538
335.399
335.257
335.124
335.021
335.002
335.204
336.139
340.416
360.12
409.61
502.967
307.451
315.915
319.627
321.713
323.577
325.871
328.499
330.954
332.932
334.384
335.392
336.071
336.521
336.813
336.989
337.076
337.096
337.069
337.007
336.919
336.809
336.68
336.534
336.374
336.202
336.02
335.836
335.663
335.531
335.521
335.938
338.709
356.457
408.819
504.476
308.812
317.68
321.27
323.489
325.689
328.198
330.707
332.894
334.588
335.789
336.604
337.151
337.519
337.764
337.916
337.996
338.015
337.985
337.914
337.813
337.687
337.542
337.38
337.203
337.017
336.826
336.646
336.502
336.456
336.672
337.791
343.206
366.886
417.643
504.699
307.046
314.978
318.893
321.151
322.971
324.901
327.232
329.842
332.362
334.462
336.014
337.07
337.763
338.214
338.506
338.689
338.787
338.816
338.784
338.701
338.576
338.417
338.232
338.027
337.807
337.576
337.342
337.121
336.943
336.882
337.218
340.005
359.942
413.72
505.252
308.09
317.43
321.841
324.336
326.258
327.966
329.576
331.26
333.095
334.905
336.435
337.567
338.339
338.849
339.185
339.403
339.535
339.598
339.602
339.55
339.445
339.292
339.099
338.874
338.628
338.374
338.132
337.936
337.863
338.118
339.526
346.297
372.15
421.724
504.427
307.657
317.729
322.657
325.313
327.149
328.565
329.746
330.913
332.303
333.996
335.76
337.267
338.369
339.107
339.587
339.9
340.102
340.223
340.279
340.276
340.217
340.102
339.933
339.713
339.449
339.155
338.848
338.554
338.323
338.28
338.953
344.066
369.503
421.598
505.974
309.71
322.103
327.376
330.136
332.051
333.405
334.222
334.601
334.826
335.339
336.362
337.641
338.788
339.627
340.184
340.544
340.775
340.92
340.998
341.02
340.987
340.897
340.749
340.539
340.27
339.953
339.615
339.31
339.154
339.507
341.972
353.467
387.082
434.255
506.776
310.721
323.641
328.824
331.56
333.559
335.074
336.062
336.555
336.661
336.623
336.9
337.718
338.785
339.736
340.435
340.908
341.222
341.427
341.556
341.622
341.633
341.589
341.487
341.32
341.082
340.771
340.395
339.983
339.617
339.559
341.215
352.245
391.808
440.08
508.245
312.988
327.086
332.353
335.169
337.335
338.995
339.965
340.295
340.167
339.737
339.302
339.328
339.865
340.562
341.153
341.58
341.875
342.076
342.209
342.287
342.314
342.292
342.217
342.084
341.882
341.603
341.246
340.829
340.428
340.3
341.694
351.552
391.017
440.729
507.696
314.092
328.311
333.62
336.441
338.657
340.404
341.394
341.716
341.63
341.315
340.909
340.686
340.867
341.312
341.782
342.166
342.453
342.66
342.803
342.894
342.937
342.936
342.889
342.79
342.632
342.4
342.082
341.669
341.185
340.732
340.763
346.082
379.526
431.856
504.778
316.386
331.219
336.358
339.085
341.283
342.954
343.759
343.917
343.749
343.438
343.103
342.858
342.783
342.861
343.014
343.181
343.333
343.457
343.55
343.61
343.636
343.628
343.584
343.499
343.365
343.171
342.901
342.544
342.11
341.676
341.728
344.845
370.578
423.643
503.901
318.921
332.709
336.828
338.935
340.604
341.984
342.974
343.625
344.024
344.228
344.292
344.273
344.229
344.201
344.206
344.238
344.284
344.33
344.366
344.384
344.38
344.35
344.292
344.2
344.067
343.881
343.626
343.285
342.856
342.422
343.809
352.105
379.618
426.685
500.255
320.174
331.573
334.657
336.439
338.001
339.566
341.182
342.729
344.047
345.049
345.715
346.068
346.159
346.068
345.882
345.677
345.503
345.381
345.303
345.249
345.2
345.14
345.062
344.958
344.82
344.639
344.401
344.092
343.719
343.58
347.232
362.018
395.831
436.914
498.643
316.908
325.308
328.843
331.579
334.022
336.308
338.483
340.582
342.605
344.477
346.089
347.339
348.158
348.521
348.464
348.079
347.512
346.945
346.516
346.245
346.078
345.96
345.851
345.731
345.584
345.397
345.156
344.853
344.508
344.646
350.5
374.398
412.859
448.552
500.649
311.177
319.589
326.183
330.931
334.554
337.563
340.145
342.399
344.41
346.254
347.967
349.51
350.783
351.665
352.052
351.876
351.116
349.902
348.636
347.701
347.153
346.851
346.662
346.514
346.366
346.193
345.978
345.707
345.399
345.461
350.423
378.569
424.824
459.666
508.474
308.639
321.127
330.281
335.86
339.693
342.763
345.394
347.703
349.744
351.543
353.099
354.359
355.263
355.808
356.011
355.81
355.012
353.439
351.393
349.573
348.392
347.773
347.451
347.25
347.088
346.926
346.74
346.511
346.24
346.075
348.265
369.989
427.253
462.979
509.395
310.224
325.557
333.817
338.402
341.672
344.466
347.032
349.47
351.83
354.124
356.275
358.043
359.137
359.494
359.275
358.583
357.304
355.242
352.719
350.526
349.13
348.442
348.128
347.94
347.79
347.653
347.513
347.354
347.191
347.159
348.742
365.529
423.847
461.157
508.32
313.796
327.98
334.246
337.968
340.986
343.752
346.381
348.922
351.407
353.857
356.232
358.324
359.774
360.372
360.167
359.217
357.431
354.869
352.247
350.381
349.418
348.983
348.752
348.596
348.47
348.353
348.232
348.096
347.934
347.758
348.069
359.163
412.515
453.087
504.296
315.516
329.242
335.431
339.203
342.261
345.001
347.534
349.911
352.148
354.244
356.188
357.928
359.308
360.11
360.175
359.39
357.604
354.904
352.268
350.665
349.945
349.617
349.436
349.318
349.232
349.168
349.129
349.131
349.219
349.583
351.556
363.12
408.888
449.306
502.154
315.793
329.908
336.037
339.653
342.547
345.159
347.604
349.904
352.033
353.962
355.705
357.317
358.804
360.03
360.773
360.836
359.997
357.937
355.027
352.554
351.143
350.503
350.208
350.049
349.944
349.865
349.807
349.789
349.877
350.359
353.437
367.717
411.334
449.005
499.174
314.593
327.355
333.425
337.188
340.261
343.097
345.809
348.421
350.895
353.149
355.11
356.796
358.309
359.722
360.954
361.805
362.077
361.517
359.646
356.613
353.824
352.09
351.249
350.898
350.755
350.713
350.752
350.925
351.472
353.525
361.886
382.855
422.171
455.498
502.336
313.489
326.864
333.79
338.046
341.417
344.428
347.221
349.856
352.337
354.588
356.485
357.961
359.091
360.06
361.015
361.928
362.63
362.955
362.702
361.289
358.341
355.252
353.119
351.944
351.413
351.165
351.023
350.963
351.177
352.946
362.654
392.244
430.607
462.997
510.429
314.011
328.774
335.763
339.882
343.14
346.076
348.843
351.507
354.078
356.48
358.547
360.105
361.113
361.708
362.119
362.525
362.948
363.275
363.388
363.157
362.162
359.704
356.537
354.163
352.815
352.207
352.073
352.202
352.667
354.328
361.841
390.19
434.907
467.026
512.386
315.159
329.286
335.645
339.503
342.659
345.552
348.308
350.997
353.657
356.27
358.71
360.758
362.223
363.085
363.497
363.676
363.792
363.901
363.957
363.889
363.606
362.845
360.814
357.645
354.924
353.229
352.368
351.98
351.955
353.023
359.744
384.833
432.343
466.259
512.016
315.134
328.803
335.324
339.388
342.717
345.714
348.481
351.079
353.561
355.973
358.304
360.453
362.232
363.491
364.225
364.557
364.647
364.626
364.56
364.452
364.27
363.955
363.361
362.02
359.267
356.216
354.37
353.66
353.837
355.145
361.275
385.683
433.195
466.562
510.656
315.091
329.709
336.592
340.768
344.133
347.132
349.867
352.386
354.719
356.895
358.924
360.78
362.395
363.676
364.564
365.086
365.326
365.377
365.31
365.168
364.962
364.68
364.274
363.618
362.369
359.891
356.524
354.036
352.884
353.316
359.059
387.063
433.249
466.597
511.774
315.516
330.222
336.971
341.09
344.452
347.484
350.285
352.892
355.331
357.621
359.746
361.64
363.209
364.395
365.201
365.684
365.922
365.988
365.936
365.805
365.615
365.379
365.097
364.739
364.252
363.518
362.069
359.143
356.813
356.35
355.655
368.34
425.146
460.099
502.609
315.702
330.221
337.081
341.353
344.861
348.001
350.846
353.424
355.773
357.955
360.033
362.002
363.743
365.095
365.991
366.493
366.715
366.753
366.671
366.505
366.27
365.966
365.574
365.045
364.265
362.953
360.496
356.889
357.638
370.958
397.33
422.943
444.742
472.204
519.609
315.783
330.865
337.98
342.37
345.977
349.221
352.163
354.789
357.078
359.059
360.817
362.461
364.026
365.402
366.43
367.06
367.37
367.466
367.431
367.318
367.151
366.943
366.694
366.398
366.036
365.564
364.862
363.739
362.366
363.1
376.723
425.282
467.752
488.806
521.655
316.232
331.632
338.727
343.106
346.744
350.069
353.143
355.938
358.395
360.487
362.24
363.724
365.02
366.154
367.062
367.673
368.004
368.124
368.106
367.997
367.823
367.593
367.309
366.965
366.55
366.044
365.387
364.467
362.113
360.701
362.883
368.382
410.414
452.657
510.465
316.696
332.038
339.175
343.677
347.471
350.944
354.138
357.002
359.488
361.601
363.393
364.913
366.186
367.21
367.966
368.454
368.712
368.806
368.79
368.7
368.551
368.344
368.075
367.735
367.311
366.778
366.048
365.133
363.009
361.962
357.397
340.719
364.488
416.374
493.91
317.203
332.91
340.086
344.634
348.533
352.148
355.48
358.403
360.825
362.787
364.427
365.866
367.14
368.185
368.915
369.32
369.481
369.498
369.442
369.336
369.18
368.966
368.699
368.379
368.009
367.601
366.807
366.718
374.154
374.945
361.71
361.221
401.016
438.302
489.113
317.31
333.231
340.476
345.061
349.023
352.766
356.272
359.338
361.77
363.584
364.973
366.162
367.289
368.343
369.19
369.723
369.975
370.052
370.043
369.997
369.926
369.848
369.795
369.839
370.182
371.53
376.691
390.88
411.787
422.432
418.915
420.209
441.726
471.962
522.938
317.55
333.632
341.004
345.716
349.824
353.719
357.383
360.599
363.118
364.88
366.053
366.894
367.632
368.404
369.189
369.834
370.233
370.416
370.468
370.446
370.381
370.283
370.156
370.013
369.92
370.197
372.036
378.811
395.284
418.333
440.601
466.34
482.549
500.041
536.438
318.097
334.385
341.808
346.577
350.774
354.776
358.54
361.845
364.458
366.284
367.424
368.094
368.514
368.87
369.296
369.804
370.264
370.579
370.755
370.845
370.888
370.905
370.908
370.903
370.893
370.88
370.903
371.17
372.541
378.37
387.958
403.049
428.176
456.928
510.269
319.232
335.569
342.723
347.343
351.502
355.542
359.367
362.725
365.433
367.428
368.757
369.552
369.976
370.179
370.288
370.425
370.645
370.885
371.078
371.218
371.33
371.439
371.564
371.721
371.926
372.186
372.445
372.217
372.01
376.071
376.433
363.83
381.095
421.607
491.182
319.331
335.649
342.879
347.619
351.941
356.143
360.021
363.288
365.858
367.799
369.203
370.16
370.767
371.113
371.278
371.333
371.352
371.395
371.466
371.564
371.701
371.907
372.218
372.679
373.34
374.251
375.651
381.898
385.654
377.295
367.367
376.049
410.048
443.724
493.664
318.962
335.662
343.232
348.216
352.795
357.233
361.166
364.267
366.561
368.243
369.485
370.389
371.02
371.43
371.668
371.773
371.786
371.768
371.785
371.855
371.992
372.261
372.76
373.633
375.309
379.671
391.634
409.954
417.064
405.825
399.035
413.315
441.989
473.986
526.945
319.314
336.436
344.111
349.243
354.151
358.98
363.089
366.109
368.171
369.562
370.526
371.219
371.722
372.069
372.275
372.357
372.338
372.253
372.154
372.095
372.1
372.186
372.413
372.957
374.295
377.799
386.81
404.912
426.808
440.357
450.638
460.406
474.099
497.014
544.372
319.704
336.947
344.857
350.31
355.724
360.973
365.098
367.87
369.654
370.819
371.593
372.108
372.448
372.669
372.8
372.855
372.839
372.76
372.64
372.52
372.445
372.439
372.51
372.681
373.04
373.858
375.958
381.399
392.626
407.958
426.537
452.786
471.323
490.126
531.618
320.572
338.158
346.321
352.284
358.617
364.573
368.721
371.038
372.225
372.866
373.273
373.568
373.786
373.932
374.006
374.012
373.95
373.815
373.602
373.325
373.036
372.815
372.716
372.752
372.933
373.302
373.991
375.374
378.501
385.305
395.23
414.406
443.62
470.402
514.613
321.54
339.077
347.28
353.684
360.925
367.517
371.776
373.914
374.754
374.939
374.879
374.785
374.731
374.725
374.751
374.788
374.813
374.812
374.771
374.679
374.525
374.302
374.018
373.707
373.433
373.279
373.342
373.773
375.003
378.902
389.57
404.962
433.513
464.945
513.739
322.595
339.755
347.776
354.469
362.353
369.349
373.73
375.938
376.81
376.907
376.657
376.334
376.044
375.81
375.631
375.495
375.391
375.304
375.221
375.13
375.02
374.889
374.74
374.591
374.466
374.386
374.336
374.213
373.811
373.655
381.864
406.862
442.061
472.6
515.345
321.978
338.633
346.279
352.651
360.239
367.421
372.302
375.043
376.399
376.885
376.918
376.788
376.621
376.457
376.308
376.173
376.052
375.939
375.828
375.717
375.604
375.498
375.424
375.429
375.582
375.958
376.602
377.558
378.082
373.437
375.91
406.588
443.221
473.638
520.022
320.925
337.326
344.483
350.154
357.016
364.282
369.79
373.105
374.97
376.004
376.541
376.767
376.801
376.742
376.647
376.539
376.425
376.308
376.185
376.061
375.947
375.88
375.945
376.326
377.434
380.345
388.002
404.12
420.064
418.261
415.173
433.399
459.189
490.586
543.685
319.705
335.813
342.907
348.141
354.155
360.955
366.71
370.484
372.764
374.261
375.406
376.278
376.753
376.899
376.913
376.884
376.839
376.784
376.719
376.643
376.556
376.48
376.488
376.787
377.922
381.342
390.602
411.034
441.074
464.386
475.552
486.845
500.432
521.211
556.319
319.299
335.402
342.597
347.765
353.527
360.162
366.116
370.211
372.62
374.019
375.043
376.18
377.273
377.756
377.831
377.801
377.762
377.73
377.708
377.694
377.684
377.668
377.646
377.65
377.82
378.58
381.065
387.853
402.553
424.592
447.155
467.855
484.775
502.536
538.45
319.672
335.415
342.043
346.97
352.916
360.215
366.914
371.484
374.015
375.227
375.799
376.245
377.062
378.005
378.605
378.846
378.923
378.956
378.993
379.051
379.14
379.266
379.425
379.61
379.804
380.009
380.3
380.989
382.94
387.556
395.405
407.134
432.318
461.493
508.997
318.084
332.938
339.442
343.876
348.754
355.254
362.295
367.905
371.609
373.8
374.947
375.43
375.597
376.005
377.191
378.46
379.345
379.789
380.032
380.223
380.428
380.688
381.036
381.5
382.105
382.866
383.776
384.737
385.343
385.055
384.798
389.915
416.095
446.781
493.531
317.253
332.277
339.219
343.86
348.695
354.844
361.526
367.039
370.837
373.29
374.874
375.817
376.174
376.07
375.797
376.282
377.983
379.609
380.554
381.073
381.459
381.857
382.352
383.03
384.001
385.431
387.603
390.881
394.783
396.698
397.279
404.282
426.324
454.549
501.9
317.211
332.493
339.661
344.514
349.675
356.262
363.236
368.744
372.29
374.326
375.458
376.131
376.579
376.862
376.955
376.842
376.815
377.874
379.824
381.319
382.15
382.722
383.297
384.037
385.123
386.858
389.821
395.017
403.068
411.402
417.564
426.842
443.352
468.114
518.669
316.455
332.8
340.85
346.077
351.156
357.013
363.071
368.095
371.575
373.803
375.211
376.084
376.598
376.878
377.018
377.07
377.049
377.01
377.467
379.187
381.357
382.824
383.796
384.663
385.693
387.178
389.648
394.166
402.352
414.53
427.654
440.72
455.494
477.548
527.146
318.043
336.191
344.61
350.248
356.019
362.269
367.672
371.521
373.963
375.427
376.314
376.87
377.225
377.44
377.554
377.601
377.611
377.611
377.639
377.959
379.354
381.579
383.367
384.704
385.942
387.393
389.437
392.782
398.827
409.457
424.8
441.855
458.197
479.868
527.692
319.971
338.418
346.556
352.13
357.91
364.057
369.304
372.786
374.842
376.082
376.878
377.408
377.76
377.983
378.115
378.184
378.215
378.234
378.276
378.413
378.937
380.508
382.622
384.451
386.033
387.684
389.778
392.862
397.966
406.881
421.337
439.788
457.551
479.947
527.654
322.05
340.086
347.71
352.974
358.372
364.16
369.508
373.373
375.682
376.977
377.717
378.158
378.429
378.595
378.692
378.744
378.774
378.803
378.865
379.041
379.549
380.76
382.605
384.426
386.117
387.91
390.19
393.548
399.016
408.243
422.77
441.242
458.945
481.314
528.827
322.749
339.87
346.822
351.432
355.82
360.543
365.663
370.355
373.872
376.201
377.632
378.471
378.951
379.219
379.362
379.434
379.469
379.499
379.566
379.771
380.386
381.809
383.791
385.396
386.739
388.163
390.047
392.978
398.054
407.154
422.052
440.999
458.707
480.574
527.047
321.959
338.407
345.129
349.341
352.958
356.503
360.422
364.843
369.209
372.94
375.769
377.659
378.785
379.406
379.736
379.904
379.985
380.031
380.089
380.244
380.73
382.069
384.499
386.816
388.362
389.635
391.08
393.209
396.979
404.305
417.74
436.549
454.659
476.589
523.176
320.039
336.401
343.725
348.254
351.952
355.189
358.04
360.814
363.964
367.573
371.365
374.807
377.366
378.944
379.807
380.253
380.473
380.576
380.636
380.723
380.973
381.764
383.7
386.775
389.383
391.335
393.157
395.362
398.69
404.686
415.965
433.197
451.101
473.366
521.14
317.992
335.374
344.233
349.746
354.246
358.262
361.438
363.442
364.635
365.822
367.785
370.806
374.228
377.065
378.924
379.993
380.581
380.903
381.083
381.205
381.362
381.754
382.84
385.099
388.607
391.969
395.009
398.227
402.367
408.717
419.352
435.022
451.913
473.785
521.64
318.005
336.834
346.812
353.191
358.669
363.806
367.994
370.555
371.458
371.311
370.914
371.337
373.229
375.811
378.038
379.545
380.461
381.014
381.36
381.593
381.791
382.095
382.902
384.312
386.884
390.249
393.65
397.349
402.146
409.267
420.312
435.486
451.741
473.203
521.243
320.484
340.665
350.896
357.909
364.489
370.12
374.028
376.315
377.253
377.19
376.545
375.891
376.05
377.162
378.569
379.763
380.629
381.232
381.656
381.967
382.244
382.592
383.032
383.294
383.75
385.843
389.207
393.178
398.032
404.869
415.379
430.336
447.173
468.973
516.896
326.021
346.4
356.419
364.567
372.894
378.091
380.203
380.805
380.894
380.816
380.652
380.469
380.398
380.545
380.877
381.283
381.686
382.042
382.353
382.681
382.811
382.446
382.053
382.972
385.3
386.694
388.097
390.615
394.462
400.37
410.176
425.417
443.54
466.045
512.882
329.376
348.3
359.111
369.423
378.475
382.005
382.509
382.348
382.306
382.551
383.019
383.525
383.953
384.301
384.557
384.694
384.801
385.099
384.855
384.105
384.01
386.516
389.762
390.669
390.147
390.507
391.998
394.232
397.475
402.793
412.104
426.788
444.65
468.429
518.498
328.451
346.935
357.603
368.087
377.087
381.217
382.619
383.203
383.652
384.167
384.818
385.711
386.953
388.462
389.692
390.029
389.975
391.809
395.436
394.173
390.37
387.971
386.793
387.034
389.474
393.252
397.047
400.729
404.973
410.925
420.047
433.108
449.017
471.536
520.011
325.574
343.599
352.146
360.074
369.949
377.898
381.961
383.706
384.645
385.617
387.256
390.205
394.617
399.509
402.184
399.165
394.054
392.533
393.59
393.033
390.446
387.51
385.425
385.146
386.972
390.435
394.956
400.439
407.137
415.471
425.859
438.33
452.659
473.78
521.532
322.978
340.521
347.98
354.558
364.032
374.415
380.812
383.6
385.138
387.37
392.233
400.445
407.392
405.604
397.723
392.409
390.245
390.984
394.574
398.241
399.588
399.267
398.682
398.513
399.129
400.807
403.804
408.416
414.92
423.482
434.137
446.95
463.303
489.875
541.954
322.749
341.311
349.1
354.768
361.365
369.938
377.977
382.602
384.396
385.481
388.305
395.258
405.957
414.076
413.41
407.095
401.521
397.749
395.946
396.54
398.785
401.848
405.633
410.097
414.994
420.181
425.765
431.996
439.147
447.48
457.351
469.623
486.952
515.119
559.878
323.018
342.564
351.018
356.9
362.415
367.438
373.176
379.083
383.085
384.636
384.963
385.954
390.177
399.229
409.829
416.678
419.139
419.041
417.395
415.074
413.063
411.988
412.18
413.873
417.164
421.969
428.117
435.449
443.89
453.5
464.546
477.859
495.91
522.938
561.123
323.336
342.523
351.289
358.529
366.629
372.417
374.851
377.141
380.534
383.505
384.948
385.41
385.761
387.094
390.9
397.678
405.951
414.021
421.076
426.74
430.95
433.914
436.014
437.69
439.342
441.289
443.779
447.02
451.246
456.769
464.141
474.654
490.903
517.09
555.532
324.044
342.251
350.388
357.391
366.514
375.3
379.702
380.609
380.941
382.252
383.933
384.984
385.47
385.763
386.214
387.347
389.815
394.081
400.16
407.644
415.917
424.392
432.679
440.621
448.213
455.512
462.573
469.432
476.132
482.837
490.037
497.654
507.442
523.05
551.626
323.227
341.186
349.175
355.742
363.92
372.457
379.07
382.606
383.802
384.029
384.382
385.006
385.515
385.826
386.024
386.199
386.479
387.063
388.236
390.32
393.58
398.12
403.879
410.713
418.49
427.116
436.521
446.652
457.565
469.368
481.048
494.511
505.233
514.576
538.772
322.133
340.425
348.701
355.408
363.695
371.485
377.095
380.921
383.334
384.638
385.242
385.605
385.933
386.204
386.404
386.549
386.661
386.764
386.896
387.116
387.516
388.213
389.339
391.02
393.365
396.469
400.412
405.282
411.117
418.855
425.577
431.327
450.782
472.469
514.105
321.914
340.419
348.95
355.851
364.577
372.811
378.299
381.603
383.687
385.041
385.871
386.34
386.625
386.833
386.999
387.135
387.25
387.349
387.437
387.518
387.598
387.688
387.806
387.975
388.226
388.596
389.124
389.854
390.812
392.297
394.804
389.955
402.105
434.723
501.07
322.419
341.58
350.632
358.092
367.383
375.329
380.076
382.679
384.275
385.393
386.209
386.779
387.159
387.416
387.604
387.753
387.881
387.997
388.108
388.216
388.321
388.423
388.523
388.619
388.71
388.795
388.869
388.925
388.958
388.851
389.494
385.89
398.691
433.342
498.624
323.794
343.718
353.074
360.883
370.557
378.478
382.883
384.967
386.025
386.671
387.136
387.5
387.786
388.01
388.191
388.343
388.48
388.611
388.742
388.877
389.019
389.168
389.324
389.492
389.675
389.876
390.101
390.366
390.725
391.35
394.292
400.331
422.01
454.857
506.926
325.1
345.681
355.272
363.149
372.294
379.382
383.481
385.59
386.724
387.398
387.84
388.153
388.393
388.587
388.753
388.901
389.04
389.176
389.317
389.47
389.637
389.819
390.022
390.258
390.539
390.881
391.315
391.92
392.972
395.601
403.962
420.762
445.945
476.693
524.141
326.777
347.768
357.686
365.953
375.16
381.537
384.954
386.677
387.606
388.162
388.522
388.773
388.964
389.126
389.273
389.412
389.548
389.685
389.831
389.993
390.174
390.382
390.629
390.927
391.292
391.748
392.347
393.222
394.8
398.712
409.984
433.343
460.217
488.543
533.312
328.238
349.3
359.343
367.947
377.414
383.468
386.354
387.743
388.495
388.948
389.239
389.432
389.572
389.691
389.805
389.921
390.043
390.173
390.317
390.481
390.673
390.904
391.187
391.535
391.969
392.517
393.228
394.228
395.925
399.787
410.53
434.882
463.219
490.792
534.405
328.841
349.76
359.335
367.487
376.988
383.91
387.186
388.593
389.269
389.647
389.881
390.033
390.141
390.232
390.322
390.42
390.528
390.65
390.789
390.953
391.153
391.401
391.714
392.11
392.614
393.259
394.089
395.195
396.878
400.264
409.193
431.002
459.845
488.048
532.07
328.002
348.498
357.107
363.879
372.348
380.967
386.424
388.948
389.998
390.445
390.646
390.74
390.788
390.825
390.874
390.94
391.026
391.133
391.262
391.423
391.627
391.89
392.233
392.682
393.271
394.044
395.048
396.35
398.177
401.437
409.318
428.587
456.487
485.161
530.082
325.973
345.846
354.019
359.594
365.909
374.336
382.342
387.349
389.748
390.764
391.181
391.344
391.397
391.412
391.429
391.466
391.528
391.616
391.733
391.886
392.09
392.367
392.745
393.26
393.967
394.934
396.231
397.918
400.18
403.876
411.921
430.047
456.001
484.304
530.074
324.023
343.743
352.432
358.112
363.583
370.064
377.912
384.697
388.815
390.767
391.582
391.898
392.001
392.016
392.008
392.015
392.049
392.114
392.211
392.351
392.549
392.833
393.242
393.827
394.667
395.872
397.563
399.823
402.832
407.497
416.623
434.612
458.107
485.204
531.694
322.983
342.831
352.011
358.287
364.379
370.467
376.598
382.82
387.705
390.499
391.783
392.314
392.514
392.57
392.571
392.566
392.58
392.625
392.703
392.826
393.013
393.3
393.736
394.394
395.385
396.882
399.093
402.157
406.252
412.346
423.047
441.056
461.915
487.288
534.308
322.641
342.645
352.023
358.699
365.784
373.072
378.942
383.663
387.801
390.66
392.131
392.77
393.025
393.111
393.125
393.12
393.125
393.154
393.215
393.319
393.491
393.771
394.217
394.92
396.023
397.763
400.48
404.469
409.9
417.545
429.514
447.004
465.558
489.258
536.495
322.853
343.448
353.087
359.941
367.346
375.264
381.676
385.907
389.005
391.338
392.67
393.279
393.534
393.631
393.66
393.665
393.672
393.696
393.747
393.84
394
394.271
394.722
395.456
396.634
398.533
401.589
406.297
412.968
422.155
435.203
451.968
468.794
491.206
538.32
324.023
345.956
356.094
363.321
370.918
378.465
384.47
388.361
390.75
392.42
393.418
393.888
394.09
394.173
394.203
394.214
394.225
394.248
394.295
394.38
394.53
394.79
395.233
395.971
397.183
399.176
402.48
407.794
415.587
426.072
439.726
455.612
471.187
492.635
539.373
326.253
349.249
359.619
367.126
374.857
381.792
386.946
390.306
392.272
393.467
394.164
394.498
394.649
394.717
394.748
394.766
394.784
394.812
394.862
394.947
395.095
395.35
395.785
396.511
397.693
399.611
402.789
408.098
416.407
427.926
442.259
457.741
472.606
493.441
539.86
328.509
351.961
362.394
370.046
377.744
384.093
388.534
391.494
393.306
394.308
394.837
395.087
395.203
395.26
395.292
395.316
395.341
395.376
395.431
395.521
395.672
395.93
396.373
397.122
398.357
400.355
403.594
408.917
417.386
429.444
444.209
459.438
473.885
494.356
540.44
330.131
353.868
364.481
372.366
380.104
385.893
389.587
392.091
393.823
394.864
395.391
395.629
395.737
395.793
395.83
395.86
395.894
395.937
396
396.097
396.255
396.516
396.957
397.694
398.895
400.811
403.893
408.998
417.342
429.618
444.773
460.083
474.374
494.62
540.584
331.536
355.37
366.207
374.584
382.874
388.474
391.384
393.084
394.349
395.293
395.855
396.122
396.242
396.304
396.346
396.384
396.424
396.475
396.547
396.656
396.829
397.116
397.602
398.427
399.786
401.92
405.177
410.26
418.412
430.635
445.938
461.219
475.427
495.665
541.497
332.037
355.254
365.891
374.548
383.771
390.319
393.465
394.788
395.473
395.987
396.384
396.619
396.737
396.801
396.846
396.888
396.933
396.99
397.068
397.182
397.359
397.646
398.128
398.95
400.332
402.571
406.052
411.399
419.665
431.844
447.078
462.186
476.223
496.33
542.028
330.655
352.731
362.665
370.819
380.338
388.685
393.694
395.979
396.853
397.141
397.227
397.251
397.265
397.29
397.324
397.364
397.414
397.478
397.566
397.695
397.895
398.219
398.765
399.695
401.246
403.704
407.414
412.956
421.343
433.528
448.628
463.427
477.276
497.357
542.899
327.343
348.161
357.457
364.67
373.381
382.997
390.665
395.203
397.364
398.199
398.369
398.216
397.982
397.836
397.795
397.811
397.854
397.916
398.003
398.13
398.322
398.631
399.155
400.073
401.683
404.372
408.541
414.637
423.421
435.673
450.467
464.772
478.329
498.257
543.51
324.592
345.014
354.453
361.254
368.798
377.738
386.402
392.81
396.591
398.463
399.223
399.337
399.041
398.628
398.366
398.282
398.293
398.352
398.447
398.591
398.811
399.159
399.732
400.702
402.342
405.044
409.303
415.681
424.809
437.174
451.722
465.608
478.889
498.638
543.712
323.496
344.713
354.802
361.835
369.012
376.81
384.575
391.066
395.534
398.142
399.471
400.026
400.049
399.65
399.135
398.823
398.723
398.737
398.812
398.94
399.144
399.477
400.044
401.042
402.793
405.704
410.218
416.88
426.335
438.841
453.114
466.568
479.612
499.26
544.133
324.621
347.447
358.012
365.097
371.832
378.598
385.135
390.855
395.174
397.981
399.593
400.414
400.718
400.59
400.09
399.555
399.272
399.207
399.261
399.393
399.612
399.964
400.543
401.529
403.248
406.168
410.794
417.632
427.235
439.766
453.823
466.976
479.839
499.398
544.237
326.829
351.349
362.24
369.107
374.964
380.383
385.659
390.617
394.734
397.689
399.551
400.603
401.117
401.233
400.956
400.374
399.866
399.641
399.624
399.73
399.947
400.322
400.96
402.063
403.96
407.086
411.913
418.975
428.81
441.375
455.122
467.913
480.643
500.258
544.925
330.731
356.833
368.011
374.822
380.017
384.018
387.506
391.032
394.444
397.293
399.345
400.645
401.373
401.694
401.667
401.269
400.656
400.217
400.076
400.134