/*--------------------------------*- C++ -*----------------------------------*\
| =========                 |                                                 |
| \\      /  F ield         | OpenFOAM: The Open Source CFD Toolbox           |
|  \\    /   O peration     | Version:  v2006                                 |
|   \\  /    A nd           | Website:  www.openfoam.com                      |
|    \\/     M anipulation  |                                                 |
\*---------------------------------------------------------------------------*/
FoamFile
{
    version     2.0;
    format      ascii;
    class       volScalarField;
    location    "90";
    object      alphat;
}
// * * * * * * * * * * * * * * * * * * * * * * * * * * * * * * * * * * * * * //

dimensions      [1 -1 -1 0 0 0 0];


internalField   nonuniform List<scalar> 
78750
(
0.000888638
0.00189569
0.00125927
0.000193655
0.000103626
0.000113377
5.86523e-05
0.000103207
9.13003e-05
0.000108815
0.000114178
0.000127245
0.00013013
0.000121663
0.000107049
9.71511e-05
9.4202e-05
9.54107e-05
9.66241e-05
9.61121e-05
9.4725e-05
9.34378e-05
9.25063e-05
9.18992e-05
9.16085e-05
9.13899e-05
9.06621e-05
8.89778e-05
8.63896e-05
8.3261e-05
7.94119e-05
7.44983e-05
6.70582e-05
4.45204e-05
2.92159e-06
6.54313e-05
9.20178e-05
3.94144e-05
6.28842e-06
1.97623e-05
2.60303e-05
4.39434e-05
8.55618e-05
0.000137651
0.000143657
0.000132881
0.000127652
0.000135151
0.000149847
0.000163676
0.00017982
0.000201873
0.00022578
0.000248474
0.000272568
0.000300721
0.000313899
0.000310595
0.000307169
0.000303766
0.000283182
0.000226201
0.000175207
0.000132414
9.67038e-05
6.77286e-05
4.5869e-05
3.19404e-05
2.55118e-05
4.2545e-06
1.40058e-05
5.22891e-05
6.164e-05
0.00012312
0.000152404
0.000147195
0.000140151
0.000158408
0.000197476
0.000242654
0.000285735
0.000323409
0.000352589
0.000358286
0.000352874
0.000321732
0.000283404
0.000249086
0.000222462
0.000202037
0.000186855
0.000177862
0.000175118
0.000176433
0.000178807
0.000176218
0.000161716
0.000133689
9.74774e-05
7.08598e-05
7.4538e-05
9.78836e-05
2.78051e-05
8.57507e-06
1.11684e-06
2.31925e-07
7.0173e-06
2.26221e-05
3.70777e-05
4.35302e-05
5.07874e-05
5.73629e-05
6.60976e-05
7.69126e-05
8.85765e-05
9.97389e-05
0.000109582
0.000117841
0.000124389
0.000129026
0.000131499
0.000131665
0.000129786
0.000126463
0.000122644
0.000118291
0.000113158
0.000106788
9.79806e-05
8.8138e-05
8.26233e-05
8.94953e-05
0.000100435
7.52919e-05
4.82497e-05
3.27519e-05
2.04924e-05
1.09822e-05
1.03925e-05
1.05416e-06
1.2762e-06
3.16291e-05
3.87793e-05
7.91533e-05
8.15684e-05
6.59413e-05
5.59083e-05
5.15812e-05
5.00708e-05
4.98945e-05
5.06047e-05
5.19647e-05
5.38509e-05
5.62996e-05
5.94042e-05
6.33304e-05
6.83301e-05
7.47753e-05
8.31922e-05
9.44498e-05
0.000109005
0.000122062
0.000119324
9.74391e-05
7.5208e-05
6.11592e-05
5.13589e-05
4.17103e-05
3.71561e-05
4.47443e-05
6.14484e-05
4.12274e-05
1.57776e-05
1.10653e-05
2.89962e-06
6.63238e-07
1.7789e-05
5.84642e-05
8.5511e-05
0.000100048
0.000107931
0.000110517
0.000109484
0.000107014
0.000104662
0.000103139
0.000102651
0.00010323
0.000104975
0.000108072
0.000112665
0.000118989
0.000127342
0.000138039
0.000151268
0.000165353
0.000173037
0.000163837
0.00014308
0.000118012
6.90653e-05
4.15066e-05
4.34779e-05
8.04744e-05
4.06753e-05
4.31628e-05
0.000103494
2.68918e-05
1.56897e-05
3.96446e-06
2.06116e-06
3.1673e-05
6.59119e-05
9.55149e-05
0.000119994
0.000141173
0.000158984
0.000171679
0.000178872
0.000182642
0.000185883
0.000190433
0.000196501
0.000203008
0.000208188
0.000209764
0.000206386
0.000198579
0.000187959
0.000176293
0.000163503
0.000145666
0.000118824
9.1857e-05
7.77154e-05
7.41215e-05
7.05492e-05
6.64073e-05
9.37385e-05
0.000200392
0.000146087
0.000119135
5.96798e-05
3.07627e-05
4.54082e-06
1.22619e-06
1.70755e-05
3.75172e-05
6.10702e-05
8.28221e-05
0.000101904
0.000118672
0.000131961
0.000140288
0.000143727
0.000143608
0.000141165
0.000137099
0.000132016
0.000126726
0.000122076
0.000118746
0.000117272
0.000118029
0.000120481
0.000122229
0.000120257
0.000113119
9.83689e-05
7.64444e-05
5.9812e-05
5.54455e-05
6.81747e-05
0.000121192
0.000233751
0.000235076
0.000134901
5.06529e-05
3.46962e-05
5.078e-06
3.69921e-06
2.24194e-05
6.85408e-05
0.000145212
0.000189062
0.000186854
0.000162895
0.000136047
0.000116939
0.000107219
0.00010476
0.000106999
0.000111662
0.00011678
0.000120752
0.000122424
0.00012103
0.000116774
0.000112598
0.000114445
0.000127548
0.0001542
0.000192792
0.000232196
0.000239869
0.000182919
0.000118917
8.66454e-05
7.66405e-05
7.68496e-05
7.41942e-05
5.32343e-05
3.12222e-05
3.59567e-05
5.99163e-06
6.46835e-06
5.11517e-05
0.000197344
0.000221959
0.000193957
0.000150623
0.000111875
8.85009e-05
8.00254e-05
8.32325e-05
9.54357e-05
0.000113112
0.000130791
0.000142946
0.00014693
0.000143287
0.000133641
0.000119563
0.000104302
9.59797e-05
0.000109327
0.000167675
0.000248641
0.000248447
0.000248804
0.000249563
0.00025048
0.00025123
0.000180041
8.37139e-05
3.43301e-05
1.98677e-05
2.35054e-05
6.17134e-05
7.14805e-06
7.45547e-06
4.26866e-05
0.000133016
0.000178994
0.000169545
0.000131776
9.27173e-05
6.94963e-05
6.05983e-05
6.15899e-05
6.95794e-05
8.1406e-05
9.29583e-05
0.000101897
0.000109735
0.000119815
0.000133604
0.000148065
0.00015665
0.000156069
0.000152274
0.00015594
0.000172855
0.000196563
0.000207245
0.000200197
0.00019178
0.000182755
0.000161636
0.000113534
4.60485e-05
1.83301e-05
1.75715e-05
6.43077e-05
7.38328e-06
5.95475e-06
4.08729e-05
0.000132491
0.000188913
0.000180622
0.000142271
0.000101632
7.41195e-05
6.0144e-05
5.66932e-05
6.23218e-05
7.62169e-05
9.44705e-05
0.000109631
0.000118038
0.000122747
0.000129259
0.000141833
0.000161397
0.00018354
0.000197626
0.000189935
0.000154459
0.000110881
8.89685e-05
9.8735e-05
0.000134766
0.000130822
7.33973e-05
3.72705e-05
2.59336e-05
2.0299e-05
2.58378e-05
0.00010719
7.73451e-06
7.29879e-06
4.10099e-05
0.000126551
0.000179779
0.000178197
0.00015037
0.00011365
8.2784e-05
6.28123e-05
5.23756e-05
4.9795e-05
5.50825e-05
6.98534e-05
9.51396e-05
0.000126761
0.000154858
0.000171871
0.00017661
0.000171757
0.000161882
0.000153838
0.000155341
0.000166937
0.000172882
0.000156749
0.000132112
0.000123334
0.000131465
9.80107e-05
3.37064e-05
1.69703e-05
1.71113e-05
3.22334e-05
0.000122448
8.00393e-06
6.05572e-06
3.5278e-05
0.000108224
0.000174555
0.000180007
0.000151907
0.000115953
8.7056e-05
6.7311e-05
5.47491e-05
4.82352e-05
4.78985e-05
5.5136e-05
7.2347e-05
0.000101674
0.000139211
0.000171604
0.000189476
0.00019321
0.000185449
0.000168796
0.000149319
0.000137035
0.000138049
0.000146972
0.00014996
0.00014477
0.000133151
9.08535e-05
3.62425e-05
1.64471e-05
1.55382e-05
3.34182e-05
8.83759e-05
7.79319e-06
6.00796e-06
2.9027e-05
9.21577e-05
0.000166108
0.000175326
0.000148506
0.000115133
8.98383e-05
7.29233e-05
6.02371e-05
4.94056e-05
4.11388e-05
3.78194e-05
4.25574e-05
6.00896e-05
9.0717e-05
0.000124303
0.000155877
0.000178566
0.000183361
0.000174444
0.000166695
0.000170045
0.00018345
0.000196334
0.000198961
0.000191161
0.000170533
0.000118078
5.25856e-05
2.19574e-05
1.55515e-05
2.91935e-05
7.38356e-05
7.38054e-06
7.80481e-06
3.74047e-05
0.000121486
0.000179421
0.000156514
0.00010972
7.66612e-05
6.00547e-05
5.45819e-05
5.92022e-05
7.08154e-05
7.16735e-05
5.70225e-05
4.71566e-05
5.00766e-05
7.00906e-05
0.000112277
0.000162807
0.000194093
0.000206573
0.000211895
0.000216312
0.000222323
0.000228915
0.000231642
0.00022617
0.000211053
0.000186029
0.000146621
8.82828e-05
3.97612e-05
2.12694e-05
2.70536e-05
9.03941e-05
6.82245e-06
8.50061e-06
4.28848e-05
0.000157975
0.000178119
0.000111865
6.72173e-05
4.92292e-05
4.19114e-05
3.5528e-05
2.91477e-05
3.04773e-05
5.3934e-05
0.000111255
0.00015234
0.000194304
0.000221287
0.000221222
0.000212367
0.00020526
0.000201657
0.000202581
0.00020815
0.000215583
0.000220359
0.000219078
0.000210362
0.000193862
0.00016918
0.000135411
9.3026e-05
5.23431e-05
3.025e-05
3.41476e-05
9.90989e-05
6.70576e-06
9.11466e-06
4.88324e-05
0.000180793
0.000136382
6.51728e-05
4.21504e-05
3.91654e-05
4.83416e-05
6.12449e-05
5.64887e-05
4.33119e-05
4.14009e-05
5.69566e-05
9.67166e-05
0.000157848
0.000204814
0.000218579
0.000211842
0.000197833
0.000183863
0.000174275
0.000171395
0.000174904
0.000181295
0.000185338
0.000183024
0.000172555
0.000153253
0.000124926
8.97028e-05
5.62818e-05
3.72137e-05
4.25567e-05
9.68854e-05
6.69133e-06
9.90625e-06
6.20778e-05
0.000166391
6.77653e-05
3.35493e-05
2.49562e-05
2.31151e-05
2.64906e-05
4.6695e-05
9.01985e-05
0.000105325
9.68026e-05
9.92725e-05
0.000129802
0.00018084
0.000215491
0.000222755
0.000215244
0.000202107
0.00018776
0.000175366
0.000167422
0.000164908
0.00016639
0.000168302
0.000166679
0.000158547
0.000141849
0.000115725
8.34672e-05
5.50884e-05
4.09981e-05
4.99673e-05
8.68396e-05
6.7076e-06
9.81092e-06
7.00193e-05
0.000125535
4.47654e-05
2.73019e-05
2.97867e-05
3.75284e-05
3.88544e-05
4.20969e-05
6.0681e-05
9.357e-05
0.000112701
0.000119029
0.000130264
0.000152386
0.000178193
0.000195491
0.000199415
0.00019327
0.000182002
0.000169371
0.000158088
0.000149989
0.000145618
0.000143755
0.000141658
0.000136136
0.000124288
0.00010411
7.75777e-05
5.38394e-05
4.33105e-05
5.49142e-05
7.70286e-05
6.63105e-06
1.04758e-05
7.85587e-05
0.000106143
3.93348e-05
2.35929e-05
2.48152e-05
3.46058e-05
4.74471e-05
5.52211e-05
5.95785e-05
6.91428e-05
8.52977e-05
0.00010282
0.000118978
0.000135642
0.000153451
0.000169261
0.000179044
0.000181365
0.000177438
0.000169426
0.000159489
0.000149553
0.000141161
0.000135051
0.00013051
0.00012521
0.000115991
9.98456e-05
7.65361e-05
5.36747e-05
4.31192e-05
5.44877e-05
7.57454e-05
6.68272e-06
9.98867e-06
8.58781e-05
7.0669e-05
2.98621e-05
2.05565e-05
2.34773e-05
3.18191e-05
4.34755e-05
6.3046e-05
8.33751e-05
9.12086e-05
9.13746e-05
9.17798e-05
9.55871e-05
0.000103841
0.000116878
0.0001329
0.000147448
0.000156571
0.000159403
0.000156981
0.000150745
0.000142146
0.000132648
0.000123762
0.000116766
0.000111586
0.000105603
9.44613e-05
7.52384e-05
5.37086e-05
4.33968e-05
5.52898e-05
7.87843e-05
7.12574e-06
9.13422e-06
5.62597e-05
0.000132525
7.39402e-05
3.37077e-05
2.2636e-05
2.35184e-05
3.09683e-05
4.2389e-05
5.46013e-05
6.53599e-05
7.2049e-05
7.36613e-05
7.26967e-05
7.27274e-05
7.71265e-05
8.89814e-05
0.000109053
0.000131787
0.000147853
0.0001535
0.000150681
0.00014225
0.000130292
0.000116444
0.000102646
9.1494e-05
8.43804e-05
7.83196e-05
6.77357e-05
5.32278e-05
4.66214e-05
6.13834e-05
8.02864e-05
7.71534e-06
9.04261e-06
4.68749e-05
0.00012659
0.000133028
7.70714e-05
3.55367e-05
2.08664e-05
1.7526e-05
2.19435e-05
3.76605e-05
6.54432e-05
8.63997e-05
8.87778e-05
8.03701e-05
7.01208e-05
6.33757e-05
6.34502e-05
7.35789e-05
9.60155e-05
0.000124897
0.00014549
0.000152224
0.000148388
0.000137075
0.000120024
9.94688e-05
7.97919e-05
6.63833e-05
6.07572e-05
5.81882e-05
5.40966e-05
5.42331e-05
7.22278e-05
7.39959e-05
7.98857e-06
8.30127e-06
4.13458e-05
0.000120291
0.0001559
0.000151806
0.000105684
4.90197e-05
2.5333e-05
1.74625e-05
1.75385e-05
2.70208e-05
5.05352e-05
7.7636e-05
8.85088e-05
8.23594e-05
6.87608e-05
5.7818e-05
5.42827e-05
6.01498e-05
7.74703e-05
0.000103684
0.000125496
0.000133952
0.000132018
0.000122305
0.000104557
8.16156e-05
6.16276e-05
5.08692e-05
4.85766e-05
5.0345e-05
5.6769e-05
7.66037e-05
6.65289e-05
7.98095e-06
8.70323e-06
4.13245e-05
0.000129182
0.000162209
0.000148011
0.00012989
0.000101708
5.62494e-05
2.8568e-05
1.74425e-05
1.53977e-05
2.304e-05
4.80589e-05
8.56947e-05
0.000103991
9.67002e-05
7.75385e-05
6.08908e-05
5.23024e-05
5.19186e-05
5.94613e-05
7.42009e-05
9.13191e-05
0.000102877
0.000106011
0.000101103
8.73319e-05
6.73342e-05
5.06057e-05
4.26975e-05
4.24908e-05
5.0006e-05
7.13862e-05
6.28054e-05
8.13307e-06
8.72156e-06
4.15396e-05
0.000125998
0.000163254
0.000149493
0.00012187
0.000104201
9.52245e-05
6.56439e-05
3.23343e-05
1.76608e-05
1.4811e-05
2.28606e-05
4.88829e-05
8.92876e-05
0.000115152
0.000112257
9.04473e-05
6.84267e-05
5.45797e-05
4.85299e-05
4.86192e-05
5.4108e-05
6.42774e-05
7.57411e-05
8.24747e-05
8.07694e-05
6.93692e-05
5.2341e-05
3.96876e-05
3.59705e-05
4.31107e-05
6.8273e-05
6.17184e-05
8.48083e-06
8.93603e-06
4.04174e-05
0.000126491
0.000169022
0.000154585
0.000114792
7.94366e-05
6.48502e-05
6.50304e-05
5.48172e-05
2.83085e-05
1.5883e-05
1.62606e-05
3.35152e-05
8.7796e-05
0.000158157
0.000179831
0.000155192
0.000113697
7.97427e-05
5.85107e-05
4.65628e-05
4.07372e-05
3.97678e-05
4.38062e-05
5.21728e-05
5.93559e-05
5.80506e-05
4.82343e-05
3.79501e-05
3.49727e-05
4.44248e-05
7.52917e-05
5.62742e-05
8.637e-06
9.37977e-06
4.67909e-05
0.000146495
0.000179832
0.000160415
0.000125794
9.30986e-05
7.0024e-05
5.89078e-05
5.40278e-05
3.8286e-05
2.0523e-05
1.50592e-05
2.40565e-05
6.35382e-05
0.000148802
0.000199208
0.000199821
0.000179727
0.000128426
8.63855e-05
5.92012e-05
4.27095e-05
3.32943e-05
2.93305e-05
3.06906e-05
3.66562e-05
4.23634e-05
4.22522e-05
3.90231e-05
4.01373e-05
5.36011e-05
8.47946e-05
4.456e-05
8.24207e-06
9.50342e-06
4.78663e-05
0.000154617
0.000175611
0.000138511
9.57571e-05
7.2159e-05
6.28127e-05
5.75121e-05
5.04046e-05
3.88044e-05
2.386e-05
1.66699e-05
2.4105e-05
7.25595e-05
0.000197802
0.000204036
0.000205269
0.000204853
0.00019851
0.0001342
8.51518e-05
5.46855e-05
3.66226e-05
2.66153e-05
2.25478e-05
2.36279e-05
2.89564e-05
3.58499e-05
4.16612e-05
4.90757e-05
6.44578e-05
8.19083e-05
3.38015e-05
7.45868e-06
9.95536e-06
5.54227e-05
0.000165932
0.000171309
0.000128056
8.75877e-05
6.75722e-05
6.15201e-05
5.93027e-05
5.09557e-05
3.64297e-05
2.35095e-05
1.76385e-05
2.43466e-05
6.98535e-05
0.000199055
0.000209583
0.000211351
0.000211792
0.000210802
0.000172735
0.000119641
7.87049e-05
5.11194e-05
3.39583e-05
2.4335e-05
2.03807e-05
2.11347e-05
2.63736e-05
3.65007e-05
5.14483e-05
6.78773e-05
7.2415e-05
2.79906e-05
6.79193e-06
9.68926e-06
5.51221e-05
0.000170494
0.000160092
0.000107706
7.1624e-05
5.69088e-05
5.37854e-05
5.41432e-05
4.94313e-05
3.69838e-05
2.49615e-05
1.99801e-05
2.80932e-05
7.57774e-05
0.000192139
0.000215276
0.000217457
0.00021871
0.000209629
0.000177363
0.000141603
0.000107181
7.72346e-05
5.37295e-05
3.70997e-05
2.67604e-05
2.17089e-05
2.12565e-05
2.59597e-05
3.87279e-05
5.99588e-05
6.83846e-05
2.65504e-05
6.50023e-06
9.86397e-06
5.71711e-05
0.000171317
0.000158469
0.000106016
7.1756e-05
5.86725e-05
5.57794e-05
5.38147e-05
4.66695e-05
3.50263e-05
2.48323e-05
2.09008e-05
2.87562e-05
6.84365e-05
0.000163555
0.000219615
0.000222017
0.000214886
0.00019772
0.00017657
0.000153207
0.00012889
0.000104901
8.23378e-05
6.22133e-05
4.56419e-05
3.35211e-05
2.61235e-05
2.34808e-05
2.69176e-05
4.14067e-05
6.61372e-05
2.95437e-05
6.48504e-06
9.5254e-06
5.44903e-05
0.000166874
0.000147918
9.23869e-05
6.0171e-05
4.92574e-05
4.93702e-05
5.23786e-05
4.90544e-05
3.77761e-05
2.70175e-05
2.3327e-05
3.25545e-05
7.28357e-05
0.000156975
0.000211171
0.00021729
0.000207266
0.000194077
0.000178916
0.000161681
0.000143018
0.000123954
0.000105344
8.75966e-05
7.07752e-05
5.50583e-05
4.1286e-05
3.09378e-05
2.59288e-05
3.0391e-05
5.41937e-05
3.74072e-05
6.57466e-06
9.7174e-06
5.36362e-05
0.00016549
0.000153213
9.92944e-05
6.49285e-05
5.19383e-05
4.98076e-05
5.12411e-05
4.93288e-05
4.03398e-05
2.93768e-05
2.39071e-05
2.95323e-05
5.87214e-05
0.000129388
0.000197518
0.000217632
0.000212055
0.00020013
0.000186457
0.000171253
0.000154652
0.000137288
0.000119975
0.000103408
8.78513e-05
7.28282e-05
5.73727e-05
4.18712e-05
3.01241e-05
2.82264e-05
4.57165e-05
4.8557e-05
6.8631e-06
9.4303e-06
5.05437e-05
0.000158407
0.000142185
8.57144e-05
5.46602e-05
4.50957e-05
4.64533e-05
5.20883e-05
5.39567e-05
4.59937e-05
3.34096e-05
2.60107e-05
3.04726e-05
5.95979e-05
0.00013432
0.000207347
0.000226552
0.000223335
0.000211166
0.000196501
0.000180413
0.000163024
0.000144651
0.000125852
0.000107391
9.01452e-05
7.46322e-05
6.01613e-05
4.55254e-05
3.31398e-05
3.01761e-05
4.70392e-05
5.70877e-05
7.27499e-06
9.68086e-06
5.00027e-05
0.000154748
0.00014478
9.11199e-05
5.7373e-05
4.55779e-05
4.53934e-05
5.07327e-05
5.54255e-05
5.19437e-05
3.98154e-05
2.87925e-05
2.74323e-05
4.39295e-05
9.81902e-05
0.000182303
0.000223946
0.000226921
0.000221648
0.000207525
0.000189981
0.000170489
0.000149448
0.000127264
0.000104736
8.34661e-05
6.55658e-05
5.1893e-05
4.10722e-05
3.30898e-05
3.35461e-05
5.4393e-05
5.90518e-05
7.61542e-06
9.46666e-06
4.82416e-05
0.00014795
0.000136141
8.28474e-05
5.1406e-05
4.13159e-05
4.29378e-05
5.10566e-05
5.92201e-05
5.85481e-05
4.68288e-05
3.34198e-05
2.85101e-05
3.99692e-05
8.76495e-05
0.00017591
0.000220975
0.000224114
0.000226826
0.00021499
0.000196632
0.000174944
0.000150857
0.000124755
9.77927e-05
7.28238e-05
5.3496e-05
4.1375e-05
3.49123e-05
3.25917e-05
3.86074e-05
6.60734e-05
5.39494e-05
7.63289e-06
9.63816e-06
4.82937e-05
0.000146398
0.00014246
9.33231e-05
5.64638e-05
4.1822e-05
4.05589e-05
4.75628e-05
5.81813e-05
6.37435e-05
5.63396e-05
4.09069e-05
3.02444e-05
3.22532e-05
5.73643e-05
0.000124504
0.000198413
0.000220472
0.000223351
0.000212631
0.00019586
0.000174963
0.000150412
0.000122521
9.29281e-05
6.56726e-05
4.53844e-05
3.37492e-05
2.9503e-05
3.14932e-05
4.34094e-05
7.6769e-05
4.58396e-05
7.47118e-06
9.41778e-06
4.68549e-05
0.000141134
0.000142524
9.7486e-05
5.91027e-05
4.16998e-05
3.82689e-05
4.41803e-05
5.61727e-05
6.6801e-05
6.54679e-05
5.11621e-05
3.62558e-05
3.18309e-05
4.53092e-05
9.33395e-05
0.000168776
0.000208012
0.000211288
0.000201794
0.000186958
0.000168296
0.000146014
0.00012009
9.15783e-05
6.41511e-05
4.28986e-05
3.03157e-05
2.58336e-05
2.92654e-05
4.50245e-05
8.07559e-05
3.9108e-05
7.26447e-06
9.52784e-06
4.68158e-05
0.000142418
0.000152523
0.000114404
7.10259e-05
4.63054e-05
3.76596e-05
3.96448e-05
4.98146e-05
6.42454e-05
7.2588e-05
6.47488e-05
4.68356e-05
3.44754e-05
3.58917e-05
5.95932e-05
0.000116282
0.000172342
0.000190223
0.000186023
0.000173865
0.000157758
0.000138729
0.000116949
9.26182e-05
6.74508e-05
4.5567e-05
3.08691e-05
2.43174e-05
2.6228e-05
4.13812e-05
7.77176e-05
3.59513e-05
7.17906e-06
9.43416e-06
4.61331e-05
0.000142459
0.000155292
0.000117587
7.66976e-05
5.14062e-05
3.98279e-05
3.83985e-05
4.5712e-05
6.03874e-05
7.58629e-05
7.88077e-05
6.38091e-05
4.47447e-05
3.64947e-05
4.55232e-05
8.19097e-05
0.000140134
0.000174096
0.00017686
0.000166485
0.000151142
0.000133291
0.000113788
9.29252e-05
7.11802e-05
5.04299e-05
3.41421e-05
2.50248e-05
2.43218e-05
3.63896e-05
7.28623e-05
3.61957e-05
7.26623e-06
9.62864e-06
4.67829e-05
0.000147555
0.000159649
0.000117894
7.83596e-05
5.54044e-05
4.33733e-05
3.94603e-05
4.36658e-05
5.62643e-05
7.45408e-05
8.77017e-05
8.22917e-05
6.15472e-05
4.3927e-05
4.05537e-05
5.76235e-05
0.000102098
0.0001506
0.000168314
0.000163337
0.000149295
0.00013154
0.000112085
9.20051e-05
7.20737e-05
5.31902e-05
3.71276e-05
2.65508e-05
2.38048e-05
3.32984e-05
6.93713e-05
3.84008e-05
7.44762e-06
9.72494e-06
4.70103e-05
0.000150231
0.000152359
0.000101268
6.80262e-05
5.36317e-05
4.65919e-05
4.34876e-05
4.63809e-05
5.75687e-05
7.67521e-05
9.62825e-05
0.000100912
8.40008e-05
5.97805e-05
4.56071e-05
4.87721e-05
7.61281e-05
0.000124485
0.000157368
0.000161027
0.00014955
0.000131936
0.000111571
9.02994e-05
6.98206e-05
5.16993e-05
3.70603e-05
2.71521e-05
2.4155e-05
3.31921e-05
7.03559e-05
4.01422e-05
7.6012e-06
9.9832e-06
4.7726e-05
0.000154068
0.000137337
8.13991e-05
5.69361e-05
5.01109e-05
4.82725e-05
4.77992e-05
5.1228e-05
6.21579e-05
8.18051e-05
0.000104745
0.000116866
0.000106678
8.10424e-05
5.81453e-05
4.95356e-05
6.07518e-05
9.6567e-05
0.000137984
0.000153874
0.000147705
0.000131316
0.000110214
8.72507e-05
6.52713e-05
4.70783e-05
3.40616e-05
2.62919e-05
2.48961e-05
3.57283e-05
7.62793e-05
3.95382e-05
7.62924e-06
1.0229e-05
4.87856e-05
0.000154847
0.000106233
5.77379e-05
4.52652e-05
4.67923e-05
5.10386e-05
5.44608e-05
6.02047e-05
7.3012e-05
9.49323e-05
0.000120941
0.000137312
0.000131416
0.000105987
7.70715e-05
5.85806e-05
5.68489e-05
7.68424e-05
0.000115076
0.000141939
0.00014338
0.000129229
0.000107512
8.28084e-05
5.95332e-05
4.15469e-05
3.02132e-05
2.49125e-05
2.61677e-05
4.05859e-05
8.43304e-05
3.65698e-05
7.49313e-06
1.05864e-05
5.13516e-05
0.000149864
7.46529e-05
4.14053e-05
3.84612e-05
4.67202e-05
5.59328e-05
6.2625e-05
7.09767e-05
8.62476e-05
0.000110229
0.000137663
0.000156091
0.000153924
0.000131105
9.98318e-05
7.39481e-05
6.1424e-05
6.63571e-05
9.10873e-05
0.000121724
0.000133344
0.000124517
0.00010393
7.85231e-05
5.47227e-05
3.72197e-05
2.71357e-05
2.3678e-05
2.75697e-05
4.6027e-05
8.80119e-05
3.25165e-05
7.21878e-06
1.08628e-05
5.56484e-05
0.000129567
5.1295e-05
3.10202e-05
3.47864e-05
4.94203e-05
6.372e-05
7.36697e-05
8.49212e-05
0.000102926
0.000128293
0.000155111
0.000172943
0.000172818
0.000153583
0.000123325
9.35789e-05
7.28943e-05
6.5784e-05
7.48926e-05
9.73951e-05
0.000115621
0.000115372
9.95925e-05
7.60206e-05
5.27096e-05
3.54527e-05
2.57137e-05
2.29514e-05
2.84439e-05
4.95849e-05
8.46941e-05
2.88683e-05
6.90111e-06
1.08713e-05
5.79246e-05
0.000110489
4.28491e-05
2.68724e-05
3.22569e-05
4.96391e-05
6.74512e-05
8.02585e-05
9.33546e-05
0.000111876
0.000136073
0.000161016
0.000178835
0.000182524
0.000169728
0.000144615
0.000115367
8.98955e-05
7.35917e-05
6.94282e-05
7.80398e-05
9.31104e-05
0.000100504
9.33623e-05
7.53328e-05
5.40939e-05
3.68002e-05
2.64247e-05
2.31566e-05
2.86277e-05
4.98909e-05
7.90258e-05
2.66774e-05
6.64093e-06
1.05743e-05
5.37758e-05
0.000116761
5.20273e-05
2.73114e-05
2.56263e-05
3.71688e-05
5.66434e-05
7.61379e-05
9.40424e-05
0.000114213
0.000138042
0.000162302
0.000181016
0.000188524
0.00018226
0.000163975
0.000138571
0.000111995
8.96624e-05
7.55024e-05
7.14845e-05
7.65342e-05
8.40147e-05
8.45112e-05
7.46053e-05
5.78938e-05
4.12163e-05
2.96783e-05
2.50439e-05
2.92722e-05
4.88556e-05
7.61782e-05
2.6344e-05
6.48357e-06
1.01739e-05
4.60395e-05
0.000122271
9.30349e-05
3.95699e-05
2.14925e-05
2.11118e-05
3.23747e-05
5.41175e-05
8.04971e-05
0.000106916
0.000133931
0.000160787
0.000183055
0.000195485
0.000195358
0.00018344
0.000162952
0.000138057
0.000113008
9.19359e-05
7.80312e-05
7.24385e-05
7.33689e-05
7.52637e-05
7.192e-05
6.1512e-05
4.74341e-05
3.53142e-05
2.90557e-05
3.15224e-05
4.87687e-05
7.68019e-05
2.76975e-05
6.41633e-06
9.97888e-06
4.20892e-05
0.000114101
0.000129472
8.40772e-05
3.2702e-05
1.63732e-05
1.59507e-05
2.70657e-05
5.148e-05
8.628e-05
0.000123872
0.00015947
0.000189322
0.000208497
0.000213769
0.000205939
0.000188591
0.000165659
0.000140351
0.000115683
9.48707e-05
8.04214e-05
7.29986e-05
7.05855e-05
6.86692e-05
6.30406e-05
5.30437e-05
4.20336e-05
3.47963e-05
3.55844e-05
5.03754e-05
7.8702e-05
3.02057e-05
6.3466e-06
1.00079e-05
4.19886e-05
0.000119621
0.000144792
0.000129397
7.37304e-05
2.63184e-05
1.25264e-05
1.35154e-05
2.65491e-05
5.54169e-05
9.9345e-05
0.000148422
0.000191593
0.000220987
0.000232336
0.000227001
0.000210624
0.000188644
0.000164265
0.000139279
0.000115527
9.53858e-05
8.09083e-05
7.23956e-05
6.77691e-05
6.33746e-05
5.65457e-05
4.78276e-05
4.08666e-05
4.05927e-05
5.31633e-05
8.00289e-05
3.30414e-05
6.32813e-06
1.02184e-05
4.36003e-05
0.00012746
0.000151286
0.000135283
0.000106884
5.27928e-05
1.89084e-05
1.01427e-05
1.45082e-05
3.24347e-05
6.93344e-05
0.000123276
0.000179362
0.000220483
0.000238267
0.000235148
0.000219532
0.000198892
0.000176837
0.000154319
0.000131696
0.000110192
9.18974e-05
7.84594e-05
6.9825e-05
6.39677e-05
5.81989e-05
5.14627e-05
4.5673e-05
4.52356e-05
5.62363e-05
8.07774e-05
3.54239e-05
6.40572e-06
1.04454e-05
4.57047e-05
0.000130843
0.000153574
0.000135931
0.000106768
7.30455e-05
3.28466e-05
1.29599e-05
9.98006e-06
1.95172e-05
4.57279e-05
9.32895e-05
0.000152853
0.000202
0.000225532
0.000225269
0.000211687
0.000193749
0.000175456
0.000157323
0.000138669
0.000119456
0.000100977
8.52366e-05
7.3512e-05
6.53618e-05
5.90088e-05
5.30829e-05
4.83897e-05
4.83868e-05
5.86977e-05
8.14595e-05
3.68579e-05
6.54675e-06
1.06182e-05
4.86689e-05
0.000137394
0.000162535
0.000149209
0.000120001
8.48534e-05
4.92771e-05
2.09099e-05
9.84473e-06
1.21798e-05
2.83194e-05
6.44937e-05
0.000119099
0.00017169
0.000200946
0.000204898
0.000194237
0.000179064
0.000164363
0.000150827
0.00013717
0.000122194
0.000106055
9.03721e-05
7.70842e-05
6.70342e-05
5.95706e-05
5.36448e-05
4.96029e-05
5.02203e-05
6.06079e-05
8.24902e-05
3.73543e-05
6.71084e-06
1.07195e-05
5.20151e-05
0.000149006
0.000176589
0.000166344
0.00014162
0.00010714
6.99264e-05
3.52352e-05
1.46353e-05
9.15944e-06
1.62855e-05
3.98802e-05
8.51426e-05
0.00013927
0.000175859
0.000185359
0.000177196
0.000163164
0.000149984
0.000139416
0.00013016
0.000119998
0.000107642
9.3691e-05
8.01244e-05
6.87579e-05
6.01222e-05
5.3826e-05
5.01318e-05
5.14043e-05
6.23781e-05
8.39836e-05
3.72121e-05
6.8667e-06
1.08468e-05
5.48336e-05
0.000158913
0.000187465
0.000176948
0.000154424
0.000125262
9.12894e-05
5.6343e-05
2.5812e-05
1.10727e-05
1.01272e-05
2.24731e-05
5.49894e-05
0.000107699
0.00015452
0.000172302
0.00016627
0.00015125
0.000137013
0.000126983
0.000120377
0.000114378
0.000106309
9.53119e-05
8.26686e-05
7.064e-05
6.09034e-05
5.4035e-05
5.05329e-05
5.24909e-05
6.42983e-05
8.57948e-05
3.68195e-05
6.97358e-06
1.10151e-05
5.76631e-05
0.000164956
0.000191377
0.000179881
0.00015756
0.00013064
0.000101367
7.13028e-05
4.10085e-05
1.79499e-05
9.36164e-06
1.37516e-05
3.4326e-05
7.91909e-05
0.000134486
0.000164068
0.000161395
0.000144167
0.000126718
0.000115025
0.000109245
0.000106269
0.000102218
9.47954e-05
8.42182e-05
7.24904e-05
6.19798e-05
5.4369e-05
5.08393e-05
5.34747e-05
6.62547e-05
8.74423e-05
3.61733e-05
7.02778e-06
1.11142e-05
6.02168e-05
0.000169701
0.000193012
0.000180647
0.000158357
0.000132109
0.000103407
7.47971e-05
4.90391e-05
2.56778e-05
1.19686e-05
1.08168e-05
2.37692e-05
5.91655e-05
0.000115358
0.000155419
0.000157803
0.000139268
0.000118266
0.000103595
9.70374e-05
9.58504e-05
9.51872e-05
9.12787e-05
8.34282e-05
7.32095e-05
6.29776e-05
5.50428e-05
5.14666e-05
5.47959e-05
6.87377e-05
8.91562e-05
3.51503e-05
7.04616e-06
1.10767e-05
6.16114e-05
0.000172422
0.00019237
0.000178402
0.000155757
0.000131132
0.000105059
7.73819e-05
5.12902e-05
3.01218e-05
1.53383e-05
1.05778e-05
1.90339e-05
4.75258e-05
9.9416e-05
0.000144006
0.000151701
0.000134247
0.000111277
9.35838e-05
8.49557e-05
8.40835e-05
8.5981e-05
8.51843e-05
7.99004e-05
7.17558e-05
6.30768e-05
5.60267e-05
5.30473e-05
5.73325e-05
7.2491e-05
9.11491e-05
3.3845e-05
7.00555e-06
1.09634e-05
6.18036e-05
0.000172949
0.000189846
0.000173854
0.000150182
0.000126738
0.000104308
8.04207e-05
5.53493e-05
3.35633e-05
1.81937e-05
1.14006e-05
1.66046e-05
4.02677e-05
8.74287e-05
0.00013303
0.000145153
0.000130259
0.00010685
8.65357e-05
7.4802e-05
7.23954e-05
7.5671e-05
7.79298e-05
7.50618e-05
6.86487e-05
6.18708e-05
5.68226e-05
5.55216e-05
6.12416e-05
7.72143e-05
9.26236e-05
3.25653e-05
6.92176e-06
1.08948e-05
6.27057e-05
0.00017462
0.000188562
0.000170558
0.000145917
0.000123176
0.00010333
8.33242e-05
6.09086e-05
3.85581e-05
2.15616e-05
1.27911e-05
1.4773e-05
3.38095e-05
7.65119e-05
0.000123427
0.000140697
0.000129385
0.000106461
8.3849e-05
6.82589e-05
6.23162e-05
6.48049e-05
7.00678e-05
7.07351e-05
6.59273e-05
6.00939e-05
5.66775e-05
5.75344e-05
6.51191e-05
8.1305e-05
9.2351e-05
3.14259e-05
6.82365e-06
1.08459e-05
6.42729e-05
0.000178004
0.0001891
0.000168854
0.000143097
0.000120955
0.000103184
8.62418e-05
6.68201e-05
4.52808e-05
2.6469e-05
1.50322e-05
1.34692e-05
2.70514e-05
6.39306e-05
0.000112608
0.000137391
0.000131678
0.000110586
8.63478e-05
6.6678e-05
5.57323e-05
5.43408e-05
6.00876e-05
6.58516e-05
6.50016e-05
5.99744e-05
5.66059e-05
5.83687e-05
6.73872e-05
8.36439e-05
9.083e-05
3.03699e-05
6.71368e-06
1.07894e-05
6.57524e-05
0.000181525
0.000190304
0.000167678
0.00014065
0.000119212
0.000103569
8.94167e-05
7.28259e-05
5.29036e-05
3.29543e-05
1.85247e-05
1.31559e-05
2.07514e-05
4.95848e-05
9.77155e-05
0.000131679
0.000134638
0.000118102
9.41423e-05
7.11009e-05
5.47199e-05
4.73686e-05
4.87998e-05
5.61211e-05
6.20163e-05
6.13359e-05
5.83557e-05
5.95124e-05
6.86268e-05
8.50191e-05
8.93382e-05
2.90205e-05
6.5353e-06
1.06844e-05
6.59724e-05
0.000183694
0.000190819
0.000165162
0.000136576
0.000116491
0.000104129
9.37687e-05
8.04387e-05
6.25844e-05
4.21885e-05
2.44942e-05
1.46567e-05
1.57866e-05
3.40095e-05
7.49847e-05
0.000116969
0.00013222
0.000124651
0.000105327
8.18903e-05
6.10248e-05
4.72808e-05
4.18602e-05
4.39749e-05
5.1069e-05
5.76332e-05
6.01536e-05
6.2653e-05
7.1209e-05
8.64304e-05
8.73424e-05
2.7454e-05
6.1867e-06
1.06045e-05
6.52715e-05
0.000185227
0.000191173
0.000161162
0.000130131
0.000111482
0.000103219
9.81161e-05
8.95443e-05
7.4767e-05
5.50415e-05
3.46174e-05
1.9471e-05
1.39216e-05
2.13699e-05
4.79155e-05
8.93672e-05
0.000117733
0.000123114
0.000113839
9.63318e-05
7.54907e-05
5.68731e-05
4.44485e-05
3.91182e-05
4.00533e-05
4.56522e-05
5.33702e-05
6.1603e-05
7.22483e-05
8.58123e-05
8.37904e-05
2.65096e-05
5.92091e-06
1.05626e-05
6.39218e-05
0.000185523
0.000189782
0.000153951
0.000120046
0.000102972
9.92075e-05
0.000100593
9.88613e-05
8.90618e-05
7.16047e-05
4.9982e-05
2.96546e-05
1.69397e-05
1.51494e-05
2.72919e-05
5.65269e-05
9.08704e-05
0.000109513
0.00011188
0.000104552
9.10838e-05
7.42748e-05
5.8073e-05
4.60812e-05
3.97278e-05
3.88375e-05
4.29926e-05
5.2091e-05
6.58446e-05
8.09928e-05
8.16454e-05
2.72864e-05
5.96381e-06
1.06013e-05
6.27879e-05
0.000184589
0.000186016
0.000144094
0.000108087
9.27537e-05
9.28331e-05
0.000100285
0.000106396
0.000103813
9.057e-05
6.98992e-05
4.64775e-05
2.63608e-05
1.58975e-05
1.72923e-05
3.22861e-05
6.02441e-05
8.71378e-05
0.000100449
0.000102399
9.77348e-05
8.85051e-05
7.5902e-05
6.21781e-05
5.0418e-05
4.28595e-05
4.04255e-05
4.37352e-05
5.38722e-05
7.05769e-05
8.21986e-05
3.02926e-05
6.43402e-06
1.06677e-05
6.23378e-05
0.00018303
0.000179029
0.000131214
9.53326e-05
8.28381e-05
8.65236e-05
9.90512e-05
0.000112145
0.000117005
0.000109122
9.06515e-05
6.66309e-05
4.20353e-05
2.34024e-05
1.58231e-05
2.05108e-05
3.79722e-05
6.33705e-05
8.30945e-05
9.1599e-05
9.28566e-05
9.03253e-05
8.46628e-05
7.56656e-05
6.42613e-05
5.29625e-05
4.46101e-05
4.12257e-05
4.47718e-05
5.86971e-05
8.07685e-05
3.38022e-05
6.95115e-06
1.07363e-05