/*--------------------------------*- C++ -*----------------------------------*\
| =========                 |                                                 |
| \\      /  F ield         | OpenFOAM: The Open Source CFD Toolbox           |
|  \\    /   O peration     | Version:  v2006                                 |
|   \\  /    A nd           | Website:  www.openfoam.com                      |
|    \\/     M anipulation  |                                                 |
\*---------------------------------------------------------------------------*/
FoamFile
{
    version     2.0;
    format      ascii;
    class       volScalarField;
    location    "90";
    object      nut;
}
// * * * * * * * * * * * * * * * * * * * * * * * * * * * * * * * * * * * * * //

dimensions      [0 2 -1 0 0 0 0];


internalField   nonuniform List<scalar> 
78750
(
0.000496077
0.00104093
0.000678089
0.000100099
5.01857e-05
5.42824e-05
2.7237e-05
4.79483e-05
4.25309e-05
5.12949e-05
5.44214e-05
6.12287e-05
6.29939e-05
5.91338e-05
5.22258e-05
4.76e-05
4.63319e-05
4.70145e-05
4.75881e-05
4.72292e-05
4.63995e-05
4.55969e-05
4.49388e-05
4.44133e-05
4.40133e-05
4.36005e-05
4.28574e-05
4.15894e-05
3.98599e-05
3.78574e-05
3.5479e-05
3.25086e-05
2.8369e-05
1.87057e-05
1.80157e-06
4.4211e-05
6.47885e-05
2.96435e-05
5.2088e-06
1.72885e-05
2.25963e-05
3.6866e-05
6.85466e-05
0.000106377
0.000109279
0.000101291
9.87867e-05
0.000106215
0.000118394
0.000128804
0.000140445
0.000156579
0.000174213
0.000190947
0.00020869
0.000229385
0.000238515
0.000235056
0.000231445
0.000227826
0.000211404
0.00016807
0.000129488
9.73023e-05
7.06951e-05
4.93655e-05
3.34687e-05
2.35016e-05
1.93378e-05
3.63115e-06
9.10178e-06
3.72809e-05
4.80961e-05
9.70527e-05
0.00012021
0.000116048
0.000109928
0.000122957
0.000151418
0.00018418
0.000215413
0.000242891
0.000264247
0.000268025
0.000263343
0.000239317
0.000209902
0.00018347
0.000162741
0.00014659
0.000134287
0.000126479
0.000123151
0.000122717
0.000123084
0.000120173
0.000109384
8.98019e-05
6.5122e-05
4.72444e-05
5.00842e-05
6.71499e-05
1.9858e-05
6.74268e-06
1.06923e-06
1.26877e-07
3.7958e-06
1.41531e-05
2.43225e-05
2.97393e-05
3.57132e-05
4.12255e-05
4.82542e-05
5.67321e-05
6.57387e-05
7.42571e-05
8.16704e-05
8.77764e-05
9.24786e-05
9.5622e-05
9.70234e-05
9.65927e-05
9.45528e-05
9.13831e-05
8.78139e-05
8.38654e-05
7.94034e-05
7.41543e-05
6.73429e-05
5.99969e-05
5.57884e-05
6.01272e-05
6.74441e-05
5.07418e-05
3.26753e-05
2.22662e-05
1.3887e-05
7.45468e-06
7.22985e-06
9.30675e-07
7.81084e-07
1.91776e-05
2.37676e-05
4.92294e-05
5.12048e-05
4.17482e-05
3.56929e-05
3.31794e-05
3.2409e-05
3.24491e-05
3.30212e-05
3.39775e-05
3.52413e-05
3.68389e-05
3.88323e-05
4.13294e-05
4.44928e-05
4.85633e-05
5.38824e-05
6.10183e-05
7.0276e-05
7.85738e-05
7.67296e-05
6.26468e-05
4.84438e-05
3.95684e-05
3.34735e-05
2.75945e-05
2.51719e-05
3.08641e-05
4.22543e-05
2.77449e-05
1.04398e-05
7.7225e-06
2.57893e-06
4.44325e-07
1.25332e-05
4.27199e-05
6.38009e-05
7.56678e-05
8.23559e-05
8.47747e-05
8.42134e-05
8.24048e-05
8.06058e-05
7.94043e-05
7.89838e-05
7.93824e-05
8.06808e-05
8.30269e-05
8.6534e-05
9.13845e-05
9.781e-05
0.000106062
0.000116297
0.00012725
0.000133368
0.00012659
0.000110966
9.19376e-05
5.41873e-05
3.31798e-05
3.56651e-05
6.7514e-05
3.41117e-05
3.46057e-05
7.85102e-05
1.9596e-05
1.18864e-05
3.66241e-06
1.43288e-06
2.27955e-05
4.76393e-05
6.88928e-05
8.62865e-05
0.000101254
0.000113833
0.000122827
0.000127987
0.000130798
0.000133322
0.000136865
0.000141566
0.000146635
0.000150773
0.000152296
0.000150178
0.000144757
0.000137182
0.000128737
0.000119384
0.0001063
8.66706e-05
6.70603e-05
5.69831e-05
5.48369e-05
5.28637e-05
5.04832e-05
7.19258e-05
0.000153261
0.00011061
8.93746e-05
4.48186e-05
2.41475e-05
4.239e-06
8.32348e-07
1.17695e-05
2.61749e-05
4.30653e-05
5.89459e-05
7.31116e-05
8.57448e-05
9.59394e-05
0.000102547
0.000105553
0.000105886
0.000104433
0.000101711
9.81772e-05
9.44526e-05
9.11921e-05
8.89281e-05
8.80823e-05
8.89448e-05
9.10936e-05
9.26601e-05
9.1279e-05
8.58045e-05
7.44236e-05
5.76279e-05
4.49697e-05
4.16804e-05
5.13441e-05
9.1392e-05
0.000176163
0.000176922
0.000101473
3.84178e-05
2.78228e-05
4.80177e-06
2.50932e-06
1.57965e-05
4.94792e-05
0.00010628
0.000139551
0.000138769
0.000121572
0.000101953
8.79273e-05
8.08228e-05
7.91009e-05
8.08571e-05
8.43828e-05
8.81869e-05
9.10584e-05
9.21347e-05
9.08623e-05
8.74235e-05
8.404e-05
8.51328e-05
9.45413e-05
0.000113916
0.000142064
0.000170834
0.000176367
0.000134512
8.75474e-05
6.39527e-05
5.67845e-05
5.71895e-05
5.54467e-05
3.99082e-05
2.35498e-05
2.86551e-05
5.62936e-06
4.49347e-06
3.71431e-05
0.000145143
0.000164203
0.000144121
0.000112387
8.38359e-05
6.66227e-05
6.0516e-05
6.32088e-05
7.27525e-05
8.65116e-05
0.000100306
0.000109858
0.000113074
0.000110324
0.000102844
9.18643e-05
7.99118e-05
7.32008e-05
8.2826e-05
0.000126116
0.000185937
0.000184886
0.000184329
0.00018423
0.000184484
0.000184908
0.000132651
6.1923e-05
2.57196e-05
1.53646e-05
1.89632e-05
5.25198e-05
6.83425e-06
5.18291e-06
3.0606e-05
9.6455e-05
0.000130602
0.000124298
9.70291e-05
6.85514e-05
5.15629e-05
4.50673e-05
4.58739e-05
5.19065e-05
6.08727e-05
6.97397e-05
7.67487e-05
8.29953e-05
9.09543e-05
0.000101692
0.000112854
0.000119414
0.000118852
0.000115713
0.000118112
0.000130397
0.000147629
0.000154917
0.000148864
0.000141782
0.000134345
0.000118248
8.27962e-05
3.36643e-05
1.37955e-05
1.42657e-05
5.62585e-05
7.19981e-06
4.11744e-06
2.94601e-05
9.7148e-05
0.000139794
0.00013459
0.000106689
7.66801e-05
5.62194e-05
4.57714e-05
4.31638e-05
4.73432e-05
5.77017e-05
7.13128e-05
8.26305e-05
8.89713e-05
9.26486e-05
9.77749e-05
0.000107526
0.000122567
0.000139498
0.000150179
0.000144151
0.00011689
8.34379e-05
6.63129e-05
7.28083e-05
9.86459e-05
9.53478e-05
5.33819e-05
2.71654e-05
1.91085e-05
1.54183e-05
2.11403e-05
9.39661e-05
7.44428e-06
5.08182e-06
2.95782e-05
9.24564e-05
0.000132238
0.00013175
0.000111712
8.48691e-05
6.21958e-05
4.75297e-05
3.99349e-05
3.82168e-05
4.2436e-05
5.38367e-05
7.31676e-05
9.71728e-05
0.000118323
0.000130943
0.000134228
0.000130288
0.000122606
0.000116359
0.000117331
0.000125852
0.000129976
0.000117381
9.84179e-05
9.13902e-05
9.70822e-05
7.23415e-05
2.49988e-05
1.28258e-05
1.3419e-05
2.69149e-05
0.000108323
7.69998e-06
4.16813e-06
2.51352e-05
7.84628e-05
0.000127782
0.00013267
0.000112581
8.63274e-05
6.50281e-05
5.0372e-05
4.10089e-05
3.6173e-05
3.60083e-05
4.16018e-05
5.48182e-05
7.73328e-05
0.000106171
0.000131082
0.000144836
0.000147698
0.0001417
0.000128847
0.000113783
0.000104131
0.000104483
0.00011071
0.000112423
0.000108086
9.91664e-05
6.77063e-05
2.72168e-05
1.26744e-05
1.25928e-05
2.87881e-05
8.01534e-05
7.65154e-06
4.14809e-06
2.09147e-05
6.78166e-05
0.000123605
0.000131491
0.000112158
8.75417e-05
6.87413e-05
5.60833e-05
4.6458e-05
3.81094e-05
3.16753e-05
2.90319e-05
3.25313e-05
4.57168e-05
6.87654e-05
9.4025e-05
0.000117797
0.000134905
0.000138525
0.000131777
0.000125855
0.000128207
0.000138006
0.000147288
0.000148828
0.000142627
0.000127041
8.80243e-05
3.9457e-05
1.68655e-05
1.26324e-05
2.55992e-05
6.8317e-05
7.35524e-06
5.37371e-06
2.67808e-05
8.85786e-05
0.000132126
0.000116106
8.19328e-05
5.75834e-05
4.5307e-05
4.12839e-05
4.48383e-05
5.37214e-05
5.45798e-05
4.3687e-05
3.63327e-05
3.86633e-05
5.40423e-05
8.63367e-05
0.00012486
0.000148503
0.000157705
0.000161416
0.000164405
0.000168554
0.000173083
0.000174648
0.000170035
0.000158245
0.00013918
0.000109591
6.61223e-05
3.01153e-05
1.67133e-05
2.29183e-05
8.16315e-05
6.70905e-06
5.9473e-06
3.15461e-05
0.000118412
0.000134906
8.55276e-05
5.19017e-05
3.83374e-05
3.28134e-05
2.78569e-05
2.27837e-05
2.36274e-05
4.1422e-05
8.5055e-05
0.000116324
0.000148366
0.000168977
0.00016889
0.00016205
0.000156512
0.000153618
0.000154139
0.000158155
0.000163541
0.000166875
0.000165606
0.000158734
0.000146045
0.000127295
0.000101857
7.01162e-05
3.97899e-05
2.36269e-05
2.83731e-05
8.7752e-05
6.50304e-06
6.33954e-06
3.54413e-05
0.000133465
0.000101742
4.91229e-05
3.20478e-05
2.99123e-05
3.70083e-05
4.70566e-05
4.3624e-05
3.35782e-05
3.20984e-05
4.40422e-05
7.4559e-05
0.000121402
0.000157262
0.000167604
0.000162238
0.000151326
0.000140463
0.000132964
0.000130587
0.000133075
0.000137751
0.000140651
0.000138758
0.000130742
0.000116119
9.47662e-05
6.82914e-05
4.3261e-05
2.9328e-05
3.53438e-05
8.5375e-05
6.46426e-06
7.02725e-06
4.63212e-05
0.000126413
5.21806e-05
2.62419e-05
1.97094e-05
1.82726e-05
2.08064e-05
3.632e-05
6.97231e-05
8.12148e-05
7.45744e-05
7.64263e-05
9.98389e-05
0.000138966
0.000165451
0.000170886
0.000164983
0.000154773
0.000143649
0.000134034
0.000127836
0.000125798
0.000126828
0.000128216
0.000126958
0.000120811
0.000108221
8.85313e-05
6.42199e-05
4.29157e-05
3.28111e-05
4.1951e-05
7.70673e-05
6.51969e-06
6.92801e-06
5.15729e-05
9.41565e-05
3.40644e-05
2.10756e-05
2.31523e-05
2.92911e-05
3.043e-05
3.29934e-05
4.74541e-05
7.29665e-05
8.76518e-05
9.23377e-05
0.000100809
0.000117679
0.000137365
0.000150476
0.000153294
0.000148386
0.000139567
0.00012973
0.000120953
0.000114643
0.000111217
0.000109755
0.000108185
0.00010409
9.5265e-05
8.01564e-05
6.02172e-05
4.24478e-05
3.5171e-05
4.66883e-05
6.90703e-05
6.50216e-06
7.47971e-06
5.86806e-05
8.09557e-05
3.05168e-05
1.85432e-05
1.95071e-05
2.70541e-05
3.69433e-05
4.29448e-05
4.63409e-05
5.37855e-05
6.63249e-05
7.98835e-05
9.23347e-05
0.000105133
0.000118779
0.000130844
0.000138227
0.000139838
0.000136631
0.000130287
0.000122476
0.000114686
0.000108102
0.000103299
9.97474e-05
9.57012e-05
8.87831e-05
7.67083e-05
5.92507e-05
4.21981e-05
3.49362e-05
4.62637e-05
6.78513e-05
6.54826e-06
7.14725e-06
6.39081e-05
5.36152e-05
2.30854e-05
1.61614e-05
1.8583e-05
2.51815e-05
3.43086e-05
4.95918e-05
6.54183e-05
7.14296e-05
7.14453e-05
7.16549e-05
7.45159e-05
8.08268e-05
9.08351e-05
0.000103138
0.000114276
0.000121199
0.000123249
0.000121239
0.000116289
0.000109523
0.000102069
9.50903e-05
8.95684e-05
8.54597e-05
8.08062e-05
7.23546e-05
5.79228e-05
4.19064e-05
3.48762e-05
4.66138e-05
7.01404e-05
6.94703e-06
6.46965e-06
4.14943e-05
9.90971e-05
5.58853e-05
2.5846e-05
1.75809e-05
1.83781e-05
2.42383e-05
3.31768e-05
4.27235e-05
5.11273e-05
5.63407e-05
5.75755e-05
5.6785e-05
5.67554e-05
6.01083e-05
6.92308e-05
8.46975e-05
0.000102196
0.000114514
0.000118774
0.000116505
0.000109922
0.000100633
8.98949e-05
7.91937e-05
7.05204e-05
6.49491e-05
6.02365e-05
5.22341e-05
4.15209e-05
3.74138e-05
5.15956e-05
7.12568e-05
7.50942e-06
6.3606e-06
3.42736e-05
9.39032e-05
9.96156e-05
5.83352e-05
2.73131e-05
1.62858e-05
1.38046e-05
1.73214e-05
2.96814e-05
5.14678e-05
6.78358e-05
6.96188e-05
6.29681e-05
5.48943e-05
4.95671e-05
4.95549e-05
5.73437e-05
7.4637e-05
9.6851e-05
0.000112599
0.000117648
0.00011459
0.000105833
9.27113e-05
7.6921e-05
6.18138e-05
5.15377e-05
4.72809e-05
4.54708e-05
4.27553e-05
4.39868e-05
6.10292e-05
6.58916e-05
7.81798e-06
5.78432e-06
2.99766e-05
8.86483e-05
0.00011592
0.000113632
7.96639e-05
3.73643e-05
1.95888e-05
1.36568e-05
1.37866e-05
2.12468e-05
3.9688e-05
6.09063e-05
6.93881e-05
6.4542e-05
5.38749e-05
4.52915e-05
4.24944e-05
4.7013e-05
6.03903e-05
8.05593e-05
9.7188e-05
0.000103444
0.000101743
9.41712e-05
8.05535e-05
6.30382e-05
4.78363e-05
3.97796e-05
3.83511e-05
4.03048e-05
4.65603e-05
6.51441e-05
5.9488e-05
7.85576e-06
6.07925e-06
3.01475e-05
9.5967e-05
0.000121779
0.000112068
9.90583e-05
7.80278e-05
4.34508e-05
2.22817e-05
1.37284e-05
1.21699e-05
1.81971e-05
3.78706e-05
6.73999e-05
8.16843e-05
7.58969e-05
6.08365e-05
4.77768e-05
4.10428e-05
4.07252e-05
4.65725e-05
5.79551e-05
7.10507e-05
7.96977e-05
8.17968e-05
7.77911e-05
6.7154e-05
5.19228e-05
3.93252e-05
3.3623e-05
3.40938e-05
4.12122e-05
6.09964e-05
5.63894e-05
8.03454e-06
6.07249e-06
3.01227e-05
9.2986e-05
0.000121728
0.000112431
9.2444e-05
7.97099e-05
7.33774e-05
5.09284e-05
2.52937e-05
1.39265e-05
1.17165e-05
1.8057e-05
3.85125e-05
7.02121e-05
9.04464e-05
8.81226e-05
7.10013e-05
5.37455e-05
4.29122e-05
3.81917e-05
3.82692e-05
4.2536e-05
5.03709e-05
5.90614e-05
6.39386e-05
6.22947e-05
5.33705e-05
4.03923e-05
3.09966e-05
2.87362e-05
3.55849e-05
5.86176e-05
5.57166e-05
8.41005e-06
6.22967e-06
2.94818e-05
9.41115e-05
0.000127163
0.000117328
8.78681e-05
6.13509e-05
5.05106e-05
5.09584e-05
4.31308e-05
2.23756e-05
1.26078e-05
1.29034e-05
2.65093e-05
6.92454e-05
0.000124511
0.000141411
0.000121959
8.93463e-05
6.27095e-05
4.60849e-05
3.67522e-05
3.22178e-05
3.14778e-05
3.46248e-05
4.10535e-05
4.6385e-05
4.5059e-05
3.73562e-05
2.96457e-05
2.79857e-05
3.68891e-05
6.51338e-05
5.12357e-05
8.64406e-06
6.54585e-06
3.41903e-05
0.000109152
0.000135521
0.00012203
9.65583e-05
7.20962e-05
5.46855e-05
4.6337e-05
4.27129e-05
3.03666e-05
1.63222e-05
1.198e-05
1.90761e-05
5.02044e-05
0.000117299
0.000156804
0.000157145
0.000141295
0.000100998
6.80214e-05
4.67301e-05
3.38334e-05
2.64851e-05
2.34163e-05
2.45341e-05
2.92307e-05
3.35985e-05
3.33852e-05
3.10142e-05
3.26047e-05
4.51122e-05
7.42354e-05
4.10958e-05
8.3689e-06
6.67202e-06
3.52688e-05
0.000116092
0.000133324
0.000106211
7.42063e-05
5.6509e-05
4.96023e-05
4.56705e-05
4.01677e-05
3.09842e-05
1.90632e-05
1.33043e-05
1.9161e-05
5.74372e-05
0.000156197
0.000160854
0.000161624
0.000161176
0.000156168
0.000105644
6.71563e-05
4.32812e-05
2.91445e-05
2.1333e-05
1.82143e-05
1.92131e-05
2.36405e-05
2.93529e-05
3.43578e-05
4.11888e-05
5.56456e-05
7.31835e-05
3.1744e-05
7.67445e-06
7.00065e-06
4.08274e-05
0.000124475
0.000129956
9.81789e-05
6.79243e-05
5.30003e-05
4.8696e-05
4.72225e-05
4.07169e-05
2.91607e-05
1.88216e-05
1.40964e-05
1.93802e-05
5.53751e-05
0.000157431
0.000165495
0.000166669
0.000166846
0.000165967
0.00013599
9.42657e-05
6.21474e-05
4.0537e-05
2.71164e-05
1.96268e-05
1.6646e-05
1.75074e-05
2.21695e-05
3.11653e-05
4.47356e-05
6.03367e-05
6.61478e-05
2.66806e-05
7.02592e-06
6.85684e-06
4.09498e-05
0.000128893
0.000122368
8.32501e-05
5.60494e-05
4.50561e-05
4.29502e-05
4.34564e-05
3.97697e-05
2.97692e-05
2.00665e-05
1.60105e-05
2.24061e-05
6.01921e-05
0.000152289
0.000170368
0.000171861
0.000172641
0.000165309
0.000139767
0.00011156
8.44878e-05
6.09947e-05
4.25964e-05
2.96133e-05
2.15898e-05
1.77825e-05
1.77587e-05
2.22029e-05
3.39719e-05
5.38849e-05
6.29688e-05
2.53594e-05
6.70424e-06
6.96379e-06
4.22525e-05
0.000128801
0.000120466
8.15189e-05
5.58895e-05
4.62646e-05
4.43996e-05
4.31015e-05
3.75136e-05
2.81975e-05
1.99809e-05
1.67738e-05
2.2983e-05
5.44931e-05
0.000129953
0.000174245
0.000175928
0.00017007
0.000156304
0.000139441
0.000120889
0.00010165
8.27351e-05
6.50043e-05
4.92423e-05
3.63084e-05
2.69019e-05
2.12621e-05
1.95113e-05
2.29917e-05
3.6489e-05
6.00218e-05
2.78676e-05
6.62507e-06
6.74661e-06
4.04875e-05
0.000126136
0.00011305
7.14402e-05
4.71579e-05
3.91025e-05
3.95644e-05
4.22124e-05
3.96429e-05
3.05478e-05
2.18161e-05
1.87699e-05
2.60768e-05
5.81359e-05
0.00012504
0.000167978
0.00017264
0.000164486
0.000153846
0.000141677
0.000127903
0.000113042
9.79095e-05
8.31836e-05
6.9189e-05
5.59775e-05
4.3687e-05
3.29732e-05
2.50114e-05
2.14124e-05
2.59284e-05
4.80054e-05
3.46817e-05
6.63634e-06
6.85677e-06
3.96137e-05
0.000124328
0.00011637
7.62777e-05
5.05345e-05
4.09535e-05
3.96906e-05
4.11343e-05
3.97803e-05
3.2608e-05
2.37509e-05
1.92851e-05
2.37264e-05
4.70023e-05
0.000103331
0.000157513
0.000173353
0.000168728
0.000159072
0.000148057
0.000135856
0.000122582
0.000108736
9.49656e-05
8.18184e-05
6.95076e-05
5.76634e-05
4.55332e-05
3.34292e-05
2.4388e-05
2.35192e-05
3.97402e-05
4.44099e-05
6.856e-06
6.66306e-06
3.74568e-05
0.000119478
0.000108463
6.61759e-05
4.27959e-05
3.5783e-05
3.72322e-05
4.20171e-05
4.3685e-05
3.73027e-05
2.70936e-05
2.10435e-05
2.45481e-05
4.78204e-05
0.000107522
0.000165738
0.00018088
0.000178124
0.000168252
0.000156422
0.000143493
0.000129565
0.00011489
9.99092e-05
8.5225e-05
7.15317e-05
5.92399e-05
4.78129e-05
3.63188e-05
2.67239e-05
2.49781e-05
4.06412e-05
5.19678e-05
7.23881e-06
6.82538e-06
3.69066e-05
0.00011623
0.000109967
7.00248e-05
4.47044e-05
3.60095e-05
3.62592e-05
4.08263e-05
4.48113e-05
4.21125e-05
3.23179e-05
2.33519e-05
2.21768e-05
3.5366e-05
7.8819e-05
0.000146085
0.000179233
0.000181418
0.000177026
0.000165598
0.000151476
0.000135842
0.000119015
0.000101317
8.33792e-05
6.64685e-05
5.22594e-05
4.14372e-05
3.29358e-05
2.6832e-05
2.79216e-05
4.71735e-05
5.39171e-05
7.60077e-06
6.67581e-06
3.56584e-05
0.000111346
0.000103655
6.3859e-05
4.02094e-05
3.27934e-05
3.44642e-05
4.12688e-05
4.8057e-05
4.7611e-05
3.81097e-05
2.71765e-05
2.3118e-05
3.22733e-05
7.05433e-05
0.000141313
0.000177285
0.000179601
0.000181588
0.000171955
0.000157147
0.000139724
0.000120432
9.95812e-05
7.80858e-05
5.82111e-05
4.28568e-05
3.32758e-05
2.82695e-05
2.67554e-05
3.25649e-05
5.78824e-05
4.96512e-05
7.68165e-06
6.79139e-06
3.563e-05
0.000109931
0.000108168
7.16632e-05
4.39474e-05
3.30328e-05
3.24385e-05
3.83648e-05
4.71688e-05
5.18284e-05
4.58788e-05
3.33208e-05
2.45982e-05
2.61398e-05
4.63199e-05
0.000100292
0.000159588
0.000177123
0.000179248
0.000170481
0.000156901
0.000140062
0.000120351
9.80253e-05
7.43892e-05
5.26595e-05
3.65248e-05
2.7343e-05
2.41618e-05
2.62445e-05
3.71948e-05
6.8069e-05
4.25785e-05
7.58652e-06
6.63167e-06
3.4575e-05
0.000106063
0.000108326
7.49188e-05
4.60102e-05
3.29349e-05
3.06294e-05
3.56989e-05
4.56439e-05
5.44403e-05
5.34291e-05
4.17663e-05
2.95663e-05
2.58834e-05
3.67039e-05
7.53977e-05
0.000136096
0.000167528
0.000169986
0.000162187
0.000150126
0.000135035
0.000117089
9.62804e-05
7.34557e-05
5.15465e-05
3.46168e-05
2.46743e-05
2.13365e-05
2.46998e-05
3.91075e-05
7.23816e-05
3.66105e-05
7.42035e-06
6.70302e-06
3.45258e-05
0.000106985
0.000115837
8.77482e-05
5.50655e-05
3.63487e-05
2.99511e-05
3.18851e-05
4.0373e-05
5.23044e-05
5.92426e-05
5.29073e-05
3.82708e-05
2.81255e-05
2.91844e-05
4.82947e-05
9.40257e-05
0.000139155
0.000153421
0.000149885
0.000139961
0.000126891
0.000111511
9.39672e-05
7.44277e-05
5.42686e-05
3.67893e-05
2.51239e-05
2.01033e-05
2.22242e-05
3.61642e-05
7.00365e-05
3.37722e-05
7.34232e-06
6.63675e-06
3.40828e-05
0.00010733
0.000118366
9.05561e-05
5.96995e-05
4.04588e-05
3.16977e-05
3.08783e-05
3.70534e-05
4.91961e-05
6.19776e-05
6.44759e-05
5.22282e-05
3.65969e-05
2.97774e-05
3.7016e-05
6.64167e-05
0.000113427
0.000140745
0.000142839
0.000134342
0.000121868
0.000107405
9.16489e-05
7.48392e-05
5.73634e-05
4.07331e-05
2.77414e-05
2.06069e-05
2.05234e-05
3.1739e-05
6.56185e-05
3.39759e-05
7.4176e-06
6.77439e-06
3.46048e-05
0.000111346
0.0001219
9.09652e-05
6.11043e-05
4.36464e-05
3.44945e-05
3.16702e-05
3.53279e-05
4.57867e-05
6.08783e-05
7.17729e-05
6.74141e-05
5.04254e-05
3.59459e-05
3.30924e-05
4.68699e-05
8.28522e-05
0.000122031
0.000136239
0.000132096
0.000120654
0.000106245
9.04976e-05
7.42795e-05
5.82142e-05
4.30289e-05
3.01605e-05
2.17925e-05
1.99691e-05
2.8887e-05
6.2259e-05
3.59629e-05
7.58562e-06
6.85554e-06
3.49063e-05
0.000113882
0.000116958
7.86642e-05
5.3485e-05
4.26086e-05
3.73129e-05
3.50593e-05
3.76163e-05
4.69143e-05
6.27493e-05
7.88688e-05
8.27487e-05
6.89076e-05
4.90161e-05
3.73268e-05
3.97963e-05
6.1943e-05
0.000101101
0.000127651
0.000130502
0.000121118
0.000106801
9.02938e-05
7.30865e-05
5.65475e-05
4.19384e-05
3.01751e-05
2.23032e-05
2.02332e-05
2.87289e-05
6.30407e-05
3.75645e-05
7.74027e-06
7.04592e-06
3.55026e-05
0.000117013
0.000105686
6.34718e-05
4.49819e-05
3.99942e-05
3.88074e-05
3.86466e-05
4.16258e-05
5.07159e-05
6.69423e-05
8.58724e-05
9.59127e-05
8.75967e-05
6.6542e-05
4.76945e-05
4.05401e-05
4.95741e-05
7.86183e-05
0.000112171
0.000124966
0.000119875
0.000106531
8.9405e-05
7.08044e-05
5.30254e-05
3.8332e-05
2.78569e-05
2.17006e-05
2.09443e-05
3.10252e-05
6.85012e-05
3.70702e-05
7.78865e-06
7.24311e-06
3.64733e-05
0.000118281
8.23493e-05
4.54844e-05
3.61698e-05
3.77254e-05
4.13638e-05
4.42984e-05
4.91248e-05
5.97378e-05
7.78323e-05
9.92905e-05
0.000112824
0.000108027
8.71266e-05
6.33211e-05
4.8056e-05
4.65183e-05
6.27174e-05
9.37556e-05
0.000115515
0.00011661
0.000105069
8.74248e-05
6.73891e-05
4.85346e-05
3.39881e-05
2.48692e-05
2.07331e-05
2.22172e-05
3.55253e-05
7.61712e-05
3.44416e-05
7.68503e-06
7.51686e-06
3.85067e-05
0.000114896
5.819e-05
3.28992e-05
3.0983e-05
3.78969e-05
4.55379e-05
5.11244e-05
5.80813e-05
7.07224e-05
9.05264e-05
0.000113173
0.000128406
0.000126667
0.000107896
8.21312e-05
6.07768e-05
5.03892e-05
5.43038e-05
7.43875e-05
9.92773e-05
0.000108678
0.000101464
8.47201e-05
6.40882e-05
4.4781e-05
3.06092e-05
2.25068e-05
1.99099e-05
2.36844e-05
4.07024e-05
8.0127e-05
3.08181e-05
7.44067e-06
7.75523e-06
4.19667e-05
0.000100032
4.03685e-05
2.49598e-05
2.83433e-05
4.04388e-05
5.2217e-05
6.04322e-05
6.97385e-05
8.46166e-05
0.000105565
0.000127714
0.000142455
0.000142384
0.000126541
0.000101586
7.70323e-05
5.99271e-05
5.39756e-05
6.13196e-05
7.96203e-05
9.44428e-05
9.42246e-05
8.13841e-05
6.22228e-05
4.32887e-05
2.93003e-05
2.14801e-05
1.94898e-05
2.47145e-05
4.42853e-05
7.7723e-05
2.75342e-05
7.1383e-06
7.78689e-06
4.37423e-05
8.54028e-05
3.37926e-05
2.16899e-05
2.63773e-05
4.07634e-05
5.54621e-05
6.6037e-05
7.68609e-05
9.21675e-05
0.000112162
0.000132775
0.000147508
0.000150571
0.000140015
0.000119276
9.51084e-05
7.40445e-05
6.05296e-05
5.70017e-05
6.39648e-05
7.62393e-05
8.22747e-05
7.64775e-05
6.18212e-05
4.45573e-05
3.05231e-05
2.21784e-05
1.97901e-05
2.50618e-05
4.48583e-05
7.29127e-05
2.55413e-05
6.87582e-06
7.58108e-06
4.0587e-05
8.99673e-05
4.07982e-05
2.1902e-05
2.09189e-05
3.05842e-05
4.67235e-05
6.28409e-05
7.76323e-05
9.4299e-05
0.000113994
0.000134049
0.000149521
0.000155729
0.000150547
0.000135421
0.000114402
9.2405e-05
7.39068e-05
6.21509e-05
5.8755e-05
6.28319e-05
6.89451e-05
6.93922e-05
6.13698e-05
4.77987e-05
3.42601e-05
2.49577e-05
2.14447e-05
2.56801e-05
4.40072e-05
7.03654e-05
2.52208e-05
6.70396e-06
7.25694e-06
3.44801e-05
9.31902e-05
7.1807e-05
3.10608e-05
1.72504e-05
1.72464e-05
2.6681e-05
4.47363e-05
6.65948e-05
8.84619e-05
0.000110812
0.000133029
0.000151446
0.000161718
0.000161594
0.000151707
0.000134723
0.000114088
9.33238e-05
7.58496e-05
6.43022e-05
5.96269e-05
6.03572e-05
6.19388e-05
5.92855e-05
5.08813e-05
3.94814e-05
2.97072e-05
2.48568e-05
2.76018e-05
4.38344e-05
7.078e-05
2.6443e-05
6.61807e-06
7.0767e-06
3.13084e-05
8.64431e-05
9.91314e-05
6.50369e-05
2.57021e-05
1.31552e-05
1.30491e-05
2.23466e-05
4.26411e-05
7.15224e-05
0.000102689
0.000132181
0.000156898
0.000172757
0.000177089
0.000170561
0.000156145
0.000137101
0.000116093
9.56197e-05
7.83469e-05
6.6352e-05
6.01882e-05
5.82052e-05
5.67025e-05
5.22178e-05
4.41866e-05
3.53505e-05
2.97114e-05
3.10501e-05
4.50964e-05
7.22555e-05
2.8733e-05
6.52886e-06
7.06569e-06
3.11105e-05
9.04609e-05
0.000110809
9.99725e-05
5.7517e-05
2.08468e-05
1.01303e-05
1.11053e-05
2.19808e-05
4.5997e-05
8.25029e-05
0.000123252
0.000159064
0.000183418
0.000192781
0.000188294
0.000174646
0.000156352
0.000136076
0.000115305
9.55709e-05
7.88469e-05
6.68369e-05
5.97994e-05
5.60346e-05
5.25432e-05
4.71226e-05
4.02044e-05
3.48302e-05
3.52994e-05
4.7394e-05
7.31942e-05
3.13301e-05
6.49534e-06
7.20608e-06
3.22802e-05
9.63609e-05
0.000115851
0.000104741
8.36088e-05
4.17394e-05
1.51844e-05
8.29125e-06
1.19946e-05
2.69399e-05
5.76646e-05
0.000102542
0.000149166
0.000183309
0.000198027
0.000195361
0.00018231
0.000165089
0.000146701
0.00012794
0.000109109
9.1227e-05
7.60346e-05
6.49022e-05
5.77998e-05
5.30712e-05
4.85081e-05
4.32379e-05
3.88686e-05
3.92315e-05
4.99642e-05
7.3655e-05
3.35128e-05
6.56484e-06
7.36338e-06
3.38201e-05
9.88575e-05
0.000117526
0.000105201
8.3564e-05
5.78305e-05
2.63325e-05
1.05563e-05
8.23971e-06
1.62207e-05
3.80861e-05
7.7729e-05
0.000127337
0.000168228
0.000187755
0.000187457
0.000176069
0.000161061
0.000145764
0.000130612
0.000115043
9.90324e-05
8.3662e-05
7.06006e-05
6.09178e-05
5.42655e-05
4.91929e-05
4.45825e-05
4.11369e-05
4.18872e-05
5.20298e-05
7.4126e-05
3.48237e-05
6.70433e-06
7.49011e-06
3.61329e-05
0.000104265
0.000124947
0.00011592
9.41596e-05
6.72599e-05
3.94928e-05
1.69775e-05
8.10823e-06
1.01223e-05
2.36157e-05
5.38228e-05
9.93857e-05
0.000143228
0.000167569
0.000170787
0.000161815
0.000149083
0.000136749
0.000125393
0.000113951
0.000101434
8.79828e-05
7.49489e-05
6.39522e-05
5.57059e-05
4.96906e-05
4.50624e-05
4.21559e-05
4.34396e-05
5.36605e-05
7.49836e-05
3.5272e-05
6.87166e-06
7.57618e-06
3.88209e-05
0.000113782
0.000136646
0.000130075
0.000111756
8.52632e-05
5.6126e-05
2.85571e-05
1.20076e-05
7.60015e-06
1.35888e-05
3.33305e-05
7.11687e-05
0.000116381
0.000146898
0.000154762
0.000147863
0.000136064
0.000124977
0.000116073
0.000108272
9.97383e-05
8.9409e-05
7.77962e-05
6.65537e-05
5.72016e-05
5.01993e-05
4.52506e-05
4.26307e-05
4.44784e-05
5.52294e-05
7.63314e-05
3.51379e-05
7.03339e-06
7.68774e-06
4.10939e-05
0.000121841
0.000145659
0.000138965
0.000122417
0.000100131
7.35308e-05
4.57214e-05
2.11255e-05
9.15942e-06
8.44476e-06
1.88005e-05
4.60342e-05
9.01466e-05
0.000129291
0.000144104
0.000138981
0.000126339
0.000114353
0.000105882
0.000100275
9.51916e-05
8.84121e-05
7.92379e-05
6.87478e-05
5.88335e-05
5.09054e-05
4.54724e-05
4.30143e-05
4.54593e-05
5.6966e-05
7.80047e-05
3.47755e-05
7.14582e-06
7.83301e-06
4.33496e-05
0.000126809
0.000149074
0.00014165
0.000125293
0.000104819
8.19963e-05
5.8099e-05
3.36386e-05
1.48336e-05
7.79881e-06
1.15099e-05
2.87726e-05
6.63851e-05
0.000112706
0.00013744
0.000135129
0.000120624
0.000105936
9.60641e-05
9.114e-05
8.85679e-05
8.51248e-05
7.8912e-05
7.01264e-05
6.04489e-05
5.18647e-05
4.58036e-05
4.33231e-05
4.6362e-05
5.87508e-05
7.95483e-05
3.41809e-05
7.20615e-06
7.93214e-06
4.54116e-05
0.000130777
0.000150675
0.000142556
0.000126211
0.000106269
8.39063e-05
6.11815e-05
4.03981e-05
2.12811e-05
9.97888e-06
9.06091e-06
1.99485e-05
4.96685e-05
9.68182e-05
0.000130392
0.000132329
0.000116713
9.90334e-05
8.6661e-05
8.10846e-05
8.00082e-05
7.93909e-05
7.61039e-05
6.95829e-05
6.11534e-05
5.27918e-05
4.64525e-05
4.39355e-05
4.75903e-05
6.10412e-05
8.11954e-05
3.32466e-05
7.23371e-06
7.92757e-06
4.65639e-05
0.000133082
0.00015038
0.000140987
0.000124344
0.000105689
8.5435e-05
6.34581e-05
4.23872e-05
2.50564e-05
1.28227e-05
8.87573e-06
1.5998e-05
3.99547e-05
8.35573e-05
0.00012099
0.000127399
0.000112678
9.33301e-05
7.84161e-05
7.11082e-05
7.03039e-05
7.18364e-05
7.11558e-05
6.67821e-05
6.00865e-05
5.30244e-05
4.74318e-05
4.54367e-05
4.99575e-05
6.45556e-05
8.31975e-05
3.20748e-05
7.20529e-06
7.85279e-06
4.67263e-05
0.000133512
0.000148439
0.000137456
0.000119994
0.000102276
8.49572e-05
6.60606e-05
4.58236e-05
2.79813e-05
1.52492e-05
9.58663e-06
1.39802e-05
3.39042e-05
7.35878e-05
0.000111926
0.000122074
0.000109492
8.97568e-05
7.26317e-05
6.27206e-05
6.06425e-05
6.33438e-05
6.52327e-05
6.28899e-05
5.76523e-05
5.21958e-05
4.8308e-05
4.77743e-05
5.36019e-05
6.90208e-05
8.4802e-05
3.0941e-05
7.13252e-06
7.80487e-06
4.74179e-05
0.000134842
0.000147507
0.000134956
0.000116721
9.95516e-05
8.43076e-05
6.8564e-05
5.05002e-05
3.21873e-05
1.81014e-05
1.07765e-05
1.24605e-05
2.85119e-05
6.44939e-05
0.000103994
0.000118495
0.000108917
8.95685e-05
7.04948e-05
5.73402e-05
5.23043e-05
5.43631e-05
5.87842e-05
5.94119e-05
5.55239e-05
5.08679e-05
4.8378e-05
4.97239e-05
5.72318e-05
7.29195e-05
8.47764e-05
2.99239e-05
7.04136e-06
7.77448e-06
4.86374e-05
0.000137539
0.000148023
0.000133718
0.000114592
9.78976e-05
8.43304e-05
7.10877e-05
5.54866e-05
3.78436e-05
2.22442e-05
1.26828e-05
1.13809e-05
2.28511e-05
5.39716e-05
9.50176e-05
0.000115877
0.000111008
9.31803e-05
7.27162e-05
5.61171e-05
4.68783e-05
4.56943e-05
5.05425e-05
5.54619e-05
5.48979e-05
5.09117e-05
4.84619e-05
5.06036e-05
5.93976e-05
7.51879e-05
8.3531e-05
2.89663e-05
6.93739e-06
7.74224e-06
4.97982e-05
0.000140325
0.000149015
0.000132838
0.000112703
9.65793e-05
8.47501e-05
7.38076e-05
6.05574e-05
4.42668e-05
2.77201e-05
1.56462e-05
1.11344e-05
1.75608e-05
4.19296e-05
8.25776e-05
0.000111224
0.00011367
9.9663e-05
7.94069e-05
5.9946e-05
4.61223e-05
3.99309e-05
4.11714e-05
4.74329e-05
5.25755e-05
5.22599e-05
5.01265e-05
5.1751e-05
6.06603e-05
7.66175e-05
8.23558e-05
2.77504e-05
6.7689e-06
7.66853e-06
4.99501e-05
0.000141904
0.000149289
0.000130738
0.00010938
9.43618e-05
8.52237e-05
7.74281e-05
6.6919e-05
5.23945e-05
3.55066e-05
2.0702e-05
1.24207e-05
1.33845e-05
2.88125e-05
6.34762e-05
9.89572e-05
0.000111802
0.000105351
8.89791e-05
6.91556e-05
5.15288e-05
3.99404e-05
3.54107e-05
3.73017e-05
4.3503e-05
4.93865e-05
5.19783e-05
5.47834e-05
6.32548e-05
7.82399e-05
8.08607e-05
2.63594e-05
6.42305e-06
7.60572e-06
4.93643e-05
0.000142899
0.000149353
0.000127401
0.000104117
9.02578e-05
8.44591e-05
8.10001e-05
7.44705e-05
6.25707e-05
4.63114e-05
2.92581e-05
1.65113e-05
1.18228e-05
1.81414e-05
4.06405e-05
7.57423e-05
9.97234e-05
0.000104226
9.63256e-05
8.14781e-05
6.38379e-05
4.81085e-05
3.76478e-05
3.32311e-05
3.41999e-05
3.92707e-05
4.63584e-05
5.41702e-05
6.44978e-05
7.7981e-05
7.77919e-05
2.54897e-05
6.14255e-06
7.56605e-06
4.82729e-05
0.00014292
0.000148055
0.000121557
9.59921e-05
8.33779e-05
8.1215e-05
8.30756e-05
8.2217e-05
7.44985e-05
6.02024e-05
4.22147e-05
2.51425e-05
1.43991e-05
1.28853e-05
2.31977e-05
4.80069e-05
7.71208e-05
9.28879e-05
9.48426e-05
8.85853e-05
7.7143e-05
6.29007e-05
4.92085e-05
3.91214e-05
3.38652e-05
3.33389e-05
3.72852e-05
4.57738e-05
5.87562e-05
7.35213e-05
7.5614e-05
2.61171e-05
6.15761e-06
7.58522e-06
4.73569e-05
0.000142045
0.000144988
0.000113728
8.64757e-05
7.522e-05
7.61541e-05
8.29851e-05
8.86104e-05
8.68963e-05
7.61402e-05
5.89982e-05
3.93759e-05
2.24043e-05
1.35373e-05
1.4727e-05
2.74776e-05
5.12347e-05
7.40607e-05
8.5326e-05
8.69337e-05
8.293e-05
7.50657e-05
6.43669e-05
5.27565e-05
4.28593e-05
3.65897e-05
3.47796e-05
3.80726e-05
4.76232e-05
6.35106e-05
7.54779e-05
2.87347e-05
6.59978e-06
7.62723e-06
4.69762e-05
0.000140751
0.000139499
0.000103615
7.64158e-05
6.73958e-05
7.12533e-05
8.22773e-05
9.37073e-05
9.81884e-05
9.18896e-05
7.6573e-05
5.64519e-05
3.57173e-05
1.99339e-05
1.3494e-05
1.74886e-05
3.23573e-05
5.39689e-05
7.07302e-05
7.793e-05
7.89576e-05
7.6762e-05
7.19124e-05
6.42504e-05
5.45815e-05
4.50563e-05
3.81094e-05
3.55165e-05
3.91139e-05
5.22664e-05
7.35361e-05
3.18605e-05