/*--------------------------------*- C++ -*----------------------------------*\
| =========                 |                                                 |
| \\      /  F ield         | OpenFOAM: The Open Source CFD Toolbox           |
|  \\    /   O peration     | Version:  v2006                                 |
|   \\  /    A nd           | Website:  www.openfoam.com                      |
|    \\/     M anipulation  |                                                 |
\*---------------------------------------------------------------------------*/
FoamFile
{
    version     2.0;
    format      ascii;
    class       surfaceScalarField;
    location    "90";
    object      phi;
}
// * * * * * * * * * * * * * * * * * * * * * * * * * * * * * * * * * * * * * //

dimensions      [1 0 -1 0 0 0 0];
oriented        oriented;


internalField   nonuniform List<scalar> 
228225
(
-0.000329917
-3.32613e-05
-2.00236e-06
-0.000298413
-3.15912e-05
-1.07089e-06
-0.000268937
-2.88922e-05
-1.28026e-06
-0.000241573
-2.54968e-05
-1.56846e-06
-0.000218923
-2.01457e-05
-1.4103e-06
-0.000201321
-1.43845e-05
-1.4829e-06
-0.000187053
-1.06183e-05
-1.09191e-06
-0.000174002
-7.94667e-06
-1.19716e-06
-0.00016221
-6.42066e-06
-1.11101e-06
-0.000151409
-5.54229e-06
-1.07762e-06
-0.000142429
-4.5062e-06
-9.97308e-07
-0.000135214
-3.57449e-06
-9.36323e-07
-0.000129375
-2.78422e-06
-9.37771e-07
-0.000124095
-2.3709e-06
-1.03609e-06
-0.000118684
-2.32678e-06
-1.23112e-06
-0.000112796
-2.5312e-06
-1.49448e-06
-0.000106441
-2.83058e-06
-1.75105e-06
-9.97499e-05
-3.12942e-06
-1.93027e-06
-9.27737e-05
-3.4194e-06
-2.00567e-06
-8.54536e-05
-3.7437e-06
-1.99738e-06
-7.77499e-05
-4.0953e-06
-1.93669e-06
-6.9707e-05
-4.44161e-06
-1.84815e-06
-6.1385e-05
-4.76364e-06
-1.74438e-06
-5.28266e-05
-5.05444e-06
-1.62675e-06
-4.41109e-05
-5.30132e-06
-1.49385e-06
-3.53806e-05
-5.4729e-06
-1.34931e-06
-2.67784e-05
-5.53708e-06
-1.20575e-06
-1.83851e-05
-5.47287e-06
-1.08247e-06
-1.0294e-05
-5.25179e-06
-1.02965e-06
-2.59533e-06
-4.82685e-06
-1.1329e-06
4.45177e-06
-4.03504e-06
-1.42831e-06
1.00337e-05
-2.38575e-06
-1.8954e-06
1.29795e-05
5.85951e-07
-2.48493e-06
1.26209e-05
4.57322e-06
-2.87547e-06
1.43756e-05
-4.37878e-07
2.15466e-06
-3.41703e-05
7.52422e-07
-1.53551e-06
-2.59506e-05
8.65204e-07
-8.24281e-06
-1.7809e-05
-4.4941e-07
-1.47222e-05
-1.22983e-05
-2.2888e-06
-2.15799e-05
-5.88056e-06
-4.10022e-06
-2.87935e-05
-3.74156e-07
-5.31268e-06
-3.79762e-05
4.81351e-06
-6.23123e-06
-4.76928e-05
7.76049e-06
-6.80825e-06
-5.56767e-05
8.31166e-06
-6.93158e-06
-6.1748e-05
7.86455e-06
-6.64772e-06
-6.61171e-05
7.15973e-06
-6.03924e-06
-6.97449e-05
6.43534e-06
-5.25209e-06
-7.33535e-05
5.65269e-06
-4.5078e-06
-7.69444e-05
4.70389e-06
-3.9531e-06
-8.00579e-05
3.58611e-06
-3.57545e-06
-8.2391e-05
2.40362e-06
-3.31175e-06
-8.3901e-05
1.26458e-06
-3.12238e-06
-8.45819e-05
1.13767e-07
-2.98723e-06
-8.48394e-05
-6.56851e-07
-2.8935e-06
-8.47117e-05
-1.42689e-06
-2.83493e-06
-8.4157e-05
-2.23627e-06
-2.8085e-06
-8.31087e-05
-3.07311e-06
-2.80927e-06
-8.1507e-05
-3.93442e-06
-2.8307e-06
-7.9272e-05
-4.82059e-06
-2.87251e-06
-7.63017e-05
-5.72169e-06
-2.94079e-06
-7.24846e-05
-6.61053e-06
-3.04355e-06
-6.77196e-05
-7.45418e-06
-3.19207e-06
-6.18719e-05
-8.22912e-06
-3.4118e-06
-5.46883e-05
-8.96691e-06
-3.73677e-06
-4.57668e-05
-9.74575e-06
-4.19604e-06
-3.49243e-05
-1.01802e-05
-4.82532e-06
-2.29471e-05
-8.80416e-06
-5.70292e-06
-1.12406e-05
-4.54707e-06
-6.86653e-06
-3.83165e-06
4.5633e-06
-7.95577e-06
1.56891e-05
-5.57718e-06
-1.52495e-05
-2.19731e-05
2.88825e-06
-2.08603e-05
-2.1794e-05
1.16751e-06
-3.14443e-05
-7.21771e-06
-8.79666e-07
-3.88657e-05
-4.14542e-06
-1.71892e-06
-4.15562e-05
-1.73157e-06
-2.18457e-06
-4.06155e-05
6.93216e-07
-2.54545e-06
-3.64245e-05
2.93432e-06
-2.80262e-06
-3.10142e-05
4.7539e-06
-2.92019e-06
-2.60911e-05
5.83944e-06
-2.86563e-06
-2.20938e-05
6.32267e-06
-2.67222e-06
-1.89921e-05
6.42213e-06
-2.4005e-06
-1.6682e-05
6.28419e-06
-2.09824e-06
-1.51434e-05
5.97503e-06
-1.79278e-06
-1.44279e-05
5.51954e-06
-1.50693e-06
-1.45415e-05
4.93282e-06
-1.25642e-06
-1.53906e-05
4.23664e-06
-1.04559e-06
-1.68246e-05
3.46455e-06
-8.67498e-07
-1.87854e-05
2.63616e-06
-7.07066e-07
-2.08278e-05
1.74397e-06
-5.4893e-07
-2.28938e-05
7.80921e-07
-3.81648e-07
-2.49233e-05
-3.01209e-07
-1.96297e-07
-2.65683e-05
-1.7793e-06
1.23542e-08
-2.78102e-05
-3.3047e-06
2.34308e-07
-2.85374e-05
-4.95986e-06
4.64818e-07
-2.86128e-05
-6.7538e-06
6.97629e-07
-2.79274e-05
-8.63608e-06
9.3046e-07
-2.64977e-05
-1.04562e-05
1.17011e-06
-2.45577e-05
-1.19794e-05
1.44042e-06
-2.25211e-05
-1.30661e-05
1.79529e-06
-2.06422e-05
-1.3938e-05
2.30226e-06
-1.88481e-05
-1.44819e-05
2.86266e-06
-1.63152e-05
-1.3855e-05
3.054e-06
-1.24675e-05
-1.02514e-05
2.73195e-06
-6.06682e-06
-1.4898e-06
1.30999e-06
1.08891e-05
-4.99517e-07
-1.65435e-05
-1.23284e-05
7.17596e-06
-2.76774e-05
-1.92255e-05
8.84542e-06
-2.69952e-05
-1.42051e-05
6.83873e-06
-2.38635e-05
-1.26681e-05
5.69949e-06
-1.97003e-05
-1.04841e-05
4.67557e-06
-1.43653e-05
-8.39227e-06
3.76697e-06
-8.18961e-06
-6.24744e-06
2.96223e-06
-1.48435e-06
-4.31776e-06
2.26901e-06
5.27604e-06
-2.77782e-06
1.71825e-06
1.17736e-05
-1.64603e-06
1.32013e-06
1.78702e-05
-8.74533e-07
1.06462e-06
2.35267e-05
-4.03953e-07
9.29602e-07
2.87379e-05
-1.84746e-07
8.88013e-07
3.35121e-05
-1.86446e-07
9.14703e-07
3.78781e-05
-3.94178e-07
9.89161e-07
4.18926e-05
-7.98404e-07
1.09623e-06
4.564e-05
-1.3856e-06
1.22822e-06
4.92216e-05
-2.14629e-06
1.37817e-06
5.27344e-05
-3.07523e-06
1.53394e-06
5.62582e-05
-4.16032e-06
1.688e-06
5.97903e-05
-5.37424e-06
1.84271e-06
6.30064e-05
-6.687e-06
2.01558e-06
6.59136e-05
-8.09225e-06
2.21897e-06
6.84624e-05
-9.62946e-06
2.46037e-06
7.05888e-05
-1.13166e-05
2.74006e-06
7.21449e-05
-1.30385e-05
3.04894e-06
7.29395e-05
-1.45644e-05
3.34472e-06
7.24873e-05
-1.52341e-05
3.55824e-06
6.93756e-05
-1.38457e-05
3.66669e-06
6.25451e-05
-1.09445e-05
3.70042e-06
5.25518e-05
-8.19181e-06
3.68449e-06
4.04487e-05
-5.37869e-06
3.6064e-06
2.60403e-05
2.66163e-07
3.41623e-06
9.99551e-06
1.13684e-05
3.06475e-06
1.98163e-05
1.93533e-06
-9.81396e-06
-2.9437e-06
2.0663e-06
-2.04495e-05
-9.84725e-06
3.33657e-06
-2.32017e-05
-1.4287e-05
4.48845e-06
-2.36594e-05
-1.57162e-05
5.03495e-06
-2.16731e-05
-1.62787e-05
5.29869e-06
-1.7713e-05
-1.62719e-05
5.38045e-06
-1.20073e-05
-1.58502e-05
5.30842e-06
-4.8744e-06
-1.52122e-05
5.10769e-06
3.30164e-06
-1.45011e-05
4.82513e-06
1.21402e-05
-1.37731e-05
4.5036e-06
2.13077e-05
-1.30554e-05
4.17674e-06
3.05367e-05
-1.23626e-05
3.85459e-06
3.96283e-05
-1.17035e-05
3.52621e-06
4.8423e-05
-1.10829e-05
3.18474e-06
5.67918e-05
-1.05193e-05
2.83061e-06
6.46241e-05
-1.00281e-05
2.46739e-06
7.18138e-05
-9.60988e-06
2.10121e-06
7.82495e-05
-9.26421e-06
1.74056e-06
8.38039e-05
-8.98763e-06
1.39618e-06
8.83353e-05
-8.7695e-06
1.07737e-06
9.1699e-05
-8.58449e-06
7.92906e-07
9.3732e-05
-8.38994e-06
5.57794e-07
9.41928e-05
-8.1461e-06
3.99271e-07
9.27199e-05
-7.85655e-06
3.44048e-07
8.9038e-05
-7.62819e-06
3.97263e-07
8.29651e-05
-7.37152e-06
5.61993e-07
7.30485e-05
-5.7125e-06
8.18497e-07
5.82885e-05
-2.32063e-06
9.57823e-07
4.15968e-05
9.28991e-07
8.18678e-07
2.8405e-05
9.61573e-07
7.19885e-07
2.13396e-05
-1.88817e-06
9.9332e-07
1.68505e-05
-1.79689e-06
1.59794e-06
1.09668e-05
4.01775e-06
2.40936e-06
3.41373e-06
1.61072e-05
2.83951e-06
2.19584e-05
1.75285e-06
4.47257e-06
-7.99029e-06
1.05734e-06
8.17632e-06
-1.3889e-05
1.01803e-06
1.0519e-05
-1.64997e-05
5.46096e-07
1.32031e-05
-1.80881e-05
2.81397e-07
1.63246e-05
-1.91471e-05
2.49498e-07
1.99829e-05
-1.98556e-05
3.39704e-07
2.42941e-05
-2.02795e-05
4.56653e-07
2.92562e-05
-2.04382e-05
5.44897e-07
3.47628e-05
-2.03442e-05
5.77037e-07
4.06774e-05
-2.0021e-05
5.47598e-07
4.68611e-05
-1.95031e-05
4.62411e-07
5.31872e-05
-1.88291e-05
3.30294e-07
5.95434e-05
-1.80334e-05
1.59852e-07
6.58204e-05
-1.71414e-05
-3.34307e-08
7.1848e-05
-1.61731e-05
-1.87716e-07
7.75064e-05
-1.5137e-05
-3.62313e-07
8.26651e-05
-1.40372e-05
-5.43425e-07
8.71868e-05
-1.2878e-05
-7.21731e-07
9.09358e-05
-1.16622e-05
-8.95768e-07
9.37859e-05
-1.03858e-05
-1.07269e-06
9.56266e-05
-9.02815e-06
-1.2684e-06
9.63442e-05
-7.53032e-06
-1.50233e-06
9.57477e-05
-5.77204e-06
-1.7806e-06
9.3497e-05
-3.59813e-06
-2.08811e-06
8.92133e-05
-1.08017e-06
-2.38735e-06
8.20955e-05
1.91463e-06
-2.64262e-06
7.16669e-05
6.406e-06
-2.85664e-06
5.89884e-05
1.21503e-05
-2.98447e-06
4.56503e-05
1.6277e-05
-2.91815e-06
3.44346e-05
1.51169e-05
-2.62605e-06
2.49094e-05
1.11427e-05
-2.32852e-06
1.69628e-05
9.66064e-06
-1.95904e-06
1.04131e-05
1.26761e-05
-1.09551e-06
3.98676e-06
2.17725e-05
4.87215e-07
2.49813e-05
1.03378e-06
-6.6393e-07
-8.53643e-06
1.11649e-06
9.37293e-07
-1.6785e-05
8.35771e-07
4.74167e-06
-2.1263e-05
3.70537e-07
9.64688e-06
-2.37573e-05
1.64798e-07
1.47866e-05
-2.50754e-05
2.19756e-07
1.96279e-05
-2.5629e-05
4.06632e-07
2.38804e-05
-2.56179e-05
6.05269e-07
2.7414e-05
-2.51607e-05
7.48843e-07
3.02026e-05
-2.43496e-05
8.11383e-07
3.2283e-05
-2.32694e-05
7.91296e-07
3.37268e-05
-2.19996e-05
7.0035e-07
3.46173e-05
-2.06072e-05
5.56128e-07
3.50332e-05
-1.91382e-05
3.76478e-07
3.50393e-05
-1.76173e-05
1.75539e-07
3.46802e-05
-1.60548e-05
-3.44055e-08
3.3959e-05
-1.44566e-05
-2.12667e-07
3.29144e-05
-1.28289e-05
-3.89957e-07
3.15829e-05
-1.11889e-05
-5.4958e-07
3.00233e-05
-9.56944e-06
-6.83695e-07
2.83358e-05
-8.0151e-06
-7.8788e-07
2.66592e-05
-6.55195e-06
-8.59145e-07
2.51396e-05
-5.13736e-06
-8.94332e-07
2.38678e-05
-3.61166e-06
-8.85774e-07
2.27393e-05
-1.64768e-06
-8.29955e-07
2.13781e-05
9.77668e-07
-7.54881e-07
1.98774e-05
4.0144e-06
-7.00807e-07
1.93337e-05
7.56799e-06
-6.54129e-07
2.08707e-05
1.1381e-05
-5.69845e-07
2.34344e-05
1.4711e-05
-5.23139e-07
2.34918e-05
1.63111e-05
-5.65969e-07
1.8953e-05
1.70136e-05
-6.52026e-07
1.21582e-05
1.75809e-05
-6.72183e-07
6.16566e-06
1.93902e-05
-4.55372e-07
2.56813e-06
2.52794e-05
2.40201e-07
2.69897e-05
7.56622e-07
4.15791e-06
-1.28628e-05
-7.93242e-08
1.32299e-05
-2.50838e-05
-9.28634e-07
2.32467e-05
-2.97377e-05
-1.51714e-06
3.2786e-05
-3.13581e-05
-1.78798e-06
4.14078e-05
-3.16636e-05
-1.80679e-06
4.88985e-05
-3.11905e-05
-1.65863e-06
5.51075e-05
-3.01167e-05
-1.4173e-06
5.9932e-05
-2.85382e-05
-1.14606e-06
6.33402e-05
-2.65667e-05
-8.91654e-07
6.53946e-05
-2.43522e-05
-6.80829e-07
6.62295e-05
-2.20355e-05
-5.23843e-07
6.60048e-05
-1.97087e-05
-4.21703e-07
6.48714e-05
-1.74133e-05
-3.71508e-07
6.29584e-05
-1.51581e-05
-3.68244e-07
6.03716e-05
-1.29376e-05
-4.03787e-07
5.71942e-05
-1.07439e-05
-4.67747e-07
5.3491e-05
-8.57116e-06
-5.48916e-07
4.93049e-05
-6.4175e-06
-6.35876e-07
4.46608e-05
-4.29896e-06
-7.17221e-07
3.96069e-05
-2.28581e-06
-7.81543e-07
3.43131e-05
-5.35388e-07
-8.16886e-07
2.8926e-05
1.00331e-06
-8.10871e-07
2.37517e-05
2.30859e-06
-7.53173e-07
1.92872e-05
3.49802e-06
-6.38989e-07
1.58866e-05
4.92327e-06
-4.74021e-07
1.3386e-05
6.87557e-06
-2.90383e-07
1.17918e-05
9.37416e-06
-1.32243e-07
1.11302e-05
1.21972e-05
-2.55284e-08
1.12146e-05
1.47783e-05
1.58302e-08
1.09594e-05
1.67028e-05
3.34591e-08
9.78437e-06
1.82914e-05
6.18831e-08
7.54782e-06
1.99394e-05
9.77389e-08
4.4185e-06
2.28587e-05
1.29661e-07
1.36229e-06
2.86895e-05
2.47343e-07
2.81932e-05
5.01514e-07
7.72115e-06
-2.03384e-05
-3.34037e-08
1.49947e-05
-3.18179e-05
-4.96035e-08
2.04876e-05
-3.4509e-05
-2.08843e-07
2.47461e-05
-3.47676e-05
-4.07802e-07
2.8071e-05
-3.40228e-05
-5.94842e-07
3.05616e-05
-3.26028e-05
-7.57437e-07
3.21514e-05
-3.0518e-05
-9.005e-07
3.27047e-05
-2.77879e-05
-1.0355e-06
3.22191e-05
-2.46543e-05
-1.17049e-06
3.09283e-05
-2.1514e-05
-1.30042e-06
2.91913e-05
-1.8652e-05
-1.41024e-06
2.73252e-05
-1.61338e-05
-1.48655e-06
2.55277e-05
-1.38866e-05
-1.52398e-06
2.38861e-05
-1.18068e-05
-1.52375e-06
2.2413e-05
-9.81044e-06
-1.48959e-06
2.1077e-05
-7.84184e-06
-1.42566e-06
1.98164e-05
-5.86254e-06
-1.33522e-06
1.85353e-05
-3.83435e-06
-1.22102e-06
1.70911e-05
-1.71815e-06
-1.08882e-06
1.53052e-05
4.7934e-07
-9.57077e-07
1.3136e-05
2.51155e-06
-8.58841e-07
1.0934e-05
4.05783e-06
-8.11869e-07
9.03555e-06
5.07537e-06
-7.98322e-07
7.60006e-06
5.81219e-06
-7.89092e-07
6.93251e-06
6.44892e-06
-7.63663e-07
7.46963e-06
7.14348e-06
-7.11077e-07
9.47685e-06
8.08631e-06
-6.22359e-07
1.28355e-05
9.43362e-06
-4.93898e-07
1.68691e-05
1.11744e-05
-3.37404e-07
2.04426e-05
1.33335e-05
-1.56616e-07
2.20376e-05
1.65496e-05
7.22181e-08
1.89429e-05
2.22654e-05
3.94253e-07
1.08588e-05
2.97452e-05
5.49697e-07
3.63279e-06
3.51115e-05
3.13744e-07
3.17807e-05
1.63061e-07
4.55159e-06
-2.46756e-05
-1.62787e-08
7.13406e-06
-3.40961e-05
-3.27578e-07
8.71869e-06
-3.54045e-05
-8.66068e-07
1.02075e-05
-3.52595e-05
-1.23783e-06
1.18252e-05
-3.44151e-05
-1.4969e-06
1.34827e-05
-3.28506e-05
-1.69644e-06
1.48981e-05
-3.03589e-05
-1.86545e-06
1.57042e-05
-2.68484e-05
-2.03227e-06
1.57248e-05
-2.2739e-05
-2.21075e-06
1.50927e-05
-1.87574e-05
-2.37988e-06
1.40974e-05
-1.53855e-05
-2.50038e-06
1.2991e-05
-1.26761e-05
-2.55064e-06
1.19068e-05
-1.04371e-05
-2.53542e-06
1.08785e-05
-8.44974e-06
-2.47124e-06
9.89234e-06
-6.56935e-06
-2.3719e-06
8.93836e-06
-4.73882e-06
-2.24305e-06
8.03754e-06
-2.95433e-06
-2.08294e-06
7.22702e-06
-1.20499e-06
-1.88515e-06
6.52022e-06
5.55266e-07
-1.63975e-06
5.99397e-06
2.24784e-06
-1.34034e-06
5.52331e-06
3.88652e-06
-1.02136e-06
5.09645e-06
5.17902e-06
-7.90346e-07
4.70299e-06
6.08259e-06
-6.83512e-07
4.34663e-06
6.77187e-06
-6.46204e-07
4.08853e-06
7.35162e-06
-6.51732e-07
4.05358e-06
7.89692e-06
-6.85747e-07
4.459e-06
8.4791e-06
-7.27675e-07
5.57321e-06
9.17051e-06
-7.53747e-07
7.53411e-06
1.00685e-05
-7.45241e-07
1.02458e-05
1.14167e-05
-6.78752e-07
1.29936e-05
1.42501e-05
-4.55109e-07
1.2893e-05
2.17316e-05
1.81209e-07
7.1247e-06
3.37456e-05
6.52859e-07
1.93812e-06
3.86324e-05
6.12312e-07
3.33029e-05
1.43822e-07
-2.37402e-06
-2.32815e-05
8.23061e-07
-3.64336e-06
-3.41932e-05
1.23702e-06
-3.61522e-06
-3.64663e-05
9.94905e-07
-2.72777e-06
-3.67525e-05
6.21483e-07
-1.21844e-06
-3.61305e-05
2.57201e-07
7.39163e-07
-3.46348e-05
-1.00781e-07
2.95844e-06
-3.20408e-05
-4.57564e-07
5.20922e-06
-2.82053e-05
-8.21986e-07
7.20392e-06
-2.34769e-05
-1.21007e-06
8.69365e-06
-1.86319e-05
-1.6118e-06
9.62459e-06
-1.43881e-05
-1.97754e-06
1.01335e-05
-1.10214e-05
-2.26146e-06
1.03995e-05
-8.38574e-06
-2.45228e-06
1.05417e-05
-6.18894e-06
-2.56261e-06
1.06182e-05
-4.20854e-06
-2.60856e-06
1.06624e-05
-2.35418e-06
-2.59828e-06
1.07269e-05
-6.41296e-07
-2.53299e-06
1.08998e-05
9.03852e-07
-2.4157e-06
1.13012e-05
2.29739e-06
-2.25505e-06
1.19819e-05
3.53495e-06
-2.06083e-06
1.29606e-05
4.66986e-06
-1.8429e-06
1.39683e-05
5.71908e-06
-1.6209e-06
1.47293e-05
6.68106e-06
-1.42552e-06
1.5168e-05
7.56043e-06
-1.27999e-06
1.53727e-05
8.30877e-06
-1.18536e-06
1.55324e-05
8.89184e-06
-1.12607e-06
1.57222e-05
9.47511e-06
-1.08921e-06
1.59103e-05
1.02214e-05
-1.07696e-06
1.59115e-05
1.1372e-05
-1.08673e-06
1.50989e-05
1.35847e-05
-1.09185e-06
1.27786e-05
1.78111e-05
-1.00344e-06
9.59641e-06
2.54459e-05
-4.82333e-07
5.54403e-06
3.70588e-05
4.19353e-07
2.12004e-06
4.08218e-05
8.94948e-07
3.49614e-05
4.81959e-07
-3.78799e-07
-2.32947e-05
4.5423e-07
-1.84447e-07
-3.46272e-05
3.28599e-07
3.81045e-07
-3.70583e-05
9.37522e-08
1.2009e-06
-3.74338e-05
-8.8333e-08
2.25146e-06
-3.69134e-05
-2.3157e-07
3.56363e-06
-3.55652e-05
-3.57652e-07
5.21011e-06
-3.32029e-05
-4.64974e-07
7.21475e-06
-2.96087e-05
-5.65478e-07
9.3639e-06
-2.48453e-05
-7.00842e-07
1.12102e-05
-1.94315e-05
-9.12917e-07
1.23515e-05
-1.41751e-05
-1.18936e-06
1.27097e-05
-9.75344e-06
-1.46953e-06
1.25383e-05
-6.39149e-06
-1.70386e-06
1.2197e-05
-3.89885e-06
-1.88008e-06
1.19641e-05
-1.95237e-06
-2.0073e-06
1.19505e-05
-2.75325e-07
-2.0975e-06
1.21883e-05
1.20754e-06
-2.15585e-06
1.25989e-05
2.57946e-06
-2.17838e-06
1.30822e-05
3.86908e-06
-2.15767e-06
1.35165e-05
5.08681e-06
-2.09066e-06
1.38059e-05
6.25985e-06
-1.98021e-06
1.38686e-05
7.39177e-06
-1.82695e-06
1.36632e-05
8.43251e-06
-1.61453e-06
1.31903e-05
9.31434e-06
-1.29358e-06
1.24786e-05
9.92917e-06
-8.2944e-07
1.1687e-05
1.02053e-05
-3.76846e-07
1.10783e-05
1.0347e-05
-1.19243e-07
1.07698e-05
1.06577e-05
-1.48742e-08
1.0694e-05
1.15252e-05
-2.3504e-08
1.04115e-05
1.40065e-05
-2.24456e-07
8.1761e-06
2.04022e-05
-6.66305e-07
3.74166e-06
3.03763e-05
-8.32938e-07
1.08933e-06
3.99125e-05
-1.96332e-07
1.72063e-07
4.15559e-05
3.88148e-07
3.52366e-05
2.85837e-07
-1.14386e-06
-2.29707e-05
6.74347e-07
-1.62331e-06
-3.52412e-05
8.38845e-07
-1.25652e-06
-3.83008e-05
6.22303e-07
-2.60898e-07
-3.90252e-05
3.50456e-07
1.24023e-06
-3.87722e-05
1.13806e-07
3.2131e-06
-3.77111e-05
-7.86062e-08
5.66756e-06
-3.57154e-05
-2.14272e-07
8.63456e-06
-3.25695e-05
-3.12416e-07
1.20127e-05
-2.81708e-05
-3.90973e-07
1.54377e-05
-2.26931e-05
-5.04589e-07
1.83466e-05
-1.66674e-05
-7.10371e-07
2.02974e-05
-1.09139e-05
-9.95906e-07
2.12829e-05
-6.21578e-06
-1.27444e-06
2.17031e-05
-2.89677e-06
-1.4705e-06
2.20053e-05
-6.95038e-07
-1.57148e-06
2.24407e-05
8.95662e-07
-1.59983e-06
2.3016e-05
2.2266e-06
-1.57898e-06
2.37161e-05
3.42219e-06
-1.52588e-06
2.44526e-05
4.59752e-06
-1.45241e-06
2.50913e-05
5.81814e-06
-1.36697e-06
2.54865e-05
7.12797e-06
-1.27411e-06
2.55034e-05
8.52118e-06
-1.17077e-06
2.50537e-05
9.89472e-06
-1.04305e-06
2.41378e-05
1.10797e-05
-8.7317e-07
2.27643e-05
1.19437e-05
-6.45489e-07
2.08946e-05
1.24517e-05
-3.58066e-07
1.86271e-05
1.26849e-05
-4.37127e-08
1.61535e-05
1.29367e-05
1.96481e-07
1.35922e-05
1.36599e-05
3.56661e-07
1.10955e-05
1.58624e-05
4.04941e-07
8.30514e-06
2.24934e-05
1.21116e-07
4.26327e-06
3.39924e-05
-5.12312e-07
1.60423e-06
4.26255e-05
-6.23027e-07
3.33243e-07
4.29222e-05
-3.87253e-07
3.56686e-05
-2.42848e-07
-1.74487e-06
-2.14465e-05
1.36742e-07
-8.81124e-07
-3.57368e-05
-3.12987e-07
1.06226e-06
-3.9784e-05
-3.11506e-07
3.29867e-06
-4.07768e-05
-2.9454e-07
5.6583e-06
-4.05843e-05
-3.33427e-07
8.08307e-06
-3.9495e-05
-4.07449e-07
1.05507e-05
-3.74436e-05
-4.91454e-07
1.31409e-05
-3.43539e-05
-5.56018e-07
1.60165e-05
-3.02484e-05
-5.73111e-07
1.92337e-05
-2.52015e-05
-5.46073e-07
2.2514e-05
-1.93274e-05
-5.51171e-07
2.51733e-05
-1.28852e-05
-7.15453e-07
2.63947e-05
-6.44151e-06
-1.09486e-06
2.58637e-05
-9.20482e-07
-1.57933e-06
2.43117e-05
2.70622e-06
-1.98517e-06
2.24808e-05
4.836e-06
-2.23251e-06
2.0821e-05
6.11798e-06
-2.33972e-06
1.94393e-05
7.05537e-06
-2.34577e-06
1.83152e-05
7.91827e-06
-2.27907e-06
1.73765e-05
8.84162e-06
-2.1577e-06
1.65321e-05
9.89957e-06
-1.99252e-06
1.56779e-05
1.11068e-05
-1.78854e-06
1.4702e-05
1.23762e-05
-1.5488e-06
1.35289e-05
1.35154e-05
-1.2824e-06
1.2125e-05
1.43581e-05
-1.00537e-06
1.04254e-05
1.49006e-05
-7.27174e-07
8.33683e-06
1.52588e-05
-4.50828e-07
5.87069e-06
1.56302e-05
-1.82834e-07
3.1562e-06
1.63452e-05
7.56978e-08
5.34392e-07
1.8226e-05
3.10775e-07
-8.9337e-07
2.35462e-05
4.25981e-07
-1.19151e-06
3.38816e-05
1.53361e-07
-1.53643e-06
4.25374e-05
-1.65168e-07
-1.32893e-06
4.24658e-05
-2.25792e-07
3.43283e-05
-2.22091e-07
3.99831e-06
-2.47132e-05
-8.21594e-07
9.39724e-06
-3.98064e-05
-1.4554e-06
1.43891e-05
-4.35284e-05
-1.37813e-06
1.86771e-05
-4.40273e-05
-1.16804e-06
2.21925e-05
-4.32123e-05
-1.01597e-06
2.473e-05
-4.1213e-05
-9.39792e-07
2.60083e-05
-3.78921e-05
-9.34218e-07
2.59476e-05
-3.33943e-05
-9.78464e-07
2.4856e-05
-2.81773e-05
-1.02074e-06
2.34727e-05
-2.28287e-05
-9.77195e-07
2.28238e-05
-1.78368e-05
-7.80213e-07
2.34467e-05
-1.29551e-05
-4.67451e-07
2.47095e-05
-7.39418e-06
-2.1847e-07
2.54882e-05
-1.34472e-06
-2.70519e-07
2.45485e-05
4.33201e-06
-6.29181e-07
2.24568e-05
8.04043e-06
-1.0881e-06
1.99805e-05
1.00779e-05
-1.48313e-06
1.75113e-05
1.12746e-05
-1.76569e-06
1.51533e-05
1.21891e-05
-1.94012e-06
1.29001e-05
1.30799e-05
-2.02201e-06
1.07337e-05
1.40419e-05
-2.0212e-06
8.67145e-06
1.50639e-05
-1.94509e-06
6.76139e-06
1.60484e-05
-1.81181e-06
4.99853e-06
1.68846e-05
-1.64965e-06
3.26964e-06
1.75335e-05
-1.48011e-06
1.42684e-06
1.80322e-05
-1.30878e-06
-6.35492e-07
1.8457e-05
-1.13198e-06
-2.94099e-06
1.89252e-05
-9.43052e-07
-5.39366e-06
1.96467e-05
-7.26597e-07
-7.5382e-06
2.11249e-05
-4.45474e-07
-7.86991e-06
2.47223e-05
-6.83544e-08
-5.29408e-06
3.22815e-05
2.53568e-07
-2.87445e-06
4.05321e-05
3.44696e-07
-1.25315e-06
4.08845e-05
3.91817e-07
3.31757e-05
2.13516e-07
7.51254e-06
-3.09582e-05
-1.16139e-06
1.4179e-05
-4.47017e-05
-1.54672e-06
1.9378e-05
-4.67948e-05
-1.71264e-06
2.38112e-05
-4.64608e-05
-1.7885e-06
2.74687e-05
-4.48096e-05
-1.84269e-06
2.98391e-05
-4.14349e-05
-1.91811e-06
3.04882e-05
-3.62841e-05
-2.03226e-06
2.94671e-05
-3.00093e-05
-2.18036e-06
2.69174e-05
-2.31639e-05
-2.35577e-06
2.25959e-05
-1.59457e-05
-2.54822e-06
1.64366e-05
-9.06615e-06
-2.6756e-06
1.00943e-05
-4.13962e-06
-2.57949e-06
5.67852e-06
-9.32603e-07
-2.17041e-06
3.41417e-06
2.40983e-06
-1.61063e-06
2.8955e-06
5.97483e-06
-1.23923e-06
3.10145e-06
8.88875e-06
-1.17124e-06
3.39585e-06
1.09322e-05
-1.26439e-06
3.5309e-06
1.24158e-05
-1.38632e-06
3.46791e-06
1.36407e-05
-1.49321e-06
3.2617e-06
1.47603e-05
-1.57554e-06
2.99835e-06
1.58323e-05
-1.62697e-06
2.74555e-06
1.68604e-05
-1.64347e-06
2.49917e-06
1.78223e-05
-1.62715e-06
2.17291e-06
1.86979e-05
-1.58549e-06
1.64859e-06
1.94894e-05
-1.52727e-06
8.2451e-07
2.02247e-05
-1.45846e-06
-3.67939e-07
2.09519e-05
-1.38033e-06
-1.95004e-06
2.17449e-05
-1.28894e-06
-3.86163e-06
2.27355e-05
-1.17288e-06
-5.80565e-06
2.42137e-05
-1.00558e-06
-6.73187e-06
2.69075e-05
-7.28553e-07
-5.02498e-06
3.22044e-05
-2.71035e-07
-2.02262e-06
3.90476e-05
2.55801e-07
-2.58853e-07
3.98408e-05
5.63582e-07
3.31377e-05
4.11896e-07
3.05432e-06
-3.30723e-05
-8.5987e-07
5.51167e-06
-4.60976e-05
-9.7039e-07
7.45199e-06
-4.77205e-05
-9.61126e-07
8.90074e-06
-4.68458e-05
-1.00525e-06
9.16593e-06
-4.38451e-05
-1.12699e-06
7.40199e-06
-3.81708e-05
-1.34909e-06
3.99393e-06
-3.10933e-05
-1.63009e-06
3.11585e-07
-2.43391e-05
-1.86632e-06
-2.42182e-06
-1.83647e-05
-1.98452e-06
-4.34169e-06
-1.19572e-05
-2.04269e-06
-6.85228e-06
-4.37707e-06
-2.21935e-06
-1.0867e-05
2.31102e-06
-2.48895e-06
-1.5206e-05
5.94745e-06
-2.56793e-06
-1.83307e-05
8.00624e-06
-2.48951e-06
-1.94298e-05
9.41191e-06
-2.35792e-06
-1.89224e-05
1.05965e-05
-2.24169e-06
-1.75704e-05
1.17033e-05
-2.15751e-06
-1.58997e-05
1.28008e-05
-2.09937e-06
-1.41763e-05
1.39223e-05
-2.05887e-06
-1.25296e-05
1.50783e-05
-2.02914e-06
-1.10241e-05
1.6257e-05
-2.00487e-06
-9.68895e-06
1.74222e-05
-1.98056e-06
-8.53383e-06
1.85274e-05
-1.95134e-06
-7.56351e-06
1.9545e-05
-1.91571e-06
-6.78936e-06
2.0484e-05
-1.87468e-06
-6.23236e-06
2.13835e-05
-1.83e-06
-5.92092e-06
2.23015e-05
-1.78259e-06
-5.88425e-06
2.33148e-05
-1.73102e-06
-6.13318e-06
2.45401e-05
-1.66929e-06
-6.5974e-06
2.6198e-05
-1.58088e-06
-6.90233e-06
2.87636e-05
-1.42271e-06
-5.99068e-06
3.30341e-05
-1.09993e-06
-3.37987e-06
3.82318e-05
-5.55067e-07
-1.32108e-06
3.88601e-05
-1.75582e-08
3.22807e-05
9.02894e-08
5.23929e-06
-3.71677e-05
-9.62461e-07
8.44692e-06
-4.80809e-05
-1.01952e-06
1.04988e-05
-4.84773e-05
-1.14261e-06
1.13873e-05
-4.63102e-05
-1.2642e-06
9.46257e-06
-4.02353e-05
-1.4756e-06
4.44949e-06
-3.1173e-05
-1.82328e-06
-2.40729e-06
-2.19924e-05
-2.21128e-06
-1.00307e-05
-1.42527e-05
-2.52073e-06
-1.67602e-05
-9.1127e-06
-2.58996e-06
-2.0516e-05
-5.86441e-06
-2.39721e-06
-2.06102e-05
-2.25971e-06
-2.10291e-06
-1.86301e-05
2.14265e-06
-1.93228e-06
-1.71368e-05
6.24169e-06
-1.9291e-06
-1.62119e-05
8.92415e-06
-1.96956e-06
-1.53857e-05
1.04624e-05
-1.97914e-06
-1.44332e-05
1.15219e-05
-1.96567e-06
-1.33271e-05
1.24605e-05
-1.94418e-06
-1.2096e-05
1.34111e-05
-1.91991e-06
-1.07821e-05
1.4424e-05
-1.89408e-06
-9.43609e-06
1.55193e-05
-1.86752e-06
-8.11566e-06
1.66943e-05
-1.84196e-06
-6.87917e-06
1.79166e-05
-1.81958e-06
-5.77217e-06
1.91281e-05
-1.80105e-06
-4.81543e-06
2.02747e-05
-1.78502e-06
-4.0084e-06
2.13407e-05
-1.76972e-06
-3.34388e-06
2.23568e-05
-1.75435e-06
-2.82165e-06
2.33874e-05
-1.73899e-06
-2.45803e-06
2.45259e-05
-1.72358e-06
-2.29357e-06
2.59137e-05
-1.70613e-06
-2.38932e-06
2.77937e-05
-1.67898e-06
-2.7344e-06
3.05861e-05
-1.61861e-06
-2.85799e-06
3.4684e-05
-1.46543e-06
-1.8117e-06
3.8773e-05
-1.14257e-06
-7.47841e-07
3.89711e-05
-6.98115e-07
3.21279e-05
-3.25087e-07
2.1569e-06
-3.94649e-05
3.46682e-07
1.66549e-06
-4.83147e-05
8.74027e-07
2.99609e-07
-4.76963e-05
7.7731e-07
-2.08129e-06
-4.41193e-05
4.67263e-07
-6.63627e-06
-3.5256e-05
-6.89239e-08
-1.17599e-05
-2.50394e-05
-7.4893e-07
-1.59876e-05
-1.63795e-05
-1.29937e-06
-1.97146e-05
-8.76221e-06
-1.85523e-06
-2.38874e-05
-2.72071e-06
-2.35958e-06
-2.80486e-05
7.46442e-07
-2.52926e-06
-3.05267e-05
2.63732e-06
-2.47183e-06
-3.07013e-05
4.59399e-06
-2.33255e-06
-2.91224e-05
6.79866e-06
-2.20644e-06
-2.69349e-05
8.80191e-06
-2.14211e-06
-2.47737e-05
1.03337e-05
-2.10706e-06
-2.27701e-05
1.15219e-05
-2.07588e-06
-2.08767e-05
1.25383e-05
-2.0427e-06
-1.9037e-05
1.35053e-05
-2.00559e-06
-1.72166e-05
1.4495e-05
-1.96372e-06
-1.54014e-05
1.55479e-05
-1.91735e-06
-1.35978e-05
1.6684e-05
-1.86816e-06
-1.18387e-05
1.79004e-05
-1.81914e-06
-1.01815e-05
1.91672e-05
-1.7739e-06
-8.6867e-06
2.04357e-05
-1.73474e-06
-7.39123e-06
2.16642e-05
-1.70107e-06
-6.29954e-06
2.28468e-05
-1.67051e-06
-5.39654e-06
2.40251e-05
-1.64098e-06
-4.66564e-06
2.52894e-05
-1.61127e-06
-4.10236e-06
2.67925e-05
-1.58006e-06
-3.72136e-06
2.8797e-05
-1.54343e-06
-3.51651e-06
3.17099e-05
-1.49051e-06
-3.2265e-06
3.57051e-05
-1.39883e-06
-2.25337e-06
3.9139e-05
-1.24036e-06
-1.14092e-06
3.89876e-05
-9.68093e-07
3.15997e-05
-4.93401e-07
-1.70224e-06
-3.82715e-05
6.33916e-07
-4.33138e-06
-4.66062e-05
9.25648e-07
-7.19275e-06
-4.56899e-05
9.03185e-07
-1.13072e-05
-4.05934e-05
6.93233e-07
-1.66563e-05
-2.99885e-05
1.34167e-07
-2.11638e-05
-2.02033e-05
-3.56536e-07
-2.36609e-05
-1.33448e-05
-5.73663e-07
-2.37393e-05
-8.04993e-06
-6.86884e-07
-2.22873e-05
-3.39397e-06
-8.80435e-07
-2.07664e-05
2.11615e-07
-1.10964e-06
-2.02488e-05
3.26322e-06
-1.26039e-06
-1.98959e-05
5.47952e-06
-1.35112e-06
-1.91732e-05
7.37566e-06
-1.41141e-06
-1.81117e-05
9.09035e-06
-1.45829e-06
-1.69633e-05
1.05823e-05
-1.49839e-06
-1.58511e-05
1.18466e-05
-1.53129e-06
-1.47966e-05
1.29505e-05
-1.55584e-06
-1.37815e-05
1.39755e-05
-1.57156e-06
-1.27795e-05
1.49865e-05
-1.57804e-06
-1.17685e-05
1.60285e-05
-1.57469e-06
-1.07355e-05
1.7131e-05
-1.56146e-06
-9.6831e-06
1.83097e-05
-1.5397e-06
-8.63736e-06
1.95627e-05
-1.51274e-06
-7.64482e-06
2.0868e-05
-1.48533e-06
-6.75324e-06
2.21888e-05
-1.46128e-06
-5.98773e-06
2.34948e-05
-1.44114e-06
-5.34257e-06
2.47902e-05
-1.42189e-06
-4.79236e-06
2.61397e-05
-1.39883e-06
-4.30522e-06
2.76878e-05
-1.36696e-06
-3.84219e-06
2.9693e-05
-1.3201e-06
-3.34796e-06
3.25501e-05
-1.24848e-06
-2.72471e-06
3.63877e-05
-1.14636e-06
-1.83329e-06
3.95051e-05
-1.03669e-06
-8.90418e-07
3.91689e-05
-8.91247e-07
3.13561e-05
-4.35196e-07
7.73814e-07
-4.04365e-05
1.57959e-06
-1.07693e-06
-4.72424e-05
2.59692e-06
-3.71253e-06
-4.53941e-05
2.47378e-06
-7.33155e-06
-3.88008e-05
2.01877e-06
-1.10299e-05
-2.74046e-05
1.27125e-06
-1.39221e-05
-1.76746e-05
4.23631e-07
-1.60338e-05
-1.1075e-05
-1.52074e-07
-1.72871e-05
-6.3689e-06
-4.20369e-07
-1.72483e-05
-2.87909e-06
-5.45317e-07
-1.64161e-05
1.69452e-09
-6.32786e-07
-1.49666e-05
2.50497e-06
-7.24626e-07
-1.34287e-05
4.70426e-06
-8.14124e-07
-1.18936e-05
6.66998e-06
-8.94283e-07
-1.03953e-05
8.48268e-06
-9.65583e-07
-9.01823e-06
1.01529e-05
-1.02903e-06
-7.83332e-06
1.16608e-05
-1.08393e-06
-6.84491e-06
1.30053e-05
-1.13001e-06
-6.01373e-06
1.4224e-05
-1.16823e-06
-5.29284e-06
1.53743e-05
-1.19947e-06
-4.64162e-06
1.65076e-05
-1.22386e-06
-4.02837e-06
1.76618e-05
-1.24062e-06
-3.43363e-06
1.88648e-05
-1.24885e-06
-2.85662e-06
2.01354e-05
-1.2484e-06
-2.32084e-06
2.14808e-05
-1.24104e-06
-1.86829e-06
2.28919e-05
-1.23072e-06
-1.5355e-06
2.4342e-05
-1.22183e-06
-1.32112e-06
2.57996e-05
-1.21564e-06
-1.17362e-06
2.72707e-05
-1.20771e-06
-1.01777e-06
2.8865e-05
-1.18927e-06
-7.88409e-07
3.08481e-05
-1.1497e-06
-4.57114e-07
3.36487e-05
-1.07422e-06
-1.08963e-07
3.74645e-05
-9.47675e-07
1.15388e-07
4.05734e-05
-8.00836e-07
2.02699e-07
4.02133e-05
-6.71936e-07
3.2263e-05
-3.08384e-07
-5.96496e-06
-3.70742e-05
2.45456e-06
-1.15647e-05
-4.53041e-05
3.42435e-06
-1.61259e-05
-4.4478e-05
3.34103e-06
-1.82744e-05
-3.99226e-05
2.94339e-06
-1.73292e-05
-3.09358e-05
2.3173e-06
-1.58682e-05
-2.09232e-05
1.64303e-06
-1.50377e-05
-1.31025e-05
1.11635e-06
-1.46502e-05
-7.51631e-06
6.95523e-07
-1.42487e-05
-3.70364e-06
3.71819e-07
-1.34367e-05
-9.78343e-07
1.2403e-07
-1.20676e-05
1.13212e-06
-3.96709e-08
-1.02501e-05
2.99235e-06
-1.52408e-07
-8.24364e-06
4.87683e-06
-2.65664e-07
-6.2521e-06
6.80982e-06
-3.77197e-07
-4.44769e-06
8.77207e-06
-4.86879e-07
-2.95862e-06
1.06985e-05
-5.91676e-07
-1.8214e-06
1.24908e-05
-6.86415e-07
-9.60481e-07
1.40686e-05
-7.67832e-07
-2.50665e-07
1.5438e-05
-8.36618e-07
4.04747e-07
1.66806e-05
-8.95249e-07
1.05651e-06
1.7882e-05
-9.45521e-07
1.72156e-06
1.91037e-05
-9.87421e-07
2.39193e-06
2.03884e-05
-1.01955e-06
3.03384e-06
2.17691e-05
-1.04057e-06
3.58098e-06
2.32739e-05
-1.05109e-06
3.93558e-06
2.49203e-05
-1.05527e-06
4.00002e-06
2.66982e-05
-1.06042e-06
3.74843e-06
2.85578e-05
-1.071e-06
3.27707e-06
3.04745e-05
-1.07989e-06
2.73148e-06
3.26335e-05
-1.06917e-06
2.19903e-06
3.54946e-05
-1.01423e-06
1.69501e-06
3.92819e-05
-8.8258e-07
1.19051e-06
4.22576e-05
-6.88193e-07
6.16044e-07
4.17707e-05
-5.02101e-07
3.34933e-05
-1.9969e-07
-7.53385e-06
-3.2691e-05
2.87098e-06
-1.25618e-05
-4.4509e-05
3.92462e-06
-1.53306e-05
-4.60607e-05
3.94074e-06
-1.45637e-05
-4.50776e-05
3.85399e-06
-9.06183e-06
-4.0749e-05
3.7374e-06
-1.56204e-06
-3.21374e-05
3.3467e-06
4.22787e-06
-2.17949e-05
2.7783e-06
7.08842e-06
-1.26079e-05
2.22935e-06
7.6199e-06
-5.99407e-06
1.77919e-06
7.18762e-06
-1.96769e-06
1.43193e-06
6.76682e-06
3.93735e-07
1.15897e-06
6.54162e-06
2.27596e-06
9.33118e-07
6.69921e-06
3.96744e-06
7.35423e-07
7.15934e-06
5.77304e-06
5.51355e-07
7.74306e-06
7.78443e-06
3.6881e-07
8.24236e-06
9.97959e-06
1.76121e-07
8.48619e-06
1.22218e-05
-2.05432e-08