/*--------------------------------*- C++ -*----------------------------------*\
| =========                 |                                                 |
| \\      /  F ield         | OpenFOAM: The Open Source CFD Toolbox           |
|  \\    /   O peration     | Version:  v2006                                 |
|   \\  /    A nd           | Website:  www.openfoam.com                      |
|    \\/     M anipulation  |                                                 |
\*---------------------------------------------------------------------------*/
FoamFile
{
    version     2.0;
    format      ascii;
    class       volScalarField;
    location    "90";
    object      T;
}
// * * * * * * * * * * * * * * * * * * * * * * * * * * * * * * * * * * * * * //

dimensions      [0 0 0 1 0 0 0];


internalField   nonuniform List<scalar> 
78750
(
251.502
247.382
242.597
232.871
218.186
215.699
209.214
209.305
209.869
212.374
214.735
216.785
218.091
218.975
219.796
220.737
221.583
221.999
221.886
221.385
220.681
219.851
218.86
217.73
216.454
214.936
212.969
210.58
207.87
204.845
201.281
196.593
190.594
189.292
277.811
304.411
317.206
338.836
373.174
394.127
391.087
377.962
360.929
348.166
342.711
343.417
348.647
354.065
355.955
354.534
351.872
349.44
347.624
346.216
344.94
343.651
342.328
340.95
339.457
337.893
336.329
334.742
332.96
331.059
329.352
328.373
328.727
331.492
341.494
384.513
292.775
321.211
351.53
355.134
355.354
355.187
353.37
349.695
345.444
341.955
339.643
338.355
337.642
337.024
336.215
335.114
333.676
331.84
329.576
326.878
323.776
320.367
316.827
313.356
310.122
307.236
304.729
302.625
300.981
300.376
302.718
309.065
321.755
354.25
431.315
246.462
243.695
281.859
295.535
307.79
316.801
323.779
328.9
332.312
334.362
335.419
335.767
335.581
334.944
333.884
332.405
330.512
328.217
325.548
322.576
319.406
316.13
312.845
309.646
306.676
304.197
302.681
302.532
303.621
305.097
306.284
305.302
305.812
313.417
397.744
275.734
273.161
276.121
280.201
282.815
285.229
287.619
289.795
291.604
292.997
293.978
294.575
294.83
294.791
294.503
294.008
293.354
292.592
291.795
291.053
290.453
290.009
289.699
289.654
290.193
291.474
293.629
298.053
305.21
310.763
309.794
303.187
298.103
314.42
400.693
301.817
317.413
329.195
336.138
340.734
343.764
345.582
346.531
346.916
346.967
346.844
346.648
346.441
346.255
346.114
346.027
346.001
346.039
346.154
346.364
346.703
347.237
348.097
349.4
350.977
353.468
360.138
369.562
377.963
377.82
361.203
341.764
328.292
341.31
416.193
313.192
324.245
325.622
324.948
323.964
323.125
322.571
322.322
322.354
322.636
323.128
323.789
324.568
325.414
326.273
327.092
327.822
328.412
328.811
328.989
328.951
328.767
328.609
328.901
330.332
333.304
337.58
342.486
345.684
344.559
341.109
337.975
338.332
353.638
420.573
305.814
310.525
314.316
317.694
320.641
323.227
325.516
327.54
329.317
330.86
332.178
333.29
334.228
335.038
335.783
336.54
337.388
338.381
339.503
340.628
341.531
341.957
341.731
340.851
339.624
338.721
338.67
339.296
339.739
339.526
339.067
338.881
341.696
361.268
426.01
305.603
317.431
325.225
329.73
332.537
334.58
336.23
337.614
338.748
339.605
340.169
340.448
340.455
340.209
339.73
339.052
338.221
337.282
336.253
335.127
333.932
332.821
331.974
331.461
331.248
331.293
331.672
332.525
333.797
335.263
336.679
337.739
339.808
359.032
423.277
312.966
327.135
331.347
333.287
334.76
336.15
337.604
339.145
340.685
342.132
343.437
344.569
345.509
346.234
346.706
346.875
346.698
346.147
345.165
343.595
341.311
338.852
336.903
335.26
333.769
332.576
331.815
331.585
331.931
333.246
337.52
348.404
363.456
383.401
430.738
313.19
323.016
326.687
328.715
330.286
331.723
333.093
334.26
335.051
335.556
336.086
336.88
337.988
339.327
340.736
341.996
342.907
343.378
343.426
343.083
342.344
341.23
339.856
338.359
336.764
334.997
333.063
331.178
329.583
328.543
329.355
339.065
365.757
394.126
439.32
311.51
324.719
330.335
333.377
335.698
337.84
339.907
341.714
342.855
343.003
342.236
341.072
340.079
339.56
339.576
340.044
340.781
341.545
342.126
342.409
342.354
341.916
340.934
339.01
335.792
332.214
329.766
328.351
327.659
328.367
331.95
342.192
368.607
394.934
433.609
313.672
324.93
329.14
331.38
333.088
334.695
336.426
338.472
340.901
343.504
345.761
347.079
347.215
346.47
345.356
344.228
343.231
342.403
341.739
341.209
340.756
340.277
339.636
338.704
337.365
335.614
333.829
332.688
332.523
334.129
340.487
353.3
376.18
398.543
433.405
310.086
320.986
326.623
329.794
332.039
333.884
335.409
336.519
337.14
337.449
337.853
338.679
339.926
341.359
342.658
343.588
344.131
344.372
344.391
344.231
343.89
343.298
342.339
340.971
339.359
337.742
336.354
335.527
335.733
338.32
347.172
365.114
388.095
408.597
442.324
311.048
324.606
331.521
335.237
337.876
340.244
342.548
344.717
346.476
347.459
347.507
346.877
345.833
344.376
342.755
341.498
340.775
340.454
340.357
340.352
340.322
340.136
339.669
338.911
337.972
336.994
336.131
335.614
335.847
338.037
346.039
365.949
395.045
416.84
448.968
310.183
322.554
328.479
331.758
334.2
336.418
338.398
339.878
340.751
341.206
341.763
343.067
345.153
347.105
347.832
347.36
346.425
345.506
344.691
343.935
343.188
342.405
341.555
340.633
339.666
338.696
337.788
337.054
336.73
337.425
341.219
354.009
381.649
406.84
443.024
315.192
331.397
337.684
341.213
344.442
347.861
350.837
352.715
353.238
352.148
349.258
345.998
344.416
344.003
343.999
344.015
343.939
343.769
343.517
343.189
342.784
342.303
341.758
341.166
340.551
339.944
339.39
338.974
338.877
339.562
342.467
351.873
374.327
398.927
436.892
313.344
326.969
332.575
336.084
339.564
342.532
344.074
344.892
346.142
347.911
349.265
349.284
348.36
347.299
346.492
345.914
345.448
345.022
344.602
344.171
343.72
343.248
342.768
342.304
341.887
341.551
341.344
341.351
341.748
342.977
346.285
355.045
374.153
396.988
435.222
319.581
336.161
342.268
346.901
352.383
355.795
356.129
353.841
350.412
348.242
347.382
347.062
346.831
346.515
346.192
345.896
345.609
345.312
344.999
344.671
344.33
343.989
343.666
343.392
343.206
343.149
343.282
343.708
344.647
346.623
350.961
360.546
378.234
399.812
437.889
318.128
331.823
337.902
342.817
347.768
350.167
351.624
352.829
353.086
352.31
351.31
350.377
349.486
348.642
347.901
347.288
346.772
346.314
345.885
345.471
345.069
344.685
344.343
344.081
343.959
344.054
344.459
345.308
346.856
349.693
355.188
365.843
383.025
403.964
441.752
321.661
336.514
343.604
349.514
354.083
354.142
352.198
350.775
350.355
350.411
350.445
350.302
350.011
349.623
349.178
348.715
348.256
347.805
347.356
346.902
346.436
345.959
345.474
345.002
344.588
344.319
344.335
344.833
346.112
348.762
354.181
365.012
382.512
403.556
441.443
322.354
335.255
341.791
348.272
354.185
356.59
356.528
355.517
354.368
353.481
352.813
352.249
351.723
351.198
350.661
350.125
349.617
349.154
348.73
348.328
347.935
347.535
347.114
346.654
346.139
345.573
345.029
344.722
345.076
346.826
351.51
362.054
379.814
401.08
439.209
319.088
332.271
336.871
340.501
345.433
349.899
352.042
352.604
352.6
352.504
352.406
352.286
352.127
351.901
351.569
351.101
350.511
349.893
349.353
348.924
348.589
348.327
348.123
347.956
347.792
347.576
347.235
346.763
346.49
347.407
351.422
361.533
378.672
399.839
438.483
316.888
329.397
334.182
337.354
340.987
346.255
351.611
354.847
355.614
355.058
354.301
353.71
353.283
352.961
352.68
352.348
351.847
351.102
350.198
349.342
348.662
348.179
347.896
347.827
347.988
348.384
349.002
349.758
350.581
352.045
356.057
365.392
380.658
401.165
440.886
313.912
326.626
331.999
334.974
337.218
339.587
343.39
348.354
352.323
354.13
354.238
353.806
353.427
353.182
353.044
352.976
352.902
352.671
352.114
351.182
350.03
348.886
347.901
347.191
346.875
347.081
347.961
349.689
352.294
355.673
360.662
369.492
383.112
402.827
443.439
314.68
328.657
334.672
338.22
341.104
343.569
345.615
348.001
351.373
354.577
356.068
355.812
354.999
354.327
353.87
353.587
353.465
353.48
353.52
353.378
352.854
351.87
350.515
349.002
347.604
346.628
346.416
347.394
350.083
354.759
361.476
371.281
384.937
404.482
445.047
313.669
326.686
332.469
335.911
338.816
341.729
344.62
347.146
349.514
352.41
355.247
356.378
355.842
354.931
354.258
353.85
353.65
353.647
353.847
354.2
354.534
354.602
354.155
353.037
351.294
349.254
347.458
346.604
347.66
351.85
359.9
371.86
386.792
406.694
446.744
314.064
328.613
335.183
338.935
341.926
344.841
347.936
350.889
353.018
354.461
356.088
357.606
357.493
356.332
355.315
354.665
354.256
354.032
354.018
354.275
354.831
355.584
356.289
356.592
356.082
354.49
352.056
349.681
348.903
351.922
360.501
374.086
389.724
410.168
450.871
314.392
329.184
335.667
339.498
342.702
345.801
348.873
351.822
354.367
356.155
357.317
358.29
358.389
357.235
355.962
355.126
354.607
354.289
354.169
354.286
354.733
355.602
356.877
358.368
359.663
360.132
359.244
357.295
355.96
358.044
365.956
379.156
394.403
415.479
457.435
316.282
331.938
338.254
342.021
345.447
349.114
352.797
355.756
357.745
359.008
359.713
359.932
359.547
358.103
356.612
355.745
355.159
354.714
354.451
354.41
354.641
355.296
356.552
358.512
361.092
363.919
366.328
367.797
368.859
371.527
378.102
388.913
402.515
423.08
463.535
316.795
331.864
337.947
341.753
345.395
349.364
353.351
356.593
358.733
359.979
360.611
360.67
360.032
358.604
357.127
356.298
355.734
355.26
354.896
354.685
354.669
354.952
355.728
357.242
359.734
363.339
367.949
373.182
378.69
384.651
391.723
400.455
411.513
429.416
466.022
318.808
334.674
340.579
344.346
348.208
352.54
356.672
359.747
361.581
362.448
362.62
362.157
360.996
359.303
357.845
357.067
356.525
356.04
355.608
355.256
355.007
354.922
355.118
355.775
357.155
359.593
363.456
369.022
376.37
385.306
395.177
404.864
414.823
430.292
464.64
318.045
332.944
338.698
342.464
346.403
350.887
355.229
358.592
360.816
362.119
362.67
362.487
361.546
360.057
358.715
357.946
357.431
356.979
356.545
356.137
355.769
355.47
355.289
355.307
355.663
356.574
358.376
361.543
366.666
374.341
384.795
396.996
408.845
424.943
460.228
319.078
334.732
340.523
344.306
348.359
353.07
357.624
361.023
363.062
364.068
364.298
363.768
362.491
360.859
359.58
358.849
358.355
357.929
357.516
357.114
356.732
356.382
356.076
355.843
355.731
355.832
356.309
357.457
359.794
364.203
372.029
384.347
399.058
417.675
454.726
317.88
332.721
338.448
342.167
346.072
350.628
355.22
358.993
361.642
363.297
364.154
364.225
363.403
361.933
360.592
359.776
359.256
358.84
358.452
358.077
357.719
357.385
357.079
356.81
356.589
356.444
356.433
356.693
357.534
359.67
364.717
375.372
391.608
412.023
450.033
318.304
333.855
339.788
343.654
347.808
352.715
357.466
361.074
363.395
364.737
365.372
365.332
364.469
362.913
361.473
360.621
360.094
359.681
359.303
358.946
358.612
358.308
358.038
357.811
357.633
357.514
357.478
357.587
358.032
359.394
363.281
372.897
389.224
410.096
448.259
317.618
332.509
338.367
342.175
346.204
351.023
355.923
359.848
362.53
364.226
365.234
365.667
365.371
364.191
362.679
361.623
360.998
360.551
360.162
359.805
359.481
359.192
358.948
358.761
358.649
358.635
358.755
359.07
359.728
361.255
365.302
374.966
390.704
411.326
449.631
317.687
332.991
339.042
343
347.245
352.375
357.57
361.594
364.135
365.577
366.342
366.619
366.338
365.296
363.756
362.576
361.895
361.426
361.02
360.65
360.321
360.035
359.801
359.642
359.594
359.715
360.101
360.902
362.312
364.78
369.825
379.988
394.65
414.606
453.375
317.436
332.366
338.278
342.057
345.938
350.634
355.821
360.301
363.377
365.227
366.289
366.851
366.953
366.395
365.108
363.762
362.89
362.344
361.921
361.541
361.195
360.887
360.632
360.462
360.427
360.624
361.23
362.553
364.984
368.939
375.416
386.002
399.443
418.447
457.451
317.223
332.429
338.55
342.4
346.21
350.701
355.806
360.565
364.014
366.056
367.137
367.655
367.763
367.376
366.323
364.937
363.901
363.268
362.819
362.433
362.075
361.747
361.463
361.255
361.179
361.346
361.981
363.525
366.664
372.074
380.215
391.293
403.78
421.727
460.163
316.932
332.232
338.413
342.139
345.53
349.263
353.628
358.284
362.32
365.111
366.764
367.671
368.107
368.113
367.52
366.308
365.084
364.27
363.744
363.339
362.979
362.648
362.351
362.11
361.968
362.017
362.453
363.716
366.651
372.426
381.727
393.701
405.971
423.19
460.74
316.914
332.822
339.406
343.375
346.936
350.653
354.558
358.533
362.267
365.164
367.007
368.04
368.569
368.733
368.462
367.576
366.308
365.284
364.638
364.195
363.836
363.52
363.24
363.006
362.845
362.815
363.049
363.873
366.039
370.964
380.139
392.921
405.707
422.868
459.88
316.952
333.226
339.944
343.976
347.595
351.292
354.89
358.275
361.559
364.474
366.602
367.923
368.673
369.049
369.088
368.644
367.61
366.424
365.575
365.033
364.645
364.331
364.07
363.864
363.729
363.702
363.866
364.433
365.958
369.76
377.905
390.813
404.307
421.894
458.841
317.573
334.502
341.496
345.82
349.94
354.197
357.902
360.776
363.184
365.363
367.119
368.305
369.017
369.408
369.549
369.375
368.704
367.586
366.552
365.87
365.422
365.095
364.845
364.669
364.582
364.62
364.853
365.44
366.799
370.044
377.351
389.917
403.654
421.566
458.736
317.948
335.115
342.145
346.669
351.277
355.908
359.545
362.162
364.232
366.052
367.566
368.645
369.325
369.722
369.915
369.889
369.523
368.685
367.607
366.761
366.219
365.86
365.613
365.466
365.438
365.577
365.973
366.799
368.43
371.823
378.985
391.192
404.556
422.373
459.905
318.99
336.799
344.114
349.21
354.886
359.973
363.201
365.098
366.43
367.585
368.589
369.346
369.847
370.153
370.314
370.327
370.119
369.557
368.629
367.683
367.029
366.625
366.381
366.272
366.324
366.609
367.265
368.532
370.811
374.916
382.481
394.32
406.906
424.276
462.029
319.87
337.807
345.377
351.146
357.946
362.9
365.415
366.769
367.763
368.644
369.4
369.968
370.35
370.589
370.719
370.742
370.618
370.252
369.561
368.663
367.899
367.419
367.162
367.087
367.226
367.678
368.649
370.481
373.646
378.8
387.005
398.376
410.133
426.96
464.339
321.616
339.733
347.8
354.531
362.48
367.051
368.62
369.166
369.543
369.95
370.352
370.683
370.92
371.074
371.159
371.17
371.082
370.835
370.352
369.626
368.847
368.275
367.975
367.918
368.128
368.726
369.973
372.314
376.322
382.547
391.424
402.342
413.412
429.673
465.974
322.677
340.192
348.207
355.276
363.611
368.377
369.941
370.418
370.665
370.899
371.132
371.33
371.478
371.575
371.625
371.625
371.556
371.385
371.057
370.531
369.86
369.242
368.864
368.781
369.018
369.691
371.07
373.649
378.1
384.999
394.378
405.048
415.643
431.306
466.424
322.971
340.005
347.114
353.26
361.265
367.737
370.684
371.596
371.814
371.88
371.942
372.011
372.07
372.11
372.125
372.107
372.044
371.916
371.69
371.329
370.828
370.269
369.836
369.686
369.897
370.57
371.937
374.459
378.835
385.748
395.208
405.783
416.115
431.282
465.803
321.331
337.382
343.345
347.7
353.615
361.574
368.008
371.262
372.398
372.687
372.732
372.727
372.716
372.7
372.674
372.631
372.56
372.448
372.277
372.022
371.666
371.229
370.815
370.597
370.733
371.35
372.634
374.961
378.963
385.387
394.459
404.91
415.167
430.085
464.654
319.472
335.1
341.292
344.922
348.47
354.06
361.95
368.54
371.942
373.141
373.435
373.452
373.4
373.335
373.267
373.191
373.1
372.984
372.83
372.625
372.357
372.026
371.678
371.434
371.475
371.984
373.149
375.267
378.864
384.657
393.085
403.281
413.589
428.524
463.426
318.05
333.779
340.673
344.758
348.048
351.425
356.831
364.318
370.157
372.972
373.913
374.116
374.092
374.005
373.903
373.794
373.674
373.537
373.375
373.18
372.945
372.671
372.378
372.14
372.107
372.484
373.495
375.416
378.685
383.946
391.744
401.601
412.015
427.156
462.392
317.687
333.526
340.573
344.974
348.783
352.387
356.167
361.763
368.256
372.437
374.17
374.664
374.721
374.648
374.535
374.407
374.265
374.106
373.924
373.717
373.483
373.224
372.956
372.727
372.647
372.905
373.749
375.476
378.49
383.374
390.695
400.244
410.766
426.185
461.678
317.566
333.346
340.362
344.745
348.645
352.582
356.653
361.147
366.939
371.93
374.399
375.204
375.346
375.287
375.17
375.03
374.871
374.69
374.485
374.254
374.001
373.734
373.468
373.24
373.133
373.309
374.009
375.55
378.348
382.966
389.974
399.313
409.931
425.624
461.33
317.773
334.452
341.862
346.307
349.983
353.477
357.082
361.039
365.765
371.025
374.389
375.663
375.95
375.921
375.806
375.66
375.49
375.291
375.062
374.802
374.521
374.231
373.953
373.72
373.604
373.742
374.357
375.772
378.415
382.853
389.661
398.848
409.492
425.375
461.281
318.388
336.215
343.993
348.589
352.264
355.49
358.5
361.579
365.105
369.603
373.795
375.891
376.5
376.55
376.447
376.299
376.123
375.913
375.663
375.374
375.057
374.732
374.427
374.181
374.06
374.186
374.771
376.135
378.715
383.08
389.79
398.859
409.44
425.375
461.421
319.284
337.607
345.395
350.023
353.786
357.115
360.105
362.851
365.561
368.693
372.643
375.644
376.866
377.122
377.067
376.932
376.76
376.549
376.29
375.979
375.626
375.26
374.919
374.648
374.512
374.627
375.193
376.533
379.099
383.458
390.139
399.114
409.581
425.477
461.612
320.346
338.662
346.306
350.907
354.742
358.23
361.446
364.398
367.064
369.525
372.276
375.28
377.05
377.603
377.637
377.527
377.37
377.172
376.919
376.602
376.226
375.825
375.448
375.152
375.003
375.107
375.654
376.965
379.515
383.884
390.565
399.463
409.816
425.672
461.918
321.507
339.726
347.157
351.669
355.496
359.037
362.373
365.529
368.48
371.105
373.348
375.594
377.355
378.072
378.174
378.084
377.941
377.761
377.528
377.224
376.846
376.425
376.027
375.726
375.592
375.724
376.298
377.624
380.179
384.565
391.246
400.044
410.26
426.086
462.474
322.41
340.461
347.7
352.153
356.007
359.631
363.076
366.338
369.425
372.288
374.727
376.599
377.996
378.631
378.719
378.623
378.484
378.317
378.105
377.827
377.47
377.056
376.658
376.375
376.295
376.521
377.223
378.691
381.376
385.853
392.535
401.17
411.184
426.922
463.327
322.67
340.584
347.76
352.23
356.171
359.931
363.531
366.911
370.044
372.953
375.562
377.575
378.806
379.281
379.293
379.166
379.019
378.858
378.665
378.418
378.102
377.724
377.35
377.097
377.085
377.433
378.323
380.039
382.979
387.624
394.286
402.68
412.441
428.014
464.199
322.717
340.653
347.863
352.4
356.45
360.346
364.083
367.552
370.683
373.501
376.05
378.187
379.531
379.964
379.896
379.723
379.557
379.395
379.216
379.001
378.736
378.423
378.106
377.897
377.937
378.369
379.395
381.321
384.516
389.327
395.919
404.021
413.533
428.951
464.854
322.911
340.894
348.076
352.627
356.742
360.746
364.606
368.17
371.324
374.074
376.491
378.578
380.074
380.637
380.535
380.307
380.111
379.94
379.768
379.579
379.364
379.131
378.915
378.802
378.921
379.407
380.459
382.409
385.67
390.551
397.071
404.939
414.281
429.662
465.493
323.256
341.176
348.238
352.742
356.88
360.971
364.955
368.626
371.842
374.591
376.937
378.93
380.482
381.262
381.218
380.933
380.693
380.501
380.325
380.149
379.97
379.806
379.701
379.747
380.061
380.741
381.904
383.822
386.955
391.73
398.187
405.964
415.273
430.765
466.583
323.325
341.075
347.998
352.438
356.589
360.779
364.905
368.694
371.977
374.766
377.133
379.132
380.737
381.756
381.937
381.642
381.342
381.111
380.915
380.733
380.562
380.426
380.382
380.543
381.074
382.119
383.74
386.022
389.256
393.897
400.16
407.791
417.05
432.519
467.69
323.091
340.694
347.537
351.935
356.111
360.426
364.717
368.605
371.895
374.646
376.996
379.029
380.739
382.004
382.568
382.422
382.083
381.8
381.571
381.366
381.176
381.019
380.943
381.058
381.555
382.684
384.646
387.509
391.296
396.126
402.154
409.369
418.23
433.147
467.342
322.681
340.196
347.031
351.432
355.69
360.216
364.759
368.779
372.033
374.636
376.817
378.745
380.474
381.936
382.916
383.156
382.9
382.581
382.317
382.09
381.878
381.682
381.531
381.495
381.716
382.441
384.002
386.701
390.676
395.848
401.983
408.923
417.201
431.176
465.118
322.317
339.767
346.652
351.119
355.546
360.407
365.322
369.542
372.768
375.174
377.071
378.707
380.225
381.647
382.866
383.597
383.651
383.387
383.11
382.873
382.657
382.444
382.24
382.074
382.018
382.219
382.942
384.579
387.563
392.153
398.224
405.375
413.646
427.31
462.085
322.085
339.469
346.42
351.011
355.726
361.09
366.502
370.974
374.191
376.416
378.034
379.339
380.517
381.66
382.77
383.711
384.169
384.101
383.867
383.645
383.448
383.254
383.049
382.834
382.635
382.517
382.622
383.231
384.834
388.092
393.55
401.124
410.14
424.602
460.632
322.011
339.342
346.333
351.064
356.139
362.091
368.004
372.675
375.853
377.921
379.328
380.385
381.283
382.132
382.982
383.815
384.463
384.65
384.512
384.327
384.169
384.02
383.856
383.654
383.417
383.18
383.034
383.183
384.081
386.589
391.77
399.807
409.498
424.861
461.878
322.063
339.377
346.377
351.237
356.678
363.189
369.504
374.289
377.402
379.347
380.615
381.522
382.245
382.89
383.516
384.146
384.732
385.079
385.057
384.917
384.81
384.733
384.652
384.521
384.311
384.065
383.913
384.103
385.149
387.97
393.563
401.811
411.632
427.473
464.871
322.141
339.462
346.457
351.402
357.099
363.961
370.508
375.372
378.477
380.383
381.604
382.452
383.098
383.637
384.126
384.6
385.06
385.424
385.522
385.423
385.367
385.391
385.468
385.543
385.551
385.54
385.722
386.44
388.245
391.907
397.953
405.922
415.501
431.479
468.021
322.16
339.557
346.605
351.637
357.498
364.489
371.09
376.01
379.163
381.094
382.323
383.164
383.786
384.28
384.698
385.074
385.427
385.739
385.915
385.882
385.842
385.948
386.193
386.552
386.948
387.379
388.09
389.479
392.043
396.301
402.38
409.823
418.981
434.667
469.771
322.243
339.867
347.097
352.327
358.428
365.394
371.768
376.552
379.675
381.612
382.851
383.698
384.318
384.799
385.187
385.513
385.797
386.048
386.236
386.287
386.25
386.361
386.707
387.299
388.11
389.071
390.299
392.158
395.09
399.454
405.27
412.265
421.099
436.457
470.485
322.708
340.69
348.25
353.915
360.586
367.519
373.323
377.583
380.408
382.201
383.371
384.184
384.786
385.252
385.624
385.926
386.174
386.381
386.547
386.638
386.633
386.676
386.989
387.643
388.685
390.11
391.884
394.16
397.256
401.468
406.896
413.519
422.131
437.259
470.608
323.78
342.013
349.983
356.356
363.993
370.907
375.882
379.272
381.515
382.985
383.983
384.701
385.248
385.681
386.03
386.313
386.541
386.724
386.869
386.969
387.001
387.002
387.174
387.709
388.693
390.218
392.307
394.952
398.252
402.392
407.534
413.856
422.256
437.185
470.29
325.205
343.365
351.789
359.094
367.891
374.74
378.837
381.297
382.878
383.952
384.722
385.305
385.767
386.143
386.454
386.709
386.916
387.082
387.21
387.304
387.354
387.361
387.42
387.757
388.546
389.901
391.95
394.733
398.239
402.504
407.633
413.859
422.143
436.954
470.037
326.249
344.125
352.909
361.069
370.829
377.71
381.231
383.058
384.164
384.926
385.498
385.952
386.325
386.637
386.901
387.123
387.306
387.453
387.569
387.656
387.712
387.733
387.752
387.917
388.465
389.564
391.372
394.05
397.65
402.139
407.498
413.84
422.071
436.696
469.768
326.334
344.004
352.776
361.143
371.454
378.919
382.573
384.272
385.197
385.801
386.248
386.605
386.903
387.155
387.372
387.557
387.713
387.841
387.944
388.024
388.081
388.114
388.131
388.206
388.536
389.361
390.866
393.277
396.796
401.457
407.13
413.706
421.905
436.235
469.316
325.681
343.293
351.677
359.463
369.723
378.28
382.854
384.924
385.938
386.526
386.926
387.228
387.472
387.678
387.854
388.005
388.134
388.242
388.331
388.402
388.457
388.494
388.52
388.564
388.748
389.311
390.495
392.534
395.742
400.34
406.234
413.102
421.359
435.483
468.761
325.096
342.753
350.887
358.09
367.735
376.866
382.507
385.207
386.468
387.131
387.537
387.818
388.03
388.202
388.345
388.467
388.572
388.662
388.738
388.8
388.852
388.892
388.927
388.976
389.109
389.512
390.46
392.203
395.052
399.379
405.288
412.395
420.796
434.897
468.433
325.164
342.89
351.195
358.478
367.777
376.465
382.366
385.463
386.935
387.678
388.103
388.377
388.572
388.719
388.838
388.937
389.02
389.092
389.153
389.205
389.25
389.289
389.328
389.382
389.504
389.834
390.644
392.246
394.926
399.043
404.843
412.044
420.557
434.681
468.309
325.656
343.295
351.961
359.868
369.587
377.667
383.008
385.996
387.491
388.25
388.673
388.936
389.113
389.244
389.345
389.426
389.491
389.545
389.591
389.63
389.665
389.698
389.733
389.786
389.894
390.168
390.849
392.308
394.903
398.942
404.647
411.828
420.358
434.439
468.032
325.996
343.396
352.452
361.171
371.615
379.451
384.148
386.765
388.141
388.861
389.263
389.508
389.669
389.784
389.87
389.935
389.985
390.023
390.054
390.079
390.101
390.122
390.147
390.186
390.27
390.477
391
392.209
394.571
398.466
404.085
411.245
419.772
433.8
467.467
326.15
343.3
352.795
362.424
373.513
381.193
385.412
387.654
388.859
389.514
389.885
390.109
390.252
390.35
390.42
390.47
390.505
390.529
390.547
390.56
390.57
390.579
390.591
390.615
390.673
390.82
391.198
392.123
394.108
397.695
403.191
410.423
419.069
433.208
467.1
326.255
343.171
353.086
363.681
375.398
382.927
386.754
388.667
389.681
390.246
390.57
390.761
390.879
390.954
391.002
391.033
391.052
391.063
391.067
391.069
391.069
391.07
391.076
391.093
391.141
391.263
391.57
392.327
394.029
397.334
402.718
410.045
418.848
433.2
467.339
326.022
342.778
352.94
364.225
376.618
384.281
387.955
389.681
390.561
391.045
391.318
391.473
391.558
391.604
391.626
391.634
391.633
391.627
391.618
391.61
391.605
391.607
391.621
391.658
391.739
391.91
392.284
393.103
394.832
398.123
403.499
410.824
419.643
434.102
468.237
325.475
342.24
352.509
364.029
376.929
385.009
388.835
390.567
391.41
391.852
392.091
392.212
392.265
392.278
392.269
392.249
392.225
392.199
392.176
392.159
392.153
392.162
392.197
392.272
392.416
392.691
393.222
394.255
396.218
399.682
405.075
412.241
420.927
435.357
469.266
325.229
342.192
352.685
364.418
377.378
385.594
389.528
391.313
392.178
392.628
392.864
392.975
393.007
392.994
392.955
392.905
392.853
392.804
392.765
392.743
392.744
392.78
392.865
393.024
393.3
393.768
394.565
395.93
398.228
401.904
407.249
414.13
422.595
436.895
470.277
325.644
342.896
353.814
366.149
378.967
386.698
390.323
391.964
392.779
393.223
393.469
393.592
393.632
393.618
393.572
393.511
393.446
393.385
393.337
393.311
393.32
393.382
393.519
393.767
394.182
394.851
395.912
397.579
400.147
403.941
409.157
415.736
423.95
438.008
470.823
326.288
343.819
355.025
368.027
381.285
388.522
391.639
392.979
393.625
393.973
394.162
394.249
394.263
394.227
394.162
394.085
394.006
393.936
393.885
393.863
393.886
393.977
394.166
394.497
395.031
395.861
397.118
398.985
401.697
405.502
410.559
416.891
424.909
438.765
471.143
326.2
343.989
354.704
366.991
381.361
389.235
392.392
393.695
394.314
394.641
394.814
394.889
394.891
394.841
394.76
394.665
394.57
394.488
394.428
394.406
394.439
394.552
394.783
395.178
395.806
396.756
398.147
400.136
402.915
406.687
411.606
417.756
425.61
439.25
471.262
325.863
343.922
353.537
363.801
378.673
388.803
392.874
394.362
394.986
395.289
395.438
395.493
395.48
395.418
395.325
395.218
395.112
395.018
394.949
394.919
394.947
395.061
395.298
395.708
396.359
397.338
398.756
400.754
403.504
407.194
411.991
418.016
425.745
439.206
471.091
325.951
344.335
353.12
361.32
373.885
386.075
392.296
394.636
395.518
395.893
396.058
396.11
396.086
396.011
395.902
395.78
395.66
395.555
395.476
395.44
395.464
395.576
395.813
396.223
396.872
397.844
399.244
401.208
403.9
407.511
412.221
418.178
425.851
439.235
471.067
327.478
346.04
355.395
363.595
373.075
383.785
391.291
394.579
395.822
396.329
396.552
396.636
396.631
396.565
396.459
396.333
396.206
396.091
396.003
395.957
395.972
396.075
396.301
396.699
397.329
398.272
399.632
401.54
404.161
407.693
412.33
418.229
425.838
439.113
470.905
330.801
349.287
360.197
370.489
378.418
385.535
391.937
395.134
396.344
396.828
397.045
397.135
397.141
397.084
396.984
396.861
396.733
396.616
396.523
396.471
396.477
396.569
396.778
397.151
397.746
398.641
399.936
401.764
404.297
407.74
412.302
418.151
425.723
438.955
470.8
335.65
354.34
367.347
381.118
386.981
390.477
394.24
396.248
397.021
397.361
397.531
397.607
397.612
397.563
397.472
397.359
397.238
397.128
397.041
396.994
397.005
397.099
397.308
397.675
398.255
399.124
400.381
402.159
404.631
408.012
412.519
418.325
425.867
439.07
470.882
338.269
359.203
375.101
391.896
394.829
395.63
396.826
397.508
397.835
398.007
398.094
398.119
398.095
398.031
397.938
397.829
397.717
397.617
397.54
397.503
397.523
397.624
397.836
398.201
398.771
399.62
400.845
402.578
404.995
408.313
412.757
418.507
425.997
439.133
470.899
334.662
357.048
374.109
392.163
396.675
397.771
398.277
398.528
398.654
398.709
398.715
398.682
398.617
398.526
398.419
398.305
398.196
398.102
398.035
398.008
398.039
398.149
398.367
398.733
399.297
400.129
401.326
403.02
405.388
408.65
413.034
418.728
426.17
439.253
470.998
328.648
346.469
358.326
374.158
387.598
394.943
398.206
399.258
399.479
399.475
399.41
399.317
399.206
399.081
398.95
398.821
398.702
398.604
398.537
398.515
398.552
398.671
398.897
399.268
399.832
400.658
401.839
403.506
405.834
409.046
413.373
419.003
426.373
439.357
471.05
323.344
341.041
348.079
353.715
364.387
376.784
387.727
395.4
398.977
400.026
400.168
400.058
399.889
399.711
399.538
399.377
399.236
399.121
399.042
399.012
399.044
399.16
399.383
399.75
400.307
401.121
402.281
403.917
406.202
409.358
413.617
419.171
426.452
439.312
470.978
326.291
347.387
356.912
362.202
364.546
366.997
372.692
382.215
391.867
397.661
399.896
400.512
400.556
400.403
400.194
399.988
399.805
399.658
399.555
399.508
399.528
399.634
399.85
400.21
400.757
401.557
402.696
404.302
406.545
409.644
413.83
419.304
426.512
439.296
470.951
334.324
356.489
369.581
380.444
385.644
384.33
380.738
380.954
387.62
394.83
398.889
400.319
400.739
400.814
400.725
400.563
400.383
400.219
400.093
400.024
400.029
400.125
400.336
400.691
401.235
402.029
403.158
404.746
406.96
410.014
414.137
419.541
426.7
439.457
471.046
341.466
365.109
380.333
393.527
397.815
396.48
393.206
391.741
395.023
398.902
400.449
400.974
401.181
401.227
401.162
401.036
400.886
400.738
400.616
400.546
400.549
400.645
400.859
401.221
401.772
402.573
403.707
405.295
407.498
410.523
414.598
419.95
427.09
439.868
471.333
340.541
371.227
390.229
400.308
399.712
399.065
399.255
400.13
400.935
401.464
401.761
401.875
401.879
401.809
401.688
401.539
401.384
401.24
401.128
401.07
401.084