/*--------------------------------*- C++ -*----------------------------------*\
| =========                 |                                                 |
| \\      /  F ield         | OpenFOAM: The Open Source CFD Toolbox           |
|  \\    /   O peration     | Version:  v2006                                 |
|   \\  /    A nd           | Website:  www.openfoam.com                      |
|    \\/     M anipulation  |                                                 |
\*---------------------------------------------------------------------------*/
FoamFile
{
    version     2.0;
    format      ascii;
    class       volVectorField;
    location    "90";
    object      U;
}
// * * * * * * * * * * * * * * * * * * * * * * * * * * * * * * * * * * * * * //

dimensions      [0 1 -1 0 0 0 0];


internalField   nonuniform List<vector> 
78750
(
(-0.391461 -0.226547 -0.0172112)
(-0.334512 -0.214572 -0.0094065)
(-0.324062 -0.189121 0.00417189)
(-0.257262 -0.163277 0.020681)
(-0.190478 -0.148845 0.0270191)
(-0.205483 -0.142087 0.0187938)
(-0.174345 -0.139436 0.0222334)
(-0.169617 -0.135704 0.0138433)
(-0.155235 -0.123859 0.012813)
(-0.147299 -0.111935 0.0107101)
(-0.138809 -0.0949748 0.0103333)
(-0.132537 -0.0784766 0.00947759)
(-0.127239 -0.0625059 0.00673797)
(-0.12259 -0.0490998 0.00114138)
(-0.117872 -0.0385436 -0.00750799)
(-0.112701 -0.031013 -0.0184302)
(-0.107005 -0.0260933 -0.0294923)
(-0.100782 -0.0230601 -0.0385093)
(-0.094089 -0.0213453 -0.0447717)
(-0.0869414 -0.0207465 -0.0489952)
(-0.0793675 -0.021107 -0.0522899)
(-0.0714452 -0.0221576 -0.0555016)
(-0.063229 -0.0236082 -0.0591446)
(-0.0547932 -0.0252629 -0.0635496)
(-0.0462231 -0.0269596 -0.0689552)
(-0.0376611 -0.0285104 -0.0756205)
(-0.0292013 -0.0297237 -0.0839005)
(-0.0209838 -0.0305175 -0.0941828)
(-0.0131188 -0.0307388 -0.10668)
(-0.00572501 -0.0301503 -0.121264)
(0.000963828 -0.0285661 -0.137756)
(0.00646237 -0.0262151 -0.15615)
(0.00979235 -0.0243534 -0.175772)
(0.01372 -0.0216887 -0.193211)
(0.00929455 0.0253129 -0.160764)
(0.0625477 -0.373806 0.0304195)
(-0.0323661 -0.342498 0.0121653)
(0.0101295 -0.329463 -0.0220545)
(-0.0242712 -0.29511 -0.0815229)
(-0.0333555 -0.178373 -0.157715)
(-0.0408935 -0.0523277 -0.20605)
(-0.0551524 0.0406582 -0.241008)
(-0.0682403 0.0870816 -0.260377)
(-0.0809752 0.0922175 -0.262722)
(-0.0898552 0.0842983 -0.252203)
(-0.0973334 0.0738733 -0.230557)
(-0.104521 0.0637225 -0.201606)
(-0.111821 0.0522911 -0.172326)
(-0.118285 0.037491 -0.148618)
(-0.1231 0.0199796 -0.130818)
(-0.126338 0.00245203 -0.116885)
(-0.128321 -0.0128933 -0.105369)
(-0.129222 -0.0255127 -0.0953378)
(-0.129392 -0.0360371 -0.0860785)
(-0.129014 -0.0449739 -0.0773295)
(-0.128035 -0.0524335 -0.0691057)
(-0.126382 -0.0583767 -0.0613641)
(-0.123897 -0.0629141 -0.0539955)
(-0.120437 -0.0661814 -0.0471769)
(-0.11598 -0.0681692 -0.0412623)
(-0.110544 -0.0686462 -0.0364403)
(-0.103859 -0.0672942 -0.032787)
(-0.09553 -0.0636081 -0.0308911)
(-0.0855089 -0.0569927 -0.0316793)
(-0.0732384 -0.0463277 -0.0360848)
(-0.0583757 -0.0286548 -0.0460155)
(-0.0414846 0.00297407 -0.066187)
(-0.0241722 0.0584247 -0.100558)
(-0.0102326 0.145016 -0.141043)
(-0.00208765 0.24996 -0.138479)
(-0.0281017 -0.14479 0.0158683)
(-0.0180505 -0.0936997 -0.0432896)
(-0.044387 0.007335 -0.124693)
(-0.0569652 0.0242072 -0.154864)
(-0.0639085 0.0233411 -0.171166)
(-0.0649394 0.0329979 -0.188501)
(-0.0602268 0.0487043 -0.205485)
(-0.0518325 0.0607798 -0.218901)
(-0.0432955 0.0645086 -0.226167)
(-0.0361199 0.062953 -0.227628)
(-0.0305528 0.0595976 -0.224672)
(-0.0263877 0.0559628 -0.218741)
(-0.0235094 0.0520395 -0.211083)
(-0.0218312 0.0474513 -0.202473)
(-0.0213392 0.0420574 -0.193158)
(-0.0219571 0.0360243 -0.183077)
(-0.0234948 0.0297498 -0.171855)
(-0.0258176 0.0233421 -0.158921)
(-0.0286083 0.0164403 -0.143918)
(-0.0314612 0.00866732 -0.126848)
(-0.0342054 -0.000212299 -0.107975)
(-0.0364778 -0.0103262 -0.0878019)
(-0.0381593 -0.0216733 -0.0673369)
(-0.0391274 -0.0341807 -0.0473348)
(-0.0392503 -0.0477119 -0.0283014)
(-0.038406 -0.0620897 -0.0104234)
(-0.0365617 -0.0771072 0.00663238)
(-0.0339939 -0.0928038 0.024)
(-0.0311601 -0.110347 0.0441146)
(-0.0283497 -0.132653 0.0701925)
(-0.0256784 -0.157772 0.0996232)
(-0.0233171 -0.168897 0.117196)
(-0.0211741 -0.152784 0.121529)
(-0.0166219 -0.068133 0.0973179)
(-0.00533649 0.136465 0.0168817)
(-0.00271111 -0.19627 0.115426)
(-0.0366044 -0.231513 0.130983)
(-0.0308681 -0.128713 0.0918075)
(-0.0344342 -0.0893205 0.0699555)
(-0.0292043 -0.0480953 0.0481941)
(-0.0239581 -0.0145571 0.0269561)
(-0.0161853 0.0149978 0.00637644)
(-0.0070589 0.0387678 -0.0132076)
(0.0027898 0.0557576 -0.0302897)
(0.0126295 0.0664406 -0.0439964)
(0.021996 0.0719789 -0.0541917)
(0.0307055 0.0735666 -0.0611206)
(0.0387058 0.0721056 -0.065128)
(0.0459862 0.0681907 -0.0664865)
(0.0525553 0.0622237 -0.0654041)
(0.058445 0.0545239 -0.0620864)
(0.0637472 0.0453982 -0.056708)
(0.0685884 0.0350596 -0.0494868)
(0.0731093 0.0235825 -0.0406562)
(0.0774326 0.0110088 -0.0305587)
(0.0815301 -0.00252736 -0.0196467)
(0.0854597 -0.0169156 -0.00803743)
(0.0888782 -0.0321845 0.00396052)
(0.091757 -0.0485533 0.0162573)
(0.0941331 -0.0661105 0.0287275)
(0.0960263 -0.0841853 0.0409197)
(0.0971992 -0.100424 0.0511736)
(0.0970413 -0.110467 0.0568269)
(0.0948499 -0.110308 0.0571146)
(0.0894753 -0.101181 0.0534535)
(0.0793741 -0.0852785 0.0474375)
(0.0661319 -0.0648675 0.0396747)
(0.0481298 -0.0215091 0.0327692)
(0.0272777 0.0424954 0.0392622)
(0.00167804 0.154466 0.0514401)
(-0.00852237 0.00393494 -0.00568952)
(-0.0177782 -0.0597344 -0.00701521)
(-0.0286907 -0.113121 0.0189347)
(-0.0292697 -0.131995 0.0323977)
(-0.028565 -0.137393 0.0417684)
(-0.025187 -0.133957 0.0496239)
(-0.0192025 -0.124147 0.0556718)
(-0.0109989 -0.111712 0.0594204)
(-0.00118116 -0.0994546 0.0614295)
(0.00983219 -0.0885202 0.0624768)
(0.0215742 -0.0793231 0.0631187)
(0.0335774 -0.071994 0.0637272)
(0.0455222 -0.0665305 0.0645138)
(0.0571505 -0.0628736 0.0655735)
(0.068252 -0.060999 0.066952)
(0.0786624 -0.0609081 0.0686633)
(0.0882401 -0.0625995 0.0706883)
(0.0968523 -0.0660586 0.0729769)
(0.104372 -0.071235 0.0754497)
(0.110658 -0.0779901 0.0779655)
(0.115519 -0.0859846 0.0803373)
(0.118788 -0.0947463 0.0825404)
(0.12039 -0.104163 0.0849268)
(0.120034 -0.114904 0.0878486)
(0.117145 -0.127663 0.0911306)
(0.111652 -0.141352 0.0949805)
(0.102891 -0.154641 0.0988757)
(0.0875403 -0.161837 0.0944312)
(0.0652919 -0.145506 0.0737863)
(0.0452581 -0.109468 0.0479295)
(0.0323945 -0.078507 0.0309934)
(0.0256932 -0.046703 0.022961)
(0.0194679 0.0208255 0.0223348)
(0.0117176 0.141078 0.0223042)
(-0.00153136 0.265953 0.0267915)
(0.00164033 -0.0552244 0.0219795)
(0.00960726 -0.113459 0.0323424)
(0.0142083 -0.134518 0.0268262)
(0.01768 -0.146034 0.0186672)
(0.022118 -0.154454 0.0106137)
(0.0274565 -0.161274 0.00333561)
(0.0336576 -0.166719 -0.0027029)
(0.0407857 -0.170455 -0.00728667)
(0.0488099 -0.172149 -0.0104981)
(0.0575486 -0.171717 -0.0125811)
(0.0667797 -0.169298 -0.0138202)
(0.0763029 -0.16513 -0.0144717)
(0.085945 -0.159465 -0.0147303)
(0.0955418 -0.152511 -0.0147232)
(0.104917 -0.144505 -0.014539)
(0.113852 -0.135537 -0.014217)
(0.122148 -0.125679 -0.0137745)
(0.129613 -0.114986 -0.0132193)
(0.136049 -0.103478 -0.0125561)
(0.141235 -0.0911522 -0.0118484)
(0.144949 -0.0779827 -0.0113187)
(0.147083 -0.063768 -0.0112865)
(0.147564 -0.0478245 -0.0120061)
(0.146118 -0.0291788 -0.0138099)
(0.142405 -0.00870698 -0.0168567)
(0.136103 0.0141474 -0.021317)
(0.123916 0.0662122 -0.0277111)
(0.106691 0.148618 -0.0331074)
(0.0889847 0.201232 -0.0315333)
(0.0662134 0.155966 -0.0212972)
(0.0439351 0.0597546 -0.0159805)
(0.0307436 0.025405 -0.0174518)
(0.0201697 0.0692915 -0.0123856)
(0.0108938 0.199525 0.00755227)
(0.000896577 0.298537 0.0165255)
(-0.00102947 -0.091176 0.0152093)
(-0.000914043 -0.159944 0.0068032)
(0.00371187 -0.193405 -0.00067489)
(0.010217 -0.213677 -0.00513576)
(0.017484 -0.226316 -0.00787898)
(0.0246593 -0.233526 -0.00977069)
(0.0311584 -0.236445 -0.0113952)
(0.0366957 -0.235832 -0.0131111)
(0.0411932 -0.232297 -0.0150832)
(0.0446758 -0.2264 -0.0173279)
(0.0472224 -0.218706 -0.019755)
(0.0489429 -0.209755 -0.022209)
(0.0499526 -0.19998 -0.0245076)
(0.0503488 -0.189658 -0.026469)
(0.050197 -0.178923 -0.0279223)
(0.0495239 -0.167829 -0.0287122)
(0.0483428 -0.156339 -0.0286791)
(0.0466889 -0.144437 -0.0276857)
(0.0446195 -0.132113 -0.0256479)
(0.0422452 -0.119292 -0.0225758)
(0.0397532 -0.105663 -0.0185704)
(0.0373593 -0.0904361 -0.0136994)
(0.0352267 -0.0720201 -0.0078468)
(0.0334904 -0.0479384 -0.00112847)
(0.031822 -0.0171009 0.00493558)
(0.0301725 0.0172983 0.00834582)
(0.0291702 0.0531023 0.0095725)
(0.0309531 0.0928559 0.0107912)
(0.0354909 0.133198 0.0088409)
(0.0362526 0.152058 0.00164409)
(0.0322105 0.157021 -0.00842402)
(0.0234628 0.157985 -0.0171888)
(0.0137795 0.172274 -0.0187915)
(0.00640979 0.241195 -0.00594245)
(0.00133852 0.318632 0.00995245)
(0.000404293 -0.0718392 0.00547378)
(0.0119862 -0.159987 0.00463347)
(0.0256062 -0.208029 0.00410258)
(0.0394363 -0.233644 0.00332595)
(0.0525946 -0.246348 0.0024743)
(0.0645707 -0.250724 0.00150056)
(0.0749287 -0.249008 0.0001353)
(0.0833783 -0.24248 -0.0019041)
(0.0898 -0.232123 -0.00475871)
(0.0941986 -0.218859 -0.00834834)
(0.096684 -0.203518 -0.0124175)
(0.0974485 -0.186743 -0.0166492)
(0.0967135 -0.168928 -0.0207579)
(0.0946845 -0.15026 -0.0245311)
(0.0915401 -0.130832 -0.0278293)
(0.0874387 -0.110755 -0.03057)
(0.082512 -0.0902501 -0.0326904)
(0.0768439 -0.0697209 -0.0340966)
(0.0704591 -0.0498632 -0.0346327)
(0.0633732 -0.0316682 -0.0340852)
(0.0556901 -0.0160071 -0.032166)
(0.0475964 -0.00291597 -0.0285237)
(0.0395038 0.00892707 -0.022901)
(0.0320562 0.0224414 -0.0153)
(0.0258639 0.0419212 -0.00620049)
(0.0212502 0.0707178 0.00273338)
(0.0181182 0.106679 0.00936496)
(0.0168607 0.142981 0.0125352)
(0.0170483 0.16895 0.0114198)
(0.0167321 0.180359 0.00800199)
(0.0156699 0.186232 0.00418256)
(0.0135605 0.192514 -0.000339624)
(0.00945432 0.211817 -0.00634387)
(0.00430343 0.2822 -0.0108348)
(0.000123377 0.341939 -0.000871736)
(0.0040297 -0.157046 0.0042818)
(0.0170738 -0.299302 0.00998087)
(0.0264191 -0.351696 0.0101142)
(0.0334077 -0.366803 0.00821141)
(0.0387711 -0.366665 0.00530491)
(0.0431786 -0.358258 0.00139263)
(0.0465139 -0.34328 -0.00386643)
(0.0484495 -0.322301 -0.0108609)
(0.0487575 -0.296433 -0.0196421)
(0.0475246 -0.267734 -0.0295111)
(0.0452206 -0.238338 -0.0392071)
(0.0424385 -0.209666 -0.0475303)
(0.039622 -0.182353 -0.0537249)
(0.0369951 -0.156524 -0.0574687)
(0.034621 -0.132051 -0.0587209)
(0.0324781 -0.108703 -0.0576038)
(0.0305041 -0.086148 -0.0543447)
(0.0285942 -0.0638919 -0.0492506)
(0.0265691 -0.0414267 -0.0428247)
(0.0241425 -0.0189452 -0.036174)
(0.0210898 0.00192234 -0.0310573)
(0.0176393 0.0192112 -0.0284611)
(0.0143701 0.032303 -0.0276601)
(0.0118492 0.0422491 -0.0274044)
(0.010424 0.0513074 -0.0268618)
(0.0102268 0.0620907 -0.0256261)
(0.0117771 0.0774767 -0.0233586)
(0.0157993 0.0993766 -0.0199974)
(0.0217389 0.125737 -0.0162269)
(0.0276093 0.152708 -0.0123711)
(0.0318596 0.179069 -0.00741272)
(0.0329654 0.20841 0.00105013)
(0.0237823 0.255523 0.00143834)
(0.0107797 0.337479 -0.0102397)
(0.00171391 0.373902 -0.0108104)
(0.00403234 -0.214728 0.00954772)
(0.0092365 -0.307295 0.0194881)
(0.0116629 -0.317282 0.0204115)
(0.0137009 -0.313665 0.0196509)
(0.0160586 -0.303723 0.0179708)
(0.0185901 -0.287632 0.0149387)
(0.021052 -0.264235 0.00957873)
(0.0230046 -0.233328 0.000553727)
(0.0238944 -0.19842 -0.012631)
(0.0235306 -0.165291 -0.0284897)
(0.0222683 -0.137655 -0.0443739)
(0.0206381 -0.115654 -0.0582762)
(0.0189757 -0.0974194 -0.0694773)
(0.0173874 -0.0808925 -0.0779908)
(0.0158657 -0.0646017 -0.0838882)
(0.0143867 -0.0477295 -0.087005)
(0.0129613 -0.0299155 -0.0869778)
(0.0116342 -0.0109738 -0.0833722)
(0.0104572 0.00929143 -0.0757315)
(0.00949131 0.0306071 -0.063928)
(0.00865661 0.0502543 -0.0499868)
(0.00788065 0.0629568 -0.0394848)
(0.00726588 0.0691695 -0.0343046)
(0.00667798 0.0729035 -0.0319631)
(0.0061199 0.0754627 -0.0314363)
(0.0058053 0.077398 -0.0323336)
(0.00607576 0.0798018 -0.0339882)
(0.00725064 0.0840749 -0.0355994)
(0.00931815 0.0918583 -0.0365859)
(0.0124528 0.106994 -0.0362935)
(0.0170926 0.14391 -0.0311057)
(0.0221881 0.233068 -0.0105293)
(0.016651 0.354401 -0.000801177)
(0.00715091 0.425099 -0.0097765)
(0.000804353 0.420361 -0.0134424)
(-0.00216646 -0.233646 0.0233775)
(-0.00515219 -0.34256 0.0341938)
(-0.00546772 -0.366909 0.0355425)
(-0.00470265 -0.371587 0.0353883)
(-0.00305832 -0.367262 0.0348597)
(-0.000596237 -0.354098 0.0337941)
(0.00251066 -0.329374 0.0313678)
(0.00599417 -0.29169 0.0259954)
(0.00934743 -0.246126 0.0162535)
(0.0120309 -0.201506 0.00259233)
(0.0138063 -0.163669 -0.0126564)
(0.0148246 -0.133301 -0.0272783)
(0.0153806 -0.108213 -0.0404338)
(0.0157026 -0.0860036 -0.0522037)
(0.0159065 -0.065247 -0.0627051)
(0.0160323 -0.0456683 -0.0716112)
(0.0161297 -0.0276788 -0.0782621)
(0.0163133 -0.0115212 -0.0821724)
(0.0167373 0.00318121 -0.0832592)
(0.0175402 0.0171423 -0.0816118)
(0.018771 0.0307173 -0.0774398)
(0.0202374 0.0434268 -0.0715686)
(0.0215196 0.0544393 -0.0655114)
(0.0223379 0.063638 -0.0605005)
(0.0227102 0.071845 -0.056733)
(0.022861 0.0800282 -0.0536519)
(0.0229814 0.0884968 -0.0508986)
(0.0231373 0.09729 -0.0489076)
(0.0231048 0.107112 -0.0479525)
(0.022596 0.119907 -0.0473463)
(0.0207006 0.143175 -0.044135)
(0.0174253 0.215046 -0.0257409)
(0.0121622 0.374552 0.00251785)
(0.00623322 0.463249 0.00564014)
(0.00228143 0.439321 0.00238372)
(-0.000874444 -0.200097 0.0121649)
(-0.00044568 -0.313005 0.00874683)
(0.000105649 -0.340768 0.00653134)
(0.00110817 -0.34686 0.00575891)
(0.00243311 -0.343279 0.00573397)
(0.00417026 -0.330864 0.00642772)
(0.00643401 -0.307534 0.00794545)
(0.00930889 -0.271066 0.00963402)
(0.012627 -0.222968 0.00923263)
(0.0157864 -0.170462 0.00438604)
(0.0180197 -0.123043 -0.00458648)
(0.0189907 -0.0861645 -0.0150181)
(0.0189771 -0.0590891 -0.0247856)
(0.0185082 -0.0381067 -0.033495)
(0.0180388 -0.0199493 -0.0416278)
(0.0178487 -0.00288417 -0.0496404)
(0.0180573 0.013438 -0.0575227)
(0.0186224 0.0284785 -0.064708)
(0.0193694 0.0415298 -0.0703889)
(0.0200974 0.0523822 -0.0739479)
(0.0206414 0.0614399 -0.0750793)
(0.0209068 0.0694812 -0.0734279)
(0.0208287 0.0773197 -0.0678947)
(0.0202559 0.0850353 -0.0559252)
(0.0190072 0.0906665 -0.0360564)
(0.01746 0.0927555 -0.0162591)
(0.0163975 0.0946873 -0.00529959)
(0.0157887 0.0996008 -0.000877071)
(0.0154613 0.111297 -0.000803713)
(0.0153033 0.140895 -0.00845202)
(0.014278 0.201898 -0.0275675)
(0.00904103 0.294162 -0.0365711)
(0.00314868 0.423421 -0.0149733)
(0.000650448 0.480134 -0.00597481)
(6.66551e-05 0.451097 -0.00395441)
(-0.0011073 -0.225173 0.00881132)
(-0.00239943 -0.34755 0.00281851)
(-0.00221328 -0.378187 0.000171781)
(-0.00122725 -0.38576 -0.00071142)
(0.000539923 -0.383763 -0.000734451)
(0.00307187 -0.373837 -1.90516e-05)
(0.00637756 -0.354715 0.00154177)
(0.0105416 -0.323918 0.00393193)
(0.0155184 -0.280036 0.0062019)
(0.0209435 -0.225254 0.00570672)
(0.0260389 -0.166326 -0.000359369)
(0.0298703 -0.112336 -0.0114225)
(0.0320161 -0.0697153 -0.0231879)
(0.0328807 -0.0392325 -0.0318869)
(0.0332532 -0.017688 -0.0368989)
(0.0336789 -0.00132633 -0.0393184)
(0.0343348 0.0125349 -0.0402335)
(0.0352197 0.0255049 -0.0403689)
(0.0362503 0.0385142 -0.0401674)
(0.0372718 0.0521294 -0.0398774)
(0.0380718 0.066539 -0.0395393)
(0.038376 0.081027 -0.038808)
(0.0379744 0.0937257 -0.036819)
(0.0368858 0.103149 -0.0325517)
(0.0351349 0.109042 -0.0251376)
(0.03256 0.111362 -0.0144392)
(0.0290387 0.110943 -0.00239143)
(0.0253091 0.111251 0.00743116)
(0.0219314 0.116739 0.0138713)
(0.0180901 0.137673 0.0158271)
(0.0142312 0.208973 0.00225967)
(0.0103234 0.33698 -0.028019)
(0.0041144 0.459565 -0.0352899)
(0.00116133 0.497347 -0.0309964)
(0.000220159 0.458491 -0.0238436)
(-0.00306194 -0.197323 -0.00340938)
(-0.00235128 -0.323793 -0.0166424)
(0.00020775 -0.362674 -0.020644)
(0.00316711 -0.375069 -0.021976)
(0.00651085 -0.376298 -0.0223792)
(0.0101023 -0.368715 -0.0221133)
(0.0138272 -0.351241 -0.0208657)
(0.0176296 -0.322291 -0.0178281)
(0.0215971 -0.281466 -0.0121455)
(0.0260067 -0.229862 -0.00442709)
(0.0309657 -0.170654 0.00128815)
(0.0358171 -0.110559 -0.00136757)
(0.0391377 -0.0589673 -0.0153899)
(0.039737 -0.0221992 -0.0358259)
(0.0380364 0.0015554 -0.0538878)
(0.0353937 0.0177045 -0.0654854)
(0.0327517 0.0302466 -0.0712421)
(0.0304607 0.0412984 -0.0728552)
(0.0285725 0.0519188 -0.0715655)
(0.0270213 0.0627813 -0.0681455)
(0.0256853 0.0745543 -0.0630277)
(0.0244083 0.0878403 -0.056371)
(0.023 0.102392 -0.0482534)
(0.0213088 0.116093 -0.0390786)
(0.0193047 0.126338 -0.0296038)
(0.016927 0.132677 -0.0202429)
(0.0139852 0.136492 -0.0110998)
(0.0105546 0.14037 -0.0025289)
(0.00681928 0.148544 0.00552604)
(0.00252301 0.171391 0.0133111)
(-0.00136791 0.238934 0.0153283)
(-0.00142344 0.37273 -0.00282693)
(-0.00197682 0.493844 -0.0250159)
(-0.00288093 0.519761 -0.028221)
(-0.00190137 0.458004 -0.0215817)
(0.000900277 -0.200236 -0.0163877)
(0.0102417 -0.360055 -0.0245448)
(0.0183416 -0.411184 -0.0261179)
(0.0248683 -0.425478 -0.0270832)
(0.0305079 -0.425822 -0.0285017)
(0.0354096 -0.416205 -0.0308578)
(0.0388058 -0.39605 -0.0344003)
(0.040093 -0.364759 -0.0385082)
(0.0392393 -0.3231 -0.0408709)
(0.0369859 -0.27223 -0.0375255)
(0.034868 -0.212404 -0.0254578)
(0.034478 -0.142944 -0.00701949)
(0.0361792 -0.0658794 0.00845933)
(0.0383743 0.0060412 0.00962057)
(0.0384221 0.0564231 -0.00437538)
(0.0357764 0.0831252 -0.0238159)
(0.0319987 0.0959952 -0.0408604)
(0.0281139 0.103571 -0.0532125)
(0.0244641 0.110275 -0.0610436)
(0.0210338 0.118112 -0.0650212)
(0.0177129 0.127806 -0.0655206)
(0.0144942 0.138848 -0.0628069)
(0.0114797 0.149454 -0.0576864)
(0.00873245 0.157752 -0.0515006)
(0.00616066 0.1632 -0.0452858)
(0.00353949 0.166501 -0.039328)
(0.000633598 0.16887 -0.0334902)
(-0.00259341 0.172031 -0.0275237)
(-0.00604584 0.178969 -0.0208175)
(-0.00976288 0.19725 -0.0119187)
(-0.0128296 0.248665 0.000187862)
(-0.0113616 0.362832 0.00861569)
(-0.00624269 0.490726 0.00328433)
(-0.00365362 0.515366 -0.000611443)
(-0.0016924 0.445956 -0.000545153)
(0.00524518 -0.25886 -0.0168997)
(0.0165111 -0.40521 -0.0144181)
(0.0251684 -0.439985 -0.0132059)
(0.0317854 -0.444424 -0.0135523)
(0.0375791 -0.43572 -0.015266)
(0.0424695 -0.413755 -0.0191431)
(0.0452812 -0.375942 -0.0258003)
(0.04535 -0.324144 -0.0348739)
(0.0428721 -0.265169 -0.0458099)
(0.0377491 -0.209325 -0.0578681)
(0.0299621 -0.167271 -0.0669037)
(0.0204177 -0.135776 -0.0651699)
(0.0113853 -0.0966263 -0.0481596)
(0.00587571 -0.0392162 -0.0235264)
(0.00447895 0.0238387 -0.00785358)
(0.00472062 0.072463 -0.00689458)
(0.00511271 0.1022 -0.0137871)
(0.00534495 0.119965 -0.0220471)
(0.00534908 0.132358 -0.0294936)
(0.00512209 0.142724 -0.0356928)
(0.00474671 0.152446 -0.0403847)
(0.00434292 0.161916 -0.043385)
(0.00396369 0.170923 -0.0447701)
(0.00354339 0.179026 -0.0448897)
(0.0029296 0.18598 -0.04417)
(0.00195045 0.191926 -0.0429141)
(0.000465264 0.197329 -0.0412462)
(-0.00161066 0.203017 -0.0391118)
(-0.00421281 0.210572 -0.0362012)
(-0.00712025 0.223768 -0.031677)
(-0.00984787 0.253693 -0.0235836)
(-0.0102825 0.32617 -0.00973991)
(-0.00551622 0.44102 0.00427984)
(-0.00148784 0.479975 0.0081685)
(0.000224667 0.429365 0.00805752)
(0.00208752 -0.302696 -0.0107682)
(0.00690326 -0.450486 -0.00241174)
(0.0101015 -0.475809 -0.000377408)
(0.0124238 -0.474471 -0.000946075)
(0.0138913 -0.456768 -0.00440293)
(0.0131864 -0.415813 -0.0125687)
(0.00903618 -0.352456 -0.0240328)
(0.00294881 -0.278064 -0.0337704)
(-0.00236628 -0.19778 -0.0379668)
(-0.0054712 -0.106156 -0.0394161)
(-0.0074164 -0.00842185 -0.0470004)
(-0.0131018 0.057527 -0.0595897)
(-0.0204938 0.0799644 -0.0636006)
(-0.0259924 0.0892364 -0.0604787)
(-0.0289304 0.0983636 -0.0551551)
(-0.0292631 0.109067 -0.0508186)
(-0.0278494 0.120555 -0.0481736)
(-0.0254792 0.13235 -0.046936)
(-0.0227931 0.144187 -0.0467327)
(-0.0201642 0.155874 -0.0472253)
(-0.0177327 0.167157 -0.048115)
(-0.0155547 0.17769 -0.0491181)
(-0.0136521 0.18722 -0.0499817)
(-0.0120302 0.195788 -0.0505424)
(-0.0106958 0.203696 -0.0507371)
(-0.00967147 0.211384 -0.0505604)
(-0.00899617 0.219391 -0.0500194)
(-0.00871822 0.228449 -0.0490901)
(-0.00887599 0.239786 -0.0476387)
(-0.00946031 0.256025 -0.0452302)
(-0.0103386 0.283812 -0.0406398)
(-0.0106568 0.338323 -0.0311571)
(-0.00755245 0.424157 -0.0165328)
(-0.00398466 0.460876 -0.00899694)
(-0.00152921 0.420762 -0.004853)
(0.00427882 -0.31987 -7.55549e-05)
(0.0110756 -0.450349 0.0145805)
(0.0145937 -0.469894 0.016892)
(0.0162195 -0.462937 0.0150864)
(0.0160501 -0.429368 0.00687202)
(0.0115403 -0.362722 -0.00998678)
(0.00238766 -0.284691 -0.0307506)
(-0.00949726 -0.220483 -0.0488856)
(-0.0212667 -0.176745 -0.055841)
(-0.0298503 -0.13463 -0.0499764)
(-0.0327374 -0.0759903 -0.038791)
(-0.0301872 -0.00640249 -0.0333625)
(-0.0269976 0.0478683 -0.0359808)
(-0.0252574 0.0803536 -0.0406134)
(-0.0240942 0.098551 -0.0435368)
(-0.0227811 0.110689 -0.0450278)
(-0.0212037 0.120916 -0.0458359)
(-0.0193881 0.130959 -0.0463211)
(-0.0174084 0.141532 -0.0466477)
(-0.0153441 0.1529 -0.0469308)
(-0.0132762 0.164993 -0.0472964)
(-0.0112963 0.177378 -0.0478697)
(-0.00949364 0.189385 -0.0486973)
(-0.00792255 0.200488 -0.0496827)
(-0.00659143 0.210654 -0.0506352)
(-0.00548362 0.220312 -0.0513708)
(-0.00458796 0.23017 -0.0517571)
(-0.00391545 0.241188 -0.0517004)
(-0.00350824 0.254826 -0.0510932)
(-0.00345122 0.273793 -0.0496969)
(-0.00387977 0.303767 -0.046881)
(-0.00465385 0.3547 -0.0411883)
(-0.003871 0.423897 -0.0317714)
(-0.00230142 0.454995 -0.0248441)
(-0.000945656 0.414672 -0.0171707)
(0.00273278 -0.373717 0.0241553)
(0.0027137 -0.490097 0.0425107)
(0.00176609 -0.49589 0.0445251)
(-0.000662356 -0.471762 0.0405276)
(-0.00644118 -0.395424 0.0243189)
(-0.0147842 -0.285908 0.00168171)
(-0.0218007 -0.177767 -0.0181562)
(-0.0268168 -0.0809826 -0.0403562)
(-0.0335609 -0.0173532 -0.0614622)
(-0.0407418 0.00741052 -0.0673916)
(-0.0453554 0.0237579 -0.0632481)
(-0.0473551 0.0457544 -0.0559044)
(-0.046082 0.0728827 -0.0499014)
(-0.0427512 0.0953905 -0.0475263)
(-0.0393087 0.109912 -0.0470022)
(-0.0361834 0.120366 -0.0468818)
(-0.0332338 0.129616 -0.0467824)
(-0.0303683 0.138898 -0.0465943)
(-0.0275561 0.148719 -0.0462779)
(-0.0247678 0.159319 -0.0458528)
(-0.0219892 0.170761 -0.0454184)
(-0.0192469 0.182859 -0.0451577)
(-0.016616 0.195139 -0.0452794)
(-0.0141999 0.20704 -0.0458872)
(-0.0120784 0.218281 -0.0468827)
(-0.0102771 0.229075 -0.0480072)
(-0.00878114 0.24009 -0.0489596)
(-0.00756334 0.25241 -0.0494717)
(-0.00660626 0.267781 -0.0493012)
(-0.00592791 0.28936 -0.0481355)
(-0.005601 0.322914 -0.0454516)
(-0.00548757 0.375098 -0.0406115)
(-0.00446518 0.435047 -0.0339544)
(-0.00311529 0.460045 -0.028226)
(-0.00155075 0.412363 -0.019247)
(-0.00135208 -0.353527 0.0356124)
(-0.00445048 -0.451962 0.0525101)
(-0.00801134 -0.452684 0.0539023)
(-0.0130312 -0.414342 0.0463399)
(-0.0217527 -0.315826 0.022712)
(-0.0303387 -0.21714 -0.000626595)
(-0.035837 -0.147307 -0.00987381)
(-0.0373096 -0.0880317 -0.0139478)
(-0.0355102 -0.0306564 -0.0220119)
(-0.0329993 0.011983 -0.0316993)
(-0.0317169 0.0372971 -0.03736)
(-0.0311058 0.0562878 -0.0400946)
(-0.0302034 0.074438 -0.0414495)
(-0.028722 0.0920806 -0.0422621)
(-0.0269008 0.107376 -0.042868)
(-0.0250871 0.119827 -0.0432867)
(-0.023396 0.130387 -0.0434884)
(-0.0217967 0.140192 -0.0434546)
(-0.0202393 0.150049 -0.0431638)
(-0.0186864 0.160452 -0.0426066)
(-0.017111 0.171679 -0.0418218)
(-0.0155022 0.183822 -0.0409338)
(-0.0138807 0.196729 -0.040173)
(-0.0123064 0.21001 -0.039831)
(-0.0108608 0.223207 -0.0401291)
(-0.00960512 0.236135 -0.0410749)
(-0.00855216 0.249152 -0.0424249)
(-0.00767462 0.263263 -0.0437727)
(-0.00692669 0.280315 -0.0446476)
(-0.0062632 0.303656 -0.0444908)
(-0.0056686 0.338967 -0.0424957)
(-0.00502539 0.390941 -0.0378916)
(-0.00377999 0.444616 -0.0316974)
(-0.00248092 0.465156 -0.0260327)
(-0.00125052 0.40875 -0.0166697)
(0.00124926 -0.385704 0.0526949)
(6.87881e-05 -0.478391 0.0713567)
(-0.00339985 -0.475384 0.0746134)
(-0.00820615 -0.426881 0.06908)
(-0.0141357 -0.320496 0.0469946)
(-0.01928 -0.216732 0.0171581)
(-0.023548 -0.141336 -0.00346413)
(-0.0262258 -0.0887433 -0.0122831)
(-0.0270654 -0.0472066 -0.0148939)
(-0.0262701 -0.00900073 -0.0167634)
(-0.0243416 0.0245626 -0.0196536)
(-0.0219217 0.0512618 -0.0229289)
(-0.0195085 0.0726695 -0.0260549)
(-0.0171419 0.0908723 -0.0289268)
(-0.0148917 0.106814 -0.031505)
(-0.0128933 0.12078 -0.0337059)
(-0.0112107 0.133118 -0.0354649)
(-0.00981058 0.144386 -0.0367677)
(-0.00862025 0.155163 -0.0376201)
(-0.00756933 0.165923 -0.0380243)
(-0.00660112 0.17702 -0.0379877)
(-0.00567439 0.188704 -0.0375555)
(-0.00477068 0.201109 -0.0368482)
(-0.00390638 0.214203 -0.0360953)
(-0.00313674 0.227758 -0.0356286)
(-0.00253351 0.241453 -0.0357831)
(-0.00212946 0.255219 -0.0367034)
(-0.00187669 0.269693 -0.038194)
(-0.0016725 0.286575 -0.0397653)
(-0.00139425 0.309174 -0.0407475)
(-0.000966079 0.343397 -0.0401421)
(-0.000453151 0.394932 -0.036598)
(2.9208e-05 0.448872 -0.0305387)
(0.00038232 0.469564 -0.0245176)
(0.000126538 0.411046 -0.0149773)
(-0.00597106 -0.373747 0.0596943)
(-0.0138886 -0.451874 0.0699515)
(-0.0212005 -0.438215 0.0704827)
(-0.0275123 -0.369579 0.0654298)
(-0.028422 -0.253244 0.0504027)
(-0.0254552 -0.156061 0.0316358)
(-0.0239669 -0.0915783 0.0182723)
(-0.023271 -0.0440142 0.00840551)
(-0.0227445 -0.0117769 0.00173607)
(-0.0217053 0.00995808 -0.0023935)
(-0.0199588 0.0283816 -0.00549416)
(-0.0174468 0.0467101 -0.00843986)
(-0.0143994 0.0655441 -0.0116276)
(-0.0111973 0.084381 -0.0151625)
(-0.00818392 0.1025 -0.0189686)
(-0.00560813 0.119217 -0.022799)
(-0.00359135 0.134161 -0.0263089)
(-0.0020745 0.147549 -0.0292384)
(-0.000887734 0.159976 -0.0315036)
(0.00013871 0.172012 -0.0331165)
(0.00112623 0.184069 -0.0341008)
(0.00213071 0.196454 -0.0344794)
(0.00315559 0.209417 -0.0342977)
(0.00417094 0.223144 -0.0336624)
(0.00510274 0.237706 -0.0327945)
(0.00581798 0.252951 -0.0320846)
(0.00614183 0.268472 -0.0320629)
(0.00597127 0.284089 -0.0331092)
(0.00540187 0.300988 -0.0350188)
(0.00465407 0.322712 -0.0370111)
(0.00388914 0.355846 -0.0378756)
(0.00311042 0.407225 -0.0357017)
(0.00231088 0.462049 -0.0301179)
(0.00171636 0.483379 -0.0241077)
(0.000490449 0.425071 -0.0145784)
(-0.00760975 -0.315976 0.0498226)
(-0.0163774 -0.430236 0.0566673)
(-0.0215225 -0.442526 0.060825)
(-0.0228436 -0.427819 0.0675299)
(-0.0188648 -0.367139 0.0741601)
(-0.00782351 -0.262718 0.0689834)
(0.00298504 -0.168076 0.0553743)
(0.00956374 -0.102307 0.0417533)
(0.0117058 -0.0581748 0.0313564)
(0.0114583 -0.0263811 0.0242421)
(0.0107253 -0.00153959 0.0191853)
(0.0102148 0.0198085 0.0150584)
(0.0101714 0.0402971 0.0111289)
(0.0106702 0.0614094 0.0069378)
(0.0115323 0.0835258 0.00219483)
(0.0124334 0.105966 -0.00320067)
(0.0130205 0.127084 -0.0090074)
(0.0130626 0.145123 -0.0145825)
(0.0126686 0.159841 -0.019301)
(0.012153 0.17249 -0.0229789)
(0.0117665 0.184413 -0.0256956)
(0.0116628 0.196495 -0.0275309)
(0.0118938 0.209297 -0.0285102)
(0.0124225 0.223272 -0.028648)
(0.0131418 0.238888 -0.0279995)
(0.0138659 0.256639 -0.0267454)
(0.0142768 0.276759 -0.0254119)
(0.0139057 0.298592 -0.0251628)
(0.0124183 0.321093 -0.0272661)
(0.0100074 0.346217 -0.0313751)
(0.00719074 0.380891 -0.0352645)
(0.0045468 0.431664 -0.0357076)
(0.00264494 0.483171 -0.0315012)
(0.00151875 0.502917 -0.0256952)
(0.000127098 0.441583 -0.0153829)
(-0.00439997 -0.304133 0.0312326)
(-0.00910957 -0.444767 0.0262353)
(-0.0124106 -0.474324 0.027008)
(-0.0138937 -0.478934 0.0318152)
(-0.0134653 -0.464689 0.0432975)
(-0.00720322 -0.405373 0.0621001)
(0.00634849 -0.29258 0.0748832)
(0.0210938 -0.167616 0.0740324)
(0.0309563 -0.0720328 0.062911)
(0.03414 -0.0182373 0.0501278)
(0.0329464 0.00842331 0.0406035)
(0.0301636 0.024888 0.0339975)
(0.0272943 0.0397098 0.0288858)
(0.0250284 0.0563636 0.0242883)
(0.0236249 0.0762554 0.0195798)
(0.0229755 0.0995733 0.0143449)
(0.0227043 0.125036 0.00842365)
(0.0222573 0.149608 0.00205817)
(0.021203 0.1698 -0.00409807)
(0.0196202 0.184649 -0.0094226)
(0.0178584 0.196123 -0.0137574)
(0.0161949 0.206442 -0.0171749)
(0.0148673 0.217099 -0.0196924)
(0.0140399 0.229101 -0.0212247)
(0.0137325 0.243408 -0.0216512)
(0.0138457 0.26128 -0.0208766)
(0.0141645 0.284372 -0.0189912)
(0.014233 0.313727 -0.0169421)
(0.0132796 0.347254 -0.0174435)
(0.0108272 0.381414 -0.0227303)
(0.00742209 0.41896 -0.0303829)
(0.00422597 0.464805 -0.0350618)
(0.00218757 0.506735 -0.0338744)
(0.00107915 0.521752 -0.0287313)
(-0.00010133 0.450929 -0.0162425)
(-0.00203232 -0.279265 0.0139404)
(-0.00308799 -0.426868 0.00296045)
(-0.00465891 -0.462832 -0.0020894)
(-0.0058977 -0.472785 -0.00386405)
(-0.00683664 -0.473555 -0.00281822)
(-0.00681004 -0.466012 0.00441653)
(-0.0026304 -0.42855 0.0242894)
(0.00930366 -0.334086 0.050671)
(0.0253429 -0.204699 0.0680667)
(0.0385714 -0.0856876 0.069476)
(0.043928 -0.00984478 0.0601784)
(0.0427429 0.0273869 0.0498179)
(0.0389603 0.0468034 0.0419373)
(0.0347703 0.0612195 0.0359322)
(0.0311208 0.0762202 0.0307867)
(0.0284882 0.0946712 0.0257708)
(0.0270052 0.117836 0.0204442)
(0.0263992 0.144621 0.0147725)
(0.0259888 0.171529 0.00911929)
(0.0250209 0.194347 0.00395497)
(0.0232258 0.211086 -0.000503955)
(0.0208684 0.222994 -0.00435707)
(0.0183344 0.232623 -0.00776461)
(0.0159327 0.242221 -0.0107256)
(0.0139337 0.253481 -0.0130168)
(0.0125376 0.268197 -0.0142975)
(0.0118171 0.28888 -0.0142182)
(0.0117205 0.318738 -0.0127211)
(0.0118458 0.358912 -0.0112837)
(0.0112774 0.404324 -0.0136727)
(0.00941729 0.449537 -0.0211563)
(0.00685834 0.494293 -0.0287915)
(0.00468477 0.530138 -0.0310744)
(0.0029676 0.541618 -0.0275308)
(0.000838218 0.460834 -0.0140561)
(0.000410089 -0.307118 0.00757094)
(0.00268286 -0.463328 -0.00291892)
(0.00411065 -0.497262 -0.00814367)
(0.00523738 -0.502277 -0.011134)
(0.00599673 -0.494758 -0.0135644)
(0.00607439 -0.478251 -0.0156209)
(0.00564799 -0.455993 -0.0148634)