/*--------------------------------*- C++ -*----------------------------------*\
| =========                 |                                                 |
| \\      /  F ield         | OpenFOAM: The Open Source CFD Toolbox           |
|  \\    /   O peration     | Version:  v2006                                 |
|   \\  /    A nd           | Website:  www.openfoam.com                      |
|    \\/     M anipulation  |                                                 |
\*---------------------------------------------------------------------------*/
FoamFile
{
    version     2.0;
    format      ascii;
    class       volScalarField;
    location    "29";
    object      alphat;
}
// * * * * * * * * * * * * * * * * * * * * * * * * * * * * * * * * * * * * * //

dimensions      [1 -1 -1 0 0 0 0];


internalField   nonuniform List<scalar> 
78750
(
1.82222e-07
6.32032e-06
6.48359e-06
6.44113e-06
6.24758e-06
5.98735e-06
5.71246e-06
5.44738e-06
5.20158e-06
4.97738e-06
4.77426e-06
4.59091e-06
4.42606e-06
4.27822e-06
4.14565e-06
4.02631e-06
3.91803e-06
3.81877e-06
3.72647e-06
3.63889e-06
3.55341e-06
3.46684e-06
3.37565e-06
3.27649e-06
3.16561e-06
3.03712e-06
2.88676e-06
2.70895e-06
2.4948e-06
2.23509e-06
1.9216e-06
1.54471e-06
1.10711e-06
6.56908e-07
9.597e-09
2.78379e-08
4.78358e-06
9.58468e-06
1.62195e-05
2.16411e-05
2.46422e-05
2.67768e-05
2.84371e-05
2.94886e-05
3.00603e-05
3.03263e-05
2.99404e-05
2.95994e-05
2.93032e-05
2.90446e-05
2.88088e-05
2.85699e-05
2.81887e-05
2.78875e-05
2.76778e-05
2.756e-05
2.72942e-05
2.69067e-05
2.64331e-05
2.58556e-05
2.51508e-05
2.42942e-05
2.32561e-05
2.03232e-05
1.53468e-05
1.0736e-05
7.71243e-06
6.70538e-06
5.0114e-06
2.37582e-08
3.9705e-08
5.02095e-06
9.22117e-06
9.98133e-06
1.03654e-05
1.13797e-05
1.35801e-05
1.74759e-05
1.89867e-05
1.88443e-05
1.87842e-05
1.87847e-05
1.8832e-05
1.89205e-05
1.90435e-05
1.91956e-05
1.9372e-05
1.95684e-05
1.97805e-05
2.00031e-05
2.02295e-05
2.04506e-05
2.06541e-05
2.08187e-05
2.09253e-05
2.09477e-05
2.08506e-05
2.05875e-05
1.74612e-05
1.32483e-05
1.02302e-05
8.86084e-06
9.95466e-06
4.24087e-06
3.06006e-08
2.90657e-08
5.32487e-06
1.48526e-05
1.2839e-05
1.11921e-05
1.10756e-05
1.28431e-05
1.61383e-05
1.55896e-05
1.50773e-05
1.46284e-05
1.42536e-05
1.39624e-05
1.37575e-05
1.36377e-05
1.35998e-05
1.36392e-05
1.37519e-05
1.39346e-05
1.41847e-05
1.44996e-05
1.48758e-05
1.53062e-05
1.57772e-05
1.62689e-05
1.67494e-05
1.71611e-05
1.57289e-05
1.22914e-05
9.54917e-06
7.81107e-06
7.4627e-06
1.00246e-05
4.01782e-06
3.46058e-08
2.51252e-08
3.28778e-06
1.24079e-05
1.41687e-05
1.21739e-05
1.05768e-05
9.91019e-06
9.88211e-06
1.03566e-05
1.0978e-05
9.89462e-06
8.94216e-06
8.17354e-06
7.59812e-06
7.2003e-06
6.95627e-06
6.8437e-06
6.84677e-06
6.95834e-06
7.18062e-06
7.52453e-06
8.00783e-06
8.65123e-06
9.4717e-06
1.04721e-05
1.04369e-05
9.61814e-06
8.84529e-06
8.07904e-06
7.37925e-06
7.05404e-06
7.89367e-06
1.20078e-05
3.25044e-06
3.94733e-08
1.83659e-08
2.71502e-06
1.04325e-05
1.20486e-05
1.07735e-05
8.39275e-06
7.02034e-06
6.15563e-06
5.526e-06
5.0592e-06
4.78204e-06
4.72482e-06
4.85826e-06
4.54078e-06
4.28914e-06
4.15679e-06
4.07734e-06
3.99587e-06
3.87395e-06
3.69225e-06
3.45413e-06
3.19243e-06
2.97909e-06
2.93206e-06
2.88206e-06
2.7944e-06
2.95605e-06
3.29974e-06
3.7217e-06
4.13573e-06
4.64515e-06
5.92918e-06
1.05792e-05
3.02549e-06
4.18635e-08
1.49155e-08
2.25137e-06
8.88633e-06
1.03794e-05
1.04259e-05
7.5853e-06
5.69086e-06
4.38582e-06
3.4726e-06
2.91445e-06
2.74188e-06
3.00269e-06
3.70303e-06
4.76303e-06
6.01481e-06
6.74112e-06
7.35767e-06
7.81198e-06
8.07124e-06
8.11343e-06
7.92084e-06
7.47936e-06
6.78553e-06
5.25678e-06
3.65322e-06
2.36127e-06
1.62712e-06
1.50848e-06
1.84364e-06
2.44176e-06
3.27825e-06
4.86787e-06
9.45046e-06
2.59634e-06
4.66473e-08
1.22338e-08
1.98489e-06
7.43186e-06
8.58845e-06
7.21407e-06
4.75724e-06
3.31597e-06
2.46569e-06
2.05837e-06
2.10095e-06
2.64288e-06
3.70971e-06
5.27854e-06
7.27437e-06
9.27476e-06
1.01153e-05
1.07683e-05
1.12343e-05
1.15156e-05
1.16105e-05
1.15096e-05
1.11946e-05
1.06407e-05
9.09214e-06
6.5442e-06
4.27774e-06
2.58464e-06
1.59865e-06
1.29841e-06
1.52324e-06
2.14763e-06
3.47817e-06
7.68338e-06
2.33957e-06
5.05737e-08
1.07718e-08
1.67578e-06
6.1724e-06
7.01986e-06
5.03939e-06
3.20153e-06
2.2213e-06
1.77425e-06
1.79013e-06
2.28936e-06
3.29383e-06
4.80358e-06
6.79157e-06
9.12618e-06
1.04809e-05
1.12104e-05
1.17789e-05
1.2191e-05
1.24471e-05
1.25424e-05
1.2466e-05
1.22013e-05
1.17262e-05
9.99682e-06
7.26614e-06
4.85693e-06
3.00114e-06
1.79637e-06
1.23912e-06
1.23315e-06
1.69884e-06
2.90742e-06
6.89409e-06
2.08559e-06
5.55671e-08
9.54419e-09
1.44774e-06
5.09329e-06
5.69358e-06
3.38401e-06
2.18511e-06
1.66641e-06
1.61222e-06
2.00188e-06
2.85285e-06
4.16894e-06
5.92084e-06
8.03944e-06
1.03797e-05
1.21597e-05
1.29412e-05
1.35676e-05
1.40347e-05
1.43357e-05
1.44605e-05
1.43955e-05
1.41232e-05
1.35501e-05
1.07664e-05
7.89227e-06
5.35834e-06
3.36568e-06
2.01022e-06
1.2879e-06
1.10681e-06
1.40121e-06
2.41912e-06
6.26901e-06
1.94163e-06
5.99165e-08
8.42504e-09
1.27128e-06
4.35265e-06
4.88607e-06
2.86355e-06
1.9496e-06
1.63494e-06
1.74387e-06
2.26771e-06
3.22502e-06
4.63058e-06
6.48582e-06
8.77023e-06
1.13676e-05
1.32846e-05
1.41899e-05
1.49337e-05
1.55074e-05
1.59003e-05
1.60982e-05
1.60827e-05
1.58318e-05
1.5006e-05
1.17254e-05
8.45474e-06
5.6724e-06
3.54271e-06
2.10978e-06
1.32971e-06
1.08282e-06
1.30347e-06
2.26109e-06
6.1342e-06
1.81537e-06
6.38877e-08
6.88704e-09
1.19052e-06
3.81706e-06
4.37156e-06
2.67888e-06
1.90185e-06
1.67357e-06
1.8394e-06
2.40082e-06
3.39527e-06
4.87142e-06
6.86793e-06
9.38881e-06
1.23154e-05
1.46537e-05
1.56921e-05
1.65623e-05
1.72574e-05
1.77676e-05
1.80773e-05
1.81641e-05
1.79997e-05
1.69787e-05
1.33235e-05
9.62537e-06
6.45951e-06
4.02971e-06
2.3805e-06
1.45359e-06
1.10499e-06
1.23815e-06
2.10455e-06
5.95685e-06
1.74541e-06
6.63516e-08
5.31804e-09
1.1744e-06
3.4005e-06
4.00672e-06
2.78953e-06
2.02963e-06
1.80464e-06
1.97351e-06
2.54159e-06
3.55373e-06
5.06691e-06
7.13073e-06
9.77513e-06
1.29228e-05
1.5475e-05
1.65684e-05
1.75048e-05
1.8283e-05
1.88949e-05
1.93238e-05
1.95446e-05
1.95234e-05
1.89696e-05
1.49117e-05
1.08255e-05
7.34901e-06
4.65435e-06
2.78018e-06
1.68076e-06
1.2109e-06
1.25651e-06
2.05671e-06
5.88511e-06
1.69621e-06
6.84713e-08
4.18675e-09
1.24632e-06
3.07254e-06
3.70703e-06
2.71529e-06
2.08444e-06
1.96658e-06
2.25811e-06
2.95985e-06
4.1026e-06
5.71613e-06
7.81813e-06
1.04202e-05
1.34801e-05
1.61658e-05
1.72199e-05
1.8151e-05
1.89565e-05
1.96259e-05
2.01402e-05
2.04717e-05
2.05845e-05
2.01065e-05
1.59242e-05
1.17262e-05
8.15602e-06
5.33939e-06
3.3022e-06
2.02847e-06
1.41028e-06
1.33757e-06
2.03418e-06
5.83178e-06
1.69024e-06
7.05717e-08
3.59735e-09
1.31681e-06
2.86924e-06
3.54307e-06
2.76359e-06
2.26298e-06
2.26341e-06
2.66869e-06
3.45465e-06
4.61734e-06
6.15428e-06
8.07666e-06
1.04342e-05
1.32757e-05
1.60645e-05
1.71306e-05
1.81026e-05
1.89699e-05
1.97163e-05
2.03191e-05
2.07487e-05
2.09694e-05
2.02069e-05
1.59596e-05
1.18069e-05
8.34701e-06
5.63784e-06
3.64574e-06
2.3465e-06
1.65663e-06
1.50374e-06
2.14351e-06
6.00782e-06
1.70412e-06
7.34264e-08
3.03829e-09
1.41125e-06
2.73576e-06
3.45508e-06
2.89917e-06
2.45866e-06
2.49377e-06
2.8907e-06
3.60264e-06
4.61912e-06
5.95774e-06
7.67451e-06
9.86498e-06
1.26213e-05
1.57745e-05
1.69289e-05
1.79876e-05
1.89387e-05
1.97663e-05
2.04491e-05
2.0958e-05
2.1259e-05
1.99033e-05
1.57142e-05
1.16482e-05
8.28331e-06
5.68437e-06
3.79357e-06
2.55481e-06
1.87106e-06
1.69217e-06
2.32229e-06
6.33168e-06
1.73955e-06
7.68269e-08
2.29643e-09
1.5396e-06
2.52818e-06
3.25203e-06
3.13168e-06
2.63303e-06
2.57568e-06
2.83894e-06
3.38028e-06
4.21109e-06
5.37795e-06
6.95705e-06
9.05086e-06
1.17611e-05
1.49961e-05
1.67199e-05
1.78348e-05
1.88337e-05
1.97066e-05
2.0435e-05
2.09924e-05
2.13457e-05
1.96377e-05
1.54142e-05
1.13855e-05
8.08337e-06
5.56526e-06
3.77219e-06
2.63322e-06
2.01698e-06
1.87826e-06
2.57889e-06
6.76014e-06
1.76771e-06
8.08815e-08
1.64363e-09
1.35631e-06
2.28654e-06
2.99122e-06
3.14342e-06
2.67915e-06
2.60949e-06
2.84431e-06
3.36416e-06
4.19115e-06
5.3675e-06
6.94872e-06
9.00515e-06
1.1613e-05
1.47305e-05
1.6925e-05
1.79906e-05
1.89508e-05
1.97991e-05
2.05176e-05
2.10809e-05
2.14552e-05
1.94015e-05
1.51387e-05
1.11854e-05
7.96269e-06
5.49656e-06
3.74753e-06
2.66346e-06
2.1018e-06
2.01937e-06
2.82209e-06
7.10739e-06
1.79211e-06
8.542e-08
1.32179e-09
1.23283e-06
2.11613e-06
2.81477e-06
3.06054e-06
2.71421e-06
2.73107e-06
3.0526e-06
3.66552e-06
4.5796e-06
5.8097e-06
7.37267e-06
9.30095e-06
1.1659e-05
1.44806e-05
1.68985e-05
1.78869e-05
1.87951e-05
1.96119e-05
2.03164e-05
2.08822e-05
2.12747e-05
1.84402e-05
1.42444e-05
1.05866e-05
7.63873e-06
5.34957e-06
3.70011e-06
2.68161e-06
2.1675e-06
2.14098e-06
3.06297e-06
7.31699e-06
1.79815e-06
8.95744e-08
1.17669e-09
1.16893e-06
2.03442e-06
2.75448e-06
3.01573e-06
2.79654e-06
2.91587e-06
3.32322e-06
3.99529e-06
4.91837e-06
6.07729e-06
7.46561e-06
9.11624e-06
1.11258e-05
1.36308e-05
1.65336e-05
1.74953e-05
1.83898e-05
1.92001e-05
1.99061e-05
2.0484e-05
2.08384e-05
1.6825e-05
1.2947e-05
9.77932e-06
7.22684e-06
5.18793e-06
3.66893e-06
2.71284e-06
2.23065e-06
2.24512e-06
3.27565e-06
7.43531e-06
1.80368e-06
9.27462e-08
1.04908e-09
1.12281e-06
1.9776e-06
2.71223e-06
3.05039e-06
2.89016e-06
3.04388e-06
3.45445e-06
4.08338e-06
4.89921e-06
5.87529e-06
7.00974e-06
8.3544e-06
1.00335e-05
1.22302e-05
1.50251e-05
1.68206e-05
1.77082e-05
1.85082e-05
1.92046e-05
1.97786e-05
1.86903e-05
1.47799e-05
1.14005e-05
8.79135e-06
6.71354e-06
5.00796e-06
3.67528e-06
2.79572e-06
2.33355e-06
2.36604e-06
3.47605e-06
7.52638e-06
1.81254e-06
9.47374e-08
8.89911e-10
1.06437e-06
1.89526e-06
2.62062e-06
3.09777e-06
2.95124e-06
3.08525e-06
3.44003e-06
3.96767e-06
4.63009e-06
5.40149e-06
6.28655e-06
7.34289e-06
8.69842e-06
1.05529e-05
1.31087e-05
1.60494e-05
1.69178e-05
1.76908e-05
1.83566e-05
1.89028e-05
1.6452e-05
1.27282e-05
9.82681e-06
7.72016e-06
6.0974e-06
4.75709e-06
3.66846e-06
2.90686e-06
2.48204e-06
2.53225e-06
3.71583e-06
7.74505e-06
1.84515e-06
9.63063e-08
7.22258e-10
9.83724e-07
1.7707e-06
2.46594e-06
3.12588e-06
3.00618e-06
3.09175e-06
3.35649e-06
3.75123e-06
4.2378e-06
4.79554e-06
5.43586e-06
6.2178e-06
7.2617e-06
8.7625e-06
1.0976e-05
1.40019e-05
1.5947e-05
1.66713e-05
1.72816e-05
1.77724e-05
1.42888e-05
1.07902e-05
8.29604e-06
6.60332e-06
5.37727e-06
4.39838e-06
3.59619e-06
3.00625e-06
2.65631e-06
2.74022e-06
4.00218e-06
8.04512e-06
1.89363e-06
9.77822e-08
5.94822e-10
9.00102e-07
1.63884e-06
2.3045e-06
2.94036e-06
3.03623e-06
3.07686e-06
3.24719e-06
3.50783e-06
3.82628e-06
4.19177e-06
4.62653e-06
5.1936e-06
6.00343e-06
7.22671e-06
9.1011e-06
1.18252e-05
1.49366e-05
1.5566e-05
1.6064e-05
1.58488e-05
1.21594e-05
8.97574e-06
6.84379e-06
5.48308e-06
4.57408e-06
3.90956e-06
3.39881e-06
3.02961e-06
2.81457e-06
2.98249e-06
4.37566e-06
8.40591e-06
1.95875e-06
9.98783e-08
5.45812e-10
8.26734e-07
1.51949e-06
2.15426e-06
2.75751e-06
3.00258e-06
2.98691e-06
3.04546e-06
3.15695e-06
3.30688e-06
3.50723e-06
3.80014e-06
4.25569e-06
4.97347e-06
6.09602e-06
7.81919e-06
1.03044e-05
1.32581e-05
1.45789e-05
1.48477e-05
1.33272e-05
1.00035e-05
7.25776e-06
5.47116e-06
4.38392e-06
3.72309e-06
3.31352e-06
3.06625e-06
2.93512e-06
2.89975e-06
3.19745e-06
4.75819e-06
8.66131e-06
2.01821e-06
1.0226e-07
5.82911e-10
7.7115e-07
1.41916e-06
2.01534e-06
2.57092e-06
2.76045e-06
2.677e-06
2.62811e-06
2.6278e-06
2.69965e-06
2.88597e-06
3.24184e-06
3.83372e-06
4.74867e-06
6.10633e-06
8.03244e-06
1.04791e-05
1.28597e-05
1.40978e-05
1.34381e-05
1.10864e-05
8.19221e-06
5.84362e-06
4.30653e-06
3.3994e-06
2.90019e-06
2.66193e-06
2.61187e-06
2.69953e-06
2.87345e-06
3.35002e-06
5.11772e-06
8.83022e-06
2.07872e-06
1.06156e-07
6.72924e-10
7.39014e-07
1.35058e-06
1.91155e-06
2.40486e-06
2.30378e-06
2.19225e-06
2.1435e-06
2.21523e-06
2.45943e-06
2.92536e-06
3.66742e-06
4.75601e-06
6.27992e-06
8.30742e-06
1.07382e-05
1.30783e-05
1.45353e-05
1.45582e-05
1.3085e-05
1.04979e-05
7.60342e-06
5.19228e-06
3.56953e-06
2.6454e-06
2.19871e-06
2.04748e-06
2.10574e-06
2.33638e-06
2.68435e-06
3.32712e-06
5.23684e-06
8.89791e-06
2.1332e-06
1.13026e-07
7.91071e-10
7.52735e-07
1.37432e-06
1.84826e-06
1.92762e-06
1.91474e-06
1.96349e-06
2.17442e-06
2.6133e-06
3.33613e-06
4.40642e-06
5.9013e-06
7.89605e-06
1.03971e-05
1.32039e-05
1.58224e-05
1.76575e-05
1.83136e-05
1.76351e-05
1.56254e-05
1.25302e-05
9.01406e-06
5.90382e-06
3.66334e-06
2.33026e-06
1.71024e-06
1.53947e-06
1.63397e-06
1.92628e-06
2.37605e-06
3.13829e-06
5.12446e-06
8.9495e-06
2.19006e-06
1.2535e-07
1.05424e-09
7.85737e-07
1.29976e-06
1.59622e-06
1.78517e-06
2.014e-06
2.40836e-06
3.05857e-06
4.045e-06
5.45687e-06
7.39435e-06
9.93828e-06
1.30578e-05
1.64846e-05
1.97202e-05
2.22642e-05
2.37998e-05
2.4148e-05
2.31579e-05
2.06944e-05
1.68173e-05
1.21866e-05
7.92029e-06
4.73082e-06
2.69489e-06
1.62181e-06
1.24552e-06
1.29118e-06
1.58266e-06
2.04746e-06
2.82802e-06
4.77762e-06
8.99369e-06
2.23608e-06
1.41969e-07
1.57115e-09
9.36031e-07
1.41404e-06
1.69469e-06
2.0191e-06
2.49777e-06
3.22329e-06
4.29356e-06
5.83117e-06
7.99857e-06
1.09712e-05
1.48009e-05
1.91978e-05
2.35329e-05
2.72104e-05
2.99176e-05
3.15086e-05
3.18209e-05
3.06164e-05
2.75792e-05
2.25613e-05
1.63221e-05
1.05241e-05
6.25114e-06
3.51271e-06
1.95243e-06
1.2534e-06
1.14792e-06
1.39471e-06
1.84478e-06
2.61115e-06
4.53849e-06
9.05231e-06
2.2594e-06
1.59483e-07
1.8866e-09
1.28882e-06
1.70151e-06
1.91854e-06
2.2917e-06
2.88474e-06
3.7746e-06
5.08493e-06
7.00419e-06
9.76506e-06
1.3516e-05
1.81045e-05
2.30335e-05
2.77405e-05
3.18199e-05
3.49913e-05
3.70068e-05
3.75956e-05
3.64482e-05
3.30928e-05
2.71257e-05
1.94309e-05
1.23512e-05
7.31601e-06
4.18549e-06
2.38807e-06
1.49443e-06
1.23973e-06
1.39915e-06
1.80194e-06
2.5459e-06
4.52649e-06
9.12785e-06
2.25464e-06
1.73105e-07
1.4751e-09
1.60202e-06
1.88754e-06
2.0244e-06
2.34205e-06
2.88715e-06
3.72794e-06
4.97431e-06
6.75572e-06
9.18207e-06
1.2329e-05
1.62011e-05
2.06185e-05
2.51623e-05
2.93142e-05
3.26796e-05
3.50122e-05
3.60988e-05
3.56431e-05
3.30296e-05
2.74447e-05
1.95506e-05
1.21956e-05
7.12925e-06
4.11041e-06
2.45209e-06
1.66056e-06
1.45385e-06
1.60623e-06
1.98507e-06
2.75246e-06
5.00516e-06
8.87463e-06
2.20648e-06
1.77471e-07
1.0183e-09
1.32818e-06
1.73612e-06
1.9121e-06
2.16427e-06
2.59134e-06
3.2604e-06
4.24774e-06
5.64564e-06
7.57784e-06
1.0196e-05
1.35857e-05
1.75845e-05
2.17271e-05
2.55144e-05
2.86731e-05
3.10908e-05
3.26278e-05
3.29982e-05
3.15054e-05
2.69563e-05
1.93667e-05
1.17961e-05
6.62424e-06
3.69008e-06
2.22114e-06
1.65866e-06
1.65879e-06
1.9248e-06
2.36156e-06
3.26894e-06
6.14724e-06
7.92756e-06
2.12037e-06
1.69271e-07
1.63666e-09
8.52417e-07
1.40498e-06
1.7094e-06
2.00375e-06
2.43906e-06
3.11319e-06
4.12073e-06
5.57934e-06
7.64266e-06
1.04634e-05
1.40479e-05
1.80788e-05
2.20144e-05
2.54632e-05
2.83201e-05
3.0587e-05
3.21884e-05
3.2877e-05
3.20255e-05
2.83173e-05
2.09492e-05
1.26782e-05
6.81393e-06
3.551e-06
2.01248e-06
1.556e-06
1.77717e-06
2.25306e-06
2.86703e-06
4.08141e-06
7.85243e-06
6.8651e-06
2.0332e-06
1.53798e-07
2.28708e-09
6.58176e-07
1.26034e-06
1.74136e-06
2.23077e-06
2.88435e-06
3.81949e-06
5.15594e-06
7.04926e-06
9.6726e-06
1.30843e-05
1.70197e-05
2.09421e-05
2.44578e-05
2.74912e-05
3.00908e-05
3.22577e-05
3.38779e-05
3.46838e-05
3.41181e-05
3.09886e-05
2.40505e-05
1.51238e-05
8.09994e-06
4.00281e-06
2.01363e-06
1.37235e-06
1.64071e-06
2.3545e-06
3.26561e-06
4.87725e-06
9.23425e-06
6.31028e-06
1.98874e-06
1.40613e-07
2.63859e-09
7.11655e-07
1.42624e-06
2.11704e-06
2.8554e-06
3.77935e-06
5.02731e-06
6.75927e-06
9.14562e-06
1.2244e-05
1.58202e-05
1.94255e-05
2.27726e-05
2.58484e-05
2.87e-05
3.13087e-05
3.35768e-05
3.53226e-05
3.62581e-05
3.59234e-05
3.34427e-05
2.76814e-05
1.91799e-05
1.10934e-05
5.60837e-06
2.61526e-06
1.34467e-06
1.26523e-06
1.98736e-06
3.21198e-06
5.24423e-06
9.78919e-06
6.27331e-06
2.00746e-06
1.35595e-07
3.01378e-09
8.94e-07
1.73071e-06
2.54413e-06
3.42697e-06
4.52174e-06
5.97924e-06
7.94858e-06
1.05039e-05
1.35243e-05
1.67288e-05
1.98832e-05
2.29031e-05
2.57793e-05
2.84827e-05
3.09471e-05
3.30692e-05
3.46963e-05
3.56091e-05
3.54861e-05
3.37814e-05
2.97573e-05
2.32521e-05
1.56045e-05
8.93457e-06
4.42403e-06
1.9975e-06
1.11646e-06
1.35585e-06
2.46193e-06
4.64821e-06
9.33393e-06
6.61067e-06
2.08161e-06
1.40097e-07
3.57917e-09
1.03757e-06
1.92373e-06
2.77471e-06
3.71848e-06
4.90391e-06
6.48001e-06
8.57009e-06
1.1202e-05
1.42487e-05
1.74731e-05
2.06609e-05
2.36903e-05
2.64941e-05
2.90155e-05
3.11949e-05
3.29555e-05
3.41887e-05
3.47391e-05
3.44011e-05
3.28456e-05
2.96515e-05
2.48298e-05
1.90292e-05
1.30627e-05
7.72704e-06
3.86463e-06
1.76296e-06
1.12412e-06
1.57832e-06
3.21761e-06
7.44641e-06
7.21368e-06
2.18339e-06
1.54336e-07
4.25483e-09
1.06267e-06
1.95076e-06
2.84465e-06
3.88355e-06
5.22372e-06
7.01098e-06
9.33266e-06
1.21548e-05
1.53182e-05
1.86214e-05
2.18971e-05
2.50151e-05
2.78652e-05
3.03608e-05
3.24373e-05
3.40315e-05
3.50647e-05
3.542e-05
3.49171e-05
3.32335e-05
2.9995e-05
2.53217e-05
2.00696e-05
1.51571e-05
1.07262e-05
6.64491e-06
3.45347e-06
1.73289e-06
1.32873e-06
2.10986e-06
5.0014e-06
8.10531e-06
2.28283e-06
1.76475e-07
4.99609e-09
1.01405e-06
1.90091e-06
2.89175e-06
4.12548e-06
5.74081e-06
7.82349e-06
1.03602e-05
1.32491e-05
1.63635e-05
1.95886e-05
2.28039e-05
2.58746e-05
2.86738e-05
3.11038e-05
3.30927e-05
3.45715e-05
3.54617e-05
3.56642e-05
3.50301e-05
3.32847e-05
3.01064e-05
2.55845e-05
2.05465e-05
1.59693e-05
1.21341e-05
8.68991e-06
5.43303e-06
2.95377e-06
1.74592e-06
1.78131e-06
3.55044e-06
9.0224e-06
2.38107e-06
2.02967e-07
5.92074e-09
9.75929e-07
1.90311e-06
3.05459e-06
4.54313e-06
6.42993e-06
8.69441e-06
1.12644e-05
1.40762e-05
1.70826e-05
2.02124e-05
2.33477e-05
2.63494e-05
2.90939e-05
3.14879e-05
3.34582e-05
3.49209e-05
3.57664e-05
3.58478e-05
3.49381e-05
3.26614e-05
2.87481e-05
2.37018e-05
1.87893e-05
1.49115e-05
1.20235e-05
9.5328e-06
6.89986e-06
4.30108e-06
2.53003e-06
1.99358e-06
3.11502e-06
9.43155e-06
2.46511e-06
2.27666e-07
7.16832e-09
9.89591e-07
1.9961e-06
3.30099e-06
4.95246e-06
6.92382e-06
9.15768e-06
1.16279e-05
1.43426e-05
1.729e-05
2.03952e-05
2.35294e-05
2.65524e-05
2.9345e-05
3.18124e-05
3.38685e-05
3.54064e-05
3.62743e-05
3.62588e-05
3.50197e-05
3.20227e-05
2.70539e-05
2.11875e-05
1.61861e-05
1.28133e-05
1.07276e-05
9.1774e-06
7.43173e-06
5.26245e-06
3.3458e-06
2.48446e-06
3.35287e-06
9.93895e-06
2.49444e-06
2.44026e-07
8.689e-09
1.01248e-06
2.07347e-06
3.43907e-06
5.10541e-06
7.03249e-06
9.2071e-06
1.16578e-05
1.44081e-05
1.74195e-05
2.05806e-05
2.37487e-05
2.67973e-05
2.96292e-05
3.21634e-05
3.43095e-05
3.59386e-05
3.68409e-05
3.6682e-05
3.48899e-05
3.06699e-05
2.41812e-05
1.76089e-05
1.29478e-05
1.03566e-05
9.11549e-06
8.39034e-06
7.39226e-06
5.72625e-06
3.97594e-06
3.10552e-06
4.20177e-06
1.02973e-05
2.42106e-06
2.42496e-07
1.02014e-08
1.00543e-06
2.07972e-06
3.46185e-06
5.13855e-06
7.09102e-06
9.33173e-06
1.18884e-05
1.4754e-05
1.78523e-05
2.10571e-05
2.42402e-05
2.73009e-05
3.01626e-05
3.2753e-05
3.49777e-05
3.66861e-05
3.76111e-05
3.72636e-05
3.47351e-05
2.89605e-05
2.09601e-05
1.40957e-05
9.9685e-06
8.07645e-06
7.52617e-06
7.48293e-06
7.08071e-06
5.91283e-06
4.55107e-06
4.03069e-06
6.03801e-06
8.67184e-06
2.26839e-06
2.21573e-07
1.15722e-08
9.99862e-07
2.09616e-06
3.52353e-06
5.25975e-06
7.28236e-06
9.5993e-06
1.22322e-05
1.51694e-05
1.8335e-05
2.16067e-05
2.48584e-05
2.79851e-05
3.09018e-05
3.35262e-05
3.57535e-05
3.74166e-05
3.82114e-05
3.75524e-05
3.43225e-05
2.743e-05
1.86381e-05
1.17387e-05
7.88476e-06
6.31001e-06
6.14055e-06
6.58482e-06
6.70897e-06
6.09676e-06
5.28595e-06
5.42917e-06
8.95398e-06
6.98305e-06
2.13254e-06
1.95495e-07
1.25724e-08
1.00432e-06
2.11986e-06
3.56803e-06
5.31262e-06
7.33717e-06
9.67441e-06
1.23723e-05
1.54253e-05
1.87356e-05
2.21461e-05
2.55019e-05
2.86829e-05
3.15976e-05
3.41622e-05
3.62716e-05
3.77624e-05
3.83442e-05
3.74719e-05
3.41342e-05
2.73031e-05
1.84136e-05
1.11225e-05
6.89002e-06
5.08058e-06
4.87037e-06
5.55749e-06
6.22916e-06
6.31421e-06
6.19275e-06
7.16443e-06
1.15356e-05
6.24921e-06
2.06641e-06
1.78187e-07
1.29917e-08
9.89837e-07
2.08598e-06
3.50406e-06
5.22564e-06
7.27043e-06
9.69719e-06
1.25473e-05
1.57743e-05
1.92278e-05
2.27158e-05
2.60769e-05
2.92013e-05
3.20129e-05
3.44419e-05
3.63992e-05
3.77447e-05
3.82367e-05
3.74467e-05
3.46129e-05
2.87541e-05
2.03434e-05
1.23997e-05
7.18638e-06
4.60512e-06
3.88293e-06
4.40594e-06
5.41152e-06
6.22716e-06
6.90489e-06
8.67054e-06
1.2802e-05
6.1706e-06
2.081e-06
1.73715e-07
1.30316e-08
9.5864e-07
2.02608e-06
3.43692e-06
5.20268e-06
7.35735e-06
9.94262e-06
1.29578e-05
1.63086e-05
1.98142e-05
2.32803e-05
2.65606e-05
2.95637e-05
3.22295e-05
3.45032e-05
3.63147e-05
3.75545e-05
3.80406e-05
3.74574e-05
3.52465e-05
3.05827e-05
2.32473e-05
1.50828e-05
8.73132e-06
5.03063e-06
3.46207e-06
3.42621e-06
4.31239e-06
5.57525e-06
7.01421e-06
9.48912e-06
1.34152e-05
6.43759e-06
2.15402e-06
1.79483e-07
1.30192e-08
9.44747e-07
2.01714e-06
3.47343e-06
5.33258e-06
7.61215e-06
1.03239e-05
1.34391e-05
1.68458e-05
2.03606e-05
2.37987e-05
2.70262e-05
2.99615e-05
3.25528e-05
3.47545e-05
3.65099e-05
3.77323e-05
3.82855e-05
3.79367e-05
3.62581e-05
3.25615e-05
2.63382e-05
1.84574e-05
1.12584e-05
6.36327e-06
3.78586e-06
2.97152e-06
3.35246e-06
4.52784e-06
6.32093e-06
9.3158e-06
1.3647e-05
6.84965e-06
2.25203e-06
1.91438e-07
1.31713e-08
9.60923e-07
2.06473e-06
3.57389e-06
5.49736e-06
7.83633e-06
1.05955e-05
1.37503e-05
1.71941e-05
2.07449e-05
2.42163e-05
2.74715e-05
3.04278e-05
3.30343e-05
3.52497e-05
3.70255e-05
3.829e-05
3.8934e-05
3.8774e-05
3.74589e-05
3.43813e-05
2.89453e-05
2.14988e-05
1.39076e-05
8.10082e-06
4.61283e-06
3.05043e-06
2.8504e-06
3.63135e-06
5.30675e-06
8.45028e-06
1.35188e-05
7.22568e-06
2.33834e-06
2.04941e-07
1.33801e-08
9.79909e-07
2.10559e-06
3.63619e-06
5.57394e-06
7.92236e-06
1.06996e-05
1.38924e-05
1.73899e-05
2.09967e-05
2.45165e-05
2.78117e-05
3.08032e-05
3.34454e-05
3.57024e-05
3.75321e-05
3.88733e-05
3.96378e-05
3.96779e-05
3.86951e-05
3.61401e-05
3.13437e-05
2.42791e-05
1.64221e-05
9.87462e-06
5.61125e-06
3.42082e-06
2.72915e-06
3.09307e-06
4.44188e-06
7.40244e-06
1.31205e-05
7.47662e-06
2.3927e-06
2.16035e-07
1.37201e-08
9.98177e-07
2.14321e-06
3.69319e-06
5.65266e-06
8.03636e-06
1.08714e-05
1.41369e-05
1.77005e-05
2.1351e-05
2.48936e-05
2.82011e-05
3.12048e-05
3.38653e-05
3.61493e-05
3.80144e-05
3.94036e-05
4.02382e-05
4.03765e-05
3.9552e-05
3.72875e-05
3.29391e-05
2.62862e-05
1.84225e-05
1.13987e-05
6.53351e-06
3.85268e-06
2.80034e-06
2.8523e-06
3.90606e-06
6.61147e-06
1.27135e-05
7.56242e-06
2.41249e-06
2.21952e-07
1.41365e-08
1.0185e-06
2.18324e-06
3.75079e-06
5.731e-06
8.14972e-06
1.10377e-05
1.43653e-05
1.79882e-05
2.16903e-05
2.52792e-05
2.86324e-05
3.16846e-05
3.43982e-05
3.67393e-05
3.86626e-05
4.01128e-05
4.10129e-05
4.12073e-05
4.04441e-05
3.83045e-05
3.42204e-05
2.78907e-05
2.00999e-05
1.27371e-05
7.35843e-06
4.24857e-06
2.90807e-06
2.7428e-06
3.59497e-06
6.10939e-06
1.24266e-05
7.51405e-06
2.40696e-06
2.22692e-07
1.45359e-08
1.03303e-06
2.20487e-06
3.77214e-06
5.75508e-06
8.19123e-06
1.11172e-05
1.45011e-05
1.81881e-05
2.19514e-05
2.55948e-05
2.89999e-05
3.2108e-05
3.48866e-05
3.73025e-05
3.93123e-05
4.08611e-05
4.18485e-05
4.20915e-05
4.13358e-05
3.92214e-05
3.53022e-05
2.93058e-05
2.17461e-05
1.41907e-05
8.30936e-06
4.71359e-06
3.04432e-06
2.66824e-06
3.36371e-06
5.73222e-06
1.21456e-05
7.42648e-06
2.39349e-06
2.20541e-07
1.47972e-08
1.0354e-06
2.20084e-06
3.75918e-06
5.74404e-06
8.20199e-06
1.11709e-05
1.4608e-05
1.83374e-05
2.21195e-05
2.57641e-05
2.91698e-05
3.22957e-05
3.51208e-05
3.76161e-05
3.97439e-05
4.14473e-05
4.25934e-05
4.29641e-05
4.22836e-05
4.02233e-05
3.64557e-05
3.07932e-05
2.35785e-05
1.59899e-05
9.62191e-06
5.42419e-06
3.29828e-06
2.62382e-06
3.11622e-06
5.29277e-06
1.16505e-05
7.38887e-06
2.38571e-06
2.18443e-07
1.49718e-08
1.03301e-06
2.19019e-06
3.74589e-06
5.74717e-06
8.24427e-06
1.12644e-05
1.47367e-05
1.84549e-05
2.21746e-05
2.5731e-05
2.90584e-05
3.21448e-05
3.49872e-05
3.75679e-05
3.98541e-05
4.17736e-05
4.31605e-05
4.37586e-05
4.32552e-05
4.13178e-05
3.77024e-05
3.23628e-05
2.5587e-05
1.81841e-05
1.1459e-05
6.57745e-06
3.82765e-06
2.70474e-06
2.8665e-06
4.70061e-06
1.0724e-05
7.44827e-06
2.38719e-06
2.17901e-07
1.51826e-08
1.03206e-06
2.1891e-06
3.76212e-06
5.8107e-06
8.38082e-06
1.1469e-05
1.49547e-05
1.85984e-05
2.21719e-05
2.5562e-05
2.87547e-05
3.17752e-05
3.46404e-05
3.73479e-05
3.98715e-05
4.21118e-05
4.38701e-05
4.48472e-05
4.46733e-05
4.29554e-05
3.94496e-05
3.42427e-05
2.77259e-05
2.05623e-05
1.3701e-05
8.22811e-06
4.76455e-06
3.05487e-06
2.7522e-06
4.08168e-06
9.36953e-06
7.60663e-06
2.39011e-06
2.18892e-07
1.56867e-08
1.04966e-06
2.23597e-06
3.87141e-06
6.02543e-06
8.72512e-06
1.19037e-05
1.53681e-05
1.8863e-05
2.22154e-05
2.53871e-05
2.84193e-05
3.13678e-05
3.42629e-05
3.71139e-05
3.99034e-05
4.25131e-05
4.47198e-05
4.61893e-05
4.64939e-05
4.51526e-05
4.18368e-05
3.66477e-05
3.01558e-05
2.30751e-05
1.61671e-05
1.02857e-05
6.14495e-06
3.77428e-06
2.92383e-06
3.67941e-06
7.97821e-06
7.91598e-06
2.39726e-06
2.19969e-07
1.67261e-08
1.10069e-06
2.35215e-06
4.09159e-06
6.39573e-06
9.25371e-06
1.25045e-05
1.58873e-05
1.91794e-05
2.22965e-05
2.52718e-05
2.8183e-05
3.10991e-05
3.40565e-05
3.70704e-05
4.01211e-05
4.30831e-05
4.57184e-05
4.76651e-05
4.84457e-05
4.74969e-05
4.43969e-05
3.92134e-05
3.26092e-05
2.54871e-05
1.8572e-05
1.24996e-05
7.85556e-06
4.86246e-06
3.45361e-06
3.67211e-06
7.08865e-06
8.45528e-06
2.42531e-06
2.20079e-07
1.82124e-08
1.16439e-06
2.48592e-06
4.33113e-06
6.78165e-06
9.77048e-06
1.30366e-05
1.62917e-05
1.93828e-05
2.23044e-05
2.51332e-05
2.7965e-05
3.08758e-05
3.39072e-05
3.70797e-05
4.03759e-05
4.36732e-05
4.67189e-05
4.91209e-05
5.0346e-05
4.9745e-05
4.68079e-05
4.15814e-05
3.48168e-05
2.75617e-05
2.06455e-05
1.45633e-05
9.6636e-06
6.20504e-06
4.30601e-06
4.08663e-06
6.93298e-06
9.3089e-06
2.50043e-06
2.18587e-07
1.98066e-08
1.21232e-06
2.58591e-06
4.52052e-06
7.09589e-06
1.01744e-05
1.34109e-05
1.65266e-05
1.94349e-05
2.218e-05
2.4863e-05
2.75946e-05
3.04638e-05
3.35207e-05
3.67946e-05
4.02801e-05
4.3863e-05
4.72862e-05
5.01271e-05
5.17892e-05
5.15263e-05
4.87361e-05
4.34498e-05
3.65121e-05
2.91131e-05
2.2179e-05
1.61898e-05
1.12831e-05
7.61153e-06
5.38566e-06
4.87957e-06
7.51482e-06
1.03711e-05
2.62344e-06
2.16121e-07
2.12205e-08
1.23767e-06
2.64385e-06
4.64891e-06
7.32069e-06
1.0448e-05
1.3624e-05
1.65904e-05
1.93064e-05
2.18486e-05
2.43441e-05
2.69277e-05
2.97073e-05
3.27402e-05
3.60574e-05
3.96609e-05
4.34423e-05
4.71503e-05
5.03442e-05
5.23776e-05
5.24226e-05
4.98039e-05
4.45498e-05
3.75764e-05
3.0163e-05
2.32919e-05
1.74218e-05
1.26141e-05
8.92247e-06
6.55975e-06
5.94722e-06
8.68587e-06
1.14553e-05
2.77878e-06
2.13932e-07
2.21397e-08
1.23691e-06
2.65099e-06
4.69516e-06
7.43139e-06
1.06001e-05
1.37335e-05
1.65579e-05
1.90574e-05
2.13529e-05
2.36217e-05
2.60396e-05
2.87342e-05
3.17589e-05
3.51288e-05
3.88356e-05
4.27651e-05
4.66685e-05
5.00922e-05
5.2353e-05
5.25611e-05
4.99993e-05
4.47335e-05
3.7774e-05
3.04694e-05
2.38088e-05
1.81887e-05
1.36067e-05
1.00646e-05
7.75092e-06
7.223e-06
1.03299e-05
1.22656e-05
2.93003e-06
2.13056e-07
2.27082e-08
1.22151e-06
2.63471e-06
4.71704e-06
7.55156e-06
1.0839e-05
1.39852e-05
1.66536e-05
1.88804e-05
2.08802e-05
2.29159e-05
2.52151e-05
2.79119e-05
3.10332e-05
3.45516e-05
3.84252e-05
4.25187e-05
4.65798e-05
5.01462e-05
5.25094e-05
5.27381e-05
5.01008e-05
4.47244e-05
3.77216e-05
3.05003e-05
2.40346e-05
1.86575e-05
1.43292e-05
1.10101e-05
8.88104e-06
8.6015e-06
1.22357e-05
1.27534e-05
3.05939e-06
2.14425e-07
2.35717e-08
1.22292e-06
2.66844e-06
4.85609e-06
7.90156e-06
1.13981e-05
1.45282e-05
1.6934e-05
1.87963e-05
2.04698e-05
2.23121e-05
2.45919e-05
2.74314e-05
3.08092e-05
3.46298e-05
3.87888e-05
4.3109e-05
4.73101e-05
5.09211e-05
5.32081e-05
5.32213e-05
5.02697e-05
4.46023e-05
3.746e-05
3.02917e-05
2.40184e-05
1.88983e-05
1.48525e-05
1.18082e-05
9.94526e-06
1.00376e-05
1.42672e-05
1.29114e-05
3.15222e-06
2.18066e-07
2.5145e-08
1.26145e-06
2.79288e-06
5.17534e-06
8.53377e-06
1.22267e-05
1.51822e-05
1.71752e-05
1.86066e-05
1.99627e-05
2.16652e-05
2.39974e-05
2.70605e-05
3.07883e-05
3.50169e-05
3.95665e-05
4.42009e-05
4.85866e-05
5.22218e-05
5.43422e-05
5.40069e-05
5.06162e-05
4.45737e-05
3.72335e-05
3.00564e-05
2.39061e-05
1.89955e-05
1.52163e-05
1.24657e-05
1.09241e-05
1.14604e-05
1.62399e-05
1.28592e-05
3.21315e-06
2.23608e-07
2.73423e-08
1.33142e-06
2.98824e-06
5.62871e-06
9.34528e-06
1.31349e-05
1.57474e-05
1.72484e-05
1.82584e-05
1.93545e-05
2.09791e-05
2.33964e-05
2.66775e-05
3.07238e-05
3.53288e-05
4.02597e-05
4.52303e-05
4.9841e-05
5.3517e-05
5.54429e-05
5.46926e-05
5.08088e-05
4.43904e-05
3.68855e-05
2.97192e-05
2.36868e-05
1.89741e-05
1.54588e-05
1.30191e-05
1.18431e-05
1.28787e-05
1.80873e-05
1.26455e-05
3.2454e-06
2.30326e-07
2.9662e-08
1.40622e-06
3.19437e-06
6.1138e-06
1.01948e-05
1.39903e-05
1.61746e-05
1.71769e-05
1.78128e-05
1.87239e-05
2.03384e-05
2.28705e-05
2.6342e-05
3.06201e-05
3.54758e-05
4.06601e-05
4.58705e-05
5.06668e-05
5.44025e-05
5.61972e-05
5.51193e-05
5.08369e-05
4.41228e-05
3.64946e-05
2.93357e-05
2.33978e-05
1.88596e-05
1.55942e-05
1.34703e-05
1.26906e-05
1.42598e-05
1.97035e-05
1.2363e-05
3.25927e-06
2.37756e-07
3.15554e-08
1.46344e-06
3.36546e-06
6.55535e-06
1.09953e-05
1.47436e-05
1.6448e-05
1.69215e-05
1.71769e-05
1.79132e-05
1.95295e-05
2.218e-05
2.58283e-05
3.02956e-05
3.53256e-05
4.06611e-05
4.59967e-05
5.08789e-05
5.46266e-05
5.63256e-05
5.50486e-05
5.05504e-05
4.37019e-05
3.60367e-05
2.89016e-05
2.30418e-05
1.86557e-05
1.56288e-05
1.38287e-05
1.34759e-05
1.56015e-05
2.10494e-05
1.20372e-05
3.25993e-06
2.45531e-07
3.31059e-08
1.51086e-06
3.51688e-06
6.97208e-06
1.17658e-05
1.53914e-05
1.6529e-05
1.64265e-05
1.62901e-05
1.68384e-05
1.84185e-05
2.11398e-05
2.49351e-05
2.95923e-05
3.48199e-05
4.03318e-05
4.57998e-05
5.07536e-05
5.44995e-05
5.61312e-05
5.47605e-05
5.02048e-05
4.33561e-05
3.57081e-05
2.85793e-05
2.27411e-05
1.84402e-05
1.55952e-05
1.40865e-05
1.41505e-05
1.68051e-05
2.20559e-05