/*--------------------------------*- C++ -*----------------------------------*\
| =========                 |                                                 |
| \\      /  F ield         | OpenFOAM: The Open Source CFD Toolbox           |
|  \\    /   O peration     | Version:  v2006                                 |
|   \\  /    A nd           | Website:  www.openfoam.com                      |
|    \\/     M anipulation  |                                                 |
\*---------------------------------------------------------------------------*/
FoamFile
{
    version     2.0;
    format      ascii;
    class       volScalarField;
    location    "29";
    object      nut;
}
// * * * * * * * * * * * * * * * * * * * * * * * * * * * * * * * * * * * * * //

dimensions      [0 2 -1 0 0 0 0];


internalField   nonuniform List<scalar> 
78750
(
1.5218e-07
5.26892e-06
5.4034e-06
5.36744e-06
5.20586e-06
4.98882e-06
4.75964e-06
4.53866e-06
4.33377e-06
4.14689e-06
3.97758e-06
3.82475e-06
3.68733e-06
3.5641e-06
3.45358e-06
3.3541e-06
3.26383e-06
3.18108e-06
3.10412e-06
3.03111e-06
2.95984e-06
2.88766e-06
2.81164e-06
2.72898e-06
2.63656e-06
2.52947e-06
2.40417e-06
2.256e-06
2.07758e-06
1.86125e-06
1.60024e-06
1.2867e-06
9.22941e-07
5.48585e-07
8.03551e-09
2.3271e-08
3.9938e-06
7.9958e-06
1.35248e-05
1.80416e-05
2.0541e-05
2.23188e-05
2.37017e-05
2.45772e-05
2.50531e-05
2.52741e-05
2.49519e-05
2.46671e-05
2.44197e-05
2.42036e-05
2.40065e-05
2.38068e-05
2.34886e-05
2.32369e-05
2.30616e-05
2.29627e-05
2.27404e-05
2.24168e-05
2.20214e-05
2.15394e-05
2.09514e-05
2.02371e-05
1.93717e-05
1.69284e-05
1.27836e-05
8.94413e-06
6.42784e-06
5.5936e-06
4.18714e-06
1.98985e-08
3.31954e-08
4.19301e-06
7.69424e-06
8.32394e-06
8.64142e-06
9.48552e-06
1.13189e-05
1.45657e-05
1.58247e-05
1.57058e-05
1.56557e-05
1.5656e-05
1.56953e-05
1.57689e-05
1.58713e-05
1.5998e-05
1.61448e-05
1.63083e-05
1.64849e-05
1.66702e-05
1.68586e-05
1.70427e-05
1.72121e-05
1.73491e-05
1.74378e-05
1.74566e-05
1.7376e-05
1.71574e-05
1.45533e-05
1.10441e-05
8.53118e-06
7.39406e-06
8.3155e-06
3.54829e-06
2.56659e-08
2.43021e-08
4.44762e-06
1.23969e-05
1.07108e-05
9.33339e-06
9.23401e-06
1.0706e-05
1.34516e-05
1.29936e-05
1.25661e-05
1.21916e-05
1.1879e-05
1.16361e-05
1.14651e-05
1.13652e-05
1.13335e-05
1.13662e-05
1.14601e-05
1.16123e-05
1.18206e-05
1.20831e-05
1.23966e-05
1.27553e-05
1.31479e-05
1.3558e-05
1.39588e-05
1.43024e-05
1.31097e-05
1.02459e-05
7.96198e-06
6.51567e-06
6.22984e-06
8.37808e-06
3.36359e-06
2.90433e-08
2.10097e-08
2.74683e-06
1.03595e-05
1.18239e-05
1.01553e-05
8.82017e-06
8.2622e-06
8.23727e-06
8.63161e-06
9.14864e-06
8.24514e-06
7.45104e-06
6.81032e-06
6.33071e-06
5.99917e-06
5.79581e-06
5.70204e-06
5.70463e-06
5.79766e-06
5.98294e-06
6.2696e-06
6.67246e-06
7.2088e-06
7.89282e-06
8.72695e-06
8.69841e-06
8.01702e-06
7.37415e-06
6.73713e-06
6.15604e-06
5.88833e-06
6.59517e-06
1.00447e-05
2.72371e-06
3.31612e-08
1.53585e-08
2.26864e-06
8.71183e-06
1.00567e-05
8.98875e-06
7.00006e-06
5.85379e-06
5.13169e-06
4.60607e-06
4.21652e-06
3.98527e-06
3.93746e-06
4.04866e-06
3.78417e-06
3.57458e-06
3.46441e-06
3.39832e-06
3.33051e-06
3.22895e-06
3.07752e-06
2.87902e-06
2.66083e-06
2.48294e-06
2.44366e-06
2.40194e-06
2.32892e-06
2.46384e-06
2.75077e-06
3.10349e-06
3.45045e-06
3.87833e-06
4.95559e-06
8.85382e-06
2.53664e-06
3.51907e-08
1.24738e-08
1.88151e-06
7.42228e-06
8.66548e-06
8.70098e-06
6.32825e-06
4.74644e-06
3.65718e-06
2.89525e-06
2.42972e-06
2.28584e-06
2.5034e-06
3.08758e-06
3.97185e-06
5.01627e-06
5.62259e-06
6.13738e-06
6.5168e-06
6.73339e-06
6.76876e-06
6.6081e-06
6.23965e-06
5.66055e-06
4.38493e-06
3.04705e-06
1.96929e-06
1.35693e-06
1.25804e-06
1.5379e-06
2.03778e-06
2.73803e-06
4.07036e-06
7.91349e-06
2.17822e-06
3.92388e-08
1.02314e-08
1.65895e-06
6.20814e-06
7.17115e-06
6.02129e-06
3.96937e-06
2.76606e-06
2.05642e-06
1.71657e-06
1.75208e-06
2.20418e-06
3.09429e-06
4.4034e-06
6.06909e-06
7.73887e-06
8.44094e-06
8.9866e-06
9.37598e-06
9.61122e-06
9.69074e-06
9.60658e-06
9.3437e-06
8.88122e-06
7.58846e-06
5.46161e-06
3.56983e-06
2.15677e-06
1.33397e-06
1.08357e-06
1.27166e-06
1.79423e-06
2.90919e-06
6.43618e-06
1.96369e-06
4.25629e-08
9.00895e-09
1.40069e-06
5.15649e-06
5.86195e-06
4.20658e-06
2.6716e-06
1.85319e-06
1.48004e-06
1.49323e-06
1.90975e-06
2.74793e-06
4.00791e-06
5.66724e-06
7.61613e-06
8.74745e-06
9.35698e-06
9.83217e-06
1.01766e-05
1.03908e-05
1.04707e-05
1.04072e-05
1.01863e-05
9.78961e-06
8.34579e-06
6.06598e-06
4.05461e-06
2.50533e-06
1.49963e-06
1.03457e-06
1.02995e-06
1.41992e-06
2.43291e-06
5.77788e-06
1.7515e-06
4.67932e-08
7.98231e-09
1.21012e-06
4.25516e-06
4.75464e-06
2.82493e-06
1.82357e-06
1.39044e-06
1.34511e-06
1.67024e-06
2.38041e-06
3.4789e-06
4.94138e-06
6.71023e-06
8.66438e-06
1.01511e-05
1.08042e-05
1.13279e-05
1.17185e-05
1.19703e-05
1.20749e-05
1.20208e-05
1.17936e-05
1.13151e-05
8.99056e-06
6.59048e-06
4.4745e-06
2.81056e-06
1.67876e-06
1.07572e-06
9.24812e-07
1.17165e-06
2.02518e-06
5.2565e-06
1.63146e-06
5.04841e-08
7.04643e-09
1.06267e-06
3.63662e-06
4.08063e-06
2.39069e-06
1.62724e-06
1.36439e-06
1.45522e-06
1.8924e-06
2.69147e-06
3.86488e-06
5.41394e-06
7.32157e-06
9.49079e-06
1.10922e-05
1.18489e-05
1.24708e-05
1.29506e-05
1.32792e-05
1.3445e-05
1.34324e-05
1.32231e-05
1.25335e-05
9.79354e-06
7.06181e-06
4.73796e-06
2.95925e-06
1.7625e-06
1.11108e-06
9.05193e-07
1.09049e-06
1.89396e-06
5.14656e-06
1.52633e-06
5.3865e-08
5.76022e-09
9.95223e-07
3.18943e-06
3.65135e-06
2.23683e-06
1.58765e-06
1.39688e-06
1.53522e-06
2.00386e-06
2.83408e-06
4.06664e-06
5.73393e-06
7.83939e-06
1.0284e-05
1.22376e-05
1.31057e-05
1.38334e-05
1.44148e-05
1.48416e-05
1.51008e-05
1.51738e-05
1.50368e-05
1.41842e-05
1.11307e-05
8.04137e-06
5.39667e-06
3.36689e-06
1.98922e-06
1.215e-06
9.24089e-07
1.03632e-06
1.76375e-06
5.00056e-06
1.46836e-06
5.59746e-08
4.44807e-09
9.81825e-07
2.84173e-06
3.34716e-06
2.32967e-06
1.69467e-06
1.50661e-06
1.64751e-06
2.12178e-06
2.96692e-06
4.23061e-06
5.9544e-06
8.16337e-06
1.0793e-05
1.29256e-05
1.38399e-05
1.4623e-05
1.5274e-05
1.57859e-05
1.61449e-05
1.633e-05
1.63127e-05
1.58503e-05
1.246e-05
9.04594e-06
6.14117e-06
3.8897e-06
2.3238e-06
1.40529e-06
1.013e-06
1.05211e-06
1.72445e-06
4.94279e-06
1.42769e-06
5.77903e-08
3.50193e-09
1.04203e-06
2.56793e-06
3.09723e-06
2.26804e-06
1.74076e-06
1.64213e-06
1.88548e-06
2.47146e-06
3.42584e-06
4.77358e-06
6.52954e-06
8.7035e-06
1.12602e-05
1.35046e-05
1.43861e-05
1.51649e-05
1.58387e-05
1.63989e-05
1.68293e-05
1.7107e-05
1.72019e-05
1.6803e-05
1.33083e-05
9.80032e-06
6.8169e-06
4.46313e-06
2.76073e-06
1.69639e-06
1.18007e-06
1.12027e-06
1.70605e-06
4.89952e-06
1.42311e-06
5.95804e-08
3.00899e-09
1.10102e-06
2.39823e-06
2.96057e-06
2.30869e-06
1.89015e-06
1.8903e-06
2.22869e-06
2.88509e-06
3.85627e-06
5.14023e-06
6.74637e-06
8.71631e-06
1.10908e-05
1.34214e-05
1.4313e-05
1.5126e-05
1.58516e-05
1.6476e-05
1.69806e-05
1.73404e-05
1.75256e-05
1.68891e-05
1.33398e-05
9.86941e-06
6.97782e-06
4.71359e-06
3.04863e-06
1.9628e-06
1.38651e-06
1.25971e-06
1.79814e-06
5.04855e-06
1.43512e-06
6.20043e-08
2.54142e-09
1.18005e-06
2.28684e-06
2.88735e-06
2.42225e-06
2.05387e-06
2.083e-06
2.41444e-06
3.0091e-06
3.85825e-06
4.97665e-06
6.41114e-06
8.24159e-06
1.0545e-05
1.31804e-05
1.41457e-05
1.50312e-05
1.58268e-05
1.65193e-05
1.70907e-05
1.75169e-05
1.77694e-05
1.66371e-05
1.31363e-05
9.73809e-06
6.92572e-06
4.75343e-06
3.17297e-06
2.13759e-06
1.56637e-06
1.4179e-06
1.94854e-06
5.32181e-06
1.46526e-06
6.48911e-08
1.92093e-09
1.28746e-06
2.11355e-06
2.71802e-06
2.61692e-06
2.1999e-06
2.15178e-06
2.37159e-06
2.82379e-06
3.5179e-06
4.49289e-06
5.81243e-06
7.56222e-06
9.82728e-06
1.25311e-05
1.39724e-05
1.49048e-05
1.57405e-05
1.64708e-05
1.70804e-05
1.75472e-05
1.78435e-05
1.64167e-05
1.28869e-05
9.51965e-06
6.75955e-06
4.6547e-06
3.15584e-06
2.20384e-06
1.68909e-06
1.57437e-06
2.16456e-06
5.68376e-06
1.48948e-06
6.83412e-08
1.37491e-09
1.13426e-06
1.91174e-06
2.50037e-06
2.62713e-06
2.23882e-06
2.1804e-06
2.37649e-06
2.81079e-06
3.50179e-06
4.48479e-06
5.80623e-06
7.52492e-06
9.70463e-06
1.23104e-05
1.41451e-05
1.50364e-05
1.58397e-05
1.65496e-05
1.7151e-05
1.76228e-05
1.79366e-05
1.62208e-05
1.26578e-05
9.35337e-06
6.65948e-06
4.59799e-06
3.13589e-06
2.22978e-06
1.76075e-06
1.69334e-06
2.36972e-06
5.97838e-06
1.51073e-06
7.22124e-08
1.1057e-09
1.03105e-06
1.7694e-06
2.35312e-06
2.55818e-06
2.26842e-06
2.2823e-06
2.55087e-06
3.063e-06
3.82684e-06
4.85486e-06
6.16117e-06
7.77291e-06
9.74396e-06
1.21027e-05
1.41242e-05
1.4951e-05
1.57109e-05
1.63944e-05
1.69842e-05
1.74581e-05
1.77872e-05
1.54184e-05
1.19112e-05
8.8536e-06
6.38935e-06
4.47573e-06
3.09685e-06
2.24561e-06
1.81646e-06
1.79614e-06
2.57332e-06
6.15803e-06
1.51668e-06
7.57679e-08
9.84336e-10
9.77656e-07
1.70119e-06
2.3029e-06
2.52096e-06
2.33746e-06
2.437e-06
2.77731e-06
3.3389e-06
4.11033e-06
5.07894e-06
6.23938e-06
7.61916e-06
9.29904e-06
1.13932e-05
1.38202e-05
1.46247e-05
1.53731e-05
1.60513e-05
1.66423e-05
1.71264e-05
1.74237e-05
1.4069e-05
1.08272e-05
8.17925e-06
6.0455e-06
4.34106e-06
3.07127e-06
2.27229e-06
1.86999e-06
1.8843e-06
2.75338e-06
6.26096e-06
1.52216e-06
7.84912e-08
8.77604e-10
9.39114e-07
1.65377e-06
2.26774e-06
2.55014e-06
2.41593e-06
2.54422e-06
2.88726e-06
3.41283e-06
4.09468e-06
4.91053e-06
5.85883e-06
6.98292e-06
8.3867e-06
1.02232e-05
1.25599e-05
1.40615e-05
1.48041e-05
1.54737e-05
1.60567e-05
1.65376e-05
1.56286e-05
1.23598e-05
9.53472e-06
7.35359e-06
5.61667e-06
4.19094e-06
3.077e-06
2.34211e-06
1.95671e-06
1.98642e-06
2.92295e-06
6.34027e-06
1.53025e-06
8.02041e-08
7.4446e-10
8.90263e-07
1.585e-06
2.1913e-06
2.58996e-06
2.4672e-06
2.57904e-06
2.87547e-06
3.31643e-06
3.87008e-06
4.51488e-06
5.25474e-06
6.13785e-06
7.27113e-06
8.82161e-06
1.09585e-05
1.34174e-05
1.41441e-05
1.4791e-05
1.53485e-05
1.58062e-05
1.37578e-05
1.06447e-05
8.21917e-06
6.45812e-06
5.10167e-06
3.9814e-06
3.07161e-06
2.4355e-06
2.08151e-06
2.12635e-06
3.12528e-06
6.52601e-06
1.5581e-06
8.15455e-08
6.04217e-10
8.2284e-07
1.48091e-06
2.0621e-06
2.61368e-06
2.51336e-06
2.58472e-06
2.80591e-06
3.13579e-06
3.54248e-06
4.00869e-06
4.54398e-06
5.19771e-06
6.07048e-06
7.3253e-06
9.17601e-06
1.17062e-05
1.33329e-05
1.39391e-05
1.44501e-05
1.48615e-05
1.19493e-05
9.02445e-06
6.93927e-06
5.52428e-06
4.49955e-06
3.68155e-06
3.01139e-06
2.51899e-06
2.22784e-06
2.30117e-06
3.36642e-06
6.7794e-06
1.59914e-06
8.27983e-08
4.97614e-10
7.5292e-07
1.3707e-06
1.92724e-06
2.45876e-06
2.53871e-06
2.57251e-06
2.71478e-06
2.93258e-06
3.19874e-06
3.50424e-06
3.86769e-06
4.34179e-06
5.01887e-06
6.04166e-06
7.60888e-06
9.88664e-06
1.24884e-05
1.30152e-05
1.34323e-05
1.32532e-05
1.01688e-05
7.50713e-06
5.72482e-06
4.58743e-06
3.82782e-06
3.27275e-06
2.84644e-06
2.53884e-06
2.36078e-06
2.50479e-06
3.68072e-06
7.08359e-06
1.65415e-06
8.45748e-08
4.5662e-10
6.91571e-07
1.27094e-06
1.80171e-06
2.30603e-06
2.51078e-06
2.49752e-06
2.54634e-06
2.63946e-06
2.76473e-06
2.93218e-06
3.17704e-06
3.55789e-06
4.158e-06
5.09654e-06
6.53729e-06
8.6152e-06
1.1085e-05
1.21898e-05
1.24151e-05
1.11444e-05
8.36573e-06
6.07022e-06
4.57667e-06
3.66796e-06
3.11591e-06
2.77411e-06
2.56828e-06
2.46002e-06
2.43256e-06
2.6856e-06
4.0028e-06
7.29922e-06
1.70447e-06
8.6599e-08
4.87662e-10
6.45094e-07
1.18707e-06
1.68563e-06
2.15014e-06
2.30848e-06
2.23856e-06
2.19756e-06
2.19722e-06
2.25722e-06
2.41294e-06
2.71043e-06
3.20525e-06
3.97017e-06
5.10524e-06
6.71558e-06
8.76121e-06
1.07517e-05
1.17871e-05
1.12359e-05
9.27007e-06
6.85053e-06
4.88714e-06
3.60224e-06
2.84413e-06
2.42722e-06
2.22873e-06
2.18796e-06
2.26293e-06
2.41092e-06
2.81422e-06
4.30586e-06
7.44253e-06
1.75583e-06
8.99142e-08
5.62972e-10
6.18227e-07
1.12976e-06
1.5989e-06
2.01138e-06
1.92671e-06
1.83332e-06
1.79246e-06
1.85235e-06
2.05647e-06
2.44597e-06
3.06633e-06
3.97639e-06
5.25039e-06
6.94541e-06
8.97762e-06
1.0934e-05
1.21522e-05
1.21715e-05
1.094e-05
8.77736e-06
6.35761e-06
4.34194e-06
2.98539e-06
2.213e-06
1.83993e-06
1.71416e-06
1.76398e-06
1.95867e-06
2.25256e-06
2.79543e-06
4.40682e-06
7.50091e-06
1.80222e-06
9.57572e-08
6.61819e-10
6.29717e-07
1.14965e-06
1.54601e-06
1.61228e-06
1.60139e-06
1.64205e-06
1.81833e-06
2.18521e-06
2.78948e-06
3.68422e-06
4.93393e-06
6.60154e-06
8.69247e-06
1.1039e-05
1.32282e-05
1.47625e-05
1.53112e-05
1.47441e-05
1.3064e-05
1.04765e-05
7.53691e-06
4.93666e-06
3.06354e-06
1.94908e-06
1.4309e-06
1.2886e-06
1.36857e-06
1.61474e-06
1.99388e-06
2.63702e-06
4.31287e-06
7.54578e-06
1.85067e-06
1.06227e-07
8.8199e-10
6.5733e-07
1.08728e-06
1.33518e-06
1.4931e-06
1.68435e-06
2.01398e-06
2.55751e-06
3.38213e-06
4.56243e-06
6.18222e-06
8.30913e-06
1.09174e-05
1.37828e-05
1.64885e-05
1.86161e-05
1.99006e-05
2.01921e-05
1.93644e-05
1.73046e-05
1.40628e-05
1.01907e-05
6.62335e-06
3.95639e-06
2.25401e-06
1.35678e-06
1.04237e-06
1.08122e-06
1.32642e-06
1.71791e-06
2.37623e-06
4.02123e-06
7.58409e-06
1.88992e-06
1.20337e-07
1.31444e-09
7.83055e-07
1.18286e-06
1.41749e-06
1.68865e-06
2.08877e-06
2.69525e-06
3.58998e-06
4.87552e-06
6.68783e-06
9.17375e-06
1.23766e-05
1.60543e-05
1.96805e-05
2.27569e-05
2.50219e-05
2.63533e-05
2.66151e-05
2.5608e-05
2.30679e-05
1.8871e-05
1.36525e-05
8.80289e-06
5.22896e-06
2.93852e-06
1.63352e-06
1.04897e-06
9.61176e-07
1.16874e-06
1.54765e-06
2.19387e-06
3.82011e-06
7.63447e-06
1.90997e-06
1.35208e-07
1.57835e-09
1.07816e-06
1.42327e-06
1.60466e-06
1.91656e-06
2.41231e-06
3.1563e-06
4.25198e-06
5.85709e-06
8.16633e-06
1.13039e-05
1.51426e-05
1.92663e-05
2.32044e-05
2.66177e-05
2.92715e-05
3.09582e-05
3.14515e-05
3.04923e-05
2.76858e-05
2.26942e-05
1.6257e-05
1.03341e-05
6.12152e-06
3.50237e-06
1.99855e-06
1.25095e-06
1.03817e-06
1.17251e-06
1.5117e-06
2.13905e-06
3.81023e-06
7.69908e-06
1.90623e-06
1.4678e-07
1.23408e-09
1.34016e-06
1.57888e-06
1.69321e-06
1.95873e-06
2.4145e-06
3.11761e-06
4.16005e-06
5.65016e-06
7.67991e-06
1.03125e-05
1.35519e-05
1.72475e-05
2.1049e-05
2.45227e-05
2.73385e-05
2.92905e-05
3.02002e-05
2.98199e-05
2.76344e-05
2.29629e-05
1.6359e-05
1.02056e-05
5.9667e-06
3.44066e-06
2.05291e-06
1.39057e-06
1.21793e-06
1.34646e-06
1.66575e-06
2.31312e-06
4.21407e-06
7.48716e-06
1.86594e-06
1.50516e-07
8.51919e-10
1.1111e-06
1.45227e-06
1.59937e-06
1.8102e-06
2.16734e-06
2.72693e-06
3.5528e-06
4.72215e-06
6.33848e-06
8.52862e-06
1.13641e-05
1.47092e-05
1.81748e-05
2.13431e-05
2.39858e-05
2.60088e-05
2.72953e-05
2.76062e-05
2.63585e-05
2.25539e-05
1.62053e-05
9.8719e-06
5.54481e-06
3.0896e-06
1.86027e-06
1.38966e-06
1.39037e-06
1.61441e-06
1.98275e-06
2.74852e-06
5.17785e-06
6.6907e-06
1.79377e-06
1.43609e-07
1.36926e-09
7.13118e-07
1.17533e-06
1.42993e-06
1.6761e-06
2.04019e-06
2.60407e-06
3.44687e-06
4.667e-06
6.39298e-06
8.75258e-06
1.17511e-05
1.51231e-05
1.84155e-05
2.13009e-05
2.36912e-05
2.55882e-05
2.69286e-05
2.75055e-05
2.67943e-05
2.36932e-05
1.75298e-05
1.06104e-05
5.70398e-06
2.97367e-06
1.68607e-06
1.30431e-06
1.49055e-06
1.89108e-06
2.40887e-06
3.43397e-06
6.61787e-06
5.79683e-06
1.72083e-06
1.30537e-07
1.91344e-09
5.50637e-07
1.05438e-06
1.45676e-06
1.86614e-06
2.41286e-06
3.19513e-06
4.31311e-06
5.89695e-06
8.09153e-06
1.09457e-05
1.42381e-05
1.75197e-05
2.04613e-05
2.29995e-05
2.51749e-05
2.69885e-05
2.83448e-05
2.90198e-05
2.85475e-05
2.59301e-05
2.01259e-05
1.26573e-05
6.78049e-06
3.35206e-06
1.68725e-06
1.15073e-06
1.37681e-06
1.97749e-06
2.74562e-06
4.10618e-06
7.78662e-06
5.33078e-06
1.68392e-06
1.19392e-07
2.20754e-09
5.95394e-07
1.19322e-06
1.77113e-06
2.3888e-06
3.16173e-06
4.20572e-06
5.65463e-06
7.65102e-06
1.02432e-05
1.32352e-05
1.62516e-05
1.90523e-05
2.1626e-05
2.40125e-05
2.61958e-05
2.80942e-05
2.95558e-05
3.03395e-05
3.00604e-05
2.79856e-05
2.31656e-05
1.60524e-05
9.28586e-06
4.696e-06
2.19101e-06
1.12745e-06
1.0619e-06
1.66975e-06
2.70179e-06
4.41717e-06
8.25783e-06
5.30133e-06
1.70028e-06
1.15163e-07
2.52147e-09
7.47963e-07
1.44798e-06
2.12849e-06
2.86705e-06
3.78292e-06
5.00225e-06
6.64981e-06
8.78765e-06
1.13148e-05
1.39959e-05
1.66352e-05
1.91622e-05
2.1569e-05
2.38314e-05
2.5894e-05
2.76704e-05
2.90327e-05
2.97976e-05
2.96958e-05
2.82705e-05
2.49041e-05
1.94611e-05
1.30616e-05
7.48002e-06
3.7052e-06
1.67411e-06
9.36705e-07
1.13903e-06
2.07107e-06
3.91589e-06
7.87534e-06
5.58737e-06
1.76333e-06
1.19001e-07
2.99451e-09
8.68092e-07
1.60949e-06
2.32144e-06
3.11102e-06
4.10277e-06
5.4214e-06
7.17008e-06
9.37216e-06
1.19213e-05
1.46192e-05
1.72866e-05
1.98216e-05
2.21679e-05
2.4278e-05
2.61022e-05
2.7576e-05
2.86088e-05
2.90703e-05
2.87886e-05
2.74881e-05
2.48163e-05
2.07822e-05
1.59285e-05
1.09355e-05
6.47009e-06
3.2374e-06
1.47808e-06
9.437e-07
1.32714e-06
2.71012e-06
6.28248e-06
6.09709e-06
1.84955e-06
1.31096e-07
3.55981e-09
8.89096e-07
1.63213e-06
2.38e-06
3.24921e-06
4.37049e-06
5.86587e-06
7.80842e-06
1.01697e-05
1.28167e-05
1.55807e-05
1.83218e-05
2.0931e-05
2.33163e-05
2.54049e-05
2.71431e-05
2.84779e-05
2.93433e-05
2.96416e-05
2.92219e-05
2.78142e-05
2.51051e-05
2.1195e-05
1.68002e-05
1.26892e-05
8.98098e-06
5.56511e-06
2.89377e-06
1.45351e-06
1.11626e-06
1.77589e-06
4.21809e-06
6.84937e-06
1.93349e-06
1.49881e-07
4.18001e-09
8.48425e-07
1.59045e-06
2.41948e-06
3.45174e-06
4.8033e-06
6.54593e-06
8.66853e-06
1.10858e-05
1.36919e-05
1.63907e-05
1.90814e-05
2.16513e-05
2.39942e-05
2.60283e-05
2.76933e-05
2.89317e-05
2.96777e-05
2.98483e-05
2.93189e-05
2.78595e-05
2.52008e-05
2.14172e-05
1.72013e-05
1.33706e-05
1.01608e-05
7.27789e-06
4.55162e-06
2.47621e-06
1.46549e-06
1.49805e-06
2.99255e-06
7.62137e-06
2.01611e-06
1.72341e-07
4.95365e-09
8.16543e-07
1.59233e-06
2.5558e-06
3.80131e-06
5.38008e-06
7.2749e-06
9.42546e-06
1.17783e-05
1.42943e-05
1.69136e-05
1.95377e-05
2.20501e-05
2.43475e-05
2.63518e-05
2.80016e-05
2.92267e-05
2.99354e-05
3.00048e-05
2.92448e-05
2.73406e-05
2.40665e-05
1.98437e-05
1.57325e-05
1.24872e-05
1.00701e-05
7.98527e-06
5.78107e-06
3.60529e-06
2.12276e-06
1.67548e-06
2.62398e-06
7.96343e-06
2.08658e-06
1.93264e-07
5.99749e-09
8.27985e-07
1.67016e-06
2.76203e-06
4.14391e-06
5.79351e-06
7.66282e-06
9.73e-06
1.20019e-05
1.44687e-05
1.70677e-05
1.96912e-05
2.22218e-05
2.45597e-05
2.66256e-05
2.83475e-05
2.96358e-05
3.03635e-05
3.03519e-05
2.93162e-05
2.68091e-05
2.26511e-05
1.77414e-05
1.35553e-05
1.07325e-05
8.98716e-06
7.68984e-06
6.22851e-06
4.4121e-06
2.80733e-06
2.08766e-06
2.82352e-06
8.38957e-06
2.11096e-06
2.07124e-07
7.26982e-09
8.47144e-07
1.73493e-06
2.87762e-06
4.27201e-06
5.88463e-06
7.70448e-06
9.75547e-06
1.20574e-05
1.4578e-05
1.7224e-05
1.98762e-05
2.24285e-05
2.47996e-05
2.69217e-05
2.87191e-05
3.00839e-05
3.08405e-05
3.07091e-05
2.92105e-05
2.56795e-05
2.02487e-05
1.47474e-05
1.08459e-05
8.67738e-06
7.63929e-06
7.03322e-06
6.19819e-06
4.80318e-06
3.33748e-06
2.61037e-06
3.53905e-06
8.69296e-06
2.04907e-06
2.05863e-07
8.5352e-09
8.41257e-07
1.74019e-06
2.89674e-06
4.29986e-06
5.93383e-06
7.80912e-06
9.94899e-06
1.23475e-05
1.49412e-05
1.76241e-05
2.02891e-05
2.28518e-05
2.52481e-05
2.74175e-05
2.92809e-05
3.07123e-05
3.14881e-05
3.11988e-05
2.90838e-05
2.4251e-05
1.7554e-05
1.18074e-05
8.3525e-06
6.76934e-06
6.31021e-06
6.27596e-06
5.94068e-06
4.96323e-06
3.82325e-06
3.39064e-06
5.08886e-06
7.32465e-06
1.92089e-06
1.882e-07
9.68221e-09
8.36605e-07
1.75397e-06
2.94843e-06
4.40141e-06
6.09418e-06
8.03341e-06
1.02372e-05
1.2696e-05
1.53462e-05
1.80854e-05
2.0808e-05
2.34263e-05
2.58689e-05
2.8067e-05
2.99328e-05
3.13264e-05
3.19933e-05
3.14433e-05
2.87409e-05
2.29716e-05
1.56112e-05
9.83461e-06
6.60812e-06
5.29062e-06
5.1509e-06
5.52605e-06
5.63293e-06
5.12206e-06
4.44492e-06
4.57153e-06
7.5527e-06
5.90238e-06
1.80707e-06
1.66151e-07
1.05191e-08
8.4034e-07
1.77383e-06
2.98574e-06
4.4458e-06
6.14029e-06
8.09666e-06
1.03551e-05
1.29109e-05
1.56824e-05
1.85381e-05
2.13482e-05
2.40121e-05
2.64533e-05
2.86015e-05
3.03688e-05
3.16183e-05
3.21068e-05
3.13781e-05
2.85852e-05
2.28668e-05
1.5424e-05
9.31905e-06
5.77507e-06
4.26067e-06
4.08686e-06
4.66634e-06
5.23366e-06
5.3091e-06
5.21217e-06
6.03807e-06
9.73771e-06
5.28544e-06
1.75204e-06
1.51514e-07
1.08699e-08
8.28235e-07
1.74551e-06
2.93229e-06
4.37316e-06
6.08468e-06
8.11608e-06
1.0502e-05
1.32037e-05
1.60953e-05
1.9016e-05
2.18308e-05
2.44476e-05
2.68026e-05
2.88375e-05
3.04776e-05
3.16056e-05
3.2019e-05
3.1359e-05
2.89878e-05
2.40831e-05
1.70409e-05
1.0389e-05
6.02325e-06
3.86186e-06
3.25853e-06
3.70035e-06
4.54864e-06
5.23891e-06
5.81531e-06
7.31198e-06
1.08124e-05
5.2212e-06
1.76503e-06
1.47753e-07
1.09034e-08
8.02142e-07
1.69543e-06
2.87618e-06
4.35409e-06
6.15767e-06
8.32185e-06
1.08461e-05
1.36516e-05
1.6587e-05
1.94896e-05
2.22369e-05
2.47523e-05
2.69855e-05
2.88906e-05
3.04087e-05
3.14483e-05
3.18568e-05
3.137e-05
2.95201e-05
2.56159e-05
1.94739e-05
1.26369e-05
7.3175e-06
4.21806e-06
2.9049e-06
2.87734e-06
3.62512e-06
4.69162e-06
5.90939e-06
8.00509e-06
1.13337e-05
5.44837e-06
1.82728e-06
1.52677e-07
1.08931e-08
7.90528e-07
1.68798e-06
2.90682e-06
4.46296e-06
6.37116e-06
8.64137e-06
1.12495e-05
1.41019e-05
1.70452e-05
1.99246e-05
2.26279e-05
2.50868e-05
2.72577e-05
2.91027e-05
3.0574e-05
3.15991e-05
3.20638e-05
3.17734e-05
3.03691e-05
2.72748e-05
2.20639e-05
1.54642e-05
9.43479e-06
5.33462e-06
3.1758e-06
2.49483e-06
2.81764e-06
3.81e-06
5.32561e-06
7.85977e-06
1.15309e-05
5.79762e-06
1.9105e-06
1.62851e-07
1.10204e-08
8.04074e-07
1.72784e-06
2.99097e-06
4.60101e-06
6.55904e-06
8.86902e-06
1.15105e-05
1.43942e-05
1.73679e-05
2.02752e-05
2.3002e-05
2.54786e-05
2.76625e-05
2.95191e-05
3.10078e-05
3.20682e-05
3.26091e-05
3.24768e-05
3.1377e-05
2.8801e-05
2.42494e-05
1.80132e-05
1.1655e-05
6.79086e-06
3.86888e-06
2.56043e-06
2.395e-06
3.05496e-06
4.4706e-06
7.12928e-06
1.14227e-05
6.11596e-06
1.98373e-06
1.74337e-07
1.11952e-08
8.19972e-07
1.76207e-06
3.04318e-06
4.66525e-06
6.63127e-06
8.95651e-06
1.16299e-05
1.45587e-05
1.75794e-05
2.05275e-05
2.32878e-05
2.57941e-05
2.80081e-05
2.98997e-05
3.14336e-05
3.25586e-05
3.32006e-05
3.3236e-05
3.24146e-05
3.02763e-05
2.62603e-05
2.03438e-05
1.37627e-05
8.27784e-06
4.70599e-06
2.87091e-06
2.29264e-06
2.60156e-06
3.74137e-06
6.24472e-06
1.10859e-05
6.32837e-06
2.02985e-06
1.83777e-07
1.14798e-08
8.35268e-07
1.79359e-06
3.09096e-06
4.73127e-06
6.7269e-06
9.10065e-06
1.1835e-05
1.48193e-05
1.78767e-05
2.0844e-05
2.36148e-05
2.61315e-05
2.8361e-05
3.02754e-05
3.18391e-05
3.30044e-05
3.37053e-05
3.38231e-05
3.31344e-05
3.12395e-05
2.75989e-05
2.2027e-05
1.54401e-05
9.55589e-06
5.47958e-06
3.23329e-06
2.35228e-06
2.39879e-06
3.28972e-06
5.57716e-06
1.07419e-05
6.40115e-06
2.04672e-06
1.8882e-07
1.18282e-08
8.52283e-07
1.82712e-06
3.13924e-06
4.79697e-06
6.82199e-06
9.24012e-06
1.20267e-05
1.50607e-05
1.81615e-05
2.11678e-05
2.39771e-05
2.65346e-05
2.88088e-05
3.07712e-05
3.23839e-05
3.36004e-05
3.43563e-05
3.45211e-05
3.38839e-05
3.20936e-05
2.86742e-05
2.3373e-05
1.68469e-05
1.06785e-05
6.1717e-06
3.56566e-06
2.44285e-06
2.30673e-06
3.02776e-06
5.15379e-06
1.05001e-05
6.36072e-06
2.04222e-06
1.8947e-07
1.21624e-08
8.64457e-07
1.84525e-06
3.15718e-06
4.81724e-06
6.85694e-06
9.30698e-06
1.21408e-05
1.52288e-05
1.8381e-05
2.14332e-05
2.42861e-05
2.68907e-05
2.92196e-05
3.12448e-05
3.29302e-05
3.42294e-05
3.50587e-05
3.52643e-05
3.46334e-05
3.28641e-05
2.95826e-05
2.45605e-05
1.82277e-05
1.18977e-05
6.96948e-06
3.95605e-06
2.55741e-06
2.24417e-06
2.83319e-06
4.83603e-06
1.02637e-05
6.28727e-06
2.03102e-06
1.87659e-07
1.23811e-08
8.66442e-07
1.84191e-06
3.14639e-06
4.80813e-06
6.86615e-06
9.35231e-06
1.22308e-05
1.53544e-05
1.85226e-05
2.1576e-05
2.44297e-05
2.70494e-05
2.94174e-05
3.15094e-05
3.32938e-05
3.47229e-05
3.56852e-05
3.59979e-05
3.54301e-05
3.37062e-05
3.05515e-05
2.58087e-05
1.97647e-05
1.34066e-05
8.07041e-06
4.55234e-06
2.77069e-06
2.20683e-06
2.62488e-06
4.46567e-06
9.84637e-06
6.2561e-06
2.02461e-06
1.85889e-07
1.25272e-08
8.64452e-07
1.83302e-06
3.13534e-06
4.81087e-06
6.90177e-06
9.43087e-06
1.2339e-05
1.54535e-05
1.85696e-05
2.15494e-05
2.43377e-05
2.69246e-05
2.93073e-05
3.1471e-05
3.33883e-05
3.49986e-05
3.61629e-05
3.66663e-05
3.62469e-05
3.46259e-05
3.15986e-05
2.71261e-05
2.14496e-05
1.52467e-05
9.61115e-06
5.51982e-06
3.21501e-06
2.27466e-06
2.41441e-06
3.96606e-06
9.06378e-06
6.3068e-06
2.02596e-06
1.85434e-07
1.27037e-08
8.63671e-07
1.83214e-06
3.149e-06
4.8642e-06
7.01635e-06
9.60258e-06
1.25222e-05
1.55744e-05
1.85684e-05
2.14092e-05
2.40849e-05
2.66167e-05
2.90188e-05
3.1289e-05
3.34053e-05
3.52847e-05
3.67603e-05
3.75815e-05
3.74383e-05
3.60012e-05
3.30656e-05
2.8704e-05
2.32442e-05
1.72415e-05
1.14915e-05
6.9045e-06
4.00128e-06
2.56857e-06
2.31771e-06
3.44351e-06
7.91887e-06
6.44102e-06
2.02845e-06
1.86273e-07
1.31255e-08
8.78407e-07
1.8714e-06
3.24057e-06
5.04415e-06
7.30492e-06
9.96709e-06
1.28691e-05
1.57969e-05
1.8606e-05
2.1264e-05
2.38055e-05
2.62773e-05
2.87046e-05
3.10952e-05
3.34347e-05
3.56237e-05
3.74754e-05
3.87095e-05
3.89675e-05
3.78462e-05
3.50697e-05
3.07228e-05
2.52834e-05
1.93498e-05
1.35603e-05
8.63064e-06
5.15967e-06
3.17259e-06
2.46152e-06
3.10342e-06
6.74219e-06
6.70259e-06
2.03435e-06
1.87165e-07
1.39953e-08
9.21123e-07
1.96869e-06
3.42499e-06
5.35438e-06
7.74787e-06
1.04707e-05
1.33046e-05
1.60629e-05
1.86751e-05
2.11688e-05
2.36092e-05
2.6054e-05
2.85338e-05
3.10612e-05
3.36198e-05
3.61045e-05
3.83157e-05
3.995e-05
4.06072e-05
3.9815e-05
3.72195e-05
3.2877e-05
2.73431e-05
2.13743e-05
1.55784e-05
1.04884e-05
6.59535e-06
4.08632e-06
2.90656e-06
3.09625e-06
5.98906e-06
7.15793e-06
2.05772e-06
1.8721e-07
1.52391e-08
9.74455e-07
2.08072e-06
3.62566e-06
5.67773e-06
8.18098e-06
1.09169e-05
1.36441e-05
1.62342e-05
1.86829e-05
2.10542e-05
2.34283e-05
2.58689e-05
2.84109e-05
3.10716e-05
3.38362e-05
3.66022e-05
3.91578e-05
4.11742e-05
4.22044e-05
4.17039e-05
3.9245e-05
3.48663e-05
2.91975e-05
2.31167e-05
1.73194e-05
1.22208e-05
8.11325e-06
5.21386e-06
3.6229e-06
3.44452e-06
5.85555e-06
7.87802e-06
2.12072e-06
1.85873e-07
1.65732e-08
1.01458e-06
2.16448e-06
3.78435e-06
5.94109e-06
8.51961e-06
1.12309e-05
1.38415e-05
1.62788e-05
1.85798e-05
2.08291e-05
2.31195e-05
2.55255e-05
2.80891e-05
3.0835e-05
3.37588e-05
3.67646e-05
3.96371e-05
4.20218e-05
4.34188e-05
4.32021e-05
4.08664e-05
3.64374e-05
3.06232e-05
2.44213e-05
1.86085e-05
1.35874e-05
9.4737e-06
6.3956e-06
4.53058e-06
4.11168e-06
6.34474e-06
8.77366e-06
2.2242e-06
1.83716e-07
1.77564e-08
1.03582e-06
2.21304e-06
3.89197e-06
6.12955e-06
8.74911e-06
1.14099e-05
1.38956e-05
1.6172e-05
1.83031e-05
2.03955e-05
2.2562e-05
2.48931e-05
2.74369e-05
3.02194e-05
3.32423e-05
3.64149e-05
3.95267e-05
4.22078e-05
4.39165e-05
4.39584e-05
4.17667e-05
3.73646e-05
3.15202e-05
2.53057e-05
1.95453e-05
1.46238e-05
1.05929e-05
7.49786e-06
5.51821e-06
5.0106e-06
7.33159e-06
9.68792e-06
2.35524e-06
1.81822e-07
1.85257e-08
1.0352e-06
2.21907e-06
3.9308e-06
6.22245e-06
8.8768e-06
1.15021e-05
1.38691e-05
1.59642e-05
1.78889e-05
1.97914e-05
2.18192e-05
2.40792e-05
2.66163e-05
2.94432e-05
3.25531e-05
3.58502e-05
3.9126e-05
4.20004e-05
4.39003e-05
4.40792e-05
4.19355e-05
3.75235e-05
3.16904e-05
2.55669e-05
1.99826e-05
1.52705e-05
1.14288e-05
8.45927e-06
6.52115e-06
6.08566e-06
8.71858e-06
1.03719e-05
2.48323e-06
1.81081e-07
1.90015e-08
1.02232e-06
2.20549e-06
3.94923e-06
6.3233e-06
9.07729e-06
1.17135e-05
1.395e-05
1.5817e-05
1.74941e-05
1.92015e-05
2.11299e-05
2.3392e-05
2.60102e-05
2.89618e-05
3.22117e-05
3.56467e-05
3.90552e-05
4.20497e-05
4.40358e-05
4.42323e-05
4.20254e-05
3.75206e-05
3.16508e-05
2.55968e-05
2.01759e-05
1.56675e-05
1.20385e-05
9.25631e-06
7.47373e-06
7.2484e-06
1.03282e-05
1.0785e-05
2.59315e-06
1.82282e-07
1.97241e-08
1.02352e-06
2.23378e-06
4.0658e-06
6.61672e-06
9.54611e-06
1.21692e-05
1.4186e-05
1.57478e-05
1.71517e-05
1.86972e-05
2.06096e-05
2.29914e-05
2.5825e-05
2.90302e-05
3.25197e-05
3.61451e-05
3.96715e-05
4.27039e-05
4.46265e-05
4.46426e-05
4.21721e-05
3.7423e-05
3.14358e-05
2.54259e-05
2.01661e-05
1.58732e-05
1.24814e-05
9.93017e-06
8.37187e-06
8.46103e-06
1.20457e-05
1.09209e-05
2.67252e-06
1.85436e-07
2.10408e-08
1.0558e-06
2.33805e-06
4.33335e-06
7.14664e-06
1.02409e-05
1.2718e-05
1.43894e-05
1.55904e-05
1.67284e-05
1.81568e-05
2.01134e-05
2.26829e-05
2.58101e-05
2.93578e-05
3.31753e-05
3.70646e-05
4.07463e-05
4.37995e-05
4.55828e-05
4.53069e-05
4.2468e-05
3.7404e-05
3.12504e-05
2.52326e-05
2.00757e-05
1.59585e-05
1.27906e-05
1.04864e-05
9.19902e-06
9.6637e-06
1.37154e-05
1.088e-05
2.7251e-06
1.90219e-07
2.28798e-08
1.11439e-06
2.50173e-06
4.7133e-06
7.82688e-06
1.10025e-05
1.31927e-05
1.4452e-05
1.53e-05
1.62203e-05
1.75836e-05
1.96117e-05
2.23642e-05
2.57588e-05
2.96224e-05
3.37602e-05
3.79321e-05
4.18031e-05
4.48911e-05
4.65117e-05
4.58879e-05
4.26351e-05
3.72554e-05
3.0963e-05
2.49538e-05
1.98955e-05
1.59443e-05
1.29981e-05
1.09555e-05
9.97654e-06
1.08637e-05
1.52811e-05
1.07029e-05
2.75349e-06
1.9601e-07
2.48212e-08
1.17705e-06
2.67446e-06
5.11987e-06
8.53903e-06
1.172e-05
1.35518e-05
1.43933e-05
1.4928e-05
1.56932e-05
1.70482e-05
1.91726e-05
2.20851e-05
2.56745e-05
2.97488e-05
3.40997e-05
3.84733e-05
4.25007e-05
4.56392e-05
4.71502e-05
4.62517e-05
4.26644e-05
3.7036e-05
3.06396e-05
2.46361e-05
1.96568e-05
1.58519e-05
1.31158e-05
1.1339e-05
1.06945e-05
1.20334e-05
1.66527e-05
1.04676e-05
2.76632e-06
2.02409e-07
2.64059e-08
1.22499e-06
2.81785e-06
5.49e-06
9.21024e-06
1.23521e-05
1.3782e-05
1.41806e-05
1.43962e-05
1.5015e-05
1.63716e-05
1.85955e-05
2.16564e-05
2.54048e-05
2.96259e-05
3.41041e-05
3.85833e-05
4.26834e-05
4.58326e-05
4.72637e-05
4.61982e-05
4.24296e-05
3.6688e-05
3.02599e-05
2.42759e-05
1.93616e-05
1.56843e-05
1.31486e-05
1.16447e-05
1.13606e-05
1.31707e-05
1.77967e-05
1.01954e-05
2.7679e-06
2.09102e-07
2.77038e-08
1.26472e-06
2.94479e-06
5.8394e-06
9.85636e-06
1.28958e-05
1.3851e-05
1.37669e-05
1.36542e-05
1.41154e-05
1.54416e-05
1.7725e-05
2.09094e-05
2.48174e-05
2.92046e-05
3.38313e-05
3.84222e-05
4.25829e-05
4.57311e-05
4.71061e-05
4.59621e-05
4.2145e-05
3.64027e-05
2.99885e-05
2.40091e-05
1.91126e-05
1.55066e-05
1.31239e-05
1.18654e-05
1.19335e-05
1.41919e-05
1.8654e-05
9.94605e-06
2.76641e-06
2.16293e-07
2.92129e-08
1.30947e-06
3.08068e-06