/*--------------------------------*- C++ -*----------------------------------*\
| =========                 |                                                 |
| \\      /  F ield         | OpenFOAM: The Open Source CFD Toolbox           |
|  \\    /   O peration     | Version:  v2006                                 |
|   \\  /    A nd           | Website:  www.openfoam.com                      |
|    \\/     M anipulation  |                                                 |
\*---------------------------------------------------------------------------*/
FoamFile
{
    version     2.0;
    format      ascii;
    class       volScalarField;
    location    "29";
    object      T;
}
// * * * * * * * * * * * * * * * * * * * * * * * * * * * * * * * * * * * * * //

dimensions      [0 0 0 1 0 0 0];


internalField   nonuniform List<scalar> 
78750
(
299.48
298.946
298.856
298.824
298.807
298.796
298.787
298.78
298.773
298.767
298.761
298.755
298.749
298.743
298.737
298.73
298.724
298.718
298.712
298.705
298.699
298.692
298.685
298.677
298.669
298.661
298.651
298.641
298.63
298.621
298.63
298.705
298.948
299.468
300.254
299.769
299.394
299.154
299.022
298.955
298.919
298.898
298.884
298.875
298.867
298.859
298.852
298.845
298.838
298.831
298.823
298.815
298.808
298.799
298.79
298.781
298.771
298.761
298.75
298.738
298.726
298.714
298.704
298.699
298.707
298.748
298.871
299.142
299.618
300.343
299.807
299.467
299.219
299.054
298.958
298.91
298.89
298.882
298.879
298.876
298.874
298.872
298.87
298.868
298.865
298.862
298.859
298.856
298.853
298.849
298.846
298.842
298.839
298.836
298.834
298.835
298.841
298.854
298.881
298.936
299.044
299.239
299.551
300.036
300.772
299.827
299.521
299.309
299.158
299.046
298.972
298.927
298.9
298.884
298.872
298.864
298.857
298.852
298.847
298.844
298.84
298.838
298.836
298.835
298.834
298.834
298.834
298.836
298.839
298.844
298.851
298.864
298.885
298.923
298.995
299.128
299.357
299.701
300.207
300.958
299.86
299.597
299.4
299.254
299.136
299.04
298.966
298.911
298.87
298.84
298.818
298.801
298.789
298.782
298.778
298.776
298.777
298.779
298.782
298.786
298.792
298.799
298.808
298.822
298.84
298.866
298.902
298.956
299.035
299.155
299.338
299.609
299.971
300.487
301.256
299.876
299.639
299.454
299.311
299.192
299.092
299.01
298.947
298.901
298.868
298.849
298.84
298.84
298.846
298.856
298.867
298.878
298.887
298.892
298.894
298.891
298.884
298.875
298.865
298.86
298.864
298.887
298.939
299.031
299.179
299.401
299.715
300.113
300.656
301.439
299.894
299.687
299.517
299.382
299.268
299.17
299.086
299.021
298.977
298.955
298.953
298.969
298.997
299.031
299.065
299.096
299.123
299.143
299.158
299.165
299.166
299.159
299.145
299.123
299.096
299.068
299.051
299.063
299.128
299.268
299.504
299.848
300.277
300.847
301.645
299.902
299.711
299.551
299.419
299.305
299.207
299.128
299.075
299.05
299.051
299.073
299.106
299.144
299.181
299.213
299.24
299.262
299.28
299.293
299.302
299.307
299.306
299.301
299.291
299.274
299.253
299.232
299.226
299.261
299.37
299.589
299.935
300.387
300.984
301.795
299.909
299.729
299.575
299.446
299.334
299.239
299.17
299.132
299.122
299.136
299.164
299.198
299.231
299.261
299.287
299.31
299.328
299.344
299.356
299.365
299.371
299.374
299.374
299.371
299.366
299.359
299.353
299.36
299.4
299.507
299.721
300.071
300.536
301.152
301.974
299.912
299.738
299.586
299.459
299.35
299.264
299.208
299.185
299.189
299.21
299.241
299.274
299.306
299.335
299.359
299.38
299.398
299.413
299.425
299.434
299.441
299.445
299.447
299.447
299.446
299.446
299.45
299.468
299.518
299.631
299.847
300.2
300.678
301.31
302.143
299.917
299.751
299.604
299.482
299.379
299.301
299.255
299.239
299.246
299.268
299.299
299.331
299.362
299.39
299.414
299.436
299.454
299.47
299.483
299.493
299.5
299.506
299.51
299.513
299.516
299.522
299.536
299.568
299.637
299.769
300.002
300.37
300.859
301.5
302.339
299.923
299.768
299.631
299.516
299.421
299.35
299.309
299.294
299.302
299.323
299.353
299.385
299.416
299.444
299.469
299.491
299.51
299.526
299.54
299.551
299.56
299.567
299.572
299.576
299.582
299.591
299.611
299.653
299.736
299.887
300.14
300.525
301.027
301.674
302.512
299.931
299.793
299.669
299.564
299.478
299.413
299.373
299.358
299.362
299.381
299.407
299.437
299.467
299.494
299.518
299.54
299.559
299.575
299.59
299.602
299.612
299.621
299.629
299.636
299.644
299.657
299.681
299.729
299.821
299.988
300.261
300.664
301.176
301.825
302.655
299.938
299.813
299.701
299.605
299.527
299.468
299.432
299.419
299.423
299.439
299.463
299.489
299.516
299.54
299.562
299.581
299.599
299.615
299.63
299.643
299.655
299.666
299.676
299.687
299.699
299.716
299.743
299.793
299.887
300.056
300.335
300.749
301.268
301.919
302.743
299.943
299.83
299.726
299.638
299.566
299.513
299.481
299.468
299.472
299.486
299.506
299.529
299.552
299.574
299.594
299.612
299.629
299.645
299.66
299.674
299.687
299.701
299.714
299.729
299.747
299.771
299.805
299.86
299.955
300.123
300.4
300.814
301.336
301.986
302.81
299.949
299.845
299.75
299.668
299.603
299.554
299.524
299.511
299.513
299.524
299.541
299.561
299.581
299.602
299.62
299.638
299.654
299.67
299.685
299.7
299.715
299.73
299.746
299.765
299.789
299.82
299.864
299.929
300.03
300.198
300.47
300.879
301.398
302.05
302.881
299.955
299.864
299.781
299.708
299.649
299.604
299.574
299.559
299.557
299.564
299.577
299.593
299.612
299.63
299.647
299.664
299.68
299.695
299.71
299.725
299.74
299.756
299.774
299.796
299.824
299.864
299.92
300
300.118
300.296
300.572
300.979
301.495
302.15
302.993
299.962
299.884
299.811
299.747
299.694
299.654
299.626
299.61
299.605
299.609
299.618
299.632
299.647
299.662
299.678
299.693
299.708
299.722
299.736
299.751
299.766
299.783
299.801
299.824
299.856
299.902
299.968
300.064
300.203
300.403
300.695
301.11
301.628
302.29
303.145
299.967
299.899
299.835
299.778
299.73
299.693
299.667
299.652
299.646
299.647
299.654
299.665
299.677
299.691
299.705
299.718
299.732
299.746
299.76
299.775
299.791
299.808
299.828
299.853
299.888
299.939
300.014
300.125
300.286
300.514
300.832
301.264
301.792
302.459
303.318
299.972
299.911
299.853
299.801
299.757
299.723
299.698
299.683
299.676
299.677
299.682
299.69
299.701
299.713
299.726
299.738
299.752
299.765
299.78
299.795
299.811
299.83
299.851
299.879
299.917
299.972
300.054
300.176
300.356
300.611
300.959
301.415
301.953
302.621
303.474
299.975
299.921
299.869
299.822
299.781
299.749
299.726
299.711
299.704
299.702
299.706
299.713
299.722
299.732
299.743
299.756
299.768
299.782
299.796
299.812
299.829
299.848
299.872
299.903
299.944
300.002
300.087
300.216
300.407
300.681
301.054
301.531
302.077
302.74
303.579
299.979
299.931
299.885
299.842
299.806
299.776
299.753
299.738
299.73
299.727
299.728
299.733
299.74
299.749
299.759
299.77
299.782
299.795
299.81
299.826
299.843
299.864
299.89
299.924
299.969
300.029
300.117
300.246
300.441
300.723
301.109
301.598
302.147
302.803
303.627
299.982
299.942
299.901
299.863
299.83
299.803
299.782
299.766
299.757
299.752
299.751
299.753
299.758
299.764
299.773
299.783
299.794
299.806
299.82
299.836
299.854
299.877
299.905
299.943
299.991
300.056
300.146
300.275
300.467
300.746
301.133
301.624
302.172
302.821
303.638
299.986
299.952
299.917
299.884
299.854
299.829
299.808
299.793
299.782
299.775
299.772
299.772
299.774
299.779
299.785
299.793
299.802
299.813
299.825
299.841
299.859
299.883
299.915
299.957
300.012
300.083
300.178
300.31
300.499
300.772
301.152
301.637
302.178
302.825
303.644
299.989
299.961
299.931
299.902
299.876
299.853
299.833
299.817
299.806
299.797
299.792
299.79
299.789
299.791
299.794
299.798
299.804
299.812
299.822
299.836
299.854
299.878
299.913
299.96
300.024
300.106
300.211
300.351
300.543
300.812
301.183
301.658
302.194
302.842
303.668
299.992
299.969
299.944
299.919
299.896
299.875
299.856
299.841
299.828
299.818
299.811
299.806
299.802
299.799
299.798
299.798
299.8
299.804
299.811
299.821
299.836
299.858
299.892
299.943
300.013
300.107
300.23
300.387
300.591
300.865
301.233
301.701
302.233
302.885
303.723
299.994
299.976
299.956
299.934
299.913
299.893
299.875
299.859
299.845
299.833
299.822
299.813
299.805
299.799
299.794
299.792
299.792
299.793
299.797
299.803
299.814
299.831
299.86
299.904
299.972
300.072
300.208
300.387
300.614
300.905
301.281
301.751
302.286
302.947
303.798
299.996
299.982
299.963
299.943
299.923
299.902
299.881
299.862
299.844
299.827
299.814
299.803
299.796
299.793
299.791
299.792
299.794
299.796
299.8
299.804
299.811
299.822
299.841
299.873
299.928
300.016
300.15
300.339
300.59
300.909
301.309
301.794
302.341
303.015
303.878
299.997
299.983
299.964
299.942
299.917
299.891
299.864
299.84
299.821
299.808
299.802
299.802
299.807
299.813
299.821
299.828
299.835
299.84
299.844
299.848
299.852
299.857
299.866
299.884
299.92
299.985
300.097
300.274
300.528
300.869
301.298
301.813
302.382
303.073
303.946
299.996
299.98
299.957
299.929
299.897
299.866
299.84
299.823
299.817
299.821
299.834
299.85
299.867
299.882
299.895
299.905
299.913
299.92
299.924
299.928
299.931
299.933
299.938
299.948
299.969
300.013
300.098
300.248
300.487
300.829
301.279
301.824
302.419
303.125
304.004
299.994
299.973
299.947
299.916
299.884
299.859
299.844
299.844
299.856
299.876
299.897
299.918
299.934
299.948
299.958
299.967
299.974
299.981
299.987
299.994
300.001
300.01
300.021
300.037
300.058
300.094
300.16
300.284
300.497
300.824
301.278
301.841
302.454
303.171
304.052
299.992
299.971
299.945
299.917
299.893
299.879
299.876
299.885
299.901
299.919
299.935
299.947
299.956
299.964
299.97
299.976
299.982
299.99
299.999
300.01
300.024
300.044
300.072
300.109
300.154
300.208
300.279
300.394
300.59
300.901
301.346
301.907
302.521
303.24
304.119
299.993
299.975
299.954
299.933
299.918
299.91
299.91
299.917
299.926
299.935
299.942
299.946
299.95
299.954
299.958
299.963
299.969
299.977
299.987
300.001
300.02
300.047
300.088
300.15
300.231
300.324
300.426
300.558
300.757
301.062
301.495
302.035
302.635
303.35
304.22
299.996
299.983
299.968
299.955
299.945
299.94
299.94
299.942
299.945
299.948
299.951
299.953
299.956
299.96
299.965
299.971
299.978
299.986
299.996
300.008
300.026
300.052
300.097
300.17
300.281
300.422
300.577
300.749
300.969
301.278
301.699
302.205
302.782
303.49
304.347
299.999
299.992
299.983
299.975
299.969
299.965
299.964
299.964
299.965
299.967
299.97
299.975
299.98
299.986
299.993
300
300.007
300.015
300.023
300.033
300.046
300.066
300.102
300.169
300.285
300.459
300.673
300.905
301.163
301.482
301.89
302.366
302.92
303.619
304.465
300.002
299.999
299.995
299.989
299.984
299.981
299.978
299.978
299.98
299.983
299.987
299.993
299.999
300.006
300.013
300.021
300.029
300.037
300.047
300.057
300.068
300.083
300.108
300.154
300.246
300.41
300.655
300.955
301.274
301.623
302.029
302.486
303.022
303.711
304.547
300.003
300.004
300.001
299.997
299.993
299.99
299.988
299.989
299.991
299.995
299.999
300.004
300.01
300.016
300.022
300.03
300.038
300.047
300.058
300.069
300.082
300.097
300.116
300.146
300.202
300.316
300.527
300.846
301.236
301.65
302.085
302.545
303.073
303.752
304.584
300.004
300.006
300.005
300.002
300
299.998
299.999
300.001
300.004
300.008
300.012
300.016
300.021
300.026
300.032
300.039
300.046
300.055
300.065
300.077
300.09
300.107
300.126
300.15
300.185
300.248
300.381
300.635
301.028
301.512
302.023
302.53
303.075
303.752
304.583
300.005
300.008
300.009
300.008
300.008
300.009
300.011
300.014
300.017
300.021
300.025
300.029
300.034
300.04
300.046
300.053
300.061
300.07
300.08
300.091
300.105
300.121
300.141
300.164
300.194
300.235
300.309
300.464
300.767
301.24
301.82
302.418
303.015
303.704
304.542
300.006
300.011
300.014
300.016
300.017
300.02
300.022
300.025
300.029
300.033
300.038
300.043
300.05
300.056
300.064
300.072
300.081
300.092
300.103
300.116
300.131
300.149
300.17
300.196
300.226
300.262
300.312
300.405
300.603
300.984
301.557
302.232
302.896
303.616
304.471
300.007
300.015
300.02
300.023
300.027
300.03
300.033
300.037
300.042
300.048
300.054
300.062
300.07
300.078
300.087
300.097
300.107
300.118
300.13
300.145
300.162
300.183
300.209
300.241
300.279
300.32
300.366
300.434
300.57
300.855
301.362
302.051
302.76
303.516
304.393
300.008
300.018
300.025
300.03
300.034
300.038
300.043
300.05
300.057
300.065
300.074
300.084
300.093
300.103
300.113
300.124
300.135
300.147
300.16
300.176
300.196
300.221
300.255
300.297
300.347
300.4
300.455
300.521
300.634
300.867
301.307
301.964
302.677
303.45
304.352
300.009
300.021
300.029
300.036
300.042
300.048
300.055
300.064
300.073
300.084
300.094
300.105
300.116
300.127
300.138
300.149
300.16
300.173
300.188
300.207
300.231
300.263
300.307
300.366
300.435
300.506
300.577
300.655
300.773
300.995
301.403
302.019
302.709
303.482
304.406
300.01
300.024
300.034
300.042
300.05
300.058
300.068
300.079
300.09
300.103
300.115
300.127
300.139
300.151
300.162
300.173
300.186
300.199
300.216
300.236
300.265
300.305
300.365
300.446
300.542
300.642
300.738
300.843
300.988
301.231
301.635
302.208
302.869
303.643
304.567
300.011
300.026
300.038
300.049
300.059
300.07
300.082
300.095
300.108
300.122
300.136
300.149
300.162
300.174
300.186
300.198
300.21
300.224
300.241
300.262
300.293
300.34
300.412
300.517
300.646
300.784
300.919
301.063
301.248
301.522
301.93
302.458
303.082
303.848
304.752
300.012
300.029
300.043
300.056
300.068
300.081
300.096
300.11
300.126
300.141
300.155
300.169
300.182
300.195
300.207
300.219
300.232
300.245
300.261
300.282
300.311
300.357
300.433
300.549
300.707
300.889
301.076
301.269
301.495
301.796
302.2
302.687
303.273
304.022
304.899
300.013
300.032
300.048
300.063
300.078
300.093
300.108
300.124
300.14
300.156
300.171
300.186
300.2
300.213
300.226
300.239
300.252
300.265
300.28
300.299
300.325
300.364
300.429
300.537
300.7
300.912
301.15
301.397
301.667
301.991
302.389
302.847
303.404
304.129
304.982
300.014
300.035
300.054
300.071
300.087
300.104
300.121
300.138
300.154
300.171
300.186
300.202
300.216
300.23
300.244
300.257
300.27
300.284
300.298
300.316
300.338
300.371
300.423
300.511
300.654
300.865
301.13
301.426
301.742
302.093
302.494
302.937
303.473
304.18
305.019
300.015
300.039
300.06
300.079
300.097
300.115
300.133
300.151
300.168
300.185
300.201
300.217
300.232
300.247
300.261
300.274
300.288
300.302
300.317
300.333
300.354
300.381
300.423
300.492
300.608
300.791
301.049
301.368
301.724
302.11
302.528
302.972
303.499
304.194
305.027
300.016
300.043
300.065
300.086
300.106
300.125
300.145
300.163
300.182
300.199
300.216
300.232
300.248
300.263
300.278
300.293
300.307
300.321
300.336
300.353
300.373
300.399
300.435
300.493
300.588
300.741
300.973
301.284
301.657
302.073
302.517
302.974
303.502
304.194
305.026
300.017
300.046
300.071
300.093
300.115
300.135
300.155
300.174
300.193
300.211
300.228
300.245
300.261
300.277
300.292
300.308
300.323
300.338
300.355
300.372
300.392
300.417
300.452
300.504
300.588
300.723
300.93
301.22
301.591
302.022
302.491
302.966
303.502
304.195
305.03
300.018
300.049
300.076
300.1
300.123
300.144
300.164
300.184
300.203
300.221
300.239
300.256
300.273
300.29
300.306
300.322
300.338
300.354
300.371
300.39
300.411
300.437
300.471
300.521
300.601
300.728
300.923
301.198
301.558
301.991
302.475
302.964
303.509
304.206
305.045
300.02
300.052
300.081
300.106
300.13
300.152
300.174
300.195
300.214
300.234
300.252
300.27
300.288
300.305
300.322
300.338
300.355
300.372
300.389
300.408
300.429
300.455
300.489
300.539
300.616
300.741
300.934
301.207
301.562
301.994
302.484
302.982
303.533
304.234
305.076
300.021
300.055
300.085
300.112
300.137
300.161
300.183
300.205
300.226
300.247
300.266
300.285
300.304
300.322
300.34
300.357
300.374
300.392
300.409
300.428
300.45
300.475
300.508
300.555
300.629
300.75
300.942
301.219
301.58
302.016
302.51
303.012
303.565
304.267
305.107
300.021
300.058
300.089
300.118
300.144
300.169
300.193
300.217
300.239
300.26
300.281
300.301
300.32
300.339
300.358
300.376
300.394
300.412
300.431
300.45
300.471
300.496
300.527
300.571
300.638
300.751
300.934
301.212
301.583
302.032
302.534
303.042
303.597
304.295
305.132
300.022
300.06
300.093
300.124
300.152
300.178
300.204
300.229
300.252
300.275
300.296
300.317
300.337
300.357
300.376
300.395
300.414
300.433
300.452
300.472
300.493
300.518
300.547
300.587
300.647
300.746
300.912
301.177
301.551
302.016
302.536
303.057
303.616
304.31
305.141
300.023
300.063
300.098
300.13
300.16
300.189
300.217
300.243
300.267
300.291
300.313
300.335
300.356
300.377
300.397
300.417
300.436
300.456
300.476
300.496
300.518
300.542
300.57
300.607
300.659
300.744
300.886
301.125
301.486
301.961
302.505
303.051
303.622
304.31
305.134
300.024
300.066
300.104
300.139
300.171
300.202
300.231
300.258
300.284
300.309
300.332
300.354
300.376
300.398
300.419
300.44
300.46
300.481
300.501
300.522
300.544
300.568
300.596
300.631
300.678
300.75
300.869
301.074
301.404
301.871
302.436
303.016
303.604
304.285
305.094
300.026
300.071
300.111
300.149
300.184
300.217
300.247
300.276
300.302
300.327
300.351
300.375
300.397
300.42
300.442
300.464
300.485
300.507
300.528
300.55
300.573
300.598
300.626
300.66
300.705
300.769
300.871
301.043
301.332
301.769
302.336
302.945
303.549
304.22
305.014
300.027
300.076
300.12
300.161
300.198
300.232
300.264
300.293
300.32
300.346
300.371
300.395
300.419
300.443
300.466
300.489
300.512
300.534
300.557
300.58
300.604
300.63
300.66
300.694
300.739
300.8
300.891
301.04
301.288
301.682
302.226
302.842
303.45
304.114
304.903
300.029
300.082
300.129
300.172
300.211
300.247
300.279
300.309
300.336
300.363
300.389
300.414
300.439
300.464
300.489
300.513
300.538
300.562
300.587
300.612
300.637
300.665
300.696
300.733
300.779
300.841
300.929
301.065
301.285
301.635
302.138
302.735
303.335
303.998
304.802
300.031
300.087
300.137
300.182
300.223
300.259
300.292
300.323
300.351
300.379
300.405
300.431
300.457
300.483
300.509
300.536
300.562
300.588
300.615
300.642
300.67
300.7
300.734
300.774
300.823
300.888
300.978
301.11
301.314
301.633
302.094
302.658
303.243
303.912
304.745
300.033
300.091
300.143
300.19
300.232
300.27
300.305
300.336
300.366
300.395
300.422
300.449
300.476
300.503
300.53
300.558
300.585
300.613
300.642
300.671
300.702
300.734
300.772
300.816
300.87
300.941
301.037
301.172
301.372
301.673
302.104
302.634
303.204
303.886
304.752
300.034
300.094
300.149
300.198
300.243
300.283
300.32
300.354
300.385
300.415
300.444
300.472
300.499
300.527
300.554
300.583
300.611
300.64
300.67
300.7
300.733
300.768
300.809
300.857
300.918
300.996
301.1
301.243
301.448
301.744
302.158
302.662
303.221
303.919
304.813
300.035
300.098
300.156
300.209
300.258
300.302
300.341
300.376
300.409
300.44
300.47
300.499
300.527
300.555
300.583
300.611
300.64
300.67
300.7
300.732
300.766
300.804
300.847
300.9
300.966
301.052
301.166
301.321
301.535
301.836
302.243
302.731
303.284
303.997
304.909
300.037
300.105
300.168
300.226
300.279
300.325
300.366
300.403
300.436
300.468
300.499
300.528
300.557
300.586
300.614
300.643
300.672
300.702
300.733
300.766
300.801
300.84
300.887
300.944
301.016
301.11
301.235
301.402
301.629
301.94
302.347
302.824
303.375
304.1
305.022
300.04
300.115
300.184
300.247
300.303
300.351
300.392
300.43
300.464
300.497
300.528
300.558
300.588
300.617
300.646
300.675
300.705
300.736
300.768
300.801
300.838
300.879
300.928
300.989
301.067
301.17
301.306
301.487
301.728
302.05
302.462
302.931
303.479
304.214
305.139
300.044
300.126
300.201
300.269
300.327
300.375
300.417
300.455
300.49
300.523
300.555
300.586
300.617
300.647
300.677
300.708
300.738
300.77
300.803
300.837
300.875
300.918
300.97
301.035
301.119
301.231
301.378
301.572
301.829
302.164
302.579
303.042
303.589
304.33
305.254
300.048
300.136
300.217
300.288
300.348
300.398
300.441
300.48
300.516
300.549
300.581
300.613
300.644
300.676
300.707
300.738
300.77
300.803
300.837
300.873
300.913
300.958
301.013
301.082
301.172
301.291
301.449
301.658
301.93
302.276
302.694
303.153
303.697
304.442
305.362
300.051
300.146
300.232
300.308
300.37
300.422
300.466
300.505
300.541
300.575
300.607
300.639
300.671
300.703
300.735
300.768
300.801
300.835
300.871
300.908
300.95
300.997
301.054
301.126
301.221
301.348
301.517
301.739
302.025
302.382
302.803
303.257
303.798
304.545
305.458
300.055
300.156
300.249
300.329
300.394
300.446
300.491
300.531
300.567
300.601
300.633
300.665
300.697
300.73
300.763
300.797
300.832
300.867
300.904
300.943
300.986
301.035
301.094
301.169
301.268
301.401
301.579
301.812
302.111
302.478
302.9
303.35
303.889
304.635
305.541
300.058
300.167
300.266
300.35
300.417
300.471
300.517
300.559
300.595
300.629
300.661
300.692
300.724
300.757
300.792
300.827
300.863
300.9
300.938
300.978
301.023
301.073
301.134
301.211
301.312
301.449
301.633
301.876
302.185
302.561
302.985
303.432
303.97
304.713
305.613
300.062
300.179
300.284
300.373
300.442
300.497
300.545
300.588
300.626
300.659
300.691
300.722
300.754
300.787
300.822
300.858
300.895
300.933
300.973
301.015
301.061
301.113
301.175
301.253
301.355
301.493
301.681
301.93
302.248
302.631
303.057
303.502
304.039
304.78
305.673
300.067
300.191
300.303
300.395
300.466
300.522
300.572
300.616
300.655
300.689
300.721
300.753
300.785
300.819
300.854
300.891
300.929
300.969
301.011
301.054
301.102
301.156
301.219
301.298
301.401
301.539
301.727
301.978
302.302
302.691
303.12
303.564
304.1
304.84
305.729
300.071
300.202
300.317
300.411
300.483
300.542
300.594
300.64
300.681
300.717
300.749
300.782
300.815
300.85
300.887
300.925
300.965
301.007
301.05
301.096
301.146
301.202
301.268
301.349
301.452
301.589
301.776
302.027
302.352
302.744
303.175
303.62
304.156
304.896
305.781
300.073
300.209
300.327
300.422
300.495
300.555
300.609
300.658
300.701
300.739
300.774
300.809
300.844
300.88
300.919
300.96
301.002
301.047
301.093
301.142
301.195
301.255
301.325
301.408
301.514
301.653
301.838
302.088
302.412
302.804
303.234
303.678
304.216
304.957
305.839
300.075
300.213
300.333
300.429
300.503
300.564
300.619
300.67
300.716
300.757
300.795
300.832
300.869
300.908
300.95
300.993
301.038
301.086
301.136
301.189
301.247
301.312
301.388
301.478
301.589
301.732
301.92
302.17
302.492
302.881
303.306
303.746
304.283
305.024
305.896
300.076
300.216
300.336
300.433
300.508
300.569
300.625
300.677
300.726
300.77
300.812
300.852
300.892
300.934
300.979
301.025
301.074
301.126
301.18
301.238
301.303
301.375
301.459
301.558
301.679
301.831
302.026
302.28
302.601
302.984
303.397
303.827
304.361
305.092
305.943
300.076
300.216
300.338
300.436
300.511
300.573
300.629
300.681
300.73
300.777
300.821
300.864
300.908
300.954
301.002
301.052
301.105
301.161
301.221
301.285
301.357
301.439
301.533
301.644
301.778
301.943
302.15
302.41
302.73
303.103
303.498
303.914
304.437
305.145
305.966
300.077
300.219
300.342
300.442
300.519
300.581
300.636
300.687
300.735
300.782
300.828
300.874
300.921
300.969
301.021
301.075
301.131
301.192
301.257
301.328
301.408
301.499
301.605
301.729
301.878
302.057
302.277
302.544
302.862
303.22
303.592
303.989
304.493
305.169
305.957
300.077
300.22
300.345
300.446
300.525
300.588
300.643
300.692
300.74
300.785
300.831
300.878
300.927
300.978
301.032
301.089
301.15
301.215
301.285
301.362
301.449
301.549
301.665
301.802
301.964
302.157
302.387
302.658
302.97
303.31
303.658
304.033
304.514
305.155
305.915
300.077
300.221
300.347
300.452
300.534
300.599
300.653
300.702
300.748
300.791
300.834
300.88
300.929
300.982
301.038
301.098
301.161
301.229
301.303
301.385
301.477
301.584
301.708
301.854
302.026
302.228
302.465
302.737
303.041
303.362
303.687
304.04
304.496
305.111
305.854
300.079
300.226
300.356
300.464
300.548
300.614
300.67
300.718
300.762
300.803
300.843
300.885
300.932
300.983
301.04
301.101
301.166
301.236
301.312
301.396
301.492
301.603
301.732
301.883
302.06
302.266
302.504
302.773
303.067
303.371
303.677
304.011
304.447
305.044
305.782
300.081
300.231
300.364
300.475
300.562
300.63
300.687
300.736
300.779
300.819
300.857
300.896
300.939
300.988
301.043
301.103
301.168
301.239
301.315
301.4
301.497
301.609
301.739
301.891
302.069
302.276
302.512
302.775
303.057
303.347
303.638
303.957
304.379
304.97
305.712
300.082
300.236
300.373
300.489
300.579
300.649
300.707
300.756
300.799
300.836
300.872
300.909
300.949
300.995
301.048
301.106
301.17
301.24
301.316
301.4
301.496
301.607
301.735
301.886
302.062
302.265
302.496
302.751
303.022
303.3
303.581
303.891
304.304
304.897
305.649
300.085
300.245
300.388
300.507
300.6
300.672
300.731
300.781
300.823
300.859
300.893
300.927
300.964
301.007
301.057
301.113
301.175
301.243
301.317
301.4
301.493
301.601
301.727
301.875
302.046
302.244
302.468
302.715
302.977
303.247
303.521
303.826
304.236
304.835
305.603
300.088
300.253
300.4
300.524
300.62
300.695
300.755
300.805
300.847
300.882
300.915
300.947
300.983
301.023
301.071
301.125
301.185
301.25
301.322
301.402
301.492
301.597
301.719
301.862
302.028
302.22
302.438
302.677
302.931
303.194
303.464
303.767
304.179
304.789
305.573
300.091
300.263
300.417
300.545
300.644
300.721
300.782
300.833
300.874
300.908
300.939
300.969
301.003
301.042
301.089
301.141
301.2
301.263
301.333
301.41
301.497
301.597
301.714
301.852
302.014
302.2
302.411
302.644
302.892
303.15
303.42
303.724
304.14
304.763
305.564
300.095
300.273
300.433
300.565
300.667
300.746
300.808
300.859
300.9
300.934
300.963
300.992
301.025
301.063
301.109
301.161
301.219
301.282
301.35
301.424
301.508
301.604
301.716
301.849
302.005
302.186
302.391
302.618
302.862
303.118
303.388
303.695
304.118
304.754
305.571
300.099
300.284
300.45
300.587
300.691
300.771
300.835
300.887
300.927
300.96
300.989
301.017
301.048
301.086
301.131
301.184
301.243
301.306
301.374
301.446
301.527
301.619
301.727
301.854
302.005
302.181
302.382
302.605
302.846
303.101
303.372
303.684
304.115
304.764
305.596
300.103
300.296
300.468
300.608
300.715
300.797
300.862
300.913
300.954
300.986
301.014
301.04
301.071
301.108
301.154
301.209
301.27
301.335
301.403
301.475
301.554
301.643
301.747
301.869
302.015
302.186
302.382
302.602
302.841
303.097
303.37
303.687
304.126
304.788
305.634
300.106
300.306
300.483
300.628
300.737
300.821
300.887
300.94
300.981
301.013
301.039
301.064
301.093
301.13
301.177
301.234
301.298
301.367
301.438
301.511
301.59
301.677
301.778
301.896
302.037
302.203
302.396
302.613
302.852
303.108
303.383
303.705
304.153
304.827
305.683
300.11
300.317
300.5
300.648
300.759
300.845
300.912
300.966
301.007
301.038
301.063
301.087
301.115
301.15
301.198
301.257
301.326
301.399
301.475
301.553
301.634
301.721
301.82
301.936
302.073
302.235
302.423
302.638
302.875
303.13
303.407
303.732
304.188
304.873
305.737
300.113
300.326
300.514
300.665
300.78
300.867
300.937
300.991
301.033
301.064
301.088
301.11
301.135
301.168
301.215
301.275
301.348
301.428
301.511
301.596
301.682
301.773
301.873
301.988
302.124
302.283
302.468
302.68
302.915
303.17
303.446
303.774
304.235
304.929
305.799
300.116
300.335
300.527
300.683
300.8
300.889
300.96
301.016
301.059
301.09
301.113
301.132
301.154
301.184
301.228
301.288
301.364
301.45
301.542
301.635
301.729
301.826
301.931
302.049
302.184
302.342
302.526
302.735
302.967
303.219
303.494
303.821
304.286
304.986
305.859
300.119
300.342
300.539
300.698
300.818
300.91
300.984
301.041
301.084
301.115
301.137
301.155
301.174
301.199
301.237
301.293
301.369
301.46
301.561
301.664
301.768
301.875
301.987
302.11
302.249
302.409
302.592
302.8
303.03
303.28
303.553
303.879
304.346
305.048
305.924
300.121
300.349
300.551
300.715
300.84
300.935
301.011
301.07
301.114
301.144
301.165
301.181
301.196
301.216
301.248
301.297
301.368
301.459
301.566
301.68
301.795
301.912
302.033
302.162
302.307
302.469
302.654
302.861
303.089
303.336
303.608
303.934
304.402
305.106
305.983
300.124
300.356
300.563
300.732
300.862
300.961
301.04
301.1
301.145
301.176
301.196
301.209
301.221
301.236
301.261
301.301
301.363
301.449
301.558
301.679
301.806
301.934
302.066
302.204
302.354
302.521
302.708
302.916
303.144
303.391
303.663
303.99
304.46
305.166
306.043
300.126
300.364
300.576
300.751
300.886
300.99
301.072
301.135
301.181
301.212
301.23
301.242
301.25
301.261
301.279
301.31
301.362
301.439
301.542
301.666
301.802
301.942
302.084
302.232
302.389
302.56
302.75
302.96
303.188
303.436
303.709
304.037
304.509
305.215
306.09
300.129
300.372
300.588
300.769
300.91
301.019
301.104
301.171
301.219
301.25
301.268
301.277
301.283
301.29
301.302
301.325
301.366
301.432
301.527
301.648
301.787
301.936
302.09
302.248
302.414
302.592
302.786
302.999
303.229
303.479
303.753
304.084
304.557
305.262
306.133
300.131
300.379
300.601
300.788
300.935
301.049
301.139
301.209
301.259
301.291
301.308
301.316
301.319
301.322
301.329
301.345
301.377
301.432
301.515
301.629
301.768
301.923
302.086
302.253
302.427
302.612
302.811
303.027
303.26
303.512
303.787
304.119
304.593
305.297
306.164
300.134
300.387
300.616
300.809
300.962
301.081
301.176
301.249
301.302
301.335
301.352
301.358
301.358
301.358
301.36
301.37
301.392
301.435
301.506
301.611
301.747
301.905
302.076
302.254
302.437
302.629
302.834
303.054
303.291
303.544
303.822
304.155
304.63
305.332
306.196
300.137
300.395
300.63
300.83
300.989
301.114
301.213
301.29
301.346
301.381
301.398
301.402
301.4
301.397
301.396
301.4
301.414
301.444
301.5
301.59
301.717
301.876
302.054
302.242
302.436
302.637
302.849
303.074
303.314
303.57
303.848
304.182
304.655
305.353
306.211
300.14
300.405
300.647
300.854
301.019
301.149
301.253
301.334
301.393
301.43
301.447
301.45
301.446
301.44
301.436
301.436
301.443
301.462
301.501
301.571
301.682
301.833
302.014
302.212
302.418
302.631
302.852
303.085
303.33
303.589
303.87
304.203
304.674
305.369
306.227
300.144
300.417
300.666
300.879
301.049
301.183
301.292
301.377
301.439
301.478
301.497
301.5
301.494
301.486
301.48
301.477
301.48
301.491
301.516
301.564
301.65
301.782
301.957
302.161
302.378
302.602
302.834
303.074
303.326
303.59
303.874
304.209
304.68
305.374
306.234
300.148
300.428
300.684
300.903
301.078
301.217
301.33
301.419
301.485
301.526
301.546
301.549
301.542
301.532
301.525
301.522
301.524
301.531
301.546
301.577
301.637
301.74