/*--------------------------------*- C++ -*----------------------------------*\
| =========                 |                                                 |
| \\      /  F ield         | OpenFOAM: The Open Source CFD Toolbox           |
|  \\    /   O peration     | Version:  v2012                                 |
|   \\  /    A nd           | Website:  www.openfoam.com                      |
|    \\/     M anipulation  |                                                 |
\*---------------------------------------------------------------------------*/
FoamFile
{
    version     2.0;
    format      ascii;
    class       volScalarField;
    location    "300/leftSolid";
    object      T;
}
// * * * * * * * * * * * * * * * * * * * * * * * * * * * * * * * * * * * * * //

dimensions      [0 0 0 1 0 0 0];


internalField   nonuniform List<scalar> 
130
(
371.4387
371.6211
372.1002
372.8544
373.8702
375.1308
376.6118
378.2786
380.0829
381.959
383.8183
385.5468
387.0082
371.3637
371.5602
372.0545
372.8309
373.88
375.1901
376.743
378.5124
380.4598
382.5294
384.6384
386.6679
388.4553
371.355
371.5614
372.0767
372.8882
373.9923
375.3854
377.0618
379.0126
381.2221
383.663
386.2804
388.9688
391.5284
371.3716
371.5878
372.1243
372.9721
374.1337
375.6155
377.4278
379.5861
382.113
385.039
388.3938
392.181
396.2874
371.3908
371.6133
372.1633
373.0343
374.233
375.7734
377.678
379.9837
382.7516
386.0845
390.1575
395.2848
402.0535
371.3991
371.6216
372.1719
373.0432
374.2422
375.7829
377.6877
379.9937
382.7617
386.0949
390.1682
395.2958
402.0644
371.396
371.6127
372.15
372.9987
374.1611
375.6438
377.4568
379.6157
382.1431
385.0697
388.4253
392.2128
396.3185
371.3943
371.602
372.119
372.9323
374.0379
375.4324
377.11
379.0616
381.2718
383.7133
386.3312
389.0192
391.5771
371.4145
371.6151
372.113
372.8924
373.944
375.256
376.8103
378.5808
380.5289
382.5989
384.7079
386.7366
388.5215
371.4722
371.679
372.1657
372.9243
373.9433
375.2064
376.6892
378.3572
380.1623
382.039
383.8986
385.6276
387.0902
)
;

boundaryField
{
    minX
    {
        type            zeroGradient;
    }
    minZ
    {
        type            zeroGradient;
    }
    maxZ
    {
        type            zeroGradient;
    }
    leftSolid_to_bottomAir
    {
        type            compressible::turbulentTemperatureRadCoupledMixed;
        refValue        nonuniform List<scalar> 
130
(
378.5353
380.0751
381.4413
382.6745
383.8598
385.0254
386.1713
387.2847
388.3453
389.328
390.2025
390.9315
391.4659
379.1565
380.7357
382.1153
383.3756
384.6065
385.8377
387.0719
388.2964
389.4865
390.6092
391.623
392.4721
393.0652
379.324
380.9635
382.409
383.7436
385.0605
386.391
387.7376
389.0924
390.4323
391.7154
392.8937
393.9153
394.6611
379.2885
380.9912
382.5
383.8977
385.2836
386.692
388.1494
389.6598
391.2019
392.7543
394.3297
396.0361
397.9356
379.1015
380.8229
382.3665
383.7995
385.2235
386.6811
388.2259
389.8679
391.6104
393.4865
395.6803
398.9384
405.5662
379.1084
380.8256
382.3675
383.7996
385.2231
386.6811
388.2266
389.8695
391.6133
393.4906
395.6856
398.9449
405.575
379.2941
380.9895
382.4939
383.8871
385.2697
386.6756
388.1325
389.6433
391.1874
392.7438
394.326
396.0425
397.9543
379.3285
380.9601
382.3981
383.727
385.0391
386.366
387.7101
389.0644
390.4054
391.6921
392.8774
393.9101
394.6703
379.1623
380.7345
382.1078
383.3625
384.5884
385.8153
387.0462
388.2684
389.4578
390.5819
391.6
392.457
393.0613
378.5316
380.0743
381.4376
382.6673
383.849
385.011
386.1539
387.265
388.3246
389.308
390.1855
390.9203
391.4641
)
;
        refGradient     nonuniform List<scalar> 
130
(
0.1389748
0.1389748
0.1389748
0.1389748
0.09228616
0.09228616
0.09228616
0.09228616
0.01275423
0.01275423
0.01275423
0.01275423
-0.105292
0.1389748
0.1389748
0.1389748
0.1389748
0.09228616
0.09228616
0.09228616
0.09228616
0.01275423
0.01275423
0.01275423
0.01275423
-0.105292
0.1299649
0.1299649
0.1299649
0.1299649
0.07313405
0.07313405
0.07313405
0.07313405
-0.02843581
-0.02843581
-0.105292
-0.105292
-0.105292
0.1299649
0.1299649
0.1299649
0.1299649
0.07313405
0.07313405
0.07313405
0.07313405
-0.02843581
-0.02843581
-0.105292
-0.105292
-0.105292
0.1276985
0.1276985
0.1276985
0.1276985
0.06530619
0.06530619
0.06530619
0.06530619
-0.02843581
-0.02843581
-0.1954814
-0.1954814
-0.1954814
0.1276985
0.1276985
0.1276985
0.1276985
0.06530619
0.06530619
0.06530619
0.06530619
-0.02843581
-0.02843581
-0.1954814
-0.1954814
-0.1954814
0.1301136
0.1301136
0.1301136
0.1301136
0.07419091
0.07419091
0.07419091
0.07419091
-0.05548024
-0.05548024
-0.05548024
-0.05548024
-0.1954814
0.1301136
0.1301136
0.1301136
0.1301136
0.07419091
0.07419091
0.07419091
0.07419091
-0.05548024
-0.05548024
-0.05548024
-0.05548024
-0.1954814
0.138702
0.138702
0.138702
0.138702
0.09331736
0.09331736
0.09331736
0.09331736
0.002126651
0.002126651
0.002126651
0.002126651
0.002126651
0.138702
0.138702
0.138702
0.138702
0.09331736
0.09331736
0.09331736
0.09331736
0.002126651
0.002126651
0.002126651
0.002126651
0.002126651
)
;
        valueFraction   nonuniform List<scalar> 
130
(
0.0003213253
0.0003213253
0.0003213253
0.0003213253
0.0003213253
0.0003213253
0.0003213253
0.0003213253
0.0003213253
0.0003213253
0.0003213253
0.0003213253
0.0003213253
0.0003213253
0.0003213253
0.0003213253
0.0003213253
0.0003213253
0.0003213253
0.0003213253
0.0003213253
0.0003213253
0.0003213253
0.0003213253
0.0003213253
0.0003213253
0.0003213253
0.0003213253
0.0003213253
0.0003213253
0.0003213253
0.0003213253
0.0003213253
0.0003213253
0.0003213253
0.0003213253
0.0003213253
0.0003213253
0.0003213253
0.0003213253
0.0003213253
0.0003213253
0.0003213253
0.0003213253
0.0003213253
0.0003213253
0.0003213253
0.0003213253
0.0003213253
0.0003213253
0.0003213253
0.0003213253
0.0003213253
0.0003213253
0.0003213253
0.0003213253
0.0003213253
0.0003213253
0.0003213253
0.0003213253
0.0003213253
0.0003213253
0.0003213253
0.0003213253
0.0003213253
0.0003213253
0.0003213253
0.0003213253
0.0003213253
0.0003213253
0.0003213253
0.0003213253
0.0003213253
0.0003213253
0.0003213253
0.0003213253
0.0003213253
0.0003213253
0.0003213253
0.0003213253
0.0003213253
0.0003213253
0.0003213253
0.0003213253
0.0003213253
0.0003213253
0.0003213253
0.0003213253
0.0003213253
0.0003213253
0.0003213253
0.0003213253
0.0003213253
0.0003213253
0.0003213253
0.0003213253
0.0003213253
0.0003213253
0.0003213253
0.0003213253
0.0003213253
0.0003213253
0.0003213253
0.0003213253
0.0003213253
0.0003213253
0.0003213253
0.0003213253
0.0003213253
0.0003213253
0.0003213253
0.0003213253
0.0003213253
0.0003213253
0.0003213253
0.0003213253
0.0003213253
0.0003213253
0.0003213253
0.0003213253
0.0003213253
0.0003213253
0.0003213253
0.0003213253
0.0003213253
0.0003213253
0.0003213253
0.0003213253
0.0003213253
0.0003213253
)
;
        value           nonuniform List<scalar> 
130
(
371.2186
371.4016
371.8817
372.6372
373.6545
374.9171
376.4004
378.0698
379.8764
381.7553
383.6172
385.3482
386.8112
371.1436
371.3408
371.8362
372.6139
373.6646
374.9767
376.532
378.3042
380.2542
382.3268
384.4389
386.4714
388.2608
371.1349
371.342
371.8584
372.6714
373.777
375.1724
376.8514
378.8052
381.0177
383.4623
386.0832
388.7756
391.3387
371.1514
371.3684
371.9061
372.7554
373.9187
375.4029
377.2181
379.3798
381.9101
384.8406
388.2001
391.993
396.1056
371.1707
371.3939
371.945
372.8176
374.0181
375.561
377.4686
379.7779
382.5497
385.8877
389.9664
395.1018
401.8819
371.1789
371.4023
371.9537
372.8265
374.0273
375.5705
377.4783
379.7879
382.5599
385.8982
389.9771
395.1128
401.8929
371.1759
371.3933
371.9318
372.782
373.9462
375.4312
377.2471
379.4094
381.9401
384.8712
388.2319
392.025
396.1364
371.1743
371.3827
371.9008
372.7155
373.8228
375.2195
376.8997
378.8543
381.0673
383.5125
386.1343
388.8263
391.3872
371.1945
371.3959
371.8948
372.6755
373.7286
375.0427
376.5995
378.3727
380.3233
382.3964
384.5085
386.5401
388.3275
371.2521
371.4596
371.9473
372.7073
373.7278
374.9928
376.4779
378.1485
379.9559
381.8353
383.6977
385.4291
386.8938
)
;
        Tnbr            T;
        qrNbr           qr;
        qr              none;
        thermalInertia  false;
        thicknessLayers List<scalar> 0();
        kappaLayers     List<scalar> 0();
        kappaMethod     solidThermo;
        kappa           none;
        alphaAni        none;
        alpha           none;
    }
    leftSolid_to_heater
    {
        type            compressible::turbulentTemperatureCoupledBaffleMixed;
        refValue        nonuniform List<scalar> 10(388.0283 389.749 393.5641 400.1664 411.5948 411.6071 400.2001 393.6132 389.8126 388.0935);
        refGradient     uniform 0;
        valueFraction   nonuniform List<scalar> 10(0.5000003 0.5000003 0.5000003 0.5000003 0.5000003 0.5000003 0.5000003 0.5000003 0.5000003 0.5000003);
        value           nonuniform List<scalar> 10(387.4192 389.0043 392.4511 398.1359 406.7382 406.7498 398.1684 392.5001 389.0693 387.4929);
        Tnbr            T;
        thicknessLayers List<scalar> 0();
        kappaLayers     List<scalar> 0();
        kappaMethod     solidThermo;
        kappa           none;
        alphaAni        none;
        alpha           none;
        field           T;
    }
    leftSolid_to_topAir
    {
        type            compressible::turbulentTemperatureRadCoupledMixed;
        refValue        nonuniform List<scalar> 
130
(
302.9809
305.8929
308.6508
311.2812
313.8077
316.2516
318.6298
320.9457
323.2087
325.4247
327.5945
329.7077
331.7502
302.9768
305.8538
308.5489
311.0912
313.5051
315.8113
318.0269
320.1645
322.2316
324.2307
326.158
328.007
329.7582
302.9766
305.8585
308.5584
311.1042
313.5205
315.8295
318.0504
320.1994
322.2886
324.3263
326.3156
328.2524
330.1207
302.9773
305.8626
308.5694
311.1259
313.558
315.8896
318.1433
320.3399
322.499
324.6395
326.7803
328.939
331.1281
302.9782
305.8656
308.5759
311.1375
313.5768
315.9189
318.1882
320.4083
322.6036
324.8011
327.034
329.3482
331.7982
302.9785
305.8663
308.5769
311.1388
313.5784
315.9207
318.1902
320.4106
322.6061
324.8038
327.0369
329.3513
331.8015
302.9784
305.8646
308.5723
311.1297
313.5626
315.895
318.1495
320.3469
322.5067
324.6479
326.7893
328.9487
331.1383
302.9782
305.8618
308.5632
311.1105
313.5282
315.8384
318.0607
320.2109
322.3013
324.3402
326.3306
328.2683
330.1374
302.979
305.858
308.5552
311.0996
313.5155
315.8235
318.0411
320.1805
322.2494
324.2502
326.179
328.0296
329.782
302.9823
305.8968
308.6574
311.2906
313.8199
316.2667
318.6477
320.9664
323.2321
325.4506
327.6229
329.7384
331.7832
)
;
        refGradient     nonuniform List<scalar> 
130
(
-0.7695946
-0.7695946
-0.7695946
-0.7695946
-0.815569
-0.815569
-0.815569
-0.815569
-0.9117453
-0.9117453
-0.9117453
-0.9117453
-1.036799
-0.7695946
-0.7695946
-0.7695946
-0.7695946
-0.815569
-0.815569
-0.815569
-0.815569
-0.9117453
-0.9117453
-0.9117453
-0.9117453
-1.036799
-0.7758655
-0.7758655
-0.7758655
-0.7758655
-0.8396907
-0.8396907
-0.8396907
-0.8396907
-0.949705
-0.949705
-1.036799
-1.036799
-1.036799
-0.7758655
-0.7758655
-0.7758655
-0.7758655
-0.8396907
-0.8396907
-0.8396907
-0.8396907
-0.949705
-0.949705
-1.036799
-1.036799
-1.036799
-0.7775694
-0.7775694
-0.7775694
-0.7775694
-0.8477554
-0.8477554
-0.8477554
-0.8477554
-0.949705
-0.949705
-1.143662
-1.143662
-1.143662
-0.7775694
-0.7775694
-0.7775694
-0.7775694
-0.8477554
-0.8477554
-0.8477554
-0.8477554
-0.949705
-0.949705
-1.143662
-1.143662
-1.143662
-0.7763517
-0.7763517
-0.7763517
-0.7763517
-0.8402583
-0.8402583
-0.8402583
-0.8402583
-0.984707
-0.984707
-0.984707
-0.984707
-1.143662
-0.7763517
-0.7763517
-0.7763517
-0.7763517
-0.8402583
-0.8402583
-0.8402583
-0.8402583
-0.984707
-0.984707
-0.984707
-0.984707
-1.143662
-0.7704119
-0.7704119
-0.7704119
-0.7704119
-0.8166155
-0.8166155
-0.8166155
-0.8166155
-0.9249976
-0.9249976
-0.9249976
-0.9249976
-0.9249976
-0.7704119
-0.7704119
-0.7704119
-0.7704119
-0.8166155
-0.8166155
-0.8166155
-0.8166155
-0.9249976
-0.9249976
-0.9249976
-0.9249976
-0.9249976
)
;
        valueFraction   nonuniform List<scalar> 
130
(
0.0003213253
0.0003213253
0.0003213253
0.0003213253
0.0003213253
0.0003213253
0.0003213253
0.0003213253
0.0003213253
0.0003213253
0.0003213253
0.0003213253
0.0003213253
0.0003213253
0.0003213253
0.0003213253
0.0003213253
0.0003213253
0.0003213253
0.0003213253
0.0003213253
0.0003213253
0.0003213253
0.0003213253
0.0003213253
0.0003213253
0.0003213253
0.0003213253
0.0003213253
0.0003213253
0.0003213253
0.0003213253
0.0003213253
0.0003213253
0.0003213253
0.0003213253
0.0003213253
0.0003213253
0.0003213253
0.0003213253
0.0003213253
0.0003213253
0.0003213253
0.0003213253
0.0003213253
0.0003213253
0.0003213253
0.0003213253
0.0003213253
0.0003213253
0.0003213253
0.0003213253
0.0003213253
0.0003213253
0.0003213253
0.0003213253
0.0003213253
0.0003213253
0.0003213253
0.0003213253
0.0003213253
0.0003213253
0.0003213253
0.0003213253
0.0003213253
0.0003213253
0.0003213253
0.0003213253
0.0003213253
0.0003213253
0.0003213253
0.0003213253
0.0003213253
0.0003213253
0.0003213253
0.0003213253
0.0003213253
0.0003213253
0.0003213253
0.0003213253
0.0003213253
0.0003213253
0.0003213253
0.0003213253
0.0003213253
0.0003213253
0.0003213253
0.0003213253
0.0003213253
0.0003213253
0.0003213253
0.0003213253
0.0003213253
0.0003213253
0.0003213253
0.0003213253
0.0003213253
0.0003213253
0.0003213253
0.0003213253
0.0003213253
0.0003213253
0.0003213253
0.0003213253
0.0003213253
0.0003213253
0.0003213253
0.0003213253
0.0003213253
0.0003213253
0.0003213253
0.0003213253
0.0003213253
0.0003213253
0.0003213253
0.0003213253
0.0003213253
0.0003213253
0.0003213253
0.0003213253
0.0003213253
0.0003213253
0.0003213253
0.0003213253
0.0003213253
0.0003213253
0.0003213253
0.0003213253
0.0003213253
0.0003213253
)
;
        value           nonuniform List<scalar> 
130
(
371.1907
371.3741
371.8547
372.6107
373.6284
374.8914
376.3751
378.0448
379.8517
381.7311
383.5934
385.3248
386.7883
371.1155
371.3131
371.8089
372.587
373.6381
374.9506
376.5062
378.2786
380.2288
382.3018
384.4142
386.4469
388.2367
371.1067
371.3142
371.831
372.6444
373.7504
375.1461
376.8254
378.7794
380.9921
383.4369
386.0581
388.7507
391.3143
371.1233
371.3406
371.8787
372.7284
373.892
375.3765
377.1919
379.3538
381.8844
384.815
388.1746
391.9677
396.0804
371.1426
371.3662
371.9177
372.7906
373.9914
375.5346
377.4425
379.752
382.5238
385.862
389.9405
395.0756
401.8544
371.1508
371.3746
371.9263
372.7995
374.0006
375.5441
377.4522
379.7619
382.534
385.8724
389.9513
395.0866
401.8654
371.1477
371.3656
371.9044
372.755
373.9195
375.4048
377.221
379.3835
381.9143
384.8456
388.2064
391.9998
396.1112
371.1462
371.355
371.8734
372.6886
373.7961
375.1932
376.8737
378.8285
381.0417
383.4871
386.1092
388.8015
391.3627
371.1664
371.3682
371.8675
372.6486
373.7022
375.0166
376.5737
378.3472
380.298
382.3714
384.4838
386.5157
388.3035
371.2242
371.4322
371.9203
372.6807
373.7016
374.9671
376.4526
378.1236
379.9313
381.8111
383.6738
385.4057
386.8709
)
;
        Tnbr            T;
        qrNbr           qr;
        qr              none;
        thermalInertia  false;
        thicknessLayers List<scalar> 0();
        kappaLayers     List<scalar> 0();
        kappaMethod     solidThermo;
        kappa           none;
        alphaAni        none;
        alpha           none;
    }
}


// ************************************************************************* //
