/*--------------------------------*- C++ -*----------------------------------*\
| =========                 |                                                 |
| \\      /  F ield         | OpenFOAM: The Open Source CFD Toolbox           |
|  \\    /   O peration     | Version:  v2006                                 |
|   \\  /    A nd           | Website:  www.openfoam.com                      |
|    \\/     M anipulation  |                                                 |
\*---------------------------------------------------------------------------*/
FoamFile
{
    version     2.0;
    format      ascii;
    class       surfaceScalarField;
    location    "77";
    object      phi;
}
// * * * * * * * * * * * * * * * * * * * * * * * * * * * * * * * * * * * * * //

dimensions      [1 0 -1 0 0 0 0];
oriented        oriented;


internalField   nonuniform List<scalar> 
228225
(
-0.000238224
-3.25348e-05
-9.81509e-07
-0.00020379
-3.41785e-05
-2.67006e-07
-0.000168092
-3.58396e-05
1.39179e-07
-0.000130927
-3.78182e-05
6.55611e-07
-9.6297e-05
-3.597e-05
1.3521e-06
-6.96246e-05
-2.88125e-05
2.11804e-06
-5.13372e-05
-2.076e-05
2.40204e-06
-3.96836e-05
-1.41361e-05
2.40255e-06
-2.9603e-05
-1.23926e-05
2.21324e-06
-1.90893e-05
-1.26079e-05
1.98902e-06
-8.63191e-06
-1.23857e-05
1.82338e-06
1.11764e-06
-1.15741e-05
1.72484e-06
9.78728e-06
-1.04409e-05
1.68165e-06
1.7079e-05
-9.01242e-06
1.65396e-06
2.28037e-05
-7.30326e-06
1.55854e-06
2.69691e-05
-5.39677e-06
1.27706e-06
2.98828e-05
-3.59373e-06
7.74939e-07
3.20616e-05
-2.24159e-06
1.62924e-07
3.3799e-05
-1.38941e-06
-2.64752e-07
3.52859e-05
-8.1863e-07
-6.03285e-07
3.65787e-05
-3.7056e-07
-8.75609e-07
3.76627e-05
2.7364e-08
-1.08287e-06
3.84907e-05
4.22307e-07
-1.2373e-06
3.90024e-05
8.43811e-07
-1.35471e-06
3.91351e-05
1.30827e-06
-1.44937e-06
3.88315e-05
1.82094e-06
-1.53214e-06
3.80411e-05
2.3811e-06
-1.60994e-06
3.67184e-05
2.98605e-06
-1.68577e-06
3.48124e-05
3.63848e-06
-1.75699e-06
3.2267e-05
4.33999e-06
-1.82024e-06
2.90272e-05
5.0893e-06
-1.87477e-06
2.50024e-05
5.91624e-06
-1.91544e-06
1.9896e-05
7.00159e-06
-1.92241e-06
1.24488e-05
9.21391e-06
-1.83119e-06
1.31276e-05
-7.66948e-07
-6.34769e-06
-2.83961e-05
2.25532e-06
-1.38012e-05
-3.16865e-05
4.48671e-06
-1.92567e-05
-3.58092e-05
5.17032e-06
-2.52426e-05
-3.75917e-05
5.70479e-06
-3.03946e-05
-3.69458e-05
6.02414e-06
-3.22033e-05
-3.35041e-05
6.41188e-06
-3.17737e-05
-2.80164e-05
6.75377e-06
-3.03909e-05
-2.1775e-05
6.24387e-06
-2.87709e-05
-1.84791e-05
4.59399e-06
-2.73464e-05
-1.68054e-05
2.94633e-06
-2.63801e-05
-1.49518e-05
1.7415e-06
-2.58509e-05
-1.27608e-05
7.66941e-07
-2.5621e-05
-1.0525e-05
-6.65884e-08
-2.5544e-05
-8.4049e-06
-6.34989e-07
-2.5108e-05
-6.57985e-06
-1.13289e-06
-2.38136e-05
-5.1487e-06
-1.52977e-06
-2.14715e-05
-4.07811e-06
-1.85148e-06
-1.83074e-05
-3.27238e-06
-2.1298e-06
-1.4712e-05
-2.60786e-06
-2.37414e-06
-1.09999e-05
-1.94489e-06
-2.58327e-06
-7.37709e-06
-1.23309e-06
-2.75823e-06
-3.94345e-06
-5.02493e-07
-2.90244e-06
-7.22002e-07
2.20162e-07
-3.01892e-06
2.30686e-06
9.23881e-07
-3.10957e-06
5.07513e-06
1.71355e-06
-3.17513e-06
7.539e-06
2.56984e-06
-3.21526e-06
9.65964e-06
3.48586e-06
-3.22871e-06
1.13929e-05
4.46217e-06
-3.21345e-06
1.26872e-05
5.50603e-06
-3.16649e-06
1.34715e-05
6.63395e-06
-3.08331e-06
1.3622e-05
7.88721e-06
-2.95412e-06
1.28909e-05
9.39672e-06
-2.75601e-06
1.06861e-05
1.16385e-05
-2.43921e-06
5.78387e-06
1.59616e-05
-1.83524e-06
1.93643e-05
-4.69922e-07
-1.78786e-05
-1.33862e-05
2.4015e-06
-2.56584e-05
-2.71574e-05
2.86766e-06
-2.94608e-05
-3.51854e-05
2.86784e-06
-3.10283e-05
-3.91872e-05
2.90908e-06
-3.07225e-05
-4.05639e-05
3.11045e-06
-2.70038e-05
-4.08303e-05
3.45918e-06
-1.9012e-05
-3.98976e-05
3.80494e-06
-7.13283e-06
-3.77328e-05
4.07605e-06
4.66898e-06
-3.44998e-05
4.32555e-06
1.46113e-05
-3.09371e-05
4.4154e-06
2.27467e-05
-2.70788e-05
4.32867e-06
2.92455e-05
-2.29354e-05
4.11141e-06
3.40728e-05
-1.86498e-05
3.7952e-06
3.71433e-05
-1.43319e-05
3.36118e-06
3.83413e-05
-1.0121e-05
2.78916e-06
3.76068e-05
-6.16671e-06
2.08913e-06
3.50371e-05
-2.60379e-06
1.30102e-06
3.09957e-05
3.87645e-07
4.68482e-07
2.57938e-05
2.86752e-06
-2.61412e-07
2.04685e-05
4.1992e-06
-8.29668e-07
1.61878e-05
4.32577e-06
-1.28211e-06
1.37578e-05
3.56808e-06
-1.63653e-06
1.27614e-05
3.15813e-06
-1.93598e-06
1.24196e-05
3.46783e-06
-2.19729e-06
1.23778e-05
4.18124e-06
-2.42193e-06
1.25168e-05
5.0413e-06
-2.60716e-06
1.27868e-05
5.96765e-06
-2.74972e-06
1.31244e-05
6.97051e-06
-2.84547e-06
1.34291e-05
8.08929e-06
-2.89023e-06
1.35545e-05
9.38069e-06
-2.87853e-06
1.32786e-05
1.09487e-05
-2.79914e-06
1.22165e-05
1.3059e-05
-2.62749e-06
9.63868e-06
1.64653e-05
-2.30513e-06
4.84546e-06
2.23096e-05
-1.63931e-06
2.44469e-05
-3.02649e-07
6.9733e-06
-2.16004e-05
1.33866e-06
1.38359e-05
-3.54851e-05
1.5192e-06
1.81949e-05
-4.08657e-05
1.34263e-06
2.01689e-05
-4.24444e-05
1.28021e-06
2.01037e-05
-4.18034e-05
1.26633e-06
1.83959e-05
-4.04853e-05
1.28538e-06
1.58475e-05
-3.87785e-05
1.30529e-06
1.36721e-05
-3.705e-05
1.3069e-06
1.2975e-05
-3.53523e-05
1.29921e-06
1.386e-05
-3.34251e-05
1.30889e-06
1.62743e-05
-3.11483e-05
1.3746e-06
2.01251e-05
-2.8521e-05
1.53469e-06
2.51628e-05
-2.55609e-05
1.78961e-06
3.09605e-05
-2.22035e-05
2.12461e-06
3.68689e-05
-1.8341e-05
2.51663e-06
4.21049e-05
-1.39472e-05
2.9153e-06
4.59513e-05
-9.17197e-06
3.23215e-06
4.79735e-05
-4.41507e-06
3.33958e-06
4.83558e-05
-1.76455e-07
3.15138e-06
4.66698e-05
3.6142e-06
2.65837e-06
4.24814e-05
6.94184e-06
1.76985e-06
3.63493e-05
9.06256e-06
6.3465e-07
2.98935e-05
9.82632e-06
-2.72356e-07
2.447e-05
9.70849e-06
-8.58373e-07
2.04462e-05
9.47028e-06
-1.2817e-06
1.75868e-05
9.50945e-06
-1.61051e-06
1.55962e-05
9.83576e-06
-1.87368e-06
1.42223e-05
1.04296e-05
-2.08156e-06
1.32375e-05
1.13093e-05
-2.23569e-06
1.24102e-05
1.25304e-05
-2.33056e-06
1.14573e-05
1.4232e-05
-2.35167e-06
9.94256e-06
1.67966e-05
-2.2684e-06
7.15671e-06
2.11671e-05
-2.00419e-06
3.14395e-06
2.75664e-05
-1.35326e-06
2.76747e-05
-1.58588e-07
1.11925e-06
-2.40024e-05
1.39659e-06
1.77315e-06
-3.76236e-05
1.62789e-06
1.4923e-06
-4.20618e-05
1.61658e-06
1.06871e-06
-4.35655e-05
1.67905e-06
1.38469e-06
-4.37224e-05
1.73256e-06
2.52652e-06
-4.32414e-05
1.74877e-06
4.5112e-06
-4.23555e-05
1.73418e-06
6.92517e-06
-4.10012e-05
1.6779e-06
9.19814e-06
-3.90671e-05
1.56608e-06
1.10438e-05
-3.6568e-05
1.38713e-06
1.24632e-05
-3.36748e-05
1.14659e-06
1.36495e-05
-3.05976e-05
8.72516e-07
1.48751e-05
-2.74658e-05
6.04952e-07
1.64991e-05
-2.43463e-05
3.87199e-07
1.89794e-05
-2.12741e-05
2.77612e-07
2.27427e-05
-1.8215e-05
3.42712e-07
2.79624e-05
-1.50683e-05
5.88025e-07
3.42823e-05
-1.16932e-05
9.58324e-07
4.06994e-05
-7.91194e-06
1.41018e-06
4.58875e-05
-3.30945e-06
1.98546e-06
4.75868e-05
3.07509e-06
2.64409e-06
4.42042e-05
1.01069e-05
2.86493e-06
3.75986e-05
1.44495e-05
2.34049e-06
3.08278e-05
1.52119e-05
1.40493e-06
2.56705e-05
1.40824e-05
5.6678e-07
2.22475e-05
1.29808e-05
-5.10317e-08
1.97825e-05
1.27741e-05
-4.74105e-07
1.77684e-05
1.32791e-05
-8.33631e-07
1.5943e-05
1.42685e-05
-1.13384e-06
1.41803e-05
1.56653e-05
-1.37684e-06
1.23664e-05
1.75887e-05
-1.55451e-06
1.02382e-05
2.05449e-05
-1.64292e-06
7.18029e-06
2.57482e-05
-1.56313e-06
3.2486e-06
3.25506e-05
-1.10054e-06
3.09686e-05
-1.04157e-07
1.6851e-06
-2.6083e-05
2.683e-07
4.46545e-06
-4.04087e-05
-2.36641e-07
7.33525e-06
-4.46784e-05
-5.1553e-07
9.8702e-06
-4.60086e-05
-3.22694e-07
1.19426e-05
-4.6028e-05
3.6803e-08
1.34581e-05
-4.53424e-05
4.16311e-07
1.44391e-05
-4.4228e-05
7.46514e-07
1.50814e-05
-4.27863e-05
1.02421e-06
1.56838e-05
-4.1003e-05
1.25005e-06
1.64715e-05
-3.88101e-05
1.42102e-06
1.75029e-05
-3.62056e-05
1.52258e-06
1.8703e-05
-3.32671e-05
1.53788e-06
1.99312e-05
-3.00585e-05
1.45851e-06
2.10236e-05
-2.66276e-05
1.28782e-06
2.18818e-05
-2.30998e-05
1.04907e-06
2.25888e-05
-1.96682e-05
7.92523e-07
2.33949e-05
-1.64476e-05
5.80675e-07
2.4602e-05
-1.33953e-05
4.72499e-07
2.64151e-05
-1.0292e-05
5.41326e-07
2.89506e-05
-6.70554e-06
8.99268e-07
3.24091e-05
-1.83942e-06
1.65971e-06
3.56457e-05
4.61134e-06
2.60751e-06
3.6319e-05
1.10104e-05
3.03714e-06
3.35222e-05
1.53721e-05
2.79563e-06
2.86414e-05
1.69002e-05
2.14291e-06
2.36902e-05
1.65939e-05
1.38189e-06
1.97331e-05
1.60281e-05
7.40895e-07
1.6754e-05
1.60963e-05
1.93344e-07
1.44178e-05
1.68991e-05
-2.74627e-07
1.24231e-05
1.83251e-05
-6.60732e-07
1.04475e-05
2.0512e-05
-9.62735e-07
8.07998e-06
2.40349e-05
-1.16603e-06
4.96258e-06
2.99826e-05
-1.2008e-06
1.96377e-06
3.63303e-05
-8.62519e-07
3.29471e-05
-6.89603e-08
4.30718e-06
-3.07239e-05
4.03653e-07
8.49334e-06
-4.43406e-05
-9.90884e-08
1.16276e-05
-4.71082e-05
-5.4285e-07
1.37726e-05
-4.74915e-05
-5.16491e-07
1.51557e-05
-4.69804e-05
-3.10512e-07
1.59466e-05
-4.59472e-05
-9.65197e-08
1.62551e-05
-4.45519e-05
7.38355e-08
1.61724e-05
-4.28658e-05
1.9118e-07
1.5804e-05
-4.08894e-05
2.56638e-07
1.52766e-05
-3.85961e-05
2.90858e-07
1.47381e-05
-3.60188e-05
3.09739e-07
1.43587e-05
-3.327e-05
3.25707e-07
1.43415e-05
-3.04547e-05
3.49593e-07
1.48449e-05
-2.75745e-05
3.89308e-07
1.58488e-05
-2.45622e-05
4.34692e-07
1.71356e-05
-2.14038e-05
4.594e-07
1.84349e-05
-1.81635e-05
4.4983e-07
1.96137e-05
-1.49513e-05
4.17739e-07
2.08108e-05
-1.18466e-05
3.95051e-07
2.24592e-05
-8.75778e-06
4.38987e-07
2.53034e-05
-5.29403e-06
6.73658e-07
2.95212e-05
-7.37519e-07
1.29015e-06
3.2752e-05
5.80799e-06
2.24976e-06
3.24979e-05
1.28582e-05
3.0801e-06
2.87742e-05
1.76238e-05
3.22462e-06
2.36385e-05
1.91361e-05
2.68299e-06
1.89804e-05
1.88429e-05
1.84713e-06
1.54615e-05
1.85052e-05
1.10328e-06
1.2981e-05
1.88737e-05
5.14262e-07
1.11999e-05
2.01291e-05
-7.64798e-09
9.6368e-06
2.25226e-05
-4.41199e-07
7.72969e-06
2.6746e-05
-8.16356e-07
4.80836e-06
3.38635e-05
-9.97069e-07
1.93599e-06
3.99164e-05
-7.85739e-07
3.4913e-05
-1.19951e-07
1.63426e-06
-3.23542e-05
7.26596e-08
3.96509e-06
-4.57078e-05
-9.12632e-07
6.94072e-06
-4.86385e-05
-1.43792e-06
1.00224e-05
-4.92151e-05
-1.37568e-06
1.29901e-05
-4.88927e-05
-1.08607e-06
1.57068e-05
-4.79795e-05
-7.19774e-07
1.80437e-05
-4.65802e-05
-3.4253e-07
1.99038e-05
-4.47438e-05
-1.09691e-08
2.11789e-05
-4.24944e-05
3.07737e-07
2.18991e-05
-3.98561e-05
5.25069e-07
2.21348e-05
-3.69077e-05
6.44931e-07
2.19772e-05
-3.37857e-05
6.69072e-07
2.15292e-05
-3.06278e-05
6.16548e-07
2.09484e-05
-2.7523e-05
5.18555e-07
2.04586e-05
-2.45003e-05
4.07514e-07
2.02503e-05
-2.15318e-05
3.0826e-07
2.03763e-05
-1.85543e-05
2.36474e-07
2.07407e-05
-1.55333e-05
1.98622e-07
2.11994e-05
-1.25022e-05
1.92429e-07
2.17168e-05
-9.48258e-06
2.17233e-07
2.24797e-05
-6.32567e-06
2.95975e-07
2.3825e-05
-2.54284e-06
5.30481e-07
2.57781e-05
2.87126e-06
1.14921e-06
2.69163e-05
9.88047e-06
2.07617e-06
2.60948e-05
1.59053e-05
2.72578e-06
2.36306e-05
1.8899e-05
2.79163e-06
2.0323e-05
1.96986e-05
2.48035e-06
1.70347e-05
1.9804e-05
1.99697e-06
1.42352e-05
2.0223e-05
1.46331e-06
1.19366e-05
2.1538e-05
9.10171e-07
9.78548e-06
2.43349e-05
3.40379e-07
7.14766e-06
2.95339e-05
-2.14709e-07
3.98062e-06
3.75019e-05
-5.94881e-07
1.62845e-06
4.27481e-05
-5.66131e-07
3.65888e-05
-9.68994e-08
2.06921e-06
-3.41309e-05
-3.55481e-07
5.02821e-06
-4.7936e-05
-8.08219e-07
7.9215e-06
-5.04756e-05
-1.13953e-06
1.05396e-05
-5.07032e-05
-1.21881e-06
1.27756e-05
-5.00688e-05
-1.15159e-06
1.45543e-05
-4.88261e-05
-1.02106e-06
1.58292e-05
-4.70731e-05
-8.63038e-07
1.6592e-05
-4.48787e-05
-6.96638e-07
1.68959e-05
-4.23184e-05
-5.33972e-07
1.68737e-05
-3.94921e-05
-3.811e-07
1.66977e-05
-3.65225e-05
-2.3692e-07
1.65188e-05
-3.35228e-05
-1.03659e-07
1.64171e-05
-3.05505e-05
1.0494e-08
1.63972e-05
-2.76003e-05
8.94934e-08
1.64244e-05
-2.46583e-05
1.28979e-07
1.64889e-05
-2.17264e-05
1.31925e-07
1.66288e-05
-1.88073e-05
1.15131e-07
1.69016e-05
-1.59065e-05
1.01833e-07
1.73225e-05
-1.30344e-05
1.14839e-07
1.78483e-05
-1.01686e-05
1.72243e-07
1.84296e-05
-7.16804e-06
2.91858e-07
1.90762e-05
-3.63623e-06
5.16852e-07
1.98445e-05
1.27437e-06
9.74201e-07
2.0202e-05
8.01259e-06
1.7348e-06
1.94257e-05
1.44223e-05
2.47779e-06
1.74828e-05
1.8199e-05
2.7677e-06
1.49862e-05
1.95994e-05
2.63883e-06
1.2502e-05
1.99977e-05
2.29072e-06
1.03498e-05
2.05204e-05
1.85027e-06
8.67099e-06
2.18972e-05
1.34093e-06
7.343e-06
2.49968e-05
7.29098e-07
5.69578e-06
3.11913e-05
5.767e-08
2.93714e-06
4.06606e-05
-4.61524e-07
1.12839e-06
4.50018e-05
-5.46944e-07
3.78421e-05
-2.02244e-07
1.10118e-06
-3.52603e-05
2.3983e-08
2.6956e-06
-4.9415e-05
-1.2472e-07
4.65836e-06
-5.21093e-05
-3.51157e-07
6.83778e-06
-5.24146e-05
-5.0027e-07
9.08722e-06
-5.17994e-05
-5.59825e-07
1.12748e-05
-5.05197e-05
-5.4393e-07
1.32735e-05
-4.86618e-05
-4.69291e-07
1.49629e-05
-4.62803e-05
-3.55764e-07
1.62339e-05
-4.34374e-05
-2.26169e-07
1.70016e-05
-4.02323e-05
-1.03025e-07
1.72217e-05
-3.68166e-05
3.90922e-09
1.69556e-05
-3.33736e-05
5.77873e-08
1.6336e-05
-3.00638e-05
8.63033e-08
1.55705e-05
-2.69649e-05
9.3035e-08
1.48525e-05
-2.40543e-05
8.29307e-08
1.42768e-05
-2.12379e-05
5.95161e-08
1.38252e-05
-1.84096e-05
2.93096e-08
1.34082e-05
-1.55164e-05
6.03897e-09
1.29469e-05
-1.25931e-05
3.59189e-09
1.24487e-05
-9.7221e-06
4.19809e-08
1.20057e-05
-6.88325e-06
1.62755e-07
1.1745e-05
-3.76468e-06
4.28153e-07
1.17517e-05
4.30219e-07
9.42101e-07
1.20857e-05
6.18725e-06
1.65062e-06
1.19407e-05
1.24947e-05
2.23229e-06
1.12153e-05
1.6506e-05
2.53342e-06
1.02532e-05
1.8086e-05
2.52741e-06
9.33723e-06
1.86035e-05
2.32183e-06
8.62056e-06
1.92111e-05
2.02676e-06
7.97975e-06
2.08915e-05
1.65091e-06
6.87617e-06
2.4975e-05
1.1394e-06
4.86471e-06
3.28185e-05
4.8021e-07
2.52515e-06
4.3312e-05
-1.12506e-07
1.01234e-06
4.68822e-05
-3.03523e-07
3.89059e-05
-1.33164e-07
7.05935e-07
-3.59046e-05
-1.33725e-07
1.85413e-06
-5.04035e-05
-2.6057e-07
3.22958e-06
-5.31359e-05
-4.57581e-07
4.71699e-06
-5.34198e-05
-5.98216e-07
6.25371e-06
-5.2772e-05
-6.87879e-07
7.78805e-06
-5.14522e-05
-7.31334e-07
9.2725e-06
-4.95486e-05
-7.29328e-07
1.06617e-05
-4.71169e-05
-6.81913e-07
1.19173e-05
-4.42252e-05
-5.90358e-07
1.30085e-05
-4.09759e-05
-4.59631e-07
1.38948e-05
-3.75017e-05
-3.00723e-07
1.45088e-05
-3.39429e-05
-1.30814e-07
1.47698e-05
-3.04276e-05
3.08146e-08
1.46525e-05
-2.70612e-05
1.55754e-07
1.42119e-05
-2.39075e-05
2.48605e-07
1.35943e-05
-2.09589e-05
3.031e-07
1.29637e-05
-1.81258e-05
3.17829e-07
1.2397e-05
-1.52752e-05
3.01042e-07
1.18285e-05
-1.23201e-05
2.75679e-07
1.11227e-05
-9.30848e-06
2.78032e-07
1.0264e-05
-6.3785e-06
3.48775e-07
9.49891e-06
-3.52887e-06
5.44293e-07
9.40197e-06
-3.95557e-07
9.87415e-07
9.9565e-06
3.93176e-06
1.83915e-06
1.03423e-05
9.569e-06
2.66097e-06
9.86182e-06
1.41466e-05
2.88258e-06
8.92091e-06
1.62618e-05
2.7479e-06
8.09876e-06
1.68669e-05
2.51092e-06
7.67775e-06
1.73549e-05
2.22934e-06
7.62658e-06
1.90471e-05
1.86877e-06
7.16881e-06
2.40537e-05
1.31925e-06
4.71657e-06
3.44377e-05
5.69374e-07
1.90995e-06
4.58571e-05
-5.18377e-09
8.00425e-07
4.80946e-05
-2.39352e-07
3.98111e-05
-1.47739e-07
9.06749e-07
-3.71935e-05
3.94176e-07
2.06272e-06
-5.18712e-05
3.04259e-07
3.43622e-06
-5.46136e-05
7.56452e-08
4.98681e-06
-5.4933e-05
-8.08438e-08
6.66858e-06
-5.43278e-05
-1.83612e-07
8.44301e-06
-5.30515e-05
-2.48761e-07
1.02612e-05
-5.11751e-05
-2.83138e-07
1.20456e-05
-4.87187e-05
-2.90923e-07
1.36823e-05
-4.57053e-05
-2.76524e-07
1.50368e-05
-4.22086e-05
-2.44128e-07
1.59956e-05
-3.83786e-05
-1.9644e-07
1.65072e-05
-3.4419e-05
-1.34485e-07
1.6586e-05
-3.05278e-05
-5.9323e-08
1.62799e-05
-2.68447e-05
2.55034e-08
1.56598e-05
-2.34393e-05
1.01133e-07
1.48121e-05
-2.03235e-05
1.71101e-07
1.38733e-05
-1.74502e-05
2.28369e-07
1.30109e-05
-1.47083e-05
2.64161e-07
1.23312e-05
-1.19429e-05
2.72988e-07
1.1774e-05
-9.04474e-06
2.65303e-07
1.11642e-05
-6.06844e-06
2.73349e-07
1.04685e-05
-3.19477e-06
3.38307e-07
1.0011e-05
-4.69214e-07
5.16971e-07
1.05299e-05
2.48214e-06
9.44658e-07
1.2035e-05
6.35173e-06
1.76237e-06
1.273e-05
1.09696e-05
2.51491e-06
1.17714e-05
1.4507e-05
2.69696e-06
9.97329e-06
1.60481e-05
2.58158e-06
8.25834e-06
1.66147e-05
2.421e-06
7.31794e-06
1.77693e-05
2.21708e-06
6.99794e-06
2.26653e-05
1.80539e-06
5.30027e-06
3.52068e-05
9.84514e-07
2.49182e-06
4.81227e-05
1.9428e-07
9.92571e-07
4.94229e-05
-1.28373e-07
4.08e-05
-1.51245e-07
-5.11315e-07
-3.69269e-05
1.69997e-07
-4.35446e-07
-5.21129e-05
4.00009e-08
2.09711e-07
-5.51677e-05
-2.2103e-07
1.22923e-06
-5.56616e-05
-4.22253e-07
2.51328e-06
-5.51963e-05
-5.50763e-07
4.01057e-06
-5.40654e-05
-6.24432e-07
5.69224e-06
-5.2354e-05
-6.51268e-07
7.53481e-06
-5.00838e-05
-6.34638e-07
9.49784e-06
-4.72565e-05
-5.77161e-07
1.14966e-05
-4.38934e-05
-4.83414e-07
1.33918e-05
-4.00779e-05
-3.61531e-07
1.50162e-05
-3.59728e-05
-2.22719e-07
1.62294e-05
-3.17916e-05
-7.90712e-08
1.6959e-05
-2.77373e-05
5.9489e-08
1.72015e-05
-2.39473e-05
1.87013e-07
1.70046e-05
-2.04803e-05
2.95912e-07
1.64595e-05
-1.73305e-05
3.82714e-07
1.5708e-05
-1.44372e-05
4.47546e-07
1.49273e-05
-1.16799e-05
4.90641e-07
1.42488e-05
-8.89731e-06
5.0767e-07
1.36343e-05
-5.97998e-06
5.05454e-07
1.29054e-05
-2.99995e-06
5.16974e-07
1.20147e-05
-1.78569e-07
5.86687e-07
1.12273e-05
2.4967e-06
7.67874e-07
1.11302e-05
5.27667e-06
1.19204e-06
1.12949e-05
8.78714e-06
2.08272e-06
1.03769e-05
1.25561e-05
2.89894e-06
8.29928e-06
1.50219e-05
3.05745e-06
5.90443e-06
1.60771e-05
2.86023e-06
4.17081e-06
1.68832e-05
2.58547e-06
3.93176e-06
2.08685e-05
2.20448e-06
3.96499e-06
3.4412e-05
1.42107e-06
2.72822e-06
4.94604e-05
5.98681e-07
1.28012e-06
5.10007e-05
2.33698e-07
4.20231e-05
8.96511e-08
-6.88129e-07
-3.69468e-05
6.38644e-07
-8.77065e-07
-5.26816e-05
6.84035e-07
-4.88912e-07
-5.60612e-05
4.49938e-07
3.38571e-07
-5.67727e-05
2.36915e-07
1.52532e-06
-5.64981e-05
6.76329e-08
3.01564e-06
-5.55488e-05
-6.30429e-08
4.75928e-06
-5.40125e-05
-1.57719e-07
6.7074e-06
-5.19072e-05
-2.20811e-07
8.80029e-06
-4.92204e-05
-2.52435e-07
1.0955e-05
-4.59443e-05
-2.5344e-07
1.30519e-05
-4.21173e-05
-2.25492e-07
1.49385e-05
-3.78599e-05
-1.72123e-07
1.64609e-05
-3.33763e-05
-9.95658e-08
1.75103e-05
-2.89089e-05
-1.6411e-08
1.80501e-05
-2.4667e-05
7.02342e-08
1.8112e-05
-2.07767e-05
1.53226e-07
1.77737e-05
-1.72777e-05
2.27658e-07
1.71462e-05
-1.41417e-05
2.90903e-07
1.63811e-05
-1.12884e-05
3.4338e-07
1.5666e-05
-8.59331e-06
3.86714e-07
1.51627e-05
-5.91733e-06
4.19402e-07
1.48801e-05
-3.18321e-06
4.4683e-07
1.46553e-05
-4.62264e-07
4.92489e-07
1.44404e-05
2.1104e-06
5.89791e-07
1.43667e-05
4.56419e-06
7.85213e-07
1.47594e-05
7.22021e-06
1.20212e-06
1.51068e-05
1.03552e-05
1.92545e-06
1.45612e-05
1.31249e-05
2.50698e-06
1.34885e-05
1.45073e-05
2.66668e-06
1.24932e-05
1.52808e-05
2.57698e-06
1.12831e-05
1.96085e-05
2.35231e-06
8.30429e-06
3.54107e-05
1.71127e-06
4.72966e-06
5.19947e-05
8.53837e-07
1.91478e-06
5.32691e-05
4.32359e-07
4.3701e-05
1.80352e-07
-8.42448e-07
-3.63049e-05
1.43745e-07
-8.97462e-07
-5.25624e-05
-1.24458e-07
-3.4407e-07
-5.63983e-05
-2.50025e-07
5.57972e-07
-5.73309e-05
-3.60282e-07
1.7074e-06
-5.7198e-05
-4.56865e-07
3.06061e-06
-5.63736e-05
-5.33061e-07
4.59387e-06
-5.49723e-05
-5.83024e-07
6.30102e-06
-5.30373e-05
-6.01155e-07
8.18991e-06
-5.05769e-05
-5.8259e-07
1.02603e-05
-4.75774e-05
-5.24271e-07
1.24643e-05
-4.40236e-05
-4.26608e-07
1.46777e-05
-3.99439e-05
-2.95285e-07
1.67152e-05
-3.54585e-05
-1.42163e-07
1.83869e-05
-3.07833e-05
1.66561e-08
1.95466e-05
-2.61698e-05
1.77765e-07
2.01489e-05
-2.18244e-05
3.12115e-07
2.02175e-05
-1.78611e-05
4.16112e-07
1.98247e-05
-1.43063e-05
4.88695e-07
1.90796e-05
-1.11222e-05
5.33122e-07
1.81295e-05
-8.22875e-06
5.55295e-07
1.71473e-05
-5.52115e-06
5.65215e-07
1.62733e-05
-2.8998e-06
5.75496e-07
1.55144e-05
-3.16168e-07
6.01614e-07
1.48313e-05
2.12078e-06
6.66352e-07
1.42264e-05
4.37439e-06
7.97927e-07
1.38621e-05
6.55475e-06
1.05997e-06
1.36846e-05
8.95494e-06
1.6787e-06
1.30604e-05
1.13339e-05
2.55422e-06
1.21624e-05
1.25457e-05
2.93619e-06
1.13008e-05
1.32745e-05
2.84927e-06
9.73432e-06
1.84819e-05
2.46945e-06
5.20318e-06
3.77503e-05
1.66231e-06
2.51003e-06
5.35202e-05
7.40124e-07
8.4259e-07
5.4344e-05
2.68421e-07
4.43082e-05
3.29592e-08
-4.30707e-07
-3.61112e-05
1.4006e-07
5.82119e-07
-5.34018e-05
-2.42777e-07
2.13034e-06
-5.76142e-05
-3.38088e-07
3.83551e-06
-5.86372e-05
-3.62831e-07
5.59576e-06
-5.85019e-05
-3.92196e-07
7.35868e-06
-5.76214e-05
-4.30567e-07
9.08001e-06
-5.61215e-05
-4.74632e-07
1.07288e-05
-5.40675e-05
-5.17704e-07
1.23086e-05
-5.15149e-05
-5.50996e-07
1.38688e-05
-4.85092e-05
-5.64061e-07
1.54789e-05
-4.50661e-05
-5.45947e-07
1.71655e-05
-4.11755e-05
-4.87372e-07
1.88564e-05
-3.6852e-05
-3.83891e-07
2.0385e-05
-3.22002e-05
-2.39181e-07
2.15638e-05
-2.74272e-05
-6.75615e-08
2.2253e-05
-2.27768e-05
1.2176e-07
2.24118e-05
-1.84376e-05
2.97279e-07
2.20742e-05
-1.45041e-05
4.42982e-07
2.13238e-05
-1.09863e-05
5.49405e-07
2.0271e-05
-7.83463e-06
6.15711e-07
1.90345e-05
-4.96057e-06
6.48487e-07
1.77174e-05
-2.26184e-06
6.61438e-07
1.63531e-05
3.60839e-07
6.74645e-07
1.50079e-05
2.74254e-06
7.13021e-07
1.36108e-05
4.95844e-06
8.03193e-07
1.22091e-05
6.97279e-06
9.76342e-07
1.09196e-05
8.93097e-06
1.31946e-06
9.24461e-06
1.09895e-05
2.04428e-06
6.84721e-06
1.22315e-05
2.71576e-06
4.62496e-06
1.26398e-05
2.88716e-06
3.44277e-06
1.71482e-05
2.6526e-06
1.37451e-06
3.78668e-05
1.843e-06
-8.55395e-07
5.46562e-05
1.23173e-06
-8.6405e-07
5.37501e-05
8.47838e-07
4.3132e-05
4.17836e-07
7.77096e-07
-3.63254e-05
-6.09791e-07
2.98463e-06
-5.42371e-05
-1.34906e-06
5.59309e-06
-5.86784e-05
-1.45785e-06
8.17185e-06
-5.96768e-05
-1.41597e-06
1.05885e-05
-5.94045e-05
-1.36507e-06
1.27663e-05
-5.83041e-05
-1.32388e-06
1.46377e-05
-5.65109e-05
-1.29183e-06
1.61589e-05
-5.41234e-05
-1.26253e-06
1.73421e-05
-5.12681e-05
-1.22644e-06
1.8273e-05
-4.80778e-05
-1.17358e-06
1.90895e-05
-4.46316e-05
-1.09591e-06
1.99307e-05
-4.09254e-05
-9.87989e-07
2.08661e-05
-3.69028e-05
-8.46628e-07
2.18469e-05
-3.25388e-05
-6.71339e-07
2.27256e-05
-2.79222e-05
-4.66193e-07
2.33307e-05
-2.32519e-05
-2.40883e-07
2.35434e-05
-1.87507e-05
-1.36879e-08
2.33007e-05
-1.45707e-05
2.10377e-07
2.26111e-05
-1.07684e-05
3.96481e-07
2.15172e-05
-7.32841e-06
5.36441e-07
2.00802e-05
-4.18216e-06
6.27166e-07
1.82973e-05
-1.17285e-06
6.76193e-07
1.63628e-05
1.58354e-06
7.02221e-07
1.42732e-05
4.09371e-06
7.32434e-07
1.18847e-05
6.54397e-06
7.96007e-07
9.07488e-06
8.84572e-06
9.22429e-07
5.80142e-06
1.10069e-05
1.15971e-06
1.81868e-06
1.31793e-05
1.69373e-06
-3.9106e-06
1.50403e-05
2.70457e-06
-1.07244e-05
1.59365e-05
3.34887e-06
-1.25282e-05
1.64993e-05
3.25637e-06
1.44263e-07
2.47834e-05
2.4118e-06
1.49079e-06
5.22306e-05
8.83627e-07
2.37394e-08
5.44099e-05
2.94241e-07
4.28569e-05
3.93573e-08
1.71878e-06
-3.72232e-05
-8.97373e-07
5.47731e-06
-5.62848e-05
-1.69831e-06
9.49977e-06
-6.08505e-05
-1.7615e-06
1.32679e-05
-6.16485e-05
-1.66529e-06
1.66517e-05
-6.10481e-05
-1.57807e-06
1.95441e-05
-5.94804e-05
-1.52439e-06
2.18361e-05
-5.70746e-05
-1.50788e-06
2.34721e-05
-5.39945e-05
-1.52081e-06
2.44966e-05
-5.04902e-05
-1.54506e-06
2.50429e-05
-4.6807e-05
-1.55974e-06
2.52927e-05
-4.30906e-05
-1.54838e-06
2.54395e-05
-3.93604e-05
-1.50054e-06
2.56477e-05
-3.55385e-05
-1.41009e-06
2.60003e-05
-3.15193e-05
-1.27453e-06
2.64639e-05
-2.72641e-05
-1.0953e-06
2.69187e-05
-2.28643e-05
-8.7766e-07
2.7236e-05
-1.85117e-05
-6.30762e-07
2.73356e-05
-1.43907e-05
-3.67748e-07
2.71963e-05
-1.06052e-05
-1.05177e-07
2.68663e-05
-7.18802e-06
1.27243e-07
2.64679e-05
-4.14118e-06
3.173e-07
2.62932e-05
-1.47159e-06
4.52447e-07
2.62892e-05
1.04512e-06
5.34869e-07
2.58949e-05
3.90567e-06
5.82142e-07
2.52209e-05
6.60197e-06
6.19674e-07
2.41979e-05
9.19567e-06
6.78716e-07
2.27581e-05
1.16623e-05
7.88588e-07
2.09095e-05
1.40254e-05
9.88384e-07
1.79732e-05
1.65437e-05
1.36036e-06
1.59702e-05
1.60632e-05
1.95197e-06
1.68297e-05
1.34962e-05
2.64946e-06
2.25518e-05
1.70177e-05
3.45838e-06
2.15578e-05
5.29888e-05
2.60877e-06
1.13907e-05
6.42994e-05
1.4635e-06
5.37869e-05
8.23376e-07
4.4505e-06
-4.01014e-05
-1.54318e-06
9.80488e-06
-5.89151e-05
-2.53094e-06
1.46084e-05
-6.27959e-05
-2.62254e-06
1.87704e-05
-6.3054e-05
-2.50601e-06
2.22802e-05
-6.19001e-05
-2.39026e-06
2.50095e-05
-5.96082e-05
-2.3119e-06
2.68445e-05
-5.63196e-05
-2.28e-06
2.78472e-05
-5.23931e-05
-2.28493e-06
2.82425e-05
-4.82709e-05
-2.30025e-06
2.82979e-05
-4.42624e-05
-2.30009e-06
2.82451e-05
-4.04879e-05
-2.26996e-06
2.82723e-05
-3.6927e-05
-2.20515e-06
2.85427e-05
-3.34797e-05
-2.10556e-06
2.91914e-05
-3.00159e-05
-1.97196e-06
3.02888e-05
-2.64326e-05
-1.80596e-06
3.18132e-05
-2.27193e-05
-1.61131e-06
3.3678e-05
-1.89839e-05
-1.39366e-06
3.57923e-05
-1.53879e-05
-1.15954e-06
3.80932e-05
-1.20509e-05
-9.16878e-07
4.05466e-05
-9.02324e-06
-6.78056e-07
4.31493e-05
-6.32387e-06
-4.62669e-07
4.59147e-05
-3.96277e-06
-2.92979e-07
4.90748e-05
-1.92794e-06
-1.83474e-07
5.34492e-05
-3.09527e-07
-1.38859e-07
5.84284e-05
1.81342e-06
-1.59079e-07
6.39905e-05
3.90035e-06
-2.27102e-07
6.98315e-05
6.19175e-06
-3.25661e-07
7.48352e-05
9.48009e-06
-4.44884e-07
7.63301e-05
1.58298e-05
-6.96729e-07
6.92012e-05
2.32602e-05
-3.65572e-07
4.85397e-05
3.13563e-05
8.00361e-07
1.69089e-05
4.22416e-05
1.4471e-06
4.67347e-06
6.07317e-05
2.01942e-06
-1.67928e-07
6.70549e-05
1.88734e-06
5.29047e-05
8.65838e-07
4.73695e-06
-4.30574e-05
-1.6043e-06
9.0974e-06
-6.07419e-05
-2.19111e-06
1.26769e-05
-6.37578e-05
-2.30209e-06
1.56288e-05
-6.3391e-05
-2.31564e-06
1.77976e-05
-6.14163e-05
-2.34145e-06
1.88679e-05
-5.79274e-05
-2.41575e-06
1.87804e-05
-5.33523e-05
-2.53469e-06
1.78764e-05
-4.85032e-05
-2.65887e-06
1.6601e-05
-4.39596e-05
-2.7439e-06
1.52687e-05
-3.99045e-05
-2.76966e-06
1.40353e-05
-3.62895e-05
-2.73764e-06
1.29625e-05
-3.29902e-05
-2.657e-06
1.20869e-05
-2.98788e-05
-2.53448e-06
1.1463e-05
-2.68453e-05
-2.37378e-06
1.11613e-05
-2.38055e-05
-2.17785e-06
1.12189e-05
-2.07155e-05
-1.94967e-06
1.15865e-05
-1.7589e-05
-1.69311e-06
1.21251e-05
-1.44864e-05
-1.41164e-06
1.26477e-05
-1.14705e-05
-1.10716e-06
1.29546e-05
-8.57284e-06
-7.82191e-07
1.28374e-05
-5.79524e-06
-4.44295e-07
1.20097e-05
-3.07098e-06
-9.17889e-08
1.00882e-05
-1.50431e-07
1.34244e-07
7.69288e-06
1.80281e-06
3.04347e-07
5.30084e-06
3.85318e-06
4.09783e-07
2.71431e-06
6.10857e-06
4.71179e-07
-4.17776e-07
8.92268e-06
5.6804e-07
-4.33097e-06
1.3073e-05
7.50267e-07
-8.54877e-06
1.99635e-05
7.37864e-07
-1.63868e-05
3.06257e-05
1.94678e-07
-2.97762e-05
4.25878e-05
-7.97557e-07
-4.15458e-05
4.98186e-05
-1.66733e-06
-3.79322e-05
5.26004e-05
-1.80741e-06
-2.21954e-05
4.85439e-05
-1.48159e-06
3.06764e-05
-1.49155e-06
5.98214e-06
-4.71922e-05
-1.44774e-06
9.09084e-06
-6.17675e-05
-1.62726e-06
1.08285e-05
-6.33467e-05
-1.79186e-06
1.18177e-05
-6.20754e-05
-1.97564e-06
1.17738e-05
-5.88022e-05
-2.21249e-06
1.04029e-05
-5.36287e-05
-2.54281e-06
8.11054e-06
-4.7787e-05
-2.91115e-06
5.63125e-06
-4.25202e-05
-3.2041e-06
3.41672e-06
-3.8148e-05
-3.36243e-06
1.56923e-06
-3.44771e-05
-3.3945e-06
1.09885e-08
-3.12431e-05
-3.33465e-06
-1.38149e-06
-2.82496e-05
-3.21421e-06
-2.71254e-06
-2.53734e-05
-3.05318e-06
-4.04203e-06
-2.25428e-05
-2.86207e-06
-5.38423e-06
-1.97176e-05
-2.64628e-06
-6.73024e-06
-1.68754e-05
-2.40943e-06
-8.0907e-06
-1.40087e-05
-2.15378e-06
-9.52676e-06
-1.11251e-05
-1.88e-06
-1.11442e-05
-8.2428e-06
-1.58541e-06
-1.30631e-05
-5.38349e-06
-1.26416e-06
-1.53812e-05
-2.57775e-06
-9.10277e-07
-1.80671e-05
1.06579e-07
-5.20194e-07
-2.17214e-05
3.55669e-06
-1.00455e-07
-2.74206e-05
7.06114e-06
3.85587e-07
-3.5352e-05
1.08658e-05
9.11739e-07
-4.49304e-05
1.4446e-05
1.43786e-06
-5.473e-05
1.74004e-05
1.96867e-06
-6.26299e-05
1.99713e-05
2.57149e-06
-6.41606e-05
2.16197e-05
3.26449e-06
-5.55961e-05
2.38856e-05
3.86061e-06
-4.19325e-05
3.14245e-05
3.94434e-06
-2.59689e-05
3.61137e-05
3.29474e-06
-8.78535e-06
3.7717e-05
2.01795e-06
-8.90024e-08
4.24786e-05
3.55709e-07
3.19875e-05
1.63605e-07
4.37229e-06
-5.04123e-05
-6.51811e-07
5.16216e-06
-6.18104e-05
-3.98501e-07
4.82746e-06
-6.21756e-05
-5.9741e-07
3.99301e-06
-6.0082e-05
-9.37408e-07
2.46059e-06
-5.56154e-05
-1.40421e-06
3.85958e-07
-4.92879e-05
-2.01876e-06
-1.41139e-06
-4.31558e-05
-2.63948e-06
-2.32741e-06
-3.83631e-05
-3.10368e-06
-2.284e-06
-3.47112e-05
-3.37765e-06
-1.44619e-06
-3.17263e-05
-3.50194e-06
-1.78318e-09
-2.90834e-05
-3.52382e-06
1.91557e-06
-2.66106e-05
-3.47867e-06
4.23248e-06
-2.42246e-05
-3.39037e-06
6.92196e-06
-2.18866e-05
-3.27443e-06
9.99015e-06
-1.95802e-05
-3.14088e-06
1.34676e-05
-1.73012e-05
-2.99661e-06
1.73982e-05
-1.50495e-05
-2.84686e-06
2.18199e-05
-1.28218e-05
-2.69581e-06
2.67447e-05
-1.06063e-05
-2.54649e-06
3.21466e-05
-8.38333e-06
-2.40064e-06
3.79522e-05
-6.13488e-06
-2.25861e-06
4.40196e-05
-3.86036e-06
-2.12029e-06
5.11188e-05
-1.59136e-06
-1.97946e-06
5.89004e-05
1.07127e-06
-1.83272e-06
6.50979e-05
6.31732e-06
-1.68392e-06
6.72362e-05
1.37625e-05
-1.50776e-06
6.5196e-05
2.05295e-05
-1.16554e-06
6.14157e-05
2.45814e-05
-5.97846e-07
5.64342e-05
2.66598e-05
4.6828e-07
5.01452e-05
2.87055e-05
1.60823e-06
4.32197e-05
3.56922e-05
3.11321e-06
3.75744e-05
4.2257e-05
3.15954e-06
3.32929e-05
4.77013e-05
2.53638e-06
2.03619e-05
5.8283e-05
2.90165e-06
5.09796e-05
2.60273e-06
-5.97344e-07
-4.97116e-05
2.018e-07
-2.8784e-06
-5.99292e-05
4.88087e-07
-5.20054e-06
-6.01343e-05
2.84148e-07
-7.17352e-06
-5.80377e-05
-9.63711e-08
-8.56035e-06
-5.36502e-05
-6.24824e-07
-9.04682e-06
-4.75855e-05
-1.28146e-06
-8.63232e-06
-4.17231e-05
-1.90067e-06
-7.5925e-06
-3.70535e-05
-2.36849e-06
-6.14481e-06
-3.34541e-05
-2.69219e-06
-4.37875e-06
-3.05545e-05
-2.90474e-06
-2.32491e-06
-2.80648e-05
-3.02826e-06
-1.00605e-10
-2.58081e-05
-3.07845e-06
2.58471e-06
-2.36899e-05
-3.07005e-06
5.42679e-06
-2.16641e-05
-3.0174e-06
8.53178e-06
-1.97096e-05
-2.93303e-06
1.19094e-05
-1.78159e-05
-2.82672e-06
1.55682e-05
-1.59742e-05
-2.70574e-06
1.95134e-05
-1.41717e-05
-2.57563e-06
2.3745e-05
-1.23871e-05
-2.44078e-06
2.82499e-05
-1.05851e-05
-2.30412e-06
3.29621e-05
-8.69741e-06
-2.16635e-06
3.7651e-05
-6.57431e-06
-2.02573e-06
4.16474e-05
-3.86381e-06
-1.87555e-06
4.34651e-05
4.34447e-07
-1.68219e-06
4.4069e-05
5.55655e-06
-1.41667e-06
4.22037e-05
1.456e-05