/*--------------------------------*- C++ -*----------------------------------*\
| =========                 |                                                 |
| \\      /  F ield         | OpenFOAM: The Open Source CFD Toolbox           |
|  \\    /   O peration     | Version:  v2006                                 |
|   \\  /    A nd           | Website:  www.openfoam.com                      |
|    \\/     M anipulation  |                                                 |
\*---------------------------------------------------------------------------*/
FoamFile
{
    version     2.0;
    format      ascii;
    class       volScalarField;
    location    "77";
    object      T;
}
// * * * * * * * * * * * * * * * * * * * * * * * * * * * * * * * * * * * * * //

dimensions      [0 0 0 1 0 0 0];


internalField   nonuniform List<scalar> 
78750
(
331.984
333.768
334.918
336.314
338.055
338.87
338.679
338.585
338.408
338.22
338.053
337.891
337.703
337.37
336.717
335.607
334.183
332.869
331.946
331.334
330.932
330.697
330.59
330.571
330.611
330.687
330.784
330.889
330.993
331.084
331.15
331.263
332.097
339.585
430.431
315.301
324.551
329.479
333.094
335.544
336.227
335.945
334.198
332.712
332.317
332.289
332.234
332.166
332.142
332.18
332.257
332.344
332.43
332.507
332.579
332.644
332.702
332.754
332.8
332.843
332.886
332.936
333.009
333.136
333.384
333.913
335.194
339.203
357.529
449.921
322.157
327.009
329.437
331.685
333.729
336.023
338.47
340.743
342.242
342.827
342.634
341.706
340.183
338.223
336.126
334.248
332.864
332.104
331.927
332.118
332.409
332.655
332.863
333.058
333.248
333.434
333.627
333.846
334.13
334.563
335.343
337.086
342.468
365.097
456.5
301.411
310.219
318.78
325.396
328.89
331.375
334.004
336.806
339.584
342.289
344.858
347.005
348.445
349.041
348.662
347.148
344.45
340.836
337.056
333.654
331.112
330.371
330.979
331.851
332.59
333.205
333.771
334.36
335.047
335.959
337.391
340.283
348.549
377.056
465.564
316.633
328.957
332.506
334.272
335.77
337.025
337.974
338.747
339.514
340.374
341.378
342.566
343.953
345.538
347.273
348.888
349.928
350.134
349.463
347.598
343.519
337.942
333.435
331.34
331.157
331.721
332.471
333.321
334.332
335.67
337.758
341.918
352.948
384.205
468.281
306.635
316.841
324.48
329.328
332.6
335.177
337.5
339.726
341.842
343.707
345.157
346.166
346.828
347.251
347.559
347.89
348.31
348.785
349.163
349.009
347.286
342.876
337.773
334.379
332.733
332.336
332.569
333.164
334.128
335.521
337.642
341.914
354.301
389.042
471.963
313.114
324.951
329.156
331.563
333.663
335.67
337.577
339.364
341.046
342.667
344.263
345.856
347.433
348.896
350.045
350.745
351.043
351.07
350.936
350.657
349.995
348.132
344.189
338.681
333.803
331.046
330.543
331.426
332.934
335.076
338.588
345.692
362.935
398.798
473.721
310.412
322.739
329.537
333.413
336.062
338.145
339.926
341.548
343.091
344.567
345.94
347.167
348.234
349.17
350.021
350.802
351.463
351.908
352.065
351.928
351.48
350.476
348.111
343.813
338.843
335.253
333.276
332.525
332.802
334.126
337.031
343.708
362.121
401.026
475.828
315.046
326.849
330.967
333.308
335.303
337.239
339.164
341.062
342.886
344.594
346.171
347.627
348.962
350.141
351.116
351.866
352.404
352.74
352.85
352.672
352.105
350.923
348.631
344.834
340.011
335.938
333.489
332.379
332.418
333.852
338.088
348.994
373.497
410.387
475.096
311.297
323.805
329.925
333.373
335.936
338.164
340.218
342.173
344.066
345.885
347.572
349.056
350.297
351.318
352.171
352.895
353.489
353.913
354.104
353.99
353.44
352.112
349.354
345.186
341.059
337.617
335.09
333.657
333.174
333.689
336.256
345.311
372.822
413.119
476.963
315.216
327.226
331.547
334.022
336.095
338.066
339.991
341.866
343.664
345.365
346.958
348.437
349.785
350.971
351.977
352.812
353.498
354.044
354.406
354.491
354.173
353.19
350.837
345.893
339.515
335.259
333.303
332.455
332.337
333.691
338.802
352.042
380.862
418.011
475.271
311.564
323.815
329.531
332.762
335.218
337.402
339.467
341.492
343.507
345.484
347.353
349.035
350.485
351.696
352.689
353.496
354.157
354.71
355.172
355.508
355.627
355.394
354.543
352.3
347.467
341.287
337.112
335.144
334.189
334.199
337.991
354.387
390.013
424.742
475.273
315.53
327.513
331.839
334.299
336.308
338.16
339.936
341.678
343.413
345.155
346.886
348.555
350.086
351.412
352.501
353.357
354.014
354.517
354.91
355.211
355.392
355.365
355.005
354.06
351.774
346.541
339.627
335.126
333.257
333.239
337.28
355.089
395.889
430.033
477.272
311.619
323.273
328.72
331.849
334.242
336.353
338.319
340.225
342.126
344.048
345.979
347.875
349.659
351.25
352.583
353.637
354.425
354.993
355.398
355.687
355.881
355.954
355.829
355.383
354.355
351.988
347.263
341.63
337.505
335.24
335.946
348.366
386.428
423.083
473.725
314.343
326.358
331.212
333.957
336.061
337.884
339.53
341.057
342.522
343.992
345.526
347.154
348.844
350.505
352.018
353.283
354.254
354.94
355.389
355.663
355.815
355.862
355.777
355.48
354.814
353.35
349.736
343.288
337.81
335.459
339.573
359.617
402.634
435.147
479.421
311.435
323.036
328.854
332.265
334.818
336.988
338.902
340.613
342.156
343.574
344.93
346.301
347.751
349.286
350.841
352.3
353.549
354.518
355.197
355.626
355.868
355.979
355.976
355.828
355.442
354.61
352.707
348.137
342.003
338.213
341.217
362.357
398.659
432.802
478.16
312.747
325.186
331.247
334.782
337.413
339.633
341.569
343.247
344.666
345.842
346.834
347.742
348.683
349.745
350.941
352.195
353.378
354.369
355.101
355.57
355.819
355.915
355.911
355.821
355.604
355.137
354.077
351.203
344.75
338.975
341.203
367.438
414.068
439.392
479.897
311.296
323.828
330.695
334.79
337.838
340.433
342.711
344.672
346.271
347.491
348.376
349.024
349.57
350.16
350.907
351.838
352.874
353.878
354.717
355.31
355.643
355.765
355.752
355.672
355.553
355.37
355.04
354.349
352.89
349.784
343.385
330.421
400.584
447.448
492.193
311.71
325.615
333.178
337.627
340.94
343.802
346.336
348.473
350.117
351.257
351.964
352.354
352.564
352.73
352.981
353.402
353.993
354.664
355.293
355.765
356.014
356.04
355.905
355.683
355.43
355.164
354.813
354.166
352.352
343.927
335.321
310.096
336.184
399.751
469.38
312.429
327.695
335.486
340.035
343.588
346.798
349.6
351.768
353.232
354.099
354.533
354.689
354.695
354.657
354.677
354.837
355.169
355.625
356.099
356.458
356.584
356.407
355.954
355.347
354.826
355.005
357.534
366.986
389.117
417.943
431.093
422.795
426.323
451.831
502.681
314.547
331.098
338.785
343.397
347.323
350.961
353.841
355.681
356.671
357.133
357.302
357.316
357.253
357.162
357.08
357.041
357.073
357.191
357.379
357.594
357.766
357.812
357.649
357.261
356.863
357.201
359.16
363.106
370.26
383.962
404.644
426.99
465.239
504.902
526.653
318.473
335.154
342.075
346.612
350.994
354.915
357.435
358.576
358.935
358.961
358.867
358.743
358.628
358.542
358.496
358.493
358.531
358.606
358.712
358.84
358.98
359.116
359.215
359.26
358.773
355.649
350.105
343.634
337.184
334.294
344.268
360.47
339.149
358.138
456.148
321.87
337.324
343.635
348.219
352.925
356.876
359.113
360.038
360.353
360.424
360.397
360.337
360.272
360.22
360.195
360.203
360.256
360.362
360.537
360.816
361.263
362.011
363.343
366.105
373.823
391.436
402.988
397.382
383.424
367.296
353.392
343.095
336.484
369.002
452.654
322.736
337.078
342.738
346.838
351.036
354.961
357.909
359.732
360.708
361.163
361.332
361.353
361.306
361.234
361.159
361.096
361.054
361.039
361.07
361.195
361.563
362.592
365.373
372.241
386.347
406.442
420.433
420.123
411.707
399.582
386.479
377.101
382.995
413.065
474.697
320.373
334.14
339.619
343.2
346.611
350.296
354.095
357.405
359.826
361.355
362.214
362.656
362.863
362.946
362.966
362.961
362.957
362.97
363.009
363.062
363.066
362.801
361.745
359.728
358.005
358.697
364.181
376.6
392.001
404.493
414.431
424.712
436.587
457.46
501.633
318.196
332.389
338.39
342.103
345.281
348.355
351.527
354.79
357.825
360.247
361.905
362.92
363.518
363.879
364.119
364.311
364.514
364.792
365.228
365.926
367.055
369.029
373.047
379.618
380.698
376.001
371.265
370.386
375.547
385.49
399.748
421.148
442.788
464.927
506.808
316.303
331.701
338.893
343.392
347.238
350.597
353.245
355.47
357.708
359.997
362.005
363.492
364.492
365.155
365.609
365.924
366.131
366.259
366.415
366.887
368.188
371.245
377.801
388.182
394.222
390.736
383.993
377.525
372.253
369.025
369.123
377.27
400.015
429.785
479.182
317.293
334.368
342.06
347.079
351.813
355.829
358.263
359.431
360.12
360.963
362.15
363.449
364.632
365.653
366.554
367.376
368.124
368.724
368.963
368.614
367.987
367.656
368.324
371.234
377.497
384.585
388.031
386.595
382.173
377.083
372.824
372.571
385.291
410.978
463.205
320.122
337.642
345.248
350.78
356.591
360.93
363.093
363.962
364.326
364.634
365.153
365.93
366.9
368.036
369.376
370.955
372.72
374.648
377.157
378.946
378.212
376.671
375.604
375.643
377.827
382.419
386.377
386.443
382.549
376.49
370.732
369.51
380.401
404.47
456.985
323.724
340.23
347.847
354.335
361.112
364.56
365.412
365.478
365.469
365.639
366.121
366.955
368.174
369.971
372.909
377.987
384.822
388.341
386.416
384.141
382.424
380.943
379.762
379.469
381.221
385.763
391.865
397.146
399.894
399.33
396.883
397.532
407.19
429.83
482.532
325.788
340.705
348.051
355.006
362.039
365.691
367.025
367.38
367.347
367.236
367.223
367.375
367.709
368.308
369.39
371.465
375.514
381.698
386.004
384.406
380.793
378.152
376.193
374.768
374.321
375.728
379.749
386.615
396.241
407.855
419.149
428.98
440.807
461.111
505.472
324.881
338.484
344.315
349.632
355.689
360.806
364.593
366.95
367.931
368.172
368.175
368.187
368.313
368.61
369.157
370.137
371.969
375.482
381.384
387.88
390.675
387.851
382.649
377.785
373.586
370.089
367.68
367.388
371.158
381.486
399.078
419.638
437.873
459.414
500.953
319.934
332.617
337.776
341.362
345.416
350.761
356.844
362.894
366.956
368.677
369.219
369.344
369.361
369.405
369.555
369.906
370.634
372.12
375.144
380.735
388.734
396.424
400.273
398.867
393.997
388.253
382.77
378.003
375.003
376.606
386.819
405.595
425.763
450.553
497.903
316.011
330.243
337.894
342.466
345.756
348.717
352.271
357.414
363.689
367.741
369.437
370.064
370.318
370.446
370.541
370.655
370.84
371.188
371.884
373.301
376.029
380.493
386.189
391.682
395.706
397.868
398.273
397.356
396.105
396.183
400.068
410.019
424.901
447.751
497.772
315.448
333.052
342.985
349.419
354.749
359.178
361.68
362.236
365.361
368.689
370.227
370.863
371.191
371.414
371.605
371.8
372.024
372.303
372.679
373.224
374.074
375.437
377.515
380.338
383.73
387.502
391.54
395.748
400.198
405.627
413.4
423.841
436.924
457.729
504.564
319.503
337.735
345.918
351.688
357.922
364.846
369.823
370.094
370.245
371.366
371.876
372.145
372.322
372.462
372.593
372.736
372.906
373.121
373.402
373.779
374.3
375.034
376.056
377.408
379.082
381.109
383.626
386.864
391.147
397.214
407.127
423.121
442.124
466.725
511.613
323.943
339.906
346.31
351.194
356.736
363.221
369.304
372.409
372.965
373.286
373.495
373.645
373.773
373.894
374.016
374.142
374.276
374.421
374.582
374.775
375.031
375.405
375.975
376.802
377.876
379.137
380.591
382.383
384.833
388.629
395.628
409.735
431.552
460.489
508.068
323.225
338.458
344.728
349.025
352.931
356.966
361.827
367.205
371.148
373.23
374.268
374.724
374.94
375.103
375.287
375.519
375.807
376.152
376.545
376.956
377.333
377.632
377.854
378.063
378.337
378.729
379.272
380.041
381.232
383.346
387.781
397.985
417.196
445.356
495.266
320.209
336.37
343.37
347.748
351.269
354.18
356.786
359.92
364.287
368.669
372.153
374.412
375.498
375.912
376.102
376.267
376.489
376.809
377.26
377.859
378.578
379.307
379.869
380.147
380.185
380.12
380.09
380.228
380.727
382.014
385.179
392.807
407.948
432.087
481.362
319.112
335.555
343.092
347.97
352.206
356.011
359.04
361.079
362.622
364.772
367.985
371.596
374.571
376.207
376.899
377.213
377.422
377.636
377.914
378.304
378.844
379.533
380.275
380.875
381.19
381.255
381.22
381.266
381.615
382.675
385.333
391.465
403.49
424.083
471.579
319.668
336.267
343.956
348.982
353.34
357.398
361.096
364.097
366.086
367.22
368.178
370.037
373.111
375.868
377.353
378.063
378.497
378.869
379.265
379.722
380.257
380.869
381.515
382.081
382.417
382.475
382.368
382.291
382.5
383.42
385.892
391.503
402.287
421.183
466.83
321.196
337.783
345.229
350.046
354.101
357.743
361.129
364.28
366.982
368.946
370.163
370.998
372.493
375.324
377.5
378.527
379.059
379.472
379.909
380.434
381.074
381.822
382.634
383.417
384.036
384.389
384.508
384.571
384.863
385.841
388.324
393.726
403.762
421.501
465.882
321.829
338.495
345.949
350.806
354.871
358.376
361.405
364.11
366.62
368.885
370.712
372.049
373.108
374.998
377.71
379.288
379.999
380.439
380.861
381.369
382.008
382.784
383.66
384.557
385.362
385.969
386.365
386.681
387.188
388.341
390.945
396.324
405.977
422.846
465.607
321.954
338.897
346.534
351.552
355.811
359.499
362.592
365.119
367.208
369.029
370.672
372.129
373.47
374.894
377.568
379.896
380.966
381.5
381.926
382.422
383.083
383.949
384.997
386.137
387.226
388.11
388.734
389.245
389.982
391.469
394.543
400.427
410.3
426.972
468.666
322.639
340.111
347.966
353.111
357.423
361.088
364.125
366.589
368.574
370.196
371.568
372.786
373.932
375.15
376.887
379.69
381.493
382.354
382.888
383.395
384.033
384.921
386.118
387.603
389.249
390.831
392.105
393.082
394.181
396.114
399.832
406.435
416.719
433.607
475.283
323.642
341.535
349.507
354.756
359.147
362.782
365.668
367.914
369.686
371.138
372.398
373.58
374.822
376.323
378.004
380.09
382.186
383.349
384.042
384.617
385.263
386.123
387.329
388.977
391.085
393.529
395.992
398.151
400.185
402.902
407.377
414.616
425.218
442.677
485.497
324.807
343.116
351.215
356.637
361.233
364.974
367.811
369.896
371.441
372.619
373.568
374.422
375.37
376.715
378.715
380.517
382.337
383.726
384.676
385.47
386.301
387.323
388.693
390.582
393.143
396.436
400.292
404.248
408.01
412.095
417.549
425.314
436.053
454.089
498.162
325.865
344.126
352.093
357.588
362.401
366.283
369.093
371.066
372.51
373.636
374.571
375.414
376.32
377.58
379.568
381.659
382.868
383.974
384.925
385.778
386.655
387.694
389.072
391.02
393.838
397.834
403.14
409.412
415.861
422.168
429.018
437.37
448.124
466.186
509.063
325.948
343.824
351.746
357.493
362.869
367.32
370.42
372.418
373.731
374.661
375.383
376.007
376.648
377.536
379.189
381.827
383.411
384.425
385.363
386.306
387.294
388.395
389.731
391.503
394.027
397.758
403.222
410.698
419.702
429.093
438.242
447.625
458.417
475.745
515.059
325.748
342.98
350.631
356.405
362.2
367.248
370.788
373.041
374.499
375.506
376.262
376.888
377.482
378.184
379.308
381.432
383.584
384.603
385.381
386.181
387.085
388.141
389.417
391.043
393.258
396.449
401.173
408.048
417.331
428.361
439.79
450.807
462.079
478.745
515.237
324.846
341.815
349.43
355.332
361.616
367.322
371.275
373.687
375.184
376.183
376.914
377.517
378.115
378.884
380.144
382.271
384.754
385.812
386.597
387.358
388.194
389.173
390.373
391.898
393.909
396.691
400.731
406.718
415.284
426.33
438.503
450.194
461.59
477.748
513.064
324.587
341.838
349.465
355.259
361.523
367.41
371.581
374.138
375.722
376.768
377.505
378.067
378.553
379.087
379.918
381.565
384.264
385.935
386.444
387.081
387.919
388.818
389.698
390.683
392.041
394.088
397.172
401.754
408.456
417.763
429.165
440.968
452.322
467.962
504.833
325.243
343.41
351.272
357.078
363.153
368.587
372.366
374.714
376.208
377.224
377.954
378.502
378.944
379.357
379.871
380.807
382.865
386.238
388.348
388.961
389.468
390.495
392.064
393.711
395.072
396.297
397.961
400.886
405.921
413.655
423.894
435.256
446.799
463.231
502.066
326.935
345.386
353.238
359.086
365.203
370.363
373.721
375.755
377.051
377.942
378.585
379.051
379.377
379.587
379.71
379.794
379.964
380.676
382.892
386.825
389.188
389.615
390.108
391.443
393.924
397.106
400.245
403.396
407.558
413.889
422.697
432.959
443.868
459.933
499.95
328.412
345.769
353.002
358.679
365.049
370.827
374.707
376.976
378.308
379.164
379.774
380.241
380.613
380.909
381.136
381.298
381.408
381.509
381.788
383.019
386.447
390.992
393.005
393.464
393.904
395.145
397.689
401.264
405.504
411.181
419.279
429.375
440.528
457.135
498.756
326.253
342.047
348.812
353.913
359.608
365.947
371.687
375.824
378.302
379.71
380.562
381.128
381.533
381.834
382.057
382.213
382.312
382.376
382.461
382.725
383.716
386.485
390.645
395.03
398.439
400.795
403.469
407.36
412.488
418.554
425.989
435.148
446.133
463.655
505.619
322.721
339.162
346.781
351.664
355.905
360.484
366.131
372.086
376.563
379.232
380.765
381.714
382.359
382.827
383.174
383.418
383.567
383.63
383.637
383.645
383.767
384.283
385.717
388.656
393.226
398.273
403.116
408.489
415.298
423.505
432.296
441.421
451.569
467.728
508.027
321.495
341.261
350.878
356.738
360.819
363.433
366.127
370.697
375.523
378.788
380.729
381.962
382.831
383.499
384.036
384.459
384.761
384.934
384.987
384.951
384.878
384.853
385.022
385.691
387.449
390.891
395.752
401.608
409.058
418.756
429.971
441.229
452.337
468.337
507.493
325.477
347.917
358.912
366.196
371.036
372.755
373.042
374.688
377.604
379.833
381.261
382.26
383.04
383.699
384.277
384.774
385.156
385.402
385.52
385.529
385.446
385.293
385.11
384.987
385.195
386.707
390.794
396.83
404.486
414.72
427.644
441.226
453.96
470.938
509.277
334.763
355.576
366.411
374.777
379.503
380.358
380.016
380.198
381.059
381.904
382.591
383.167
383.672
384.14
384.604
385.085
385.558
385.943
386.182
386.287
386.288
386.196
386.006
385.727
385.552
386.514
390.272
396.444
404.194
414.448
427.962
442.606
455.943
473.155
510.445
341.076
359.391
369.231
377.066
380.301
381.347
382.072
382.66
383.141
383.59
384.003
384.377
384.723
385.06
385.409
385.796
386.24
386.709
387.099
387.34
387.464
387.547
387.71
388.15
388.977
390.349
393.331
398.787
406.705
417.28
430.485
444.273
456.997
474.049
511.207
337.217
354.639
362.368
367.972
371.825
374.898
377.537
379.788
381.632
383.033
384.005
384.645
385.08
385.411
385.708
386.022
386.403
386.907
387.549
388.223
388.76
389.138
389.567
390.569
392.858
396.285
399.994
404.508
411.365
421.579
434.233
446.788
458.754
475.726
512.99
327.339
342.996
349.187
353.581
357.928
362.238
366.469
370.644
374.726
378.493
381.552
383.64
384.886
385.599
386.029
386.327
386.588
386.888
387.315
387.983
388.948
390.078
391.132
392.161
393.88
397.441
403.095
409.869
417.295
426.254
437.061
448.181
459.33
475.619
512.505
319.466
336.216
344.826
350.23
354.338
357.687
360.598
363.454
366.702
370.734
375.459
379.867
382.992
384.844
385.886
386.484
386.851
387.106
387.336
387.633
388.135
389.066
390.641
392.8
395.117
397.406
400.763
406.841
415.712
425.959
436.387
446.489
456.794
472.187
509.372
320.502
342.898
354.888
362.255
367.332
370.292
371.529
371.776
371.726
372.155
374.138
377.787
381.507
384.117
385.674
386.593
387.162
387.532
387.79
387.997
388.228
388.615
389.44
391.23
394.559
399.073
402.962
406.492
412.771
422.625
433.878
444.506
455.09
470.996
509.671
330.502
355.02
366.239
373.679
379.353
382.525
383.574
383.39
382.561
381.429
380.702
381.482
383.362
385.11
386.327
387.133
387.687
388.088
388.388
388.619
388.809
389.015
389.378
390.254
392.49
397.43
405.052
412.01
417.372
424.799
434.904
445.793
457.091
474.075
513.329
339.841
360.312
369.378
376.174
381.188
383.735
384.873
385.374
385.545
385.491
385.329
385.416
385.988
386.755
387.451
388.015
388.469
388.841
389.151
389.409
389.615
389.776
389.945
390.283
391.231
393.951
400.542
411.607
422.978
431.881
440.83
450.404
460.974
477.317
514.834
338.689
356.671
366.187
374.591
380.031
381.921
382.696
383.32
384.004
384.779
385.61
386.422
387.172
387.839
388.41
388.893
389.308
389.674
390.004
390.301
390.558
390.753
390.881
390.986
391.231
392.083
394.835
402.136
415.615
430.191
441.622
451.322
461.181
476.187
512.354
333.625
350.412
361.059
372.839
381.597
384.269
384.765
384.885
385.107
385.565
386.261
387.095
387.912
388.618
389.204
389.697
390.129
390.525
390.904
391.278
391.639
391.952
392.168
392.27
392.312
392.472
393.23
395.996
404.134
419.537
434.758
447.376
458.639
474.162
510.698
328.335
344.731
354.861
367.272
380.438
385.97
387.408
387.765
387.915
388.119
388.445
388.866
389.328
389.79
390.234
390.657
391.067
391.476
391.905
392.369
392.863
393.325
393.662
393.823
393.848
393.857
394.101
395.305
399.879
412.946
431.189
446.521
459.023
475.335
512.11
323.277
342.228
351.44
360.898
374.973
384.232
387.551
388.825
389.424
389.781
390.06
390.332
390.626
390.946
391.291
391.657
392.046
392.473
392.965
393.549
394.221
394.881
395.364
395.595
395.639
395.639
395.814
396.715
400.156
411.104
430.933
448.139
461.006
477.165
513.175
324.139
346.803
355.444
361.276
369.275
378.646
383.953
386.901
388.67
389.769
390.481
390.978
391.37
391.719
392.062
392.418
392.807
393.255
393.804
394.513
395.409
396.382
397.151
397.545
397.647
397.636
397.725
398.323
400.686
408.668
426.805
446.208
460.239
476.525
511.921
328.976
352.123
359.798
363.068
365.221
369.219
374.347
378.892
382.701
385.77
388.109
389.782
390.926
391.708
392.278
392.744
393.181
393.648
394.21
394.964
396.026
397.414
398.803
399.7
400.054
400.128
400.178
400.534
402.048
407.543
422.521
442.979
458.232
475.144
510.942
329.051
348.846
356.735
361.191
364.072
365.933
367.97
370.694
373.772
377.072
380.545
383.99
387.062
389.467
391.141
392.245
393.008
393.617
394.21
394.913
395.901
397.406
399.47
401.468
402.651
403.127
403.347
403.748
405.151
410.023
423.376
443.103
458.252
475.483
512.474
323.976
343.085
354.627
362.451
368.43
372.859
375.367
376.266
376.263
376.05
376.268
377.405
379.66
382.878
386.486
389.568
391.636
392.939
393.852
394.635
395.505
396.747
398.767
401.681
404.517
406.267
407.202
408.082
410.016
415.514
428.461
446.172
460.347
477.56
515.505
324.357
349.953
365.345
374.661
380.864
385.131
387.93
389.199
388.811
387.133
384.834
382.448
380.462
379.523
380.42
383.669
387.821
390.906
392.8
394.065
395.094
396.188
397.757
400.414
404.309
408.13
410.756
412.739
415.587
421.971
434.624
449.994
463.01
479.942
517.838
343.409
374.033
387.402
394.496
397.794
398.318
397.59
396.623
395.493
393.89
391.96
389.99
388.035
385.958
383.634
382.396
384.562
388.376
391.381
393.286
394.636
395.84
397.232
399.337
402.901
407.903
412.843
416.916
421.267
428.411
440.231
453.409
465.305
481.721
518.823
362.843
383.785
388.527
391.095
392.798
393.947
394.208
393.905
393.34
392.662
391.926
391.138
390.264
389.2
387.849
386.913
388.577
391.279
392.999
394.122
395.063
396.046
397.27
399.076
402.092
406.914
413.046
419.243
425.609
433.797
444.791
456.238
467.169
482.984
519.109
346.267
355.104
357.788
363.328
371.003
379.461
385.39
388.961
390.938
391.8
391.999
391.934
391.983
392.454
393.101
393.56
394.041
394.686
395.372
396.04
396.729
397.527
398.582
400.187
402.871
407.323
413.729
421.236
429.233
438.333
448.747
459.043
469.302
484.672
519.749
322.292
330.244
340.352
348.648
356.89
366.418
375.02
382.304
388.421
392.939
395.268
396.069
396.233
396.219
396.27
396.464
396.747
397.086
397.472
397.909
398.422
399.072
399.981
401.394
403.772
407.841
414.251
422.763
432.266
442.155
452.2
461.797
471.617
486.604
520.564
314.246
330.712
343.288
350.933
355.688
358.943
362.61
367.067
372.342
379.334
387.659
393.665
396.411
397.465
397.924
398.215
398.477
398.749
399.043
399.371
399.755
400.24
400.918
401.977
403.794
407.053
412.696
421.308
432.155
443.531
454.159
463.698
473.229
487.615
520.467
319.28
343.466
356.605
364.623
370.514
375.026
377.869
378.993
378.6
377.198
380.387
388.213
394.318
397.186
398.423
399.082
399.538
399.922
400.286
400.659
401.06
401.519
402.095
402.917
404.255
406.649
411.018
418.44
429.147
441.575
453.415
463.656
473.376
487.504
519.794
330.329
352.527
361.223
366.993
372.816
379.658
387.181
393.561
397.38
397.184
395.664
396.738
398.204
399.109
399.7
400.17
400.603
401.031
401.47
401.934
402.433
402.98
403.602
404.378
405.508
407.423
410.929
417.194
427.069
439.653
452.243
463.043
472.986
487.13
519.342
325.593
343.107
352.083
358.361
363.875
369.162
374.56
379.97
385.148
390.485
394.985
397.615
399.016
399.824
400.406
400.913
401.409
401.924
402.482
403.106
403.817
404.633
405.567
406.632
407.92
409.761
412.89
418.47
427.567
439.685
452.136
462.899
472.983
487.545
520.11
320.767
344.108
357.418
366.006
372.718
377.74
380.907
382.949
384.728
387.013
390.673
394.841
397.817
399.488
400.437
401.109
401.7
402.294
402.937
403.672
404.543
405.61
406.927
408.514
410.354
412.599
415.894
421.364
430.039
441.437
453.064
463.265
473.211
487.987
520.844
326.299
352.935
366.283
375.39
383.12
388.801
392.092
393.504
393.822
393.602
393.367
394.227
396.746
399.032
400.399
401.261
401.957
402.644
403.39
404.246
405.275
406.57
408.251
410.412
412.998
415.884
419.418
424.644
432.594
442.923
453.516
463.095
472.85
487.762
521.064
331.147
356.876
371.319
381.795
388.348
391.097
392.15
392.581
392.956
393.482
393.994
394.478
395.637
398
400.017
401.25
402.067
402.766
403.502
404.36
405.414
406.778
408.631
411.211
414.661
418.787
423.363
428.907
436.254
445.27
454.596
463.468
472.969
487.86
521.237
342.017
369.517
387.54
400.972
403.302
401.17
398.975
397.424
396.388
395.821
395.687
395.876
396.402
397.854
399.853
401.306
402.238
402.954
403.661
404.481
405.499
406.807
408.563
411.039
414.571
419.267
424.731
430.724
437.698
445.77
454.238
462.652
471.879
486.493
520.224
351.417
380.759
398.332
408.369
405.122
402.522
400.832
399.65
398.806
398.227
397.894
397.843
398.207
399.253
400.958
402.235
403.058
403.745
404.452
405.266
406.256
407.518
409.206
411.583
415.05
419.999
426.319
433.271
440.436
447.88
455.555
463.499
472.591
487.26
520.776
343.591
370.633
384.793
394.119
398.031
399.586
399.578
399.303
399.05
398.871
398.816
398.969
399.512
400.593
401.845
402.734
403.44
404.127
404.858
405.672
406.628
407.811
409.353
411.479
414.567
419.137
425.494
433.107
440.948
448.608
456.185
463.981
472.906
487.309
520.611
330.941
349.71
360.874
374.499
392.102
399.773
400.699
400.354
400.016
399.869
400.017
400.485
401.281
402.222
403.022
403.675
404.303
404.977
405.721
406.558
407.527
408.696
410.178
412.164
414.988
419.178
425.282
433.175
441.633
449.629
457.238
465.003
473.997
488.621
521.726
326.954
349.651
361.807
372.7
389.819
400.758
401.682
400.989
400.487
400.264
400.774
401.834
402.659
403.272
403.836
404.422
405.063
405.771
406.555
407.431
408.433
409.616
411.069
412.95
415.545
419.346
425.013
432.878
442.055
450.95
459.074
467.008
476.046
490.653
522.971
333.971
362.692
377.627
389.282
398.929
405.08
403.079
402.216
402.308
402.557
402.938
403.424
403.91
404.404
404.945
405.551
406.228
406.978
407.81
408.742
409.806
411.052
412.562
414.478
417.047
420.696
426.033
433.538
442.738
452.058
460.56
468.66
477.753
492.298
523.712
335.621
359.671
370.849
380.527
391.828
403.619
408.247
405.516
403.855
403.324
403.476
404.108
404.834
405.457
406.013
406.579
407.212
407.953
408.819
409.82
410.971
412.308
413.899
415.871
418.452
422.041
427.236
434.606
443.918
453.609
462.326
470.372
479.3
493.575
524.18
334.338
356.855
368.985
380.172
390.47
396.801
406.261
409.903
407.351
405.825
405.314
405.397
405.732
406.15
406.665
407.315
408.077
408.9
409.776
410.744
411.865
413.209
414.857
416.921
419.578
423.13
428.06
434.96
443.951
453.843
462.94
471.114
479.895
493.715
523.693
331.264
356.66
370.536
383.719
397.772
403.887
404.427
408.527
409.341
407.987
407.335
407.097
407.148
407.47
407.932
408.459
409.09
409.882
410.836
411.918
413.106
414.431
415.981
417.909
420.464
424.009
428.995
435.806
444.364
453.638
462.259
470.14
478.702
492.313
522.68
331.841
355.804
367.944
378.012
389.346
399.864
403.909
404.69
407.414
409.156
409.845
409.506
409.192
409.139
409.362
409.842
410.457
411.144
411.956
412.973
414.248
415.802
417.649
419.827
422.444
425.774
430.32
436.674
444.922
454.007
462.478
470.183
478.505
491.85
522.547
336.722
359.545
371.244
382.854
394.85
401.786
405.476
406.485
405.802
406.532
408.043
409.669
411.093
411.473
411.382
411.449
411.826
412.543
413.459
414.496
415.682
417.102
418.885
421.221
424.326
428.364
433.42
439.552
446.714
454.417
461.955
469.273
477.446
490.594
521.16
327.942
351.824
362.795
371.368
383.138
395.926
402.704
405.757
407.164
406.848
406.159
406.614
408.081
410.52
413.127
414.025
414.373
414.78
415.433
416.379
417.631
419.169
420.924
422.895
425.291
428.56
433.209
439.41
446.675
454.101
461.126
467.969
475.743
488.672
520.726
331.911
355.518
366.908
375.65
384.456
393.631
401.626
405.634
407.07
407.73
407.911
407.163
406.455
406.993
409.583
413.087
415.308
416.574
417.513
418.377
419.345
420.709
422.737
425.507
428.811
432.394
436.357
441.109
446.887
453.455
460.411
467.705
476.237
490.41
523.601
330.688
355.809
367.039
375.304
384.655
394.106
401.199
405.509
407.58
408.306
408.438
408.456
408.208
407.688
408.207
411.201
414.84
417.497
419.715
421.861
423.707
425.133
426.662
428.968
432.556
437.527
443.393
449.414
455.174
460.739
466.432
472.725
480.68
494.082
523.563
330.064
355.166
367.534
376.7
385.735
394.51
401.854
406.231
408.188
408.943
409.131
409.026
408.999
409.559
410.73
412.944
416.203
418.351
420.04
422.241
425.442
428.969
431.765
433.641
435.318
437.576
440.962
445.609
451.204
457.255
463.467
469.933
477.543
490.48
522.933
332.632
359.312
371.684
381.552
391.982
399.82
404.467
407.455
409.05
409.698
409.867
409.857
410.059
411.197
413.748
417.205
420.809
423.282
424.481
425.397
426.661
428.774
431.932
435.887
440.094
443.791
446.723
449.475
452.837
457.348
463.192
470.473
480.326
497.383
530.661
331.767
357.688
370.39
380.568
391.296
400.164
405.338
408.038
409.531
410.265
410.509
410.429
410.209
410.321
411.773
415.235
419.873
424.43
428.495
431.995
434.859
437.087
439.01
441.287
444.774
450.21
457.453
465.285
472.283
477.923
482.66
487.614
494.803
507.606
530.122
333.01
359.193
372.098
383.074
395.147
403.938
408.132
409.843
410.657
411.124
411.384
411.483
411.418
411.156
410.751
410.634
411.726
414.551
418.819
424.048
429.728
435.467
440.798
445.282
447.897
448.628
448.681
449.456
452.119
457.456
465.606
474.993
483.751
494.455
520.54
332.887
358.737
371.457
381.918
393.547
403.261
408.899
411.422
412.389
412.721
412.802
412.775
412.695
412.577
412.414
412.173
411.841