/*--------------------------------*- C++ -*----------------------------------*\
| =========                 |                                                 |
| \\      /  F ield         | OpenFOAM: The Open Source CFD Toolbox           |
|  \\    /   O peration     | Version:  v2012                                 |
|   \\  /    A nd           | Website:  www.openfoam.com                      |
|    \\/     M anipulation  |                                                 |
\*---------------------------------------------------------------------------*/
FoamFile
{
    version     2.0;
    format      ascii;
    class       surfaceScalarField;
    location    "41";
    object      phi;
}
// * * * * * * * * * * * * * * * * * * * * * * * * * * * * * * * * * * * * * //

dimensions      [1 0 -1 0 0 0 0];
oriented        oriented;


internalField   nonuniform List<scalar> 
228225
(
-4.48786e-09
5.83188e-09
-1.6026e-09
-1.61269e-08
1.80796e-08
-6.43594e-09
-3.35089e-08
2.53029e-08
-7.91949e-09
-5.60571e-08
3.11877e-08
-8.6406e-09
-8.2816e-08
3.58988e-08
-9.13952e-09
-1.12668e-07
3.94337e-08
-9.58485e-09
-1.44531e-07
4.18925e-08
-1.00262e-08
-1.77343e-07
4.33107e-08
-1.05003e-08
-2.10163e-07
4.38308e-08
-1.10106e-08
-2.42087e-07
4.35077e-08
-1.15825e-08
-2.72369e-07
4.25023e-08
-1.22187e-08
-3.00319e-07
4.08902e-08
-1.29409e-08
-3.25384e-07
3.88114e-08
-1.37466e-08
-3.47071e-07
3.63322e-08
-1.4647e-08
-3.64989e-07
3.35471e-08
-1.5628e-08
-3.78819e-07
3.0527e-08
-1.66948e-08
-3.88379e-07
2.73737e-08
-1.78153e-08
-3.93543e-07
2.41241e-08
-1.8959e-08
-3.94256e-07
2.08437e-08
-2.0131e-08
-3.90515e-07
1.7571e-08
-2.13107e-08
-3.82417e-07
1.43543e-08
-2.24559e-08
-3.70081e-07
1.1214e-08
-2.35465e-08
-3.53712e-07
8.18285e-09
-2.45531e-08
-3.33536e-07
5.2773e-09
-2.54531e-08
-3.09837e-07
2.52191e-09
-2.62205e-08
-2.82948e-07
-5.44878e-11
-2.68335e-08
-2.53215e-07
-2.46426e-09
-2.72693e-08
-2.2106e-07
-4.64597e-09
-2.7507e-08
-1.86963e-07
-6.57666e-09
-2.75235e-08
-1.51459e-07
-8.21198e-09
-2.72895e-08
-1.15219e-07
-9.49184e-09
-2.67499e-08
-7.91234e-08
-1.03206e-08
-2.5772e-08
-4.46327e-08
-1.05157e-08
-2.39785e-08
-1.46172e-08
-9.76926e-09
-2.02439e-08
-6.0891e-09
-8.52902e-09
-1.31112e-08
3.74137e-08
-1.84705e-08
-4.35117e-08
6.8326e-08
-1.98467e-08
-7.98388e-08
8.22503e-08
-2.06196e-08
-1.1888e-07
9.19411e-08
-2.17116e-08
-1.58327e-07
9.80892e-08
-2.27455e-08
-1.9658e-07
1.01346e-07
-2.36591e-08
-2.3239e-07
1.02213e-07
-2.45086e-08
-2.64914e-07
1.01142e-07
-2.53084e-08
-2.93517e-07
9.85079e-08
-2.60752e-08
-3.17834e-07
9.46286e-08
-2.6803e-08
-3.37645e-07
8.98137e-08
-2.75002e-08
-3.52936e-07
8.43378e-08
-2.8158e-08
-3.63774e-07
7.84334e-08
-2.87825e-08
-3.70359e-07
7.22812e-08
-2.93646e-08
-3.72903e-07
6.6005e-08
-2.99149e-08
-3.71681e-07
5.97269e-08
-3.04201e-08
-3.6696e-07
5.35356e-08
-3.0884e-08
-3.59037e-07
4.75e-08
-3.12998e-08
-3.48197e-07
4.16724e-08
-3.16682e-08
-3.34747e-07
3.6105e-08
-3.19847e-08
-3.18967e-07
3.08259e-08
-3.2251e-08
-3.01145e-07
2.58533e-08
-3.24614e-08
-2.81545e-07
2.11996e-08
-3.26155e-08
-2.60438e-07
1.68775e-08
-3.27085e-08
-2.38068e-07
1.28901e-08
-3.27379e-08
-2.14664e-07
9.23867e-09
-3.26967e-08
-1.90476e-07
5.92519e-09
-3.25774e-08
-1.65709e-07
2.95413e-09
-3.23662e-08
-1.40568e-07
3.23438e-10
-3.20429e-08
-1.15283e-07
-1.92076e-09
-3.15754e-08
-9.00699e-08
-3.77946e-09
-3.09266e-08
-6.51642e-08
-5.18709e-09
-3.00398e-08
-4.0921e-08
-6.04458e-09
-2.87133e-08
-1.82866e-08
-6.05055e-09
-2.63542e-08
-3.41153e-09
-2.09632e-08
-1.18082e-08
5.56654e-08
-6.44279e-09
-2.97167e-08
9.40644e-08
-7.83022e-09
-4.94119e-08
1.1049e-07
-8.54516e-09
-6.95701e-08
1.21409e-07
-9.31098e-09
-8.92734e-08
1.27921e-07
-1.01257e-08
-1.07855e-07
1.30957e-07
-1.10325e-08
-1.24812e-07
1.31186e-07
-1.20163e-08
-1.39762e-07
1.29191e-07
-1.30965e-08
-1.52448e-07
1.25433e-07
-1.42418e-08
-1.62703e-07
1.20337e-07
-1.54537e-08
-1.70496e-07
1.14287e-07
-1.668e-08
-1.75906e-07
1.07636e-07
-1.78891e-08
-1.79084e-07
1.00641e-07
-1.90291e-08
-1.80196e-07
9.34915e-08
-2.00976e-08
-1.79462e-07
8.63484e-08
-2.10783e-08
-1.77078e-07
7.93178e-08
-2.19763e-08
-1.73236e-07
7.24735e-08
-2.27783e-08
-1.68116e-07
6.58714e-08
-2.34919e-08
-1.61885e-07
5.95518e-08
-2.41114e-08
-1.54694e-07
5.35562e-08
-2.46419e-08
-1.46691e-07
4.79043e-08
-2.50814e-08
-1.38005e-07
4.2606e-08
-2.54387e-08
-1.28742e-07
3.7652e-08
-2.57131e-08
-1.18998e-07
3.30389e-08
-2.59095e-08
-1.08854e-07
2.87763e-08
-2.60279e-08
-9.84041e-08
2.48594e-08
-2.60716e-08
-8.77217e-08
2.12814e-08
-2.60377e-08
-7.68767e-08
1.803e-08
-2.59222e-08
-6.59347e-08
1.50964e-08
-2.5714e-08
-5.49313e-08
1.24706e-08
-2.53954e-08
-4.39189e-08
1.01453e-08
-2.49371e-08
-3.29422e-08
8.11681e-09
-2.42813e-08
-2.20677e-08
6.37941e-09
-2.32973e-08
-1.13753e-08
4.92366e-09
-2.16683e-08
3.07404e-09
-1.78592e-08
-1.28176e-08
5.91114e-08
9.37182e-09
-2.25433e-08
9.52833e-08
8.50737e-09
-3.06205e-08
1.11021e-07
7.54595e-09
-3.76875e-08
1.21714e-07
6.76144e-09
-4.41087e-08
1.28421e-07
5.92108e-09
-5.0012e-08
1.31944e-07
4.91799e-09
-5.54479e-08
1.32926e-07
3.6937e-09
-6.03488e-08
1.31809e-07
2.28336e-09
-6.458e-08
1.28975e-07
6.90095e-10
-6.79562e-08
1.24795e-07
-1.07997e-09
-7.02872e-08
1.1965e-07
-3.03232e-09
-7.15124e-08
1.13859e-07
-4.99908e-09
-7.17307e-08
1.07722e-07
-6.86127e-09
-7.112e-08
1.01462e-07
-8.58243e-09
-6.9815e-08
9.52225e-08
-1.01792e-08
-6.79445e-08
8.90818e-08
-1.16333e-08
-6.56256e-08
8.31182e-08
-1.2964e-08
-6.29618e-08
7.73732e-08
-1.4165e-08
-6.00481e-08
7.18857e-08
-1.52482e-08
-5.69588e-08
6.6677e-08
-1.62105e-08
-5.37567e-08
6.17643e-08
-1.70608e-08
-5.05112e-08
5.71551e-08
-1.77975e-08
-4.72655e-08
5.284e-08
-1.84323e-08
-4.4066e-08
4.88068e-08
-1.89674e-08
-4.09375e-08
4.50537e-08
-1.9406e-08
-3.78994e-08
4.15678e-08
-1.97468e-08
-3.49415e-08
3.83167e-08
-1.99943e-08
-3.20327e-08
3.52697e-08
-2.01478e-08
-2.91123e-08
3.23838e-08
-2.02078e-08
-2.60837e-08
2.96093e-08
-2.01673e-08
-2.27971e-08
2.68737e-08
-2.00151e-08
-1.90253e-08
2.4093e-08
-1.97488e-08
-1.43662e-08
2.11345e-08
-1.94133e-08
-8.3724e-09
1.78781e-08
-1.89491e-08
1.17167e-08
-1.70149e-08
-1.17595e-08
5.46471e-08
1.62232e-08
-1.5362e-08
8.33543e-08
1.55322e-08
-1.50971e-08
9.6303e-08
1.44519e-08
-1.27155e-08
1.05643e-07
1.36896e-08
-9.24431e-09
1.11962e-07
1.29883e-08
-5.29584e-09
1.15836e-07
1.21582e-08
-1.29532e-09
1.17753e-07
1.11726e-08
2.52641e-09
1.18038e-07
9.95015e-09
6.07965e-09
1.16955e-07
8.46619e-09
9.3651e-09
1.14761e-07
6.74815e-09
1.24047e-08
1.11709e-07
4.90062e-09
1.51921e-08
1.08052e-07
3.02035e-09
1.76708e-08
1.04025e-07
1.21848e-09
1.9775e-08
9.98276e-08
-4.71097e-10
2.147e-08
9.55713e-08
-2.04198e-09
2.27478e-08
9.13319e-08
-3.53035e-09
2.36123e-08
8.7168e-08
-4.91421e-09
2.40587e-08
8.31276e-08
-6.19929e-09
2.40779e-08
7.92416e-08
-7.37714e-09
2.36741e-08
7.55349e-08
-8.45178e-09
2.28388e-08
7.20181e-08
-9.41986e-09
2.15852e-08
6.86953e-08
-1.0286e-08
1.99056e-08
6.55663e-08
-1.10468e-08
1.78001e-08
6.262e-08
-1.17077e-08
1.52868e-08
5.98367e-08
-1.22695e-08
1.24088e-08
5.71846e-08
-1.2739e-08
9.22795e-09
5.46161e-08
-1.31202e-08
5.84416e-09
5.20742e-08
-1.34206e-08
2.38665e-09
4.94859e-08
-1.36439e-08
-9.60391e-10
4.67507e-08
-1.37946e-08
-3.94961e-09
4.37353e-08
-1.38724e-08
-6.20427e-09
4.02623e-08
-1.3914e-08
-7.08772e-09
3.60845e-08
-1.40674e-08
-5.6772e-09
3.08817e-08
-1.44158e-08
1.99102e-08
-1.38688e-08
-6.35145e-09
4.64834e-08
1.4515e-08
-6.1724e-09
6.94934e-08
1.36832e-08
-2.60709e-09
8.01186e-08
1.26169e-08
2.9373e-09
8.80724e-08
1.20269e-08
9.58316e-09
9.38275e-08
1.14903e-08
1.68192e-08
9.77846e-08
1.08138e-08
2.42837e-08
1.0032e-07
9.96926e-09
3.16524e-08
1.01674e-07
8.9945e-09
3.86314e-08
1.02072e-07
7.90449e-09
4.49676e-08
1.01684e-07
6.74035e-09
5.04555e-08
1.00691e-07
5.52979e-09
5.49498e-08
9.92446e-08
4.31261e-09
5.84028e-08
9.74808e-08
3.09271e-09
6.08607e-08
9.54856e-08
1.88316e-09
6.23945e-08
9.33427e-08
6.94924e-10
6.30579e-08
9.11167e-08
-4.49368e-10
6.2898e-08
8.88636e-08
-1.53375e-09
6.19612e-08
8.66225e-08
-2.56109e-09
6.03031e-08
8.44247e-08
-3.52325e-09
5.79595e-08
8.22899e-08
-4.41155e-09
5.49733e-08
8.02292e-08
-5.22554e-09
5.1387e-08
7.82441e-08
-5.96086e-09
4.72446e-08
7.63267e-08
-6.61954e-09
4.26036e-08
7.44611e-08
-7.20046e-09
3.75302e-08
7.26182e-08
-7.70753e-09
3.20972e-08
7.07591e-08
-8.14257e-09
2.63993e-08
6.88255e-08
-8.51156e-09
2.05504e-08
6.67427e-08
-8.81998e-09
1.47082e-08
6.44046e-08
-9.07614e-09
9.07029e-09
6.16745e-08
-9.28554e-09
3.8979e-09
5.8361e-08
-9.45438e-09
-4.27887e-10
5.42165e-08
-9.62738e-09
-3.26239e-09
4.88927e-08
-9.97351e-09
-3.72902e-09
4.19618e-08
-1.06138e-08
2.68787e-08
-1.06974e-08
-2.28057e-09
3.91058e-08
9.65843e-09
-9.78601e-10
5.95741e-08
8.61611e-09
2.4898e-09
6.90776e-08
7.57381e-09
7.33293e-09
7.62807e-08
6.94816e-09
1.29614e-08
8.17102e-08
6.48854e-09
1.89837e-08
8.57477e-08
6.01415e-09
2.51222e-08
8.86901e-08
5.49353e-09
3.11084e-08
9.0764e-08
4.92369e-09
3.67259e-08
9.21394e-08
4.31425e-09
4.17948e-08
9.29561e-08
3.65981e-09
4.61951e-08
9.33208e-08
2.97006e-09
4.98632e-08
9.33293e-08
2.24761e-09
5.27745e-08
9.30578e-08
1.50978e-09
5.49209e-08
9.25759e-08
7.64998e-10
5.63026e-08
9.19366e-08
2.55696e-11
5.69204e-08
9.11855e-08
-6.88908e-10
5.68048e-08
9.03577e-08
-1.37605e-09
5.59762e-08
8.94825e-08
-2.03243e-09
5.44694e-08
8.85786e-08
-2.64757e-09
5.23229e-08
8.76573e-08
-3.21938e-09
4.95706e-08
8.67229e-08
-3.74224e-09
4.62622e-08
8.57699e-08
-4.21663e-09
4.24418e-08
8.47864e-08
-4.63984e-09
3.81702e-08
8.37474e-08
-5.01451e-09
3.351e-08
8.2619e-08
-5.34053e-09
2.85413e-08
8.13494e-08
-5.62237e-09
2.33587e-08
7.98712e-08
-5.86239e-09
1.80807e-08
7.80888e-08
-6.06753e-09
1.28516e-08
7.58769e-08
-6.24285e-09
7.85744e-09
7.30641e-08
-6.39484e-09
3.32412e-09
6.94218e-08
-6.52743e-09
-4.26302e-10
6.46431e-08
-6.67814e-09
-2.86186e-09
5.83114e-08
-6.9806e-09
-3.25221e-09
4.9879e-08
-7.52935e-09
3.13003e-08
-7.67231e-09
-4.8426e-10
3.41027e-08
5.48786e-09
3.7649e-10
5.40733e-08
4.63898e-09
2.17637e-09
6.33785e-08
3.89999e-09
4.5039e-09
7.04929e-08
3.46068e-09
7.12809e-09
7.59536e-08
3.13117e-09
9.93182e-09
8.01396e-08
2.80465e-09
1.28266e-08
8.33445e-08
2.45092e-09
1.57309e-08
8.57844e-08
2.07601e-09
1.85614e-08
8.76286e-08
1.67889e-09
2.12484e-08
8.90042e-08
1.26659e-09
2.37172e-08
9.00128e-08
8.39333e-10
2.59071e-08
9.07324e-08
4.05266e-10
2.77739e-08
9.12262e-08
-3.28328e-11
2.92639e-08
9.1543e-08
-4.58319e-10
3.03532e-08
9.17223e-08
-8.75563e-10
3.10205e-08
9.1795e-08
-1.2759e-09
3.12513e-08
9.17842e-08
-1.65742e-09
3.10418e-08
9.17052e-08
-2.01254e-09
3.03927e-08
9.15667e-08
-2.34057e-09
2.93161e-08
9.13721e-08
-2.63705e-09
2.7824e-08
9.11162e-08
-2.90332e-09
2.59438e-08
9.07885e-08
-3.13687e-09
2.37037e-08
9.03677e-08
-3.34076e-09
2.11408e-08
8.98249e-08
-3.51426e-09
1.8304e-08
8.91157e-08
-3.66185e-09
1.5256e-08
8.81831e-08
-3.78437e-09
1.20694e-08
8.69458e-08
-3.8876e-09
8.83045e-09
8.52994e-08
-3.97415e-09
5.66043e-09
8.30993e-08
-4.05096e-09
2.68686e-09
8.01579e-08
-4.12005e-09
7.84987e-11
7.62169e-08
-4.18676e-09
-1.94778e-09
7.09405e-08
-4.27272e-09
-3.02976e-09
6.38644e-08
-4.46771e-09
-2.71424e-09
5.43819e-08
-4.82058e-09
3.34581e-08
-4.87213e-09
-5.60144e-10
3.12586e-08
3.40442e-09
-6.20054e-10
5.12006e-08
2.93216e-09
-2.65573e-10
6.04865e-08
2.53718e-09
3.24003e-10
6.7608e-08
2.29604e-09
1.07038e-09
7.31013e-08
2.10521e-09
1.94294e-09
7.7361e-08
1.90671e-09
2.91291e-09
8.06795e-08
1.69298e-09
3.95864e-09
8.32785e-08
1.46318e-09
5.03819e-09
8.53234e-08
1.22392e-09
6.12734e-09
8.6941e-08
9.75011e-10
7.1891e-09
8.8227e-08
7.23302e-10
8.19643e-09
8.92556e-08
4.69698e-10
9.11878e-09
9.0083e-08
2.20408e-10
9.93051e-09
9.07527e-08
-2.02004e-11
1.06009e-08
9.12969e-08
-2.44642e-10
1.11091e-08
9.17397e-08
-4.53894e-10
1.14389e-08
9.20979e-08
-6.44175e-10
1.15781e-08
9.23814e-08
-8.1531e-10
1.15147e-08
9.25939e-08
-9.62965e-10
1.1242e-08
9.27337e-08
-1.08956e-09
1.07568e-08
9.27931e-08
-1.19244e-09
1.00649e-08
9.27557e-08
-1.27496e-09
9.17325e-09
9.25962e-08
-1.33609e-09
8.09975e-09
9.22792e-08
-1.38116e-09
6.86845e-09
9.1757e-08
-1.41042e-09
5.51519e-09
9.09655e-08
-1.43014e-09
4.08396e-09
8.98198e-08
-1.44157e-09
2.62779e-09
8.82074e-08
-1.45191e-09
1.21301e-09
8.59787e-08
-1.46315e-09
-8.54312e-11
8.29358e-08
-1.48194e-09
-1.17157e-09
7.88137e-08
-1.5093e-09
-1.93083e-09
7.32621e-08
-1.56351e-09
-2.17377e-09
6.58055e-08
-1.69548e-09
-1.67296e-09
5.58109e-08
-1.93235e-09
3.38016e-08
-2.01559e-09
-1.27889e-09
2.96052e-08
2.93217e-09
-2.39472e-09
4.94158e-08
2.89987e-09
-3.33258e-09
5.86159e-08
2.80812e-09
-4.1301e-09
6.5657e-08
2.7492e-09
-4.786e-09
7.10804e-08
2.67631e-09
-5.28776e-09
7.52829e-08
2.58055e-09
-5.63025e-09
7.85605e-08
2.46065e-09
-5.80957e-09
8.11348e-08
2.325e-09
-5.83687e-09
8.31733e-08
2.17569e-09
-5.71739e-09
8.48015e-08
2.02037e-09
-5.46592e-09
8.61157e-08
1.86052e-09
-5.1028e-09
8.7188e-08
1.70366e-09
-4.64296e-09
8.80741e-08
1.55098e-09
-4.11582e-09
8.88151e-08
1.40935e-09
-3.54032e-09
8.94426e-08
1.27904e-09
-2.94491e-09
8.99774e-08
1.16619e-09
-2.34972e-09
9.04343e-08
1.0703e-09
-1.78623e-09
9.08202e-08
9.9581e-10
-1.26827e-09
9.11373e-08
9.40246e-10
-8.20851e-10
9.13796e-08
9.06532e-10
-4.56066e-10
9.15365e-08
8.90405e-10
-1.79859e-10
9.15885e-08
8.92084e-10
1.84815e-12
9.15091e-08
9.06166e-10
8.56487e-11
9.12604e-08
9.32892e-10
8.47072e-11
9.07935e-08
9.6539e-10
5.9559e-12
9.0042e-08
1.00285e-09
-1.31932e-10
8.89209e-08
1.03749e-09
-3.08686e-10
8.73167e-08
1.06763e-09
-4.9919e-10
8.50818e-08
1.08478e-09
-6.66919e-10
8.20199e-08
1.0871e-09
-7.92094e-10
7.78715e-08
1.06592e-09
-8.34627e-10
7.22922e-08
1.01182e-09
-7.34338e-10
6.48201e-08
8.86013e-10
-4.35415e-10
5.4836e-08
6.74928e-10
3.29299e-08
4.37079e-10
-1.97298e-09
2.84833e-08
3.09503e-09
-3.74422e-09
4.77619e-08
3.42472e-09
-5.3766e-09
5.66945e-08
3.55346e-09
-6.85695e-09
6.35157e-08
3.62245e-09
-8.16306e-09
6.875e-08
3.63587e-09
-9.27333e-09
7.27872e-08
3.60563e-09
-1.0174e-08
7.59173e-08
3.54505e-09
-1.08589e-08
7.836e-08
3.45937e-09
-1.13238e-08
8.02787e-08
3.35864e-09
-1.15685e-08
8.18001e-08
3.24614e-09
-1.16e-08
8.30173e-08
3.13062e-09
-1.14306e-08
8.40043e-08
3.0143e-09
-1.10757e-08
8.48145e-08
2.90502e-09
-1.05555e-08
8.5491e-08
2.80394e-09
-9.89454e-09
8.6063e-08
2.71779e-09
-9.11743e-09
8.65538e-08
2.64634e-09
-8.2544e-09
8.69761e-08
2.59483e-09
-7.33405e-09
8.73386e-08
2.56125e-09
-6.38522e-09
8.76405e-08
2.54901e-09
-5.43846e-09
8.7877e-08
2.55447e-09
-4.51431e-09
8.80326e-08
2.57989e-09
-3.63541e-09
8.8089e-08
2.6196e-09
-2.81427e-09
8.80167e-08
2.67374e-09
-2.07035e-09
8.77797e-08
2.73523e-09
-1.40614e-09
8.73265e-08
2.80304e-09
-8.28428e-10
8.65945e-08
2.86901e-09
-3.35908e-10
8.54976e-08
2.93116e-09
7.12168e-11
8.39287e-08
2.98041e-09
3.96795e-10
8.17431e-08
3.01382e-09
6.38173e-10
7.87559e-08
3.02146e-09
7.92291e-10
7.47185e-08
2.99913e-09
8.4745e-10
6.93059e-08
2.93046e-09
7.98e-10
6.20817e-08
2.78951e-09
6.19243e-10
5.24625e-08
2.55106e-09
3.14215e-08
2.12792e-09
-2.17499e-09
2.76455e-08
3.0113e-09
-4.17581e-09
4.62252e-08
3.54036e-09
-6.07808e-09
5.48157e-08
3.78058e-09
-7.82999e-09
6.13541e-08
3.91367e-09
-9.39398e-09
6.63481e-08
3.96408e-09
-1.07368e-08
7.01704e-08
3.96265e-09
-1.18481e-08
7.31059e-08
3.92146e-09
-1.27088e-08
7.53659e-08
3.85294e-09
-1.33054e-08
7.71139e-08
3.76283e-09
-1.36388e-08
7.84717e-08
3.66128e-09
-1.37086e-08
7.95352e-08
3.55245e-09
-1.3527e-08
8.03758e-08
3.44518e-09
-1.31036e-08
8.10507e-08
3.34233e-09
-1.24651e-08
8.16009e-08
3.25153e-09
-1.16366e-08
8.20598e-08
3.17416e-09
-1.06467e-08
8.24484e-08
3.11639e-09
-9.53144e-09
8.27834e-08
3.07778e-09
-8.32652e-09
8.30704e-08
3.06261e-09
-7.068e-09
8.33122e-08
3.06837e-09
-5.78691e-09
8.35007e-08
3.0973e-09
-4.5257e-09
8.3625e-08
3.14477e-09
-3.31021e-09
8.36629e-08
3.21106e-09
-2.1705e-09
8.35875e-08
3.28964e-09
-1.12898e-09
8.33589e-08
3.37913e-09
-2.02648e-10
8.29297e-08
3.47153e-09
5.93011e-10
8.2234e-08
3.56418e-09
1.25077e-09
8.11921e-08
3.648e-09
1.76238e-09
7.96969e-08
3.7193e-09
2.12421e-09
7.76143e-08
3.76785e-09
2.32482e-09
7.47649e-08
3.7888e-09
2.3564e-09
7.09188e-08
3.77014e-09
2.19274e-09
6.57662e-08
3.70095e-09
1.82418e-09
5.89044e-08
3.55014e-09
1.20855e-09
4.97855e-08
3.29122e-09
2.98781e-08
2.75172e-09
-1.87497e-09
2.72009e-08
2.31753e-09
-3.74852e-09
4.5248e-08
2.85313e-09
-5.61158e-09
5.35713e-08
3.10696e-09
-7.37584e-09
5.98811e-08
3.23646e-09
-8.97648e-09
6.4668e-08
3.28052e-09
-1.03704e-08
6.82966e-08
3.26819e-09
-1.15251e-08
7.10438e-08
3.21676e-09
-1.2413e-08
7.31205e-08
3.13395e-09
-1.30164e-08
7.46864e-08
3.03062e-09
-1.33238e-08
7.58666e-08
2.91276e-09
-1.33341e-08
7.67556e-08
2.79015e-09
-1.30562e-08
7.74299e-08
2.66753e-09
-1.25055e-08
7.7946e-08
2.55349e-09
-1.17058e-08
7.83506e-08
2.45141e-09
-1.06915e-08
7.86761e-08
2.36847e-09
-9.49686e-09
7.89491e-08
2.30626e-09
-8.16971e-09
7.91843e-08
2.26993e-09
-6.74807e-09
7.93923e-08
2.25882e-09
-5.2864e-09
7.95728e-08
2.27578e-09
-3.82359e-09
7.9722e-08
2.31766e-09
-2.40825e-09
7.98245e-08
2.38494e-09
-1.07905e-09
7.98615e-08
2.47212e-09
1.2915e-10
7.98014e-08
2.5775e-09
1.18785e-09
7.96073e-08
2.69366e-09
2.07427e-09
7.92267e-08
2.81722e-09
2.77004e-09
7.85977e-08
2.93936e-09
3.26964e-09
7.7637e-08
3.05551e-09
3.56813e-09
7.62432e-08
3.15585e-09
3.66622e-09
7.42821e-08
3.23486e-09
3.56443e-09
7.1584e-08
3.28189e-09
3.26757e-09
6.79251e-08
3.29003e-09
2.77752e-09
6.30133e-08
3.24353e-09
2.10017e-09
5.64634e-08
3.11843e-09
1.24486e-09
4.77598e-08
2.87975e-09
2.87611e-08
2.36252e-09
-1.24041e-09
2.73559e-08
1.08537e-09
-2.79126e-09
4.53214e-08
1.47777e-09
-4.47289e-09
5.35827e-08
1.66882e-09
-6.14957e-09
5.98104e-08
1.74823e-09
-7.72745e-09
6.44967e-08
1.74874e-09
-9.13388e-09
6.80045e-08
1.6995e-09
-1.03175e-08
7.06154e-08
1.6117e-09
-1.12337e-08
7.25407e-08
1.49578e-09
-1.18524e-08
7.39465e-08
1.35841e-09
-1.21557e-08
7.49595e-08
1.20971e-09
-1.21377e-08
7.56812e-08
1.05626e-09
-1.18025e-08
7.61887e-08
9.0773e-10
-1.11713e-08
7.65461e-08
7.68219e-10
-1.02699e-08
7.68014e-08
6.46157e-10
-9.13344e-09
7.69942e-08
5.45506e-10
-7.80674e-09
7.71509e-08
4.7261e-10
-6.34642e-09
7.72923e-08
4.29085e-10
-4.79796e-09
7.74275e-08
4.18774e-10
-3.2265e-09
7.75604e-08
4.40479e-10
-1.6847e-09
7.76839e-08
4.95231e-10
-2.24138e-10
7.77858e-08
5.78996e-10
1.10535e-09
7.78421e-08
6.90095e-10
2.26176e-09
7.78229e-08
8.21967e-10
3.21177e-09
7.76853e-08
9.70701e-10
3.93347e-09
7.73778e-08
1.12787e-09
4.4121e-09
7.68321e-08
1.28807e-09
4.6395e-09
7.59661e-08
1.44187e-09
4.6285e-09
7.46729e-08
1.5831e-09
4.38727e-09
7.28205e-08
1.7018e-09
3.943e-09
7.02362e-08
1.79177e-09
3.32296e-09
6.6701e-08
1.8429e-09
2.56853e-09
6.19235e-08
1.8458e-09
1.72504e-09
5.55287e-08
1.77709e-09
8.67585e-10
4.70084e-08
1.60969e-09
2.83885e-08
1.24017e-09
-5.57432e-10
2.8232e-08
-3.20201e-10
-1.74351e-09
4.66562e-08
-1.46499e-10
-3.20976e-09
5.50998e-08
-5.14856e-11
-4.78189e-09
6.14272e-08
-4.52953e-11
-6.32749e-09
6.61439e-08
-1.01582e-10
-7.75086e-09
6.96289e-08
-2.01103e-10
-8.97328e-09
7.21721e-08
-3.33324e-10
-9.93771e-09
7.39972e-08
-4.92702e-10
-1.05966e-08
7.52765e-08
-6.70789e-10
-1.09237e-08
7.61472e-08
-8.60872e-10
-1.09061e-08
7.6716e-08
-1.05327e-09
-1.05451e-08
7.70704e-08
-1.24071e-09
-9.86514e-09
7.72781e-08
-1.41259e-09
-8.89605e-09
7.73955e-08
-1.56334e-09
-7.67946e-09
7.7464e-08
-1.68552e-09
-6.27101e-09
7.75172e-08
-1.77539e-09
-4.72553e-09
7.75756e-08
-1.82794e-09
-3.10998e-09
7.76534e-08
-1.84222e-09
-1.48767e-09
7.77527e-08
-1.81622e-09
8.15495e-11
7.78692e-08
-1.75215e-09
1.53308e-09
7.79864e-08
-1.65113e-09
2.81037e-09
7.80814e-08
-1.51844e-09
3.8741e-09
7.81185e-08
-1.35801e-09
4.68334e-09
7.80537e-08
-1.1776e-09
5.21599e-09
7.78283e-08
-9.83228e-10
5.45802e-09
7.7372e-08
-7.84184e-10
5.41982e-09
7.65943e-08
-5.87556e-10
5.10892e-09
7.53855e-08
-4.02994e-10
4.563e-09
7.36046e-08
-2.3733e-10
3.82242e-09
7.10756e-08
-9.90637e-11
2.94819e-09
6.75698e-08
6.74598e-12
2.00881e-09
6.27919e-08
6.94757e-11
1.10659e-09
5.63556e-08
7.65023e-11
3.58994e-10
4.77464e-08
7.66994e-12
2.88885e-08
-1.40274e-10
-2.03594e-11
2.97795e-08
-1.52885e-09
-9.00953e-10
4.90999e-08
-1.56169e-09
-2.16668e-09
5.79294e-08
-1.56372e-09
-3.61972e-09
6.45083e-08
-1.62835e-09
-5.10649e-09
6.93713e-08
-1.74089e-09
-6.50928e-09
7.29194e-08
-1.88754e-09
-7.73577e-09
7.5462e-08
-2.06332e-09
-8.71325e-09
7.72362e-08
-2.2621e-09
-9.38618e-09
7.8429e-08
-2.478e-09
-9.72375e-09
7.91866e-08
-2.70185e-09
-9.71051e-09
7.96282e-08
-2.92607e-09
-9.34778e-09
7.98486e-08
-3.14134e-09
-8.65396e-09
7.99257e-08
-3.34011e-09
-7.66657e-09
7.99197e-08
-3.5134e-09
-6.42503e-09
7.988e-08
-3.65522e-09
-4.9932e-09
7.98421e-08
-3.75896e-09
-3.42722e-09
7.98325e-08
-3.82138e-09
-1.79997e-09
7.98649e-08
-3.83898e-09
-1.79828e-10
7.99449e-08
-3.81188e-09
1.3635e-09
8.00654e-08
-3.74002e-09
2.76651e-09
8.02111e-08
-3.62697e-09
3.97081e-09
8.03538e-08
-3.47603e-09
4.92466e-09
8.04564e-08
-3.29383e-09
5.59904e-09
8.04681e-08
-3.08642e-09
5.96217e-09
8.03265e-08
-2.86267e-09
6.01232e-09
7.99525e-08
-2.63031e-09
5.75499e-09
7.92502e-08
-2.39913e-09
5.21897e-09
7.80991e-08
-2.17695e-09
4.44528e-09
7.63506e-08
-1.97264e-09
3.4976e-09
7.38155e-08
-1.79193e-09
2.45477e-09
7.02538e-08
-1.64073e-09
1.41745e-09
6.53529e-08
-1.52303e-09
5.12414e-10
5.8708e-08
-1.44869e-09
-9.1738e-11
4.97792e-08
-1.42818e-09
3.01756e-08
-1.37897e-09
2.58928e-10
3.17964e-08
-2.27446e-09
-4.37954e-10
5.22458e-08
-2.45134e-09
-1.5555e-09
6.15706e-08
-2.5214e-09
-2.90112e-09
6.84882e-08
-2.63603e-09
-4.30879e-09
7.35657e-08
-2.78682e-09
-5.65655e-09
7.72334e-08
-2.96684e-09
-6.84085e-09
7.98205e-08
-3.1721e-09
-7.79098e-09
8.15837e-08
-3.39917e-09
-8.4432e-09
8.27231e-08
-3.6414e-09
-8.76431e-09
8.33995e-08
-3.89144e-09
-8.73802e-09
8.37408e-08
-4.1398e-09
-8.36313e-09
8.38524e-08
-4.37786e-09
-7.65965e-09
8.38183e-08
-4.59601e-09
-6.66203e-09
8.3708e-08
-4.78666e-09
-5.41424e-09
8.35751e-08
-4.94197e-09
-3.9789e-09
8.34616e-08
-5.05665e-09
-2.41508e-09
8.33958e-08
-5.12573e-09
-7.99973e-10
8.33956e-08
-5.14714e-09
8.00373e-10
8.34656e-08
-5.11936e-09
2.30911e-09
8.36001e-08
-5.04394e-09
3.66091e-09
8.37804e-08
-4.92298e-09
4.8013e-09
8.39772e-08
-4.76147e-09
5.67393e-09
8.41474e-08
-4.56477e-09
6.24559e-09
8.42366e-08
-4.34072e-09
6.49575e-09
8.41742e-08
-4.09703e-09
6.41534e-09
8.38751e-08
-3.8433e-09
6.02109e-09
8.32331e-08
-3.58826e-09
5.34187e-09
8.21191e-08
-3.34137e-09
4.43188e-09
8.03713e-08
-3.11001e-09
3.35936e-09
7.77883e-08
-2.90072e-09
2.21812e-09
7.41117e-08
-2.71695e-09
1.1209e-09
6.9011e-08
-2.5619e-09
2.17409e-10
6.20534e-08
-2.43989e-09
-3.17629e-10
5.26693e-08
-2.35626e-09
3.20251e-08
-2.16695e-09
2.8128e-10
3.40242e-08
-2.50857e-09
-3.66212e-10
5.56314e-08
-2.73895e-09
-1.42724e-09
6.54696e-08
-2.83734e-09
-2.70921e-09
7.27434e-08
-2.97229e-09
-4.05921e-09
7.80537e-08
-3.13944e-09
-5.34944e-09
8.18579e-08
-3.33333e-09
-6.48418e-09
8.45073e-08
-3.55184e-09
-7.38517e-09
8.62754e-08
-3.79097e-09
-7.99555e-09
8.73781e-08
-4.04522e-09
-8.27633e-09
8.79874e-08
-4.30628e-09
-8.21265e-09
8.82433e-08
-4.56551e-09
-7.80728e-09
8.82591e-08
-4.8131e-09
-7.07583e-09
8.81283e-08
-5.04034e-09
-6.05654e-09
8.7926e-08
-5.23844e-09
-4.79346e-09
8.77129e-08
-5.40046e-09
-3.34557e-09
8.75345e-08
-5.52003e-09
-1.78159e-09
8.74237e-08
-5.59309e-09
-1.67516e-10
8.73991e-08
-5.6165e-09
1.42059e-09
8.74676e-08
-5.58972e-09
2.91204e-09
8.76217e-08
-5.51331e-09
4.24189e-09
8.78421e-08
-5.39035e-09
5.34745e-09
8.80953e-08
-5.22495e-09
6.18297e-09
8.83353e-08
-5.02346e-09
6.71228e-09
8.85007e-08
-4.79287e-09
6.91146e-09
8.85158e-08
-4.54196e-09
6.7814e-09
8.82865e-08
-4.27951e-09
6.32991e-09
8.76988e-08
-4.01533e-09
5.5952e-09
8.66121e-08
-3.75809e-09
4.6291e-09
8.48538e-08
-3.51605e-09
3.50479e-09
8.22073e-08
-3.29474e-09
2.31697e-09
7.83982e-08
-3.09808e-09
1.18101e-09
7.30743e-08
-2.92778e-09
2.45369e-10
6.57772e-08
-2.78752e-09
-3.11559e-10
5.59046e-08
-2.67975e-09
3.41551e-08
-2.4402e-09
1.28766e-10
3.62008e-08
-2.30451e-09
-5.75664e-10
5.88415e-08
-2.5051e-09
-1.65307e-09
6.91383e-08
-2.59366e-09
-2.91777e-09
7.67312e-08
-2.72247e-09
-4.22721e-09
8.22491e-08
-2.88521e-09
-5.46767e-09
8.61743e-08
-3.07628e-09
-6.5445e-09
8.88765e-08
-3.29257e-09
-7.38414e-09
9.06458e-08
-3.53029e-09
-7.93244e-09
9.17105e-08
-3.78319e-09
-8.15775e-09
9.2255e-08
-4.04341e-09
-8.04021e-09
9.24284e-08
-4.30166e-09
-7.58628e-09
9.23536e-08
-4.54873e-09
-6.81564e-09
9.21311e-08
-4.77534e-09
-5.75876e-09
9.18433e-08
-4.9733e-09
-4.46568e-09
9.15557e-08
-5.13516e-09
-2.99504e-09
9.13189e-08
-5.25514e-09
-1.41034e-09
9.11682e-08
-5.32863e-09
2.15674e-10
9.11253e-08
-5.35308e-09
1.81572e-09
9.11968e-08
-5.32738e-09
3.31274e-09
9.13755e-08
-5.25262e-09
4.64827e-09
9.16397e-08
-5.13133e-09
5.75706e-09
9.19534e-08
-4.96809e-09
6.59616e-09
9.22658e-08
-4.76868e-09
7.1273e-09
9.2511e-08
-4.54055e-09
7.32726e-09
9.2606e-08
-4.2919e-09
7.19752e-09
9.24501e-08
-4.03205e-09
6.74573e-09
9.19199e-08
-3.77021e-09
6.00768e-09
9.0866e-08
-3.51564e-09
5.03438e-09
8.91037e-08
-3.27622e-09
3.89572e-09
8.64041e-08
-3.05815e-09
2.6824e-09
8.24766e-08
-2.86522e-09
1.50566e-09
7.69513e-08
-2.7002e-09
5.05162e-10
6.93451e-08
-2.56756e-09
-1.45888e-10
5.90283e-08
-2.47231e-09
3.62736e-08
-2.26448e-09
-1.31202e-10
3.81366e-08
-1.80385e-09
-9.66504e-10
6.15889e-08
-1.91417e-09
-2.10559e-09
7.22445e-08
-1.96545e-09
-3.38713e-09
8.00829e-08
-2.06849e-09
-4.68401e-09
8.57553e-08
-2.21215e-09
-5.88352e-09
8.97626e-08
-2.38781e-09
-6.90556e-09
9.249e-08
-2.5911e-09
-7.68373e-09
9.42402e-08
-2.81719e-09
-8.1667e-09
9.52532e-08
-3.05962e-09
-8.32361e-09
9.5723e-08
-3.31007e-09
-8.14504e-09
9.58079e-08
-3.55949e-09
-7.63057e-09
9.56384e-08
-3.79852e-09
-6.80382e-09
9.53223e-08
-4.01819e-09
-5.69961e-09
9.49481e-08
-4.21023e-09
-4.36092e-09
9.45866e-08
-4.36755e-09
-2.85026e-09
9.42924e-08
-4.48428e-09
-1.23114e-09
9.41043e-08
-4.55614e-09
4.29086e-10
9.40454e-08
-4.58039e-09
2.05815e-09
9.41233e-08
-4.55619e-09
3.58812e-09
9.43303e-08
-4.48437e-09
4.95295e-09
9.46428e-08
-4.36762e-09
6.09418e-09
9.50219e-08
-4.21018e-09
6.96477e-09
9.54128e-08
-4.01793e-09
7.52985e-09
9.57442e-08
-3.79795e-09
7.76686e-09
9.59275e-08
-3.55851e-09
7.67049e-09
9.58546e-08
-3.30858e-09
7.25373e-09
9.53948e-08
-3.05752e-09
6.54421e-09
9.43895e-08
-2.81438e-09
5.59077e-09
9.26445e-08
-2.58744e-09
4.4585e-09
8.99197e-08
-2.38315e-09
3.22841e-09
8.5912e-08
-2.20627e-09
2.0071e-09
8.02359e-08
-2.06096e-09
9.15046e-10
7.23903e-08
-1.95499e-09
1.18458e-10
6.17238e-08
-1.89854e-09
3.81744e-08
-1.78201e-09
-4.20646e-10
3.97261e-08
-1.16871e-09
-1.40684e-09
6.37348e-08
-1.15941e-09
-2.636e-09
7.4632e-08
-1.15949e-09
-3.95529e-09
8.26286e-08
-1.22683e-09
-5.24571e-09
8.83903e-08
-1.34347e-09
-6.41633e-09
9.24306e-08
-1.49697e-09
-7.39289e-09
9.51459e-08
-1.68098e-09
-8.11003e-09
9.68491e-08
-1.8897e-09
-8.5313e-09
9.77888e-08
-2.11611e-09
-8.62246e-09
9.81674e-08
-2.35172e-09
-8.37854e-09
9.81508e-08
-2.58748e-09
-7.80297e-09
9.78768e-08
-2.81413e-09
-6.91694e-09
9.74597e-08
-3.02288e-09
-5.75734e-09
9.69937e-08
-3.20569e-09
-4.36961e-09
9.65546e-08
-3.35563e-09
-2.81059e-09
9.62012e-08
-3.46703e-09
-1.14606e-09
9.59751e-08
-3.53574e-09
5.55585e-10
9.59013e-08
-3.55916e-09
2.22907e-09
9.59881e-08
-3.53645e-09
3.80006e-09
9.6227e-08
-3.46843e-09
5.20868e-09
9.6593e-08
-3.35766e-09
6.395e-09
9.7044e-08
-3.20827e-09
7.31191e-09
9.75214e-08
-3.02591e-09
7.9235e-09
9.79491e-08
-2.8175e-09
8.21035e-09
9.82328e-08
-2.59108e-09
8.16239e-09
9.82578e-08
-2.35543e-09
7.79088e-09
9.78864e-08
-2.11981e-09
7.12141e-09
9.69524e-08
-1.89325e-09
6.19743e-09
9.52534e-08
-1.68421e-09
5.07611e-09
9.25406e-08
-1.49967e-09
3.83272e-09
8.85009e-08
-1.34539e-09
2.5581e-09
8.27382e-08
-1.22751e-09
1.36799e-09
7.47384e-08
-1.15782e-09
4.08409e-10
6.3836e-08
-1.15356e-09
3.97413e-08
-1.15748e-09
-6.74199e-10
4.09502e-08
-5.50161e-10
-1.80208e-09
6.52829e-08
-4.22591e-10
-3.11138e-09
7.63147e-08
-3.70919e-10
-4.47004e-09
8.43883e-08
-4.01703e-10
-5.76635e-09
9.01769e-08
-4.9009e-10
-6.91853e-09
9.42024e-08
-6.19891e-10
-7.85617e-09
9.68681e-08
-7.82772e-10
-8.52938e-09
9.84941e-08
-9.72141e-10
-8.89769e-09
9.93363e-08
-1.18039e-09
-8.93494e-09
9.9604e-08
-1.39902e-09
-8.63469e-09
9.94697e-08
-1.61898e-09
-8.00341e-09
9.9078e-08
-1.83125e-09
-7.06616e-09
9.85486e-08
-2.02719e-09
-5.85528e-09
9.79821e-08
-2.1991e-09
-4.42016e-09
9.74588e-08
-2.34022e-09
-2.81489e-09
9.70418e-08
-2.44519e-09
-1.10458e-09
9.67753e-08
-2.50997e-09
6.43782e-10
9.66865e-08
-2.53218e-09
2.35568e-09
9.6784e-08
-2.51093e-09
3.97295e-09
9.70591e-08
-2.44708e-09
5.42439e-09
9.74846e-08
-2.34299e-09
6.65451e-09
9.8016e-08
-2.20268e-09
7.61849e-09
9.85903e-08
-2.0315e-09
8.27573e-09
9.91268e-08
-1.83619e-09
8.60782e-09
9.95253e-08
-1.62443e-09
8.60544e-09
9.96655e-08
-1.40489e-09
8.27608e-09
9.94029e-08
-1.18655e-09
7.64074e-09
9.8565e-08
-9.78443e-10
6.74066e-09
9.69422e-08
-7.89045e-10
5.62878e-09
9.42791e-08
-6.25913e-10
4.37114e-09
9.02551e-08
-4.95602e-10
3.04672e-09
8.4467e-08
-4.06273e-10
1.7687e-09
7.63932e-08
-3.73595e-10
6.63555e-10
6.53604e-08
-4.21838e-10
4.09502e-08
-5.44964e-10
-8.44975e-10
4.18495e-08
-5.19213e-11
-2.06876e-09
6.63375e-08
1.66762e-10
-3.44098e-09
7.74249e-08
2.60687e-10
-4.8274e-09
8.55137e-08
2.60712e-10
-6.12504e-09
9.12809e-08
1.96895e-10
-7.26569e-09
9.52522e-08
8.87527e-11
-8.18099e-09
9.78365e-08
-5.40592e-11
-8.81881e-09
9.93588e-08
-2.25394e-10
-9.14914e-09
1.00081e-07
-4.1587e-10
-9.14583e-09
1.00218e-07
-6.17355e-10
-8.80334e-09
9.995e-08
-8.21105e-10
-8.13487e-09
9.94262e-08
-1.0181e-09
-7.15977e-09
9.87737e-08
-1.20062e-09
-5.91318e-09
9.80974e-08
-1.36098e-09
-4.44607e-09
9.74833e-08
-1.49282e-09
-2.81175e-09
9.69978e-08
-1.59088e-09
-1.07231e-09
9.66886e-08
-1.65147e-09
7.01941e-10
9.65841e-08
-1.67221e-09
2.44334e-09
9.66941e-08
-1.65244e-09
4.08754e-09
9.70089e-08
-1.59279e-09
5.56726e-09
9.74999e-08
-1.49564e-09
6.82711e-09
9.81193e-08
-1.36466e-09
7.8241e-09
9.88006e-08
-1.20508e-09
8.51552e-09
9.94579e-08
-1.02328e-09
8.88048e-09
9.9986e-08
-8.26899e-10
8.91188e-09