/*--------------------------------*- C++ -*----------------------------------*\
| =========                 |                                                 |
| \\      /  F ield         | OpenFOAM: The Open Source CFD Toolbox           |
|  \\    /   O peration     | Version:  v2006                                 |
|   \\  /    A nd           | Website:  www.openfoam.com                      |
|    \\/     M anipulation  |                                                 |
\*---------------------------------------------------------------------------*/
FoamFile
{
    version     2.0;
    format      ascii;
    class       volScalarField;
    location    "38";
    object      nut;
}
// * * * * * * * * * * * * * * * * * * * * * * * * * * * * * * * * * * * * * //

dimensions      [0 2 -1 0 0 0 0];


internalField   nonuniform List<scalar> 
78750
(
1.43358e-06
3.49943e-06
8.96815e-06
2.19518e-05
4.74256e-05
5.53681e-05
8.43285e-05
7.25139e-05
8.93518e-05
8.74159e-05
9.53657e-05
0.000105703
0.000105765
0.000110896
0.000113839
0.00011967
0.000125375
0.000132358
0.000138406
0.000142601
0.000142439
0.000138225
0.000132307
0.00012715
0.000123631
0.000121959
0.000120891
0.000119794
0.000116592
0.000111599
0.000106074
9.4202e-05
7.83841e-05
7.87303e-05
1.32224e-05
7.49334e-07
3.25428e-06
2.76469e-06
1.43762e-05
2.31638e-05
1.88977e-05
3.28438e-05
2.16903e-05
3.51362e-05
2.7596e-05
4.02067e-05
4.19562e-05
4.08589e-05
4.22914e-05
4.44788e-05
4.46814e-05
4.31482e-05
4.12297e-05
3.95033e-05
3.93131e-05
4.14437e-05
4.50814e-05
5.06142e-05
5.98995e-05
7.34191e-05
8.15172e-05
8.35447e-05
8.60593e-05
8.46503e-05
8.2577e-05
8.30053e-05
8.49769e-05
9.31381e-05
0.000119086
1.26991e-05
5.27188e-07
3.3661e-06
3.33915e-05
4.85394e-05
4.83913e-05
7.39291e-05
6.42894e-05
8.42271e-05
7.63153e-05
8.23315e-05
7.94423e-05
7.57235e-05
8.15772e-05
9.14839e-05
9.97038e-05
9.93122e-05
8.6501e-05
6.76604e-05
5.27696e-05
4.41046e-05
3.94687e-05
3.65461e-05
3.79075e-05
5.49967e-05
7.08178e-05
3.89113e-05
2.94678e-05
2.69918e-05
2.0984e-05
1.85659e-05
2.19408e-05
2.62848e-05
2.90734e-05
5.06561e-05
1.40068e-05
4.58404e-06
3.60349e-05
4.85858e-05
0.000122308
0.000142911
0.00014578
0.000134715
0.000109345
8.49787e-05
6.80069e-05
5.23544e-05
4.21111e-05
3.42426e-05
3.0928e-05
3.19962e-05
3.76496e-05
5.20979e-05
8.44464e-05
0.000137399
0.000187731
0.000198444
0.000160378
6.74029e-05
3.15312e-05
2.43336e-05
1.19608e-05
6.58888e-06
6.958e-06
7.09973e-06
1.20336e-05
2.23118e-05
2.82645e-05
3.4294e-05
6.51525e-05
1.47908e-05
6.08999e-06
3.56429e-05
7.34808e-05
7.204e-05
6.90193e-05
7.62884e-05
8.66721e-05
9.76513e-05
0.000104967
0.000106898
0.000104274
9.56103e-05
8.28273e-05
6.84605e-05
5.67801e-05
4.92442e-05
4.47971e-05
4.34269e-05
4.5204e-05
4.80839e-05
4.74583e-05
4.01101e-05
3.15322e-05
3.01412e-05
3.42315e-05
2.29247e-05
2.33672e-05
3.07272e-05
7.31217e-06
5.55289e-06
8.74879e-06
1.68843e-05
3.9891e-05
0.000121827
1.32434e-05
7.43302e-06
6.47178e-05
0.000115188
0.000123716
0.000118778
0.000109466
9.67934e-05
8.12575e-05
6.49899e-05
5.04619e-05
4.05334e-05
3.77077e-05
4.35069e-05
5.99581e-05
8.50706e-05
0.000107925
0.000117205
0.000106853
9.29588e-05
9.40751e-05
0.000112486
0.000130784
0.000111165
7.10844e-05
4.71566e-05
3.66822e-05
3.06886e-05
2.5382e-05
2.02294e-05
9.77107e-06
7.34917e-06
1.22165e-05
3.91909e-05
8.11622e-05
1.04753e-05
6.84343e-06
4.75553e-05
9.57825e-05
0.000108535
0.000115934
0.000122934
0.000127767
0.000127861
0.000121583
0.000108619
9.0991e-05
7.32846e-05
5.99377e-05
5.20547e-05
4.8625e-05
4.82382e-05
4.93128e-05
5.02972e-05
5.08913e-05
5.25265e-05
5.76279e-05
6.7721e-05
7.61371e-05
6.51166e-05
4.3123e-05
2.99731e-05
2.6284e-05
2.84686e-05
2.88217e-05
1.95214e-05
9.36414e-06
7.58499e-06
1.78782e-05
7.11598e-05
7.17485e-06
4.81963e-06
3.10073e-05
9.37766e-05
0.000130794
0.000133762
0.000130139
0.000124447
0.000118121
0.000112249
0.000107718
0.000104337
0.000100093
9.24964e-05
8.14846e-05
7.0704e-05
6.44282e-05
6.50453e-05
7.30484e-05
8.5056e-05
9.18232e-05
8.88758e-05
8.6208e-05
9.3197e-05
9.97994e-05
7.68326e-05
4.45093e-05
2.87321e-05
2.4937e-05
2.81473e-05
2.95184e-05
1.70853e-05
8.11859e-06
1.11033e-05
4.81822e-05
6.12843e-06
7.31483e-06
4.44689e-05
0.000118884
0.000133926
0.000135962
0.000136185
0.000135651
0.000133557
0.000128864
0.0001211
0.000110884
9.9862e-05
8.94243e-05
7.96377e-05
6.97964e-05
6.00042e-05
5.20481e-05
4.80981e-05
4.94421e-05
5.63611e-05
6.70395e-05
7.69438e-05
8.45123e-05
9.7529e-05
0.000119526
0.000110295
5.8665e-05
3.33111e-05
2.69446e-05
2.79655e-05
1.96115e-05
8.14141e-06
8.21301e-06
2.86753e-05
5.35584e-06
5.50606e-06
2.97376e-05
8.78671e-05
0.000133724
0.000150265
0.000156143
0.000155461
0.000149629
0.000140688
0.000130936
0.000122113
0.000114862
0.000108205
9.96266e-05
8.78199e-05
7.47025e-05
6.34976e-05
5.66634e-05
5.5584e-05
6.17309e-05
7.85812e-05
0.00011328
0.000166287
0.000166607
0.000122529
8.20473e-05
5.88782e-05
3.77898e-05
2.68259e-05
2.49716e-05
1.98274e-05
7.79885e-06
7.75525e-06
2.65588e-05
5.30031e-06
7.44494e-06
4.47054e-05
0.000141777
0.000168575
0.000168811
0.000164977
0.000159603
0.000152556
0.000142186
0.00012702
0.00010903
9.38986e-05
8.6015e-05
8.504e-05
8.47454e-05
7.60535e-05
6.07003e-05
4.90945e-05
4.53414e-05
5.07507e-05
7.37289e-05
0.000142508
0.000160492
0.000128734
9.03419e-05
4.1264e-05
3.3091e-05
3.6083e-05
3.21376e-05
2.59996e-05
1.99386e-05
7.5669e-06
5.56715e-06
1.66229e-05
4.84324e-06
7.6023e-06
4.86512e-05
0.000116805
0.000143136
0.000151946
0.000155122
0.000154889
0.000152376
0.000147955
0.000140201
0.000125626
0.000104153
8.45987e-05
7.47684e-05
7.4652e-05
7.70512e-05
6.9386e-05
5.44177e-05
4.75098e-05
5.7192e-05
9.17638e-05
7.55886e-05
2.85233e-05
1.0191e-05
1.2828e-06
1.72589e-06
3.4563e-06
8.48829e-06
1.29459e-05
1.44504e-05
1.05648e-05
5.26806e-06
6.37824e-06
2.2941e-05
5.08595e-06
7.96938e-06
5.03599e-05
0.000148549
0.000173536
0.00017652
0.000173994
0.000168311
0.000160457
0.000151077
0.000140535
0.000128011
0.000111135
8.96452e-05
6.99527e-05
5.85303e-05
5.5535e-05
5.61217e-05
5.31808e-05
4.84411e-05
5.00591e-05
5.60142e-05
3.80412e-05
1.6247e-05
3.06159e-06
3.12467e-06
8.87647e-07
1.74182e-06
2.09796e-06
2.92863e-07
1.3071e-06
1.38263e-06
1.45446e-06
3.60312e-06
1.47513e-05
4.96012e-06
7.62747e-06
4.9488e-05
0.000133003
0.000162036
0.000170498
0.000172128
0.000168898
0.000161831
0.000152241
0.000142022
0.000132695
0.000123524
0.000110592
9.06812e-05
6.91835e-05
5.54841e-05
5.17948e-05
5.38007e-05
5.34103e-05
4.91374e-05
4.86085e-05
5.82797e-05
7.90867e-05
7.19468e-05
3.28949e-05
1.37738e-05
1.10514e-05
1.55136e-05
2.29817e-05
1.66688e-05
3.41787e-06
9.98317e-07
4.54649e-06
2.45682e-05
4.95557e-06
7.54936e-06
4.43925e-05
0.00013385
0.000167643
0.000174848
0.000174457
0.000169209
0.00016013
0.00014822
0.000135223
0.000123288
0.000113612
0.000105233
9.48707e-05
7.97661e-05
6.36105e-05
5.40081e-05
5.4074e-05
6.19039e-05
7.09131e-05
7.3862e-05
7.3004e-05
7.52722e-05
8.60115e-05
0.000109246
0.000132454
0.000128382
0.000116534
8.08999e-05
3.47491e-05
2.34086e-05
4.96796e-06
2.47003e-06
1.52336e-05
4.99666e-06
7.47055e-06
4.51854e-05
0.000134342
0.000172568
0.00018024
0.000177913
0.000169523
0.000157243
0.000143381
0.000130674
0.000120978
0.000114097
0.000108174
0.000100694
8.92105e-05
7.34681e-05
5.84965e-05
5.09297e-05
5.37528e-05
6.74133e-05
8.96468e-05
0.000114651
0.000136817
0.00015466
0.000169756
0.000179991
0.00017959
0.00017354
0.000165771
0.00012858
6.61039e-05
2.03475e-05
7.58013e-06
1.91884e-05
4.81122e-06
7.53471e-06
4.17905e-05
0.0001323
0.000176595
0.000184596
0.000181384
0.000170866
0.000154901
0.000136675
0.000121339
0.000113013
0.000112348
0.000116552
0.000120134
0.000116776
0.000102707
8.05914e-05
5.95726e-05
4.739e-05
4.5672e-05
5.33595e-05
6.83339e-05
8.66169e-05
0.000104379
0.000119988
0.000133036
0.000143814
0.000152047
0.000149985
0.000113658
4.68281e-05
1.51091e-05
9.7576e-06
3.38376e-05
4.71682e-06
7.74818e-06
4.52139e-05
0.000135799
0.000176844
0.000183348
0.000178671
0.000166511
0.000148365
0.000127371
0.000109416
9.92943e-05
9.83097e-05
0.000105319
0.000117106
0.000127571
0.000128262
0.000113046
8.64086e-05
6.20718e-05
4.89212e-05
4.78248e-05
5.72052e-05
7.4545e-05
9.50395e-05
0.000112697
0.00012332
0.000125241
0.000118368
0.000102806
7.73111e-05
4.37995e-05
1.81373e-05
1.16247e-05
3.20816e-05
4.72811e-06
8.15182e-06
4.88827e-05
0.000146628
0.000183424
0.000187748
0.000181518
0.000167649
0.000147637
0.000125722
0.000108573
0.000100201
0.00010076
0.000108478
0.000120368
0.000131936
0.000137259
0.000130004
0.000107688
7.85401e-05
5.6176e-05
4.60845e-05
4.74994e-05
5.89005e-05
7.92048e-05
0.00010684
0.00013647
0.000156711
0.000157768
0.000140741
0.000110508
6.15856e-05
1.86833e-05
7.67371e-06
1.54915e-05
4.34537e-06
8.48633e-06
5.61427e-05
0.000154172
0.000183126
0.000185617
0.000178226
0.000162656
0.000140176
0.000116484
9.96902e-05
9.36915e-05
9.83133e-05
0.000111896
0.000131584
0.000152459
0.000167117
0.000166254
0.000143009
0.000104194
6.94585e-05
4.98204e-05
4.47552e-05
5.26243e-05
7.49225e-05
0.000116551
0.00017356
0.000176285
0.000171965
0.000164347
6.8344e-05
1.7514e-05
9.42076e-06
1.51922e-05
6.95334e-05
5.61741e-06
8.70236e-06
5.96136e-05
0.00015728
0.000180944
0.000184093
0.000179308
0.000167589
0.000148635
0.000125293
0.00010517
9.42106e-05
9.33762e-05
0.000101015
0.000114561
0.00013097
0.000146734
0.00015692
0.000153819
0.000130572
9.39068e-05
6.28953e-05
4.69044e-05
4.4621e-05
5.38884e-05
7.40404e-05
0.000102888
0.000130128
0.000139385
0.000124003
7.98892e-05
2.90104e-05
1.15102e-05
1.33368e-05
5.55213e-05
4.31489e-06
8.42309e-06
5.61614e-05
0.00015144
0.000180989
0.000186202
0.000182661
0.000173289
0.000158564
0.000138222
0.000115412
9.73567e-05
8.91042e-05
9.14685e-05
0.000103274
0.000121735
0.000141731
0.000156704
0.000160171
0.000146696
0.000116688
8.21426e-05
5.73134e-05
4.62527e-05
4.69473e-05
5.67517e-05
7.19793e-05
8.66109e-05
9.48689e-05
9.44855e-05
8.35221e-05
5.50604e-05
2.06539e-05
1.16642e-05
2.52567e-05
4.32289e-06
8.4034e-06
5.36043e-05
0.000151393
0.000182418
0.000187462
0.000184248
0.000176648
0.000166256
0.000152416
0.000133181
0.00011017
9.09437e-05
8.16005e-05
8.34652e-05
9.61155e-05
0.000118156
0.00014566
0.000171539
0.000186087
0.000177077
0.000139062
9.26714e-05
6.25407e-05
5.1101e-05
5.34647e-05
6.53402e-05
8.05545e-05
9.06421e-05
9.16681e-05
8.30134e-05
5.4278e-05
1.83106e-05
9.03185e-06
1.85288e-05
5.23418e-06
8.13106e-06
4.90773e-05
0.000144546
0.000183393
0.000189913
0.000186231
0.000177453
0.000166647
0.000155443
0.000143136
0.000126882
0.000106484
8.87758e-05
8.07866e-05
8.47319e-05
0.000100695
0.000127484
0.000160203
0.000188918
0.000201361
0.000186331
0.000143505
9.70754e-05
6.99243e-05
6.44428e-05
7.83998e-05
0.000105412
0.000121178
0.000101152
4.65141e-05
1.63384e-05
1.10886e-05
1.55674e-05
6.08964e-05
6.09606e-06
8.40241e-06
5.01889e-05
0.000148835
0.000186996
0.000191551
0.000186014
0.000175203
0.000161967
0.000148694
0.000136899
0.000125861
0.000112693
9.70207e-05
8.47655e-05
8.20542e-05
9.14021e-05
0.000113874
0.000149122
0.000192078
0.000230638
0.000247735
0.000225463
0.000164031
0.000103591
7.2065e-05
6.64602e-05
7.90803e-05
9.04221e-05
7.29238e-05
3.48328e-05
1.43364e-05
1.07583e-05
2.09008e-05
5.29547e-05
5.55014e-06
8.6262e-06
5.31222e-05
0.000153469
0.000187952
0.000190998
0.000184311
0.000172236
0.000156954
0.000140389
0.000125054
0.000113172
0.0001048
9.77607e-05
9.12274e-05
8.86108e-05
9.43592e-05
0.000111143
0.000139546
0.000176734
0.00021426
0.000238787
0.000237986
0.00020692
0.000154307
0.000104287
7.41475e-05
6.23993e-05
6.00089e-05
5.57714e-05
4.18018e-05
2.22782e-05
1.23595e-05
1.7075e-05
6.1287e-05
4.63067e-06
8.87241e-06
5.73194e-05
0.000161188
0.000190073
0.000190523
0.000181889
0.00016845
0.000152314
0.000134668
0.000117222
0.000102978
9.44673e-05
9.17808e-05
9.3119e-05
9.73651e-05
0.000105861
0.000121206
0.00014515
0.00017742
0.000214717
0.000249822
0.00027234
0.000269517
0.000231572
0.000169261
0.000113119
7.89038e-05
6.20725e-05
5.39655e-05
4.74219e-05
3.25951e-05
1.34271e-05
1.03492e-05
2.96427e-05
5.10156e-06
8.91688e-06
5.93372e-05
0.000162514
0.000186516
0.000184724
0.000173948
0.000158854
0.00014231
0.000125617
0.000109496
9.59746e-05
8.80924e-05
8.76082e-05
9.41547e-05
0.000106038
0.000121766
0.000141357
0.00016597
0.000196168
0.00022959
0.000259207
0.000276503
0.00027806
0.000261592
0.000222507
0.000169149
0.000120856
8.60427e-05
5.85546e-05
3.26762e-05
1.80061e-05
1.15192e-05
1.2703e-05
4.49005e-05
6.22213e-06
8.81724e-06
5.78879e-05
0.000161303
0.000185672
0.000182767
0.000170172
0.00015375
0.000137521
0.000122841
0.000109072
9.64812e-05
8.78454e-05
8.62639e-05
9.28425e-05
0.000106614
0.000125582
0.00014854
0.0001766
0.000213186
0.000260672
0.000306523
0.00029881
0.00028933
0.000277811
0.000263884
0.000247054
0.00016465
9.27697e-05
4.08291e-05
1.24592e-05
8.45865e-06
1.24838e-05
2.58811e-05
6.85505e-05
6.38966e-06
8.77957e-06
5.66138e-05
0.000159488
0.000184221
0.00017983
0.000165127
0.000147377
0.000131827
0.000119934
0.00010973
9.90413e-05
8.91678e-05
8.44343e-05
8.82688e-05
0.000101594
0.000123106
0.000150042
0.000179836
0.000211413
0.000245237
0.000281537
0.000307118
0.000298731
0.000288521
0.000276168
0.000254403
0.000188844
0.000122154
6.1034e-05
2.03141e-05
8.97417e-06
1.20268e-05
3.06127e-05
4.45647e-05
5.40068e-06
8.71854e-06
5.39201e-05
0.000154842
0.000182322
0.000177767
0.000161738
0.000142725
0.000127458
0.000118085
0.0001122
0.00010539
9.55678e-05
8.63229e-05
8.35453e-05
9.0561e-05
0.000107888
0.000134019
0.00016603
0.000200756
0.000235504
0.000267407
0.000292569
0.000306306
0.000301367
0.000283519
0.000245826
0.000196733
0.000141942
8.63597e-05
3.85106e-05
1.35721e-05
9.71985e-06
2.19435e-05
4.67114e-05
4.7103e-06
8.73958e-06
5.21309e-05
0.000151111
0.000179887
0.000174271
0.000156129
0.000135092
0.000119332
0.000111546
0.000109493
0.000108297
0.000103068
9.35509e-05
8.58475e-05
8.63853e-05
9.7969e-05
0.000120618
0.000152153
0.000188569
0.000225089
0.00025697
0.000279864
0.000290489
0.000287606
0.000272471
0.000248104
0.000218186
0.00018498
0.000146001
9.35171e-05
3.75729e-05
1.30788e-05
1.46528e-05
5.81321e-05
4.50516e-06
8.73329e-06
5.02522e-05
0.000147409
0.000177651
0.00017107
0.00015071
0.000127677
0.000111703
0.000105569
0.000106802
0.000110487
0.000110592
0.000103361
9.2495e-05
8.66204e-05
9.14585e-05
0.000108815
0.000138203
0.000176927
0.000219887
0.000260092
0.000290326
0.000305714
0.000305474
0.000292301
0.000270077
0.000242136
0.000210374
0.000173678
0.000125117
6.23686e-05
2.13208e-05
1.54267e-05
5.0165e-05
4.78229e-06
8.81814e-06
4.98181e-05
0.000145731
0.000174622
0.000166054
0.000143056
0.00011827
0.00010255
9.81209e-05
0.000102026
0.000109523
0.00011484
0.000112675
0.000102955
9.33995e-05
9.25875e-05
0.000104653
0.000130494
0.000168543
0.000214018
0.00025854
0.000292245
0.000308727
0.000308306
0.000295655
0.000275609
0.000251031
0.00022248
0.00018761
0.000138585
7.07207e-05
2.47971e-05
1.72475e-05
5.25304e-05
5.24434e-06
8.90873e-06
5.04252e-05
0.000146156
0.000172187
0.000161634
0.000136572
0.000110901
9.60364e-05
9.35836e-05
0.000100082
0.000110287
0.000118071
0.000118133
0.000109646
9.8917e-05
9.49362e-05
0.000103454
0.000126937
0.000165234
0.000214074
0.00026338
0.000299593
0.00031391
0.000307925
0.000289328
0.000264961
0.000238056
0.000208361
0.000172084
0.00012174
5.99835e-05
2.42148e-05
2.03484e-05
6.47506e-05
5.75757e-06
9.02951e-06
5.24446e-05
0.000148879
0.000170956
0.000158648
0.000132249
0.000105974
9.12601e-05
8.95318e-05
9.74061e-05
0.000109597
0.000119758
0.000122448
0.000116195
0.000105847
9.99223e-05
0.000105155
0.000125233
0.000161092
0.000208818
0.000257052
0.000289907
0.00029821
0.000286339
0.000264978
0.000241494
0.000217255
0.000189091
0.0001509
9.78698e-05
4.56465e-05
2.22593e-05
2.44671e-05
6.78453e-05
6.03348e-06
9.1353e-06
5.51574e-05
0.0001514
0.000170061
0.000158159
0.000132916
0.00010663
9.07178e-05
8.7736e-05
9.49713e-05
0.000107141
0.000117437
0.000120558
0.000115903
0.000107945
0.000103292
0.000107572
0.000124774
0.000157142
0.000202784
0.000251745
0.000286737
0.000295049
0.000279572
0.00025283
0.00022488
0.000198485
0.000170091
0.000132649
8.3308e-05
3.99815e-05
2.24303e-05
2.8788e-05
5.79311e-05
5.94495e-06
9.17271e-06
5.722e-05
0.000152307
0.000170928
0.000162156
0.000140324
0.000113684
9.35986e-05
8.57212e-05
8.93231e-05
0.00010046
0.000112509
0.000118519
0.000116231
0.000109944
0.000106433
0.000110741
0.000125907
0.000153637
0.000192861
0.000236393
0.000270003
0.000280615
0.000267785
0.000241949
0.00021352
0.000186569
0.000158498
0.000122955
7.8147e-05
3.98409e-05
2.42262e-05
3.24804e-05
5.0616e-05
5.66772e-06
9.15581e-06
5.78667e-05
0.000152562
0.00017354
0.000168962
0.000152268
0.000127391
0.000102638
8.70431e-05
8.33445e-05
8.95624e-05
0.000100828
0.000110031
0.000112028
0.000108492
0.000106058
0.00011065
0.000125562
0.000152152
0.000189163
0.000230123
0.00026217
0.000272512
0.000259116
0.00023119
0.000199978
0.000171593
0.000145258
0.000115391
7.84909e-05
4.44816e-05
2.88346e-05
3.70551e-05
4.87504e-05
5.42712e-06
9.00647e-06
5.58035e-05
0.000151472
0.000177737
0.000176535
0.000163933
0.000143097
0.000117502
9.50226e-05
8.26477e-05
8.16541e-05
8.96245e-05
0.000101158
0.000108974
0.000109664
0.000107494
0.000109667
0.000121051
0.000143742
0.000177189
0.000216421
0.000250345
0.000265946
0.000258013
0.000232538
0.000200183
0.00016896
0.000141016
0.000113083
8.13271e-05
5.09277e-05
3.52791e-05
4.28856e-05
5.20072e-05
5.335e-06
8.89541e-06
5.34129e-05
0.000150895
0.000181529
0.000180627
0.000168573
0.000151655
0.00013184
0.000109827
9.0833e-05
8.09374e-05
8.16189e-05
9.03626e-05
0.000101162
0.000107254
0.000107929
0.000109469
0.000118592
0.00013892
0.000170726
0.000209676
0.000245168
0.00026385
0.00025913
0.000235444
0.00020273
0.000169704
0.000140335
0.00011328
8.51199e-05
5.81306e-05
4.33569e-05
5.11556e-05
5.73332e-05
5.42504e-06
8.79783e-06
5.09835e-05
0.000149409
0.000183131
0.000179237
0.000163113
0.000146357
0.000133778
0.000121862
0.00010636
9.13963e-05
8.44259e-05
8.77489e-05
9.82094e-05
0.00010836
0.00011197
0.000111693
0.000115982
0.000131214
0.000159579
0.000198253
0.000237197
0.000261581
0.000262221
0.00024186
0.000209915
0.000175481
0.000143904
0.000115739
8.87203e-05
6.40131e-05
5.07751e-05
5.96312e-05
6.39207e-05
5.71092e-06
8.92625e-06
5.12772e-05
0.000151652
0.000183356
0.000172475
0.000149042
0.000130298
0.000122429
0.00012102
0.000117275
0.000106687
9.57894e-05
9.28888e-05
9.94706e-05
0.000110545
0.000118129
0.000119454
0.000120981
0.000131275
0.000154922
0.000190876
0.000230048
0.000256779
0.000260061
0.000241729
0.000211166
0.000177475
0.000146127
0.000118211
9.20538e-05
6.8923e-05
5.73971e-05
6.82046e-05
6.98958e-05
6.17842e-06
9.1813e-06
5.43784e-05
0.000158031
0.000180641
0.000158609
0.000129248
0.000112469
0.000110075
0.00011622
0.000122583
0.000121792
0.000114677
0.000109806
0.000112847
0.000121653
0.00012878
0.000129513
0.000128313
0.00013408
0.000152567
0.00018371
0.000219527
0.00024525
0.000249607
0.000233363
0.000205099
0.000173504
0.000143786
0.000117033
9.21475e-05
7.10862e-05
6.22897e-05
7.65468e-05
7.36053e-05
6.7649e-06
9.59251e-06
6.26535e-05
0.000169138
0.000170134
0.000134758
0.000107066
9.8963e-05
0.000105054
0.000117725
0.00012921
0.000134029
0.000132471
0.000130169
0.000132293
0.000138491
0.000143318
0.000142484
0.000139027
0.000140882
0.000153822
0.000177901
0.000206059
0.000225984
0.000228428
0.000213882
0.000189427
0.000162283
0.000136382
0.000112204
8.9407e-05
7.12534e-05
6.64862e-05
8.58527e-05
7.23871e-05
7.30965e-06
9.78986e-06
7.20962e-05
0.00017047
0.000147784
0.00010786
8.95802e-05
9.28182e-05
0.000109417
0.000129623
0.000144924
0.000152459
0.000154339
0.000154354
0.000155147
0.000156448
0.000155534
0.000150765
0.000145006
0.000144122
0.000152279
0.000169007
0.000188432
0.00020135
0.000201266
0.000188776
0.00016916
0.000147485
0.00012605
0.000105074
8.5298e-05
7.12012e-05
7.1755e-05
9.72927e-05
6.81445e-05
7.71555e-06
9.70721e-06
7.531e-05
0.000160384
0.000129131
9.35515e-05
8.22388e-05
9.14938e-05
0.000113303
0.000136802
0.000153863
0.000163322
0.0001678
0.000169956
0.000170864
0.0001699
0.000165696
0.000158195
0.000150255
0.000146396
0.000149558
0.00015894
0.000169799
0.000175788
0.000173287
0.000163413
0.000149617
0.000134192
0.000117472
9.9629e-05
8.29201e-05
7.31393e-05
7.9508e-05
0.00011032
6.40559e-05
8.02982e-06
9.38309e-06
6.9189e-05
0.000151448
0.000129191
9.5992e-05
8.07538e-05
8.44402e-05
0.000102287
0.000127326
0.000150904
0.000167806
0.0001776
0.000182018
0.000182592
0.000179715
0.000173132
0.000163498
0.000153468
0.000146627
0.000145071
0.000147843
0.000151389
0.000151974
0.000148303
0.000141732
0.000133904
0.000124589
0.00011236
9.71861e-05
8.27905e-05
7.65395e-05
8.79196e-05
0.000120764
6.04857e-05
8.10502e-06
9.10842e-06
6.09887e-05
0.000145165
0.000141619
0.0001121
8.34669e-05
7.22735e-05
7.82098e-05
9.80209e-05
0.000126002
0.000153757
0.000175239
0.000188912
0.000195362
0.000195077
0.000188271
0.000176189
0.00016205
0.000149777
0.000141508
0.00013648
0.0001326
0.000128794
0.000125704
0.000124217
0.000123465
0.00012043
0.000111973
9.81955e-05
8.46569e-05
8.04934e-05
9.50993e-05
0.000126143
5.62343e-05
8.10948e-06
8.9262e-06
5.60317e-05
0.000140464
0.000150012
0.000131536
9.77987e-05
7.15744e-05
6.40449e-05
7.35411e-05
9.76978e-05
0.000130984
0.000163978
0.000189502
0.000205204
0.000210938
0.000206815
0.000193821
0.000175181
0.000155485
0.000137838
0.000122842
0.000111043
0.000104451
0.000104566
0.000110522
0.000118344
0.000121718
0.000115726
0.000101769
8.83282e-05
8.62339e-05
0.000104143
0.000131438
5.2433e-05
8.10952e-06
8.87411e-06
5.53427e-05
0.000144651
0.000159397
0.000146686
0.000118394
8.42801e-05
6.35263e-05
6.11896e-05
7.57718e-05
0.000105393
0.000143629
0.000180426
0.000208377
0.000224186
0.000226435
0.00021505
0.000192609
0.000164186
0.000134746
0.000108075
8.88205e-05
8.15125e-05
8.64603e-05
9.99105e-05
0.000115203
0.000124224
0.000121539
0.000109551
9.83366e-05
9.97093e-05
0.000120771
0.00013984
4.96115e-05
8.06015e-06
8.91707e-06
5.74427e-05
0.000152206
0.000165863
0.000152293
0.000128534
9.94597e-05
7.37935e-05
6.23192e-05
6.78629e-05
9.01732e-05
0.000125685
0.000165483
0.00020015
0.000223992
0.000233947
0.000228092
0.000206745
0.000173749
0.000135319
9.87204e-05
7.23515e-05
6.26641e-05
7.02718e-05
9.00197e-05
0.000110473
0.000121422
0.00012207
0.000117126
0.000114212
0.000122084
0.000142524
0.000144686
4.71359e-05
7.92712e-06
8.99112e-06
5.9777e-05
0.000154897
0.000164388
0.000147187
0.000122851
0.000100324
8.14675e-05
6.92204e-05
6.92771e-05
8.50637e-05
0.000115768
0.000154445
0.000191346
0.00021932
0.000234207
0.00023327
0.000215596
0.000183479
0.000142256
9.9718e-05
6.59406e-05
4.93804e-05
5.27877e-05
7.53771e-05
0.000106065
0.000120362
0.000119301
0.000116709
0.000121154
0.000135433
0.000152006
0.000138216
4.3879e-05
7.74024e-06
9.03881e-06
6.19443e-05
0.000154378
0.000160253
0.000141064
0.000115941
9.60655e-05
8.35787e-05
7.65289e-05
7.64163e-05
8.77199e-05
0.000112367
0.000146237
0.000181202
0.000210057
0.000228022
0.00023177
0.000219614
0.000192702
0.00015485
0.000111848
7.22694e-05
4.60604e-05
3.8416e-05
5.07164e-05
8.54118e-05
0.00012344
0.000129457
0.000123484
0.000125072
0.000138026
0.000151451
0.000132084
4.17472e-05
7.56906e-06
9.00814e-06
6.3149e-05
0.000154829
0.000158832
0.00013891
0.000113874
9.45919e-05
8.38493e-05
8.02172e-05
8.27992e-05
9.33085e-05
0.000113877
0.000142956
0.000174825
0.000203025
0.000222589
0.000229953
0.000223126
0.000202631
0.000171295
0.000132823
9.20302e-05
5.69737e-05
3.62463e-05
3.2814e-05
4.79149e-05
8.86791e-05
0.000139059
0.000152517
0.000152209
0.000157905
0.000164002
0.000138052
4.23242e-05
7.4841e-06
8.97401e-06
6.38854e-05
0.000156772
0.000159458
0.000138702
0.000114951
9.75678e-05
8.76104e-05
8.4079e-05
8.69091e-05
9.70003e-05
0.000115314
0.000141119
0.000170813
0.0001992
0.000221308
0.000233056
0.000231754
0.000217162
0.000191737
0.000158911
0.000121432
8.28831e-05
5.0609e-05
3.21713e-05
2.92398e-05
4.23501e-05
8.03319e-05
0.000143031
0.000177124
0.000183577
0.000179032
0.00014098
4.25462e-05
7.40737e-06
8.92248e-06
6.29013e-05
0.000156061
0.000157239
0.000134595
0.000111874
9.79622e-05
9.12317e-05
8.89186e-05
9.1242e-05
0.000100124
0.000116872
0.000140964
0.000169566
0.000198344
0.000222632
0.000238131
0.00024163
0.000232193
0.000211907
0.000184502
0.000152824
0.000118034
8.21532e-05
5.14057e-05
3.28117e-05
2.79386e-05
3.63767e-05
6.37601e-05
0.000116824
0.000156034
0.000158696
0.000123377
3.9648e-05
7.33973e-06
8.94965e-06
6.26995e-05
0.000154144
0.000152771
0.000128091
0.000106325
9.59838e-05
9.37586e-05
9.47192e-05
9.75914e-05
0.000104809
0.000119077
0.00014098
0.000168466
0.000197595
0.000223742
0.000242316
0.000249532
0.000243864
0.000227168
0.000203584
0.000176857
0.000148622
0.000118798
8.78214e-05
5.94152e-05
3.95214e-05
3.10059e-05
3.36359e-05
5.07569e-05
9.14998e-05
0.000129243
0.000112789
3.85629e-05
7.47932e-06
8.95124e-06
6.26528e-05
0.000151548
0.000146612
0.000119905
9.91954e-05
9.18832e-05
9.39154e-05
9.96024e-05
0.000105876
0.00011386
0.000126689
0.000146315
0.000171992
0.000200576
0.000227629
0.000248303
0.000258194
0.000255009
0.000240258
0.000218468
0.000194038
0.000169239
0.000144498
0.000119693
9.4935e-05
7.13114e-05
5.19102e-05
4.01538e-05
3.81767e-05
4.99089e-05
8.28007e-05
0.000113942
4.509e-05
8.1422e-06
8.97295e-06
6.36368e-05
0.000149672
0.000141029
0.00011311
9.39449e-05
8.92914e-05
9.45021e-05
0.000103717
0.000113249
0.000123259
0.000136458
0.000155306
0.000180122
0.000208782
0.000237366
0.000260862
0.000273994
0.000273182
0.000259145
0.000236787
0.00021162
0.000186604
0.000162124
0.000138091
0.000115565
9.59729e-05
7.8807e-05
6.22775e-05
4.76046e-05
4.00981e-05
4.8252e-05
8.68661e-05
5.56912e-05
8.97147e-06
8.91277e-06
6.36543e-05
0.000146306
0.000135114
0.000106805
8.88588e-05
8.60059e-05
9.37191e-05
0.000106407
0.000119901
0.000133238
0.000148307
0.000167637
0.000192378
0.000221497
0.000251854
0.000278437
0.000294931
0.000295975
0.000281139
0.000256006
0.000227757
0.000200224
0.000173219
0.000145447
0.000118259
9.62948e-05
8.14523e-05
6.79703e-05
5.07429e-05
3.86435e-05
4.57935e-05
9.51266e-05
5.32508e-05
9.14505e-06
8.88214e-06
6.38428e-05
0.000143742
0.000132472
0.000104877
8.70412e-05
8.39786e-05
9.17638e-05
0.000105357
0.000120815
0.000136771
0.000154265
0.000175205
0.000200825
0.000230771
0.000262648
0.000291614
0.000310436
0.000311947
0.000294649
0.000265239
0.000233034
0.000203085
0.000174589
0.0001443
0.000112225
8.46806e-05
6.79037e-05
5.93309e-05
5.07679e-05
4.56606e-05
6.19321e-05
0.000122956
4.42038e-05
8.58623e-06
8.8287e-06
6.38411e-05
0.000142008
0.000132114
0.000105516
8.67649e-05
8.21218e-05
8.87649e-05
0.00010234
0.000119
0.000136896
0.000156314
0.000178531
0.000204575
0.000234349
0.000265918
0.000294674
0.000313019
0.000312981
0.000292717
0.000259803
0.000225137
0.000194985
0.000168798
0.000141943
0.000111182
8.05852e-05
5.90487e-05
5.01027e-05
5.03091e-05
5.86922e-05
8.92949e-05
0.000133914
3.9538e-05
7.96648e-06
8.84848e-06
6.53991e-05
0.000143384
0.00013571
0.00011084
9.07685e-05
8.32001e-05
8.67554e-05
9.79165e-05
0.000113339
0.000131214
0.000151409
0.000174554
0.000201113
0.000230747
0.000261641
0.000289522
0.000307089
0.000306415
0.000285347
0.000251187
0.000215324
0.000185254
0.000161991
0.000141548
0.00011804
8.96541e-05
6.33206e-05
4.79856e-05
4.67667e-05
6.26348e-05
0.000104406
0.000133855
3.9909e-05
7.83036e-06
8.83076e-06
6.70948e-05
0.000145507
0.000139891
0.000117177
9.67827e-05
8.69179e-05
8.75484e-05
9.59977e-05
0.000109389
0.00012603
0.00014567
0.0001687
0.000195302
0.000224925
0.000255762
0.00028382
0.000302127
0.000302653
0.000282365
0.000247604
0.000209879
0.000178069
0.000155159
0.000139052
0.000124127
0.000104198
7.88146e-05
5.68435e-05
4.78062e-05
5.71136e-05
9.47235e-05
0.000135268
4.41519e-05
8.16658e-06
8.83817e-06
6.936e-05
0.00014877
0.000145345
0.000125313
0.000105431
9.36161e-05
9.10579e-05
9.60617e-05
0.000106383
0.000120652
0.000138741
0.000161072
0.000187755
0.000218114
0.000250316
0.000280544
0.000301902
0.00030562
0.000286935
0.000250859
0.000209389
0.000173253
0.00014743
0.000131511
0.000121207
0.000109767
9.13703e-05
6.86092e-05
5.31738e-05
5.46495e-05
8.35032e-05
0.000135142
4.83812e-05
8.59406e-06
8.77734e-06
7.06363e-05
0.000150919
0.000149123
0.000131547
0.000113511
0.000101719
9.74815e-05
9.98149e-05
0.000107161
0.000118578
0.000134236
0.00015488
0.000180917
0.000211822
0.000245817
0.000279159
0.000304819
0.000312877
0.000296183
0.00025798
0.000211004
0.000168423
0.000137461
0.000119021
0.000109508
0.000102281
8.98451e-05
7.11451e-05
5.63414e-05
5.74858e-05
8.78027e-05
0.000141811
4.73956e-05
8.70484e-06
8.73177e-06
7.15806e-05
0.000153002
0.000151971
0.000136066
0.000120288
0.000109905
0.000105303
0.000105613
0.000109957
0.000118026
0.000130415
0.000148289
0.000172515
0.000202929
0.000237888
0.000273656
0.000303109
0.000315605
0.000301989
0.000263228
0.000211713
0.0001625
0.000125302
0.000102733
9.20224e-05
8.68587e-05
7.95606e-05
6.79348e-05
5.99107e-05
6.79869e-05
0.000107734
0.000146851
4.24317e-05
8.39926e-06
8.62856e-06
7.08704e-05
0.000152835
0.000150592
0.000134617
0.000121527
0.00011517
0.000113578
0.00011448
0.000117037
0.000121735
0.000129968
0.00014357
0.000164042
0.000191742
0.000225267
0.000260833
0.000291336
0.000306536
0.000297334
0.000262983
0.00021297
0.000160946
0.000118133
9.00215e-05
7.62158e-05
7.19978e-05
6.99235e-05
6.59397e-05
6.60885e-05
8.34595e-05
0.000129412
0.00014147
3.82452e-05
7.98752e-06
8.51807e-06
6.78159e-05
0.000149582
0.000144543
0.000126677
0.000115494
0.00011379
0.00011735
0.000121769
0.000125074
0.000127832
0.000132175
0.00014082
0.000156104
0.000179103
0.000208895
0.000241886
0.000271226
0.000287698
0.00028362
0.000257729
0.000215813
0.000167084
0.000121335
8.67358e-05
6.68986e-05
6.02425e-05
6.14351e-05
6.49272e-05
7.32664e-05
9.84074e-05
0.000142236
0.000135008
3.62984e-05
7.73291e-06
8.33071e-06
6.08868e-05
0.000139432