/*--------------------------------*- C++ -*----------------------------------*\
| =========                 |                                                 |
| \\      /  F ield         | OpenFOAM: The Open Source CFD Toolbox           |
|  \\    /   O peration     | Version:  v2006                                 |
|   \\  /    A nd           | Website:  www.openfoam.com                      |
|    \\/     M anipulation  |                                                 |
\*---------------------------------------------------------------------------*/
FoamFile
{
    version     2.0;
    format      ascii;
    class       volScalarField;
    location    "38";
    object      T;
}
// * * * * * * * * * * * * * * * * * * * * * * * * * * * * * * * * * * * * * //

dimensions      [0 0 0 1 0 0 0];


internalField   nonuniform List<scalar> 
78750
(
69.6693
450.12
339.165
374.5
364.83
362.416
362.515
359.012
359.447
357.253
357.276
356.172
355.61
354.887
354.318
353.77
353.27
352.786
352.306
351.832
351.365
350.931
350.57
350.302
350.096
349.918
349.715
349.578
349.526
349.756
350.248
350.988
352.816
350.671
370.033
201.383
358.224
298.431
339.584
316.977
334.986
329.498
333.232
336.113
336.094
339.527
339.995
340.892
341.846
342.727
343.534
344.247
344.74
344.774
343.863
341.682
338.203
333.898
329.807
327.016
325.477
324.672
324.431
325.028
326.709
329.412
333.51
340.456
350.321
374.561
300.854
300.978
335.144
324.941
332.79
333.602
336.589
338.84
340.15
341.91
342.719
343.522
344.037
344.256
344.337
344.519
345.151
346.599
348.83
351.183
352.81
352.793
350.495
345.677
338.811
329.946
319.209
310.645
306.477
306.13
309.414
313.798
319.133
325.677
361.925
313.329
329.108
325.646
332.27
335.677
338.76
341.064
343.371
345.815
347.784
349.463
350.709
351.336
351.16
350.065
348.177
346.096
344.697
344.205
344.436
345.341
346.821
349.426
354.206
349.707
325.378
302.553
295.418
294.721
297.31
302.615
308.46
315.5
327.712
365.424
312.055
323.328
332.704
336.497
339.289
341.231
342.625
343.646
344.513
345.462
346.509
347.686
349.044
350.494
351.718
352.321
352.094
351.133
349.809
348.491
347.417
346.712
346.294
345.207
341.175
334.107
326.933
317.864
307.389
299.769
299.688
306.982
321.123
336.444
367.536
320.626
333.985
337.221
339.211
340.784
342.251
343.725
345.206
346.587
347.697
348.358
348.374
347.782
347.012
346.534
346.494
346.84
347.513
348.4
349.179
349.612
349.727
349.572
348.95
347.323
344.152
339.128
332.081
323.537
314.679
308.73
310.777
324.309
341.741
374.954
318.653
327.423
331.477
334.506
337.305
339.801
341.966
343.885
345.663
347.375
349.034
350.569
351.806
352.544
352.677
352.251
351.43
350.446
349.543
348.884
348.467
348.178
347.881
347.398
346.352
344.155
340.768
336.936
333.255
329.704
326.188
324.673
332.191
350.157
386.814
310.359
323.151
329.1
332.366
334.766
336.824
338.66
340.305
341.75
342.974
343.988
344.864
345.716
346.644
347.673
348.709
349.598
350.217
350.526
350.555
350.344
349.947
349.464
348.941
348.221
346.815
344.059
340.388
337.213
335.264
334.569
336.185
344.231
362.192
400.076
317.365
330.009
334.798
337.745
340.242
342.457
344.446
346.267
347.972
349.59
351.108
352.454
353.509
354.153
354.321
354.02
353.326
352.404
351.482
350.747
350.241
349.89
349.599
349.306
348.986
348.548
347.642
345.371
341.883
338.941
337.693
340.039
351.292
372.097
410.177
310.293
321.854
328.308
332.169
335.064
337.537
339.718
341.646
343.329
344.776
346.02
347.139
348.238
349.413
350.668
351.854
352.692
352.9
352.409
351.47
350.466
349.65
349.052
348.578
348.149
347.744
347.235
346.104
343.594
340.475
338.671
341.105
355.732
380.1
415.631
315.586
331.268
337.356
340.799
343.608
346.133
348.441
350.561
352.499
354.231
355.684
356.711
357.162
357.027
356.5
355.825
355.145
354.408
353.413
352.084
350.639
349.442
348.349
347.102
345.997
345.475
345.454
345.315
344.359
342.249
339.904
339.745
350.463
376.863
416.656
315.639
326.887
331.606
334.489
336.811
338.868
340.782
342.628
344.46
346.323
348.264
350.296
352.269
353.852
354.801
355.145
355.011
354.421
353.32
351.871
350.5
348.841
345.659
340.643
338.235
338.63
339.129
338.935
338.339
337.742
337.853
341.497
356.707
382.57
418.344
318.244
332.13
337.306
340.379
342.946
345.239
347.311
349.185
350.873
352.378
353.698
354.845
355.841
356.633
357.064
357.042
356.664
356.024
355.046
353.58
351.562
348.294
341.851
334.32
332.011
332.242
332.811
333.403
333.877
334.273
334.844
337.709
350.645
378.546
418.259
316.778
328.888
333.725
336.649
339.036
341.152
343.094
344.929
346.704
348.442
350.137
351.752
353.238
354.527
355.46
355.813
355.606
355.142
354.635
354.029
353.114
351.781
350.167
348.058
344.638
340.872
339.244
339.422
340.127
340.84
341.488
344.391
360.324
384.809
419.302
316.914
330.923
336.419
339.637
342.235
344.517
346.552
348.378
350.026
351.522
352.89
354.139
355.257
356.195
356.852
357.031
356.57
355.676
354.791
354.149
353.728
353.412
353.114
352.856
352.747
352.851
353.111
353.377
353.456
352.823
351.013
349.174
358.629
385.829
420.945
315.889
329.084
334.601
337.885
340.535
342.886
345.022
346.98
348.769
350.382
351.816
353.097
354.275
355.368
356.314
356.937
356.946
356.182
354.977
353.873
353.13
352.719
352.537
352.504
352.583
352.761
353.049
353.476
354.078
354.964
356.502
359.283
364.305
385.207
420.577
316.06
330.818
336.979
340.518
343.305
345.752
347.956
349.957
351.755
353.299
354.517
355.401
356.066
356.684
357.373
358.149
358.854
359.074
358.379
356.941
355.418
354.263
353.545
353.176
353.07
353.175
353.472
353.968
354.703
355.852
358.164
364.377
378.94
397.523
424.251
316.104
330.458
336.635
340.285
343.216
345.832
348.236
350.478
352.56
354.408
355.869
356.834
357.359
357.63
357.837
358.104
358.483
358.912
359.068
358.476
357.196
355.82
354.762
354.079
353.696
353.539
353.564
353.762
354.152
354.835
356.227
360.22
373.852
397.475
424.738
317.427
332.509
338.638
342.234
345.147
347.753
350.157
352.418
354.542
356.433
357.917
358.878
359.365
359.542
359.573
359.567
359.582
359.636
359.677
359.459
358.636
357.325
356.025
355.044
354.416
354.064
353.91
353.919
354.094
354.466
355.116
356.195
359.936
381.801
419.457
319.134
333.566
339.221
342.62
345.444
348.001
350.398
352.707
354.937
356.972
358.586
359.634
360.175
360.387
360.436
360.424
360.402
360.384
360.346
360.177
359.611
358.486
357.139
356.021
355.302
354.931
354.817
354.987
355.573
357.11
362.157
375.973
392.929
405.223
425.079
320.966
334.93
340.119
343.31
346.025
348.493
350.799
353.006
355.152
357.19
358.945
360.226
360.991
361.347
361.446
361.41
361.313
361.188
361.038
360.825
360.439
359.675
358.531
357.356
356.43
355.798
355.407
355.229
355.339
356.073
358.796
368.169
389.448
408.163
427.6
320.043
333.767
339.07
342.298
344.983
347.393
349.615
351.705
353.722
355.707
357.618
359.287
360.533
361.316
361.73
361.906
361.944
361.9
361.789
361.593
361.246
360.634
359.693
358.615
357.694
357.039
356.611
356.358
356.258
356.348
356.855
359.101
369.818
392.667
422.749
319.945
333.927
339.292
342.527
345.205
347.595
349.765
351.748
353.573
355.3
357.001
358.683
360.205
361.371
362.103
362.473
362.609
362.612
362.539
362.407
362.188
361.795
361.088
360.07
359.046
358.295
357.86
357.677
357.694
357.873
358.12
358.084
361.109
380.75
417.096
318.179
332.829
338.871
342.46
345.351
347.896
350.183
352.235
354.054
355.645
357.056
358.383
359.694
360.923
361.908
362.557
362.905
363.045
363.055
362.976
362.81
362.515
361.987
361.132
360.117
359.35
359.033
359.15
359.78
361.555
367.145
378.009
385.986
398.353
421.566
318.993
334.416
340.695
344.397
347.385
350.032
352.424
354.583
356.489
358.099
359.381
360.358
361.135
361.836
362.489
363.017
363.356
363.524
363.572
363.545
363.461
363.31
363.037
362.516
361.633
360.568
359.707
359.294
359.571
361.54
368.732
386.402
407.036
418.015
431.703
319.609
335.127
341.452
345.242
348.354
351.141
353.686
356.01
358.099
359.899
361.331
362.334
362.938
363.278
363.516
363.731
363.902
363.999
364.024
363.993
363.918
363.797
363.611
363.314
362.828
362.123
361.358
360.76
360.47
360.756
362.841
371.25
392.782
410.748
428.418
321.327
336.982
343.082
346.771
349.867
352.679
355.277
357.668
359.827
361.702
363.207
364.24
364.77
364.909
364.847
364.745
364.666
364.607
364.549
364.482
364.402
364.303
364.177
364.001
363.731
363.299
362.697
362.082
361.633
361.388
361.259
361.889
370.8
391.289
420.778
322.146
337.448
343.327
346.961
350.086
352.972
355.674
358.18
360.442
362.399
363.978
365.087
365.685
365.859
365.783
365.613
365.438
365.286
365.157
365.041
364.929
364.807
364.667
364.499
364.293
364.03
363.719
363.47
363.532
364.382
366.841
369.154
375.207
390.791
417.027
322.302
337.858
343.788
347.445
350.602
353.539
356.31
358.884
361.183
363.134
364.687
365.787
366.402
366.594
366.523
366.341
366.138
365.953
365.794
365.657
365.533
365.403
365.249
365.062
364.836
364.575
364.275
364.029
364.465
367.822
377.707
389.025
396.263
407.069
425.684
322.085
337.595
343.52
347.173
350.341
353.326
356.19
358.884
361.301
363.352
365.003
366.235
367.011
367.341
367.341
367.174
366.956
366.743
366.554
366.39
366.247
366.116
365.983
365.832
365.658
365.458
365.245
365.127
365.575
368.416
378.554
397.541
412.009
421.734
434.477
321.76
337.432
343.478
347.168
350.343
353.351
356.269
359.044
361.538
363.637
365.314
366.597
367.49
367.968
368.076
367.95
367.732
367.502
367.294
367.113
366.958
366.822
366.698
366.576
366.445
366.295
366.118
365.935
365.885
366.637
370.942
385.114
406.716
419.364
432.168
321.525
337.197
343.339
347.08
350.297
353.372
356.402
359.323
361.955
364.145
365.864
367.167
368.112
368.699
368.918
368.848
368.632
368.379
368.142
367.934
367.756
367.603
367.467
367.341
367.22
367.096
366.965
366.834
366.739
366.825
367.77
373
390.203
406.597
425.463
321.212
337.133
343.472
347.32
350.623
353.809
356.987
360.065
362.802
365.014
366.683
367.9
368.771
369.345
369.613
369.595
369.398
369.141
368.893
368.678
368.498
368.347
368.218
368.106
368.01
367.928
367.864
367.83
367.854
368.019
368.649
371.483
383.091
399.437
421.94
321.257
337.279
343.733
347.674
351.087
354.427
357.813
361.105
363.984
366.234
367.865
369
369.771
370.258
370.481
370.447
370.229
369.942
369.666
369.429
369.233
369.071
368.935
368.82
368.726
368.659
368.63
368.659
368.784
369.103
369.972
373.192
384.484
399.879
421.82
321.278
337.499
344.097
348.169
351.738
355.269
358.877
362.363
365.319
367.523
369.04
370.05
370.706
371.099
371.256
371.186
370.945
370.636
370.343
370.097
369.897
369.732
369.594
369.477
369.384
369.328
369.329
369.426
369.686
370.274
371.784
376.744
389.988
404.489
423.718
321.77
338.138
344.757
348.889
352.562
356.228
360.004
363.654
366.705
368.904
370.349
371.256
371.801
372.084
372.146
372.006
371.716
371.371
371.053
370.792
370.584
370.414
370.271
370.152
370.065
370.032
370.09
370.302
370.786
371.854
374.587
382.272
397.095
410.704
427.443
322.25
338.588
345.144
349.286
352.997
356.691
360.496
364.22
367.385
369.676
371.16
372.069
372.597
372.854
372.887
372.724
372.423
372.072
371.75
371.491
371.29
371.134
371.008
370.912
370.855
370.868
371.005
371.356
372.094
373.681
377.564
387.163
402.515
415.652
430.913
322.827
339.074
345.501
349.561
353.161
356.686
360.308
363.99
367.356
369.965
371.705
372.756
373.342
373.612
373.639
373.468
373.162
372.81
372.484
372.217
372.011
371.852
371.727
371.634
371.583
371.607
371.771
372.185
373.066
374.966
379.473
389.829
405.12
417.962
432.447
323.054
339.1
345.387
349.325
352.743
355.99
359.259
362.673
366.111
369.152
371.424
372.896
373.751
374.178
374.294
374.172
373.892
373.553
373.234
372.974
372.774
372.623
372.509
372.428
372.391
372.43
372.613
373.063
374.016
376.022
380.55
390.446
404.947
417.627
432.175
322.717
338.913
345.301
349.228
352.539
355.572
358.484
361.439
364.553
367.689
370.439
372.475
373.783
374.523
374.853
374.872
374.668
374.349
374.019
373.739
373.522
373.361
373.242
373.159
373.119
373.149
373.311
373.725
374.622
376.509
380.652
389.474
402.722
415.201
430.447
322.108
338.682
345.395
349.493
352.904
355.976
358.785
361.39
363.928
366.566
369.246
371.621
373.394
374.537
375.175
375.428
375.387
375.156
374.855
374.572
374.344
374.17
374.043
373.953
373.907
373.925
374.064
374.435
375.258
376.999
380.743
388.505
400.315
412.385
428.424
321.503
338.822
346.091
350.513
354.195
357.541
360.553
363.12
365.246
367.148
369.104
371.148
372.996
374.385
375.286
375.78
375.945
375.855
375.621
375.357
375.128
374.949
374.817
374.723
374.669
374.671
374.776
375.082
375.792
377.336
380.683
387.587
398.202
409.757
426.36
321.548
339.631
347.386
352.138
356.167
359.934
363.349
366.118
368.111
369.519
370.694
371.948
373.312
374.554
375.488
376.091
376.403
376.463
376.339
376.131
375.924
375.754
375.626
375.536
375.485
375.489
375.587
375.865
376.505
377.9
380.946
387.223
396.901
407.932
424.802
322.528
341.301
349.33
354.343
358.767
363.029
366.831
369.693
371.52
372.589
373.267
373.866
374.569
375.337
376.018
376.525
376.841
376.97
376.935
376.801
376.641
376.502
376.395
376.324
376.294
376.322
376.45
376.758
377.416
378.797
381.755
387.731
396.742
407.309
424.216
325.03
343.912
351.772
356.945
361.888
366.748
370.746
373.337
374.732
375.405
375.735
375.962
376.228
376.567
376.923
377.227
377.442
377.55
377.549
377.466
377.352
377.247
377.168
377.126
377.133
377.217
377.427
377.855
378.679
380.279
383.491
389.549
398.054
408.206
425.035
328.067
346.354
353.834
359.168
364.732
370.132
374.038
376.148
377.093
377.467
377.595
377.639
377.685
377.768
377.886
378.009
378.111
378.167
378.167
378.117
378.042
377.972
377.923
377.914
377.966
378.122
378.454
379.08
380.207
382.252
386.015
392.365
400.362
410.01
426.62
329.871
347.34
354.496
359.937
365.874
371.519
375.379
377.379
378.279
378.653
378.789
378.821
378.818
378.815
378.824
378.842
378.861
378.868
378.855
378.821
378.775
378.732
378.711
378.73
378.826
379.059
379.523
380.368
381.849
384.416
388.781
395.341
402.785
411.879
428.268
329.19
346.294
353.205
358.39
364.01
369.693
374.203
376.997
378.472
379.187
379.508
379.631
379.66
379.649
379.627
379.606
379.59
379.577
379.565
379.552
379.539
379.53
379.536
379.583
379.717
380.018
380.606
381.656
383.46
386.499
391.372
398.053
405.096
413.804
430.022
327.206
344.233
350.926
355.533
360.224
365.456
370.755
374.979
377.648
379.104
379.841
380.193
380.342
380.386
380.379
380.351
380.322
380.303
380.302
380.322
380.361
380.411
380.469
380.551
380.717
381.074
381.774
383.027
385.164
388.691
394.089
400.948
407.777
416.209
431.887
325.387
342.636
349.506
353.898
357.908
362.204
367.17
372.185
376.077
378.485
379.792
380.466
380.8
380.951
381.003
381.005
380.99
380.983
381.005
381.076
381.205
381.384
381.58
381.764
381.972
382.332
383.046
384.386
386.764
390.743
396.634
403.578
410.133
418.168
433.017
324.728
342.692
350.024
354.609
358.54
362.277
366.241
370.661
374.853
377.906
379.719
380.693
381.199
381.452
381.567
381.607
381.613
381.618
381.659
381.778
382.02
382.415
382.917
383.404
383.842
384.348
385.119
386.451
388.796
392.723
398.394
404.811
410.892
418.626
433.464
325.173
343.816
351.478
356.34
360.563
364.441
368.058
371.576
375.039
377.94
379.874
380.983
381.586
381.907
382.07
382.144
382.172
382.19
382.239
382.378
382.697
383.309
384.227
385.199
386.046
386.964
388.147
389.81
392.266
395.878
400.69
406.073
411.591
419.251
434.492
326.118
344.895
352.559
357.53
362.019
366.297
370.246
373.652
376.5
378.829
380.495
381.518
382.098
382.42
382.593
382.679
382.715
382.734
382.773
382.896
383.215
383.923
385.217
386.879
388.258
389.5
391.157
393.492
396.673
400.664
405.193
409.919
414.951
422.237
436.242
326.976
345.578
353.151
358.152
362.771
367.301
371.591
375.247
378.019
379.991
381.337
382.187
382.691
382.982
383.145
383.229
383.264
383.276
383.293
383.366
383.596
384.185
385.481
387.707
390.159
391.786
393.24
395.463
398.791
403.13
407.896
412.574
417.353
424.048
436.565
327.469
346.089
353.644
358.663
363.319
367.888
372.246
376.03
378.928
380.901
382.142
382.889
383.329
383.586
383.733
383.812
383.845
383.85
383.847
383.868
383.982
384.336
385.243
387.225
390.517
393.95
395.941
397.216
399.178
402.252
406.201
410.515
415.195
422.02
435.81
327.7
346.41
353.991
359.051
363.765
368.355
372.644
376.344
379.264
381.345
382.682
383.477
383.932
384.192
384.341
384.422
384.459
384.466
384.454
384.441
384.465
384.611
385.076
386.281
388.935
393.41
398.426
401.802
403.362
404.775
407.01
410.228
414.592
421.948
437.163
327.675
346.539
354.208
359.345
364.178
368.893
373.198
376.775
379.563
381.624
383.037
383.927
384.453
384.757
384.933
385.034
385.088
385.111
385.11
385.093
385.076
385.096
385.247
385.749
387.095
390.153
395.595
402.569
408.805
412.69
415.092
417.665
421.329
427.84
440.277
327.782
346.728
354.534
359.818
364.857
369.795
374.2
377.681
380.255
382.126
383.459
384.359
384.931
385.282
385.495
385.626
385.707
385.755
385.782
385.791
385.787
385.779
385.796
385.91
386.315
387.46
390.203
395.496
403.341
412.101
419.11
423.527
427.133
432.099
440.931
328.037
347.122
355.072
360.53
365.826
371.041
375.591
379.022
381.404
383.037
384.173
384.96
385.489
385.836
386.061
386.211
386.313
386.386
386.44
386.484
386.521
386.556
386.592
386.64
386.738
386.999
387.733
389.603
393.583
400.348
409.145
417.275
423.14
428.976
438.011
328.468
347.577
355.61
361.233
366.792
372.278
376.958
380.349
382.595
384.058
385.032
385.694
386.145
386.453
386.665
386.813
386.923
387.008
387.082
387.151
387.225
387.311
387.417
387.547
387.702
387.879
388.099
388.521
389.636
392.439
398.374
407.831
416.758
424.767
435.258
328.713
347.852
355.943
361.69
367.456
373.17
378
381.431
383.637
385.017
385.894
386.465
386.847
387.11
387.296
387.433
387.54
387.629
387.71
387.794
387.891
388.016
388.19
388.433
388.77
389.211
389.722
390.195
390.699
392.096
396.588
405.874
414.838
423.32
435.195
328.79
347.919
356.059
361.871
367.7
373.481
378.406
381.942
384.233
385.666
386.563
387.131
387.499
387.747
387.921
388.051
388.155
388.243
388.326
388.411
388.513
388.649
388.851
389.163
389.652
390.413
391.546
392.989
394.433
396.278
400.593
408.465
415.712
423.584
436.63
328.746
347.987
356.21
362.049
367.834
373.574
378.558
382.223
384.636
386.156
387.107
387.707
388.09
388.345
388.522
388.655
388.762
388.854
388.94
389.027
389.126
389.252
389.436
389.728
390.22
391.068
392.54
394.944
398.197
401.811
406.373
412.303
417.861
424.839
437.755
329.011
348.345
356.613
362.427
368.063
373.611
378.535
382.296
384.856
386.504
387.547
388.207
388.628
388.906
389.098
389.241
389.357
389.459
389.554
389.651
389.756
389.878
390.034
390.26
390.627
391.278
392.494
394.78
398.725
404.174
409.998
415.266
419.843
425.865
437.8
329.479
348.956
357.261
363.044
368.534
373.862
378.649
382.426
385.085
386.839
387.965
388.684
389.145
389.448
389.658
389.815
389.943
390.057
390.168
390.282
390.409
390.556
390.728
390.936
391.209
391.631
392.394
393.903
396.917
402.209
409.085
415.271
420.055
425.781
437.143
330.198
349.759
358.054
363.782
369.105
374.18
378.766
382.506
385.251
387.124
388.353
389.145
389.653
389.985
390.212
390.382
390.52
390.645
390.77
390.904
391.06
391.252
391.49
391.774
392.099
392.48
393.019
393.988
396
400.142
406.891
414.061
419.508
425.527
436.927
330.866
350.573
358.882
364.581
369.792
374.665
379.032
382.653
385.411
387.371
388.701
389.577
390.144
390.512
390.761
390.943
391.09
391.223
391.358
391.509
391.693
391.935
392.262
392.694
393.216
393.791
394.442
395.373
397.138
400.842
407.31
414.531
420.047
426.225
437.878
331.584
351.442
359.758
365.436
370.576
375.293
379.443
382.884
385.572
387.565
388.98
389.948
390.59
391.009
391.288
391.487
391.643
391.782
391.924
392.085
392.289
392.573
392.991
393.605
394.445
395.456
396.569
397.93
400.1
404.055
410.211
416.572
421.674
427.857
439.495
332.195
352.248
360.578
366.275
371.454
376.159
380.179
383.415
385.928
387.839
389.259
390.281
390.992
391.47
391.789
392.01
392.177
392.321
392.462
392.623
392.83
393.126
393.584
394.319
395.462
397.046
398.923
401.055
403.895
408.174
413.809
419.145
423.768
429.824
440.846
332.575
352.759
361.041
366.74
372.036
376.883
380.932
384.066
386.429
388.218
389.58
390.608
391.363
391.896
392.263
392.517
392.702
392.852
392.992
393.145
393.338
393.612
394.04
394.758
395.98
397.937
400.611
403.696
407.231
411.666
416.734
421.327
425.564
431.363
441.547
332.204
352.386
360.6
366.333
371.898
377.15
381.489
384.706
387.013
388.7
389.977
390.965
391.727
392.299
392.713
393.006
393.219
393.384
393.529
393.675
393.849
394.086
394.447
395.051
396.123
398.033
401.126
405.23
409.737
414.435
419.063
423.143
427.051
432.496
441.845
330.878
350.616
358.698
364.461
370.381
376.326
381.353
384.994
387.472
389.183
390.423
391.37
392.114
392.699
393.148
393.482
393.731
393.922
394.081
394.229
394.389
394.589
394.873
395.325
396.115
397.589
400.312
404.697
410.192
415.65
420.394
424.324
428.009
433.058
441.74
328.406
347.181
355.136
360.908
367.099
373.852
380.003
384.563
387.57
389.518
390.838
391.793
392.528
393.114
393.584
393.953
394.239
394.466
394.654
394.826
394.999
395.198
395.454
395.826
396.424
397.494
399.539
403.307
409.008
415.326
420.669
424.795
428.446
433.273
441.589
325.521
343.407
351.381
357.069
363.063
370.009
377.168
383.04
387.027
389.52
391.099
392.163
392.937
393.538
394.024
394.42
394.741
395.004
395.227
395.427
395.623
395.834
396.086
396.419
396.912
397.731
399.244
402.162
407.225
413.83
419.943
424.584
428.394
433.157
441.375
323.399
341.691
350.094
355.713
361.058
367.075
374.035
380.783
385.893
389.162
391.159
392.431
393.304
393.954
394.47
394.896
395.254
395.56
395.829
396.078
396.323
396.579
396.866
397.216
397.688
398.406
399.647
402.005
406.357
412.75
419.254
424.236
428.185
433.008
441.345
323.413
343.534
352.629
358.298
363.006
367.592
372.912
379.081
384.7
388.647
391.09
392.604
393.606
394.329
394.891
395.356
395.755
396.107
396.427
396.732
397.035
397.352
397.704
398.123
398.665
399.438
400.671
402.851
406.77
412.744
419.206
424.255
428.218
433.042
441.433
325.927
347.876
357.468
363.35
367.929
371.723
375.356
379.679
384.529
388.531
391.172
392.827
393.916
394.695
395.301
395.807
396.254
396.664
397.052
397.428
397.796
398.162
398.546
398.981
399.53
400.302
401.519
403.633
407.366
413.058
419.335
424.276
428.172
432.976
441.497
330.413
352.78
362.383
368.539
373.463
377.283
380.224
382.918
386.114
389.316
391.691
393.259
394.321
395.098
395.717
396.25
396.739
397.212
397.687
398.17
398.655
399.137
399.627
400.161
400.804
401.67
402.973
405.13
408.78
414.212
420.162
424.863
428.668
433.479
441.966
335.984
357.498
366.857
373.343
378.788
382.87
385.594
387.46
389.214
391.146
392.809
394.026
394.915
395.607
396.189
396.717
397.23
397.757
398.317
398.916
399.525
400.111
400.675
401.263
401.96
402.901
404.326
406.657
410.45
415.775
421.31
425.644
429.301
434.093
442.467
342.096
362.495
371.788
378.777
384.485
388.259
390.401
391.623
392.525
393.437
394.322
395.079
395.708
396.25
396.745
397.229
397.735
398.295
398.939
399.684
400.501
401.316
402.091
402.865
403.742
404.883
406.55
409.153
413.098
418.172
423.086
426.97
430.497
435.329
443.32
347.862
367.764
377.486
385.174
390.378
392.962
394.105
394.669
395.056
395.428
395.825
396.229
396.624
397.008
397.394
397.804
398.267
398.816
399.491
400.329
401.315
402.355
403.356
404.341
405.435
406.831
408.81
411.715
415.74
420.424
424.698
428.175
431.544
436.296
443.811
351.668
371.901
382.236
390.26
394.33
395.789
396.311
396.554
396.725
396.897
397.092
397.312
397.553
397.813
398.098
398.427
398.826
399.335
400.005
400.897
402.047
403.381
404.735
406.041
407.415
409.084
411.334
414.435
418.38
422.6
426.336
429.501
432.741
437.39
444.306
351.765
371.999
382.46
390.63
394.834
396.564
397.303
397.658
397.86
398.008
398.143
398.285
398.441
398.615
398.816
399.061
399.375
399.798
400.384
401.21
402.359
403.851
405.541
407.239
408.957
410.901
413.347
416.501
420.259
424.08
427.451
430.397
433.477
437.89
444.331
346.748
365.926
375.835
384.678
391.405
395.196
397.105
398.066
398.567
398.846
399.023
399.156
399.277
399.404
399.549
399.729
399.97
400.309
400.8
401.519
402.571
404.059
405.959
408.044
410.134
412.331
414.888
417.987
421.517
425.032
428.174
430.982
433.937
438.15
444.295
336.622
355.137
364.359
373.224
383.183
390.796
395.185
397.47
398.661
399.301
399.66
399.875
400.021
400.138
400.252
400.383
400.555
400.803
401.177
401.743
402.604
403.903
405.764
408.109
410.629
413.164
415.845
418.844
422.114
425.358
428.327
431.039
433.887
437.928
444.044
327.376
345.818
354.767
362.557
373.061
383.956
391.615
395.89
398.125
399.327
400.003
400.399
400.644
400.809
400.937
401.058
401.2
401.396
401.691
402.145
402.838
403.896
405.498
407.768
410.538
413.446
416.362
419.371
422.482
425.537
428.387
431.043
433.835
437.785
443.936
324.372
344.888
354.55
361.517
369.712
379.884
388.837
394.532
397.612
399.268
400.212
400.781
401.139
401.375
401.543
401.679
401.813
401.976
402.213
402.581
403.152
404.027
405.372
407.399
410.163
413.337
416.53
419.646
422.698
425.64
428.411
431.033
433.792
437.691
443.89
326.742
350.072
360.827
368.161
375.075
382.234
389.46
394.817
397.924
399.631
400.626
401.248
401.658
401.939
402.143
402.304
402.45
402.607
402.816
403.129
403.614
404.357
405.495
407.25
409.832
413.112
416.58
419.893
422.997
425.912
428.651
431.262
434.014
437.895
444.051
330.592
354.442
365.952
374.713
382.409
387.696
392.429
396.426
398.948
400.399
401.279
401.853
402.249
402.534
402.75
402.924
403.079
403.239
403.435
403.715
404.142
404.798
405.799
407.346
409.705
412.95
416.626
420.142
423.324
426.228
428.935
431.525
434.267
438.141
444.245
334.59
357.517
370.56
382.202
390.521
394.133
396.578
398.862
400.463
401.471
402.133
402.597
402.939
403.203
403.415
403.59
403.746
403.904
404.09
404.343
404.721
405.299
406.185
407.558
409.704
412.862
416.765
420.621
423.984
426.915
429.587
432.133
434.843
438.674
444.581
338.683
361.121
376.313
392.012
399.326
400.528
400.979
401.637
402.264
402.771
403.171
403.492
403.754
403.971
404.155
404.315
404.463
404.615
404.79
405.022
405.357
405.866
406.641
407.836
409.717
412.628
416.597
420.875
424.605
427.682
430.358
432.858
435.504
439.233
444.869
339.001
361.637
377.099
394.449
402.73
403.932
403.929
403.912
404.004
404.162
404.342
404.522
404.691
404.846
404.987
405.118
405.246
405.382
405.54
405.745
406.038
406.477
407.146
408.173
409.788
412.35
416.14
420.752
425.068
428.523
431.336
433.845
436.439
440.03
445.239
333.049
355.539
367.697
380.764
395.614
402.634
404.734
405.257
405.385
405.439
405.5
405.578
405.669
405.767
405.868
405.971
406.081
406.203
406.35
406.541
406.804
407.178
407.728
408.56
409.859
411.949
415.234
419.74
424.549
428.605
431.783
434.444
437.054
440.533
445.42
327.285
350.654
360.892
368.858
382.785
396.212
403.011
405.37
406.127
406.392
406.5
406.56
406.613
406.67
406.737
406.815
406.906
407.018
407.164
407.363
407.641
408.021
408.535
409.256
410.333
412.04
414.791
418.884
423.825
428.392
431.982
434.847
437.533
441.003
445.694
329.436
355.71
369.736
380.678
388.296
396.157
402.914
405.762
406.748
407.136
407.317
407.416
407.481
407.533
407.588
407.653
407.733
407.834
407.972
408.182
408.496
408.936
409.499
410.2
411.149
412.594
414.94
418.603
423.403
428.194
432.039
435.035
437.789
441.309
445.954
337.158
363.266
379.795
396.765
406.028
405.502
406.854
407.624
407.964
408.139
408.24
408.305
408.351
408.391
408.433
408.485
408.553
408.645
408.781
409.002
409.364
409.918
410.668
411.561
412.603
413.999
416.159
419.548
424.115
428.792
432.572
435.525
438.298
441.891
446.377
339.39
364.262
378.815
395.644
410.113
410.364
409.626
409.39
409.312
409.284
409.273
409.27
409.272
409.279
409.294
409.32
409.363
409.433
409.552
409.759
410.121
410.727
411.651
412.867
414.263
415.865
417.999
421.124
425.283
429.586
433.13
435.962
438.706
442.326
446.615
335.08
361.051
372.561
383.529
401.369
409.86
410.978
410.812
410.58
410.413
410.304
410.235
410.192
410.167
410.155
410.157
410.174
410.217
410.302
410.466
410.772
411.327
412.271
413.706
415.574
417.705
420.125
423.126
426.796
430.552
433.745
436.398
439.043
442.586
446.68
333.648
360.889
372.685
381.411
393.303
406.322
410.897
411.634
411.568
411.405
411.265
411.161
411.089
411.042
411.013
410.998
410.995
411.01
411.053
411.151
411.353
411.755
412.51
413.822
415.834
418.455
421.438
424.671
428.113
431.442
434.318
436.787
439.28
442.637
446.58
336.591
364.633
378.204
389.028
399.676
407.7
411.401
412.191
412.22
412.122
412.021
411.942
411.886
411.849
411.829
411.821
411.824
411.838
411.87
411.933
412.061
412.323
412.842
413.821
415.519
418.106
421.441
425.123
428.753
432.01
434.762
437.133
439.496
442.636
446.44
338.435
366.823
380.163
391.486
404.578
411.413
412.931
413.005
412.877
412.757
412.668
412.609
412.576
412.563
412.566
412.581
412.608
412.645
412.695
412.762
412.866
413.053
413.414
414.11
415.392
417.553
420.71
424.56
428.485
431.951
434.808
437.218
439.554
442.587
446.368
338.014
367.618
381.586
392.647
404.392
412.447
414.269
413.984
413.651
413.442
413.317
413.249
413.221
413.224
413.25
413.296
413.361
413.446
413.549
413.67
413.816
414.011
414.324
414.883
415.908
417.706
420.534
424.277
428.311
431.93
434.886
437.345
439.698
442.721
446.502
340.079
370.584
386.611
400.043
411.235
415.56
416.211
415.304
414.678
414.319
414.102
413.976
413.914
413.9
413.924
413.984
414.079
414.214
414.389
414.6
414.844
415.129
415.504
416.081
417.054
418.709
421.326
424.876
428.779
432.3
435.186
437.606
439.974
443.071
446.862
343.963
374.603
391.883
407.883
419.683
420.287
418.411
416.821
415.922
415.376
415.025
414.804
414.678
414.624
414.629
414.69
414.811
415.002
415.271
415.616
416.02
416.475
417.013
417.738
418.834
420.557
423.135
426.492
430.081
433.287
435.956
438.264
440.633
443.81
447.376
344.898
375.768
392.804
408.668
421.252
422.451
420.033
418.382
417.307
416.575
416.065
415.722
415.507
415.391
415.356
415.396
415.518
415.742
416.092
416.578
417.179
417.862
418.636
419.588
420.882
422.724
425.251
428.326
431.484
434.307
436.731
438.913
441.256
444.464
447.753
343.224
373.935
389.74
404.124
418.756
423.506
421.627
419.654
418.379
417.521
416.913
416.485
416.202
416.037
415.971
415.997
416.123
416.378