/*--------------------------------*- C++ -*----------------------------------*\
| =========                 |                                                 |
| \\      /  F ield         | OpenFOAM: The Open Source CFD Toolbox           |
|  \\    /   O peration     | Version:  v2006                                 |
|   \\  /    A nd           | Website:  www.openfoam.com                      |
|    \\/     M anipulation  |                                                 |
\*---------------------------------------------------------------------------*/
FoamFile
{
    version     2.0;
    format      ascii;
    class       volVectorField;
    location    "49";
    object      U;
}
// * * * * * * * * * * * * * * * * * * * * * * * * * * * * * * * * * * * * * //

dimensions      [0 1 -1 0 0 0 0];


internalField   nonuniform List<vector> 
78750
(
(-0.00192719 -0.000586565 0.000971017)
(-0.00224009 -0.00231942 0.00163805)
(-0.00173467 -0.00298996 0.00203737)
(-0.00083018 -0.00313201 0.00218262)
(-0.000132936 -0.00295639 0.00213944)
(0.000558675 -0.00258795 0.00196372)
(0.00122789 -0.00212014 0.00169199)
(0.00183755 -0.00161445 0.00135554)
(0.00237357 -0.0011128 0.000980161)
(0.00283153 -0.00064468 0.000585897)
(0.00321109 -0.000229891 0.000187908)
(0.00351571 0.000119705 -0.000202636)
(0.00375266 0.000398479 -0.000577854)
(0.00392556 0.000606122 -0.000933659)
(0.00404075 0.000748219 -0.00126535)
(0.0041126 0.0008337 -0.00157086)
(0.00415561 0.000873215 -0.00185016)
(0.00418418 0.000877639 -0.00210497)
(0.00421265 0.000856602 -0.00233858)
(0.00425514 0.000817904 -0.00255534)
(0.00432491 0.000766784 -0.00276014)
(0.00443323 0.000705919 -0.00295769)
(0.0045882 0.000636481 -0.0031518)
(0.00479373 0.000560127 -0.00334474)
(0.00504876 0.000481761 -0.00353682)
(0.00534631 0.000413088 -0.00372583)
(0.00567176 0.000377466 -0.00390576)
(0.00599932 0.000417433 -0.00406429)
(0.00628552 0.000607159 -0.00417863)
(0.00645737 0.00107186 -0.00421004)
(0.0063898 0.00200927 -0.00410002)
(0.0058836 0.00366511 -0.00377344)
(0.00468771 0.00605745 -0.00314557)
(0.00278051 0.00806625 -0.00214136)
(0.000704977 0.00609748 -0.00076082)
(-3.86867e-05 -0.00104425 0.00143422)
(0.000137249 -0.004312 0.00331645)
(0.000245576 -0.00617255 0.00468703)
(0.000389975 -0.00708064 0.00556939)
(0.000573378 -0.00729108 0.00602841)
(0.000809743 -0.0070142 0.00615505)
(0.00110884 -0.00640678 0.00604429)
(0.00147121 -0.00558254 0.00577704)
(0.00188831 -0.00462405 0.00541271)
(0.00234525 -0.00359155 0.00498952)
(0.00282336 -0.00253023 0.00452837)
(0.00330183 -0.00147611 0.00403753)
(0.0037591 -0.000460763 0.00351684)
(0.00418059 0.000485688 0.00296041)
(0.00455408 0.00133365 0.00236164)
(0.00486427 0.00205461 0.00171314)
(0.00509941 0.00262223 0.0010103)
(0.00525235 0.00301484 0.00025241)
(0.00532289 0.00321948 -0.000555647)
(0.00531891 0.00323666 -0.00140116)
(0.00525333 0.00308459 -0.00226423)
(0.00514351 0.00280048 -0.00312024)
(0.0050107 0.00243845 -0.00394455)
(0.00487862 0.00206442 -0.0047183)
(0.00477043 0.00175101 -0.00543298)
(0.00470357 0.0015783 -0.00609031)
(0.0046824 0.0016448 -0.00669367)
(0.00469019 0.00209279 -0.00723029)
(0.00468174 0.00314255 -0.00764617)
(0.00458218 0.00512919 -0.00782156)
(0.00428386 0.00851218 -0.00756496)
(0.00365808 0.0135855 -0.00667597)
(0.00262846 0.0194572 -0.00512725)
(0.00134198 0.0225048 -0.0031601)
(0.000138932 0.0151318 -0.0010248)
(-8.71142e-06 -0.0017754 0.00156733)
(1.17419e-05 -0.00487211 0.00370785)
(-6.12072e-05 -0.00688319 0.00507983)
(-7.56511e-05 -0.0082941 0.00585706)
(-1.11973e-05 -0.00934168 0.00622636)
(0.000155134 -0.0101146 0.00634429)
(0.000434183 -0.0106274 0.00633005)
(0.000824507 -0.0108678 0.00626327)
(0.00131559 -0.0108206 0.00619135)
(0.00189098 -0.010479 0.00613911)
(0.00253046 -0.00984739 0.00611686)
(0.00321157 -0.00894068 0.00612624)
(0.00391067 -0.00778286 0.00616369)
(0.00460369 -0.00640534 0.00622245)
(0.00526671 -0.00484648 0.00629342)
(0.00587642 -0.00315018 0.00636538)
(0.00640907 -0.00136586 0.00642492)
(0.00684063 0.00044751 0.00645478)
(0.00714869 0.00222134 0.00643244)
(0.00731498 0.00388104 0.00633065)
(0.00732845 0.00534933 0.00611683)
(0.00718838 0.00655291 0.00575283)
(0.00690355 0.00743322 0.00519512)
(0.00649724 0.00796133 0.00439759)
(0.00600398 0.00817214 0.00331887)
(0.00546135 0.00820351 0.00193798)
(0.00490924 0.00831532 0.000266202)
(0.00438702 0.00888374 -0.00162217)
(0.0039083 0.0103719 -0.00357713)
(0.00344717 0.0132834 -0.00533137)
(0.00294122 0.0179754 -0.00646883)
(0.00231105 0.0241901 -0.00654928)
(0.00154205 0.0300866 -0.00542867)
(0.000729576 0.0312087 -0.00343965)
(6.44051e-05 0.0191108 -0.00107049)
(-1.56943e-05 -0.00284598 0.00114526)
(9.47766e-05 -0.00747332 0.00257029)
(0.000280082 -0.0108714 0.00332911)
(0.000569952 -0.0134894 0.00364624)
(0.000957155 -0.0155684 0.00371351)
(0.00142818 -0.0172102 0.00365175)
(0.00196006 -0.0184411 0.0035323)
(0.0025362 -0.019272 0.00339667)
(0.00314351 -0.0197091 0.00326815)
(0.00377076 -0.0197598 0.0031596)
(0.00440805 -0.0194349 0.00307842)
(0.00504641 -0.0187491 0.00302957)
(0.00567747 -0.0177216 0.00301714)
(0.00629296 -0.0163754 0.00304518)
(0.00688431 -0.0147376 0.00311787)
(0.00744107 -0.0128394 0.0032394)
(0.00795372 -0.010706 0.00341664)
(0.00841295 -0.00835553 0.0036597)
(0.00880021 -0.00582697 0.00397314)
(0.00909456 -0.00319145 0.00435056)
(0.00927242 -0.000539928 0.0047757)
(0.0093104 0.00201813 0.00521873)
(0.00918756 0.00440397 0.00564994)
(0.00888492 0.00656398 0.00603196)
(0.00839497 0.00845191 0.00629832)
(0.00772529 0.0100776 0.0063485)
(0.00690806 0.0115555 0.00603749)
(0.0059976 0.0131858 0.00518364)
(0.00504907 0.0155276 0.00360989)
(0.00411988 0.0193034 0.00134831)
(0.00323783 0.0249761 -0.00108847)
(0.00236961 0.0320563 -0.00282499)
(0.00151741 0.03803 -0.00317952)
(0.000721464 0.0378328 -0.00224072)
(8.84037e-05 0.0221975 -0.000636384)
(-2.60466e-06 -0.00374741 0.000969336)
(0.000194253 -0.00971332 0.00223578)
(0.00053686 -0.0142599 0.00301043)
(0.00101692 -0.0178436 0.00345608)
(0.00159093 -0.0206347 0.00369377)
(0.00222295 -0.0227501 0.00381117)
(0.00289303 -0.0242839 0.00386485)
(0.0035744 -0.0252875 0.00388033)
(0.00424899 -0.0257949 0.00386922)
(0.00490647 -0.0258354 0.00383771)
(0.00553857 -0.025437 0.0037891)
(0.00613845 -0.0246271 0.00372553)
(0.00670066 -0.0234335 0.00364909)
(0.00722097 -0.0218847 0.00356249)
(0.00769601 -0.0200099 0.0034697)
(0.00812323 -0.0178397 0.00337637)
(0.00850116 -0.0154054 0.00329012)
(0.00882335 -0.0127378 0.00322122)
(0.00908763 -0.00983605 0.00318743)
(0.00928416 -0.00669885 0.00321184)
(0.00939411 -0.00338235 0.00331237)
(0.00939802 3.26282e-05 0.00350433)
(0.00927879 0.00344648 0.00379611)
(0.00901832 0.006754 0.00418164)
(0.00860132 0.00986711 0.00463254)
(0.00802101 0.0127533 0.00508883)
(0.00728252 0.0154904 0.00544657)
(0.00640232 0.0183378 0.00553363)
(0.0054107 0.021808 0.00508171)
(0.00436514 0.026603 0.00382431)
(0.00333364 0.0331546 0.00186052)
(0.00233671 0.0407234 -9.44643e-05)
(0.00143302 0.0462731 -0.0011238)
(0.000653697 0.0444464 -0.00101599)
(6.95378e-05 0.0251963 -0.000236524)
(-1.76679e-06 -0.00506752 0.000897297)
(0.000222953 -0.0131843 0.00206575)
(0.000620681 -0.0194353 0.00276042)
(0.00116714 -0.024277 0.00313952)
(0.00181211 -0.0279133 0.00332077)
(0.00249128 -0.0304894 0.00338364)
(0.00318108 -0.0322207 0.00338937)
(0.00387291 -0.0332742 0.0033715)
(0.00454545 -0.0337302 0.00334375)
(0.00518759 -0.0336441 0.0033136)
(0.00579412 -0.0330627 0.00328531)
(0.00636057 -0.0320279 0.00326104)
(0.00688318 -0.0305779 0.00324151)
(0.00735926 -0.0287487 0.00322645)
(0.00778739 -0.0265753 0.00321485)
(0.00816693 -0.0240918 0.00320516)
(0.00849129 -0.021334 0.00319593)
(0.00875848 -0.0182918 0.00319304)
(0.00896386 -0.0149384 0.00320653)
(0.00909609 -0.0112985 0.00324218)
(0.00914972 -0.00741393 0.003309)
(0.00911856 -0.00334249 0.00342009)
(0.00899345 0.000839026 0.00359142)
(0.00876083 0.0050381 0.00383767)
(0.00840459 0.00916296 0.00416444)
(0.0079112 0.01316 0.00455736)
(0.00727232 0.0170757 0.00496759)
(0.00648622 0.021137 0.0052873)
(0.00556171 0.0258226 0.00530886)
(0.0045315 0.031801 0.00473712)
(0.00345661 0.0394401 0.00342769)
(0.0023886 0.0477541 0.0017576)
(0.00144044 0.0531984 0.000535365)
(0.000645974 0.0501353 8.76052e-05)
(7.21146e-05 0.0277553 0.00013143)
(1.20648e-05 -0.00618511 0.000741924)
(0.000272473 -0.0160372 0.00169449)
(0.000712211 -0.0235781 0.00225804)
(0.00128914 -0.0292816 0.00257043)
(0.00194328 -0.033386 0.00272609)
(0.00261186 -0.0361341 0.00278608)
(0.00327167 -0.0378638 0.00279482)
(0.00392399 -0.038819 0.00278175)
(0.00455206 -0.0391149 0.00275651)
(0.00514453 -0.0388235 0.00272342)
(0.0056984 -0.0380043 0.0026854)
(0.00621102 -0.0367091 0.00264467)
(0.0066801 -0.0349846 0.0026031)
(0.00710463 -0.0328731 0.00256242)
(0.00748437 -0.0304142 0.00252404)
(0.00781246 -0.0276466 0.00248879)
(0.00808591 -0.024568 0.00246036)
(0.00830039 -0.0211483 0.00244683)
(0.00844624 -0.0173967 0.002454)
(0.00852086 -0.013344 0.00248702)
(0.00852378 -0.00903179 0.00255257)
(0.00845348 -0.00451034 0.00266002)
(0.00830595 0.000160673 0.00282195)
(0.00807556 0.00491293 0.00305288)
(0.00775342 0.00968139 0.00336448)
(0.00732604 0.0144372 0.00375832)
(0.00677852 0.0192438 0.00421252)
(0.00609747 0.0243311 0.00465763)
(0.00527619 0.0301506 0.00493651)
(0.00432779 0.0372789 0.00478956)
(0.00329613 0.045894 0.00400127)
(0.00224253 0.0546804 0.00272739)
(0.00132143 0.0597298 0.00157189)
(0.000571627 0.0553258 0.000837502)
(5.44945e-05 0.0300003 0.00037185)
(9.24008e-06 -0.00752599 0.000691569)
(0.000265445 -0.0194583 0.00158552)
(0.00069845 -0.028487 0.00211581)
(0.00126211 -0.0351327 0.00241041)
(0.00189259 -0.039721 0.00255682)
(0.00253167 -0.0426439 0.00261258)
(0.00315447 -0.0443671 0.0026188)
(0.00376697 -0.0452225 0.00260397)
(0.00435969 -0.0453609 0.00257802)
(0.00491904 -0.0448679 0.00254453)
(0.00544329 -0.043814 0.00250617)
(0.00593111 -0.0422604 0.00246489)
(0.00638135 -0.0402618 0.00242223)
(0.00679262 -0.0378681 0.0023794)
(0.00715604 -0.0351242 0.00233745)
(0.00746851 -0.0320201 0.00230029)
(0.00772411 -0.0285229 0.00227444)
(0.00791128 -0.0246544 0.00226302)
(0.00802767 -0.0204492 0.00226939)
(0.00807445 -0.0159488 0.00229687)
(0.00805323 -0.0111985 0.00234938)
(0.00796523 -0.00624603 0.0024325)
(0.00781039 -0.0011397 0.00255497)
(0.00758598 0.00407307 0.00272934)
(0.00728557 0.00935691 0.00297076)
(0.00689845 0.0147188 0.00329219)
(0.00640953 0.020261 0.00369332)
(0.00580071 0.026246 0.00413764)
(0.00505674 0.0331299 0.0045125)
(0.00417856 0.0414187 0.004601)
(0.00319608 0.0510916 0.004171)
(0.0021696 0.0604669 0.00323938)
(0.00127193 0.0652927 0.00221782)
(0.000545245 0.059784 0.00134303)
(5.36616e-05 0.0319013 0.000532892)
(1.69418e-05 -0.00867163 0.000580034)
(0.000278604 -0.0223047 0.00131859)
(0.000706856 -0.032485 0.00175583)
(0.00124909 -0.0398009 0.0020048)
(0.00184134 -0.0446749 0.00213497)
(0.00243084 -0.0476453 0.00218894)
(0.00299885 -0.049298 0.00219766)
(0.00355497 -0.0500226 0.00218492)
(0.00409261 -0.0499882 0.00215876)
(0.00459958 -0.0492908 0.00212165)
(0.00507591 -0.0480093 0.00207584)
(0.00552231 -0.046212 0.00202341)
(0.00593761 -0.0439592 0.00196643)
(0.00631292 -0.0413015 0.00190637)
(0.00664475 -0.0382325 0.00184596)
(0.00692748 -0.0347236 0.0017906)
(0.00714894 -0.0308025 0.00174556)
(0.00730704 -0.0265113 0.00171662)
(0.00740254 -0.0218991 0.00170958)
(0.0074368 -0.017017 0.00173001)
(0.00741139 -0.0119135 0.00178304)
(0.00732759 -0.00663221 0.00187372)
(0.00718539 -0.00120944 0.00200794)
(0.0069828 0.00432821 0.00219338)
(0.00671458 0.00997624 0.00244018)
(0.00637076 0.015783 0.0027596)
(0.00593606 0.0218984 0.00315703)
(0.00539071 0.0286264 0.00361249)
(0.00471605 0.0364268 0.0040435)
(0.00390745 0.045718 0.00427214)
(0.00298731 0.0562478 0.00407928)
(0.00201828 0.0659646 0.00341061)
(0.0011732 0.0704185 0.00253224)
(0.000492906 0.0637838 0.00161346)
(4.43744e-05 0.0335681 0.000610969)
(1.45982e-05 -0.00990784 0.000541582)
(0.000262446 -0.0253714 0.00125648)
(0.000666251 -0.0367723 0.00170953)
(0.00117467 -0.0447849 0.00199068)
(0.00172548 -0.0499558 0.00215195)
(0.00227263 -0.0529911 0.00222979)
(0.00279764 -0.0545905 0.00225419)
(0.00331192 -0.0552048 0.00225155)
(0.00381222 -0.055023 0.00223106)
(0.00428586 -0.0541496 0.00219551)
(0.00473412 -0.0526714 0.00214758)
(0.00515681 -0.0506635 0.00208965)
(0.00554595 -0.0481836 0.00202433)
(0.00589871 -0.0452314 0.00195268)
(0.0062095 -0.0417862 0.00187732)
(0.00646648 -0.0378768 0.00180284)
(0.00666747 -0.0335468 0.00173443)
(0.00681257 -0.0288512 0.00167734)
(0.00690246 -0.0238498 0.00163681)
(0.00693819 -0.0185999 0.00161821)
(0.00692105 -0.013152 0.00162722)
(0.00685184 -0.00754689 0.00167025)
(0.00673012 -0.00181169 0.0017549)
(0.0065533 0.00404407 0.00189063)
(0.00631575 0.0100427 0.00208926)
(0.00600761 0.016271 0.00236436)
(0.0056137 0.0229261 0.00272606)
(0.00511393 0.0303566 0.00316446)
(0.00448868 0.0390328 0.003616)
(0.00373092 0.0492953 0.00392937)
(0.00285835 0.0606718 0.00389832)
(0.00193525 0.0707561 0.00342509)
(0.00112823 0.0749371 0.0026717)
(0.000474068 0.0673235 0.00175478)
(4.51474e-05 0.0350404 0.000649802)
(1.65517e-05 -0.0109894 0.000494473)
(0.000251317 -0.0280083 0.00115693)
(0.000628152 -0.0403986 0.00158459)
(0.00109846 -0.0489377 0.00185356)
(0.00160457 -0.0543033 0.00200834)
(0.00210719 -0.0573575 0.00208275)
(0.00258995 -0.0588916 0.00210378)
(0.00306412 -0.0593978 0.00209523)
(0.00352883 -0.059077 0.00206882)
(0.00397196 -0.0580411 0.00202772)
(0.00439405 -0.056383 0.00197476)
(0.00478791 -0.0541785 0.00191263)
(0.00515176 -0.0514437 0.00184059)
(0.00548148 -0.0481606 0.00176028)
(0.00576544 -0.0443575 0.00167636)
(0.00600087 -0.0400778 0.00159407)
(0.00618704 -0.0353783 0.00151877)
(0.00632384 -0.0303243 0.00145576)
(0.00641174 -0.0249829 0.00141004)
(0.00645159 -0.0194154 0.00138637)
(0.00644424 -0.0136727 0.00138952)
(0.00638989 -0.0077907 0.00142455)
(0.00628731 -0.00178709 0.00149745)
(0.00613324 0.00434421 0.00161597)
(0.00592158 0.0106492 0.00179082)
(0.00564221 0.0172489 0.00203619)
(0.00527995 0.0243834 0.00236593)
(0.00481515 0.0324395 0.00277886)
(0.0042289 0.0418892 0.00322749)
(0.00351422 0.0529854 0.00358358)
(0.00268708 0.0650355 0.00365632)
(0.00181578 0.0753131 0.00332415)
(0.00105501 0.0791454 0.00267603)
(0.000438068 0.0705561 0.00178939)
(3.99063e-05 0.0363778 0.000652902)
(1.34754e-05 -0.0120516 0.000481486)
(0.00022981 -0.0306177 0.00114914)
(0.000579657 -0.0440177 0.00159941)
(0.00101932 -0.053125 0.00189374)
(0.00149385 -0.0587366 0.00206897)
(0.00196739 -0.0618582 0.00215877)
(0.00242538 -0.0633686 0.00219133)
(0.00287567 -0.0637994 0.00218823)
(0.00331939 -0.0633705 0.00216579)
(0.00374584 -0.062202 0.00212762)
(0.00414754 -0.0603923 0.0020768)
(0.00452384 -0.0579832 0.00201274)
(0.00487274 -0.0549695 0.0019354)
(0.00518292 -0.0513771 0.0018488)
(0.00545087 -0.0472436 0.00175717)
(0.00567484 -0.042622 0.00166463)
(0.00585387 -0.0375785 0.00157539)
(0.00598777 -0.0321868 0.00149392)
(0.00607704 -0.0265199 0.00142508)
(0.00612239 -0.0206422 0.00137415)
(0.00612434 -0.0146043 0.00134689)
(0.00608264 -0.00843797 0.00134954)
(0.00599557 -0.00215136 0.00138904)
(0.00585924 0.00427666 0.00147351)
(0.00566688 0.0109138 0.00161321)
(0.00540795 0.0179105 0.00182165)
(0.00506725 0.025543 0.00211325)
(0.00462569 0.0342284 0.0024911)
(0.00406552 0.0444342 0.00291892)
(0.00338054 0.0563278 0.00328729)
(0.00258569 0.0690115 0.00342106)
(0.00175213 0.0794726 0.00318641)
(0.00102253 0.0830061 0.00262238)
(0.000425865 0.0735306 0.00177702)
(4.10592e-05 0.0376188 0.000644831)
(1.39602e-05 -0.0130185 0.000473099)
(0.000221018 -0.0329847 0.00113773)
(0.000553888 -0.0472879 0.00158543)
(0.000971139 -0.056893 0.00187306)
(0.00142018 -0.06271 0.00203973)
(0.00186748 -0.0658782 0.00212275)
(0.00230419 -0.0673606 0.00215175)
(0.0027337 -0.0677108 0.00214415)
(0.00315657 -0.0671721 0.00211696)
(0.00356116 -0.0658734 0.00207552)
(0.00394332 -0.0638911 0.00202055)
(0.00430293 -0.061247 0.00195138)
(0.00463118 -0.0579652 0.00187238)
(0.0049237 -0.0540773 0.0017875)
(0.0051774 -0.0496295 0.00170011)
(0.00539025 -0.0446854 0.00161327)
(0.00556131 -0.0393205 0.00152997)
(0.00569052 -0.0336157 0.00145332)
(0.00577835 -0.0276489 0.00138678)
(0.00582538 -0.021486 0.00133437)
(0.00583186 -0.0151763 0.00130088)
(0.0057972 -0.00874644 0.00129207)
(0.00571929 -0.00219509 0.00131488)
(0.00559388 0.00451342 0.0013777)
(0.00541398 0.0114672 0.00149115)
(0.00516894 0.0188442 0.00166895)
(0.00484372 0.0269517 0.00192614)
(0.00442004 0.0362293 0.00226858)
(0.00388156 0.0471291 0.00266801)
(0.00322331 0.0597259 0.00303015)
(0.00246003 0.0729257 0.00319526)
(0.00166622 0.0834681 0.00302611)
(0.000971395 0.0866685 0.00252874)
(0.000401355 0.0763222 0.00172924)
(3.77104e-05 0.0387862 0.000625485)
(1.11654e-05 -0.0139717 0.000475887)
(0.000204286 -0.0353328 0.00115095)
(0.000517575 -0.0505487 0.00160704)
(0.000913484 -0.0606709 0.00189924)
(0.00134123 -0.0667181 0.00206791)
(0.00176849 -0.0699572 0.00215266)
(0.00218939 -0.0714316 0.00218488)
(0.0026046 -0.0717197 0.00218197)
(0.00301006 -0.0710886 0.00215606)
(0.00339997 -0.0696624 0.002114)
(0.00377018 -0.0675027 0.00205631)
(0.00411515 -0.0646434 0.00198715)
(0.00443037 -0.0611132 0.00191016)
(0.00471179 -0.0569502 0.00182838)
(0.00495638 -0.0522094 0.0017443)
(0.00516234 -0.0469631 0.00166012)
(0.00532901 -0.0412948 0.00157798)
(0.00545648 -0.0352912 0.00150023)
(0.00554525 -0.0290334 0.00142968)
(0.00559572 -0.0225883 0.00136988)
(0.00560791 -0.0160032 0.00132531)
(0.00558081 -0.00929928 0.00130164)
(0.00551185 -0.00246573 0.00130585)
(0.00539624 0.00454676 0.00134646)
(0.00522652 0.0118445 0.00143412)
(0.00499184 0.019629 0.00158238)
(0.00467744 0.0282328 0.00180611)
(0.004266 0.0381101 0.00211238)
(0.00374286 0.0496912 0.00247835)
(0.0031045 0.0629568 0.00282172)
(0.00236578 0.0766283 0.00299709)
(0.00160403 0.0872271 0.00286926)
(0.000936595 0.0901106 0.00242332)
(0.000386047 0.0789406 0.00166872)
(3.70123e-05 0.0398827 0.000603812)
(1.16446e-05 -0.0148657 0.000480055)
(0.000201052 -0.0375339 0.00116111)
(0.000506775 -0.0536076 0.00161468)
(0.000891765 -0.0642172 0.00189769)
(0.0013061 -0.0704817 0.00205514)
(0.00171884 -0.0737878 0.00213022)
(0.00212525 -0.0752533 0.0021555)
(0.00252648 -0.0754832 0.00214907)
(0.00291781 -0.0747521 0.0021201)
(0.00329344 -0.0731871 0.00207426)
(0.00364855 -0.0708503 0.00201633)
(0.00397868 -0.0677778 0.00195015)
(0.00427944 -0.0640033 0.00187903)
(0.0045471 -0.0595724 0.00180571)
(0.00477905 -0.0545495 0.0017322)
(0.00497396 -0.0490157 0.00166)
(0.00513154 -0.0430619 0.00159025)
(0.00525217 -0.0367796 0.00152405)
(0.00533648 -0.0302517 0.0014628)
(0.00538493 -0.0235448 0.00140867)
(0.00539744 -0.0167024 0.00136496)
(0.0053728 -0.00973893 0.00133651)
(0.00530811 -0.002633 0.00132996)
(0.00519825 0.00467865 0.00135396)
(0.0050354 0.0123198 0.00141956)
(0.00480852 0.0205126 0.00154067)
(0.00450305 0.0296101 0.00173247)
(0.00410254 0.0400733 0.00200304)
(0.00359388 0.0523013 0.00233351)
(0.00297501 0.0661769 0.00265104)
(0.00226109 0.0802456 0.00282305)
(0.0015321 0.0908417 0.00271973)
(0.000893523 0.0933914 0.00231341)
(0.000365364 0.0814146 0.00160096)
(3.44435e-05 0.0409155 0.000580156)
(9.97545e-06 -0.0157725 0.000486511)
(0.000192234 -0.0397679 0.00117258)
(0.000487283 -0.0567066 0.00162236)
(0.000859655 -0.0677993 0.00189708)
(0.00126017 -0.0742734 0.00204589)
(0.00165883 -0.0776414 0.00211405)
(0.00205161 -0.0790959 0.00213423)
(0.00243959 -0.0792676 0.00212425)
(0.00281785 -0.0784377 0.00209353)
(0.00318049 -0.0767353 0.00204793)
(0.00352274 -0.074224 0.00199183)
(0.0038402 -0.0709429 0.00192903)
(0.00412877 -0.0669317 0.00186284)
(0.00438513 -0.0622437 0.00179597)
(0.00460713 -0.0569521 0.00173035)
(0.00479385 -0.0511459 0.00166721)
(0.00494526 -0.0449221 0.0016073)
(0.00506188 -0.0383756 0.00155114)
(0.00514436 -0.0315904 0.00149931)
(0.00519307 -0.0246313 0.00145295)
(0.00520769 -0.0175373 0.00141417)
(0.00518672 -0.0103153 0.00138662)
(0.00512692 -0.00293289 0.00137588)
(0.00502275 0.00468729 0.00138984)
(0.00486607 0.0126855 0.00143911)
(0.0046457 0.0213022 0.00153745)
(0.00434739 0.0309062 0.00170013)
(0.00395571 0.041959 0.00193608)
(0.00345919 0.0548222 0.00222978)
(0.00285728 0.0692781 0.00251652)
(0.00216566 0.0837049 0.00267551)
(0.00146658 0.0942735 0.00258434)
(0.000854529 0.0964932 0.00220801)
(0.000347019 0.0837398 0.00153374)
(3.26583e-05 0.0418807 0.000557496)
(1.05452e-05 -0.0166438 0.00049118)
(0.000191531 -0.0419057 0.00117826)
(0.000482348 -0.0596673 0.0016204)
(0.000847447 -0.0712196 0.00188339)
(0.00123802 -0.0778936 0.0020209)
(0.00162523 -0.0813209 0.00208034)
(0.00200599 -0.082764 0.00209436)
(0.00238148 -0.0828777 0.0020803)
(0.00274667 -0.0819496 0.0020473)
(0.00309573 -0.0801112 0.00200122)
(0.00342405 -0.0774281 0.00194668)
(0.00372743 -0.0739434 0.00188765)
(0.00400213 -0.0697034 0.00182756)
(0.00424527 -0.0647699 0.00176905)
(0.00445517 -0.0592242 0.0017138)
(0.00463129 -0.053163 0.00166262)
(0.00477395 -0.0466883 0.00161569)
(0.00488387 -0.0398979 0.00157282)
(0.00496182 -0.0328753 0.00153375)
(0.00500819 -0.0256825 0.00149867)
(0.00502256 -0.0183527 0.00146863)
(0.00500323 -0.010884 0.00144616)
(0.00494666 -0.00323204 0.00143575)
(0.00484693 0.00469504 0.00144429)
(0.00469556 0.0130534 0.00148161)
(0.00448117 0.0220994 0.00156094)
(0.00418977 0.0322133 0.00169736)
(0.00380682 0.0438503 0.00190042)
(0.00332243 0.0573272 0.0021575)
(0.00273749 0.0723234 0.00241094)
(0.00206826 0.0870569 0.00255083)
(0.00139892 0.09756 0.00246334)
(0.000813561 0.0994405 0.00210969)
(0.000327476 0.0859286 0.00146945)
(3.04499e-05 0.0427818 0.000536194)
(9.86877e-06 -0.0175344 0.000495244)
(0.000187922 -0.0440828 0.00117943)
(0.000473235 -0.0626675 0.00160978)
(0.00083041 -0.0746642 0.00185797)
(0.0012108 -0.0815191 0.00198238)
(0.00158662 -0.0849913 0.00203219)
(0.00195563 -0.0864132 0.00203954)
(0.00231907 -0.0864617 0.00202104)
(0.00267177 -0.0854301 0.00198556)
(0.00300798 -0.0834522 0.00193892)
(0.00332324 -0.0805961 0.00188579)
(0.00361358 -0.0769095 0.00183025)
(0.00387559 -0.0724461 0.00177576)
(0.00410681 -0.0672755 0.00172492)
(0.00430598 -0.0614876 0.0016793)
(0.00447291 -0.0551856 0.00163954)
(0.00460813 -0.0484761 0.00160552)
(0.00471253 -0.0414583 0.00157662)
(0.00478692 -0.0342149 0.00155197)
(0.00483165 -0.0268038 0.00153097)
(0.00484617 -0.0192517 0.00151365)
(0.00482862 -0.0115468 0.00150133)
(0.00477515 -0.00363176 0.00149716)
(0.00467955 0.00460052 0.00150663)
(0.00453304 0.013322 0.00153823)
(0.00432411 0.0228034 0.00160406)
(0.00403904 0.0334328 0.00171846)
(0.00366425 0.0456537 0.00189133)
(0.00319135 0.059733 0.00211266)
(0.00262265 0.0752452 0.00233137)
(0.00197506 0.090255 0.00244796)
(0.00133413 0.100676 0.00235798)
(0.000774437 0.102221 0.00202108)
(0.00030909 0.0879786 0.00141055)
(2.85676e-05 0.0436183 0.000517063)
(1.0258e-05 -0.0184044 0.000496777)
(0.000187437 -0.0461942 0.00117434)
(0.000469137 -0.0655628 0.00159116)
(0.000819641 -0.0779764 0.00182432)
(0.00119063 -0.0849975 0.00193615)
(0.00155556 -0.0885086 0.00197698)
(0.0019131 -0.0899073 0.00197826)
(0.00226457 -0.0898904 0.00195589)
(0.00260473 -0.0887565 0.00191844)
(0.00292794 -0.0866415 0.0018717)
(0.0032299 -0.0836168 0.0018204)
(0.00350692 -0.0797352 0.0017687)
(0.00375593 -0.0750579 0.00172003)
(0.00397489 -0.069663 0.00167692)
(0.00416295 -0.063648 0.00164079)
(0.00432026 -0.0571224 0.00161206)
(0.00444759 -0.0501963 0.00159036)
(0.00454595 -0.04297 0.00157473)
(0.00461624 -0.0355241 0.00156394)
(0.00465877 -0.027912 0.00155684)
(0.00467294 -0.0201527 0.00155276)
(0.00465668 -0.0122239 0.00155205)
(0.00460596 -0.00405461 0.00155664)
(0.00451423 0.00447826 0.00157055)
(0.00437243 0.0135621 0.00160063)
(0.00416891 0.0234804 0.00165739)
(0.00389023 0.0346253 0.001754)
(0.00352368 0.0474237 0.00190013)
(0.00306231 0.0620871 0.0020879)
(0.00250976 0.0780835 0.00227217)
(0.00188361 0.093331 0.00236337)
(0.0012704 0.103644 0.00226684)
(0.00073582 0.104851 0.00194215)
(0.000291018 0.0898992 0.0013574)
(2.66816e-05 0.0443937 0.000500126)
(1.00927e-05 -0.0192864 0.000496927)
(0.000185733 -0.0483242 0.00116424)
(0.000463546 -0.0684677 0.00156414)
(0.00080758 -0.0812793 0.00177961)
(0.00116962 -0.0884475 0.00187707)
(0.00152426 -0.0919839 0.00190783)
(0.00187102 -0.0933503 0.00190233)
(0.00221125 -0.0932614 0.00187554)
(0.00253963 -0.0920202 0.00183568)
(0.00285063 -0.0897652 0.00178845)
(0.00314014 -0.0865712 0.00173864)
(0.00340474 -0.0824968 0.00169046)
(0.00364168 -0.0776113 0.00164734)
(0.00384932 -0.0720012 0.00161173)
(0.00402714 -0.0657713 0.00158493)
(0.00417557 -0.0590365 0.0015672)
(0.00429557 -0.0519099 0.00155795)
(0.00438828 -0.0444919 0.001556)
(0.0044546 -0.0368608 0.00155979)
(0.00449486 -0.0290647 0.0015678)
(0.00450839 -0.0211143 0.00157879)
(0.00449302 -0.0129757 0.00159232)
(0.00444456 -0.00456328 0.00160918)
(0.00435623 0.00426275 0.00163183)
(0.00421875 0.0137057 0.00166521)
(0.00402036 0.0240604 0.00171778)
(0.00374789 0.0357208 0.00180095)
(0.00338946 0.0490926 0.00192383)
(0.00293944 0.0643282 0.00208035)
(0.00240267 0.0807885 0.00223099)
(0.00179737 0.0962513 0.00229571)
(0.00121053 0.106448 0.00218988)
(0.000699832 0.107324 0.00187378)
(0.000274506 0.0916931 0.00131106)
(2.51247e-05 0.0451112 0.000485816)
(1.03356e-05 -0.0201543 0.000494823)
(0.000184835 -0.0504032 0.00114866)
(0.000458915 -0.0712849 0.00153038)
(0.000796364 -0.0844654 0.00172836)
(0.00114933 -0.091763 0.0018123)
(0.00149367 -0.0953162 0.00183383)
(0.00182969 -0.0966466 0.00182223)
(0.00215876 -0.0964843 0.0017916)
(0.0024755 -0.0951362 0.00174978)
(0.00277453 -0.0927431 0.0017024)
(0.00305195 -0.0893838 0.00165425)
(0.00330458 -0.0851232 0.00160954)
(0.00352999 -0.0800387 0.00157164)
(0.00372688 -0.0742248 0.0015429)
(0.00389503 -0.0677934 0.00152451)
(0.0040351 -0.0608644 0.00151656)
(0.0041482 -0.0535531 0.00151834)
(0.00423555 -0.0459596 0.00152852)
(0.0042981 -0.0381594 0.0015454)
(0.00433616 -0.0301947 0.00156723)
(0.004349 -0.0220679 0.0015925)
(0.00433436 -0.0137329 0.00162024)
(0.00428791 -0.00508884 0.0016504)
(0.00420272 0.00402135 0.00168409)
(0.00406932 0.0138169 0.00172431)
(0.00387593 0.0246035 0.00177713)
(0.00360962 0.0367737 0.00185166)
(0.00325931 0.0507087 0.00195575)
(0.00282056 0.0664981 0.00208449)
(0.00229929 0.083395 0.00220348)
(0.00171435 0.0990433 0.0022419)
(0.00115286 0.109108 0.0021252)
(0.000665123 0.109657 0.00181495)
(0.000258678 0.0933696 0.00127093)
(2.3605e-05 0.0457748 0.000473814)
(1.03347e-05 -0.0210257 0.000491284)
(0.000183362 -0.0524796 0.00112896)
(0.00045372 -0.0740839 0.00149052)
(0.000784964 -0.0876134 0.00166968)
(0.00112948 -0.0950237 0.0017393)
(0.0014643 -0.0985833 0.00175116)
(0.00179049 -0.0998712 0.00173314)
(0.00210936 -0.0996311 0.00169839)
(0.00241545 -0.0981732 0.00165435)
(0.00270354 -0.0956411 0.00160656)
(0.0029699 -0.0921177 0.0015598)
(0.00321157 -0.0876747 0.00151826)
(0.00342643 -0.0823976 0.00148526)
(0.00361343 -0.0763891 0.00146306)
(0.00377264 -0.0697678 0.0014527)
(0.00390489 -0.0626578 0.00145416)
(0.00401144 -0.0551762 0.0014666)
(0.00409358 -0.0474225 0.00148856)
(0.00415232 -0.0394685 0.00151825)
(0.00418797 -0.0313507 0.0015538)
(0.00419977 -0.0230621 0.00159348)
(0.00418541 -0.0145443 0.001636)
(0.00414047 -0.00568081 0.00168064)
(0.00405791 0.00370358 0.00172735)
(0.00392815 0.0138444 0.00177727)
(0.00373941 0.025057 0.00183399)
(0.00347907 0.0377315 0.00190403)
(0.00313673 0.0522216 0.00199344)
(0.00270904 0.0685515 0.00209791)
(0.00220283 0.0858672 0.00218761)
(0.00163746 0.101684 0.00220051)
(0.00109976 0.111614 0.0020721)
(0.000633467 0.111846 0.00176555)
(0.000244532 0.0949338 0.00123722)
(2.23963e-05 0.0463885 0.00046422)
(1.05241e-05 -0.0218841 0.000485877)
(0.00018218 -0.0545095 0.00110484)
(0.00044881 -0.0768023 0.00144526)
(0.000773772 -0.0906529 0.00160573)
(0.00110985 -0.0981588 0.00166165)
(0.00143534 -0.101716 0.00166442)
(0.00175198 -0.102958 0.00164044)
(0.00206101 -0.102638 0.00160188)
(0.00235693 -0.10107 0.00155582)
(0.00263466 -0.0984007 0.00150767)
(0.00289064 -0.0947166 0.00146218)
(0.00312213 -0.0900967 0.00142348)
(0.00332724 -0.0846346 0.0013948)
(0.00350517 -0.0784411 0.00137829)
(0.00365617 -0.0716407 0.00137488)
(0.00378121 -0.0643616 0.00138446)
(0.00388166 -0.0567226 0.00140611)
(0.0039589 -0.0488219 0.00143831)
(0.00401396 -0.0407279 0.00147925)
(0.00404716 -0.0324705 0.00152705)
(0.00405773 -0.0240337 0.00157994)
(0.00404332 -0.0153463 0.00163651)
(0.00399945 -0.00627578 0.00169563)
(0.00391903 0.00337129 0.0017564)
(0.00379245 0.0138469 0.00181826)
(0.00360802 0.0254757 0.00188232)
(0.00335339 0.0386437 0.00195218)
(0.00301888 0.0536746 0.00203157)
(0.00260206 0.0705256 0.00211607)
(0.00211053 0.088236 0.00217971)
(0.00156413 0.104199 0.00216879)
(0.00104911 0.113986 0.00202863)
(0.000603253 0.113907 0.00172421)
(0.000231119 0.0963952 0.0012089)
(2.12207e-05 0.0469562 0.000456483)
(1.05629e-05 -0.0227406 0.000479116)
(0.00018054 -0.0565239 0.00107741)
(0.00044338 -0.079486 0.00139557)
(0.000762305 -0.093638 0.00153688)
(0.00109044 -0.101225 0.00157899)
(0.00140727 -0.104772 0.00157269)
(0.00171515 -0.105963 0.00154275)
(0.00201522 -0.105561 0.00150034)
(0.00230194 -0.103882 0.00145216)
(0.00257034 -0.101075 0.00140348)
(0.00281703 -0.097233 0.00135899)
(0.00303945 -0.0924406 0.00132276)
(0.00323587 -0.0868 0.00129794)
(0.00340569 -0.0804294 0.00128655)
(0.00354926 -0.0734595 0.00128946)
(0.00366769 -0.066022 0.00130647)
(0.00376243 -0.058237 0.0013366)
(0.00383493 -0.0502016 0.00137832)
(0.00388628 -0.0419801 0.0014298)
(0.00391684 -0.0335959 0.00148916)
(0.00392585 -0.0250232 0.00155466)
(0.00391095 -0.0161782 0.00162482)
(0.00386767 -0.00691228 0.0016983)
(0.00378888 0.00298656 0.00177353)
(0.003665 0.0137867 0.00184854)
(0.00348444 0.025822 0.00192212)
(0.00323522 0.0394729 0.00199496)
(0.00290827 0.0550322 0.00206818)
(0.00250201 0.0723891 0.00213671)
(0.00202464 0.0904775 0.00217772)
(0.00149636 0.106573 0.00214512)