/*--------------------------------*- C++ -*----------------------------------*\
| =========                 |                                                 |
| \\      /  F ield         | OpenFOAM: The Open Source CFD Toolbox           |
|  \\    /   O peration     | Version:  v2012                                 |
|   \\  /    A nd           | Website:  www.openfoam.com                      |
|    \\/     M anipulation  |                                                 |
\*---------------------------------------------------------------------------*/
FoamFile
{
    version     2.0;
    format      ascii;
    class       volScalarField;
    location    "1";
    object      alphat;
}
// * * * * * * * * * * * * * * * * * * * * * * * * * * * * * * * * * * * * * //

dimensions      [1 -1 -1 0 0 0 0];


internalField   nonuniform List<scalar> 
78750
(
0.0015652
0.0034422
0.00237392
0.000940823
0.00024858
3.57292e-05
1.00043e-05
7.79782e-06
4.33359e-06
5.5933e-06
7.36611e-06
5.38369e-06
8.68221e-06
6.18985e-06
9.72335e-06
7.92413e-06
9.70466e-06
1.00364e-05
1.04004e-05
1.12725e-05
1.17412e-05
1.23842e-05
1.30402e-05
1.36471e-05
1.43498e-05
1.50459e-05
1.58333e-05
1.66691e-05
1.74109e-05
1.79941e-05
1.85297e-05
1.94259e-05
1.10281e-05
3.10079e-06
2.78217e-07
5.88762e-05
0.000281481
0.000127045
3.15399e-06
5.49496e-06
1.93317e-06
1.00952e-05
4.9791e-06
1.19716e-05
9.61827e-06
1.39372e-05
1.42301e-05
1.63217e-05
1.79712e-05
1.90559e-05
2.06687e-05
2.16473e-05
2.30551e-05
2.42227e-05
2.56334e-05
2.66592e-05
2.77337e-05
2.85288e-05
2.9229e-05
2.98439e-05
3.04959e-05
3.11478e-05
3.17375e-05
3.21518e-05
3.22054e-05
3.24171e-05
3.34716e-05
1.18365e-05
7.88264e-07
7.17249e-07
4.91062e-06
5.57366e-06
5.01268e-06
4.29109e-06
7.30665e-06
1.31441e-05
1.62205e-05
2.49957e-05
2.30921e-05
2.18018e-05
1.81274e-05
1.64948e-05
1.46148e-05
1.42485e-05
1.43622e-05
1.52709e-05
1.56205e-05
1.60058e-05
1.6731e-05
1.80436e-05
1.97209e-05
2.11561e-05
2.21901e-05
2.2799e-05
2.30596e-05
2.29454e-05
2.24428e-05
2.13953e-05
1.95182e-05
1.66408e-05
1.23085e-05
6.26675e-06
2.95679e-06
4.72261e-06
2.30356e-06
2.65073e-06
1.14622e-05
1.05042e-05
1.39572e-05
2.56189e-05
2.86151e-05
3.08356e-05
3.18678e-05
3.53152e-05
3.68192e-05
3.8482e-05
3.69784e-05
3.12604e-05
2.26476e-05
1.77045e-05
1.86261e-05
2.29531e-05
2.48519e-05
2.38801e-05
2.42205e-05
2.74959e-05
3.26362e-05
3.70324e-05
3.9148e-05
3.90202e-05
3.71267e-05
3.39579e-05
2.988e-05
2.51953e-05
2.03848e-05
1.66223e-05
1.1789e-05
1.69681e-06
1.68657e-06
2.6666e-06
1.54219e-07
2.87282e-07
6.26333e-08
3.3901e-07
7.93778e-08
3.53697e-06
8.45814e-07
1.51951e-06
6.74357e-06
9.0329e-06
1.1914e-05
1.52985e-05
1.97041e-05
2.57842e-05
3.12355e-05
3.24291e-05
3.13569e-05
3.08891e-05
3.14583e-05
3.20778e-05
3.20454e-05
3.18749e-05
3.18186e-05
3.15008e-05
3.04373e-05
2.83191e-05
2.51392e-05
2.11054e-05
1.64865e-05
1.15766e-05
6.81023e-06
3.29359e-06
3.16831e-06
7.35564e-06
3.85837e-06
2.58836e-07
5.28667e-06
1.03694e-05
4.54751e-06
4.87838e-06
1.60779e-05
2.60093e-05
2.66087e-05
2.76555e-05
3.05656e-05
3.5038e-05
3.96382e-05
4.1088e-05
3.9334e-05
3.6752e-05
3.41104e-05
3.12003e-05
2.85647e-05
2.70834e-05
2.70315e-05
2.81063e-05
2.96878e-05
3.11259e-05
3.19872e-05
3.20126e-05
3.1e-05
2.87952e-05
2.53565e-05
2.08067e-05
1.54286e-05
9.45865e-06
3.18043e-06
1.37182e-06
4.83531e-06
4.24838e-06
2.30473e-08
6.03637e-06
6.59663e-06
6.32563e-06
9.09974e-06
1.35945e-05
1.77312e-05
2.24715e-05
2.88891e-05
3.16592e-05
3.14766e-05
3.35291e-05
3.68169e-05
3.83386e-05
3.66387e-05
3.21785e-05
2.86632e-05
2.86341e-05
3.13688e-05
3.50949e-05
3.86899e-05
4.13736e-05
4.2372e-05
4.12208e-05
3.79968e-05
3.333e-05
2.7956e-05
2.23261e-05
1.64954e-05
1.0364e-05
4.98951e-06
2.57038e-06
3.16857e-06
1.00612e-05
5.03105e-06
5.49853e-08
9.71292e-06
9.52191e-06
1.10274e-05
1.36894e-05
1.75499e-05
2.25936e-05
2.80126e-05
3.21709e-05
3.44515e-05
3.55953e-05
3.62802e-05
3.6669e-05
3.6789e-05
3.67209e-05
3.64498e-05
3.58186e-05
3.48638e-05
3.41521e-05
3.39902e-05
3.44698e-05
3.54773e-05
3.6439e-05
3.68561e-05
3.62952e-05
3.4284e-05
3.05085e-05
2.51338e-05
1.87393e-05
1.18883e-05
5.44102e-06
1.98368e-06
2.13024e-06
9.18491e-06
5.44696e-06
3.93547e-08
7.79477e-06
7.04903e-06
8.49665e-06
1.16151e-05
1.68606e-05
2.47725e-05
3.61243e-05
4.84571e-05
5.22623e-05
4.86426e-05
4.53549e-05
4.36893e-05
4.25781e-05
4.12736e-05
3.95028e-05
3.76018e-05
3.6502e-05
3.6356e-05
3.68413e-05
3.78641e-05
3.92304e-05
4.01448e-05
3.98259e-05
3.76525e-05
3.35223e-05
2.80085e-05
2.18561e-05
1.53997e-05
8.83337e-06
3.90113e-06
2.22962e-06
3.41097e-06
1.38779e-05
6.00456e-06
3.23603e-08
6.36269e-06
7.65117e-06
1.02777e-05
1.43591e-05
1.98566e-05
2.63686e-05
3.28613e-05
3.80023e-05
4.11012e-05
4.23633e-05
4.23838e-05
4.17443e-05
4.08714e-05
3.99919e-05
3.91563e-05
3.83642e-05
3.77438e-05
3.73967e-05
3.73162e-05
3.75769e-05
3.82168e-05
3.87018e-05
3.85272e-05
3.71931e-05
3.41847e-05
2.92751e-05
2.28477e-05
1.57153e-05
8.78711e-06
3.59664e-06
1.78714e-06
3.12848e-06
1.49329e-05
6.42214e-06
3.11202e-08
6.57796e-06
7.577e-06
9.96269e-06
1.38037e-05
1.93121e-05
2.65052e-05
3.45671e-05
4.13097e-05
4.46823e-05
4.49797e-05
4.3841e-05
4.24136e-05
4.10767e-05
3.98273e-05
3.85754e-05
3.73999e-05
3.66685e-05
3.63669e-05
3.63927e-05
3.6766e-05
3.74677e-05
3.79308e-05
3.75846e-05
3.58794e-05
3.24119e-05
2.72125e-05
2.07697e-05
1.3735e-05
7.18418e-06
3.12972e-06
2.1068e-06
4.15911e-06
2.01131e-05
6.871e-06
2.63604e-08
5.43163e-06
7.22047e-06
1.00777e-05
1.44673e-05
2.05275e-05
2.77149e-05
3.45554e-05
3.94322e-05
4.1838e-05
4.23676e-05
4.1876e-05
4.09824e-05
3.99997e-05
3.90313e-05
3.80911e-05
3.72498e-05
3.67118e-05
3.64258e-05
3.63531e-05
3.65187e-05
3.69396e-05
3.71875e-05
3.67894e-05
3.52553e-05
3.20919e-05
2.70584e-05
2.04767e-05
1.32229e-05
6.68896e-06
2.76591e-06
1.92227e-06
4.45412e-06
2.37251e-05
7.2369e-06
2.45005e-08
5.39055e-06
7.32838e-06
1.03174e-05
1.4819e-05
2.09054e-05
2.7952e-05
3.44682e-05
3.89194e-05
4.09275e-05
4.11857e-05
4.05695e-05
3.96512e-05
3.86783e-05
3.77119e-05
3.67763e-05
3.59864e-05
3.54964e-05
3.5229e-05
3.51418e-05
3.52454e-05
3.55221e-05
3.55531e-05
3.48869e-05
3.30879e-05
2.97965e-05
2.49115e-05
1.87085e-05
1.18754e-05
5.87486e-06
2.60172e-06
2.11556e-06
5.34787e-06
3.00768e-05
7.59195e-06
2.09166e-08
4.71679e-06
6.99053e-06
1.02044e-05
1.49677e-05
2.12807e-05
2.81875e-05
3.40095e-05
3.76247e-05
3.91446e-05
3.93036e-05
3.87877e-05
3.8018e-05
3.71866e-05
3.6357e-05
3.55815e-05
3.49787e-05
3.45872e-05
3.43392e-05
3.41955e-05
3.41528e-05
3.41848e-05
3.39449e-05
3.30394e-05
3.11055e-05
2.78679e-05
2.32488e-05
1.74293e-05
1.10312e-05
5.41162e-06
2.3606e-06
1.97332e-06
5.53889e-06
3.30294e-05
7.99095e-06
1.89199e-08
4.53631e-06
6.98882e-06
1.03666e-05
1.52638e-05
2.15237e-05
2.80244e-05
3.32061e-05
3.62766e-05
3.75159e-05
3.76115e-05
3.71438e-05
3.64555e-05
3.57029e-05
3.49487e-05
3.42589e-05
3.37471e-05
3.34125e-05
3.31952e-05
3.30572e-05
3.29876e-05
3.29516e-05
3.26473e-05
3.17122e-05
2.98052e-05
2.66706e-05
2.21972e-05
1.64445e-05
1.00883e-05
4.75705e-06
2.21314e-06
2.11869e-06
5.92644e-06
3.71078e-05
8.44597e-06
2.10117e-08
4.17177e-06
6.76348e-06
1.02733e-05
1.52874e-05
2.14841e-05
2.75433e-05
3.20528e-05
3.45941e-05
3.56016e-05
3.56871e-05
3.5311e-05
3.47413e-05
3.41092e-05
3.34834e-05
3.29382e-05
3.25635e-05
3.23268e-05
3.2186e-05
3.21141e-05
3.21004e-05
3.2124e-05
3.19588e-05
3.12708e-05
2.96852e-05
2.68255e-05
2.2313e-05
1.59654e-05
9.05027e-06
3.93941e-06
1.9771e-06
2.45697e-06
7.12312e-06
4.81923e-05
8.65642e-06
2.39504e-08
3.98781e-06
6.6868e-06
1.0323e-05
1.54191e-05
2.14788e-05
2.71009e-05
3.10931e-05
3.32825e-05
3.41496e-05
3.42399e-05
3.39377e-05
3.34607e-05
3.29259e-05
3.24115e-05
3.19972e-05
3.1727e-05
3.15741e-05
3.15166e-05
3.15408e-05
3.16396e-05
3.1803e-05
3.18664e-05
3.15162e-05
3.0331e-05
2.77459e-05
2.28838e-05
1.53195e-05
7.73585e-06
3.18182e-06
1.9299e-06
3.25222e-06
1.02138e-05
7.31325e-05
8.81934e-06
2.80422e-08
3.76793e-06
6.5347e-06
1.02734e-05
1.5438e-05
2.13641e-05
2.65916e-05
3.01446e-05
3.20538e-05
3.28177e-05
3.29155e-05
3.26709e-05
3.22741e-05
3.18336e-05
3.14282e-05
3.11278e-05
3.09415e-05
3.08483e-05
3.08374e-05
3.08986e-05
3.10216e-05
3.11915e-05
3.12838e-05
3.10196e-05
2.99894e-05
2.75255e-05
2.23435e-05
1.40795e-05
6.63601e-06
2.72384e-06
1.92256e-06
3.977e-06
1.37743e-05
9.21774e-05
8.88806e-06
3.13903e-08
3.6077e-06
6.43085e-06
1.02735e-05
1.55073e-05
2.13156e-05
2.62263e-05
2.94579e-05
3.11619e-05
3.18325e-05
3.19139e-05
3.16946e-05
3.13462e-05
3.0973e-05
3.06462e-05
3.04109e-05
3.02596e-05
3.01785e-05
3.01594e-05
3.01867e-05
3.0236e-05
3.02732e-05
3.01793e-05
2.96945e-05
2.8471e-05
2.59325e-05
2.07596e-05
1.28777e-05
6.0854e-06
2.56955e-06
1.89995e-06
4.26332e-06
1.59864e-05
9.13594e-05
8.89033e-06
3.52156e-08
3.44964e-06
6.30785e-06
1.02379e-05
1.55224e-05
2.12017e-05
2.58233e-05
2.87783e-05
3.03049e-05
3.08955e-05
3.09602e-05
3.07613e-05
3.0456e-05
3.01404e-05
2.98747e-05
2.96755e-05
2.9535e-05
2.9446e-05
2.93965e-05
2.93633e-05
2.93081e-05
2.91787e-05
2.88599e-05
2.81217e-05
2.67007e-05
2.41634e-05
1.92613e-05
1.20991e-05
5.93586e-06
2.60033e-06
1.87445e-06
4.13077e-06
1.64394e-05
8.81787e-05
8.90725e-06
3.88985e-08
3.31542e-06
6.20065e-06
1.02114e-05
1.55348e-05
2.10826e-05
2.5443e-05
2.81493e-05
2.95268e-05
3.00518e-05
3.0105e-05
2.99284e-05
2.96649e-05
2.93981e-05
2.91712e-05
2.89919e-05
2.88572e-05
2.8762e-05
2.86926e-05
2.86236e-05
2.85111e-05
2.82959e-05
2.7872e-05
2.70442e-05
2.56161e-05
2.31907e-05
1.84722e-05
1.17089e-05
5.91956e-06
2.70602e-06
1.95925e-06
4.03416e-06
1.63271e-05
8.83898e-05
8.99263e-06
4.3062e-08
3.19278e-06
6.09432e-06
1.01737e-05
1.55188e-05
2.09254e-05
2.50209e-05
2.75075e-05
2.87686e-05
2.92561e-05
2.93176e-05
2.91749e-05
2.89556e-05
2.87324e-05
2.85366e-05
2.83777e-05
2.82572e-05
2.81694e-05
2.81013e-05
2.80285e-05
2.79098e-05
2.76863e-05
2.7261e-05
2.64763e-05
2.51976e-05
2.29461e-05
1.81918e-05
1.14408e-05
5.82686e-06
2.76678e-06
2.14061e-06
4.24183e-06
1.66807e-05
9.0021e-05
9.13095e-06
4.74782e-08
3.08693e-06
6.00007e-06
1.01434e-05
1.55031e-05
2.07636e-05
2.46139e-05
2.69151e-05
2.80862e-05
2.85542e-05
2.8633e-05
2.8525e-05
2.83475e-05
2.81619e-05
2.7997e-05
2.78645e-05
2.77664e-05
2.76979e-05
2.76476e-05
2.75943e-05
2.75005e-05
2.7311e-05
2.69377e-05
2.62556e-05
2.51947e-05
2.3108e-05
1.80925e-05
1.11235e-05
5.62488e-06
2.76517e-06
2.36359e-06
4.75043e-06
1.78219e-05
9.11087e-05
9.27691e-06
5.23072e-08
2.99491e-06
5.91568e-06
1.01213e-05
1.54953e-05
2.05981e-05
2.4229e-05
2.63748e-05
2.74742e-05
2.79298e-05
2.80291e-05
2.79555e-05
2.78154e-05
2.7665e-05
2.75316e-05
2.74265e-05
2.73523e-05
2.73055e-05
2.72763e-05
2.72456e-05
2.71793e-05
2.70255e-05
2.67054e-05
2.61286e-05
2.52875e-05
2.32745e-05
1.78811e-05
1.07119e-05
5.37352e-06
2.72981e-06
2.57449e-06
5.41487e-06
1.95619e-05
9.08496e-05
9.40189e-06
5.74446e-08
2.91581e-06
5.84159e-06
1.01072e-05
1.54909e-05
2.04432e-05
2.38797e-05
2.58931e-05
2.69323e-05
2.7378e-05
2.74952e-05
2.74514e-05
2.73439e-05
2.72245e-05
2.71189e-05
2.70381e-05
2.69847e-05
2.69558e-05
2.69425e-05
2.69265e-05
2.68754e-05
2.67387e-05
2.64458e-05
2.59531e-05
2.5308e-05
2.32689e-05
1.75336e-05
1.03106e-05
5.16714e-06
2.69803e-06
2.74156e-06
6.07987e-06
2.1523e-05
8.97083e-05
9.50636e-06
6.30603e-08
2.84792e-06
5.77761e-06
1.01035e-05
1.54871e-05
2.02943e-05
2.35556e-05
2.54519e-05
2.64372e-05
2.68721e-05
2.70026e-05
2.69827e-05
2.6902e-05
2.68083e-05
2.67254e-05
2.66638e-05
2.66259e-05
2.66089e-05
2.66038e-05
2.65922e-05
2.65419e-05
2.64028e-05
2.61128e-05
2.56877e-05
2.52069e-05
2.30899e-05
1.71461e-05
1.00081e-05
5.04948e-06
2.68905e-06
2.85955e-06
6.65596e-06
2.34024e-05
8.86528e-05
9.60749e-06
6.93411e-08
2.79019e-06
5.72391e-06
1.0112e-05
1.54794e-05
2.01422e-05
2.32406e-05
2.50295e-05
2.59637e-05
2.63861e-05
2.65256e-05
2.65245e-05
2.64652e-05
2.6392e-05
2.63269e-05
2.62794e-05
2.62519e-05
2.62409e-05
2.62371e-05
2.62216e-05
2.6162e-05
2.60092e-05
2.57128e-05
2.53636e-05
2.50421e-05
2.2866e-05
1.68628e-05
9.87128e-06
5.04341e-06
2.71689e-06
2.93792e-06
7.10743e-06
2.50278e-05
8.82969e-05
9.72134e-06
7.66717e-08
2.74146e-06
5.67835e-06
1.01214e-05
1.54622e-05
1.99781e-05
2.29207e-05
2.46084e-05
2.54933e-05
2.59016e-05
2.60466e-05
2.60601e-05
2.60178e-05
2.59608e-05
2.59092e-05
2.58718e-05
2.58504e-05
2.5841e-05
2.58339e-05
2.58098e-05
2.5736e-05
2.55656e-05
2.52661e-05
2.50195e-05
2.48657e-05
2.26862e-05
1.67287e-05
9.89797e-06
5.14408e-06
2.79536e-06
3.00473e-06
7.45066e-06
2.63751e-05
8.88265e-05
9.85671e-06
8.54667e-08
2.70052e-06
5.64044e-06
1.01309e-05
1.54302e-05
1.97926e-05
2.25833e-05
2.41741e-05
2.50114e-05
2.54048e-05
2.5553e-05
2.55779e-05
2.55492e-05
2.55048e-05
2.54634e-05
2.54328e-05
2.54143e-05
2.54037e-05
2.53909e-05
2.53565e-05
2.52683e-05
2.50826e-05
2.47941e-05
2.46922e-05
2.47269e-05
2.26133e-05
1.67489e-05
1.00557e-05
5.3292e-06
2.92595e-06
3.08625e-06
7.71895e-06
2.74906e-05
9.01731e-05
1.00155e-05
9.62265e-08
2.66715e-06
5.61198e-06
1.01408e-05
1.53823e-05
1.95831e-05
2.22236e-05
2.37206e-05
2.4512e-05
2.48901e-05
2.50401e-05
2.50741e-05
2.50566e-05
2.50223e-05
2.49887e-05
2.49628e-05
2.49455e-05
2.49324e-05
2.49132e-05
2.4869e-05
2.47691e-05
2.45754e-05
2.43211e-05
2.44105e-05
2.46602e-05
2.26637e-05
1.68871e-05
1.02903e-05
5.56502e-06
3.10622e-06
3.21433e-06
7.97719e-06
2.85167e-05
9.20888e-05
1.01961e-05
1.09401e-07
2.64071e-06
5.59439e-06
1.01502e-05
1.53187e-05
1.93506e-05
2.18429e-05
2.32498e-05
2.3997e-05
2.436e-05
2.45105e-05
2.45518e-05
2.45435e-05
2.45175e-05
2.44899e-05
2.44674e-05
2.44504e-05
2.44346e-05
2.44097e-05
2.43578e-05
2.42506e-05
2.40594e-05
2.38708e-05
2.41988e-05
2.46891e-05
2.28234e-05
1.70814e-05
1.0532e-05
5.80342e-06
3.31889e-06
3.40651e-06
8.29462e-06
2.96366e-05
9.42133e-05
1.0393e-05
1.25399e-07
2.6203e-06
5.58288e-06
1.01592e-05
1.52404e-05
1.90987e-05
2.14469e-05
2.27681e-05
2.34736e-05
2.3822e-05
2.39724e-05
2.402e-05
2.40193e-05
2.40003e-05
2.39778e-05
2.3958e-05
2.39413e-05
2.39235e-05
2.38947e-05
2.38382e-05
2.37289e-05
2.35512e-05
2.34643e-05
2.40743e-05
2.48227e-05
2.30536e-05
1.72603e-05
1.07187e-05
6.00618e-06
3.54961e-06
3.67592e-06
8.73384e-06
3.10323e-05
9.60821e-05
1.05991e-05
1.44542e-07
2.60593e-06
5.57845e-06
1.01687e-05
1.51498e-05
1.88319e-05
2.10416e-05
2.22825e-05
2.29498e-05
2.32853e-05
2.34358e-05
2.3489e-05
2.34953e-05
2.34824e-05
2.34642e-05
2.34467e-05
2.34303e-05
2.3411e-05
2.33796e-05
2.33207e-05
2.32137e-05
2.30608e-05
2.3111e-05
2.40289e-05
2.5035e-05
2.32732e-05
1.73289e-05
1.07818e-05
6.13289e-06
3.77808e-06
4.0241e-06
9.34423e-06
3.28674e-05
9.72764e-05
1.08051e-05
1.67006e-07
2.59745e-06
5.58115e-06
1.01802e-05
1.50527e-05
1.85612e-05
2.06402e-05
2.1807e-05
2.24394e-05
2.27628e-05
2.29131e-05
2.29712e-05
2.29835e-05
2.2976e-05
2.29618e-05
2.29466e-05
2.29308e-05
2.29109e-05
2.28785e-05
2.28198e-05
2.27194e-05
2.26019e-05
2.28192e-05
2.40529e-05
2.52847e-05
2.33981e-05
1.72173e-05
1.06866e-05
6.17047e-06
3.99613e-06
4.44698e-06
1.01531e-05
3.52634e-05
9.75074e-05
1.10026e-05
1.92707e-07
2.59477e-06
5.59016e-06
1.01928e-05
1.49517e-05
1.82935e-05
2.0252e-05
2.13517e-05
2.19523e-05
2.22647e-05
2.24144e-05
2.24765e-05
2.2494e-05
2.24913e-05
2.24806e-05
2.24676e-05
2.24529e-05
2.24331e-05
2.24008e-05
2.23437e-05
2.22521e-05
2.21795e-05
2.25856e-05
2.41315e-05
2.55282e-05
2.33659e-05
1.69053e-05
1.0444e-05
6.13366e-06
4.20507e-06
4.93992e-06
1.11783e-05
3.83268e-05
9.66286e-05
1.11839e-05
2.21325e-07
2.59751e-06
5.60524e-06
1.02083e-05
1.4852e-05
1.80353e-05
1.98832e-05
2.09221e-05
2.14941e-05
2.17963e-05
2.19454e-05
2.20108e-05
2.20329e-05
2.20343e-05
2.20269e-05
2.20159e-05
2.20022e-05
2.19827e-05
2.19508e-05
2.18959e-05
2.1815e-05
2.17965e-05
2.24038e-05
2.42393e-05
2.57043e-05
2.3116e-05
1.63841e-05
1.00748e-05
6.04568e-06
4.42183e-06
5.50157e-06
1.24208e-05
4.2119e-05
9.46976e-05
1.13421e-05
2.52299e-07
2.60476e-06
5.6246e-06
1.02252e-05
1.47536e-05
1.77883e-05
1.95356e-05
2.05198e-05
2.10661e-05
2.13589e-05
2.1507e-05
2.15751e-05
2.16009e-05
2.16059e-05
2.16012e-05
2.15921e-05
2.15793e-05
2.15602e-05
2.15288e-05
2.14763e-05
2.14072e-05
2.14512e-05
2.22626e-05
2.43412e-05
2.57451e-05
2.25968e-05
1.5648e-05
9.58706e-06
5.91269e-06
4.64906e-06
6.13212e-06
1.38885e-05
4.67121e-05
9.19033e-05
1.14736e-05
2.84917e-07
2.6141e-06
5.64687e-06
1.02422e-05
1.46572e-05
1.75542e-05
1.92111e-05
2.01467e-05
2.06701e-05
2.09545e-05
2.11016e-05
2.1172e-05
2.1201e-05
2.1209e-05
2.12069e-05
2.11994e-05
2.11877e-05
2.11693e-05
2.11386e-05
2.10892e-05
2.10341e-05
2.11487e-05
2.21601e-05
2.44248e-05
2.56285e-05
2.18233e-05
1.47415e-05
9.01333e-06
5.7467e-06
4.88808e-06
6.83686e-06
1.56018e-05
5.22544e-05
8.84382e-05
1.15775e-05
3.18399e-07
2.62481e-06
5.67198e-06
1.02607e-05
1.45667e-05
1.73378e-05
1.89139e-05
1.98065e-05
2.03096e-05
2.05864e-05
2.07325e-05
2.08046e-05
2.08365e-05
2.08473e-05
2.08474e-05
2.08417e-05
2.08313e-05
2.08141e-05
2.07851e-05
2.07402e-05
2.0702e-05
2.08936e-05
2.20916e-05
2.44753e-05
2.53285e-05
2.08088e-05
1.37014e-05
8.38393e-06
5.56284e-06
5.14263e-06
7.62786e-06
1.76088e-05
5.89948e-05
8.44795e-05
1.16532e-05
3.51792e-07
2.63563e-06
5.69722e-06
1.02773e-05
1.44803e-05
1.71383e-05
1.86436e-05
1.94988e-05
1.99844e-05
2.02546e-05
2.03997e-05
2.04735e-05
2.05079e-05
2.05214e-05
2.05238e-05
2.05201e-05
2.05113e-05
2.04957e-05
2.04689e-05
2.04294e-05
2.04104e-05
2.06807e-05
2.2042e-05
2.44657e-05
2.48243e-05
1.9604e-05
1.25967e-05
7.74277e-06
5.38107e-06
5.41518e-06
8.50971e-06
1.99576e-05
6.71592e-05
8.02348e-05
1.16989e-05
3.84245e-07
2.64648e-06
5.72319e-06
1.02944e-05
1.44018e-05
1.69591e-05
1.84024e-05
1.9225e-05
1.96953e-05
1.99597e-05
2.0104e-05
2.01792e-05
2.02159e-05
2.02318e-05
2.02364e-05
2.02346e-05
2.02275e-05
2.02135e-05
2.0189e-05
2.01548e-05
2.01547e-05
2.04987e-05
2.19877e-05
2.43587e-05
2.41024e-05
1.8279e-05
1.15027e-05
7.13447e-06
5.21831e-06
5.70089e-06
9.46337e-06
2.26412e-05
7.66769e-05
7.59875e-05
1.17144e-05
4.14994e-07
2.65689e-06
5.74896e-06
1.03115e-05
1.43318e-05
1.68e-05
1.81892e-05
1.89833e-05
1.944e-05
1.96991e-05
1.98423e-05
1.99186e-05
1.99572e-05
1.9975e-05
1.99815e-05
1.99812e-05
1.99753e-05
1.99624e-05
1.99392e-05
1.99086e-05
1.99247e-05
2.03309e-05
2.19027e-05
2.41267e-05
2.31915e-05
1.69273e-05
1.04837e-05
6.59014e-06
5.08368e-06
5.99137e-06
1.04506e-05
2.55681e-05
8.69916e-05
7.19985e-05
1.1704e-05
4.43406e-07
2.66631e-06
5.77298e-06
1.03264e-05
1.42683e-05
1.66587e-05
1.80011e-05
1.87705e-05
1.92152e-05
1.94695e-05
1.96117e-05
1.96888e-05
1.97289e-05
1.97484e-05
1.97564e-05
1.97571e-05
1.97519e-05
1.97391e-05
1.97158e-05
1.96866e-05
1.97148e-05
2.0169e-05
2.17789e-05
2.37807e-05
2.2174e-05
1.5648e-05
9.58574e-06
6.12547e-06
4.98011e-06
6.27459e-06
1.14327e-05
2.86031e-05
9.7202e-05
6.84479e-05
1.1676e-05
4.69228e-07
2.67516e-06
5.79637e-06
1.03417e-05
1.42131e-05
1.65349e-05
1.78363e-05
1.85841e-05
1.90183e-05
1.92683e-05
1.94094e-05
1.9487e-05
1.95282e-05
1.95489e-05
1.95578e-05
1.95591e-05
1.95538e-05
1.95403e-05
1.95156e-05
1.94856e-05
1.95214e-05
2.00083e-05
2.16158e-05
2.33453e-05
2.11286e-05
1.44973e-05
8.82486e-06
5.74456e-06
4.90731e-06
6.537e-06
1.23728e-05
3.16194e-05
0.000106362
6.53941e-05
1.16386e-05
4.92217e-07
2.68268e-06
5.81676e-06
1.03534e-05
1.41622e-05
1.64249e-05
1.76915e-05
1.84209e-05
1.88462e-05
1.90924e-05
1.92325e-05
1.93105e-05
1.93526e-05
1.93742e-05
1.93837e-05
1.93851e-05
1.93792e-05
1.93642e-05
1.9337e-05
1.93044e-05
1.9344e-05
1.98496e-05
2.14234e-05
2.28578e-05
2.01216e-05
1.34964e-05
8.19152e-06
5.43698e-06
4.8592e-06
6.77184e-06
1.32436e-05
3.4527e-05
0.000113827
6.27793e-05
1.1597e-05
5.12435e-07
2.68934e-06
5.83569e-06
1.03646e-05
1.41181e-05
1.63296e-05
1.7566e-05
1.82794e-05
1.86969e-05
1.89398e-05
1.9079e-05
1.91572e-05
1.92e-05
1.92223e-05
1.92322e-05
1.92335e-05
1.92267e-05
1.92098e-05
1.91797e-05
1.91438e-05
1.91844e-05
1.96989e-05
2.12199e-05
2.23615e-05
1.91984e-05
1.26444e-05
7.66972e-06
5.18996e-06
4.8299e-06
6.97779e-06
1.40267e-05
3.72382e-05
0.000119439
6.05545e-05
1.15558e-05
5.29953e-07
2.69476e-06
5.85137e-06
1.03717e-05
1.40766e-05
1.62444e-05
1.74556e-05
1.8156e-05
1.85672e-05
1.88077e-05
1.89465e-05
1.90252e-05
1.90687e-05
1.90917e-05
1.91019e-05
1.91031e-05
1.90955e-05
1.9077e-05
1.90443e-05
1.90054e-05
1.90465e-05
1.95644e-05
2.10254e-05
2.18921e-05
1.83759e-05
1.1918e-05
7.23319e-06
4.98862e-06
4.81732e-06
7.16714e-06
1.47257e-05
3.97075e-05
0.000123491
5.86812e-05
1.15191e-05
5.44938e-07
2.69939e-06
5.86549e-06
1.03782e-05
1.40404e-05
1.61705e-05
1.73602e-05
1.80496e-05
1.84557e-05
1.86943e-05
1.88328e-05
1.8912e-05
1.89563e-05
1.89799e-05
1.89906e-05
1.89917e-05
1.89836e-05
1.89638e-05
1.8929e-05
1.88879e-05
1.89299e-05
1.94492e-05
2.08509e-05
2.14681e-05
1.76558e-05
1.12963e-05
6.86114e-06
4.8181e-06
4.81379e-06
7.35017e-06
1.53673e-05
4.19773e-05
0.000126443
5.70924e-05
1.14872e-05
5.57594e-07
2.70323e-06
5.87767e-06
1.03835e-05
1.40093e-05
1.61076e-05
1.72794e-05
1.79598e-05
1.83618e-05
1.8599e-05
1.87374e-05
1.88171e-05
1.8862e-05
1.88863e-05
1.88973e-05
1.88985e-05
1.88898e-05
1.88689e-05
1.88324e-05
1.87894e-05
1.88318e-05
1.93499e-05
2.06923e-05
2.10823e-05
1.7023e-05
1.07635e-05
6.54486e-06
4.67397e-06
4.81401e-06
7.52282e-06
1.59626e-05
4.40858e-05
0.000128632
5.57302e-05
1.14581e-05
5.68054e-07
2.70624e-06
5.88772e-06
1.03871e-05
1.39817e-05
1.60534e-05
1.72103e-05
1.78832e-05
1.8282e-05
1.85181e-05
1.86567e-05
1.87371e-05
1.87828e-05
1.88077e-05
1.88191e-05
1.88202e-05
1.8811e-05
1.87888e-05
1.87503e-05
1.87049e-05
1.87458e-05
1.9258e-05
2.05377e-05
2.07207e-05
1.64668e-05
1.03117e-05
6.2789e-06
4.55186e-06
4.81152e-06
7.67409e-06
1.65053e-05
4.60316e-05
0.000130231
5.45691e-05
1.143e-05
5.76695e-07
2.70894e-06
5.89706e-06
1.03916e-05
1.396e-05
1.60091e-05
1.71536e-05
1.78206e-05
1.82169e-05
1.84525e-05
1.85915e-05
1.86725e-05
1.87189e-05
1.87443e-05
1.8756e-05
1.87569e-05
1.87469e-05
1.87231e-05
1.86821e-05
1.8633e-05
1.86696e-05
1.91692e-05
2.03808e-05
2.03763e-05
1.59827e-05
9.93952e-06
6.06511e-06
4.45465e-06
4.80519e-06
7.78863e-06
1.69626e-05
4.77283e-05
0.000131325
5.3608e-05
1.14039e-05
5.83659e-07
2.71076e-06
5.90373e-06
1.03932e-05
1.39395e-05
1.59704e-05
1.71051e-05
1.77675e-05
1.81622e-05
1.83977e-05
1.85372e-05
1.8619e-05
1.86663e-05
1.86923e-05
1.87043e-05
1.87051e-05
1.86944e-05
1.86691e-05
1.86254e-05
1.85721e-05
1.86027e-05
1.90858e-05
2.02278e-05
2.00569e-05
1.5565e-05
9.63184e-06
5.89205e-06
4.37851e-06
4.79963e-06
7.86755e-06
1.73191e-05
4.91123e-05
0.000132018
5.28409e-05
1.13819e-05
5.8929e-07
2.71218e-06
5.90962e-06
1.03951e-05
1.39226e-05
1.59379e-05
1.70644e-05
1.77233e-05
1.81171e-05
1.83529e-05
1.84932e-05
1.85761e-05
1.86243e-05
1.86511e-05
1.86635e-05
1.86643e-05
1.86531e-05
1.86266e-05
1.85808e-05
1.85241e-05
1.85495e-05
1.90176e-05
2.00989e-05
1.97881e-05
1.52187e-05
9.37833e-06
5.74957e-06
4.31779e-06
4.79963e-06
7.92646e-06
1.75842e-05
5.01786e-05
0.000132439
5.22436e-05
1.13664e-05
5.93731e-07
2.7131e-06
5.91378e-06
1.03952e-05
1.3907e-05
1.591e-05
1.70304e-05
1.76871e-05
1.80806e-05
1.8317e-05
1.84584e-05
1.85424e-05
1.85915e-05
1.86191e-05
1.8632e-05
1.8633e-05
1.86216e-05
1.85945e-05
1.85474e-05
1.84889e-05
1.85112e-05
1.89687e-05
2.0002e-05
1.95729e-05
1.49251e-05
9.15461e-06
5.62104e-06
4.26367e-06
4.80757e-06
7.9928e-06
1.78124e-05
5.10656e-05
0.000132753
5.17633e-05
1.13568e-05
5.97131e-07
2.71372e-06
5.91706e-06
1.03947e-05
1.3893e-05
1.58854e-05
1.70007e-05
1.76557e-05
1.80493e-05
1.82867e-05
1.84294e-05
1.85145e-05
1.85648e-05
1.85933e-05
1.86069e-05
1.86083e-05
1.8597e-05
1.85698e-05
1.85224e-05
1.84632e-05
1.84847e-05
1.8936e-05
1.99339e-05
1.94059e-05
1.46787e-05
8.958e-06
5.50369e-06
4.21081e-06
4.81557e-06
8.07301e-06
1.80433e-05
5.19067e-05
0.000133042
5.13489e-05
1.13496e-05
5.99636e-07
2.71412e-06
5.91964e-06
1.03942e-05
1.38814e-05
1.58652e-05
1.69768e-05
1.76308e-05
1.80249e-05
1.82635e-05
1.84074e-05
1.84938e-05
1.85451e-05
1.85744e-05
1.85885e-05
1.85902e-05
1.8579e-05
1.85514e-05
1.85034e-05
1.84433e-05
1.8463e-05
1.8907e-05
1.98711e-05
1.92563e-05
1.44657e-05
8.78973e-06
5.40165e-06
4.16068e-06
4.81502e-06
8.15426e-06
1.82902e-05
5.27792e-05
0.000133322
5.09736e-05
1.13407e-05
6.0135e-07
2.71436e-06
5.9215e-06
1.03935e-05
1.38718e-05
1.58488e-05
1.69573e-05
1.76108e-05
1.80055e-05
1.82452e-05
1.83903e-05
1.84778e-05
1.853e-05
1.85599e-05
1.85744e-05
1.85761e-05
1.85646e-05
1.85363e-05
1.84868e-05
1.84244e-05
1.844e-05
1.88729e-05
1.98011e-05
1.91134e-05
1.4289e-05
8.65919e-06
5.32284e-06
4.11803e-06
4.80095e-06
8.20391e-06
1.8501e-05
5.35646e-05
0.000133522
5.06536e-05
1.13292e-05
6.02504e-07
2.71449e-06
5.92296e-06
1.03935e-05
1.38649e-05
1.58365e-05
1.69427e-05
1.75959e-05
1.79914e-05
1.82322e-05
1.83786e-05
1.84672e-05
1.85203e-05
1.85508e-05
1.85656e-05
1.85672e-05
1.85551e-05
1.85256e-05
1.8474e-05
1.84081e-05
1.84176e-05
1.88366e-05
1.97285e-05
1.89846e-05
1.4155e-05
8.5714e-06
5.27125e-06
4.08688e-06
4.77979e-06
8.21265e-06
1.86338e-05
5.41358e-05
0.000133612
5.04159e-05
1.13186e-05
6.03277e-07
2.71449e-06
5.92393e-06
1.03938e-05
1.38603e-05
1.58277e-05
1.69321e-05
1.75851e-05
1.79812e-05
1.82231e-05
1.83706e-05
1.84602e-05
1.85141e-05
1.85452e-05
1.85602e-05
1.85618e-05
1.85491e-05
1.85183e-05
1.84646e-05
1.8395e-05
1.83982e-05
1.88035e-05
1.96641e-05
1.88806e-05
1.40619e-05
8.51942e-06
5.24404e-06
4.06924e-06
4.7594e-06
8.19085e-06
1.86752e-05
5.44172e-05
0.000133597
5.02679e-05
1.13128e-05
6.03861e-07
2.71443e-06
5.92454e-06
1.03937e-05
1.38558e-05
1.58197e-05
1.69228e-05
1.75759e-05
1.7973e-05
1.82161e-05
1.83648e-05
1.84556e-05
1.85104e-05
1.85421e-05
1.85576e-05
1.85593e-05
1.85462e-05
1.85145e-05
1.8459e-05
1.83866e-05
1.83848e-05
1.87794e-05
1.96169e-05
1.88061e-05
1.39971e-05
8.48552e-06
5.22967e-06
4.06294e-06
4.74912e-06
8.16481e-06
1.86611e-05
5.44835e-05
0.000133537
5.01841e-05
1.13121e-05
6.04396e-07
2.71451e-06
5.92564e-06
1.03947e-05
1.3853e-05
1.58136e-05
1.69154e-05
1.75687e-05
1.79666e-05
1.82109e-05
1.83609e-05
1.84528e-05
1.85086e-05
1.85411e-05
1.85571e-05
1.8559e-05
1.85459e-05
1.85138e-05
1.84575e-05
1.83835e-05
1.83789e-05
1.87673e-05
1.95901e-05
1.87581e-05
1.39481e-05
8.45642e-06
5.21722e-06
4.06037e-06
4.74787e-06
8.14652e-06
1.86281e-05
5.44467e-05
0.000133482
5.01332e-05
1.13147e-05
6.04797e-07
2.7144e-06
5.92611e-06
1.03946e-05
1.38492e-05
1.5807e-05
1.69079e-05
1.75615e-05
1.79605e-05
1.82061e-05
1.83575e-05
1.84507e-05
1.85076e-05
1.8541e-05
1.85577e-05
1.85601e-05
1.85474e-05
1.85155e-05
1.84592e-05
1.8385e-05
1.83797e-05
1.87655e-05
1.95801e-05
1.87271e-05
1.3899e-05
8.41815e-06
5.19817e-06
4.05763e-06
4.75764e-06
8.14934e-06
1.86109e-05
5.4414e-05
0.00013346
5.00877e-05
1.13182e-05
6.05105e-07
2.71468e-06
5.92756e-06
1.03959e-05
1.38467e-05
1.58014e-05
1.69013e-05
1.75552e-05
1.79552e-05
1.82021e-05
1.83548e-05
1.84492e-05
1.85072e-05
1.85415e-05
1.85588e-05
1.85618e-05
1.85495e-05
1.85181e-05
1.84625e-05
1.83893e-05
1.83852e-05
1.87719e-05
1.9584e-05
1.87103e-05
1.38479e-05
8.36808e-06
5.16777e-06
4.0474e-06
4.77043e-06
8.17953e-06
1.86452e-05
5.45019e-05
0.000133494
5.0028e-05
1.1321e-05
6.05179e-07
2.71462e-06
5.92807e-06
1.03959e-05
1.38436e-05
1.5796e-05
1.68952e-05
1.75496e-05
1.79507e-05
1.81989e-05
1.83529e-05
1.84484e-05
1.85073e-05
1.85424e-05
1.85603e-05
1.85636e-05
1.85517e-05
1.85206e-05
1.84654e-05
1.83929e-05
1.83899e-05
1.87777e-05
1.95885e-05
1.86965e-05
1.37996e-05
8.3176e-06
5.13493e-06
4.03264e-06
4.7783e-06
8.22623e-06
1.87319e-05
5.47431e-05
0.000133576
4.99443e-05
1.13208e-05
6.05088e-07
2.71489e-06
5.92947e-06
1.03977e-05
1.38428e-05
1.57927e-05
1.6891e-05
1.75457e-05
1.79476e-05
1.81969e-05
1.8352e-05
1.84485e-05
1.85082e-05
1.85438e-05
1.8562e-05
1.85654e-05
1.85532e-05
1.85217e-05
1.84657e-05
1.83921e-05
1.83871e-05
1.87707e-05
1.95723e-05
1.86636e-05
1.37535e-05
8.27726e-06
5.10735e-06
4.01521e-06
4.77066e-06
8.25919e-06
1.88372e-05
5.5082e-05
0.000133664
4.98466e-05
1.13155e-05
6.04929e-07
2.71488e-06
5.92967e-06
1.03981e-05
1.38417e-05
1.57903e-05
1.68885e-05
1.75438e-05
1.79468e-05
1.81972e-05
1.83534e-05
1.84508e-05
1.85111e-05
1.85471e-05
1.85654e-05
1.85685e-05
1.85556e-05
1.85227e-05
1.84648e-05
1.83879e-05
1.83775e-05
1.87508e-05
1.95352e-05
1.86162e-05
1.37244e-05
8.26469e-06
5.09992e-06
4.00633e-06
4.75103e-06
8.24535e-06
1.88765e-05
5.52775e-05
0.00013368
4.97817e-05
1.13082e-05
6.0478e-07
2.71471e-06
5.9296e-06
1.03981e-05
1.38399e-05
1.5787e-05
1.6885e-05
1.75409e-05
1.7945e-05
1.81967e-05
1.83541e-05
1.84526e-05
1.85137e-05
1.85502e-05
1.85686e-05
1.85715e-05
1.85579e-05
1.85237e-05
1.84633e-05
1.83826e-05
1.83657e-05
1.87275e-05
1.94943e-05
1.85725e-05
1.37134e-05
8.27159e-06
5.10626e-06
4.00638e-06
4.73232e-06
8.19589e-06
1.88258e-05
5.5211e-05
0.00013361
4.97839e-05
1.13048e-05
6.04861e-07
2.71471e-06
5.92975e-06
1.03981e-05
1.3838e-05
1.57837e-05
1.68817e-05
1.75386e-05
1.79442e-05
1.81976e-05
1.83565e-05
1.84562e-05
1.85183e-05
1.85555e-05
1.85744e-05
1.85773e-05
1.85634e-05
1.85285e-05
1.84667e-05
1.83836e-05
1.83624e-05
1.87171e-05
1.9476e-05
1.85585e-05
1.37216e-05
8.28733e-06
5.11894e-06
4.01476e-06
4.72702e-06
8.14356e-06
1.87135e-05
5.49123e-05
0.000133491
4.98408e-05
1.13085e-05
6.04983e-07
2.71399e-06
5.92752e-06
1.03934e-05
1.38307e-05
1.57756e-05
1.68743e-05
1.7533e-05
1.79408e-05
1.81963e-05
1.83571e-05
1.84585e-05
1.85219e-05
1.85601e-05
1.85797e-05
1.85833e-05
1.85698e-05
1.85351e-05
1.84735e-05
1.83905e-05
1.83691e-05
1.87239e-05
1.94859e-05
1.8572e-05
1.37272e-05
8.28513e-06
5.1175e-06
4.02038e-06
4.73984e-06
8.12965e-06
1.86266e-05
5.46152e-05
0.000133414
4.98964e-05
1.13164e-05
6.0527e-07
2.71365e-06
5.92693e-06
1.03913e-05
1.38251e-05
1.57679e-05
1.68667e-05
1.75268e-05
1.79366e-05
1.81943e-05
1.83572e-05
1.84603e-05
1.85251e-05
1.85644e-05
1.85851e-05
1.85894e-05
1.85767e-05
1.8543e-05
1.84825e-05
1.8401e-05
1.83819e-05
1.87409e-05
1.9512e-05
1.8598e-05
1.37246e-05
8.26659e-06
5.10214e-06
4.01739e-06
4.75862e-06
8.15704e-06
1.86175e-05
5.45175e-05
0.000133429
4.99033e-05
1.13225e-05