/*--------------------------------*- C++ -*----------------------------------*\
| =========                 |                                                 |
| \\      /  F ield         | OpenFOAM: The Open Source CFD Toolbox           |
|  \\    /   O peration     | Version:  v2006                                 |
|   \\  /    A nd           | Website:  www.openfoam.com                      |
|    \\/     M anipulation  |                                                 |
\*---------------------------------------------------------------------------*/
FoamFile
{
    version     2.0;
    format      ascii;
    class       volScalarField;
    location    "1";
    object      k;
}
// * * * * * * * * * * * * * * * * * * * * * * * * * * * * * * * * * * * * * //

dimensions      [0 2 -2 0 0 0 0];


internalField   nonuniform List<scalar> 
78750
(
4.27668
1.41078
0.672077
0.222351
0.0466875
0.00383046
0.000976765
0.000729165
0.000363449
0.000434515
0.000509228
0.000337729
0.000491129
0.00032005
0.000455326
0.000339498
0.000380075
0.000360907
0.000342382
0.000344802
0.000328329
0.000323246
0.000312203
0.000303417
0.000293854
0.000284392
0.000274978
0.000265599
0.000256229
0.000246804
0.000237232
0.000227903
0.000217258
0.000201158
0.000217173
0.0439456
0.0551065
0.0121617
0.00036913
0.000983347
0.0002668
0.000937628
0.00039226
0.000681043
0.000476056
0.000556915
0.000499935
0.000509584
0.000499372
0.000496173
0.000491052
0.000490164
0.000481423
0.000479941
0.000474063
0.000471275
0.000467105
0.00046273
0.000455759
0.000447125
0.000437186
0.000426183
0.000414263
0.000401548
0.000388096
0.000374041
0.000361088
0.000355371
0.000108721
0.000845022
0.00198243
0.000785638
0.000599466
0.000488661
0.000609796
0.000540346
0.000502156
0.000551836
0.000477868
0.000492303
0.000431227
0.000422233
0.000372742
0.000360091
0.00034112
0.000356551
0.000357431
0.00036073
0.000350412
0.000340631
0.000330959
0.000324262
0.000319464
0.000316063
0.0003133
0.000310726
0.00030809
0.00030528
0.000302283
0.000299282
0.000297114
0.000300708
0.000367193
0.000897315
0.0028804
0.00105538
0.000965402
0.00083241
0.000782894
0.000774832
0.000779113
0.000787281
0.000782306
0.000795469
0.00079802
0.000797866
0.000773201
0.000714734
0.000565478
0.000393676
0.000322005
0.000359193
0.000421251
0.000456416
0.000454313
0.000434038
0.0004129
0.000396363
0.00038386
0.000373656
0.000364372
0.000355182
0.000345692
0.000335787
0.000325552
0.000315451
0.000308739
0.000204926
0.000401504
0.00333573
6.0635e-05
4.0196e-05
3.09443e-06
3.54583e-05
5.18128e-06
3.36957e-05
9.81584e-06
2.51833e-05
0.000122951
0.000165504
0.000214852
0.000254938
0.000290447
0.000317951
0.000326534
0.00032042
0.000310344
0.000305777
0.000307346
0.000311625
0.000314888
0.000316028
0.000315385
0.000313499
0.000310739
0.000307297
0.000303266
0.000298714
0.000293806
0.000289273
0.000289096
0.000317498
0.000578448
0.00147779
0.00499248
0.000101858
0.000317586
0.00050794
0.000502819
0.000393254
0.000360008
0.000356896
0.000361299
0.000358129
0.000357223
0.000356245
0.000356268
0.00035838
0.000364395
0.000375314
0.000387192
0.000393418
0.00038989
0.000378699
0.000365251
0.000353702
0.000345076
0.000338727
0.000333483
0.000328506
0.000323313
0.000317658
0.000311456
0.00030472
0.000297526
0.000289846
0.000273064
0.00029785
0.00124015
0.00549793
9.05815e-06
0.000104112
0.000174754
0.000182474
0.000155529
0.000149306
0.000164672
0.000188525
0.000209654
0.000223428
0.000231437
0.000236326
0.000240704
0.000246082
0.000253347
0.000263303
0.000275759
0.000288831
0.000299949
0.000307945
0.000312863
0.000315001
0.000314974
0.000313411
0.000310708
0.00030705
0.0003025
0.000297074
0.000290805
0.000284111
0.000282531
0.000341579
0.000746651
0.0021057
0.00662903
2.16099e-05
0.000141162
0.000221701
0.000281086
0.000321306
0.000338778
0.000341343
0.000338916
0.000336979
0.000337207
0.000339205
0.000341873
0.000344147
0.000345198
0.000344585
0.000342145
0.000338077
0.000333034
0.000327916
0.000323172
0.000319046
0.000315649
0.0003127
0.000309882
0.000306965
0.000303811
0.000300323
0.000296423
0.000291989
0.000286717
0.00027972
0.000284146
0.000587245
0.00217001
0.00719319
1.54682e-05
8.7726e-05
0.00013902
0.000175173
0.000198868
0.000216392
0.000231322
0.000243802
0.000253533
0.000261128
0.000267424
0.000272956
0.000278096
0.000283167
0.000288302
0.00029338
0.00029808
0.00030214
0.000305302
0.000307453
0.000308662
0.000308883
0.000308041
0.000306212
0.00030349
0.000299905
0.000295429
0.000290009
0.000283629
0.000276843
0.000279489
0.000380076
0.000957578
0.00281447
0.00799816
1.27179e-05
0.00010364
0.000173571
0.000225881
0.00026084
0.000282037
0.000294007
0.000300755
0.000304939
0.000307906
0.00031018
0.000311917
0.000313141
0.00031384
0.000314029
0.000313778
0.000313203
0.000312417
0.00031143
0.0003102
0.000308697
0.000307063
0.000305245
0.000303173
0.000300799
0.000298085
0.000294968
0.000291312
0.000286844
0.000281022
0.000275443
0.000343423
0.000973149
0.00307587
0.00857667
1.22307e-05
9.34435e-05
0.000154198
0.000197719
0.000226423
0.00024512
0.000257778
0.0002669
0.000273924
0.000279669
0.000284573
0.000288841
0.000292564
0.000295781
0.000298498
0.000300686
0.000302326
0.000303476
0.000304099
0.000304222
0.000303849
0.000303015
0.000301605
0.000299566
0.000296892
0.000293576
0.000289589
0.000284905
0.000279686
0.000275709
0.000291259
0.000452102
0.00131317
0.00362866
0.00921465
1.03595e-05
9.91725e-05
0.000166468
0.000214761
0.000246523
0.000266452
0.000278883
0.000286914
0.000292433
0.000296463
0.000299515
0.000301852
0.000303628
0.000304947
0.00030588
0.000306486
0.000306816
0.000306901
0.000306659
0.000306099
0.000305167
0.000303937
0.000302378
0.000300451
0.000298127
0.000295371
0.000292114
0.000288223
0.000283435
0.000277855
0.000286038
0.000459526
0.00149279
0.00402811
0.00972369
9.62856e-06
9.56188e-05
0.000160092
0.000205621
0.000235439
0.000254504
0.000266964
0.000275569
0.000281924
0.000286889
0.000290899
0.000294179
0.000296854
0.000299002
0.000300669
0.000301885
0.000302693
0.000303142
0.000303204
0.000302906
0.000302209
0.000301147
0.000299654
0.000297677
0.000295194
0.000292196
0.000288682
0.000284733
0.000280785
0.000278622
0.000303244
0.000546028
0.00181292
0.00452214
0.0102061
8.21982e-06
9.85443e-05
0.000166108
0.000213241
0.000243782
0.000263018
0.000275325
0.000283582
0.000289445
0.000293799
0.000297114
0.000299657
0.000301601
0.000303063
0.000304125
0.000304851
0.000305286
0.000305436
0.00030529
0.000304848
0.00030405
0.000302927
0.000301447
0.000299571
0.000297269
0.00029451
0.000291242
0.000287347
0.000282556
0.000277432
0.000296149
0.00054095
0.00193529
0.00482483
0.0107239
7.4351e-06
9.78103e-05
0.000164471
0.000210527
0.000240354
0.000259338
0.000271733
0.000280252
0.000286438
0.000291118
0.000294736
0.000297551
0.000299731
0.000301387
0.0003026
0.000303433
0.000303939
0.000304131
0.000304031
0.000303639
0.000302896
0.000301813
0.000300346
0.000298453
0.000296113
0.000293316
0.000290054
0.000286352
0.000282266
0.000278866
0.000313021
0.000617169
0.0020958
0.00516207
0.0114816
8.25723e-06
0.00010047
0.000168322
0.000214802
0.000244664
0.000263564
0.000275861
0.000284269
0.0002903
0.000294771
0.000298138
0.000300681
0.000302587
0.000303987
0.000304981
0.000305637
0.000305998
0.000306065
0.000305869
0.000305406
0.000304607
0.000303468
0.000301958
0.00030004
0.000297681
0.000294827
0.000291293
0.000286562
0.00028034
0.000275519
0.000335335
0.000798166
0.00253955
0.00576991
0.0122961
9.41233e-06
0.000101349
0.000168957
0.000214986
0.000244543
0.000263373
0.00027577
0.000284348
0.000290553
0.000295175
0.000298668
0.000301324
0.000303308
0.00030475
0.00030575
0.000306385
0.000306703
0.000306731
0.000306489
0.000305954
0.000305068
0.000303814
0.000302192
0.000300164
0.000297676
0.000294593
0.000290475
0.000284559
0.000276818
0.000276582
0.000402006
0.00118738
0.00350098
0.00674638
0.0128652
1.10207e-05
0.000103676
0.00017181
0.000217816
0.000247226
0.000265995
0.000278427
0.000287089
0.000293413
0.000298154
0.000301703
0.000304331
0.000306244
0.000307595
0.000308501
0.000309041
0.000309265
0.000309206
0.000308871
0.000308231
0.000307227
0.000305823
0.000304
0.000301744
0.000299028
0.000295505
0.000290181
0.0002822
0.000272349
0.000277179
0.000465675
0.00158994
0.0045201
0.00765787
0.0131955
1.23368e-05
0.000105145
0.000173281
0.000219042
0.000248326
0.000267168
0.000279825
0.000288821
0.000295467
0.000300401
0.000304049
0.000306715
0.000308624
0.000309949
0.000310814
0.000311307
0.000311483
0.000311374
0.000310977
0.000310256
0.000309151
0.000307613
0.000305619
0.000303159
0.000300172
0.000296213
0.000290167
0.000281887
0.000272833
0.000281363
0.000493657
0.00180006
0.00520945
0.00826257
0.0134362
1.38405e-05
0.000107233
0.000175572
0.000221198
0.000250422
0.000269393
0.000282379
0.000291754
0.000298617
0.000303647
0.000307308
0.00030994
0.000311797
0.000313065
0.00031388
0.000314334
0.000314482
0.000314346
0.000313916
0.000313148
0.000311978
0.000310335
0.000308174
0.000305471
0.000302146
0.000297754
0.000291716
0.000284956
0.000279257
0.000290816
0.000493799
0.0017943
0.0055208
0.00859786
0.0136991
1.52884e-05
0.000109135
0.000177465
0.000222895
0.000252116
0.000271347
0.000284799
0.000294459
0.00030147
0.000306556
0.000310223
0.000312842
0.000314678
0.000315927
0.000316725
0.000317165
0.000317299
0.000317148
0.000316701
0.00031592
0.000314741
0.000313082
0.000310863
0.000308011
0.000304414
0.000299808
0.000294805
0.00029125
0.000291295
0.000310636
0.000518522
0.00177251
0.00563242
0.00881892
0.0140705
1.69253e-05
0.00011139
0.000179702
0.000224958
0.000254247
0.000273891
0.000287658
0.000297515
0.000304638
0.000309783
0.000313474
0.000316094
0.000317921
0.000319157
0.000319942
0.000320369
0.000320487
0.000320313
0.000319835
0.000319011
0.00031778
0.000316063
0.000313781
0.000310838
0.000307073
0.000302463
0.000299014
0.000299053
0.000305214
0.000336361
0.000582118
0.00187682
0.00576291
0.00906395
0.0145165
1.86616e-05
0.000113748
0.000181918
0.000226989
0.000256421
0.000276471
0.000290481
0.000300501
0.000307731
0.000312937
0.000316656
0.000319283
0.000321107
0.000322335
0.000323111
0.000323526
0.00032363
0.000323437
0.000322932
0.000322073
0.000320794
0.000319015
0.000316651
0.000313607
0.000309746
0.00030559
0.000304013
0.000307596
0.000319555
0.000364642
0.000674897
0.00211602
0.00601502
0.00938035
0.0149561
2.05603e-05
0.000116375
0.000184323
0.000229234
0.000258952
0.000279227
0.000293427
0.000303593
0.000310918
0.000316179
0.000319925
0.000322559
0.000324379
0.000325597
0.00032636
0.000326759
0.000326843
0.000326624
0.000326084
0.000325179
0.000323843
0.000321993
0.000319541
0.000316399
0.000312518
0.00030912
0.000309625
0.000316608
0.000333712
0.000392485
0.000777596
0.00242764
0.00636375
0.0097408
0.0153483
2.25804e-05
0.00011916
0.000186744
0.000231479
0.000261485
0.000281966
0.000296341
0.000306642
0.00031406
0.000319377
0.00032315
0.000325795
0.000327614
0.000328825
0.000329577
0.000329961
0.000330026
0.000329782
0.000329208
0.000328258
0.000326865
0.000324943
0.000322408
0.000319194
0.000315451
0.000313266
0.000316337
0.000326948
0.000348817
0.000418876
0.000872001
0.00274191
0.00674078
0.0101069
0.0157078
2.47888e-05
0.000122172
0.000189265
0.000233865
0.000264076
0.000284734
0.000299271
0.000309699
0.000317204
0.000322573
0.000326375
0.000329031
0.000330851
0.000332057
0.000332799
0.000333169
0.000333215
0.000332945
0.000332336
0.000331342
0.000329891
0.0003279
0.000325292
0.00032205
0.000318695
0.000318346
0.000324702
0.000339563
0.000366331
0.00044452
0.000949601
0.00301984
0.00710391
0.0104678
0.0160775
2.72589e-05
0.000125399
0.000191855
0.000236425
0.000266684
0.000287474
0.00030216
0.000312708
0.000320298
0.000325721
0.000329554
0.000332225
0.000334049
0.000335253
0.000335987
0.000336345
0.000336374
0.00033608
0.00033544
0.000334404
0.000332902
0.00033085
0.000328194
0.000325022
0.00032255
0.000324998
0.000335818
0.000356085
0.000388556
0.000471984
0.00100987
0.00324721
0.00743988
0.0108302
0.0164916
3.01421e-05
0.000128885
0.000194512
0.000238972
0.000269283
0.000290207
0.000305035
0.000315698
0.000323367
0.000328841
0.000332704
0.00033539
0.000337221
0.000338423
0.000339152
0.0003395
0.000339513
0.000339197
0.000338528
0.000337454
0.000335904
0.000333801
0.000331131
0.000328212
0.000327324
0.000333788
0.00035049
0.000377899
0.00041766
0.000505807
0.00106184
0.00343127
0.00775575
0.0112075
0.0169707
3.36016e-05
0.000132599
0.000197204
0.000241503
0.00027185
0.000292903
0.000307869
0.000318641
0.000326386
0.000331909
0.000335802
0.000338505
0.000340343
0.000341547
0.000342271
0.000342611
0.000342611
0.000342276
0.00034158
0.00034047
0.000338876
0.000336736
0.000334101
0.000331709
0.000333334
0.000345208
0.000369223
0.000405597
0.000454687
0.000549128
0.00111614
0.0035849
0.00806068
0.0116086
0.0175229
3.78346e-05
0.000136577
0.000200015
0.000244065
0.000274422
0.000295593
0.000310685
0.000321555
0.000329367
0.000334933
0.000338852
0.000341569
0.000343413
0.000344617
0.000345339
0.00034567
0.000345657
0.000345303
0.000344581
0.000343437
0.0003418
0.000339633
0.000337097
0.000335626
0.000340888
0.000359594
0.000392332
0.000439475
0.000500286
0.000605372
0.00118773
0.00373519
0.00837036
0.0120431
0.0181537
4.30182e-05
0.000140794
0.000202985
0.000246635
0.000276986
0.000298265
0.000313471
0.000324426
0.000332294
0.000337894
0.000341833
0.000344561
0.000346409
0.000347613
0.00034833
0.000348654
0.000348628
0.000348255
0.000347505
0.000346327
0.000344649
0.000342467
0.000340127
0.000340143
0.000350191
0.000376911
0.000419607
0.000479008
0.000553629
0.000675373
0.00128776
0.00391256
0.00870258
0.0125185
0.0188613
4.93141e-05
0.000145196
0.000205929
0.000249176
0.000279523
0.000300903
0.000316211
0.000327239
0.000335152
0.000340779
0.000344731
0.000347465
0.000349313
0.000350514
0.000351225
0.000351539
0.000351498
0.000351103
0.000350324
0.000349107
0.00034739
0.000345208
0.000343216
0.000345457
0.000361293
0.000396965
0.000450615
0.000523545
0.000614021
0.000760417
0.00142654
0.00414502
0.00907346
0.0130397
0.019639
5.68492e-05
0.000149755
0.000208862
0.000251701
0.000282041
0.000303511
0.000318904
0.000329988
0.000337932
0.000343573
0.00034753
0.000350261
0.000352105
0.000353298
0.000354
0.000354301
0.000354242
0.000353822
0.00035301
0.000351751
0.000349993
0.000347833
0.000346397
0.000351576
0.000373968
0.000419011
0.000484084
0.000571274
0.000679208
0.000859707
0.00161029
0.00445397
0.00949415
0.0136059
0.0204729
6.56941e-05
0.000154451
0.00021178
0.000254201
0.000284526
0.000306068
0.000321527
0.000332649
0.000340611
0.000346255
0.000350206
0.000352929
0.000354762
0.000355944
0.000356631
0.000356916
0.000356835
0.000356386
0.000355536
0.000354228
0.000352431
0.000350329
0.000349699
0.000358456
0.000387921
0.000442343
0.000518819
0.000620478
0.00074753
0.000973423
0.00184244
0.00484923
0.0099677
0.0142101
0.0213441
7.58162e-05
0.00015924
0.000214645
0.000256641
0.000286945
0.000308546
0.000324053
0.000335198
0.000343162
0.000348798
0.000352735
0.000355442
0.000357258
0.000358423
0.000359093
0.000359357
0.000359251
0.000358769
0.000357877
0.000356516
0.000354681
0.000352686
0.000353182
0.000366157
0.000403096
0.000466811
0.000554684
0.000670895
0.00081907
0.00110269
0.00212508
0.00533312
0.0104902
0.0148399
0.0222289
8.70912e-05
0.000164071
0.00021743
0.000259006
0.000289282
0.000310925
0.000326462
0.000337614
0.000345569
0.000351186
0.000355101
0.000357785
0.00035958
0.000360725
0.000361374
0.000361614
0.000361479
0.00036096
0.00036002
0.000358604
0.000356736
0.000354915
0.000356871
0.000374491
0.000418899
0.000491454
0.000590404
0.000721297
0.000894056
0.00125161
0.00245967
0.00589764
0.0110494
0.0154769
0.0231016
9.9299e-05
0.000168859
0.000220081
0.000261269
0.000291521
0.000313193
0.000328746
0.00033989
0.000347821
0.000353409
0.000357293
0.000359947
0.000361714
0.000362833
0.000363457
0.000363669
0.0003635
0.000362939
0.000361948
0.000360473
0.000358576
0.000357011
0.000360733
0.000383065
0.000434461
0.000514866
0.000623903
0.000769025
0.000970698
0.00142114
0.00284671
0.00653345
0.0116316
0.0161029
0.0239413
0.00011216
0.000173432
0.000222554
0.000263393
0.000293622
0.000315311
0.000330864
0.000341989
0.000349889
0.00035544
0.000359288
0.000361909
0.000363646
0.000364737
0.000365333
0.000365515
0.00036531
0.000364705
0.000363658
0.000362124
0.000360208
0.000358983
0.000364671
0.00039148
0.000449063
0.000536096
0.000653929
0.000812616
0.00104832
0.00161281
0.00328874
0.00723135
0.0122268
0.0167037
0.0247311
0.000125366
0.000177739
0.000224867
0.000265401
0.000295604
0.000317295
0.000332834
0.000343926
0.000351784
0.000357291
0.000361096
0.000363677
0.00036538
0.000366439
0.000367004
0.000367152
0.000366908
0.000366255
0.000365149
0.000363555
0.000361627
0.000360802
0.000368454
0.000399183
0.000461719
0.000553819
0.000678826
0.000850641
0.00112705
0.00182936
0.00379154
0.00798849
0.0128316
0.0172714
0.0254509
0.000138542
0.000181665
0.000226931
0.000267204
0.000297385
0.000319074
0.000334593
0.00034565
0.000353465
0.000358926
0.000362688
0.00036523
0.000366897
0.000367924
0.000368456
0.00036857
0.000368285
0.000367582
0.000366412
0.000364756
0.000362823
0.000362426
0.000371901
0.00040584
0.000471987
0.000567625
0.00069812
0.000882852
0.00120763
0.00207179
0.00435497
0.00879542
0.0134379
0.0177925
0.0260695
0.000151353
0.000185213
0.0002288
0.000268858
0.000299019
0.000320695
0.000336185
0.000347199
0.000354964
0.000360375
0.000364089
0.000366588
0.000368218
0.00036921
0.000369709
0.000369785
0.000369458
0.000368704
0.000367471
0.000365753
0.00036382
0.000363846
0.000374882
0.00041121
0.00047965
0.000577372
0.000711798
0.000909473
0.00128963
0.00233525
0.00496337
0.00962378
0.0140281
0.018252
0.0265651
0.000163495
0.000188364
0.000230453
0.000270331
0.000300468
0.000322124
0.000337579
0.000348546
0.00035626
0.000361619
0.000365287
0.000367744
0.000369336
0.000370294
0.000370758
0.000370798
0.000370428
0.000369623
0.000368328
0.000366546
0.000364616
0.000365025
0.000377304
0.000415236
0.000484842
0.000583402
0.000720456
0.000931298
0.00137192
0.00261062
0.00558687
0.0104258
0.0145796
0.0186451
0.0269416
0.000174719
0.000191094
0.000231877
0.000271612
0.000301728
0.000323364
0.000338783
0.000349704
0.000357368
0.000362678
0.0003663
0.000368717
0.000370273
0.000371197
0.000371629
0.000371634
0.000371223
0.000370368
0.000369014
0.000367173
0.000365243
0.000365977
0.000379173
0.00041805
0.000487984
0.000586484
0.000725249
0.000949346
0.00145335
0.00288726
0.0061969
0.011157
0.0150786
0.0189853
0.0272255
0.000184922
0.00019347
0.000233128
0.00027274
0.000302829
0.000324434
0.000339812
0.000350685
0.000358299
0.000363563
0.000367142
0.000369521
0.000371043
0.000371936
0.000372337
0.000372308
0.000371859
0.000370958
0.000369548
0.00036765
0.000365717
0.000366702
0.000380512
0.000419805
0.000489478
0.000587365
0.000727445
0.000965012
0.00153271
0.00315321
0.00676926
0.0117971
0.0155189
0.0192829
0.0274459
0.000194009
0.000195462
0.000234156
0.00027367
0.000303738
0.000325318
0.000340663
0.000351496
0.000359067
0.000364289
0.00036783
0.000370175
0.000371666
0.000372531
0.000372903
0.000372844
0.000372359
0.000371415
0.000369954
0.000368004
0.000366061
0.000367216
0.000381369
0.000420665
0.000489647
0.000586536
0.000727671
0.000978741
0.0016082
0.0034002
0.00728885
0.0123504
0.0159001
0.019536
0.0276261
0.000202002
0.000197152
0.000235042
0.000274475
0.000304516
0.000326066
0.000341373
0.000352164
0.000359694
0.000364878
0.000368383
0.000370698
0.000372162
0.000373002
0.000373349
0.000373262
0.000372746
0.000371765
0.000370259
0.000368261
0.000366301
0.000367555
0.000381839
0.000420842
0.000488873
0.000584584
0.00072669
0.000990934
0.0016786
0.00362351
0.00774738
0.012823
0.0162249
0.019747
0.0277856
0.000208929
0.000198529
0.00023574
0.000275105
0.000305124
0.000326651
0.00034193
0.00035269
0.000360188
0.000365341
0.000368818
0.000371107
0.000372547
0.000373365
0.000373689
0.000373578
0.000373034
0.000372019
0.000370473
0.000368431
0.000366444
0.00036773
0.000381957
0.00042042
0.000487276
0.000581658
0.000724729
0.00100212
0.00174555
0.00382776
0.00814696
0.0132214
0.0165018
0.0199297
0.0279383
0.000214856
0.000199663
0.000236323
0.000275633
0.000305629
0.000327131
0.00034238
0.000353109
0.000360576
0.000365699
0.00036915
0.000371416
0.000372836
0.000373634
0.000373939
0.000373806
0.000373237
0.000372192
0.00037061
0.000368527
0.000366507
0.00036777
0.000381796
0.000419538
0.000485053
0.000577943
0.000721777
0.00101187
0.00180916
0.00402011
0.00850157
0.01356
0.0167412
0.0200938
0.0280801
0.000219863
0.000200583
0.000236786
0.000276047
0.00030602
0.000327499
0.000342724
0.000353428
0.000360871
0.00036597
0.0003694
0.000371646
0.000373048
0.000373829
0.000374116
0.000373965
0.000373373
0.000372301
0.000370687
0.000368565
0.000366505
0.000367701
0.000381419
0.000418325
0.000482421
0.000573762
0.000718235
0.00102029
0.00186807
0.00419975
0.00882026
0.0138509
0.0169506
0.020242
0.0281995
0.000224001
0.000201293
0.000237129
0.000276353
0.000306309
0.000327769
0.000342974
0.000353656
0.000361077
0.000366156
0.000369567
0.000371796
0.000373183
0.00037395
0.000374222
0.000374054
0.000373444
0.000372349
0.000370706
0.00036855
0.000366446
0.000367544
0.000380891
0.000416917
0.000479587
0.000569345
0.000714163
0.00102671
0.00191915
0.0043605
0.00910373
0.0141001
0.0171317
0.0203711
0.0282895
0.000227421
0.000201873
0.000237412
0.000276597
0.000306528
0.000327968
0.000343153
0.000353818
0.000361221
0.000366285
0.000369682
0.000371897
0.000373272
0.000374026
0.000374285
0.000374103
0.000373476
0.00037236
0.000370692
0.000368503
0.000366353
0.000367335
0.000380292
0.00041548
0.000476866
0.000565232
0.000710317
0.00103162
0.00195999
0.00449168
0.00934208
0.0143057
0.0172829
0.0204789
0.0283584
0.000230177
0.000202285
0.000237581
0.000276736
0.000306654
0.000328082
0.000343257
0.000353911
0.000361303
0.000366355
0.00036974
0.000371945
0.000373309
0.000374053
0.000374302
0.000374108
0.000373467
0.000372335
0.000370646
0.00036843
0.000366233
0.000367083
0.000379627
0.000413987
0.000474167
0.000561273
0.000706579
0.00103539
0.00199219
0.00459169
0.00953094
0.0144682
0.0174046
0.0205668
0.0284224
0.000232406
0.000202601
0.000237707
0.000276831
0.00030673
0.000328144
0.000343308
0.000353952
0.000361336
0.000366381
0.000369759
0.000371957
0.000373313
0.000374049
0.00037429
0.000374087
0.000373435
0.000372289
0.000370583
0.000368342
0.000366098
0.00036681
0.000378944
0.000412513
0.000471573
0.000557546
0.000703067
0.00103865
0.00201965
0.00466888
0.00967341
0.0145918
0.0175003
0.0206404
0.028494
0.000234164
0.000202815
0.000237767
0.000276866
0.000306753
0.000328161
0.000343321
0.000353961
0.000361341
0.00036638
0.000369752
0.000371943
0.000373293
0.000374021
0.000374254
0.000374043
0.000373381
0.000372223
0.000370502
0.000368238
0.000365946
0.000366508
0.000378206
0.000410956
0.000468877
0.000553687
0.00069936
0.00104168
0.00204743
0.00474212
0.00979013
0.0146911
0.0175795
0.0207069
0.0285699
0.00023551
0.000202954
0.000237784
0.000276858
0.000306731
0.000328131
0.000343286
0.000353923
0.000361299
0.000366335
0.000369704
0.000371891
0.000373237
0.000373961
0.000374189
0.00037397
0.000373301
0.000372132
0.000370398
0.000368114
0.000365777
0.000366193
0.000377471
0.000409437
0.000466262
0.000549886
0.000695444
0.00104374
0.00207457
0.00481956
0.00989798
0.0147781
0.0176493
0.0207684
0.0286325
0.000236502
0.00020304
0.000237774
0.000276822
0.00030668
0.000328074
0.000343227
0.000353864
0.00036124
0.000366275
0.000369641
0.000371825
0.000373166
0.000373886
0.000374108
0.000373883
0.000373206
0.000372028
0.000370281
0.000367978
0.000365598
0.000365871
0.000376747
0.000407988
0.00046381
0.000546304
0.000691522
0.00104441
0.00209706
0.00489692
0.0100068
0.0148604
0.0177131
0.0208217
0.0286644
0.000237181
0.000203072
0.000237724
0.000276745
0.000306591
0.00032798
0.000343133
0.000353771
0.000361148
0.000366182
0.000369548
0.00037173
0.000373069
0.000373784
0.000374002
0.000373772
0.000373089
0.000371903
0.000370146
0.000367828
0.000365411
0.000365563
0.000376105
0.000406761
0.000461775
0.000543282
0.000687872
0.00104309
0.00210897
0.00495326
0.0101015
0.0149306
0.0177655
0.0208601
0.0286692
0.000237638
0.000203079
0.000237659
0.00027665
0.000306481
0.000327865
0.000343018
0.000353658
0.000361038
0.000366075
0.000369442
0.000371624
0.000372961
0.000373675
0.00037389
0.000373657
0.000372969
0.000371778
0.000370015
0.000367685
0.000365241
0.000365301
0.000375601
0.000405862
0.000460362
0.000541215
0.000685128
0.00104063
0.00211115
0.00498019
0.0101677
0.0149809
0.0178021
0.0208834
0.0286692
0.000237945
0.000203065
0.000237579
0.000276542
0.00030636
0.00032774
0.000342894
0.000353537
0.000360919
0.000365958
0.000369325
0.000371507
0.000372844
0.000373557
0.00037377
0.000373534
0.000372844
0.000371649
0.000369881
0.000367543
0.000365078
0.000365066
0.000375184
0.000405175
0.000459378
0.00053994
0.000683545
0.00103852
0.00210758
0.00498187
0.0101989
0.0150081
0.017823
0.0208974
0.028685
0.000238177
0.00020304
0.000237488
0.00027642
0.000306222
0.000327598
0.000342753
0.000353399
0.000360785
0.000365828
0.000369198
0.000371382
0.000372721
0.000373433
0.000373646
0.000373409
0.000372717
0.000371521
0.000369749
0.000367406
0.000364925
0.000364858
0.000374842
0.000404643
0.000458673
0.000539159
0.000682893
0.00103808
0.0021053
0.00497502
0.0102056
0.0150184
0.0178338
0.0209092
0.0287192
0.000238389
0.000203023
0.000237413
0.000276314
0.0003061
0.000327469
0.000342622
0.000353269
0.000360657
0.000365702
0.000369074
0.00037126
0.000372599
0.000373313
0.000373526
0.00037329
0.000372597
0.0003714
0.000369627
0.000367281
0.000364786
0.000364664
0.00037451
0.000404101
0.000457938
0.000538384
0.000682431
0.00103857
0.00210595
0.0049691
0.0102027
0.0150217
0.0178413
0.0209228
0.0287631
0.000238549
0.000202984
0.000237323
0.000276197
0.000305968
0.000327331
0.000342482
0.00035313
0.000360519
0.000365566
0.00036894
0.000371128
0.000372469
0.000373184
0.000373398
0.000373161
0.000372469
0.00037127
0.000369496
0.000367145
0.000364635
0.000364452
0.000374129
0.000403436
0.000456961
0.000537257
0.000681768
0.00104014
0.00211226
0.00497305
0.0102012
0.0150245
0.0178487
0.0209383
0.0288051
0.000238672
0.000202966
0.000237262
0.000276105
0.000305855
0.000327206
0.000342352
0.000352997
0.000360386
0.000365434
0.000368809
0.000370998
0.000372341
0.000373056
0.00037327
0.000373034
0.00037234
0.00037114
0.000369364
0.000367007
0.000364478
0.000364223
0.000373695
0.000402637
0.000455705
0.000535606
0.000680319
0.00104136
0.00212282
0.00499381
0.010214
0.0150349
0.0178604
0.0209559
0.0288358
0.000238702
0.000202911
0.00023717
0.000275987
0.000305722
0.000327066
0.00034221
0.000352856
0.000360246
0.000365295
0.000368672
0.000370863
0.000372207
0.000372923
0.000373137
0.0003729
0.000372206
0.000371005
0.000369225
0.000366864
0.000364319
0.000363998
0.000373275
0.000401864
0.000454464
0.000533882
0.000678587
0.00104195
0.00213384
0.00502718
0.0102429
0.015054
0.0178763
0.0209732
0.0288426
0.000238666
0.000202877
0.000237102
0.000275887
0.000305599
0.000326931
0.000342069
0.000352712
0.000360103
0.000365153
0.000368532
0.000370724
0.000372069
0.000372785
0.000372999
0.000372761
0.000372065
0.000370862
0.000369079
0.000366713
0.000364152
0.000363771
0.000372875
0.000401154
0.000453316
0.000532165
0.000676383
0.00104025
0.00213766
0.00505636
0.0102824
0.0150789
0.0178934
0.0209842
0.0288216
0.000238604
0.000202818
0.000236993
0.000275747
0.000305446
0.000326775
0.000341916
0.000352564
0.00035996
0.000365015
0.000368398
0.000370593
0.000371939
0.000372657
0.000372871
0.000372632
0.000371936
0.000370731
0.000368948
0.00036658
0.000364013
0.000363603
0.000372626
0.000400766
0.000452728
0.000531258
0.000674902
0.00103722
0.0021305
0.0050562
0.0103049
0.0150939
0.0179018
0.0209831
0.0287923
0.000238545
0.000202744
0.000236869
0.000275594
0.000305279
0.000326605
0.000341749
0.000352403
0.000359806
0.000364868
0.000368256
0.000370455
0.000371804
0.000372524
0.000372739
0.000372501
0.000371805
0.000370601
0.000368817
0.000366449
0.00036388
0.000363462
0.000372464
0.000400566
0.000452463
0.000530849
0.000674031
0.00103421
0.00211811
0.00502889
0.0102968
0.0150909
0.0178981
0.0209743
0.0287857
0.000238578
0.000202704
0.000236767
0.000275455
0.000305123
0.000326445
0.000341593
0.000352255
0.000359667
0.000364737
0.000368133
0.000370337
0.00037169
0.000372412
0.000372628
0.000372391
0.000371695
0.000370491
0.000368708
0.000366341
0.000363773
0.00036336
0.000372384
0.000400524
0.000452472
0.000530929
0.000674101
0.00103328
0.00210926
0.00499358
0.0102624
0.0150721
0.0178865
0.0209675
0.0288158
0.000238627
0.000202598
0.000236585
0.000275245
0.000304909
0.00032624
0.000341403
0.000352082
0.000359511
0.000364594
0.000368
0.000370212
0.00037157
0.000372294
0.000372513
0.000372278
0.000371583
0.000370381
0.000368599
0.000366231
0.000363658
0.000363228
0.000372214
0.000400275
0.000452111
0.000530483
0.000673836
0.00103432
0.00211155
0.00497911
0.0102299
0.0150537
0.0178782
0.0209715
0.0288642
0.000238742
0.000202535
0.000236461
0.000275085
0.000304733
0.000326062
0.000341232
0.000351923
0.000359364
0.000364459
0.000367874
0.000370093
0.000371455
0.000372183
0.000372403
0.000372168
0.000371473
0.000370271
0.000368487
0.000366116
0.000363533
0.000363075
0.000371994
0.00039993
0.000451581
0.000529739
0.000673149
0.00103582
0.00212155
0.0049924
0.0102227
0.0150497
0.0178802
0.0209842
0.0288999
0.000238811
0.000202428
0.000236282
0.000274872
0.000304513
0.000325851
0.000341039
0.000351749
0.000359209
0.000364319
0.000367746
0.000369972
0.000371339
0.000372069
0.000372291
0.000372056
0.000371362
0.000370158
0.000368373
0.000365996
0.000363397
0.000362879
0.000371646
0.000399315
0.000450594
0.000528275
0.000671369
0.00103601
0.00213331
0.00502407
0.0102429
0.0150621
0.0178913
0.0209984
0.0289065
0.000238827
0.000202323
0.000236114
0.000274672
0.000304302
0.000325644
0.000340844
0.00035157
0.000359045
0.000364169
0.000367606
0.00036984
0.000371211
0.000371944
0.000372167