/*--------------------------------*- C++ -*----------------------------------*\
| =========                 |                                                 |
| \\      /  F ield         | OpenFOAM: The Open Source CFD Toolbox           |
|  \\    /   O peration     | Version:  v2012                                 |
|   \\  /    A nd           | Website:  www.openfoam.com                      |
|    \\/     M anipulation  |                                                 |
\*---------------------------------------------------------------------------*/
FoamFile
{
    version     2.0;
    format      ascii;
    class       volScalarField;
    location    "1";
    object      omega;
}
// * * * * * * * * * * * * * * * * * * * * * * * * * * * * * * * * * * * * * //

dimensions      [0 0 -1 0 0 0 0];


internalField   nonuniform List<scalar> 
78750
(
3444.92
516.73
356.942
206.507
36.9785
27.6843
14.1959
17.3869
15.7238
15.9346
16.5146
15.4042
16.3777
15.2964
16.1523
15.4382
15.6825
15.5727
15.4496
15.4681
15.3624
15.3309
15.2601
15.2041
15.1429
15.0822
15.0218
14.9617
14.9017
14.8416
14.7812
14.7249
14.6758
14.9161
659.266
940.483
10.9947
38.2556
16.8607
8.52494
5.90755
8.73427
6.40386
7.72941
6.80992
7.18849
6.92073
6.96934
6.91792
6.90605
6.87866
6.87606
6.83326
6.8265
6.79824
6.78502
6.76508
6.7441
6.71037
6.66832
6.61961
6.56531
6.50605
6.44232
6.3743
6.30237
6.23465
6.20135
4.87938
974.539
508.615
7.78667
7.88986
6.85598
7.44552
7.11597
6.93799
7.16267
6.81999
6.88491
6.58697
6.54135
6.28664
6.22201
6.12166
6.20592
6.20988
6.22643
6.17051
6.11759
6.06529
6.0291
6.00327
5.98513
5.97059
5.95724
5.9438
5.92977
5.91538
5.90238
5.89771
5.93853
6.37816
8.97554
981.744
501.564
8.87701
8.36765
8.17151
8.1383
8.15565
8.18784
8.16758
8.21876
8.22694
8.22303
8.11982
7.87311
7.21273
6.38053
6.01137
6.2218
6.54486
6.7174
6.70371
6.60115
6.494
6.40949
6.34515
6.2923
6.24393
6.19576
6.14572
6.0932
6.03862
5.9842
5.94663
5.36302
6.80307
983.208
494.905
4.20832
3.90281
4.15583
3.90055
4.14162
3.94786
4.06331
4.79608
5.08369
5.39612
5.63687
5.84112
5.99369
6.03917
6.00472
5.94937
5.92511
5.93504
5.95963
5.97818
5.98489
5.98181
5.972
5.95752
5.93948
5.9185
5.89517
5.87093
5.85123
5.86298
6.05798
7.46975
11.0072
988.353
495.227
6.00049
6.97288
6.95312
6.40727
6.22893
6.20977
6.23194
6.21428
6.20883
6.20331
6.20334
6.21469
6.2468
6.30429
6.36567
6.3968
6.37727
6.31805
6.24688
6.18545
6.13937
6.10535
6.07719
6.05039
6.02235
5.99172
5.95807
5.92158
5.88303
5.84383
5.76508
6.01921
10.2308
989.863
494.479
4.68328
5.15759
5.20616
5.0289
4.98501
5.08374
5.23483
5.36514
5.44818
5.49561
5.52423
5.54998
5.58188
5.625
5.68372
5.75632
5.8314
5.89441
5.9393
5.96683
5.97896
5.97923
5.97116
5.95694
5.93763
5.91365
5.88526
5.85309
5.82104
5.82713
6.20434
8.22707
12.8148
993.19
494.585
4.93587
5.44687
5.79316
6.01585
6.10946
6.12232
6.10864
6.09783
6.09885
6.10948
6.12371
6.13575
6.14119
6.13766
6.12429
6.10213
6.07468
6.04679
6.02089
5.99835
5.9798
5.96372
5.94839
5.93258
5.91553
5.89679
5.87603
5.85293
5.8268
5.79706
5.8641
7.53129
12.9761
994.816
494.535
4.56691
4.92387
5.15869
5.3059
5.41179
5.50042
5.5735
5.62987
5.67351
5.70945
5.7409
5.77008
5.79883
5.8279
5.85658
5.88305
5.90586
5.92363
5.93579
5.94277
5.94436
5.94014
5.93057
5.91616
5.89713
5.87338
5.8448
5.81185
5.77963
5.81323
6.42298
9.07373
14.5707
997.112
494.513
4.68003
5.14912
5.47178
5.67624
5.79618
5.86253
5.89943
5.92212
5.93816
5.95044
5.95981
5.9664
5.97014
5.9711
5.96967
5.96649
5.96218
5.95678
5.95007
5.94189
5.93305
5.92325
5.91213
5.89945
5.88505
5.86866
5.84977
5.82736
5.8002
5.7855
6.22567
9.13414
15.1614
998.741
494.509
4.60776
5.02385
5.29994
5.47347
5.58315
5.65602
5.70792
5.74759
5.77987
5.80733
5.83118
5.85195
5.86989
5.88503
5.89724
5.90642
5.91291
5.91651
5.91737
5.91556
5.91126
5.90385
5.89305
5.87885
5.86125
5.84022
5.81588
5.78992
5.77531
5.88758
6.80731
10.3322
16.3492
1000.52
494.494
4.64851
5.10355
5.40461
5.59285
5.70731
5.77732
5.82199
5.85243
5.87455
5.89125
5.90401
5.91372
5.92093
5.92604
5.92938
5.93123
5.93176
5.93051
5.92754
5.92257
5.91602
5.90774
5.89752
5.88525
5.87079
5.85387
5.83406
5.81071
5.78722
5.85829
6.84673
10.907
17.1501
1001.93
494.489
4.6233
5.06229
5.34871
5.52731
5.63808
5.70911
5.75757
5.79309
5.8207
5.84294
5.86109
5.8759
5.88779
5.89704
5.9038
5.90834
5.91092
5.91139
5.90991
5.90629
5.90072
5.89284
5.8824
5.86931
5.85358
5.83536
5.81546
5.7974
5.79484
5.96169
7.26497
11.8545
18.0878
1003.26
494.478
4.64407
5.10119
5.3953
5.57667
5.68748
5.75704
5.80314
5.8356
5.85958
5.87778
5.89172
5.90237
5.91039
5.91624
5.92026
5.92271
5.92361
5.92292
5.92063
5.91644
5.91052
5.90273
5.89287
5.88082
5.86648
5.84972
5.83025
5.8076
5.78844
5.92316
7.24251
12.189
18.6312
1004.7
494.472
4.63894
5.09067
5.37877
5.55646
5.6662
5.73651
5.78424
5.81862
5.84449
5.86443
5.87992
5.89191
5.90103
5.90773
5.91235
5.91521
5.91635
5.91593
5.91393
5.91007
5.9044
5.89671
5.8868
5.87459
5.86013
5.84353
5.82536
5.80721
5.79977
6.02759
7.60811
12.6408
19.2336
1006.77
494.48
4.65775
5.11543
5.40475
5.58181
5.69058
5.76005
5.80696
5.84034
5.86495
5.88341
5.89733
5.90776
5.91544
5.92091
5.92454
5.92658
5.92704
5.92608
5.9237
5.91954
5.91358
5.90569
5.89568
5.88345
5.86877
5.85081
5.82714
5.7977
5.78568
6.16819
8.40601
13.8153
20.2838
1008.94
494.491
4.66398
5.11952
5.40587
5.5811
5.68949
5.75953
5.8074
5.84174
5.86718
5.88633
5.90087
5.91172
5.91962
5.92512
5.92864
5.93044
5.93069
5.92949
5.92673
5.92211
5.91555
5.90709
5.89654
5.88368
5.86788
5.8469
5.81709
5.7807
5.80127
6.54389
9.87238
16.0154
21.8428
1010.43
494.505
4.68034
5.13774
5.42296
5.59679
5.70454
5.7746
5.82282
5.85773
5.88376
5.90317
5.91751
5.92795
5.93533
5.9403
5.94328
5.94457
5.94433
5.94263
5.9393
5.93405
5.9267
5.91717
5.90543
5.89141
5.87332
5.84588
5.80508
5.75834
5.81211
6.87182
11.1619
18.025
23.1896
1011.28
494.517
4.69065
5.14714
5.43037
5.60323
5.71129
5.78254
5.83256
5.86921
5.89626
5.91619
5.93071
5.94111
5.94833
5.95306
5.95578
5.95681
5.9563
5.95427
5.95051
5.94472
5.93666
5.92622
5.91342
5.898
5.87766
5.84655
5.80482
5.76395
5.83961
7.00429
11.7594
19.251
24.0376
1011.92
494.53
4.70527
5.16172
5.44336
5.61547
5.72403
5.79698
5.84902
5.88678
5.91429
5.93423
5.94853
5.95861
5.9655
5.96995
5.97245
5.97332
5.97267
5.97046
5.96647
5.96035
5.95173
5.94041
5.92631
5.9091
5.88655
5.85582
5.82327
5.80225
5.89414
7.00169
11.7293
19.7691
24.4916
1012.62
494.543
4.71858
5.17377
5.45359
5.62537
5.73523
5.81068
5.86419
5.90268
5.93042
5.95034
5.96452
5.97447
5.98123
5.98558
5.988
5.98879
5.98807
5.98578
5.98174
5.97559
5.96692
5.95532
5.94046
5.92183
5.89826
5.87359
5.85949
5.87137
6.00567
7.12045
11.6699
19.948
24.7848
1013.61
494.557
4.73431
5.18797
5.46599
5.63779
5.74977
5.82681
5.88127
5.92027
5.94825
5.96824
5.9824
5.99226
5.99894
6.0032
6.00555
6.00625
6.00541
6.00296
5.9987
5.99229
5.98334
5.97145
5.95615
5.93671
5.91326
5.89748
5.90376
5.95006
6.14786
7.41724
11.9766
20.1655
25.1086
1014.78
494.573
4.75071
5.20199
5.47818
5.65043
5.76449
5.8427
5.89792
5.9374
5.96564
5.98572
5.99988
6.00969
6.01631
6.02052
6.0228
6.02342
6.02248
6.0199
6.01545
6.00881
5.99957
5.98728
5.97151
5.95166
5.93086
5.92567
5.95188
6.03033
6.30123
7.82829
12.6363
20.5828
25.5231
1015.93
494.589
4.76891
5.21717
5.49161
5.66511
5.78016
5.85924
5.91511
5.95499
5.98345
6.00362
6.01777
6.02754
6.03409
6.03821
6.0404
6.04092
6.03984
6.03708
6.03241
6.02548
6.01589
6.00318
5.98696
5.96713
5.95065
5.95719
6.00237
6.10894
6.44905
8.25718
13.4388
21.1433
25.9881
1016.95
494.607
4.78813
5.23241
5.50501
5.67978
5.7957
5.87554
5.932
5.97229
6.00097
6.02124
6.0354
6.04514
6.05163
6.05568
6.05779
6.05821
6.057
6.05407
6.04917
6.04197
6.03202
6.01892
6.0024
5.98345
5.97382
5.99468
6.05988
6.1919
6.58608
8.63059
14.1968
21.73
26.4527
1017.9
494.626
4.80884
5.24821
5.51922
5.69474
5.81137
5.89189
5.9489
5.98954
6.01843
6.03879
6.05298
6.0627
6.06915
6.07314
6.07516
6.07548
6.07414
6.07103
6.06592
6.05843
6.04815
6.03471
6.01813
6.00143
6.00204
6.04108
6.1293
6.28668
6.71657
8.92473
14.8316
22.2788
26.9036
1018.87
494.648
4.83093
5.26441
5.53442
5.70975
5.82683
5.90797
5.96548
6.00648
6.03558
6.05605
6.07029
6.08
6.08642
6.09036
6.09231
6.09254
6.09108
6.08782
6.0825
6.07476
6.0642
6.05056
6.03444
6.02267
6.03872
6.10205
6.2188
6.40454
6.85352
9.14674
15.3298
22.7739
27.3489
1019.96
494.672
4.85469
5.28098
5.54952
5.72469
5.84221
5.92393
5.98191
6.02323
6.05252
6.07311
6.08739
6.09711
6.10351
6.1074
6.1093
6.10945
6.10788
6.10447
6.09897
6.091
6.0802
6.06654
6.05187
6.04882
6.08673
6.1814
6.33463
6.55506
7.01817
9.33515
15.7213
23.2294
27.8047
1021.22
494.702
4.87988
5.29771
5.56449
5.7394
5.85735
5.93962
5.99805
6.03966
6.06914
6.08983
6.10416
6.1139
6.12029
6.12416
6.12601
6.12609
6.12442
6.12088
6.11521
6.10703
6.09607
6.08265
6.0709
6.0815
6.1484
6.281
6.47831
6.74105
7.22308
9.52987
16.0421
23.6608
28.2808
1022.66
494.738
4.90671
5.31514
5.5796
5.7541
5.87242
5.95517
6.01397
6.05584
6.08547
6.10625
6.12062
6.13036
6.13674
6.14058
6.14239
6.1424
6.14064
6.13697
6.13113
6.12276
6.11168
6.09885
6.0921
6.12225
6.22511
6.40147
6.64942
6.96268
7.48015
9.78195
16.353
24.0918
28.7872
1024.29
494.782
4.93497
5.33347
5.59471
5.76872
5.88734
5.9705
6.02962
6.07168
6.10142
6.12225
6.13664
6.14638
6.15274
6.15655
6.15831
6.15826
6.1564
6.1526
6.1466
6.13803
6.12692
6.11517
6.11639
6.17199
6.31607
6.54055
6.84333
7.21288
7.78788
10.1238
16.7157
24.5467
29.3312
1026.12
494.834
4.96429
5.35158
5.6096
5.78314
5.90203
5.98554
6.0449
6.08709
6.1169
6.13775
6.15214
6.16186
6.16819
6.17196
6.17366
6.17353
6.17157
6.16762
6.16144
6.15269
6.14161
6.13175
6.1448
6.23075
6.41964
6.69492
7.05509
7.48578
8.14593
10.579
17.181
25.0458
29.9163
1028.11
494.897
4.99445
5.36954
5.62436
5.79741
5.9165
6.00027
6.05979
6.10204
6.13186
6.15268
6.16702
6.17669
6.18297
6.18668
6.18831
6.18809
6.186
6.1819
6.1755
6.16657
6.15565
6.14874
6.17729
6.297
6.53137
6.85736
7.27492
7.76955
8.54523
11.152
17.7802
25.6009
30.5391
1030.23
494.969
5.0253
5.38734
5.63892
5.81144
5.93065
6.01457
6.07415
6.1164
6.14616
6.1669
6.18117
6.19076
6.19696
6.2006
6.20214
6.2018
6.19957
6.19528
6.18865
6.17954
6.16895
6.16633
6.21366
6.36924
6.6477
7.02211
7.49494
8.05656
8.981
11.8352
18.517
26.2116
31.1898
1032.43
495.051
5.05653
5.40474
5.65307
5.82506
5.9443
6.0283
6.08786
6.13003
6.15968
6.18031
6.19445
6.20394
6.21004
6.21358
6.21502
6.21455
6.21215
6.20765
6.20076
6.19148
6.18149
6.18481
6.25406
6.4468
6.76744
7.18822
7.71417
8.34758
9.45379
12.6161
19.3786
26.8689
31.8534
1034.65
495.142
5.0878
5.42158
5.66674
5.83817
5.95738
6.04134
6.10082
6.14284
6.17233
6.1928
6.2068
6.21616
6.22215
6.22557
6.22688
6.22626
6.22368
6.21894
6.21179
6.20236
6.19332
6.20427
6.29743
6.52648
6.88576
7.34978
7.92728
8.64251
9.97074
13.4816
20.3356
27.5543
32.51
1036.83
495.238
5.11858
5.43755
5.67978
5.85069
5.9698
6.05367
6.11298
6.1548
6.18408
6.20434
6.21816
6.22736
6.2332
6.23649
6.23765
6.23686
6.23407
6.22908
6.22164
6.21209
6.2044
6.22452
6.34167
6.60385
6.99612
7.49796
8.124
8.9345
10.5285
14.4169
21.3606
28.2495
33.142
1038.91
495.339
5.14774
5.45239
5.69198
5.86239
5.98136
6.06507
6.12416
6.16574
6.19478
6.21482
6.22845
6.23748
6.24316
6.2463
6.2473
6.24633
6.24331
6.23805
6.23032
6.22069
6.21479
6.24506
6.38465
6.67543
7.09446
7.62814
8.29977
9.22156
11.1255
15.4147
22.4302
28.9428
33.7368
1040.85
495.442
5.17503
5.46621
5.70348
5.8734
5.99216
6.07564
6.13446
6.17574
6.2045
6.22429
6.23769
6.24652
6.25204
6.25501
6.25584
6.25467
6.25142
6.24585
6.23783
6.22817
6.22435
6.2647
6.4237
6.73683
7.17551
7.73461
8.45087
9.505
11.7637
16.4753
23.5342
29.6303
34.2887
1042.61
495.543
5.19974
5.4785
5.71376
5.88326
6.0018
6.08504
6.14359
6.18459
6.21306
6.2326
6.24578
6.25442
6.25976
6.26256
6.26322
6.26184
6.25833
6.25245
6.24413
6.23446
6.23287
6.28253
6.45723
6.78623
7.23808
7.81649
8.57779
9.78754
12.4386
17.5854
24.6539
30.3029
34.7865
1044.11
495.641
5.22194
5.48959
5.72317
5.89228
6.01057
6.09353
6.15176
6.19245
6.22062
6.23989
6.25284
6.26128
6.26644
6.26906
6.26953
6.26793
6.26417
6.25798
6.24935
6.23971
6.24029
6.29789
6.48413
6.82289
7.28207
7.87454
8.68239
10.0674
13.131
18.7068
25.7493
30.942
35.2186
1045.3
495.732
5.24155
5.49937
5.73151
5.90024
6.01826
6.10094
6.15885
6.19922
6.22711
6.24611
6.25883
6.26707
6.27205
6.27449
6.27477
6.27296
6.26894
6.26244
6.2535
6.24389
6.24645
6.31034
6.50425
6.84768
7.3094
7.9118
8.76834
10.3406
13.8158
19.7867
26.7634
31.5265
35.5839
1046.2
495.816
5.25847
5.50776
5.73875
5.90716
6.02492
6.10732
6.16493
6.205
6.23261
6.25136
6.26386
6.27191
6.27671
6.27899
6.27909
6.27707
6.2728
6.26601
6.25678
6.24718
6.25141
6.31994
6.5183
6.86276
7.32368
7.93327
8.83973
10.6039
14.4693
20.7863
27.6532
32.0453
35.8973
1046.88
495.892
5.27313
5.51512
5.74511
5.91317
6.03066
6.11275
6.17006
6.20985
6.23719
6.25571
6.26801
6.27588
6.28052
6.28264
6.28256
6.28035
6.27586
6.26879
6.25928
6.24968
6.25519
6.32682
6.52709
6.87007
7.32831
7.9442
8.90183
10.8538
15.0692
21.6803
28.4083
32.4957
36.169
1047.41
495.959
5.28537
5.52115
5.75033
5.91813
6.03538
6.11724
6.1743
6.21383
6.24094
6.25926
6.27137
6.27908
6.28358
6.28555
6.28532
6.28293
6.27822
6.2709
6.26113
6.25149
6.25788
6.33124
6.53145
6.87116
7.3254
7.94708
8.95625
11.0857
15.6046
22.4595
29.0448
32.8803
36.3981
1047.84
496.018
5.29572
5.52634
5.75485
5.92236
6.03937
6.12097
6.17778
6.21708
6.24397
6.26211
6.27406
6.28163
6.28599
6.28783
6.28747
6.28492
6.28002
6.27248
6.26248
6.25276
6.25967
6.33369
6.53244
6.86781
7.31751
7.94494
9.00445
11.2974
16.0727
23.1244
29.5767
33.2044
36.5884
1048.23
496.069
5.30414
5.53041
5.75837
5.92566
6.04248
6.12389
6.18051
6.21963
6.24635
6.26433
6.27615
6.28359
6.28784
6.28957
6.28909
6.2864
6.28133
6.27359
6.26337
6.25353
6.2606
6.33434
6.53047
6.86057
7.30527
7.93871
9.04849
11.4949
16.4893
23.6882
30.0176
33.4781
36.7525
1048.6
496.113
5.31105
5.53381
5.76131
5.92839
6.04501
6.12623
6.18267
6.22161
6.24819
6.26603
6.27772
6.28506
6.28921
6.29084
6.29025
6.28744
6.28222
6.2743
6.26388
6.25387
6.26084
6.33358
6.52623
6.85037
7.28948
7.92829
9.08681
11.679
16.8718
24.1776
30.3871
33.713
36.8993
1048.93
496.15
5.31664
5.5365
5.76361
5.93049
6.04695
6.12802
6.18431
6.22312
6.24957
6.26729
6.27889
6.28614
6.2902
6.29174
6.29105
6.28812
6.28277
6.27469
6.26408
6.25388
6.26051
6.33173
6.52036
6.83823
7.27159
7.91535
9.11986
11.8463
17.2204
24.6088
30.7009
33.9168
37.0311
1049.22
496.18
5.32095
5.53848
5.7653
5.93203
6.04836
6.12931
6.18547
6.22417
6.2505
6.26813
6.27964
6.28681
6.2908
6.29227
6.29149
6.28848
6.28301
6.27478
6.264
6.25358
6.25973
6.32911
6.51351
6.82512
7.25257
7.90008
9.1452
11.989
17.5252
24.9851
30.9666
34.0918
37.1453
1049.43
496.205
5.32446
5.54012
5.76664
5.9332
6.0494
6.13023
6.18629
6.22489
6.25115
6.2687
6.28014
6.28725
6.29117
6.29257
6.29173
6.28863
6.28306
6.27471
6.26377
6.25312
6.25868
6.32613
6.50653
6.81251
7.23482
7.88553
9.16465
12.1016
17.769
25.2962
31.1836
34.2369
37.2401
1049.6
496.226
5.32694
5.54108
5.76739
5.93386
6.04998
6.13075
6.18675
6.22529
6.25149
6.26899
6.28037
6.28743
6.2913
6.29265
6.29174
6.28857
6.28292
6.27447
6.26339
6.25251
6.25741
6.32281
6.49924
6.79995
7.21762
7.8712
9.17967
12.1897
17.9524
25.5392
31.3536
34.3528
37.3171
1049.75
496.242
5.32885
5.54179
5.7679
5.93424
6.05028
6.13099
6.18694
6.22544
6.2516
6.26906
6.28041
6.28743
6.29126
6.29257
6.29162
6.28839
6.28267
6.27413
6.26293
6.25182
6.25603
6.31939
6.49202
6.78782
7.20133
7.85759
9.19263
12.2648
18.0935
25.721
31.4822
34.4437
37.3815
1049.92
496.255
5.33013
5.54213
5.76807
5.93434
6.05035
6.13103
6.18697
6.22544
6.25157
6.269
6.28032
6.2873
6.2911
6.29237
6.29138
6.2881
6.28232
6.2737
6.26239
6.25104
6.2545
6.31568
6.48438
6.77516
7.18435
7.84304
9.20463
12.3402
18.2272
25.8698
31.5855
34.5188
37.4396
1050.1
496.266
5.33096
5.54221
5.768
5.93419
6.05015
6.13082
6.18674
6.22521
6.25132
6.26874
6.28004
6.287
6.29078
6.29202
6.29099
6.28767
6.28184
6.27316
6.26175
6.25017
6.2529
6.31198
6.47692
6.76288
7.1676
7.82756
9.213
12.4129
18.3674
26.0071
31.6759
34.5849
37.4931
1050.25
496.273
5.33146
5.54212
5.76777
5.93389
6.04982
6.13048
6.18641
6.22487
6.25099
6.26839
6.27968
6.28662
6.29037
6.29159
6.29053
6.28717
6.28129
6.27255
6.26104
6.24925
6.25126
6.30835
6.46982
6.75139
7.15183
7.812
9.21613
12.4721
18.5047
26.1446
31.7612
34.6452
37.5391
1050.32
496.279
5.33164
5.54182
5.76732
5.93338
6.0493
6.12996
6.1859
6.22438
6.25049
6.2679
6.27917
6.2861
6.28984
6.29103
6.28994
6.28656
6.28064
6.27185
6.26026
6.24828
6.2497
6.30513
6.46383
6.74188
7.13857
7.79746
9.21199
12.5028
18.6024
26.2624
31.8331
34.6941
37.572
1050.33
496.283
5.33168
5.54142
5.76676
5.93275
6.04866
6.12933
6.18529
6.22379
6.24992
6.26733
6.27861
6.28553
6.28926
6.29044
6.28934
6.28593
6.27998
6.27116
6.25951
6.2474
6.24836
6.30261
6.45946
6.73532
7.12957
7.78656
9.20373
12.508
18.6476
26.3434
31.884
34.728
37.5917
1050.34
496.286
5.33159
5.54093
5.76613
5.93207
6.04797
6.12866
6.18464
6.22315
6.2493
6.26672
6.278
6.28492
6.28864
6.28981
6.28869
6.28527
6.27931
6.27046
6.25877
6.24656
6.24716
6.30052
6.45611
6.73077
7.12405
7.78037
9.19667
12.4988
18.6492
26.3803
31.9109
34.7471
37.6035
1050.38
496.288
5.33142
5.54039
5.76543
5.9313
6.04718
6.12789
6.1839
6.22244
6.24861
6.26605
6.27734
6.28427
6.28799
6.28916
6.28804
6.28461
6.27864
6.26977
6.25806
6.24576
6.24609
6.2988
6.45351
6.72748
7.12068
7.77793
9.19554
12.4933
18.6371
26.3876
31.9209
34.7568
37.6136
1050.46
496.291
5.33132
5.53994
5.76482
5.93061
6.04648
6.12718
6.1832
6.22176
6.24794
6.26539
6.27669
6.28363
6.28736
6.28853
6.28741
6.28398
6.278
6.26913
6.2574
6.24504
6.24509
6.2971
6.45081
6.72398
7.11722
7.77616
9.19762
12.4957
18.6275
26.3839
31.9241
34.7637
37.6255
1050.57
496.292
5.33106
5.5394
5.76414
5.92988
6.04572
6.12643
6.18245
6.22102
6.24722
6.26469
6.276
6.28295
6.28668
6.28786
6.28674
6.28331
6.27733
6.26844
6.25669
6.24425
6.24399
6.29516
6.44749
6.71929
7.11213
7.77351
9.2035
12.513
18.6358
26.3826
31.9272
34.7708
37.6388
1050.67
496.294
5.33094
5.53904
5.76361
5.92924
6.04503
6.12572
6.18174
6.22031
6.24652
6.26399
6.27532
6.28227
6.28601
6.28719
6.28607
6.28263
6.27664
6.26774
6.25596
6.24343
6.24281
6.29294
6.4435
6.71328
7.10469
7.76762
9.2081
12.5412
18.6738
26.3995
31.9383
34.7819
37.6541
1050.74
496.295
5.3306
5.53848
5.76293
5.9285
6.04427
6.12495
6.18099
6.21957
6.24579
6.26327
6.27461
6.28157
6.28531
6.28649
6.28537
6.28193
6.27593
6.26702
6.25521
6.2426
6.24164
6.2908
6.43966
6.70738
7.09697
7.76061
9.21036
12.5697
18.7327
26.4364
31.9583
34.797
37.6688
1050.75
496.296
5.33039
5.53808
5.76235
5.92781
6.04353
6.12419
6.18022
6.21881
6.24504
6.26253
6.27388
6.28085
6.28459
6.28577
6.28464
6.28119
6.27518
6.26625
6.25442
6.24172
6.24047
6.28877
6.43615
6.70193
7.08929
7.75157
9.20426
12.5786
18.7821
26.4854
31.9838
34.8129
37.678
1050.7
496.296
5.33003
5.53743
5.76155
5.92696
6.04268
6.12337
6.17943
6.21805
6.24431
6.26183
6.27319
6.28017
6.28392
6.2851
6.28397
6.28052
6.2745
6.26557
6.25372
6.24099
6.2396
6.28751
6.43425
6.69917
7.08526
7.74549
9.19346
12.5589
18.7789
26.5117
31.9984
34.8202
37.6766
1050.64
496.296
5.32958
5.53669
5.76068
5.92603
6.04175
6.12247
6.17857
6.21724
6.24353
6.26108
6.27246
6.27946
6.28322
6.28441
6.28328
6.27983
6.27382
6.26488
6.25304
6.2403
6.23886
6.28667
6.43324
6.69788
7.08337
7.74179
9.18272
12.5264
18.7295
26.4995
31.9943
34.8162
37.6687
1050.63
496.297
5.32933
5.53609
5.75989
5.92517
6.04088
6.12163
6.17778
6.2165
6.24285
6.26044
6.27185
6.27886
6.28264
6.28383
6.28271
6.27926
6.27324
6.26431
6.25247
6.23973
6.23832
6.28625
6.433
6.69786
7.08362
7.74198
9.1796
12.5042
18.6684
26.4558
31.9745
34.8051
37.663
1050.7
496.298
5.32868
5.53501
5.75869
5.92398
6.03977
6.12062
6.17687
6.21568
6.2421
6.25974
6.27119
6.27823
6.28202
6.28322
6.28211
6.27867
6.27266
6.26373
6.25189
6.23912
6.23762
6.28534
6.43168
6.69599
7.0814
7.7407
9.18344
12.5116
18.6456
26.4164
31.956
34.7976
37.6669
1050.82
496.3
5.32829
5.53427
5.75778
5.92301
6.0388
6.1197
6.17602
6.2149
6.24138
6.25908
6.27057
6.27763
6.28144
6.28265
6.28154
6.27809
6.27208
6.26315
6.25128
6.23847
6.23682
6.28419
6.4299
6.69335
7.07788
7.73769
9.18877
12.5384
18.6713
26.4093
31.9528
34.8
37.6781
1050.9
496.301
5.32763
5.53321
5.75657
5.92179
6.03766
6.11866
6.17509
6.21408
6.24065
6.2584
6.26993
6.27702
6.28084
6.28206
6.28095
6.27751
6.27149
6.26255
6.25065
6.23775
6.2358
6.28239
6.42681
6.68857
7.07117
7.7302
9.18938
12.5688
18.7277
26.4361
31.9662
34.8107
37.6903
1050.91
496.302
5.32698
5.53222
5.75542
5.92061
6.03653
6.11761
6.17414
6.21321
6.23985
6.25767
6.26924
6.27635
6.28019
6.28141
6.2803
6.27685
6.27083
6.26187
6.24995
6.23697
6.23477
6.28077
6.42428
6.6849
7.06571
7.72226
9.18301
12.5841
18.7851
26.4815
31.9888
34.8242
37.6979
1050.86
496.303
5.32632
5.53123
5.75428
5.91945
6.03542
6.1166
6.17323
6.21239
6.23911
6.25698
6.26858
6.27572
6.27957
6.28079
6.27969
6.27624
6.27021
6.26124
6.2493
6.23625
6.23381
6.27927
6.42208
6.682
7.06156
7.71495
9.1708
12.5754
18.8107
26.5202
32.0085
34.834
37.698
1050.79
496.303
5.32566
5.53025
5.75314
5.91829
6.03431
6.11556
6.17227
6.21151
6.23829
6.25621
6.26785
6.27501
6.27887
6.28011
6.27901
6.27556
6.26953
6.26056
6.24861
6.23554
6.23304
6.27844
6.42143
6.68182
7.06132
7.71155
9.15736
12.5489
18.7946
26.5339
32.0161
34.8357
37.692
1050.74
496.303
5.32512
5.52943
5.75218
5.91731
6.03336
6.11467
6.17143
6.21073
6.23755
6.2555
6.26717
6.27435
6.27822
6.27947
6.27837
6.27492
6.2689
6.25992
6.24798
6.23492
6.23247
6.27811
6.42185
6.68359
7.06444
7.71353
9.15025
12.5235
18.7576
26.5229
32.0116
34.8311
37.6851
1050.74
496.303
5.32475
5.52877
5.75135
5.91641
6.03246
6.1138
6.17059
6.20992
6.23677
6.25475
6.26643
6.27363
6.27751
6.27876
6.27767
6.27422
6.2682
6.25923
6.24729
6.23428
6.23199
6.27816
6.42315
6.68689
7.0699
7.71966
9.15118
12.5132
18.7344
26.5043
32.003
34.8258
37.6828
1050.77
496.304
5.3245
5.52821
5.75064
5.91565
6.03169
6.11304
6.16984
6.20917
6.23603
6.25402
6.26571
6.27292
6.27681
6.27806
6.27697
6.27353
6.26751
6.25854
6.24662
6.23367
6.23162
6.27852
6.42514
6.69145
7.07763
7.7298
9.1577
12.5112
18.736
26.4983
32.0002
34.8252
37.6858
1050.79
496.305
5.32456
5.52795
5.75019
5.91509
6.03107
6.11237
6.16915
6.20845
6.23529
6.25327
6.26496
6.27217
6.27607
6.27733
6.27625
6.27281
6.26679
6.25784
6.24594
6.23305
6.2312
6.27873
6.42675
6.69545
7.0853
7.74093
9.16357
12.4945
18.7211
26.4951
31.9992
34.8254
37.6862
1050.76
496.307
5.32485
5.5279
5.74994
5.9147
6.03058
6.11181
6.16852
6.20778
6.23459
6.25255
6.26424
6.27145
6.27536
6.27663
6.27555
6.27212
6.26612
6.25718
6.24531
6.23248
6.23082
6.27886
6.42788
6.69841
7.0916
7.7519
9.17074
12.4644
18.6548
26.4642
31.9857
34.8178
37.679
1050.76
496.309
5.32512
5.52786
5.74972
5.91436
6.03015
6.1113
6.16795
6.20715
6.23392
6.25186
6.26355
6.27077
6.27469
6.27597
6.27491
6.2715
6.26551
6.25659
6.24475
6.23196
6.23034
6.27834
6.42711
6.69775
7.09293
7.7585
9.1827
12.4525
18.5686
26.3979
31.9554
34.8014
37.6705
1050.85
496.312
5.3255
5.52808
5.74974
5.91419
6.02984
6.11086
6.16739
6.20652
6.23323
6.25114
6.26281
6.27003
6.27395
6.27525
6.2742
6.27079
6.26481
6.2559
6.24408
6.23128
6.2295
6.27673
6.42367
6.69194
7.08628
7.75765
9.20368
12.4979
18.5553
26.3426
31.9287
34.7902
37.6753
1051.02
496.313
5.32568
5.52814
5.74962
5.91392
6.02944
6.11036
6.16681
6.20587
6.23254
6.25042
6.26208
6.26929
6.27321
6.27451
6.27345
6.27004
6.26406
6.25514
6.24329
6.23043
6.22833
6.27425
6.41816
6.68184
7.07155
7.74483
9.21935
12.5887
18.6717
26.3678
31.9398
34.8021
37.6982
1051.11
496.313
5.3256
5.52794
5.74926
5.91344
6.02886
6.10971
6.1661
6.20511
6.23175
6.24961
6.26125
6.26846
6.27238
6.27366
6.2726
6.26918
6.26317
6.25423
6.24236
6.22944
6.22701
6.27171
6.41288
6.67197
7.05535
7.72512
9.21682
12.6633
18.8576
26.4828
31.9943
34.8354
37.7223
1050.98
496.312
5.32539
5.52753
5.74869
5.91277
6.02812
6.10891
6.16527
6.20426
6.23088
6.24874
6.26038
6.26759
6.2715
6.27278
6.27171
6.26827
6.26225
6.25329
6.24141
6.22849
6.22606
6.27049
6.41079
6.6676
7.04581
7.70643
9.18634
12.6469
18.9606
26.6075
32.0534
34.8639
37.7223
1050.67
496.312
5.32509
5.52688
5.7479
5.91191
6.02724
6.10802
6.16439
6.20339
6.23004
6.24791
6.25957
6.26679
6.27072
6.272
6.27093
6.2675
6.26148
6.25253
6.24067
6.22784
6.22569
6.27088
6.41246
6.67026
7.04707
7.69794
9.14262
12.5323
18.8691
26.6364
32.0682
34.8616
37.6912
1050.4
496.312
5.32459
5.52593
5.74686
5.91087
6.02622
6.10705
6.16346
6.20252
6.22921
6.24712
6.25882
6.26608
6.27003
6.27134
6.27029
6.26688
6.2609
6.25199
6.24019
6.22748
6.22572
6.2722
6.41616
6.67689
7.05585
7.70203
9.11317
12.3948
18.6179
26.5162
32.0118
34.8209
37.6473
1050.41
496.314
5.32399
5.52492
5.74583
5.90986
6.02525
6.10613
6.16261
6.20172
6.22847
6.24643
6.25818
6.26547
6.26945
6.2708
6.26978
6.26641
6.26046
6.2516
6.23986
6.22726
6.22584
6.27322
6.41861
6.68129
7.06303
7.71126
9.11616
12.3399
18.3909
26.3151
31.915
34.7666
37.6233
1050.75
496.317
5.32311
5.52386
5.74481
5.90889
6.02434
6.10528
6.16181
6.20099
6.22779
6.2458
6.25758
6.2649
6.26892
6.27029
6.2693
6.26595
6.26002
6.25118
6.23946
6.22688
6.22554
6.27312
6.41854
6.68118
7.06387
7.71727
9.14412
12.4046
18.3608
26.1751
31.8442
34.7373
37.6402
1051.18
496.319
5.3219
5.52265
5.74369
5.90785
6.02336
6.10437
6.16098
6.20021
6.22707
6.24513
6.25694
6.26429
6.26832
6.26971
6.26872
6.26537
6.25944
6.25058
6.23883
6.22616
6.22449
6.27107
6.41454
6.67456
7.05504
7.71243
9.17494
12.5438
18.555
26.2087
31.8581
34.7598
37.6909
1051.42
496.32
5.32032
5.52134
5.74253
5.90676
6.02235
6.10343
6.1601
6.19939
6.22629
6.24437
6.25621
6.26357
6.2676
6.26898
6.26798
6.26461
6.25865
6.24975
6.23793
6.22512
6.22295
6.26808
6.40907
6.66577
7.04195
7.69772
9.18301
12.658
18.8326
26.3847
31.9421
34.8143
37.7348
1051.27
496.318
5.31872
5.52006
5.74133
5.90562
6.02126
6.10241
6.15915
6.1985
6.22545
6.24357
6.25543
6.26279
6.26683
6.2682
6.26719
6.2638
6.2578
6.24886
6.23698
6.22405
6.22155
6.26589
6.40597
6.66176
7.03549
7.68506
9.16356
12.674
19.0155
26.5881
32.0436
34.8685
37.7475
1050.89
496.314
5.31686
5.51849
5.73984
5.90424
6.01999
6.10124
6.15808
6.19751
6.22453
6.2427
6.25458
6.26197
6.26601
6.26738
6.26637
6.26296
6.25696
6.248
6.23611
6.22316
6.22065
6.2652
6.4063
6.66382
7.03808
7.68075
9.12775
12.5846
18.9926
26.6857
32.0906
34.8815
37.7183
1050.52
496.311
5.3153
5.5171
5.73849
5.90295
6.01879
6.10012
6.15705
6.19656
6.22364
6.24187
6.25379
6.2612
6.26526
6.26664
6.26563
6.26224
6.25624
6.24729
6.23541
6.22252
6.22026
6.26583
6.40948
6.67125
7.0502
7.69132
9.10593
12.4677
18.8226
26.6573
32.0831
34.8666
37.6824
1050.43
496.308
5.31382
5.51571
5.73714
5.90168
6.01762
6.09906
6.15608
6.19568
6.22283
6.24111
6.25308
6.26052
6.26461
6.26601
6.26502
6.26164
6.25566
6.24673
6.23489
6.22208
6.22014
6.26686
6.41321
6.67949
7.06462
7.71004
9.10876
12.392
18.6237
26.5214
32.0132
34.8193
37.6479
1050.56
496.306
5.31255
5.51446
5.73588
5.90048
6.01649
6.09802
6.15513
6.19482
6.22204
6.24038
6.2524
6.25988
6.264
6.26542
6.26445
6.26109
6.25513
6.24623
6.23441
6.22165
6.21996
6.26752
6.41564
6.68499
7.07546
7.7292
9.13412
12.3956
18.5366
26.4196
31.9717
34.804
37.658
1050.83
496.305
5.31147
5.51338
5.73482
5.89947
6.01555
6.09716
6.15434
6.19409
6.22137
6.23975
6.2518
6.25931
6.26344
6.26488
6.26392
6.26058
6.25463
6.24573
6.23392
6.22119
6.21961
6.26755
6.4164
6.68709
7.08049
7.74059
9.15756
12.4273
18.5217
26.3364
31.9188
34.7754
37.6569
1050.95
496.305
5.3105
5.51237
5.73378
5.89844
6.01457
6.09624
6.15349
6.19331
6.22065
6.23908
6.25116
6.2587
6.26285
6.26431
6.26336
6.26002
6.25407
6.24518
6.23336
6.22062
6.21904
6.26695
6.41568
6.68636
7.08084
7.74611
9.17951
12.48
18.5875
26.369
31.9523
34.8104
37.697
1051.05
496.304
5.30964
5.51147
5.73285
5.89754
6.01372
6.09544
6.15275
6.19261
6.21998
6.23844
6.25056
6.25811
6.26227
6.26373
6.26279
6.25945
6.2535
6.2446
6.23278
6.22001
6.21831
6.26586
6.41384
6.68348
7.07717
7.74343
9.18327
12.4966
18.5987
26.3338
31.911
34.7761
37.6701
1050.93
496.304
5.30886
5.5106
5.73192
5.8966
6.01281
6.09458
6.15194
6.19185
6.21927
6.23776
6.2499
6.25747
6.26165
6.26312
6.26218
6.25883
6.25288
6.24397
6.23212
6.21931
6.21746
6.26459
6.41171
6.68013
7.07275
7.7404
9.19148
12.5378
18.685
26.4328
31.9946
34.8435
37.7228
1051.02
496.303
5.30813
5.50977
5.73104
5.89573
6.01197
6.09378
6.15118
6.19113
6.21859
6.23711
6.24927
6.25686
6.26104
6.26252
6.26158
6.25823
6.25228
6.24336
6.2315
6.21865
6.21667
6.26338
6.40968
6.67686
7.06766
7.73253
9.17882
12.5188
18.655
26.3535
31.9065
34.7648
37.6532
1050.79
496.303
5.3075
5.50899
5.73017
5.89484
6.0111
6.09295
6.1504
6.19039
6.21789
6.23644
6.24863
6.25623
6.26043
6.26191
6.26097
6.25763
6.25167
6.24274
6.23087
6.21799
6.21592
6.26237
6.40825
6.6749
7.06528
7.73111
9.18383
12.5483
18.7569
26.5202
32.054
34.8849
37.747
1050.98
496.303
5.30688
5.50816
5.72926
5.89392
6.01022
6.09212
6.14962
6.18967
6.2172
6.23579
6.248
6.25562
6.25984
6.26133
6.2604
6.25706
6.25111
6.24219
6.23033
6.21746
6.21536
6.26176
6.40749
6.6738
7.06309
7.72398
9.15718
12.466
18.5971
26.315
31.8634
34.7221
37.6064
1050.62
496.304
5.30637
5.50742
5.72843
5.89307
6.00938
6.09132
6.14887
6.18896
6.21653
6.23515
6.24739
6.25503
6.25926
6.26076
6.25984
6.25651
6.25056
6.24165
6.2298
6.21692
6.21483
6.26124
6.40687
6.67307
7.06305
7.72807
9.17607
12.5169
18.7055
26.5439
32.0945
34.9217
37.7739
1051.12
496.305
5.30589
5.50669
5.72759
5.8922
6.00853
6.0905
6.14809
6.18823
6.21584
6.2345
6.24676
6.25442
6.25867
6.26018
6.25928
6.25596
6.25002
6.24112
6.22928
6.2164
6.21425
6.26043
6.40544
6.67055
7.05864
7.71847
9.1498
12.4339
18.4619
26.1522
31.7487
34.6361
37.544
1050.66
496.306
5.30538
5.506
5.72681
5.89138
6.00771
6.08971
6.14733
6.18749
6.21514
6.23382
6.2461
6.25378
6.25803
6.25955
6.25865
6.25533
6.24938
6.24047
6.2286
6.21568
6.21344
6.25928
6.40343
6.66728
7.05519
7.72347
9.19819
12.6069
18.8165
26.6213
32.1727
34.9977
37.8569
1051.49
496.307
5.30487
5.50533
5.72602
5.89054
6.00686
6.08888
6.14652
6.18672
6.21439
6.2331
6.2454
6.25309
6.25735
6.25888
6.25797
6.25465
6.2487
6.23978
6.22791