/*--------------------------------*- C++ -*----------------------------------*\
| =========                 |                                                 |
| \\      /  F ield         | OpenFOAM: The Open Source CFD Toolbox           |
|  \\    /   O peration     | Version:  v2012                                 |
|   \\  /    A nd           | Website:  www.openfoam.com                      |
|    \\/     M anipulation  |                                                 |
\*---------------------------------------------------------------------------*/
FoamFile
{
    version     2.0;
    format      ascii;
    class       surfaceScalarField;
    location    "1";
    object      phi;
}
// * * * * * * * * * * * * * * * * * * * * * * * * * * * * * * * * * * * * * //

dimensions      [1 0 -1 0 0 0 0];
oriented        oriented;


internalField   nonuniform List<scalar> 
228225
(
-0.000539926
-5.13732e-05
-2.04487e-05
-0.000482253
-4.30879e-05
-1.46587e-05
-0.0004275
-4.20959e-05
-1.27288e-05
-0.000372141
-4.39807e-05
-1.14494e-05
-0.000324072
-3.85296e-05
-9.61028e-06
-0.00028508
-3.04843e-05
-8.57592e-06
-0.000250743
-2.70549e-05
-7.35276e-06
-0.000222148
-2.21022e-05
-6.56313e-06
-0.000196599
-1.98777e-05
-5.74079e-06
-0.000174558
-1.69028e-05
-5.20847e-06
-0.000154633
-1.53554e-05
-4.63919e-06
-0.000137034
-1.33933e-05
-4.2761e-06
-0.000120976
-1.22622e-05
-3.86565e-06
-0.000106574
-1.08678e-05
-3.60511e-06
-9.33291e-05
-1.00133e-05
-3.30209e-06
-8.13375e-05
-8.96157e-06
-3.10069e-06
-7.02575e-05
-8.27596e-06
-2.87488e-06
-6.01427e-05
-7.4759e-06
-2.70997e-06
-5.07853e-05
-6.89204e-06
-2.5366e-06
-4.21788e-05
-6.28161e-06
-2.39624e-06
-3.42192e-05
-5.77419e-06
-2.25706e-06
-2.6881e-05
-5.2775e-06
-2.13265e-06
-2.01256e-05
-4.81637e-06
-2.01113e-06
-1.39402e-05
-4.36559e-06
-1.89228e-06
-8.32092e-06
-3.91836e-06
-1.77369e-06
-3.27524e-06
-3.46341e-06
-1.65544e-06
1.17788e-06
-2.9898e-06
-1.53692e-06
5.00305e-06
-2.48196e-06
-1.41733e-06
8.16128e-06
-1.93743e-06
-1.2955e-06
1.06127e-05
-1.3562e-06
-1.17062e-06
1.2302e-05
-7.23405e-07
-1.04209e-06
1.32201e-05
-8.64208e-08
-9.08844e-07
1.34599e-05
4.49274e-07
-7.67431e-07
1.08831e-05
3.07613e-06
-5.89636e-07
1.10484e-05
-1.4366e-07
-1.32502e-05
-2.05667e-05
-1.76474e-05
-2.59771e-05
-1.76071e-05
-1.28344e-05
-3.60427e-05
-2.21331e-05
-9.97911e-06
-4.65436e-05
-2.52321e-05
-8.32213e-06
-5.43407e-05
-2.43621e-05
-6.44568e-06
-5.95304e-05
-1.95466e-05
-5.82e-06
-6.28623e-05
-1.86453e-05
-5.14937e-06
-6.36822e-05
-1.66113e-05
-4.74159e-06
-6.35606e-05
-1.57133e-05
-4.35624e-06
-6.18105e-05
-1.46552e-05
-4.06731e-06
-5.96064e-05
-1.37932e-05
-3.83566e-06
-5.63856e-05
-1.30428e-05
-3.6402e-06
-5.29863e-05
-1.22396e-05
-3.49062e-06
-4.89862e-05
-1.15854e-05
-3.35105e-06
-4.49256e-05
-1.09003e-05
-3.24201e-06
-4.04915e-05
-1.03264e-05
-3.13767e-06
-3.60811e-05
-9.70281e-06
-3.05221e-06
-3.15658e-05
-9.08912e-06
-2.97102e-06
-2.71563e-05
-8.46958e-06
-2.90129e-06
-2.27731e-05
-7.90007e-06
-2.8345e-06
-1.84647e-05
-7.38185e-06
-2.771e-06
-1.42057e-05
-6.90128e-06
-2.70574e-06
-1.0026e-05
-6.43162e-06
-2.63546e-06
-5.95436e-06
-5.95321e-06
-2.55554e-06
-2.03183e-06
-5.44938e-06
-2.46355e-06
1.69669e-06
-4.90524e-06
-2.35938e-06
5.18064e-06
-4.30423e-06
-2.243e-06
8.36379e-06
-3.62568e-06
-2.11387e-06
1.11656e-05
-2.84377e-06
-1.97106e-06
1.34653e-05
-1.91929e-06
-1.81358e-06
1.50924e-05
-7.87895e-07
-1.64144e-06
1.56087e-05
7.70969e-07
-1.45465e-06
1.34423e-05
3.75934e-06
-1.22464e-06
6.0849e-06
1.10404e-05
-7.07713e-07
1.71952e-05
-4.56156e-08
-3.01179e-05
2.0271e-05
-1.08019e-05
-4.64291e-05
1.06881e-05
-1.20613e-05
-6.3036e-05
4.95077e-06
-1.05551e-05
-7.74301e-05
-1.20154e-06
-9.71359e-06
-8.63017e-05
-7.28567e-06
-8.28202e-06
-8.84082e-05
-1.03269e-05
-7.18988e-06
-8.84331e-05
-1.25792e-05
-6.11752e-06
-8.53559e-05
-1.44658e-05
-5.29845e-06
-8.11797e-05
-1.54234e-05
-4.54133e-06
-7.57554e-05
-1.62401e-05
-3.9144e-06
-6.98569e-05
-1.63518e-05
-3.41426e-06
-6.36412e-05
-1.62693e-05
-3.06299e-06
-5.7424e-05
-1.57309e-05
-2.79886e-06
-5.15537e-05
-1.493e-05
-2.59753e-06
-4.61006e-05
-1.4002e-05
-2.42175e-06
-4.08785e-05
-1.33556e-05
-2.26152e-06
-3.5662e-05
-1.28854e-05
-2.10116e-06
-3.05648e-05
-1.23045e-05
-1.9483e-06
-2.58129e-05
-1.14762e-05
-1.81169e-06
-2.15742e-05
-1.05065e-05
-1.69929e-06
-1.78072e-05
-9.60956e-06
-1.60705e-06
-1.43798e-05
-8.86966e-06
-1.52744e-06
-1.11799e-05
-8.24628e-06
-1.45425e-06
-8.15098e-06
-7.6675e-06
-1.38415e-06
-5.27702e-06
-7.07798e-06
-1.31542e-06
-2.56608e-06
-6.44019e-06
-1.2467e-06
-3.9828e-08
-5.72512e-06
-1.17685e-06
2.27143e-06
-4.90431e-06
-1.10508e-06
4.32312e-06
-3.93855e-06
-1.03059e-06
6.04945e-06
-2.76733e-06
-9.53285e-07
7.34367e-06
-1.28463e-06
-8.73505e-07
8.17239e-06
6.60467e-07
-7.9402e-07
8.39074e-06
4.21893e-06
-7.50599e-07
3.40899e-06
1.6735e-05
-7.46056e-07
2.08424e-05
-2.12179e-07
1.90308e-05
4.67251e-06
-3.5232e-06
3.54502e-05
-1.80559e-06
-4.01313e-06
5.12814e-05
-9.33495e-06
-1.63447e-06
5.9445e-05
-8.80257e-06
-6.45733e-07
5.89363e-05
-5.93387e-06
-9.22422e-07
5.63026e-05
-6.44234e-06
-1.3289e-06
5.24353e-05
-7.21834e-06
-1.57084e-06
4.7481e-05
-7.88634e-06
-1.70179e-06
4.2374e-05
-8.58046e-06
-1.81237e-06
3.71676e-05
-9.18615e-06
-1.92417e-06
3.24791e-05
-9.71072e-06
-2.03015e-06
2.82924e-05
-1.00406e-05
-2.12056e-06
2.48077e-05
-1.01485e-05
-2.17789e-06
2.19069e-05
-9.94689e-06
-2.16578e-06
1.95048e-05
-9.58821e-06
-2.09791e-06
1.75081e-05
-9.42125e-06
-2.02188e-06
1.59261e-05
-9.44776e-06
-1.93415e-06
1.477e-05
-9.41554e-06
-1.80537e-06
1.40036e-05
-9.13997e-06
-1.63706e-06
1.35633e-05
-8.65615e-06
-1.47477e-06
1.33824e-05
-8.13635e-06
-1.35699e-06
1.34098e-05
-7.68261e-06
-1.28011e-06
1.36013e-05
-7.28256e-06
-1.22206e-06
1.3913e-05
-6.88169e-06
-1.16519e-06
1.42972e-05
-6.43045e-06
-1.10018e-06
1.47025e-05
-5.89122e-06
-1.02327e-06
1.50733e-05
-5.23195e-06
-9.3366e-07
1.5348e-05
-4.41759e-06
-8.3186e-07
1.54539e-05
-3.39714e-06
-7.18873e-07
1.52885e-05
-2.07943e-06
-5.95579e-07
1.46835e-05
-2.93723e-07
-4.61118e-07
1.27956e-05
2.7704e-06
-2.99532e-07
8.07586e-06
8.90826e-06
-5.67291e-08
3.19304e-06
2.16124e-05
-4.6269e-08
2.40431e-05
2.06661e-08
1.885e-06
2.62179e-06
6.81799e-08
-1.83169e-06
2.15847e-07
1.59417e-06
-1.15775e-05
-3.4628e-06
3.77255e-06
-1.88867e-05
-4.29659e-06
2.73539e-06
-2.12045e-05
-4.63142e-06
9.61921e-07
-2.31819e-05
-5.20629e-06
6.82417e-07
-2.53825e-05
-5.47356e-06
3.98372e-07
-2.74613e-05
-5.87992e-06
1.66204e-08
-2.93411e-05
-6.36988e-06
-3.87415e-07
-3.09182e-05
-6.95664e-06
-7.10352e-07
-3.20215e-05
-7.7033e-06
-9.63435e-07
-3.24706e-05
-8.4899e-06
-1.16212e-06
-3.22438e-05
-9.11648e-06
-1.32065e-06
-3.12041e-05
-9.60076e-06
-1.44902e-06
-2.94051e-05
-9.90306e-06
-1.54884e-06
-2.72301e-05
-1.00462e-05
-1.61651e-06
-2.50182e-05
-1.00753e-05
-1.65254e-06
-2.28415e-05
-1.00079e-05
-1.65373e-06
-2.05904e-05
-9.84775e-06
-1.61319e-06
-1.81716e-05
-9.60962e-06
-1.53511e-06
-1.56095e-05
-9.31862e-06
-1.44938e-06
-1.2999e-05
-8.99727e-06
-1.36525e-06
-1.04161e-05
-8.65087e-06
-1.28395e-06
-7.89565e-06
-8.26712e-06
-1.20444e-06
-5.44699e-06
-7.82361e-06
-1.12517e-06
-3.07051e-06
-7.29256e-06
-1.04522e-06
-7.68403e-07
-6.64027e-06
-9.64513e-07
1.44761e-06
-5.82152e-06
-8.83777e-07
3.54668e-06
-4.76458e-06
-8.04776e-07
5.45489e-06
-3.33177e-06
-7.31133e-07
6.93857e-06
-1.185e-06
-6.70545e-07
7.82433e-06
2.44451e-06
-6.40638e-07
5.14528e-06
1.21398e-05
-6.17792e-07
1.21299e-06
2.59033e-05
-3.77606e-07
2.53897e-05
-1.00563e-07
9.00283e-07
1.97272e-06
-3.40674e-07
-1.84957e-06
3.88401e-06
-9.89878e-07
-7.89462e-06
4.22714e-06
-1.70633e-06
-1.03035e-05
-4.71196e-07
-1.48497e-06
-8.23151e-06
-6.16569e-06
-6.07898e-07
-5.27251e-06
-7.80635e-06
-4.22993e-07
-1.95884e-06
-8.41591e-06
-4.34127e-07
1.3678e-06
-8.80561e-06
-4.64553e-07
4.48194e-06
-9.05158e-06
-4.97294e-07
7.14658e-06
-9.1531e-06
-5.34261e-07
9.09285e-06
-9.1376e-06
-5.79019e-07
1.02361e-05
-9.07099e-06
-6.2987e-07
1.07344e-05
-9.00239e-06
-6.80391e-07
1.07518e-05
-8.96137e-06
-7.24918e-07
1.04913e-05
-8.94672e-06
-7.63712e-07
1.01494e-05
-8.96961e-06
-8.02156e-07
9.87319e-06
-9.02655e-06
-8.39493e-07
9.72208e-06
-9.06273e-06
-8.60732e-07
9.67799e-06
-9.01838e-06
-8.52083e-07
9.71511e-06
-8.8925e-06
-8.21512e-07
9.81568e-06
-8.71208e-06
-7.74952e-07
9.96595e-06
-8.49282e-06
-7.23051e-07
1.01506e-05
-8.23062e-06
-6.73609e-07
1.03469e-05
-7.90959e-06
-6.22872e-07
1.053e-05
-7.50934e-06
-5.66653e-07
1.0678e-05
-7.00738e-06
-5.02679e-07
1.07751e-05
-6.37709e-06
-4.30081e-07
1.08133e-05
-5.5812e-06
-3.48769e-07
1.0792e-05
-4.55524e-06
-2.58976e-07
1.07065e-05
-3.1571e-06
-1.61028e-07
1.04844e-05
-9.81303e-07
-5.52899e-08
9.10785e-06
3.68449e-06
5.78679e-08
6.02629e-06
1.51171e-05
1.77689e-08
2.24285e-06
2.97285e-05
-8.3757e-08
2.76714e-05
-1.00309e-08
1.08416e-06
6.70894e-07
1.25524e-07
4.4373e-06
3.32266e-07
1.18115e-07
9.27266e-06
-7.10512e-07
3.04462e-08
1.1436e-05
-2.8801e-06
1.77765e-07
9.4954e-06
-4.67392e-06
3.83025e-07
6.96963e-06
-5.77284e-06
4.24698e-07
4.69773e-06
-6.55063e-06
3.36835e-07
2.77179e-06
-7.12915e-06
1.78162e-07
1.16961e-06
-7.52708e-06
5.5651e-09
-1.45922e-07
-7.74012e-06
-1.69677e-07
-1.20957e-06
-7.81002e-06
-3.35831e-07
-2.03737e-06
-7.81736e-06
-4.97307e-07
-2.63313e-06
-7.82831e-06
-6.4948e-07
-3.01459e-06
-7.86224e-06
-7.88615e-07
-3.187e-06
-7.92902e-06
-9.16062e-07
-3.14324e-06
-8.04708e-06
-1.03692e-06
-2.87167e-06
-8.22259e-06
-1.14601e-06
-2.38816e-06
-8.40945e-06
-1.20697e-06
-1.71868e-06
-8.53839e-06
-1.21934e-06
-9.09018e-07
-8.58064e-06
-1.19112e-06
-2.12451e-08
-8.54283e-06
-1.12648e-06
9.05532e-07
-8.43724e-06
-1.05181e-06
1.85725e-06
-8.2677e-06
-9.84205e-07
2.82564e-06
-8.02557e-06
-9.22213e-07
3.80161e-06
-7.69384e-06
-8.61596e-07
4.77232e-06
-7.24862e-06
-8.00083e-07
5.71843e-06
-6.65737e-06
-7.37143e-07
6.60955e-06
-5.87152e-06
-6.73146e-07
7.39447e-06
-4.805e-06
-6.08991e-07
7.9684e-06
-3.26054e-06
-5.46269e-07
7.99933e-06
-6.00095e-07
-4.89326e-07
6.88339e-06
5.16387e-06
-4.35829e-07
3.42893e-06
1.88552e-05
-3.35337e-07
7.31777e-07
3.26146e-05
-2.04145e-07
2.85003e-05
-6.32793e-08
-8.44076e-07
1.28681e-06
1.36796e-07
-1.57386e-06
7.9689e-07
1.84951e-07
-1.79558e-06
-7.10082e-07
1.47741e-07
-2.28162e-06
-2.51698e-06
5.26601e-08
-2.73633e-06
-4.22325e-06
-6.46596e-08
-2.77864e-06
-5.64781e-06
-1.50478e-07
-2.46039e-06
-6.73012e-06
-2.0592e-07
-1.90621e-06
-7.50427e-06
-2.45814e-07
-1.18803e-06
-8.03436e-06
-2.77454e-07
-3.08741e-07
-8.38401e-06
-3.01913e-07
7.35288e-07
-8.60135e-06
-3.19339e-07
1.90894e-06
-8.72672e-06
-3.31133e-07
3.14959e-06
-8.79652e-06
-3.39528e-07
4.40125e-06
-8.83514e-06
-3.46076e-07
5.61102e-06
-8.85431e-06
-3.52013e-07
6.714e-06
-8.85673e-06
-3.61086e-07
7.64472e-06
-8.83932e-06
-3.81969e-07
8.38079e-06
-8.796e-06
-4.17767e-07
8.93575e-06
-8.72072e-06
-4.41157e-07
9.33902e-06
-8.61117e-06
-4.41554e-07
9.61841e-06
-8.47146e-06
-4.19803e-07
9.79813e-06
-8.30369e-06
-3.82534e-07
9.90683e-06
-8.09991e-06
-3.45946e-07
9.96529e-06
-7.84241e-06
-3.11267e-07
9.98347e-06
-7.50723e-06
-2.74709e-07
9.96376e-06
-7.06541e-06
-2.3379e-07
9.90387e-06
-6.48071e-06
-1.87609e-07
9.79884e-06
-5.70193e-06
-1.36246e-07
9.64041e-06
-4.63907e-06
-8.05412e-08
9.40494e-06
-3.07755e-06
-2.27205e-08
9.02526e-06
-3.29417e-07
3.12478e-08
7.53987e-06
6.53579e-06
3.77267e-08
4.60098e-06
2.1802e-05
-6.20364e-08
1.59151e-06
3.57143e-05
-1.0143e-07
3.01575e-05
-3.00598e-08
1.89347e-07
9.49627e-07
5.65871e-08
4.80412e-07
3.60462e-07
6.48384e-08
8.97728e-07
-1.24734e-06
4.66984e-08
1.38297e-06
-3.09973e-06
2.86485e-08
1.78564e-06
-4.70694e-06
1.41932e-08
2.025e-06
-5.9397e-06
-1.3814e-08
2.13133e-06
-6.84009e-06
-6.30596e-08
2.16159e-06
-7.47537e-06
-1.26525e-07
2.15449e-06
-7.89843e-06
-1.96713e-07
2.12789e-06
-8.15596e-06
-2.69662e-07
2.09184e-06
-8.28918e-06
-3.44532e-07
2.05821e-06
-8.34105e-06
-4.20669e-07
2.0414e-06
-8.35266e-06
-4.95871e-07
2.05686e-06
-8.3513e-06
-5.68265e-07
2.12433e-06
-8.35213e-06
-6.38698e-07
2.27299e-06
-8.36373e-06
-7.10733e-07
2.53423e-06
-8.38844e-06
-7.81179e-07
2.91315e-06
-8.4176e-06
-8.26314e-07
3.39588e-06
-8.43221e-06
-8.40136e-07
3.9584e-06
-8.41412e-06
-8.28418e-07
4.56689e-06
-8.35527e-06
-7.93527e-07
5.19025e-06
-8.25218e-06
-7.43768e-07
5.81203e-06
-8.09541e-06
-6.95312e-07
6.41919e-06
-7.86864e-06
-6.50176e-07
6.99855e-06
-7.55019e-06
-6.05989e-07
7.53628e-06
-7.11231e-06
-5.60882e-07
8.01554e-06
-6.5168e-06
-5.13938e-07
8.41032e-06
-5.70376e-06
-4.64832e-07
8.67012e-06
-4.55904e-06
-4.13491e-07
8.6717e-06
-2.79558e-06
-3.60025e-07
8.02432e-06
5.46185e-07
-3.07776e-07
6.13068e-06
8.60664e-06
-2.51105e-07
2.90465e-06
2.51819e-05
-1.94635e-07
7.57788e-07
3.79969e-05
-1.32205e-07
3.10034e-05
-4.83852e-08
-5.41431e-08
8.42876e-07
6.94797e-08
9.89029e-08
2.88514e-08
9.82493e-08
2.48999e-07
-1.56576e-06
9.49001e-08
3.47186e-07
-3.34733e-06
7.96425e-08
4.00749e-07
-4.88713e-06
5.82721e-08
4.4597e-07
-6.08505e-06
3.20847e-08
5.09707e-07
-6.97451e-06
2.58369e-09
6.16486e-07
-7.61884e-06
-3.15063e-08
7.9252e-07
-8.07721e-06
-6.55347e-08
1.06269e-06
-8.39642e-06
-9.80551e-08
1.44445e-06
-8.61154e-06
-1.27804e-07
1.93876e-06
-8.74948e-06
-1.54306e-07
2.52754e-06
-8.83208e-06
-1.77846e-07
3.18348e-06
-8.87662e-06
-1.99167e-07
3.87775e-06
-8.89527e-06
-2.19784e-07
4.58356e-06
-8.89543e-06
-2.42867e-07
5.27804e-06
-8.88042e-06
-2.71391e-07
5.93937e-06
-8.8487e-06
-2.99246e-07
6.54623e-06
-8.79326e-06
-3.1495e-07
7.0847e-06
-8.70784e-06
-3.14024e-07
7.54378e-06
-8.5889e-06
-2.94867e-07
7.9186e-06
-8.43572e-06
-2.60869e-07
8.2192e-06
-8.23937e-06
-2.26443e-07
8.45849e-06
-7.98336e-06
-1.9465e-07
8.64666e-06
-7.64512e-06
-1.63659e-07
8.79036e-06
-7.19504e-06
-1.31888e-07
8.89199e-06
-6.59144e-06
-9.86043e-08
8.94635e-06
-5.7671e-06
-6.37002e-08
8.93032e-06
-4.58948e-06
-2.79294e-08
8.7736e-06
-2.71983e-06
3.85183e-09
8.24396e-06
9.8618e-07
9.06579e-09
6.48759e-06
1.03297e-05
-4.73082e-08
3.46643e-06
2.82654e-05
-1.18578e-07
1.15533e-06
4.04142e-05
-1.07242e-07
3.22406e-05
-4.20837e-08
5.05138e-08
6.68998e-07
3.18107e-08
1.97747e-07
-2.21419e-07
2.29706e-08
4.90444e-07
-1.9319e-06
3.68599e-10
8.2225e-07
-3.72278e-06
-2.55673e-08
1.14243e-06
-5.22639e-06
-4.84e-08
1.43116e-06
-6.36721e-06
-7.3498e-08
1.68822e-06
-7.19417e-06
-1.04368e-07
1.92222e-06
-7.77934e-06
-1.40667e-07
2.14214e-06
-8.18448e-06
-1.80056e-07
2.35476e-06
-8.45632e-06
-2.2034e-07
2.56585e-06
-8.6302e-06
-2.60274e-07
2.78235e-06
-8.73484e-06
-2.99214e-07
3.01245e-06
-8.79391e-06
-3.36595e-07
3.26496e-06
-8.82526e-06
-3.72376e-07
3.54957e-06
-8.84079e-06
-4.07738e-07
3.87741e-06
-8.84723e-06
-4.44797e-07
4.25646e-06
-8.84657e-06
-4.81698e-07
4.67996e-06
-8.83485e-06
-5.0618e-07
5.13349e-06
-8.80114e-06
-5.14505e-07
5.60157e-06
-8.73713e-06
-5.07658e-07
6.06657e-06
-8.63669e-06
-4.86158e-07
6.51098e-06
-8.49722e-06
-4.51935e-07
6.92732e-06
-8.309e-06
-4.15891e-07
7.31108e-06
-8.0557e-06
-3.80825e-07
7.65735e-06
-7.71527e-06
-3.45838e-07
7.9599e-06
-7.25803e-06
-3.09762e-07
8.20891e-06
-6.63969e-06
-2.71709e-07
8.38389e-06
-5.7834e-06
-2.30802e-07
8.43512e-06
-4.52776e-06
-1.8697e-07
8.22629e-06
-2.44106e-06
-1.46505e-07
7.39709e-06
1.86019e-06
-1.20945e-07
5.3575e-06
1.24332e-05
-1.29437e-07
2.36382e-06
3.13543e-05
-1.49325e-07
6.81777e-07
4.22051e-05
-1.13952e-07
3.30119e-05
-4.9294e-08
-1.08932e-08
5.46372e-07
4.19814e-08
1.73592e-07
-5.42149e-07
5.62617e-08
4.25659e-07
-2.31253e-06
5.55246e-08
6.93797e-07
-4.11318e-06
5.29119e-08
9.46469e-07
-5.59527e-06
4.83455e-08
1.1776e-06
-6.70461e-06
3.87869e-08
1.3964e-06
-7.50353e-06
2.30243e-08
1.61765e-06
-8.07075e-06
2.47396e-09
1.85766e-06
-8.46969e-06
-2.26527e-08
2.127e-06
-8.74567e-06
-4.80068e-08
2.43242e-06
-8.93113e-06
-7.2654e-08
2.77603e-06
-9.05069e-06
-9.60891e-08
3.15525e-06
-9.12347e-06
-1.18136e-07
3.56429e-06
-9.16375e-06
-1.39156e-07
3.99661e-06
-9.1815e-06
-1.60332e-07
4.44676e-06
-9.18276e-06
-1.83435e-07
4.90877e-06
-9.16969e-06
-2.07799e-07
5.36978e-06
-9.13984e-06
-2.25005e-07
5.81537e-06
-9.085e-06
-2.30799e-07
6.23345e-06
-8.99982e-06
-2.24565e-07
6.61127e-06
-8.8786e-06
-2.052e-07
6.93809e-06
-8.71877e-06
-1.74721e-07
7.21323e-06
-8.51075e-06
-1.43019e-07
7.43939e-06
-8.23848e-06
-1.13272e-07
7.61859e-06
-7.87986e-06
-8.48248e-08
7.75087e-06
-7.40434e-06
-5.66379e-08
7.83267e-06
-6.76502e-06
-2.77812e-08
7.85362e-06
-5.87823e-06
1.61012e-09
7.78366e-06
-4.56402e-06
3.26665e-08
7.5565e-06
-2.33466e-06
4.71325e-08
6.86721e-06
2.45626e-06
3.22908e-08
5.1026e-06
1.42214e-05
-3.27185e-08
2.39354e-06
3.41773e-05
-9.93847e-08
8.16022e-07
4.39016e-05
-8.63897e-08
3.39187e-05
-3.57463e-08
5.25078e-08
3.76122e-07
2.6169e-08
2.78004e-07
-8.73081e-07
2.52895e-08
6.02235e-07
-2.72274e-06
1.2943e-08
9.42319e-07
-4.52308e-06
6.13153e-10
1.26091e-06
-5.96844e-06
-1.29961e-08
1.5495e-06
-7.03226e-06
-2.80995e-08
1.8165e-06
-7.79054e-06
-4.72059e-08
2.07509e-06
-8.32633e-06
-7.04087e-08
2.33628e-06
-8.70238e-06
-9.61009e-08
2.60723e-06
-8.96188e-06
-1.22529e-07
2.89211e-06
-9.13544e-06
-1.48556e-07
3.19328e-06
-9.24649e-06
-1.73559e-07
3.51209e-06
-9.31337e-06
-1.97281e-07
3.84961e-06
-9.34978e-06
-2.20033e-07
4.20726e-06
-9.36513e-06
-2.42699e-07
4.58619e-06
-9.36478e-06
-2.65692e-07
4.98366e-06
-9.3498e-06
-2.86223e-07
5.38952e-06
-9.31633e-06
-2.98301e-07
5.79274e-06
-9.25644e-06
-3.00767e-07
6.18138e-06
-9.16424e-06
-2.93266e-07
6.5424e-06
-9.03321e-06
-2.75546e-07
6.86223e-06
-8.85978e-06
-2.48074e-07
7.13382e-06
-8.63393e-06
-2.17837e-07
7.3527e-06
-8.3395e-06
-1.87531e-07
7.5141e-06
-7.95419e-06
-1.57098e-07
7.61165e-06
-7.44657e-06
-1.2582e-07
7.63534e-06
-6.76719e-06
-9.26844e-08
7.56765e-06
-5.82479e-06
-5.78551e-08
7.37411e-06
-4.41669e-06
-2.69587e-08
6.961e-06
-1.98785e-06
-5.22547e-09
6.07293e-06
3.29627e-06
1.54687e-09
4.38484e-06
1.60149e-05
-2.81272e-08
2.17642e-06
3.66672e-05
-6.8249e-08
8.73808e-07
4.5419e-05
-5.33378e-08
3.48913e-05
-1.52432e-08
4.59125e-08
2.04503e-07
3.41107e-08
2.72537e-07
-1.22821e-06
4.84851e-08
5.94464e-07
-3.16627e-06
4.8697e-08
9.4688e-07
-4.99228e-06
4.76662e-08
1.29462e-06
-6.42939e-06
4.56362e-08
1.62819e-06
-7.4731e-06
4.00991e-08
1.95229e-06
-8.21159e-06
2.97205e-08
2.27607e-06
-8.73243e-06
1.4942e-08
2.60764e-06
-9.09883e-06
-2.70816e-09
2.95375e-06
-9.35298e-06
-2.27743e-08
3.31703e-06
-9.52436e-06
-4.23296e-08
3.69852e-06
-9.63505e-06
-6.11111e-08
4.09786e-06
-9.70201e-06
-7.90513e-08
4.51392e-06
-9.7378e-06
-9.65751e-08
4.94566e-06
-9.75098e-06
-1.14573e-07
5.39158e-06
-9.74636e-06
-1.33149e-07
5.8465e-06
-9.72462e-06
-1.49003e-07
6.30096e-06
-9.68152e-06
-1.58296e-07
6.74644e-06
-9.61106e-06
-1.59962e-07
7.17411e-06
-9.50761e-06
-1.53527e-07
7.5737e-06
-9.364e-06
-1.38162e-07
7.93436e-06
-9.17547e-06
-1.14524e-07
8.25042e-06
-8.93118e-06
-8.86383e-08
8.51839e-06
-8.61425e-06
-6.3428e-08
8.73416e-06
-8.20142e-06
-3.9259e-08
8.89193e-06
-7.65976e-06
-1.60156e-08
8.98141e-06
-6.93721e-06
8.01153e-09
8.98289e-06
-5.93557e-06
3.49127e-08
8.86768e-06
-4.43132e-06
5.18647e-08
8.55143e-06
-1.81264e-06
5.58954e-08
7.59871e-06
4.11666e-06
3.98472e-08
5.61852e-06
1.80075e-05
-1.48685e-08
3.30872e-06
3.92838e-05
-4.17551e-08
1.46438e-06
4.74873e-05
-1.48939e-08
3.64146e-05
1.43602e-08
8.95853e-08
-7.01154e-09
3.03554e-08
3.81523e-07
-1.64206e-06
4.19028e-08
7.68605e-07
-3.66424e-06
3.79797e-08
1.17457e-06
-5.49987e-06
3.25257e-08
1.56333e-06
-6.91249e-06
2.68393e-08
1.92928e-06
-7.92524e-06
1.91235e-08
2.28138e-06
-8.63886e-06
8.08669e-09
2.63248e-06
-9.14345e-06
-7.33011e-09
2.99323e-06
-9.50078e-06
-2.62444e-08
3.36952e-06
-9.75118e-06
-4.57774e-08
3.765e-06
-9.92267e-06
-6.50898e-08
4.18183e-06
-1.00363e-05
-8.37197e-08
4.62132e-06
-1.01083e-05
-1.01604e-07
5.08446e-06
-1.01504e-05
-1.19046e-07
5.5721e-06
-1.01709e-05
-1.36462e-07
6.08382e-06
-1.01737e-05
-1.53206e-07
6.61539e-06
-1.01591e-05
-1.66057e-07
7.16017e-06
-1.01222e-05
-1.7309e-07
7.71258e-06
-1.00584e-05
-1.74225e-07
8.26655e-06
-9.96165e-06
-1.69184e-07
8.81493e-06
-9.82434e-06
-1.5749e-07
9.34921e-06
-9.64056e-06
-1.38912e-07
9.8645e-06
-9.39894e-06
-1.17639e-07
1.03579e-05
-9.08206e-06
-9.62392e-08
1.08257e-05
-8.66566e-06
-7.50207e-08
1.12612e-05
-8.11483e-06
-5.30874e-08
1.16515e-05
-7.37224e-06
-2.99354e-08
1.197e-05
-6.32251e-06
-1.01999e-08
1.21376e-05
-4.68727e-06
2.03673e-10
1.19038e-05
-1.69411e-06
-1.31281e-09
1.04862e-05
5.35459e-06
-2.70791e-08
7.18504e-06
2.10771e-05
-1.03737e-07
3.76953e-06
4.26821e-05
-1.17233e-07
1.59727e-06
4.97002e-05
-4.34101e-08
3.80485e-05
-5.80586e-09
8.88442e-08
-2.28373e-07
4.09009e-08
3.55299e-07
-2.05099e-06
6.24982e-08
7.24156e-07
-4.17032e-06
6.43717e-08
1.1279e-06
-6.0367e-06
6.40195e-08
1.53125e-06
-7.44614e-06
6.27899e-08
1.92595e-06
-8.44593e-06
5.89246e-08
2.31684e-06
-9.14816e-06
5.13371e-08
2.7119e-06
-9.64585e-06
4.01127e-08
3.11763e-06
-1.00004e-05
2.6506e-08
3.53812e-06
-1.02515e-05
1.21514e-08
3.97588e-06
-1.04264e-05
-1.95461e-09
4.43507e-06
-1.05457e-05
-1.79898e-08
4.91655e-06
-1.06251e-05
-3.29881e-08
5.42151e-06
-1.06763e-05
-4.76886e-08
5.95105e-06
-1.07068e-05
-6.23202e-08
6.50503e-06
-1.07205e-05
-7.60045e-08
7.08024e-06
-1.07173e-05
-8.59424e-08
7.67319e-06
-1.06932e-05
-9.10642e-08
8.28149e-06
-1.06444e-05
-9.14457e-08
8.90265e-06
-1.05653e-05
-8.6899e-08
9.53311e-06
-1.04478e-05
-7.66182e-08
1.01678e-05
-1.02849e-05
-6.02537e-08
1.08048e-05
-1.00649e-05
-4.12838e-08
1.14438e-05
-9.76988e-06
-2.22454e-08
1.20825e-05
-9.37423e-06
-2.13306e-09
1.27224e-05
-8.84052e-06
1.22433e-08
1.33522e-05
-8.1044e-06
2.60649e-08
1.39372e-05
-7.02357e-06
3.36952e-08
1.43464e-05
-5.22629e-06
3.09699e-08
1.41121e-05
-1.62563e-06
1.34832e-08
1.21361e-05
7.04494e-06
-4.6955e-08
7.35501e-06
2.53182e-05
-1.98284e-07
2.90717e-06
4.66015e-05
-2.56971e-07
1.24042e-06
5.1218e-05
-1.64365e-07
3.94744e-05
-1.04982e-07
9.37427e-08
-4.63591e-07
4.97754e-08
3.74193e-07
-2.48508e-06
7.3687e-08
7.48434e-07
-4.69194e-06
7.45925e-08
1.14595e-06
-6.57612e-06
7.28734e-08
1.53387e-06
-7.97205e-06
7.05027e-08
1.90766e-06
-8.95291e-06
6.61141e-08
2.27468e-06
-9.64093e-06
5.86677e-08
2.64398e-06
-1.01304e-05
4.80384e-08
3.02232e-06
-1.04814e-05
3.5208e-08
3.4137e-06
-1.07323e-05
2.1753e-08
3.82023e-06
-1.09097e-05
8.89556e-09
4.24355e-06
-1.10338e-05
-3.39749e-09
4.68664e-06
-1.11197e-05
-1.69002e-08
5.14997e-06
-1.11787e-05
-2.94457e-08
5.63365e-06
-1.12182e-05
-4.10167e-08
6.13618e-06
-1.12415e-05
-5.04278e-08
6.65438e-06
-1.12481e-05
-5.6282e-08
7.18595e-06
-1.12355e-05
-5.824e-08
7.7286e-06
-1.12e-05
-5.61785e-08
8.27992e-06
-1.11359e-05
-5.00212e-08
8.83659e-06
-1.1035e-05
-3.89308e-08
9.39312e-06
-1.08894e-05
-2.18439e-08
9.94467e-06
-1.06868e-05
1.82525e-10
1.04972e-05
-1.04087e-05
1.56207e-08
1.10475e-05
-1.00285e-05
3.23478e-08
1.159e-05
-9.5062e-06
5.01278e-08
1.21123e-05
-8.76874e-06
6.62353e-08
1.25707e-05
-7.63975e-06
7.57903e-08
1.28053e-05
-5.63685e-06
7.66578e-08
1.22902e-05
-1.32791e-06
6.20378e-08
9.97591e-06
9.01464e-06
7.07299e-09
5.00219e-06
2.96664e-05
-2.09287e-07
1.19116e-06
4.97697e-05
-3.62541e-07
5.36927e-07
5.17288e-05
-3.15555e-07
4.0294e-05
-2.32813e-07
4.8414e-08
-6.68496e-07
6.48129e-08
2.6792e-07
-2.87884e-06
9.43164e-08
5.89212e-07
-5.18381e-06
9.77355e-08
9.42864e-07
-7.09728e-06
9.83399e-08
1.29492e-06
-8.48997e-06
9.82041e-08
1.63824e-06
-9.45957e-06
9.61207e-08
1.97658e-06
-1.01377e-05
9.12272e-08
2.31547e-06
-1.06201e-05
8.34204e-08
2.65908e-06
-1.09661e-05
7.34644e-08
3.00984e-06
-1.12135e-05
6.26385e-08
3.3689e-06
-1.13887e-05
5.18934e-08
3.73674e-06
-1.15115e-05
4.16156e-08
4.11342e-06
-1.15967e-05
3.19214e-08
4.4984e-06
-1.16553e-05
2.29502e-08
4.89012e-06
-1.16939e-05
1.53035e-08
5.28535e-06
-1.17158e-05
1.02676e-08
5.68004e-06
-1.17204e-05
8.61549e-09
6.07105e-06
-1.17058e-05
1.02443e-08
6.45514e-06
-1.16683e-05
1.51092e-08
6.82879e-06
-1.16019e-05
2.32426e-08
7.18754e-06
-1.14983e-05
3.52887e-08
7.52498e-06
-1.13482e-05
5.19429e-08
7.83562e-06
-1.11389e-05
7.17059e-08
8.11527e-06
-1.08508e-05
9.24393e-08
8.35841e-06
-1.04562e-05
1.14082e-07
8.55684e-06
-9.91257e-06
1.36638e-07
8.69745e-06
-9.13888e-06
1.5671e-07
8.74423e-06
-7.93279e-06
1.70564e-07
8.5883e-06
-5.74076e-06
1.78898e-07
7.92688e-06
-9.31791e-07
1.76578e-07
6.18016e-06
1.05087e-05
1.32401e-07
2.75284e-06
3.27183e-05
-6.38031e-08
3.78318e-07
5.17721e-05
-3.26076e-07
7.8717e-08
5.19929e-05
-3.69534e-07
4.05542e-05
-2.79874e-07
2.49142e-08
-8.61377e-07
7.63434e-08
2.23729e-07
-3.26503e-06
1.07451e-07
5.19478e-07
-5.66315e-06
1.10733e-07
8.41582e-07
-7.59973e-06
1.1114e-07
1.15786e-06
-8.98493e-06
1.10969e-07
1.46252e-06
-9.94077e-06
1.09287e-07
1.75929e-06
-1.0607e-05
1.05332e-07
2.05309e-06
-1.10802e-05
9.89288e-08
2.34758e-06
-1.14188e-05
9.06479e-08
2.64465e-06
-1.166e-05
8.16167e-08
2.94478e-06
-1.18296e-05
7.27674e-08
3.24762e-06
-1.19471e-05
6.45158e-08
3.55217e-06
-1.20268e-05
5.71115e-08
3.85655e-06
-1.20792e-05
5.09474e-08
4.15769e-06
-1.21105e-05
4.66969e-08
4.45135e-06
-1.21234e-05
4.51417e-08
4.73319e-06
-1.21178e-05
4.66694e-08
4.99879e-06
-1.20917e-05
5.13834e-08
5.24341e-06
-1.20412e-05
5.92474e-08
5.46196e-06
-1.19599e-05
7.03233e-08
5.64842e-06
-1.1839e-05
8.51015e-08
5.7946e-06
-1.1668e-05
1.04451e-07
5.89227e-06
-1.14334e-05
1.27632e-07
5.93395e-06
-1.11148e-05
1.52928e-07
5.91077e-06
-1.0683e-05
1.8055e-07
5.81297e-06
-1.00937e-05
2.09319e-07
5.62889e-06
-9.2601e-06
2.35466e-07
5.33392e-06
-7.9649e-06
2.58143e-07
4.8815e-06
-5.63e-06
2.81092e-07
4.24135e-06
-6.08689e-07
3.03608e-07
3.32197e-06
1.12708e-05
3.03886e-07
1.91637e-06
3.41337e-05
1.67718e-07
5.35379e-07
5.30363e-05
-1.30925e-07
8.1746e-08
5.24952e-05
-2.45222e-07
4.07439e-05
-1.82934e-07
-1.07493e-08
-1.02856e-06
8.63113e-08
1.54712e-07
-3.62923e-06
1.18837e-07
4.22876e-07
-6.12695e-06
1.22737e-07
7.21375e-07
-8.09132e-06
1.23786e-07
1.01772e-06
-9.47337e-06
1.24281e-07
1.30508e-06
-1.0419e-05
1.23473e-07
1.58548e-06
-1.10755e-05
1.20719e-07
1.86253e-06
-1.15405e-05
1.15841e-07
2.13894e-06
-1.18721e-05
1.09267e-07
2.41597e-06
-1.21068e-05
1.01938e-07
2.69372e-06
-1.22702e-05
9.47532e-08
2.97148e-06
-1.23814e-05
8.81991e-08
3.24785e-06
-1.24543e-05
8.26204e-08
3.52057e-06
-1.2499e-05
7.84836e-08
3.78637e-06
-1.25215e-05
7.6413e-08
4.04139e-06
-1.25242e-05
7.68715e-08
4.28187e-06
-1.25072e-05
8.00234e-08
4.50357e-06
-1.24684e-05
8.6013e-08
4.70197e-06
-1.24035e-05
9.49235e-08
4.87213e-06
-1.23059e-05
1.0686e-07
5.00861e-06
-1.21666e-05
1.22052e-07
5.1039e-06
-1.19738e-05
1.41387e-07
5.14995e-06
-1.17133e-05
1.64718e-07
5.13922e-06
-1.13639e-05
1.90639e-07
5.06336e-06
-1.08953e-05
2.18935e-07
4.91414e-06
-1.02616e-05
2.47765e-07
4.68269e-06
-9.37082e-06
2.7302e-07
4.34938e-06
-7.99552e-06
2.96345e-07
3.88237e-06
-5.54453e-06
3.24232e-07
3.30697e-06
-3.9504e-07
3.60669e-07
2.70375e-06
1.16994e-05
3.9969e-07
2.27355e-06
3.47414e-05
3.73763e-07
1.24057e-06
5.40943e-05
1.31269e-07
4.83676e-07
5.33386e-05
-2.15057e-08
4.13079e-05
-1.92332e-08
-1.80762e-08
-1.19349e-06
9.14046e-08
1.47683e-07
-3.99798e-06
1.23144e-07
4.15418e-07
-6.59407e-06
1.26531e-07
7.11793e-07
-8.5842e-06
1.27196e-07
1.00561e-06
-9.96245e-06
1.27431e-07
1.29069e-06
-1.08981e-05
1.26653e-07
1.56938e-06
-1.15458e-05
1.24299e-07
1.84529e-06
-1.2004e-05
1.20166e-07
2.12101e-06
-1.23299e-05
1.14542e-07
2.39797e-06
-1.25598e-05
1.08153e-07
2.67656e-06
-1.27187e-05
1.01833e-07
2.95639e-06
-1.28256e-05
9.61529e-08
3.23639e-06
-1.28944e-05
9.15314e-08
3.51477e-06
-1.29345e-05
8.84211e-08
3.7891e-06
-1.29519e-05
8.72543e-08
4.05682e-06
-1.2949e-05
8.82801e-08
4.31512e-06
-1.29261e-05
9.16405e-08
4.56097e-06
-1.28807e-05
9.74514e-08
4.79106e-06
-1.28084e-05
1.05848e-07
5.00184e-06
-1.27027e-05
1.16936e-07
5.18955e-06
-1.25541e-05
1.30765e-07
5.34912e-06
-1.23506e-05
1.48057e-07
5.47449e-06
-1.2077e-05
1.69048e-07
5.56002e-06
-1.17114e-05
1.92644e-07
5.60004e-06
-1.12227e-05
2.17906e-07
5.58959e-06
-1.05631e-05
2.42212e-07
5.52065e-06
-9.63398e-06
2.61926e-07
5.36686e-06
-8.19169e-06
2.79845e-07
5.06211e-06
-5.60842e-06
3.03138e-07
4.49535e-06
-1.9816e-07
3.38151e-07
3.60666e-06
1.23322e-05
3.88884e-07
2.86669e-06
3.55453e-05
4.48814e-07
1.81325e-06
5.51672e-05
3.41663e-07
8.05872e-07
5.43547e-05
2.30217e-07
4.21178e-05
1.59125e-07
-2.5263e-08
-1.35317e-06
9.33378e-08
1.41104e-07
-4.36789e-06
1.23714e-07
4.12152e-07
-7.06461e-06
1.26631e-07
7.13034e-07
-9.08148e-06
1.27076e-07
1.01313e-06
-1.04576e-05
1.27198e-07
1.30646e-06
-1.13853e-05
1.26491e-07
1.59543e-06
-1.20265e-05
1.24453e-07
1.88315e-06
-1.248e-05
1.20875e-07
2.17197e-06
-1.28023e-05
1.15971e-07
2.4634e-06
-1.30294e-05
1.10307e-07
2.75814e-06
-1.31862e-05
1.04616e-07
3.05618e-06
-1.32915e-05
9.95059e-08
3.35694e-06
-1.3359e-05
9.53931e-08
3.65931e-06
-1.33982e-05
9.26582e-08
3.96185e-06
-1.34148e-05
9.15863e-08
4.26297e-06
-1.34114e-05
9.23453e-08
4.56088e-06
-1.3388e-05
9.50907e-08
4.85363e-06
-1.33423e-05
9.99394e-08
5.13917e-06
-1.327e-05
1.06992e-07
5.4153e-06
-1.31642e-05
1.16328e-07
5.67964e-06
-1.30156e-05
1.28009e-07
5.92911e-06
-1.28118e-05
1.42455e-07
6.15956e-06
-1.25368e-05
1.5992e-07
6.36671e-06
-1.21678e-05
1.79694e-07
6.54627e-06
-1.16726e-05
2.00401e-07
6.69497e-06
-1.10006e-05
2.18258e-07
6.80271e-06
-1.00436e-05
2.30227e-07
6.8301e-06
-8.53212e-06
2.39564e-07
6.66558e-06
-5.77141e-06
2.52479e-07
6.036e-06
9.17549e-08
2.75312e-07
4.66211e-06
1.34089e-05
3.13669e-07
3.08519e-06
3.7005e-05
4.03188e-07
1.90197e-06
5.62819e-05
4.25112e-07
8.27154e-07
5.53347e-05
3.73318e-07
4.28813e-05
2.54269e-07
-2.51012e-08
-1.51238e-06
9.27093e-08
1.48648e-07
-4.74226e-06
1.20814e-07
4.26815e-07
-7.53844e-06
1.2282e-07
7.33625e-07
-9.58037e-06
1.22766e-07
1.0395e-06
-1.09539e-05
1.22568e-07
1.33961e-06
-1.18745e-05
1.2173e-07
1.63633e-06
-1.25103e-05
1.19775e-07
1.93246e-06
-1.296e-05
1.16493e-07
2.23017e-06
-1.32797e-05
1.1206e-07
2.531e-06
-1.3505e-05
1.06967e-07
2.83579e-06
-1.36609e-05
1.0181e-07
3.14481e-06
-1.3766e-05
9.7132e-08
3.45778e-06
-1.38339e-05
9.33658e-08
3.77397e-06
-1.38739e-05
9.08164e-08
4.09243e-06
-1.38917e-05
8.96874e-08
4.41201e-06
-1.389e-05
9.01396e-08
4.73144e-06
-1.38686e-05
9.22899e-08
5.04934e-06