/*--------------------------------*- C++ -*----------------------------------*\
| =========                 |                                                 |
| \\      /  F ield         | OpenFOAM: The Open Source CFD Toolbox           |
|  \\    /   O peration     | Version:  v2012                                 |
|   \\  /    A nd           | Website:  www.openfoam.com                      |
|    \\/     M anipulation  |                                                 |
\*---------------------------------------------------------------------------*/
FoamFile
{
    version     2.0;
    format      ascii;
    class       volVectorField;
    location    "3";
    object      U;
}
// * * * * * * * * * * * * * * * * * * * * * * * * * * * * * * * * * * * * * //

dimensions      [0 1 -1 0 0 0 0];


internalField   nonuniform List<vector> 
78750
(
(2.49397e-05 -6.60637e-05 0.000647252)
(9.2317e-05 -1.15466e-05 0.00141894)
(0.000144287 8.11825e-05 0.00192289)
(0.000192273 0.000193117 0.00234074)
(0.000221112 0.000304324 0.00265133)
(0.000227971 0.000404097 0.00284816)
(0.000212761 0.000485015 0.00293149)
(0.000178865 0.000543579 0.00291124)
(0.000129728 0.000580536 0.00280329)
(7.03204e-05 0.000598074 0.0026288)
(5.16244e-06 0.000599918 0.00240954)
(-6.16884e-05 0.000590014 0.0021655)
(-0.000127325 0.000571908 0.00191308)
(-0.000189883 0.000548393 0.00166434)
(-0.000247762 0.000521417 0.00142684)
(-0.000301617 0.000492899 0.00120237)
(-0.00035029 0.000463503 0.00099233)
(-0.000393143 0.000433506 0.000796658)
(-0.000429538 0.000403072 0.000614461)
(-0.000458556 0.000372365 0.000444777)
(-0.000479281 0.000341805 0.000286937)
(-0.00049078 0.000312113 0.000140609)
(-0.00049236 0.000284385 6.18985e-06)
(-0.000483857 0.000260147 -0.000114297)
(-0.000465298 0.000239924 -0.000222494)
(-0.000437416 0.000224588 -0.000315371)
(-0.000401312 0.000214032 -0.000390954)
(-0.0003583 0.000207355 -0.000447656)
(-0.000310346 0.000202861 -0.00048375)
(-0.000258191 0.000198173 -0.000498793)
(-0.000203189 0.000190691 -0.000491432)
(-0.000145708 0.000177911 -0.000460525)
(-8.79134e-05 0.000157849 -0.000404908)
(-4.13457e-05 0.000129032 -0.000323071)
(-9.21097e-06 6.99625e-05 -0.000169044)
(-6.37512e-05 -0.000494821 0.00111727)
(-0.000144412 -0.000593323 0.00195747)
(-0.000273288 -0.000586086 0.00241343)
(-0.000450326 -0.000522126 0.00272273)
(-0.00062825 -0.000411165 0.00286834)
(-0.000792727 -0.000266989 0.00286726)
(-0.000937406 -0.000101591 0.00274012)
(-0.00105557 6.99207e-05 0.00251438)
(-0.00114487 0.000238392 0.0022187)
(-0.00120492 0.000394523 0.00188393)
(-0.00123705 0.000530655 0.00154351)
(-0.00124427 0.00064217 0.00123094)
(-0.00123137 0.000729109 0.000970493)
(-0.00120408 0.000794869 0.000768875)
(-0.00116793 0.000843439 0.000618601)
(-0.0011263 0.000877152 0.000505634)
(-0.00108314 0.000896739 0.000413063)
(-0.00103975 0.000902129 0.000326824)
(-0.000996757 0.000892906 0.000237499)
(-0.000953913 0.000868821 0.000140392)
(-0.000910225 0.000830124 3.5057e-05)
(-0.000864297 0.000777945 -7.55145e-05)
(-0.000814668 0.000714742 -0.000186028)
(-0.000760288 0.000644362 -0.000290265)
(-0.000701069 0.000571816 -0.000382775)
(-0.000637432 0.000501878 -0.000459924)
(-0.000570203 0.000438504 -0.00051885)
(-0.000500008 0.00038404 -0.000557752)
(-0.000427715 0.000337994 -0.00057836)
(-0.000354236 0.000298114 -0.000581739)
(-0.00028034 0.00026237 -0.000565637)
(-0.000205869 0.000228965 -0.000522429)
(-0.000132477 0.000198529 -0.000431697)
(-7.63126e-05 0.000173362 -0.000280394)
(-3.60541e-05 0.000148258 -3.16294e-05)
(-0.000205979 0.000904074 0.00162061)
(-0.00045678 0.00157778 0.00263373)
(-0.000793087 0.00191008 0.0031029)
(-0.00124304 0.00211262 0.00335601)
(-0.00166669 0.00218948 0.00339302)
(-0.00203014 0.00215968 0.00324452)
(-0.00232325 0.00204497 0.00294534)
(-0.00253714 0.001875 0.00254832)
(-0.00266767 0.00167507 0.0021046)
(-0.00272252 0.00146839 0.00166127)
(-0.00270929 0.00127445 0.00125607)
(-0.0026407 0.0011054 0.000914283)
(-0.00252935 0.000966029 0.000644806)
(-0.0023883 0.000857213 0.000443756)
(-0.0022296 0.0007763 0.000298578)
(-0.00206282 0.00071852 0.000195601)
(-0.00189415 0.000677935 0.000122175)
(-0.00172868 0.00064806 6.57413e-05)
(-0.00156925 0.000622569 1.44547e-05)
(-0.00141744 0.000595524 -4.16738e-05)
(-0.00127369 0.000562044 -0.000108694)
(-0.00113786 0.000519243 -0.000186418)
(-0.00100898 0.00046762 -0.000267409)
(-0.000887052 0.000413483 -0.000335853)
(-0.000774015 0.000367227 -0.000376244)
(-0.00066835 0.000330121 -0.000392343)
(-0.000570306 0.000300558 -0.000394033)
(-0.000480314 0.000277782 -0.000385828)
(-0.000397612 0.000260499 -0.000371212)
(-0.000321852 0.000246987 -0.000351082)
(-0.000252199 0.000235883 -0.00032515)
(-0.000187299 0.000225151 -0.000291297)
(-0.000125926 0.000213691 -0.000244821)
(-7.81411e-05 0.000200421 -0.000177395)
(-4.03608e-05 0.000181251 -1.48888e-05)
(-0.000328221 0.00198285 0.00190375)
(-0.000696864 0.00307081 0.00294041)
(-0.0011516 0.00350013 0.00335685)
(-0.00172909 0.00357795 0.00351469)
(-0.00226309 0.00332691 0.00344272)
(-0.00270726 0.00287338 0.00319913)
(-0.00304449 0.00232347 0.00283941)
(-0.00325761 0.00174614 0.00240889)
(-0.00334231 0.00118813 0.0019447)
(-0.0033175 0.000684696 0.00147924)
(-0.00320795 0.000259479 0.00104195)
(-0.0030407 -7.98557e-05 0.000663491)
(-0.00283434 -0.000328187 0.000395471)
(-0.00261146 -0.00047604 0.000259652)
(-0.00238584 -0.000538417 0.000198417)
(-0.00216256 -0.000540469 0.000163949)
(-0.00194596 -0.000503444 0.000138479)
(-0.0017401 -0.000443358 0.000118184)
(-0.00154702 -0.000371493 0.000102441)
(-0.00136767 -0.00029631 8.91049e-05)
(-0.00120223 -0.000223792 7.5241e-05)
(-0.00105052 -0.000157655 5.94672e-05)
(-0.00091217 -9.90874e-05 4.35294e-05)
(-0.000786918 -4.68559e-05 3.17989e-05)
(-0.000674324 1.70682e-06 2.867e-05)
(-0.000573263 4.8915e-05 3.44566e-05)
(-0.000482417 9.55693e-05 4.6147e-05)
(-0.00040081 0.000141394 6.00437e-05)
(-0.00032759 0.000185344 7.33069e-05)
(-0.000262215 0.000225954 8.39794e-05)
(-0.000203988 0.000260872 9.02722e-05)
(-0.000151251 0.000286134 8.60569e-05)
(-0.000101533 0.000295843 5.64956e-05)
(-6.28255e-05 0.000288055 6.92383e-06)
(-3.23831e-05 0.000245777 6.59565e-06)
(-0.000183327 0.00272767 0.00175188)
(-0.000373816 0.00395052 0.00261844)
(-0.000616581 0.00427409 0.00289603)
(-0.000934499 0.00418017 0.00292492)
(-0.00124125 0.00372908 0.00274692)
(-0.00151669 0.00301773 0.00240774)
(-0.00175216 0.00216422 0.00196749)
(-0.00193276 0.00127293 0.00148067)
(-0.00204126 0.000443981 0.00100352)
(-0.00207313 -0.000259736 0.000576989)
(-0.00203835 -0.000831633 0.000212663)
(-0.00195634 -0.00125468 -7.12332e-05)
(-0.0018483 -0.00152415 -0.000267332)
(-0.00172949 -0.00166399 -0.000392615)
(-0.00160685 -0.00170097 -0.000466088)
(-0.00148295 -0.00166442 -0.000501001)
(-0.00136128 -0.00157653 -0.000500608)
(-0.00124378 -0.0014561 -0.000467954)
(-0.00113243 -0.00131832 -0.000408921)
(-0.00102817 -0.0011743 -0.000331465)
(-0.000931133 -0.00103175 -0.000244142)
(-0.000841126 -0.00089538 -0.000154266)
(-0.000757586 -0.000767506 -6.73016e-05)
(-0.000679788 -0.000648762 1.32288e-05)
(-0.000606854 -0.000538734 8.52555e-05)
(-0.000537936 -0.00043651 0.000147821)
(-0.00047233 -0.000340998 0.000200563)
(-0.000409643 -0.000251313 0.000243289)
(-0.000349666 -0.000167007 0.000275374)
(-0.000292116 -8.8586e-05 0.000295861)
(-0.000236488 -1.74693e-05 0.000303294)
(-0.000182133 4.34219e-05 0.000292485)
(-0.000128153 9.02668e-05 0.000250575)
(-8.4605e-05 0.000116843 0.00017824)
(-4.25939e-05 0.000111167 0.000103245)
(5.43512e-05 0.00139985 0.00110774)
(0.000161783 0.00194961 0.00164819)
(0.000273769 0.00203841 0.00180779)
(0.000419038 0.00188635 0.00179909)
(0.000549523 0.00152454 0.00163765)
(0.000651192 0.00102751 0.0013604)
(0.000722713 0.000463603 0.00100739)
(0.000767556 -9.98495e-05 0.000624106)
(0.000786275 -0.000599754 0.000255741)
(0.000783783 -0.00100911 -7.49261e-05)
(0.000761487 -0.00130642 -0.000345899)
(0.000721881 -0.00149249 -0.000548913)
(0.000667965 -0.00158038 -0.000683676)
(0.000604833 -0.00158549 -0.000751945)
(0.00053538 -0.00152726 -0.000762282)
(0.000463162 -0.00142541 -0.000724668)
(0.000390456 -0.00129828 -0.000651571)
(0.000319131 -0.00116107 -0.000555641)
(0.000250868 -0.0010251 -0.000448171)
(0.000186937 -0.000897478 -0.000338195)
(0.00012848 -0.000782129 -0.000232212)
(7.63627e-05 -0.000680367 -0.000134424)
(3.12522e-05 -0.000591528 -4.69996e-05)
(-6.4552e-06 -0.000513718 2.92472e-05)
(-3.66113e-05 -0.000444329 9.44677e-05)
(-5.93182e-05 -0.000380625 0.000149182)
(-7.49276e-05 -0.000319914 0.000194039)
(-8.39303e-05 -0.000260392 0.000229326)
(-8.69322e-05 -0.000201043 0.000254899)
(-8.46057e-05 -0.000142187 0.000270053)
(-7.7547e-05 -8.52503e-05 0.000273755)
(-6.58968e-05 -3.29143e-05 0.000261428)
(-4.96485e-05 1.15039e-05 0.00022144)
(-3.47079e-05 3.92468e-05 0.000153224)
(-1.70315e-05 3.29952e-05 8.15214e-05)
(7.81171e-05 3.85624e-05 0.000375853)
(0.000188336 2.51467e-05 0.000453496)
(0.000311679 -2.54165e-06 0.000422113)
(0.00047261 -5.80342e-05 0.000359309)
(0.000619662 -0.000136166 0.000275498)
(0.00074068 -0.00022413 0.000176864)
(0.000830206 -0.000306689 7.47608e-05)
(0.000886239 -0.000371813 -1.99704e-05)
(0.000908614 -0.000413127 -0.000100508)
(0.000900224 -0.00042915 -0.000163321)
(0.000865455 -0.000418839 -0.000205999)
(0.000809297 -0.000382505 -0.000228089)
(0.000737472 -0.000324343 -0.000230031)
(0.000654855 -0.000251836 -0.000214539)
(0.000565688 -0.000173806 -0.000186505)
(0.000474386 -9.84009e-05 -0.00015136)
(0.000384751 -3.11509e-05 -0.000113571)
(0.000299526 2.44124e-05 -7.59545e-05)
(0.000220157 6.58677e-05 -4.00765e-05)
(0.00014733 9.19319e-05 -6.68859e-06)
(8.13069e-05 0.000102823 2.38954e-05)
(2.22044e-05 0.000100199 5.17404e-05)
(-2.98328e-05 8.66878e-05 7.6877e-05)
(-7.44685e-05 6.58004e-05 9.94634e-05)
(-0.000111008 4.15625e-05 0.000119414)
(-0.000138642 1.82183e-05 0.000136672)
(-0.000156837 -7.02153e-07 0.000150936)
(-0.000165523 -1.2525e-05 0.000161937)
(-0.000165095 -1.5902e-05 0.000168916)
(-0.000156378 -1.10846e-05 0.000171065)
(-0.000140234 2.10427e-07 0.000166951)
(-0.000117413 1.5344e-05 0.000152397)
(-8.86263e-05 3.07819e-05 0.000116982)
(-6.28431e-05 3.47925e-05 6.12832e-05)
(-3.17989e-05 -9.20078e-06 1.48484e-05)
(1.52911e-05 -0.000251971 0.000320978)
(4.02084e-05 -0.000239744 0.00029919)
(5.59802e-05 -0.000266461 0.000241406)
(7.75042e-05 -0.000320869 0.000198724)
(9.45271e-05 -0.000381134 0.000168952)
(0.000105081 -0.000436983 0.000141395)
(0.000109298 -0.000479208 0.000111312)
(0.000107897 -0.000497349 7.79268e-05)
(0.000102174 -0.000483507 4.25663e-05)
(9.34294e-05 -0.000435377 7.32786e-06)
(8.31122e-05 -0.000356076 -2.58959e-05)
(7.2685e-05 -0.000252852 -5.69759e-05)
(6.35054e-05 -0.000134853 -8.66003e-05)
(5.67377e-05 -1.25522e-05 -0.000115139)
(5.31554e-05 0.000101728 -0.000140822)
(5.23689e-05 0.000196018 -0.000160868)
(5.37117e-05 0.000266413 -0.000174067)
(5.70054e-05 0.00031718 -0.000181744)
(6.1204e-05 0.00035087 -0.000183994)
(6.53422e-05 0.000369083 -0.00018102)
(6.84354e-05 0.000372637 -0.000172634)
(6.96423e-05 0.000361393 -0.000159116)
(6.83212e-05 0.000334832 -0.000140823)
(6.43398e-05 0.000291923 -0.000119018)
(5.73075e-05 0.000230951 -9.46884e-05)
(4.76075e-05 0.000155592 -6.97933e-05)
(3.63262e-05 7.59346e-05 -4.61029e-05)
(2.41977e-05 6.50118e-07 -2.5018e-05)
(1.20317e-05 -6.41338e-05 -7.39625e-06)
(9.62024e-07 -0.000115163 5.46576e-06)
(-8.13648e-06 -0.000150614 1.23383e-05)
(-1.43234e-05 -0.000170036 9.02184e-06)
(-1.62056e-05 -0.00017334 -1.37269e-05)
(-1.53303e-05 -0.000172984 -5.59271e-05)
(-9.00111e-06 -0.000198047 -8.42211e-05)
(-9.5061e-06 -0.000344519 0.000274696)
(-1.47432e-05 -0.000298262 0.000318306)
(-2.54799e-05 -0.00028343 0.000309623)
(-4.09161e-05 -0.000274655 0.000289687)
(-6.02439e-05 -0.000266558 0.000262562)
(-8.31391e-05 -0.000255254 0.000226611)
(-0.000109054 -0.000237428 0.000182228)
(-0.000136319 -0.000211401 0.000133248)
(-0.000162923 -0.000177361 8.44298e-05)
(-0.000186502 -0.000136581 3.96913e-05)
(-0.000204977 -9.15791e-05 5.53222e-08)
(-0.000216543 -4.44219e-05 -3.48318e-05)
(-0.000220012 2.90147e-06 -6.666e-05)
(-0.000214752 4.91145e-05 -9.60642e-05)
(-0.000201111 9.28432e-05 -0.000123392)
(-0.000180279 0.000133387 -0.000147748)
(-0.000154056 0.000169713 -0.000168563)
(-0.00012417 0.000201542 -0.000184847)
(-9.2221e-05 0.000228211 -0.000196443)
(-5.94575e-05 0.000249754 -0.000202726)
(-2.71007e-05 0.000265541 -0.000203676)
(3.76417e-06 0.000275686 -0.000198653)
(3.19339e-05 0.000279538 -0.000187696)
(5.62668e-05 0.000277386 -0.000170345)
(7.54052e-05 0.00026879 -0.000147141)
(8.80977e-05 0.000254477 -0.0001185)
(9.36381e-05 0.000234693 -8.64675e-05)
(9.20927e-05 0.00021103 -5.32383e-05)
(8.4292e-05 0.000184366 -2.23192e-05)
(7.13771e-05 0.000156081 3.32506e-06)
(5.4973e-05 0.000126684 1.98903e-05)
(3.65023e-05 9.53394e-05 2.18104e-05)
(1.86764e-05 5.97018e-05 -4.78065e-07)
(6.41422e-06 1.32925e-05 -4.59512e-05)
(1.3064e-07 -0.000104286 -9.16498e-05)
(-2.06966e-05 -0.000311718 0.000198357)
(-3.94284e-05 -0.000273924 0.00027396)
(-6.02282e-05 -0.000261829 0.000293675)
(-8.62978e-05 -0.000251992 0.000293962)
(-0.00011131 -0.00024131 0.000278559)
(-0.000134679 -0.000228933 0.000248417)
(-0.000156126 -0.000213591 0.000205176)
(-0.000174777 -0.000195628 0.000152407)
(-0.000189783 -0.000174748 9.61583e-05)
(-0.000200496 -0.000151894 4.209e-05)
(-0.000206648 -0.000127199 -5.76848e-06)
(-0.000208242 -0.00010176 -4.61721e-05)
(-0.000205467 -7.57599e-05 -7.92381e-05)
(-0.000198624 -5.02292e-05 -0.000106137)
(-0.000188085 -2.52818e-05 -0.000127721)
(-0.000174383 -1.84893e-06 -0.000144947)
(-0.000158093 2.01282e-05 -0.000158094)
(-0.000139735 3.98662e-05 -0.000167543)
(-0.000119839 5.75994e-05 -0.000173065)
(-9.90381e-05 7.25332e-05 -0.000174629)
(-7.79553e-05 8.49876e-05 -0.000171604)
(-5.71917e-05 9.41435e-05 -0.000163678)
(-3.73543e-05 0.00010048 -0.000150037)
(-1.9076e-05 0.000103263 -0.000130485)
(-2.97205e-06 0.000103247 -0.000104708)
(1.03905e-05 9.99189e-05 -7.37486e-05)
(2.05619e-05 9.44414e-05 -3.92321e-05)
(2.72684e-05 8.64205e-05 -4.57231e-06)
(3.05031e-05 7.70252e-05 2.66933e-05)
(3.04962e-05 6.54248e-05 5.05247e-05)
(2.77288e-05 5.19499e-05 6.41284e-05)
(2.27465e-05 3.42089e-05 6.38498e-05)
(1.62843e-05 1.0282e-05 4.54162e-05)
(1.06414e-05 -2.58335e-05 9.65264e-06)
(5.12997e-06 -0.000125378 -4.23656e-05)
(-1.40248e-05 -0.000252293 0.000138533)
(-2.77221e-05 -0.000214544 0.000227891)
(-4.48953e-05 -0.00020309 0.000263048)
(-6.66657e-05 -0.00019415 0.000276054)
(-8.70865e-05 -0.00018528 0.000269861)
(-0.000105525 -0.000175532 0.000247576)
(-0.000121684 -0.00016461 0.000211715)
(-0.000135136 -0.000152507 0.000165972)
(-0.000145356 -0.000139602 0.000115751)
(-0.000152122 -0.000126163 6.64718e-05)
(-0.000155376 -0.000112633 2.21036e-05)
(-0.000155295 -9.90954e-05 -1.56251e-05)
(-0.00015208 -8.58213e-05 -4.65447e-05)
(-0.00014605 -7.27116e-05 -7.13941e-05)
(-0.000137493 -5.99509e-05 -9.09824e-05)
(-0.000126793 -4.73763e-05 -0.000106083)
(-0.000114285 -3.52055e-05 -0.000117123)
(-0.000100415 -2.32915e-05 -0.000124396)
(-8.55766e-05 -1.19743e-05 -0.000127849)
(-7.02211e-05 -1.1696e-06 -0.000127342)
(-5.47142e-05 8.66221e-06 -0.000122415)
(-3.95764e-05 1.75884e-05 -0.000112569)
(-2.5245e-05 2.50862e-05 -9.70816e-05)
(-1.22244e-05 3.12866e-05 -7.54142e-05)
(-9.26487e-07 3.57077e-05 -4.72944e-05)
(8.21751e-06 3.86181e-05 -1.34509e-05)
(1.49321e-05 3.96265e-05 2.41193e-05)
(1.90585e-05 3.9075e-05 6.18187e-05)
(2.06758e-05 3.64845e-05 9.52791e-05)
(2.00512e-05 3.18591e-05 0.000120279)
(1.75181e-05 2.4076e-05 0.000133652)
(1.34324e-05 1.18725e-05 0.000132418)
(8.32187e-06 -7.60574e-06 0.000112584)
(4.09361e-06 -3.86944e-05 7.41084e-05)
(2.00111e-06 -0.000127099 4.89347e-06)
(-1.17823e-05 -0.000251055 6.04697e-05)
(-2.3697e-05 -0.000226429 0.000147066)
(-3.95264e-05 -0.000221526 0.000189774)
(-5.92614e-05 -0.000219093 0.000209694)
(-7.78715e-05 -0.00021697 0.000208356)
(-9.4472e-05 -0.000214576 0.000190348)
(-0.000108635 -0.00021149 0.000158852)
(-0.000119815 -0.00020787 0.00011727)
(-0.000127541 -0.000203801 7.02745e-05)
(-0.000131582 -0.000199547 2.28774e-05)
(-0.000131953 -0.000195091 -2.08393e-05)
(-0.000128853 -0.000190548 -5.88293e-05)
(-0.0001226 -0.000185758 -9.0388e-05)
(-0.000113557 -0.000180735 -0.000115738)
(-0.000102161 -0.000175181 -0.00013539)
(-8.88036e-05 -0.000169096 -0.000149903)
(-7.39787e-05 -0.000162262 -0.000159585)
(-5.81001e-05 -0.000154785 -0.000164655)
(-4.16985e-05 -0.000146557 -0.000165135)
(-2.52118e-05 -0.000137821 -0.000160897)
(-9.20042e-06 -0.00012861 -0.000151638)
(5.90335e-06 -0.000119303 -0.000136934)
(1.9536e-05 -0.00011005 -0.000116328)
(3.12849e-05 -0.00010129 -8.93796e-05)
(4.06415e-05 -9.31803e-05 -5.6112e-05)
(4.72959e-05 -8.6103e-05 -1.73635e-05)
(5.09313e-05 -8.01424e-05 2.45123e-05)
(5.15204e-05 -7.55965e-05 6.57638e-05)
(4.91708e-05 -7.25636e-05 0.000101797)
(4.42623e-05 -7.15416e-05 0.000128446)
(3.72573e-05 -7.30684e-05 0.00014231)
(2.8598e-05 -7.85256e-05 0.000139955)
(1.89425e-05 -8.96694e-05 0.000116083)
(1.08342e-05 -0.00011007 7.06391e-05)
(5.41661e-06 -0.00017316 -7.66264e-06)
(-9.19895e-06 -0.000217705 -9.26873e-06)
(-2.21305e-05 -0.000182347 7.34663e-05)
(-4.09835e-05 -0.00017426 0.000124596)
(-6.5527e-05 -0.000172485 0.000150223)
(-8.93194e-05 -0.000174812 0.00015027)
(-0.000110695 -0.000179899 0.000131509)
(-0.000128882 -0.000186927 9.79442e-05)
(-0.000143028 -0.000195203 5.31782e-05)
(-0.000152471 -0.000204435 1.53375e-06)
(-0.000156808 -0.000213967 -5.18587e-05)
(-0.000155994 -0.000223493 -0.000102881)
(-0.000150196 -0.000232254 -0.000148572)
(-0.000139804 -0.000239986 -0.000187711)
(-0.000125332 -0.000245976 -0.000219721)
(-0.000107391 -0.000250046 -0.000244735)
(-8.66393e-05 -0.000251579 -0.000262752)
(-6.37935e-05 -0.000250538 -0.000274031)
(-3.95602e-05 -0.000246491 -0.000278548)
(-1.47157e-05 -0.000239641 -0.000276402)
(9.92911e-06 -0.000229826 -0.000267385)
(3.35413e-05 -0.000217464 -0.000251444)
(5.52186e-05 -0.000202693 -0.000228295)
(7.41108e-05 -0.000186177 -0.000197892)
(8.94047e-05 -0.000168323 -0.000160208)
(0.000100464 -0.000149894 -0.000115863)
(0.000106782 -0.000131445 -6.62668e-05)
(0.00010813 -0.000113827 -1.43893e-05)
(0.000104477 -9.77514e-05 3.55748e-05)
(9.61673e-05 -8.40909e-05 7.86832e-05)
(8.37943e-05 -7.37413e-05 0.000110618)
(6.81729e-05 -6.78057e-05 0.000127864)
(5.01005e-05 -6.79351e-05 0.000126172)
(3.10588e-05 -7.62085e-05 9.86924e-05)
(1.63631e-05 -9.60407e-05 4.59307e-05)
(6.43659e-06 -0.000160871 -3.54247e-05)
(-1.21064e-05 -0.000147418 -6.82912e-05)
(-3.12535e-05 -7.75282e-05 6.48311e-06)
(-5.65495e-05 -5.85209e-05 6.10496e-05)
(-8.9638e-05 -5.55384e-05 8.66742e-05)
(-0.000121147 -6.45061e-05 8.21553e-05)
(-0.000148627 -8.28065e-05 5.5527e-05)
(-0.000170747 -0.00010769 1.16375e-05)
(-0.000186403 -0.000137395 -4.60063e-05)
(-0.000194678 -0.000169994 -0.000113043)
(-0.000195202 -0.000204374 -0.000184389)
(-0.000188359 -0.000238907 -0.000254836)
(-0.000175295 -0.000272412 -0.000319911)
(-0.000157476 -0.000303237 -0.000376409)
(-0.000136354 -0.000330369 -0.000422573)
(-0.000113049 -0.000352557 -0.00045789)
(-8.83108e-05 -0.000369204 -0.000482747)
(-6.25513e-05 -0.000379502 -0.00049783)
(-3.60987e-05 -0.000383144 -0.000503619)
(-9.16564e-06 -0.000379498 -0.000500328)
(1.79846e-05 -0.000368405 -0.000487762)
(4.50792e-05 -0.000349291 -0.00046526)
(7.16471e-05 -0.000322286 -0.000431835)
(9.69022e-05 -0.000288302 -0.00038693)
(0.000119659 -0.000249406 -0.000330897)
(0.000138399 -0.000207163 -0.000265374)
(0.000151426 -0.000163716 -0.000193686)
(0.000157334 -0.00012077 -0.000120732)
(0.000155344 -8.02676e-05 -5.22478e-05)
(0.000145503 -4.39179e-05 6.33281e-06)
(0.000128694 -1.40407e-05 5.0655e-05)
(0.000106137 7.09583e-06 7.73891e-05)
(7.92162e-05 1.62407e-05 8.20175e-05)
(5.02976e-05 1.01089e-05 5.70319e-05)
(2.79749e-05 -1.60444e-05 3.84617e-06)
(1.08217e-05 -0.000105547 -7.01102e-05)
(-1.3811e-05 -8.12473e-06 -6.26413e-05)
(-3.59393e-05 0.000119205 1.1294e-06)
(-6.30514e-05 0.000153131 4.72294e-05)
(-9.79349e-05 0.000153982 6.23692e-05)
(-0.000129495 0.000129206 4.45155e-05)
(-0.000154021 8.47039e-05 5.08379e-08)
(-0.000169619 2.6168e-05 -6.71918e-05)
(-0.000175891 -4.16083e-05 -0.000153028)
(-0.000173329 -0.000115053 -0.000250389)
(-0.000163459 -0.00018755 -0.000349853)
(-0.000148702 -0.000249721 -0.000442181)
(-0.000131266 -0.000295633 -0.000521563)
(-0.000112835 -0.000324717 -0.000585839)
(-9.43735e-05 -0.000340319 -0.000635545)
(-7.61385e-05 -0.000347236 -0.000672241)
(-5.80801e-05 -0.000350081 -0.000697667)
(-4.0114e-05 -0.000351884 -0.00071325)
(-2.2261e-05 -0.000352761 -0.000719639)
(-4.36219e-06 -0.000352662 -0.000716962)
(1.37432e-05 -0.000352186 -0.000705012)
(3.212e-05 -0.000351065 -0.000682956)
(5.10561e-05 -0.000345773 -0.000649161)
(7.07667e-05 -0.000331289 -0.000601753)
(9.11115e-05 -0.000302699 -0.000539126)
(0.000111156 -0.000256331 -0.000460582)
(0.000129097 -0.00019194 -0.000368073)
(0.000142666 -0.000113587 -0.000266959)
(0.000149445 -2.95826e-05 -0.000166392)
(0.000147353 4.98629e-05 -7.69868e-05)
(0.000135706 0.000117138 -6.94032e-06)
(0.00011526 0.000167537 3.94972e-05)
(8.76992e-05 0.00019548 5.89972e-05)
(5.66026e-05 0.000194638 4.58413e-05)
(3.22567e-05 0.000157459 2.32863e-06)
(1.23112e-05 1.87483e-05 -5.98586e-05)
(-1.07438e-05 0.0001162 -3.07445e-05)
(-2.83851e-05 0.000289 1.45163e-05)
(-4.94377e-05 0.000330788 4.15198e-05)
(-7.62957e-05 0.000321266 3.91788e-05)
(-0.000100198 0.00026862 3.49393e-06)
(-0.000116673 0.000178061 -6.27867e-05)
(-0.000124261 7.04647e-05 -0.000153831)
(-0.000123587 -3.18867e-05 -0.000259215)
(-0.000116624 -0.000115023 -0.000367075)
(-0.000105863 -0.000172937 -0.000467209)
(-9.37323e-05 -0.00020462 -0.000552493)
(-8.17189e-05 -0.000214016 -0.000619494)
(-7.02238e-05 -0.000209483 -0.000668615)
(-5.88486e-05 -0.000201224 -0.000703074)
(-4.69407e-05 -0.000196863 -0.000727235)
(-3.46412e-05 -0.000194738 -0.000742693)
(-2.17906e-05 -0.000193736 -0.000751433)
(-8.66551e-06 -0.000193189 -0.000754596)
(4.45507e-06 -0.000192839 -0.000752641)
(1.72565e-05 -0.000193092 -0.000745227)
(2.94504e-05 -0.000194759 -0.000731305)
(4.12105e-05 -0.000199163 -0.000708979)
(5.23814e-05 -0.000208145 -0.000676759)
(6.37376e-05 -0.000213476 -0.000629991)
(7.56904e-05 -0.000204553 -0.00056525)
(8.78832e-05 -0.000172616 -0.000481856)
(9.89762e-05 -0.000113233 -0.000382815)
(0.000106789 -2.70979e-05 -0.000274881)
(0.000109005 7.95171e-05 -0.000168245)
(0.000103556 0.000191683 -7.52811e-05)
(8.95623e-05 0.000285829 -7.09439e-06)
(6.83599e-05 0.000340148 3.02182e-05)
(4.42978e-05 0.000349702 3.44185e-05)
(2.53494e-05 0.000306316 9.6732e-06)
(9.44514e-06 0.00012777 -3.33009e-05)
(-7.21464e-06 0.000204797 -2.08353e-05)
(-2.01349e-05 0.000413017 6.86161e-06)
(-3.57769e-05 0.000464992 1.92662e-05)
(-5.63666e-05 0.000456052 6.14477e-06)
(-7.5559e-05 0.000393577 -3.72073e-05)
(-8.93315e-05 0.000285098 -0.000109061)
(-9.81652e-05 0.000165905 -0.000200207)
(-0.000102217 6.27865e-05 -0.000298544)
(-0.000101991 -1.16309e-05 -0.000393349)
(-9.83758e-05 -5.39696e-05 -0.000477104)
(-9.2241e-05 -6.82428e-05 -0.000545494)
(-8.41566e-05 -6.40038e-05 -0.00059742)
(-7.43532e-05 -5.36251e-05 -0.000634816)
(-6.24974e-05 -4.84074e-05 -0.000662033)
(-4.93728e-05 -4.66981e-05 -0.000680551)
(-3.50934e-05 -4.67399e-05 -0.000692357)
(-2.00505e-05 -4.72077e-05 -0.000698949)
(-4.63528e-06 -4.73458e-05 -0.000701137)
(1.08092e-05 -4.68708e-05 -0.000699178)
(2.5928e-05 -4.61079e-05 -0.000692863)
(4.03194e-05 -4.58528e-05 -0.000681439)
(5.35685e-05 -4.74855e-05 -0.000663498)
(6.55361e-05 -5.28353e-05 -0.000637176)
(7.54231e-05 -6.35673e-05 -0.000601086)
(8.35851e-05 -6.81476e-05 -0.000550796)
(8.98371e-05 -5.39063e-05 -0.000484153)
(9.36671e-05 -1.10858e-05 -0.00040198)
(9.42828e-05 6.439e-05 -0.000308295)
(9.08774e-05 0.000169072 -0.000210394)
(8.29882e-05 0.000290158 -0.000118951)
(7.04241e-05 0.00040041 -4.63322e-05)
(5.25623e-05 0.000463835 -2.11008e-06)
(3.33403e-05 0.000472869 1.21684e-05)
(1.87356e-05 0.000420195 1.27743e-06)
(6.61934e-06 0.000208986 -2.44194e-05)
(-6.61574e-06 0.000280876 -1.5436e-05)
(-1.82453e-05 0.000523163 3.95268e-06)
(-3.25037e-05 0.000587783 1.0063e-05)
(-5.16985e-05 0.000583809 -7.09509e-06)
(-7.01708e-05 0.000518949 -5.16727e-05)
(-8.49097e-05 0.000408216 -0.000120801)
(-9.6366e-05 0.000289779 -0.000204634)
(-0.000104033 0.000189483 -0.000292243)
(-0.000107424 0.000118316 -0.000375219)
(-0.000106586 7.81694e-05 -0.000448275)
(-0.000101766 6.37831e-05 -0.000508666)
(-9.33837e-05 6.51411e-05 -0.000555742)
(-8.2066e-05 7.0869e-05 -0.000590748)
(-6.82839e-05 7.23363e-05 -0.000616479)
(-5.30944e-05 7.13234e-05 -0.00063392)
(-3.67797e-05 6.93951e-05 -0.000644946)
(-1.97385e-05 6.78329e-05 -0.000651073)
(-2.34798e-06 6.72914e-05 -0.000653075)
(1.50546e-05 6.80961e-05 -0.000651196)
(3.21295e-05 6.99093e-05 -0.00064522)
(4.8497e-05 7.20648e-05 -0.000634405)
(6.37496e-05 7.32667e-05 -0.000617283)
(7.76064e-05 7.19317e-05 -0.000592037)
(8.89907e-05 6.61961e-05 -0.000557787)
(9.74433e-05 6.47638e-05 -0.000511736)
(0.000102354 7.9139e-05 -0.00045255)
(0.00010333 0.000119434 -0.000380725)
(0.000100157 0.000190938 -0.000298821)
(9.2818e-05 0.000291755 -0.000211952)
(8.18156e-05 0.000410883 -0.000128401)
(6.76506e-05 0.000522396 -5.91143e-05)
(4.98354e-05 0.000587903 -1.40986e-05)
(3.12988e-05 0.000592011 3.80092e-06)
(1.75484e-05 0.000527046 -1.21823e-06)
(6.2916e-06 0.000282738 -1.88685e-05)
(-6.35325e-06 0.000355072 -5.72454e-06)
(-1.73051e-05 0.000632029 1.2889e-05)
(-3.0954e-05 0.000711385 1.80219e-05)
(-4.96629e-05 0.000716498 1.59874e-06)
(-6.82379e-05 0.000655785 -3.97424e-05)
(-8.41234e-05 0.000548292 -0.000102697)
(-9.7326e-05 0.00043219 -0.000178149)
(-0.000106883 0.000332382 -0.000256494)
(-0.000111956 0.000258588 -0.000331216)
(-0.000112253 0.00021262 -0.000398123)
(-0.000107853 0.00018984 -0.000454842)
(-9.92026e-05 0.000181861 -0.000500307)
(-8.71133e-05 0.000179277 -0.000534775)
(-7.23512e-05 0.000175267 -0.000559978)
(-5.59517e-05 0.000170285 -0.000577039)
(-3.83879e-05 0.000165659 -0.000587752)
(-2.00602e-05 0.000162519 -0.000593641)
(-1.36534e-06 0.000161428 -0.000595542)
(1.73357e-05 0.00016268 -0.000593679)
(3.56835e-05 0.000165976 -0.000587843)
(5.32832e-05 0.000170754 -0.000577217)
(6.97292e-05 0.000175879 -0.000560299)
(8.45491e-05 0.000180016 -0.000535326)
(9.67059e-05 0.000182662 -0.000501237)
(0.000105431 0.000190661 -0.000456315)
(0.000109919 0.00021348 -0.000400281)
(0.000109738 0.000259551 -0.000334132)
(0.000104818 0.000333523 -0.000260149)
(9.54598e-05 0.000433599 -0.000182416)
(8.25059e-05 0.00055006 -0.000107353)
(6.69158e-05 0.000658003 -4.4503e-05)
(4.8686e-05 0.000719157 -3.01575e-06)
(3.03299e-05 0.000714154 1.38233e-05)
(1.69577e-05 0.000634597 9.40425e-06)
(6.18737e-06 0.000355986 -7.99313e-06)
(-6.69045e-06 0.000421849 1.0002e-05)
(-1.73886e-05 0.000730726 3.37921e-05)
(-3.07785e-05 0.000824558 4.12871e-05)
(-4.92346e-05 0.000839902 2.81125e-05)
(-6.79338e-05 0.000785846 -8.38177e-06)
(-8.45486e-05 0.000682508 -6.48347e-05)
(-9.87761e-05 0.000567613 -0.000133033)
(-0.000109447 0.000465075 -0.000204612)
(-0.000115512 0.000384608 -0.000273735)
(-0.000116544 0.000328267 -0.000337011)
(-0.000112538 0.000292963 -0.000391967)
(-0.000103897 0.000272356 -0.000437114)
(-9.14412e-05 0.000259323 -0.000471884)
(-7.60754e-05 0.000248528 -0.000497123)
(-5.87454e-05 0.000238729 -0.00051426)
(-4.01664e-05 0.000230958 -0.000524882)
(-2.07575e-05 0.000225999 -0.000530659)
(-9.44645e-07 0.000224306 -0.000532514)
(1.88714e-05 0.000226109 -0.000530692)
(3.82957e-05 0.000231178 -0.000524957)
(5.69013e-05 0.000239057 -0.000514393)
(7.42635e-05 0.00024896 -0.000497341)
(8.96746e-05 0.000259854 -0.000472232)
(0.000102183 0.000272962 -0.000437665)
(0.000110885 0.000293625 -0.000392816)
(0.000114965 0.000328988 -0.000338252)
(0.000114021 0.000385409 -0.000275437)
(0.000108067 0.000465999 -0.000206791)
(9.75371e-05 0.000568703 -0.000135655)
(8.34769e-05 0.00068382 -6.77898e-05)
(6.70578e-05 0.000787447 -1.1492e-05)
(4.8584e-05 0.000841809 2.50413e-05)
(3.03613e-05 0.000826562 3.84869e-05)
(1.71627e-05 0.000732633 3.15079e-05)
(6.57911e-06 0.000422332 8.56004e-06)
(-7.05165e-06 0.000482376 2.67832e-05)
(-1.74933e-05 0.000819149 5.82909e-05)
(-3.05332e-05 0.000926371 6.93676e-05)
(-4.85068e-05 0.000952078 5.99146e-05)
(-6.69273e-05 0.000906043 2.792e-05)
(-8.35884e-05 0.000806994 -2.34556e-05)
(-9.81314e-05 0.000692374 -8.64066e-05)
(-0.000109302 0.000585477 -0.00015312)
(-0.000115999 0.000495867 -0.000218284)
(-0.000117679 0.000426653 -0.000278556)
(-0.000114266 0.000376262 -0.000331647)
(-0.000106065 0.000340622 -0.000375969)
(-9.37737e-05 0.000314864 -0.00041061)
(-7.83344e-05 0.000295037 -0.000435791)
(-6.05348e-05 0.000278827 -0.000453178)
(-4.13342e-05 0.000266771 -0.000463925)
(-2.1222e-05 0.000259372 -0.00046967)
(-6.67625e-07 0.000256878 -0.000471491)
(1.98914e-05 0.000259434 -0.000469691)
(4.00144e-05 0.000266895 -0.000463971)
(5.92333e-05 0.000279012 -0.000453255)
(7.70573e-05 0.000295282 -0.00043591)
(9.25303e-05 0.000315169 -0.000410793)
(0.000104862 0.000340987 -0.000376251)
(0.000113109 0.000376687 -0.00033208)
(0.000116577 0.000427145 -0.000279198)
(0.000114962 0.000496436 -0.000219188)
(0.000108347 0.000586143 -0.000154321)
(9.72775e-05 0.000693164 -8.79068e-05)
(8.28522e-05 0.000807943 -2.52066e-05)
(6.63254e-05 0.000907197 2.60253e-05)
(4.80626e-05 0.000953453 5.80137e-05)
(3.02514e-05 0.00092784 6.764e-05)
(1.73481e-05 0.000820593 5.69213e-05)
(6.98119e-06 0.000482547 2.59414e-05)
(-7.16726e-06 0.000532382 3.99017e-05)
(-1.71745e-05 0.000890973 7.81048e-05)
(-2.97671e-05 0.00100917 9.22578e-05)
(-4.7043e-05 0.00104399 8.56871e-05)
(-6.48047e-05 0.00100571 5.67683e-05)
(-8.09503e-05 0.00091113 8.59839e-06)
(-9.51968e-05 0.000797057 -5.10513e-05)
(-0.000106306 0.000686089 -0.000114486)
(-0.000113193 0.000587726 -0.000176573)
(-0.00011529 0.000505772 -0.000234223)