/*--------------------------------*- C++ -*----------------------------------*\
| =========                 |                                                 |
| \\      /  F ield         | OpenFOAM: The Open Source CFD Toolbox           |
|  \\    /   O peration     | Version:  v2006                                 |
|   \\  /    A nd           | Website:  www.openfoam.com                      |
|    \\/     M anipulation  |                                                 |
\*---------------------------------------------------------------------------*/
FoamFile
{
    version     2.0;
    format      ascii;
    class       volScalarField;
    location    "3";
    object      omega;
}
// * * * * * * * * * * * * * * * * * * * * * * * * * * * * * * * * * * * * * //

dimensions      [0 0 -1 0 0 0 0];


internalField   nonuniform List<scalar> 
78750
(
781.194
127.217
99.3726
74.1107
50.8871
24.3122
13.6861
16.0296
15.5972
15.4687
15.5698
15.5043
15.4634
15.5055
15.4546
15.4603
15.4476
15.4466
15.4379
15.434
15.4286
15.4227
15.4156
15.4063
15.3935
15.3761
15.3521
15.3195
15.2753
15.215
15.1309
15.0126
14.8399
14.646
450.825
465.306
13.8341
4.51902
7.20745
6.00632
7.4042
7.11208
7.07303
6.99927
6.98293
6.97733
6.98282
7.00232
7.02834
7.06487
7.11041
7.16564
7.22983
7.30216
7.38192
7.46737
7.55705
7.65019
7.74662
7.84715
7.95295
8.06499
8.18354
8.30682
8.42791
8.52829
8.55914
8.33332
6.66744
663.797
452.129
7.61894
7.6141
7.6272
7.43285
7.14093
6.89837
6.63474
6.49375
6.43133
6.41018
6.39671
6.37309
6.33359
6.27828
6.21222
6.14103
6.07206
6.01289
5.97278
5.95879
5.97594
6.02981
6.11905
6.2439
6.40527
6.60546
6.85057
7.15467
7.54625
8.07767
8.81531
9.82379
11.1224
670.653
449.662
6.13975
6.62826
6.96957
7.1726
7.29595
7.38087
7.44254
7.50314
7.57955
7.68123
7.79535
7.88082
7.90611
7.86814
7.78054
7.66105
7.523
7.37526
7.22469
7.0783
6.94403
6.83047
6.74187
6.68268
6.65515
6.65773
6.68062
6.69121
6.62535
6.36657
5.70508
4.18575
4.62849
669.389
447.756
4.45853
4.76509
4.79329
4.64339
4.52666
4.55421
4.67522
4.77948
4.79182
4.68443
4.47137
4.23506
4.09173
4.07708
4.16342
4.31195
4.49262
4.68318
4.87429
5.06158
5.24744
5.43281
5.62171
5.82383
6.05277
6.3281
6.6874
7.19227
7.88971
8.73147
9.44705
9.35749
8.76672
674.604
447.78
4.89898
5.28939
5.42708
5.40933
5.32425
5.27509
5.26659
5.28157
5.31719
5.37682
5.45812
5.55044
5.62997
5.6776
5.69259
5.68119
5.64611
5.59743
5.55813
5.54787
5.58
5.6719
5.85247
6.15629
6.60264
7.15847
7.73942
8.31334
8.98323
9.87973
10.9881
12.4145
13.7206
677.621
447.623
4.26707
4.70494
4.9741
5.11604
5.17962
5.20339
5.20461
5.18989
5.16116
5.11639
5.04845
4.94426
4.79259
4.61073
4.4596
4.37785
4.37333
4.44125
4.55875
4.68786
4.80898
4.91588
5.00201
5.04011
4.93802
4.4946
3.71294
4.32133
3.78371
3.65369
4.746
5.58879
9.6628
674.398
447.685
4.27651
4.65472
4.87625
5.00098
5.07889
5.12971
5.16655
5.20002
5.23348
5.26761
5.30275
5.33882
5.3756
5.41487
5.45843
5.50575
5.55547
5.60684
5.66249
5.73114
5.83007
5.99073
6.28624
6.80468
7.51674
8.2568
8.87177
9.3164
9.42753
9.04273
8.29557
7.28264
9.3978
680.25
447.609
3.8941
4.19845
4.44973
4.61888
4.7123
4.75517
4.76983
4.77263
4.77847
4.79928
4.8398
4.89559
4.95832
5.02531
5.10097
5.1905
5.29201
5.39618
5.49526
5.5857
5.68305
5.83801
6.14345
6.67439
7.43058
8.338
9.40243
10.7191
12.2887
13.3885
13.5439
12.9413
13.4321
682.094
447.74
3.97099
4.17847
4.35072
4.47322
4.55411
4.61561
4.6766
4.75183
4.84918
4.96397
5.08553
5.20436
5.3173
5.42844
5.54671
5.67771
5.81876
5.96037
6.09613
6.21431
6.28085
6.23662
5.99647
5.48186
4.04528
3.51895
4.44392
4.58618
5.56974
9.27739
12.3253
13.5714
14.4602
682.01
447.701
3.86239
4.06787
4.25547
4.39522
4.49087
4.56821
4.64372
4.72402
4.80966
4.89559
4.98004
5.07149
5.18783
5.34648
5.55237
5.79152
6.04148
6.31928
6.71903
7.37017
8.28072
9.36998
10.5293
11.5596
12.1043
12.1334
11.8248
11.1716
10.2121
9.80217
11.2382
14.007
15.9006
684.654
447.718
3.90992
4.08127
4.23009
4.35581
4.46053
4.55314
4.64339
4.74007
4.8441
4.95064
5.05643
5.16228
5.26849
5.3782
5.4984
5.63502
5.78915
5.9542
6.12634
6.31479
6.53857
6.77583
6.9971
7.20644
7.62087
8.37006
9.55962
11.1612
12.392
12.7609
12.6968
13.8237
15.6632
684.01
447.745
3.87433
4.02892
4.18252
4.31484
4.422
4.51553
4.60674
4.7024
4.80351
4.9061
5.00547
5.10074
5.19468
5.29435
5.40954
5.55078
5.72525
5.91977
6.11047
6.25443
6.28899
6.23043
6.26467
6.39182
6.47627
6.32655
5.76312
6.08322
8.9843
11.3904
12.6085
13.6761
15.6775
685.826
447.788
3.92308
4.10064
4.26975
4.42061
4.54116
4.65264
4.76772
4.88639
5.01487
5.15154
5.2895
5.42933
5.57603
5.73791
5.92473
6.1604
6.50759
7.06774
7.92937
9.09077
10.4317
11.7907
12.8902
13.4883
13.8045
13.9303
13.8307
13.337
12.8134
13.0073
13.6831
14.9638
16.8624
687.109
447.692
3.85405
4.00767
4.14634
4.27072
4.38405
4.49263
4.60158
4.71385
4.83006
4.95067
5.07507
5.20717
5.3554
5.52462
5.70829
5.89322
6.06986
6.19949
6.16469
5.92268
5.6349
5.38797
5.7388
6.70062
7.81151
9.20591
10.9464
12.5447
13.7436
14.6392
15.2223
15.6712
16.6756
685.587
447.876
3.94254
4.105
4.28002
4.42567
4.5509
4.67561
4.81892
4.98817
5.16679
5.34698
5.53547
5.74916
6.00061
6.27667
6.55018
6.82928
7.20197
7.82988
8.74289
9.71625
10.4065
10.7256
10.7551
10.4794
9.85395
9.22539
9.21296
9.80166
10.6553
11.7553
13.0907
14.7837
16.8069
688.665
447.683
3.83644
4.01426
4.16912
4.31757
4.46616
4.60905
4.7492
4.90092
5.0753
5.28377
5.54093
5.83927
6.13587
6.39269
6.63598
6.97814
7.58265
8.52048
9.62937
10.6668
11.4902
12.1457
12.7189
13.2497
13.7447
14.2414
14.814
15.4748
16.069
16.4224
16.6601
17.2122
18.4228
691.149
447.739
3.85674
3.98936
4.10226
4.21013
4.32193
4.44456
4.57977
4.73075
4.90826
5.13352
5.42798
5.78504
6.16246
6.49995
6.75815
6.92984
7.03703
7.1435
7.32162
7.57166
7.80366
7.94775
8.02251
8.12898
8.44008
9.0333
9.92588
11.1556
12.7795
14.4013
15.743
17.2828
19.0625
693.814
447.686
3.87341
4.03241
4.13418
4.21391
4.29203
4.38233
4.49656
4.65144
4.87005
5.1676
5.53491
5.92725
6.27518
6.53775
6.73536
6.92938
7.25883
7.95703
9.20339
10.7303
12.024
12.9157
13.6096
14.2291
14.7648
15.2395
15.6877
16.1023
16.7167
17.7577
18.6207
19.4252
20.5697
695.347
447.721
4.27263
4.57599
4.73949
4.83255
4.88529
4.92597
4.97987
5.07037
5.21321
5.41144
5.64818
5.88644
6.10114
6.27256
6.34823
6.31392
6.04915
5.74361
5.40402
5.50823
6.31526
7.15649
7.63503
8.03741
9.10421
10.4995
11.9664
13.4049
14.8942
16.7025
18.362
19.3973
20.3722
694.784
448.086
5.46879
6.06594
6.39395
6.59609
6.72506
6.82144
6.92174
7.04332
7.18859
7.3476
7.50269
7.6336
7.70969
7.7383
7.83816
8.0607
8.31361
8.58041
8.81878
8.94264
8.97059
9.11995
9.75108
10.8742
11.9754
12.7921
13.3639
13.8276
14.473
15.8793
17.9766
19.4789
20.883
697.93
449.053
6.99979
7.67515
8.03382
8.22978
8.33246
8.38677
8.41981
8.44745
8.48852
8.56573
8.72993
9.07442
9.65097
10.3647
11.0518
11.6104
12.0217
12.3031
12.4765
12.5374
12.4243
12.1985
12.2044
12.6749
13.5334
14.5166
15.3693
15.9709
16.3476
16.8349
18.0505
19.4216
20.9457
698.863
450.244
8.11967
8.78765
9.11623
9.28002
9.37115
9.42373
9.44764
9.45068
9.44987
9.45791
9.47907
9.5187
9.58801
9.68844
9.81185
9.99914
10.388
11.0807
11.957
12.8103
13.4855
13.9256
14.1793
14.3655
14.5842
14.8987
15.3042
15.7431
16.158
16.6188
17.5432
18.99
20.8419
699.751
448.895
8.01864
8.46685
8.49335
8.59683
8.77756
8.99171
9.18284
9.34697
9.52102
9.73698
10.0197
10.3892
10.8528
11.3926
11.9728
12.5742
13.2007
13.8394
14.4745
15.1216
15.7761
16.4293
17.0719
17.6516
18.0853
18.3365
18.4366
18.4177
18.2919
18.1222
18.3054
19.3735
21.1817
700.158
447.912
5.56407
6.15337
6.52225
6.91357
7.33829
7.69224
7.95589
8.1523
8.2847
8.34772
8.34332
8.2903
8.2238
8.18719
8.24413
8.51057
9.23393
10.5983
12.085
13.1639
14.0133
14.8704
15.8039
16.7912
17.7437
18.4953
18.95
19.1411
19.1222
18.9713
19.0544
19.9582
21.5731
700.464
448.492
6.99878
8.11495
8.83031
9.31837
9.64883
9.88557
10.0711
10.2259
10.3609
10.4816
10.5679
10.5927
10.5402
10.3936
10.1299
9.70033
9.12709
8.47136
8.76316
11.0993
13.3181
14.8442
15.9767
16.9764
17.9958
19.0593
19.998
20.6147
20.8498
20.7414
20.6238
21.1131
22.3157
701.976
449.606
8.65118
9.42792
9.79005
9.99879
10.1126
10.1619
10.1494
10.0877
10.084
10.2914
10.6374
10.9486
11.1822
11.3398
11.3813
11.1798
10.4657
8.81646
6.07734
6.75369
10.6258
13.3863
15.2573
16.7248
18.0084
19.1168
19.9738
20.5619
20.939
21.1451
21.4198
22.088
23.3158
704.788
448.65
7.78152
8.84112
9.37924
9.73704
10.0215
10.2446
10.3668
10.3299
10.132
9.87639
9.7496
9.95881
10.5975
11.5167
12.4066
13.1524
13.7743
14.1302
13.7833
12.9093
12.7884
13.6707
14.908
16.2989
17.9478
19.8573
21.6867
22.8302
23.2098
23.1989
23.225
23.5211
24.2336
705.114
447.841
5.55564
6.53772
7.40817
8.23241
8.93662
9.5033
9.964
10.3429
10.6418
10.8474
10.9587
10.9982
11.005
11.0069
10.993
10.9591
11.0156
11.4897
12.5267
13.6767
14.6009
15.3158
15.8632
16.3116
16.8273
17.7159
19.325
21.2896
22.6897
23.3647
23.6849
24.0074
24.722
707.862
448.701
6.8505
8.12831
9.07963
9.784
10.2886
10.6775
11.0069
11.2984
11.5332
11.6687
11.702
11.6927
11.7004
11.7019
11.6126
11.3248
10.8044
10.2945
10.4722
11.7095
13.5721
15.5285
17.2166
18.5666
19.6442
20.5722
21.5945
22.8884
24.0022
24.5621
24.8059
25.0435
25.6504
709.799
450.022
7.90065
8.92405
9.58713
10.1103
10.5492
10.952
11.3692
11.8405
12.3343
12.7748
13.1586
13.4986
13.7764
13.9603
14.0358
14.0157
13.9305
13.812
13.7536
13.8551
14.1583
14.7057
15.4806
16.4441
17.6153
19.0484
20.7745
22.6756
24.2421
25.1043
25.472
25.6791
26.1527
711.207
448.96
7.09875
8.68085
9.72903
10.4835
11.0351
11.4024
11.5898
11.7468
12.2099
13.0467
13.8425
14.4487
14.9529
15.3798
15.6841
15.8401
15.9545
16.2273
16.7827
17.5617
18.3457
18.9451
19.3026
19.4849
19.6324
19.9988
20.989
22.78
24.6057
25.5842
25.9602
26.1535
26.5982
711.605
449.077
8.63658
10.5772
11.6846
12.3618
12.7277
12.8238
12.6704
12.3129
11.8481
11.424
11.169
11.2122
11.6905
12.6606
13.7769
14.6174
15.1163
15.3711
15.5639
15.9051
16.5089
17.3627
18.3255
19.2054
19.8951
20.4338
21.0785
22.2827
24.0268
25.3273
25.8728
26.1207
26.5223
710.235
449.489
11.42
13.9803
15.2197
15.8338
16.1196
16.1797
16.0353
15.7022
15.2271
14.6735
14.048
13.3626
12.7096
12.2851
12.2204
12.9436
14.5603
16.2645
17.5751
18.442
18.9693
19.2845
19.5243
19.8018
20.1357
20.4843
20.867
21.5124
22.7375
24.1983
25.1336
25.6467
26.2759
710.23
452.586
13.8929
16.0154
16.6536
16.736
16.5762
16.2483
15.7634
15.1703
14.5796
14.1181
13.7907
13.4715
13.0553
12.4934
11.8402
12.0237
13.8866
15.7974
17.3002
18.5539
19.6492
20.5151
21.0903
21.4084
21.5848
21.7025
21.7801
21.8686
22.206
23.0192
23.9315
24.629
25.5562
709.757
471.189
18.0414
17.881
17.09
16.1511
15.287
14.4922
13.9968
14.2431
14.9002
15.3911
15.6441
15.6652
15.4102
14.8066
13.8877
13.3389
14.302
15.6702
16.8161
17.904
19.0589
20.2623
21.2857
21.9714
22.3271
22.4876
22.5643
22.599
22.6704
22.9959
23.6392
24.3576
25.5005
711.652
481.687
18.1321
16.3643
14.5251
14.1964
14.2786
14.685
15.3136
15.9546
16.5815
17.1707
17.6906
18.0974
18.3342
18.3226
18.003
17.4676
17.1332
17.2876
17.8169
18.5066
19.3074
20.2729
21.387
22.4436
23.1882
23.5281
23.5624
23.4193
23.2212
23.1749
23.5373
24.2102
25.4611
712.509
465.955
16.4742
17.2633
17.5482
17.1514
16.0822
14.6803
13.6436
13.5572
14.3427
15.369
16.3527
17.2641
18.0875
18.7744
19.276
19.5587
19.6554
19.6748
19.7669
19.9729
20.2848
20.714
21.3245
22.1771
23.1643
23.9827
24.4353
24.5337
24.3724
24.1559
24.2825
24.8696
26.1281
715.098
461.126
17.7337
19.244
19.5812
19.3127
18.499
17.0344
14.8726
12.3325
11.7023
13.6219
15.7339
17.2788
18.4124
19.3214
20.0677
20.6573
21.0908
21.3836
21.5987
21.7859
21.9705
22.1751
22.4503
22.9093
23.6429
24.4589
25.059
25.336
25.3204
25.1853
25.3069
25.8421
27.0298
717.456
462.66
16.8701
18.3261
18.6661
18.5218
18.0469
17.1473
15.4555
11.7703
5.67477
5.80399
10.1586
14.8064
17.3509
18.918
20.0182
20.8447
21.4537
21.8651
22.1374
22.3373
22.5147
22.7169
23.0169
23.5584
24.4625
25.4636
26.1334
26.3871
26.3393
26.2296
26.3814
26.8714
27.9403
719.111
466.208
17.7311
18.7234
18.7022
18.1839
17.2864
16.2171
15.4749
14.7923
11.7088
7.20567
5.16707
12.5377
16.8107
18.7797
19.9948
20.9011
21.5857
22.0651
22.3759
22.5597
22.6654
22.7631
22.9791
23.547
24.6884
26.1181
27.176
27.6328
27.6602
27.552
27.5957
27.877
28.6106
718.718
467.16
19.6045
21.0086
21.1452
20.6879
19.6294
17.7931
15.7024
15.13
15.4981
13.6733
6.95506
7.83825
7.43935
15.3543
18.5405
20.0067
21.0748
21.9223
22.4762
22.7581
22.8536
22.868
22.965
23.454
24.645
26.214
27.4702
28.1707
28.4189
28.4476
28.4823
28.6394
29.1371
718.815
469.767
18.7072
19.3852
19.4431
19.2385
18.7959
17.9374
16.1955
13.9195
13.6053
14.9541
15.3755
12.6437
4.09325
6.64751
12.4839
18.8353
21.1496
22.1719
22.7493
23.1086
23.2842
23.267
23.1577
23.3314
24.4414
26.4027
28.0114
28.87
29.1948
29.2531
29.2449
29.2946
29.5994
718.965
476.506
20.6272
21.2227
21.1637
20.7839
20.1315
19.2491
18.1098
16.1871
13.2416
11.7658
12.8024
14.2445
14.565
12.572
5.90113
6.86346
14.6706
18.3857
20.4477
21.7026
22.4606
22.8597
22.95
22.9046
23.3908
25.2237
27.4513
28.8748
29.55
29.7962
29.8557
29.8896
30.1047
719.968
478.168
20.2363
20.8353
21.008
20.9043
20.4825
19.6575
18.4416
17.0908
15.592
13.8349
12.6565
12.1974
11.9123
11.2174
6.80606
4.15218
11.3414
17.0959
19.8335
21.365
22.3583
23.0217
23.3704
23.4103
23.4712
24.5696
26.8345
28.6356
29.5987
30.0269
30.1881
30.2585
30.4435
720.564
478.258
20.3891
21.112
21.3174
21.2674
21.0014
20.4869
19.5977
18.155
16.3179
14.6451
13.8208
13.9545
14.1081
13.5131
11.4189
4.70637
8.42354
17.0258
19.7953
21.2494
22.2515
23.0137
23.5279
23.7287
23.7101
24.193
26.1445
28.3053
29.5279
30.1027
30.349
30.468
30.695
721.718
477.753
20.8447
21.7821
22.1772
22.3017
22.166
21.7482
21.0402
19.9739
18.2735
15.6236
12.4344
10.6461
11.0705
11.8162
11.5419
9.11244
5.39427
11.4353
18.7808
20.8169
21.9528
22.8152
23.4853
23.8866
23.9637
24.0423
25.2565
27.6083
29.2728
30.1078
30.5069
30.7169
30.9544
721.026
479.078
20.7282
21.7043
22.3053
22.7049
22.8705
22.7245
22.2098
21.3387
20.1799
18.6357
16.3652
13.4607
11.3734
10.9991
11.0502
10.2091
7.05547
4.45366
12.0251
18.881
20.9454
22.1867
23.1325
23.8128
24.1653
24.2733
24.8666
26.8604
28.8626
29.9079
30.4135
30.6673
30.8359
719.118
477.366
20.567
21.6612
22.3099
22.7902
23.1279
23.2717
23.1338
22.6032
21.5877
20.1035
18.2505
16.0205
13.577
11.9401
11.5708
11.3258
10.0155
6.09099
9.46668
13.0854
19.4711
21.5034
22.6935
23.5283
24.0269
24.1739
24.2836
25.3881
27.4742
28.9439
29.7096
30.139
30.4791
718.849
477.731
20.8301
22.1032
22.9259
23.5739
24.0845
24.4364
24.5925
24.4904
24.0237
23.0302
21.3331
18.9211
15.9541
13.0113
11.6349
11.9334
12.0518
10.8069
6.90511
4.57427
12.0293
18.7533
21.2626
22.8781
24.0515
24.7317
24.9309
25.1962
26.4319
27.9309
28.869
29.4664
30.0394
718.698
474.285
20.0439
21.5437
22.4748
23.1886
23.76
24.1806
24.4332
24.5004
24.3539
23.9279
23.0776
21.5343
19.035
15.5239
11.9959
11.2693
12.559
13.1068
12.0178
8.40726
6.42474
14.9937
19.9755
22.0798
23.4434
24.4215
24.9899
25.2024
25.6719
26.734
27.7004
28.4332
29.3132
719.911
477.884
21.2937
22.6669
23.5242
24.1939
24.716
25.0777
25.2664
25.272
25.0833
24.6802
24.0147
22.9678
21.2741
18.5675
14.5658
10.9405
11.7441
13.9335
14.6873
13.6427
10.185
7.08841
16.8936
21.0779
23.0202
24.2618
25.0487
25.4082
25.6216
26.2751
27.1546
27.9793
29.1395
721.249
476.93
20.8474
22.4196
23.4857
24.3373
25.0104
25.4871
25.7523
25.797
25.6149
25.1972
24.5266
23.5642
22.2111
20.2736
17.3909
13.0683
10.0704
12.716
15.3459
16.1009
14.9636
11.2813
11.7604
20.0202
23.7629
25.4916
26.3593
26.6058
26.5447
26.8075
27.4262
28.1137
29.147
719.824
476.332
21.1722
22.7042
23.7002
24.5354
25.2632
25.8633
26.3091
26.5778
26.6502
26.5059
26.1165
25.4364
24.3906
22.8493
20.6712
17.469
12.1187
8.40039
12.6164
15.741
16.8474
16.087
13.301
15.5183
20.7911
24.2138
26.0978
27.0249
27.3128
27.5209
27.9588
28.5035
29.4071
721.389
479.104
21.5213
22.9031
23.9004
24.7766
25.5449
26.1754
26.6425
26.928
27.02
26.9109
26.5933
26.0519
25.2491
24.103
22.4485
20.1419
16.7432
10.4542
7.7152
13.1709
16.1181
17.2745
17.0766
17.7384
20.2587
22.9719
25.2467
26.7308
27.4599
27.8578
28.2938
28.8046
29.6633
721.468
475.464
20.662
22.2469
23.3764
24.383
25.3147
26.1524
26.8676
27.4331
27.8247
28.0206
27.9999
27.7398
27.2123
26.3699
25.1167
23.2621
20.5934
16.4598
7.86223
8.9428
14.682
16.4335
15.5572
13.9764
19.3706
23.8795
26.665
28.2787
29.0648
29.4113
29.6141
29.8077
30.1765
720.517
475.945
21.3292
22.9456
24.0201
24.9435
25.7813
26.526
27.1637
27.6832
28.0752
28.3294
28.4312
28.3592
28.081
27.546
26.6644
25.2583
23.0411
19.5332
13.7037
7.56754
14.8365
19.8843
19.6775
14.7888
13.7516
19.9927
24.5435
27.3943
28.9987
29.7851
30.198
30.5205
31.1007
726.391
473.652
20.7627
22.5101
23.7265
24.795
25.7686
26.6222
27.333
27.8913
28.2981
28.5592
28.6801
28.6626
28.5001
28.171
27.624
26.745
25.3191
22.9806
18.967
11.6269
4.52471
13.8518
20.569
23.6652
24.7722
25.7085
26.5069
27.4456
28.4561
29.2945
29.9244
30.4782
31.2378
723.808
476.148
21.4754
22.9669
24.0087
24.9647
25.8809
26.7228
27.4551
28.055
28.5121
28.8245
28.9959
29.0339
28.949
28.7551
28.4721
28.1257
27.7392
27.3038
26.6606
25.2297
22.0969
18.0704
15.1625
14.8885
18.8409
24.4893
28.4558
30.4477
31.2071
31.4731
31.6058
31.7471
31.8998
715.469
477.547
21.0763
22.4797
23.597
24.6768
25.7275
26.6908
27.5201
28.1902
28.6907
29.0193
29.1778
29.1701
29.002
28.6815
28.2185
27.6171
26.9059
26.2558
25.7513
25.7115
25.7192
24.8741
22.8537
20.2549
18.5172
20.4271
24.2031
27.4857
29.574
30.6543
31.1814
31.415
31.3669
715.169
480.473
21.2629
22.4767
23.5359
24.6273
25.7152
26.7124
27.5567
28.215
28.6723
28.9211
28.9569
28.7757
28.3745
27.7493
26.9038
25.7915
24.4482
23.9581
23.7234
24.5519
26.2311
27.147
26.9537
25.8026
23.2543
20.2335
20.4653
23.4225
26.5154
28.7088
29.972
30.6462
31.2321
729.24
481.847
20.8513
21.9826
23.116
24.3469
25.5749
26.6807
27.5911
28.2702
28.6996
28.8654
28.7517
28.3398
27.6102
26.5405
25.0262
22.6313
20.5028
25.2039
28.7613
29.6467
29.5655
28.9823
27.8331
25.999
23.3267
21.4856
22.7276
25.4279
27.9755
29.7757
30.9081
31.7324
32.9309
740.291
481.108
20.3697
21.5904
22.817
24.1468
25.4659
26.646
27.6103
28.3228
28.764
28.9165
28.7569
28.2525
27.3577
25.9681
23.7933
20.9786
21.8754
27.3694
29.8796
30.4459
30.2386
29.3007
27.3155
24.5737
23.6329
25.3346
27.0694
28.8029
30.2639
31.2844
31.9629
32.5131
33.3304
734.812
481.955
20.2672
21.3803
22.5743
23.9225
25.2865
26.5273
27.56
28.3437
28.8567
29.079
28.9839
28.532
27.6644
26.2586
24.0197
20.5591
18.2504
24.7406
29.4926
30.4777
30.6256
30.148
28.7344
26.0955
24.2392
26.8431
29.5958
31.0742
31.986
32.4984
32.7393
32.8479
33.0251
729.546
479.125
19.6611
21.0275
22.3197
23.6939
25.0715
26.3463
27.4403
28.3072
28.9189
29.2515
29.2763
28.951
28.2146
26.9599
24.9257
21.6634
17.5582
19.8053
28.1185
29.7802
30.0447
29.7954
29.0971
28.0813
26.6596
26.7515
29.257
31.2873
32.3804
32.9408
33.2154
33.378
33.6959
732.45
479.718
20.6181
22.0191
23.2411
24.5018
25.7523
26.9193
27.944
28.7881
29.4254
29.8317
29.9764
29.8171
29.2929
28.3128
26.7022
24.0827
19.7758
15.3315
21.3692
29.1238
30.2993
29.8363
28.3713
26.8589
27.8289
29.4428
30.3403
31.3447
32.0892
32.5556
32.8629
33.1112
33.3402
723.864
477.256
20.143
21.6876
22.9996
24.3356
25.6541
26.8868
27.9796
28.9007
29.6336
30.1659
30.4814
30.5526
30.3359
29.763
28.7268
27.0241
24.2134
19.3846
13.9268
18.8287
27.3742
30.9036
30.7164
28.3163
25.9113
28.0404
31.3144
32.685
33.2846
33.551
33.6034
33.4062
32.4271
708.293
476.081
20.507
22.1537
23.4826
24.8045
26.0947
27.2984
28.3738
29.2974
30.0576
30.6461
31.0509
31.2602
31.2512
30.9866
30.4068
29.4158
27.8432
25.318
21.039
15.0845
14.5024
21.6042
28.1862
31.1658
30.5227
28.6519
28.904
30.642
31.8381
32.4993
32.8105
32.6985
31.3042
699.988
475.418
20.6889
22.3968
23.755
25.0876
26.3762
27.5788
28.6646
29.617
30.429
31.0975
31.6184
31.9836
32.1789
32.1889
31.9913
31.5474
30.7938
29.6223
27.798
24.8043
20.0476
15.057
15.3302
21.2031
27.753
31.4852
31.4095
30.746
30.8255
31.1388
31.3511
31.3013
30.2937
699.905
474.057
20.7756
22.5621
23.9469
25.3005
26.6111
27.8343
28.9402
29.9169
30.7628
31.4794
32.0673
32.5248
32.8474
33.0272
33.0513
32.8981
32.5457
31.9582
31.0771
29.7962
27.8521
24.7316
20.0921
15.3399
15.1037
20.8819
28.825
31.2307
31.2908
31.119
31.0462
30.993
30.5137
704.344
474.452
20.9511
22.6478
24.0029
25.3657
26.7117
27.9836
29.1424
30.1728
31.0741
31.8504
32.506
33.0427
33.4601
33.7555
33.9242
33.9596
33.8521
33.5876
33.1404
32.482
31.5618
30.2663
28.2973
25.1167
20.3086
14.9654
14.4315
25.2827
29.4417
30.6244
30.9817
31.0526
30.851
711.454
473.814
20.6963
22.3654
23.7168
25.0892
26.4624
27.7791
28.9971
30.0974
31.0764
31.9369
32.6828
33.3166
33.8395
34.2505
34.5475
34.7268
34.7834
34.7114
34.5034
34.1499
33.6364
32.9324
31.9826
30.6377
28.4877
24.7949
18.6921
12.0802
22.5214
26.8667
28.624
29.5099
30.1463
720.908
473.387
20.6049
22.2163
23.5166
24.8496
26.2032
27.5208
28.7574
29.8908
30.9153
31.8324
32.6451
33.3556
33.9649
34.4723
34.876
35.173
35.3595
35.4306
35.3812
35.2052
34.8957
34.4434
33.8308
33.0132
31.8545
29.9571
26.2668
17.107
16.8277
23.8996
27.1813
28.8895
30.4192
727.486
472.93
20.2401
21.7564
23.008
24.3246
25.6893
27.037
28.3138
29.4927
30.5667
31.5378
32.4101
33.1867
33.8697
34.4592
34.9541
35.352
35.6492
35.8412
35.9222
35.8857
35.7241
35.4286
34.9875
34.377
33.53
32.2356
29.8433
24.2845
13.0071
21.1415
26.2957
28.8336
30.9119
726.548
471.475
19.5234
20.9427
22.1325
23.4317
24.8171
26.2103
27.5424
28.7789
29.9111
30.9415
31.8757
32.7188
33.4741
34.1433
34.7265
35.2226
35.6287
35.9408
36.1533
36.2593
36.2496
36.1137
35.838
35.4005
34.758
33.8024
32.207
28.9847
21.6334
18.9998
24.6277
27.6288
29.9348
726.32
471.068
18.9911
20.283
21.4134
22.699
24.1002
25.5126
26.857
28.0996
29.2363
30.2743
31.2221
32.0872
32.8746
33.5874
34.2273
34.7939
35.2853
35.6977
36.025
36.2585
36.3872
36.3975
36.2723
35.9887
35.5127
34.7807
33.6317
31.5706
27.1934
20.6535
23.9702
26.8721
29.6329
732.602
469.806
17.9063
19.0416
20.148
21.514
23.0546
24.6016
26.0448
27.3499
28.5224
29.5794
30.5377
31.4109
32.2091
32.9399
33.6085
34.2178
34.7687
35.2589
35.6822
36.0282
36.2815
36.4206
36.4164
36.2336
35.8328
35.1617
34.0903
32.2015
28.3784
21.6203
24.3494
27.5601
30.6313
736.094
469.523
17.01
17.9158
18.9488
20.3569
22.0041
23.654
25.1694
26.5169
27.7102
28.7734
29.7296
30.5972
31.3911
32.1234
32.8044
33.4425
34.0438
34.6104
35.1393
35.6207
36.0351
36.3491
36.5129
36.4654
36.1528
35.5349
34.5204
32.7596
29.3215
23.2331
23.304
27.6623
30.9187
731.822
469.364
16.2481
16.9661
17.9536
19.4395
21.2253
22.9846
24.5559
25.9188
27.1002
28.1347
29.0516
29.8749
30.6243
31.3173
31.9702
32.5989
33.2169
33.8348
34.4571
35.0773
35.6731
36.2
36.591
36.7711
36.6821
36.298
35.6011
34.4719
32.4462
28.592
24.8308
26.8971
29.6067
727.803
470.117
16.0334
16.5182
17.3194
18.7166
20.5344
22.3601
23.9783
25.3609
26.5421
27.5583
28.4427
29.2229
29.9231
30.5668
31.1781
31.7832
32.4086
33.0791
33.8092
34.5899
35.3786
36.0977
36.6624
37.0138
37.129
37.0079
36.6562
36.05
35.0155
32.8939
28.6907
27.5001
29.6548
732.325
471.777
16.7125
17.1089
17.7286
18.91
20.5712
22.2878
23.8179
25.1253
26.238
27.1926
28.0133
28.7264
29.3575
29.9351
30.493
31.0739
31.7282
32.5067
33.4251
34.4291
35.3984
36.2077
36.7898
37.1414
37.2859
37.2432
37.0118
36.5399
35.6353
33.7981
30.803
30.4484
32.7801
743.864
473.268
17.0285
17.1335
17.5121
18.569
20.2685
22.0398
23.5842
24.8814
25.9713
26.8889
27.6623
28.3208
28.8909
29.4085
29.9224
30.5012
31.2373
32.2179
33.4115
34.6173
35.6216
36.3509
36.8249
37.0804
37.1409
37.0083
36.6542
36.0174
35.0322
33.7498
32.7914
33.4266
35.1513
746.753
474.055
16.5787
16.1031
16.0497
17.0128
19.0963
21.2744
23.0495
24.4569
25.5988
26.537
27.3076
27.9407
28.469
28.9345
29.3972
29.9504
30.7331
31.89
33.3512
34.7108
35.6482
36.223
36.5632
36.7219
36.6997
36.4776
36.0398
35.4043
34.6744
34.0807
33.9326
34.2784
34.9036
733.524
472.948
15.6355
14.4637
13.4584
13.6171
16.1182
19.3238
21.8319
23.6516
25.0177
26.0868
26.9333
27.6021
28.1314
28.5635
28.9549
29.393
30.0327
31.0917
32.6541
34.3161
35.438
35.9545
36.155
36.1865
36.0824
35.8445
35.4799
35.0266
34.5709
34.2237
34.0285
33.8817
33.4629
717.509
472.747
16.8393
15.9154
14.261
12.0688
12.0875
15.9879
19.6379
22.2025
24.0353
25.3915
26.4316
27.2332
27.8455
28.3103
28.6712
28.9885
29.3687
30.006
31.1498
32.8138
34.4773
35.5103
35.8717
35.8616
35.6627
35.3492
34.9718
34.5794
34.2108
33.8783
33.5504
33.1149
32.1335
708.546
474.322
18.9505
18.839
17.8051
15.6138
12.1294
12.7843
16.9638
20.3051
22.6972
24.4529
25.7688
26.7806
27.5575
28.1441
28.5775
28.8958
29.1496
29.4314
29.9196
30.8454
32.2629
33.8149
34.9695
35.4912
35.513
35.2543
34.8545
34.3983
33.9408
33.4956
33.0324
32.448
31.2945
705.455
476.948
19.8666
20.0715
19.7364
18.7628
16.4688
13.3438
14.6255
18.011
20.93
23.1409
24.8021
26.0773
27.074
27.851
28.4488
28.8986
29.2273
29.4673
29.6791
29.9821
30.5555
31.5186
32.752
33.9197
34.6857
34.9409
34.8082
34.4561
33.9868
33.4512
32.8625
32.1594
30.934
705.276
478.426
19.6521
19.8462
19.8727
19.7063
19.0654
17.1756
14.8139
15.7617
18.693
21.4183
23.5176
25.0995
26.3296
27.3064
28.0871
28.7113
29.204
29.5832
29.8673
30.0841
30.292
30.599
31.1287
31.92
32.8477
33.6609
34.1243
34.1964
33.9801
33.573
33.0297
32.3366
31.1341
706.483
477.324
19.5424
19.9697
20.173
20.2359
20.0669
19.3999
17.3591
14.7589
15.9919
19.1722
21.897
23.9215
25.4131
26.566
27.4925
28.2542
28.8866
29.4134
29.8525
30.2132
30.5002
30.7274
30.9364
31.2057
31.6216
32.2024
32.8306
33.2926
33.4517
33.337
33.012
32.4759
31.4172
708.434
477.24
19.8119
20.2953
20.5574
20.7449
20.7748
20.4611
19.4708
16.6929
14.4679
17.1497
20.3972
22.86
24.6227
25.9082
26.9036
27.7126
28.395
28.9889
29.519
29.9978
30.4301
30.8091
31.1212
31.365
31.5727
31.8114
32.1292
32.4735
32.7052
32.7259
32.5111
32.0544
31.1925
713.091
479.955
19.7687
19.8155
19.8869
20.0822
20.3017
20.2833
19.7961
18.3934
15.5676
16.9611
20.1459
22.6728
24.4433
25.6917
26.6325
27.3843
28.0164
28.5746
29.0954
29.608
30.1339
30.6845
31.2387
31.7287
32.087
32.3077
32.4382
32.5161
32.5252
32.4235
32.2251
32.0241
31.9541
725.628
483.391
19.9017
19.6928
19.6513
19.8012
20.0184
20.0284
19.654
18.736
16.9488
17.5145
20.5504
23.0191
24.6773
25.8027
26.6241
27.2648
27.7987
28.281
28.7689
29.3331
30.04
30.8719
31.6955
32.3745
32.8505
33.1222
33.2175
33.1677
33.0175
32.9039
33.009
33.3825
34.2361
740.346
484.178
19.9615
19.8999
19.9968
20.2493
20.5278
20.5904
20.2895
19.5021
18.1428
17.3541
20.205
22.9281
24.6767
25.7848
26.5469
27.1174
27.5896
28.0389
28.5661
29.357
30.5175
31.6868
32.5469
33.1375
33.5541
33.836
33.9729
33.9627
33.881
33.8871
34.0631
34.3855
34.9958
736.701
483.282
19.7839
19.7981
19.9574
20.3193
20.7894
21.0737
20.9883
20.438
19.2426
17.5947
18.9576
22.1662
24.2788
25.5375
26.3479
26.9262
27.3849
27.8076
28.3422
29.3284
30.9718
32.5372
33.3836
33.785
34.0072
34.1809
34.3312
34.4034
34.4008
34.3761
34.3304
34.1844
33.5952
717.806
482.608
19.5018
19.3866
19.4386
19.788
20.4234
20.9747
21.1733
20.9506
20.2116
18.8158
17.8436
20.7882
23.5596
25.1548
26.1268
26.7882
27.266
27.6388
28.0409
28.8101
30.3735
32.3791
33.7634
34.3426
34.4961
34.4957
34.4849
34.4684
34.4028
34.2673
34.0197
33.4875
31.9314
704.967
482.382
19.5079
19.3632
19.327
19.546
20.138
20.8222
21.249
21.3071
20.9422
20.0208
18.5825
18.8507
22.1675
24.4207
25.7335
26.5741
27.1478
27.5403
27.835
28.2144
29.0583
30.6347
32.4934
33.9096
34.634
34.8385
34.7884
34.6393
34.4281
34.1463
33.7472
33.0381
31.234
701.795
481.717
19.5406
19.5052
19.4931
19.6139
20.0299
20.6775
21.2288
21.5001
21.44
20.9778
19.9875
18.842
20.2597
23.2756
25.148
26.2761
27.0297
27.5473
27.8911
28.1296
28.4154
29.0336
30.1845
31.689
33.1223
34.1055
34.535
34.582
34.4214
34.1208
33.6767
32.9524
31.3161
703.759
480.583
19.3793
19.3582
19.3363
19.4263
19.7933
20.4738
21.1651
21.6109
21.7522
21.5672
20.9948
19.9711
19.3309
21.494
24.0796
25.6825
26.7013
27.4117
27.916
28.259
28.4833
28.678
29.0135
29.6702
30.684
31.8698
32.8908
33.487
33.6793
33.6005
33.3077
32.7544
31.5425
708.881
479.741
19.1782
19.0574
18.8787
18.7718
18.9943
19.7573
20.7251
21.4592
21.8536
21.9235
21.6653
21.0309
20.1271
20.3468
22.8317
24.9532
26.2926
27.1894
27.8412
28.3235
28.6646
28.8843
29.0221
29.1658
29.449
29.9868
30.7629
31.5623
32.1131
32.3455
32.3214
32.0684
31.4432
715.378
479.862
19.4763
19.4602
19.2667
18.9888
18.8479
19.3035
20.2836
21.1844
21.7615
22.021
21.9817
21.6287
20.9425
20.3884
21.6898
24.086
25.7827
26.8847
27.6678
28.2657
28.7263
29.0631
29.2801
29.3899
29.4343
29.5044
29.7297
30.1842
30.7492
31.1932
31.4264
31.4909
31.4408
720.064
480.808
19.7894
19.8992
19.8341
19.6486
19.4575
19.6408
20.3872
21.2262
21.8295
22.1594
22.2295
22.0396
21.5671
20.9419
21.17
23.2655
25.2877
26.6033
27.4947
28.1647
28.6961
29.1097
29.4051
29.574
29.6134
29.5463
29.4644
29.5525
29.9331
30.4171
30.7743
31.0149
31.2129
719.044
481.933
19.9757
20.0801
20.08
20.0157
19.9622
20.134
20.7052
21.4308
22.0125
22.3707
22.5011
22.4033
22.0584
21.4885
21.1485
22.3139
24.5253
26.1432
27.2143
27.9955
28.6138
29.1094
29.4826
29.721
29.8065
29.7341
29.5635
29.487
29.7105
30.1051
30.4312
30.6747
30.8152
714.86
481.794
19.8674
19.9583
19.9635
19.929
19.9347
20.1362
20.6615
21.391
22.052
22.5126
22.7503
22.7682
22.5568
22.1017
21.5435
21.6884
23.4606
25.4274
26.7367
27.6531
28.3651
28.94
29.3871
29.6929
29.8392
29.8148
29.662
29.5356
29.6132
29.8251
30.0077
30.1198
30.0299
709.957
480.522
19.7556
20.0152
20.0978
20.0408
19.8984
19.8532
20.1657
20.8881
21.7282
22.4105
22.8508
23.0497
23.0098
22.7158
22.1704
21.6617
22.2404
24.2374
25.9959
27.1517
28.0073
28.6995
29.2539
29.6567
29.8888
29.943
29.8511
29.7237
29.6887
29.7307
29.7665
29.7449
29.4957
707.767
479.003
19.7846
20.3461
20.6484
20.7288
20.5565
20.2038
19.9678
20.2625
21.0858
22.0002
22.7151
23.1714
23.3755
23.3281
23.0087
22.4324
21.9892
22.7876
24.7984
26.4391
27.4999
28.2982
28.9552
29.4693
29.8091
29.9591
29.9392
29.8276
29.7208
29.6408
29.5539
29.4074
29.0015
705.755
478.042
19.7207
20.4174
20.8894
21.208
21.3064
21.1246
20.716
20.4273
20.7541
21.6022
22.487
23.1671
23.6015
23.7925
23.7311
23.3854
22.7745