/*--------------------------------*- C++ -*----------------------------------*\
| =========                 |                                                 |
| \\      /  F ield         | OpenFOAM: The Open Source CFD Toolbox           |
|  \\    /   O peration     | Version:  v2006                                 |
|   \\  /    A nd           | Website:  www.openfoam.com                      |
|    \\/     M anipulation  |                                                 |
\*---------------------------------------------------------------------------*/
FoamFile
{
    version     2.0;
    format      ascii;
    class       volScalarField;
    location    "55";
    object      T;
}
// * * * * * * * * * * * * * * * * * * * * * * * * * * * * * * * * * * * * * //

dimensions      [0 0 0 1 0 0 0];


internalField   nonuniform List<scalar> 
78750
(
300.041
300.113
300.169
300.217
300.261
300.3
300.336
300.368
300.398
300.424
300.448
300.469
300.487
300.502
300.514
300.522
300.528
300.529
300.527
300.52
300.509
300.493
300.472
300.447
300.419
300.391
300.364
300.344
300.341
300.368
300.456
300.656
301.044
301.695
302.612
300.047
300.135
300.214
300.285
300.348
300.404
300.454
300.5
300.54
300.576
300.607
300.634
300.657
300.676
300.691
300.701
300.707
300.707
300.702
300.69
300.673
300.649
300.619
300.584
300.544
300.504
300.467
300.442
300.442
300.486
300.609
300.862
301.303
301.972
302.875
300.057
300.165
300.262
300.346
300.418
300.483
300.54
300.591
300.636
300.676
300.711
300.742
300.769
300.792
300.81
300.825
300.835
300.84
300.84
300.834
300.822
300.803
300.777
300.744
300.705
300.662
300.621
300.592
300.59
300.642
300.786
301.074
301.547
302.23
303.136
300.067
300.195
300.31
300.408
300.49
300.561
300.623
300.679
300.728
300.771
300.809
300.843
300.872
300.897
300.917
300.933
300.946
300.954
300.957
300.956
300.948
300.934
300.914
300.886
300.853
300.815
300.776
300.746
300.741
300.789
300.936
301.234
301.719
302.411
303.324
300.075
300.218
300.346
300.456
300.547
300.623
300.689
300.748
300.8
300.846
300.888
300.924
300.956
300.983
301.006
301.026
301.041
301.052
301.059
301.061
301.057
301.047
301.03
301.006
300.976
300.941
300.906
300.88
300.877
300.928
301.08
301.387
301.876
302.57
303.491
300.081
300.234
300.373
300.492
300.592
300.673
300.742
300.803
300.857
300.905
300.948
300.986
301.019
301.048
301.073
301.094
301.111
301.124
301.133
301.136
301.135
301.127
301.114
301.094
301.067
301.037
301.006
300.985
300.988
301.046
301.205
301.519
302.008
302.7
303.626
300.088
300.254
300.405
300.534
300.641
300.727
300.798
300.861
300.917
300.967
301.011
301.049
301.084
301.114
301.14
301.162
301.18
301.193
301.202
301.206
301.204
301.197
301.184
301.165
301.141
301.113
301.087
301.072
301.085
301.155
301.328
301.652
302.142
302.831
303.761
300.093
300.269
300.428
300.565
300.677
300.766
300.84
300.904
300.962
301.013
301.058
301.098
301.134
301.165
301.193
301.216
301.234
301.248
301.256
301.26
301.258
301.25
301.237
301.219
301.197
301.173
301.153
301.145
301.169
301.253
301.441
301.774
302.265
302.955
303.887
300.098
300.285
300.453
300.598
300.715
300.808
300.884
300.95
301.009
301.061
301.108
301.15
301.187
301.221
301.249
301.273
301.291
301.304
301.312
301.314
301.31
301.301
301.287
301.269
301.247
301.226
301.211
301.211
301.246
301.345
301.549
301.893
302.387
303.078
304.013
300.102
300.298
300.473
300.624
300.746
300.842
300.921
300.988
301.048
301.102
301.15
301.194
301.234
301.268
301.298
301.323
301.341
301.354
301.361
301.362
301.357
301.347
301.332
301.314
301.293
301.274
301.263
301.271
301.317
301.43
301.648
302.001
302.5
303.195
304.132
300.107
300.31
300.494
300.651
300.777
300.876
300.957
301.027
301.088
301.144
301.194
301.24
301.281
301.317
301.348
301.373
301.392
301.404
301.41
301.41
301.404
301.393
301.377
301.358
301.338
301.321
301.314
301.329
301.384
301.51
301.742
302.104
302.608
303.308
304.247
300.111
300.322
300.512
300.675
300.805
300.907
300.99
301.061
301.125
301.182
301.235
301.282
301.325
301.362
301.394
301.42
301.439
301.451
301.457
301.456
301.449
301.437
301.42
301.401
301.381
301.366
301.363
301.383
301.448
301.586
301.83
302.201
302.71
303.415
304.356
300.115
300.334
300.531
300.698
300.832
300.937
301.022
301.095
301.161
301.22
301.274
301.324
301.368
301.407
301.439
301.465
301.485
301.497
301.503
301.501
301.494
301.481
301.463
301.443
301.424
301.411
301.411
301.437
301.51
301.659
301.914
302.294
302.808
303.519
304.462
300.119
300.345
300.548
300.721
300.858
300.965
301.052
301.128
301.195
301.256
301.312
301.363
301.409
301.448
301.482
301.509
301.529
301.541
301.546
301.545
301.537
301.523
301.505
301.485
301.467
301.455
301.458
301.49
301.571
301.729
301.996
302.382
302.902
303.618
304.563
300.123
300.356
300.565
300.742
300.883
300.992
301.081
301.159
301.228
301.291
301.348
301.401
301.448
301.489
301.524
301.551
301.571
301.584
301.589
301.587
301.579
301.565
301.547
301.527
301.509
301.499
301.505
301.542
301.631
301.799
302.075
302.468
302.993
303.714
304.661
300.126
300.366
300.581
300.763
300.907
301.018
301.109
301.188
301.259
301.324
301.383
301.437
301.486
301.528
301.564
301.592
301.613
301.626
301.631
301.629
301.62
301.606
301.588
301.568
301.551
301.542
301.551
301.593
301.69
301.867
302.152
302.552
303.081
303.806
304.755
300.13
300.376
300.596
300.783
300.929
301.043
301.136
301.217
301.289
301.356
301.417
301.473
301.523
301.566
301.602
301.631
301.653
301.666
301.672
301.67
301.661
301.647
301.628
301.609
301.592
301.585
301.598
301.645
301.748
301.935
302.228
302.633
303.166
303.896
304.847
300.133
300.386
300.612
300.802
300.951
301.067
301.162
301.244
301.319
301.387
301.449
301.507
301.558
301.602
301.64
301.67
301.691
301.705
301.711
301.71
301.701
301.687
301.669
301.65
301.634
301.629
301.645
301.697
301.807
302.001
302.303
302.712
303.249
303.983
304.935
300.136
300.395
300.626
300.82
300.973
301.09
301.187
301.271
301.347
301.417
301.481
301.54
301.592
301.638
301.676
301.707
301.729
301.744
301.75
301.749
301.741
301.727
301.709
301.69
301.676
301.672
301.691
301.748
301.865
302.067
302.377
302.791
303.33
304.068
305.021
300.139
300.404
300.64
300.839
300.993
301.113
301.211
301.297
301.375
301.446
301.512
301.572
301.625
301.672
301.711
301.743
301.766
301.781
301.788
301.787
301.78
301.766
301.749
301.731
301.718
301.716
301.738
301.8
301.923
302.133
302.449
302.867
303.409
304.15
305.104
300.143
300.413
300.654
300.856
301.014
301.135
301.235
301.322
301.402
301.474
301.542
301.603
301.658
301.706
301.746
301.778
301.802
301.818
301.825
301.825
301.818
301.805
301.789
301.771
301.759
301.76
301.786
301.852
301.982
302.198
302.521
302.942
303.486
304.231
305.185
300.146
300.422
300.668
300.874
301.034
301.157
301.258
301.347
301.428
301.503
301.571
301.634
301.69
301.738
301.78
301.812
301.837
301.854
301.862
301.863
301.856
301.844
301.828
301.812
301.801
301.804
301.833
301.904
302.04
302.263
302.592
303.015
303.562
304.309
305.263
300.149
300.431
300.682
300.891
301.053
301.178
301.281
301.372
301.454
301.53
301.6
301.664
301.721
301.771
301.812
301.846
301.872
301.889
301.898
301.899
301.894
301.883
301.868
301.853
301.843
301.848
301.88
301.956
302.098
302.328
302.662
303.087
303.635
304.384
305.339
300.152
300.44
300.696
300.909
301.073
301.2
301.304
301.396
301.48
301.557
301.629
301.694
301.752
301.802
301.845
301.879
301.906
301.923
301.933
301.936
301.931
301.921
301.907
301.893
301.885
301.893
301.928
302.008
302.155
302.392
302.73
303.158
303.707
304.458
305.413
300.155
300.449
300.71
300.926
301.092
301.22
301.327
301.42
301.506
301.584
301.657
301.723
301.782
301.833
301.877
301.912
301.939
301.957
301.968
301.971
301.968
301.958
301.946
301.933
301.927
301.937
301.975
302.06
302.213
302.455
302.798
303.227
303.777
304.53
305.484
300.158
300.457
300.723
300.943
301.111
301.241
301.349
301.444
301.531
301.611
301.685
301.752
301.812
301.864
301.908
301.944
301.972
301.991
302.003
302.007
302.004
301.996
301.985
301.974
301.969
301.981
302.023
302.112
302.27
302.518
302.865
303.295
303.846
304.599
305.554
300.161
300.466
300.737
300.96
301.13
301.262
301.371
301.467
301.556
301.637
301.712
301.781
301.841
301.895
301.939
301.976
302.004
302.024
302.037
302.042
302.04
302.033
302.023
302.014
302.011
302.026
302.071
302.164
302.327
302.58
302.93
303.362
303.913
304.667
305.621
300.164
300.475
300.75
300.977
301.149
301.282
301.393
301.491
301.58
301.663
301.74
301.809
301.871
301.925
301.97
302.007
302.036
302.057
302.07
302.076
302.076
302.07
302.061
302.054
302.053
302.07
302.118
302.216
302.383
302.641
302.995
303.427
303.978
304.733
305.687
300.167
300.484
300.764
300.993
301.168
301.302
301.414
301.514
301.605
301.689
301.766
301.837
301.9
301.954
302.001
302.038
302.068
302.089
302.103
302.11
302.111
302.107
302.099
302.093
302.095
302.114
302.166
302.267
302.44
302.701
303.058
303.491
304.042
304.798
305.751
300.17
300.492
300.777
301.01
301.186
301.322
301.436
301.537
301.629
301.715
301.793
301.865
301.928
301.984
302.031
302.069
302.099
302.122
302.136
302.144
302.146
302.143
302.137
302.133
302.137
302.159
302.213
302.318
302.495
302.761
303.121
303.554
304.104
304.86
305.813
300.173
300.501
300.79
301.026
301.204
301.342
301.457
301.559
301.653
301.74
301.82
301.892
301.957
302.013
302.061
302.1
302.131
302.153
302.169
302.178
302.18
302.179
302.175
302.172
302.178
302.203
302.26
302.37
302.55
302.82
303.182
303.615
304.165
304.921
305.873
300.176
300.51
300.803
301.042
301.222
301.361
301.478
301.582
301.677
301.765
301.846
301.92
301.985
302.042
302.09
302.13
302.161
302.185
302.201
302.211
302.215
302.214
302.212
302.211
302.219
302.247
302.307
302.42
302.605
302.879
303.243
303.675
304.225
304.981
305.933
300.179
300.518
300.816
301.058
301.24
301.38
301.498
301.604
301.701
301.79
301.872
301.947
302.013
302.071
302.12
302.16
302.192
302.216
302.233
302.244
302.249
302.25
302.249
302.25
302.261
302.29
302.354
302.471
302.66
302.937
303.302
303.735
304.284
305.039
305.991
300.182
300.526
300.829
301.074
301.258
301.4
301.519
301.626
301.724
301.815
301.899
301.974
302.041
302.1
302.149
302.19
302.223
302.247
302.265
302.277
302.283
302.285
302.286
302.289
302.302
302.334
302.401
302.521
302.713
302.994
303.361
303.793
304.341
305.097
306.047
300.185
300.535
300.842
301.09
301.276
301.419
301.54
301.648
301.748
301.84
301.925
302.001
302.069
302.129
302.179
302.22
302.253
302.278
302.297
302.309
302.316
302.32
302.322
302.327
302.342
302.377
302.447
302.571
302.767
303.05
303.419
303.85
304.398
305.153
306.103
300.188
300.543
300.855
301.106
301.293
301.438
301.56
301.67
301.771
301.865
301.951
302.028
302.097
302.157
302.208
302.25
302.283
302.309
302.328
302.342
302.35
302.355
302.359
302.366
302.383
302.42
302.494
302.62
302.82
303.106
303.475
303.906
304.453
305.208
306.157
300.191
300.551
300.867
301.121
301.31
301.457
301.581
301.692
301.795
301.889
301.976
302.055
302.125
302.186
302.237
302.28
302.314
302.34
302.36
302.374
302.383
302.389
302.395
302.404
302.423
302.463
302.539
302.669
302.872
303.161
303.531
303.962
304.507
305.261
306.21
300.194
300.56
300.88
301.137
301.328
301.475
301.601
301.714
301.818
301.914
302.002
302.082
302.153
302.214
302.266
302.309
302.344
302.371
302.391
302.406
302.416
302.424
302.431
302.441
302.463
302.506
302.585
302.718
302.924
303.215
303.587
304.016
304.561
305.314
306.262
300.197
300.568
300.892
301.152
301.345
301.494
301.621
301.736
301.841
301.939
302.028
302.109
302.18
302.243
302.295
302.339
302.374
302.401
302.422
302.438
302.449
302.458
302.466
302.479
302.503
302.548
302.63
302.766
302.975
303.269
303.641
304.07
304.613
305.366
306.314
300.2
300.576
300.905
301.167
301.362
301.513
301.641
301.757
301.864
301.963
302.054
302.136
302.208
302.271
302.324
302.368
302.404
302.432
302.453
302.47
302.482
302.492
302.502
302.516
302.542
302.59
302.675
302.814
303.026
303.322
303.694
304.122
304.665
305.417
306.364
300.202
300.584
300.917
301.182
301.379
301.531
301.661
301.779
301.887
301.988
302.079
302.162
302.236
302.299
302.353
302.397
302.434
302.462
302.485
302.502
302.515
302.526
302.537
302.554
302.582
302.632
302.72
302.862
303.076
303.374
303.747
304.174
304.715
305.467
306.413
300.205
300.592
300.929
301.197
301.395
301.549
301.681
301.8
301.91
302.012
302.105
302.189
302.263
302.327
302.382
302.427
302.463
302.493
302.515
302.533
302.547
302.559
302.572
302.591
302.621
302.674
302.764
302.909
303.126
303.425
303.799
304.225
304.765
305.516
306.462
300.208
300.6
300.941
301.212
301.412
301.568
301.701
301.822
301.933
302.036
302.131
302.216
302.291
302.356
302.41
302.456
302.493
302.523
302.546
302.565
302.58
302.593
302.608
302.627
302.66
302.715
302.808
302.955
303.175
303.476
303.85
304.275
304.814
305.564
306.51
300.211
300.608
300.954
301.227
301.429
301.586
301.721
301.843
301.956
302.061
302.156
302.242
302.318
302.384
302.439
302.485
302.523
302.553
302.577
302.596
302.612
302.627
302.642
302.664
302.698
302.756
302.851
303.001
303.223
303.526
303.9
304.324
304.862
305.612
306.557
300.214
300.616
300.966
301.242
301.445
301.604
301.74
301.864
301.979
302.085
302.182
302.269
302.346
302.412
302.468
302.514
302.552
302.583
302.608
302.628
302.645
302.66
302.677
302.701
302.737
302.797
302.895
303.047
303.271
303.576
303.95
304.373
304.909
305.658
306.604
300.216
300.623
300.978
301.257
301.462
301.622
301.76
301.886
302.002
302.11
302.208
302.296
302.373
302.44
302.497
302.544
302.582
302.613
302.638
302.659
302.677
302.693
302.712
302.737
302.776
302.838
302.938
303.093
303.319
303.625
303.999
304.421
304.956
305.705
306.65
300.219
300.631
300.99
301.272
301.479
301.64
301.78
301.907
302.025
302.134
302.234
302.323
302.401
302.468
302.525
302.573
302.612
302.643
302.669
302.69
302.709
302.727
302.747
302.773
302.814
302.878
302.981
303.138
303.367
303.674
304.048
304.468
305.002
305.75
306.695
300.222
300.639
301.002
301.286
301.495
301.659
301.8
301.929
302.049
302.159
302.26
302.35
302.429
302.497
302.554
302.602
302.641
302.673
302.7
302.722
302.741
302.76
302.781
302.81
302.852
302.919
303.024
303.184
303.414
303.723
304.096
304.515
305.047
305.796
306.741
300.225
300.647
301.014
301.301
301.512
301.677
301.82
301.951
302.072
302.184
302.286
302.377
302.457
302.525
302.583
302.631
302.671
302.703
302.73
302.753
302.773
302.793
302.816
302.846
302.891
302.96
303.067
303.229
303.461
303.771
304.144
304.561
305.093
305.84
306.786
300.227
300.655
301.026
301.316
301.529
301.695
301.84
301.973
302.096
302.209
302.312
302.404
302.484
302.553
302.612
302.66
302.7
302.733
302.76
302.784
302.805
302.826
302.85
302.882
302.929
303
303.11
303.274
303.508
303.819
304.191
304.607
305.137
305.885
306.831
300.23
300.663
301.038
301.331
301.546
301.714
301.861
301.995
302.119
302.234
302.339
302.431
302.512
302.582
302.64
302.689
302.73
302.763
302.791
302.815
302.837
302.859
302.885
302.919
302.967
303.041
303.153
303.32
303.556
303.867
304.239
304.653
305.182
305.93
306.876
300.233
300.671
301.05
301.346
301.562
301.733
301.881
302.017
302.143
302.26
302.365
302.459
302.541
302.611
302.669
302.718
302.759
302.793
302.821
302.846
302.869
302.892
302.92
302.955
303.006
303.082
303.196
303.365
303.603
303.915
304.286
304.699
305.227
305.975
306.921
300.236
300.679
301.062
301.361
301.579
301.751
301.902
302.039
302.167
302.285
302.392
302.487
302.569
302.639
302.698
302.748
302.789
302.823
302.852
302.877
302.901
302.926
302.954
302.991
303.044
303.122
303.24
303.411
303.65
303.963
304.333
304.745
305.272
306.019
306.966
300.239
300.687
301.075
301.376
301.597
301.77
301.922
302.062
302.192
302.311
302.419
302.514
302.597
302.668
302.727
302.777
302.818
302.852
302.882
302.908
302.933
302.959
302.989
303.028
303.083
303.163
303.283
303.457
303.698
304.012
304.381
304.791
305.317
306.064
307.011
300.241
300.695
301.087
301.392
301.614
301.789
301.943
302.085
302.216
302.337
302.446
302.543
302.626
302.697
302.756
302.806
302.847
302.882
302.912
302.939
302.965
302.992
303.023
303.064
303.121
303.205
303.327
303.503
303.746
304.061
304.428
304.837
305.362
306.109
307.057
300.244
300.703
301.1
301.407
301.631
301.809
301.965
302.108
302.241
302.364
302.474
302.571
302.655
302.726
302.785
302.835
302.877
302.912
302.942
302.97
302.996
303.025
303.058
303.101
303.16
303.246
303.371
303.55
303.795
304.11
304.476
304.883
305.407
306.155
307.103
300.247
300.711
301.112
301.423
301.649
301.828
301.986
302.131
302.266
302.39
302.501
302.599
302.683
302.755
302.815
302.865
302.906
302.942
302.973
303.001
303.028
303.057
303.092
303.137
303.199
303.287
303.415
303.596
303.844
304.159
304.524
304.929
305.452
306.2
307.149
300.25
300.719
301.125
301.438
301.667
301.848
302.008
302.155
302.292
302.417
302.529
302.628
302.712
302.784
302.844
302.894
302.936
302.971
303.003
303.031
303.06
303.09
303.127
303.174
303.238
303.329
303.46
303.644
303.893
304.208
304.572
304.975
305.498
306.246
307.195
300.253
300.728
301.138
301.454
301.685
301.868
302.03
302.179
302.318
302.444
302.558
302.657
302.742
302.813
302.873
302.923
302.965
303.001
303.033
303.062
303.091
303.123
303.161
303.21
303.277
303.371
303.504
303.691
303.942
304.258
304.62
305.022
305.543
306.291
307.241
300.256
300.736
301.151
301.47
301.703
301.888
302.052
302.203
302.344
302.472
302.586
302.686
302.771
302.843
302.903
302.953
302.995
303.031
303.063
303.093
303.123
303.156
303.196
303.246
303.316
303.412
303.549
303.738
303.991
304.307
304.668
305.068
305.589
306.337
307.287
300.259
300.745
301.164
301.486
301.721
301.908
302.074
302.228
302.37
302.5
302.615
302.715
302.801
302.872
302.932
302.982
303.024
303.06
303.093
303.123
303.154
303.189
303.23
303.283
303.354
303.454
303.594
303.786
304.04
304.357
304.716
305.115
305.634
306.382
307.333
300.262
300.754
301.177
301.503
301.74
301.929
302.097
302.253
302.397
302.528
302.644
302.745
302.83
302.902
302.962
303.011
303.054
303.09
303.123
303.154
303.186
303.222
303.264
303.319
303.393
303.496
303.638
303.833
304.09
304.407
304.764
305.161
305.68
306.428
307.378
300.265
300.763
301.191
301.519
301.758
301.95
302.12
302.278
302.424
302.556
302.674
302.775
302.86
302.932
302.991
303.041
303.083
303.12
303.153
303.185
303.217
303.254
303.299
303.356
303.432
303.538
303.683
303.881
304.139
304.456
304.812
305.207
305.725
306.473
307.424
300.268
300.772
301.205
301.536
301.778
301.971
302.143
302.303
302.451
302.585
302.703
302.805
302.89
302.962
303.021
303.071
303.113
303.149
303.183
303.215
303.249
303.287
303.333
303.392
303.471
303.579
303.728
303.928
304.188
304.505
304.86
305.253
305.771
306.519
307.469
300.271
300.781
301.219
301.553
301.797
301.992
302.167
302.329
302.479
302.614
302.733
302.835
302.921
302.992
303.051
303.1
303.142
303.179
303.213
303.246
303.28
303.319
303.367
303.428
303.51
303.621
303.772
303.975
304.237
304.554
304.907
305.299
305.816
306.564
307.514
300.275
300.79
301.233
301.571
301.816
302.014
302.191
302.356
302.507
302.644
302.764
302.866
302.951
303.022
303.081
303.13
303.172
303.208
303.242
303.276
303.312
303.352
303.401
303.465
303.549
303.663
303.817
304.023
304.286
304.603
304.954
305.345
305.861
306.609
307.559
300.278
300.799
301.247
301.588
301.836
302.036
302.216
302.383
302.536
302.674
302.795
302.897
302.982
303.053
303.111
303.16
303.201
303.238
303.272
303.306
303.343
303.385
303.436
303.501
303.587
303.704
303.861
304.07
304.335
304.652
305.001
305.39
305.906
306.653
307.604
300.281
300.809
301.261
301.606
301.856
302.059
302.241
302.41
302.566
302.705
302.826
302.928
303.013
303.083
303.141
303.19
303.231
303.268
303.302
303.337
303.374
303.417
303.47
303.537
303.626
303.746
303.906
304.117
304.384
304.7
305.048
305.435
305.95
306.697
307.648
300.285
300.818
301.276
301.624
301.877
302.082
302.266
302.438
302.595
302.736
302.857
302.96
303.045
303.114
303.172
303.219
303.261
303.297
303.332
303.367
303.405
303.45
303.504
303.573
303.665
303.787
303.95
304.163
304.432
304.748
305.094
305.479
305.994
306.741
307.692
300.288
300.828
301.291
301.642
301.898
302.105
302.292
302.466
302.626
302.767
302.889
302.992
303.076
303.145
303.202
303.25
303.29
303.327
303.362
303.398
303.437
303.482
303.538
303.609
303.703
303.829
303.995
304.21
304.48
304.796
305.14
305.524
306.038
306.785
307.736
300.291
300.838
301.307
301.661
301.919
302.129
302.319
302.495
302.657
302.799
302.922
303.024
303.108
303.176
303.233
303.28
303.32
303.357
303.392
303.428
303.468
303.514
303.572
303.646
303.742
303.87
304.039
304.257
304.528
304.843
305.185
305.568
306.082
306.829
307.779
300.295
300.848
301.322
301.68
301.941
302.153
302.346
302.525
302.688
302.832
302.955
303.057
303.14
303.208
303.263
303.31
303.35
303.387
303.422
303.458
303.499
303.547
303.606
303.682
303.781
303.911
304.083
304.303
304.575
304.89
305.23
305.612
306.126
306.872
307.822
300.299
300.859
301.338
301.7
301.963
302.178
302.374
302.555
302.72
302.865
302.988
303.09
303.172
303.239
303.294
303.34
303.38
303.416
303.452
303.489
303.53
303.579
303.64
303.717
303.819
303.952
304.127
304.349
304.622
304.936
305.274
305.655
306.168
306.914
307.864
300.302
300.869
301.355
301.72
301.986
302.204
302.402
302.587
302.754
302.899
303.022
303.123
303.205
303.271
303.325
303.371
303.41
303.446
303.482
303.519
303.561
303.611
303.674
303.753
303.857
303.994
304.17
304.395
304.669
304.982
305.319
305.698
306.211
306.956
307.906
300.306
300.88
301.371
301.741
302.01
302.231
302.432
302.619
302.788
302.934
303.057
303.157
303.238
303.304
303.357
303.401
303.44
303.476
303.512
303.55
303.592
303.643
303.707
303.789
303.895
304.034
304.214
304.441
304.715
305.027
305.362
305.74
306.253
306.998
307.947
300.31
300.892
301.389
301.762
302.034
302.258
302.462
302.652
302.822
302.97
303.093
303.192
303.272
303.336
303.388
303.432
303.471
303.506
303.542
303.58
303.623
303.676
303.741
303.825
303.933
304.075
304.257
304.486
304.761
305.072
305.405
305.782
306.294
307.039
307.987
300.314
300.903
301.407
301.784
302.059
302.286
302.494
302.686
302.858
303.006
303.129
303.227
303.306
303.369
303.42
303.463
303.501
303.536
303.572
303.61
303.654
303.708
303.774
303.86
303.971
304.115
304.299
304.53
304.806
305.116
305.447
305.823
306.335
307.079
308.026
300.318
300.915
301.425
301.806
302.085
302.315
302.526
302.721
302.895
303.044
303.165
303.263
303.341
303.403
303.453
303.495
303.532
303.567
303.602
303.641
303.685
303.74
303.808
303.895
304.008
304.155
304.342
304.574
304.851
305.16
305.489
305.864
306.375
307.118
308.065
300.323
300.928
301.444
301.83
302.111
302.344
302.559
302.757
302.933
303.081
303.203
303.3
303.376
303.436
303.485
303.526
303.563
303.597
303.632
303.671
303.716
303.772
303.841
303.93
304.045
304.194
304.384
304.618
304.894
305.202
305.53
305.903
306.414
307.156
308.102
300.327
300.94
301.463
301.853
302.138
302.375
302.593
302.793
302.971
303.12
303.241
303.336
303.411
303.47
303.518
303.558
303.594
303.628
303.663
303.702
303.748
303.803
303.874
303.965
304.083
304.234
304.425
304.661
304.938
305.245
305.571
305.943
306.453
307.194
308.139
300.332
300.953
301.483
301.877
302.165
302.406
302.627
302.831
303.01
303.159
303.279
303.373
303.447
303.505
303.551
303.59
303.625
303.659
303.693
303.732
303.779
303.835
303.907
304
304.119
304.272
304.466
304.703
304.98
305.285
305.609
305.981
306.49
307.231
308.175
300.336
300.967
301.503
301.902
302.193
302.438
302.663
302.869
303.049
303.199
303.318
303.411
303.483
303.539
303.584
303.622
303.656
303.69
303.724
303.763
303.81
303.867
303.94
304.034
304.156
304.311
304.506
304.744
305.022
305.326
305.648
306.018
306.527
307.267
308.21
300.341
300.98
301.524
301.927
302.222
302.47
302.699
302.908
303.09
303.239
303.357
303.449
303.519
303.574
303.618
303.655
303.688
303.721
303.755
303.794
303.841
303.899
303.973
304.068
304.191
304.349
304.546
304.785
305.062
305.365
305.685
306.054
306.563
307.301
308.243
300.346
300.994
301.545
301.952
302.252
302.504
302.736
302.948
303.131
303.28
303.397
303.487
303.556
303.609
303.652
303.687
303.72
303.752
303.786
303.825
303.872
303.931
304.006
304.103
304.227
304.386
304.585
304.825
305.102
305.403
305.722
306.09
306.598
307.335
308.276
300.35
301.008
301.566
301.979
302.282
302.538
302.775
302.99
303.173
303.322
303.438
303.526
303.593
303.645
303.686
303.72
303.752
303.783
303.817
303.856
303.903
303.963
304.039
304.137
304.263
304.423
304.623
304.864
305.14
305.44
305.757
306.124
306.631
307.367
308.307
300.355
301.022
301.588
302.006
302.313
302.574
302.815
303.032
303.217
303.365
303.479
303.566
303.631
303.68
303.72
303.754
303.784
303.815
303.849
303.887
303.935
303.995
304.071
304.171
304.298
304.46
304.661
304.903
305.178
305.477
305.792
306.158
306.664
307.399
308.338
300.36
301.036
301.61
302.034
302.346
302.611
302.856
303.077
303.262
303.409
303.522
303.606
303.669
303.717
303.755
303.787
303.817
303.847
303.88
303.919
303.966
304.027
304.104
304.204
304.333
304.496
304.698
304.94
305.215
305.512
305.825
306.19
306.695
307.43
308.367
300.366
301.052
301.634
302.063
302.379
302.65
302.9
303.123
303.309
303.455
303.565
303.647
303.708
303.754
303.79
303.821
303.85
303.879
303.912
303.951
303.998
304.059
304.137
304.238
304.368
304.532
304.736
304.977
305.252
305.547
305.859
306.222
306.727
307.46
308.397
300.371
301.067
301.658
302.093
302.414
302.69
302.944
303.17
303.357
303.502
303.61
303.689
303.747
303.791
303.826
303.855
303.883
303.912
303.944
303.982
304.03
304.091
304.17
304.272
304.403
304.568
304.772
305.013
305.287
305.58
305.89
306.252
306.757
307.489
308.425
300.377
301.084
301.683
302.124
302.45
302.731
302.991
303.219
303.406
303.55
303.655
303.732
303.788
303.829
303.862
303.89
303.917
303.945
303.977
304.015
304.063
304.124
304.203
304.306
304.438
304.604
304.808
305.05
305.322
305.614
305.923
306.284
306.787
307.519
308.454
300.383
301.101
301.709
302.156
302.488
302.774
303.039
303.27
303.457
303.599
303.702
303.776
303.829
303.868
303.899
303.925
303.951
303.978
304.009
304.047
304.095
304.156
304.236
304.34
304.472
304.639
304.844
305.085
305.356
305.646
305.953
306.313
306.816
307.546
308.482
300.389
301.118
301.736
302.19
302.527
302.819
303.089
303.322
303.509
303.649
303.749
303.82
303.87
303.907
303.936
303.961
303.986
304.012
304.042
304.08
304.128
304.19
304.27
304.374
304.507
304.675
304.88
305.121
305.39
305.678
305.984
306.343
306.845
307.575
308.51
300.395
301.136
301.764
302.224
302.567
302.865
303.14
303.376
303.562
303.7
303.798
303.865
303.913
303.947
303.974
303.997
304.021
304.046
304.076
304.113
304.161
304.223
304.304
304.408
304.542
304.71
304.915
305.155
305.423
305.709
306.013
306.371
306.873
307.602
308.537
300.402
301.155
301.792
302.259
302.608
302.912
303.192
303.43
303.617
303.752
303.847
303.911
303.955
303.987
304.012
304.034
304.056
304.081
304.11
304.147
304.195
304.257
304.338
304.443
304.578
304.746
304.951
305.191
305.457
305.742
306.044
306.401
306.902
307.631
308.565
300.408
301.174
301.821
302.295
302.649
302.96
303.245
303.486
303.672
303.805
303.896
303.957
303.999
304.028
304.051
304.071
304.092
304.115
304.144
304.181
304.229
304.291
304.372
304.478
304.613
304.781
304.986
305.224
305.49
305.772
306.072
306.428
306.929
307.658
308.591
300.415
301.193
301.851
302.331
302.692
303.01
303.299
303.542
303.727
303.858
303.946
304.004
304.042
304.069
304.09
304.109
304.128
304.151
304.179
304.216
304.263
304.326
304.407
304.513
304.649
304.818
305.022
305.26
305.523
305.804
306.103
306.458
306.959
307.686
308.62
300.422
301.213
301.881
302.369
302.736
303.06
303.355
303.6
303.784
303.912
303.997
304.051
304.087
304.111
304.129
304.146
304.165
304.187
304.214
304.25
304.298
304.36
304.442
304.549
304.684
304.853
305.057
305.294
305.555
305.834
306.131
306.485
306.985
307.713
308.646
300.429
301.234
301.913
302.408
302.782
303.112
303.412
303.659
303.842
303.968
304.049
304.1
304.131
304.153
304.169
304.185
304.202
304.223
304.25
304.286
304.333
304.396
304.479
304.585
304.721
304.89
305.094
305.33
305.589
305.866
306.162
306.515
307.015
307.742
308.676
300.436
301.255
301.945
302.447
302.829
303.166
303.471
303.72
303.902
304.024
304.101
304.148
304.177
304.195
304.21
304.224
304.24
304.26
304.286
304.322
304.369
304.432
304.514
304.621
304.757
304.926
305.129
305.363
305.621
305.896
306.19
306.542
307.042
307.769
308.702
300.444
301.276
301.978
302.489
302.877
303.222
303.532
303.782
303.963
304.082
304.155
304.198
304.223
304.239
304.251
304.263
304.278
304.297
304.323
304.358
304.405
304.469
304.552
304.659
304.796
304.965
305.167
305.4
305.656
305.928
306.221
306.573
307.072
307.799
308.733
300.452
301.299
302.012
302.531
302.926
303.279
303.594
303.846
304.025
304.141
304.21
304.248
304.27
304.283
304.292
304.303
304.316
304.334
304.36
304.395
304.442
304.505
304.588
304.696
304.832
305.001
305.203
305.434
305.688
305.958
306.25
306.601
307.1
307.827
308.76
300.46
301.322
302.047
302.574
302.977
303.337
303.658
303.912
304.089
304.201
304.265
304.3
304.317
304.327
304.335
304.343
304.355
304.373
304.398
304.432
304.48
304.543
304.627
304.735
304.872
305.041
305.241
305.472
305.724
305.992
306.282
306.633
307.132
307.858
308.792
300.468
301.345
302.083
302.619
303.03
303.397
303.724
303.978
304.154
304.262
304.322
304.352
304.365
304.372
304.377
304.384
304.395
304.411
304.435
304.47
304.517
304.581
304.664
304.773
304.91
305.078
305.278
305.506
305.756
306.023
306.311
306.661
307.16
307.886
308.821
300.477
301.37
302.119
302.664
303.083
303.458
303.79
304.047
304.221
304.325
304.38
304.405
304.415
304.418
304.421
304.425
304.435
304.451
304.474
304.508
304.556
304.62
304.704
304.813
304.95
305.119
305.318
305.545
305.793
306.058
306.345
306.694
307.193
307.92
308.854
300.486
301.394
302.157
302.71
303.137
303.521
303.858
304.116
304.288
304.389
304.439
304.459
304.464
304.464
304.464
304.467
304.475
304.49
304.513
304.547
304.594
304.658
304.743
304.852
304.989
305.157
305.355
305.58
305.826
306.089
306.374
306.723
307.222
307.949
308.883
300.494
301.42
302.195
302.757
303.192
303.584
303.927
304.187
304.357
304.454
304.499
304.514
304.515
304.512
304.509
304.51
304.516
304.53
304.553
304.587
304.634
304.699