/*--------------------------------*- C++ -*----------------------------------*\
| =========                 |                                                 |
| \\      /  F ield         | OpenFOAM: The Open Source CFD Toolbox           |
|  \\    /   O peration     | Version:  v2012                                 |
|   \\  /    A nd           | Website:  www.openfoam.com                      |
|    \\/     M anipulation  |                                                 |
\*---------------------------------------------------------------------------*/
FoamFile
{
    version     2.0;
    format      ascii;
    class       volVectorField;
    location    "1500/bottomAir";
    object      U;
}
// * * * * * * * * * * * * * * * * * * * * * * * * * * * * * * * * * * * * * //

dimensions      [0 1 -1 0 0 0 0];


internalField   nonuniform List<vector> 
1460
(
(0.003425814 -0.005164665 0.0005475081)
(0.009484229 -0.004650002 0.001036989)
(0.01399368 -0.002803359 0.001240203)
(0.01602866 -0.001128043 0.001202957)
(0.01619778 2.294081e-05 0.001023622)
(0.01531693 0.0006251536 0.0007980559)
(0.0140267 0.0008057739 0.0005872235)
(0.01273735 0.0007645449 0.0004120524)
(0.01160099 0.000651678 0.0002813012)
(0.01061449 0.0005302332 0.0002030326)
(0.009704529 0.0004144065 0.000182975)
(0.008762025 0.0003075447 0.000229498)
(0.007663411 0.0002260838 0.0003355061)
(0.006247292 0.0002344181 0.0004647459)
(0.004312762 0.000427235 0.0004769485)
(0.001896428 0.0008810945 0.0002357676)
(-0.0010285 0.00122393 2.442011e-05)
(-0.003383098 0.0009946424 0.000146417)
(-0.005293715 0.0007545526 0.0001617184)
(-0.006753215 0.0006256173 0.0001863909)
(-0.007988542 0.0005898389 0.0002334028)
(-0.009152661 0.0006163223 0.0003180557)
(-0.01035211 0.0006643686 0.0004418332)
(-0.01159869 0.0006519648 0.0006026172)
(-0.0127498 0.0004331754 0.0007935396)
(-0.01343724 -0.000142781 0.000990247)
(-0.01317449 -0.001130803 0.001125518)
(-0.01132008 -0.002486312 0.001123556)
(-0.007479466 -0.00386515 0.0009220876)
(-0.002527254 -0.003906815 0.0005019629)
(0.002465329 -0.01254957 -1.511845e-05)
(0.006848936 -0.01187331 0.0005673486)
(0.00997451 -0.00806713 0.001077358)
(0.01145841 -0.004470604 0.001327369)
(0.01177944 -0.001844503 0.001369479)
(0.01159252 -0.0001814349 0.001275382)
(0.01110387 0.0006564803 0.00113494)
(0.0103846 0.0009400935 0.001051775)
(0.009543445 0.0009830151 0.001040137)
(0.008515587 0.001001134 0.001094479)
(0.007265675 0.001084948 0.001188678)
(0.005786067 0.001245946 0.001288506)
(0.004116991 0.001450796 0.001331918)
(0.002305236 0.001730387 0.001277578)
(0.0004867388 0.002187138 0.0009838887)
(-0.0009407098 0.00289082 0.0006428759)
(-0.001932086 0.003122514 0.0006736113)
(-0.002952759 0.002655077 0.0009562147)
(-0.004181971 0.002102923 0.00109504)
(-0.005403206 0.001654547 0.00113458)
(-0.006534808 0.001345149 0.001127724)
(-0.00753323 0.001128944 0.001125551)
(-0.008404713 0.0008893683 0.001158284)
(-0.009137989 0.0004204461 0.001241179)
(-0.009612277 -0.0005181948 0.001353478)
(-0.009851361 -0.002086728 0.001392178)
(-0.009559763 -0.004374548 0.001296656)
(-0.008259096 -0.007320795 0.001018449)
(-0.005578628 -0.01020229 0.0005465158)
(-0.001927227 -0.0100013 7.545349e-05)
(0.0007976654 -0.0163156 -0.0005306369)
(0.001120046 -0.0151511 7.333095e-05)
(0.0005759947 -0.01020112 0.0008424435)
(-0.0004699283 -0.005645115 0.001377358)
(-0.001518704 -0.002746271 0.001631569)
(-0.002379199 -0.001080426 0.00175868)
(-0.002951984 -0.0001873356 0.001792574)
(-0.003405828 0.0002716379 0.001836882)
(-0.003986268 0.0005066383 0.00196285)
(-0.004642727 0.0005846675 0.00208586)
(-0.005249497 0.0005005112 0.002134727)
(-0.005630008 0.000275916 0.002072815)
(-0.005578772 1.222133e-05 0.00186771)
(-0.004994863 -7.906735e-05 0.001582726)
(-0.003872137 0.0001555951 0.001224823)
(-0.002307812 0.0006779718 0.0009922187)
(-0.0004871514 0.0007636922 0.001078113)
(0.001183748 0.0004532172 0.001386797)
(0.002225165 0.0003161386 0.00163462)
(0.002803504 0.0002273242 0.001761622)
(0.003038977 0.000139104 0.00179714)
(0.003053195 1.656765e-06 0.001782193)
(0.002930926 -0.0002463735 0.00175994)
(0.002687517 -0.0007195938 0.001749084)
(0.002129677 -0.001594962 0.001682457)
(0.001328867 -0.003129647 0.001523867)
(0.0003518861 -0.005643735 0.001252264)
(-0.0005869339 -0.009312686 0.0007496492)
(-0.0009954155 -0.01306041 8.172084e-05)
(-0.0007117762 -0.01315663 -0.0003651586)
(-0.001516648 -0.01388003 -0.00123309)
(-0.005649995 -0.01185152 -0.000690812)
(-0.009627569 -0.007869389 8.236317e-05)
(-0.01247832 -0.005166985 0.0005920725)
(-0.01428787 -0.003753784 0.0008654413)
(-0.0154007 -0.003153933 0.0009999298)
(-0.01605124 -0.00303472 0.001030087)
(-0.01634323 -0.003216226 0.0009522009)
(-0.01628595 -0.003636057 0.0007607068)
(-0.01583834 -0.004265421 0.000443959)
(-0.01494378 -0.005031916 -1.425181e-06)
(-0.01353065 -0.005814853 -0.0005668429)
(-0.01148591 -0.006418026 -0.001212595)
(-0.008790754 -0.006592597 -0.001792373)
(-0.005475292 -0.006293565 -0.00234687)
(-0.001531114 -0.00593251 -0.002579464)
(0.002802709 -0.00626677 -0.002171561)
(0.006048823 -0.006490478 -0.001620297)
(0.008679341 -0.006163361 -0.0009672806)
(0.01058002 -0.005544559 -0.0003769411)
(0.01189601 -0.004862051 8.89698e-05)
(0.01271751 -0.004249037 0.0004186183)
(0.01311105 -0.003783836 0.0006217725)
(0.01311647 -0.003516207 0.00072194)
(0.01271478 -0.003542564 0.0007276562)
(0.01181675 -0.004019234 0.0006340671)
(0.01024648 -0.005193827 0.0004102251)
(0.007780058 -0.007378903 -1.891592e-05)
(0.004489631 -0.01041054 -0.0006519291)
(0.001066442 -0.01134416 -0.0009953236)
(-0.004146807 -0.006476188 -0.002074959)
(-0.01047683 -0.004945585 -0.001910967)
(-0.01503997 -0.003337417 -0.001471056)
(-0.01771895 -0.002502682 -0.001281373)
(-0.01934631 -0.002173998 -0.001317676)
(-0.02033796 -0.002120257 -0.001526432)
(-0.02090431 -0.00221956 -0.001900632)
(-0.02110155 -0.002402774 -0.002450843)
(-0.02090787 -0.002628093 -0.00319132)
(-0.0202556 -0.002860617 -0.004137642)
(-0.01903409 -0.003055021 -0.005287205)
(-0.01708665 -0.003153114 -0.006603394)
(-0.01421234 -0.003087182 -0.00797388)
(-0.01047676 -0.002792296 -0.009064465)
(-0.006060727 -0.002150946 -0.01017239)
(-0.0001402108 -0.001600199 -0.01068467)
(0.005259011 -0.002256939 -0.009685283)
(0.009502488 -0.002747358 -0.008715707)
(0.0129595 -0.003027659 -0.00728105)
(0.01529229 -0.003079755 -0.005871273)
(0.01676141 -0.002972197 -0.004640244)
(0.01757901 -0.002777386 -0.003625106)
(0.017893 -0.002556773 -0.00281998)
(0.01779441 -0.002359828 -0.002204616)
(0.01731422 -0.002235401 -0.001763763)
(0.01640416 -0.002244836 -0.001486363)
(0.01489094 -0.002487137 -0.001375519)
(0.01244436 -0.003136581 -0.001471201)
(0.008468833 -0.004345546 -0.001772278)
(0.003136748 -0.005228511 -0.001751487)
(0.00387058 -0.005306114 0.001265086)
(0.01055312 -0.004243198 0.001825525)
(0.01564107 -0.002192729 0.00202734)
(0.01824648 -0.0005627066 0.001938508)
(0.01903173 0.0004738852 0.001687548)
(0.01873074 0.0009494964 0.001396624)
(0.01795645 0.001038648 0.001125483)
(0.0170635 0.0009340943 0.0009006515)
(0.01620455 0.0007533764 0.0007427742)
(0.01540131 0.0005438355 0.0006816539)
(0.01460625 0.0003054027 0.0007570755)
(0.01370673 3.464245e-05 0.001036244)
(0.01251621 -0.0002381706 0.001570989)
(0.01067022 -0.0003569875 0.002412302)
(0.007670968 -0.0001260454 0.003182078)
(0.003351522 0.0007283393 0.003268099)
(-0.002900467 0.001288629 0.002377966)
(-0.006517461 0.0007997466 0.001847035)
(-0.009070039 0.0005654383 0.001289861)
(-0.01071116 0.0005428393 0.0009904184)
(-0.01196885 0.0006126369 0.0008886003)
(-0.01304677 0.0007174552 0.0009380368)
(-0.01405814 0.0008177905 0.00109744)
(-0.01500106 0.0008501706 0.001334913)
(-0.01574148 0.0007003794 0.001621939)
(-0.01596489 0.0002117461 0.001917571)
(-0.01519789 -0.0007346402 0.002138746)
(-0.01284592 -0.002132529 0.002174695)
(-0.008456236 -0.003753613 0.001935586)
(-0.002920424 -0.004184034 0.001369173)
(0.002537713 -0.01305824 0.0006423007)
(0.007366867 -0.01139584 0.001527299)
(0.01120064 -0.007123191 0.002183108)
(0.01355202 -0.003624614 0.002439529)
(0.01483831 -0.001242391 0.002420454)
(0.01554619 0.0001900416 0.002245314)
(0.015649 0.0008242076 0.002106949)
(0.01550939 0.0009462383 0.002083052)
(0.01513446 0.0008591746 0.002186911)
(0.01443256 0.0007455588 0.002425769)
(0.01331011 0.0006802914 0.00278003)
(0.01166048 0.0007030266 0.00321963)
(0.009436161 0.0008395485 0.003609368)
(0.006509859 0.001311918 0.0039798)
(0.002989485 0.00240949 0.003766098)
(-0.0009443958 0.004174122 0.002908002)
(-0.004212684 0.004086371 0.002707786)
(-0.006612199 0.0027798 0.003018271)
(-0.008743537 0.001958493 0.003004428)
(-0.01036584 0.001496139 0.00282481)
(-0.01156613 0.001269326 0.002621732)
(-0.01239936 0.001158656 0.002472639)
(-0.01293368 0.001029267 0.002415822)
(-0.01321442 0.0006785699 0.002462085)
(-0.01316717 -0.0001303449 0.002596623)
(-0.01255486 -0.001570922 0.002700966)
(-0.01142366 -0.003757484 0.002612784)
(-0.009368013 -0.006787341 0.002250295)
(-0.006076936 -0.01020476 0.001567015)
(-0.002064769 -0.01072919 0.0007891285)
(0.0002776411 -0.0170919 -0.0001187863)
(0.0002759031 -0.01462597 0.001064159)
(7.000296e-05 -0.008846375 0.002281217)
(-6.469678e-05 -0.004358366 0.003095738)
(-9.321393e-05 -0.001546564 0.003543613)
(5.052101e-05 0.0001054645 0.003749958)
(0.0005616008 0.0009489076 0.003836357)
(0.0005673659 0.001393477 0.004122154)
(0.0003086361 0.001721091 0.004623867)
(-0.0002175927 0.002050765 0.005241883)
(-0.0009408875 0.002313469 0.005794247)
(-0.001842405 0.002469876 0.006112383)
(-0.002641343 0.00260312 0.005842069)
(-0.003173901 0.003096073 0.005194038)
(-0.003303674 0.004084488 0.004038052)
(-0.003045792 0.005102021 0.003186745)
(-0.002467639 0.004618879 0.003572231)
(-0.001753423 0.003439929 0.004507641)
(-0.001502747 0.002844098 0.004980555)
(-0.001406178 0.002427938 0.004911105)
(-0.00129773 0.002056278 0.004623436)
(-0.001134553 0.001684272 0.004283016)
(-0.0008139114 0.001263465 0.003993377)
(-0.0003638233 0.0006889323 0.003835004)
(0.0001438279 -0.000294598 0.003725859)
(0.00019824 -0.001941694 0.00343425)
(0.0001058349 -0.004517916 0.00291133)
(-0.0001097358 -0.008388004 0.002047319)
(-0.0003104558 -0.01302603 0.000894159)
(-0.0003869998 -0.01413434 -2.867699e-05)
(-0.002900608 -0.01431076 -0.001007667)
(-0.008302712 -0.01091304 0.0001636469)
(-0.01266261 -0.006436662 0.001362287)
(-0.0152067 -0.003717143 0.002195124)
(-0.01653486 -0.002337504 0.002723959)
(-0.0170874 -0.001722224 0.003062783)
(-0.01718248 -0.001489618 0.003246022)
(-0.01694755 -0.001446689 0.003304945)
(-0.01650726 -0.001584755 0.003221919)
(-0.01585164 -0.001839034 0.002918449)
(-0.0149182 -0.002105703 0.00231015)
(-0.01358452 -0.002191751 0.001333901)
(-0.01150009 -0.001732743 -7.942457e-05)
(-0.0088678 -0.0005452206 -0.001484927)
(-0.005792435 0.001405395 -0.003187349)
(-0.00241913 0.002688842 -0.003804214)
(0.00148314 0.0008853624 -0.002482137)
(0.004907775 -0.00132893 -0.0008407606)
(0.007716101 -0.002323838 0.0003348462)
(0.009830772 -0.002592808 0.001127011)
(0.01143052 -0.002468471 0.001677255)
(0.01264898 -0.002254645 0.002033068)
(0.01351329 -0.002084714 0.002237159)
(0.01404108 -0.00203322 0.002312812)
(0.01420355 -0.002176107 0.002244071)
(0.01384673 -0.002710069 0.002005991)
(0.0127218 -0.003938801 0.001571081)
(0.01048861 -0.006282843 0.0008479576)
(0.006752283 -0.009921474 -0.0001808255)
(0.002118806 -0.0120134 -0.0009925967)
(-0.006190376 -0.006484961 -0.002278378)
(-0.0140143 -0.004188224 -0.002131229)
(-0.01926656 -0.002400639 -0.001982602)
(-0.02204966 -0.001516019 -0.002115339)
(-0.02358538 -0.001094126 -0.002498985)
(-0.02439082 -0.0008859975 -0.003116435)
(-0.02474163 -0.0007567675 -0.00399437)
(-0.02472572 -0.0006145465 -0.005171963)
(-0.02435003 -0.0004050837 -0.006695629)
(-0.02356125 -8.702392e-05 -0.0086144)
(-0.02223872 0.0003846022 -0.01094429)
(-0.02017865 0.00104489 -0.01362891)
(-0.01694762 0.001890644 -0.01637502)
(-0.01278402 0.002896632 -0.01806709)
(-0.00765127 0.004432927 -0.01990238)
(0.0002194961 0.005665089 -0.02065761)
(0.007283323 0.004124279 -0.01928441)
(0.01248218 0.002837678 -0.0179639)
(0.01631802 0.001607174 -0.01510527)
(0.01871361 0.0006597181 -0.01226449)
(0.02019939 -1.172085e-06 -0.009794557)
(0.02106752 -0.0004298391 -0.007752841)
(0.02147688 -0.0006968057 -0.006106679)
(0.02150376 -0.0008712195 -0.004801732)
(0.0211575 -0.001020245 -0.003798929)
(0.02036145 -0.001226243 -0.003062976)
(0.01887975 -0.001606186 -0.002565985)
(0.01627409 -0.002365834 -0.002318024)
(0.01158552 -0.003820157 -0.002326251)
(0.004795067 -0.005403646 -0.002217602)
(0.003867805 -0.004770063 0.000813245)
(0.01059825 -0.003595762 0.001101073)
(0.01568773 -0.001638117 0.001132127)
(0.01836657 -0.0001630828 0.001031112)
(0.0192938 0.0007053478 0.0008777199)
(0.0192178 0.001051611 0.0007414959)
(0.01871604 0.001066405 0.0006535206)
(0.01810214 0.0009179404 0.0006431383)
(0.01752518 0.0006927335 0.0007481694)
(0.01703329 0.0004128895 0.001038812)
(0.01663253 5.857438e-05 0.001635766)
(0.01623385 -0.0003490901 0.002774252)
(0.01565915 -0.0006689492 0.004723813)
(0.01415489 -0.0003226621 0.007376309)
(0.01057589 0.0007577333 0.009639437)
(0.003845541 0.002536728 0.01042836)
(-0.005597819 0.002111207 0.008061588)
(-0.009410101 0.0004486824 0.005553389)
(-0.01168058 6.99558e-05 0.003337114)
(-0.01279642 0.0001879081 0.002069417)
(-0.01361933 0.0004050878 0.001403709)
(-0.01433091 0.0006068996 0.001106742)
(-0.01501303 0.0007727465 0.00104297)
(-0.01564697 0.0008703172 0.001133286)
(-0.0161129 0.0008216175 0.001325459)
(-0.01614146 0.0004832163 0.001568244)
(-0.01525699 -0.0002978342 0.001796341)
(-0.01286727 -0.001549111 0.001915808)
(-0.00850257 -0.003095827 0.00183791)
(-0.002922943 -0.003681124 0.001381274)
(0.002612874 -0.01226355 0.0007598934)
(0.007759291 -0.01040941 0.001252751)
(0.01192848 -0.006222137 0.001557381)
(0.01463701 -0.002927861 0.001691677)
(0.01630562 -0.0007745901 0.001699097)
(0.01726248 0.0003967687 0.001669213)
(0.01770659 0.0008265475 0.00172318)
(0.01792886 0.0008188805 0.001897263)
(0.01793703 0.0006206568 0.002220017)
(0.01764892 0.0003846734 0.002729534)
(0.01696968 0.0002053157 0.003451725)
(0.01569963 0.0002389781 0.004413992)
(0.0139088 0.0008430536 0.005442336)
(0.0111556 0.00292011 0.006321112)
(0.006841687 0.006370637 0.006064561)
(0.0002571217 0.00997132 0.005211656)
(-0.006291445 0.007637861 0.004966896)
(-0.009568516 0.003373451 0.004902452)
(-0.01210448 0.001592184 0.004248909)
(-0.0136762 0.0009957241 0.0035501)
(-0.01462548 0.0008677475 0.002974937)
(-0.01513862 0.0008876994 0.002553183)
(-0.01533336 0.0009030208 0.002292794)
(-0.01527458 0.0007479781 0.00217476)
(-0.01493925 0.0002058181 0.002172666)
(-0.01404851 -0.0009562725 0.002218133)
(-0.01253127 -0.002912456 0.002164437)
(-0.01010864 -0.005760595 0.001946217)
(-0.00648709 -0.009130588 0.001558735)
(-0.002149181 -0.009926009 0.001008222)
(0.0004161545 -0.01648663 0.0007408674)
(0.0009335129 -0.01381098 0.001438293)
(0.001357832 -0.008060613 0.002206471)
(0.001882266 -0.003763798 0.002874551)
(0.002457988 -0.001082441 0.003334893)
(0.003291006 0.0004344227 0.003588376)
(0.003876277 0.00115488 0.003851878)
(0.004179997 0.001478758 0.004351564)
(0.004254001 0.001750503 0.005058145)
(0.004048273 0.002117537 0.005919019)
(0.003581732 0.002625789 0.006767528)
(0.002623777 0.003388336 0.007306703)
(0.001928378 0.004884015 0.006359632)
(0.001445822 0.007844167 0.004362453)
(0.0003233314 0.0120157 0.001432687)
(-0.001952942 0.01497172 0.0001529256)
(-0.003898263 0.01166211 0.001769987)
(-0.00411939 0.006609266 0.004177341)
(-0.004632791 0.004065181 0.005390471)
(-0.004988299 0.002932126 0.005397873)
(-0.00497876 0.002373796 0.004987681)
(-0.004752915 0.002007242 0.0044759)
(-0.004342361 0.001692506 0.004033083)
(-0.003801232 0.001255785 0.003744307)
(-0.003069141 0.0004006297 0.003593161)
(-0.002331139 -0.001164304 0.003300351)
(-0.001797031 -0.003669543 0.002758489)
(-0.001351869 -0.007425138 0.002020037)
(-0.000951808 -0.01210252 0.001230466)
(-0.000522133 -0.01351742 0.0006262819)
(-0.002695033 -0.01413895 0.0005847302)
(-0.007575463 -0.01055045 0.001239239)
(-0.01136813 -0.005858415 0.002045816)
(-0.01334957 -0.002997316 0.002740824)
(-0.01413766 -0.0015162 0.003237705)
(-0.01416497 -0.0007811376 0.003569203)
(-0.013672 -0.0003917451 0.003763313)
(-0.01311942 -0.0001943498 0.003809204)
(-0.01255065 -8.09074e-05 0.003612439)
(-0.01193632 0.0001145953 0.00301281)
(-0.0112349 0.0006802824 0.001748305)
(-0.01035533 0.002038783 -0.0004650049)
(-0.008525788 0.004667052 -0.003874307)
(-0.006330527 0.008177368 -0.006302357)
(-0.003877668 0.01267744 -0.008967848)
(-0.001346718 0.0155448 -0.009846356)
(0.001422366 0.01158886 -0.007905477)
(0.004532459 0.006213024 -0.005501274)
(0.006376761 0.002451884 -0.002383642)
(0.007409882 0.0004792964 -0.0002994201)
(0.008366168 -0.0003146752 0.001083248)
(0.009235365 -0.0005575941 0.001915967)
(0.01011539 -0.0006366602 0.002327132)
(0.01095631 -0.0007660258 0.002482278)
(0.01161977 -0.001076611 0.002463339)
(0.01173867 -0.001737707 0.002268142)
(0.01111413 -0.003086119 0.001879287)
(0.009394015 -0.005598574 0.001285929)
(0.006160248 -0.009481908 0.0005923249)
(0.001965323 -0.01184449 0.0001466526)
(-0.006230974 -0.00646767 -0.0003864569)
(-0.0140735 -0.003895855 -0.0007927414)
(-0.01930657 -0.001917375 -0.001213516)
(-0.02208122 -0.000902773 -0.001759888)
(-0.02366002 -0.0003542085 -0.002468674)
(-0.02458946 1.065145e-05 -0.003378284)
(-0.02515955 0.0003585328 -0.004552273)
(-0.02546648 0.0007796767 -0.006049298)
(-0.02552344 0.001325785 -0.007945839)
(-0.02527249 0.002079376 -0.01034633)
(-0.02451768 0.003130353 -0.01331951)
(-0.02285328 0.00452927 -0.01685365)
(-0.01913587 0.006252716 -0.02035671)
(-0.01475061 0.008075627 -0.02116261)
(-0.009092179 0.01121058 -0.02358931)
(0.001017527 0.01368981 -0.02461524)
(0.009715257 0.01047434 -0.02294161)
(0.01590836 0.007795422 -0.02229757)
(0.02030627 0.005463943 -0.01876596)
(0.02227501 0.003700328 -0.01516516)
(0.02309561 0.002405925 -0.01207033)
(0.02330274 0.001472138 -0.00951665)
(0.02312532 0.0007884688 -0.007420719)
(0.0226762 0.0002812299 -0.005720452)
(0.02198016 -0.000111177 -0.004379467)
(0.02094784 -0.0004905329 -0.003341584)
(0.01932474 -0.001009506 -0.002540997)
(0.01663415 -0.001908406 -0.001936534)
(0.01186088 -0.003556076 -0.001483273)
(0.004933361 -0.005422899 -0.0009539721)
(0.003859352 -0.004927338 -3.349624e-05)
(0.01059578 -0.003850293 -1.211962e-05)
(0.01572511 -0.001914105 -2.26545e-05)
(0.01846496 -0.0004249335 -2.11484e-05)
(0.01946939 0.0004890024 2.028734e-06)
(0.0194988 0.0008867676 6.201576e-05)
(0.01914102 0.0009409776 0.0001508654)
(0.01874145 0.0008135239 0.0002794405)
(0.01850395 0.0005796769 0.0004783211)
(0.01857482 0.0002449359 0.0008104384)
(0.0191464 -0.0002040062 0.001374076)
(0.02029885 -0.000511702 0.002389415)
(0.02127407 0.0005553372 0.003622969)
(0.01925427 0.005114611 0.005538577)
(0.01368483 0.01055177 0.008324554)
(0.001286747 0.01455575 0.009886044)
(-0.01123139 0.009162609 0.007452813)
(-0.01529276 0.0017672 0.00604886)
(-0.01615305 -0.0002287723 0.003866481)
(-0.01558335 -0.0001973599 0.002280707)
(-0.01532863 0.0001663872 0.001428948)
(-0.01537307 0.000468493 0.0009816599)
(-0.01562489 0.0006856172 0.0007809598)
(-0.0159648 0.0008143769 0.000727372)
(-0.01622902 0.0008019367 0.0007644459)
(-0.01613628 0.000516063 0.0008493928)
(-0.01520046 -0.0002028702 0.0009467645)
(-0.01279487 -0.001397464 0.001007013)
(-0.008454149 -0.00290165 0.0009839444)
(-0.002883503 -0.003502621 0.0007441182)
(0.002685356 -0.01244288 0.0004186552)
(0.007966167 -0.01075004 0.0006716905)
(0.01222845 -0.0066251 0.0008079437)
(0.01503295 -0.003331815 0.0008984494)
(0.01679347 -0.001181819 0.0009648774)
(0.01798525 -3.332857e-06 0.001038573)
(0.0186969 0.0004581155 0.001178726)
(0.01925552 0.0004782451 0.00137508)
(0.01970965 0.0002740467 0.001646371)
(0.02001177 -8.424804e-06 0.001992506)
(0.02011592 -0.0001890391 0.002290327)
(0.01972507 0.000570884 0.002414553)
(0.01840808 0.005302217 0.0009803588)
(0.01477778 0.01537636 0.003084907)
(0.009408344 0.02581089 0.005304826)
(0.0007650409 0.03193344 0.006435843)
(-0.007952837 0.02278076 0.004486501)
(-0.01258353 0.008041456 0.002765412)
(-0.01562682 0.001967975 0.003381186)
(-0.01676397 0.0005575154 0.002924768)
(-0.01714616 0.000441783 0.002457123)
(-0.01716392 0.0005533811 0.002033238)
(-0.01694676 0.0006453257 0.001734901)
(-0.01655333 0.0005709046 0.001551599)
(-0.01595294 0.0001448411 0.001461223)
(-0.01487855 -0.0008821286 0.001428473)
(-0.01319194 -0.002739719 0.001366566)
(-0.01059144 -0.005521355 0.001235764)
(-0.006787694 -0.008833028 0.001030975)
(-0.002221842 -0.009641574 0.0006961723)
(0.0006385396 -0.01664454 0.000772939)
(0.001588324 -0.01416397 0.001235774)
(0.002361258 -0.008518371 0.001686553)
(0.003184327 -0.004217177 0.002126769)
(0.004083224 -0.001520273 0.002473202)
(0.005101262 9.316357e-06 0.002767082)
(0.006051529 0.0007833805 0.003104815)
(0.0068474 0.001177672 0.003584792)
(0.007528641 0.001519144 0.004198201)
(0.008003992 0.00202288 0.004895779)
(0.008250325 0.003000057 0.005338034)
(0.007546995 0.00549108 0.004872297)
(0.007187942 0.01300066 0.0007861992)
(0.005871908 0.0243814 0.001626797)
(0.003941956 0.03654433 0.002633259)
(0.0005634707 0.04346298 0.003368222)
(-0.002932566 0.03294163 0.002058179)
(-0.004797804 0.01575217 0.0008055393)
(-0.007071872 0.006817458 0.003934573)
(-0.008177264 0.00368005 0.004412177)
(-0.008186412 0.00252763 0.004186342)
(-0.007754947 0.001972385 0.003708022)
(-0.00708168 0.001594843 0.003271273)
(-0.00628153 0.001164948 0.002940039)
(-0.005392998 0.0003669317 0.002718202)
(-0.004318326 -0.001132708 0.002446784)
(-0.003389922 -0.003606743 0.002046661)
(-0.002522213 -0.007330245 0.001545712)
(-0.001664156 -0.01193319 0.001055099)
(-0.0007226289 -0.01332177 0.000647231)
(-0.002267886 -0.01445602 0.0009815055)
(-0.00650545 -0.01108427 0.001463373)
(-0.009787994 -0.006263441 0.002019778)
(-0.01131309 -0.003150231 0.002542871)
(-0.01166427 -0.001424072 0.002927569)
(-0.01128697 -0.0005035085 0.00318413)
(-0.01052508 -1.138777e-05 0.003329802)
(-0.009713355 0.0002791257 0.00340793)
(-0.008987406 0.0005827121 0.00325741)
(-0.008461974 0.001243948 0.002655981)
(-0.008262949 0.00296548 0.001240429)
(-0.008656374 0.006896754 -0.001223772)
(-0.006481773 0.01499167 -0.005083389)
(-0.004916714 0.02391516 -0.002491504)
(-0.002327776 0.03459404 -0.002246901)
(0.001179763 0.04098942 -0.001742376)
(0.004341917 0.03139087 -0.002458982)
(0.006899095 0.01790177 -0.005578127)
(0.007877135 0.00827262 -0.002526038)
(0.007029884 0.003481761 -0.0004530445)
(0.006771422 0.001364412 0.0009267527)
(0.006986037 0.0005544187 0.001679336)
(0.00754325 0.0002250295 0.002040872)
(0.008261257 -4.407856e-05 0.002199746)
(0.009073795 -0.0005112234 0.002226264)
(0.009510154 -0.00136955 0.002077234)
(0.009270394 -0.002935355 0.001773504)
(0.007979139 -0.005665607 0.001322491)
(0.005228946 -0.009681445 0.0008402486)
(0.001626986 -0.01194459 0.0005201787)
(-0.005962398 -0.006672562 0.0005149073)
(-0.01364537 -0.004024722 0.0001731181)
(-0.01888962 -0.001851314 -0.0002858555)
(-0.02171833 -0.0006350565 -0.0008137155)
(-0.02337611 0.0001157753 -0.001448788)
(-0.02444089 0.0006894222 -0.002226218)
(-0.02521002 0.0012476 -0.003189384)
(-0.02593397 0.001938771 -0.004461325)
(-0.02663609 0.002889459 -0.006130612)
(-0.02725557 0.004251489 -0.008307392)
(-0.02752932 0.006220321 -0.0111009)
(-0.02641998 0.009008933 -0.01431542)
(-0.02048119 0.01296099 -0.01630653)
(-0.01616717 0.01623609 -0.01185407)
(-0.01046663 0.02280673 -0.01239823)
(0.002314185 0.02761855 -0.01229803)
(0.01257003 0.02078855 -0.0124734)
(0.0196459 0.01509908 -0.0174004)
(0.02581517 0.01015254 -0.01568786)
(0.02697435 0.006903138 -0.01261142)
(0.02650599 0.004685396 -0.009795527)
(0.02558722 0.003150287 -0.00750437)
(0.02457212 0.002063806 -0.005683158)
(0.02355618 0.001262505 -0.004256352)
(0.02250511 0.0006306536 -0.003154168)
(0.02120213 3.719133e-05 -0.002278903)
(0.01939193 -0.0006709615 -0.001586806)
(0.01656149 -0.001746377 -0.001037278)
(0.0116954 -0.003564099 -0.0005853379)
(0.004813091 -0.005537137 -0.0001507153)
(0.003823921 -0.005324819 -0.0001420742)
(0.01051769 -0.004448456 -0.0001766683)
(0.01568624 -0.002531157 -0.0001959725)
(0.01847752 -0.0009805125 -0.0001925311)
(0.01952749 3.149039e-05 -0.000169588)
(0.01960502 0.0005615423 -0.0001325552)
(0.01927326 0.0007203114 -8.794712e-05)
(0.01890559 0.0006439903 -4.047943e-05)
(0.01872884 0.0004015964 1.266944e-05)
(0.01889625 -1.626808e-06 8.314396e-05)
(0.01964695 -0.0004088462 0.000173033)
(0.02000208 0.001207197 0.0003818252)
(0.01517408 0.01334539 0.0004985309)
(-0.0137944 0.01335468 0.00252605)
(-0.0182449 0.001410405 0.001714107)
(-0.01742474 -0.0004266481 0.0009308814)
(-0.01637748 -0.0001050816 0.0005439653)
(-0.01597081 0.0002901765 0.0003406812)
(-0.01594539 0.0005562463 0.0002459755)
(-0.01611391 0.0006941498 0.0002108444)
(-0.01626684 0.0006712795 0.0002113251)
(-0.01610299 0.0003658354 0.0002317581)
(-0.0151282 -0.0003636343 0.0002601998)
(-0.01269995 -0.001551356 0.0002835057)
(-0.008367011 -0.003019627 0.0002875664)
(-0.002839112 -0.003539388 0.0002226556)
(0.002660156 -0.01290551 0.000139822)
(0.007883244 -0.01151998 0.0002124056)
(0.01209279 -0.007478406 0.0002369197)
(0.01485088 -0.00414386 0.0002570396)
(0.01659654 -0.001900938 0.0002771398)
(0.01779797 -0.0006165614 0.0003166144)
(0.01872657 -4.349809e-05 0.0003716933)
(0.01942925 7.667661e-05 0.0004318844)
(0.01997503 -5.177041e-05 0.0004880015)
(0.02012789 -0.0001956438 0.0004962525)
(0.01962218 0.000445897 0.0002811798)
(0.01592394 0.006530808 -0.0002853931)
(0.01080175 0.0306075 -0.001533175)
(-0.009712096 0.03095425 0.0005820879)
(-0.0144112 0.007408959 0.001068593)
(-0.01770842 0.001031047 0.001003436)
(-0.01821091 0.0001806984 0.0009138865)
(-0.01812866 0.0002346568 0.0007626952)
(-0.01770138 0.0003384573 0.0006406776)
(-0.01710519 0.0002689069 0.0005580264)
(-0.01631659 -0.0001475335 0.0005113537)
(-0.01510483 -0.001152119 0.0004897384)
(-0.01335742 -0.002990809 0.0004645753)
(-0.01070087 -0.00574226 0.0004258784)
(-0.006848993 -0.008972209 0.0003699761)
(-0.002227859 -0.009646174 0.0002606639)
(0.0007252634 -0.01695959 0.0003623391)
(0.001815772 -0.01479797 0.0005305917)
(0.002696345 -0.009293266 0.0006788986)
(0.003604713 -0.004985228 0.0008441373)
(0.004620216 -0.002234325 0.0009935718)
(0.005807533 -0.00065522 0.001134864)
(0.00698853 0.0002569706 0.001320208)
(0.008194084 0.0008477748 0.001554552)
(0.009373296 0.001429345 0.001818975)
(0.01024299 0.002431784 0.002043049)
(0.0105893 0.005102128 0.001857779)
(0.00741307 0.01451044 0.0006735848)
(0.006160764 0.04320387 -0.002173731)
(-0.005417874 0.0437706 -0.0004646003)
(-0.006825563 0.01550906 0.001324244)
(-0.01024248 0.005831004 0.001830813)
(-0.01031262 0.003043781 0.001863109)
(-0.009711254 0.002016321 0.001649212)
(-0.008731773 0.001441351 0.001431292)
(-0.00765707 0.0008922629 0.0012523)
(-0.006567109 2.483457e-05 0.001113062)
(-0.005322622 -0.001461002 0.0009670568)
(-0.004184769 -0.003897099 0.0007966007)
(-0.003108637 -0.007575471 0.0006054014)
(-0.002019518 -0.01205976 0.0004390891)
(-0.0008253644 -0.01329246 0.0002959563)
(-0.001995213 -0.01474273 0.0005172325)
(-0.005829229 -0.0116757 0.0007078723)
(-0.008761391 -0.006876195 0.0009280376)
(-0.009947668 -0.00361227 0.001164922)
(-0.009925966 -0.001679598 0.001356635)
(-0.009193401 -0.0005706347 0.001491709)
(-0.008131438 5.622227e-05 0.001589192)
(-0.006842174 0.0004689468 0.001661948)
(-0.005688104 0.001060615 0.001614056)
(-0.004947647 0.002574649 0.001314032)
(-0.004813879 0.006930169 0.0005010996)
(-0.006581458 0.01790981 -0.0009473015)
(-4.692936e-05 0.04280364 -0.003599411)
(0.0005962407 0.04323843 -0.002475541)
(0.006834009 0.01887049 -0.0006297994)
(0.004877277 0.007785552 0.0002473177)
(0.004386433 0.003132157 0.0007679844)
(0.004538515 0.001424565 0.000990203)
(0.005249374 0.0007610407 0.001060882)
(0.006190211 0.0003373778 0.001059472)
(0.007238 -0.0002549977 0.001025786)
(0.007886697 -0.001294483 0.0009399211)
(0.007970825 -0.003050023 0.0007909907)
(0.006999148 -0.005919329 0.0005938518)
(0.004592912 -0.009946261 0.0004129121)
(0.001390504 -0.01202366 0.0002979863)
(-0.005660925 -0.006840299 0.0003884608)
(-0.01310308 -0.004191485 0.0002487844)
(-0.01824316 -0.001865714 3.783391e-05)
(-0.02100764 -0.0004617523 -0.0002002991)
(-0.02259512 0.0004863829 -0.0004852969)
(-0.02357288 0.001262091 -0.0008354578)
(-0.02431664 0.002059942 -0.001276854)
(-0.02513749 0.003119248 -0.001868135)
(-0.02609684 0.004685661 -0.002661494)
(-0.02713113 0.007084945 -0.003718213)
(-0.02755292 0.01091396 -0.00511005)
(-0.02471112 0.0174094 -0.006732151)
(-0.01138725 0.02938344 -0.007798375)
(0.01166116 0.02973443 -0.007247184)
(0.0249152 0.01788001 -0.006678155)
(0.0278575 0.0113294 -0.005390483)
(0.02724761 0.007417092 -0.004169176)
(0.02583508 0.004921188 -0.00317007)
(0.02443854 0.003253894 -0.002368565)
(0.02318649 0.002093779 -0.001734688)
(0.02204455 0.001234976 -0.0012446)
(0.02075017 0.0004624742 -0.0008612979)
(0.0189451 -0.0004195889 -0.0005563514)
(0.01613048 -0.00165442 -0.0003107331)
(0.0113174 -0.00360313 -0.0001015663)
(0.004603015 -0.005606702 8.05852e-05)
(0.00382387 -0.005319089 0.0001688502)
(0.01051742 -0.004441128 0.0002089432)
(0.01568473 -0.002524267 0.0002301321)
(0.0184747 -0.0009747495 0.000226408)
(0.01952362 3.578009e-05 0.0002013837)
(0.01960053 0.0005641019 0.0001609859)
(0.01926899 0.0007214309 0.0001126615)
(0.01890193 0.0006442007 6.171278e-05)
(0.01872596 0.0004011416 5.620132e-06)
(0.01889442 -2.680612e-06 -6.706789e-05)
(0.01964656 -0.0004103105 -0.0001580819)
(0.02000341 0.001206519 -0.0003664416)
(0.01517519 0.01334857 -0.000482732)
(-0.0137994 0.01337071 -0.002476314)
(-0.01825052 0.001417299 -0.001658217)
(-0.01742715 -0.000423856 -0.0008754471)
(-0.01637635 -0.000102988 -0.0004874118)