/*--------------------------------*- C++ -*----------------------------------*\
| =========                 |                                                 |
| \\      /  F ield         | OpenFOAM: The Open Source CFD Toolbox           |
|  \\    /   O peration     | Version:  v2006                                 |
|   \\  /    A nd           | Website:  www.openfoam.com                      |
|    \\/     M anipulation  |                                                 |
\*---------------------------------------------------------------------------*/
FoamFile
{
    version     2.0;
    format      ascii;
    class       volScalarField;
    location    "39";
    object      alphat;
}
// * * * * * * * * * * * * * * * * * * * * * * * * * * * * * * * * * * * * * //

dimensions      [1 -1 -1 0 0 0 0];


internalField   nonuniform List<scalar> 
78750
(
2.21911e-08
1.2804e-06
1.51604e-06
1.59928e-06
1.61454e-06
1.59526e-06
1.56142e-06
1.52478e-06
1.49119e-06
1.46293e-06
1.4403e-06
1.42251e-06
1.40836e-06
1.39647e-06
1.38549e-06
1.37415e-06
1.36128e-06
1.34585e-06
1.32696e-06
1.30385e-06
1.2759e-06
1.24259e-06
1.20354e-06
1.15852e-06
1.10742e-06
1.05023e-06
9.86912e-07
9.17185e-07
8.39827e-07
7.50853e-07
6.42817e-07
5.09351e-07
3.58826e-07
2.16593e-07
3.79524e-09
3.77829e-09
3.09062e-06
5.62953e-06
8.51939e-06
1.04219e-05
1.10888e-05
1.14581e-05
1.16663e-05
1.17941e-05
1.18807e-05
1.19415e-05
1.19806e-05
1.19973e-05
1.19893e-05
1.19539e-05
1.18884e-05
1.17905e-05
1.16584e-05
1.1491e-05
1.12872e-05
1.10463e-05
1.07673e-05
1.04488e-05
1.0089e-05
9.68532e-06
9.23442e-06
8.73106e-06
8.16601e-06
7.527e-06
6.79896e-06
5.14741e-06
2.9612e-06
2.16245e-06
2.10747e-06
1.35285e-08
6.57373e-09
3.70077e-06
6.52398e-06
7.22827e-06
7.23004e-06
7.98426e-06
9.85532e-06
1.06845e-05
1.10722e-05
1.14643e-05
1.18513e-05
1.22213e-05
1.25636e-05
1.28689e-05
1.31297e-05
1.33395e-05
1.34931e-05
1.35862e-05
1.36151e-05
1.35765e-05
1.34672e-05
1.32843e-05
1.30247e-05
1.26855e-05
1.22644e-05
1.17597e-05
1.11715e-05
1.04525e-05
7.98556e-06
5.66252e-06
3.92204e-06
2.96222e-06
3.11418e-06
2.15433e-06
2.2632e-08
3.33346e-09
1.93129e-06
3.67173e-06
4.72479e-06
5.4376e-06
5.94349e-06
6.41173e-06
6.75009e-06
7.71252e-06
8.54209e-06
9.40895e-06
1.0264e-05
1.10739e-05
1.18171e-05
1.24802e-05
1.3055e-05
1.35367e-05
1.3923e-05
1.42126e-05
1.44052e-05
1.45001e-05
1.44966e-05
1.43933e-05
1.41885e-05
1.38804e-05
1.3469e-05
1.12027e-05
8.89956e-06
6.81109e-06
5.05548e-06
3.77833e-06
3.15636e-06
3.83486e-06
2.53207e-06
2.99173e-08
1.60955e-09
1.38093e-06
2.40922e-06
3.26915e-06
3.98123e-06
4.61771e-06
5.16081e-06
5.42251e-06
6.08685e-06
7.26889e-06
9.09137e-06
1.01286e-05
1.11133e-05
1.20195e-05
1.28285e-05
1.35285e-05
1.4113e-05
1.45792e-05
1.49266e-05
1.51554e-05
1.52654e-05
1.52559e-05
1.51251e-05
1.48714e-05
1.44924e-05
1.15425e-05
8.8548e-06
6.67517e-06
5.01947e-06
3.86587e-06
3.18792e-06
3.12557e-06
4.81634e-06
2.25731e-06
3.97956e-08
8.17257e-10
9.38172e-07
1.70823e-06
2.41706e-06
3.09304e-06
3.79481e-06
4.19234e-06
4.58987e-06
5.30727e-06
6.44821e-06
8.18811e-06
1.0279e-05
1.13984e-05
1.24235e-05
1.33353e-05
1.4124e-05
1.47867e-05
1.53241e-05
1.57387e-05
1.60327e-05
1.6207e-05
1.626e-05
1.61877e-05
1.5984e-05
1.54576e-05
1.20804e-05
8.99184e-06
6.53063e-06
4.72551e-06
3.54289e-06
2.91115e-06
2.94134e-06
4.93219e-06
2.34078e-06
4.67651e-08
6.24219e-10
8.46912e-07
1.61517e-06
2.41955e-06
3.29721e-06
3.84276e-06
4.41527e-06
5.25323e-06
6.47073e-06
8.24643e-06
1.06663e-05
1.18466e-05
1.29128e-05
1.38505e-05
1.46536e-05
1.53215e-05
1.58577e-05
1.62675e-05
1.65565e-05
1.67293e-05
1.67886e-05
1.67345e-05
1.65645e-05
1.6274e-05
1.4401e-05
1.09408e-05
7.96894e-06
5.69169e-06
4.11366e-06
3.15215e-06
2.72162e-06
2.98926e-06
5.70297e-06
2.18781e-06
5.54111e-08
8.61617e-10
1.05361e-06
2.04472e-06
2.9613e-06
3.71313e-06
4.55907e-06
5.62737e-06
7.04476e-06
8.96849e-06
1.14675e-05
1.27271e-05
1.38387e-05
1.48167e-05
1.5659e-05
1.63671e-05
1.69451e-05
1.73982e-05
1.77318e-05
1.79502e-05
1.80565e-05
1.80515e-05
1.79337e-05
1.76996e-05
1.73446e-05
1.47176e-05
1.11213e-05
8.0275e-06
5.64051e-06
3.99182e-06
3.00444e-06
2.58137e-06
2.8921e-06
5.86927e-06
2.18667e-06
6.23555e-08
1.41875e-09
1.07701e-06
2.14823e-06
3.23715e-06
4.40318e-06
5.76688e-06
7.47642e-06
9.70124e-06
1.21668e-05
1.34439e-05
1.45855e-05
1.55867e-05
1.64473e-05
1.717e-05
1.77595e-05
1.82215e-05
1.85621e-05
1.87869e-05
1.89006e-05
1.89058e-05
1.8803e-05
1.85903e-05
1.8264e-05
1.69669e-05
1.33841e-05
9.99756e-06
7.20101e-06
5.09198e-06
3.67871e-06
2.85607e-06
2.55459e-06
3.02685e-06
6.60182e-06
2.10815e-06
6.99968e-08
2.10336e-09
1.05728e-06
2.19693e-06
3.50143e-06
5.01645e-06
6.84576e-06
9.1297e-06
1.19158e-05
1.37506e-05
1.50303e-05
1.61634e-05
1.71471e-05
1.79816e-05
1.86704e-05
1.9219e-05
1.96345e-05
1.99241e-05
2.0095e-05
2.01528e-05
2.01012e-05
1.99414e-05
1.96718e-05
1.92888e-05
1.70183e-05
1.33749e-05
9.94503e-06
7.09053e-06
4.9495e-06
3.54002e-06
2.74291e-06
2.48019e-06
3.02638e-06
6.92275e-06
2.08996e-06
7.67155e-08
2.95292e-09
1.06588e-06
2.28793e-06
3.81002e-06
5.68837e-06
8.02234e-06
1.09267e-05
1.43027e-05
1.57799e-05
1.70745e-05
1.81854e-05
1.91154e-05
1.98716e-05
2.04636e-05
2.09025e-05
2.12002e-05
2.1368e-05
2.14156e-05
2.13509e-05
2.11792e-05
2.09029e-05
2.05217e-05
1.94433e-05
1.60798e-05
1.25437e-05
9.32407e-06
6.66192e-06
4.69061e-06
3.41171e-06
2.70129e-06
2.50935e-06
3.18201e-06
7.4817e-06
2.05329e-06
8.37678e-08
3.93657e-09
1.13573e-06
2.49582e-06
4.28463e-06
6.57429e-06
9.44457e-06
1.29079e-05
1.63396e-05
1.77992e-05
1.9047e-05
2.00902e-05
2.09402e-05
2.16105e-05
2.21154e-05
2.2469e-05
2.26847e-05
2.27743e-05
2.27479e-05
2.26129e-05
2.23741e-05
2.20334e-05
2.15899e-05
1.91814e-05
1.58083e-05
1.23432e-05
9.15035e-06
6.50167e-06
4.55721e-06
3.31615e-06
2.64659e-06
2.50257e-06
3.27187e-06
7.82887e-06
2.03886e-06
9.02764e-08
4.9939e-09
1.22843e-06
2.72846e-06
4.74453e-06
7.35197e-06
1.05964e-05
1.44032e-05
1.81511e-05
1.9586e-05
2.07929e-05
2.17848e-05
2.25763e-05
2.31825e-05
2.36184e-05
2.38983e-05
2.40358e-05
2.40429e-05
2.39302e-05
2.37062e-05
2.33772e-05
2.29471e-05
2.09222e-05
1.80337e-05
1.48621e-05
1.16622e-05
8.70454e-06
6.24113e-06
4.43474e-06
3.276e-06
2.65609e-06
2.56091e-06
3.4445e-06
8.15947e-06
2.02302e-06
9.69361e-08
6.06493e-09
1.30232e-06
2.90106e-06
5.06719e-06
7.88177e-06
1.13736e-05
1.54115e-05
1.95252e-05
2.13149e-05
2.25185e-05
2.34944e-05
2.42592e-05
2.48293e-05
2.52211e-05
2.54501e-05
2.55307e-05
2.54757e-05
2.52962e-05
2.5001e-05
2.45968e-05
2.27999e-05
2.0335e-05
1.75013e-05
1.44198e-05
1.12998e-05
8.42028e-06
6.0412e-06
4.32065e-06
3.22717e-06
2.65521e-06
2.60895e-06
3.5996e-06
8.36786e-06
2.01699e-06
1.03386e-07
7.11923e-09
1.34918e-06
3.01047e-06
5.28566e-06
8.28516e-06
1.20544e-05
1.64124e-05
2.07925e-05
2.31525e-05
2.43431e-05
2.5286e-05
2.60018e-05
2.65107e-05
2.68322e-05
2.69844e-05
2.69836e-05
2.68441e-05
2.65778e-05
2.58795e-05
2.40927e-05
2.19674e-05
1.95369e-05
1.6799e-05
1.38404e-05
1.08581e-05
8.11544e-06
5.86138e-06
4.24439e-06
3.21618e-06
2.6881e-06
2.69074e-06
3.80047e-06
8.49162e-06
2.01202e-06
1.0996e-07
8.42397e-09
1.41131e-06
3.15778e-06
5.58567e-06
8.84157e-06
1.29654e-05
1.76598e-05
2.22147e-05
2.50966e-05
2.62373e-05
2.7119e-05
2.77669e-05
2.82042e-05
2.84525e-05
2.85307e-05
2.84552e-05
2.82402e-05
2.7051e-05
2.54319e-05
2.35891e-05
2.14836e-05
1.90622e-05
1.63319e-05
1.34008e-05
1.0479e-05
7.82813e-06
5.68147e-06
4.16239e-06
3.2018e-06
2.72088e-06
2.77442e-06
4.0039e-06
8.54257e-06
2.01213e-06
1.16311e-07
9.79843e-09
1.47388e-06
3.3007e-06
5.86585e-06
9.34677e-06
1.37713e-05
1.87287e-05
2.3394e-05
2.68401e-05
2.79374e-05
2.87688e-05
2.9362e-05
2.97418e-05
2.99303e-05
2.99465e-05
2.92243e-05
2.78922e-05
2.64025e-05
2.47751e-05
2.29547e-05
2.08665e-05
1.8461e-05
1.57586e-05
1.28825e-05
1.00504e-05
7.51644e-06
5.49698e-06
4.08429e-06
3.19628e-06
2.76704e-06
2.87846e-06
4.2436e-06
8.51364e-06
2.01279e-06
1.22554e-07
1.13823e-08
1.53219e-06
3.43114e-06
6.12386e-06
9.8199e-06
1.45294e-05
1.97158e-05
2.4432e-05
2.80265e-05
2.97121e-05
3.0499e-05
3.10434e-05
3.13713e-05
3.11198e-05
3.00682e-05
2.88054e-05
2.74272e-05
2.59517e-05
2.43458e-05
2.25406e-05
2.0457e-05
1.80454e-05
1.53364e-05
1.24727e-05
9.68888e-06
7.24051e-06
5.32845e-06
4.0098e-06
3.19038e-06
2.81247e-06
2.98269e-06
4.48454e-06
8.44615e-06
2.01698e-06
1.28594e-07
1.2979e-08
1.57939e-06
3.53645e-06
6.33616e-06
1.02204e-05
1.51897e-05
2.05996e-05
2.53854e-05
2.89042e-05
3.11053e-05
3.21338e-05
3.23478e-05
3.1861e-05
3.09282e-05
2.9728e-05
2.83826e-05
2.69576e-05
2.54651e-05
2.38636e-05
2.20735e-05
2.00064e-05
1.76079e-05
1.49117e-05
1.20732e-05
9.3407e-06
6.97449e-06
5.16603e-06
3.93771e-06
3.1876e-06
2.86513e-06
3.10165e-06
4.75586e-06
8.33154e-06
2.02171e-06
1.34541e-07
1.48004e-08
1.62709e-06
3.64239e-06
6.55101e-06
1.06262e-05
1.58473e-05
2.14426e-05
2.62407e-05
2.96302e-05
3.16325e-05
3.2484e-05
3.24495e-05
3.17824e-05
3.07053e-05
2.93962e-05
2.79786e-05
2.65177e-05
2.50193e-05
2.34309e-05
2.16632e-05
1.96198e-05
1.72408e-05
1.45613e-05
1.17459e-05
9.05499e-06
6.75458e-06
5.0299e-06
3.87581e-06
3.18578e-06
2.91518e-06
3.21799e-06
5.02614e-06
8.21063e-06
2.02878e-06
1.40301e-07
1.66334e-08
1.66853e-06
3.73115e-06
6.72713e-06
1.09584e-05
1.63899e-05
2.21417e-05
2.69517e-05
3.02333e-05
3.20638e-05
3.27212e-05
3.24978e-05
3.16634e-05
3.04499e-05
2.90399e-05
2.75579e-05
2.60657e-05
2.45608e-05
2.29822e-05
2.12347e-05
1.92157e-05
1.68604e-05
1.42042e-05
1.1419e-05
8.77465e-06
6.54184e-06
4.90006e-06
3.81811e-06
3.18771e-06
2.971e-06
3.34588e-06
5.32197e-06
8.0688e-06
2.03613e-06
1.45889e-07
1.86478e-08
1.70566e-06
3.80876e-06
6.88497e-06
1.1268e-05
1.6903e-05
2.27877e-05
2.75762e-05
3.07294e-05
3.23911e-05
3.28772e-05
3.25002e-05
3.15395e-05
3.02301e-05
2.87534e-05
2.72298e-05
2.57163e-05
2.42039e-05
2.2627e-05
2.08902e-05
1.88881e-05
1.65526e-05
1.39177e-05
1.1159e-05
8.55272e-06
6.37329e-06
4.79628e-06
3.77149e-06
3.19099e-06
3.02353e-06
3.46967e-06
5.61458e-06
7.93659e-06
2.04505e-06
1.51232e-07
2.06772e-08
1.73471e-06
3.86901e-06
7.01428e-06
1.15382e-05
1.73699e-05
2.33869e-05
2.8163e-05
3.12055e-05
3.27207e-05
3.30599e-05
3.25546e-05
3.14919e-05
3.01073e-05
2.85777e-05
2.70174e-05
2.54766e-05
2.39412e-05
2.23461e-05
2.05977e-05
1.85922e-05
1.62617e-05
1.36411e-05
1.09084e-05
8.34258e-06
6.21859e-06
4.70518e-06
3.73456e-06
3.20115e-06
3.08195e-06
3.60202e-06
5.92469e-06
7.80224e-06
2.05442e-06
1.56356e-07
2.29021e-08
1.76061e-06
3.92489e-06
7.14548e-06
1.18285e-05
1.78755e-05
2.40193e-05
2.87612e-05
3.1681e-05
3.30541e-05
3.32648e-05
3.26588e-05
3.15264e-05
3.00986e-05
2.85436e-05
2.69658e-05
2.54043e-05
2.38405e-05
2.22137e-05
2.04351e-05
1.8405e-05
1.60597e-05
1.34379e-05
1.07195e-05
8.18383e-06
6.10335e-06
4.63909e-06
3.71038e-06
3.21504e-06
3.13844e-06
3.72957e-06
6.22678e-06
7.68886e-06
2.06541e-06
1.61247e-07
2.51726e-08
1.78142e-06
3.97259e-06
7.26921e-06
1.21182e-05
1.83906e-05
2.46652e-05
2.93764e-05
3.21813e-05
3.34227e-05
3.35168e-05
3.2824e-05
3.16381e-05
3.01851e-05
2.86228e-05
2.70423e-05
2.54693e-05
2.38792e-05
2.2213e-05
2.03866e-05
1.8307e-05
1.59189e-05
1.32711e-05
1.05515e-05
8.04028e-06
6.00371e-06
4.58826e-06
3.69959e-06
3.23912e-06
3.2022e-06
3.86385e-06
6.53808e-06
7.58607e-06
2.07725e-06
1.65951e-07
2.76269e-08
1.801e-06
4.0212e-06
7.40459e-06
1.24406e-05
1.89517e-05
2.53372e-05
2.9985e-05
3.26554e-05
3.37609e-05
3.37463e-05
3.29827e-05
3.17646e-05
3.0311e-05
2.87673e-05
2.72079e-05
2.56448e-05
2.40478e-05
2.2355e-05
2.04838e-05
1.83472e-05
1.58996e-05
1.32022e-05
1.04556e-05
7.94631e-06
5.93659e-06
4.55715e-06
3.70047e-06
3.26914e-06
3.26736e-06
3.99593e-06
6.84181e-06
7.50775e-06
2.09084e-06
1.70493e-07
3.01441e-08
1.81923e-06
4.07003e-06
7.54522e-06
1.27731e-05
1.95124e-05
2.59782e-05
3.05399e-05
3.30699e-05
3.40437e-05
3.39296e-05
3.31074e-05
3.18706e-05
3.04309e-05
2.89216e-05
2.74e-05
2.58652e-05
2.42794e-05
2.25746e-05
2.06663e-05
1.84702e-05
1.59511e-05
1.31868e-05
1.03957e-05
7.87538e-06
5.88611e-06
4.5395e-06
3.71368e-06
3.31045e-06
3.34241e-06
4.13785e-06
7.15758e-06
7.43995e-06
2.10505e-06
1.74885e-07
3.28305e-08
1.83914e-06
4.1243e-06
7.69866e-06
1.31252e-05
2.00778e-05
2.65813e-05
3.1023e-05
3.34008e-05
3.42462e-05
3.40448e-05
3.31796e-05
3.19404e-05
3.05299e-05
2.90691e-05
2.76006e-05
2.6112e-05
2.4558e-05
2.28628e-05
2.09358e-05
1.86914e-05
1.61001e-05
1.32555e-05
1.03979e-05
7.84328e-06
5.85629e-06
4.53163e-06
3.73283e-06
3.35709e-06
3.42292e-06
4.28621e-06
7.48175e-06
7.3868e-06
2.12022e-06
1.79084e-07
3.55584e-08
1.8587e-06
4.17854e-06
7.85184e-06
1.34723e-05
2.06185e-05
2.71334e-05
3.14467e-05
3.36779e-05
3.44056e-05
3.41281e-05
3.323e-05
3.19956e-05
3.06187e-05
2.92076e-05
2.77934e-05
2.63562e-05
2.48424e-05
2.31684e-05
2.12359e-05
1.89546e-05
1.62972e-05
1.33704e-05
1.04368e-05
7.83455e-06
5.83864e-06
4.52916e-06
3.75628e-06
3.41049e-06
3.51395e-06
4.45114e-06
7.83259e-06
7.3328e-06
2.13487e-06
1.83002e-07
3.84031e-08
1.87934e-06
4.23581e-06
8.01225e-06
1.3832e-05
2.11637e-05
2.76686e-05
3.18433e-05
3.39298e-05
3.45474e-05
3.42039e-05
3.32822e-05
3.20602e-05
3.07211e-05
2.93606e-05
2.80006e-05
2.66156e-05
2.51463e-05
2.35017e-05
2.15757e-05
1.92708e-05
1.65577e-05
1.35504e-05
1.05314e-05
7.86327e-06
5.83861e-06
4.52981e-06
3.77705e-06
3.46249e-06
3.60886e-06
4.62887e-06
8.20827e-06
7.2816e-06
2.14945e-06
1.86558e-07
4.12464e-08
1.89967e-06
4.29275e-06
8.17257e-06
1.41907e-05
2.16978e-05
2.81817e-05
3.22206e-05
3.41707e-05
3.46861e-05
3.42822e-05
3.33408e-05
3.21327e-05
3.08313e-05
2.95195e-05
2.82104e-05
2.68746e-05
2.54483e-05
2.38346e-05
2.19212e-05
1.96045e-05
1.68511e-05
1.37772e-05
1.06769e-05
7.93481e-06
5.86509e-06
4.54008e-06
3.79714e-06
3.51198e-06
3.70586e-06
4.81807e-06
8.60344e-06
7.22547e-06
2.163e-06
1.89727e-07
4.41378e-08
1.92067e-06
4.35126e-06
8.33715e-06
1.45577e-05
2.22329e-05
2.86807e-05
3.25785e-05
3.4393e-05
3.48088e-05
3.43479e-05
3.33904e-05
3.21997e-05
3.09388e-05
2.96778e-05
2.84216e-05
2.71369e-05
2.57559e-05
2.4177e-05
2.22828e-05
1.99654e-05
1.71883e-05
1.40656e-05
1.08943e-05
8.07314e-06
5.93851e-06
4.5724e-06
3.8194e-06
3.55374e-06
3.79456e-06
5.00485e-06
9.00032e-06
7.18305e-06
2.17738e-06
1.92658e-07
4.69745e-08
1.94098e-06
4.40812e-06
8.49895e-06
1.49187e-05
2.27488e-05
2.91483e-05
3.29043e-05
3.45858e-05
3.49039e-05
3.43872e-05
3.3414e-05
3.22409e-05
3.10204e-05
2.98106e-05
2.86089e-05
2.73782e-05
2.60467e-05
2.45079e-05
2.26404e-05
2.03337e-05
1.75504e-05
1.44026e-05
1.11828e-05
8.29113e-06
6.08083e-06
4.64868e-06
3.85858e-06
3.59261e-06
3.87079e-06
5.17613e-06
9.37034e-06
7.16184e-06
2.19389e-06
1.95635e-07
4.98329e-08
1.96178e-06
4.46598e-06
8.66394e-06
1.52846e-05
2.3257e-05
2.95904e-05
3.31971e-05
3.47432e-05
3.49632e-05
3.43911e-05
3.34031e-05
3.22484e-05
3.10684e-05
2.99106e-05
2.87665e-05
2.75946e-05
2.63188e-05
2.48279e-05
2.29958e-05
2.07098e-05
1.79343e-05
1.4782e-05
1.15384e-05
8.5944e-06
6.30799e-06
4.78962e-06
3.93215e-06
3.63664e-06
3.9301e-06
5.31158e-06
9.67549e-06
7.17271e-06
2.21362e-06
1.9901e-07
5.26542e-08
1.98166e-06
4.52176e-06
8.82525e-06
1.56408e-05
2.37381e-05
2.99928e-05
3.34496e-05
3.48621e-05
3.49849e-05
3.43572e-05
3.33533e-05
3.22154e-05
3.10735e-05
2.99669e-05
2.8882e-05
2.7773e-05
2.65589e-05
2.5123e-05
2.33333e-05
2.10737e-05
1.83115e-05
1.51667e-05
1.19232e-05
8.95712e-06
6.6155e-06
5.00875e-06
4.06187e-06
3.70578e-06
3.98398e-06
5.41088e-06
9.90916e-06
7.21911e-06
2.23699e-06
2.0301e-07
5.55431e-08
2.00159e-06
4.57819e-06
8.98977e-06
1.60008e-05
2.42079e-05
3.03667e-05
3.3667e-05
3.49443e-05
3.49706e-05
3.42883e-05
3.32694e-05
3.21493e-05
3.10461e-05
2.99907e-05
2.89664e-05
2.79234e-05
2.67761e-05
2.54011e-05
2.36584e-05
2.14252e-05
1.86707e-05
1.55282e-05
1.22928e-05
9.33231e-06
6.97108e-06
5.29705e-06
4.2578e-06
3.819e-06
4.05093e-06
5.48756e-06
1.00867e-05
7.29601e-06
2.26299e-06
2.0763e-07
5.84773e-08
2.02051e-06
4.63317e-06
9.15204e-06
1.63513e-05
2.46493e-05
3.07041e-05
3.38517e-05
3.4996e-05
3.49251e-05
3.41859e-05
3.31488e-05
3.2043e-05
3.09764e-05
2.99725e-05
2.90102e-05
2.80357e-05
2.6959e-05
2.56508e-05
2.39594e-05
2.17491e-05
1.89882e-05
1.58283e-05
1.25917e-05
9.65452e-06
7.31712e-06
5.6208e-06
4.51427e-06
3.99245e-06
4.16076e-06
5.58365e-06
1.02682e-05
7.38865e-06
2.28977e-06
2.12536e-07
6.15639e-08
2.0395e-06
4.68941e-06
9.31776e-06
1.67058e-05
2.50856e-05
3.10291e-05
3.40208e-05
3.50322e-05
3.48607e-05
3.40628e-05
3.30071e-05
3.19153e-05
3.08837e-05
2.9929e-05
2.90272e-05
2.81207e-05
2.71142e-05
2.58699e-05
2.42257e-05
2.20327e-05
1.92512e-05
1.60493e-05
1.2786e-05
9.86892e-06
7.587e-06
5.92256e-06
4.79932e-06
4.2228e-06
4.33461e-06
5.74592e-06
1.05301e-05
7.47213e-06
2.31453e-06
2.17093e-07
6.47484e-08
2.05817e-06
4.74603e-06
9.48418e-06
1.70536e-05
2.54918e-05
3.13017e-05
3.41385e-05
3.50257e-05
3.476e-05
3.39046e-05
3.28299e-05
3.17507e-05
3.07525e-05
2.98456e-05
2.90032e-05
2.81646e-05
2.72306e-05
2.60565e-05
2.44666e-05
2.22913e-05
1.94749e-05
1.61978e-05
1.28715e-05
9.95347e-06
7.73664e-06
6.14719e-06
5.06729e-06
4.48916e-06
4.5827e-06
6.02449e-06
1.09588e-05
7.52082e-06
2.33508e-06
2.20568e-07
6.80252e-08
2.07724e-06
4.80397e-06
9.6513e-06
1.73937e-05
2.58701e-05
3.1537e-05
3.42172e-05
3.49795e-05
3.46253e-05
3.37109e-05
3.26151e-05
3.15454e-05
3.05772e-05
2.97152e-05
2.89287e-05
2.81545e-05
2.72915e-05
2.61902e-05
2.46635e-05
2.25189e-05
1.96754e-05
1.6314e-05
1.28933e-05
9.93808e-06
7.76616e-06
6.26621e-06
5.27619e-06
4.75719e-06
4.89282e-06
6.43771e-06
1.15886e-05
7.51927e-06
2.35034e-06
2.22475e-07
7.12523e-08
2.09599e-06
4.86077e-06
9.81482e-06
1.77231e-05
2.62157e-05
3.17316e-05
3.42514e-05
3.48837e-05
3.44352e-05
3.34599e-05
3.23425e-05
3.128e-05
3.03378e-05
2.95159e-05
2.87802e-05
2.80659e-05
2.72719e-05
2.62486e-05
2.48018e-05
2.2718e-05
1.98824e-05
1.64567e-05
1.29307e-05
9.90058e-06
7.72647e-06
6.29409e-06
5.41259e-06
5.00072e-06
5.24253e-06
6.97515e-06
1.23745e-05
7.47825e-06
2.36213e-06
2.22936e-07
7.43806e-08
2.11429e-06
4.9151e-06
9.97145e-06
1.8038e-05
2.65284e-05
3.18835e-05
3.42349e-05
3.47292e-05
3.41816e-05
3.31453e-05
3.20053e-05
3.0948e-05
3.0028e-05
2.92403e-05
2.85477e-05
2.78862e-05
2.71584e-05
2.62194e-05
2.48758e-05
2.28989e-05
2.0135e-05
1.67014e-05
1.30869e-05
9.94914e-06
7.70469e-06
6.27954e-06
5.48304e-06
5.19913e-06
5.59663e-06
7.58245e-06
1.31876e-05
7.43398e-06
2.3751e-06
2.22834e-07
7.7299e-08
2.13095e-06
4.96349e-06
1.01132e-05
1.83249e-05
2.68017e-05
3.19895e-05
3.41658e-05
3.45158e-05
3.38659e-05
3.27718e-05
3.16079e-05
3.05516e-05
2.96483e-05
2.88875e-05
2.82295e-05
2.76124e-05
2.69465e-05
2.60973e-05
2.48798e-05
2.30599e-05
2.04473e-05
1.70926e-05
1.34402e-05
1.01806e-05
7.79443e-06
6.29084e-06
5.51516e-06
5.33798e-06
5.90917e-06
8.17667e-06
1.38995e-05
7.42288e-06
2.3938e-06
2.23313e-07
8.00629e-08
2.1468e-06
5.00887e-06
1.02491e-05
1.86003e-05
2.70497e-05
3.20581e-05
3.40498e-05
3.42492e-05
3.34948e-05
3.23435e-05
3.11572e-05
3.01019e-05
2.92127e-05
2.84726e-05
2.78399e-05
2.72575e-05
2.66471e-05
2.58894e-05
2.48147e-05
2.31934e-05
2.08067e-05
1.76296e-05
1.40212e-05
1.06588e-05
8.07718e-06
6.40233e-06
5.55367e-06
5.4177e-06
6.1321e-06
8.65707e-06
1.44409e-05
7.46253e-06
2.42015e-06
2.25132e-07
8.2696e-08
2.16144e-06
5.05072e-06
1.03784e-05
1.88612e-05
2.72682e-05
3.20878e-05
3.38902e-05
3.39384e-05
3.30828e-05
3.18789e-05
3.06725e-05
2.96188e-05
2.87416e-05
2.80152e-05
2.73965e-05
2.6836e-05
2.627e-05
2.55989e-05
2.46727e-05
2.32731e-05
2.11646e-05
1.82526e-05
1.47881e-05
1.13844e-05
8.59631e-06
6.6794e-06
5.65937e-06
5.46914e-06
6.24981e-06
8.95865e-06
1.48088e-05
7.54422e-06
2.45179e-06
2.2842e-07
8.53314e-08
2.17544e-06
5.09187e-06
1.05101e-05
1.91216e-05
2.74709e-05
3.20908e-05
3.37012e-05
3.36012e-05
3.26508e-05
3.14011e-05
3.01788e-05
2.91268e-05
2.82568e-05
2.75334e-05
2.69128e-05
2.63552e-05
2.5816e-05
2.52183e-05
2.44346e-05
2.32615e-05
2.14566e-05
1.88715e-05
1.56497e-05
1.22997e-05
9.34643e-06
7.16002e-06
5.89358e-06
5.5525e-06
6.29871e-06
9.08726e-06
1.50421e-05
7.65347e-06
2.48526e-06
2.328e-07
8.80309e-08
2.18888e-06
5.1338e-06
1.06491e-05
1.9383e-05
2.76575e-05
3.20694e-05
3.34883e-05
3.32455e-05
3.2208e-05
3.09192e-05
2.96859e-05
2.86362e-05
2.77676e-05
2.70345e-05
2.63925e-05
2.58143e-05
2.52777e-05
2.47328e-05
2.40761e-05
2.31202e-05
2.16217e-05
1.93956e-05
1.6495e-05
1.33003e-05
1.02635e-05
7.83611e-06
6.2923e-06
5.73127e-06
6.35308e-06
9.12095e-06
1.52044e-05
7.77231e-06
2.51684e-06
2.37568e-07
9.08809e-08
2.20194e-06
5.17629e-06
1.07934e-05
1.96511e-05
2.78363e-05
3.20328e-05
3.3262e-05
3.2883e-05
3.1766e-05
3.04443e-05
2.92033e-05
2.81552e-05
2.72813e-05
2.65238e-05
2.58377e-05
2.52099e-05
2.46455e-05
2.41257e-05
2.3574e-05
2.28185e-05
2.16166e-05
1.97588e-05
1.72287e-05
1.42713e-05
1.12503e-05
8.64978e-06
6.85016e-06
6.04599e-06
6.49247e-06
9.17704e-06
1.53788e-05
7.88602e-06
2.5441e-06
2.41926e-07
9.38585e-08
2.21447e-06
5.21956e-06
1.09435e-05
1.99239e-05
2.80053e-05
3.19823e-05
3.30258e-05
3.25178e-05
3.13288e-05
2.99803e-05
2.8736e-05
2.769e-05
2.68048e-05
2.60084e-05
2.5254e-05
2.45444e-05
2.39164e-05
2.33887e-05
2.29149e-05
2.2339e-05
2.14182e-05
1.99239e-05
1.77848e-05
1.51171e-05
1.22042e-05
9.5248e-06
7.52872e-06
6.50399e-06
6.77357e-06
9.37011e-06
1.56574e-05
7.9873e-06
2.56721e-06
2.45267e-07
9.69776e-08
2.22745e-06
5.26581e-06
1.11029e-05
2.02058e-05
2.81693e-05
3.19235e-05
3.27855e-05
3.21549e-05
3.09008e-05
2.95309e-05
2.82874e-05
2.72449e-05
2.63444e-05
2.54968e-05
2.46511e-05
2.38268e-05
2.30975e-05
2.25254e-05
2.20995e-05
2.16815e-05
2.10271e-05
1.98871e-05
1.81381e-05
1.5784e-05
1.30462e-05
1.03813e-05
8.27312e-06
7.08539e-06
7.22048e-06
9.77683e-06
1.61083e-05
8.07829e-06
2.58877e-06
2.47413e-07
1.00156e-07
2.23987e-06
5.31198e-06
1.12646e-05
2.04859e-05
2.83204e-05
3.18528e-05
3.25395e-05
3.17946e-05
3.04829e-05
2.9098e-05
2.7861e-05
2.68257e-05
2.59096e-05
2.50032e-05
2.40477e-05
2.30784e-05
2.22094e-05
2.15542e-05
2.11434e-05
2.08605e-05
2.04605e-05
1.96695e-05
1.83013e-05
1.62653e-05
1.37419e-05
1.11668e-05
9.03385e-06
7.76069e-06
7.83132e-06
1.04276e-05
1.67449e-05
8.16418e-06
2.6116e-06
2.48576e-07
1.03368e-07
2.25217e-06
5.35917e-06
1.14305e-05
2.07673e-05
2.84636e-05
3.17763e-05
3.22946e-05
3.14429e-05
3.00809e-05
2.86869e-05
2.74625e-05
2.644e-05
2.5512e-05
2.45456e-05
2.3469e-05
2.233e-05
2.12858e-05
2.05078e-05
2.00761e-05
1.99024e-05
1.9745e-05
1.9302e-05
1.83039e-05
1.65823e-05
1.42929e-05
1.18597e-05
9.77903e-06
8.50453e-06
8.59892e-06
1.13307e-05
1.75353e-05
8.25741e-06
2.63919e-06
2.49186e-07
1.0653e-07
2.26376e-06
5.40516e-06
1.15941e-05
2.10384e-05
2.85893e-05
3.16886e-05
3.20476e-05
3.10987e-05
2.96948e-05
2.82988e-05
2.70944e-05
2.60929e-05
2.51621e-05
2.41423e-05
2.29429e-05
2.16176e-05
2.03665e-05
1.94253e-05
1.89324e-05
1.88358e-05
1.89047e-05
1.88084e-05
1.81759e-05
1.67699e-05
1.47262e-05
1.24674e-05
1.04954e-05
9.2943e-06
9.50223e-06
1.24614e-05
1.84049e-05
8.36671e-06
2.67341e-06
2.49879e-07
1.09636e-07
2.27462e-06
5.44988e-06
1.17555e-05
2.12994e-05
2.87002e-05
3.15944e-05
3.18051e-05
3.07693e-05
2.93319e-05
2.79407e-05
2.67636e-05
2.57928e-05
2.48724e-05
2.38146e-05
2.25016e-05
2.09837e-05
1.94996e-05
1.83548e-05
1.77547e-05
1.76936e-05
1.79608e-05
1.82007e-05
1.79342e-05
1.68545e-05
1.50721e-05
1.30118e-05
1.11888e-05
1.01198e-05
1.05175e-05
1.37656e-05
1.92792e-05
8.49917e-06
2.715e-06
2.51242e-07
1.12666e-07
2.28467e-06
5.49305e-06
1.19121e-05
2.15443e-05
2.87918e-05
3.14931e-05
3.15691e-05
3.04584e-05
2.89965e-05
2.76169e-05
2.64742e-05
2.55447e-05
2.46514e-05
2.3578e-05
2.21726e-05
2.04679e-05
1.87324e-05
1.73444e-05
1.65863e-05
1.65092e-05
1.69342e-05
1.74865e-05
1.75869e-05
1.68518e-05
1.53514e-05
1.35099e-05
1.18642e-05
1.09711e-05
1.16162e-05
1.51797e-05
2.01113e-05
8.65074e-06
2.76229e-06
2.53453e-07
1.15641e-07
2.29403e-06
5.53473e-06
1.2063e-05
2.17707e-05
2.88647e-05
3.13877e-05
3.13444e-05
3.01709e-05
2.86929e-05
2.7331e-05
2.62294e-05
2.53515e-05
2.45039e-05
2.34432e-05
2.19771e-05
2.01048e-05
1.81092e-05
1.64402e-05
1.54681e-05
1.53124e-05
1.58379e-05
1.66592e-05
1.71182e-05
1.67483e-05
1.55588e-05
1.39612e-05
1.25168e-05
1.18329e-05
1.27708e-05
1.66515e-05
2.08736e-05
8.80374e-06
2.81129e-06
2.56294e-07
1.18548e-07
2.30267e-06
5.57479e-06
1.22063e-05
2.19746e-05
2.89173e-05
3.12793e-05
3.11325e-05
2.99078e-05
2.84213e-05
2.70821e-05
2.60269e-05
2.521e-05
2.44265e-05
2.34105e-05
2.1926e-05
1.99212e-05
1.76703e-05
1.56882e-05
1.44433e-05
1.41365e-05
1.46889e-05
1.57166e-05
1.65109e-05
1.6521e-05
1.56753e-05
1.43561e-05
1.31467e-05
1.27097e-05
1.39683e-05
1.81446e-05
2.15471e-05
8.93857e-06
2.85753e-06
2.59345e-07
1.21371e-07
2.31081e-06
5.61337e-06
1.23401e-05
2.21539e-05
2.89518e-05
3.11715e-05
3.09365e-05
2.96705e-05
2.81809e-05
2.6868e-05
2.58628e-05
2.5114e-05
2.44109e-05
2.34722e-05
2.20198e-05
1.9935e-05
1.74527e-05
1.51354e-05
1.35579e-05
1.3018e-05
1.35058e-05
1.46578e-05
1.57465e-05
1.61423e-05
1.56738e-05
1.46737e-05
1.37406e-05
1.35929e-05
1.52004e-05
1.9637e-05
2.21152e-05
9.04015e-06
2.89763e-06
2.62131e-07
1.24051e-07
2.31838e-06
5.65004e-06
1.24607e-05
2.23044e-05
2.8967e-05
3.10629e-05
3.0753e-05
2.94535e-05
2.79649e-05
2.66805e-05
2.57276e-05
2.50516e-05
2.44419e-05
2.36112e-05
2.22468e-05
2.01533e-05
1.749e-05
1.48343e-05
1.28697e-05
1.20093e-05
1.23258e-05
1.3499e-05
1.48172e-05
1.55885e-05
1.55277e-05
1.48925e-05
1.42825e-05
1.44687e-05
1.64534e-05
2.11009e-05
2.25536e-05
9.09727e-06
2.9289e-06
2.64234e-07
1.26504e-07
2.32535e-06
5.68358e-06
1.25637e-05
2.24236e-05
2.89657e-05
3.09563e-05
3.05826e-05
2.92548e-05
2.7769e-05
2.65138e-05
2.56135e-05
2.50117e-05
2.4503e-05
2.38041e-05
2.25835e-05
2.05693e-05
1.78077e-05
1.48373e-05
1.24429e-05
1.11743e-05
1.12026e-05
1.22761e-05
1.37314e-05
1.48437e-05
1.52093e-05
1.49841e-05
1.47488e-05
1.5319e-05
1.7708e-05
2.25016e-05
2.28509e-05
9.11303e-06
2.95173e-06
2.65493e-07
1.28569e-07
2.33095e-06
5.71065e-06
1.26449e-05
2.25099e-05
2.89481e-05
3.08494e-05
3.04198e-05
2.90662e-05
2.75835e-05
2.63569e-05
2.55081e-05
2.49792e-05
2.45738e-05
2.40226e-05
2.29879e-05
2.11394e-05
1.83947e-05
1.51892e-05
1.23547e-05
1.05951e-05
1.02137e-05
1.1051e-05
1.25222e-05
1.39104e-05
1.47016e-05
1.49228e-05
1.51103e-05
1.61088e-05
1.89179e-05
2.37803e-05
2.30054e-05
9.09722e-06
2.96772e-06
2.65975e-07
1.30175e-07
2.33502e-06
5.73033e-06
1.2703e-05
2.25659e-05
2.89182e-05
3.07435e-05
3.02622e-05
2.88827e-05
2.74012e-05
2.62005e-05
2.54001e-05
2.49401e-05
2.46338e-05
2.42311e-05
2.34108e-05
2.181e-05
1.92162e-05
1.58971e-05
1.26612e-05
1.03622e-05
9.45653e-06
9.91218e-06
1.12478e-05
1.28061e-05
1.39956e-05
1.46914e-05
1.5345e-05
1.67938e-05
2.00168e-05
2.48729e-05
2.30414e-05
9.06604e-06
2.97996e-06
2.66076e-07
1.31311e-07
2.33732e-06
5.74166e-06
1.27365e-05
2.25936e-05
2.88786e-05
3.06374e-05
3.01056e-05
2.86986e-05
2.72158e-05
2.60379e-05
2.52818e-05
2.48857e-05
2.46715e-05
2.44112e-05
2.38122e-05
2.25117e-05
2.01986e-05
1.69359e-05
1.34028e-05
1.05535e-05
9.03677e-06
8.97624e-06
1.00058e-05
1.15765e-05
1.30833e-05
1.42502e-05
1.53957e-05
1.73083e-05
2.09215e-05
2.57238e-05
2.30099e-05
9.04269e-06
2.99319e-06
2.66392e-07
1.32029e-07
2.33801e-06
5.74552e-06
1.27495e-05
2.26006e-05
2.88342e-05
3.05323e-05
2.99492e-05
2.85119e-05
2.70249e-05
2.58666e-05
2.51501e-05
2.4811e-05
2.46804e-05
2.45501e-05
2.41603e-05
2.31749e-05
2.1235e-05
1.82126e-05
1.45616e-05
1.12275e-05
9.05422e-06
8.36699e-06
8.92698e-06
1.03181e-05
1.19932e-05
1.35697e-05
1.52001e-05
1.7575e-05
2.15553e-05
2.63128e-05
2.29592e-05
9.04054e-06
3.01019e-06
2.67386e-07
1.32409e-07
2.33734e-06
5.74286e-06
1.27456e-05
2.25909e-05
2.87851e-05
3.04258e-05
2.97895e-05
2.83186e-05
2.68242e-05
2.56822e-05
2.50011e-05
2.47133e-05
2.46558e-05
2.46388e-05
2.44339e-05
2.37443e-05
2.2213e-05
1.95804e-05
1.60368e-05
1.23776e-05
9.57575e-06
8.19366e-06
8.14764e-06
9.15922e-06
1.08017e-05
1.26578e-05
1.47163e-05
1.75251e-05
2.18545e-05
2.66418e-05
2.29188e-05
9.05992e-06
3.03099e-06
2.69296e-07
1.32604e-07
2.33591e-06
5.73608e-06
1.27326e-05
2.25759e-05
2.87355e-05
3.03176e-05
2.96244e-05
2.81163e-05
2.66112e-05
2.54822e-05
2.48328e-05
2.45918e-05
2.45992e-05
2.46751e-05
2.46202e-05
2.41854e-05
2.3043e-05
2.08767e-05
1.76515e-05
1.39053e-05
1.06021e-05
8.52576e-06
7.79127e-06
8.25436e-06
9.62928e-06
1.15685e-05
1.39473e-05
1.71386e-05
2.18042e-05
2.67367e-05
2.29111e-05
9.1008e-06
3.05545e-06
2.72235e-07
1.32756e-07
2.33421e-06
5.72776e-06
1.27168e-05
2.25593e-05
2.86852e-05
3.02059e-05
2.94516e-05
2.79022e-05
2.6383e-05
2.5264e-05
2.46427e-05
2.44436e-05
2.45083e-05
2.46628e-05
2.47245e-05
2.44832e-05
2.36723e-05
2.19742e-05
1.92055e-05
1.56263e-05
1.20419e-05
9.363e-06
7.92757e-06
7.74211e-06
8.64964e-06
1.04187e-05
1.29276e-05
1.64181e-05
2.14221e-05
2.66421e-05
2.2951e-05
9.16256e-06
3.08279e-06
2.76182e-07
1.33e-07
2.33281e-06
5.72086e-06
1.27069e-05
2.25513e-05
2.86373e-05
3.00894e-05
2.92686e-05
2.76742e-05
2.6138e-05
2.50263e-05
2.44296e-05
2.42675e-05
2.43811e-05
2.45991e-05
2.47502e-05
2.46531e-05
2.40914e-05
2.27964e-05
2.05309e-05
1.73194e-05
1.37188e-05
1.06218e-05
8.55135e-06
7.69428e-06
8.0185e-06
9.40301e-06
1.17927e-05
1.54011e-05
2.07012e-05
2.63651e-05
2.30229e-05
9.22782e-06
3.10929e-06
2.80606e-07
1.33413e-07
2.33202e-06
5.71636e-06
1.2705e-05
2.25523e-05
2.8589e-05
2.99646e-05
2.90718e-05
2.74287e-05
2.5873e-05
2.47662e-05
2.41913e-05
2.40619e-05
2.42166e-05
2.44832e-05
2.46963e-05
2.46975e-05
2.43159e-05
2.33369e-05
2.15292e-05
1.87922e-05
1.54175e-05
1.21445e-05
9.57859e-06
8.09476e-06
7.80328e-06
8.67935e-06
1.0744e-05
1.42557e-05
1.97281e-05
2.59288e-05
2.31041e-05
9.28007e-06
3.13117e-06
2.84883e-07
1.34037e-07
2.33243e-06
5.71666e-06
1.27174e-05
2.25691e-05
2.85418e-05
2.98293e-05
2.88578e-05
2.71627e-05
2.55857e-05
2.44818e-05
2.39259e-05
2.38244e-05
2.40118e-05
2.43121e-05
2.45613e-05
2.46172e-05
2.43497e-05
2.36044e-05
2.21887e-05
1.99407e-05
1.69559e-05
1.37518e-05
1.08803e-05
8.86794e-06
7.98828e-06
8.31542e-06
9.9336e-06
1.31668e-05
1.86449e-05
2.53856e-05
2.31837e-05
9.31286e-06
3.14674e-06