/*--------------------------------*- C++ -*----------------------------------*\
| =========                 |                                                 |
| \\      /  F ield         | OpenFOAM: The Open Source CFD Toolbox           |
|  \\    /   O peration     | Version:  v2006                                 |
|   \\  /    A nd           | Website:  www.openfoam.com                      |
|    \\/     M anipulation  |                                                 |
\*---------------------------------------------------------------------------*/
FoamFile
{
    version     2.0;
    format      ascii;
    class       volScalarField;
    location    "39";
    object      nut;
}
// * * * * * * * * * * * * * * * * * * * * * * * * * * * * * * * * * * * * * //

dimensions      [0 2 -1 0 0 0 0];


internalField   nonuniform List<scalar> 
78750
(
1.84887e-08
1.0666e-06
1.26282e-06
1.33215e-06
1.34488e-06
1.32883e-06
1.30066e-06
1.27017e-06
1.2422e-06
1.21869e-06
1.19984e-06
1.18504e-06
1.17326e-06
1.16337e-06
1.15422e-06
1.14477e-06
1.13404e-06
1.12117e-06
1.10542e-06
1.08614e-06
1.06282e-06
1.03504e-06
1.00247e-06
9.64918e-07
9.22296e-07
8.74606e-07
8.21816e-07
7.63697e-07
6.99247e-07
6.25175e-07
5.35317e-07
4.24395e-07
2.99318e-07
1.81028e-07
3.18055e-09
3.14855e-09
2.57585e-06
4.69244e-06
7.10197e-06
8.68866e-06
9.2453e-06
9.5538e-06
9.72791e-06
9.83496e-06
9.90755e-06
9.95855e-06
9.99139e-06
1.00056e-05
9.99906e-06
9.96961e-06
9.91498e-06
9.83329e-06
9.72307e-06
9.58327e-06
9.4131e-06
9.21188e-06
8.97881e-06
8.71276e-06
8.41219e-06
8.07505e-06
7.69847e-06
7.27816e-06
6.80653e-06
6.27347e-06
5.66669e-06
4.2909e-06
2.46974e-06
1.80557e-06
1.76291e-06
1.13455e-08
5.47829e-09
3.08473e-06
5.43902e-06
6.02718e-06
6.0295e-06
6.65918e-06
8.2203e-06
8.91234e-06
9.23617e-06
9.56362e-06
9.88674e-06
1.01958e-05
1.04817e-05
1.07368e-05
1.09547e-05
1.113e-05
1.12585e-05
1.13365e-05
1.13608e-05
1.13288e-05
1.12377e-05
1.10851e-05
1.08685e-05
1.05854e-05
1.02337e-05
9.81239e-06
9.3212e-06
8.72096e-06
6.66259e-06
4.72466e-06
3.2732e-06
2.47362e-06
2.60347e-06
1.80431e-06
1.9003e-08
2.77779e-09
1.60949e-06
3.06015e-06
3.93808e-06
4.53249e-06
4.95448e-06
5.34514e-06
5.6276e-06
6.43047e-06
7.1227e-06
7.84613e-06
8.55984e-06
9.23591e-06
9.85643e-06
1.04102e-05
1.08902e-05
1.12927e-05
1.16154e-05
1.18576e-05
1.20188e-05
1.20984e-05
1.20959e-05
1.20102e-05
1.18396e-05
1.15828e-05
1.12398e-05
9.34892e-06
7.42722e-06
5.68468e-06
4.22006e-06
3.15503e-06
2.63749e-06
3.20835e-06
2.12232e-06
2.51398e-08
1.34123e-09
1.15079e-06
2.00782e-06
2.72465e-06
3.31836e-06
3.8492e-06
4.30232e-06
4.52096e-06
5.07541e-06
6.06169e-06
7.58226e-06
8.44808e-06
9.27016e-06
1.00268e-05
1.07025e-05
1.12871e-05
1.17754e-05
1.2165e-05
1.24555e-05
1.26469e-05
1.27392e-05
1.27317e-05
1.2623e-05
1.24116e-05
1.20957e-05
9.63403e-06
7.39111e-06
5.57219e-06
4.19061e-06
3.22828e-06
2.66337e-06
2.61345e-06
4.03246e-06
1.89353e-06
3.34694e-08
6.81022e-10
7.81831e-07
1.42365e-06
2.01452e-06
2.57812e-06
3.1633e-06
3.49499e-06
3.82674e-06
4.42529e-06
5.37714e-06
6.82865e-06
8.57309e-06
9.50746e-06
1.03633e-05
1.11246e-05
1.17834e-05
1.2337e-05
1.27861e-05
1.31327e-05
1.33787e-05
1.35248e-05
1.35697e-05
1.351e-05
1.33406e-05
1.2902e-05
1.00837e-05
7.50625e-06
5.45229e-06
3.94594e-06
2.95933e-06
2.43296e-06
2.46047e-06
4.1316e-06
1.96468e-06
3.93547e-08
5.20173e-10
7.05813e-07
1.34619e-06
2.0168e-06
2.74862e-06
3.2037e-06
3.68136e-06
4.38047e-06
5.39623e-06
6.87774e-06
8.89674e-06
9.88209e-06
1.07723e-05
1.15554e-05
1.22262e-05
1.27843e-05
1.32325e-05
1.35751e-05
1.3817e-05
1.39618e-05
1.40119e-05
1.39674e-05
1.38261e-05
1.35842e-05
1.20214e-05
9.1336e-06
6.65322e-06
4.75263e-06
3.43575e-06
2.6337e-06
2.27545e-06
2.5018e-06
4.78001e-06
1.83743e-06
4.66615e-08
7.18012e-10
8.78114e-07
1.70434e-06
2.46861e-06
3.09568e-06
3.80135e-06
4.69258e-06
5.87511e-06
7.48014e-06
9.56524e-06
1.06167e-05
1.15449e-05
1.23617e-05
1.30653e-05
1.36569e-05
1.41401e-05
1.4519e-05
1.47981e-05
1.49812e-05
1.50706e-05
1.50671e-05
1.49695e-05
1.47748e-05
1.44791e-05
1.22868e-05
9.28523e-06
6.70289e-06
4.71054e-06
3.33455e-06
2.51084e-06
2.15882e-06
2.42139e-06
4.92159e-06
1.83737e-06
5.25366e-08
1.1823e-09
8.97648e-07
1.79072e-06
2.69877e-06
3.67132e-06
4.80892e-06
6.23515e-06
8.09142e-06
1.01488e-05
1.12151e-05
1.21683e-05
1.30046e-05
1.37237e-05
1.43277e-05
1.48205e-05
1.52069e-05
1.5492e-05
1.56805e-05
1.57761e-05
1.57812e-05
1.5696e-05
1.55192e-05
1.52475e-05
1.41653e-05
1.11748e-05
8.34795e-06
6.01356e-06
4.25311e-06
3.0736e-06
2.38746e-06
2.13715e-06
2.53528e-06
5.5385e-06
1.7723e-06
5.90063e-08
1.75284e-09
8.8123e-07
1.83138e-06
2.91923e-06
4.18289e-06
5.70892e-06
7.61446e-06
9.93918e-06
1.14707e-05
1.25394e-05
1.34859e-05
1.43077e-05
1.50052e-05
1.55811e-05
1.604e-05
1.63876e-05
1.66303e-05
1.67738e-05
1.68229e-05
1.67806e-05
1.66479e-05
1.64236e-05
1.61045e-05
1.42097e-05
1.11682e-05
8.30502e-06
5.92204e-06
4.13471e-06
2.95825e-06
2.29339e-06
2.0755e-06
2.53578e-06
5.81006e-06
1.75776e-06
6.46991e-08
2.46084e-09
8.88415e-07
1.90731e-06
3.17668e-06
4.74349e-06
6.69068e-06
9.11408e-06
1.19314e-05
1.31651e-05
1.42466e-05
1.51748e-05
1.59522e-05
1.65845e-05
1.70797e-05
1.74472e-05
1.76967e-05
1.78377e-05
1.78783e-05
1.78251e-05
1.76825e-05
1.74525e-05
1.71349e-05
1.62352e-05
1.34274e-05
1.04753e-05
7.78734e-06
5.56476e-06
3.91902e-06
2.85155e-06
2.25912e-06
2.10053e-06
2.66716e-06
6.28172e-06
1.72765e-06
7.06781e-08
3.2806e-09
9.46665e-07
2.08072e-06
3.57264e-06
5.4827e-06
7.87757e-06
1.07678e-05
1.36321e-05
1.48513e-05
1.58941e-05
1.67661e-05
1.74769e-05
1.80377e-05
1.84603e-05
1.87567e-05
1.89378e-05
1.90137e-05
1.89925e-05
1.88806e-05
1.8682e-05
1.83983e-05
1.80287e-05
1.60182e-05
1.32021e-05
1.03091e-05
7.64316e-06
5.43162e-06
3.80813e-06
2.77219e-06
2.21387e-06
2.09544e-06
2.74338e-06
6.57557e-06
1.71616e-06
7.61994e-08
4.1618e-09
1.02397e-06
2.27478e-06
3.95637e-06
6.13172e-06
8.83901e-06
1.20162e-05
1.51448e-05
1.63438e-05
1.73526e-05
1.8182e-05
1.88442e-05
1.93517e-05
1.97169e-05
1.99518e-05
2.00677e-05
2.00747e-05
1.99815e-05
1.97953e-05
1.95214e-05
1.9163e-05
1.74728e-05
1.50612e-05
1.24131e-05
9.74124e-06
7.27157e-06
5.2146e-06
3.70633e-06
2.73911e-06
2.22231e-06
2.14487e-06
2.88906e-06
6.85565e-06
1.70345e-06
8.18513e-08
5.05443e-09
1.08559e-06
2.41878e-06
4.22565e-06
6.57399e-06
9.48801e-06
1.28583e-05
1.62925e-05
1.7788e-05
1.87943e-05
1.96107e-05
2.02508e-05
2.07283e-05
2.10569e-05
2.12494e-05
2.13179e-05
2.12732e-05
2.11243e-05
2.08786e-05
2.05419e-05
1.9042e-05
1.69841e-05
1.4618e-05
1.20449e-05
9.43951e-06
7.03489e-06
5.04817e-06
3.6115e-06
2.69875e-06
2.22204e-06
2.18567e-06
3.02006e-06
7.03298e-06
1.69894e-06
8.73272e-08
5.93311e-09
1.12468e-06
2.51009e-06
4.40805e-06
6.91087e-06
1.00567e-05
1.36945e-05
1.73516e-05
1.93234e-05
2.03192e-05
2.11084e-05
2.17078e-05
2.21344e-05
2.24045e-05
2.25331e-05
2.25337e-05
2.24183e-05
2.21969e-05
2.16147e-05
2.01231e-05
1.83486e-05
1.63192e-05
1.40329e-05
1.15621e-05
9.07147e-06
6.78097e-06
4.89852e-06
3.54827e-06
2.69002e-06
2.25003e-06
2.25475e-06
3.18949e-06
7.1392e-06
1.69529e-06
9.29107e-08
7.02055e-09
1.17649e-06
2.63304e-06
4.65854e-06
7.37554e-06
1.08176e-05
1.47367e-05
1.85403e-05
2.09481e-05
2.19026e-05
2.2641e-05
2.31839e-05
2.3551e-05
2.376e-05
2.38269e-05
2.37653e-05
2.35869e-05
2.25947e-05
2.12432e-05
1.97047e-05
1.79466e-05
1.59245e-05
1.36443e-05
1.11961e-05
8.7558e-06
6.54168e-06
4.74877e-06
3.48021e-06
2.67844e-06
2.27792e-06
2.32543e-06
3.36113e-06
7.1841e-06
1.69589e-06
9.83071e-08
8.16611e-09
1.2287e-06
2.75234e-06
4.89252e-06
7.79755e-06
1.1491e-05
1.56301e-05
1.95264e-05
2.24056e-05
2.33242e-05
2.40208e-05
2.45183e-05
2.48375e-05
2.49968e-05
2.50119e-05
2.44102e-05
2.32987e-05
2.20554e-05
2.06968e-05
1.91768e-05
1.74329e-05
1.54239e-05
1.31667e-05
1.07643e-05
8.39862e-06
6.28197e-06
4.59517e-06
3.41542e-06
2.67428e-06
2.31704e-06
2.4132e-06
3.56328e-06
7.16176e-06
1.69694e-06
1.03614e-07
9.4862e-09
1.27734e-06
2.86124e-06
5.10803e-06
8.19287e-06
1.21245e-05
1.64554e-05
2.03946e-05
2.33982e-05
2.48083e-05
2.5468e-05
2.5925e-05
2.6201e-05
2.59929e-05
2.51163e-05
2.40629e-05
2.29128e-05
2.16811e-05
2.03404e-05
1.8833e-05
1.70927e-05
1.50783e-05
1.28153e-05
1.04231e-05
8.09744e-06
6.05209e-06
4.45488e-06
3.35362e-06
2.6698e-06
2.35555e-06
2.50115e-06
3.76653e-06
7.10685e-06
1.70094e-06
1.08751e-07
1.0817e-08
1.31673e-06
2.94919e-06
5.28542e-06
8.52759e-06
1.26765e-05
1.71944e-05
2.11923e-05
2.41332e-05
2.59741e-05
2.68357e-05
2.7017e-05
2.66127e-05
2.58355e-05
2.48347e-05
2.37122e-05
2.25229e-05
2.1277e-05
1.99397e-05
1.84447e-05
1.67181e-05
1.47143e-05
1.24619e-05
1.00904e-05
7.80735e-06
5.83044e-06
4.31966e-06
3.29382e-06
2.66792e-06
2.40013e-06
2.60149e-06
3.99537e-06
7.01219e-06
1.70538e-06
1.1381e-07
1.23352e-08
1.35653e-06
3.03768e-06
5.46497e-06
8.8668e-06
1.32263e-05
1.78995e-05
2.19083e-05
2.47416e-05
2.64167e-05
2.71307e-05
2.71046e-05
2.65497e-05
2.5652e-05
2.45601e-05
2.33771e-05
2.21577e-05
2.09068e-05
1.95803e-05
1.81038e-05
1.63967e-05
1.44091e-05
1.21703e-05
9.81784e-06
7.5694e-06
5.64728e-06
4.20638e-06
3.24252e-06
2.66685e-06
2.44253e-06
2.69965e-06
4.2234e-06
6.91209e-06
1.71178e-06
1.18713e-07
1.38631e-08
1.39112e-06
3.11184e-06
5.6122e-06
9.14461e-06
1.36801e-05
1.84845e-05
2.25037e-05
2.52473e-05
2.67793e-05
2.73313e-05
2.71475e-05
2.64529e-05
2.54411e-05
2.42649e-05
2.3028e-05
2.17823e-05
2.05258e-05
1.92073e-05
1.77476e-05
1.60607e-05
1.40927e-05
1.18732e-05
9.54568e-06
7.3359e-06
5.47007e-06
4.09834e-06
3.19472e-06
2.66892e-06
2.48978e-06
2.80755e-06
4.473e-06
6.79429e-06
1.7184e-06
1.23471e-07
1.55421e-08
1.42212e-06
3.17669e-06
5.74419e-06
9.40354e-06
1.41094e-05
1.90253e-05
2.30271e-05
2.56637e-05
2.7055e-05
2.74642e-05
2.71521e-05
2.63519e-05
2.52601e-05
2.40279e-05
2.27562e-05
2.14926e-05
2.02296e-05
1.89125e-05
1.74615e-05
1.57886e-05
1.38369e-05
1.16349e-05
9.32937e-06
7.15116e-06
5.32977e-06
4.01205e-06
3.15616e-06
2.6721e-06
2.53428e-06
2.91203e-06
4.71995e-06
6.68446e-06
1.72633e-06
1.28023e-07
1.72337e-08
1.44638e-06
3.22707e-06
5.85237e-06
9.62966e-06
1.45001e-05
1.95271e-05
2.35189e-05
2.60635e-05
2.73327e-05
2.76194e-05
2.72001e-05
2.63147e-05
2.51599e-05
2.38835e-05
2.2581e-05
2.12945e-05
2.00122e-05
1.86797e-05
1.72188e-05
1.55429e-05
1.35952e-05
1.14049e-05
9.12081e-06
6.97623e-06
5.20101e-06
3.93635e-06
3.1257e-06
2.68106e-06
2.58372e-06
3.02373e-06
4.9817e-06
6.57274e-06
1.73463e-06
1.3239e-07
1.90883e-08
1.46801e-06
3.27381e-06
5.96215e-06
9.8725e-06
1.49233e-05
2.00566e-05
2.40204e-05
2.6463e-05
2.76137e-05
2.77932e-05
2.72898e-05
2.63462e-05
2.51553e-05
2.38575e-05
2.25403e-05
2.12363e-05
1.99301e-05
1.85709e-05
1.70847e-05
1.5388e-05
1.34277e-05
1.12362e-05
8.96385e-06
6.84423e-06
5.10522e-06
3.88154e-06
3.1059e-06
2.69311e-06
2.63156e-06
3.13142e-06
5.23677e-06
6.47856e-06
1.74428e-06
1.36561e-07
2.09809e-08
1.4854e-06
3.31372e-06
6.0657e-06
1.01149e-05
1.53544e-05
2.05974e-05
2.45361e-05
2.68832e-05
2.79241e-05
2.80063e-05
2.74305e-05
2.64422e-05
2.52301e-05
2.39262e-05
2.26066e-05
2.12929e-05
1.99646e-05
1.85724e-05
1.70459e-05
1.53077e-05
1.33114e-05
1.10979e-05
8.82429e-06
6.72492e-06
5.02246e-06
3.83949e-06
3.09729e-06
2.71369e-06
2.68548e-06
3.24478e-06
5.49965e-06
6.39322e-06
1.75465e-06
1.40573e-07
2.30267e-08
1.50175e-06
3.3544e-06
6.17899e-06
1.03847e-05
1.5824e-05
2.11602e-05
2.50465e-05
2.72815e-05
2.82092e-05
2.82006e-05
2.75658e-05
2.65505e-05
2.53379e-05
2.40495e-05
2.27474e-05
2.14419e-05
2.01077e-05
1.86931e-05
1.71291e-05
1.5343e-05
1.32967e-05
1.10414e-05
8.74507e-06
6.64706e-06
4.96687e-06
3.81392e-06
3.09843e-06
2.73924e-06
2.74056e-06
3.35628e-06
5.75617e-06
6.32837e-06
1.76645e-06
1.44447e-07
2.5125e-08
1.517e-06
3.39527e-06
6.29666e-06
1.06629e-05
1.62932e-05
2.16972e-05
2.5512e-05
2.76301e-05
2.84479e-05
2.83564e-05
2.76726e-05
2.66417e-05
2.54407e-05
2.41809e-05
2.29105e-05
2.16285e-05
2.03035e-05
1.88788e-05
1.72835e-05
1.54475e-05
1.33412e-05
1.10298e-05
8.6959e-06
6.58846e-06
4.92521e-06
3.79961e-06
3.1099e-06
2.77425e-06
2.80396e-06
3.47608e-06
6.02287e-06
6.27231e-06
1.77877e-06
1.48194e-07
2.73643e-08
1.53364e-06
3.44068e-06
6.42505e-06
1.09575e-05
1.67665e-05
2.22025e-05
2.59175e-05
2.79088e-05
2.86196e-05
2.84552e-05
2.77355e-05
2.67026e-05
2.55259e-05
2.43067e-05
2.30805e-05
2.18371e-05
2.05386e-05
1.91218e-05
1.75108e-05
1.56341e-05
1.34672e-05
1.10885e-05
8.69874e-06
6.56235e-06
4.90083e-06
3.7935e-06
3.12635e-06
2.81373e-06
2.87194e-06
3.6013e-06
6.29667e-06
6.2285e-06
1.79189e-06
1.51777e-07
2.96384e-08
1.54999e-06
3.48607e-06
6.55323e-06
1.12479e-05
1.72191e-05
2.26653e-05
2.62735e-05
2.81426e-05
2.87551e-05
2.85273e-05
2.77801e-05
2.67513e-05
2.56026e-05
2.44248e-05
2.32441e-05
2.20435e-05
2.07786e-05
1.93794e-05
1.77637e-05
1.5856e-05
1.36336e-05
1.11858e-05
8.73223e-06
6.55581e-06
4.88666e-06
3.79191e-06
3.14642e-06
2.85891e-06
2.94877e-06
3.74047e-06
6.59299e-06
6.18395e-06
1.80456e-06
1.55123e-07
3.20098e-08
1.56724e-06
3.53399e-06
6.68746e-06
1.1549e-05
1.76757e-05
2.3114e-05
2.66069e-05
2.83553e-05
2.88761e-05
2.85931e-05
2.78263e-05
2.68077e-05
2.56907e-05
2.45553e-05
2.34197e-05
2.22628e-05
2.1035e-05
1.96602e-05
1.80498e-05
1.61222e-05
1.3853e-05
1.13376e-05
8.81233e-06
6.5806e-06
4.88724e-06
3.79296e-06
3.16427e-06
2.90294e-06
3.0289e-06
3.89047e-06
6.91032e-06
6.14174e-06
1.81719e-06
1.58163e-07
3.438e-08
1.58424e-06
3.58164e-06
6.82162e-06
1.18492e-05
1.8123e-05
2.35443e-05
2.69241e-05
2.85589e-05
2.89944e-05
2.8661e-05
2.78777e-05
2.68708e-05
2.57853e-05
2.46905e-05
2.35974e-05
2.24816e-05
2.12897e-05
1.99407e-05
1.83407e-05
1.6403e-05
1.41e-05
1.15285e-05
8.93503e-06
6.64123e-06
4.91001e-06
3.80208e-06
3.18158e-06
2.94491e-06
3.11085e-06
4.0502e-06
7.24421e-06
6.09539e-06
1.82895e-06
1.60877e-07
3.67905e-08
1.60179e-06
3.6306e-06
6.95936e-06
1.21564e-05
1.85711e-05
2.39629e-05
2.72252e-05
2.8747e-05
2.90994e-05
2.87185e-05
2.79217e-05
2.69293e-05
2.58776e-05
2.48253e-05
2.37764e-05
2.27033e-05
2.15492e-05
2.02292e-05
1.86451e-05
1.67068e-05
1.43836e-05
1.17711e-05
9.11801e-06
6.75776e-06
4.97206e-06
3.82964e-06
3.2007e-06
2.98043e-06
3.18587e-06
4.20797e-06
7.57969e-06
6.06061e-06
1.84143e-06
1.63391e-07
3.91553e-08
1.61877e-06
3.67819e-06
7.09478e-06
1.24586e-05
1.90033e-05
2.43552e-05
2.74995e-05
2.89103e-05
2.91812e-05
2.87537e-05
2.79439e-05
2.69662e-05
2.59483e-05
2.49387e-05
2.39354e-05
2.29074e-05
2.17946e-05
2.05082e-05
1.89463e-05
1.70167e-05
1.46882e-05
1.20545e-05
9.3604e-06
6.94098e-06
5.09179e-06
3.89401e-06
3.23398e-06
3.0135e-06
3.25043e-06
4.35276e-06
7.89269e-06
6.04374e-06
1.85571e-06
1.65946e-07
4.15384e-08
1.63616e-06
3.72662e-06
7.23289e-06
1.27649e-05
1.9429e-05
2.47264e-05
2.77463e-05
2.90442e-05
2.92332e-05
2.87594e-05
2.79372e-05
2.69749e-05
2.59908e-05
2.50247e-05
2.40695e-05
2.30907e-05
2.20245e-05
2.0778e-05
1.92456e-05
1.73333e-05
1.5011e-05
1.23732e-05
9.65907e-06
7.1956e-06
5.28255e-06
4.01251e-06
3.29604e-06
3.05085e-06
3.30076e-06
4.46742e-06
8.15107e-06
6.05391e-06
1.87272e-06
1.68837e-07
4.38905e-08
1.65278e-06
3.77331e-06
7.36792e-06
1.30631e-05
1.98322e-05
2.50643e-05
2.79594e-05
2.91458e-05
2.92537e-05
2.87334e-05
2.78979e-05
2.69497e-05
2.59975e-05
2.50742e-05
2.41685e-05
2.32422e-05
2.22277e-05
2.10271e-05
1.95301e-05
1.76396e-05
1.53283e-05
1.26966e-05
9.98225e-06
7.50005e-06
5.54062e-06
4.19649e-06
3.40513e-06
3.10922e-06
3.34646e-06
4.55161e-06
8.3492e-06
6.094e-06
1.89279e-06
1.72257e-07
4.6299e-08
1.66945e-06
3.82055e-06
7.50566e-06
1.33646e-05
2.02261e-05
2.53785e-05
2.81431e-05
2.92167e-05
2.92441e-05
2.86783e-05
2.78302e-05
2.68968e-05
2.59769e-05
2.50965e-05
2.42415e-05
2.33704e-05
2.24116e-05
2.12619e-05
1.98042e-05
1.79357e-05
1.56307e-05
1.30006e-05
1.02928e-05
7.81502e-06
5.839e-06
4.43845e-06
3.56969e-06
3.20451e-06
3.40305e-06
4.61668e-06
8.49995e-06
6.15976e-06
1.91505e-06
1.76201e-07
4.87454e-08
1.68527e-06
3.86658e-06
7.64153e-06
1.36581e-05
2.05961e-05
2.56622e-05
2.82995e-05
2.92622e-05
2.92083e-05
2.85949e-05
2.77317e-05
2.68103e-05
2.5921e-05
2.50836e-05
2.42805e-05
2.34667e-05
2.25669e-05
2.14731e-05
2.00582e-05
1.82088e-05
1.58981e-05
1.32533e-05
1.05443e-05
8.08576e-06
6.12951e-06
4.71019e-06
3.78504e-06
3.35032e-06
3.49563e-06
4.698e-06
8.65388e-06
6.23872e-06
1.93795e-06
1.80386e-07
5.13189e-08
1.70116e-06
3.91367e-06
7.78028e-06
1.39551e-05
2.0962e-05
2.59356e-05
2.84429e-05
2.92946e-05
2.91567e-05
2.84943e-05
2.76155e-05
2.67058e-05
2.58458e-05
2.50495e-05
2.4297e-05
2.354e-05
2.26991e-05
2.16587e-05
2.02833e-05
1.84481e-05
1.61201e-05
1.34399e-05
1.07082e-05
8.26633e-06
6.35637e-06
4.96364e-06
4.02447e-06
3.54396e-06
3.64202e-06
4.83501e-06
8.87551e-06
6.30991e-06
1.95913e-06
1.84275e-07
5.39739e-08
1.71677e-06
3.96109e-06
7.91964e-06
1.42464e-05
2.13028e-05
2.61652e-05
2.85433e-05
2.92914e-05
2.90748e-05
2.83644e-05
2.74696e-05
2.65704e-05
2.57383e-05
2.4982e-05
2.42792e-05
2.35791e-05
2.27987e-05
2.18171e-05
2.0487e-05
1.86666e-05
1.63091e-05
1.35659e-05
1.07812e-05
8.33826e-06
6.48265e-06
5.15264e-06
4.24977e-06
3.76798e-06
3.85092e-06
5.07e-06
9.23787e-06
6.35175e-06
1.97677e-06
1.87248e-07
5.6706e-08
1.73272e-06
4.0096e-06
8.0596e-06
1.45313e-05
2.16202e-05
2.63636e-05
2.86111e-05
2.92549e-05
2.89644e-05
2.82046e-05
2.72922e-05
2.6401e-05
2.55939e-05
2.48752e-05
2.42191e-05
2.3573e-05
2.2852e-05
2.19312e-05
2.0654e-05
1.88592e-05
1.64789e-05
1.36647e-05
1.08007e-05
8.32653e-06
6.50841e-06
5.25331e-06
4.42576e-06
3.99365e-06
4.11221e-06
5.4186e-06
9.77018e-06
6.3513e-06
1.98997e-06
1.88896e-07
5.93968e-08
1.7484e-06
4.05717e-06
8.19656e-06
1.48074e-05
2.19104e-05
2.65281e-05
2.86418e-05
2.9177e-05
2.88077e-05
2.79969e-05
2.70664e-05
2.61811e-05
2.53958e-05
2.47107e-05
2.40971e-05
2.3501e-05
2.28378e-05
2.19823e-05
2.07719e-05
1.90279e-05
1.6654e-05
1.37857e-05
1.08334e-05
8.29628e-06
6.47621e-06
5.27769e-06
4.54114e-06
4.19903e-06
4.40708e-06
5.87214e-06
1.04346e-05
6.31767e-06
2.00029e-06
1.89321e-07
6.20051e-08
1.76372e-06
4.10267e-06
8.32777e-06
1.50713e-05
2.21731e-05
2.66568e-05
2.86299e-05
2.90499e-05
2.85977e-05
2.77359e-05
2.67865e-05
2.59055e-05
2.51387e-05
2.44821e-05
2.39047e-05
2.33527e-05
2.27449e-05
2.196e-05
2.08359e-05
1.91813e-05
1.68673e-05
1.39923e-05
1.09656e-05
8.33808e-06
6.45897e-06
5.26649e-06
4.60127e-06
4.36671e-06
4.70593e-06
6.3849e-06
1.11225e-05
6.28142e-06
2.01166e-06
1.89271e-07
6.44386e-08
1.77766e-06
4.14322e-06
8.44655e-06
1.53118e-05
2.24028e-05
2.6747e-05
2.8574e-05
2.88735e-05
2.83358e-05
2.74256e-05
2.64561e-05
2.55759e-05
2.48231e-05
2.4189e-05
2.36404e-05
2.31257e-05
2.25697e-05
2.18599e-05
2.08414e-05
1.93181e-05
1.71307e-05
1.43215e-05
1.12628e-05
8.53306e-06
6.53511e-06
5.27687e-06
4.62919e-06
4.48439e-06
4.96999e-06
6.88693e-06
1.17254e-05
6.27324e-06
2.02788e-06
1.89713e-07
6.67433e-08
1.79093e-06
4.18126e-06
8.56045e-06
1.55428e-05
2.26115e-05
2.68061e-05
2.8479e-05
2.86525e-05
2.80274e-05
2.70693e-05
2.6081e-05
2.52016e-05
2.44606e-05
2.38437e-05
2.33163e-05
2.28307e-05
2.23211e-05
2.16879e-05
2.07889e-05
1.94319e-05
1.74336e-05
1.47729e-05
1.17508e-05
8.93478e-06
6.77295e-06
5.37111e-06
4.6623e-06
4.5523e-06
5.15866e-06
7.29318e-06
1.21846e-05
6.30791e-06
2.05056e-06
1.91291e-07
6.8939e-08
1.80318e-06
4.21635e-06
8.66884e-06
1.57617e-05
2.27955e-05
2.68326e-05
2.83474e-05
2.83945e-05
2.76847e-05
2.66826e-05
2.56774e-05
2.47993e-05
2.40682e-05
2.34629e-05
2.29471e-05
2.24797e-05
2.20074e-05
2.14467e-05
2.0672e-05
1.95006e-05
1.77353e-05
1.52965e-05
1.23948e-05
9.54393e-06
7.20892e-06
5.60412e-06
4.75161e-06
4.59622e-06
5.25861e-06
7.54865e-06
1.24972e-05
6.378e-06
2.07769e-06
1.94114e-07
7.11367e-08
1.8149e-06
4.25086e-06
8.77924e-06
1.59801e-05
2.29662e-05
2.68368e-05
2.81912e-05
2.81144e-05
2.73253e-05
2.62847e-05
2.52662e-05
2.43894e-05
2.36643e-05
2.30614e-05
2.2544e-05
2.20791e-05
2.16292e-05
2.113e-05
2.04747e-05
1.9493e-05
1.79819e-05
1.58169e-05
1.31183e-05
1.03122e-05
7.83861e-06
6.00782e-06
4.94866e-06
4.66676e-06
5.30044e-06
7.65812e-06
1.26959e-05
6.47127e-06
2.10633e-06
1.97859e-07
7.33878e-08
1.82616e-06
4.28602e-06
8.89581e-06
1.61994e-05
2.31236e-05
2.68206e-05
2.80149e-05
2.78187e-05
2.69567e-05
2.58834e-05
2.48556e-05
2.39807e-05
2.32567e-05
2.26456e-05
2.21103e-05
2.1628e-05
2.11803e-05
2.07252e-05
2.01764e-05
1.93767e-05
1.81223e-05
1.6258e-05
1.38283e-05
1.11522e-05
8.60846e-06
6.57557e-06
5.28377e-06
4.81731e-06
5.34664e-06
7.68732e-06
1.28343e-05
6.57251e-06
2.13333e-06
2.01932e-07
7.57645e-08
1.8371e-06
4.32166e-06
9.0168e-06
1.64244e-05
2.32744e-05
2.67917e-05
2.78275e-05
2.75174e-05
2.65888e-05
2.54878e-05
2.44535e-05
2.35799e-05
2.28514e-05
2.22198e-05
2.16475e-05
2.11237e-05
2.06526e-05
2.02186e-05
1.97578e-05
1.9126e-05
1.812e-05
1.65643e-05
1.44452e-05
1.19678e-05
9.4371e-06
7.25895e-06
5.75257e-06
5.08212e-06
5.46429e-06
7.73521e-06
1.29828e-05
6.66931e-06
2.15664e-06
2.05654e-07
7.82475e-08
1.84761e-06
4.35796e-06
9.14259e-06
1.66533e-05
2.3417e-05
2.67511e-05
2.76318e-05
2.72137e-05
2.62249e-05
2.51014e-05
2.40642e-05
2.31923e-05
2.24543e-05
2.179e-05
2.11604e-05
2.0568e-05
2.00436e-05
1.96031e-05
1.92075e-05
1.87262e-05
1.79559e-05
1.67049e-05
1.49133e-05
1.26787e-05
1.02385e-05
7.99413e-06
6.32296e-06
5.46748e-06
5.70123e-06
7.89853e-06
1.32191e-05
6.75554e-06
2.1764e-06
2.08511e-07
8.08487e-08
1.85848e-06
4.39674e-06
9.27623e-06
1.68898e-05
2.35555e-05
2.67036e-05
2.74325e-05
2.6912e-05
2.58685e-05
2.47271e-05
2.36905e-05
2.28214e-05
2.20705e-05
2.13633e-05
2.06572e-05
1.99686e-05
1.93592e-05
1.88814e-05
1.8526e-05
1.81772e-05
1.76302e-05
1.66762e-05
1.52118e-05
1.324e-05
1.09465e-05
8.71421e-06
6.94897e-06
5.95683e-06
6.07793e-06
8.24207e-06
1.36009e-05
6.83305e-06
2.19487e-06
2.10353e-07
8.34997e-08
1.86889e-06
4.43546e-06
9.41174e-06
1.71249e-05
2.36833e-05
2.6646e-05
2.72285e-05
2.66122e-05
2.55206e-05
2.43665e-05
2.33353e-05
2.24721e-05
2.17081e-05
2.09515e-05
2.01533e-05
1.93431e-05
1.86167e-05
1.80692e-05
1.77265e-05
1.7491e-05
1.71573e-05
1.6496e-05
1.53509e-05
1.36459e-05
1.15322e-05
9.37506e-06
7.58913e-06
6.52548e-06
6.59291e-06
8.79161e-06
1.41397e-05
6.90629e-06
2.21442e-06
2.11362e-07
8.61776e-08
1.8792e-06
4.47504e-06
9.55081e-06
1.7361e-05
2.38043e-05
2.65837e-05
2.70253e-05
2.63197e-05
2.51858e-05
2.40241e-05
2.30034e-05
2.21508e-05
2.13768e-05
2.05698e-05
1.96701e-05
1.87176e-05
1.78443e-05
1.71938e-05
1.68335e-05
1.66896e-05
1.65595e-05
1.61901e-05
1.53555e-05
1.39142e-05
1.19968e-05
9.95874e-06
8.21669e-06
7.1522e-06
7.24027e-06
9.5543e-06
1.48087e-05
6.98584e-06
2.23805e-06
2.11905e-07
8.88146e-08
1.88892e-06
4.51361e-06
9.68802e-06
1.75885e-05
2.39108e-05
2.65119e-05
2.68204e-05
2.60334e-05
2.48644e-05
2.37009e-05
2.26968e-05
2.18618e-05
2.10852e-05
2.02336e-05
1.92308e-05
1.81221e-05
1.70751e-05
1.62879e-05
1.58763e-05
1.57971e-05
1.58568e-05
1.57784e-05
1.52505e-05
1.4074e-05
1.23628e-05
1.04711e-05
8.82053e-06
7.81802e-06
8.00237e-06
1.05093e-05
1.5545e-05
7.07911e-06
2.26735e-06
2.12523e-07
9.14051e-08
1.89802e-06
4.55112e-06
9.82326e-06
1.78077e-05
2.40049e-05
2.64347e-05
2.66191e-05
2.57594e-05
2.45623e-05
2.34027e-05
2.24213e-05
2.1612e-05
2.08441e-05
1.99605e-05
1.88625e-05
1.75922e-05
1.63499e-05
1.53918e-05
1.48903e-05
1.48409e-05
1.50671e-05
1.52708e-05
1.50501e-05
1.41476e-05
1.26557e-05
1.09307e-05
9.40538e-06
8.51435e-06
8.85929e-06
1.16114e-05
1.62859e-05
7.19214e-06
2.30294e-06
2.13716e-07
9.39322e-08
1.90646e-06
4.58734e-06
9.95461e-06
1.80132e-05
2.40828e-05
2.63514e-05
2.64232e-05
2.55008e-05
2.42831e-05
2.31331e-05
2.21806e-05
2.14058e-05
2.06606e-05
1.97638e-05
1.85882e-05
1.71612e-05
1.5708e-05
1.45459e-05
1.39119e-05
1.38491e-05
1.42078e-05
1.46737e-05
1.47611e-05
1.41478e-05
1.28927e-05
1.13516e-05
9.97542e-06
9.23278e-06
9.78692e-06
1.28066e-05
1.69916e-05
7.32151e-06
2.34343e-06
2.15634e-07
9.64138e-08
1.91432e-06
4.62231e-06
1.00812e-05
1.82035e-05
2.4145e-05
2.62648e-05
2.62367e-05
2.52617e-05
2.40305e-05
2.28953e-05
2.19771e-05
2.12455e-05
2.05385e-05
1.96524e-05
1.84258e-05
1.68582e-05
1.51867e-05
1.37889e-05
1.29754e-05
1.28467e-05
1.32898e-05
1.39816e-05
1.43701e-05
1.40636e-05
1.30696e-05
1.17335e-05
1.05266e-05
9.96047e-06
1.07622e-05
1.40512e-05
1.76388e-05
7.45227e-06
2.38543e-06
2.18093e-07
9.88386e-08
1.92157e-06
4.65593e-06
1.02013e-05
1.83748e-05
2.41902e-05
2.61754e-05
2.60609e-05
2.5043e-05
2.38046e-05
2.26883e-05
2.1809e-05
2.11285e-05
2.04751e-05
1.96264e-05
1.83844e-05
1.67056e-05
1.48199e-05
1.31594e-05
1.2117e-05
1.18615e-05
1.23273e-05
1.31925e-05
1.38626e-05
1.38753e-05
1.31702e-05
1.20681e-05
1.10591e-05
1.07012e-05
1.17743e-05
1.53145e-05
1.82114e-05
7.56783e-06
2.42514e-06
2.20735e-07
1.01193e-07
1.9284e-06
4.68831e-06
1.03136e-05
1.85256e-05
2.42204e-05
2.60867e-05
2.58984e-05
2.48459e-05
2.36048e-05
2.25105e-05
2.1673e-05
2.10495e-05
2.04635e-05
1.96796e-05
1.84643e-05
1.67184e-05
1.46386e-05
1.26967e-05
1.13753e-05
1.09243e-05
1.13359e-05
1.23056e-05
1.32231e-05
1.35599e-05
1.31717e-05
1.23379e-05
1.15616e-05
1.14478e-05
1.28161e-05
1.65779e-05
1.86955e-05
7.65541e-06
2.45969e-06
2.23155e-07
1.03428e-07
1.93477e-06
4.71909e-06
1.04148e-05
1.86523e-05
2.42343e-05
2.59972e-05
2.57463e-05
2.46656e-05
2.34254e-05
2.23549e-05
2.15612e-05
2.09987e-05
2.0491e-05
1.97976e-05
1.8656e-05
1.69026e-05
1.4671e-05
1.24452e-05
1.07988e-05
1.00789e-05
1.03468e-05
1.13346e-05
1.2445e-05
1.30974e-05
1.3052e-05
1.25251e-05
1.20208e-05
1.21887e-05
1.38762e-05
1.7818e-05
1.90704e-05
7.70549e-06
2.4868e-06
2.24996e-07
1.05474e-07
1.94063e-06
4.74725e-06
1.05013e-05
1.87528e-05
2.42343e-05
2.59093e-05
2.5605e-05
2.45007e-05
2.32628e-05
2.22168e-05
2.14671e-05
2.09667e-05
2.05437e-05
1.99606e-05
1.89397e-05
1.72528e-05
1.49384e-05
1.24486e-05
1.04415e-05
9.37898e-06
9.40513e-06
1.03093e-05
1.1535e-05
1.24742e-05
1.27873e-05
1.26053e-05
1.24167e-05
1.29087e-05
1.49385e-05
1.90056e-05
1.93263e-05
7.72065e-06
2.50676e-06
2.26119e-07
1.07197e-07
1.94533e-06
4.77e-06
1.05696e-05
1.88258e-05
2.42208e-05
2.58211e-05
2.54701e-05
2.43441e-05
2.31087e-05
2.20866e-05
2.13801e-05
2.09409e-05
2.06045e-05
2.01453e-05
1.92802e-05
1.77321e-05
1.54319e-05
1.27446e-05
1.03682e-05
8.89359e-06
8.57577e-06
9.2817e-06
1.05211e-05
1.16922e-05
1.23633e-05
1.2557e-05
1.27246e-05
1.35782e-05
1.59636e-05
2.00908e-05
1.94618e-05
7.70908e-06
2.52092e-06
2.26579e-07
1.08537e-07
1.94877e-06
4.78658e-06
1.06185e-05
1.88734e-05
2.41968e-05
2.57337e-05
2.53394e-05
2.41918e-05
2.29574e-05
2.19569e-05
2.1291e-05
2.09095e-05
2.06562e-05
2.03215e-05
1.96361e-05
1.82958e-05
1.61221e-05
1.33393e-05
1.06261e-05
8.69863e-06
7.94066e-06
8.32614e-06
9.45181e-06
1.07661e-05
1.17724e-05
1.23655e-05
1.29258e-05
1.41596e-05
1.68955e-05
2.10192e-05
1.94968e-05
7.68443e-06
2.53187e-06
2.26708e-07
1.09485e-07
1.95072e-06
4.79618e-06
1.06468e-05
1.88973e-05
2.41647e-05
2.56461e-05
2.52096e-05
2.40389e-05
2.28034e-05
2.18221e-05
2.11932e-05
2.08653e-05
2.06892e-05
2.04739e-05
1.99742e-05
1.88857e-05
1.69473e-05
1.42118e-05
1.1249e-05
8.85961e-06
7.58858e-06
7.54055e-06
8.40908e-06
9.73388e-06
1.10071e-05
1.1997e-05
1.29718e-05
1.45972e-05
1.76637e-05
2.17433e-05
1.94744e-05
7.66624e-06
2.54359e-06
2.27014e-07
1.10084e-07
1.95133e-06
4.79952e-06
1.06581e-05
1.89039e-05
2.41286e-05
2.55593e-05
2.50799e-05
2.38838e-05
2.26448e-05
2.16798e-05
2.10841e-05
2.08039e-05
2.06981e-05
2.05918e-05
2.02676e-05
1.94433e-05
1.78179e-05
1.52839e-05
1.2222e-05
9.42567e-06
7.60341e-06
7.02899e-06
7.50293e-06
8.67675e-06
1.00916e-05
1.14263e-05
1.28098e-05
1.48256e-05
1.82028e-05
2.22457e-05
1.94352e-05
7.66575e-06
2.55841e-06
2.27888e-07
1.10401e-07
1.95081e-06
4.79743e-06
1.06551e-05
1.88965e-05
2.40885e-05
2.54714e-05
2.49474e-05
2.37232e-05
2.24779e-05
2.15265e-05
2.09605e-05
2.07234e-05
2.06788e-05
2.06676e-05
2.04985e-05
1.99224e-05
1.86397e-05
1.64327e-05
1.34608e-05
1.03914e-05
8.04143e-06
6.88339e-06
6.84803e-06
7.70267e-06
9.08996e-06
1.06599e-05
1.24042e-05
1.47862e-05
1.84588e-05
2.25277e-05
1.94039e-05
7.68324e-06
2.57637e-06
2.29535e-07
1.10565e-07
1.94965e-06
4.79188e-06
1.06447e-05
1.88847e-05
2.40481e-05
2.53821e-05
2.48105e-05
2.3555e-05
2.23007e-05
2.13602e-05
2.08208e-05
2.06229e-05
2.06327e-05
2.06995e-05
2.06562e-05
2.02939e-05
1.93375e-05
1.75217e-05
1.48168e-05
1.16743e-05
8.90334e-06
7.16223e-06
6.54833e-06
6.94167e-06
8.10359e-06
9.74325e-06
1.17573e-05
1.44619e-05
1.84187e-05
2.26108e-05
1.93996e-05
7.71865e-06
2.59733e-06
2.3205e-07
1.10693e-07
1.94826e-06
4.78506e-06
1.06318e-05
1.88715e-05
2.40071e-05
2.52898e-05
2.4667e-05
2.3377e-05
2.21108e-05
2.11787e-05
2.06627e-05
2.05e-05
2.05579e-05
2.06907e-05
2.07453e-05
2.05453e-05
1.98671e-05
1.8444e-05
1.61222e-05
1.31198e-05
1.01126e-05
7.8654e-06
6.66257e-06
6.51054e-06
7.27895e-06
8.77501e-06
1.08982e-05
1.38549e-05
1.80974e-05
2.25326e-05
1.94349e-05
7.77147e-06
2.62066e-06
2.35416e-07
1.10897e-07
1.94713e-06
4.77942e-06
1.06239e-05
1.88657e-05
2.39681e-05
2.51935e-05
2.45151e-05
2.31874e-05
2.19068e-05
2.09807e-05
2.04854e-05
2.03537e-05
2.04527e-05
2.06388e-05
2.07683e-05
2.06894e-05
2.02203e-05
1.91356e-05
1.7236e-05
1.4542e-05
1.15211e-05
8.92278e-06
7.18647e-06
6.46984e-06
6.74732e-06
7.91912e-06
9.9413e-06
1.29969e-05
1.74891e-05
2.22993e-05
1.94965e-05
7.82699e-06
2.64319e-06
2.39184e-07
1.11242e-07
1.9465e-06
4.77581e-06
1.06227e-05
1.88674e-05
2.3929e-05
2.50905e-05
2.43518e-05
2.29832e-05
2.16862e-05
2.07641e-05
2.0287e-05
2.01827e-05
2.03162e-05
2.0543e-05
2.07247e-05
2.07283e-05
2.04104e-05
1.95908e-05
1.80755e-05
1.57797e-05
1.29483e-05
1.02021e-05
8.04956e-06
6.80614e-06
6.56563e-06
7.30903e-06
9.05667e-06
1.203e-05
1.66669e-05
2.19306e-05
1.95654e-05
7.8713e-06
2.66175e-06
2.42823e-07
1.11763e-07
1.94688e-06
4.77622e-06
1.06336e-05
1.88824e-05
2.38908e-05
2.49788e-05
2.41741e-05
2.27618e-05
2.14469e-05
2.05272e-05
2.00659e-05
1.9985e-05
2.01459e-05
2.0401e-05
2.0613e-05
2.06626e-05
2.04405e-05
1.9817e-05
1.86307e-05
1.67454e-05
1.42413e-05
1.15529e-05
9.14348e-06
7.45594e-06
6.72076e-06
7.0019e-06
8.37288e-06
1.11105e-05
1.57514e-05
2.14709e-05
1.96327e-05
7.89898e-06
2.67492e-06