/*--------------------------------*- C++ -*----------------------------------*\
| =========                 |                                                 |
| \\      /  F ield         | OpenFOAM: The Open Source CFD Toolbox           |
|  \\    /   O peration     | Version:  v2006                                 |
|   \\  /    A nd           | Website:  www.openfoam.com                      |
|    \\/     M anipulation  |                                                 |
\*---------------------------------------------------------------------------*/
FoamFile
{
    version     2.0;
    format      ascii;
    class       surfaceScalarField;
    location    "39";
    object      phi;
}
// * * * * * * * * * * * * * * * * * * * * * * * * * * * * * * * * * * * * * //

dimensions      [1 0 -1 0 0 0 0];
oriented        oriented;


internalField   nonuniform List<scalar> 
228225
(
-4.4415e-06
-9.35951e-08
1.2618e-07
-4.09881e-06
-5.2764e-07
1.85463e-07
-3.58374e-06
-7.12198e-07
1.9742e-07
-2.99547e-06
-7.73306e-07
1.85471e-07
-2.39331e-06
-7.64535e-07
1.62797e-07
-1.80733e-06
-7.23942e-07
1.38366e-07
-1.24586e-06
-6.77974e-07
1.16907e-07
-7.06233e-07
-6.39675e-07
1.00443e-07
-1.84793e-07
-6.10375e-07
8.93122e-08
3.21915e-07
-5.89181e-07
8.28359e-08
8.16373e-07
-5.7396e-07
7.98537e-08
1.29969e-06
-5.62113e-07
7.91405e-08
1.77163e-06
-5.51241e-07
7.96533e-08
2.23069e-06
-5.39354e-07
8.06331e-08
2.67431e-06
-5.24892e-07
8.16126e-08
3.09899e-06
-5.06698e-07
8.23624e-08
3.50048e-06
-4.83968e-07
8.28292e-08
3.87396e-06
-4.56216e-07
8.30848e-08
4.21427e-06
-4.23233e-07
8.32873e-08
4.51606e-06
-3.85069e-07
8.36542e-08
4.77402e-06
-3.42023e-07
8.44427e-08
4.98312e-06
-2.9464e-07
8.59346e-08
5.13883e-06
-2.43729e-07
8.8422e-08
5.23741e-06
-1.90351e-07
9.21954e-08
5.27607e-06
-1.35764e-07
9.75428e-08
5.25291e-06
-8.1175e-08
1.0479e-07
5.16594e-06
-2.68221e-08
1.14267e-07
5.01298e-06
2.70983e-08
1.26355e-07
4.78748e-06
8.45057e-08
1.41513e-07
4.4657e-06
1.6224e-07
1.60091e-07
3.99393e-06
2.91359e-07
1.81001e-07
3.2737e-06
5.22845e-07
1.97993e-07
2.21677e-06
8.63168e-07
1.94299e-07
9.30369e-07
1.13882e-06
1.47942e-07
8.7187e-07
5.86126e-08
-5.11642e-07
3.71577e-07
4.64281e-08
-1.39806e-06
3.80305e-07
-2.16762e-08
-2.28932e-06
2.98088e-07
-1.18828e-07
-3.02734e-06
1.8531e-07
-2.20548e-07
-3.54985e-06
5.01558e-08
-2.92095e-07
-3.87006e-06
-7.371e-08
-3.29932e-07
-4.01687e-06
-1.85042e-07
-3.46092e-07
-4.01645e-06
-2.90164e-07
-3.49936e-07
-3.89214e-06
-3.88345e-07
-3.4636e-07
-3.66267e-06
-4.80367e-07
-3.38333e-07
-3.34383e-06
-5.64939e-07
-3.27929e-07
-2.94961e-06
-6.39737e-07
-3.1667e-07
-2.49288e-06
-7.02433e-07
-3.05623e-07
-1.98576e-06
-7.51136e-07
-2.95439e-07
-1.4398e-06
-7.84531e-07
-2.86413e-07
-8.66185e-07
-8.01843e-07
-2.78563e-07
-2.75784e-07
-8.0275e-07
-2.71707e-07
3.20736e-07
-7.87275e-07
-2.6554e-07
9.12815e-07
-7.55694e-07
-2.59687e-07
1.48989e-06
-7.08461e-07
-2.53736e-07
2.04123e-06
-6.46155e-07
-2.47255e-07
2.55583e-06
-5.69455e-07
-2.3981e-07
3.02219e-06
-4.79109e-07
-2.30981e-07
3.42813e-06
-3.75903e-07
-2.20355e-07
3.76049e-06
-2.60562e-07
-2.0751e-07
4.00496e-06
-1.33571e-07
-1.91976e-07
4.1496e-06
1.88367e-09
-1.73207e-07
4.16357e-06
1.63832e-07
-1.50497e-07
4.02346e-06
3.47623e-07
-1.22745e-07
3.69446e-06
5.7988e-07
-8.82798e-08
3.13788e-06
8.93611e-07
-4.52204e-08
2.34196e-06
1.31486e-06
4.40981e-09
1.38148e-06
1.77437e-06
4.9765e-08
4.75975e-07
1.98119e-06
6.3477e-08
1.31152e-06
3.64504e-08
-1.54942e-07
4.44122e-07
8.21268e-08
-7.23128e-07
8.03514e-07
1.45157e-07
-1.50742e-06
9.11677e-07
1.70745e-07
-2.35006e-06
8.48047e-07
1.79891e-07
-3.14583e-06
6.65309e-07
1.80639e-07
-3.80362e-06
4.10461e-07
1.7361e-07
-4.28264e-06
1.32374e-07
1.61524e-07
-4.57275e-06
-1.48688e-07
1.48521e-07
-4.68133e-06
-4.16558e-07
1.36639e-07
-4.62941e-06
-6.58544e-07
1.26109e-07
-4.4397e-06
-8.71521e-07
1.16702e-07
-4.13494e-06
-1.05283e-06
1.08157e-07
-3.73661e-06
-1.20125e-06
1.00297e-07
-3.26429e-06
-1.3167e-06
9.30466e-08
-2.73549e-06
-1.39993e-06
8.63978e-08
-2.16573e-06
-1.45219e-06
8.03918e-08
-1.56878e-06
-1.475e-06
7.51062e-08
-9.57003e-07
-1.4699e-06
7.06472e-08
-3.41714e-07
-1.43832e-06
6.71444e-08
2.66359e-07
-1.38149e-06
6.47591e-08
8.56619e-07
-1.30029e-06
6.36829e-08
1.4181e-06
-1.19527e-06
6.41355e-08
1.93897e-06
-1.06652e-06
6.63585e-08
2.40595e-06
-9.13655e-07
7.06013e-08
2.80378e-06
-7.35642e-07
7.70915e-08
3.11452e-06
-5.30417e-07
8.5973e-08
3.31127e-06
-2.92162e-07
9.71962e-08
3.3773e-06
-1.25771e-08
1.10339e-07
3.27652e-06
3.23756e-07
1.24679e-07
2.9805e-06
7.37703e-07
1.38336e-07
2.47296e-06
1.25389e-06
1.47522e-07
1.77943e-06
1.86048e-06
1.48245e-07
1.00876e-06
2.40806e-06
1.37289e-07
3.33955e-07
2.54681e-06
1.09331e-07
1.59132e-06
5.4064e-08
7.78092e-08
2.91384e-07
7.49582e-08
1.30816e-07
5.90827e-07
1.59457e-07
1.04312e-07
7.27752e-07
2.10529e-07
-7.18015e-09
7.2268e-07
2.37057e-07
-1.9132e-07
6.04474e-07
2.4513e-07
-4.23434e-07
4.03171e-07
2.39535e-07
-6.62156e-07
1.45939e-07
2.25273e-07
-8.66652e-07
-1.5117e-07
2.07066e-07
-1.00655e-06
-4.64771e-07
1.88144e-07
-1.06514e-06
-7.70111e-07
1.70149e-07
-1.04015e-06
-1.05019e-06
1.53631e-07
-9.37664e-07
-1.294e-06
1.3862e-07
-7.66727e-07
-1.49724e-06
1.24986e-07
-5.37564e-07
-1.65853e-06
1.12587e-07
-2.60552e-07
-1.77835e-06
1.01328e-07
5.44171e-08
-1.85842e-06
9.11798e-08
3.982e-07
-1.90103e-06
8.21719e-08
7.62463e-07
-1.90862e-06
7.43824e-08
1.13949e-06
-1.88335e-06
6.79339e-08
1.52191e-06
-1.82698e-06
6.29882e-08
1.90239e-06
-1.74059e-06
5.97476e-08
2.27315e-06
-1.62456e-06
5.84612e-08
2.62549e-06
-1.47836e-06
5.94315e-08
2.94922e-06
-1.30049e-06
6.30217e-08
3.23187e-06
-1.08803e-06
6.96551e-08
3.45347e-06
-8.31964e-07
7.98616e-08
3.58368e-06
-5.16887e-07
9.44281e-08
3.58651e-06
-1.29443e-07
1.13967e-07
3.42194e-06
3.50242e-07
1.3805e-07
3.05818e-06
9.36823e-07
1.64658e-07
2.48911e-06
1.63472e-06
1.88334e-07
1.76082e-06
2.39006e-06
1.98863e-07
9.91702e-07
2.99111e-06
1.86186e-07
3.28856e-07
3.06457e-06
1.45072e-07
1.85217e-06
6.77821e-08
6.72164e-08
1.52957e-07
7.10478e-08
1.82838e-07
3.13976e-07
1.61047e-07
2.97293e-07
3.91212e-07
2.22118e-07
3.86269e-07
3.73299e-07
2.60418e-07
4.43043e-07
2.6684e-07
2.80811e-07
4.70542e-07
8.77148e-08
2.87886e-07
4.80607e-07
-1.50223e-07
2.86017e-07
4.82386e-07
-4.31787e-07
2.78736e-07
4.8876e-07
-7.39428e-07
2.68146e-07
5.15289e-07
-1.05215e-06
2.55334e-07
5.70493e-07
-1.34656e-06
2.40969e-07
6.55299e-07
-1.60464e-06
2.25635e-07
7.67911e-07
-1.81983e-06
2.09783e-07
9.06151e-07
-1.99075e-06
1.93806e-07
1.06704e-06
-2.11754e-06
1.78131e-07
1.24723e-06
-2.20194e-06
1.63174e-07
1.4432e-06
-2.24648e-06
1.49317e-07
1.65143e-06
-2.25388e-06
1.36894e-07
1.86832e-06
-2.22658e-06
1.26187e-07
2.09021e-06
-2.16644e-06
1.17439e-07
2.31319e-06
-2.07455e-06
1.10862e-07
2.53295e-06
-1.95108e-06
1.06662e-07
2.74449e-06
-1.79506e-06
1.05057e-07
2.94185e-06
-1.60425e-06
1.06307e-07
3.11721e-06
-1.37431e-06
1.10823e-07
3.25476e-06
-1.08888e-06
1.19287e-07
3.32834e-06
-7.22608e-07
1.32067e-07
3.30423e-06
-2.54429e-07
1.49041e-07
3.14582e-06
3.38728e-07
1.69898e-07
2.81378e-06
1.07573e-06
1.93126e-07
2.28765e-06
1.94695e-06
2.13927e-07
1.60411e-06
2.85178e-06
2.2182e-07
8.83689e-07
3.50682e-06
2.04611e-07
2.78927e-07
3.51281e-06
1.56246e-07
2.06074e-06
6.98515e-08
4.68966e-08
3.98741e-08
6.60409e-08
1.55272e-07
5.17013e-08
1.53826e-07
3.00995e-07
2.95714e-08
2.15755e-07
4.67565e-07
-5.0823e-08
2.57458e-07
6.47168e-07
-1.95868e-07
2.83071e-07
8.35051e-07
-3.96239e-07
2.96039e-07
1.0291e-06
-6.43541e-07
2.99206e-07
1.2274e-06
-9.24947e-07
2.94779e-07
1.42579e-06
-1.22235e-06
2.8443e-07
1.61864e-06
-1.51461e-06
2.69513e-07
1.80097e-06
-1.7803e-06
2.51299e-07
1.97089e-06
-2.00579e-06
2.31119e-07
2.12893e-06
-2.18806e-06
2.10069e-07
2.27656e-06
-2.32745e-06
1.88951e-07
2.41554e-06
-2.4251e-06
1.68457e-07
2.54756e-06
-2.48326e-06
1.4918e-07
2.67392e-06
-2.50456e-06
1.316e-07
2.79534e-06
-2.49152e-06
1.16092e-07
2.9119e-06
-2.44622e-06
1.02957e-07
3.02301e-06
-2.37011e-06
9.24411e-08
3.12739e-06
-2.26382e-06
8.47627e-08
3.22309e-06
-2.12705e-06
8.01405e-08
3.30748e-06
-1.95839e-06
7.8811e-08
3.3771e-06
-1.75508e-06
8.10816e-08
3.42449e-06
-1.50922e-06
8.73921e-08
3.43694e-06
-1.19981e-06
9.83561e-08
3.39726e-06
-7.97403e-07
1.14347e-07
3.28155e-06
-2.74167e-07
1.35338e-07
3.05709e-06
4.02211e-07
1.60879e-07
2.68969e-06
1.25381e-06
1.89241e-07
2.16424e-06
2.25682e-06
2.15519e-07
1.5122e-06
3.27497e-06
2.28773e-07
8.36705e-07
3.96832e-06
2.13799e-07
2.6769e-07
3.91892e-06
1.62522e-07
2.25733e-06
7.04925e-08
2.80174e-08
-5.19968e-08
6.37465e-08
1.18816e-07
-1.89842e-07
1.50551e-07
2.70648e-07
-3.34776e-07
2.12334e-07
4.75564e-07
-5.10582e-07
2.54758e-07
7.22091e-07
-7.24215e-07
2.81784e-07
1.00199e-06
-9.72668e-07
2.9649e-07
1.30361e-06
-1.24635e-06
3.01129e-07
1.61103e-06
-1.52997e-06
2.97531e-07
1.90662e-06
-1.80546e-06
2.87448e-07
2.17424e-06
-2.05492e-06
2.72626e-07
2.40542e-06
-2.26634e-06
2.54799e-07
2.60151e-06
-2.43729e-06
2.35348e-07
2.76701e-06
-2.56882e-06
2.15196e-07
2.90658e-06
-2.66214e-06
1.95059e-07
3.02512e-06
-2.71921e-06
1.75509e-07
3.12703e-06
-2.74223e-06
1.56998e-07
3.2158e-06
-2.73328e-06
1.39888e-07
3.29388e-06
-2.69411e-06
1.2447e-07
3.36261e-06
-2.62598e-06
1.10978e-07
3.42237e-06
-2.52953e-06
9.96149e-08
3.47262e-06
-2.4047e-06
9.05832e-08
3.51198e-06
-2.25059e-06
8.41134e-08
3.53833e-06
-2.06531e-06
8.05078e-08
3.54874e-06
-1.84572e-06
8.01569e-08
3.53586e-06
-1.58012e-06
8.36946e-08
3.48766e-06
-1.24352e-06
9.1832e-08
3.3901e-06
-8.05125e-07
1.05176e-07
3.22204e-06
-2.30319e-07
1.24099e-07
2.95645e-06
5.19244e-07
1.4842e-07
2.56503e-06
1.4687e-06
1.76369e-07
2.03451e-06
2.58428e-06
2.0287e-07
1.3975e-06
3.69443e-06
2.17278e-07
7.55886e-07
4.40561e-06
2.03933e-07
2.32483e-07
4.28777e-06
1.53948e-07
2.42398e-06
6.49909e-08
2.43865e-08
-1.33965e-07
5.73416e-08
1.09335e-07
-4.11508e-07
1.36627e-07
2.58197e-07
-6.75893e-07
1.92193e-07
4.66552e-07
-9.4803e-07
2.29004e-07
7.24688e-07
-1.23331e-06
2.50877e-07
1.01805e-06
-1.52699e-06
2.60902e-07
1.32758e-06
-1.81754e-06
2.61634e-07
1.63268e-06
-2.0904e-06
2.55314e-07
1.91483e-06
-2.3316e-06
2.43971e-07
2.1641e-06
-2.53364e-06
2.29426e-07
2.38103e-06
-2.69634e-06
2.13038e-07
2.56945e-06
-2.82147e-06
1.95733e-07
2.73304e-06
-2.91064e-06
1.78203e-07
2.87563e-06
-2.96573e-06
1.60971e-07
3.00065e-06
-2.98871e-06
1.44441e-07
3.11087e-06
-2.98142e-06
1.2894e-07
3.20824e-06
-2.94542e-06
1.14735e-07
3.29394e-06
-2.88189e-06
1.02053e-07
3.36839e-06
-2.79156e-06
9.1082e-08
3.43139e-06
-2.67456e-06
8.19877e-08
3.48207e-06
-2.53038e-06
7.49321e-08
3.51903e-06
-2.3577e-06
7.00952e-08
3.54023e-06
-2.1543e-06
6.77206e-08
3.5414e-06
-1.91506e-06
6.80992e-08
3.51316e-06
-1.62374e-06
7.17848e-08
3.44308e-06
-1.253e-06
7.94579e-08
3.31839e-06
-7.72378e-07
9.1833e-08
3.1229e-06
-1.446e-07
1.09641e-07
2.83485e-06
6.73854e-07
1.33296e-07
2.43483e-06
1.70689e-06
1.6165e-07
1.91733e-06
2.91182e-06
1.8974e-07
1.31363e-06
4.09112e-06
2.06698e-07
7.12706e-07
4.81021e-06
1.95833e-07
2.21108e-07
4.63135e-06
1.47324e-07
2.58333e-06
6.08426e-08
3.57702e-08
-2.18111e-07
4.81531e-08
1.39821e-07
-6.30038e-07
1.14383e-07
3.06793e-07
-1.00233e-06
1.59347e-07
5.27279e-07
-1.35605e-06
1.87389e-07
7.86944e-07
-1.69538e-06
2.02272e-07
1.06787e-06
-2.01532e-06
2.07315e-07
1.35156e-06
-2.30657e-06
2.05275e-07
1.62153e-06
-2.55879e-06
1.98372e-07
1.86811e-06
-2.76662e-06
1.88378e-07
2.09062e-06
-2.93279e-06
1.7659e-07
2.29119e-06
-3.06082e-06
1.63861e-07
2.47154e-06
-3.15265e-06
1.50779e-07
2.63347e-06
-3.21034e-06
1.37749e-07
2.77861e-06
-3.23594e-06
1.25052e-07
2.90837e-06
-3.23138e-06
1.12901e-07
3.02382e-06
-3.19836e-06
1.0148e-07
3.12572e-06
-3.13829e-06
9.09592e-08
3.21451e-06
-3.05221e-06
8.15085e-08
3.29033e-06
-2.94069e-06
7.32968e-08
3.35298e-06
-2.80374e-06
6.64986e-08
3.40197e-06
-2.64069e-06
6.13004e-08
3.4364e-06
-2.45008e-06
5.79126e-08
3.45496e-06
-2.22948e-06
5.65921e-08
3.45265e-06
-1.97052e-06
5.77201e-08
3.41962e-06
-1.6526e-06
6.1831e-08
3.34449e-06
-1.2474e-06
6.9459e-08
3.21354e-06
-7.2262e-07
8.10944e-08
3.00701e-06
-3.54759e-08
9.72849e-08
2.70788e-06
8.54383e-07
1.18445e-07
2.29927e-06
1.97133e-06
1.43949e-07
1.78349e-06
3.25733e-06
1.69979e-07
1.19954e-06
4.48764e-06
1.87017e-07
6.36198e-07
5.19439e-06
1.78574e-07
1.89999e-07
4.94279e-06
1.3394e-07
2.71804e-06
5.42352e-08
4.34178e-08
-2.99802e-07
3.81145e-08
1.62471e-07
-8.38578e-07
8.92794e-08
3.43364e-07
-1.30625e-06
1.22874e-07
5.70067e-07
-1.72577e-06
1.42924e-07
8.24938e-07
-2.10328e-06
1.5296e-07
1.09076e-06
-2.43715e-06
1.55941e-07
1.35272e-06
-2.72267e-06
1.54104e-07
1.60014e-06
-2.95532e-06
1.49072e-07
1.83039e-06
-3.13895e-06
1.42067e-07
2.04403e-06
-3.28026e-06
1.3383e-07
2.24098e-06
-3.38259e-06
1.24845e-07
2.4215e-06
-3.44856e-06
1.1541e-07
2.58603e-06
-3.48058e-06
1.05747e-07
2.73499e-06
-3.48093e-06
9.60606e-08
2.86873e-06
-3.45166e-06
8.65702e-08
2.98748e-06
-3.39459e-06
7.75074e-08
3.09134e-06
-3.31122e-06
6.91013e-08
3.18025e-06
-3.20267e-06
6.15657e-08
3.25406e-06
-3.06959e-06
5.50966e-08
3.31251e-06
-2.91206e-06
4.98787e-08
3.35519e-06
-2.72948e-06
4.60986e-08
3.38158e-06
-2.52046e-06
4.39683e-08
3.38991e-06
-2.28155e-06
4.3723e-08
3.37385e-06
-2.00029e-06
4.57879e-08
3.32464e-06
-1.65411e-06
5.06619e-08
3.23437e-06
-1.21611e-06
5.89091e-08
3.09178e-06
-6.5122e-07
7.1091e-08
2.88366e-06
8.47865e-08
8.77339e-08
2.58766e-06
1.0412e-06
1.09014e-07
2.19211e-06
2.23271e-06
1.33946e-07
1.69949e-06
3.59093e-06
1.58695e-07
1.14647e-06
4.86548e-06
1.74721e-07
6.12955e-07
5.56028e-06
1.66968e-07
1.86201e-07
5.24374e-06
1.24921e-07
2.85299e-06
5.01477e-08
4.68922e-08
-3.77486e-07
3.06006e-08
1.71904e-07
-1.03436e-06
7.05862e-08
3.56511e-07
-1.58745e-06
9.65023e-08
5.8183e-07
-2.06323e-06
1.12099e-07
8.29596e-07
-2.47141e-06
1.20346e-07
1.08388e-06
-2.81493e-06
1.23485e-07
1.33252e-06
-3.09436e-06
1.23056e-07
1.56858e-06
-3.31147e-06
1.201e-07
1.79044e-06
-3.47619e-06
1.15423e-07
1.99784e-06
-3.59707e-06
1.09458e-07
2.19063e-06
-3.67778e-06
1.02464e-07
2.36892e-06
-3.72146e-06
9.46705e-08
2.53299e-06
-3.73091e-06
8.63302e-08
2.68306e-06
-3.70867e-06
7.77325e-08
2.81922e-06
-3.65695e-06
6.91892e-08
2.94136e-06
-3.57769e-06
6.10036e-08
3.04922e-06
-3.47247e-06
5.34456e-08
3.14233e-06
-3.34248e-06
4.67419e-08
3.22014e-06
-3.18843e-06
4.10817e-08
3.28195e-06
-3.01047e-06
3.66289e-08
3.32702e-06
-2.80806e-06
3.35386e-08
3.35444e-06
-2.57984e-06
3.19864e-08
3.3603e-06
-2.31965e-06
3.22283e-08
3.33718e-06
-2.01182e-06
3.46419e-08
3.2779e-06
-1.63452e-06
3.96531e-08
3.17485e-06
-1.16079e-06
4.76813e-08
3.01702e-06
-5.52682e-07
5.92157e-08
2.78883e-06
2.38069e-07
7.47977e-08
2.47802e-06
1.25706e-06
9.47777e-08
2.07464e-06
2.51739e-06
1.18462e-07
1.58739e-06
3.93545e-06
1.42366e-07
1.05627e-06
5.23759e-06
1.58494e-07
5.55765e-07
5.9076e-06
1.52479e-07
1.64339e-07
5.52022e-06
1.14005e-07
2.97088e-06
4.52864e-08
4.11018e-08
-4.44326e-07
2.55779e-08
1.51867e-07
-1.2035e-06
5.82679e-08
3.14269e-07
-1.82935e-06
7.93978e-08
5.10389e-07
-2.35174e-06
9.23271e-08
7.24223e-07
-2.7847e-06
9.94331e-08
9.43062e-07
-3.13617e-06
1.0241e-07
1.15844e-06
-3.41211e-06
1.02403e-07
1.36655e-06
-3.61976e-06
1.00217e-07
1.56637e-06
-3.77246e-06
9.64833e-08
1.75751e-06
-3.8797e-06
9.15356e-08
1.93973e-06
-3.94554e-06
8.5574e-08
2.11283e-06
-3.97333e-06
7.88104e-08
2.27651e-06
-3.96604e-06
7.14836e-08
2.43031e-06
-3.92628e-06
6.38605e-08
2.57357e-06
-3.85639e-06
5.62188e-08
2.70549e-06
-3.7584e-06
4.88265e-08
2.82517e-06
-3.63404e-06
4.19304e-08
2.93159e-06
-3.48462e-06
3.57532e-08
3.02371e-06
-3.31103e-06
3.04981e-08
3.10049e-06
-3.11358e-06
2.63566e-08
3.16087e-06
-2.89194e-06
2.35221e-08
3.20172e-06
-2.64289e-06
2.21893e-08
3.21623e-06
-2.35682e-06
2.2666e-08
3.19777e-06
-2.01872e-06
2.53497e-08
3.14142e-06
-1.60889e-06
3.06952e-08
3.04045e-06
-1.09903e-06
3.91566e-08
2.88535e-06
-4.48824e-07
5.11673e-08
2.66401e-06
3.9225e-07
6.70518e-08
2.36303e-06
1.47108e-06
8.67839e-08
1.97509e-06
2.79571e-06
1.09369e-07
1.5094e-06
4.26924e-06
1.31535e-07
1.0054e-06
5.59473e-06
1.46329e-07
5.3076e-07
6.24064e-06
1.40848e-07
1.583e-07
5.78649e-06
1.05225e-07
3.08632e-06
4.16713e-08
3.99403e-08
-5.0689e-07
2.24796e-08
1.43812e-07
-1.35847e-06
5.09585e-08
2.93934e-07
-2.04914e-06
6.95492e-08
4.75125e-07
-2.61431e-06
8.13065e-08
6.74728e-07
-3.07259e-06
8.82531e-08
8.83043e-07
-3.4363e-06
9.1807e-08
1.0937e-06
-3.71567e-06
9.29047e-08
1.30308e-06
-3.92128e-06
9.21437e-08
1.50862e-06
-4.06796e-06
8.99609e-08
1.7083e-06
-4.16594e-06
8.65735e-08
1.90061e-06
-4.21989e-06
8.20753e-08
2.08423e-06
-4.23352e-06
7.66096e-08
2.25796e-06
-4.2101e-06
7.03743e-08
2.42069e-06
-4.15257e-06
6.36125e-08
2.57138e-06
-4.06361e-06
5.65864e-08
2.70908e-06
-3.9456e-06
4.95543e-08
2.83291e-06
-3.80057e-06
4.27578e-08
2.94205e-06
-3.63014e-06
3.64192e-08
3.03573e-06
-3.43542e-06
3.0745e-08
3.11323e-06
-3.21698e-06
2.59337e-08
3.17232e-06
-2.97321e-06
2.21988e-08
3.2077e-06
-2.69801e-06
1.97566e-08
3.21346e-06
-2.38147e-06
1.89051e-08
3.18497e-06
-2.0103e-06
2.00582e-08
3.11709e-06
-1.56476e-06
2.37239e-08
3.0027e-06
-1.01516e-06
3.04734e-08
2.83245e-06
-3.19567e-07
4.09162e-08
2.59575e-06
5.73249e-07
5.55888e-08
2.28322e-06
1.70883e-06
7.45988e-08
1.89179e-06
3.09003e-06
9.6841e-08
1.43415e-06
4.6077e-06
1.18779e-07
9.4964e-07
5.94505e-06
1.33617e-07
4.98335e-07
6.56184e-06
1.29333e-07
1.47552e-07
6.03953e-06
9.67538e-08
3.1944e-06
3.82574e-08
3.66591e-08
-5.64323e-07
2.05785e-08
1.34258e-07
-1.50288e-06
4.66778e-08
2.78187e-07
-2.2573e-06
6.41428e-08
4.55601e-07
-2.86766e-06
7.58664e-08
6.55078e-07
-3.35572e-06
8.3611e-08
8.66666e-07
-3.73641e-06
8.85099e-08
1.08267e-06
-4.02289e-06
9.12183e-08
1.29798e-06
-4.22864e-06
9.2072e-08
1.50854e-06
-4.36977e-06
9.12913e-08
1.7115e-06
-4.45789e-06
8.90537e-08
1.90514e-06
-4.49894e-06
8.54612e-08
2.08817e-06
-4.49718e-06
8.07065e-08
2.25952e-06
-4.45641e-06
7.50465e-08
2.41833e-06
-4.38006e-06
6.87608e-08
2.56392e-06
-4.27124e-06
6.21205e-08
2.69573e-06
-4.1327e-06
5.53738e-08
2.81329e-06
-3.96679e-06
4.87446e-08
2.91621e-06
-3.77542e-06
4.24382e-08
3.00397e-06
-3.55975e-06
3.66466e-08
3.07454e-06
-3.31905e-06
3.156e-08
3.12377e-06
-3.04971e-06
2.73295e-08
3.14749e-06
-2.74585e-06
2.41655e-08
3.14275e-06
-2.39906e-06
2.23561e-08
3.10618e-06
-1.99605e-06
2.23241e-08
3.03274e-06
-1.51591e-06
2.45835e-08
2.91515e-06
-9.27312e-07
2.97047e-08
2.74398e-06
-1.86753e-07
3.82876e-08
2.50866e-06
7.57578e-07
5.08784e-08
2.2004e-06
1.94922e-06
6.76805e-08
1.81754e-06
3.38481e-06
8.78069e-08
1.37429e-06
4.9425e-06
1.08034e-07
9.09811e-07
6.28688e-06
1.22059e-07
4.7782e-07
6.87441e-06
1.18611e-07
1.42104e-07
6.28536e-06
8.88671e-08
3.30015e-06
3.5125e-08
4.08583e-08
-6.25337e-07
1.99611e-08
1.48147e-07
-1.65606e-06
4.57765e-08
3.05954e-07
-2.4791e-06
6.39258e-08
5.00125e-07
-3.13895e-06
7.70871e-08
7.16799e-07
-3.65905e-06
8.66478e-08
9.43467e-07
-4.05643e-06
9.3379e-08
1.17078e-06
-4.34782e-06
9.76651e-08
1.39339e-06
-4.55085e-06
9.9684e-08
1.60777e-06
-4.68364e-06
9.95824e-08
1.81186e-06
-4.75949e-06
9.76124e-08
2.00459e-06
-4.78556e-06
9.40013e-08
2.18516e-06
-4.76669e-06
8.90657e-08
2.35288e-06
-4.70717e-06
8.31586e-08
2.5072e-06
-4.61087e-06
7.66111e-08
2.64761e-06
-4.48124e-06
6.97079e-08
2.77367e-06
-4.32133e-06
6.26855e-08
2.88505e-06
-4.1338e-06
5.57412e-08
2.98085e-06
-3.92016e-06
4.905e-08
3.05901e-06
-3.68055e-06
4.2746e-08
3.11649e-06
-3.41344e-06
3.70059e-08
3.15057e-06
-3.11565e-06
3.19454e-08
3.15942e-06
-2.78234e-06
2.77085e-08
3.14069e-06
-2.40488e-06
2.46028e-08
3.09065e-06
-1.96904e-06
2.30634e-08
3.00384e-06
-1.45272e-06
2.36357e-08
2.87288e-06
-8.23332e-07
2.69576e-08
2.68892e-06
-3.65724e-08
3.37201e-08
2.44302e-06
9.58815e-07
4.45597e-08
2.12875e-06
2.20357e-06
5.97362e-08
1.74689e-06
3.68798e-06
7.83966e-08
1.31328e-06
5.27825e-06
9.74262e-08
8.66171e-07
6.62245e-06
1.10919e-07
4.52813e-07
7.17858e-06
1.08359e-07
1.33891e-07
6.52191e-06
8.13559e-08
3.40067e-06
3.21346e-08
3.96372e-08
-6.86019e-07
2.08874e-08
1.46974e-07
-1.8121e-06
4.85836e-08
3.05999e-07
-2.70691e-06
6.87106e-08
5.00563e-07
-3.41731e-06
8.37847e-08
7.15008e-07
-3.9684e-06
9.49398e-08
9.36125e-07
-4.38027e-06
1.02781e-07
1.15518e-06
-4.67445e-06
1.07653e-07
1.36805e-06
-4.87344e-06
1.09799e-07
1.57239e-06
-4.99737e-06
1.09484e-07
1.76695e-06
-5.0611e-06
1.07152e-07
1.95105e-06
-5.07274e-06
1.03202e-07
2.12405e-06
-5.03763e-06
9.80467e-08
2.28537e-06
-4.96043e-06
9.20653e-08
2.43442e-06
-4.84536e-06
8.55659e-08
2.57072e-06
-4.6962e-06
7.87872e-08
2.69358e-06
-4.51598e-06
7.19161e-08
2.80155e-06
-4.30673e-06
6.50797e-08
2.89253e-06
-4.06941e-06
5.83866e-08
2.96426e-06
-3.80414e-06
5.19751e-08
3.01537e-06
-3.51036e-06
4.59175e-08
3.04518e-06
-3.18569e-06
4.03257e-08
3.05229e-06
-2.82471e-06
3.53486e-08
3.03402e-06
-2.41781e-06
3.12623e-08
2.98604e-06
-1.94946e-06
2.84575e-08
2.90208e-06
-1.39616e-06
2.74371e-08
2.774e-06
-7.2407e-07
2.88159e-08
2.59254e-06
1.11537e-07
3.33015e-08
2.34919e-06
1.16046e-06
4.16128e-08
2.03899e-06
2.45941e-06
5.41794e-08
1.66508e-06
3.99119e-06
7.04115e-08
1.24543e-06
5.60991e-06
8.75441e-08
8.1823e-07
6.94888e-06
1.00129e-07
4.25366e-07
7.47232e-06
9.82893e-08
1.24841e-07
6.7475e-06
7.39085e-08
3.49515e-06
2.91216e-08
4.15431e-08
-7.50298e-07
2.25777e-08
1.5167e-07
-1.97537e-06
5.30221e-08
3.12601e-07
-2.94324e-06
7.53447e-08
5.07443e-07
-3.70422e-06
9.2062e-08
7.20379e-07
-4.28557e-06
1.04275e-07
9.38765e-07
-4.71123e-06
1.12636e-07
1.15478e-06
-5.008e-06
1.17612e-07
1.36496e-06
-5.20313e-06
1.19607e-07
1.56757e-06
-5.31891e-06
1.19023e-07
1.76133e-06
-5.37115e-06
1.16397e-07
1.94523e-06
-5.3688e-06
1.12266e-07
2.11834e-06
-5.31767e-06
1.07052e-07
2.2798e-06
-5.22288e-06
1.0111e-07
2.42874e-06
-5.08888e-06
9.47099e-08
2.56379e-06
-4.91916e-06
8.80403e-08
2.68306e-06
-4.71634e-06
8.1213e-08
2.78455e-06
-4.48243e-06
7.43412e-08
2.86683e-06
-4.2191e-06
6.75243e-08
2.92953e-06
-3.92762e-06
6.08961e-08
2.97249e-06
-3.60774e-06
5.45255e-08
2.99517e-06
-3.25671e-06
4.84441e-08
2.99614e-06
-2.86838e-06
4.27965e-08
2.97264e-06
-2.43206e-06
3.78285e-08
2.92018e-06
-1.93084e-06
3.38901e-08
2.83226e-06
-1.33965e-06
3.14489e-08
2.70052e-06
-6.23431e-07
3.1108e-08
2.51583e-06
2.62594e-07
3.35994e-08
2.27044e-06
1.36606e-06
3.96976e-08
1.96089e-06
2.71887e-06
4.99149e-08
1.59238e-06
4.2956e-06
6.38094e-08
1.18455e-06
5.93834e-06
7.89414e-08
7.75126e-07
7.26728e-06
9.03842e-08
4.00907e-07
7.75668e-06
8.90194e-08
1.17106e-07
6.96318e-06
6.70952e-08
3.58451e-06
2.65146e-08
3.95402e-08
-8.14654e-07
2.4649e-08
1.46547e-07
-2.1406e-06
5.8121e-08
3.04171e-07
-3.18339e-06
8.24796e-08
4.95682e-07
-3.9962e-06
1.00462e-07
7.055e-07
-4.6087e-06
1.13345e-07
9.21279e-07
-5.04889e-06
1.21952e-07
1.1354e-06
-5.34896e-06
1.26917e-07
1.34427e-06
-5.54071e-06
1.28804e-07
1.5462e-06
-5.64888e-06
1.28148e-07
1.73962e-06
-5.68995e-06
1.25497e-07
1.92329e-06
-5.67381e-06
1.21459e-07
2.09619e-06
-5.6069e-06
1.16464e-07
2.257e-06
-5.49436e-06
1.1081e-07
2.40399e-06
-5.34042e-06
1.04686e-07
2.5351e-06
-5.14837e-06
9.82387e-08
2.64837e-06
-4.92105e-06
9.1578e-08
2.74275e-06
-4.66148e-06
8.48116e-08
2.81799e-06
-4.37228e-06
7.80818e-08
2.87405e-06
-4.05502e-06
7.14747e-08
2.91079e-06
-3.70938e-06
6.50304e-08
2.92776e-06
-3.33232e-06
5.87662e-08
2.92375e-06
-2.91706e-06
5.27893e-08
2.89627e-06
-2.45177e-06
4.72857e-08
2.84099e-06
-1.918e-06
4.25216e-08
2.75139e-06
-1.28887e-06
3.88652e-08
2.61895e-06
-5.2781e-07
3.68281e-08
2.43448e-06
4.09924e-07
3.71096e-08
2.19053e-06
1.56936e-06
4.05614e-08
1.88463e-06
2.97668e-06
4.79012e-08
1.52363e-06
4.59733e-06
5.89824e-08
1.12857e-06
6.2612e-06
7.17531e-08
7.36518e-07
7.5769e-06
8.17728e-08
3.79865e-07
8.03185e-06
8.06477e-08
1.10932e-07
7.17013e-06
6.09686e-08
3.66996e-06
2.4251e-08
4.04603e-08
-8.81746e-07
2.64714e-08
1.48481e-07
-2.31121e-06
6.24907e-08
3.06654e-07
-3.43014e-06
8.85239e-08
4.98291e-07
-4.29543e-06
1.07598e-07
7.07801e-07
-4.93933e-06
1.21158e-07
9.23017e-07
-5.39418e-06
1.30138e-07
1.13663e-06
-5.69776e-06
1.35276e-07
1.34519e-06
-5.88641e-06
1.37249e-07
1.54696e-06
-5.98725e-06
1.36701e-07
1.74043e-06
-6.01752e-06
1.34222e-07
1.92419e-06
-5.9878e-06
1.30358e-07
2.09686e-06
-5.90498e-06
1.25529e-07
2.25667e-06
-5.77404e-06
1.2001e-07
2.40138e-06
-5.59897e-06
1.13974e-07
2.52909e-06
-5.38349e-06
1.07549e-07
2.63857e-06
-5.13126e-06
1.0088e-07
2.72892e-06
-4.84578e-06
9.41029e-08
2.79956e-06
-4.53012e-06
8.73508e-08
2.85023e-06
-4.18623e-06
8.0679e-08
2.8808e-06
-3.8139e-06
7.40937e-08
2.89094e-06
-3.40997e-06
6.76392e-08
2.87972e-06
-2.96714e-06
6.14195e-08
2.84499e-06
-2.47254e-06
5.55916e-08
2.78286e-06
-1.90615e-06
5.03664e-08
2.68721e-06
-1.23918e-06
4.60213e-08
2.54992e-06
-4.3344e-07
4.29387e-08
2.36221e-06
5.55948e-07
4.16736e-08
2.11715e-06
1.77134e-06
4.29924e-08
1.81316e-06
3.23282e-06
4.76877e-08
1.45834e-06
4.89595e-06
5.59049e-08
1.07479e-06
6.5782e-06
6.60934e-08
6.98776e-07
7.87784e-06
7.44083e-08
3.58809e-07
8.29774e-06
7.32346e-08
1.04433e-07
7.36797e-06
5.55357e-08
3.75088e-06
2.23072e-08
3.8305e-08
-9.48401e-07
2.81863e-08
1.42767e-07
-2.48245e-06
6.66713e-08
2.97033e-07
-3.67881e-06
9.43628e-08
4.84585e-07
-4.59749e-06
1.14505e-07
6.90028e-07
-5.27338e-06
1.28649e-07
9.01524e-07
-5.74344e-06
1.37828e-07
1.11214e-06
-6.05121e-06
1.42918e-07
1.31856e-06
-6.23749e-06
1.44756e-07
1.51896e-06
-6.33168e-06
1.44132e-07
1.71175e-06
-6.35191e-06
1.41723e-07
1.89515e-06
-6.30912e-06
1.38039e-07
2.06725e-06
-6.21039e-06
1.33442e-07
2.226e-06
-6.06082e-06
1.28165e-07
2.36946e-06
-5.86466e-06
1.2238e-07
2.49585e-06
-5.62595e-06
1.16221e-07
2.60367e-06
-5.34872e-06
1.098e-07
2.69182e-06
-5.037e-06
1.03226e-07
2.75967e-06
-4.69441e-06
9.65982e-08
2.80692e-06
-4.32329e-06
8.99602e-08
2.83352e-06
-3.92367e-06
8.33077e-08
2.83927e-06
-3.49229e-06
7.67004e-08
2.82341e-06
-3.0214e-06
7.02469e-08
2.78403e-06
-2.49714e-06
6.40942e-08
2.71748e-06
-1.89794e-06
5.84247e-08
2.61801e-06
-1.1931e-06
5.34602e-08
2.47784e-06
-3.42734e-07
4.94877e-08
2.28867e-06
6.98179e-07
4.69274e-08
2.04418e-06
1.96934e-06
4.64176e-08
1.74357e-06
3.48452e-06
4.87318e-08
1.39598e-06
5.18903e-06
5.42194e-08
1.02423e-06
6.88769e-06
6.18002e-08
6.63702e-07
8.16946e-06
6.8251e-08
3.39644e-07
8.55418e-06
6.67734e-08
9.86908e-08
7.55719e-06
5.07295e-08
3.82782e-06
2.05612e-08
3.86214e-08
-1.01665e-06
2.94574e-08
1.42478e-07
-2.65621e-06
6.98065e-08
2.95172e-07
-3.9302e-06
9.86547e-08
4.80651e-07
-4.90231e-06
1.19347e-07
6.83846e-07
-5.61007e-06
1.33536e-07
8.93213e-07
-6.09517e-06
1.42431e-07
1.10204e-06
-6.40707e-06
1.47122e-07
1.30704e-06
-6.59103e-06
1.48638e-07
1.50625e-06
-6.67865e-06
1.47873e-07
1.69786e-06
-6.68891e-06
1.45521e-07
1.87993e-06
-6.63312e-06
1.42065e-07
2.0504e-06
-6.51853e-06
1.37816e-07
2.20718e-06
-6.35041e-06
1.32975e-07
2.34824e-06
-6.13324e-06
1.27674e-07
2.47176e-06
-5.87132e-06
1.22009e-07
2.57627e-06
-5.56913e-06
1.16061e-07
2.6607e-06
-5.23118e-06
1.09915e-07
2.72444e-06
-4.86162e-06
1.03628e-07
2.7672e-06
-4.46312e-06
9.72309e-08
2.78887e-06
-4.03592e-06
9.07297e-08
2.78933e-06
-3.57679e-06
8.41852e-08
2.7679e-06
-3.07754e-06
7.77052e-08
2.72288e-06
-2.52344e-06
7.1434e-08
2.65094e-06
-1.89144e-06
6.55437e-08
2.54671e-06
-1.14901e-06
6.02267e-08
2.40292e-06
-2.54601e-07
5.56997e-08
2.21183e-06
8.37014e-07
5.22523e-08
1.96777e-06
2.16297e-06
5.03508e-08
1.6707e-06
3.73077e-06
5.06587e-08
1.33061e-06
5.47518e-06
5.36411e-08
9.70919e-07
7.18827e-06
5.86591e-08
6.26059e-07
8.45053e-06
6.31376e-08
3.18461e-07
8.79983e-06
6.11249e-08
9.19193e-08
7.73632e-06
4.64367e-08
3.89959e-06
1.89778e-08
3.79614e-08
-1.08513e-06
3.03558e-08
1.40686e-07
-2.83107e-06
7.20212e-08
2.92432e-07
-4.18341e-06
1.01409e-07
4.77161e-07
-5.20898e-06
1.21933e-07
6.79587e-07
-5.94793e-06
1.35464e-07
8.87973e-07
-6.44702e-06
1.43522e-07
1.09554e-06
-6.76203e-06
1.47478e-07
1.29892e-06
-6.94284e-06
1.48529e-07
1.49602e-06
-7.02324e-06
1.47612e-07
1.68492e-06
-7.02306e-06
1.45384e-07
1.86365e-06
-6.95397e-06
1.42268e-07
2.0302e-06
-6.82344e-06
1.3852e-07
2.18261e-06
-6.63695e-06
1.34297e-07
2.31903e-06
-6.39918e-06
1.29695e-07
2.43787e-06
-6.11475e-06
1.24776e-07
2.53782e-06
-5.78848e-06
1.19585e-07
2.61793e-06
-5.42528e-06
1.14175e-07
2.67756e-06
-5.02963e-06
1.08556e-07
2.71633e-06
-4.60443e-06
1.0271e-07
2.73403e-06
-4.1501e-06
9.66444e-08
2.73039e-06
-3.66341e-06
9.04143e-08
2.70472e-06
-3.13585e-06
8.41176e-08
2.6554e-06
-2.55188e-06
7.78919e-08
2.57932e-06
-1.88716e-06
7.19073e-08
2.47152e-06
-1.10748e-06
6.63533e-08
2.3253e-06
-1.69763e-07
6.14276e-08
2.13364e-06
9.71335e-07
5.73514e-08
1.89157e-06
2.35055e-06
5.44485e-08
1.59965e-06
3.96932e-06
5.32159e-08
1.26839e-06
5.75206e-06
5.40996e-08
9.21333e-07
7.47811e-06
5.67736e-08
5.91782e-07
8.72016e-06
5.92733e-08
2.99813e-07
9.03447e-06
5.65187e-08
8.62567e-08
7.90608e-06
4.2844e-08
3.96706e-06
1.76451e-08
4.01583e-08
-1.15603e-06
3.05778e-08
1.46306e-07
-3.00975e-06
7.24274e-08
3.01543e-07
-4.43999e-06
1.01287e-07
4.89126e-07
-5.51724e-06
1.20678e-07
6.93111e-07
-6.28469e-06
1.32815e-07
9.0151e-07
-6.79494e-06
1.39595e-07
1.10767e-06
-7.11073e-06
1.4264e-07
1.30838e-06
-7.28665e-06
1.43221e-07
1.50163e-06
-7.35858e-06
1.4223e-07
1.68559e-06
-7.34711e-06
1.4024e-07
1.85843e-06
-7.26423e-06
1.37595e-07
2.01835e-06
-7.11767e-06
1.34499e-07
2.16363e-06
-6.91311e-06
1.31071e-07
2.29276e-06
-6.65548e-06
1.27375e-07
2.40446e-06
-6.34969e-06
1.23444e-07
2.49773e-06
-6.00083e-06
1.19292e-07
2.57183e-06
-5.61409e-06
1.1492e-07
2.62612e-06
-5.19403e-06
1.10311e-07
2.66012e-06
-4.74364e-06
1.05394e-07
2.67347e-06
-4.26342e-06
1.0015e-07
2.6657e-06
-3.75008e-06
9.46109e-08
2.63593e-06
-3.19479e-06
8.88563e-08
2.58251e-06
-2.58133e-06
8.30095e-08
2.50246e-06
-1.88423e-06
7.72302e-08
2.39122e-06
-1.06783e-06
7.17015e-08
2.24276e-06
-8.78423e-08
6.66109e-08
2.05091e-06
1.10107e-06
6.21434e-08
1.81154e-06
2.53137e-06
5.85271e-08
1.52581e-06
4.19881e-06
5.61132e-08
1.20452e-06
6.01783e-06
5.52769e-08
8.70929e-07
7.75539e-06
5.58922e-08
5.56981e-07
8.97699e-06
5.65116e-08
2.80733e-07
9.25705e-06
5.28904e-08
8.0256e-08
8.06569e-06