/*--------------------------------*- C++ -*----------------------------------*\
| =========                 |                                                 |
| \\      /  F ield         | OpenFOAM: The Open Source CFD Toolbox           |
|  \\    /   O peration     | Version:  v2006                                 |
|   \\  /    A nd           | Website:  www.openfoam.com                      |
|    \\/     M anipulation  |                                                 |
\*---------------------------------------------------------------------------*/
FoamFile
{
    version     2.0;
    format      ascii;
    class       volScalarField;
    location    "39";
    object      T;
}
// * * * * * * * * * * * * * * * * * * * * * * * * * * * * * * * * * * * * * //

dimensions      [0 0 0 1 0 0 0];


internalField   nonuniform List<scalar> 
78750
(
299.962
299.911
299.895
299.893
299.896
299.901
299.906
299.911
299.915
299.92
299.924
299.928
299.93
299.932
299.933
299.932
299.93
299.927
299.921
299.914
299.905
299.894
299.88
299.864
299.846
299.825
299.802
299.78
299.764
299.768
299.821
299.979
300.322
300.912
301.718
300.022
300.063
300.099
300.129
300.154
300.175
300.193
300.209
300.223
300.235
300.245
300.253
300.259
300.263
300.266
300.267
300.266
300.262
300.257
300.25
300.24
300.227
300.212
300.193
300.171
300.146
300.118
300.091
300.071
300.072
300.122
300.277
300.611
301.166
301.934
300.034
300.098
300.154
300.204
300.246
300.277
300.299
300.314
300.327
300.338
300.348
300.359
300.369
300.379
300.388
300.397
300.404
300.411
300.417
300.422
300.426
300.427
300.427
300.424
300.418
300.41
300.399
300.388
300.383
300.398
300.467
300.643
300.986
301.534
302.299
300.013
300.038
300.06
300.081
300.1
300.118
300.137
300.158
300.181
300.204
300.228
300.251
300.272
300.293
300.311
300.328
300.344
300.358
300.372
300.384
300.396
300.406
300.416
300.426
300.435
300.443
300.452
300.465
300.487
300.533
300.635
300.844
301.209
301.766
302.535
300.01
300.026
300.043
300.062
300.084
300.109
300.138
300.169
300.202
300.235
300.265
300.293
300.318
300.34
300.36
300.378
300.395
300.41
300.424
300.436
300.448
300.458
300.469
300.478
300.489
300.5
300.515
300.537
300.576
300.649
300.787
301.037
301.432
302.008
302.795
300.011
300.03
300.049
300.068
300.09
300.114
300.14
300.168
300.196
300.225
300.252
300.277
300.301
300.322
300.343
300.362
300.38
300.397
300.414
300.429
300.444
300.458
300.473
300.488
300.503
300.521
300.545
300.579
300.633
300.726
300.889
301.167
301.588
302.181
302.977
300.016
300.044
300.071
300.098
300.125
300.153
300.182
300.212
300.242
300.271
300.298
300.323
300.346
300.368
300.388
300.406
300.423
300.439
300.454
300.468
300.481
300.494
300.507
300.521
300.536
300.556
300.584
300.626
300.695
300.811
301.004
301.316
301.76
302.367
303.177
300.02
300.058
300.092
300.125
300.158
300.189
300.22
300.25
300.278
300.304
300.329
300.351
300.373
300.392
300.411
300.429
300.446
300.461
300.476
300.49
300.504
300.518
300.532
300.547
300.564
300.586
300.618
300.667
300.746
300.877
301.093
301.429
301.894
302.516
303.333
300.024
300.069
300.11
300.148
300.185
300.219
300.252
300.283
300.311
300.337
300.361
300.384
300.406
300.426
300.445
300.463
300.479
300.495
300.509
300.523
300.536
300.549
300.563
300.578
300.596
300.621
300.657
300.713
300.805
300.954
301.193
301.556
302.038
302.669
303.496
300.026
300.075
300.12
300.161
300.2
300.237
300.272
300.303
300.332
300.36
300.385
300.409
300.432
300.452
300.472
300.49
300.506
300.522
300.536
300.55
300.563
300.577
300.591
300.607
300.626
300.654
300.694
300.757
300.858
301.022
301.279
301.662
302.158
302.798
303.632
300.029
300.082
300.131
300.177
300.221
300.262
300.3
300.334
300.366
300.395
300.422
300.447
300.469
300.49
300.509
300.527
300.543
300.557
300.571
300.583
300.596
300.608
300.622
300.637
300.658
300.687
300.731
300.801
300.913
301.092
301.369
301.772
302.28
302.926
303.766
300.031
300.09
300.145
300.197
300.245
300.29
300.33
300.365
300.398
300.427
300.454
300.479
300.501
300.522
300.541
300.558
300.573
300.588
300.601
300.614
300.626
300.639
300.652
300.669
300.691
300.722
300.77
300.846
300.967
301.159
301.452
301.871
302.388
303.04
303.884
300.034
300.099
300.16
300.216
300.268
300.314
300.356
300.392
300.425
300.455
300.482
300.507
300.53
300.551
300.569
300.586
300.602
300.616
300.629
300.641
300.653
300.666
300.68
300.697
300.72
300.754
300.807
300.889
301.02
301.225
301.534
301.968
302.493
303.15
303.997
300.037
300.107
300.171
300.231
300.286
300.335
300.378
300.416
300.45
300.481
300.509
300.535
300.558
300.58
300.599
300.616
300.632
300.646
300.659
300.671
300.683
300.695
300.709
300.727
300.752
300.788
300.843
300.932
301.072
301.288
301.611
302.057
302.59
303.25
304.101
300.039
300.113
300.181
300.245
300.303
300.356
300.402
300.442
300.478
300.51
300.54
300.566
300.591
300.612
300.632
300.649
300.665
300.679
300.691
300.703
300.714
300.726
300.741
300.758
300.783
300.821
300.88
300.974
301.122
301.35
301.686
302.144
302.683
303.347
304.2
300.042
300.121
300.195
300.263
300.326
300.381
300.43
300.472
300.509
300.542
300.572
300.599
300.624
300.646
300.665
300.683
300.698
300.712
300.724
300.736
300.747
300.759
300.773
300.791
300.817
300.856
300.918
301.017
301.172
301.41
301.757
302.224
302.769
303.437
304.292
300.045
300.129
300.208
300.281
300.347
300.406
300.456
300.5
300.538
300.571
300.602
300.63
300.654
300.676
300.696
300.714
300.729
300.743
300.756
300.768
300.78
300.792
300.806
300.825
300.851
300.892
300.957
301.061
301.224
301.471
301.828
302.303
302.853
303.525
304.381
300.048
300.138
300.222
300.299
300.369
300.43
300.482
300.527
300.566
300.601
300.632
300.66
300.685
300.707
300.728
300.746
300.762
300.776
300.789
300.8
300.812
300.824
300.838
300.857
300.885
300.928
300.996
301.104
301.274
301.53
301.896
302.377
302.931
303.608
304.465
300.05
300.146
300.235
300.316
300.389
300.453
300.507
300.553
300.593
300.629
300.66
300.689
300.715
300.738
300.759
300.777
300.794
300.808
300.821
300.833
300.845
300.857
300.871
300.891
300.919
300.964
301.035
301.149
301.325
301.59
301.964
302.45
303.008
303.688
304.546
300.053
300.154
300.248
300.334
300.41
300.476
300.531
300.579
300.62
300.656
300.689
300.718
300.745
300.768
300.79
300.809
300.825
300.84
300.853
300.865
300.876
300.889
300.903
300.923
300.953
300.999
301.074
301.192
301.375
301.647
302.029
302.519
303.08
303.764
304.622
300.056
300.162
300.26
300.35
300.429
300.497
300.554
300.602
300.645
300.682
300.716
300.746
300.773
300.798
300.82
300.839
300.856
300.871
300.884
300.896
300.908
300.92
300.935
300.956
300.987
301.035
301.113
301.237
301.426
301.705
302.093
302.587
303.151
303.838
304.696
300.059
300.17
300.272
300.366
300.448
300.518
300.576
300.626
300.67
300.708
300.743
300.774
300.802
300.827
300.85
300.87
300.887
300.902
300.916
300.928
300.939
300.952
300.967
300.988
301.02
301.07
301.152
301.28
301.475
301.761
302.156
302.652
303.218
303.909
304.767
300.061
300.177
300.283
300.38
300.465
300.538
300.598
300.65
300.695
300.734
300.77
300.802
300.831
300.857
300.88
300.901
300.918
300.933
300.947
300.959
300.971
300.983
300.998
301.02
301.053
301.105
301.19
301.322
301.524
301.817
302.218
302.716
303.284
303.977
304.835
300.063
300.184
300.295
300.395
300.483
300.558
300.62
300.674
300.72
300.761
300.798
300.831
300.861
300.888
300.911
300.932
300.95
300.965
300.978
300.99
301.002
301.014
301.03
301.052
301.086
301.14
301.227
301.364
301.571
301.87
302.276
302.776
303.346
304.042
304.899
300.066
300.19
300.306
300.41
300.501
300.578
300.642
300.697
300.745
300.787
300.825
300.86
300.89
300.918
300.942
300.963
300.981
300.997
301.01
301.022
301.033
301.046
301.062
301.084
301.118
301.174
301.263
301.404
301.617
301.922
302.333
302.835
303.406
304.103
304.96
300.068
300.197
300.317
300.425
300.52
300.599
300.665
300.721
300.77
300.813
300.853
300.888
300.92
300.948
300.973
300.994
301.013
301.028
301.042
301.054
301.065
301.078
301.093
301.116
301.151
301.208
301.299
301.443
301.66
301.97
302.386
302.889
303.461
304.16
305.016
300.07
300.204
300.328
300.44
300.537
300.619
300.686
300.744
300.794
300.839
300.879
300.915
300.948
300.977
301.003
301.025
301.044
301.06
301.073
301.085
301.097
301.11
301.125
301.148
301.184
301.242
301.336
301.482
301.702
302.017
302.437
302.94
303.513
304.214
305.068
300.073
300.212
300.34
300.456
300.556
300.639
300.708
300.766
300.818
300.864
300.905
300.943
300.976
301.006
301.032
301.055
301.074
301.091
301.105
301.117
301.129
301.141
301.158
301.181
301.218
301.277
301.373
301.521
301.745
302.062
302.485
302.989
303.561
304.264
305.118
300.075
300.219
300.351
300.471
300.573
300.658
300.729
300.788
300.841
300.888
300.931
300.969
301.004
301.034
301.061
301.084
301.104
301.121
301.135
301.148
301.16
301.173
301.19
301.214
301.252
301.313
301.411
301.562
301.788
302.109
302.534
303.037
303.609
304.313
305.167
300.078
300.226
300.363
300.486
300.591
300.678
300.75
300.811
300.865
300.913
300.956
300.996
301.031
301.062
301.09
301.114
301.134
301.151
301.166
301.179
301.191
301.205
301.222
301.247
301.287
301.35
301.451
301.605
301.834
302.157
302.583
303.085
303.656
304.362
305.217
300.08
300.233
300.374
300.501
300.609
300.697
300.77
300.833
300.888
300.937
300.982
301.022
301.058
301.09
301.118
301.143
301.163
301.181
301.196
301.209
301.222
301.236
301.253
301.28
301.321
301.387
301.491
301.65
301.883
302.209
302.636
303.135
303.705
304.413
305.269
300.083
300.24
300.386
300.516
300.626
300.717
300.791
300.855
300.911
300.962
301.007
301.048
301.085
301.118
301.147
301.172
301.193
301.211
301.226
301.24
301.252
301.267
301.285
301.311
301.354
301.422
301.53
301.694
301.932
302.261
302.69
303.187
303.755
304.465
305.322
300.085
300.248
300.397
300.531
300.644
300.736
300.812
300.877
300.934
300.986
301.032
301.074
301.112
301.146
301.175
301.2
301.222
301.24
301.256
301.27
301.283
301.297
301.315
301.342
301.385
301.455
301.566
301.735
301.979
302.313
302.744
303.239
303.806
304.517
305.375
300.088
300.255
300.409
300.546
300.661
300.755
300.832
300.898
300.957
301.009
301.057
301.1
301.139
301.173
301.203
301.229
301.251
301.269
301.286
301.3
301.313
301.328
301.346
301.373
301.416
301.486
301.599
301.771
302.02
302.36
302.794
303.289
303.856
304.568
305.426
300.09
300.262
300.42
300.561
300.678
300.774
300.852
300.919
300.979
301.033
301.082
301.126
301.165
301.2
301.231
301.257
301.279
301.299
301.315
301.33
301.344
301.359
301.377
301.404
301.446
301.515
301.628
301.801
302.055
302.4
302.839
303.335
303.902
304.615
305.473
300.093
300.269
300.432
300.575
300.696
300.792
300.872
300.941
301.002
301.056
301.106
301.151
301.191
301.227
301.258
301.285
301.308
301.328
301.345
301.36
301.375
301.39
301.409
301.436
301.477
301.545
301.655
301.827
302.082
302.432
302.875
303.374
303.942
304.656
305.514
300.095
300.276
300.443
300.59
300.712
300.811
300.892
300.962
301.024
301.08
301.131
301.177
301.218
301.254
301.286
301.313
301.337
301.357
301.374
301.39
301.405
301.422
301.442
301.469
301.511
301.577
301.684
301.853
302.106
302.458
302.906
303.408
303.979
304.693
305.551
300.098
300.284
300.454
300.605
300.729
300.829
300.912
300.983
301.046
301.103
301.155
301.202
301.244
301.281
301.313
301.341
301.366
301.386
301.404
301.421
301.437
301.454
301.475
301.504
301.547
301.613
301.719
301.885
302.134
302.485
302.935
303.44
304.012
304.728
305.586
300.1
300.291
300.466
300.619
300.746
300.848
300.931
301.003
301.068
301.126
301.179
301.227
301.27
301.308
301.341
301.37
301.394
301.415
301.434
301.451
301.468
301.486
301.509
301.541
301.587
301.656
301.762
301.926
302.172
302.52
302.97
303.474
304.046
304.765
305.624
300.103
300.298
300.477
300.634
300.763
300.866
300.951
301.024
301.09
301.149
301.204
301.253
301.296
301.335
301.369
301.398
301.423
301.444
301.463
301.481
301.498
301.518
301.544
301.578
301.628
301.702
301.813
301.98
302.225
302.57
303.016
303.516
304.086
304.808
305.67
300.105
300.305
300.488
300.648
300.779
300.884
300.97
301.045
301.112
301.172
301.228
301.278
301.322
301.362
301.396
301.426
301.451
301.473
301.493
301.511
301.529
301.55
301.577
301.615
301.67
301.752
301.87
302.043
302.292
302.636
303.077
303.569
304.135
304.859
305.723
300.108
300.313
300.5
300.663
300.796
300.901
300.989
301.065
301.133
301.195
301.252
301.303
301.348
301.388
301.423
301.454
301.48
301.502
301.522
301.54
301.559
301.581
301.609
301.65
301.71
301.799
301.927
302.11
302.365
302.711
303.147
303.63
304.191
304.916
305.781
300.11
300.319
300.51
300.676
300.811
300.919
301.007
301.085
301.154
301.218
301.275
301.327
301.374
301.415
301.451
301.481
301.508
301.531
301.551
301.57
301.589
301.611
301.64
301.682
301.745
301.84
301.978
302.173
302.437
302.787
303.22
303.694
304.248
304.973
305.838
300.112
300.326
300.521
300.69
300.827
300.936
301.026
301.105
301.175
301.24
301.299
301.352
301.399
301.441
301.478
301.509
301.536
301.56
301.58
301.599
301.619
301.641
301.67
301.712
301.776
301.874
302.019
302.223
302.499
302.855
303.287
303.755
304.304
305.027
305.89
300.115
300.333
300.532
300.704
300.843
300.953
301.044
301.124
301.196
301.262
301.322
301.376
301.425
301.467
301.504
301.537
301.564
301.589
301.61
301.63
301.649
301.671
301.7
301.741
301.803
301.901
302.049
302.26
302.544
302.909
303.343
303.808
304.353
305.074
305.934
300.117
300.34
300.542
300.717
300.858
300.969
301.062
301.144
301.217
301.284
301.346
301.401
301.45
301.493
301.531
301.564
301.593
301.618
301.64
301.66
301.68
301.703
301.731
301.771
301.831
301.925
302.071
302.284
302.575
302.947
303.386
303.851
304.395
305.113
305.971
300.119
300.347
300.553
300.731
300.874
300.986
301.081
301.163
301.238
301.307
301.369
301.425
301.475
301.519
301.558
301.592
301.621
301.647
301.67
301.692
301.713
301.736
301.764
301.803
301.861
301.951
302.091
302.301
302.594
302.972
303.417
303.886
304.429
305.146
306.001
300.122
300.354
300.564
300.745
300.889
301.003
301.099
301.183
301.259
301.329
301.392
301.449
301.5
301.545
301.585
301.619
301.65
301.677
301.701
301.724
301.746
301.77
301.8
301.838
301.895
301.981
302.116
302.32
302.609
302.99
303.441
303.914
304.458
305.174
306.027
300.124
300.361
300.575
300.759
300.905
301.02
301.117
301.203
301.28
301.351
301.416
301.474
301.525
301.571
301.611
301.647
301.678
301.706
301.732
301.756
301.78
301.806
301.837
301.877
301.934
302.018
302.148
302.345
302.63
303.009
303.463
303.938
304.484
305.199
306.051
300.127
300.368
300.586
300.772
300.92
301.037
301.135
301.222
301.301
301.374
301.439
301.498
301.55
301.597
301.638
301.674
301.706
301.735
301.763
301.789
301.815
301.844
301.877
301.919
301.977
302.062
302.189
302.381
302.66
303.035
303.488
303.963
304.508
305.223
306.076
300.129
300.375
300.597
300.786
300.936
301.054
301.154
301.242
301.322
301.395
301.462
301.522
301.575
301.622
301.664
301.701
301.734
301.765
301.794
301.822
301.85
301.882
301.918
301.964
302.024
302.111
302.239
302.428
302.702
303.071
303.519
303.99
304.533
305.25
306.105
300.132
300.382
300.608
300.8
300.951
301.071
301.171
301.261
301.343
301.417
301.485
301.545
301.599
301.647
301.689
301.727
301.761
301.793
301.824
301.855
301.886
301.92
301.96
302.01
302.075
302.165
302.295
302.485
302.755
303.119
303.559
304.022
304.562
305.281
306.14
300.134
300.389
300.619
300.814
300.966
301.087
301.189
301.28
301.363
301.438
301.507
301.568
301.623
301.671
301.714
301.752
301.788
301.821
301.854
301.887
301.922
301.959
302.003
302.057
302.127
302.222
302.357
302.548
302.818
303.176
303.606
304.061
304.597
305.318
306.181
300.137
300.396
300.63
300.827
300.981
301.103
301.206
301.298
301.382
301.459
301.529
301.591
301.646
301.694
301.738
301.777
301.814
301.849
301.884
301.919
301.957
301.999
302.047
302.105
302.18
302.281
302.421
302.616
302.886
303.24
303.66
304.105
304.637
305.361
306.228
300.139
300.403
300.64
300.84
300.996
301.119
301.223
301.317
301.402
301.48
301.55
301.613
301.668
301.717
301.761
301.801
301.839
301.875
301.913
301.951
301.993
302.038
302.091
302.154
302.234
302.341
302.486
302.686
302.957
303.307
303.718
304.154
304.682
305.409
306.281
300.141
300.409
300.65
300.852
301.01
301.134
301.24
301.334
301.421
301.5
301.571
301.634
301.69
301.74
301.784
301.824
301.863
301.901
301.941
301.983
302.028
302.078
302.135
302.204
302.289
302.402
302.553
302.757
303.031
303.378
303.779
304.208
304.733
305.464
306.339
300.144
300.416
300.66
300.865
301.023
301.149
301.256
301.352
301.44
301.519
301.591
301.656
301.712
301.762
301.806
301.847
301.886
301.926
301.968
302.013
302.063
302.118
302.181
302.255
302.346
302.464
302.621
302.831
303.106
303.451
303.845
304.266
304.79
305.523
306.402
300.146
300.422
300.67
300.877
301.037
301.164
301.272
301.369
301.458
301.539
301.612
301.676
301.733
301.783
301.828
301.869
301.908
301.949
301.993
302.042
302.096
302.158
302.227
302.307
302.405
302.529
302.692
302.907
303.185
303.527
303.914
304.329
304.853
305.588
306.468
300.148
300.428
300.679
300.888
301.05
301.178
301.287
301.386
301.476
301.558
301.631
301.697
301.754
301.805
301.849
301.89
301.93
301.971
302.016
302.069
302.128
302.196
302.273
302.36
302.466
302.597
302.767
302.987
303.268
303.608
303.987
304.397
304.92
305.656
306.537
300.15
300.434
300.688
300.899
301.063
301.192
301.302
301.402
301.493
301.576
301.651
301.717
301.775
301.825
301.87
301.911
301.95
301.991
302.038
302.092
302.157
302.232
302.317
302.414
302.528
302.668
302.844
303.07
303.353
303.691
304.063
304.469
304.991
305.727
306.606
300.152
300.44
300.697
300.91
301.075
301.205
301.317
301.418
301.51
301.594
301.669
301.736
301.795
301.845
301.89
301.931
301.969
302.01
302.056
302.112
302.181
302.263
302.358
302.465
302.589
302.738
302.923
303.155
303.441
303.776
304.141
304.542
305.063
305.797
306.671
300.154
300.445
300.705
300.92
301.087
301.218
301.331
301.433
301.526
301.611
301.688
301.755
301.814
301.865
301.91
301.95
301.988
302.028
302.073
302.128
302.199
302.287
302.391
302.51
302.647
302.806
303
303.239
303.527
303.859
304.217
304.613
305.133
305.862
306.73
300.155
300.45
300.713
300.93
301.098
301.231
301.345
301.448
301.542
301.628
301.706
301.774
301.834
301.885
301.93
301.97
302.007
302.045
302.088
302.142
302.211
302.302
302.414
302.545
302.694
302.867
303.071
303.316
303.607
303.936
304.288
304.68
305.196
305.918
306.779
300.157
300.454
300.72
300.94
301.109
301.243
301.359
301.463
301.558
301.645
301.723
301.793
301.853
301.905
301.95
301.99
302.027
302.063
302.104
302.153
302.219
302.309
302.425
302.565
302.728
302.914
303.129
303.382
303.675
304.002
304.35
304.737
305.249
305.963
306.815
300.159
300.459
300.727
300.949
301.12
301.256
301.372
301.478
301.574
301.662
301.741
301.811
301.872
301.925
301.97
302.01
302.047
302.082
302.12
302.166
302.226
302.31
302.424
302.57
302.744
302.943
303.171
303.433
303.73
304.056
304.4
304.783
305.29
305.996
306.84
300.16
300.463
300.734
300.958
301.131
301.268
301.386
301.493
301.59
301.679
301.759
301.83
301.891
301.945
301.991
302.031
302.068
302.102
302.138
302.18
302.234
302.31
302.418
302.562
302.742
302.953
303.194
303.465
303.769
304.096
304.438
304.817
305.319
306.017
306.852
300.162
300.468
300.742
300.968
301.143
301.282
301.401
301.508
301.607
301.697
301.778
301.849
301.911
301.965
302.012
302.053
302.089
302.123
302.158
302.197
302.246
302.313
302.41
302.547
302.725
302.944
303.196
303.479
303.79
304.121
304.463
304.839
305.335
306.026
306.854
300.163
300.473
300.749
300.979
301.156
301.296
301.416
301.525
301.625
301.715
301.797
301.869
301.932
301.986
302.033
302.075
302.112
302.146
302.18
302.217
302.262
302.322
302.408
302.532
302.703
302.921
303.18
303.474
303.794
304.132
304.475
304.85
305.341
306.026
306.849
300.165
300.478
300.758
300.99
301.169
301.311
301.433
301.543
301.643
301.735
301.817
301.89
301.953
302.008
302.055
302.097
302.135
302.169
302.203
302.239
302.281
302.336
302.413
302.524
302.682
302.893
303.153
303.455
303.786
304.131
304.478
304.853
305.341
306.02
306.841
300.167
300.484
300.768
301.003
301.184
301.327
301.451
301.562
301.663
301.756
301.839
301.911
301.975
302.03
302.078
302.12
302.159
302.194
302.228
302.264
302.305
302.355
302.425
302.525
302.669
302.868
303.124
303.429
303.768
304.122
304.475
304.85
305.335
306.012
306.83
300.169
300.49
300.778
301.017
301.2
301.345
301.47
301.582
301.685
301.778
301.861
301.934
301.998
302.053
302.101
302.144
302.183
302.219
302.254
302.29
302.33
302.379
302.444
302.535
302.667
302.853
303.1
303.403
303.747
304.11
304.469
304.845
305.328
306.003
306.821
300.172
300.497
300.789
301.031
301.217
301.365
301.491
301.605
301.708
301.802
301.885
301.958
302.022
302.077
302.125
302.168
302.207
302.244
302.28
302.317
302.358
302.406
302.468
302.553
302.674
302.847
303.083
303.381
303.727
304.096
304.46
304.838
305.321
305.995
306.812
300.174
300.505
300.802
301.048
301.236
301.385
301.513
301.628
301.733
301.827
301.91
301.983
302.047
302.101
302.15
302.193
302.233
302.27
302.307
302.346
302.387
302.435
302.496
302.577
302.691
302.853
303.077
303.366
303.711
304.084
304.453
304.833
305.314
305.988
306.807
300.177
300.514
300.815
301.065
301.256
301.407
301.537
301.653
301.759
301.853
301.937
302.01
302.072
302.127
302.175
302.218
302.258
302.296
302.335
302.374
302.417
302.467
302.527
302.606
302.715
302.868
303.081
303.362
303.701
304.075
304.447
304.828
305.309
305.984
306.805
300.18
300.523
300.83
301.083
301.277
301.43
301.562
301.68
301.786
301.881
301.965
302.037
302.099
302.153
302.2
302.243
302.283
302.323
302.362
302.404
302.449
302.499
302.56
302.639
302.745
302.892
303.097
303.368
303.701
304.073
304.446
304.827
305.308
305.985
306.808
300.183
300.532
300.845
301.103
301.299
301.454
301.588
301.707
301.814
301.91
301.993
302.065
302.126
302.179
302.226
302.269
302.309
302.349
302.391
302.434
302.481
302.534
302.596
302.675
302.779
302.922
303.12
303.382
303.709
304.077
304.448
304.828
305.309
305.988
306.814
300.187
300.542
300.861
301.122
301.321
301.479
301.614
301.735
301.843
301.939
302.023
302.094
302.154
302.206
302.252
302.295
302.335
302.376
302.419
302.465
302.514
302.57
302.634
302.714
302.817
302.958
303.15
303.405
303.724
304.086
304.454
304.833
305.314
305.995
306.825
300.191
300.553
300.877
301.142
301.344
301.503
301.64
301.763
301.873
301.969
302.052
302.123
302.183
302.234
302.279
302.32
302.361
302.403
302.447
302.496
302.549
302.608
302.675
302.757
302.861
302.999
303.187
303.435
303.747
304.102
304.465
304.841
305.322
306.007
306.844
300.194
300.564
300.893
301.163
301.367
301.528
301.667
301.791
301.902
301.999
302.083
302.153
302.212
302.261
302.305
302.346
302.386
302.429
302.475
302.526
302.584
302.648
302.72
302.805
302.911
303.049
303.233
303.476
303.78
304.126
304.483
304.857
305.339
306.031
306.876
300.198
300.574
300.91
301.183
301.389
301.553
301.694
301.819
301.931
302.029
302.113
302.182
302.24
302.289
302.332
302.372
302.411
302.454
302.501
302.556
302.618
302.689
302.767
302.858
302.967
303.107
303.29
303.529
303.825
304.162
304.51
304.881
305.367
306.067
306.923
300.202
300.585
300.926
301.203
301.412
301.577
301.72
301.847
301.961
302.059
302.143
302.212
302.269
302.317
302.359
302.397
302.436
302.477
302.525
302.582
302.65
302.727
302.814
302.913
303.03
303.174
303.358
303.594
303.882
304.209
304.549
304.918
305.408
306.117
306.984
300.205
300.595
300.942
301.222
301.434
301.601
301.746
301.875
301.99
302.089
302.172
302.241
302.298
302.345
302.385
302.422
302.459
302.499
302.547
302.605
302.676
302.76
302.857
302.966
303.092
303.243
303.431
303.665
303.948
304.265
304.597
304.964
305.459
306.176
307.05
300.209
300.606
300.958
301.242
301.456
301.626
301.772
301.903
302.019
302.118
302.202
302.271
302.327
302.373
302.412
302.448
302.483
302.521
302.567
302.624
302.696
302.785
302.891
303.012
303.149
303.31
303.503
303.738
304.016
304.325
304.651
305.017
305.516
306.239
307.117
300.213
300.616
300.974
301.262
301.478
301.65
301.798
301.931
302.048
302.148
302.232
302.301
302.356
302.401
302.439
302.473
302.507
302.543
302.586
302.641
302.711
302.802
302.913
303.044
303.194
303.366
303.567
303.805
304.081
304.384
304.705
305.071
305.572
306.298
307.177
300.216
300.626
300.99
301.282
301.501
301.675
301.826
301.96
302.078
302.179
302.263
302.331
302.385
302.43
302.467
302.5
302.532
302.567
302.607
302.658
302.724
302.813
302.926
303.064
303.225
303.409
303.62
303.863
304.139
304.44
304.759
305.124
305.626
306.352
307.23
300.22
300.637
301.006
301.303
301.525
301.701
301.854
301.989
302.109
302.21
302.294
302.362
302.415
302.459
302.495
302.528
302.559
302.591
302.629
302.676
302.739
302.822
302.933
303.073
303.242
303.437
303.659
303.909
304.188
304.489
304.807
305.172
305.674
306.398
307.274
300.224
300.648
301.024
301.325
301.55
301.728
301.883
302.02
302.14
302.243
302.326
302.393
302.446
302.489
302.524
302.556
302.586
302.618
302.654
302.698
302.756
302.834
302.94
303.078
303.25
303.453
303.686
303.945
304.23
304.533
304.852
305.217
305.719
306.44
307.312
300.228
300.66
301.042
301.347
301.575
301.756
301.913
302.052
302.174
302.276
302.359
302.426
302.478
302.519
302.554
302.585
302.615
302.645
302.68
302.722
302.777
302.85
302.949
303.083
303.254
303.462
303.702
303.971
304.263
304.57
304.892
305.258
305.758
306.476
307.345
300.232
300.672
301.061
301.371
301.602
301.786
301.944
302.085
302.208
302.311
302.394
302.459
302.51
302.551
302.585
302.615
302.644
302.674
302.708
302.749
302.801
302.87
302.964
303.092
303.26
303.469
303.715
303.993
304.293
304.606
304.93
305.297
305.796
306.511
307.375
300.237
300.685
301.081
301.395
301.63
301.816
301.977
302.12
302.244
302.346
302.429
302.493
302.543
302.582
302.615
302.645
302.673
302.704
302.737
302.778
302.828
302.895
302.985
303.107
303.27
303.477
303.727
304.011
304.319
304.638
304.965
305.332
305.831
306.543
307.402
300.241
300.698
301.101
301.421
301.659
301.848
302.011
302.156
302.28
302.383
302.465
302.527
302.576
302.614
302.646
302.675
302.704
302.734
302.768
302.808
302.859
302.924
303.011
303.129
303.287
303.491
303.742
304.031
304.346
304.671
305
305.368
305.866
306.574
307.428
300.246
300.712
301.122
301.447
301.689
301.88
302.046
302.193
302.318
302.421
302.501
302.563
302.61
302.647
302.677
302.706
302.734
302.764
302.799
302.84
302.89
302.955
303.04
303.155
303.31
303.511
303.761
304.053
304.373
304.702
305.033
305.401
305.898
306.602
307.449
300.251
300.726
301.144
301.474
301.719
301.914
302.083
302.231
302.357
302.459
302.539
302.598
302.644
302.679
302.709
302.736
302.765
302.795
302.831
302.873
302.924
302.989
303.074
303.187
303.339
303.538
303.787
304.081
304.404
304.735
305.067
305.435
305.931
306.63
307.47
300.256
300.741
301.167
301.502
301.75
301.948
302.12
302.27
302.397
302.499
302.577
302.635
302.678
302.712
302.74
302.767
302.795
302.826
302.862
302.906
302.959
303.025
303.11
303.223
303.373
303.569
303.817
304.11
304.434
304.767
305.098
305.465
305.959
306.652
307.486
300.261
300.756
301.189
301.53
301.782
301.983
302.157
302.31
302.437
302.539
302.615
302.672
302.713
302.745
302.772
302.798
302.825
302.857
302.894
302.939
302.994
303.063
303.15
303.263
303.412
303.607
303.853
304.145
304.469
304.8
305.13
305.496
305.988
306.676
307.504
300.266
300.771
301.212
301.559
301.815
302.019
302.196
302.35
302.479
302.58
302.655
302.709
302.748
302.778
302.803
302.828
302.855
302.887
302.925
302.972
303.03
303.101
303.19
303.305
303.454
303.648
303.891
304.181
304.502
304.831
305.158
305.521
306.011
306.694
307.518
300.272
300.786
301.236
301.587
301.847
302.055
302.235
302.392
302.521
302.621
302.695
302.747
302.784
302.811
302.835
302.858
302.885
302.917
302.956
303.005
303.065
303.139
303.232
303.349
303.5
303.694
303.935
304.221
304.538
304.862
305.185
305.546
306.034
306.713
307.534
300.277
300.801
301.259
301.617
301.881
302.092
302.275
302.434
302.564
302.664
302.736
302.786
302.82
302.845
302.867
302.888
302.914
302.945
302.985
303.035
303.098
303.175
303.271
303.391
303.544
303.737
303.976
304.258
304.569
304.887
305.206
305.564
306.05
306.727
307.546
300.283
300.817
301.283
301.646
301.915
302.129
302.316
302.477
302.608
302.707
302.778
302.825
302.857
302.88
302.899
302.919
302.943
302.974
303.014
303.065
303.129
303.209
303.308
303.432
303.587
303.78
304.017
304.294
304.599
304.911
305.225
305.581
306.065
306.74
307.56
300.288
300.833
301.308
301.677
301.949
302.168
302.357
302.52
302.652
302.751
302.82
302.865
302.895
302.915
302.932
302.95
302.972
303.002
303.041
303.092
303.157
303.239
303.34
303.466
303.623
303.816
304.05
304.323
304.621
304.927
305.237
305.59
306.074
306.749
307.571
300.294
300.849
301.333
301.708
301.984
302.207
302.4
302.565
302.697
302.796
302.863
302.906
302.933
302.951
302.965
302.981
303.002
303.03
303.069
303.119
303.185
303.268
303.371
303.499
303.657
303.85
304.081
304.349
304.641
304.942
305.249
305.6
306.083
306.761
307.587
300.299
300.866
301.359
301.739
302.02
302.246
302.443
302.61
302.743
302.841
302.906
302.948
302.972
302.987
303
303.013
303.032
303.059
303.096
303.146
303.211
303.293
303.397
303.526
303.684
303.876
304.105
304.368
304.655
304.952
305.256
305.607
306.089
306.77
307.602
300.306
300.883
301.385
301.772
302.057
302.287
302.487
302.656
302.789
302.886
302.95
302.989
303.011
303.024
303.034
303.046
303.064
303.089
303.125
303.174
303.238
303.32
303.424
303.553
303.712
303.903
304.13
304.389
304.672
304.965
305.268
305.618
306.102
306.787
307.624
300.312
300.901
301.412
301.806
302.095
302.329
302.532
302.702
302.836
302.932
302.995
303.031
303.051
303.062
303.07
303.08
303.095
303.119
303.154
303.201
303.264
303.346
303.45
303.578
303.736
303.927
304.151
304.407
304.686
304.976
305.278
305.628
306.113
306.803
307.647
300.318
300.919
301.44
301.84
302.135
302.373
302.578
302.751
302.885
302.979
303.04
303.074
303.091
303.1
303.106
303.114
303.128
303.151
303.184
303.231
303.294
303.375
303.478
303.607
303.765
303.954
304.177
304.431
304.707
304.995
305.297
305.648
306.134
306.829
307.678
300.325
300.938
301.469
301.877
302.176
302.419
302.627
302.801
302.935
303.028
303.086
303.118
303.132
303.138
303.142
303.148
303.161
303.182
303.215
303.261
303.323
303.404
303.506