/*--------------------------------*- C++ -*----------------------------------*\
| =========                 |                                                 |
| \\      /  F ield         | OpenFOAM: The Open Source CFD Toolbox           |
|  \\    /   O peration     | Version:  v2006                                 |
|   \\  /    A nd           | Website:  www.openfoam.com                      |
|    \\/     M anipulation  |                                                 |
\*---------------------------------------------------------------------------*/
FoamFile
{
    version     2.0;
    format      ascii;
    class       volScalarField;
    location    "70";
    object      alphat;
}
// * * * * * * * * * * * * * * * * * * * * * * * * * * * * * * * * * * * * * //

dimensions      [1 -1 -1 0 0 0 0];


internalField   nonuniform List<scalar> 
78750
(
0.000804367
0.00168402
0.000890515
3.23155e-05
6.57652e-05
6.9555e-05
6.6394e-05
7.59095e-05
7.99995e-05
8.98565e-05
9.75806e-05
0.000106936
0.000116888
0.000127297
0.000137569
0.000146194
0.000149779
0.000142998
0.000121251
8.95412e-05
6.25589e-05
3.53901e-05
1.38185e-05
4.85212e-05
9.20598e-05
9.93057e-05
0.000106958
0.000113964
0.000121
0.000129655
0.000140564
0.000151209
0.000137093
5.38487e-05
1.41499e-06
7.22939e-06
0.000102712
3.80771e-05
9.77658e-05
0.000103344
0.000105861
0.000133763
0.000155251
0.000174497
0.000189632
0.000204496
0.000213672
0.000217571
0.000218051
0.000215739
0.000210958
0.000204012
0.000195261
0.000185306
0.000175222
0.00016762
0.000183615
0.00031228
0.000399327
0.000388005
0.000277378
0.000220955
0.000223848
0.000266288
0.000293191
0.000253848
0.000161261
6.91464e-05
2.79833e-05
2.81871e-06
1.74103e-05
0.0003114
0.00021755
0.000174199
0.000145404
0.000184172
0.000281958
0.000314816
0.000283032
0.000263041
0.00025676
0.000251844
0.00024722
0.000244282
0.000242807
0.000242412
0.000243058
0.000244982
0.000248303
0.000253375
0.000265382
0.000301099
0.000373897
0.000375331
0.000375593
0.000375927
0.0003762
0.000376022
0.000374964
0.000372676
0.000277448
0.000154643
6.15653e-05
2.32102e-05
2.86392e-06
2.68051e-06
3.39491e-05
8.21336e-05
0.000135133
0.000178594
0.000204708
0.000223819
0.0002424
0.000257428
0.00026387
0.000261456
0.000254097
0.000245306
0.000236689
0.000228924
0.000222502
0.000217886
0.00021549
0.000215718
0.00021929
0.000227586
0.00024158
0.000260319
0.000282581
0.000305017
0.000319798
0.000320228
0.00030624
0.000278994
0.000236098
0.000176325
0.000105779
4.88111e-05
2.31962e-05
3.71126e-06
7.56203e-06
8.94052e-05
8.10219e-05
8.27389e-05
0.00010291
0.000132518
0.000160302
0.000180831
0.000194396
0.000203457
0.000210343
0.000216357
0.000221758
0.000225913
0.000227379
0.000224383
0.000215807
0.000202003
0.000184712
0.000166098
0.00014797
0.000131658
0.000118096
0.000108177
0.000103294
0.000105835
0.000118755
0.000142071
0.000163638
0.000164039
0.00014121
9.98961e-05
5.06973e-05
2.416e-05
3.88736e-06
2.55997e-06
4.41468e-05
6.21665e-05
9.39662e-05
0.00015101
0.000215492
0.000256857
0.000269797
0.000267477
0.0002592
0.000247408
0.000232902
0.000217422
0.000202711
0.00019013
0.000180398
0.000173756
0.000170207
0.000169001
0.000168436
0.000165579
0.000156466
0.00013808
0.000112283
8.60956e-05
6.58857e-05
5.44797e-05
5.34592e-05
6.49349e-05
8.39311e-05
8.08977e-05
5.61337e-05
3.78268e-05
2.98563e-05
4.86416e-06
1.65869e-06
3.05614e-05
7.0109e-05
0.000113663
0.000161136
0.000217842
0.000286472
0.000331819
0.000337131
0.000342249
0.000344083
0.000335204
0.000351796
0.000366835
0.000373243
0.000379249
0.000352453
0.000284567
0.000225135
0.000183608
0.000156032
0.000137299
0.000124789
0.000116458
0.000106961
8.71256e-05
5.90939e-05
3.77779e-05
2.90865e-05
3.34482e-05
5.14383e-05
5.24689e-05
3.36619e-05
3.11654e-05
5.29554e-06
4.10829e-06
4.75509e-05
0.000120542
0.00018343
0.000227238
0.000255167
0.000271577
0.000280639
0.000284769
0.000284815
0.000281034
0.000273794
0.000265388
0.000260252
0.000262858
0.000277196
0.0003057
0.000348474
0.000353626
0.000358711
0.000364188
0.00036969
0.000374789
0.000222138
0.0001425
0.000108464
8.34548e-05
5.67415e-05
3.20939e-05
1.92958e-05
1.97794e-05
3.03169e-05
3.14231e-05
3.59674e-05
5.89057e-06
4.46338e-06
5.95265e-05
0.00010673
0.000133221
0.000146587
0.000151173
0.00015272
0.000155052
0.000159604
0.000165859
0.000172715
0.000180075
0.000188632
0.000199166
0.000212244
0.000228189
0.000246526
0.000265121
0.000280752
0.000292192
0.000301327
0.000308375
0.000304058
0.000283441
0.000265893
0.000261847
0.000225815
0.000121839
5.54684e-05
2.74982e-05
1.70308e-05
1.88406e-05
3.39634e-05
5.50376e-05
5.11595e-06
3.645e-06
2.55087e-05
3.80073e-05
5.11469e-05
6.49925e-05
7.53519e-05
8.18588e-05
8.63028e-05
9.04978e-05
9.52323e-05
0.000100172
0.000104483
0.000107632
0.0001096
0.000110888
0.000112652
0.000116751
0.000124984
0.00013719
0.000149614
0.00015634
0.000153718
0.00014308
0.000129471
0.000118993
0.000117462
0.000128017
0.00013059
8.00023e-05
3.47144e-05
1.65362e-05
1.08839e-05
1.42063e-05
4.64715e-05
5.41592e-06
4.1182e-06
1.88645e-05
3.68675e-05
6.50641e-05
9.17989e-05
0.000107408
0.000116261
0.000122878
0.000129268
0.00013634
0.000144315
0.000152789
0.000160837
0.000167297
0.000171117
0.000171562
0.00016799
0.000159973
0.000147883
0.000132507
0.000114466
9.42447e-05
7.35351e-05
5.89862e-05
5.97538e-05
8.4178e-05
0.000115856
0.000115193
0.000125205
0.000178651
0.000112157
3.26906e-05
1.53288e-05
1.90801e-05
4.66591e-06
4.52377e-06
1.91871e-05
6.1941e-05
0.000133239
0.000163725
0.000156404
0.000139152
0.000128901
0.000129076
0.000138107
0.000153931
0.000174634
0.000198328
0.000223052
0.000246693
0.00026712
0.000282071
0.000289491
0.000287334
0.000272465
0.000241286
0.000195007
0.000143852
9.91634e-05
6.75265e-05
5.25126e-05
5.72129e-05
8.60321e-05
0.00011299
0.000110733
9.16898e-05
5.42245e-05
2.54685e-05
1.99773e-05
4.67587e-06
6.92573e-06
3.28004e-05
0.000108869
0.000176019
0.000150782
0.000111168
9.16235e-05
9.04044e-05
0.000102178
0.000123672
0.000152002
0.00018416
0.000217894
0.000251903
0.000284821
0.000311843
0.000311077
0.000308336
0.000305163
0.000293153
0.000269595
0.000240063
0.000202862
0.000152259
9.13323e-05
4.87149e-05
3.51788e-05
5.05345e-05
0.000130975
0.000200326
0.000147156
7.73331e-05
3.51929e-05
2.02393e-05
3.30307e-06
9.43432e-06
5.66567e-05
0.000155558
0.000125911
7.89698e-05
5.66452e-05
5.59751e-05
7.27705e-05
0.000102631
0.000130558
0.000148319
0.000159698
0.000168881
0.000178319
0.000189574
0.000203876
0.000222253
0.000244644
0.000266682
0.000272748
0.000239785
0.000178201
0.00012413
8.99541e-05
7.05306e-05
5.49795e-05
4.37239e-05
5.40772e-05
0.000112
0.000164146
0.000128509
7.55583e-05
3.95952e-05
2.3569e-05
2.56297e-06
8.33702e-06
3.8712e-05
0.000119087
0.000109922
6.48555e-05
4.87606e-05
5.2149e-05
7.01206e-05
0.000103192
0.000146276
0.00018549
0.000212153
0.00022605
0.000229502
0.000225556
0.000217442
0.000207866
0.000198585
0.000190203
0.000182013
0.000171312
0.000150717
0.000111795
6.79628e-05
4.38145e-05
4.46354e-05
9.02054e-05
0.000179257
0.000195391
0.000157686
9.13906e-05
4.93647e-05
2.67488e-05
1.87486e-05
2.25451e-06
9.01881e-06
4.6262e-05
0.000162055
0.000107571
5.73983e-05
4.66529e-05
5.5674e-05
7.52501e-05
9.80073e-05
0.000122546
0.000150087
0.00018022
0.000211905
0.000244172
0.00027542
0.000302779
0.000321765
0.000326814
0.000314306
0.000285748
0.000248673
0.000212131
0.000180459
0.000149704
0.000110521
7.28522e-05
5.77448e-05
6.98431e-05
8.6014e-05
7.85733e-05
6.64529e-05
3.0899e-05
1.45691e-05
1.13418e-05
2.20188e-06
1.0202e-05
6.73019e-05
0.000128977
5.81816e-05
3.34111e-05
3.7242e-05
7.2293e-05
0.000133106
0.000171956
0.000187145
0.000191012
0.000193475
0.00019974
0.000211021
0.000226881
0.000246403
0.000268163
0.000289735
0.000306861
0.000312363
0.000306705
0.000279071
0.000238059
0.000196833
0.000162466
0.000136329
0.000122593
0.000129122
0.000143085
0.000114386
8.01848e-05
4.19454e-05
1.62278e-05
1.09007e-05
2.44968e-06
9.50568e-06
5.58261e-05
0.000143968
8.89897e-05
4.98406e-05
3.91876e-05
4.79167e-05
7.28926e-05
0.000106116
0.000136387
0.000157675
0.000170764
0.000179297
0.000187088
0.000196873
0.000209834
0.000225724
0.000243113
0.000259687
0.000272273
0.000276085
0.000265291
0.000237083
0.00019828
0.000163054
0.000140706
0.000133089
0.000136987
0.00013815
0.000114555
7.51549e-05
3.45165e-05
1.31189e-05
1.09467e-05
2.79578e-06
9.89961e-06
6.16788e-05
0.000149378
0.000130398
8.58289e-05
5.60602e-05
4.51004e-05
4.65716e-05
5.60281e-05
7.0993e-05
8.72321e-05
0.000100728
0.000112953
0.000128106
0.000148679
0.00017418
0.000201296
0.000225529
0.000243436
0.000253343
0.000254705
0.000247993
0.000235211
0.000219812
0.000205867
0.000197717
0.000198811
0.00020529
0.00019685
0.00015573
9.57556e-05
3.68588e-05
1.10936e-05
1.05289e-05
3.00928e-06
8.97534e-06
4.77186e-05
0.000131112
0.000152282
0.000133947
0.000100145
7.06198e-05
5.41896e-05
4.81262e-05
4.90018e-05
5.55727e-05
6.64047e-05
7.77613e-05
8.90584e-05
0.000104894
0.000127355
0.000153822
0.000180481
0.000205333
0.000227227
0.000244067
0.00025328
0.000253449
0.000245737
0.000234286
0.000224997
0.000222818
0.000226887
0.000225155
0.000198728
0.00014206
6.59685e-05
1.77912e-05
1.09515e-05
3.03688e-06
8.04544e-06
3.78612e-05
0.000118281
0.000180492
0.000183072
0.000152388
0.000112486
8.17591e-05
6.26634e-05
5.13539e-05
4.49925e-05
4.2996e-05
4.70183e-05
6.17943e-05
9.32994e-05
0.000125025
0.000125903
0.00011606
0.000113623
0.000123014
0.000143627
0.000170457
0.000195545
0.000212976
0.00022159
0.000223499
0.000221181
0.000214517
0.000199511
0.00017062
0.000123972
6.28209e-05
2.21817e-05
1.48191e-05
3.458e-06
7.77244e-06
3.34623e-05
0.00010274
0.000173425
0.000180224
0.000160964
0.000137183
0.000120283
0.000110594
9.92879e-05
8.19613e-05
6.43199e-05
5.10379e-05
4.33208e-05
4.19788e-05
4.96334e-05
7.09187e-05
9.10584e-05
7.24274e-05
5.76778e-05
6.13e-05
8.12805e-05
0.000119565
0.000172478
0.000222196
0.000249203
0.000248659
0.000228396
0.000197359
0.000158404
0.000109163
5.48048e-05
2.32442e-05
1.92568e-05
3.84637e-06
8.79519e-06
3.89654e-05
0.000127481
0.000177508
0.000160326
0.000120368
8.67198e-05
7.26472e-05
7.7828e-05
9.9657e-05
0.000124889
0.000124547
9.5314e-05
6.75858e-05
5.22589e-05
4.75514e-05
5.34458e-05
7.60038e-05
0.000126603
0.000180378
0.000110285
6.13231e-05
6.03199e-05
8.86086e-05
0.00014563
0.00020836
0.000236428
0.000224035
0.000187493
0.000139941
8.80431e-05
4.41347e-05
2.31481e-05
2.62798e-05
4.14966e-06
9.50218e-06
4.44865e-05
0.000130859
0.000182283
0.000178241
0.000144569
9.9825e-05
7.03941e-05
6.12201e-05
6.90135e-05
9.12237e-05
0.00011596
0.000119195
9.64599e-05
7.27146e-05
6.11206e-05
6.08401e-05
7.04442e-05
9.17394e-05
0.000129822
0.000179335
0.000180135
9.44558e-05
5.78573e-05
6.38378e-05
0.000101334
0.000159914
0.000194749
0.000184431
0.000145313
9.24795e-05
4.5968e-05
2.53295e-05
3.14734e-05
4.31467e-06
1.01222e-05
5.13349e-05
0.000151603
0.000179262
0.00016071
0.000129382
0.000103443
8.69762e-05
7.85736e-05
7.93617e-05
8.9903e-05
0.000104751
0.000110818
9.84943e-05
7.68655e-05
6.21395e-05
5.94563e-05
6.79525e-05
8.6212e-05
0.000113297
0.000149969
0.00018874
0.000186656
0.000113971
6.21619e-05
5.56616e-05
7.72402e-05
0.000114214
0.000135521
0.000124023
8.86438e-05
4.8873e-05
2.9232e-05
3.80161e-05
4.64537e-06
9.97527e-06
4.92531e-05
0.000144041
0.000177199
0.000167072
0.000136258
0.000102418
7.97568e-05
6.92141e-05
6.81544e-05
7.59725e-05
9.23107e-05
0.00011106
0.000116917
9.99067e-05
7.506e-05
6.09333e-05
6.11288e-05
7.43267e-05
9.78187e-05
0.000125478
0.00014959
0.000159736
0.000136896
8.13648e-05
4.84892e-05
4.86734e-05
7.22398e-05
0.000103804
0.000108431
8.04966e-05
4.66293e-05
3.20603e-05
4.83008e-05
5.24618e-06
9.56695e-06
4.43046e-05
0.000130268
0.000178098
0.000180717
0.000162379
0.000129646
9.59016e-05
7.33325e-05
6.2632e-05
6.13732e-05
6.8995e-05
8.56894e-05
0.000107361
0.000119211
0.000105398
7.9432e-05
6.50475e-05
6.70582e-05
8.41509e-05
0.000112344
0.000140213
0.000153614
0.000143749
0.00010609
5.85998e-05
3.95664e-05
4.49091e-05
6.53118e-05
8.04417e-05
6.8223e-05
4.50606e-05
3.72766e-05
6.36196e-05
6.00607e-06
9.12003e-06
3.98766e-05
0.000120754
0.000172972
0.000171639
0.000149256
0.000121364
9.79434e-05
8.0508e-05
6.84524e-05
6.28537e-05
6.49193e-05
7.53803e-05
9.33191e-05
0.000111846
0.000116153
9.87693e-05
7.77807e-05
7.07453e-05
8.13097e-05
0.000107705
0.000139163
0.00015592
0.000146124
0.000111532
6.63764e-05
3.98488e-05
3.74578e-05
4.96798e-05
6.03213e-05
5.29923e-05
4.12488e-05
4.32549e-05
7.71545e-05
6.88492e-06
9.39434e-06
3.98145e-05
0.000124833
0.000184356
0.000178235
0.000144037
0.000107712
8.60986e-05
7.56961e-05
6.81834e-05
6.24514e-05
6.28793e-05
7.2817e-05
9.32079e-05
0.000118746
0.000132564
0.000118856
9.04646e-05
7.3021e-05
7.50651e-05
9.70808e-05
0.000130303
0.000150367
0.000139646
0.000103511
6.1442e-05
3.55749e-05
3.02727e-05
3.9282e-05
5.13047e-05
4.84561e-05
4.2957e-05
5.25756e-05
7.60337e-05
7.34974e-06
9.75859e-06
4.1132e-05
0.000130361
0.000185198
0.00016082
0.000110075
7.50414e-05
6.30937e-05
6.54431e-05
7.05929e-05
7.0019e-05
6.9651e-05
7.87993e-05
0.000101931
0.000134989
0.000158217
0.000148722
0.00011243
8.10453e-05
7.04886e-05
8.29937e-05
0.000117328
0.000149739
0.000145251
0.000108218
6.49939e-05
3.63306e-05
2.60475e-05
2.87051e-05
3.8479e-05
4.43952e-05
4.7379e-05
6.30116e-05
6.1749e-05
7.41145e-06
1.05996e-05
4.98375e-05
0.000156602
0.000179309
0.000131789
8.01863e-05
5.45337e-05
4.92865e-05
5.82935e-05
7.50341e-05
8.65429e-05
9.07665e-05
9.88228e-05
0.000117137
0.000141337
0.0001576
0.000152654
0.000126523
9.56629e-05
7.68702e-05
7.58541e-05
9.23411e-05
0.000115931
0.000122468
0.000101945
6.86072e-05
4.06562e-05
2.64286e-05
2.41785e-05
3.01707e-05
3.84686e-05
4.7101e-05
6.7529e-05
5.17087e-05
7.28127e-06
1.12414e-05
6.15081e-05
0.000166835
0.00015031
9.68356e-05
5.94064e-05
4.53882e-05
4.75511e-05
6.24619e-05
8.41941e-05
0.000103095
0.000116387
0.000127454
0.000138088
0.000145479
0.000144263
0.000131466
0.000110585
9.03122e-05
7.85383e-05
7.96296e-05
9.41731e-05
0.000112454
0.000114673
9.61752e-05
6.91455e-05
4.43999e-05
2.78619e-05
2.09628e-05
2.25332e-05
3.18312e-05
4.84874e-05
7.30111e-05
4.54406e-05
7.19705e-06
1.08647e-05
6.18621e-05
0.000165794
0.000145523
9.18879e-05
5.64984e-05
4.31403e-05
4.61292e-05
6.47349e-05
9.35169e-05
0.000118972
0.000135682
0.00014657
0.000154486
0.000159361
0.000158496
0.000148519
0.000129014
0.000105492
8.66908e-05
7.85591e-05
8.25701e-05
9.5091e-05
0.000104582
9.97099e-05
8.16876e-05
5.86693e-05
3.79311e-05
2.44323e-05
1.94275e-05
2.20556e-05
3.3808e-05
6.22843e-05
4.53295e-05
7.37973e-06
1.05042e-05
5.69495e-05
0.000167
0.000165129
0.000116947
7.08857e-05
4.59297e-05
3.83699e-05
4.62158e-05
7.16852e-05
0.000109758
0.000143152
0.000161368
0.000165412
0.000159042
0.000145917
0.000129977
0.00011525
0.00010469
9.96109e-05
0.000100133
0.000104833
0.000109115
0.000106289
9.36463e-05
7.48217e-05
5.51668e-05
3.82833e-05
2.60769e-05
1.97257e-05
2.00933e-05
2.97936e-05
5.92454e-05
4.55564e-05
7.53786e-06
1.02751e-05
5.19581e-05
0.000156053
0.000164539
0.000121933
7.85574e-05
5.15106e-05
3.83655e-05
3.80728e-05
5.42488e-05
9.25205e-05
0.000147253
0.000195514
0.0002208
0.00021975
0.000197289
0.000166078
0.000138884
0.000121661
0.000114704
0.000115522
0.000119725
0.000121684
0.000116695
0.000103308
8.35161e-05
6.13013e-05
4.10924e-05
2.6344e-05
1.83217e-05
1.70672e-05
2.49071e-05
5.47452e-05
4.61622e-05
7.68009e-06
1.04494e-05
5.31004e-05
0.000162218
0.000158515
0.000103801
6.45575e-05
4.58842e-05
3.68193e-05
3.55523e-05
4.81857e-05
8.50269e-05
0.000149247
0.000215546
0.000253092
0.000255342
0.000233045
0.00020235
0.000176158
0.000159958
0.000152745
0.000149562
0.000144172
0.000132447
0.000114292
9.25759e-05
7.07827e-05
5.14155e-05
3.57358e-05
2.44345e-05
1.80947e-05
1.7728e-05
2.76944e-05
6.42347e-05
4.16175e-05
7.56618e-06
1.08278e-05
5.95225e-05
0.000167313
0.000143613
8.54771e-05
5.24164e-05
3.98155e-05
3.61035e-05
3.7968e-05
5.2713e-05
9.53686e-05
0.00017112
0.000247128
0.000291057
0.000295054
0.000288173
0.00025661
0.000218151
0.000187325
0.000168719
0.000159681
0.000153821
0.000144002
0.000126099
0.000101138
7.39623e-05
4.99893e-05
3.2442e-05
2.16325e-05
1.64594e-05
1.70075e-05
2.84757e-05
6.88395e-05
3.6326e-05
7.27254e-06
1.07472e-05
6.39144e-05
0.000160468
0.000125886
7.31594e-05
4.45283e-05
3.401e-05
3.34572e-05
3.96592e-05
5.72103e-05
0.000100452
0.000173448
0.000240216
0.000275352
0.000284557
0.000278946
0.000263691
0.000241896
0.000217892
0.000195147
0.000174203
0.000153664
0.00013235
0.000110502
8.90618e-05
6.84545e-05
4.90902e-05
3.27495e-05
2.1651e-05
1.63881e-05
1.74058e-05
3.04049e-05
7.21885e-05
3.22437e-05
6.97741e-06
1.06084e-05
6.4859e-05
0.000154705
0.000129832
8.42137e-05
5.22006e-05
3.65796e-05
3.23095e-05
3.72492e-05
5.3404e-05
8.79287e-05
0.000144235
0.000204659
0.000248478
0.000272301
0.000281843
0.000281914
0.000273566
0.000256057
0.000230504
0.000200511
0.000169395
0.000138585
0.00010905
8.27872e-05
6.16664e-05
4.55354e-05
3.27061e-05
2.26829e-05
1.6833e-05
1.69788e-05
2.88203e-05
6.86144e-05
3.0338e-05
6.7841e-06
1.01534e-05
6.11833e-05
0.000153598
0.000145634
0.000108195
7.03702e-05
4.62084e-05
3.46563e-05
3.23958e-05
3.94142e-05
5.99754e-05
9.96495e-05
0.000154592
0.000207948
0.000246885
0.000270559
0.000283078
0.000287788
0.000285325
0.000273605
0.000250073
0.000215084
0.000173156
0.000130642
9.30354e-05
6.38763e-05
4.40909e-05
3.181e-05
2.38453e-05
1.86561e-05
1.80996e-05
2.85858e-05
6.72382e-05
3.05239e-05
6.71334e-06
9.97586e-06
5.75243e-05
0.00015538
0.000165845
0.000143368
0.000105019
6.82399e-05
4.53891e-05
3.45573e-05
3.20456e-05
3.80896e-05
5.73538e-05
9.51351e-05
0.000147489
0.000198673
0.000237927
0.000265194
0.000282617
0.00029023
0.000286505
0.000270147
0.00024122
0.000201575
0.000155509
0.000109809
7.16645e-05
4.51155e-05
2.96563e-05
2.20953e-05
1.91966e-05
2.0505e-05
3.24114e-05
7.06468e-05
3.05651e-05
6.54972e-06
9.83028e-06
5.50816e-05
0.000153033
0.00016954
0.000153286
0.000128753
0.000100284
7.05234e-05
4.83631e-05
3.64194e-05
3.23503e-05
3.59591e-05
5.09827e-05
8.21435e-05
0.000126858
0.000172519
0.000209919
0.000237515
0.000255147
0.000262206
0.000258262
0.000242945
0.000216083
0.000178467
0.000133674
8.95318e-05
5.48136e-05
3.30228e-05
2.20369e-05
1.84596e-05
2.09631e-05
3.42399e-05
7.00607e-05
3.01448e-05
6.27594e-06
9.61937e-06
5.11351e-05
0.000151332
0.000176128
0.00015988
0.000133609
0.000110584
9.10717e-05
6.96777e-05
4.97979e-05
3.70355e-05
3.15944e-05
3.36403e-05
4.70867e-05
7.88629e-05
0.000128146
0.000175225
0.000206906
0.000226455
0.000236661
0.000237142
0.000227787
0.000209409
0.000182818
0.000148595
0.000109196
7.13126e-05
4.27532e-05
2.60199e-05
1.88873e-05
1.97109e-05
3.23247e-05
6.61549e-05
2.92739e-05
5.97819e-06
9.63509e-06
4.82756e-05
0.000145153
0.00017756
0.000161759
0.000132766
0.000108962
9.57428e-05
8.67439e-05
7.22237e-05
5.36281e-05
3.96697e-05
3.22878e-05
3.11908e-05
3.92446e-05
6.25348e-05
0.00010601
0.000162714
0.000212228
0.000240153
0.000245882
0.000235459
0.000215553
0.000190514
0.00016174
0.000128968
9.33875e-05
6.03685e-05
3.64376e-05
2.33878e-05
1.97375e-05
2.70265e-05
5.6363e-05
3.10669e-05
5.98388e-06
9.85529e-06
4.78664e-05
0.000145996
0.000174536
0.000151396
0.00011501
8.89615e-05
7.73824e-05
7.38418e-05
6.95697e-05
5.87089e-05
4.60929e-05
3.85174e-05
3.7868e-05
4.59987e-05
6.80521e-05
0.000109669
0.000166833
0.00021794
0.000242692
0.000241038
0.000224081
0.000201503
0.000178006
0.0001543
0.000129192
0.000101601
7.27036e-05
4.71669e-05
2.99527e-05
2.24603e-05
2.59944e-05
5.14055e-05
3.50943e-05
6.17225e-06
1.01346e-05
4.8744e-05
0.00014737
0.000175032
0.000147371
0.000106942
8.13155e-05
7.18847e-05
7.17596e-05
7.36421e-05
6.86345e-05
5.50362e-05
4.27369e-05
3.7227e-05
3.92168e-05
5.14219e-05
8.08451e-05
0.000133825
0.00019915
0.00024284
0.000248719
0.000229965
0.000202414
0.000174235
0.00014799
0.000123419
9.93788e-05
7.52861e-05
5.26122e-05
3.50131e-05
2.56874e-05
2.72799e-05
5.03595e-05
3.97612e-05
6.31892e-06
1.00497e-05
4.74508e-05
0.000149026
0.000167416
0.000127781
8.53593e-05
6.53289e-05
6.02399e-05
6.03316e-05
6.05782e-05
6.03178e-05
5.9464e-05
5.74074e-05
5.55396e-05
5.64387e-05
6.16146e-05
7.30953e-05
9.55022e-05
0.000132085
0.000173936
0.000199738
0.0002
0.000183544
0.000161135
0.000138086
0.000115751
9.3958e-05
7.26225e-05
5.28278e-05
3.70916e-05
2.83432e-05
3.0272e-05
5.43968e-05
4.23368e-05
6.40154e-06
1.01077e-05
4.64364e-05
0.000145412
0.000163528
0.000116708
7.34508e-05
5.75939e-05
5.90081e-05
6.70559e-05
6.9776e-05
6.24959e-05
5.24066e-05
4.67153e-05
4.85593e-05
5.90375e-05
7.54555e-05
9.03825e-05
0.000103887
0.000125818
0.000159491
0.000189789
0.000196349
0.000179706
0.000153166
0.000126234
0.000102283
8.14916e-05
6.33002e-05
4.77644e-05
3.59639e-05
2.99678e-05
3.42667e-05
6.15009e-05
4.09751e-05
6.28564e-06
1.03684e-05
4.85479e-05
0.000149558
0.000154296
9.9842e-05
6.00114e-05
4.66459e-05
4.80396e-05
5.78126e-05
7.13659e-05
8.18849e-05
8.23669e-05
7.42398e-05
6.71141e-05
6.77133e-05
7.65033e-05
8.79234e-05
9.45489e-05
9.83594e-05
0.000108594
0.000128524
0.00014859
0.000153679
0.000141184
0.000119544
9.66017e-05
7.59887e-05
5.85929e-05
4.46224e-05
3.47355e-05
3.05789e-05
3.67642e-05
6.53856e-05
3.85201e-05
6.06886e-06
1.04736e-05
5.01455e-05
0.000152783
0.00014849
9.16364e-05
5.62655e-05
4.69494e-05
5.18115e-05
6.12338e-05
6.59724e-05
6.53499e-05
6.56744e-05
7.16639e-05
8.39248e-05
9.95958e-05
0.000114315
0.000122307
0.000118408
0.00010603
9.67358e-05
9.93842e-05
0.000114395
0.000130936
0.000132882
0.000117716
9.50522e-05
7.32501e-05
5.55867e-05
4.24727e-05
3.39556e-05
3.12616e-05
3.90862e-05
6.82453e-05
3.60594e-05
5.842e-06
1.06985e-05
5.34173e-05
0.000156672
0.000144893
8.47351e-05
5.00703e-05
4.11158e-05
4.76203e-05
6.54027e-05
8.57769e-05
9.41099e-05
8.85787e-05
8.18193e-05
8.32811e-05
9.5341e-05
0.000115314
0.000134142
0.000139116
0.000125862
0.000104399
8.81485e-05
8.37304e-05
9.04386e-05
0.000100394
0.000101686
9.05543e-05
7.30567e-05
5.597e-05
4.26244e-05
3.41054e-05
3.17114e-05
3.99818e-05
6.8656e-05
3.51908e-05
5.65786e-06
1.08504e-05
5.74093e-05
0.000160808
0.000138434
8.08772e-05
4.89479e-05
4.07133e-05
4.61949e-05
5.88127e-05
7.25308e-05
8.5356e-05
9.73041e-05
0.00010776
0.000117415
0.000129593
0.000146089
0.000162172
0.000167048
0.000153245
0.000125902
9.78504e-05
7.90154e-05
7.27634e-05
7.69845e-05
8.37387e-05
8.26372e-05
7.17001e-05
5.6943e-05
4.39449e-05
3.53314e-05
3.29422e-05
4.1381e-05
6.9526e-05
3.51453e-05
5.51211e-06
1.07352e-05
5.74346e-05
0.000159328
0.000147141
8.94165e-05
5.09037e-05
3.93798e-05
4.56295e-05
6.51815e-05
8.54373e-05
9.39525e-05
9.54212e-05
9.96255e-05
0.000111553
0.000132019
0.000158221
0.000182742
0.00019461
0.00018572
0.000158112
0.00012259
9.09658e-05
7.0498e-05
6.27466e-05
6.46203e-05
6.84197e-05
6.58705e-05
5.64428e-05
4.53261e-05
3.69758e-05
3.43861e-05
4.23731e-05
6.92304e-05
3.59843e-05
5.43038e-06
1.07074e-05
5.72518e-05
0.000160758
0.000146413
9.07873e-05
5.11543e-05
3.58295e-05
3.65537e-05
5.14157e-05
7.91705e-05
0.000108799
0.000126848
0.000135016
0.000144163
0.000161599
0.000187
0.000212261
0.000225081
0.000217027
0.000189246
0.000150227
0.000110523
7.91235e-05
6.07861e-05
5.52379e-05
5.79263e-05
6.01574e-05
5.5451e-05
4.63724e-05
3.84572e-05
3.57096e-05
4.31637e-05
6.89883e-05
3.76341e-05
5.45874e-06
1.05625e-05
5.55898e-05
0.000158884
0.000152078
9.85475e-05
5.67028e-05
3.88345e-05
3.70806e-05
4.80985e-05
6.99601e-05
9.69429e-05
0.000122385
0.000144503
0.000166322
0.000191565
0.000220585
0.000247753
0.000262656
0.000256684
0.000229284
0.000186921
0.000139095
9.60192e-05
6.56088e-05
5.01889e-05
4.72192e-05
5.07922e-05
5.17908e-05
4.62908e-05
3.94189e-05
3.69375e-05
4.44341e-05
6.9648e-05
3.83823e-05
5.51322e-06
1.08077e-05
5.79175e-05
0.000161253
0.0001407
8.3877e-05
4.94743e-05
3.58456e-05
3.51977e-05
4.72609e-05
7.33626e-05
0.000107
0.00013777
0.000164458
0.00019345
0.000229547
0.000266668
0.000279813
0.000273603
0.000266913
0.000259889
0.000232372
0.000178755
0.000123481
8.00973e-05
5.33759e-05
4.18611e-05
4.1092e-05
4.44277e-05
4.38423e-05
3.93383e-05
3.76838e-05
4.57182e-05
7.01708e-05
3.69371e-05
5.46076e-06
1.07428e-05
6.07659e-05
0.000160113
0.000125638
7.08467e-05
4.33096e-05
3.45836e-05
3.66349e-05
4.98077e-05
7.80813e-05
0.000118786
0.000159973
0.000194466
0.000224807
0.000254471
0.000279043
0.00028557
0.000279862
0.000273544
0.00026676
0.000248705
0.00020321
0.000149215
9.9988e-05
6.35695e-05
4.25959e-05
3.44189e-05
3.45907e-05
3.7447e-05
3.79538e-05
3.87531e-05
4.76845e-05
7.04514e-05
3.45939e-05
5.25048e-06
1.06626e-05
6.03751e-05
0.000156954
0.000127652
7.3243e-05
4.31899e-05
3.34495e-05
3.60094e-05
4.91413e-05
7.34962e-05
0.000107474
0.000145639
0.000183221
0.00021831
0.000249194
0.000272171
0.000283725
0.000284975
0.000279971
0.000272535
0.000253521
0.000220103
0.000176186
0.000128754
8.56671e-05
5.41878e-05
3.64187e-05
2.94936e-05
2.94895e-05
3.26219e-05
3.72977e-05
4.80959e-05
6.96989e-05
3.34161e-05
5.0533e-06
1.05053e-05
6.13707e-05
0.000154421
0.000122203
7.16204e-05
4.25611e-05
3.18452e-05
3.38257e-05
4.87377e-05
7.74522e-05
0.0001156
0.000155345
0.000191405
0.000221854
0.000245646
0.000261654
0.000269794
0.000271624
0.000268853
0.00026131
0.00024688
0.000223671
0.000191769
0.000153276
0.000112117
7.47499e-05
4.7586e-05
3.22485e-05
2.62215e-05
2.65584e-05
3.1833e-05
4.41288e-05
6.64108e-05
3.34194e-05
5.02081e-06
1.01761e-05
5.54605e-05
0.000152069
0.000145784
0.000101167
5.76744e-05
3.53732e-05
2.93406e-05
3.57973e-05
5.58345e-05
8.98358e-05
0.00013267
0.000176116
0.000214058
0.000243035
0.00026153
0.000270249
0.000271738
0.000268512
0.000261416
0.00024954
0.00023139
0.000206142
0.00017416
0.000137115
9.86892e-05
6.50499e-05
4.15313e-05
2.87133e-05
2.40993e-05
2.60252e-05
3.62815e-05
5.96345e-05
3.43604e-05
5.15937e-06
1.01759e-05
5.30894e-05
0.000150074
0.000148244
0.000109569
6.97306e-05
4.26898e-05
2.98989e-05
2.93163e-05
4.15485e-05
7.01424e-05
0.000115837
0.000170614
0.000222682
0.000263533
0.000288736
0.000297611
0.000295089
0.000291541
0.000282379
0.000269173
0.000250818
0.000226103
0.000194749
0.000157664
0.00011743
7.94538e-05
5.04463e-05
3.29886e-05
2.47687e-05
2.36281e-05
3.13127e-05
5.50178e-05
3.56221e-05
5.35005e-06
1.00872e-05
4.99628e-05
0.00014565
0.000150888
0.000117749
8.06621e-05
5.25292e-05
3.45245e-05
2.73775e-05
3.14899e-05
4.98885e-05
8.8606e-05
0.000150104
0.000224918
0.000288556
0.0002977
0.00029714
0.00029552
0.000292866
0.000289244
0.000284765
0.000279005
0.000251658
0.000215863
0.000174209
0.000128883
8.54128e-05
5.23861e-05
3.36435e-05
2.54289e-05
2.39177e-05
3.1087e-05
5.64469e-05
3.65096e-05
5.47171e-06
1.00945e-05
4.79391e-05
0.00014131
0.000150337
0.000116711
7.90691e-05
5.38273e-05
3.80578e-05
2.89624e-05
2.83716e-05
3.9621e-05
6.92322e-05
0.000126782
0.000213293
0.000294023
0.000295413
0.000295794
0.000295082
0.000293251
0.00029032
0.000286354
0.000281474
0.000275486
0.000235928
0.000187407
0.000135202
8.58519e-05
4.95368e-05
3.05233e-05
2.41287e-05
2.5077e-05
3.4471e-05
6.22894e-05
3.55281e-05
5.456e-06
1.01525e-05
4.82124e-05
0.000140992
0.000149999
0.000118379
8.04455e-05
5.41011e-05
3.88579e-05
3.01017e-05
2.77193e-05
3.49544e-05
5.80232e-05
0.000107301
0.000189497
0.000277997
0.000292791
0.000293971
0.000294104
0.000293105
0.000290947
0.000287656
0.000283303
0.000278024
0.000245978
0.000194387
0.000138191
8.57961e-05
4.75795e-05
2.75799e-05
2.13813e-05
2.43954e-05
3.72423e-05
6.55123e-05
3.18428e-05
5.27155e-06
1.0036e-05
4.68419e-05
0.000137855
0.00015116
0.0001242
8.69455e-05
5.81738e-05
4.092e-05
3.11236e-05
2.71809e-05
3.10338e-05
4.76734e-05
8.58564e-05
0.000153556
0.000237781
0.000289866
0.000291778
0.000292739
0.000292623
0.000291368
0.000288955
0.000285406
0.000280798
0.000246557
0.000196623
0.000142858
9.11546e-05
5.1028e-05
2.81734e-05
1.96557e-05
2.15791e-05
3.48476e-05
6.1082e-05
2.76319e-05
4.94784e-06
1.01707e-05
4.84981e-05
0.000140931
0.00015564
0.000131573
9.59607e-05
6.55113e-05
4.56446e-05
3.36713e-05
2.75041e-05
2.81045e-05
3.91647e-05
6.78947e-05
0.000122999
0.000199819
0.000268228
0.000288837
0.000290666
0.000291526
0.000291327
0.000290014
0.00028757
0.000272732
0.000237672
0.000196937
0.00015199
0.000104805
6.29404e-05
3.50064e-05
2.18158e-05
2.00427e-05
3.00669e-05
5.43325e-05
2.54021e-05
4.60564e-06
1.01993e-05
4.94265e-05
0.000144218
0.000161646
0.000141074
0.000107669
7.58112e-05
5.33612e-05
3.90017e-05
3.00617e-05
2.69197e-05
3.22796e-05
5.16485e-05
9.42584e-05
0.000163156
0.000237023
0.000284792
0.000287477
0.000289325
0.000290231
0.00029012
0.000278667
0.000256718
0.000230453
0.000199789
0.000164249
0.000124129
8.3262e-05
4.9964e-05
3.00968e-05
2.30013e-05
2.83217e-05
5.07679e-05
2.65638e-05
4.35388e-06
1.04915e-05
5.38023e-05
0.000153774
0.000170238
0.000150812
0.000118285
8.44565e-05
5.93015e-05
4.36641e-05
3.37963e-05
2.83643e-05
2.95591e-05
4.18474e-05
7.36317e-05
0.000133954
0.000211747
0.00026992
0.000283091
0.000285728
0.000287602
0.000279954
0.000265179
0.000247929
0.000227696
0.000203785
0.000175657
0.000142954
0.000106632
7.14155e-05
4.50057e-05
3.15931e-05
3.20493e-05
5.15733e-05
3.20967e-05
4.23166e-06
1.06105e-05
5.86095e-05
0.000163754
0.00017641
0.000156974
0.000126474
9.33259e-05
6.59366e-05
4.79723e-05
3.72515e-05
3.10347e-05
2.99984e-05
3.78951e-05
6.17841e-05
0.000111702
0.000184942
0.000248797
0.000277782
0.000280714
0.000273185
0.000262569
0.000250737
0.000237495
0.000222095
0.000203749
0.000181749
0.000155499
0.000124903
9.19303e-05
6.24861e-05
4.3746e-05
3.98878e-05
5.62206e-05
4.09548e-05
4.2261e-06
1.07625e-05
6.41214e-05
0.000173722
0.000182771
0.000162604
0.000132655
9.99257e-05
7.13304e-05
5.136e-05
3.94729e-05
3.30555e-05
3.13651e-05
3.702e-05
5.59671e-05
9.72137e-05
0.000161504
0.00022284
0.000253516
0.000257557
0.000250511
0.000240987
0.00023132
0.000221336
0.000210122
0.000196647
0.000179956
0.000159225
0.000133944
0.000104859
7.60377e-05
5.49991e-05
4.85108e-05
6.25605e-05
4.88961e-05
4.29975e-06
1.07368e-05
6.88294e-05