/*--------------------------------*- C++ -*----------------------------------*\
| =========                 |                                                 |
| \\      /  F ield         | OpenFOAM: The Open Source CFD Toolbox           |
|  \\    /   O peration     | Version:  v2012                                 |
|   \\  /    A nd           | Website:  www.openfoam.com                      |
|    \\/     M anipulation  |                                                 |
\*---------------------------------------------------------------------------*/
FoamFile
{
    version     2.0;
    format      ascii;
    class       volVectorField;
    location    "70";
    object      U;
}
// * * * * * * * * * * * * * * * * * * * * * * * * * * * * * * * * * * * * * //

dimensions      [0 1 -1 0 0 0 0];


internalField   nonuniform List<vector> 
78750
(
(-2.76843e-06 -9.14528e-05 9.3292e-05)
(-1.16866e-05 -0.00011272 0.000161397)
(-3.31945e-05 -0.000102613 0.000198528)
(-6.34288e-05 -7.92039e-05 0.000227188)
(-0.0001007 -4.96895e-05 0.00024956)
(-0.000143605 -1.76302e-05 0.000267403)
(-0.000190607 1.37673e-05 0.000281343)
(-0.000240056 4.31151e-05 0.000291796)
(-0.000290413 6.8747e-05 0.000298498)
(-0.000340282 9.04376e-05 0.000301251)
(-0.00038837 0.000107455 0.000299507)
(-0.000433599 0.000120132 0.000292949)
(-0.000474951 0.000128217 0.000281192)
(-0.000511642 0.000132253 0.000264128)
(-0.00054292 0.000132265 0.000241807)
(-0.000568307 0.000128888 0.000214489)
(-0.000587364 0.000122338 0.000182708)
(-0.000599632 0.000113382 0.000147718)
(-0.000605193 0.000101968 0.000109264)
(-0.00060386 8.88078e-05 6.89086e-05)
(-0.000595651 7.41347e-05 2.77868e-05)
(-0.000580762 5.83994e-05 -1.29585e-05)
(-0.000559379 4.18368e-05 -5.2119e-05)
(-0.000531845 2.48398e-05 -8.85118e-05)
(-0.000498513 7.67128e-06 -0.000120969)
(-0.000459862 -9.27176e-06 -0.000148383)
(-0.000416388 -2.56321e-05 -0.000169709)
(-0.000368709 -4.0914e-05 -0.000183977)
(-0.000317499 -5.45556e-05 -0.000190321)
(-0.000263563 -6.5803e-05 -0.000188086)
(-0.000207568 -7.37039e-05 -0.000176812)
(-0.000150031 -7.69703e-05 -0.000156482)
(-9.28431e-05 -7.38369e-05 -0.000127519)
(-4.68851e-05 -6.21342e-05 -9.14691e-05)
(-1.43456e-05 -3.3601e-05 -3.65131e-05)
(-1.22893e-05 0.000253058 -0.000331054)
(-4.73236e-05 0.000505633 -0.000451077)
(-8.9318e-05 0.000631418 -0.000487008)
(-0.000148385 0.000725324 -0.000520866)
(-0.000209762 0.000791493 -0.000549283)
(-0.000269746 0.000832145 -0.000570351)
(-0.00032674 0.000852689 -0.000584839)
(-0.000379636 0.00085456 -0.000595177)
(-0.000427034 0.000842585 -0.000601641)
(-0.00046861 0.000817418 -0.000605824)
(-0.000503631 0.000783185 -0.000607681)
(-0.000531975 0.000740402 -0.000608327)
(-0.000553628 0.000692342 -0.000607689)
(-0.00056864 0.000639389 -0.000606582)
(-0.000577207 0.000584276 -0.00060469)
(-0.000579784 0.000526877 -0.00060282)
(-0.000576634 0.000469209 -0.000600758)
(-0.000568122 0.000411423 -0.000598826)
(-0.000554696 0.000355015 -0.00059675)
(-0.000536781 0.000299965 -0.000594736)
(-0.000514826 0.000247285 -0.000592533)
(-0.00048926 0.000196875 -0.0005902)
(-0.000460518 0.000149387 -0.000587396)
(-0.000429019 0.000104706 -0.000584046)
(-0.000395161 6.32393e-05 -0.000579761)
(-0.000359334 2.49158e-05 -0.000574236)
(-0.000321915 -9.99378e-06 -0.000566867)
(-0.000283274 -4.1473e-05 -0.000556904)
(-0.000243793 -6.92868e-05 -0.000543152)
(-0.000203846 -9.32485e-05 -0.000523914)
(-0.0001636 -0.000112951 -0.000496838)
(-0.000122706 -0.000127587 -0.000457356)
(-8.15195e-05 -0.000135264 -0.000394387)
(-4.90687e-05 -0.00013087 -0.000293717)
(-2.51157e-05 -8.06099e-05 -9.2529e-05)
(-1.03615e-05 0.0005184 -0.000152821)
(-3.27555e-05 0.000901758 -0.000232898)
(-5.42286e-05 0.00106485 -0.000265725)
(-8.44155e-05 0.00117466 -0.00028917)
(-0.000114476 0.00124042 -0.000308267)
(-0.000142864 0.00127363 -0.000324143)
(-0.000169109 0.00127886 -0.000338957)
(-0.000192875 0.0012639 -0.00035244)
(-0.000213717 0.00123113 -0.000365814)
(-0.00023134 0.00118625 -0.000378188)
(-0.000245646 0.00113058 -0.000390342)
(-0.00025659 0.00106848 -0.000401253)
(-0.000264272 0.00100069 -0.000411508)
(-0.000268764 0.000930555 -0.000420149)
(-0.000270391 0.000858309 -0.000427875)
(-0.000269209 0.000786533 -0.000433996)
(-0.000265576 0.000715199 -0.000439005)
(-0.000259734 0.000645946 -0.000442405)
(-0.000251911 0.00057858 -0.000444677)
(-0.000242389 0.000514479 -0.000445356)
(-0.000231385 0.000453369 -0.000444863)
(-0.000219087 0.000395966 -0.000443005)
(-0.000205726 0.000341982 -0.000440096)
(-0.000191431 0.000291852 -0.000435955)
(-0.000176397 0.00024531 -0.000430756)
(-0.000160744 0.000202613 -0.000424244)
(-0.000144606 0.000163674 -0.000416274)
(-0.000128086 0.000128648 -0.000406329)
(-0.000111322 9.74451e-05 -0.00039381)
(-9.43961e-05 7.02519e-05 -0.000377507)
(-7.73525e-05 4.71739e-05 -0.000355615)
(-5.99059e-05 2.85846e-05 -0.000324598)
(-4.18599e-05 1.47612e-05 -0.000278217)
(-2.62612e-05 6.60623e-06 -0.000209482)
(-1.55183e-05 5.43143e-06 -6.03155e-05)
(-1.36978e-05 0.000632622 0.000156361)
(-2.87784e-05 0.0010455 0.00015198)
(-3.80023e-05 0.00122425 0.000124604)
(-5.03073e-05 0.00134403 9.98655e-05)
(-6.09666e-05 0.00141854 8.07237e-05)
(-7.03088e-05 0.00145585 6.13112e-05)
(-7.85864e-05 0.00146506 4.04947e-05)
(-8.59021e-05 0.00145044 1.68142e-05)
(-9.20929e-05 0.00141861 -8.49275e-06)
(-9.71156e-05 0.00137196 -3.5986e-05)
(-0.000100832 0.0013157 -6.41316e-05)
(-0.000103278 0.00125125 -9.31357e-05)
(-0.000104404 0.00118259 -0.000121426)
(-0.000104403 0.00111033 -0.000149279)
(-0.000103387 0.0010375 -0.000175382)
(-0.00010139 0.000964513 -0.000199474)
(-9.86025e-05 0.00089337 -0.000220899)
(-9.52576e-05 0.000823868 -0.000240188)
(-9.14147e-05 0.000757335 -0.000256921)
(-8.72464e-05 0.000693483 -0.00027152)
(-8.2814e-05 0.000633203 -0.000283697)
(-7.82801e-05 0.000576168 -0.000293807)
(-7.36418e-05 0.000522712 -0.000301764)
(-6.90283e-05 0.00047248 -0.000307862)
(-6.44315e-05 0.000425769 -0.00031195)
(-5.99677e-05 0.000382382 -0.00031414)
(-5.56185e-05 0.000342295 -0.000314312)
(-5.13724e-05 0.000305136 -0.000312512)
(-4.71319e-05 0.000270853 -0.000308339)
(-4.28233e-05 0.000239029 -0.000301476)
(-3.8207e-05 0.000209344 -0.000291198)
(-3.27847e-05 0.000181277 -0.000277391)
(-2.56554e-05 0.000154125 -0.000260018)
(-1.77823e-05 0.000127316 -0.000232963)
(-1.19803e-05 8.21922e-05 -0.000131381)
(-1.47942e-05 0.000615016 0.000302525)
(-2.4612e-05 0.000967758 0.000335419)
(-2.58874e-05 0.00112305 0.00030974)
(-2.56519e-05 0.00123154 0.000285735)
(-2.22047e-05 0.00130201 0.000268316)
(-1.71607e-05 0.0013433 0.000251973)
(-1.1213e-05 0.00135995 0.000233217)
(-5.05304e-06 0.00135804 0.000211976)
(1.11312e-06 0.00134002 0.000187589)
(7.16712e-06 0.0013105 0.000160916)
(1.31038e-05 0.00127105 0.000131941)
(1.86301e-05 0.00122552 0.000102033)
(2.35126e-05 0.00117501 7.16684e-05)
(2.77648e-05 0.00112238 4.22288e-05)
(3.14238e-05 0.00106813 1.40278e-05)
(3.42119e-05 0.00101421 -1.26503e-05)
(3.62889e-05 0.000960597 -3.76838e-05)
(3.76587e-05 0.000908644 -6.05904e-05)
(3.82418e-05 0.000858142 -8.1551e-05)
(3.8115e-05 0.000809996 -0.00010028)
(3.72174e-05 0.000763888 -0.000116979)
(3.56178e-05 0.000720399 -0.000131478)
(3.32792e-05 0.000679137 -0.000143992)
(3.02542e-05 0.000640428 -0.000154427)
(2.6536e-05 0.000603827 -0.000162981)
(2.22161e-05 0.000569491 -0.000169551)
(1.73405e-05 0.000536849 -0.000174345)
(1.20751e-05 0.000505503 -0.000177485)
(6.56626e-06 0.000474565 -0.000179215)
(1.04607e-06 0.000443406 -0.000179497)
(-4.16535e-06 0.000410639 -0.000178742)
(-8.51298e-06 0.000374928 -0.000178739)
(-1.07543e-05 0.000333853 -0.000183511)
(-9.69943e-06 0.000284782 -0.00018775)
(-8.27577e-06 0.000184451 -0.000131143)
(-9.26656e-06 0.000551136 0.000317362)
(-1.20607e-05 0.000831773 0.000347553)
(-9.2153e-06 0.000958925 0.000320084)
(-3.09441e-06 0.00105042 0.000295661)
(5.82854e-06 0.00111489 0.000279436)
(1.61399e-05 0.00115657 0.000265116)
(2.69949e-05 0.001181 0.000249529)
(3.78762e-05 0.00119049 0.000232189)
(4.83575e-05 0.00118905 0.000213221)
(5.80944e-05 0.00117802 0.000192708)
(6.6811e-05 0.00116043 0.000171103)
(7.42872e-05 0.00113702 0.000148649)
(8.04743e-05 0.00111016 0.000125875)
(8.52867e-05 0.00108021 0.000103036)
(8.8778e-05 0.00104892 8.06563e-05)
(9.09835e-05 0.00101637 5.90137e-05)
(9.19255e-05 0.000983883 3.8376e-05)
(9.16158e-05 0.000951351 1.88297e-05)
(9.01807e-05 0.000919713 6.73909e-07)
(8.75974e-05 0.000888755 -1.60902e-05)
(8.39866e-05 0.00085912 -3.12539e-05)
(7.93403e-05 0.000830455 -4.48993e-05)
(7.37811e-05 0.000803139 -5.68947e-05)
(6.73283e-05 0.000776687 -6.73912e-05)
(6.0113e-05 0.000751211 -7.6321e-05)
(5.21952e-05 0.000726041 -8.39121e-05)
(4.37648e-05 0.000700953 -9.01806e-05)
(3.49482e-05 0.000674955 -9.54761e-05)
(2.60007e-05 0.00064731 -9.99046e-05)
(1.71481e-05 0.000616457 -0.000103872)
(8.75196e-06 0.000580777 -0.000107853)
(1.31041e-06 0.000537677 -0.000114424)
(-3.9796e-06 0.00048393 -0.000128307)
(-5.52359e-06 0.000415061 -0.000145218)
(-5.72623e-06 0.000266977 -0.000113878)
(-4.03325e-06 0.000467064 0.000249213)
(-2.76696e-06 0.000704072 0.000261725)
(7.66866e-07 0.000813215 0.000235117)
(7.15951e-06 0.000895088 0.000212483)
(1.52205e-05 0.000955456 0.000197866)
(2.39569e-05 0.000999279 0.00018599)
(3.29388e-05 0.00102952 0.000174261)
(4.17879e-05 0.00104949 0.000162152)
(5.02491e-05 0.00106068 0.000149466)
(5.80672e-05 0.00106544 0.000136241)
(6.50657e-05 0.00106452 0.000122423)
(7.11293e-05 0.0010597 0.000108209)
(7.61533e-05 0.0010513 9.36777e-05)
(8.01101e-05 0.00104073 7.91426e-05)
(8.29379e-05 0.00102806 6.46941e-05)
(8.46514e-05 0.0010144 5.06415e-05)
(8.52557e-05 0.000999653 3.7079e-05)
(8.47746e-05 0.000984694 2.42598e-05)
(8.32072e-05 0.000969313 1.21893e-05)
(8.06438e-05 0.000954133 1.0907e-06)
(7.70812e-05 0.000938817 -9.09766e-06)
(7.26244e-05 0.000923774 -1.82096e-05)
(6.72974e-05 0.000908518 -2.63716e-05)
(6.12125e-05 0.000893224 -3.34733e-05)
(5.44324e-05 0.000877194 -3.97086e-05)
(4.70952e-05 0.000860305 -4.50247e-05)
(3.93101e-05 0.000841531 -4.96958e-05)
(3.12625e-05 0.000820268 -5.37651e-05)
(2.31465e-05 0.000794905 -5.75964e-05)
(1.52194e-05 0.000764028 -6.1287e-05)
(7.7673e-06 0.000724966 -6.55116e-05)
(1.24035e-06 0.000674888 -7.21439e-05)
(-3.40093e-06 0.000609182 -8.52812e-05)
(-4.87665e-06 0.000522441 -0.00010132)
(-4.75787e-06 0.000331804 -8.12429e-05)
(-1.83239e-06 0.000404978 0.000168848)
(-2.47091e-07 0.000627709 0.000170907)
(1.62926e-06 0.000731667 0.00015101)
(5.15129e-06 0.000810817 0.000134193)
(9.39839e-06 0.000871339 0.000122985)
(1.39971e-05 0.00091699 0.000113836)
(1.87151e-05 0.00095153 0.000105154)
(2.34536e-05 0.000976926 9.6445e-05)
(2.80593e-05 0.000995584 8.77096e-05)
(3.24207e-05 0.00100849 7.87943e-05)
(3.64359e-05 0.00101728 6.98174e-05)
(4.0003e-05 0.00102241 6.07184e-05)
(4.30774e-05 0.00102508 5.17133e-05)
(4.55677e-05 0.00102541 4.27787e-05)
(4.74603e-05 0.00102434 3.41701e-05)
(4.87084e-05 0.00102177 2.58509e-05)
(4.92684e-05 0.00101848 1.80156e-05)
(4.91491e-05 0.00101422 1.06463e-05)
(4.83716e-05 0.00100956 3.95737e-06)
(4.69002e-05 0.00100413 -2.17301e-06)
(4.47977e-05 0.000998367 -7.56271e-06)
(4.20573e-05 0.000991754 -1.23818e-05)
(3.87545e-05 0.000984529 -1.64836e-05)
(3.49124e-05 0.000975994 -2.00867e-05)
(3.06242e-05 0.000966127 -2.30797e-05)
(2.59551e-05 0.000953935 -2.57309e-05)
(2.10211e-05 0.000938988 -2.79743e-05)
(1.59443e-05 0.000919797 -3.01421e-05)
(1.08891e-05 0.000895228 -3.22132e-05)
(6.03446e-06 0.000862921 -3.454e-05)
(1.59851e-06 0.000820493 -3.72885e-05)
(-2.08312e-06 0.000764034 -4.19485e-05)
(-4.38224e-06 0.000688894 -5.09182e-05)
(-4.70286e-06 0.000588343 -6.18243e-05)
(-3.82032e-06 0.000366796 -4.78864e-05)
(-1.45229e-06 0.000365314 0.000111015)
(-9.01191e-07 0.000586227 0.000114073)
(-6.91582e-07 0.000689242 0.000103919)
(1.22251e-07 0.000768552 9.48632e-05)
(1.3178e-06 0.00082955 8.83255e-05)
(2.74111e-06 0.00087693 8.27052e-05)
(4.31129e-06 0.000913541 7.71052e-05)
(6.00175e-06 0.000942216 7.15015e-05)
(7.74546e-06 0.000964391 6.57711e-05)
(9.50298e-06 0.000981875 6.00725e-05)
(1.12067e-05 0.000995327 5.43075e-05)
(1.28248e-05 0.00100599 4.86895e-05)
(1.42983e-05 0.00101407 4.31438e-05)
(1.56017e-05 0.00102049 3.79114e-05)
(1.66724e-05 0.0010252 3.29062e-05)
(1.7501e-05 0.00102891 2.83497e-05)
(1.80433e-05 0.00103141 2.4115e-05)
(1.8294e-05 0.00103325 2.04234e-05)
(1.82188e-05 0.00103407 1.71206e-05)
(1.78294e-05 0.00103429 1.43847e-05)
(1.71118e-05 0.0010334 1.2013e-05)
(1.6075e-05 0.00103169 1.02081e-05)
(1.47188e-05 0.00102847 8.72919e-06)
(1.30869e-05 0.00102383 7.69438e-06)
(1.12001e-05 0.00101683 6.8306e-06)
(9.11559e-06 0.00100723 6.23255e-06)
(6.88745e-06 0.000993687 5.59116e-06)
(4.60142e-06 0.000975431 4.96583e-06)
(2.34529e-06 0.000950394 4.01527e-06)
(2.26643e-07 0.000916858 2.78232e-06)
(-1.62764e-06 0.000871481 8.11611e-07)
(-3.03503e-06 0.000810846 -2.5545e-06)
(-3.66252e-06 0.0007293 -9.09752e-06)
(-3.31961e-06 0.000620346 -1.72526e-05)
(-2.33331e-06 0.000380151 -1.31433e-05)
(-2.13114e-06 0.000342638 7.75439e-05)
(-2.92121e-06 0.000563691 8.89497e-05)
(-4.21782e-06 0.000666728 8.88005e-05)
(-5.5562e-06 0.000745758 8.71692e-05)
(-6.58522e-06 0.000806869 8.53569e-05)
(-7.33352e-06 0.000854205 8.29863e-05)
(-7.8523e-06 0.000891355 8.0143e-05)
(-8.13852e-06 0.000920452 7.68163e-05)
(-8.20794e-06 0.000943693 7.32842e-05)
(-8.06909e-06 0.000962112 6.95207e-05)
(-7.74951e-06 0.000977136 6.57774e-05)
(-7.26862e-06 0.000989184 6.2005e-05)
(-6.66258e-06 0.000999252 5.8449e-05)
(-5.95644e-06 0.0010074 5.50346e-05)
(-5.1828e-06 0.00101437 5.19918e-05)
(-4.37918e-06 0.00101999 4.9234e-05)
(-3.5846e-06 0.00102481 4.69857e-05)
(-2.82492e-06 0.00102853 4.51099e-05)
(-2.12876e-06 0.00103158 4.37913e-05)
(-1.52975e-06 0.00103349 4.2854e-05)
(-1.04812e-06 0.00103463 4.24266e-05)
(-6.87828e-07 0.00103437 4.22406e-05)
(-4.56388e-07 0.00103286 4.24184e-05)
(-3.56922e-07 0.00102927 4.2714e-05)
(-3.78215e-07 0.00102349 4.32107e-05)
(-5.07481e-07 0.00101439 4.36256e-05)
(-7.13146e-07 0.00100146 4.40073e-05)
(-9.75031e-07 0.000983021 4.4033e-05)
(-1.2455e-06 0.000957863 4.37093e-05)
(-1.49083e-06 0.000923385 4.26737e-05)
(-1.66407e-06 0.000877077 4.08089e-05)
(-1.71992e-06 0.0008147 3.7294e-05)
(-1.56322e-06 0.000731386 3.11042e-05)
(-1.16095e-06 0.000619943 2.24085e-05)
(-5.89988e-07 0.000375506 1.45741e-05)
(-2.835e-06 0.000327124 5.92353e-05)
(-4.57326e-06 0.000544532 7.98908e-05)
(-6.75419e-06 0.000645429 8.73548e-05)
(-9.28181e-06 0.000722844 9.13863e-05)
(-1.14254e-05 0.000782315 9.30806e-05)
(-1.32187e-05 0.000828529 9.32491e-05)
(-1.469e-05 0.000864432 9.2252e-05)
(-1.58643e-05 0.000892793 9.05321e-05)
(-1.67107e-05 0.000915118 8.82312e-05)
(-1.72498e-05 0.000933128 8.56658e-05)
(-1.74702e-05 0.000947525 8.28851e-05)
(-1.74048e-05 0.000959447 8.01499e-05)
(-1.70567e-05 0.000969138 7.74611e-05)
(-1.64698e-05 0.000977405 7.50452e-05)
(-1.56575e-05 0.000984211 7.28637e-05)
(-1.46689e-05 0.00099016 7.11096e-05)
(-1.35299e-05 0.000995026 6.97018e-05)
(-1.22916e-05 0.000999272 6.87932e-05)
(-1.09846e-05 0.00100252 6.82533e-05)
(-9.65064e-06 0.0010051 6.82027e-05)
(-8.32757e-06 0.00100646 6.84929e-05)
(-7.04258e-06 0.00100678 6.92021e-05)
(-5.81452e-06 0.00100538 7.01125e-05)
(-4.66687e-06 0.00100226 7.12656e-05)
(-3.61455e-06 0.000996484 7.24103e-05)
(-2.65764e-06 0.000987756 7.3555e-05)
(-1.80797e-06 0.000974738 7.44109e-05)
(-1.05678e-06 0.000956631 7.49413e-05)
(-4.09048e-07 0.000931427 7.48007e-05)
(1.43524e-07 0.000897423 7.38765e-05)
(5.77685e-07 0.000851422 7.16766e-05)
(8.65738e-07 0.000790104 6.76831e-05)
(9.52656e-07 0.000708121 6.06518e-05)
(9.39407e-07 0.00059923 5.02076e-05)
(8.70418e-07 0.000360851 3.17322e-05)
(-3.02418e-06 0.000315098 4.44951e-05)
(-5.11848e-06 0.000525081 6.95512e-05)
(-7.6613e-06 0.000622444 8.08604e-05)
(-1.06195e-05 0.000696738 8.7668e-05)
(-1.31998e-05 0.000753821 9.11663e-05)
(-1.53664e-05 0.000797711 9.24761e-05)
(-1.71978e-05 0.000831821 9.238e-05)
(-1.86607e-05 0.000858278 9.12428e-05)
(-1.97676e-05 0.000879148 8.9459e-05)
(-2.04781e-05 0.000895512 8.72007e-05)
(-2.08267e-05 0.000908686 8.47562e-05)
(-2.07882e-05 0.000919166 8.22163e-05)
(-2.04082e-05 0.000927842 7.98121e-05)
(-1.9692e-05 0.000934861 7.7584e-05)
(-1.8692e-05 0.00094086 7.57201e-05)
(-1.74269e-05 0.000945759 7.42152e-05)
(-1.5959e-05 0.000950027 7.32127e-05)
(-1.432e-05 0.000953417 7.2659e-05)
(-1.25724e-05 0.000956261 7.26495e-05)
(-1.07525e-05 0.000958168 7.30798e-05)
(-8.91701e-06 0.000959335 7.39972e-05)
(-7.10545e-06 0.000959217 7.5248e-05)
(-5.36208e-06 0.000957853 7.68344e-05)
(-3.72057e-06 0.0009545 7.85588e-05)
(-2.20922e-06 0.000948972 8.03818e-05)
(-8.50214e-07 0.000940239 8.2066e-05)
(3.38118e-07 0.00092775 8.35278e-05)
(1.33976e-06 0.000910003 8.44785e-05)
(2.15075e-06 0.000885815 8.47645e-05)
(2.7449e-06 0.000852866 8.40106e-05)
(3.11138e-06 0.000808847 8.18904e-05)
(3.15543e-06 0.000749972 7.76523e-05)
(2.81281e-06 0.000671892 7.02301e-05)
(2.26415e-06 0.000568172 5.8687e-05)
(1.67746e-06 0.000342046 3.50159e-05)
(-2.53905e-06 0.000306182 2.71871e-05)
(-4.51453e-06 0.000508476 4.97349e-05)
(-6.95317e-06 0.000601959 6.08118e-05)
(-9.86786e-06 0.000673216 6.7625e-05)
(-1.24497e-05 0.000727534 7.09834e-05)
(-1.46797e-05 0.000769184 7.21708e-05)
(-1.6553e-05 0.000801036 7.18615e-05)
(-1.80767e-05 0.000825623 7.05458e-05)
(-1.91889e-05 0.000844482 6.84874e-05)
(-1.9898e-05 0.000859182 6.60017e-05)
(-2.01736e-05 0.000870518 6.32587e-05)
(-2.00416e-05 0.000879514 6.05017e-05)
(-1.95003e-05 0.000886534 5.78448e-05)
(-1.85961e-05 0.000892284 5.54818e-05)
(-1.73496e-05 0.00089686 5.34807e-05)
(-1.58264e-05 0.000900759 5.19863e-05)
(-1.4064e-05 0.000903888 5.10162e-05)
(-1.21389e-05 0.000906587 5.06601e-05)
(-1.00965e-05 0.000908607 5.08798e-05)
(-8.01506e-06 0.000910151 5.17071e-05)
(-5.94239e-06 0.000910819 5.30467e-05)
(-3.94758e-06 0.000910664 5.48743e-05)
(-2.07716e-06 0.00090912 5.70428e-05)
(-3.74912e-07 0.000906051 5.94788e-05)
(1.12262e-06 0.000900665 6.19894e-05)
(2.3861e-06 0.000892557 6.4459e-05)
(3.39295e-06 0.000880588 6.66512e-05)
(4.13476e-06 0.000863908 6.84025e-05)
(4.60045e-06 0.000840801 6.94158e-05)
(4.79659e-06 0.000809638 6.94488e-05)
(4.69869e-06 0.000767684 6.80581e-05)
(4.26922e-06 0.000711909 6.4668e-05)
(3.43844e-06 0.000637744 5.81871e-05)
(2.51816e-06 0.000539612 4.78544e-05)
(1.69153e-06 0.000325619 2.60738e-05)
(-1.60151e-06 0.000302775 6.5638e-06)
(-3.17469e-06 0.000500658 2.06525e-05)
(-5.28286e-06 0.000591973 2.84348e-05)
(-7.88689e-06 0.000661155 3.30356e-05)
(-1.03365e-05 0.000713695 3.48332e-05)
(-1.25064e-05 0.000753442 3.47893e-05)
(-1.43925e-05 0.000783594 3.35099e-05)
(-1.59153e-05 0.000806282 3.13236e-05)
(-1.70544e-05 0.000823439 2.85387e-05)
(-1.77507e-05 0.000836243 2.53797e-05)
(-1.80109e-05 0.000845922 2.20326e-05)
(-1.78139e-05 0.000853107 1.86743e-05)
(-1.71909e-05 0.000858618 1.5522e-05)
(-1.6157e-05 0.000862754 1.2705e-05)
(-1.4773e-05 0.000866078 1.0388e-05)
(-1.30843e-05 0.000868666 8.65137e-06)
(-1.11646e-05 0.000870893 7.60014e-06)
(-9.07581e-06 0.000872661 7.25681e-06)
(-6.90196e-06 0.000874186 7.66008e-06)
(-4.71434e-06 0.000875213 8.76813e-06)
(-2.59271e-06 0.000875804 1.05531e-05)
(-5.98997e-07 0.000875539 1.29106e-05)
(1.20127e-06 0.000874311 1.57526e-05)
(2.7547e-06 0.000871502 1.89218e-05)
(4.02408e-06 0.000866781 2.22825e-05)
(4.97675e-06 0.000859264 2.56374e-05)
(5.60814e-06 0.000848282 2.88138e-05)
(5.89899e-06 0.000832527 3.1581e-05)
(5.87561e-06 0.000810773 3.37293e-05)
(5.54783e-06 0.000780981 3.49916e-05)
(4.95306e-06 0.000740941 3.50698e-05)
(4.07285e-06 0.000687309 3.34771e-05)
(2.9517e-06 0.000616098 2.94435e-05)
(1.89729e-06 0.000521599 2.25678e-05)
(1.11139e-06 0.000315692 8.78891e-06)
(-5.56276e-07 0.00030679 -1.38748e-05)
(-1.71627e-06 0.000505915 -1.08226e-05)
(-3.39663e-06 0.000597478 -7.74048e-06)
(-5.66421e-06 0.000666603 -6.29156e-06)
(-7.94094e-06 0.000718589 -6.72184e-06)
(-1.00694e-05 0.000757613 -8.43483e-06)
(-1.19523e-05 0.000786644 -1.11055e-05)
(-1.35231e-05 0.000808166 -1.45018e-05)
(-1.46897e-05 0.000823855 -1.84413e-05)
(-1.54175e-05 0.000835237 -2.26913e-05)
(-1.56706e-05 0.000843276 -2.69972e-05)
(-1.54567e-05 0.000848982 -3.11641e-05)
(-1.47811e-05 0.000852902 -3.50306e-05)
(-1.36898e-05 0.000855713 -3.8422e-05)
(-1.22242e-05 0.000857684 -4.12067e-05)
(-1.04517e-05 0.000859263 -4.32591e-05)
(-8.44463e-06 0.000860515 -4.45005e-05)
(-6.29156e-06 0.000861699 -4.48722e-05)
(-4.07439e-06 0.0008627 -4.43631e-05)
(-1.88108e-06 0.000863608 -4.29886e-05)
(2.04546e-07 0.000864133 -4.08089e-05)
(2.10475e-06 0.000864188 -3.79102e-05)
(3.74903e-06 0.000863294 -3.44172e-05)
(5.08368e-06 0.000861158 -3.04726e-05)
(6.06484e-06 0.000857068 -2.62492e-05)
(6.66931e-06 0.000850452 -2.1927e-05)
(6.88563e-06 0.000840266 -1.77046e-05)
(6.7326e-06 0.000825506 -1.37756e-05)
(6.22896e-06 0.000804582 -1.03414e-05)
(5.43898e-06 0.000775764 -7.58005e-06)
(4.40888e-06 0.000736501 -5.69615e-06)
(3.21039e-06 0.000683758 -4.9511e-06)
(1.94533e-06 0.000613264 -5.77152e-06)
(9.52962e-07 0.000519612 -7.9908e-06)
(2.9317e-07 0.000315094 -1.08583e-05)
(3.1259e-07 0.00031889 -3.05878e-05)
(-5.29029e-07 0.000524824 -3.79146e-05)
(-1.82098e-06 0.000619304 -3.94354e-05)
(-3.74297e-06 0.00069018 -4.1143e-05)
(-5.8385e-06 0.000743129 -4.37784e-05)
(-7.87281e-06 0.000782324 -4.71385e-05)
(-9.73224e-06 0.000811075 -5.10877e-05)
(-1.12918e-05 0.000831779 -5.5508e-05)
(-1.24791e-05 0.000846457 -6.02848e-05)
(-1.32224e-05 0.000856533 -6.52686e-05)
(-1.34992e-05 0.000863292 -7.0273e-05)
(-1.32922e-05 0.000867573 -7.50953e-05)
(-1.26245e-05 0.000870223 -7.95457e-05)
(-1.15236e-05 0.000871733 -8.34438e-05)
(-1.00513e-05 0.000872662 -8.66353e-05)
(-8.26775e-06 0.000873252 -8.89892e-05)
(-6.25886e-06 0.000873836 -9.04135e-05)
(-4.11497e-06 0.000874452 -9.0846e-05)
(-1.92871e-06 0.000875237 -9.02715e-05)
(2.09074e-07 0.000876035 -8.87064e-05)
(2.20547e-06 0.000876791 -8.62147e-05)
(3.97444e-06 0.000877149 -8.28879e-05)
(5.4475e-06 0.000876848 -7.88603e-05)
(6.5618e-06 0.000875311 -7.42824e-05)
(7.28295e-06 0.000872024 -6.93368e-05)
(7.58334e-06 0.000866119 -6.42076e-05)
(7.4692e-06 0.000856731 -5.90936e-05)
(6.95243e-06 0.000842553 -5.41736e-05)
(6.09605e-06 0.00082215 -4.96187e-05)
(4.95283e-06 0.000793479 -4.5543e-05)
(3.63251e-06 0.00075411 -4.20441e-05)
(2.23027e-06 0.000700685 -3.91851e-05)
(9.42013e-07 0.000628978 -3.70514e-05)
(8.07711e-08 0.000533246 -3.49559e-05)
(-4.43188e-07 0.000323843 -2.7683e-05)
(8.2143e-07 0.000337416 -4.06518e-05)
(1.20607e-07 0.000554083 -5.49871e-05)
(-8.69565e-07 0.000653224 -5.97246e-05)
(-2.54619e-06 0.000727312 -6.36664e-05)
(-4.46452e-06 0.000782217 -6.78732e-05)
(-6.39478e-06 0.000822527 -7.24291e-05)
(-8.1723e-06 0.000851617 -7.73538e-05)
(-9.68697e-06 0.000872209 -8.26261e-05)
(-1.08388e-05 0.000886303 -8.81596e-05)
(-1.15684e-05 0.00089559 -9.38156e-05)
(-1.18305e-05 0.000901295 -9.9412e-05)
(-1.16214e-05 0.000904515 -0.000104763)
(-1.09457e-05 0.000906012 -0.00010967)
(-9.84512e-06 0.000906509 -0.000113957)
(-8.36858e-06 0.000906456 -0.000117457)
(-6.59331e-06 0.000906303 -0.000120043)
(-4.59963e-06 0.000906255 -0.000121609)
(-2.47985e-06 0.000906533 -0.000122101)
(-3.3289e-07 0.00090712 -0.000121491)
(1.74411e-06 0.000908022 -0.000119809)
(3.65659e-06 0.000909004 -0.000117107)
(5.32079e-06 0.00090985 -0.000113493)
(6.66057e-06 0.000910098 -0.000109094)
(7.61982e-06 0.000909285 -0.000104079)
(8.1529e-06 0.000906678 -9.86212e-05)
(8.25159e-06 0.000901499 -9.29229e-05)
(7.91033e-06 0.000892642 -8.71666e-05)
(7.16862e-06 0.000878866 -8.15352e-05)
(6.07491e-06 0.000858467 -7.61628e-05)
(4.72384e-06 0.000829427 -7.11339e-05)
(3.21272e-06 0.000789007 -6.64572e-05)
(1.69745e-06 0.000733807 -6.2076e-05)
(3.86461e-07 0.000659216 -5.7827e-05)
(-3.63402e-07 0.000559325 -5.2702e-05)
(-8.83443e-07 0.000340319 -3.84283e-05)
(9.43515e-07 0.000359872 -4.38216e-05)
(2.26903e-07 0.000588865 -6.08359e-05)
(-6.40171e-07 0.000693488 -6.69141e-05)
(-2.20232e-06 0.000771356 -7.18189e-05)
(-4.02891e-06 0.000828778 -7.67232e-05)
(-5.86644e-06 0.000870559 -8.18173e-05)
(-7.56803e-06 0.000900392 -8.71969e-05)
(-9.00684e-06 0.000921095 -9.28605e-05)
(-1.0097e-05 0.000934915 -9.87523e-05)
(-1.07626e-05 0.000943574 -0.000104728)
(-1.09723e-05 0.000948504 -0.000110623)
(-1.07118e-05 0.000950797 -0.000116235)
(-9.99697e-06 0.000951393 -0.000121379)
(-8.85927e-06 0.000950984 -0.000125862)
(-7.35935e-06 0.000950173 -0.000129529)
(-5.56588e-06 0.000949357 -0.000132235)
(-3.56713e-06 0.000948872 -0.000133888)
(-1.45292e-06 0.000948859 -0.000134418)
(6.79662e-07 0.00094941 -0.000133812)
(2.72959e-06 0.000950426 -0.000132082)
(4.60591e-06 0.000951757 -0.0001293)
(6.2182e-06 0.000953059 -0.000125556)
(7.49729e-06 0.00095393 -0.000120997)
(8.38109e-06 0.000953757 -0.000115777)
(8.83669e-06 0.000951842 -0.000110089)
(8.84094e-06 0.000947236 -0.000104119)
(8.40697e-06 0.000938839 -9.80685e-05)
(7.56056e-06 0.000925214 -9.21016e-05)
(6.37172e-06 0.000904627 -8.63616e-05)
(4.92188e-06 0.000874826 -8.09013e-05)
(3.32911e-06 0.00083298 -7.57173e-05)
(1.73562e-06 0.000775387 -7.06893e-05)
(3.8328e-07 0.000697225 -6.55812e-05)
(-3.49158e-07 0.000592168 -5.92561e-05)
(-9.68765e-07 0.000361511 -4.2286e-05)
(7.76292e-07 0.000383333 -4.11909e-05)
(-7.09444e-08 0.000624274 -5.68843e-05)
(-9.48877e-07 0.000734203 -6.25176e-05)
(-2.51479e-06 0.000815807 -6.71803e-05)
(-4.29605e-06 0.0008757 -7.1937e-05)
(-6.07288e-06 0.000919017 -7.69547e-05)
(-7.69047e-06 0.000949616 -8.22928e-05)
(-9.04552e-06 0.000970546 -8.79483e-05)
(-1.00431e-05 0.000984146 -9.38406e-05)
(-1.06228e-05 0.000992316 -9.98337e-05)
(-1.07458e-05 0.000996539 -0.000105743)
(-1.04088e-05 0.000998051 -0.00011138)
(-9.62294e-06 0.000997814 -0.000116539)
(-8.42696e-06 0.000996639 -0.000121045)
(-6.87319e-06 0.000995131 -0.000124725)
(-5.03488e-06 0.000993781 -0.000127453)
(-2.99949e-06 0.000992902 -0.000129119)
(-8.5452e-07 0.000992709 -0.00012967)
(1.30018e-06 0.000993248 -0.000129077)
(3.36716e-06 0.000994468 -0.000127367)
(5.25273e-06 0.000996149 -0.000124596)
(6.87482e-06 0.000997974 -0.000120871)
(8.15932e-06 0.000999447 -0.000116319)
(9.04812e-06 0.000999957 -0.000111112)
(9.50116e-06 0.00099869 -0.000105428)
(9.50551e-06 0.000994678 -9.94685e-05)
(9.0624e-06 0.00098668 -9.34245e-05)
(8.2101e-06 0.000973209 -8.74797e-05)
(7.00393e-06 0.000952362 -8.17695e-05)
(5.5339e-06 0.000921792 -7.63732e-05)
(3.90033e-06 0.000878445 -7.12899e-05)
(2.25387e-06 0.000818457 -6.6446e-05)
(8.07215e-07 0.000736685 -6.16447e-05)
(7.70793e-09 0.000626505 -5.58467e-05)
(-7.85439e-07 0.000384266 -4.0164e-05)
(4.11736e-07 0.000405197 -3.47004e-05)
(-6.13752e-07 0.000656185 -4.61481e-05)
(-1.61203e-06 0.000770591 -5.00235e-05)
(-3.26012e-06 0.000855312 -5.35328e-05)
(-5.05426e-06 0.000917268 -5.75157e-05)
(-6.78604e-06 0.000961805 -6.19808e-05)
(-8.33209e-06 0.000992987 -6.69091e-05)
(-9.59525e-06 0.00101399 -7.22389e-05)
(-1.04921e-05 0.00102732 -7.78689e-05)
(-1.09689e-05 0.00103494 -8.36358e-05)
(-1.09917e-05 0.00103846 -8.93544e-05)
(-1.05535e-05 0.00103918 -9.48204e-05)
(-9.67552e-06 0.00103815 -9.98398e-05)
(-8.39289e-06 0.00103622 -0.000104225)
(-6.76222e-06 0.00103407 -0.000107817)
(-4.85425e-06 0.0010322 -0.000110479)
(-2.75117e-06 0.00103099 -0.000112114)
(-5.46674e-07 0.00103064 -0.00011266)
(1.66382e-06 0.00103122 -0.000112098)
(3.78641e-06 0.00103266 -0.000110445)
(5.72704e-06 0.00103475 -0.000107765)
(7.40216e-06 0.00103711 -0.000104154)
(8.74068e-06 0.00103924 -9.97479e-05)
(9.68486e-06 0.00104045 -9.47055e-05)
(1.01966e-05 0.0010399 -8.92146e-05)
(1.02558e-05 0.00103652 -8.3469e-05)
(9.86989e-06 0.00102902 -7.76729e-05)
(9.06528e-06 0.00101579 -7.20113e-05)
(7.89597e-06 0.000994841 -6.66465e-05)
(6.44285e-06 0.000963687 -6.16787e-05)
(4.80305e-06 0.000919142 -5.71668e-05)
(3.0947e-06 0.000857138 -5.31196e-05)
(1.52298e-06 0.000772326 -4.95068e-05)
(5.77433e-07 0.000657779 -4.55057e-05)
(-4.16882e-07 0.000405702 -3.40317e-05)
(-3.19726e-08 0.00042373 -2.64786e-05)
(-1.23956e-06 0.000682065 -3.21868e-05)
(-2.40334e-06 0.000799713 -3.36079e-05)
(-4.17626e-06 0.000886652 -3.54768e-05)
(-6.00398e-06 0.000949995 -3.83318e-05)
(-7.71135e-06 0.000995271 -4.19758e-05)
(-9.19364e-06 0.00102667 -4.62686e-05)
(-1.03703e-05 0.0010475 -5.10828e-05)
(-1.11692e-05 0.00106035 -5.62765e-05)
(-1.15393e-05 0.0010673 -6.16645e-05)
(-1.14538e-05 0.00107001 -6.70489e-05)
(-1.0913e-05 0.00106988 -7.22231e-05)
(-9.93387e-06 0.00106801 -7.69907e-05)
(-8.55605e-06 0.00106531 -8.11664e-05)
(-6.83678e-06 0.00106249 -8.4593e-05)
(-4.84468e-06 0.00106012 -8.71372e-05)
(-2.66407e-06 0.00105857 -8.87047e-05)
(-3.84473e-07 0.00105809 -8.92329e-05)
(1.9007e-06 0.00105873 -8.87041e-05)
(4.0953e-06 0.00106044 -8.71357e-05)
(6.10821e-06 0.00106296 -8.45895e-05)
(7.8608e-06 0.00106593 -8.11596e-05)
(9.27678e-06 0.00106876 -7.69793e-05)
(1.03e-05 0.00107077 -7.22049e-05)
(1.08948e-05 0.00107101 -6.70218e-05)
(1.10372e-05 0.0010684 -6.16263e-05)
(1.07273e-05 0.00106154 -5.62248e-05)
(9.99341e-06 0.00104876 -5.10141e-05)
(8.88286e-06 0.00102798 -4.61792e-05)
(7.46681e-06 0.000996606 -4.18602e-05)
(5.82293e-06 0.000951336 -3.81827e-05)
(4.05547e-06 0.000887974 -3.52778e-05)
(2.3377e-06 0.000800991 -3.33269e-05)
(1.21116e-06 0.00068327 -3.18013e-05)
(2.53103e-08 0.000423975 -2.60469e-05)
(-4.45824e-07 0.000438148 -1.85007e-05)
(-1.79945e-06 0.000700977 -1.83813e-05)
(-3.13659e-06 0.000820569 -1.72709e-05)
(-5.03502e-06 0.000908743 -1.74272e-05)
(-6.90452e-06 0.00097275 -1.90822e-05)
(-8.59824e-06 0.00101821 -2.18365e-05)
(-1.00314e-05 0.00104941 -2.54189e-05)
(-1.11382e-05 0.00106974 -2.96454e-05)
(-1.1853e-05 0.00108188 -3.43245e-05)
(-1.21313e-05 0.00108796 -3.92611e-05)
(-1.19514e-05 0.00108973 -4.42369e-05)
(-1.13169e-05 0.00108863 -4.90542e-05)
(-1.02452e-05 0.00108584 -5.35067e-05)
(-8.77965e-06 0.0010823 -5.74237e-05)
(-6.97536e-06 0.00107878 -6.06402e-05)
(-4.90215e-06 0.00107587 -6.3038e-05)
(-2.64176e-06 0.00107399 -6.45136e-05)
(-2.86604e-07 0.00107336 -6.5018e-05)